# vtk DataFile Version 4.0
vtk output
ASCII
DATASET POLYDATA
POINTS 1002 float
-117.431 -103.491 50.4188 -117.652 -103.504 49.6292 -116.974 -103.56 49.6894 
-116.724 -103.536 50.5472 -116.166 -103.596 49.8489 -117.184 -103.679 51.0926 
-115.927 -103.631 50.7111 -115.366 -103.589 50.1196 -116.492 -103.787 51.2013 
-117.054 -104.263 51.4187 -115.121 -103.701 50.9716 -114.652 -103.533 50.4297 
-115.68 -103.995 51.2892 -116.35 -104.438 51.5102 -116.969 -104.835 51.7834 
-114.405 -103.658 51.3458 -113.933 -103.464 50.7671 -114.827 -104.137 51.5078 
-115.423 -104.688 51.5777 -116.166 -104.962 51.9954 -116.709 -104.963 52.6686 
-113.729 -103.621 51.7565 -113.174 -103.474 51.1858 -114.136 -104.136 51.8899 
-114.511 -104.813 51.8258 -115.169 -105.104 52.23 -115.866 -104.985 53.0474 
-116.351 -104.968 53.7689 -112.932 -103.804 52.064 -112.466 -103.584 51.6428 
-113.449 -104.232 52.215 -113.837 -104.795 52.2493 -114.322 -105.117 52.6556 
-115.033 -104.996 53.4862 -115.64 -104.929 54.1884 -116.135 -105.232 54.5514 
-112.066 -104.097 52.255 -111.874 -103.655 52.0533 -112.502 -104.557 52.3453 
-113.079 -104.867 52.5939 -113.63 -105.01 53.1771 -114.301 -104.965 53.9919 
-115.001 -104.923 54.6455 -115.529 -105.184 54.938 -116.019 -105.582 55.1017 
-111.412 -104.179 52.499 -111.432 -103.571 52.4312 -111.564 -104.802 52.5049 
-112.1 -105.067 52.8313 -112.809 -104.984 53.5684 -113.515 -104.898 54.398 
-114.252 -104.971 55.002 -114.896 -105.237 55.3013 -115.395 -105.581 55.4821 
-115.868 -105.774 55.7562 -111.08 -103.975 52.9079 -111.108 -103.388 52.8202 
-111.037 -104.672 52.9361 -111.305 -105.098 53.2197 -111.94 -105.08 53.8776 
-112.674 -104.96 54.6251 -113.386 -105.054 55.1794 -114.088 -105.336 55.5179 
-114.718 -105.654 55.7826 -115.251 -105.831 56.1289 -115.721 -105.803 56.5786 
-117.373 -103.444 48.9882 -116.58 -103.52 49.0074 -116.967 -103.153 48.5364 
-116.121 -103.2 48.5586 -116.587 -102.716 48.2341 -115.722 -103.493 49.2225 
-115.769 -102.701 48.308 -116.282 -102.222 47.9944 -115.365 -103.093 48.8405 
-114.997 -103.406 49.5323 -115.388 -102.177 48.1308 -115.863 -101.608 47.8788 
-115.083 -102.559 48.6524 -114.727 -103.018 49.1655 -114.264 -103.388 49.7767 
-114.808 -101.62 48.0282 -115.298 -100.895 47.9256 -114.567 -102.086 48.4518 
-114.302 -102.577 48.9873 -113.787 -103.19 49.3491 -113.354 -103.465 50.0473 
-114.337 -100.944 48.0765 -114.814 -100.136 48.0186 -114.003 -101.596 48.2744 
-113.66 -102.146 48.7443 -113.132 -102.869 49.1441 -112.69 -103.436 49.5477 
-112.555 -103.521 50.5224 -114.165 -100.123 48.2242 -114.512 -99.3547 48.0385 
-113.813 -100.915 48.3628 -113.311 -101.587 48.5858 -112.651 -102.304 48.9657 
-112.144 -103.055 49.3228 -112.021 -103.425 50.007 -112.035 -103.457 51.148 
-114.056 -99.3101 48.3276 -114.33 -98.6767 48.0335 -113.753 -100.083 48.6092 
-113.26 -100.851 48.7417 -112.589 -101.546 48.9595 -112.012 -102.266 49.3259 
-111.736 -102.887 49.8255 -111.684 -103.167 50.7136 -111.626 -103.285 51.7564 
-113.855 -98.6617 48.39 -114.196 -98.1808 48.1441 -113.507 -99.2976 48.7289 
-113.062 -100.052 48.9357 -112.529 -100.767 49.1024 -112.088 -101.406 49.4849 
-111.777 -102.056 49.9926 -111.517 -102.6 50.6105 -111.337 -102.894 51.4539 
-111.228 -103.092 52.2756 -113.746 -98.0122 48.4826 -113.264 -98.4837 48.6805 
-113.104 -97.8082 48.8169 -112.656 -98.3566 48.9186 -112.607 -97.7223 49.2064 
-112.801 -99.1522 48.9193 -112.441 -98.4534 49.4365 -112.473 -97.9462 49.9825 
-112.26 -99.0956 49.1304 -112.318 -99.9229 49.1292 -112.383 -98.765 50.4401 
-112.335 -98.3077 50.9636 -112.086 -99.1863 49.8184 -111.831 -99.8409 49.5366 
-111.971 -100.623 49.5599 -112.018 -98.9923 51.3615 -111.958 -98.4797 51.6333 
-111.849 -99.3363 50.8587 -111.568 -99.8381 50.38 -111.632 -100.563 50.292 
-111.814 -101.291 50.2524 -111.599 -99.0827 51.97 -111.578 -98.5171 52.223 
-111.488 -99.5081 51.7004 -111.249 -99.9327 51.3274 -111.288 -100.623 51.1437 
-111.502 -101.34 51.1246 -111.53 -101.972 50.9032 -111.357 -99.2646 52.716 
-111.335 -98.6764 53.0633 -111.257 -99.8048 52.436 -110.905 -100.152 52.1423 
-110.754 -100.681 51.897 -110.93 -101.413 51.8351 -111.041 -102.02 51.7479 
-111.113 -102.485 51.5491 -111.159 -99.5621 53.5928 -111.211 -99.0036 53.883 
-111.031 -100.139 53.2682 -110.567 -100.403 52.9229 -110.128 -100.657 52.573 
-110.124 -101.29 52.3773 -110.317 -102.013 52.3462 -110.525 -102.483 52.3144 
-110.86 -102.785 52.2757 -110.994 -99.8294 54.3265 -111.175 -99.3567 54.485 
-110.764 -100.329 54.0696 -110.265 -100.525 53.7124 -109.697 -100.59 53.2746 
-109.484 -101.062 52.9138 -109.602 -101.889 52.798 -109.868 -102.528 52.8525 
-110.304 -102.823 52.9159 -110.79 -103.045 52.9133 -110.862 -103.488 53.3811 
-110.46 -103.17 53.5306 -110.683 -103.528 54.1455 -109.856 -103.021 53.4972 
-110.165 -103.305 54.2713 -110.569 -103.517 55.0698 -109.436 -102.669 53.3833 
-109.589 -103.21 54.2308 -109.981 -103.403 55.1895 -110.381 -103.71 55.9884 
-109.318 -101.829 53.4026 -109.438 -102.762 54.2501 -109.567 -103.251 55.3156 
-109.754 -103.652 56.2476 -109.973 -104.32 56.8093 -109.332 -100.914 53.7225 
-109.501 -101.812 54.5226 -109.594 -102.688 55.5979 -109.471 -103.286 56.574 
-109.458 -104.137 57.1704 -109.755 -104.88 57.425 -109.61 -100.54 54.2298 
-109.445 -100.927 55.0111 -109.534 -101.802 55.987 -109.499 -102.592 56.8447 
-109.485 -103.438 57.4214 -109.681 -104.359 57.6951 -110.241 -104.767 57.8462 
-110.176 -100.519 54.6534 -109.656 -100.583 55.4531 -109.398 -101.061 56.3408 
-109.421 -101.833 56.9967 -109.744 -102.63 57.4488 -110.126 -103.469 57.8214 
-110.496 -104.046 58.0851 -111.035 -104.254 58.3761 -110.68 -100.3 54.8972 
-110.233 -100.494 55.671 -109.778 -100.719 56.5181 -109.58 -101.242 57.0952 
-109.931 -101.969 57.433 -110.535 -102.742 57.8418 -110.892 -103.334 58.3044 
-111.139 -103.66 58.7189 -111.485 -103.966 59.1669 -110.996 -99.8687 55.0131 
-110.749 -100.247 55.7291 -110.447 -100.536 56.5243 -110.216 -100.912 57.1194 
-110.333 -101.472 57.4873 -110.782 -102.194 57.9014 -111.102 -102.846 58.4536 
-111.187 -103.224 59.0141 -111.335 -103.519 59.5259 -111.603 -103.964 59.9988 
-110.885 -104.072 53.5714 -110.858 -103.964 54.5772 -110.921 -104.671 53.8375 
-110.857 -103.871 55.6079 -110.994 -104.448 54.9872 -111.254 -104.99 54.3048 
-110.632 -104.203 56.4315 -111.014 -104.405 55.9228 -111.311 -104.918 55.3032 
-111.886 -105.099 54.849 -110.332 -104.828 57.1269 -110.925 -104.729 56.7141 
-111.354 -105.104 56.1272 -111.884 -105.424 55.5876 -112.591 -105.278 55.3123 
-110.544 -105.014 57.703 -111.085 -105.003 57.5227 -111.534 -105.305 57.1033 
-111.971 -105.762 56.4839 -112.565 -105.774 55.9772 -113.301 -105.523 55.6999 
-111.227 -104.671 58.2803 -111.591 -104.93 58.2633 -111.922 -105.297 58.0959 
-112.212 -105.781 57.6076 -112.67 -105.932 56.9821 -113.321 -105.813 56.4608 
-114.045 -105.739 56.088 -111.711 -104.42 59.081 -111.968 -104.83 59.0639 
-112.214 -105.25 58.9793 -112.468 -105.672 58.6479 -112.879 -105.806 58.1178 
-113.496 -105.715 57.5503 -114.167 -105.761 57.0307 -114.756 -105.863 56.57 
-111.83 -104.465 59.9749 -112.031 -104.912 59.9493 -112.27 -105.29 59.848 
-112.631 -105.634 59.5754 -113.118 -105.769 59.1676 -113.729 -105.644 58.7004 
-114.388 -105.607 58.1941 -114.936 -105.75 57.6747 -115.344 -105.831 57.1419 
-111.875 -104.358 60.6888 -112.069 -104.89 60.7065 -112.426 -104.628 61.1139 
-112.733 -105.015 61.1352 -113.407 -104.646 61.3396 -112.325 -105.237 60.6468 
-113.904 -104.961 61.4506 -114.395 -104.677 61.8266 -113.272 -105.256 61.0539 
-112.817 -105.526 60.4315 -114.766 -105.222 62.0704 -114.826 -104.856 62.5872 
-114.503 -105.389 61.4581 -113.971 -105.644 60.8528 -113.451 -105.795 60.1068 
-115.108 -105.64 62.7879 -115.224 -104.978 63.0172 -115.088 -105.861 62.1697 
-114.873 -105.993 61.3333 -114.442 -106.034 60.5849 -114.039 -105.824 59.7341 
-115.862 -105.806 63.1182 -116.274 -105.006 63.0316 -115.554 -106.181 62.887 
-115.288 -106.347 61.9706 -115.003 -106.394 60.951 -114.8 -106.112 60.1677 
-114.64 -105.714 59.2702 -116.928 -105.736 63.0609 -117.324 -104.967 62.9465 
-116.501 -106.219 63.103 -116.099 -106.476 62.4382 -115.706 -106.596 61.2504 
-115.442 -106.413 60.3363 -115.35 -105.981 59.6476 -115.213 -105.711 58.7422 
-117.473 -105.483 62.7456 -117.69 -104.811 62.6876 -117.229 -106.084 62.761 
-117.023 -106.517 62.3594 -116.769 -106.686 61.4184 -116.416 -106.533 60.4785 
-116.102 -106.142 59.8397 -115.868 -105.794 59.1449 -115.617 -105.721 58.1756 
-117.664 -105.132 62.2489 -117.735 -104.609 62.1614 -117.599 -105.761 62.2178 
-117.56 -106.373 61.9355 -117.5 -106.657 61.3504 -117.302 -106.503 60.6585 
-116.948 -106.144 60.0483 -116.556 -105.807 59.4028 -116.221 -105.635 58.5394 
-115.948 -105.684 57.5187 -111.542 -103.636 60.4262 -112.005 -103.898 60.9891 
-111.68 -103.155 60.6986 -112.295 -103.242 61.1715 -112.07 -102.591 60.8283 
-112.811 -104.08 61.2351 -112.627 -102.608 61.2979 -112.477 -102.07 60.8871 
-113.16 -103.398 61.3575 -113.872 -104.153 61.4799 -112.934 -102.078 61.3149 
-112.759 -101.537 60.8833 -113.413 -102.755 61.4843 -114.185 -103.513 61.6892 
-114.652 -104.153 62.1918 -113.362 -101.498 61.2015 -113.143 -100.96 60.8008 
-113.752 -102.144 61.4673 -114.437 -102.876 61.792 -114.873 -103.411 62.4646 
-114.953 -104.036 62.9475 -113.935 -100.908 61.0939 -113.701 -100.518 60.6372 
-114.255 -101.477 61.3967 -114.771 -102.328 61.6609 -115.16 -102.907 62.3597 
-115.285 -103.179 63.0813 -115.642 -103.933 63.1568 -114.444 -100.494 60.9674 
-114.223 -100.253 60.3794 -114.739 -100.849 61.4042 -115.168 -101.696 61.54 
-115.551 -102.634 61.8911 -115.786 -102.887 62.7216 -116.228 -103.106 63.2121 
-116.895 -103.996 63.1038 -114.843 -100.224 60.6782 -114.654 -100.022 60.0495 
-115.141 -100.397 61.2843 -115.583 -100.959 61.5246 -116.022 -102.035 61.5214 
-116.356 -102.743 61.9753 -116.79 -102.826 62.7651 -117.363 -103.227 63.0966 
-117.706 -104.095 62.9401 -115.248 -99.99 60.2584 -115.072 -99.795 59.6873 
-115.557 -100.108 60.9069 -116.024 -100.374 61.3627 -116.487 -101.162 61.4007 
[...]
CELL_DATA 2000
SCALARS Distance double
LOOKUP_TABLE default
163.254 162.797 163.133 163.352 162.314 162.668 162.925 163.272 163.594 
161.855 162.205 162.486 162.852 163.205 163.599 163.994 161.42 161.77 
162.052 162.417 162.761 163.183 163.576 163.992 164.309 161.017 161.361 
161.67 162.011 162.332 162.717 163.079 163.516 163.838 164.216 164.449 
160.679 160.993 161.329 161.661 161.989 162.319 162.654 163.028 163.365 
163.739 164.023 164.356 164.634 160.391 160.669 160.961 161.306 161.625 
161.975 162.287 162.635 162.967 163.324 163.657 163.982 164.297 164.616 
164.943 160.127 160.367 160.591 160.907 161.186 161.559 161.853 162.232 
162.536 162.924 163.26 163.637 163.978 164.312 164.636 164.948 165.242 
159.9 160.105 160.306 160.552 160.804 161.122 161.418 161.777 162.083 
162.464 162.791 163.199 163.55 163.951 164.292 164.642 164.943 165.231 
165.477 163.086 162.569 162.772 162.603 161.932 162.177 162.021 162.245 
162.084 161.305 161.528 161.378 161.625 161.501 161.735 161.615 160.645 
160.895 160.746 161.005 160.911 161.159 161.056 161.277 161.166 159.858 
160.169 160.019 160.345 160.257 160.565 160.463 160.706 160.569 160.807 
160.717 159.062 159.374 159.248 159.581 159.492 159.842 159.739 160.053 
159.914 160.186 160.09 160.381 160.367 158.365 158.66 158.619 158.896 
158.839 159.102 159.003 159.29 159.187 159.498 159.446 159.766 159.785 
160.095 160.128 157.761 158.042 158.071 158.353 158.343 158.553 158.457 
158.645 158.559 158.814 158.813 159.134 159.196 159.526 159.59 159.881 
159.904 157.275 157.495 157.498 157.792 157.773 158.042 157.946 158.152 
158.069 158.289 158.314 158.583 158.673 158.965 159.046 159.34 159.385 
159.658 159.676 157.043 156.623 156.937 157.172 156.218 156.479 156.697 
157.077 157.383 156.241 156.258 156.454 156.632 156.902 157.273 157.567 
156.641 156.534 156.684 156.586 156.743 156.881 157.179 157.494 157.79 
156.868 156.899 156.987 156.879 156.905 156.866 157.099 157.274 157.651 
157.853 158.157 156.856 156.965 157.076 157.067 157.079 157.025 157.195 
157.307 157.689 157.859 158.199 158.295 158.543 156.972 156.997 157.215 
157.185 157.265 157.169 157.265 157.346 157.64 157.87 158.175 158.333 
158.532 158.645 158.856 157.286 157.244 157.502 157.447 157.524 157.373 
157.304 157.293 157.379 157.645 157.876 158.175 158.362 158.56 158.739 
158.922 159.157 157.652 157.59 157.784 157.738 157.746 157.587 157.373 
157.242 157.13 157.277 157.443 157.776 158.034 158.32 158.554 158.774 
159.021 159.222 159.468 159.59 159.15 159.472 159.688 158.646 158.995 
159.217 159.588 159.861 158.086 158.465 158.702 159.105 159.407 159.792 
160.124 157.486 157.872 158.184 158.635 159.009 159.377 159.741 160.102 
160.485 157.129 157.32 157.665 158.144 158.64 159.054 159.442 159.76 
160.142 160.505 160.907 157.328 157.196 157.406 157.685 158.18 158.657 
159.092 159.463 159.813 160.173 160.583 160.954 161.346 157.784 157.58 
157.651 157.609 157.916 158.208 158.627 159.035 159.432 159.838 160.284 
160.668 161.106 161.412 161.777 157.976 157.968 158.064 157.951 158.118 
158.125 158.44 158.65 159.094 159.468 160.015 160.424 160.937 161.234 
161.612 161.849 162.186 157.912 158.041 158.233 158.264 158.449 158.416 
158.671 158.688 159.089 159.285 159.857 160.213 160.788 161.103 161.494 
161.706 161.993 162.237 162.561 159.855 159.984 160.034 160.28 160.195 
160.218 160.484 160.495 160.774 160.472 160.474 160.762 160.748 161.029 
161.044 161.369 160.824 160.79 161.075 161.045 161.338 161.336 161.664 
161.683 162.038 161.248 161.185 161.478 161.402 161.725 161.691 162.07 
162.046 162.417 162.39 162.762 161.682 161.631 161.97 161.879 162.252 
162.172 162.605 162.537 162.94 162.844 163.203 163.147 163.527 162.1 
162.071 162.461 162.411 162.83 162.761 163.194 163.117 163.496 163.387 
163.703 163.614 163.959 163.927 164.29 162.521 162.506 162.923 162.907 
163.337 163.311 163.714 163.665 163.994 163.901 164.173 164.084 164.395 
164.359 164.712 164.675 164.977 162.929 162.939 163.358 163.357 163.761 
163.757 164.14 164.123 164.461 164.381 164.669 164.553 164.865 164.796 
165.148 165.1 165.399 165.313 165.524 163.285 163.983 163.673 163.736 
164.701 164.371 164.419 164.094 164.12 165.541 165.148 165.211 164.812 
164.853 164.486 164.51 166.39 166.061 166.19 165.732 165.818 165.338 
165.378 164.917 164.885 167.045 166.873 167.092 166.737 166.833 166.372 
166.387 165.873 165.792 165.264 165.128 167.71 167.545 167.856 167.573 
167.661 167.276 167.22 166.793 166.66 166.174 165.994 165.476 165.328 
168.404 168.263 168.577 168.334 168.444 168.054 167.975 167.527 167.378 
166.939 166.775 166.317 166.158 165.688 165.577 168.682 168.743 168.93 
168.903 169.001 168.785 168.737 168.317 168.165 167.674 167.501 167.041 
166.867 166.443 166.277 165.881 165.752 168.517 168.708 168.826 168.986 
169.091 169.133 169.144 168.964 168.821 168.441 168.205 167.756 167.508 
167.079 166.848 166.469 166.276 165.953 165.812 163.1 163.003 163.299 
163.793 162.904 163.183 163.701 164.015 164.534 162.841 163.08 163.563 
163.905 164.493 164.808 165.368 162.749 162.993 163.424 163.755 164.349 
164.745 165.347 165.654 166.156 162.627 162.873 163.3 163.607 164.177 
164.587 165.18 165.544 165.985 166.29 166.695 162.601 162.794 163.232 
163.49 164.043 164.423 165.016 165.363 165.781 166.04 166.411 166.762 
167.276 162.673 162.828 163.232 163.442 163.945 164.288 164.886 165.235 
165.717 165.916 166.31 166.546 167.088 167.467 168.042 162.723 162.883 
163.238 163.431 163.86 164.163 164.718 165.099 165.643 165.912 166.347 
166.546 167.027 167.333 167.844 168.173 168.473 162.738 162.894 163.227 
163.412 163.803 164.058 164.542 164.899 165.419 165.782 166.219 166.515 
166.89 167.204 167.556 167.89 168.096 168.35 168.367 157.968 158.25 
158.167 158.303 158.537 158.43 158.548 158.503 158.619 158.868 158.705 
158.826 158.777 158.983 158.87 158.954 159.405 159.129 159.267 159.127 
159.414 159.318 159.555 159.304 159.422 160.097 159.781 159.907 159.669 
159.935 159.819 160.147 159.978 160.225 159.92 160.159 160.733 160.469 
160.548 160.302 160.456 160.326 160.603 160.54 160.836 160.69 160.947 
160.722 160.994 161.311 161.069 161.137 160.881 160.966 160.786 160.995 
160.941 161.243 161.201 161.459 161.352 161.554 161.421 161.607 161.894 
161.659 161.768 161.489 161.592 161.324 161.515 161.367 161.681 161.611 
161.904 161.794 161.987 161.854 162.019 161.903 162.078 162.425 162.235 
162.378 162.146 162.28 162.005 162.171 161.95 162.212 162.092 162.383 
162.264 162.479 162.312 162.498 162.338 162.563 162.417 162.658 157.793 
157.79 157.906 158.163 157.855 157.975 158.253 158.326 158.519 157.762 
157.94 158.191 158.385 158.618 158.681 158.862 157.76 157.801 158.012 
158.224 158.545 158.745 159.03 159.084 159.367 158.142 157.992 158.216 
158.195 158.591 158.729 159.178 159.279 159.648 159.681 160.035 158.528 
158.464 158.717 158.619 159.006 158.998 159.491 159.533 159.963 159.977 
160.322 160.347 160.673 158.654 158.726 158.995 159.051 159.393 159.446 
159.844 159.897 160.264 160.289 160.595 160.614 160.912 160.946 161.249 
158.836 158.843 159.146 159.226 159.584 159.695 160.038 160.136 160.424 
160.501 160.769 160.839 161.131 161.185 161.493 161.522 161.82 159.253 
159.158 159.488 159.468 159.857 159.893 160.252 160.287 160.565 160.605 
160.879 160.966 161.299 161.395 161.737 161.781 162.081 162.09 162.353 
159.63 160.293 159.928 159.881 160.96 160.616 160.612 160.242 160.238 
161.668 161.301 161.308 160.963 160.951 160.596 160.575 162.422 162.036 
162.009 161.647 161.625 161.274 161.217 160.873 160.828 163.083 162.75 
162.704 162.349 162.324 161.962 161.938 161.545 161.502 161.131 161.142 
163.66 163.355 163.326 163.008 162.997 162.669 162.687 162.318 162.332 
161.91 161.933 161.537 161.607 164.273 163.959 163.963 163.635 163.646 
163.327 163.355 163.044 163.077 162.735 162.758 162.378 162.404 162.029 
162.063 164.852 164.588 164.62 164.309 164.338 164.003 164.026 163.697 
163.716 163.409 163.422 163.115 163.109 162.778 162.752 162.413 162.386 
165.315 165.12 165.165 164.93 164.966 164.685 164.706 164.382 164.386 
164.049 164.054 163.735 163.735 163.416 163.381 163.048 162.99 162.668 
162.626 165.571 165.936 165.646 165.436 166.291 166.006 165.773 165.493 
165.259 166.63 166.351 166.122 165.83 165.593 165.303 165.032 167.044 
166.732 166.53 166.199 165.947 165.634 165.359 165.048 164.726 167.469 
167.175 166.948 166.615 166.307 165.97 165.651 165.353 165.037 164.722 
164.387 167.682 167.49 167.199 166.952 166.586 166.274 165.894 165.608 
165.29 165.017 164.698 164.383 164.05 167.731 167.586 167.316 167.121 
166.804 166.516 166.154 165.844 165.522 165.255 164.949 164.665 164.309 
164.009 163.659 167.871 167.694 167.545 167.312 167.114 166.8 166.525 
166.167 165.852 165.518 165.183 164.882 164.503 164.213 163.82 163.566 
163.231 168.167 167.979 167.924 167.668 167.506 167.185 166.921 166.575 
166.249 165.884 165.492 165.125 164.696 164.374 163.965 163.701 163.355 
163.139 162.856 165.716 166.071 165.966 166.111 166.407 166.322 166.49 
166.383 166.494 166.697 166.606 166.761 166.73 166.865 166.735 166.812 
167.078 166.883 167.016 166.985 167.192 167.103 167.228 167.065 167.195 
167.6 167.321 167.441 167.331 167.627 167.519 167.749 167.547 167.714 
167.525 167.668 167.942 167.791 167.879 167.808 168.094 168.023 168.269 
168.103 168.269 168.082 168.204 167.979 167.972 167.845 167.926 168.011 
168.114 168.336 168.386 168.525 168.478 168.568 168.525 168.641 168.507 
168.486 168.177 168.031 167.532 167.713 167.887 168.104 168.364 168.493 
168.604 168.585 168.638 168.667 168.865 168.882 168.986 168.725 168.579 
168.195 168.072 167.361 167.5 167.786 167.993 168.348 168.502 168.712 
168.684 168.794 168.766 169.057 169.127 169.432 169.275 169.236 168.802 
168.608 168.262 168.25 165.552 165.444 165.626 165.895 165.369 165.56 
165.861 166.014 166.275 165.231 165.489 165.868 166.049 166.372 166.445 
166.668 165.015 165.313 165.727 166.024 166.429 166.596 166.911 166.91 
167.134 164.783 165.079 165.458 165.807 166.217 166.542 166.94 167.143 
167.484 167.477 167.699 164.433 164.785 165.12 165.497 165.873 166.243 
166.633 167.005 167.438 167.715 168.016 168.008 168.06 163.932 164.32 
164.606 165.054 165.427 165.869 166.253 166.646 167.052 167.473 167.838 
168.105 168.157 168.12 167.921 163.491 163.81 164.058 164.465 164.818 
165.332 165.753 166.232 166.606 167.033 167.348 167.732 167.838 167.996 
167.786 167.748 167.492 163.205 163.459 163.716 163.996 164.302 164.717 
165.113 165.635 166.017 166.509 166.786 167.197 167.32 167.576 167.465 
167.518 167.285 167.297 167.199 163.161 163.309 163.403 163.704 163.422 
163.561 163.896 163.945 164.263 163.472 163.647 164 164.11 164.428 
164.533 164.967 163.561 163.709 164.059 164.176 164.484 164.627 165.036 
165.272 165.799 163.694 163.842 164.209 164.278 164.571 164.661 165.041 
165.273 165.789 166.079 166.573 163.748 163.954 164.347 164.454 164.741 
164.789 165.121 165.283 165.755 166.029 166.493 166.746 167.081 163.723 
163.949 164.33 164.522 164.815 164.927 165.209 165.354 165.738 165.977 
166.36 166.602 166.843 167.069 167.197 163.674 163.882 164.22 164.443 
164.76 164.941 165.239 165.395 165.721 165.918 166.239 166.442 166.648 
166.808 166.895 167.058 167.094 163.566 163.775 164.064 164.302 164.644 
164.879 165.249 165.429 165.781 165.917 166.235 166.36 166.619 166.706 
166.881 166.911 167.025 167.045 167.138 163.549 163.675 163.752 164.058 
163.957 163.959 164.333 164.356 164.703 164.362 164.331 164.728 164.728 
165.148 165.101 165.412 164.636 164.687 165.029 165.1 165.518 165.567 
165.919 165.812 166.002 164.769 164.862 165.158 165.273 165.633 165.806 
166.196 166.261 166.496 166.344 166.441 165 165.042 165.389 165.412 
165.737 165.842 166.243 166.423 166.794 166.802 166.973 166.764 166.818 
165.324 165.364 165.779 165.763 166.083 166.034 166.337 166.441 166.847 
167.02 167.352 167.297 167.392 167.122 167.1 165.573 165.66 166.068 
166.147 166.483 166.435 166.634 166.585 166.837 166.996 167.362 167.545 
167.77 167.673 167.643 167.34 167.236 165.744 165.83 166.178 166.328 
166.69 166.766 167.001 166.917 167.064 167.033 167.291 167.461 167.774 
167.9 168.008 167.849 167.735 167.424 167.307 167.46 167.904 167.747 
167.934 168.145 168.155 168.336 168.273 168.48 167.911 168.173 168.391 
168.545 168.748 168.747 168.823 167.522 167.829 168.138 168.438 168.747 
168.903 169.07 168.992 168.99 167.367 167.566 167.92 168.184 168.549 
168.812 169.142 169.244 169.456 169.28 169.375 167.256 167.475 167.757 
168.003 168.268 168.55 168.845 169.174 169.511 169.691 169.888 169.747 
169.734 166.872 167.202 167.393 167.729 167.922 168.215 168.413 168.76 
169.048 169.468 169.685 169.924 169.825 169.775 169.434 166.351 166.684 
166.854 167.233 167.463 167.815 168.062 168.366 168.646 168.98 169.216 
169.5 169.471 169.556 169.24 169.167 168.775 165.943 166.202 166.394 
166.713 166.973 167.344 167.647 168.013 168.324 168.652 168.913 169.143 
169.229 169.273 169.145 169.027 168.814 168.635 168.456 157.282 157.757 
157.499 157.549 158.432 158.106 158.236 157.938 158.129 159.217 158.882 
159.069 158.75 158.987 158.665 158.885 160.048 159.718 159.885 159.571 
159.744 159.479 159.657 159.385 159.533 160.841 160.556 160.697 160.356 
160.439 160.141 160.257 160.038 160.188 159.955 160.102 161.501 161.288 
161.449 161.144 161.222 160.859 160.958 160.654 160.841 160.594 160.799 
160.541 160.74 162.115 161.908 162.085 161.84 161.967 161.655 161.782 
161.448 161.638 161.334 161.562 161.274 161.49 161.215 161.438 162.746 
162.536 162.719 162.475 162.64 162.378 162.554 162.27 162.46 162.162 
162.367 162.071 162.284 161.992 162.208 161.93 162.153 163.271 163.134 
163.328 163.123 163.311 163.072 163.284 163.028 163.231 162.948 163.129 
162.847 163.041 162.775 162.981 162.707 162.896 162.62 162.792 157.112 
157.329 157.108 156.99 157.785 157.373 157.139 156.976 156.88 158.493 
157.928 157.549 157.17 156.972 156.844 156.792 159.206 158.666 158.292 
157.74 157.489 157.101 157.032 156.852 156.913 159.837 159.362 159.08 
158.55 158.359 157.851 157.812 157.383 157.457 157.169 157.317 160.512 
160.047 159.841 159.349 159.21 158.751 158.739 158.309 158.375 157.953 
158.057 157.71 157.855 161.24 160.789 160.646 160.163 160.049 159.588 
159.559 159.169 159.212 158.849 158.912 158.542 158.623 158.282 158.387 
161.958 161.538 161.418 160.978 160.875 160.429 160.38 159.97 159.991 
159.623 159.68 159.332 159.398 159.059 159.129 158.798 158.869 162.604 
162.238 162.116 161.717 161.596 161.195 161.119 160.751 160.755 160.406 
160.453 160.095 160.146 159.798 159.854 159.525 159.58 159.255 159.309 
156.953 156.841 156.8 156.577 156.785 156.733 156.471 156.355 156.141 
156.763 156.721 156.509 156.31 156.031 155.976 156.036 156.88 156.79 
156.709 156.47 156.203 155.962 155.926 156.054 156.366 157.195 157.013 
157.018 156.804 156.661 156.299 156.175 156.042 156.224 156.419 156.663 
157.651 157.384 157.369 157.185 157.16 156.851 156.749 156.435 156.478 
156.399 156.554 156.623 156.719 158.151 157.842 157.783 157.578 157.6 
157.367 157.334 157.027 157.024 156.79 156.873 156.717 156.781 156.714 
156.826 158.615 158.307 158.217 158.002 158.038 157.841 157.845 157.571 
157.529 157.289 157.33 157.148 157.212 157.002 157.068 156.959 157.147 
159.051 158.743 158.622 158.404 158.428 158.277 158.305 158.07 157.971 
157.704 157.643 157.508 157.587 157.473 157.563 157.369 157.476 157.363 
157.565 165.31 164.861 165.124 165.184 164.305 164.629 164.696 164.989 
165.058 163.711 164.042 164.125 164.455 164.522 164.832 164.884 163.13 
163.454 163.523 163.863 163.944 164.272 164.33 164.632 164.68 162.442 
162.818 162.835 163.217 163.26 163.647 163.702 164.056 164.099 164.421 
164.459 161.65 162.038 162.016 162.438 162.429 162.869 162.865 163.31 
163.308 163.742 163.743 164.138 164.11 160.926 161.248 161.217 161.597 
161.6 162.009 161.99 162.406 162.354 162.811 162.777 163.275 163.255 
163.695 163.629 160.287 160.575 160.539 160.859 160.868 161.229 161.241 
161.593 161.548 161.893 161.841 162.267 162.278 162.766 162.789 163.212 
163.195 159.663 159.955 159.926 160.221 160.205 160.532 160.53 160.878 
160.853 161.171 161.12 161.445 161.449 161.854 161.926 162.372 162.441 
162.841 162.883 
POINT_DATA 1002
SCALARS Distance double
LOOKUP_TABLE default
163.448 163.373 162.943 163.012 162.438 163.598 162.556 161.949 163.208 
163.975 162.111 161.505 162.792 163.616 164.391 161.697 161.059 162.35 
163.142 163.971 164.568 161.329 160.665 161.986 162.661 163.436 164.11 
164.673 160.988 160.386 161.671 162.313 162.988 163.675 164.287 164.944 
160.635 160.152 161.263 161.943 162.606 163.311 163.987 164.618 165.267 
160.314 159.914 160.824 161.471 162.149 162.856 163.615 164.332 164.958 
165.502 160.087 159.7 160.518 161.071 161.713 162.39 163.128 163.908 
164.636 165.235 165.695 162.943 162.431 162.334 161.766 161.696 161.867 
161.124 161.095 161.244 161.392 160.467 160.373 160.648 160.842 160.937 
159.67 159.533 159.92 160.205 160.342 160.429 158.92 158.736 159.154 
159.402 159.613 159.79 160.053 158.324 158.036 158.614 158.751 158.857 
159.093 159.457 159.847 157.768 157.48 158.122 158.295 158.328 158.494 
158.855 159.278 159.646 157.237 157.109 157.489 157.709 157.834 158.047 
158.402 158.764 159.097 159.414 156.783 156.791 156.297 156.35 156.009 
156.952 156.418 156.297 156.596 157.159 156.89 156.739 156.746 156.889 
157.49 157.07 156.796 157.004 156.968 157.444 158.022 157.029 156.744 
157.13 157.107 157.512 158.112 158.464 157.22 156.952 157.396 157.271 
157.42 157.989 158.425 158.709 157.562 157.346 157.726 157.453 157.191 
157.527 158.113 158.549 158.962 157.863 157.748 157.93 157.585 157.084 
157.116 157.688 158.301 158.812 159.29 159.78 159.348 159.938 158.825 
159.481 160.166 158.271 159.011 159.73 160.477 157.656 158.625 159.393 
160.102 160.877 157.189 158.152 159.147 159.788 160.537 161.308 157.316 
157.717 158.675 159.458 160.195 161.017 161.713 157.84 157.798 158.235 
158.974 159.864 160.793 161.508 162.112 158.136 158.217 158.343 158.743 
159.565 160.616 161.402 161.927 162.52 158.125 158.439 158.691 158.98 
159.546 160.459 161.29 161.79 162.264 162.902 160.235 160.484 160.735 
160.775 161.028 161.326 161.119 161.334 161.655 162.013 161.56 161.755 
162.086 162.471 162.768 162.027 162.324 162.677 163.054 163.295 163.545 
162.475 162.883 163.284 163.621 163.813 164.004 164.328 162.932 163.362 
163.767 164.092 164.271 164.437 164.748 165.062 163.365 163.777 164.144 
164.51 164.782 164.955 165.206 165.494 165.644 163.59 164.066 164.293 
164.754 165.056 164.438 165.635 165.932 165.244 164.878 166.618 166.622 
166.317 165.893 165.363 167.381 167.132 167.277 166.906 166.365 165.649 
168.124 167.876 168.062 167.646 167.109 166.509 165.826 168.792 168.545 
168.815 168.455 167.827 167.2 166.618 166.032 168.894 168.606 169.105 
169.086 168.674 167.997 167.306 166.679 166.12 168.626 168.319 168.96 
169.211 169.136 168.654 167.966 167.254 166.611 166.099 162.809 163.498 
162.7 163.351 162.661 164.254 163.228 162.636 164.11 165.116 163.115 
162.497 163.929 165.009 165.916 163.008 162.375 163.777 164.825 165.708 
166.333 163.001 162.429 163.687 164.668 165.555 166.081 166.822 163.055 
162.535 163.64 164.509 165.483 166.112 166.738 167.707 163.061 162.573 
163.6 164.341 165.306 166.141 166.788 167.557 168.27 163.047 162.596 
163.575 164.234 165.052 165.901 166.617 167.267 167.843 168.176 158.033 
158.344 158.372 158.574 158.668 158.727 158.875 159.063 159.031 159.191 
159.45 159.703 159.477 159.733 159.741 160.19 160.398 160.082 160.248 
160.461 160.473 160.819 160.984 160.637 160.65 160.912 161.136 161.233 
161.403 161.548 161.19 161.072 161.264 161.556 161.687 161.742 162.026 
162.108 161.877 161.71 161.765 162.016 162.141 162.135 162.18 157.6 
158.086 157.685 158.156 157.727 158.52 157.938 157.623 158.48 158.857 
157.843 157.817 158.257 158.899 159.336 158.318 158.292 158.487 159.031 
159.604 160.006 158.782 158.511 159.053 159.477 159.964 160.322 160.64 
158.885 158.567 159.319 159.808 160.249 160.582 160.882 161.215 159.079 
158.862 159.476 159.957 160.351 160.673 161.054 161.459 161.806 159.535 