# vtk DataFile Version 4.0
vtk output
ASCII
DATASET POLYDATA
POINTS 1002 float
-117.301 -103.069 52.8737 -117.298 -102.843 52.1902 -116.917 -102.792 52.5579 
-116.884 -102.997 53.2826 -116.415 -102.791 52.8959 -117.368 -103.26 53.6041 
-116.332 -102.952 53.6492 -115.733 -102.802 53.2153 -116.843 -103.265 53.9725 
-117.445 -103.571 54.2711 -115.644 -102.997 53.9848 -115.048 -102.801 53.601 
-116.167 -103.411 54.2423 -116.768 -103.825 54.4927 -117.426 -104.195 54.7388 
-114.951 -103.183 54.3077 -114.425 -102.881 53.9854 -115.413 -103.734 54.4543 
-115.997 -104.258 54.6229 -116.683 -104.59 54.8809 -117.332 -104.833 55.2122 
-114.313 -103.445 54.5852 -113.801 -103.056 54.3229 -114.701 -104.064 54.6805 
-115.246 -104.632 54.8255 -115.975 -104.916 55.1265 -116.666 -105.027 55.5683 
-117.287 -105.114 56.08 -113.8 -103.598 54.9677 -113.286 -103.193 54.7693 
-114.166 -104.185 55.0424 -114.589 -104.745 55.198 -115.3 -105.017 55.5667 
-116.08 -105.08 56.0999 -116.734 -105.167 56.6648 -117.324 -105.351 57.0813 
-113.418 -103.62 55.5341 -112.909 -103.271 55.2918 -113.834 -104.092 55.6545 
-114.144 -104.664 55.7685 -114.65 -105.065 56.0821 -115.438 -105.188 56.6082 
-116.206 -105.283 57.1862 -116.818 -105.529 57.5726 -117.353 -105.857 57.6965 
-113.035 -103.662 56.039 -112.548 -103.357 55.6947 -113.498 -104.01 56.2991 
-113.829 -104.545 56.4233 -114.164 -105.128 56.6072 -114.785 -105.445 56.9996 
-115.605 -105.562 57.501 -116.304 -105.768 57.8943 -116.836 -106.093 58.0508 
-117.321 -106.379 58.0843 -112.657 -103.739 56.3689 -112.22 -103.419 55.9972 
-113.07 -104.06 56.7273 -113.441 -104.515 56.9282 -113.807 -105.109 57.0851 
-114.313 -105.572 57.4061 -115.037 -105.789 57.8242 -115.77 -105.969 58.1675 
-116.33 -106.232 58.3866 -116.804 -106.483 58.531 -117.299 -106.619 58.6996 
-117.058 -102.556 51.7666 -116.581 -102.6 52.0572 -116.696 -102.259 51.3844 
-116.033 -102.393 51.5516 -116.228 -101.789 51.1625 -115.862 -102.733 52.2891 
-115.498 -101.894 51.3299 -115.873 -101.074 51.1268 -115.168 -102.574 51.7296 
-115.044 -102.811 52.5802 -115.272 -101.153 51.4828 -115.65 -100.433 51.088 
-114.757 -102.009 51.6449 -114.388 -102.645 52.0597 -114.368 -102.775 53.0039 
-115.085 -100.553 51.5995 -115.371 -99.9784 50.9488 -114.613 -101.258 51.925 
-114.041 -102.068 52.0173 -113.705 -102.619 52.4707 -113.718 -102.785 53.4355 
-114.7 -100.048 51.4735 -115.149 -99.4482 50.9336 -114.216 -100.643 51.901 
-113.716 -101.317 52.1257 -113.227 -102.121 52.3124 -113.014 -102.635 52.9489 
-113.105 -102.865 53.9325 -114.433 -99.4705 51.4818 -115.104 -98.8445 51.1881 
-113.703 -100.08 51.6236 -113.214 -100.62 51.9116 -112.876 -101.375 52.3184 
-112.63 -102.187 52.853 -112.588 -102.621 53.6773 -112.712 -102.902 54.5666 
-114.381 -98.9643 51.7648 -115.029 -98.3677 51.5032 -113.533 -99.5594 51.6861 
-112.916 -100.048 51.7641 -112.644 -100.639 52.3009 -112.506 -101.484 53.0058 
-112.402 -102.161 53.7217 -112.345 -102.541 54.4613 -112.384 -102.934 55.1193 
-114.297 -98.5841 52.0075 -114.805 -98.0472 51.652 -113.578 -99.1144 52.0287 
-112.949 -99.5959 52.0293 -112.606 -100.097 52.464 -112.435 -100.811 53.2038 
-112.271 -101.568 53.8756 -112.074 -102.091 54.464 -111.933 -102.527 55.01 
-111.987 -103.006 55.5011 -114.255 -98.081 51.9415 -113.669 -98.5098 52.2291 
-113.614 -97.8899 52.2236 -113.017 -98.2015 52.5126 -112.937 -97.5489 52.7638 
-113.083 -98.9927 52.3715 -112.456 -98.0012 53.0393 -112.468 -97.5795 53.5869 
-112.636 -98.8226 52.8851 -112.683 -99.5685 52.7329 -112.214 -98.3346 53.8625 
-112.452 -98.1576 54.4544 -112.278 -98.9248 53.5607 -112.374 -99.6647 53.5445 
-112.393 -100.262 53.4237 -112.204 -98.8862 54.8915 -112.617 -98.7276 55.2645 
-112.013 -99.2631 54.5107 -111.961 -99.8346 54.3313 -111.938 -100.455 54.2167 
-112.059 -101.02 54.0569 -112.107 -99.1494 55.9123 -112.593 -98.9573 56.1127 
-111.669 -99.4467 55.6237 -111.453 -99.8551 55.2803 -111.356 -100.46 54.9157 
-111.387 -101.12 54.6511 -111.695 -101.654 54.5438 -112.042 -99.2882 56.7913 
-112.519 -99.1147 56.9774 -111.454 -99.5385 56.5492 -111.069 -99.8225 56.2194 
-110.979 -100.356 55.7695 -110.91 -101.13 55.3476 -111.002 -101.776 55.1301 
-111.429 -102.193 55.0568 -112.207 -99.5956 57.5307 -112.604 -99.4119 57.7119 
-111.677 -99.8383 57.2744 -111.213 -100.046 56.9643 -111.076 -100.441 56.5958 
-111.01 -101.198 56.2311 -110.857 -101.957 55.9505 -110.978 -102.423 55.7296 
-111.449 -102.732 55.5636 -112.468 -99.9967 58.1497 -112.793 -99.7747 58.2764 
-112.092 -100.274 57.9451 -111.713 -100.486 57.681 -111.518 -100.759 57.3765 
-111.433 -101.364 57.0867 -111.243 -102.111 56.8565 -111.131 -102.612 56.6021 
-111.343 -102.908 56.2878 -111.768 -103.183 56.0558 -112.274 -103.633 56.5943 
-111.968 -103.337 56.8009 -112.376 -103.88 57.4293 -111.686 -103.045 57.1635 
-112.232 -103.532 57.8228 -112.407 -104.287 58.4906 -111.529 -102.768 57.5072 
-111.992 -103.24 58.217 -112.342 -103.933 58.999 -112.493 -104.674 59.5699 
-111.598 -102.258 57.7629 -111.728 -102.925 58.5402 -112.118 -103.567 59.371 
-112.499 -104.271 60.041 -112.888 -104.727 60.3941 -111.765 -101.571 58.026 
-111.697 -102.362 58.8583 -111.846 -103.068 59.7205 -112.391 -103.734 60.3904 
-112.942 -104.259 60.7333 -113.479 -104.649 61.0381 -111.934 -101.116 58.2868 
-111.916 -101.769 59.095 -111.878 -102.449 59.9769 -112.271 -103.108 60.6962 
-112.916 -103.682 61.042 -113.509 -104.188 61.2933 -113.974 -104.75 61.8273 
-112.174 -100.866 58.4895 -112.205 -101.391 59.1819 -112.225 -101.95 59.9544 
-112.454 -102.563 60.7154 -112.936 -103.139 61.2525 -113.516 -103.684 61.577 
-114.025 -104.251 62.0525 -114.321 -104.863 62.7164 -112.483 -100.569 58.6455 
-112.504 -101.063 59.2457 -112.621 -101.546 59.8778 -112.87 -102.117 60.5267 
-113.182 -102.68 61.2054 -113.582 -103.203 61.8014 -114.055 -103.744 62.3425 
-114.416 -104.292 62.9105 -114.597 -104.838 63.398 -112.804 -100.257 58.7528 
-112.837 -100.717 59.3272 -112.978 -101.149 59.9408 -113.252 -101.673 60.4996 
-113.506 -102.23 61.116 -113.72 -102.711 61.8775 -114.03 -103.212 62.6287 
-114.386 -103.764 63.2111 -114.657 -104.289 63.5897 -114.881 -104.789 63.814 
-112.61 -104.047 56.9902 -112.533 -104.486 57.7811 -112.92 -104.517 57.285 
-112.564 -104.926 58.7844 -112.893 -105.006 57.9991 -113.379 -105.024 57.4843 
-112.938 -105.042 59.8222 -113.243 -105.194 59.0351 -113.654 -105.282 58.3642 
-113.991 -105.454 57.8631 -113.558 -104.992 60.7131 -113.83 -105.196 60.1554 
-114.172 -105.325 59.5544 -114.421 -105.521 58.9951 -114.666 -105.757 58.3702 
-114.033 -105.193 61.655 -114.212 -105.499 61.2122 -114.461 -105.683 60.6152 
-114.692 -105.823 60.0721 -114.971 -105.955 59.4341 -115.347 -106.041 58.6998 
-114.284 -105.46 62.6882 -114.337 -105.932 62.36 -114.512 -106.2 61.654 
-114.768 -106.36 60.9178 -115.111 -106.405 60.313 -115.526 -106.361 59.6248 
-115.94 -106.321 58.9056 -114.528 -105.478 63.4413 -114.525 -106.059 63.3297 
-114.713 -106.364 62.8047 -115.07 -106.494 61.9769 -115.477 -106.578 61.2519 
-115.844 -106.542 60.6578 -116.155 -106.484 59.9441 -116.463 -106.506 59.1629 
-114.901 -105.367 63.8199 -114.957 -105.97 63.8304 -115.189 -106.328 63.6448 
-115.617 -106.416 63.1102 -116.085 -106.463 62.4074 -116.433 -106.47 61.807 
-116.641 -106.411 61.2045 -116.806 -106.45 60.3945 -117.022 -106.578 59.4799 
-115.378 -105.131 64.1237 -115.546 -105.748 64.1282 -116.168 -105.541 64.6195 
-116.433 -106.181 64.607 -116.893 -105.894 65.3462 -115.796 -106.3 64.1155 
-117.119 -106.483 65.1093 -117.367 -106.081 65.8428 -116.713 -106.732 64.4451 
-116.174 -106.574 63.9275 -117.695 -106.546 65.2231 -118.107 -106.193 65.8452 
-117.295 -107.099 64.6181 -116.919 -107.169 64.1193 -116.583 -106.686 63.4484 
-118.621 -106.613 65.0524 -119.179 -106.348 65.6322 -117.951 -107.24 64.5697 
-117.314 -107.805 64.1315 -117.062 -107.46 63.5957 -116.919 -106.699 62.8368 
-119.475 -106.876 64.8305 -119.837 -106.491 65.2746 -118.925 -107.396 64.4801 
-118.081 -108.045 64.1234 -117.439 -108.126 63.549 -117.345 -107.292 62.9706 
-117.176 -106.528 62.2499 -119.86 -107.109 64.4623 -120.069 -106.496 64.7189 
-119.662 -107.684 64.2334 -119.148 -108.072 64.0318 -118.332 -108.17 63.4943 
-117.879 -107.651 62.8644 -117.749 -106.802 62.3531 -117.367 -106.395 61.5332 
-120.237 -107.038 64.0368 -120.419 -106.302 64.1681 -120.147 -107.769 63.8366 
-119.938 -108.054 63.7042 -119.31 -107.895 63.363 -118.636 -107.5 62.7747 
-118.329 -106.928 62.2638 -118.039 -106.504 61.6162 -117.521 -106.473 60.5676 
-120.78 -106.668 63.6688 -120.883 -105.956 63.7006 -120.671 -107.45 63.4932 
-120.478 -107.799 63.3403 -119.969 -107.566 63.1386 -119.268 -107.148 62.712 
-118.814 -106.786 62.1849 -118.567 -106.519 61.5653 -118.189 -106.48 60.6236 
-117.699 -106.601 59.5262 -115.013 -104.488 64.0764 -115.675 -104.848 64.4118 
-115.113 -104.164 64.343 -116.005 -104.516 64.5887 -115.342 -103.674 64.4615 
-116.553 -105.222 65.0215 -116.437 -104.044 64.5354 -115.808 -103.115 64.4075 
-116.964 -104.878 65.0538 -117.16 -105.547 65.772 -116.902 -103.519 64.4753 
-116.349 -102.725 64.2127 -117.399 -104.51 64.7427 -117.509 -105.305 65.5398 
-117.638 -105.846 66.1614 -117.292 -103.021 64.4244 -116.81 -102.437 63.8319 
-117.77 -104.024 64.5913 -117.937 -105.065 64.8986 -118.089 -105.738 65.7489 
-118.628 -106.088 66.1475 -117.659 -102.548 64.0603 -117.28 -102.056 63.3994 
-118.074 -103.331 64.5313 -118.34 -104.492 64.5154 -118.531 -105.433 64.9 
-119.073 -105.919 65.72 -119.668 -106.172 65.8817 -118.022 -102.168 63.4751 
-117.781 -101.602 63.1348 -118.316 -102.705 64.0865 -118.685 -103.6 64.3431 
-118.915 -104.645 64.3561 -119.248 -105.39 64.8162 -119.8 -105.829 65.3496 
-120.092 -106.121 65.2612 -118.31 -101.846 63.0144 -118.168 -101.183 62.9536 
-118.468 -102.361 63.3742 -118.896 -102.902 63.8946 -119.331 -103.64 64.1672 
-119.509 -104.418 64.2868 -119.755 -105.136 64.4982 -120.118 -105.668 64.6234 
-120.318 -105.972 64.4849 -118.521 -101.491 62.6811 -118.378 -100.864 62.6303 
-118.615 -102.079 62.7792 -118.979 -102.53 63.1795 -119.595 -102.949 63.7421 
[...]
CELL_DATA 2000
SCALARS Distance double
LOOKUP_TABLE default
163.556 163.341 163.607 163.923 163.034 163.354 163.67 163.974 164.334 
162.674 163.013 163.355 163.692 164.069 164.407 164.822 162.38 162.69 
163.065 163.391 163.808 164.15 164.588 164.923 165.346 162.158 162.452 
162.842 163.146 163.577 163.914 164.369 164.701 165.124 165.433 165.818 
162.002 162.273 162.677 162.953 163.36 163.681 164.121 164.471 164.901 
165.222 165.624 165.91 166.302 161.929 162.168 162.585 162.822 163.217 
163.479 163.895 164.214 164.663 165 165.45 165.753 166.186 166.448 
166.855 161.875 162.114 162.521 162.753 163.144 163.372 163.776 164.037 
164.49 164.797 165.285 165.6 166.07 166.353 166.768 167.008 167.362 
161.795 162.039 162.427 162.67 163.046 163.289 163.683 163.943 164.385 
164.671 165.152 165.459 165.931 166.227 166.638 166.897 167.237 167.462 
167.754 163.274 162.752 163.039 163.056 162.104 162.451 162.448 162.765 
162.73 161.379 161.737 161.71 162.074 162.037 162.377 162.341 160.76 
161.053 161.038 161.338 161.311 161.647 161.637 161.992 162.014 160.237 
160.514 160.528 160.759 160.717 160.969 160.939 161.271 161.292 161.681 
161.753 159.687 159.971 159.936 160.216 160.108 160.377 160.274 160.583 
160.563 160.94 161.012 161.436 161.57 159.232 159.415 159.275 159.512 
159.327 159.642 159.525 159.887 159.895 160.262 160.368 160.741 160.907 
161.311 161.504 158.955 159.037 158.864 158.919 158.71 158.88 158.821 
159.15 159.284 159.668 159.877 160.21 160.397 160.72 160.901 161.28 
161.466 158.697 158.796 158.661 158.646 158.466 158.475 158.452 158.628 
158.832 159.159 159.441 159.776 159.966 160.254 160.367 160.692 160.825 
161.221 161.386 158.5 158.104 158.387 158.448 157.584 157.897 158.014 
158.283 158.316 157.283 157.422 157.626 157.906 158.135 158.275 158.403 
157.588 157.397 157.627 157.718 158.1 158.237 158.539 158.564 158.818 
158.28 157.943 158.075 157.949 158.255 158.314 158.627 158.715 158.983 
159.06 159.356 158.819 158.572 158.54 158.38 158.45 158.451 158.593 
158.711 158.883 159.066 159.299 159.511 159.787 159.193 158.978 158.884 
158.693 158.627 158.544 158.591 158.639 158.788 158.915 159.135 159.335 
159.618 159.857 160.149 159.668 159.402 159.391 159.087 159.072 158.803 
158.909 158.779 159.055 159.016 159.346 159.338 159.672 159.751 160.106 
160.266 160.617 160.241 159.978 160.065 159.744 159.832 159.464 159.631 
159.345 159.686 159.526 159.946 159.805 160.175 160.049 160.401 160.379 
160.76 160.838 161.211 161.536 161.15 161.553 162 160.862 161.231 
161.746 162.112 162.613 160.683 161.018 161.538 161.898 162.453 162.802 
163.312 160.484 160.852 161.334 161.686 162.212 162.62 163.173 163.516 
163.977 160.251 160.63 161.111 161.449 161.911 162.323 162.869 163.31 
163.81 164.133 164.557 160.178 160.458 160.967 161.242 161.687 162.02 
162.532 162.969 163.504 163.904 164.365 164.695 165.168 160.306 160.485 
160.968 161.17 161.613 161.856 162.344 162.687 163.231 163.61 164.124 
164.479 164.976 165.335 165.837 160.464 160.617 161.033 161.205 161.618 
161.824 162.293 162.569 163.095 163.413 163.939 164.27 164.788 165.138 
165.637 165.978 166.399 160.587 160.723 161.1 161.257 161.649 161.838 
162.291 162.538 163.036 163.316 163.802 164.107 164.589 164.938 165.415 
165.763 166.171 166.466 166.789 161.894 162.32 162.231 162.52 162.879 
162.698 162.941 162.852 163.135 163.547 163.304 163.509 163.328 163.601 
163.498 163.804 164.213 163.987 164.204 163.97 164.244 164.057 164.388 
164.237 164.559 164.849 164.661 164.946 164.714 165.024 164.788 165.122 
164.909 165.242 165.043 165.349 165.543 165.362 165.729 165.501 165.84 
165.594 165.914 165.677 165.978 165.757 166.045 165.836 166.112 166.228 
166.1 166.497 166.306 166.627 166.39 166.662 166.432 166.696 166.48 
166.731 166.517 166.755 166.558 166.788 166.738 166.708 167.082 166.999 
167.3 167.119 167.357 167.137 167.388 167.177 167.43 167.2 167.412 
167.18 167.372 167.177 167.366 167.098 167.114 167.487 167.485 167.838 
167.737 168.032 167.833 168.117 167.891 168.176 167.926 168.151 167.867 
168.037 167.773 167.938 167.726 167.889 167.428 168.245 167.819 167.861 
169.257 168.765 168.774 168.297 168.276 170.081 169.731 169.75 169.285 
169.222 168.691 168.548 170.642 170.383 170.422 170.138 170.111 169.66 
169.496 168.916 168.684 171.29 170.939 170.958 170.701 170.739 170.433 
170.327 169.842 169.585 169.006 168.725 171.899 171.616 171.63 171.322 
171.38 171.054 170.995 170.575 170.331 169.826 169.492 168.969 168.646 
172.111 172.066 172.142 171.988 172.062 171.76 171.664 171.225 170.942 
170.468 170.116 169.645 169.288 168.812 168.487 172.089 172.162 172.333 
172.358 172.478 172.335 172.191 171.821 171.43 170.99 170.58 170.179 
169.825 169.404 169.068 168.626 168.341 172.046 172.159 172.371 172.472 
172.599 172.581 172.412 172.166 171.702 171.337 170.849 170.532 170.166 
169.86 169.537 169.167 168.86 168.476 168.236 167.304 167.34 167.573 
168.124 167.326 167.638 168.272 168.525 169.138 167.272 167.629 168.324 
168.655 169.282 169.513 169.981 167.27 167.601 168.295 168.662 169.295 
169.585 170.08 170.246 170.605 167.272 167.595 168.236 168.605 169.214 
169.537 170.076 170.329 170.824 170.934 171.323 167.191 167.52 168.083 
168.476 169.03 169.399 169.902 170.255 170.796 171.112 171.58 171.682 
171.932 167.094 167.374 167.833 168.214 168.702 169.124 169.565 169.973 
170.404 170.874 171.304 171.696 171.915 172.049 172.062 167.015 167.244 
167.588 167.898 168.303 168.726 169.162 169.577 169.928 170.347 170.659 
171.148 171.382 171.757 171.798 171.968 171.945 166.88 167.109 167.373 
167.622 167.937 168.308 168.737 169.167 169.545 169.891 170.133 170.483 
170.696 171.106 171.259 171.577 171.62 171.818 171.849 160.789 161.297 
161.114 161.288 161.897 161.675 161.858 161.654 161.858 162.562 162.324 
162.551 162.305 162.531 162.287 162.531 163.272 163.014 163.261 163.036 
163.285 163.026 163.258 163.007 163.265 163.954 163.692 163.893 163.72 
163.99 163.781 163.996 163.732 163.936 163.72 163.977 164.564 164.301 
164.439 164.293 164.586 164.456 164.702 164.451 164.607 164.356 164.583 
164.42 164.728 165.218 164.921 165.061 164.843 165.14 165.029 165.333 
165.137 165.294 165.016 165.19 165.008 165.32 165.201 165.54 165.936 
165.659 165.86 165.56 165.834 165.632 165.952 165.765 165.978 165.704 
165.863 165.628 165.902 165.776 166.113 165.996 166.279 166.545 166.38 
166.621 166.378 166.622 166.378 166.668 166.445 166.72 166.44 166.667 
166.364 166.638 166.412 166.743 166.57 166.856 166.682 166.897 160.597 
160.597 160.752 161.128 160.746 160.84 161.187 161.32 161.71 160.808 
160.991 161.32 161.421 161.755 161.911 162.335 160.623 160.941 161.335 
161.531 161.859 161.981 162.391 162.589 163.074 160.496 160.742 161.243 
161.517 161.948 162.094 162.522 162.697 163.234 163.413 163.872 160.73 
160.784 161.307 161.52 162.056 162.21 162.662 162.829 163.367 163.598 
164.118 164.214 164.559 161.138 161.123 161.571 161.701 162.226 162.369 
162.812 162.951 163.423 163.673 164.194 164.409 164.797 164.851 165.155 
161.482 161.493 161.87 161.964 162.412 162.544 162.958 163.083 163.499 
163.7 164.173 164.416 164.824 164.99 165.307 165.417 165.758 161.768 
161.797 162.164 162.226 162.627 162.719 163.112 163.219 163.622 163.777 
164.216 164.41 164.806 164.976 165.295 165.46 165.783 165.971 166.313 
162.043 162.65 162.387 162.479 163.273 163.029 163.139 162.852 162.937 
163.864 163.643 163.787 163.527 163.615 163.312 163.395 164.483 164.235 
164.403 164.175 164.315 164.015 164.109 163.791 163.912 165.197 164.893 
165.06 164.819 165.003 164.727 164.849 164.53 164.644 164.343 164.492 
165.955 165.632 165.787 165.519 165.712 165.438 165.565 165.252 165.334 
165.045 165.144 164.892 165.011 166.666 166.364 166.483 166.229 166.403 
166.154 166.288 165.973 166.041 165.715 165.786 165.503 165.594 165.354 
165.468 167.286 167.015 167.077 166.847 166.976 166.785 166.924 166.675 
166.76 166.441 166.514 166.185 166.279 165.971 166.09 165.827 165.977 
167.798 167.566 167.582 167.364 167.437 167.279 167.399 167.234 167.321 
167.095 167.156 166.894 166.968 166.682 166.772 166.489 166.614 166.365 
166.514 168.046 168.323 168.067 167.834 168.647 168.358 168.148 167.88 
167.701 169.081 168.737 168.542 168.242 168.08 167.807 167.663 169.54 
169.204 168.992 168.674 168.483 168.19 168.003 167.749 167.571 169.871 
169.619 169.412 169.12 168.907 168.589 168.348 168.056 167.842 167.612 
167.422 170.174 169.944 169.824 169.544 169.397 169.052 168.846 168.46 
168.235 167.909 167.73 167.474 167.282 170.657 170.371 170.342 170.025 
169.949 169.6 169.486 169.076 168.893 168.437 168.22 167.839 167.641 
167.34 167.117 171.242 170.956 170.935 170.608 170.505 170.163 170.046 
169.719 169.578 169.162 168.901 168.414 168.116 167.723 167.487 167.181 
166.961 171.701 171.488 171.438 171.172 171.037 170.697 170.509 170.2 
170.036 169.742 169.493 169.068 168.69 168.225 167.9 167.555 167.343 
167.055 166.856 168.211 168.494 168.425 168.516 168.762 168.716 168.886 
168.755 168.851 169.154 169.034 169.236 169.134 169.303 169.151 169.291 
169.64 169.469 169.572 169.459 169.643 169.59 169.799 169.652 169.777 
169.872 169.84 169.818 169.72 169.818 169.854 170.131 170.129 170.295 
170.09 170.103 169.689 169.842 169.851 169.858 169.957 170.014 170.367 
170.448 170.731 170.58 170.586 170.314 170.311 169.458 169.603 169.76 
169.855 170.132 170.226 170.706 170.79 171.201 171.06 171.127 170.803 
170.769 170.548 170.697 169.49 169.534 169.789 169.871 170.271 170.437 
170.982 171.157 171.588 171.548 171.635 171.355 171.301 171.039 171.152 
171.03 171.277 169.638 169.686 169.938 169.998 170.325 170.517 170.933 
171.232 171.542 171.723 171.748 171.7 171.614 171.495 171.572 171.49 
171.703 171.612 171.791 168.054 167.782 168.054 168.281 167.426 167.733 
167.964 168.24 168.499 167.058 167.396 167.678 167.939 168.236 168.519 
168.902 166.565 167.007 167.358 167.689 168.015 168.3 168.709 169.028 
169.45 165.905 166.419 166.78 167.276 167.629 168.035 168.376 168.765 
169.13 169.496 169.717 165.274 165.741 166.078 166.603 166.981 167.51 
167.834 168.294 168.542 168.989 169.163 169.524 169.526 164.725 165.163 
165.506 165.953 166.328 166.83 167.189 167.664 167.913 168.332 168.502 
168.886 168.983 169.261 169.279 164.137 164.611 164.962 165.418 165.775 
166.238 166.593 167.042 167.338 167.734 167.967 168.316 168.51 168.793 
168.94 169.148 169.283 163.518 163.987 164.319 164.82 165.172 165.671 
166.027 166.486 166.809 167.211 167.497 167.856 168.103 168.408 168.591 
168.84 168.986 169.221 169.381 163.302 163.275 163.529 164.076 163.382 
163.558 164.101 164.365 164.96 163.532 163.712 164.258 164.47 165.085 
165.31 165.877 163.562 163.82 164.376 164.634 165.25 165.489 166.069 
166.232 166.704 163.553 163.813 164.346 164.649 165.235 165.577 166.172 
166.425 166.914 167.03 167.421 163.64 163.853 164.352 164.584 165.091 
165.438 166.025 166.416 166.95 167.195 167.591 167.701 168.024 163.699 
163.937 164.414 164.616 165.051 165.295 165.807 166.19 166.734 167.102 
167.502 167.746 168.039 168.207 168.469 163.664 163.916 164.356 164.617 
165.02 165.252 165.676 165.987 166.478 166.841 167.246 167.539 167.826 
168.083 168.367 168.586 168.854 163.645 163.84 164.227 164.49 164.875 
165.143 165.522 165.822 166.258 166.602 167.024 167.304 167.625 167.854 
168.175 168.432 168.791 168.994 169.286 163.783 164.167 164.077 164.326 
164.612 164.496 164.736 164.656 164.941 165.134 164.997 165.251 165.106 
165.368 165.284 165.597 165.666 165.555 165.845 165.678 165.945 165.781 
166.099 166 166.361 166.126 166.062 166.374 166.268 166.552 166.397 
166.707 166.573 166.931 166.817 167.136 166.592 166.509 166.823 166.752 
167.044 166.95 167.244 167.157 167.49 167.397 167.691 167.543 167.751 
167.125 167.01 167.324 167.221 167.527 167.421 167.708 167.625 167.937 
167.89 168.205 168.098 168.337 168.138 168.332 167.613 167.529 167.828 
167.739 168.055 167.947 168.249 168.116 168.397 168.301 168.606 168.557 
168.862 168.749 168.996 168.779 168.98 168 167.958 168.238 168.192 
168.497 168.451 168.776 168.683 168.957 168.803 169.028 168.926 169.19 
169.176 169.456 169.39 169.589 169.396 169.498 169.745 169.874 169.928 
170.073 169.713 169.933 170.134 170.22 170.412 169.446 169.689 169.91 
170.136 170.389 170.579 170.908 169.376 169.53 169.802 169.94 170.189 
170.413 170.731 171.036 171.371 169.368 169.563 169.908 169.994 170.233 
170.291 170.499 170.715 170.978 171.329 171.525 169.144 169.462 169.801 
170.052 170.296 170.392 170.529 170.578 170.764 170.948 171.215 171.441 
171.578 168.816 169.138 169.438 169.782 170.04 170.303 170.483 170.613 
170.828 170.93 171.288 171.389 171.729 171.691 171.804 168.547 168.82 
169.126 169.422 169.723 169.997 170.267 170.49 170.814 171.023 171.478 
171.642 172.077 172.063 172.267 172.046 172.027 168.3 168.568 168.888 
169.173 169.516 169.771 170.098 170.32 170.705 170.976 171.485 171.779 
172.242 172.377 172.565 172.469 172.402 172.181 172.036 158.611 158.914 
158.669 158.386 159.209 158.974 158.755 158.412 158.126 159.618 159.323 
159.161 158.828 158.644 158.285 158.241 160.157 159.823 159.729 159.361 
159.319 158.934 159.001 158.667 158.911 160.75 160.425 160.427 160.065 
160.156 159.776 159.967 159.576 159.842 159.512 159.848 161.421 161.085 
161.142 160.809 160.939 160.647 160.896 160.596 160.879 160.516 160.78 
160.442 160.719 162.139 161.813 161.879 161.543 161.639 161.368 161.577 
161.398 161.687 161.469 161.704 161.377 161.559 161.239 161.453 162.778 
162.512 162.607 162.298 162.41 162.086 162.259 162.021 162.295 162.141 
162.412 162.193 162.36 162.053 162.195 161.916 162.122 163.32 163.111 
163.261 163.022 163.209 162.906 163.099 162.776 163.017 162.774 163.058 
162.851 163.066 162.794 162.929 162.637 162.807 162.571 162.813 158.369 
158.069 158.11 157.938 157.791 157.76 157.599 157.735 157.823 157.966 
157.675 157.551 157.506 157.694 157.874 158.214 158.697 158.177 158.09 
157.756 157.963 157.946 158.391 158.479 158.816 159.646 159.094 159.003 
158.519 158.616 158.394 158.764 158.778 159.165 159.115 159.333 160.514 
160.035 159.934 159.454 159.422 159.069 159.238 159.154 159.48 159.477 
159.729 159.635 159.848 161.267 160.848 160.766 160.331 160.282 159.855 
159.905 159.641 159.881 159.804 160.102 160.031 160.269 160.181 160.433 
161.972 161.58 161.52 161.125 161.113 160.706 160.765 160.391 160.582 
160.336 160.641 160.484 160.772 160.628 160.872 160.765 161.002 162.7 
162.308 162.269 161.874 161.871 161.506 161.586 161.252 161.43 161.134 
161.389 161.142 161.41 161.196 161.431 161.25 161.468 161.327 161.537 
158.335 158.019 158.157 158.041 157.998 157.991 157.952 157.863 157.614 
158.33 158.165 158.167 157.962 157.775 157.516 157.347 158.755 158.534 
158.484 158.282 158.187 157.886 157.792 157.512 157.639 159.208 158.93 
158.844 158.62 158.611 158.38 158.426 158.139 158.285 158.064 158.349 
159.807 159.469 159.463 159.117 159.168 158.886 159.027 158.797 158.983 
158.757 158.947 158.76 158.937 160.439 160.146 160.198 159.853 159.867 
159.527 159.58 159.361 159.513 159.365 159.511 159.319 159.405 159.211 
159.308 160.973 160.742 160.76 160.51 160.434 160.137 160.021 159.804 
159.842 159.77 159.935 159.825 159.934 159.707 159.78 159.575 159.727 
161.467 161.228 161.213 160.977 160.89 160.599 160.453 160.173 160.162 
160.048 160.262 160.222 160.45 160.273 160.386 160.12 160.237 160.048 
160.253 167.805 167.281 167.567 167.544 166.627 166.969 166.94 167.228 
167.16 165.89 166.259 166.209 166.547 166.461 166.786 166.713 165.125 
165.495 165.444 165.789 165.674 166.009 165.898 166.278 166.18 164.383 
164.72 164.668 165.021 164.897 165.205 165.036 165.395 165.27 165.675 
165.546 163.709 163.98 163.876 164.227 164.101 164.419 164.205 164.514 
164.319 164.716 164.591 165.015 164.907 163.091 163.307 163.129 163.427 
163.282 163.607 163.406 163.687 163.437 163.76 163.575 164.008 163.907 
164.381 164.31 162.48 162.677 162.46 162.696 162.517 162.805 162.626 
162.903 162.671 162.925 162.693 163.021 162.88 163.333 163.269 163.772 
163.713 161.895 162.069 161.853 162.047 161.843 162.077 161.879 162.14 
161.918 162.173 161.941 162.207 162.031 162.376 162.296 162.736 162.707 
163.181 163.136 
POINT_DATA 1002
SCALARS Distance double
LOOKUP_TABLE default
163.859 163.498 163.312 163.65 163.063 164.262 163.349 162.69 164.013 
164.728 163.001 162.332 163.715 164.481 165.259 162.737 162.071 163.458 
164.254 165.03 165.749 162.548 161.857 163.243 164.032 164.821 165.522 
166.183 162.415 161.734 163.068 163.77 164.561 165.324 166.027 166.696 
162.355 161.698 162.984 163.601 164.314 165.117 165.909 166.623 167.245 
162.289 161.64 162.919 163.531 164.196 164.962 165.776 166.527 167.156 
167.685 162.19 161.556 162.803 163.418 164.102 164.857 165.639 166.379 
167.009 167.546 168.034 163.014 162.793 162.449 162.113 161.751 162.44 
161.349 161.04 161.669 162.003 160.772 160.468 160.995 161.269 161.642 
160.302 159.942 160.511 160.646 160.904 161.333 159.672 159.449 159.836 
159.978 160.201 160.586 161.12 159.125 159.124 159.03 159.115 159.485 
160.001 160.519 161.082 158.865 158.877 158.604 158.497 158.851 159.519 
160.112 160.562 161.061 158.648 158.567 158.47 158.324 158.537 159.11 
159.697 160.089 160.453 160.962 158.287 158.226 157.802 157.663 157.287 
158.155 157.316 157.248 157.902 158.349 157.628 157.889 157.938 158.462 
158.809 158.315 158.637 158.284 158.544 158.878 159.264 158.765 159.057 
158.542 158.527 158.713 159.06 159.575 159.115 159.408 158.774 158.567 
158.681 158.974 159.372 159.907 159.684 159.913 159.374 159.07 159.092 
159.394 159.671 159.973 160.438 160.337 160.473 160.174 159.948 159.875 
160.093 160.352 160.503 160.727 161.115 161.936 161.609 162.455 161.357 
162.274 163.111 161.195 162.064 163.024 163.803 161.01 161.8 162.773 
163.722 164.405 160.787 161.538 162.399 163.437 164.271 164.996 160.713 
161.402 162.125 163.074 164.004 164.82 165.689 160.796 161.396 162.042 
162.864 163.755 164.614 165.495 166.329 160.882 161.422 162.035 162.802 
163.619 164.442 165.307 166.11 166.758 160.951 161.468 162.058 162.779 
163.529 164.259 165.066 165.874 166.53 167.08 162.569 163.072 163.184 
163.73 163.727 163.892 164.432 164.454 164.554 164.719 165.147 165.259 
165.359 165.455 165.553 165.945 166.097 166.166 166.217 166.264 166.318 
166.668 166.879 166.907 166.914 166.959 166.97 166.977 167.128 167.45 
167.573 167.592 167.658 167.673 167.595 167.545 167.456 167.876 168.189 
168.336 168.425 168.448 168.335 168.183 168.088 167.75 168.251 168.734 
169.309 169.727 168.763 170.157 170.358 169.783 169.121 170.634 170.936 
170.476 170.075 169.292 171.247 171.688 170.995 170.748 170.16 169.303 
171.916 172.096 171.728 171.42 170.819 170.017 169.157 172.188 172.051 
172.323 172.136 171.438 170.57 169.761 168.945 172.248 171.969 172.564 
172.548 171.89 170.963 170.208 169.508 168.753 172.262 171.908 172.604 
172.631 172.059 171.158 170.426 169.865 169.241 168.588 167.082 167.887 
167.051 167.975 166.951 168.954 167.961 166.907 169.036 169.859 167.936 
166.967 168.99 169.86 170.521 167.883 166.966 168.891 169.762 170.606 
171.345 167.711 166.898 168.656 169.544 170.4 171.385 172.013 167.513 
166.873 168.275 169.174 169.977 170.838 171.692 172.04 167.347 166.824 
167.905 168.728 169.583 170.226 170.915 171.541 171.814 167.157 166.659 
167.615 168.293 169.19 169.864 170.31 170.863 171.376 171.672 160.945 
161.446 161.501 162.079 162.11 162.048 162.784 162.793 162.789 162.756 
163.466 163.557 163.534 163.532 163.486 164.055 164.252 164.161 164.277 
164.179 164.144 164.598 164.846 164.666 164.933 164.898 164.747 164.858 
165.319 165.492 165.266 165.488 165.58 165.405 165.421 165.681 166.166 
166.151 166.096 166.141 166.227 166.128 166.058 166.227 166.433 160.372 
160.94 160.48 161.103 160.657 161.52 161.215 160.555 161.643 162.103 
161.054 160.261 161.737 162.199 162.873 160.913 160.314 161.763 162.348 
163.021 163.81 161.125 160.751 161.884 162.522 163.119 163.964 164.583 
161.494 161.171 162.094 162.702 163.213 163.939 164.681 165.129 161.814 
161.461 162.304 162.838 163.335 163.95 164.63 165.161 165.633 162.117 