# vtk DataFile Version 4.0
vtk output
ASCII
DATASET POLYDATA
POINTS 1002 float
-119.337 -96.5247 43.7405 -119.493 -96.377 42.97 -118.826 -96.4691 43.1298 
-118.652 -96.5908 43.9209 -118.15 -96.6109 43.339 -119.16 -96.6365 44.6229 
-118.018 -96.8108 44.1599 -117.653 -97.0161 43.5043 -118.462 -96.732 44.9025 
-119.005 -96.8413 45.5617 -117.514 -97.2582 44.504 -117.132 -97.4447 43.8157 
-117.875 -97.0608 45.2385 -118.343 -97.0523 45.9227 -118.832 -97.1256 46.5801 
-116.933 -97.6142 44.9903 -116.364 -97.5731 44.3933 -117.425 -97.5894 45.5957 
-117.853 -97.5181 46.1803 -118.292 -97.4953 46.8614 -118.679 -97.469 47.5801 
-116.221 -97.8803 45.3453 -115.573 -97.6934 44.9128 -116.934 -98.1192 45.7914 
-117.501 -98.2123 46.2457 -117.916 -98.0958 46.9187 -118.294 -97.9716 47.7496 
-118.68 -97.9443 48.4177 -115.519 -98.3694 45.4389 -114.919 -98.0788 45.1989 
-116.282 -98.6324 45.7976 -117.008 -98.8494 46.2345 -117.541 -98.814 46.9101 
-117.936 -98.575 47.8365 -118.343 -98.4325 48.6456 -118.864 -98.4902 49.1824 
-114.774 -98.8418 45.6638 -114.245 -98.451 45.5023 -115.454 -99.0025 46.0398 
-116.174 -99.0898 46.5397 -116.843 -99.1443 47.1954 -117.394 -99.0177 48.0726 
-117.859 -98.8315 48.9181 -118.415 -98.802 49.5267 -119.075 -98.9204 50.0115 
-113.962 -98.9873 46.1966 -113.537 -98.6666 45.9157 -114.541 -99.0448 46.7046 
-115.185 -98.9956 47.2585 -115.861 -99.0275 47.8165 -116.543 -99.0257 48.5297 
-117.134 -98.9566 49.289 -117.73 -98.9665 49.8963 -118.44 -99.0536 50.4007 
-119.084 -99.113 50.9051 -113.255 -99.0365 46.729 -112.945 -98.9066 46.2752 
-113.737 -98.9687 47.3896 -114.351 -98.913 47.9747 -115.019 -99.0185 48.3917 
-115.69 -99.0607 48.9286 -116.289 -98.9416 49.6499 -116.876 -98.9372 50.2986 
-117.597 -99.0845 50.8279 -118.333 -99.1544 51.3394 -118.831 -99.0642 51.8322 
-119.107 -96.1465 42.4625 -118.319 -96.225 42.7341 -118.396 -95.675 42.2041 
-117.623 -95.8398 42.4262 -117.643 -95.2413 41.8486 -117.698 -96.5007 42.9143 
-117.065 -95.6469 41.7489 -117.236 -95.1445 41.1077 -117.15 -96.3035 42.442 
-117.277 -97.0529 42.9456 -116.729 -95.7234 40.8345 -116.918 -95.1178 40.4461 
-116.642 -96.1773 41.7244 -116.713 -96.8987 42.4426 -116.639 -97.453 43.226 
-116.196 -95.5999 40.4345 -116.234 -94.7769 40.334 -116.126 -96.0261 41.1828 
-116.016 -96.5846 42.0379 -115.927 -97.2739 42.7897 -115.746 -97.511 43.8918 
-115.415 -95.0677 40.5907 -115.435 -94.2091 40.5162 -115.502 -95.6178 41.1604 
-115.359 -96.171 41.8998 -115.128 -96.984 42.4674 -115.04 -97.4422 43.4162 
-114.978 -97.5782 44.566 -114.871 -94.3846 40.855 -114.953 -93.5806 40.7139 
-114.954 -95.0294 41.3459 -114.857 -95.7059 41.9795 -114.47 -96.6778 42.2865 
-114.266 -97.3985 42.8878 -114.33 -97.506 44.1343 -114.337 -97.7693 45.0887 
-114.716 -93.7334 41.1884 -114.746 -92.9525 40.9632 -114.682 -94.4421 41.5804 
-114.498 -95.2046 42.1308 -114.007 -96.2701 42.3454 -113.561 -97.2666 42.5355 
-113.554 -97.525 43.5679 -113.701 -97.5131 44.8712 -113.67 -97.9898 45.5452 
-114.659 -93.1795 41.6264 -114.586 -92.4373 41.2796 -114.561 -93.9225 41.9348 
-114.228 -94.7 42.3327 -113.659 -95.7064 42.5658 -113.067 -96.8278 42.5776 
-112.851 -97.424 43.1589 -113.001 -97.4393 44.4521 -113.116 -97.6553 45.4766 
-113.048 -98.3104 45.9043 -114.426 -92.514 41.9313 -114.386 -93.2787 42.2679 
-113.96 -92.6898 42.4945 -113.63 -93.4749 42.6629 -113.144 -92.8954 42.7739 
-114.009 -94.083 42.5099 -112.654 -93.6762 42.8805 -112.407 -93.0673 43.128 
-113.039 -94.3354 42.8098 -113.385 -95.0056 42.7475 -112.021 -93.8325 43.4633 
-112.026 -93.2122 43.9359 -112.196 -94.5941 43.1734 -112.496 -95.3471 43.0389 
-112.76 -96.1161 42.8385 -111.712 -93.9913 44.4055 -111.754 -93.4154 44.8941 
-111.756 -94.7963 43.9597 -111.981 -95.6051 43.6445 -112.192 -96.3208 43.3868 
-112.409 -96.9956 43.1647 -111.381 -94.2111 45.2364 -111.478 -93.7239 45.6847 
-111.381 -94.9311 44.8228 -111.612 -95.7036 44.5532 -111.904 -96.3227 44.359 
-112.108 -96.8777 44.2121 -112.436 -97.2925 44.24 -111.12 -94.4579 46.0288 
-111.372 -94.0564 46.4522 -110.997 -95.0434 45.618 -111.156 -95.7281 45.4168 
-111.496 -96.3014 45.3834 -111.798 -96.8147 45.3373 -112.116 -97.297 45.3201 
-112.572 -97.5528 45.4032 -111.078 -94.6793 47.0001 -111.384 -94.3261 47.3238 
-110.865 -95.1644 46.6309 -110.893 -95.8136 46.3599 -111.1 -96.4619 46.2704 
-111.327 -97.0262 46.2172 -111.635 -97.6156 46.0919 -112.085 -98.0725 45.9908 
-112.572 -98.238 45.9555 -111.097 -94.8796 48.0399 -111.323 -94.5253 48.25 
-110.936 -95.3094 47.7901 -110.933 -95.9443 47.4973 -111.011 -96.7357 47.219 
-111.03 -97.4266 46.9844 -111.142 -98.0299 46.7205 -111.535 -98.6264 46.4343 
-112.049 -98.9694 46.2643 -112.506 -98.979 46.2472 -112.638 -99.2938 46.8525 
-112.209 -99.5339 46.7033 -112.466 -99.5767 47.5801 -111.719 -99.452 46.7588 
-112.05 -99.7734 47.5009 -112.402 -99.7616 48.4725 -111.191 -98.942 47.0946 
-111.576 -99.4516 47.7655 -112.004 -99.7047 48.7205 -112.358 -99.8052 49.6564 
-110.938 -98.3685 47.5305 -111.125 -98.8944 48.2682 -111.596 -99.2142 49.2492 
-111.97 -99.6065 50.1925 -112.342 -99.7932 51.0187 -111.023 -97.755 47.955 
-110.964 -98.4889 48.7687 -111.176 -98.8004 49.8146 -111.586 -99.192 50.7891 
-111.956 -99.6362 51.5775 -112.471 -99.7934 52.2808 -111.081 -96.8471 48.3903 
-111.025 -97.8162 49.2569 -110.93 -98.4558 50.2781 -111.16 -98.8539 51.2795 
-111.6 -99.2692 52.0547 -112.11 -99.5456 52.7646 -112.761 -99.6165 53.3752 
-111.005 -95.9604 48.7443 -111.021 -96.8015 49.6727 -110.894 -97.6521 50.6415 
-110.932 -98.3065 51.6163 -111.313 -98.7779 52.3801 -111.844 -99.0869 53.0624 
-112.445 -99.208 53.7345 -113.123 -99.2313 54.2009 -110.984 -95.3847 48.9584 
-110.959 -96.0086 49.8928 -110.945 -96.7187 50.8084 -110.992 -97.4133 51.7461 
-111.259 -98.0059 52.5586 -111.701 -98.4596 53.217 -112.225 -98.7327 53.8589 
-112.848 -98.8317 54.3723 -113.519 -98.8565 54.6802 -111.08 -94.9518 49.1178 
-110.962 -95.4798 50.0148 -111.026 -96.074 50.8385 -111.186 -96.6527 51.669 
-111.388 -97.1671 52.551 -111.657 -97.6471 53.3388 -112.041 -98.0893 53.9716 
-112.594 -98.3912 54.4567 -113.269 -98.5227 54.7749 -113.92 -98.5905 55.0308 
-112.999 -99.1458 47.6022 -112.926 -99.3989 48.3675 -113.591 -99.0312 48.3116 
-112.959 -99.7073 49.1862 -113.713 -99.5074 48.9045 -114.371 -99.2558 48.7058 
-112.983 -99.7565 50.42 -113.907 -99.8338 49.7962 -114.667 -99.8862 49.3287 
-115.124 -99.4912 49.123 -113.063 -99.7436 51.7944 -113.974 -99.712 51.2266 
-114.851 -99.9278 50.612 -115.309 -99.8132 50.1623 -115.66 -99.2539 49.9238 
-113.289 -99.8 52.9725 -114.041 -99.7476 52.5426 -114.834 -99.6614 52.1455 
-115.323 -99.5468 51.7185 -115.613 -99.2122 51.2687 -116.126 -98.9428 50.7943 
-113.588 -99.5973 53.9651 -114.205 -99.8666 53.6254 -114.887 -99.7945 53.328 
-115.394 -99.413 53.065 -115.692 -99.023 52.7053 -116.115 -98.8997 52.1513 
-116.821 -99.0031 51.4659 -113.92 -99.1695 54.6645 -114.419 -99.6017 54.5918 
-115.034 -99.8886 54.4224 -115.622 -99.6908 54.1381 -116.02 -99.1712 53.8202 
-116.373 -98.885 53.4367 -116.925 -98.9758 52.8216 -117.642 -99.1256 52.0449 
-114.282 -98.83 55.1217 -114.681 -99.1828 55.2998 -115.197 -99.6168 55.4158 
-115.809 -99.8318 55.2308 -116.341 -99.5793 54.8178 -116.726 -99.1349 54.4599 
-117.123 -98.9328 54.0619 -117.644 -98.9619 53.3872 -118.244 -99.0198 52.5613 
-114.491 -98.5513 55.6081 -114.854 -98.8555 55.8335 -114.89 -98.6519 56.5727 
-115.304 -99.0227 56.833 -115.139 -98.7838 57.6409 -115.293 -99.2225 56.1419 
-115.753 -99.1231 57.7126 -115.59 -98.6756 58.3182 -115.893 -99.3457 56.9868 
-115.878 -99.6307 56.2271 -116.515 -98.973 58.1793 -116.449 -98.3138 58.5496 
-116.624 -99.3447 57.5715 -116.605 -99.6618 56.8255 -116.509 -99.8118 55.874 
-117.585 -98.7527 58.388 -117.447 -97.9454 58.592 -117.631 -99.2286 57.9699 
-117.515 -99.5915 57.283 -117.281 -99.8032 56.3754 -117.028 -99.5639 55.3951 
-118.606 -98.4906 58.5093 -118.336 -97.5423 58.5458 -118.687 -99.1558 58.2717 
-118.597 -99.5524 57.6772 -118.327 -99.8084 56.7811 -117.865 -99.6102 55.8751 
-117.438 -99.1496 55.0124 -119.376 -97.9093 58.5464 -119.05 -96.9919 58.4128 
-119.477 -98.8173 58.4263 -119.461 -99.4723 57.8597 -119.428 -99.8751 56.9279 
-118.994 -99.7536 56.036 -118.264 -99.187 55.2933 -117.812 -98.8691 54.4411 
-119.841 -97.1521 58.3757 -119.47 -96.4927 58.1004 -119.971 -98.0309 58.3771 
-119.912 -98.9219 57.8502 -120.008 -99.6193 56.8731 -119.908 -99.764 55.9194 
-119.162 -99.24 55.211 -118.413 -98.7301 54.5032 -118.214 -98.7509 53.5919 
-119.994 -96.6363 57.8337 -119.588 -96.238 57.4974 -120.224 -97.2478 57.9841 
-120.154 -98.0341 57.6557 -120.095 -98.8116 56.8094 -120.12 -99.2184 55.8516 
-119.69 -98.9928 55.0984 -118.915 -98.5356 54.4255 -118.566 -98.4692 53.6413 
-118.707 -98.7794 52.7394 -113.908 -98.2655 55.3085 -114.441 -98.1964 56.0678 
-113.844 -97.7917 55.6648 -114.333 -97.6751 56.4622 -113.793 -97.2574 55.8742 
-114.726 -98.2383 57.1403 -114.262 -97.0772 56.5628 -113.812 -96.6736 55.9061 
-114.627 -97.5866 57.3641 -114.995 -98.2111 58.0517 -114.205 -96.2921 56.6529 
-113.835 -95.8648 55.942 -114.643 -96.7715 57.2804 -115.13 -97.3555 57.9321 
-115.651 -97.8829 58.4633 -114.156 -95.3344 56.7743 -113.864 -95.0609 55.8117 
-114.615 -95.7904 57.3508 -115.322 -96.4233 57.6473 -115.964 -96.9738 58.1671 
-116.555 -97.4085 58.5908 -114.311 -94.6977 56.3987 -114.019 -94.5985 55.3543 
-114.683 -94.953 57.2369 -115.337 -95.5282 57.5262 -116.136 -96.1925 57.805 
-116.739 -96.6204 58.3252 -117.393 -97.0132 58.5728 -114.643 -94.3923 55.6679 
-114.268 -94.2332 54.8792 -115.055 -94.5619 56.5299 -115.514 -94.8457 57.1768 
-116.171 -95.3523 57.5747 -116.887 -95.8964 57.9793 -117.485 -96.2746 58.2943 
-118.199 -96.6188 58.3775 -114.88 -93.9654 55.135 -114.498 -93.7347 54.5475 
-115.409 -94.2742 55.7402 -115.898 -94.4581 56.4924 -116.377 -94.5463 57.2619 
-117.042 -94.8914 57.7508 -117.723 -95.4612 57.9392 -118.273 -95.9261 58 
-118.855 -96.2359 58.0525 -114.998 -93.4128 54.761 -114.699 -93.2553 54.183 
-115.509 -93.7991 55.1984 -116.09 -94.1487 55.7684 -116.589 -94.1361 56.6439 
[...]
CELL_DATA 2000
SCALARS Distance double
LOOKUP_TABLE default
158.344 157.949 158.264 158.518 157.713 157.912 158.159 158.45 158.742 
157.673 157.794 158.02 158.185 158.48 158.746 159.077 157.527 157.756 
158.025 158.167 158.463 158.611 158.958 159.159 159.487 157.213 157.537 
157.922 158.181 158.562 158.702 159.054 159.162 159.515 159.64 159.98 
156.98 157.27 157.722 158.049 158.526 158.78 159.179 159.313 159.648 
159.743 160.087 160.199 160.587 156.81 157.096 157.498 157.833 158.248 
158.613 158.99 159.302 159.61 159.823 160.103 160.273 160.606 160.808 
161.225 156.553 156.864 157.176 157.524 157.81 158.199 158.477 158.903 
159.176 159.571 159.813 160.132 160.388 160.692 161.03 161.36 161.728 
156.303 156.557 156.813 157.121 157.376 157.717 157.995 158.367 158.67 
159.053 159.325 159.689 159.933 160.312 160.61 161.023 161.358 161.733 
161.98 158.095 157.399 157.75 157.685 156.517 156.964 157.021 157.391 
157.457 155.785 156.139 156.285 156.72 156.928 157.295 157.429 155.307 
155.565 155.682 156.047 156.277 156.723 156.903 157.243 157.258 154.722 
155.082 155.135 155.476 155.582 156.018 156.162 156.602 156.622 156.939 
156.884 153.885 154.35 154.412 154.837 154.876 155.279 155.345 155.792 
155.854 156.245 156.24 156.563 156.602 153.104 153.511 153.632 154.068 
154.184 154.567 154.632 155.006 155.081 155.482 155.549 155.916 155.97 
156.334 156.426 152.575 152.888 153.073 153.41 153.6 153.938 154.049 
154.36 154.416 154.763 154.834 155.218 155.291 155.676 155.751 156.138 
156.212 152.216 152.502 152.74 152.999 153.178 153.442 153.539 153.808 
153.834 154.131 154.165 154.52 154.598 154.984 155.087 155.469 155.577 
155.933 156.021 152.135 152.152 152.345 152.664 151.877 152.216 152.512 
152.767 153.023 151.45 151.791 152.062 152.445 152.705 153.028 153.28 
151.281 151.43 151.695 151.986 152.306 152.642 152.944 153.259 153.543 
151.409 151.422 151.683 151.808 152.181 152.388 152.765 152.985 153.318 
153.562 153.886 151.597 151.583 151.797 151.884 152.228 152.4 152.791 
152.949 153.298 153.448 153.79 153.985 154.342 151.857 151.769 151.917 
151.959 152.236 152.417 152.784 152.985 153.338 153.492 153.84 153.988 
154.355 154.515 154.874 152.257 152.089 152.212 152.128 152.387 152.453 
152.837 152.987 153.378 153.527 153.905 154.063 154.459 154.604 154.972 
155.083 155.404 152.679 152.522 152.665 152.523 152.8 152.748 153.169 
153.193 153.625 153.66 154.044 154.139 154.546 154.708 155.109 155.228 
155.544 155.61 155.871 156.073 155.804 156.071 156.32 155.388 155.767 
156.06 156.346 156.618 154.819 155.261 155.578 155.998 156.318 156.651 
156.952 154.365 154.733 155.068 155.472 155.845 156.271 156.648 156.996 
157.336 154.047 154.404 154.794 155.09 155.474 155.826 156.263 156.659 
157.081 157.41 157.792 153.637 154.082 154.522 154.877 155.245 155.546 
155.937 156.3 156.74 157.124 157.537 157.876 158.259 153.216 153.632 
154.058 154.503 154.864 155.253 155.587 155.97 156.357 156.763 157.169 
157.559 157.932 158.293 158.627 152.991 153.265 153.637 154.014 154.378 
154.783 155.128 155.544 155.914 156.344 156.735 157.153 157.524 157.913 
158.244 158.597 158.885 152.922 153.091 153.391 153.663 154.017 154.354 
154.735 155.103 155.493 155.889 156.272 156.688 157.049 157.466 157.803 
158.192 158.499 158.839 159.117 156.312 156.516 156.506 156.755 156.835 
156.759 156.988 156.993 157.306 157.227 157.144 157.447 157.366 157.716 
157.651 157.999 157.631 157.566 157.954 157.918 158.378 158.256 158.613 
158.421 158.721 158.099 158.012 158.404 158.411 158.911 158.914 159.283 
159.103 159.271 159.08 159.302 158.613 158.537 158.927 158.881 159.322 
159.345 159.685 159.619 159.723 159.554 159.638 159.575 159.843 159.003 
159.023 159.443 159.424 159.84 159.785 160.095 159.972 160.106 159.923 
160.027 159.91 160.179 160.174 160.561 159.241 159.329 159.756 159.85 
160.303 160.313 160.67 160.507 160.704 160.426 160.593 160.377 160.676 
160.595 160.997 160.969 161.352 159.46 159.537 159.949 160.08 160.559 
160.688 161.137 161.109 161.401 161.158 161.344 161.057 161.299 161.134 
161.45 161.394 161.693 161.679 161.932 159.734 160.376 160.101 160.24 
161.071 160.807 160.969 160.677 160.866 161.678 161.505 161.721 161.449 
161.638 161.347 161.49 162.208 162.106 162.398 162.186 162.393 162.118 
162.231 161.894 161.833 162.771 162.706 163.102 162.896 163.154 162.863 
162.974 162.617 162.534 162.087 161.842 163.273 163.316 163.817 163.668 
163.986 163.678 163.823 163.409 163.335 162.817 162.567 162.039 161.784 
163.522 163.724 164.237 164.287 164.612 164.46 164.626 164.297 164.244 
163.696 163.387 162.776 162.452 161.989 161.82 163.48 163.788 164.211 
164.458 164.707 164.81 164.917 164.885 164.829 164.517 164.131 163.549 
163.031 162.545 162.256 161.994 161.923 163.226 163.57 163.888 164.22 
164.385 164.624 164.627 164.817 164.698 164.742 164.34 164.041 163.388 
162.96 162.487 162.269 162.157 162.073 162.096 159.551 159.412 159.713 
160.171 159.159 159.526 159.999 160.342 160.811 158.827 159.219 159.659 
160.072 160.525 160.921 161.355 158.403 158.822 159.201 159.647 160.072 
160.537 160.971 161.392 161.817 157.891 158.318 158.656 159.121 159.532 
160.037 160.498 160.966 161.395 161.825 162.28 157.478 157.825 158.169 
158.573 158.984 159.478 159.976 160.491 160.95 161.386 161.784 162.249 
162.697 157.235 157.515 157.895 158.202 158.613 158.991 159.467 159.958 
160.457 160.935 161.333 161.747 162.103 162.588 162.964 156.996 157.291 
157.675 157.998 158.411 158.719 159.121 159.492 159.938 160.412 160.851 
161.295 161.638 162.032 162.327 162.773 163.023 156.702 156.996 157.329 
157.712 158.115 158.49 158.855 159.178 159.515 159.905 160.292 160.764 
161.127 161.556 161.812 162.187 162.366 162.755 162.868 152.983 153.165 
153.168 153.407 153.435 153.39 153.671 153.685 154.024 153.856 153.754 
154.072 154.033 154.419 154.396 154.769 154.277 154.21 154.529 154.493 
154.887 154.851 155.227 155.168 155.524 154.593 154.575 154.886 154.908 
155.274 155.289 155.632 155.605 155.917 155.894 156.247 154.987 154.901 
155.217 155.22 155.587 155.619 155.958 155.956 156.251 156.239 156.569 
156.6 156.986 155.546 155.387 155.687 155.603 155.968 155.949 156.332 
156.309 156.661 156.605 156.96 156.936 157.341 157.361 157.76 156.071 
155.954 156.218 156.11 156.425 156.366 156.75 156.735 157.156 157.105 
157.509 157.42 157.831 157.775 158.188 158.153 158.502 156.438 156.401 
156.665 156.599 156.873 156.807 157.132 157.133 157.546 157.584 158.014 
157.99 158.385 158.314 158.697 158.626 158.974 158.885 159.16 152.812 
152.662 152.825 152.993 152.462 152.677 152.863 153.015 153.232 152.146 
152.429 152.649 152.868 153.098 153.309 153.614 151.865 152.097 152.314 
152.584 152.846 153.14 153.462 153.725 154.034 151.837 151.927 152.14 
152.296 152.589 152.869 153.261 153.56 153.901 154.113 154.375 151.981 
152.023 152.274 152.301 152.599 152.732 153.158 153.407 153.834 154.03 
154.345 154.479 154.783 152.07 152.177 152.46 152.513 152.781 152.84 
153.173 153.359 153.775 154.002 154.38 154.528 154.866 154.988 155.35 
152.042 152.209 152.491 152.634 152.871 152.964 153.178 153.328 153.622 
153.884 154.247 154.516 154.872 155.073 155.407 155.562 155.874 151.978 
152.143 152.401 152.582 152.812 152.957 153.156 153.283 153.516 153.705 
154.016 154.296 154.653 154.959 155.29 155.536 155.806 155.988 156.221 
152.056 152.324 152.252 152.432 152.672 152.508 152.626 152.621 152.819 
153.215 152.912 152.996 152.873 153.099 153.05 153.24 153.951 153.571 
153.675 153.403 153.676 153.496 153.742 153.535 153.684 154.701 154.356 
154.464 154.163 154.398 154.184 154.422 154.161 154.276 154.005 154.148 
155.412 155.087 155.154 154.875 155.007 154.83 155.008 154.814 154.905 
154.628 154.714 154.505 154.73 156.173 155.814 155.854 155.519 155.608 
155.374 155.564 155.375 155.559 155.283 155.409 155.118 155.302 155.123 
155.378 156.931 156.593 156.643 156.263 156.349 156.028 156.248 156.018 
156.319 156.049 156.277 155.913 156.066 155.747 155.917 155.727 155.909 
157.557 157.304 157.372 157.049 157.113 156.792 156.946 156.723 156.994 
156.82 157.072 156.798 156.918 156.549 156.606 156.293 156.388 156.194 
156.324 157.88 158.291 157.979 157.725 158.68 158.37 158.126 157.792 
157.503 159.164 158.791 158.555 158.199 157.945 157.582 157.346 159.811 
159.367 159.153 158.715 158.468 158.054 157.849 157.504 157.374 160.453 
160.034 159.828 159.391 159.16 158.675 158.432 158.02 157.877 157.576 
157.448 160.978 160.614 160.395 160.027 159.825 159.395 159.142 158.664 
158.428 158.053 157.872 157.567 157.311 161.488 161.137 160.96 160.582 
160.4 160.011 159.791 159.351 159.085 158.64 158.376 157.983 157.692 
157.325 156.989 162.034 161.698 161.592 161.205 161.041 160.614 160.38 
159.945 159.675 159.254 158.98 158.547 158.238 157.776 157.435 157.015 
156.728 162.585 162.264 162.158 161.822 161.654 161.26 160.988 160.534 
160.201 159.776 159.478 159.104 158.817 158.385 158.047 157.559 157.244 
156.833 156.623 158.029 158.418 158.312 158.474 158.872 158.75 158.934 
158.765 158.891 159.294 159.198 159.39 159.248 159.391 159.203 159.365 
159.714 159.583 159.758 159.66 159.838 159.711 159.919 159.761 160.004 
160.371 160.114 160.297 160.071 160.273 160.138 160.41 160.318 160.618 
160.461 160.687 161.108 160.906 161.151 160.8 160.971 160.67 160.908 
160.783 161.105 161.032 161.28 161.092 161.221 161.485 161.516 161.765 
161.603 161.693 161.412 161.502 161.299 161.511 161.442 161.683 161.594 
161.736 161.552 161.659 161.598 161.686 161.822 161.87 161.858 161.843 
161.846 161.784 161.908 161.837 162.046 161.961 162.147 162.011 162.157 
161.99 162.154 161.8 161.761 161.759 161.732 161.627 161.705 161.737 
161.892 162.107 162.185 162.455 162.388 162.622 162.467 162.669 162.494 
162.698 162.524 162.725 157.794 157.492 157.807 158.149 157.162 157.489 
157.846 158.191 158.583 156.848 157.171 157.556 157.903 158.337 158.671 
159.056 156.552 156.879 157.299 157.653 158.142 158.479 158.933 159.176 
159.544 156.245 156.592 157.028 157.408 157.928 158.308 158.813 159.102 
159.519 159.719 160.146 155.909 156.278 156.723 157.125 157.619 158.041 
158.524 158.916 159.314 159.628 159.99 160.307 160.735 155.584 155.941 
156.385 156.797 157.258 157.678 158.109 158.533 158.906 159.296 159.589 
159.969 160.279 160.727 161.069 155.336 155.639 156.054 156.443 156.884 
157.288 157.704 158.105 158.512 158.89 159.236 159.546 159.83 160.182 
160.518 160.956 161.283 155.186 155.429 155.81 156.133 156.553 156.917 
157.327 157.71 158.154 158.555 159.021 159.324 159.69 159.885 160.216 
160.496 160.903 161.252 161.606 155.243 155.579 155.552 155.876 155.997 
155.958 156.299 156.244 156.599 156.425 156.422 156.787 156.702 157.016 
156.967 157.332 156.81 156.854 157.243 157.179 157.458 157.38 157.733 
157.733 158.172 157.166 157.215 157.603 157.587 157.868 157.803 158.176 
158.183 158.705 158.694 159.141 157.534 157.534 157.87 157.89 158.208 
158.202 158.614 158.652 159.216 159.262 159.75 159.639 159.885 157.948 
157.88 158.139 158.13 158.467 158.526 158.964 159.058 159.555 159.675 
160.116 160.144 160.393 160.244 160.38 158.328 158.27 158.49 158.426 
158.74 158.791 159.218 159.332 159.71 159.84 160.135 160.292 160.561 
160.634 160.877 160.772 161.015 158.52 158.571 158.801 158.777 159.062 
159.088 159.468 159.547 159.85 159.899 160.074 160.181 160.432 160.656 
161.042 161.191 161.548 161.478 161.72 158.6 158.816 158.818 158.968 
159.067 159.074 159.327 159.22 159.337 159.352 159.347 159.631 159.605 
159.813 159.652 159.756 159.66 159.606 159.827 159.858 160.09 160.07 
160.186 160.033 160.048 160.094 159.927 160.075 160.028 160.262 160.293 
160.481 160.392 160.399 160.208 160.185 160.754 160.48 160.625 160.387 
160.594 160.515 160.784 160.718 160.861 160.631 160.677 160.423 160.562 
161.514 161.264 161.492 161.128 161.279 160.983 161.157 161.036 161.215 
161.106 161.258 161.059 161.276 161.033 161.289 162.065 161.986 162.269 
162.025 162.145 161.764 161.75 161.439 161.426 161.323 161.408 161.451 
161.662 161.685 161.927 161.774 161.885 162.238 162.328 162.534 162.554 
162.628 162.463 162.359 162.027 161.842 161.553 161.463 161.421 161.511 
161.709 161.883 162.078 162.154 162.113 162.019 162.006 162.014 161.961 
161.753 161.743 161.799 161.571 161.579 161.48 161.517 161.574 161.578 
161.519 161.564 161.518 161.696 161.622 161.587 161.862 161.796 162.108 
161.936 162.248 162.055 162.311 162.016 161.886 162.153 162.165 162.533 
162.543 162.883 162.761 162.991 162.734 162.801 162.426 162.268 162.294 
162.31 162.465 162.676 162.919 163.115 163.306 163.303 163.343 163.097 
162.986 162.597 162.5 162.342 162.294 162.3 162.455 162.687 162.94 
163.221 163.391 163.558 163.513 163.485 163.204 163.042 162.5 162.49 
162.317 162.267 162.32 162.401 162.8 162.932 163.406 163.443 163.78 
163.725 163.876 163.681 163.626 163.268 163.1 162.273 162.33 162.237 
162.235 162.373 162.509 163.051 163.261 163.897 163.91 164.309 164.142 
164.341 164.13 164.177 163.869 163.744 163.333 163.133 151.887 152.365 
151.963 151.691 153.004 152.577 152.445 151.96 151.838 153.815 153.342 
153.278 152.807 152.743 152.258 152.26 154.656 154.215 154.137 153.674 
153.611 153.15 153.108 152.702 152.744 155.261 154.969 154.908 154.517 
154.443 154 153.941 153.51 153.493 153.134 153.159 155.772 155.506 
155.516 155.209 155.166 154.79 154.728 154.322 154.293 153.896 153.902 
153.525 153.545 156.563 156.172 156.258 155.867 155.877 155.483 155.43 
155.051 155.014 154.662 154.67 154.307 154.334 153.948 153.997 157.502 
157.112 157.223 156.76 156.782 156.29 156.256 155.79 155.772 155.374 
155.412 155.059 155.112 154.749 154.792 154.426 154.488 158.209 157.967 
158.035 157.681 157.651 157.216 157.167 156.699 156.698 156.237 156.3 
155.872 155.953 155.545 155.592 155.201 155.227 154.881 154.923 151.565 
151.266 151.216 150.983 151.359 151.056 150.777 150.754 150.727 151.844 
151.363 151.038 150.755 150.709 150.705 150.814 152.433 151.975 151.645 
151.189 150.954 150.758 150.723 150.784 150.83 152.859 152.522 152.212 
151.792 151.373 150.99 150.623 150.552 150.427 150.643 150.706 153.197 
152.878 152.572 152.242 151.833 151.383 150.867 150.49 150.173 150.182 
150.238 150.546 150.772 153.656 153.259 152.963 152.595 152.296 151.863 
151.489 150.942 150.621 150.23 150.23 150.23 150.508 150.742 151.019 
154.2 153.796 153.544 153.108 152.873 152.429 152.203 151.696 151.483 
150.955 150.891 150.558 150.738 150.688 150.975 151.073 151.305 154.676 
154.345 154.146 153.75 153.547 153.105 152.912 152.453 152.285 151.822 
151.727 151.325 151.381 151.127 151.321 151.218 151.449 151.439 151.65 
151.729 151.162 151.559 151.772 150.84 151.045 151.204 151.533 151.574 
150.833 150.837 150.839 151 151.018 151.262 151.224 150.887 150.86 
150.736 150.711 150.635 150.78 150.814 151.014 151.091 150.923 150.918 
150.837 150.682 150.52 150.498 150.517 150.689 150.844 151.047 151.224 
151.059 151.051 151.104 150.896 150.748 150.528 150.469 150.48 150.624 
150.818 151.043 151.247 151.446 151.235 151.246 151.368 151.235 151.174 
150.896 150.809 150.603 150.69 150.701 150.961 151.11 151.408 151.54 
151.779 151.43 151.413 151.545 151.49 151.524 151.341 151.313 151.06 
151.121 150.957 151.204 151.198 151.559 151.62 151.951 151.977 152.224 
151.728 151.642 151.79 151.711 151.824 151.692 151.741 151.546 151.599 
151.426 151.603 151.544 151.856 151.877 152.201 152.213 152.459 152.443 
152.633 157.502 156.899 157.218 157.195 156.147 156.535 156.53 156.871 
156.842 155.346 155.722 155.689 156.108 156.107 156.499 156.496 154.618 
154.938 154.852 155.226 155.229 155.691 155.755 156.168 156.193 153.937 
154.258 154.192 154.465 154.438 154.828 154.936 155.402 155.495 155.873 
155.885 153.262 153.604 153.602 153.868 153.798 154.095 154.13 154.582 
154.7 155.147 155.18 155.539 155.529 152.669 152.957 152.943 153.245 
153.134 153.42 153.325 153.739 153.788 154.298 154.369 154.804 154.813 
155.18 155.202 152.204 152.387 152.278 152.546 152.399 152.684 152.537 
152.892 152.873 153.355 153.453 153.956 154.047 154.47 154.535 154.901 
154.979 151.857 151.934 151.737 151.899 151.713 151.945 151.806 152.113 
152.09 152.495 152.595 153.071 153.219 153.692 153.826 154.247 154.364 
154.73 154.844 
POINT_DATA 1002
SCALARS Distance double
LOOKUP_TABLE default
158.599 158.417 158.017 158.177 157.656 158.779 157.906 157.579 158.396 
159.052 157.901 157.542 158.255 158.792 159.389 157.828 157.216 158.348 
158.788 159.296 159.777 157.57 156.856 158.368 158.973 159.402 159.849 
160.316 157.386 156.7 158.21 159 159.565 159.98 160.434 161.013 
157.203 156.529 157.906 158.629 159.342 159.926 160.406 160.979 161.683 
156.861 156.271 157.465 158.064 158.74 159.449 160.067 160.693 161.42 
162.083 156.54 156.101 157.041 157.624 158.298 158.973 159.555 160.179 
160.959 161.697 162.161 157.852 157.383 156.964 156.546 156.042 157.136 
155.83 155.483 156.48 157.17 155.385 155.055 155.833 156.521 157.02 
154.807 154.306 155.213 155.702 156.265 156.583 153.939 153.41 154.492 
154.924 155.41 155.89 156.251 153.185 152.718 153.773 154.287 154.687 
155.15 155.611 156.051 152.761 152.248 153.274 153.754 154.109 154.455 
154.898 155.367 155.836 152.5 151.902 152.962 153.3 153.564 153.832 
154.209 154.692 155.206 155.691 152.005 152.532 151.92 152.198 151.516 
152.808 151.66 151.175 152.33 152.98 151.455 151.214 151.971 152.62 
153.235 151.598 151.418 151.999 152.575 153.102 153.62 151.735 151.64 
152.059 152.628 153.171 153.624 154.13 151.934 151.998 152.084 152.566 
153.16 153.685 154.212 154.726 152.335 152.439 152.369 152.711 153.238 
153.738 154.293 154.874 155.318 152.794 152.806 152.866 153.167 153.632 
154.007 154.388 154.96 155.494 155.823 156.295 156.096 156.569 155.711 
156.373 156.912 155.112 155.912 156.67 157.276 154.701 155.393 156.234 
157.045 157.69 154.505 155.178 155.854 156.703 157.499 158.191 154.113 
154.952 155.611 156.348 157.173 157.941 158.648 153.618 154.447 155.199 
155.954 156.77 157.566 158.291 158.943 153.314 153.981 154.708 155.481 
156.31 157.125 157.882 158.559 159.154 153.167 153.695 154.376 155.122 
155.877 156.631 157.392 158.135 158.804 159.395 156.686 157.025 157.254 
157.495 157.821 158.075 157.93 158.441 158.873 158.891 158.42 158.865 
159.431 159.547 159.378 159.002 159.361 159.744 159.885 159.742 159.796 
159.419 159.91 160.251 160.291 160.147 160.195 160.548 159.626 160.223 
160.779 160.981 160.841 160.792 161.044 161.402 159.831 160.392 161.065 
161.57 161.655 161.539 161.569 161.739 161.941 159.976 160.498 160.656 
161.268 161.291 161.142 161.958 161.787 161.938 161.837 162.575 162.263 
162.663 162.581 162.276 163.281 162.77 163.452 163.347 162.994 162.333 
163.899 163.152 164.272 164.237 163.887 163.124 162.246 164.121 163.295 
164.692 164.873 164.769 164.078 162.958 162.153 163.95 163.195 164.564 
164.866 165.015 164.705 163.611 162.525 162.091 163.567 162.919 164.147 
164.446 164.573 164.509 163.808 162.746 162.193 162.189 159.283 159.883 
159.071 159.627 158.782 160.488 159.249 158.452 160.102 160.987 158.766 
157.992 159.591 160.523 161.403 158.198 157.484 159.007 159.998 160.974 
161.81 157.795 157.158 158.514 159.431 160.501 161.376 162.169 157.595 
156.953 158.297 159.028 159.944 160.928 161.697 162.446 157.326 156.708 
158.104 158.833 159.505 160.365 161.262 161.956 162.58 156.955 156.444 
157.707 158.535 159.198 159.845 160.667 161.452 162.027 162.492 152.978 
153.36 153.158 153.653 153.495 154.001 154.115 153.959 154.448 154.811 
154.556 154.317 154.918 155.296 155.574 154.852 154.613 155.251 155.656 
155.946 156.233 155.24 155.11 155.56 155.953 156.268 156.54 156.937 
155.812 155.717 156.01 156.335 156.709 157.009 157.332 157.756 156.334 
156.162 156.51 156.755 157.162 157.598 157.921 158.24 158.568 152.654 
152.846 152.486 152.702 152.2 153.044 152.386 151.854 152.862 153.389 
152.053 151.692 152.506 153.173 153.827 152.039 151.781 152.332 152.929 
153.681 154.197 152.252 151.911 152.533 152.935 153.61 154.213 154.629 
152.371 151.929 152.758 153.055 153.533 154.183 154.745 155.226 152.328 
151.87 152.775 153.082 153.398 153.938 154.621 155.25 155.745 152.231 