# vtk DataFile Version 4.0
vtk output
ASCII
DATASET POLYDATA
POINTS 1002 float
-118.822 -102.059 47.4844 -118.706 -101.992 46.8059 -119.491 -101.962 46.8131 
-119.633 -102.056 47.5155 -120.325 -101.918 46.9547 -118.904 -102.396 48.0352 
-120.586 -102.084 47.5946 -121.283 -101.895 47.0928 -119.791 -102.452 48.0745 
-118.981 -102.74 48.694 -121.621 -102.201 47.6084 -122.232 -101.905 47.1476 
-120.811 -102.553 48.0978 -119.92 -102.795 48.8148 -119.069 -102.734 49.7071 
-122.498 -102.331 47.7149 -122.897 -101.798 47.4705 -121.754 -102.68 48.1857 
-120.88 -102.834 48.9766 -120.028 -102.746 49.9417 -119.202 -102.673 50.7407 
-123.146 -102.265 48.2022 -123.231 -101.431 48.1977 -122.604 -102.739 48.5319 
-121.721 -102.781 49.3407 -120.932 -102.707 50.2747 -120.19 -102.753 51.0024 
-119.41 -102.966 51.5108 -123.641 -101.946 48.8421 -123.49 -100.97 48.8638 
-123.511 -102.68 49.0177 -122.722 -102.747 49.7557 -121.788 -102.632 50.6713 
-121.083 -102.818 51.3082 -120.385 -103.136 51.7866 -119.682 -103.368 52.2671 
-124.055 -101.517 49.3631 -123.967 -100.674 49.2869 -124.201 -102.426 49.4695 
-123.802 -102.785 50.0108 -122.857 -102.757 50.858 -121.953 -102.934 51.5221 
-121.229 -103.272 52.0351 -120.578 -103.508 52.5791 -120.009 -103.668 53.0472 
-124.523 -101.135 49.8833 -124.682 -100.565 49.6711 -124.505 -101.916 50.0505 
-124.371 -102.553 50.3985 -123.812 -102.899 51.0094 -122.957 -103.174 51.6428 
-122.077 -103.404 52.2442 -121.342 -103.554 52.8713 -120.819 -103.761 53.3588 
-120.382 -104.051 53.6072 -125.05 -100.901 50.3922 -125.361 -100.521 50.0366 
-124.733 -101.394 50.724 -124.501 -101.986 51.0627 -124.239 -102.626 51.4676 
-123.757 -103.216 51.9335 -122.984 -103.519 52.5131 -122.116 -103.558 53.1971 
-121.482 -103.721 53.723 -121.107 -104.129 53.9319 -120.743 -104.542 53.9795 
-119.052 -102 46.0775 -119.907 -101.944 46.1382 -119.361 -101.717 45.6429 
-120.281 -101.568 45.7593 -119.508 -100.931 45.6715 -120.791 -101.815 46.344 
-120.504 -100.661 45.7891 -119.468 -99.9733 45.7937 -121.241 -101.284 45.9094 
-121.753 -101.643 46.4806 -120.59 -99.6928 45.8703 -119.49 -99.127 45.7262 
-121.566 -100.329 45.7937 -122.153 -100.968 45.9742 -122.588 -101.433 46.6586 
-120.712 -98.895 45.8008 -119.761 -98.1969 45.6952 -121.689 -99.5295 45.848 
-122.359 -100.093 45.8718 -122.807 -100.66 46.3445 -123.065 -101.065 47.3097 
-120.882 -97.9865 45.7692 -120.094 -97.2588 45.7696 -121.668 -98.8486 45.9516 
-122.344 -99.4335 46.1044 -122.911 -99.875 46.3739 -123.249 -100.298 47.1628 
-123.305 -100.581 48.1757 -120.996 -97.0523 45.8456 -120.315 -96.5958 45.7874 
-121.607 -97.8721 46.1156 -122.279 -98.6718 46.3672 -122.992 -99.1543 46.5284 
-123.509 -99.6026 47.0285 -123.628 -99.9909 47.9265 -123.659 -100.264 48.749 
-121.08 -96.324 45.9492 -120.468 -96.0498 45.7879 -121.597 -96.8287 46.287 
-122.279 -97.5961 46.5275 -123.118 -98.2437 46.5731 -123.746 -98.7765 46.9008 
-123.975 -99.3848 47.681 -124.065 -99.8616 48.5016 -124.326 -100.195 49.1365 
-121.18 -95.6967 46.0414 -120.599 -95.3668 45.8606 -121.678 -96.0433 46.3842 
-122.321 -96.5998 46.6155 -123.177 -97.2582 46.5941 -123.852 -97.8367 46.8212 
-124.105 -98.4931 47.594 -124.273 -99.2235 48.4275 -124.66 -99.7865 49.0093 
-125.116 -100.183 49.5041 -121.072 -94.8508 46.0661 -121.662 -95.307 46.3338 
-121.505 -94.497 46.3502 -122.225 -95.0433 46.6445 -121.964 -94.3846 46.8345 
-122.282 -95.7653 46.6377 -122.785 -94.8236 47.1708 -122.409 -94.4098 47.6033 
-122.924 -95.54 46.9216 -123.049 -96.35 46.7225 -123.224 -94.6442 47.9715 
-122.788 -94.5067 48.4986 -123.378 -95.2897 47.5816 -123.511 -96.1613 47.2108 
-123.748 -96.9744 46.9085 -123.578 -94.6917 48.8862 -123.185 -94.5907 49.5248 
-123.705 -95.2186 48.4513 -123.73 -96.0827 48.1428 -123.888 -96.8472 47.8692 
-124.061 -97.5934 47.6831 -123.873 -94.9165 49.9759 -123.57 -94.6462 50.6999 
-123.977 -95.4643 49.3716 -124.031 -96.2355 48.9973 -124.163 -96.89 48.7873 
-124.247 -97.4837 48.7002 -124.288 -98.3389 48.5904 -124.005 -95.225 51.0819 
-123.725 -94.9077 51.6518 -124.098 -95.8136 50.4606 -124.265 -96.4895 49.9543 
-124.666 -96.997 49.512 -124.925 -97.4182 49.2338 -124.903 -98.1505 49.1761 
-124.838 -99.1059 49.1108 -123.967 -95.6527 51.9054 -123.631 -95.4149 52.254 
-124.133 -96.1741 51.4446 -124.335 -96.7377 51.0591 -124.903 -97.0994 50.6181 
-125.53 -97.3661 50.0026 -125.714 -97.9284 49.5632 -125.632 -98.8651 49.4655 
-125.475 -99.7212 49.4869 -123.901 -96.0687 52.5949 -123.498 -95.8893 52.8112 
-124.199 -96.5088 52.219 -124.436 -97.012 51.8984 -124.914 -97.3109 51.6824 
-125.631 -97.4627 51.2352 -126.06 -97.8262 50.5281 -126.078 -98.6103 50.0196 
-125.992 -99.5406 49.902 -125.788 -100.193 49.9759 -125.615 -100.689 50.6104 
-125.918 -100.303 50.5242 -125.668 -100.928 51.2766 -126.021 -99.5466 50.5954 
-125.87 -100.472 51.3436 -125.889 -101.322 52.2049 -126.107 -98.6317 51.0558 
-125.981 -99.6296 51.7316 -126.048 -100.695 52.6126 -126.206 -101.715 53.425 
-126.007 -98.0235 51.7454 -126.062 -98.8479 52.2958 -126.099 -99.799 53.1011 
-126.128 -100.878 53.9446 -125.973 -101.866 54.39 -125.457 -97.7963 52.1927 
-125.753 -98.4625 52.6367 -125.898 -99.2296 53.2971 -125.871 -100.058 54.1076 
-125.585 -101.004 54.6258 -125.216 -101.856 54.8923 -124.859 -97.5942 52.3762 
-125.124 -98.2119 52.7889 -125.252 -98.9494 53.3192 -125.359 -99.6682 54.024 
-125.194 -100.347 54.6092 -124.86 -101.109 55.0606 -124.601 -101.867 55.6523 
-124.517 -97.1521 52.7056 -124.704 -97.7692 53.1695 -124.634 -98.5246 53.6067 
-124.661 -99.3585 54.1522 -124.748 -100.005 54.7342 -124.611 -100.532 55.3186 
-124.433 -101.188 56.0565 -124.267 -101.902 56.8592 -124.182 -96.6177 53.1731 
-124.423 -97.184 53.758 -124.333 -97.9334 54.1388 -124.153 -98.869 54.4691 
-124.213 -99.6754 54.9838 -124.261 -100.183 55.6436 -124.187 -100.667 56.4204 
-124.134 -101.316 57.2441 -124.002 -101.966 57.8974 -123.73 -96.2798 53.4629 
-124.003 -96.7203 54.1575 -124.033 -97.4137 54.5507 -123.818 -98.3609 54.7067 
-123.733 -99.2592 55.0887 -123.79 -99.8717 55.7949 -123.773 -100.335 56.585 
-123.773 -100.891 57.3596 -123.824 -101.522 58.0442 -123.761 -102.067 58.5393 
-125.207 -101.052 51.124 -125.405 -101.382 51.911 -124.799 -101.451 51.6287 
-125.871 -101.969 52.8335 -125.108 -101.82 52.4782 -124.5 -102.041 52.0576 
-126.037 -102.404 53.8322 -125.456 -102.384 53.2862 -124.654 -102.383 52.9043 
-124.187 -102.829 52.4353 -125.453 -102.452 54.6253 -125.172 -102.639 54.1928 
-124.464 -102.681 53.7869 -123.966 -103.012 53.4137 -123.613 -103.415 52.9554 
-124.699 -102.45 55.4569 -124.525 -102.735 55.2578 -123.96 -102.876 54.9802 
-123.468 -103.16 54.5966 -123.211 -103.459 54.1546 -122.777 -103.566 53.6725 
-124.21 -102.52 56.6311 -124.063 -102.982 56.4403 -123.768 -103.31 56.2654 
-123.377 -103.643 55.8815 -123.013 -103.848 55.3167 -122.582 -103.814 54.7696 
-122.033 -103.731 54.2377 -123.864 -102.528 57.7499 -123.674 -103.124 57.4951 
-123.639 -103.721 57.2573 -123.629 -104.252 56.8968 -123.324 -104.528 56.2702 
-122.724 -104.474 55.5841 -122.106 -104.317 54.9771 -121.597 -104.222 54.4103 
-123.622 -102.51 58.5172 -123.358 -103.064 58.3071 -123.296 -103.771 58.0076 
-123.484 -104.481 57.645 -123.444 -104.893 57.0998 -122.896 -104.929 56.4025 
-122.207 -104.849 55.6953 -121.705 -104.821 55.0079 -121.274 -104.749 54.4038 
-123.529 -102.397 59.1386 -123.325 -102.866 59.1215 -123.292 -102.737 59.8838 
-123.175 -103.359 59.9521 -122.94 -103.176 60.5846 -123.096 -103.53 58.9184 
-122.92 -103.985 60.7109 -122.248 -103.631 60.8609 -123.006 -104.18 59.7732 
-123.087 -104.348 58.562 -122.105 -104.492 60.8796 -121.172 -103.983 60.8227 
-122.649 -104.829 60.4271 -122.756 -104.907 59.3093 -123.072 -104.917 58.0686 
-120.752 -104.81 60.6772 -119.952 -104.309 60.7762 -121.663 -105.186 60.4457 
-122.104 -105.315 59.7894 -122.251 -105.121 58.6903 -122.629 -105.004 57.439 
-119.406 -105.044 60.5317 -118.895 -104.51 60.606 -120.284 -105.349 60.2558 
-121.153 -105.559 59.7453 -121.457 -105.381 59.0478 -121.601 -105 57.9951 
-121.967 -104.94 56.6995 -118.53 -104.999 60.2915 -118.2 -104.342 60.2066 
-119.089 -105.419 60.1317 -119.981 -105.735 59.5646 -120.691 -105.766 58.9289 
-120.93 -105.289 58.2649 -121.155 -104.963 57.1435 -121.51 -105.014 55.8493 
-118.089 -104.606 59.801 -117.798 -103.951 59.7092 -118.39 -105.218 59.7895 
-118.929 -105.725 59.3437 -119.668 -105.977 58.6657 -120.228 -105.647 58.1369 
-120.533 -105.11 57.3853 -120.846 -105.033 56.1344 -121.149 -105.085 54.9963 
-117.715 -104.202 59.2231 -117.436 -103.684 59.2217 -117.936 -104.828 59.2233 
-118.221 -105.434 58.9472 -118.697 -105.81 58.3989 -119.285 -105.68 57.9128 
-119.754 -105.185 57.3903 -120.074 -104.948 56.3951 -120.374 -105.05 55.1732 
-120.624 -104.966 54.3456 -123.56 -101.849 58.7781 -123.355 -102.122 59.5182 
-123.234 -101.463 59.0415 -122.953 -101.615 59.8591 -122.854 -100.894 59.3248 
-122.952 -102.405 60.2207 -122.403 -101.035 59.9971 -122.299 -100.463 59.3565 
-122.286 -101.924 60.2286 -122.235 -102.795 60.5123 -121.68 -100.662 59.8391 
-121.491 -100.265 59.1029 -121.517 -101.501 60.0142 -121.298 -102.389 60.1413 
-121.29 -103.138 60.5658 -120.879 -100.303 59.628 -120.792 -99.9484 58.8639 
-120.717 -101.07 59.908 -120.411 -101.982 59.9957 -120.344 -102.615 60.4274 
-120.3 -103.36 60.8096 -120.26 -99.8267 59.3998 -120.381 -99.4899 58.6218 
-119.979 -100.398 59.9498 -119.614 -101.305 60.1681 -119.483 -102.008 60.5428 
-119.5 -102.626 60.9438 -119.283 -103.586 60.8947 -119.708 -99.5505 58.9202 
-119.907 -99.1495 58.2404 -119.349 -99.8488 59.7477 -118.957 -100.462 60.2552 
-118.752 -101.256 60.5366 -118.691 -101.947 60.8401 -118.548 -102.76 60.8664 
-118.332 -103.68 60.5422 -119.031 -99.4271 58.3444 -119.234 -98.856 57.8981 
-118.698 -99.6931 59.1945 -118.362 -99.9581 59.992 -118.175 -100.556 60.3451 
-118.024 -101.371 60.4991 -117.784 -102.179 60.6115 -117.625 -102.923 60.4557 
-117.673 -103.526 60.0723 -118.364 -99.114 57.9891 -118.581 -98.4584 57.7394 
-118.071 -99.5537 58.612 -117.778 -99.7904 59.4422 -117.607 -100.134 60.0071 
[...]
CELL_DATA 2000
SCALARS Distance double
LOOKUP_TABLE default
162.645 163.236 162.951 163.017 163.931 163.603 163.691 163.39 163.489 
164.691 164.368 164.485 164.136 164.24 163.894 163.939 165.355 165.138 
165.279 164.949 165.032 164.671 164.703 164.317 164.312 165.796 165.753 
165.975 165.718 165.778 165.421 165.433 165.075 165.095 164.718 164.775 
166.027 166.141 166.543 166.421 166.566 166.181 166.172 165.78 165.832 
165.503 165.614 165.263 165.398 166.229 166.361 166.89 166.958 167.283 
167.014 167.052 166.595 166.625 166.252 166.388 166.078 166.23 165.902 
166.054 166.611 166.617 167.075 167.215 167.604 167.604 167.757 167.474 
167.511 167.118 167.203 166.845 166.964 166.659 166.8 166.522 166.696 
167.134 167.034 167.317 167.352 167.636 167.747 167.967 167.978 168.117 
167.933 168.012 167.674 167.71 167.358 167.435 167.182 167.356 167.148 
167.357 162.554 162.581 162.773 163.149 162.41 162.761 163.196 163.391 
163.807 161.961 162.485 163.005 163.364 163.808 164.055 164.502 161.422 
161.991 162.58 163.07 163.556 163.934 164.366 164.687 165.094 160.984 
161.509 162.146 162.648 163.166 163.585 164.011 164.413 164.783 165.143 
165.447 160.615 161.101 161.73 162.249 162.791 163.207 163.629 164.014 
164.397 164.764 165.045 165.368 165.604 160.287 160.705 161.238 161.776 
162.317 162.813 163.258 163.658 164.068 164.422 164.771 165.027 165.274 
165.528 165.819 160.026 160.363 160.777 161.233 161.726 162.272 162.767 
163.256 163.693 164.106 164.506 164.817 165.149 165.35 165.681 165.897 
166.301 159.768 160.087 160.445 160.798 161.227 161.699 162.209 162.731 
163.2 163.673 164.067 164.487 164.854 165.204 165.584 165.86 166.283 
166.509 166.92 159.709 159.884 160.009 160.427 160.211 160.267 160.74 
160.774 161.221 160.692 160.677 161.153 161.159 161.631 161.659 162.174 
161.242 161.172 161.586 161.582 162.031 162.073 162.561 162.634 163.139 
161.853 161.718 162.083 162.02 162.444 162.458 162.919 162.98 163.445 
163.53 163.986 162.528 162.355 162.708 162.571 162.996 162.932 163.407 
163.38 163.839 163.844 164.308 164.364 164.812 163.151 163.016 163.35 
163.215 163.616 163.534 164.02 163.956 164.435 164.345 164.816 164.775 
165.283 165.264 165.685 163.635 163.57 163.895 163.809 164.183 164.125 
164.593 164.57 165.063 164.992 165.443 165.357 165.841 165.809 166.292 
166.187 166.509 164.027 164.003 164.353 164.311 164.691 164.649 165.09 
165.092 165.576 165.57 165.993 165.936 166.318 166.309 166.729 166.744 
167.096 166.966 167.15 167.485 167.424 167.628 167.874 167.072 167.416 
167.714 167.968 168.333 166.704 167.038 167.386 167.718 168.157 168.517 
169.061 166.417 166.746 167.126 167.432 167.869 168.262 168.774 169.213 
169.613 166.012 166.431 166.801 167.167 167.537 167.933 168.313 168.762 
169.034 169.446 169.517 165.525 165.963 166.306 166.726 167.018 167.462 
167.747 168.201 168.386 168.77 168.831 169.165 169.207 165.109 165.501 
165.849 166.216 166.471 166.854 167.108 167.557 167.791 168.166 168.292 
168.573 168.71 169.009 169.219 164.728 165.103 165.454 165.807 166.066 
166.364 166.582 166.944 167.214 167.613 167.839 168.142 168.32 168.606 
168.858 169.172 169.427 164.348 164.699 165.018 165.397 165.663 165.979 
166.162 166.467 166.682 167.068 167.321 167.694 167.892 168.216 168.428 
168.784 169.048 169.377 169.583 167.484 167.907 167.66 167.594 168.457 
168.125 168.05 167.766 167.773 169.294 168.874 168.809 168.317 168.242 
167.981 168.064 169.882 169.714 169.649 169.163 168.955 168.524 168.497 
168.297 168.34 169.772 169.97 169.907 169.753 169.419 169.106 168.881 
168.702 168.663 168.5 168.355 169.477 169.691 169.738 169.755 169.514 
169.332 169.065 168.927 168.819 168.733 168.584 168.369 168.061 169.493 
169.554 169.733 169.702 169.737 169.532 169.504 169.221 169.225 168.961 
168.899 168.608 168.389 168.057 167.782 169.66 169.679 169.851 169.844 
170.017 169.941 170.143 169.912 170.053 169.65 169.629 169.142 168.983 
168.52 168.329 167.922 167.749 169.785 169.812 169.923 169.943 170.085 
170.167 170.412 170.465 170.638 170.457 170.364 169.94 169.675 169.205 
168.97 168.556 168.384 167.983 167.799 169.899 170.144 170.02 170.017 
170.486 170.346 170.346 170.141 170.189 170.685 170.744 170.867 170.609 
170.627 170.412 170.553 170.384 170.786 171.072 171.094 171.078 170.87 
170.84 170.739 170.77 169.69 170.248 170.564 170.987 171.026 171.096 
170.861 170.812 170.59 170.649 170.424 168.952 169.457 169.687 170.236 
170.374 170.742 170.571 170.619 170.23 170.248 169.92 170.037 169.712 
168.238 168.703 168.88 169.358 169.521 169.989 170.016 170.231 169.952 
169.903 169.53 169.528 169.27 169.337 169.065 167.518 167.974 168.15 
168.591 168.722 169.175 169.255 169.628 169.504 169.613 169.265 169.23 
168.919 168.96 168.747 168.786 168.518 166.848 167.26 167.416 167.85 
167.952 168.384 168.417 168.835 168.745 169.04 168.751 168.867 168.489 
168.576 168.281 168.411 168.15 168.219 167.901 169.782 169.539 169.808 
170.048 169.085 169.472 169.729 170.037 170.273 168.466 168.911 169.085 
169.516 169.657 170.106 170.259 167.72 168.198 168.294 168.736 168.76 
169.249 169.295 169.856 169.88 166.909 167.379 167.449 167.886 167.865 
168.296 168.29 168.799 168.838 169.358 169.304 166.161 166.561 166.584 
167.002 166.965 167.391 167.362 167.83 167.857 168.356 168.358 168.787 
168.667 165.473 165.829 165.786 166.142 166.06 166.465 166.416 166.887 
166.879 167.381 167.352 167.831 167.723 168.131 167.95 164.731 165.104 
165.035 165.361 165.249 165.592 165.527 165.946 165.937 166.4 166.368 
166.817 166.719 167.146 167.003 167.399 167.231 163.953 164.325 164.27 
164.608 164.512 164.827 164.754 165.111 165.099 165.506 165.503 165.903 
165.855 166.222 166.141 166.495 166.399 166.739 166.615 164.241 164.246 
164.451 164.878 164.185 164.433 164.852 165.091 165.497 164.079 164.342 
164.755 165.016 165.406 165.648 165.997 164.051 164.262 164.684 164.914 
165.312 165.543 165.931 166.142 166.522 164.117 164.292 164.719 164.9 
165.33 165.513 165.947 166.134 166.571 166.748 167.161 164.134 164.354 
164.776 164.966 165.4 165.584 166.048 166.229 166.689 166.845 167.261 
167.4 167.759 164.061 164.33 164.775 165.001 165.425 165.634 166.092 
166.322 166.803 166.99 167.412 167.527 167.895 167.988 168.334 163.973 
164.255 164.739 164.99 165.43 165.639 166.076 166.319 166.812 167.066 
167.54 167.698 168.102 168.184 168.567 168.624 168.982 163.876 164.168 
164.652 164.941 165.389 165.628 166.044 166.283 166.748 167.035 167.537 
167.788 168.24 168.395 168.794 168.885 169.242 169.282 169.554 163.862 
163.283 163.674 163.848 162.562 163.035 163.198 163.619 163.769 161.725 
162.248 162.438 162.914 163.066 163.499 163.652 160.966 161.445 161.697 
162.166 162.381 162.805 163 163.413 163.629 160.306 160.756 161.038 
161.499 161.781 162.194 162.439 162.821 163.064 163.458 163.705 159.611 
160.076 160.321 160.833 161.104 161.591 161.832 162.268 162.481 162.895 
163.096 163.512 163.703 158.926 159.352 159.567 160.071 160.326 160.847 
161.078 161.575 161.772 162.242 162.412 162.852 163.001 163.437 163.598 
158.4 158.735 158.982 159.389 159.691 160.125 160.408 160.84 161.092 
161.527 161.753 162.168 162.346 162.739 162.894 163.317 163.497 158.045 
158.318 158.603 158.932 159.271 159.623 159.944 160.296 160.588 160.953 
161.231 161.596 161.822 162.157 162.318 162.662 162.818 163.23 163.413 
157.971 158.114 158.207 158.566 158.202 158.349 158.713 158.838 159.214 
158.147 158.351 158.679 158.894 159.268 159.463 159.841 158.126 158.283 
158.596 158.788 159.154 159.419 159.851 160.078 160.473 158.286 158.357 
158.696 158.778 159.124 159.309 159.756 160.034 160.51 160.723 161.115 
158.534 158.582 158.917 158.961 159.281 159.362 159.731 159.94 160.389 
160.681 161.114 161.335 161.676 158.73 158.81 159.141 159.201 159.528 
159.565 159.875 159.959 160.299 160.52 160.916 161.217 161.591 161.829 
162.136 158.836 158.959 159.328 159.429 159.798 159.838 160.16 160.161 
160.455 160.51 160.848 161.034 161.43 161.687 162.068 162.28 162.618 
158.922 159.045 159.433 159.592 159.985 160.089 160.418 160.45 160.742 
160.747 161.066 161.112 161.496 161.629 162.057 162.24 162.653 162.819 
163.203 159.115 159.627 159.428 159.623 160.31 159.995 160.154 159.981 
160.183 161.25 160.785 160.856 160.538 160.68 160.498 160.628 162.278 
161.8 161.811 161.332 161.364 161.029 161.137 160.918 161.001 163.13 
162.754 162.771 162.306 162.269 161.807 161.85 161.515 161.634 161.339 
161.399 163.926 163.557 163.609 163.199 163.185 162.721 162.721 162.313 
162.416 162.072 162.177 161.8 161.851 164.784 164.4 164.482 164.061 
164.099 163.634 163.65 163.201 163.275 162.898 163.013 162.637 162.711 
162.303 162.376 165.552 165.234 165.312 164.944 164.995 164.571 164.6 
164.144 164.188 163.767 163.851 163.474 163.563 163.177 163.252 162.859 
162.953 166.208 165.933 166.001 165.698 165.742 165.407 165.438 165.055 
165.073 164.661 164.684 164.295 164.353 163.998 164.084 163.724 163.814 
163.435 163.519 158.994 159.204 159.201 159.521 159.582 159.52 159.798 
159.802 160.223 159.777 159.855 160.144 160.149 160.549 160.619 161.17 
159.779 159.941 160.31 160.435 160.866 160.974 161.513 161.639 162.196 
160.001 160.033 160.476 160.59 161.11 161.261 161.827 161.971 162.511 
162.611 163.067 160.48 160.434 160.876 160.885 161.406 161.516 162.1 
162.26 162.821 162.928 163.405 163.445 163.877 160.893 160.913 161.314 
161.323 161.743 161.817 162.314 162.487 163.037 163.211 163.719 163.806 
164.26 164.291 164.725 161.213 161.255 161.629 161.668 162.021 162.087 
162.5 162.653 163.163 163.374 163.899 164.07 164.539 164.642 165.066 
165.118 165.495 161.57 161.575 161.924 161.936 162.264 162.311 162.701 
162.824 163.321 163.507 164.047 164.228 164.723 164.864 165.303 165.403 
165.793 165.834 166.166 158.716 158.358 158.637 158.92 157.888 158.246 
158.529 158.923 159.27 157.239 157.655 157.869 158.384 158.701 159.193 
159.427 156.673 156.995 157.127 157.585 157.848 158.449 158.735 159.221 
159.41 156.301 156.559 156.668 156.914 157.106 157.582 157.967 158.518 
158.889 159.293 159.63 155.811 156.19 156.349 156.569 156.689 156.979 
157.344 157.856 158.377 158.859 159.309 159.676 160.093 155.224 155.617 
155.866 156.218 156.386 156.636 156.891 157.309 157.796 158.352 158.843 
159.319 159.711 160.119 160.485 155.029 155.169 155.487 155.792 156.131 
156.374 156.652 156.921 157.311 157.768 158.25 158.769 159.186 159.652 
160.025 160.451 160.816 155.378 155.261 155.583 155.67 156.113 156.27 
156.661 156.8 157.171 157.413 157.872 158.252 158.734 159.149 159.597 
160.007 160.441 160.824 161.217 155.776 156.489 156.05 155.974 157.149 
156.793 156.737 156.358 156.41 157.664 157.396 157.36 157.057 157.071 
156.804 156.897 158.225 157.929 157.916 157.614 157.633 157.393 157.492 
157.263 157.398 158.965 158.608 158.65 158.254 158.293 157.974 158.129 
157.888 158.095 157.834 158.066 159.78 159.412 159.483 159.077 159.12 
158.731 158.882 158.599 158.87 158.607 158.878 158.597 158.885 160.589 
160.208 160.231 159.873 159.891 159.543 159.638 159.365 159.602 159.39 
159.684 159.435 159.71 159.441 159.738 161.363 160.974 160.935 160.573 
160.564 160.24 160.302 160.048 160.222 160.048 160.309 160.157 160.44 
160.241 160.521 160.286 160.58 162.032 161.687 161.633 161.271 161.257 
160.912 160.969 160.683 160.823 160.616 160.817 160.684 160.933 160.841 
161.12 160.999 161.274 161.09 161.344 162.336 162.719 162.344 161.987 
163.171 162.773 162.431 162.019 161.651 163.578 163.214 162.882 162.496 
162.157 161.724 161.387 163.936 163.579 163.265 162.932 162.646 162.257 
161.95 161.514 161.236 164.418 163.984 163.7 163.338 163.102 162.743 
162.474 162.07 161.786 161.388 161.177 165.065 164.572 164.313 163.874 
163.665 163.256 162.999 162.576 162.282 161.896 161.678 161.358 161.247 
165.758 165.273 165.03 164.562 164.374 163.916 163.675 163.168 162.855 
162.392 162.171 161.844 161.774 161.499 161.464 166.455 165.986 165.765 
165.294 165.13 164.678 164.498 163.953 163.654 163.063 162.8 162.371 
162.298 162.029 162.04 161.751 161.682 167.161 166.711 166.506 166.029 
165.864 165.436 165.315 164.829 164.59 163.96 163.637 163.067 162.888 
162.548 162.524 162.286 162.237 161.923 161.769 161.891 162.368 162.176 
162.204 162.702 162.594 162.67 162.472 162.52 163.123 162.961 163.13 
162.948 163.089 162.859 162.994 163.926 163.591 163.829 163.53 163.779 
163.519 163.769 163.473 163.678 164.921 164.579 164.854 164.439 164.705 
164.343 164.655 164.34 164.609 164.243 164.426 165.651 165.495 165.797 
165.498 165.74 165.362 165.628 165.283 165.56 165.201 165.384 164.975 
165.092 166.183 166.091 166.415 166.277 166.547 166.308 166.549 166.246 
166.494 166.153 166.347 165.937 166.036 165.6 165.671 166.823 166.665 
167.011 166.853 167.179 167.011 167.326 167.103 167.384 167.078 167.292 
166.902 167.017 166.561 166.601 166.147 166.169 167.487 167.354 167.699 
167.514 167.834 167.657 168.017 167.854 168.21 167.963 168.208 167.843 
167.961 167.525 167.549 167.08 167.05 166.593 166.548 159.329 159.579 
159.201 158.617 159.798 159.427 158.856 158.423 157.815 160.064 159.665 
159.156 158.718 158.161 157.692 157.228 160.404 159.97 159.533 159.118 
158.682 158.164 157.685 157.218 156.84 160.844 160.351 159.923 159.539 
159.182 158.74 158.266 157.729 157.211 156.788 156.383 161.394 160.846 
160.344 159.914 159.5 159.152 158.683 158.239 157.675 157.184 156.712 
156.334 156.069 161.89 161.398 160.834 160.328 159.795 159.397 158.909 
158.543 158.057 157.633 157.224 156.795 156.559 156.212 156.132 162.139 
161.798 161.26 160.787 160.218 159.732 159.233 158.807 158.404 158.019 
157.721 157.35 157.152 156.791 156.644 156.333 156.187 162.173 161.95 
161.486 161.136 160.628 160.184 159.716 159.251 158.868 158.446 158.161 
157.82 157.619 157.322 157.119 156.801 156.528 156.225 155.913 158.986 
158.265 158.506 158.246 157.489 157.745 157.579 157.838 157.763 156.936 
157.074 156.957 157.206 157.213 157.512 157.592 156.572 156.659 156.5 
156.659 156.568 156.872 156.859 157.28 157.313 156.125 156.262 156.047 
156.197 155.943 156.154 155.947 156.349 156.303 156.846 156.925 155.82 
155.827 155.616 155.698 155.434 155.529 155.279 155.487 155.456 155.87 
156.089 156.6 156.905 155.912 155.743 155.595 155.461 155.303 155.195 
155.066 155.056 155.122 155.314 155.64 156 156.43 156.823 157.181 
155.974 155.898 155.794 155.659 155.593 155.37 155.329 155.132 155.231 
155.231 155.534 155.751 156.153 156.472 156.824 157.14 157.389 155.664 
155.763 155.641 155.747 155.733 155.713 155.719 155.557 155.612 155.482 
155.671 155.723 156.022 156.235 156.547 156.817 157.083 157.339 157.56 
159.233 158.505 159.013 159.363 158.004 158.338 158.672 159.189 159.653 
157.873 158.034 158.308 158.612 159.087 159.611 160.185 157.743 157.992 
158.292 158.448 158.866 159.202 159.81 160.269 160.847 157.457 157.808 
158.229 158.465 158.877 159.122 159.673 160.025 160.629 160.992 161.522 
157.381 157.608 158.091 158.361 158.826 159.106 159.609 159.931 160.48 
160.826 161.368 161.701 162.205 157.55 157.668 158.102 158.297 158.762 
159.019 159.497 159.807 160.299 160.65 161.163 161.534 162.051 162.389 
162.845 157.686 157.806 158.164 158.342 158.76 158.984 159.428 159.684 
160.13 160.435 160.915 161.292 161.809 162.196 162.667 162.978 163.349 
157.812 157.888 158.203 158.359 158.747 158.97 159.408 159.641 160.074 
160.307 160.749 161.051 161.549 161.93 162.419 162.77 163.16 163.428 
163.739 158.646 158.532 158.466 158.256 158.425 158.35 158.071 158.043 
157.787 158.174 158.145 157.764 157.765 157.392 157.442 157.126 157.865 
157.801 157.303 157.296 156.801 156.897 156.524 156.703 156.493 157.744 
157.554 157.065 156.878 156.378 156.309 155.938 156.058 155.877 156.134 
156.055 157.812 157.566 157.173 156.862 156.478 156.181 155.906 155.733 
155.587 155.611 155.52 155.707 155.574 157.836 157.651 157.27 157.039 
156.7 156.45 156.234 155.987 155.87 155.642 155.532 155.385 155.231 
155.232 155.076 157.737 157.606 157.206 157.055 156.686 156.562 156.302 
156.224 156.085 155.978 155.877 155.658 155.528 155.248 155.136 154.962 
154.97 157.65 157.508 157.162 156.991 156.641 156.487 156.18 156.119 
155.909 155.953 155.845 155.875 155.805 155.676 155.61 155.35 155.366 
155.16 155.337 
POINT_DATA 1002
SCALARS Distance double
LOOKUP_TABLE default
162.675 162.353 162.908 163.272 163.53 163.105 164.007 164.257 163.795 
163.569 164.841 164.977 164.607 164.319 163.932 165.596 165.493 165.4 
165.089 164.703 164.304 166.172 165.725 166.16 165.777 165.436 165.148 
164.874 166.528 165.831 166.931 166.611 166.132 165.929 165.768 165.555 
166.726 166.13 167.417 167.502 167.046 166.698 166.539 166.384 166.222 
166.996 166.709 167.504 167.894 167.877 167.613 167.299 167.056 166.961 
166.905 167.398 167.296 167.559 167.846 168.164 168.312 168.112 167.72 
167.529 167.578 167.588 162.403 163.009 162.33 162.944 161.958 163.635 
162.556 161.371 163.516 164.274 162.048 160.849 163.138 164.014 164.812 
161.633 160.473 162.757 163.605 164.414 165.125 161.2 160.173 162.358 
163.258 164.024 164.754 165.258 160.744 159.944 161.77 162.824 163.693 
164.49 165.07 165.496 160.401 159.732 161.186 162.224 163.253 164.136 
164.894 165.484 166.064 160.129 159.444 160.807 161.687 162.716 163.632 
164.434 165.236 166.032 166.754 159.554 160.345 159.754 160.704 160.175 
161.17 161.151 160.752 161.604 162.119 161.614 161.36 161.993 162.497 
163.068 162.182 162.019 162.455 162.887 163.376 163.893 162.865 162.702 
163.078 163.457 163.878 164.265 164.769 163.484 163.267 163.703 164.069 
164.535 164.894 165.291 165.789 163.96 163.68 164.243 164.604 165.107 
165.549 165.886 166.346 166.742 164.37 164.033 164.73 165.101 165.566 
166.055 166.375 166.696 167.145 167.401 167.757 167.727 168.14 167.377 
168.039 168.823 167.042 167.741 168.693 169.67 166.822 167.516 168.354 
169.279 169.893 166.416 167.166 167.931 168.656 169.169 169.491 165.907 
166.597 167.292 168.019 168.486 168.838 169.293 165.497 166.144 166.674 
167.36 167.995 168.396 168.898 169.469 165.084 165.782 166.275 166.798 
167.486 168.038 168.528 169.151 169.664 164.643 165.328 165.882 166.329 
166.921 167.558 168.083 168.674 169.319 169.768 167.826 168.41 167.916 
169.39 168.627 168.182 170.085 169.474 168.764 168.546 169.936 169.704 
169.082 168.8 168.644 169.65 169.63 169.213 168.904 168.757 168.354 
169.721 169.829 169.756 169.548 169.225 168.716 168.098 169.85 169.985 
170.24 170.435 170.177 169.487 168.748 168.141 169.925 169.996 170.276 
170.72 170.76 170.158 169.382 168.781 168.232 170.004 170.132 170.296 
170.61 170.554 170.298 171.071 170.431 170.922 170.665 170.858 169.866 
171.29 171.025 170.833 170.022 169.186 170.814 170.976 170.583 170.357 
169.166 168.505 169.874 170.437 170.301 169.809 169.597 168.439 167.771 
169.034 169.657 169.956 169.602 169.181 169.035 167.713 167.071 168.299 
168.835 169.275 169.283 168.911 168.667 168.543 166.996 166.479 167.539 
168.02 168.397 168.562 168.407 168.152 168.026 167.883 169.574 169.846 
169.199 169.372 168.684 169.971 168.678 168.037 169.207 169.794 167.879 
167.246 168.325 168.748 169.345 167.013 166.469 167.456 167.817 168.306 
168.864 166.203 165.814 166.539 166.902 167.368 167.899 168.314 165.47 
165.135 165.686 165.957 166.392 166.877 167.281 167.576 164.707 164.354 
164.929 165.135 165.49 165.932 166.295 166.583 166.85 163.915 163.59 
164.19 164.42 164.709 165.098 165.482 165.788 166.053 166.295 164.049 
164.663 164.026 164.609 163.92 165.283 164.499 163.82 165.157 165.78 
164.467 163.865 165.087 165.695 166.318 164.545 163.941 165.145 165.758 
166.39 167.007 164.577 163.884 165.208 165.849 166.539 167.141 167.638 
164.531 163.769 165.22 165.848 166.579 167.291 167.804 168.246 164.467 
163.684 165.221 165.85 166.531 167.328 168.001 168.502 168.955 163.505 
163.47 162.876 162.76 162.05 163.363 161.936 161.191 162.619 163.216 
161.21 160.498 161.944 162.582 163.202 160.561 159.861 161.344 162.056 
162.681 163.309 159.808 159.164 160.594 161.375 162.067 162.695 163.286 
159.084 158.531 159.811 160.573 161.286 161.966 162.576 163.142 158.59 
158.079 159.272 159.992 160.662 161.329 161.965 162.5 163.041 158.286 