# vtk DataFile Version 4.0
vtk output
ASCII
DATASET POLYDATA
POINTS 1002 float
-116.341 -98.8797 49.867 -116.231 -98.5028 49.4459 -115.71 -98.7194 49.6004 
-115.642 -99.0878 50.0939 -114.86 -98.8952 49.8378 -116.465 -99.1041 50.5206 
-114.702 -99.1493 50.472 -113.91 -99.0263 50.1202 -115.66 -99.2814 50.83 
-116.535 -99.3839 51.1628 -113.955 -99.1796 50.916 -113.258 -99.2938 50.3353 
-114.834 -99.3495 51.2764 -115.811 -99.624 51.4644 -116.56 -99.8068 51.7536 
-113.548 -99.4538 51.2395 -112.818 -99.6377 50.6578 -114.275 -99.5373 51.6909 
-115.173 -99.8509 51.8985 -116.022 -100.1 52.1287 -116.633 -100.12 52.6192 
-113.061 -99.8065 51.6228 -112.27 -99.8093 51.2637 -113.787 -99.9116 51.9932 
-114.544 -100.145 52.3359 -115.446 -100.345 52.6817 -116.199 -100.415 53.1041 
-116.757 -100.374 53.5774 -112.361 -100.042 52.1874 -111.688 -99.8775 51.908 
-113.161 -100.168 52.5009 -113.861 -100.364 52.8489 -114.655 -100.51 53.2626 
-115.575 -100.634 53.6365 -116.323 -100.783 53.9235 -116.9 -100.888 54.1837 
-111.726 -100.266 52.7155 -111.245 -99.9678 52.4325 -112.521 -100.339 53.1617 
-113.313 -100.466 53.5642 -113.959 -100.676 53.8512 -114.748 -100.856 54.0728 
-115.682 -101.112 54.2334 -116.46 -101.385 54.3934 -117.067 -101.527 54.6163 
-111.307 -100.405 53.1918 -110.919 -99.9894 52.985 -111.972 -100.544 53.6595 
-112.795 -100.644 54.1493 -113.485 -100.955 54.3674 -114.088 -101.26 54.4176 
-114.912 -101.464 54.5194 -115.854 -101.706 54.6984 -116.617 -101.894 54.9347 
-117.216 -101.946 55.1924 -111.085 -100.328 53.7502 -110.67 -99.9011 53.6066 
-111.598 -100.632 54.0705 -112.214 -100.869 54.4686 -112.883 -101.262 54.6682 
-113.537 -101.681 54.6942 -114.268 -101.855 54.8308 -115.166 -101.926 55.1114 
-116.052 -102.035 55.41 -116.747 -102.083 55.6901 -117.307 -102.063 55.9297 
-115.885 -98.0707 49.3021 -115.281 -98.2634 49.5194 -115.414 -97.549 49.1909 
-114.72 -97.7392 49.4849 -114.798 -97.1274 48.9097 -114.334 -98.5315 49.7171 
-114.075 -97.3674 49.1777 -114.305 -96.7439 48.5568 -113.73 -98.1681 49.58 
-113.322 -98.9664 49.7297 -113.572 -96.9932 48.7698 -114.004 -96.1684 48.4628 
-113.142 -97.798 49.2769 -112.734 -98.8084 49.4218 -112.598 -99.4907 49.746 
-113.155 -96.4253 48.6569 -113.627 -95.5086 48.5464 -112.679 -97.2402 49.0642 
-112.307 -98.2313 49.3842 -112.053 -99.2842 49.5377 -112.083 -99.731 50.2429 
-112.685 -95.864 48.7143 -113.186 -95.012 48.5517 -112.22 -96.6582 49.0258 
-112.006 -97.3991 49.5646 -111.829 -98.4375 49.8601 -111.661 -99.2863 50.2727 
-111.643 -99.6114 51.1017 -112.294 -95.4054 48.7487 -112.841 -94.6191 48.5345 
-111.786 -96.2327 48.9891 -111.637 -96.8359 49.6029 -111.663 -97.534 50.248 
-111.552 -98.4113 50.6722 -111.41 -99.0077 51.2208 -111.3 -99.4492 51.8645 
-112.008 -94.908 48.8159 -112.506 -94.1895 48.557 -111.507 -95.7472 49.0589 
-111.292 -96.4498 49.5781 -111.333 -97.0027 50.3636 -111.322 -97.6736 51.012 
-111.231 -98.3096 51.5028 -111.112 -98.8143 52.0155 -110.955 -99.4057 52.5052 
-111.75 -94.3792 48.9156 -112.148 -93.7586 48.575 -111.34 -95.1223 49.2976 
-111.09 -95.9035 49.7904 -111.013 -96.5616 50.4654 -110.926 -97.1784 51.1488 
-110.818 -97.8058 51.6774 -110.751 -98.3387 52.1554 -110.64 -98.8686 52.656 
-110.551 -99.443 53.1375 -111.676 -93.745 48.8935 -111.312 -94.3583 49.4412 
-111.405 -93.8113 49.5688 -111.068 -94.4596 50.2729 -111.216 -94.0321 50.5196 
-111.023 -95.1169 50.0664 -110.769 -94.6822 51.0929 -110.858 -94.2959 51.4401 
-110.747 -95.2229 50.904 -110.823 -95.9154 50.6764 -110.152 -94.6895 51.8442 
-110.346 -94.3655 52.3734 -110.202 -95.2841 51.4618 -110.357 -95.9777 51.3242 
-110.582 -96.6465 51.2355 -109.54 -94.5351 52.8411 -110.041 -94.4366 53.3563 
-109.506 -95.1191 52.1319 -109.718 -95.9559 51.7175 -109.968 -96.7532 51.6719 
-110.328 -97.3746 51.7198 -109.532 -94.8781 53.7694 -110.205 -94.9147 53.987 
-109.287 -95.2422 53.1843 -109.385 -95.9856 52.5276 -109.536 -96.8577 52.168 
-109.754 -97.6256 52.1226 -110.206 -98.0751 52.1952 -110.077 -95.7045 54.2236 
-110.657 -95.6287 54.2687 -109.693 -95.9439 54.0372 -109.549 -96.3989 53.6902 
-109.491 -97.0534 53.2562 -109.471 -97.8807 52.8644 -109.66 -98.4905 52.7331 
-110.132 -98.6955 52.7619 -110.639 -96.3354 54.5987 -111.06 -96.1332 54.6693 
-110.212 -96.5894 54.5793 -109.815 -96.9117 54.6155 -109.544 -97.3177 54.5511 
-109.425 -98.0088 54.1372 -109.418 -98.7911 53.6355 -109.634 -99.1542 53.4438 
-110.089 -99.2296 53.3675 -110.976 -96.5611 55.2191 -111.307 -96.336 55.2993 
-110.543 -96.8011 55.2067 -109.964 -97.1104 55.3395 -109.491 -97.4764 55.5478 
-109.386 -98.02 55.4283 -109.468 -98.7806 54.8476 -109.567 -99.3406 54.3198 
-109.832 -99.4984 54.1053 -110.264 -99.6113 53.9151 -110.823 -99.9856 54.3338 
-110.431 -99.6901 54.6382 -111.144 -100.083 55.1384 -110.056 -99.5456 54.8625 
-110.77 -99.7543 55.4276 -111.366 -100.427 56.0383 -109.848 -99.2905 55.2832 
-110.417 -99.5278 55.711 -110.998 -100.012 56.3347 -111.508 -100.867 56.9928 
-109.625 -98.7021 55.9736 -110.201 -99.217 56.235 -110.726 -99.662 56.632 
-111.287 -100.338 57.261 -111.929 -101.008 57.7566 -109.38 -98.0206 56.386 
-109.905 -98.6722 56.7991 -110.64 -99.2521 57.0196 -111.241 -99.8836 57.494 
-111.92 -100.504 58.0099 -112.591 -100.903 58.3139 -109.611 -97.4686 56.2769 
-109.769 -98.007 56.9765 -110.562 -98.6193 57.2866 -111.356 -99.3115 57.6792 
-111.955 -100.066 58.2895 -112.567 -100.551 58.7163 -113.149 -100.831 58.9783 
-110.315 -97.059 56.0439 -110.24 -97.4503 56.8421 -110.731 -97.9584 57.3444 
-111.51 -98.5775 57.773 -112.049 -99.4388 58.4731 -112.44 -100.166 59.1719 
-112.985 -100.518 59.5285 -113.597 -100.815 59.773 -110.939 -96.7883 55.9437 
-110.944 -97.1119 56.6723 -111.222 -97.544 57.29 -111.757 -98.0151 57.8663 
-112.194 -98.7468 58.5931 -112.407 -99.6026 59.4385 -112.757 -100.122 60.022 
-113.4 -100.419 60.2584 -114.033 -100.805 60.4888 -111.313 -96.5643 55.9464 
-111.4 -96.8595 56.5768 -111.638 -97.2635 57.2011 -111.982 -97.6567 57.9428 
-112.285 -98.1795 58.7738 -112.452 -98.9562 59.5966 -112.675 -99.6226 60.2645 
-113.21 -100.005 60.6121 -113.894 -100.36 60.79 -114.387 -100.809 61.0925 
-111.331 -100.429 54.5495 -111.55 -100.753 55.4254 -111.721 -100.924 54.8082 
-111.635 -101.327 56.4202 -111.698 -101.522 55.601 -112.122 -101.458 54.9655 
-111.895 -101.625 57.3814 -111.824 -102.024 56.6092 -112.076 -102.05 55.6545 
-112.8 -101.929 55.0141 -112.504 -101.442 58.062 -112.394 -101.992 57.6047 
-112.55 -102.173 56.7542 -113.08 -102.137 55.8625 -113.723 -102.086 55.2421 
-113.166 -101.225 58.6967 -113.128 -101.729 58.4267 -113.35 -102.013 57.8753 
-113.817 -101.98 57.1044 -114.273 -101.98 56.3608 -114.689 -102.033 55.6864 
-113.731 -101.208 59.53 -113.766 -101.628 59.3245 -114.005 -101.933 58.9112 
-114.487 -101.959 58.2771 -114.906 -101.881 57.6058 -115.225 -101.945 56.8779 
-115.611 -102.048 56.0969 -114.216 -101.27 60.3897 -114.316 -101.685 60.286 
-114.522 -101.964 59.9632 -114.925 -102.065 59.3949 -115.342 -102.019 58.7791 
-115.682 -101.966 58.0959 -116.033 -102 57.265 -116.408 -102.071 56.415 
-114.535 -101.31 61.1579 -114.676 -101.784 61.172 -114.908 -102.101 60.9392 
-115.264 -102.248 60.4288 -115.655 -102.259 59.8641 -116.043 -102.148 59.2842 
-116.429 -102.006 58.5177 -116.761 -101.96 57.5953 -117.041 -102.02 56.6919 
-114.673 -101.112 61.8345 -114.776 -101.682 62.0242 -114.871 -101.352 62.7121 
-115.098 -102.034 62.834 -115.398 -101.54 63.2055 -115.038 -102.198 61.9489 
-115.878 -102.324 63.1364 -116.445 -101.742 63.008 -115.569 -102.605 62.5413 
-115.453 -102.509 61.4721 -117.078 -102.435 63.0043 -117.692 -101.861 62.7556 
-116.464 -102.767 62.7743 -116.092 -102.866 61.8138 -115.894 -102.604 60.8064 
-118.368 -102.41 63.0521 -118.828 -101.805 62.9903 -117.689 -102.633 62.8429 
-117.003 -102.862 61.902 -116.61 -102.85 60.9406 -116.362 -102.483 60.2161 
-119.422 -102.373 63.1227 -119.633 -101.59 63.0631 -118.984 -102.649 62.8815 
-118.237 -102.761 61.8856 -117.565 -102.832 60.8179 -117.198 -102.559 60.2679 
-116.859 -102.175 59.5829 -119.915 -102.083 62.5939 -119.967 -101.196 62.4729 
-119.83 -102.703 62.493 -119.392 -102.899 61.7464 -118.642 -102.824 60.7261 
-118.045 -102.511 60.1643 -117.653 -102.102 59.667 -117.221 -101.914 58.7053 
-120.013 -101.455 61.7506 -120.102 -100.726 61.6917 -120.066 -102.265 61.6872 
-120.008 -102.783 61.263 -119.523 -102.776 60.5858 -118.823 -102.428 60.0784 
-118.292 -102.058 59.5986 -117.879 -101.872 58.7297 -117.449 -101.9 57.6429 
-120.219 -100.86 61.1403 -120.375 -100.377 61.1263 -120.2 -101.544 61.0039 
-120.272 -102.203 60.646 -120.11 -102.436 60.1802 -119.569 -102.241 59.787 
-118.963 -102.018 59.31 -118.515 -101.959 58.494 -118.119 -101.983 57.4984 
-117.703 -102.028 56.6218 -114.481 -100.516 61.3802 -114.795 -100.732 62.1359 
-114.633 -100.183 61.5733 -115.031 -100.261 62.2806 -114.809 -99.686 61.6626 
-115.1 -100.783 62.9321 -115.299 -99.6564 62.2526 -114.975 -99.0105 61.6554 
-115.484 -100.105 62.9487 -115.827 -100.779 63.1692 -115.563 -99.0126 62.0454 
-115.197 -98.38 61.5386 -115.873 -99.4647 62.7803 -116.315 -99.9356 63.1434 
-116.977 -100.856 62.8729 -115.927 -98.4629 61.6934 -115.521 -97.8509 61.3181 
-116.296 -99.0051 62.3241 -116.762 -99.3532 62.9805 -117.445 -99.8663 63.086 
-118.191 -100.85 62.8846 -116.376 -97.9212 61.31 -115.876 -97.2945 61.0178 
-116.824 -98.5775 61.7313 -117.257 -99.0808 62.352 -117.859 -99.3038 62.9471 
-118.604 -99.7562 63.2098 -119.231 -100.693 63.191 -116.763 -97.3446 60.9383 
-116.209 -96.7904 60.6392 -117.282 -97.9736 61.2831 -117.73 -98.6371 61.6898 
-118.242 -99.0425 62.2007 -118.912 -99.1929 62.8229 -119.535 -99.6708 63.153 
-119.874 -100.505 62.9456 -117.08 -96.8386 60.548 -116.547 -96.442 60.2022 
-117.573 -97.3183 60.9166 -118.024 -97.8928 61.3028 -118.525 -98.4727 61.6028 
-119.12 -98.8157 62.0041 -119.702 -99.1025 62.4916 -120.06 -99.664 62.5634 
-120.14 -100.298 62.1606 -117.383 -96.4407 60.1277 -116.882 -96.18 59.7452 
-117.809 -96.7892 60.4916 -118.204 -97.2079 60.8973 -118.698 -97.7077 61.2224 
[...]
CELL_DATA 2000
SCALARS Distance double
LOOKUP_TABLE default
159.262 158.95 159.307 159.663 158.463 158.888 159.263 159.682 160.07 
158.09 158.419 158.828 159.248 159.717 160.119 160.541 158.009 158.211 
158.648 158.937 159.471 159.831 160.361 160.668 161.091 157.981 158.207 
158.637 158.876 159.374 159.681 160.233 160.554 161.045 161.275 161.664 
157.845 158.123 158.542 158.83 159.269 159.573 160.041 160.395 160.883 
161.213 161.647 161.869 162.252 157.721 157.971 158.401 158.694 159.158 
159.445 159.887 160.18 160.627 160.976 161.451 161.793 162.241 162.479 
162.885 157.668 157.884 158.312 158.578 159.067 159.355 159.844 160.091 
160.534 160.777 161.24 161.564 162.071 162.407 162.868 163.109 163.493 
157.645 157.853 158.268 158.51 158.962 159.253 159.73 160.034 160.485 
160.739 161.162 161.42 161.89 162.217 162.703 163.019 163.419 163.651 
163.961 158.927 158.302 158.656 158.634 157.559 157.972 157.968 158.276 
158.168 156.797 157.197 157.223 157.582 157.526 157.803 157.77 156.122 
156.459 156.47 156.834 156.837 157.17 157.193 157.515 157.633 155.475 
155.789 155.752 156.096 156.114 156.49 156.568 156.938 157.063 157.436 
157.587 154.827 155.119 155.066 155.384 155.405 155.789 155.919 156.321 
156.482 156.854 156.992 157.351 157.468 154.269 154.504 154.463 154.732 
154.774 155.129 155.307 155.712 155.933 156.301 156.467 156.786 156.907 
157.23 157.356 153.774 153.991 153.955 154.192 154.254 154.567 154.765 
155.149 155.399 155.777 155.972 156.294 156.42 156.715 156.832 157.151 
157.299 153.275 153.501 153.488 153.725 153.812 154.104 154.304 154.651 
154.884 155.248 155.436 155.782 155.911 156.228 156.333 156.643 156.768 
157.105 157.266 153.019 152.902 153.031 153.274 153.075 153.048 153.277 
153.373 153.674 153.31 153.266 153.439 153.477 153.761 153.862 154.2 
153.314 153.336 153.384 153.531 153.725 153.916 154.207 154.39 154.727 
153.3 153.206 153.134 153.289 153.433 153.722 153.993 154.287 154.614 
154.871 155.216 153.739 153.372 153.338 153.194 153.42 153.503 153.874 
154.075 154.476 154.72 155.11 155.348 155.697 154.584 154.107 154.203 
153.801 154.109 153.872 154.302 154.222 154.674 154.727 155.161 155.299 
155.683 155.842 156.161 155.42 155.048 155.177 154.808 155.041 154.743 
155.051 154.848 155.205 155.111 155.501 155.497 155.868 155.915 156.242 
156.328 156.625 156.036 155.797 155.875 155.626 155.714 155.497 155.625 
155.477 155.702 155.633 155.954 155.916 156.249 156.205 156.503 156.493 
156.789 156.835 157.138 157.451 157.11 157.468 157.912 156.846 157.156 
157.58 157.977 158.51 156.643 156.942 157.339 157.667 158.155 158.601 
159.188 156.36 156.716 157.14 157.465 157.904 158.267 158.82 159.295 
159.887 156.026 156.363 156.782 157.203 157.677 158.053 158.583 158.987 
159.603 160.028 160.573 155.888 156.065 156.41 156.79 157.297 157.762 
158.336 158.781 159.407 159.824 160.417 160.741 161.21 156.007 156.053 
156.366 156.547 157.036 157.406 158.024 158.489 159.147 159.62 160.228 
160.608 161.09 161.368 161.79 156.196 156.24 156.572 156.651 157.112 
157.317 157.91 158.248 158.902 159.336 159.958 160.377 160.872 161.205 
161.613 161.92 162.339 156.334 156.415 156.737 156.849 157.26 157.444 
157.951 158.213 158.771 159.122 159.688 160.089 160.586 160.949 161.362 
161.693 162.101 162.44 162.852 157.774 158.266 158.145 158.432 158.9 
158.721 158.993 158.825 159.113 159.621 159.423 159.679 159.429 159.657 
159.51 159.836 160.311 160.152 160.422 160.147 160.312 160.073 160.347 
160.257 160.602 160.909 160.788 161.083 160.876 161.069 160.78 161.008 
160.814 161.158 161.036 161.342 161.486 161.353 161.663 161.514 161.806 
161.567 161.836 161.564 161.879 161.665 161.998 161.797 162.087 162.105 
161.96 162.31 162.145 162.512 162.322 162.667 162.419 162.722 162.453 
162.748 162.507 162.804 162.585 162.875 162.72 162.615 163.024 162.864 
163.256 163.068 163.436 163.225 163.538 163.283 163.542 163.276 163.525 
163.294 163.544 163.344 163.573 163.241 163.209 163.644 163.563 163.961 
163.815 164.168 163.977 164.289 164.061 164.325 164.061 164.281 164.011 
164.204 163.969 164.144 163.949 164.104 163.619 164.285 164.004 164.06 
164.961 164.697 164.813 164.457 164.439 165.72 165.446 165.62 165.251 
165.26 164.805 164.681 166.546 166.267 166.451 166.078 166.073 165.624 
165.485 164.996 164.796 167.416 167.136 167.302 166.897 166.83 166.379 
166.204 165.759 165.548 165.074 164.831 168.103 167.97 168.163 167.775 
167.671 167.131 166.894 166.417 166.202 165.777 165.533 165.061 164.776 
168.178 168.366 168.565 168.496 168.426 167.989 167.681 167.127 166.823 
166.375 166.108 165.692 165.379 164.936 164.634 167.741 168.079 168.22 
168.519 168.519 168.496 168.207 167.829 167.399 166.947 166.574 166.183 
165.843 165.456 165.128 164.75 164.496 167.366 167.571 167.674 167.986 
168.064 168.299 168.163 168.095 167.705 167.387 166.95 166.588 166.233 
165.879 165.576 165.213 164.96 164.62 164.425 163.472 163.45 163.681 
164.109 163.37 163.639 164.04 164.279 164.719 163.159 163.504 163.908 
164.176 164.578 164.882 165.398 162.878 163.248 163.691 164.007 164.413 
164.717 165.207 165.585 166.186 162.662 162.996 163.478 163.803 164.271 
164.565 165.053 165.391 165.981 166.399 167.039 162.49 162.82 163.324 
163.648 164.167 164.465 164.971 165.264 165.807 166.186 166.785 167.22 
167.73 162.289 162.636 163.137 163.495 164.006 164.353 164.84 165.16 
165.633 165.987 166.482 166.901 167.317 167.711 167.896 162.105 162.426 
162.89 163.253 163.707 164.101 164.535 164.926 165.331 165.717 166.112 
166.523 166.857 167.232 167.376 167.647 167.591 161.977 162.253 162.659 
162.974 163.359 163.728 164.111 164.524 164.897 165.313 165.652 166.065 
166.348 166.729 166.891 167.163 167.177 167.333 167.279 156.49 156.865 
156.738 156.903 157.346 157.153 157.337 157.215 157.46 158.009 157.728 
157.896 157.699 157.969 157.852 158.16 158.783 158.489 158.653 158.34 
158.535 158.361 158.674 158.589 158.938 159.458 159.262 159.456 159.141 
159.245 158.953 159.158 159.053 159.423 159.393 159.791 159.938 159.839 
160.063 159.875 159.999 159.684 159.802 159.568 159.882 159.842 160.286 
160.267 160.66 160.37 160.261 160.502 160.403 160.637 160.42 160.603 
160.298 160.575 160.392 160.845 160.78 161.232 161.132 161.472 160.918 
160.741 161.004 160.875 161.192 161.054 161.358 161.123 161.429 161.185 
161.607 161.45 161.928 161.775 162.163 161.959 162.257 161.55 161.355 
161.634 161.46 161.794 161.655 162.004 161.845 162.173 161.992 162.363 
162.221 162.648 162.512 162.89 162.694 162.985 162.752 163.008 156.311 
156.159 156.394 156.701 155.976 156.258 156.635 156.843 157.2 155.804 
156.093 156.545 156.806 157.222 157.408 157.835 155.786 155.992 156.479 
156.743 157.195 157.413 157.823 158.058 158.526 155.947 156.066 156.525 
156.731 157.17 157.369 157.739 157.975 158.397 158.713 159.166 156.14 
156.24 156.642 156.808 157.213 157.369 157.706 157.877 158.261 158.545 
159.005 159.31 159.7 156.29 156.389 156.746 156.9 157.3 157.447 
157.806 157.91 158.275 158.456 158.912 159.177 159.623 159.841 160.187 
156.428 156.516 156.849 156.981 157.389 157.554 157.982 158.087 158.479 
158.563 158.983 159.151 159.606 159.812 160.222 160.379 160.739 156.566 
156.651 156.975 157.085 157.486 157.657 158.133 158.293 158.745 158.827 
159.225 159.298 159.702 159.843 160.265 160.437 160.84 160.985 161.359 
156.748 157.218 157.041 157.183 157.829 157.594 157.776 157.543 157.736 
158.534 158.279 158.5 158.231 158.456 158.193 158.419 159.257 158.996 
159.205 158.963 159.181 158.942 159.162 158.902 159.068 160.019 159.719 
159.873 159.621 159.795 159.597 159.795 159.599 159.758 159.487 159.563 
160.768 160.474 160.601 160.3 160.443 160.19 160.37 160.173 160.35 
160.13 160.236 159.939 160.006 161.41 161.17 161.309 161.035 161.193 
160.901 161.078 160.799 160.981 160.729 160.888 160.614 160.732 160.421 
160.538 161.989 161.771 161.916 161.695 161.871 161.642 161.828 161.554 
161.712 161.418 161.575 161.297 161.459 161.168 161.316 160.997 161.126 
162.543 162.341 162.473 162.267 162.42 162.245 162.421 162.232 162.374 
162.128 162.245 161.986 162.13 161.881 162.037 161.763 161.891 161.573 
161.661 162.871 163.318 163.01 162.814 163.775 163.463 163.288 162.947 
162.76 164.31 163.967 163.807 163.44 163.252 162.913 162.749 164.857 
164.537 164.382 163.995 163.788 163.411 163.219 162.897 162.711 165.325 
165.054 164.929 164.577 164.378 163.976 163.764 163.383 163.182 162.832 
162.613 165.852 165.536 165.446 165.11 164.967 164.587 164.406 163.984 
163.772 163.351 163.126 162.739 162.515 166.478 166.131 166.041 165.673 
165.559 165.189 165.047 164.644 164.427 163.976 163.706 163.278 163.029 
162.654 162.425 166.947 166.711 166.616 166.294 166.167 165.8 165.643 
165.26 165.03 164.601 164.286 163.843 163.532 163.147 162.886 162.539 
162.28 167.17 167.058 167.01 166.804 166.699 166.384 166.195 165.821 
165.561 165.154 164.829 164.391 164.046 163.631 163.327 162.967 162.684 
162.343 162.042 162.974 163.245 163.221 163.425 163.626 163.538 163.764 
163.676 163.881 164.221 164.059 164.315 164.108 164.313 164.173 164.411 
164.721 164.679 164.971 164.769 164.945 164.696 164.871 164.725 164.944 
164.849 164.979 165.282 165.316 165.522 165.353 165.442 165.208 165.32 
165.201 165.385 164.939 165.009 165.326 165.47 165.822 165.84 166.006 
165.776 165.804 165.581 165.725 165.648 165.905 165.177 165.184 165.524 
165.597 166.072 166.153 166.495 166.329 166.382 166.086 166.174 166.036 
166.321 166.267 166.561 165.221 165.365 165.664 165.817 166.232 166.414 
166.75 166.749 166.788 166.586 166.583 166.467 166.691 166.683 166.96 
166.892 167.044 164.973 165.228 165.446 165.739 165.992 166.332 166.499 
166.734 166.667 166.721 166.619 166.682 166.82 166.945 167.179 167.202 
167.302 167.213 167.227 162.702 162.305 162.661 162.958 161.884 162.256 
162.582 162.927 163.302 161.479 161.883 162.249 162.575 162.955 163.338 
163.824 160.919 161.458 161.888 162.274 162.618 162.974 163.393 163.861 
164.299 160.139 160.775 161.239 161.813 162.174 162.592 162.903 163.348 
163.73 164.213 164.505 159.404 159.958 160.386 161.031 161.459 162.028 
162.347 162.803 163.117 163.598 163.959 164.382 164.657 158.825 159.292 
159.666 160.205 160.63 161.24 161.652 162.19 162.516 162.986 163.338 
163.829 164.206 164.61 164.886 158.248 158.729 159.101 159.57 159.942 
160.463 160.888 161.467 161.877 162.387 162.726 163.207 163.557 164.065 
164.366 164.783 164.931 157.662 158.138 158.553 159.034 159.428 159.867 
160.257 160.757 161.209 161.749 162.16 162.627 162.948 163.398 163.671 
164.131 164.298 164.681 164.717 157.508 157.69 157.857 158.426 157.959 
158.126 158.712 158.844 159.365 158.118 158.384 159.018 159.179 159.696 
159.749 160.203 158.188 158.477 159.144 159.419 159.981 160.098 160.565 
160.617 161.122 158.42 158.583 159.197 159.468 160.072 160.31 160.855 
160.992 161.517 161.595 162.093 158.765 158.869 159.41 159.575 160.162 
160.388 161.002 161.23 161.812 161.961 162.436 162.49 162.877 158.972 
159.132 159.643 159.817 160.39 160.57 161.182 161.387 161.982 162.178 
162.65 162.758 163.098 163.163 163.506 159.085 159.242 159.717 159.958 
160.523 160.781 161.357 161.577 162.098 162.298 162.736 162.892 163.219 
163.316 163.6 163.725 164.057 159.251 159.351 159.766 159.974 160.486 
160.795 161.322 161.627 162.066 162.318 162.691 162.91 163.251 163.404 
163.694 163.794 164.063 164.202 164.479 159.47 159.937 159.789 159.985 
160.394 160.28 160.52 160.373 160.665 160.842 160.744 161.01 160.9 
161.185 161.098 161.446 161.326 161.204 161.476 161.38 161.654 161.569 
161.869 161.833 162.149 161.855 161.701 161.971 161.868 162.162 162.044 
162.321 162.231 162.538 162.492 162.783 162.441 162.249 162.504 162.38 
162.681 162.565 162.857 162.73 163.059 162.957 163.303 163.174 163.423 
163.098 162.881 163.132 162.947 163.213 163.07 163.343 163.245 163.599 
163.54 163.937 163.802 164.073 163.823 163.941 163.729 163.558 163.838 
163.63 163.88 163.648 163.861 163.698 164.007 164.005 164.421 164.412 
164.693 164.49 164.557 164.259 164.282 164.206 164.132 164.444 164.321 
164.604 164.373 164.555 164.276 164.467 164.361 164.689 164.751 165.032 
164.984 165.036 164.813 164.78 164.547 164.606 164.89 164.984 165.035 
165.337 165.158 165.139 165.314 165.461 165.823 165.165 165.238 165.262 
165.356 165.531 165.85 166.186 164.945 165.139 165.205 165.254 165.266 
165.448 165.632 166.051 166.296 164.86 165.01 165.287 165.287 165.417 
165.346 165.512 165.615 165.925 166.188 166.457 165.018 165.132 165.542 
165.548 165.866 165.734 166.023 165.872 166.252 166.203 166.628 166.62 
166.919 165.048 165.279 165.664 165.814 166.135 166.181 166.493 166.466 
166.826 166.764 167.129 167.042 167.313 167.199 167.334 164.809 165.129 
165.438 165.743 166.005 166.248 166.51 166.709 167.032 167.175 167.477 
167.493 167.643 167.55 167.556 167.454 167.4 164.499 164.791 165.055 
165.383 165.65 165.968 166.249 166.548 166.893 167.178 167.552 167.708 
167.929 167.849 167.848 167.648 167.553 167.407 167.323 153.251 153.779 
153.481 153.406 154.259 153.986 153.903 153.621 153.556 154.808 154.475 
154.344 154.045 153.929 153.721 153.68 155.472 155.098 154.971 154.549 
154.399 154.078 154.037 153.846 153.877 156.113 155.778 155.715 155.283 
155.181 154.719 154.735 154.373 154.54 154.234 154.433 156.766 156.419 
156.409 156.04 156.013 155.586 155.628 155.237 155.458 155.123 155.428 
155.044 155.319 157.532 157.14 157.168 156.783 156.815 156.413 156.439 
156.079 156.213 155.982 156.23 156.012 156.217 155.907 156.054 158.291 
157.934 157.988 157.615 157.696 157.281 157.319 156.879 156.933 156.626 
156.802 156.636 156.821 156.62 156.701 156.445 156.516 158.921 158.639 
158.702 158.409 158.521 158.181 158.266 157.819 157.869 157.424 157.58 
157.265 157.514 157.236 157.415 157.082 157.189 156.88 157.031 152.941 
153.044 152.809 152.545 153.245 152.947 152.598 152.431 152.401 153.503 
153.233 152.924 152.587 152.448 152.429 152.72 153.718 153.51 153.356 
153.041 152.896 152.64 152.795 152.894 153.313 154.127 153.769 153.663 
153.458 153.455 153.208 153.288 153.131 153.381 153.464 153.767 154.956 
154.376 154.192 153.837 153.911 153.734 153.91 153.711 153.864 153.692 
153.879 153.872 154.126 155.803 155.294 155.118 154.597 154.622 154.291 
154.518 154.313 154.53 154.28 154.43 154.201 154.431 154.364 154.724 
156.363 156.041 155.974 155.561 155.575 155.157 155.307 154.998 155.229 
154.966 155.162 154.876 155.084 154.867 155.193 155.117 155.515 156.892 
156.589 156.608 156.317 156.383 156.055 156.157 155.827 155.989 155.701 
155.897 155.621 155.819 155.568 155.816 155.657 155.972 155.906 156.215 
152.816 152.524 152.663 152.737 152.539 152.548 152.707 152.757 152.949 
152.972 152.82 153.001 152.88 153.042 153.061 153.232 153.56 153.394 
153.513 153.274 153.307 153.196 153.32 153.336 153.392 153.954 153.898 
153.988 153.769 153.701 153.479 153.547 153.499 153.669 153.545 153.56 
154.272 154.204 154.361 154.201 154.199 153.918 153.97 153.821 154.076 
153.972 154.164 153.876 153.983 154.835 154.62 154.833 154.642 154.771 
154.49 154.557 154.318 154.509 154.415 154.665 154.518 154.687 154.439 
154.672 155.579 155.292 155.47 155.225 155.381 155.118 155.195 154.916 
154.989 154.82 154.982 154.92 155.117 155.031 155.242 155.13 155.414 
156.238 155.993 156.098 155.863 155.966 155.729 155.804 155.533 155.576 
155.31 155.401 155.24 155.437 155.375 155.626 155.578 155.83 155.777 
156.022 162.438 161.875 162.123 162.03 161.283 161.53 161.405 161.658 
161.56 160.631 160.905 160.733 160.987 160.82 161.14 161.059 159.855 
160.173 159.975 160.262 160.033 160.337 160.161 160.562 160.443 159.038 
159.336 159.119 159.44 159.217 159.523 159.305 159.638 159.46 159.863 
159.703 158.282 158.525 158.285 158.581 158.388 158.703 158.515 158.811 
158.618 158.933 158.772 159.139 159.02 157.598 157.797 157.551 157.797 
157.611 157.907 157.747 158.04 157.858 158.139 157.961 158.278 158.149 
158.523 158.44 157.019 157.163 156.919 157.108 156.906 157.164 156.997 
157.284 157.107 157.387 157.208 157.5 157.347 157.679 157.555 157.942 
157.846 156.549 156.642 156.374 156.507 156.263 156.474 156.278 156.543 
156.36 156.637 156.462 156.752 156.609 156.912 156.787 157.099 156.986 
157.346 157.272 
POINT_DATA 1002
SCALARS Distance double
LOOKUP_TABLE default
159.622 159.18 158.984 159.316 158.553 160.054 158.796 158.041 159.679 
160.479 158.421 157.81 159.27 160.201 160.945 158.405 157.814 159.12 
160.024 160.86 161.469 158.403 157.728 159.104 159.899 160.779 161.498 
162.027 158.239 157.57 158.986 159.718 160.509 161.363 162.083 162.646 
158.107 157.488 158.86 159.631 160.314 161.059 161.933 162.709 163.303 
158.06 157.456 158.769 159.574 160.328 160.96 161.703 162.579 163.316 
163.86 158.043 157.436 158.702 159.417 160.2 160.93 161.598 162.369 
163.163 163.779 164.245 158.619 158.367 157.922 157.627 157.129 157.911 
156.836 156.426 157.208 157.46 156.115 155.825 156.461 156.844 157.277 
155.428 155.173 155.715 156.166 156.694 157.22 154.76 154.55 155.012 
155.489 156.105 156.65 157.108 154.206 154.054 154.425 154.887 155.546 
156.151 156.602 157.012 153.714 153.555 153.946 154.392 155.017 155.637 
156.13 156.531 156.954 153.235 153.038 153.516 153.976 154.547 155.091 
155.58 156.024 156.445 156.906 152.787 153.073 152.847 153.228 153.154 
153.532 153.418 153.361 153.672 154.08 153.232 153.35 153.505 153.999 
154.544 153.039 153.513 153.133 153.662 154.32 154.978 153.565 154.14 
153.413 153.717 154.245 154.864 155.488 154.617 154.997 154.428 154.488 
154.705 155.075 155.546 156.015 155.533 155.731 155.381 155.314 155.354 
155.558 155.872 156.186 156.526 156.127 156.251 155.965 155.796 155.766 
155.989 156.319 156.557 156.767 157.074 157.843 157.488 158.405 157.214 
158.039 159.089 157.056 157.75 158.677 159.8 156.775 157.59 158.374 
159.41 160.452 156.326 157.245 158.197 159.178 160.222 161.046 156.105 
156.801 157.845 158.969 160.074 160.955 161.629 156.26 156.736 157.574 
158.655 159.818 160.794 161.522 162.22 156.497 156.959 157.642 158.515 
159.536 160.521 161.3 162.018 162.781 156.624 157.091 157.73 158.481 
159.317 160.213 161.026 161.762 162.522 163.254 158.55 159.208 159.223 
159.975 159.856 159.893 160.682 160.612 160.471 160.679 161.231 161.337 
161.259 161.295 161.5 161.784 161.974 162.109 162.142 162.202 162.295 
162.468 162.678 162.884 163.01 163.017 163.027 163.093 163.158 163.446 
163.644 163.781 163.823 163.786 163.763 163.779 163.689 164.084 164.355 
164.506 164.58 164.574 164.485 164.367 164.29 163.916 164.409 164.531 
165.153 165.199 164.88 165.986 165.976 165.72 165.182 166.839 166.826 
166.528 165.973 165.303 167.744 167.678 167.326 166.637 166.003 165.34 
168.489 168.144 168.258 167.433 166.615 165.991 165.271 168.466 167.925 
168.743 168.279 167.334 166.52 165.815 165.053 167.847 167.452 168.35 
168.468 167.877 166.988 166.215 165.501 164.833 167.415 167.233 167.762 
168.082 167.941 167.299 166.564 165.922 165.309 164.74 163.247 163.881 
163.222 163.813 163.076 164.426 163.623 162.78 164.289 165.021 163.341 
162.512 164.11 164.842 165.76 163.135 162.34 163.958 164.744 165.573 
166.614 162.985 162.147 163.852 164.693 165.477 166.373 167.37 162.778 
161.942 163.65 164.516 165.312 166.111 166.962 167.622 162.559 161.815 
163.333 164.139 164.952 165.73 166.497 167.112 167.396 162.386 161.732 
163.032 163.712 164.482 165.259 165.968 166.58 166.983 167.152 156.596 
156.995 157.007 157.459 157.574 157.559 158.151 158.301 158.079 158.269 
159.016 159.033 158.792 158.736 159.018 159.738 159.603 159.615 159.331 
159.408 159.846 160.177 160.034 160.275 160.109 159.966 160.272 160.743 
160.574 160.504 160.758 160.879 160.821 160.939 161.325 161.629 161.145 
161.104 161.293 161.526 161.669 161.796 162.088 162.373 162.487 156.086 
156.501 155.891 156.382 155.657 157.022 156.24 155.516 157.015 157.63 
156.222 155.621 156.976 157.596 158.245 156.358 155.863 156.998 157.537 
158.085 158.862 156.5 156.058 157.069 157.573 158.012 158.688 159.465 
156.609 156.204 157.132 157.7 158.147 158.668 159.38 160.025 156.735 
156.346 157.205 157.831 158.416 158.877 159.406 160.033 160.61 156.875 