# vtk DataFile Version 4.0
vtk output
ASCII
DATASET POLYDATA
POINTS 1002 float
-120.134 -100.287 45.9731 -120.192 -99.7439 45.5272 -119.585 -99.9404 45.6761 
-119.427 -100.545 46.1148 -118.995 -100.061 45.9152 -120.185 -101.088 46.1982 
-118.806 -100.641 46.41 -118.435 -100.107 46.2757 -119.393 -101.337 46.3564 
-120.299 -101.839 46.4183 -118.288 -100.656 46.8381 -117.782 -100.2 46.6917 
-118.706 -101.379 46.7443 -119.445 -101.949 46.7194 -120.288 -102.085 47.1416 
-117.682 -100.713 47.305 -117.001 -100.339 47.1076 -118.131 -101.369 47.2475 
-118.67 -101.917 47.2745 -119.449 -102.036 47.7109 -120.124 -101.988 48.4179 
-116.927 -100.824 47.7325 -116.259 -100.454 47.5046 -117.488 -101.375 47.7658 
-117.981 -101.864 47.9079 -118.708 -102.002 48.4202 -119.467 -101.959 49.0856 
-120.013 -102.137 49.5456 -116.113 -101.031 48.079 -115.654 -100.568 47.9104 
-116.71 -101.473 48.2254 -117.28 -101.793 48.5381 -117.968 -101.935 49.118 
-118.858 -101.996 49.7361 -119.535 -102.168 50.1039 -119.985 -102.508 50.2572 
-115.36 -101.226 48.464 -115.155 -100.631 48.4081 -115.822 -101.685 48.6191 
-116.502 -101.879 49.0618 -117.191 -101.892 49.7165 -118.038 -101.988 50.2945 
-118.906 -102.245 50.6454 -119.447 -102.504 50.8624 -119.856 -102.697 51.0938 
-114.847 -101.168 48.9881 -114.711 -100.567 48.9485 -115.076 -101.713 49.0946 
-115.651 -102.044 49.4973 -116.403 -102.091 50.1392 -117.169 -102.094 50.701 
-118.015 -102.344 51.0722 -118.722 -102.655 51.4075 -119.174 -102.734 51.8056 
-119.612 -102.671 52.2237 -114.567 -100.9 49.5192 -114.268 -100.453 49.3731 
-114.723 -101.431 49.6707 -115.003 -101.974 49.9865 -115.615 -102.324 50.4925 
-116.409 -102.397 50.9993 -117.23 -102.507 51.3956 -117.969 -102.828 51.7845 
-118.512 -103.021 52.258 -118.946 -102.882 52.7717 -119.422 -102.642 53.2319 
-119.914 -99.451 45.0153 -119.316 -99.5828 45.2033 -119.498 -99.1162 44.4495 
-118.819 -99.2511 44.6539 -118.853 -98.8556 43.8154 -118.671 -99.681 45.5115 
-118.122 -99.063 44.0246 -118.254 -98.8083 43.0849 -118.055 -99.3897 45.0411 
-117.925 -99.807 45.8969 -117.613 -98.9285 43.472 -117.91 -98.5565 42.694 
-117.416 -99.1366 44.5521 -117.208 -99.5991 45.4138 -117.043 -100.037 46.2448 
-117.354 -98.3707 43.4398 -117.641 -97.6882 42.9704 -117.085 -98.6998 44.2662 
-116.681 -99.2424 44.9726 -116.276 -99.919 45.6575 -116.186 -100.218 46.6192 
-117.125 -97.4101 43.7772 -117.367 -96.6434 43.3718 -116.901 -97.9634 44.3555 
-116.426 -98.6072 44.8213 -115.758 -99.5224 45.2609 -115.46 -100.067 46.0822 
-115.597 -100.205 47.131 -116.935 -96.5706 43.93 -117.206 -95.8983 43.4994 
-116.696 -97.2189 44.4784 -116.243 -97.8853 44.917 -115.498 -98.7959 45.2597 
-114.983 -99.5862 45.8723 -115.05 -99.8518 46.8297 -115.238 -100.09 47.7692 
-116.828 -95.956 43.988 -117.149 -95.3625 43.6422 -116.496 -96.6126 44.4804 
-116.041 -97.2709 44.9786 -115.399 -97.9977 45.4097 -114.851 -98.7841 45.9834 
-114.731 -99.2742 46.7937 -114.847 -99.5476 47.6817 -114.837 -100.007 48.4311 
-116.729 -95.4067 44.2326 -117.096 -94.8968 43.9696 -116.295 -96.0101 44.6094 
-115.796 -96.6826 45.0457 -115.271 -97.3115 45.4863 -114.867 -97.9523 46.0926 
-114.691 -98.5604 46.8946 -114.593 -99.0103 47.6923 -114.415 -99.4688 48.3849 
-114.259 -100.012 48.9441 -116.725 -94.7637 44.4977 -116.203 -95.231 44.818 
-116.117 -94.5978 44.9913 -115.518 -95.0869 45.3968 -115.42 -94.4689 45.4962 
-115.631 -95.8933 45.198 -115.025 -95.1354 45.9713 -114.918 -94.477 46.2108 
-115.02 -95.8807 45.7622 -115.098 -96.6232 45.5583 -114.814 -95.3213 46.7722 
-114.579 -94.5763 47.1924 -114.751 -96.0629 46.4328 -114.603 -96.6699 46.1862 
-114.737 -97.2556 46.1052 -114.513 -95.4097 47.7987 -114.246 -94.7028 48.1827 
-114.538 -96.1878 47.4221 -114.25 -96.793 47.135 -114.309 -97.3101 47.0208 
-114.606 -97.8943 46.9939 -114.111 -95.5128 48.7273 -114.093 -94.9769 48.9931 
-114.085 -96.1706 48.4311 -113.761 -96.7536 48.1582 -113.701 -97.3595 48.0251 
-114.102 -98.0025 47.9662 -114.43 -98.543 47.8541 -113.938 -95.8588 49.5191 
-114.188 -95.4023 49.7437 -113.683 -96.3716 49.231 -113.272 -96.7517 48.8741 
-113.057 -97.2671 48.6426 -113.303 -98.093 48.5727 -113.661 -98.7947 48.5231 
-113.997 -99.1669 48.4578 -113.962 -96.273 50.3021 -114.293 -95.7847 50.5028 
-113.555 -96.7887 50.0286 -113.017 -97.0506 49.6083 -112.652 -97.2973 49.2055 
-112.687 -98.0558 48.9884 -112.834 -99.0266 48.899 -113.068 -99.5734 48.8917 
-113.608 -99.7753 48.9449 -114.009 -96.5385 50.9926 -114.316 -96.0562 51.1571 
-113.601 -97.0695 50.8062 -113.001 -97.3704 50.5276 -112.479 -97.5106 50.1943 
-112.367 -98.0502 49.8998 -112.411 -99.0607 49.6237 -112.445 -99.8599 49.3975 
-112.842 -100.135 49.3441 -113.601 -100.228 49.399 -114.128 -100.552 49.8603 
-113.358 -100.414 49.8991 -114.088 -100.66 50.5336 -112.59 -100.357 50.0182 
-113.312 -100.535 50.7039 -113.998 -100.962 51.4482 -112.321 -99.9711 50.4081 
-112.714 -100.381 51.0758 -113.416 -100.679 51.7222 -113.97 -101.353 52.4137 
-112.316 -99.0491 50.8916 -112.598 -99.8851 51.6255 -113.17 -100.307 52.0569 
-113.745 -100.823 52.66 -114.206 -101.563 53.3416 -112.282 -98.1013 51.1711 
-112.546 -98.9951 52.004 -113.185 -99.762 52.3531 -113.771 -100.268 52.8325 
-114.174 -100.906 53.6379 -114.55 -101.588 54.3349 -112.619 -97.652 51.284 
-112.601 -98.1404 52.0796 -113.112 -98.9845 52.5429 -113.781 -99.7112 53.0205 
-114.207 -100.268 53.8835 -114.511 -100.935 54.6931 -114.89 -101.55 55.2111 
-113.309 -97.4344 51.3745 -113.132 -97.6655 52.0516 -113.257 -98.2062 52.7068 
-113.716 -99.0156 53.3276 -114.218 -99.6712 54.1343 -114.573 -100.259 54.9342 
-114.903 -100.919 55.4591 -115.316 -101.454 55.8529 -113.856 -97.0526 51.4739 
-113.776 -97.3884 52.0503 -113.744 -97.7108 52.8403 -113.856 -98.2888 53.6776 
-114.243 -98.9928 54.4085 -114.712 -99.6144 55.0594 -115.054 -100.233 55.6013 
-115.36 -100.84 56.065 -115.737 -101.299 56.5171 -114.188 -96.5709 51.5998 
-114.186 -97.0627 52.1002 -114.209 -97.4225 52.8854 -114.176 -97.7555 53.8695 
-114.337 -98.2651 54.6497 -114.795 -98.9134 55.1769 -115.211 -99.5565 55.7044 
-115.446 -100.156 56.2821 -115.688 -100.691 56.8203 -116.032 -101.126 57.2531 
-114.544 -100.941 50.1681 -114.493 -101.191 51.0231 -114.687 -101.575 50.5089 
-114.32 -101.724 51.9874 -114.582 -102.012 51.453 -114.934 -102.279 50.908 
-114.334 -102.107 52.9272 -114.537 -102.459 52.3854 -114.945 -102.656 51.8182 
-115.645 -102.652 51.3405 -114.651 -102.134 53.9394 -114.813 -102.521 53.4222 
-115.234 -102.737 52.8537 -115.948 -102.802 52.292 -116.641 -102.708 51.7863 
-115.033 -102.05 54.9598 -115.249 -102.425 54.5791 -115.684 -102.651 54.0974 
-116.406 -102.74 53.5307 -117.077 -102.831 52.8631 -117.508 -102.91 52.2417 
-115.466 -101.924 55.738 -115.706 -102.331 55.5067 -116.088 -102.674 55.1488 
-116.68 -102.82 54.699 -117.329 -102.906 54.0629 -117.774 -103.133 53.3017 
-118.088 -103.229 52.703 -115.936 -101.736 56.4178 -116.211 -102.122 56.2035 
-116.546 -102.57 55.8511 -116.912 -102.949 55.4747 -117.338 -103.117 55.0121 
-117.818 -103.286 54.2984 -118.221 -103.417 53.6053 -118.551 -103.232 53.1791 
-116.291 -101.567 57.1597 -116.616 -101.914 56.9481 -116.984 -102.308 56.5754 
-117.282 -102.819 56.1742 -117.492 -103.239 55.8216 -117.837 -103.468 55.2574 
-118.346 -103.542 54.4823 -118.761 -103.34 53.9358 -119.058 -102.929 53.6512 
-116.481 -101.271 57.8246 -116.811 -101.728 57.7242 -117.122 -101.434 58.1355 
-117.474 -101.941 58.0878 -118.038 -101.497 58.3125 -117.209 -102.087 57.4795 
-118.43 -102.066 58.3387 -119.13 -101.424 58.6788 -117.88 -102.354 57.9517 
-117.605 -102.527 57.1082 -119.517 -102.105 58.7726 -119.981 -101.48 59.2501 
-118.774 -102.563 58.3135 -118.235 -102.822 57.6884 -117.847 -103.092 56.7545 
-120.217 -102.28 59.4113 -120.341 -101.741 59.5675 -119.709 -102.714 58.7291 
-119.051 -103.014 58.0059 -118.531 -103.334 57.2817 -118.104 -103.536 56.2901 
-120.585 -102.482 59.6081 -120.695 -101.858 59.2341 -120.402 -102.941 59.1886 
-119.974 -103.154 58.2106 -119.474 -103.381 57.3973 -119.034 -103.632 56.5668 
-118.636 -103.663 55.4694 -121.288 -102.416 59.0196 -121.561 -101.727 58.5843 
-121.135 -103.054 59.1126 -120.922 -103.385 58.4132 -120.527 -103.459 57.4162 
-120.073 -103.52 56.5666 -119.63 -103.512 55.6311 -119.169 -103.407 54.6749 
-122.399 -102.183 58.3613 -122.71 -101.586 58.2499 -122.135 -102.867 58.5272 
-121.939 -103.451 58.2698 -121.606 -103.664 57.4647 -121.043 -103.558 56.5582 
-120.451 -103.322 55.7502 -119.937 -103.063 54.9756 -119.455 -102.917 54.2881 
-123.39 -101.995 58.1751 -123.62 -101.512 58.2559 -123.072 -102.566 58.1301 
-122.811 -103.201 57.9358 -122.543 -103.632 57.3525 -122.002 -103.636 56.5312 
-121.235 -103.329 55.7999 -120.576 -102.947 55.1941 -120.109 -102.661 54.6074 
-119.726 -102.572 53.9652 -116.045 -100.643 57.6851 -116.613 -100.77 58.0768 
-116.146 -100.071 57.9198 -116.941 -100.197 58.0949 -116.476 -99.5312 57.8442 
-117.486 -100.863 58.2688 -117.444 -99.7162 58.0324 -117.003 -98.967 57.6922 
-117.927 -100.281 58.5395 -118.509 -100.804 58.6986 -117.921 -99.1316 58.1124 
-117.475 -98.1982 57.8354 -118.278 -99.8572 58.9272 -118.719 -100.258 59.4703 
-119.41 -100.751 59.3193 -118.201 -98.2889 58.2789 -117.766 -97.4267 58.0829 
-118.552 -99.2927 58.9167 -118.787 -99.8946 59.812 -119.331 -100.333 59.8752 
-119.991 -100.971 59.5287 -118.387 -97.6131 58.1897 -118.045 -97.0228 57.8792 
-118.823 -98.5903 58.3644 -119.085 -99.3742 59.049 -119.452 -99.9159 59.5477 
-120.017 -100.525 59.3383 -120.418 -101.209 59.1634 -118.724 -97.3071 57.742 
-118.475 -96.9064 57.2173 -119.153 -98.0877 57.7713 -119.55 -98.8298 57.9686 
-119.952 -99.3221 58.5695 -120.465 -99.8586 58.8499 -120.856 -100.516 58.7225 
-121.139 -101.158 58.6286 -119.258 -97.0926 57.1674 -119.018 -96.8295 56.4934 
-119.628 -97.642 57.4426 -120.033 -98.3243 57.4904 -120.472 -98.8195 57.8441 
-121.024 -99.1968 58.3687 -121.501 -99.7055 58.5673 -121.821 -100.357 58.4804 
-122.216 -101.024 58.3453 -119.823 -96.8956 56.5826 -119.548 -96.7551 55.8691 
[...]
CELL_DATA 2000
SCALARS Distance double
LOOKUP_TABLE default
161.732 161.433 161.764 162.196 161.139 161.456 161.858 162.267 162.776 
160.864 161.177 161.551 161.915 162.37 162.822 163.27 160.553 160.905 
161.286 161.618 162.014 162.403 162.812 163.227 163.563 160.199 160.577 
160.975 161.331 161.702 162.052 162.437 162.809 163.188 163.527 163.866 
159.883 160.225 160.617 160.989 161.355 161.711 162.077 162.453 162.873 
163.237 163.639 163.929 164.285 159.644 159.924 160.269 160.62 160.989 
161.353 161.705 162.074 162.474 162.898 163.343 163.721 164.082 164.357 
164.645 159.441 159.685 159.962 160.266 160.612 160.983 161.361 161.719 
162.091 162.476 162.907 163.349 163.766 164.121 164.406 164.655 164.87 
159.222 159.47 159.728 159.976 160.285 160.617 161.016 161.389 161.799 
162.142 162.556 162.936 163.392 163.781 164.164 164.435 164.678 164.866 
165.056 161.418 160.835 161.139 161.122 160.1 160.491 160.502 160.83 
160.823 159.339 159.712 159.738 160.138 160.15 160.507 160.51 158.741 
159.017 159.013 159.361 159.378 159.767 159.768 160.154 160.156 158.167 
158.461 158.431 158.706 158.682 159.005 158.994 159.367 159.363 159.766 
159.785 157.48 157.837 157.838 158.138 158.088 158.356 158.296 158.611 
158.592 158.971 159.009 159.421 159.493 156.851 157.165 157.219 157.536 
157.523 157.775 157.689 157.943 157.896 158.231 158.28 158.679 158.796 
159.198 159.308 156.416 156.635 156.696 156.967 156.989 157.229 157.16 
157.369 157.318 157.592 157.655 158.008 158.145 158.533 158.674 159.047 
159.139 156.117 156.266 156.277 156.488 156.481 156.712 156.65 156.859 
156.82 157.071 157.16 157.47 157.624 157.945 158.068 158.409 158.493 
158.85 158.904 155.971 155.654 155.897 156.053 155.225 155.507 155.669 
155.973 156.19 154.968 155.159 155.373 155.601 155.827 156.112 156.342 
155.016 155.117 155.42 155.485 155.717 155.831 156.077 156.304 156.573 
155.144 155.265 155.606 155.66 155.86 155.851 156.058 156.17 156.503 
156.679 157.016 155.31 155.377 155.662 155.769 155.898 155.934 156.033 
156.165 156.463 156.688 157.056 157.207 157.505 155.712 155.609 155.818 
155.804 155.87 155.856 155.855 155.997 156.206 156.54 156.879 157.17 
157.436 157.621 157.863 156.257 156.082 156.241 156.081 156.113 155.916 
155.856 155.809 155.951 156.206 156.545 156.884 157.169 157.431 157.666 
157.914 158.203 156.711 156.578 156.705 156.544 156.563 156.291 156.2 
155.961 156.043 156.079 156.432 156.643 157.005 157.193 157.473 157.685 
158.001 158.271 158.614 158.791 158.175 158.621 158.945 157.642 158.027 
158.364 158.836 159.266 157.239 157.595 157.945 158.329 158.773 159.237 
159.747 156.752 157.196 157.626 158.019 158.467 158.836 159.343 159.789 
160.336 156.33 156.686 157.151 157.647 158.16 158.586 159.075 159.461 
159.996 160.425 160.959 156.408 156.456 156.82 157.159 157.689 158.194 
158.746 159.2 159.715 160.124 160.644 161.05 161.528 156.78 156.717 
156.974 157.028 157.45 157.771 158.354 158.824 159.404 159.841 160.356 
160.749 161.225 161.599 162.027 156.965 157.022 157.264 157.279 157.6 
157.717 158.197 158.513 159.099 159.52 160.074 160.472 160.952 161.311 
161.745 162.088 162.483 156.964 157.09 157.36 157.477 157.791 157.9 
158.272 158.453 158.911 159.241 159.761 160.173 160.665 161.046 161.47 
161.81 162.194 162.525 162.879 159.174 159.365 159.424 159.73 159.717 
159.707 160.038 160.002 160.309 160.208 160.149 160.507 160.407 160.727 
160.666 161.042 160.773 160.686 161.049 160.929 161.254 161.154 161.527 
161.477 161.861 161.36 161.263 161.615 161.488 161.823 161.71 162.105 
162.023 162.431 162.32 162.672 161.912 161.836 162.202 162.078 162.447 
162.319 162.752 162.651 163.107 162.969 163.357 163.17 163.511 162.399 
162.355 162.743 162.666 163.065 162.969 163.402 163.312 163.75 163.646 
164.027 163.875 164.181 164.004 164.268 162.844 162.821 163.209 163.175 
163.576 163.543 163.951 163.906 164.277 164.211 164.533 164.453 164.721 
164.602 164.794 164.637 164.777 163.24 163.247 163.63 163.616 163.999 
163.993 164.386 164.378 164.736 164.681 164.983 164.901 165.169 165.069 
165.265 165.109 165.212 165.037 165.129 163.561 164.205 163.923 163.985 
164.918 164.607 164.685 164.346 164.373 165.736 165.38 165.476 165.092 
165.13 164.751 164.77 166.62 166.264 166.368 165.936 165.97 165.547 
165.553 165.155 165.13 167.353 167.137 167.261 166.849 166.835 166.388 
166.369 165.958 165.915 165.485 165.393 167.749 167.741 167.954 167.69 
167.67 167.227 167.155 166.744 166.703 166.285 166.174 165.711 165.57 
168.008 168.046 168.378 168.293 168.418 168.058 167.989 167.528 167.44 
167.025 166.891 166.457 166.234 165.809 165.604 168.466 168.38 168.74 
168.7 168.978 168.781 168.828 168.396 168.25 167.755 167.522 167.073 
166.771 166.365 166.054 165.718 165.482 169.062 168.913 169.183 169.096 
169.351 169.274 169.393 169.145 169.002 168.539 168.197 167.676 167.289 
166.833 166.491 166.118 165.857 165.557 165.379 163.375 163.223 163.536 
164.004 163.08 163.392 163.911 164.21 164.723 163.048 163.329 163.907 
164.177 164.743 164.989 165.541 163.022 163.343 163.971 164.254 164.837 
165.055 165.595 165.834 166.385 162.86 163.241 163.845 164.254 164.815 
165.115 165.574 165.835 166.288 166.599 167.05 162.668 163.005 163.523 
163.983 164.502 164.926 165.34 165.689 166.052 166.39 166.741 167.089 
167.401 162.602 162.835 163.3 163.652 164.147 164.537 164.978 165.357 
165.761 166.107 166.466 166.761 167.074 167.364 167.674 162.657 162.826 
163.276 163.518 164.006 164.284 164.756 165.06 165.535 165.857 166.306 
166.569 166.951 167.161 167.546 167.769 168.188 162.763 162.909 163.333 
163.533 163.991 164.222 164.683 164.938 165.415 165.707 166.183 166.46 
166.882 167.11 167.52 167.747 168.199 168.418 168.844 157.057 157.454 
157.305 157.481 158.069 157.807 157.98 157.802 157.995 158.8 158.495 
158.629 158.375 158.537 158.335 158.503 159.487 159.223 159.328 159.038 
159.126 158.879 159.011 158.837 159.063 160.107 159.901 160.08 159.771 
159.865 159.511 159.611 159.358 159.602 159.48 159.848 160.694 160.534 
160.818 160.571 160.754 160.357 160.467 160.075 160.298 160.077 160.461 
160.353 160.759 161.255 161.106 161.376 161.249 161.464 161.217 161.33 
160.976 161.121 160.834 161.129 160.977 161.346 161.236 161.567 161.815 
161.629 161.802 161.698 161.871 161.764 161.891 161.703 161.824 161.595 
161.792 161.613 161.896 161.781 162.089 161.985 162.272 162.393 162.168 
162.286 162.107 162.254 162.122 162.304 162.179 162.399 162.232 162.474 
162.263 162.516 162.329 162.611 162.486 162.786 162.676 162.952 156.895 
156.818 156.985 157.296 156.72 156.93 157.278 157.478 157.897 156.606 
156.811 157.203 157.461 157.931 158.168 158.644 156.745 156.79 157.186 
157.394 157.916 158.195 158.708 158.92 159.34 157.175 157.099 157.442 
157.484 157.954 158.178 158.701 158.952 159.37 159.546 159.9 157.594 
157.558 157.86 157.821 158.174 158.265 158.73 158.943 159.395 159.571 
159.933 160.086 160.454 157.93 157.925 158.247 158.218 158.548 158.543 
158.974 159.07 159.582 159.695 160.152 160.214 160.613 160.701 161.089 
158.304 158.275 158.623 158.599 158.969 158.947 159.39 159.422 159.96 
160.024 160.55 160.565 161.005 160.992 161.383 161.394 161.745 158.697 
158.668 159.005 158.989 159.35 159.354 159.763 159.821 160.295 160.403 
160.878 160.961 161.365 161.394 161.743 161.746 162.071 162.059 162.354 
159.006 159.569 159.299 159.327 160.188 159.887 159.925 159.636 159.675 
160.93 160.569 160.604 160.261 160.304 160.008 160.091 161.738 161.371 
161.421 161.015 161.034 160.667 160.75 160.471 160.616 162.477 162.16 
162.239 161.867 161.89 161.464 161.479 161.132 161.246 161.01 161.165 
163.16 162.861 162.936 162.632 162.686 162.317 162.303 161.891 161.899 
161.6 161.717 161.518 161.635 163.806 163.525 163.576 163.285 163.332 
163.038 163.065 162.699 162.686 162.297 162.346 162.065 162.195 161.965 
162.044 164.368 164.132 164.179 163.904 163.934 163.654 163.713 163.418 
163.482 163.115 163.17 162.789 162.889 162.575 162.679 162.378 162.402 
164.877 164.66 164.724 164.48 164.527 164.256 164.326 164.063 164.177 
163.891 163.994 163.64 163.711 163.34 163.398 163.052 163.073 162.724 
162.689 165.201 165.669 165.302 165.043 166.12 165.766 165.487 165.131 
164.86 166.53 166.197 165.94 165.585 165.322 164.953 164.689 166.996 
166.645 166.428 166.057 165.824 165.444 165.2 164.815 164.566 167.505 
167.168 166.982 166.594 166.364 165.966 165.71 165.325 165.062 164.688 
164.403 167.995 167.677 167.493 167.135 166.88 166.497 166.188 165.8 
165.474 165.121 164.801 164.457 164.118 168.523 168.168 167.933 167.576 
167.275 166.937 166.593 166.228 165.839 165.474 165.096 164.776 164.421 
164.107 163.759 168.96 168.643 168.303 167.948 167.562 167.246 166.873 
166.558 166.15 165.796 165.37 165.035 164.646 164.352 163.99 163.711 
163.371 169.066 168.881 168.441 168.18 167.712 167.449 167.029 166.769 
166.344 166.04 165.587 165.27 164.843 164.553 164.161 163.892 163.523 
163.281 162.946 165.404 165.918 165.743 165.907 166.44 166.283 166.457 
166.256 166.372 166.943 166.795 166.975 166.794 166.902 166.681 166.763 
167.444 167.302 167.475 167.296 167.416 167.203 167.287 167.067 167.186 
167.751 167.741 167.923 167.8 167.95 167.745 167.84 167.595 167.68 
167.49 167.638 167.728 167.882 168.12 168.172 168.406 168.308 168.446 
168.183 168.205 167.947 168.027 167.906 168.092 167.616 167.776 168.038 
168.227 168.549 168.676 168.936 168.804 168.837 168.501 168.493 168.277 
168.465 168.401 168.658 167.549 167.67 167.841 168.048 168.319 168.631 
168.976 169.154 169.323 169.138 169.114 168.805 168.911 168.787 169.072 
169.006 169.188 167.394 167.537 167.589 167.773 167.901 168.24 168.533 
168.957 169.248 169.436 169.514 169.378 169.391 169.234 169.396 169.358 
169.525 169.421 169.378 165.191 165.027 165.294 165.682 164.833 165.123 
165.494 165.786 166.178 164.513 164.869 165.208 165.543 165.91 166.255 
166.663 164.032 164.451 164.758 165.158 165.504 165.92 166.358 166.757 
167.178 163.463 163.912 164.229 164.656 165.018 165.465 165.913 166.39 
166.832 167.222 167.497 162.858 163.334 163.707 164.154 164.578 165.015 
165.478 165.93 166.341 166.767 167.015 167.356 167.456 162.264 162.735 
163.135 163.631 164.092 164.592 165.09 165.539 165.939 166.29 166.519 
166.819 166.954 167.25 167.361 161.8 162.193 162.56 163.032 163.451 
164.016 164.517 165.091 165.55 165.949 166.218 166.438 166.598 166.815 
166.989 167.239 167.373 161.51 161.809 162.133 162.492 162.827 163.314 
163.746 164.384 164.887 165.478 165.847 166.187 166.359 166.551 166.677 
166.899 167.021 167.246 167.279 161.504 161.658 161.752 162.083 161.729 
161.871 162.192 162.31 162.695 161.761 161.92 162.274 162.404 162.807 
162.98 163.544 161.875 162.001 162.403 162.517 162.963 163.123 163.724 
163.972 164.677 162.047 162.18 162.609 162.706 163.156 163.299 163.87 
164.135 164.818 165.112 165.69 162.095 162.317 162.763 162.921 163.361 
163.498 163.982 164.21 164.77 165.112 165.635 165.918 166.247 161.989 
162.27 162.72 162.991 163.46 163.672 164.129 164.301 164.732 164.972 
165.389 165.709 166.058 166.312 166.551 161.882 162.13 162.559 162.868 
163.349 163.671 164.152 164.399 164.803 164.965 165.295 165.479 165.795 
166.053 166.354 166.597 166.846 161.866 162.057 162.471 162.725 163.18 
163.494 163.946 164.283 164.698 164.972 165.322 165.483 165.776 165.903 
166.186 166.378 166.647 166.873 167.081 162.012 162.539 162.386 162.655 
163.17 163.005 163.268 163.071 163.342 163.665 163.613 163.854 163.675 
163.851 163.715 164.005 163.932 163.991 164.265 164.18 164.319 164.168 
164.393 164.365 164.722 164.209 164.239 164.613 164.58 164.852 164.676 
164.95 164.817 165.212 165.144 165.47 164.611 164.598 165.032 165.018 
165.43 165.297 165.672 165.501 165.926 165.77 166.113 165.88 166.025 
164.966 165.005 165.439 165.48 165.889 165.854 166.196 166.147 166.513 
166.465 166.751 166.555 166.635 166.337 166.371 165.169 165.275 165.701 
165.825 166.209 166.232 166.481 166.48 166.74 166.822 167.073 167.049 
167.098 166.88 166.838 166.627 166.711 165.303 165.411 165.81 165.994 
166.398 166.489 166.745 166.713 166.927 166.955 167.222 167.258 167.38 
167.244 167.191 167.003 167.017 166.936 167.08 167.272 167.167 167.278 
167.452 167.303 167.266 167.414 167.49 167.756 167.542 167.518 167.669 
167.603 167.863 167.94 168.378 167.482 167.679 167.923 167.937 168.161 
168.153 168.532 168.68 169.126 167.208 167.495 167.815 168.046 168.287 
168.388 168.645 168.796 169.15 169.332 169.532 166.973 167.222 167.492 
167.797 168.061 168.32 168.553 168.776 169.05 169.273 169.491 169.569 
169.564 166.59 166.909 167.073 167.407 167.636 167.985 168.283 168.592 
168.915 169.149 169.412 169.531 169.646 169.603 169.592 165.997 166.372 
166.506 166.888 167.096 167.509 167.862 168.287 168.716 169.034 169.358 
169.5 169.64 169.667 169.689 169.658 169.63 165.495 165.79 165.974 
166.314 166.57 166.97 167.345 167.824 168.288 168.755 169.127 169.41 
169.534 169.62 169.557 169.599 169.48 169.542 169.394 156.063 156.348 
156.145 156.029 156.791 156.507 156.448 156.173 156.102 157.445 157.07 
157.053 156.715 156.727 156.389 156.444 158.177 157.811 157.821 157.438 
157.508 157.135 157.252 156.899 157.099 158.783 158.513 158.576 158.25 
158.363 158.004 158.191 157.813 158.047 157.686 157.978 159.384 159.105 
159.233 158.975 159.161 158.876 159.115 158.79 159.066 158.701 158.984 
158.622 158.924 160.15 159.807 159.977 159.682 159.936 159.673 159.956 
159.683 159.961 159.669 159.94 159.62 159.881 159.548 159.808 160.908 
160.614 160.798 160.504 160.775 160.502 160.798 160.515 160.768 160.487 
160.721 160.466 160.706 160.44 160.66 160.361 160.552 161.506 161.3 
161.485 161.277 161.533 161.325 161.606 161.352 161.571 161.27 161.441 
161.173 161.367 161.155 161.357 161.128 161.287 161.011 161.133 155.916 
155.823 155.792 155.672 155.825 155.69 155.552 155.565 155.545 156.171 
155.84 155.74 155.589 155.691 155.635 155.772 156.859 156.387 156.36 
156.044 156.263 156.062 156.355 156.121 156.298 157.72 157.189 157.124 
156.766 156.91 156.722 156.957 156.79 156.945 156.686 156.753 158.649 
158.089 157.924 157.49 157.407 157.185 157.15 157.11 157.087 157.089 
157.084 157.008 157.056 159.55 159.015 158.829 158.299 158.104 157.647 
157.44 157.166 157.04 157.001 157.031 157.113 157.258 157.278 157.444 
160.307 159.858 159.689 159.195 159.027 158.466 158.288 157.72 157.642 
157.235 157.377 157.212 157.527 157.492 157.816 157.749 157.984 160.9 
160.533 160.37 159.975 159.841 159.386 159.277 158.74 158.719 158.189 
158.353 157.948 158.277 158.021 158.385 158.215 158.508 158.344 158.551 
155.864 155.671 155.739 155.602 155.557 155.577 155.452 155.409 155.179 
155.655 155.53 155.412 155.314 155.065 154.972 154.827 156.003 155.71 
155.55 155.377 155.199 154.986 154.786 154.719 154.759 156.459 156.098 
155.883 155.629 155.551 155.295 155.164 154.869 154.784 154.741 154.877 
156.902 156.56 156.354 156.039 155.978 155.745 155.72 155.397 155.293 
154.977 154.98 154.923 155.123 157.36 157.04 156.892 156.548 156.457 
156.202 156.183 155.935 155.868 155.551 155.51 155.255 155.389 155.315 
155.604 157.876 157.556 157.453 157.109 157.027 156.719 156.676 156.395 
156.326 156.048 156.013 155.792 155.899 155.751 155.979 155.907 156.19 
158.42 158.105 158.019 157.686 157.627 157.311 157.283 156.956 156.885 
156.536 156.473 156.228 156.316 156.208 156.407 156.326 156.528 156.464 
156.664 164.868 164.345 164.627 164.683 163.768 164.07 164.083 164.414 
164.468 163.109 163.436 163.418 163.763 163.776 164.15 164.159 162.402 
162.734 162.696 163.052 163.036 163.415 163.407 163.777 163.712 161.633 
161.979 161.883 162.266 162.203 162.616 162.563 162.975 162.893 163.26 
163.131 160.824 161.161 161.014 161.39 161.259 161.688 161.57 162.032 
161.903 162.352 162.2 162.611 162.468 160.095 160.371 160.231 160.538 
160.399 160.745 160.601 160.997 160.851 161.295 161.155 161.611 161.488 
161.933 161.852 159.474 159.699 159.55 159.806 159.657 159.943 159.782 
160.094 159.937 160.298 160.192 160.604 160.549 160.977 160.96 161.39 
161.41 158.909 159.106 158.912 159.131 158.897 159.167 158.911 159.239 
159.01 159.396 159.27 159.704 159.69 160.122 160.163 160.574 160.646 
161.052 161.143 
POINT_DATA 1002
SCALARS Distance double
LOOKUP_TABLE default
162.105 161.689 161.404 161.784 161.112 162.7 161.473 160.832 162.318 
163.31 161.227 160.533 161.954 162.84 163.66 160.957 160.172 161.675 
162.416 163.182 163.851 160.604 159.823 161.364 162.068 162.831 163.552 
164.197 160.249 159.578 161 161.704 162.462 163.33 164.038 164.621 
159.946 159.408 160.613 161.356 162.057 162.903 163.796 164.414 164.9 
159.701 159.214 160.241 160.983 161.747 162.471 163.349 164.154 164.653 
165.06 159.496 158.956 159.988 160.627 161.44 162.21 162.989 163.84 
164.498 164.885 165.225 161.161 160.853 160.492 160.13 159.681 160.525 
159.326 159.011 159.761 160.166 158.717 158.496 158.999 159.375 159.764 
158.172 157.836 158.405 158.644 158.964 159.363 157.504 157.102 157.84 
158.02 158.227 158.587 159.079 156.891 156.562 157.265 157.466 157.584 
157.88 158.374 158.937 156.452 156.234 156.746 156.956 157.059 157.315 
157.771 158.29 158.796 156.113 156.004 156.266 156.434 156.563 156.841 
157.327 157.774 158.142 158.541 155.796 155.782 155.385 155.355 154.936 
155.872 155.189 154.78 155.579 156.032 155.384 154.885 155.691 155.883 
156.318 155.528 155.021 155.908 155.983 156.311 156.881 155.584 155.328 
155.875 155.915 156.205 156.876 157.414 155.918 155.892 155.956 155.781 
155.873 156.542 157.221 157.675 156.437 156.443 156.372 156.012 155.776 
156.205 156.89 157.398 157.927 156.855 156.836 156.826 156.491 156.097 
156.259 156.836 157.292 157.731 158.347 159.07 158.447 159.32 157.903 
158.744 159.736 157.592 158.342 159.234 160.273 157.164 158.125 158.935 
159.862 160.875 156.638 157.654 158.701 159.589 160.539 161.463 156.636 
157.186 158.227 159.311 160.247 161.148 161.974 157.025 157.262 157.902 
158.935 159.968 160.854 161.675 162.433 157.215 157.552 157.988 158.704 
159.659 160.597 161.406 162.156 162.862 157.201 157.664 158.16 158.669 
159.361 160.265 161.136 161.87 162.557 163.219 159.707 160.096 160.314 
160.616 160.812 161.058 161.171 161.361 161.592 161.934 161.745 161.932 
162.179 162.545 162.818 162.302 162.561 162.85 163.23 163.548 163.706 
162.792 163.136 163.499 163.858 164.163 164.374 164.466 163.239 163.599 
163.994 164.362 164.613 164.824 164.967 164.95 163.641 164.012 164.387 
164.778 165.069 165.267 165.419 165.411 165.276 163.825 164.304 164.488 
165.031 165.238 164.721 165.873 166.099 165.525 165.145 166.821 166.941 
166.412 165.973 165.544 167.651 167.468 167.314 166.779 166.358 165.844 
168.105 167.674 168.106 167.591 167.096 166.656 166.025 168.361 167.99 
168.671 168.478 167.9 167.326 166.693 165.984 168.791 168.619 169.071 
169.196 168.813 168.04 167.202 166.42 165.76 169.331 169.237 169.428 
169.557 169.428 168.767 167.786 166.878 166.175 165.637 163.082 163.7 
162.887 163.589 162.765 164.444 163.633 162.745 164.499 165.287 163.65 
162.671 164.631 165.381 166.118 163.404 162.507 164.484 165.333 166.008 
166.74 163.103 162.396 164.062 164.962 165.727 166.423 167.06 163.007 
162.405 163.792 164.59 165.385 166.173 166.804 167.36 163.066 162.502 
163.756 164.472 165.207 166.014 166.732 167.321 167.958 163.159 162.63 
163.777 164.441 165.137 165.901 166.636 167.279 167.962 168.679 157.137 
157.58 157.646 158.196 158.366 158.164 158.925 159.109 158.766 158.683 
159.637 159.717 159.424 159.19 159.162 160.35 160.256 160.254 159.919 
159.725 159.919 160.997 160.831 161.11 160.901 160.582 160.588 160.878 
161.492 161.442 161.642 161.643 161.447 161.334 161.466 161.697 161.955 
162.049 161.962 162.011 162.022 162.005 162.039 162.183 162.389 156.713 
157.107 156.636 157.047 156.479 157.681 156.909 156.431 157.656 158.457 
157.031 156.774 157.619 158.474 159.194 157.493 157.261 157.804 158.441 
159.19 159.728 157.921 157.602 158.168 158.551 159.199 159.797 160.275 
158.254 157.934 158.567 158.911 159.46 160.089 160.57 160.996 158.638 
158.341 158.977 159.366 159.896 160.524 161.038 161.41 161.745 159.026 
158.726 159.353 159.722 160.202 160.789 161.323 161.735 162.085 162.386 