# vtk DataFile Version 4.0
vtk output
ASCII
DATASET POLYDATA
POINTS 1002 float
-83.2402 -89.7963 69.395 -76.4264 -102.384 74.9789 -73.1843 -86.1544 69.614 
-70.545 -101.616 73.5608 -78.7958 -94.3316 80.2997 -72.8046 -91.8488 79.487 
-77.5071 -96.6737 66.5382 -72.2511 -96.616 66.5913 -73.0209 -106.639 81.1351 
-79.0306 -82.9056 72.4465 -72.7185 -111.664 68.5891 -80.6242 -84.9487 61.807 
-82.1634 -90.3217 69.5986 -81.2514 -91.2015 70.1298 -80.4683 -92.4471 71.0501 
-79.5119 -93.7873 72.0179 -78.6173 -95.1892 72.8064 -78.1125 -96.8321 73.5138 
-77.7011 -98.5138 74.1116 -77.1705 -99.9303 74.512 -76.7084 -101.161 74.7838 
-82.6598 -89.9439 70.1631 -82.1334 -90.2527 71.0608 -81.9247 -90.7035 72.3538 
-81.7669 -91.1297 73.921 -81.1617 -91.3668 75.1775 -80.2692 -91.647 76.1215 
-79.6167 -92.3316 77.2521 -79.306 -93.2484 78.5042 -79.0961 -93.9514 79.5369 
-83.0023 -90.0443 68.6783 -82.6263 -90.4676 67.9661 -82.2169 -91.0276 67.4075 
-81.7459 -91.6642 67.0239 -81.1109 -92.4553 66.7603 -80.4087 -93.3795 66.6174 
-79.7454 -94.2906 66.521 -79.0229 -95.1277 66.4178 -78.2296 -95.8969 66.4177 
-83.8656 -89.3228 69.7222 -84.0765 -88.5051 69.9487 -83.7291 -87.3951 70.0046 
-83.0021 -86.3965 70.0068 -82.2597 -85.598 70.1851 -81.7034 -84.7467 70.6264 
-81.148 -83.9351 71.1817 -80.4209 -83.4227 71.6657 -79.6698 -83.1494 72.0528 
-84.1032 -89.5014 68.7511 -84.5441 -89.1339 67.841 -84.6476 -88.535 66.6941 
-84.817 -87.6784 65.4684 -84.805 -86.7622 64.3031 -84.1712 -86.118 63.4068 
-83.2804 -85.7836 62.8557 -82.4796 -85.4693 62.4173 -81.6034 -85.1189 62.005 
-76.7606 -101.982 75.5459 -77.3274 -101.618 76.1034 -77.9373 -101.132 76.7489 
-78.2559 -100.419 77.5473 -78.4129 -99.5168 78.4494 -78.7853 -98.5159 79.3596 
-79.1734 -97.5309 80.0571 -79.1949 -96.5693 80.3376 -78.9735 -95.5029 80.3331 
-76.2967 -102.042 74.2621 -76.1009 -101.64 73.5119 -75.9285 -101.158 72.7586 
-75.9663 -100.626 71.858 -76.1846 -100.102 70.7598 -76.3864 -99.5496 69.7248 
-76.5604 -98.8824 68.8943 -76.8143 -98.113 68.1321 -77.1568 -97.3448 67.3394 
-76.36 -103.364 75.5134 -76.2923 -104.33 76.1243 -76.2335 -105.205 76.897 
-76.1024 -105.986 77.8587 -75.8629 -106.679 78.8271 -75.5939 -107.19 79.6234 
-75.1581 -107.446 80.3133 -74.3962 -107.447 80.8992 -73.5695 -107.172 81.1922 
-76.1947 -103.57 74.6317 -75.9242 -104.91 74.1268 -75.5195 -106.162 73.576 
-75.2256 -107.479 73.0343 -75.091 -108.945 72.3485 -74.6528 -109.883 71.5333 
-73.9023 -110.117 70.799 -73.3328 -110.474 70.0721 -73.0181 -111.183 69.2589 
-72.8232 -87.2884 70.0525 -72.4474 -88.7231 70.5473 -71.7743 -90.0979 71.029 
-70.9653 -91.288 71.5671 -70.5075 -92.764 72.1816 -70.4071 -94.7528 72.7197 
-70.3956 -96.7729 73.1279 -70.4371 -98.5118 73.4273 -70.5086 -100.106 73.5651 
-72.9878 -86.2564 70.5704 -72.7314 -86.4565 71.5255 -72.5853 -86.8677 72.4644 
-72.7134 -87.555 73.4585 -72.9171 -88.3536 74.4964 -72.8461 -89.053 75.6211 
-72.6035 -89.7087 76.8688 -72.5464 -90.449 77.9808 -72.6869 -91.2043 78.7922 
-73.0596 -86.711 68.949 -72.9516 -87.4234 68.3908 -72.8587 -88.3098 67.8817 
-72.6954 -89.2448 67.3038 -72.5269 -90.2092 66.8597 -72.5067 -91.4165 66.7626 
-72.5147 -92.8397 66.785 -72.3875 -94.1817 66.7046 -72.2507 -95.3933 66.608 
-73.5983 -85.2902 69.8456 -74.1274 -84.4669 70.0941 -74.6679 -83.6888 70.2912 
-75.1681 -82.9055 70.5828 -75.6977 -82.0601 71.1549 -76.3571 -81.4529 71.7878 
-77.1344 -81.4464 72.1109 -77.9115 -81.8807 72.187 -78.5617 -82.4078 72.2813 
-73.6457 -85.6055 68.8076 -74.3216 -85.1744 68.0435 -75.1134 -84.7672 67.2689 
-75.8903 -84.3385 66.3384 -76.7086 -83.9685 65.3411 -77.5943 -83.8113 64.477 
-78.3922 -83.9208 63.6658 -79.0947 -84.1775 62.8328 -79.8413 -84.5042 62.1635 
-70.5783 -100.687 74.3379 -70.6167 -99.5935 75.151 -70.6084 -98.4315 75.9466 
-70.4268 -97.2571 76.7789 -70.3586 -96.1198 77.6599 -70.7556 -95.2082 78.3126 
-71.4193 -94.4949 78.6138 -72.023 -93.683 78.8471 -72.4807 -92.7347 79.173 
-70.3313 -101.518 72.8437 -69.8662 -101.351 72.065 -69.5644 -101.182 71.175 
-69.9013 -100.972 70.3078 -70.4195 -100.537 69.4977 -70.4547 -99.8224 68.5224 
-70.4765 -98.9998 67.5632 -71.0108 -98.2103 67.0576 -71.7176 -97.4326 66.8678 
-70.5337 -102.54 74.0863 -70.4186 -103.452 74.921 -70.3945 -104.395 75.9949 
-70.6218 -105.293 76.9043 -71.0966 -105.87 77.4218 -71.7213 -106.102 77.8337 
-72.2694 -106.275 78.4786 -72.5536 -106.476 79.3773 -72.7113 -106.606 80.337 
-70.5078 -103.064 73.0449 -70.4518 -104.54 72.5723 -70.3729 -105.963 72.2709 
-70.4038 -107.462 71.9165 -70.5138 -109.116 71.2197 -70.4877 -110.482 70.445 
-70.66 -111.286 69.8749 -71.3966 -111.793 69.334 -72.2476 -111.994 68.822 
-78.4633 -93.7436 80.7247 -78.0251 -93.2021 81.1464 -77.4003 -92.7988 81.4326 
-76.6223 -92.4255 81.5511 -75.7989 -92.0021 81.6246 -74.8883 -91.6616 81.6563 
-73.945 -91.528 81.4328 -73.2832 -91.5714 80.8678 -72.9871 -91.7015 80.1494 
-78.4061 -95.3605 80.9113 -77.8231 -96.5935 81.4437 -77.1808 -98.0504 81.9849 
-76.5816 -99.3255 82.548 -75.9555 -100.28 82.8441 -75.2771 -101.515 82.6696 
-74.6131 -103.251 82.3879 -73.9834 -104.862 82.2325 -73.4292 -105.929 81.8793 
-78.9048 -92.9095 79.7974 -78.981 -91.4654 79.05 -78.9602 -90.1365 78.0886 
-78.9478 -88.7611 77.1578 -79.1013 -87.2883 76.371 -79.2416 -86.0583 75.5544 
-79.1651 -85.1376 74.6733 -79.0466 -84.2843 73.8771 -79.0331 -83.5041 73.1615 
-72.669 -92.9953 80.0815 -72.4747 -94.3364 80.7158 -72.3003 -95.8403 81.2037 
-72.2827 -97.403 81.4693 -72.4216 -99.0481 81.6024 -72.567 -100.785 81.6064 
-72.6652 -102.481 81.5047 -72.7614 -104.056 81.4392 -72.8737 -105.472 81.3747 
-73.0455 -90.6387 79.2697 -73.309 -89.2655 78.9668 -73.7044 -87.7124 78.6151 
-74.4552 -86.2704 78.1616 -75.4585 -85.2076 77.5019 -76.3147 -84.353 76.6506 
-77.0171 -83.574 75.6613 -77.7479 -83.0813 74.5511 -78.437 -82.9353 73.4256 
-77.2607 -96.8342 66.1519 -76.8383 -97.0586 65.7906 -76.1779 -97.3466 65.5123 
-75.4189 -97.6228 65.4648 -74.7595 -97.6969 65.6615 -74.2086 -97.5085 65.906 
-73.6599 -97.2622 66.0683 -73.1026 -97.0739 66.2 -72.6191 -96.8665 66.3751 
-76.7052 -98.1432 67.0219 -76.069 -100.125 67.0467 -75.5132 -102.243 66.6682 
-74.9202 -104.07 66.4065 -74.4967 -105.632 66.5724 -74.236 -107.079 66.9212 
-73.726 -108.381 67.2459 -73.1019 -109.595 67.6032 -72.8043 -110.748 68.0459 
-78.2761 -95.6485 65.539 -79.0391 -94.7217 64.4809 -79.6856 -93.5513 63.6494 
-80.2302 -92.0411 62.9094 -80.7209 -90.7383 61.9731 -81.0487 -89.8513 61.1498 
-81.1032 -88.7697 60.9048 -80.9925 -87.2937 61.1176 -80.8396 -85.9238 61.4542 
-72.0452 -98.5245 66.7339 -71.859 -100.51 66.6269 -71.6768 -102.298 66.2905 
-71.5098 -104.073 65.9183 -71.4984 -106.018 65.8001 -71.7469 -107.708 66.0582 
-72.0703 -108.964 66.5488 -72.2853 -110.126 67.1184 -72.4728 -111.139 67.7812 
-72.6735 -94.9743 66.0022 -73.1889 -93.4544 65.115 -73.9931 -92.2058 64.3579 
-75.2269 -90.9199 63.9186 -76.6151 -89.3797 63.398 -77.6232 -88.0668 62.6306 
-78.2384 -87.2362 61.9887 -78.9052 -86.4573 61.6782 -79.7644 -85.5942 61.6358 
-72.9209 -107.721 80.2226 -72.8378 -108.996 79.2757 -72.8452 -110.337 78.5073 
-72.9346 -111.402 77.5661 -72.9367 -112.082 76.1433 -72.7938 -112.446 74.4752 
-72.7069 -112.505 72.7487 -72.7546 -112.378 71.0552 -72.7829 -112.134 69.6405 
-79.3945 -82.5155 71.4404 -79.866 -81.977 70.4446 -80.4713 -81.478 69.3702 
-81.1063 -81.3822 67.956 -81.5329 -81.6197 66.3101 -81.5654 -82.0008 64.8928 
-81.3252 -82.6612 63.8129 -81.0872 -83.4879 62.9326 -80.8952 -84.223 62.2663 
-81.7114 -90.648 70.5156 -81.48 -91.1777 71.6872 -80.9705 -91.6699 71.2778 
-81.3499 -91.7563 73.19 -80.7644 -92.2661 72.6341 -80.1468 -92.9779 72.2887 
-80.8713 -92.1932 74.6271 -80.3906 -92.8907 74.0504 -79.791 -93.6153 73.6128 
-79.1478 -94.4208 73.1967 -80.1032 -92.619 75.753 -79.8761 -93.5972 75.2604 
-79.4993 -94.465 74.8426 -78.9381 -95.2521 74.4503 -78.4352 -96.034 73.9835 
-79.5805 -93.3743 76.9946 -79.584 -94.5141 76.5321 -79.4511 -95.5492 76.0018 
-79.0224 -96.3396 75.5619 -78.4807 -97.0482 75.1414 -78.0649 -97.8114 74.6495 
-79.4062 -94.3575 78.4053 -79.5351 -95.4831 78.0743 -79.4726 -96.5502 77.4298 
-79.1275 -97.4094 76.6946 -78.6581 -98.1065 76.0856 -78.1728 -98.8152 75.5797 
-77.6724 -99.4579 75.0639 -79.2758 -95.115 79.5525 -79.4603 -96.1835 79.4296 
-79.3644 -97.174 78.9218 -78.9696 -98.1106 78.0638 -78.6139 -98.9502 77.165 
-78.3049 -99.7175 76.4228 -77.7989 -100.361 75.8409 -77.1912 -100.804 75.3204 
-83.1435 -89.3568 70.5093 -83.2097 -88.3788 70.7464 -82.4343 -89.4904 71.4534 
-82.7852 -87.306 70.8085 -82.3553 -88.3929 71.7497 -82.1141 -89.8164 72.8683 
-82.1936 -86.5116 70.9569 -82.0169 -87.4104 71.9753 -81.9383 -88.7094 73.2361 
-81.8616 -90.1969 74.4121 -81.7262 -85.7333 71.4263 -81.7471 -86.612 72.4552 
-81.6261 -87.709 73.5915 -81.5633 -89.145 74.6678 -81.1604 -90.4393 75.4834 
-81.2139 -84.8281 72.0009 -81.4126 -85.698 73.0684 -81.3235 -86.738 74.0921 
-81.0495 -88.1362 74.9109 -80.7924 -89.5258 75.6368 -80.2334 -90.7932 76.3973 
-80.4627 -84.164 72.432 -80.6906 -84.9437 73.4039 -80.7682 -85.8855 74.3901 
-80.4555 -87.2156 75.1517 -80.1581 -88.7029 75.822 -79.9294 -90.04 76.6434 
-79.5608 -91.5123 77.5881 -79.6712 -83.8069 72.7771 -79.7868 -84.5694 73.5799 
-79.9462 -85.4225 74.4612 -79.8272 -86.539 75.288 -79.5345 -87.9744 76.0317 
-79.4161 -89.3939 76.8898 -79.3454 -90.7594 77.8851 -79.1918 -92.3247 78.8078 
-78.4318 -83.6798 74.1673 -77.7645 -83.9797 75.3205 -78.4654 -84.6001 74.9562 
-77.0853 -84.5238 76.4749 -77.8832 -84.9376 76.2455 -78.6276 -85.4995 75.9272 
-76.3689 -85.3351 77.4669 -77.2634 -85.5762 77.394 -78.0996 -85.9483 77.3105 
-78.7096 -86.5729 76.9014 -75.4545 -86.3966 78.2573 -76.4855 -86.6987 78.1861 
-77.389 -86.9896 78.2225 -78.1001 -87.4413 78.0987 -78.5725 -88.1209 77.6311 
-74.4918 -87.7248 78.8813 -75.5262 -87.9974 78.9045 -76.4774 -88.394 78.8501 
-77.238 -88.8099 78.816 -77.9063 -89.2837 78.6592 -78.4862 -89.7452 78.3857 
-73.7788 -89.1736 79.3942 -74.5884 -89.2141 79.7155 -75.5509 -89.4849 79.8004 
-76.361 -89.9466 79.7004 -77.1062 -90.4208 79.6007 -77.9011 -90.7728 79.5285 
[...]
POINT_DATA 1002
FIELD FieldData 2
Theta 1 1002 float
2.58802 2.58802 0.553574 0.553574 2.12437 1.01722 2.12437 1.01722 1.5708 
1.5708 1.5708 1.5708 2.68241 2.78649 2.89924 3.01861 3.14159 3.01861 
2.89924 2.78649 2.68241 2.61035 2.61791 2.60515 2.56958 2.51327 2.44184 
2.36202 2.27983 2.1997 2.61035 2.61791 2.60515 2.56958 2.51327 2.44184 
2.36202 2.27983 2.1997 2.50947 2.41899 2.31794 2.20864 2.0944 1.97902 
1.86631 1.75944 1.66056 2.50947 2.41899 2.31794 2.20864 2.0944 1.97902 
1.86631 1.75944 1.66056 2.61035 2.61791 2.60515 2.56958 2.51327 2.44184 
2.36202 2.27983 2.1997 2.61035 2.61791 2.60515 2.56958 2.51327 2.44184 
2.36202 2.27983 2.1997 2.50947 2.41899 2.31794 2.20864 2.0944 1.97902 
1.86631 1.75944 1.66056 2.50947 2.41899 2.31794 2.20864 2.0944 1.97902 
1.86631 1.75944 1.66056 0.459179 0.355101 0.242354 0.122983 0 0.122983 
0.242354 0.355101 0.459179 0.531246 0.523681 0.536438 0.57201 0.628319 0.699757 
0.779574 0.86176 0.941896 0.531246 0.523681 0.536438 0.57201 0.628319 0.699757 
0.779574 0.86176 0.941896 0.632123 0.7226 0.823657 0.932948 1.0472 1.16257 
1.27528 1.38216 1.48103 0.632123 0.7226 0.823657 0.932948 1.0472 1.16257 
1.27528 1.38216 1.48103 0.531246 0.523681 0.536438 0.57201 0.628319 0.699757 
0.779574 0.86176 0.941896 0.531246 0.523681 0.536438 0.57201 0.628319 0.699757 
0.779574 0.86176 0.941896 0.632123 0.7226 0.823657 0.932948 1.0472 1.16257 
1.27528 1.38216 1.48103 0.632123 0.7226 0.823657 0.932948 1.0472 1.16257 
1.27528 1.38216 1.48103 2.02998 1.9259 1.81315 1.69378 1.5708 1.44781 
1.32844 1.2157 1.11162 2.0928 2.05283 2.00422 1.94767 1.88496 1.81867 
1.75177 1.68695 1.62623 2.0928 2.05283 2.00422 1.94767 1.88496 1.81867 
1.75177 1.68695 1.62623 1.0488 1.08876 1.13737 1.19392 1.25664 1.32292 
1.38982 1.45464 1.51537 1.0488 1.08876 1.13737 1.19392 1.25664 1.32292 
1.38982 1.45464 1.51537 2.02998 1.9259 1.81315 1.69378 1.5708 1.44781 
1.32844 1.2157 1.11162 2.0928 2.05283 2.00422 1.94767 1.88496 1.81867 
1.75177 1.68695 1.62623 2.0928 2.05283 2.00422 1.94767 1.88496 1.81867 
1.75177 1.68695 1.62623 1.0488 1.08876 1.13737 1.19392 1.25664 1.32292 
1.38982 1.45464 1.51537 1.0488 1.08876 1.13737 1.19392 1.25664 1.32292 
1.38982 1.45464 1.51537 1.5708 1.5708 1.5708 1.5708 1.5708 1.5708 
1.5708 1.5708 1.5708 1.5708 1.5708 1.5708 1.5708 1.5708 1.5708 
1.5708 1.5708 1.5708 2.70908 2.71362 2.81592 2.68886 2.81002 2.92597 
2.6349 2.76254 2.89233 3.01997 2.55881 2.68262 2.80854 2.92834 3.01997 
2.47007 2.58462 2.70048 2.80854 2.89233 2.92597 2.37702 2.48017 2.58462 
2.68262 2.76254 2.81002 2.81592 2.28567 2.37702 2.47007 2.55881 2.6349 
2.68886 2.71362 2.70908 2.52097 2.4195 2.51718 2.30791 2.40503 2.49426 
2.18928 2.28408 2.3734 2.45144 2.06758 2.15805 2.24572 2.32523 2.39165 
1.94707 2.03138 2.11543 2.19453 2.26401 2.32035 1.83164 1.90847 1.98711 
2.06376 2.13422 2.1949 2.24359 1.72413 1.79288 1.86489 1.93728 2.00658 
2.06938 2.12312 2.16654 1.5708 1.50988 1.63171 1.44492 1.5708 1.69667 
1.37826 1.5059 1.63569 1.76333 1.31281 1.43962 1.5708 1.70197 1.82878 
1.25155 1.37501 1.50478 1.63681 1.76659 1.89004 1.19686 1.31493 1.44074 
1.5708 1.70086 1.82666 1.94473 1.15011 1.26149 1.38136 1.50697 1.63462 
1.76024 1.88011 1.99148 1.99148 1.88011 1.94473 1.76024 1.82666 1.89004 
1.63462 1.70086 1.76659 1.82878 1.50697 1.5708 1.63681 1.70197 1.76333 
1.38136 1.44074 1.50478 1.5708 1.63569 1.69667 1.26149 1.31493 1.37501 
1.43962 1.5059 1.5708 1.63171 1.15011 1.19686 1.25155 1.31281 1.37826 
1.44492 1.50988 1.5708 2.16654 2.12312 2.24359 2.06938 2.1949 2.32035 
2.00658 2.13422 2.26401 2.39165 1.93728 2.06376 2.19453 2.32523 2.45144 
1.86489 1.98711 2.11543 2.24572 2.3734 2.49426 1.79288 1.90847 2.03138 
2.15805 2.28408 2.40503 2.51718 1.72413 1.83164 1.94707 2.06758 2.18928 
2.30791 2.4195 2.52097 1.66533 1.66946 1.76911 1.67254 1.777 1.88041 
1.67418 1.78222 1.89102 1.99634 1.67418 1.78405 1.89674 2.00785 2.11299 
1.67254 1.78222 1.89674 2.01191 2.12307 2.22608 1.66946 1.777 1.89102 
2.00785 2.12307 2.23222 2.33166 1.66533 1.76911 1.88041 1.99634 2.11299 
2.22608 2.33166 2.42672 1.47626 1.37249 1.47213 1.26118 1.36459 1.46906 
1.14526 1.25058 1.35938 1.46741 1.0286 1.13374 1.24485 1.35755 1.46741 
0.915514 1.01852 1.12969 1.24485 1.35938 1.46906 0.809937 0.909371 1.01852 
1.13374 1.25058 1.36459 1.47213 0.714871 0.809937 0.915514 1.0286 1.14526 
1.26118 1.37249 1.47626 0.975055 0.898002 1.01847 0.821245 0.946693 1.07221 
0.749941 0.877585 1.00737 1.13501 0.690152 0.816367 0.94706 1.07784 1.20431 
0.647337 0.768195 0.895868 1.02616 1.15448 1.2767 0.624416 0.736561 0.857515 
0.983547 1.11021 1.23313 1.34871 0.620619 0.722093 0.833684 0.952313 1.07402 
1.19452 1.30996 1.41746 0.855925 0.764569 0.764569 0.671524 0.661425 0.671524 
0.582786 0.556971 0.556971 0.582786 0.506696 0.458968 0.441109 0.458968 0.506696 
0.45273 0.379052 0.333054 0.333054 0.379052 0.45273 0.427969 0.331576 0.249267 
0.21325 0.249267 0.331576 0.427969 0.432512 0.325669 0.215619 0.121622 0.121622 
0.215619 0.325669 0.432512 0.432512 0.427969 0.325669 0.45273 0.331576 0.215619 
0.506696 0.379052 0.249267 0.121622 0.582786 0.458968 0.333054 0.21325 0.121622 
0.671524 0.556971 0.441109 0.333054 0.249267 0.215619 0.764569 0.661425 0.556971 
0.458968 0.379052 0.331576 0.325669 0.855925 0.764569 0.671524 0.582786 0.506696 
0.45273 0.427969 0.432512 0.975055 1.01847 0.898002 1.07221 0.946693 0.821245 
1.13501 1.00737 0.877585 0.749941 1.20431 1.07784 0.94706 0.816367 0.690152 
1.2767 1.15448 1.02616 0.895868 0.768195 0.647337 1.34871 1.23313 1.11021 
0.983547 0.857515 0.736561 0.624416 1.41746 1.30996 1.19452 1.07402 0.952313 
0.833684 0.722093 0.620619 1.15011 1.26149 1.19686 1.38136 1.31493 1.25155 
1.50697 1.44074 1.37501 1.31281 1.63462 1.5708 1.50478 1.43962 1.37826 
1.76024 1.70086 1.63681 1.5708 1.5059 1.44492 1.88011 1.82666 1.76659 
1.70197 1.63569 1.5708 1.50988 1.99148 1.94473 1.89004 1.82878 1.76333 
1.69667 1.63171 1.5708 1.15011 1.19686 1.26149 1.25155 1.31493 1.38136 
1.31281 1.37501 1.44074 1.50697 1.37826 1.43962 1.50478 1.5708 1.63462 
1.44492 1.5059 1.5708 1.63681 1.70086 1.76024 1.50988 1.5708 1.63569 
1.70197 1.76659 1.82666 1.88011 1.5708 1.63171 1.69667 1.76333 1.82878 
1.89004 1.94473 1.99148 1.72413 1.83164 1.79288 1.94707 1.90847 1.86489 
2.06758 2.03138 1.98711 1.93728 2.18928 2.15805 2.11543 2.06376 2.00658 
2.30791 2.28408 2.24572 2.19453 2.13422 2.06938 2.4195 2.40503 2.3734 
2.32523 2.26401 2.1949 2.12312 2.52097 2.51718 2.49426 2.45144 2.39165 
2.32035 2.24359 2.16654 2.70908 2.81592 2.71362 2.92597 2.81002 2.68886 
3.01997 2.89233 2.76254 2.6349 3.01997 2.92834 2.80854 2.68262 2.55881 
2.92597 2.89233 2.80854 2.70048 2.58462 2.47007 2.81592 2.81002 2.76254 
2.68262 2.58462 2.48017 2.37702 2.70908 2.71362 2.68886 2.6349 2.55881 
2.47007 2.37702 2.28567 2.16654 2.24359 2.12312 2.32035 2.1949 2.06938 
2.39165 2.26401 2.13422 2.00658 2.45144 2.32523 2.19453 2.06376 1.93728 
2.49426 2.3734 2.24572 2.11543 1.98711 1.86489 2.51718 2.40503 2.28408 
2.15805 2.03138 1.90847 1.79288 2.52097 2.4195 2.30791 2.18928 2.06758 
1.94707 1.83164 1.72413 1.66533 1.76911 1.66946 1.88041 1.777 1.67254 
1.99634 1.89102 1.78222 1.67418 2.11299 2.00785 1.89674 1.78405 1.67418 
2.22608 2.12307 2.01191 1.89674 1.78222 1.67254 2.33166 2.23222 2.12307 
2.00785 1.89102 1.777 1.66946 2.42672 2.33166 2.22608 2.11299 1.99634 
1.88041 1.76911 1.66533 1.47626 1.47213 1.37249 1.46906 1.36459 1.26118 
1.46741 1.35938 1.25058 1.14526 1.46741 1.35755 1.24485 1.13374 1.0286 
1.46906 1.35938 1.24485 1.12969 1.01852 0.915514 1.47213 1.36459 1.25058 
1.13374 1.01852 0.909371 0.809937 1.47626 1.37249 1.26118 1.14526 1.0286 
0.915514 0.809937 0.714871 1.41746 1.30996 1.34871 1.19452 1.23313 1.2767 
1.07402 1.11021 1.15448 1.20431 0.952313 0.983547 1.02616 1.07784 1.13501 
0.833684 0.857515 0.895868 0.94706 1.00737 1.07221 0.722093 0.736561 0.768195 
0.816367 0.877585 0.946693 1.01847 0.620619 0.624416 0.647337 0.690152 0.749941 
0.821245 0.898002 0.975055 0.975055 0.898002 1.01847 0.821245 0.946693 1.07221 
0.749941 0.877585 1.00737 1.13501 0.690152 0.816367 0.94706 1.07784 1.20431 
0.647337 0.768195 0.895868 1.02616 1.15448 1.2767 0.624416 0.736561 0.857515 
0.983547 1.11021 1.23313 1.34871 0.620619 0.722093 0.833684 0.952313 1.07402 
1.19452 1.30996 1.41746 
Phi 1 1002 float
6.28319 3.14159 6.28319 3.14159 4.71239 4.71239 1.5708 1.5708 3.69517 
5.72961 2.58802 0.553574 6.28319 6.28319 6.28319 6.28319 3.14159 3.14159 
3.14159 3.14159 3.14159 6.1053 5.8988 5.67687 5.45995 5.26596 5.10322 
4.97131 4.86569 4.78095 0.177881 0.384387 0.606312 0.823235 1.01722 1.17997 
1.31187 1.4175 1.50223 6.18928 6.10703 6.03531 5.97283 5.91832 5.87061 
5.82869 5.79168 5.75886 0.0939024 0.176153 0.247873 0.310351 0.364864 0.412573 
0.454497 0.491504 0.524326 3.31947 3.52598 3.7479 3.96483 4.15881 4.32156 
4.45346 4.55909 4.64383 2.96371 2.75721 2.53528 2.31836 2.12437 1.96162 
1.82972 1.72409 1.63936 3.2355 3.31775 3.38947 3.45194 3.50646 3.55417 
3.59609 3.6331 3.66592 3.04769 2.96544 2.89372 2.83124 2.77673 2.72902 
2.6871 2.65009 2.61727 6.28319 6.28319 6.28319 6.28319 3.14159 3.14159 
3.14159 3.14159 3.14159 6.1053 5.8988 5.67687 5.45995 5.26596 5.10322 
4.97131 4.86569 4.78095 0.177881 0.384387 0.606312 0.823235 1.01722 1.17997 
1.31187 1.4175 1.50223 6.18928 6.10703 6.03531 5.97283 5.91832 5.87061 
5.82869 5.79168 5.75886 0.0939024 0.176153 0.247873 0.310351 0.364864 0.412573 
0.454497 0.491504 0.524326 3.31947 3.52598 3.7479 3.96483 4.15881 4.32156 
4.45346 4.55909 4.64383 2.96371 2.75721 2.53528 2.31836 2.12437 1.96162 
1.82972 1.72409 1.63936 3.2355 3.31775 3.38947 3.45194 3.50646 3.55417 
3.59609 3.6331 3.66592 3.04769 2.96544 2.89372 2.83124 2.77673 2.72902 
2.6871 2.65009 2.61727 4.71239 4.71239 4.71239 4.71239 4.71239 4.71239 
4.71239 4.71239 4.71239 4.60879 4.49914 4.3857 4.27128 4.15881 4.05096 
3.94976 3.85646 3.77161 4.81599 4.92564 5.03907 5.1535 5.26596 5.37381 
5.47502 5.56831 5.65317 4.60879 4.49914 4.3857 4.27128 4.15881 4.05096 
3.94976 3.85646 3.77161 4.81599 4.92564 5.03907 5.1535 5.26596 5.37381 
5.47502 5.56831 5.65317 1.5708 1.5708 1.5708 1.5708 1.5708 1.5708 
1.5708 1.5708 1.5708 1.6744 1.78405 1.89748 2.01191 2.12437 2.23222 
2.33343 2.42672 2.51157 1.4672 1.35755 1.24411 1.12969 1.01722 0.909371 
0.808166 0.714871 0.63002 1.6744 1.78405 1.89748 2.01191 2.12437 2.23222 
2.33343 2.42672 2.51157 1.4672 1.35755 1.24411 1.12969 1.01722 0.909371 
0.808166 0.714871 0.63002 3.60077 3.49669 3.38395 3.26458 3.14159 3.01861 
2.89924 2.78649 2.68241 5.82401 5.92808 6.04083 6.1602 6.28319 0.122983 
0.242354 0.355101 0.459179 6.05603 5.78856 5.97021 5.51259 5.60297 5.78856 
5.26596 5.26596 5.26596 5.26596 5.06749 5.0121 4.91556 4.71239 4.15881 
4.91556 4.83537 4.71239 4.50922 4.15881 3.63622 4.80045 4.71239 4.58941 
4.41268 4.15881 3.82181 3.45456 4.71239 4.62433 4.50922 4.35729 4.15881 
3.91219 3.63622 3.36875 6.01742 5.94343 5.82633 5.88092 5.76745 5.62798 
5.8278 5.71897 5.58911 5.43724 5.78235 5.67854 5.55757 5.41926 5.26596 
5.74316 5.64441 5.5315 5.40467 5.26596 5.11955 5.70914 5.61528 5.50962 
5.3926 5.26596 5.13292 4.99789 5.67937 5.59016 5.49102 5.38246 5.26596 
5.14407 5.02016 4.89798 5.56831 5.47502 5.47502 5.37381 5.37381 5.37381 
5.26596 5.26596 5.26596 5.26596 5.1535 5.1535 5.1535 5.1535 5.1535 
5.03907 5.03907 5.03907 5.03907 5.03907 5.03907 4.92564 4.92564 4.92564 
4.92564 4.92564 4.92564 4.92564 4.81599 4.81599 4.81599 4.81599 4.81599 
4.81599 4.81599 4.81599 4.60879 4.60879 4.49914 4.60879 4.49914 4.3857 
4.60879 4.49914 4.3857 4.27128 4.60879 4.49914 4.3857 4.27128 4.15881 
4.60879 4.49914 4.3857 4.27128 4.15881 4.05096 4.60879 4.49914 4.3857 
4.27128 4.15881 4.05096 3.94976 4.60879 4.49914 4.3857 4.27128 4.15881 
4.05096 3.94976 3.85646 4.5268 4.40462 4.42689 4.28071 4.29185 4.30523 
4.15881 4.15881 4.15881 4.15881 4.04232 4.03217 4.02011 4.00552 3.98753 
3.93376 3.91515 3.89328 3.86721 3.83566 3.7968 3.83461 3.8095 3.78037 
3.74624 3.70581 3.65733 3.59845 3.7454 3.71564 3.68161 3.64243 3.59698 
3.54386 3.48135 3.40735 3.56428 3.45246 3.52338 3.33203 3.40312 3.47739 
3.20576 3.27463 3.34802 3.42551 3.07742 3.14159 3.21128 3.28647 3.36688 
2.95116 3.00855 3.0719 3.14159 3.21784 3.3006 2.83072 2.88006 2.93517 
2.99672 3.06535 3.14159 3.22575 2.7189 2.7598 2.8058 2.85768 2.9163 
2.98259 3.05743 3.14159 3.56428 3.52338 3.45246 3.47739 3.40312 3.33203 
3.42551 3.34802 3.27463 3.20576 3.36688 3.28647 3.21128 3.14159 3.07742 
3.3006 3.21784 3.14159 3.0719 3.00855 2.95116 3.22575 3.14159 3.06535 
2.99672 2.93517 2.88006 2.83072 3.14159 3.05743 2.98259 2.9163 2.85768 
2.8058 2.7598 2.7189 4.5268 4.42689 4.40462 4.30523 4.29185 4.28071 
4.15881 4.15881 4.15881 4.15881 3.98753 4.00552 4.02011 4.03217 4.04232 
3.7968 3.83566 3.86721 3.89328 3.91515 3.93376 3.59845 3.65733 3.70581 
3.74624 3.78037 3.8095 3.83461 3.40735 3.48135 3.54386 3.59698 3.64243 
3.68161 3.71564 3.7454 4.71239 4.80045 4.62433 4.91556 4.71239 4.50922 
5.06749 4.83537 4.58941 4.35729 5.26596 5.0121 4.71239 4.41268 4.15881 
5.51259 5.26596 4.91556 4.50922 4.15881 3.91219 5.78856 5.60297 5.26596 
4.71239 4.15881 3.82181 3.63622 6.05603 5.97021 5.78856 5.26596 4.15881 
3.63622 3.45456 3.36875 0.227158 0.494626 0.312971 0.770593 0.680215 0.494626 
1.01722 1.01722 1.01722 1.01722 1.2157 1.27109 1.36763 1.5708 2.12437 
1.36763 1.44781 1.5708 1.77397 2.12437 2.64697 1.48273 1.5708 1.69378 
1.8705 2.12437 2.46138 2.82862 1.5708 1.65886 1.77397 1.9259 2.12437 
2.371 2.64697 2.91443 1.75639 1.87857 1.8563 2.00248 1.99133 1.97796 
2.12437 2.12437 2.12437 2.12437 2.24087 2.25101 2.26308 2.27767 2.29565 
2.34943 2.36803 2.38991 2.41597 2.44752 2.48639 2.44857 2.47368 2.50281 
2.53694 2.57738 2.62586 2.68474 2.53778 2.56754 2.60157 2.64076 2.68621 
2.73933 2.80184 2.87583 1.6744 1.6744 1.78405 1.6744 1.78405 1.89748 
1.6744 1.78405 1.89748 2.01191 1.6744 1.78405 1.89748 2.01191 2.12437 
1.6744 1.78405 1.89748 2.01191 2.12437 2.23222 1.6744 1.78405 1.89748 
2.01191 2.12437 2.23222 2.33343 1.6744 1.78405 1.89748 2.01191 2.12437 
2.23222 2.33343 2.42672 1.4672 1.35755 1.4672 1.24411 1.35755 1.4672 
1.12969 1.24411 1.35755 1.4672 1.01722 1.12969 1.24411 1.35755 1.4672 
0.909371 1.01722 1.12969 1.24411 1.35755 1.4672 0.808166 0.909371 1.01722 
1.12969 1.24411 1.35755 1.4672 0.714871 0.808166 0.909371 1.01722 1.12969 
1.24411 1.35755 1.4672 0.603812 0.57405 0.693022 0.540021 0.667908 0.792164 
0.500837 0.638778 0.773562 0.900726 0.455383 0.604649 0.751687 0.890581 1.01722 
0.402264 0.564217 0.725619 0.878514 1.01722 1.13912 0.339753 0.515737 0.694072 
0.863926 1.01722 1.15026 1.26302 0.265762 0.456853 0.655207 0.845941 1.01722 
1.16363 1.28529 1.38521 0.227158 0.312971 0.494626 0.494626 0.680215 0.770593 
1.01722 1.01722 1.01722 1.01722 2.12437 1.5708 1.36763 1.27109 1.2157 
2.64697 2.12437 1.77397 1.5708 1.44781 1.36763 2.82862 2.46138 2.12437 
1.8705 1.69378 1.5708 1.48273 2.91443 2.64697 2.371 2.12437 1.9259 
1.77397 1.65886 1.5708 1.75639 1.8563 1.87857 1.97796 1.99133 2.00248 
2.12437 2.12437 2.12437 2.12437 2.29565 2.27767 2.26308 2.25101 2.24087 
2.48639 2.44752 2.41597 2.38991 2.36803 2.34943 2.68474 2.62586 2.57738 
2.53694 2.50281 2.47368 2.44857 2.87583 2.80184 2.73933 2.68621 2.64076 
2.60157 2.56754 2.53778 5.86049 5.90139 5.97231 5.94739 6.02165 6.09275 
5.99927 6.07676 6.15015 6.21902 6.0579 6.13831 6.2135 0 0.0641696 
6.12418 6.20694 6.28319 0.069689 0.13304 0.190437 6.19903 0 0.0762451 
0.144876 0.206423 0.261531 0.310872 0 0.0841597 0.159004 0.225289 0.283913 
0.335793 0.381792 0.422692 5.86049 5.97231 5.90139 6.09275 6.02165 5.94739 
6.21902 6.15015 6.07676 5.99927 0.0641696 0 6.2135 6.13831 6.0579 
0.190437 0.13304 0.069689 6.28319 6.20694 6.12418 0.310872 0.261531 0.206423 
0.144876 0.0762451 6.28319 6.19903 0.422692 0.381792 0.335793 0.283913 0.225289 
0.159004 0.0841597 0 5.67937 5.70914 5.59016 5.74316 5.61528 5.49102 
5.78235 5.64441 5.50962 5.38246 5.8278 5.67854 5.5315 5.3926 5.26596 
5.88092 5.71897 5.55757 5.40467 5.26596 5.14407 5.94343 5.76745 5.58911 
5.41926 5.26596 5.13292 5.02016 6.01742 5.82633 5.62798 5.43724 5.26596 
5.11955 4.99789 4.89798 1.38521 1.28529 1.26302 1.16363 1.15026 1.13912 
1.01722 1.01722 1.01722 1.01722 0.845941 0.863926 0.878514 0.890581 0.900726 
0.655207 0.694072 0.725619 0.751687 0.773562 0.792164 0.456853 0.515737 0.564217 
0.604649 0.638778 0.667908 0.693022 0.265762 0.339753 0.402264 0.455383 0.500837 
0.540021 0.57405 0.603812 
