# vtk DataFile Version 4.0
vtk output
ASCII
DATASET POLYDATA
POINTS 1002 float
-86.1405 -90.11 70.7376 -78.4649 -103.073 76.0659 -75.4111 -86.0886 72.0478 
-72.0586 -102.356 76.7579 -81.1698 -94.6477 81.4133 -75.7604 -92.4148 81.7401 
-78.6196 -97.1407 67.9051 -73.2767 -96.4195 67.758 -75.3069 -108.248 83.2587 
-81.4108 -82.675 73.7236 -73.7821 -112.336 71.0257 -81.709 -83.9901 63.9331 
-84.8714 -90.7115 71.1639 -83.4182 -91.3195 71.9015 -82.2969 -92.2965 72.8404 
-81.6131 -93.8001 73.6803 -81.0034 -95.481 74.33 -80.2663 -96.9959 74.9315 
-79.5118 -98.4054 75.477 -78.9202 -99.9047 75.8367 -78.6005 -101.512 76.0011 
-85.7523 -90.3649 71.6892 -85.17 -90.6304 72.8114 -84.5095 -90.9085 74.0402 
-84.0926 -91.4073 75.2976 -84.0208 -92.0364 76.6697 -83.7968 -92.4438 77.9801 
-83.0622 -92.7851 78.8913 -82.1915 -93.389 79.6408 -81.5855 -94.0978 80.5433 
-85.6701 -90.3317 70.0762 -84.977 -90.6371 69.513 -84.1262 -91.0867 69.0198 
-83.1944 -91.7023 68.6088 -82.3462 -92.5174 68.3275 -81.7173 -93.5443 68.0863 
-81.12 -94.615 67.8898 -80.3063 -95.532 67.8628 -79.3938 -96.3294 67.9198 
-86.7641 -89.4422 71.0533 -86.7814 -88.5618 71.3532 -86.2244 -87.6228 71.4551 
-85.4813 -86.6166 71.5717 -84.8985 -85.4448 71.9977 -84.3716 -84.3278 72.5014 
-83.6147 -83.5909 72.7693 -82.7093 -83.1967 72.9464 -81.9527 -82.9241 73.2596 
-86.8099 -89.5788 69.9641 -86.9874 -89.0708 69.0645 -86.5327 -88.4497 68.1247 
-85.7674 -87.5718 67.2415 -85.248 -86.5944 66.302 -84.9705 -85.6683 65.355 
-84.4617 -84.8079 64.6732 -83.6126 -84.2061 64.2777 -82.6483 -83.9865 64.0344 
-78.7422 -102.427 76.7464 -79.0225 -101.77 77.4767 -79.3573 -101.083 78.1468 
-79.9286 -100.377 78.6929 -80.7144 -99.8163 79.3274 -81.3592 -99.2923 80.1816 
-81.5652 -98.371 80.9055 -81.4112 -97.0476 81.2076 -81.2131 -95.738 81.2872 
-78.2849 -102.73 75.363 -78.1895 -102.288 74.5827 -78.1523 -101.757 73.7262 
-78.0743 -101.17 72.8938 -77.9964 -100.522 72.133 -77.99 -99.7525 71.3063 
-78.069 -98.9565 70.3539 -78.2518 -98.3064 69.4187 -78.4675 -97.7521 68.6048 
-78.4721 -104.162 76.5643 -78.3429 -105.204 77.1812 -78.2067 -106.257 77.9545 
-78.1364 -107.259 78.9247 -77.7929 -107.872 79.9246 -77.1003 -108.042 80.6439 
-76.5071 -108.129 81.2243 -76.123 -108.288 82.0289 -75.7269 -108.373 82.8595 
-78.233 -104.427 75.6724 -77.9103 -105.736 75.2799 -77.3716 -106.805 74.9493 
-76.7215 -107.819 74.6081 -76.2468 -109.118 74.0721 -75.9159 -110.472 73.3473 
-75.4902 -111.418 72.66 -74.9531 -111.952 72.0874 -74.3766 -112.242 71.5415 
-74.8107 -87.089 72.3917 -74.0721 -88.1494 72.8973 -73.6188 -89.5461 73.4498 
-73.5423 -91.4563 73.8891 -73.288 -93.4702 74.3499 -72.8739 -95.3123 75.0239 
-72.7284 -97.2861 75.7557 -72.5957 -99.3468 76.2952 -72.2691 -101.062 76.6026 
-75.5333 -86.5235 72.8244 -75.5761 -86.9724 73.713 -75.5449 -87.4344 74.7572 
-75.5223 -87.9677 75.8432 -75.5156 -88.6242 76.8437 -75.5401 -89.4353 77.8039 
-75.615 -90.3073 78.8178 -75.6746 -91.0963 79.8684 -75.708 -91.7905 80.8634 
-74.9507 -86.3251 71.4092 -74.5217 -86.7801 70.7412 -74.2359 -87.6241 70.1735 
-74.1351 -88.7667 69.674 -74.1293 -89.957 69.233 -74.036 -91.1515 68.9477 
-73.826 -92.4422 68.6929 -73.6206 -93.7749 68.3264 -73.4503 -95.0924 67.9798 
-75.9421 -85.2477 72.2334 -76.4529 -84.1822 72.4224 -77.0878 -83.098 72.5792 
-77.7325 -82.2175 72.697 -78.2432 -81.455 72.9424 -78.9497 -80.8134 73.3867 
-79.939 -80.6286 73.7267 -80.7241 -81.058 73.769 -81.1312 -81.854 73.7072 
-75.6854 -85.2461 71.3372 -76.1929 -84.5438 70.348 -76.9128 -83.9659 69.1732 
-77.6657 -83.4419 68.1962 -78.4453 -83.1013 67.4162 -79.1518 -82.9604 66.5277 
-79.6477 -82.9124 65.5909 -80.1904 -83.0589 64.8127 -80.9508 -83.4583 64.2504 
-72.271 -101.7 77.4241 -72.6309 -100.75 78.0872 -73.0386 -99.5237 78.6665 
-73.3265 -98.2129 79.2305 -73.5617 -97.0059 79.863 -73.9626 -95.9879 80.4536 
-74.5246 -95.1244 80.8692 -75.0643 -94.2626 81.1685 -75.4673 -93.3246 81.4636 
-71.9804 -102.1 76.0279 -71.957 -101.686 75.1048 -71.9987 -101.208 73.9422 
-72.1206 -100.707 72.8165 -72.2456 -100.149 71.8131 -72.3229 -99.55 70.7458 
-72.4672 -98.8705 69.7679 -72.7322 -98.0523 69.0267 -73.016 -97.1937 68.3667 
-72.2117 -103.179 77.2929 -72.5416 -104.084 77.8973 -72.8492 -105.143 78.5068 
-73.0263 -106.235 79.1908 -73.1771 -107.145 80.0463 -73.4322 -107.864 80.8768 
-73.8288 -108.452 81.5919 -74.319 -108.766 82.3362 -74.8224 -108.669 82.9767 
-72.0485 -103.511 76.3975 -72.1695 -105.052 76.0183 -72.1166 -106.923 75.6155 
-71.9384 -108.627 75.0665 -72.0683 -109.98 74.3345 -72.3779 -111.243 73.479 
-72.4672 -112.285 72.5285 -72.5967 -112.748 71.6751 -73.0956 -112.68 71.1828 
-80.8925 -94.2692 81.9505 -80.4162 -93.8534 82.3207 -79.7611 -93.507 82.5909 
-79.1607 -93.1424 83.0745 -78.6278 -92.5753 83.7138 -77.8918 -92.0532 83.9714 
-77.0175 -91.9388 83.6571 -76.3576 -92.0979 83.0585 -75.9912 -92.2645 82.3999 
-80.7438 -95.7668 82.0186 -80.2697 -97.0779 82.5767 -79.7 -98.5495 83.1847 
-79.083 -99.9819 83.7883 -78.5346 -101.528 84.2381 -77.9903 -103.408 84.5011 
-77.2622 -105.121 84.4684 -76.433 -106.256 84.074 -75.7619 -107.191 83.5894 
-81.5337 -93.306 81.0901 -81.9202 -91.7804 80.582 -82.0887 -90.2294 79.7532 
-82.0222 -88.9633 78.7463 -81.8716 -87.862 77.738 -81.6961 -86.6343 76.7131 
-81.533 -85.4729 75.786 -81.4396 -84.5471 75.0582 -81.4086 -83.6535 74.3849 
-75.6724 -93.5548 82.4172 -75.5628 -94.833 83.1153 -75.3952 -96.3111 83.7742 
-75.3091 -97.907 84.1743 -75.3732 -99.6394 84.132 -75.3638 -101.703 83.8215 
-75.2188 -103.935 83.5778 -75.1382 -105.84 83.4986 -75.1856 -107.221 83.4457 
-76.0464 -91.1518 81.3975 -76.4738 -89.8407 80.8601 -77.0304 -88.5664 80.202 
-77.7173 -87.199 79.596 -78.5154 -85.6215 79.0032 -79.2149 -84.2768 78.2222 
-79.7232 -83.6244 77.1939 -80.2516 -83.3734 75.9861 -80.8642 -83.0662 74.7587 
-78.3013 -97.2798 67.4173 -77.9642 -97.4766 66.9715 -77.3684 -97.6441 66.7406 
-76.4933 -97.6542 66.6086 -75.695 -97.5547 66.4661 -75.0735 -97.5216 66.5296 
-74.399 -97.4921 66.827 -73.7562 -97.2553 67.1137 -73.393 -96.8368 67.3795 
-77.8083 -98.4548 68.3016 -76.8944 -99.8966 68.7699 -76.1443 -101.599 69.056 
-75.8753 -103.781 68.935 -75.8128 -106.128 68.6971 -75.4728 -107.918 68.811 
-75.0055 -109.155 69.2893 -74.6532 -110.344 69.8848 -74.2691 -111.487 70.4622 
-79.1241 -95.8228 67.2984 -79.6369 -94.3494 66.582 -80.2339 -93.0261 65.6322 
-80.7432 -91.8378 64.6911 -81.0058 -90.3903 64.0669 -81.2383 -88.7607 63.6679 
-81.5667 -87.3894 63.4138 -81.8017 -86.2261 63.4188 -81.8346 -85.059 63.6349 
-72.8902 -98.3062 67.8496 -72.4205 -100.236 67.7381 -72.1064 -102.14 67.5228 
-72.1421 -104.285 67.3739 -72.2127 -106.593 67.2958 -72.1361 -108.435 67.4919 
-72.3339 -109.687 68.2314 -72.9065 -110.769 69.2568 -73.4433 -111.724 70.192 
-73.7232 -94.8566 67.3129 -74.406 -93.3259 66.8829 -75.3067 -91.7533 66.3472 
-76.1786 -90.0328 65.5695 -76.958 -88.4332 64.8128 -77.8899 -87.258 64.3273 
-79.0009 -86.3629 63.975 -80.0366 -85.5117 63.7373 -80.9065 -84.6972 63.7464 
-75.1918 -109.581 82.9255 -75.1417 -110.81 82.2869 -75.0652 -111.644 80.8755 
-74.8932 -112.584 79.0284 -74.7975 -114.004 77.6351 -74.7796 -114.873 76.5682 
-74.4828 -114.457 75.1145 -73.9774 -113.574 73.4311 -73.7221 -112.93 72.0372 
-81.6838 -81.8267 72.8576 -81.8865 -81.1873 72.0506 -82.1352 -80.8558 70.9404 
-82.4843 -80.5549 69.4575 -82.7305 -80.3128 68.1086 -82.7642 -80.5939 66.9806 
-82.6842 -81.357 65.8182 -82.4723 -82.1913 64.8574 -82.1076 -83.0396 64.2953 
-84.3985 -90.9963 72.2687 -83.8534 -91.2483 73.6258 -83.0001 -91.6506 73.157 
-83.4081 -91.6433 74.9694 -82.6379 -92.0512 74.5434 -82.0729 -92.8575 74.0741 
-83.2643 -92.3755 76.1712 -82.4179 -92.7267 75.7473 -81.9207 -93.6254 75.2785 
-81.5392 -94.6673 74.773 -83.2333 -93.1635 77.4173 -82.3659 -93.6613 76.8667 
-81.7799 -94.5078 76.4243 -81.4238 -95.6097 75.9264 -80.8932 -96.4036 75.3878 
-82.8676 -93.7968 78.5668 -82.3095 -94.6489 78.0839 -81.7147 -95.4485 77.6357 
-81.2444 -96.3722 77.1956 -80.6854 -97.1858 76.6164 -80.0481 -97.7791 75.9986 
-82.2023 -94.4763 79.4821 -82.0836 -95.6352 79.2126 -81.7536 -96.573 78.7835 
-81.2248 -97.2421 78.3056 -80.5431 -97.8794 77.7785 -79.8668 -98.5343 77.1226 
-79.3349 -99.1913 76.4397 -81.6222 -95.1897 80.3926 -81.7583 -96.4898 80.244 
-81.7548 -97.6762 79.843 -81.3588 -98.3754 79.1867 -80.611 -98.8253 78.5648 
-79.8519 -99.4244 78.0107 -79.3212 -100.124 77.3619 -78.9383 -100.816 76.6579 
-86.3111 -89.6726 72.012 -86.2322 -88.6905 72.2339 -85.5664 -89.9122 73.024 
-85.6551 -87.624 72.3571 -85.3561 -88.8244 73.1608 -84.7694 -90.2138 74.1589 
-84.9419 -86.6234 72.6341 -84.7974 -87.7027 73.3918 -84.5388 -89.0922 74.3595 
-84.3702 -90.7087 75.5826 -84.2327 -85.6892 72.9974 -84.1429 -86.8856 73.695 
-84.0881 -88.0581 74.6715 -84.179 -89.549 75.9335 -84.2368 -91.1341 77.1749 
-83.484 -84.8836 73.2131 -83.3925 -86.2433 73.8421 -83.4897 -87.4547 74.8352 
-83.6773 -88.6006 76.0958 -83.8525 -89.9212 77.3929 -83.6952 -91.3642 78.3523 
-82.7166 -84.3016 73.4404 -82.6456 -85.5582 74.0284 -82.7444 -86.8747 74.9369 
-82.965 -88.0331 76.0966 -83.1384 -89.0517 77.3056 -83.1317 -90.298 78.3794 
-82.7708 -91.821 79.1275 -82.0106 -83.9246 73.857 -82.008 -84.9468 74.49 
-82.0701 -86.1082 75.2945 -82.2441 -87.379 76.3092 -82.4188 -88.4728 77.3725 
-82.5158 -89.5462 78.4331 -82.4079 -90.9729 79.3815 -82.0233 -92.5878 80.0564 
-80.8525 -84.0277 75.4753 -80.3481 -84.3531 76.5791 -80.973 -84.926 76.1242 
-79.9076 -84.8206 77.7247 -80.5953 -85.4381 77.2345 -81.1953 -85.9629 76.9777 
-79.316 -85.7217 78.9445 -80.1516 -86.1464 78.631 -80.8699 -86.6609 78.3723 
-81.4167 -87.225 78.1251 -78.5157 -87.0384 79.9079 -79.4524 -87.0901 80.0065 
-80.2991 -87.4517 79.886 -81.0005 -87.9672 79.6227 -81.5655 -88.4777 79.2327 
-77.7141 -88.4691 80.5751 -78.6128 -88.3549 80.8887 -79.4514 -88.4682 80.9825 
-80.1842 -88.8795 80.7876 -80.9652 -89.3277 80.5331 -81.6516 -89.7575 80.2291 
-76.9947 -89.8201 81.2773 -77.7787 -89.7646 81.64 -78.5953 -89.7761 81.8466 
-79.2344 -90.0738 81.6836 -79.9587 -90.4808 81.3936 -80.8788 -90.838 81.3104 
[...]
POINT_DATA 1002
FIELD FieldData 2
Theta 1 1002 float
2.58802 2.58802 0.553574 0.553574 2.12437 1.01722 2.12437 1.01722 1.5708 
1.5708 1.5708 1.5708 2.68241 2.78649 2.89924 3.01861 3.14159 3.01861 
2.89924 2.78649 2.68241 2.61035 2.61791 2.60515 2.56958 2.51327 2.44184 
2.36202 2.27983 2.1997 2.61035 2.61791 2.60515 2.56958 2.51327 2.44184 
2.36202 2.27983 2.1997 2.50947 2.41899 2.31794 2.20864 2.0944 1.97902 
1.86631 1.75944 1.66056 2.50947 2.41899 2.31794 2.20864 2.0944 1.97902 
1.86631 1.75944 1.66056 2.61035 2.61791 2.60515 2.56958 2.51327 2.44184 
2.36202 2.27983 2.1997 2.61035 2.61791 2.60515 2.56958 2.51327 2.44184 
2.36202 2.27983 2.1997 2.50947 2.41899 2.31794 2.20864 2.0944 1.97902 
1.86631 1.75944 1.66056 2.50947 2.41899 2.31794 2.20864 2.0944 1.97902 
1.86631 1.75944 1.66056 0.459179 0.355101 0.242354 0.122983 0 0.122983 
0.242354 0.355101 0.459179 0.531246 0.523681 0.536438 0.57201 0.628319 0.699757 
0.779574 0.86176 0.941896 0.531246 0.523681 0.536438 0.57201 0.628319 0.699757 
0.779574 0.86176 0.941896 0.632123 0.7226 0.823657 0.932948 1.0472 1.16257 
1.27528 1.38216 1.48103 0.632123 0.7226 0.823657 0.932948 1.0472 1.16257 
1.27528 1.38216 1.48103 0.531246 0.523681 0.536438 0.57201 0.628319 0.699757 
0.779574 0.86176 0.941896 0.531246 0.523681 0.536438 0.57201 0.628319 0.699757 
0.779574 0.86176 0.941896 0.632123 0.7226 0.823657 0.932948 1.0472 1.16257 
1.27528 1.38216 1.48103 0.632123 0.7226 0.823657 0.932948 1.0472 1.16257 
1.27528 1.38216 1.48103 2.02998 1.9259 1.81315 1.69378 1.5708 1.44781 
1.32844 1.2157 1.11162 2.0928 2.05283 2.00422 1.94767 1.88496 1.81867 
1.75177 1.68695 1.62623 2.0928 2.05283 2.00422 1.94767 1.88496 1.81867 
1.75177 1.68695 1.62623 1.0488 1.08876 1.13737 1.19392 1.25664 1.32292 
1.38982 1.45464 1.51537 1.0488 1.08876 1.13737 1.19392 1.25664 1.32292 
1.38982 1.45464 1.51537 2.02998 1.9259 1.81315 1.69378 1.5708 1.44781 
1.32844 1.2157 1.11162 2.0928 2.05283 2.00422 1.94767 1.88496 1.81867 
1.75177 1.68695 1.62623 2.0928 2.05283 2.00422 1.94767 1.88496 1.81867 
1.75177 1.68695 1.62623 1.0488 1.08876 1.13737 1.19392 1.25664 1.32292 
1.38982 1.45464 1.51537 1.0488 1.08876 1.13737 1.19392 1.25664 1.32292 
1.38982 1.45464 1.51537 1.5708 1.5708 1.5708 1.5708 1.5708 1.5708 
1.5708 1.5708 1.5708 1.5708 1.5708 1.5708 1.5708 1.5708 1.5708 
1.5708 1.5708 1.5708 2.70908 2.71362 2.81592 2.68886 2.81002 2.92597 
2.6349 2.76254 2.89233 3.01997 2.55881 2.68262 2.80854 2.92834 3.01997 
2.47007 2.58462 2.70048 2.80854 2.89233 2.92597 2.37702 2.48017 2.58462 
2.68262 2.76254 2.81002 2.81592 2.28567 2.37702 2.47007 2.55881 2.6349 
2.68886 2.71362 2.70908 2.52097 2.4195 2.51718 2.30791 2.40503 2.49426 
2.18928 2.28408 2.3734 2.45144 2.06758 2.15805 2.24572 2.32523 2.39165 
1.94707 2.03138 2.11543 2.19453 2.26401 2.32035 1.83164 1.90847 1.98711 
2.06376 2.13422 2.1949 2.24359 1.72413 1.79288 1.86489 1.93728 2.00658 
2.06938 2.12312 2.16654 1.5708 1.50988 1.63171 1.44492 1.5708 1.69667 
1.37826 1.5059 1.63569 1.76333 1.31281 1.43962 1.5708 1.70197 1.82878 
1.25155 1.37501 1.50478 1.63681 1.76659 1.89004 1.19686 1.31493 1.44074 
1.5708 1.70086 1.82666 1.94473 1.15011 1.26149 1.38136 1.50697 1.63462 
1.76024 1.88011 1.99148 1.99148 1.88011 1.94473 1.76024 1.82666 1.89004 
1.63462 1.70086 1.76659 1.82878 1.50697 1.5708 1.63681 1.70197 1.76333 
1.38136 1.44074 1.50478 1.5708 1.63569 1.69667 1.26149 1.31493 1.37501 
1.43962 1.5059 1.5708 1.63171 1.15011 1.19686 1.25155 1.31281 1.37826 
1.44492 1.50988 1.5708 2.16654 2.12312 2.24359 2.06938 2.1949 2.32035 
2.00658 2.13422 2.26401 2.39165 1.93728 2.06376 2.19453 2.32523 2.45144 
1.86489 1.98711 2.11543 2.24572 2.3734 2.49426 1.79288 1.90847 2.03138 
2.15805 2.28408 2.40503 2.51718 1.72413 1.83164 1.94707 2.06758 2.18928 
2.30791 2.4195 2.52097 1.66533 1.66946 1.76911 1.67254 1.777 1.88041 
1.67418 1.78222 1.89102 1.99634 1.67418 1.78405 1.89674 2.00785 2.11299 
1.67254 1.78222 1.89674 2.01191 2.12307 2.22608 1.66946 1.777 1.89102 
2.00785 2.12307 2.23222 2.33166 1.66533 1.76911 1.88041 1.99634 2.11299 
2.22608 2.33166 2.42672 1.47626 1.37249 1.47213 1.26118 1.36459 1.46906 
1.14526 1.25058 1.35938 1.46741 1.0286 1.13374 1.24485 1.35755 1.46741 
0.915514 1.01852 1.12969 1.24485 1.35938 1.46906 0.809937 0.909371 1.01852 
1.13374 1.25058 1.36459 1.47213 0.714871 0.809937 0.915514 1.0286 1.14526 
1.26118 1.37249 1.47626 0.975055 0.898002 1.01847 0.821245 0.946693 1.07221 
0.749941 0.877585 1.00737 1.13501 0.690152 0.816367 0.94706 1.07784 1.20431 
0.647337 0.768195 0.895868 1.02616 1.15448 1.2767 0.624416 0.736561 0.857515 
0.983547 1.11021 1.23313 1.34871 0.620619 0.722093 0.833684 0.952313 1.07402 
1.19452 1.30996 1.41746 0.855925 0.764569 0.764569 0.671524 0.661425 0.671524 
0.582786 0.556971 0.556971 0.582786 0.506696 0.458968 0.441109 0.458968 0.506696 
0.45273 0.379052 0.333054 0.333054 0.379052 0.45273 0.427969 0.331576 0.249267 
0.21325 0.249267 0.331576 0.427969 0.432512 0.325669 0.215619 0.121622 0.121622 
0.215619 0.325669 0.432512 0.432512 0.427969 0.325669 0.45273 0.331576 0.215619 
0.506696 0.379052 0.249267 0.121622 0.582786 0.458968 0.333054 0.21325 0.121622 
0.671524 0.556971 0.441109 0.333054 0.249267 0.215619 0.764569 0.661425 0.556971 
0.458968 0.379052 0.331576 0.325669 0.855925 0.764569 0.671524 0.582786 0.506696 
0.45273 0.427969 0.432512 0.975055 1.01847 0.898002 1.07221 0.946693 0.821245 
1.13501 1.00737 0.877585 0.749941 1.20431 1.07784 0.94706 0.816367 0.690152 
1.2767 1.15448 1.02616 0.895868 0.768195 0.647337 1.34871 1.23313 1.11021 
0.983547 0.857515 0.736561 0.624416 1.41746 1.30996 1.19452 1.07402 0.952313 
0.833684 0.722093 0.620619 1.15011 1.26149 1.19686 1.38136 1.31493 1.25155 
1.50697 1.44074 1.37501 1.31281 1.63462 1.5708 1.50478 1.43962 1.37826 
1.76024 1.70086 1.63681 1.5708 1.5059 1.44492 1.88011 1.82666 1.76659 
1.70197 1.63569 1.5708 1.50988 1.99148 1.94473 1.89004 1.82878 1.76333 
1.69667 1.63171 1.5708 1.15011 1.19686 1.26149 1.25155 1.31493 1.38136 
1.31281 1.37501 1.44074 1.50697 1.37826 1.43962 1.50478 1.5708 1.63462 
1.44492 1.5059 1.5708 1.63681 1.70086 1.76024 1.50988 1.5708 1.63569 
1.70197 1.76659 1.82666 1.88011 1.5708 1.63171 1.69667 1.76333 1.82878 
1.89004 1.94473 1.99148 1.72413 1.83164 1.79288 1.94707 1.90847 1.86489 
2.06758 2.03138 1.98711 1.93728 2.18928 2.15805 2.11543 2.06376 2.00658 
2.30791 2.28408 2.24572 2.19453 2.13422 2.06938 2.4195 2.40503 2.3734 
2.32523 2.26401 2.1949 2.12312 2.52097 2.51718 2.49426 2.45144 2.39165 
2.32035 2.24359 2.16654 2.70908 2.81592 2.71362 2.92597 2.81002 2.68886 
3.01997 2.89233 2.76254 2.6349 3.01997 2.92834 2.80854 2.68262 2.55881 
2.92597 2.89233 2.80854 2.70048 2.58462 2.47007 2.81592 2.81002 2.76254 
2.68262 2.58462 2.48017 2.37702 2.70908 2.71362 2.68886 2.6349 2.55881 
2.47007 2.37702 2.28567 2.16654 2.24359 2.12312 2.32035 2.1949 2.06938 
2.39165 2.26401 2.13422 2.00658 2.45144 2.32523 2.19453 2.06376 1.93728 
2.49426 2.3734 2.24572 2.11543 1.98711 1.86489 2.51718 2.40503 2.28408 
2.15805 2.03138 1.90847 1.79288 2.52097 2.4195 2.30791 2.18928 2.06758 
1.94707 1.83164 1.72413 1.66533 1.76911 1.66946 1.88041 1.777 1.67254 
1.99634 1.89102 1.78222 1.67418 2.11299 2.00785 1.89674 1.78405 1.67418 
2.22608 2.12307 2.01191 1.89674 1.78222 1.67254 2.33166 2.23222 2.12307 
2.00785 1.89102 1.777 1.66946 2.42672 2.33166 2.22608 2.11299 1.99634 
1.88041 1.76911 1.66533 1.47626 1.47213 1.37249 1.46906 1.36459 1.26118 
1.46741 1.35938 1.25058 1.14526 1.46741 1.35755 1.24485 1.13374 1.0286 
1.46906 1.35938 1.24485 1.12969 1.01852 0.915514 1.47213 1.36459 1.25058 
1.13374 1.01852 0.909371 0.809937 1.47626 1.37249 1.26118 1.14526 1.0286 
0.915514 0.809937 0.714871 1.41746 1.30996 1.34871 1.19452 1.23313 1.2767 
1.07402 1.11021 1.15448 1.20431 0.952313 0.983547 1.02616 1.07784 1.13501 
0.833684 0.857515 0.895868 0.94706 1.00737 1.07221 0.722093 0.736561 0.768195 
0.816367 0.877585 0.946693 1.01847 0.620619 0.624416 0.647337 0.690152 0.749941 
0.821245 0.898002 0.975055 0.975055 0.898002 1.01847 0.821245 0.946693 1.07221 
0.749941 0.877585 1.00737 1.13501 0.690152 0.816367 0.94706 1.07784 1.20431 
0.647337 0.768195 0.895868 1.02616 1.15448 1.2767 0.624416 0.736561 0.857515 
0.983547 1.11021 1.23313 1.34871 0.620619 0.722093 0.833684 0.952313 1.07402 
1.19452 1.30996 1.41746 
Phi 1 1002 float
6.28319 3.14159 6.28319 3.14159 4.71239 4.71239 1.5708 1.5708 3.69517 
5.72961 2.58802 0.553574 6.28319 6.28319 6.28319 6.28319 3.14159 3.14159 
3.14159 3.14159 3.14159 6.1053 5.8988 5.67687 5.45995 5.26596 5.10322 
4.97131 4.86569 4.78095 0.177881 0.384387 0.606312 0.823235 1.01722 1.17997 
1.31187 1.4175 1.50223 6.18928 6.10703 6.03531 5.97283 5.91832 5.87061 
5.82869 5.79168 5.75886 0.0939024 0.176153 0.247873 0.310351 0.364864 0.412573 
0.454497 0.491504 0.524326 3.31947 3.52598 3.7479 3.96483 4.15881 4.32156 
4.45346 4.55909 4.64383 2.96371 2.75721 2.53528 2.31836 2.12437 1.96162 
1.82972 1.72409 1.63936 3.2355 3.31775 3.38947 3.45194 3.50646 3.55417 
3.59609 3.6331 3.66592 3.04769 2.96544 2.89372 2.83124 2.77673 2.72902 
2.6871 2.65009 2.61727 6.28319 6.28319 6.28319 6.28319 3.14159 3.14159 
3.14159 3.14159 3.14159 6.1053 5.8988 5.67687 5.45995 5.26596 5.10322 
4.97131 4.86569 4.78095 0.177881 0.384387 0.606312 0.823235 1.01722 1.17997 
1.31187 1.4175 1.50223 6.18928 6.10703 6.03531 5.97283 5.91832 5.87061 
5.82869 5.79168 5.75886 0.0939024 0.176153 0.247873 0.310351 0.364864 0.412573 
0.454497 0.491504 0.524326 3.31947 3.52598 3.7479 3.96483 4.15881 4.32156 
4.45346 4.55909 4.64383 2.96371 2.75721 2.53528 2.31836 2.12437 1.96162 
1.82972 1.72409 1.63936 3.2355 3.31775 3.38947 3.45194 3.50646 3.55417 
3.59609 3.6331 3.66592 3.04769 2.96544 2.89372 2.83124 2.77673 2.72902 
2.6871 2.65009 2.61727 4.71239 4.71239 4.71239 4.71239 4.71239 4.71239 
4.71239 4.71239 4.71239 4.60879 4.49914 4.3857 4.27128 4.15881 4.05096 
3.94976 3.85646 3.77161 4.81599 4.92564 5.03907 5.1535 5.26596 5.37381 
5.47502 5.56831 5.65317 4.60879 4.49914 4.3857 4.27128 4.15881 4.05096 
3.94976 3.85646 3.77161 4.81599 4.92564 5.03907 5.1535 5.26596 5.37381 
5.47502 5.56831 5.65317 1.5708 1.5708 1.5708 1.5708 1.5708 1.5708 
1.5708 1.5708 1.5708 1.6744 1.78405 1.89748 2.01191 2.12437 2.23222 
2.33343 2.42672 2.51157 1.4672 1.35755 1.24411 1.12969 1.01722 0.909371 
0.808166 0.714871 0.63002 1.6744 1.78405 1.89748 2.01191 2.12437 2.23222 
2.33343 2.42672 2.51157 1.4672 1.35755 1.24411 1.12969 1.01722 0.909371 
0.808166 0.714871 0.63002 3.60077 3.49669 3.38395 3.26458 3.14159 3.01861 
2.89924 2.78649 2.68241 5.82401 5.92808 6.04083 6.1602 6.28319 0.122983 
0.242354 0.355101 0.459179 6.05603 5.78856 5.97021 5.51259 5.60297 5.78856 
5.26596 5.26596 5.26596 5.26596 5.06749 5.0121 4.91556 4.71239 4.15881 
4.91556 4.83537 4.71239 4.50922 4.15881 3.63622 4.80045 4.71239 4.58941 
4.41268 4.15881 3.82181 3.45456 4.71239 4.62433 4.50922 4.35729 4.15881 
3.91219 3.63622 3.36875 6.01742 5.94343 5.82633 5.88092 5.76745 5.62798 
5.8278 5.71897 5.58911 5.43724 5.78235 5.67854 5.55757 5.41926 5.26596 
5.74316 5.64441 5.5315 5.40467 5.26596 5.11955 5.70914 5.61528 5.50962 
5.3926 5.26596 5.13292 4.99789 5.67937 5.59016 5.49102 5.38246 5.26596 
5.14407 5.02016 4.89798 5.56831 5.47502 5.47502 5.37381 5.37381 5.37381 
5.26596 5.26596 5.26596 5.26596 5.1535 5.1535 5.1535 5.1535 5.1535 
5.03907 5.03907 5.03907 5.03907 5.03907 5.03907 4.92564 4.92564 4.92564 
4.92564 4.92564 4.92564 4.92564 4.81599 4.81599 4.81599 4.81599 4.81599 
4.81599 4.81599 4.81599 4.60879 4.60879 4.49914 4.60879 4.49914 4.3857 
4.60879 4.49914 4.3857 4.27128 4.60879 4.49914 4.3857 4.27128 4.15881 
4.60879 4.49914 4.3857 4.27128 4.15881 4.05096 4.60879 4.49914 4.3857 
4.27128 4.15881 4.05096 3.94976 4.60879 4.49914 4.3857 4.27128 4.15881 
4.05096 3.94976 3.85646 4.5268 4.40462 4.42689 4.28071 4.29185 4.30523 
4.15881 4.15881 4.15881 4.15881 4.04232 4.03217 4.02011 4.00552 3.98753 
3.93376 3.91515 3.89328 3.86721 3.83566 3.7968 3.83461 3.8095 3.78037 
3.74624 3.70581 3.65733 3.59845 3.7454 3.71564 3.68161 3.64243 3.59698 
3.54386 3.48135 3.40735 3.56428 3.45246 3.52338 3.33203 3.40312 3.47739 
3.20576 3.27463 3.34802 3.42551 3.07742 3.14159 3.21128 3.28647 3.36688 
2.95116 3.00855 3.0719 3.14159 3.21784 3.3006 2.83072 2.88006 2.93517 
2.99672 3.06535 3.14159 3.22575 2.7189 2.7598 2.8058 2.85768 2.9163 
2.98259 3.05743 3.14159 3.56428 3.52338 3.45246 3.47739 3.40312 3.33203 
3.42551 3.34802 3.27463 3.20576 3.36688 3.28647 3.21128 3.14159 3.07742 
3.3006 3.21784 3.14159 3.0719 3.00855 2.95116 3.22575 3.14159 3.06535 
2.99672 2.93517 2.88006 2.83072 3.14159 3.05743 2.98259 2.9163 2.85768 
2.8058 2.7598 2.7189 4.5268 4.42689 4.40462 4.30523 4.29185 4.28071 
4.15881 4.15881 4.15881 4.15881 3.98753 4.00552 4.02011 4.03217 4.04232 
3.7968 3.83566 3.86721 3.89328 3.91515 3.93376 3.59845 3.65733 3.70581 
3.74624 3.78037 3.8095 3.83461 3.40735 3.48135 3.54386 3.59698 3.64243 
3.68161 3.71564 3.7454 4.71239 4.80045 4.62433 4.91556 4.71239 4.50922 
5.06749 4.83537 4.58941 4.35729 5.26596 5.0121 4.71239 4.41268 4.15881 
5.51259 5.26596 4.91556 4.50922 4.15881 3.91219 5.78856 5.60297 5.26596 
4.71239 4.15881 3.82181 3.63622 6.05603 5.97021 5.78856 5.26596 4.15881 
3.63622 3.45456 3.36875 0.227158 0.494626 0.312971 0.770593 0.680215 0.494626 
1.01722 1.01722 1.01722 1.01722 1.2157 1.27109 1.36763 1.5708 2.12437 
1.36763 1.44781 1.5708 1.77397 2.12437 2.64697 1.48273 1.5708 1.69378 
1.8705 2.12437 2.46138 2.82862 1.5708 1.65886 1.77397 1.9259 2.12437 
2.371 2.64697 2.91443 1.75639 1.87857 1.8563 2.00248 1.99133 1.97796 
2.12437 2.12437 2.12437 2.12437 2.24087 2.25101 2.26308 2.27767 2.29565 
2.34943 2.36803 2.38991 2.41597 2.44752 2.48639 2.44857 2.47368 2.50281 
2.53694 2.57738 2.62586 2.68474 2.53778 2.56754 2.60157 2.64076 2.68621 
2.73933 2.80184 2.87583 1.6744 1.6744 1.78405 1.6744 1.78405 1.89748 
1.6744 1.78405 1.89748 2.01191 1.6744 1.78405 1.89748 2.01191 2.12437 
1.6744 1.78405 1.89748 2.01191 2.12437 2.23222 1.6744 1.78405 1.89748 
2.01191 2.12437 2.23222 2.33343 1.6744 1.78405 1.89748 2.01191 2.12437 
2.23222 2.33343 2.42672 1.4672 1.35755 1.4672 1.24411 1.35755 1.4672 
1.12969 1.24411 1.35755 1.4672 1.01722 1.12969 1.24411 1.35755 1.4672 
0.909371 1.01722 1.12969 1.24411 1.35755 1.4672 0.808166 0.909371 1.01722 
1.12969 1.24411 1.35755 1.4672 0.714871 0.808166 0.909371 1.01722 1.12969 
1.24411 1.35755 1.4672 0.603812 0.57405 0.693022 0.540021 0.667908 0.792164 
0.500837 0.638778 0.773562 0.900726 0.455383 0.604649 0.751687 0.890581 1.01722 
0.402264 0.564217 0.725619 0.878514 1.01722 1.13912 0.339753 0.515737 0.694072 
0.863926 1.01722 1.15026 1.26302 0.265762 0.456853 0.655207 0.845941 1.01722 
1.16363 1.28529 1.38521 0.227158 0.312971 0.494626 0.494626 0.680215 0.770593 
1.01722 1.01722 1.01722 1.01722 2.12437 1.5708 1.36763 1.27109 1.2157 
2.64697 2.12437 1.77397 1.5708 1.44781 1.36763 2.82862 2.46138 2.12437 
1.8705 1.69378 1.5708 1.48273 2.91443 2.64697 2.371 2.12437 1.9259 
1.77397 1.65886 1.5708 1.75639 1.8563 1.87857 1.97796 1.99133 2.00248 
2.12437 2.12437 2.12437 2.12437 2.29565 2.27767 2.26308 2.25101 2.24087 
2.48639 2.44752 2.41597 2.38991 2.36803 2.34943 2.68474 2.62586 2.57738 
2.53694 2.50281 2.47368 2.44857 2.87583 2.80184 2.73933 2.68621 2.64076 
2.60157 2.56754 2.53778 5.86049 5.90139 5.97231 5.94739 6.02165 6.09275 
5.99927 6.07676 6.15015 6.21902 6.0579 6.13831 6.2135 0 0.0641696 
6.12418 6.20694 6.28319 0.069689 0.13304 0.190437 6.19903 0 0.0762451 
0.144876 0.206423 0.261531 0.310872 0 0.0841597 0.159004 0.225289 0.283913 
0.335793 0.381792 0.422692 5.86049 5.97231 5.90139 6.09275 6.02165 5.94739 
6.21902 6.15015 6.07676 5.99927 0.0641696 0 6.2135 6.13831 6.0579 
0.190437 0.13304 0.069689 6.28319 6.20694 6.12418 0.310872 0.261531 0.206423 
0.144876 0.0762451 6.28319 6.19903 0.422692 0.381792 0.335793 0.283913 0.225289 
0.159004 0.0841597 0 5.67937 5.70914 5.59016 5.74316 5.61528 5.49102 
5.78235 5.64441 5.50962 5.38246 5.8278 5.67854 5.5315 5.3926 5.26596 
5.88092 5.71897 5.55757 5.40467 5.26596 5.14407 5.94343 5.76745 5.58911 
5.41926 5.26596 5.13292 5.02016 6.01742 5.82633 5.62798 5.43724 5.26596 
5.11955 4.99789 4.89798 1.38521 1.28529 1.26302 1.16363 1.15026 1.13912 
1.01722 1.01722 1.01722 1.01722 0.845941 0.863926 0.878514 0.890581 0.900726 
0.655207 0.694072 0.725619 0.751687 0.773562 0.792164 0.456853 0.515737 0.564217 
0.604649 0.638778 0.667908 0.693022 0.265762 0.339753 0.402264 0.455383 0.500837 
0.540021 0.57405 0.603812 
