# vtk DataFile Version 4.0
vtk output
ASCII
DATASET POLYDATA
POINTS 1002 float
-85.1759 -91.999 68.8129 -79.3723 -104.446 74.519 -76.029 -88.2282 69.5962 
-72.687 -103.297 73.7287 -81.3541 -96.117 79.3272 -75.7977 -93.6698 79.0377 
-79.7729 -97.9542 66.4166 -74.9079 -97.9886 66.551 -75.4727 -108.246 80.5379 
-81.6851 -84.8174 72.2026 -74.8064 -112.904 69.535 -82.857 -87.1196 62.0012 
-84.7162 -92.9456 69.2396 -84.1037 -93.9237 69.92 -83.1862 -94.7527 70.8831 
-82.1254 -95.7315 71.7853 -81.4872 -97.3286 72.4354 -81.2177 -99.1965 73.0005 
-80.7475 -100.72 73.5205 -80.1429 -102.005 73.9263 -79.7118 -103.282 74.2525 
-84.8067 -92.0969 69.8708 -84.3822 -92.2647 70.9379 -84.2084 -92.6304 72.1568 
-84.3651 -93.1167 73.6419 -84.2127 -93.4959 74.9431 -83.4469 -93.8121 75.8378 
-82.7153 -94.2625 76.8153 -82.3119 -94.8693 77.9246 -81.8964 -95.5325 78.7674 
-85.2315 -92.4144 68.0904 -85.1379 -92.8347 67.5015 -84.7353 -93.4037 66.899 
-84.1701 -94.0756 66.3148 -83.5569 -94.6307 66.0342 -82.7531 -95.1906 65.9958 
-81.9129 -95.9752 65.9537 -81.2388 -96.7774 65.9962 -80.5522 -97.3887 66.2001 
-85.4053 -91.1732 69.1357 -85.6035 -90.3095 69.4844 -85.4871 -89.3559 69.6577 
-84.9465 -88.3513 69.7169 -84.3187 -87.4973 69.9536 -83.7896 -86.7548 70.3627 
-83.1919 -85.9776 70.7362 -82.5641 -85.3528 71.1152 -82.0789 -85.02 71.6163 
-85.5564 -91.4394 67.8259 -85.8389 -90.971 66.6331 -86.2194 -90.5269 65.4787 
-86.6564 -89.935 64.6045 -86.5446 -89.2906 64.0181 -85.6539 -88.9034 63.6328 
-84.6446 -88.5753 63.218 -83.9837 -87.9588 62.6093 -83.4705 -87.3406 62.0959 
-79.6781 -103.993 75.0469 -80.0382 -103.464 75.6189 -80.4419 -102.91 76.3887 
-80.8636 -102.317 77.243 -81.2357 -101.467 77.9209 -81.4933 -100.3 78.5141 
-81.5973 -99.1138 79.0642 -81.5432 -98.0854 79.3106 -81.4234 -97.1065 79.2989 
-79.2607 -104.122 73.7936 -79.0055 -103.592 73.0577 -78.7204 -102.924 72.4156 
-78.5962 -102.23 71.7477 -78.6142 -101.517 70.8447 -78.7058 -100.785 69.842 
-78.9403 -100.056 68.9541 -79.2752 -99.3073 68.1124 -79.5628 -98.5773 67.246 
-79.1181 -105.211 75.1166 -78.8258 -105.985 75.7922 -78.6844 -106.911 76.571 
-78.5826 -107.8 77.4099 -78.2068 -108.233 78.1835 -77.6576 -108.301 78.8541 
-77.1483 -108.442 79.5282 -76.5563 -108.626 80.1799 -75.9104 -108.573 80.5624 
-78.9768 -105.435 74.2428 -78.623 -106.657 73.8048 -78.2792 -108.023 73.3375 
-77.7132 -109.062 73.0311 -76.9397 -109.769 72.7349 -76.3747 -110.77 72.1444 
-76.1204 -111.883 71.4379 -75.8398 -112.464 70.856 -75.3617 -112.683 70.2439 
-75.547 -89.3871 69.9659 -75.1102 -90.8562 70.2961 -74.7186 -92.2975 70.5295 
-74.3437 -93.6769 70.9426 -73.8378 -95.2045 71.6974 -73.2239 -96.8214 72.4491 
-72.8184 -98.4658 72.9736 -72.6938 -100.201 73.3611 -72.6644 -101.875 73.6149 
-75.8278 -88.3118 70.3937 -75.6845 -88.578 71.3376 -75.6675 -89.0723 72.3705 
-75.7232 -89.686 73.3704 -75.7478 -90.2703 74.3916 -75.7424 -90.8369 75.514 
-75.7581 -91.527 76.5844 -75.7852 -92.3317 77.4775 -75.7955 -93.0735 78.2711 
-75.8526 -88.849 69.0147 -75.5738 -89.5945 68.4238 -75.3357 -90.424 67.9696 
-75.2705 -91.3691 67.6698 -75.2342 -92.3946 67.371 -75.0561 -93.3594 66.9699 
-74.9003 -94.327 66.6137 -74.9018 -95.4767 66.4812 -74.9297 -96.7561 66.5089 
-76.4248 -87.415 69.7164 -76.8597 -86.6851 69.8685 -77.4023 -85.8282 70.1168 
-78.03 -85.0241 70.3678 -78.5958 -84.4629 70.5687 -79.1643 -83.9027 70.9289 
-79.9069 -83.5545 71.4136 -80.6827 -83.8297 71.754 -81.2777 -84.3947 71.9739 
-76.5513 -87.7041 68.9204 -77.2107 -87.2838 68.1858 -77.8919 -86.887 67.3394 
-78.5894 -86.4547 66.3994 -79.4124 -86.0463 65.455 -80.2109 -85.8904 64.6536 
-80.8318 -86.0953 64.0071 -81.4785 -86.4387 63.3175 -82.2222 -86.744 62.5695 
-72.8613 -102.339 74.3574 -73.0985 -101.422 74.9121 -73.3124 -100.561 75.5069 
-73.3984 -99.5022 76.3209 -73.572 -98.2574 77.0733 -74.1001 -97.2238 77.4398 
-74.739 -96.4323 77.7184 -75.1807 -95.5489 78.2 -75.4934 -94.5507 78.7049 
-72.5414 -103.418 72.9864 -72.4703 -103.44 72.1714 -72.3761 -103.177 71.2422 
-72.313 -102.663 70.1716 -72.5219 -102.065 69.2332 -72.845 -101.362 68.4641 
-73.0103 -100.565 67.6147 -73.348 -99.7771 66.9542 -74.0991 -98.9305 66.7274 
-72.9276 -104.104 74.1932 -73.3029 -105.08 74.6638 -73.6116 -105.95 75.207 
-73.6197 -106.492 76.0676 -73.4603 -107.005 77.278 -73.578 -107.61 78.2053 
-74.1018 -108.053 78.5707 -74.6917 -108.318 78.9997 -75.1058 -108.421 79.786 
-72.639 -104.61 73.3871 -72.5849 -105.795 73.0879 -72.6011 -107.214 72.719 
-72.755 -109.078 72.1391 -72.9212 -110.668 71.5329 -73.0298 -111.618 71.0748 
-73.2436 -112.492 70.5646 -73.6655 -113.238 69.9746 -74.2241 -113.334 69.5993 
-81.0341 -95.7824 79.7997 -80.7656 -95.3469 80.3711 -80.2964 -94.8625 80.6959 
-79.4749 -94.4852 80.7311 -78.5598 -94.2686 80.8897 -77.7402 -94.06 81.1473 
-76.9814 -93.8004 80.9957 -76.384 -93.6137 80.3875 -76.0223 -93.5768 79.6776 
-80.7715 -97.1829 79.7586 -80.213 -98.1744 80.275 -79.7271 -99.2386 80.8313 
-79.1993 -100.484 81.2859 -78.6049 -101.863 81.6806 -77.9886 -103.284 81.9997 
-77.3057 -104.648 82.0642 -76.5807 -105.938 81.8071 -75.9456 -107.175 81.2665 
-81.6303 -94.7228 79.0489 -81.747 -93.2561 78.49 -81.7433 -91.9175 77.6543 
-81.7359 -90.6834 76.811 -81.6904 -89.4405 76.0267 -81.6799 -88.1837 75.2377 
-81.8304 -86.9306 74.594 -81.9419 -85.8613 74.0109 -81.8489 -85.2002 73.1929 
-75.6451 -94.771 79.5883 -75.6027 -96.2348 79.9077 -75.5743 -97.9576 80.1175 
-75.4339 -99.3913 80.4805 -75.3849 -100.632 80.6836 -75.6012 -102.328 80.5006 
-75.7995 -104.284 80.4458 -75.7271 -105.904 80.6643 -75.5356 -107.166 80.7363 
-76.0968 -92.4845 78.7699 -76.3195 -91.0219 78.5739 -76.6318 -89.4155 78.5243 
-77.3514 -88.1626 78.1786 -78.2274 -87.2916 77.2109 -78.9064 -86.3377 76.1501 
-79.6784 -85.3904 75.4309 -80.6079 -84.888 74.6498 -81.2993 -84.805 73.4828 
-79.399 -98.0257 66.0395 -79.0559 -98.1915 65.6369 -78.6757 -98.3961 65.2452 
-78.0602 -98.5113 65.0217 -77.2099 -98.5396 64.9712 -76.3496 -98.5171 64.9725 
-75.7319 -98.3936 65.1719 -75.434 -98.2233 65.691 -75.2379 -98.1016 66.2454 
-78.96 -99.2422 66.9437 -78.4488 -101.253 67.1793 -78.0899 -103.502 67.3586 
-77.3775 -105.239 67.7388 -76.459 -106.645 68.1006 -75.9728 -108.331 68.1596 
-75.8196 -110.049 68.1573 -75.5621 -111.318 68.4207 -75.1863 -112.198 68.9279 
-80.5002 -97.0853 65.3907 -81.2275 -96.1473 64.2832 -81.7802 -94.9435 63.2801 
-82.2205 -93.7709 62.2614 -82.6815 -92.8558 61.2734 -83.0105 -91.8053 60.7689 
-83.0689 -90.4199 60.8393 -83.0197 -89.0484 61.1401 -82.9756 -87.9564 61.5132 
-74.5114 -99.8569 66.7411 -74.3135 -101.812 66.8996 -74.1723 -103.727 66.9493 
-73.8148 -105.703 66.7007 -73.4714 -107.795 66.2857 -73.544 -109.732 66.1521 
-73.88 -111.225 66.5135 -74.2007 -112.185 67.3121 -74.4988 -112.675 68.3984 
-75.5769 -96.318 66.0065 -76.1394 -94.8558 65.1182 -76.8201 -93.6754 64.344 
-77.8565 -92.4972 63.8603 -78.9524 -91.2296 63.2778 -79.7377 -90.1521 62.6293 
-80.4259 -89.3111 62.2643 -81.2886 -88.4901 62.0664 -82.1736 -87.7013 61.9248 
-75.3201 -109.443 79.8872 -75.3592 -110.565 79.236 -75.4278 -111.615 78.2944 
-75.2742 -112.773 76.9842 -75.0313 -113.967 75.8422 -74.9096 -114.69 74.8715 
-74.8265 -114.647 73.5267 -74.7562 -114.099 71.9804 -74.7626 -113.458 70.6546 
-81.8845 -84.4693 70.9302 -82.3124 -83.8918 69.9271 -82.8217 -83.2922 68.9131 
-83.219 -82.8153 67.469 -83.4998 -82.5353 65.9079 -83.598 -82.8649 64.7688 
-83.4434 -83.9681 63.995 -83.2135 -85.282 63.2887 -83.0442 -86.3226 62.5826 
-84.2984 -93.1589 70.3286 -83.9977 -93.3988 71.5601 -83.6814 -94.1776 71.1395 
-84.0328 -93.7667 72.9891 -83.3616 -94.4333 72.4701 -82.7201 -95.0414 72.1137 
-84.0234 -94.1946 74.3724 -83.2063 -94.8327 73.8003 -82.3286 -95.4767 73.3515 
-81.8388 -96.3223 72.8594 -83.4201 -94.6283 75.419 -82.8622 -95.3973 74.8916 
-82.1161 -96.1979 74.51 -81.7187 -97.1903 74.0132 -81.559 -98.3075 73.3958 
-82.6636 -95.1938 76.501 -82.3126 -96.1003 75.9365 -81.9343 -97.0773 75.5164 
-81.7484 -98.1975 75.1485 -81.6242 -99.3249 74.5019 -81.3071 -100.189 73.8886 
-82.2906 -95.8873 77.7803 -82.0328 -96.8709 77.2854 -81.8039 -97.9142 76.6636 
-81.7374 -99.0879 76.1972 -81.5765 -100.178 75.6157 -81.1846 -100.987 74.8787 
-80.6779 -101.558 74.3264 -81.9713 -96.5621 78.7575 -81.913 -97.5634 78.5462 
-81.7727 -98.6078 77.989 -81.6502 -99.7925 77.3538 -81.4268 -100.89 76.7558 
-80.996 -101.664 75.9998 -80.5121 -102.249 75.2499 -80.0924 -102.797 74.7125 
-85.0466 -91.2074 70.3004 -85.1429 -90.3789 70.5721 -84.4845 -91.4427 71.2974 
-84.7865 -89.4656 70.558 -84.3885 -90.6443 71.4654 -84.2096 -91.9007 72.5322 
-84.1339 -88.4981 70.6137 -84.1071 -89.56 71.6121 -84.1265 -90.9214 72.8584 
-84.2849 -92.3331 74.0976 -83.5709 -87.7905 70.9571 -83.7746 -88.4827 72.0182 
-84.1073 -89.5401 73.3389 -84.1229 -91.1427 74.4618 -83.9088 -92.6116 75.257 
-83.0605 -87.18 71.3693 -83.2691 -87.9131 72.4132 -83.7811 -88.5176 73.7911 
-83.8717 -89.8397 74.8149 -83.4429 -91.5044 75.385 -83.036 -92.9129 76.0175 
-82.5487 -86.3794 71.8509 -82.6431 -87.3958 72.7267 -82.959 -88.14 73.8943 
-83.1613 -89.1294 74.9511 -82.875 -90.5823 75.5334 -82.5041 -92.0032 76.1231 
-82.3984 -93.3713 77.0323 -82.1697 -85.6443 72.509 -82.2204 -86.5799 73.2986 
-82.2232 -87.6529 74.0769 -82.2706 -88.7586 74.9572 -82.2282 -90.0176 75.7158 
-82.0581 -91.3009 76.4021 -82.011 -92.5642 77.2832 -82.0341 -94.007 78.1647 
-81.4555 -85.2819 74.4033 -80.6529 -85.7527 75.2075 -81.4288 -86.2045 75.0111 
-79.7351 -86.6832 75.8292 -80.5967 -87.0432 75.7401 -81.2429 -87.4811 75.6079 
-79.0706 -87.5857 76.9216 -79.8802 -88.0039 76.71 -80.612 -88.2914 76.7327 
-81.2128 -88.7619 76.4811 -78.3288 -88.2618 78.2019 -79.3042 -88.6866 77.9647 
-80.0701 -89.0847 77.9134 -80.7692 -89.4527 77.8083 -81.361 -90.0462 77.3589 
-77.4138 -89.3479 78.8393 -78.4606 -89.5833 78.8277 -79.3613 -90.0206 78.722 
-80.096 -90.4331 78.6727 -80.8667 -90.8999 78.5093 -81.4491 -91.4457 78.1467 
-76.7744 -90.9745 79.0231 -77.5612 -91.0866 79.3208 -78.4666 -91.3895 79.356 
-79.2443 -91.7433 79.2538 -80.0781 -92.0981 79.2335 -80.9249 -92.5097 79.2262 
[...]
POINT_DATA 1002
FIELD FieldData 2
Theta 1 1002 float
2.58802 2.58802 0.553574 0.553574 2.12437 1.01722 2.12437 1.01722 1.5708 
1.5708 1.5708 1.5708 2.68241 2.78649 2.89924 3.01861 3.14159 3.01861 
2.89924 2.78649 2.68241 2.61035 2.61791 2.60515 2.56958 2.51327 2.44184 
2.36202 2.27983 2.1997 2.61035 2.61791 2.60515 2.56958 2.51327 2.44184 
2.36202 2.27983 2.1997 2.50947 2.41899 2.31794 2.20864 2.0944 1.97902 
1.86631 1.75944 1.66056 2.50947 2.41899 2.31794 2.20864 2.0944 1.97902 
1.86631 1.75944 1.66056 2.61035 2.61791 2.60515 2.56958 2.51327 2.44184 
2.36202 2.27983 2.1997 2.61035 2.61791 2.60515 2.56958 2.51327 2.44184 
2.36202 2.27983 2.1997 2.50947 2.41899 2.31794 2.20864 2.0944 1.97902 
1.86631 1.75944 1.66056 2.50947 2.41899 2.31794 2.20864 2.0944 1.97902 
1.86631 1.75944 1.66056 0.459179 0.355101 0.242354 0.122983 0 0.122983 
0.242354 0.355101 0.459179 0.531246 0.523681 0.536438 0.57201 0.628319 0.699757 
0.779574 0.86176 0.941896 0.531246 0.523681 0.536438 0.57201 0.628319 0.699757 
0.779574 0.86176 0.941896 0.632123 0.7226 0.823657 0.932948 1.0472 1.16257 
1.27528 1.38216 1.48103 0.632123 0.7226 0.823657 0.932948 1.0472 1.16257 
1.27528 1.38216 1.48103 0.531246 0.523681 0.536438 0.57201 0.628319 0.699757 
0.779574 0.86176 0.941896 0.531246 0.523681 0.536438 0.57201 0.628319 0.699757 
0.779574 0.86176 0.941896 0.632123 0.7226 0.823657 0.932948 1.0472 1.16257 
1.27528 1.38216 1.48103 0.632123 0.7226 0.823657 0.932948 1.0472 1.16257 
1.27528 1.38216 1.48103 2.02998 1.9259 1.81315 1.69378 1.5708 1.44781 
1.32844 1.2157 1.11162 2.0928 2.05283 2.00422 1.94767 1.88496 1.81867 
1.75177 1.68695 1.62623 2.0928 2.05283 2.00422 1.94767 1.88496 1.81867 
1.75177 1.68695 1.62623 1.0488 1.08876 1.13737 1.19392 1.25664 1.32292 
1.38982 1.45464 1.51537 1.0488 1.08876 1.13737 1.19392 1.25664 1.32292 
1.38982 1.45464 1.51537 2.02998 1.9259 1.81315 1.69378 1.5708 1.44781 
1.32844 1.2157 1.11162 2.0928 2.05283 2.00422 1.94767 1.88496 1.81867 
1.75177 1.68695 1.62623 2.0928 2.05283 2.00422 1.94767 1.88496 1.81867 
1.75177 1.68695 1.62623 1.0488 1.08876 1.13737 1.19392 1.25664 1.32292 
1.38982 1.45464 1.51537 1.0488 1.08876 1.13737 1.19392 1.25664 1.32292 
1.38982 1.45464 1.51537 1.5708 1.5708 1.5708 1.5708 1.5708 1.5708 
1.5708 1.5708 1.5708 1.5708 1.5708 1.5708 1.5708 1.5708 1.5708 
1.5708 1.5708 1.5708 2.70908 2.71362 2.81592 2.68886 2.81002 2.92597 
2.6349 2.76254 2.89233 3.01997 2.55881 2.68262 2.80854 2.92834 3.01997 
2.47007 2.58462 2.70048 2.80854 2.89233 2.92597 2.37702 2.48017 2.58462 
2.68262 2.76254 2.81002 2.81592 2.28567 2.37702 2.47007 2.55881 2.6349 
2.68886 2.71362 2.70908 2.52097 2.4195 2.51718 2.30791 2.40503 2.49426 
2.18928 2.28408 2.3734 2.45144 2.06758 2.15805 2.24572 2.32523 2.39165 
1.94707 2.03138 2.11543 2.19453 2.26401 2.32035 1.83164 1.90847 1.98711 
2.06376 2.13422 2.1949 2.24359 1.72413 1.79288 1.86489 1.93728 2.00658 
2.06938 2.12312 2.16654 1.5708 1.50988 1.63171 1.44492 1.5708 1.69667 
1.37826 1.5059 1.63569 1.76333 1.31281 1.43962 1.5708 1.70197 1.82878 
1.25155 1.37501 1.50478 1.63681 1.76659 1.89004 1.19686 1.31493 1.44074 
1.5708 1.70086 1.82666 1.94473 1.15011 1.26149 1.38136 1.50697 1.63462 
1.76024 1.88011 1.99148 1.99148 1.88011 1.94473 1.76024 1.82666 1.89004 
1.63462 1.70086 1.76659 1.82878 1.50697 1.5708 1.63681 1.70197 1.76333 
1.38136 1.44074 1.50478 1.5708 1.63569 1.69667 1.26149 1.31493 1.37501 
1.43962 1.5059 1.5708 1.63171 1.15011 1.19686 1.25155 1.31281 1.37826 
1.44492 1.50988 1.5708 2.16654 2.12312 2.24359 2.06938 2.1949 2.32035 
2.00658 2.13422 2.26401 2.39165 1.93728 2.06376 2.19453 2.32523 2.45144 
1.86489 1.98711 2.11543 2.24572 2.3734 2.49426 1.79288 1.90847 2.03138 
2.15805 2.28408 2.40503 2.51718 1.72413 1.83164 1.94707 2.06758 2.18928 
2.30791 2.4195 2.52097 1.66533 1.66946 1.76911 1.67254 1.777 1.88041 
1.67418 1.78222 1.89102 1.99634 1.67418 1.78405 1.89674 2.00785 2.11299 
1.67254 1.78222 1.89674 2.01191 2.12307 2.22608 1.66946 1.777 1.89102 
2.00785 2.12307 2.23222 2.33166 1.66533 1.76911 1.88041 1.99634 2.11299 
2.22608 2.33166 2.42672 1.47626 1.37249 1.47213 1.26118 1.36459 1.46906 
1.14526 1.25058 1.35938 1.46741 1.0286 1.13374 1.24485 1.35755 1.46741 
0.915514 1.01852 1.12969 1.24485 1.35938 1.46906 0.809937 0.909371 1.01852 
1.13374 1.25058 1.36459 1.47213 0.714871 0.809937 0.915514 1.0286 1.14526 
1.26118 1.37249 1.47626 0.975055 0.898002 1.01847 0.821245 0.946693 1.07221 
0.749941 0.877585 1.00737 1.13501 0.690152 0.816367 0.94706 1.07784 1.20431 
0.647337 0.768195 0.895868 1.02616 1.15448 1.2767 0.624416 0.736561 0.857515 
0.983547 1.11021 1.23313 1.34871 0.620619 0.722093 0.833684 0.952313 1.07402 
1.19452 1.30996 1.41746 0.855925 0.764569 0.764569 0.671524 0.661425 0.671524 
0.582786 0.556971 0.556971 0.582786 0.506696 0.458968 0.441109 0.458968 0.506696 
0.45273 0.379052 0.333054 0.333054 0.379052 0.45273 0.427969 0.331576 0.249267 
0.21325 0.249267 0.331576 0.427969 0.432512 0.325669 0.215619 0.121622 0.121622 
0.215619 0.325669 0.432512 0.432512 0.427969 0.325669 0.45273 0.331576 0.215619 
0.506696 0.379052 0.249267 0.121622 0.582786 0.458968 0.333054 0.21325 0.121622 
0.671524 0.556971 0.441109 0.333054 0.249267 0.215619 0.764569 0.661425 0.556971 
0.458968 0.379052 0.331576 0.325669 0.855925 0.764569 0.671524 0.582786 0.506696 
0.45273 0.427969 0.432512 0.975055 1.01847 0.898002 1.07221 0.946693 0.821245 
1.13501 1.00737 0.877585 0.749941 1.20431 1.07784 0.94706 0.816367 0.690152 
1.2767 1.15448 1.02616 0.895868 0.768195 0.647337 1.34871 1.23313 1.11021 
0.983547 0.857515 0.736561 0.624416 1.41746 1.30996 1.19452 1.07402 0.952313 
0.833684 0.722093 0.620619 1.15011 1.26149 1.19686 1.38136 1.31493 1.25155 
1.50697 1.44074 1.37501 1.31281 1.63462 1.5708 1.50478 1.43962 1.37826 
1.76024 1.70086 1.63681 1.5708 1.5059 1.44492 1.88011 1.82666 1.76659 
1.70197 1.63569 1.5708 1.50988 1.99148 1.94473 1.89004 1.82878 1.76333 
1.69667 1.63171 1.5708 1.15011 1.19686 1.26149 1.25155 1.31493 1.38136 
1.31281 1.37501 1.44074 1.50697 1.37826 1.43962 1.50478 1.5708 1.63462 
1.44492 1.5059 1.5708 1.63681 1.70086 1.76024 1.50988 1.5708 1.63569 
1.70197 1.76659 1.82666 1.88011 1.5708 1.63171 1.69667 1.76333 1.82878 
1.89004 1.94473 1.99148 1.72413 1.83164 1.79288 1.94707 1.90847 1.86489 
2.06758 2.03138 1.98711 1.93728 2.18928 2.15805 2.11543 2.06376 2.00658 
2.30791 2.28408 2.24572 2.19453 2.13422 2.06938 2.4195 2.40503 2.3734 
2.32523 2.26401 2.1949 2.12312 2.52097 2.51718 2.49426 2.45144 2.39165 
2.32035 2.24359 2.16654 2.70908 2.81592 2.71362 2.92597 2.81002 2.68886 
3.01997 2.89233 2.76254 2.6349 3.01997 2.92834 2.80854 2.68262 2.55881 
2.92597 2.89233 2.80854 2.70048 2.58462 2.47007 2.81592 2.81002 2.76254 
2.68262 2.58462 2.48017 2.37702 2.70908 2.71362 2.68886 2.6349 2.55881 
2.47007 2.37702 2.28567 2.16654 2.24359 2.12312 2.32035 2.1949 2.06938 
2.39165 2.26401 2.13422 2.00658 2.45144 2.32523 2.19453 2.06376 1.93728 
2.49426 2.3734 2.24572 2.11543 1.98711 1.86489 2.51718 2.40503 2.28408 
2.15805 2.03138 1.90847 1.79288 2.52097 2.4195 2.30791 2.18928 2.06758 
1.94707 1.83164 1.72413 1.66533 1.76911 1.66946 1.88041 1.777 1.67254 
1.99634 1.89102 1.78222 1.67418 2.11299 2.00785 1.89674 1.78405 1.67418 
2.22608 2.12307 2.01191 1.89674 1.78222 1.67254 2.33166 2.23222 2.12307 
2.00785 1.89102 1.777 1.66946 2.42672 2.33166 2.22608 2.11299 1.99634 
1.88041 1.76911 1.66533 1.47626 1.47213 1.37249 1.46906 1.36459 1.26118 
1.46741 1.35938 1.25058 1.14526 1.46741 1.35755 1.24485 1.13374 1.0286 
1.46906 1.35938 1.24485 1.12969 1.01852 0.915514 1.47213 1.36459 1.25058 
1.13374 1.01852 0.909371 0.809937 1.47626 1.37249 1.26118 1.14526 1.0286 
0.915514 0.809937 0.714871 1.41746 1.30996 1.34871 1.19452 1.23313 1.2767 
1.07402 1.11021 1.15448 1.20431 0.952313 0.983547 1.02616 1.07784 1.13501 
0.833684 0.857515 0.895868 0.94706 1.00737 1.07221 0.722093 0.736561 0.768195 
0.816367 0.877585 0.946693 1.01847 0.620619 0.624416 0.647337 0.690152 0.749941 
0.821245 0.898002 0.975055 0.975055 0.898002 1.01847 0.821245 0.946693 1.07221 
0.749941 0.877585 1.00737 1.13501 0.690152 0.816367 0.94706 1.07784 1.20431 
0.647337 0.768195 0.895868 1.02616 1.15448 1.2767 0.624416 0.736561 0.857515 
0.983547 1.11021 1.23313 1.34871 0.620619 0.722093 0.833684 0.952313 1.07402 
1.19452 1.30996 1.41746 
Phi 1 1002 float
6.28319 3.14159 6.28319 3.14159 4.71239 4.71239 1.5708 1.5708 3.69517 
5.72961 2.58802 0.553574 6.28319 6.28319 6.28319 6.28319 3.14159 3.14159 
3.14159 3.14159 3.14159 6.1053 5.8988 5.67687 5.45995 5.26596 5.10322 
4.97131 4.86569 4.78095 0.177881 0.384387 0.606312 0.823235 1.01722 1.17997 
1.31187 1.4175 1.50223 6.18928 6.10703 6.03531 5.97283 5.91832 5.87061 
5.82869 5.79168 5.75886 0.0939024 0.176153 0.247873 0.310351 0.364864 0.412573 
0.454497 0.491504 0.524326 3.31947 3.52598 3.7479 3.96483 4.15881 4.32156 
4.45346 4.55909 4.64383 2.96371 2.75721 2.53528 2.31836 2.12437 1.96162 
1.82972 1.72409 1.63936 3.2355 3.31775 3.38947 3.45194 3.50646 3.55417 
3.59609 3.6331 3.66592 3.04769 2.96544 2.89372 2.83124 2.77673 2.72902 
2.6871 2.65009 2.61727 6.28319 6.28319 6.28319 6.28319 3.14159 3.14159 
3.14159 3.14159 3.14159 6.1053 5.8988 5.67687 5.45995 5.26596 5.10322 
4.97131 4.86569 4.78095 0.177881 0.384387 0.606312 0.823235 1.01722 1.17997 
1.31187 1.4175 1.50223 6.18928 6.10703 6.03531 5.97283 5.91832 5.87061 
5.82869 5.79168 5.75886 0.0939024 0.176153 0.247873 0.310351 0.364864 0.412573 
0.454497 0.491504 0.524326 3.31947 3.52598 3.7479 3.96483 4.15881 4.32156 
4.45346 4.55909 4.64383 2.96371 2.75721 2.53528 2.31836 2.12437 1.96162 
1.82972 1.72409 1.63936 3.2355 3.31775 3.38947 3.45194 3.50646 3.55417 
3.59609 3.6331 3.66592 3.04769 2.96544 2.89372 2.83124 2.77673 2.72902 
2.6871 2.65009 2.61727 4.71239 4.71239 4.71239 4.71239 4.71239 4.71239 
4.71239 4.71239 4.71239 4.60879 4.49914 4.3857 4.27128 4.15881 4.05096 
3.94976 3.85646 3.77161 4.81599 4.92564 5.03907 5.1535 5.26596 5.37381 
5.47502 5.56831 5.65317 4.60879 4.49914 4.3857 4.27128 4.15881 4.05096 
3.94976 3.85646 3.77161 4.81599 4.92564 5.03907 5.1535 5.26596 5.37381 
5.47502 5.56831 5.65317 1.5708 1.5708 1.5708 1.5708 1.5708 1.5708 
1.5708 1.5708 1.5708 1.6744 1.78405 1.89748 2.01191 2.12437 2.23222 
2.33343 2.42672 2.51157 1.4672 1.35755 1.24411 1.12969 1.01722 0.909371 
0.808166 0.714871 0.63002 1.6744 1.78405 1.89748 2.01191 2.12437 2.23222 
2.33343 2.42672 2.51157 1.4672 1.35755 1.24411 1.12969 1.01722 0.909371 
0.808166 0.714871 0.63002 3.60077 3.49669 3.38395 3.26458 3.14159 3.01861 
2.89924 2.78649 2.68241 5.82401 5.92808 6.04083 6.1602 6.28319 0.122983 
0.242354 0.355101 0.459179 6.05603 5.78856 5.97021 5.51259 5.60297 5.78856 
5.26596 5.26596 5.26596 5.26596 5.06749 5.0121 4.91556 4.71239 4.15881 
4.91556 4.83537 4.71239 4.50922 4.15881 3.63622 4.80045 4.71239 4.58941 
4.41268 4.15881 3.82181 3.45456 4.71239 4.62433 4.50922 4.35729 4.15881 
3.91219 3.63622 3.36875 6.01742 5.94343 5.82633 5.88092 5.76745 5.62798 
5.8278 5.71897 5.58911 5.43724 5.78235 5.67854 5.55757 5.41926 5.26596 
5.74316 5.64441 5.5315 5.40467 5.26596 5.11955 5.70914 5.61528 5.50962 
5.3926 5.26596 5.13292 4.99789 5.67937 5.59016 5.49102 5.38246 5.26596 
5.14407 5.02016 4.89798 5.56831 5.47502 5.47502 5.37381 5.37381 5.37381 
5.26596 5.26596 5.26596 5.26596 5.1535 5.1535 5.1535 5.1535 5.1535 
5.03907 5.03907 5.03907 5.03907 5.03907 5.03907 4.92564 4.92564 4.92564 
4.92564 4.92564 4.92564 4.92564 4.81599 4.81599 4.81599 4.81599 4.81599 
4.81599 4.81599 4.81599 4.60879 4.60879 4.49914 4.60879 4.49914 4.3857 
4.60879 4.49914 4.3857 4.27128 4.60879 4.49914 4.3857 4.27128 4.15881 
4.60879 4.49914 4.3857 4.27128 4.15881 4.05096 4.60879 4.49914 4.3857 
4.27128 4.15881 4.05096 3.94976 4.60879 4.49914 4.3857 4.27128 4.15881 
4.05096 3.94976 3.85646 4.5268 4.40462 4.42689 4.28071 4.29185 4.30523 
4.15881 4.15881 4.15881 4.15881 4.04232 4.03217 4.02011 4.00552 3.98753 
3.93376 3.91515 3.89328 3.86721 3.83566 3.7968 3.83461 3.8095 3.78037 
3.74624 3.70581 3.65733 3.59845 3.7454 3.71564 3.68161 3.64243 3.59698 
3.54386 3.48135 3.40735 3.56428 3.45246 3.52338 3.33203 3.40312 3.47739 
3.20576 3.27463 3.34802 3.42551 3.07742 3.14159 3.21128 3.28647 3.36688 
2.95116 3.00855 3.0719 3.14159 3.21784 3.3006 2.83072 2.88006 2.93517 
2.99672 3.06535 3.14159 3.22575 2.7189 2.7598 2.8058 2.85768 2.9163 
2.98259 3.05743 3.14159 3.56428 3.52338 3.45246 3.47739 3.40312 3.33203 
3.42551 3.34802 3.27463 3.20576 3.36688 3.28647 3.21128 3.14159 3.07742 
3.3006 3.21784 3.14159 3.0719 3.00855 2.95116 3.22575 3.14159 3.06535 
2.99672 2.93517 2.88006 2.83072 3.14159 3.05743 2.98259 2.9163 2.85768 
2.8058 2.7598 2.7189 4.5268 4.42689 4.40462 4.30523 4.29185 4.28071 
4.15881 4.15881 4.15881 4.15881 3.98753 4.00552 4.02011 4.03217 4.04232 
3.7968 3.83566 3.86721 3.89328 3.91515 3.93376 3.59845 3.65733 3.70581 
3.74624 3.78037 3.8095 3.83461 3.40735 3.48135 3.54386 3.59698 3.64243 
3.68161 3.71564 3.7454 4.71239 4.80045 4.62433 4.91556 4.71239 4.50922 
5.06749 4.83537 4.58941 4.35729 5.26596 5.0121 4.71239 4.41268 4.15881 
5.51259 5.26596 4.91556 4.50922 4.15881 3.91219 5.78856 5.60297 5.26596 
4.71239 4.15881 3.82181 3.63622 6.05603 5.97021 5.78856 5.26596 4.15881 
3.63622 3.45456 3.36875 0.227158 0.494626 0.312971 0.770593 0.680215 0.494626 
1.01722 1.01722 1.01722 1.01722 1.2157 1.27109 1.36763 1.5708 2.12437 
1.36763 1.44781 1.5708 1.77397 2.12437 2.64697 1.48273 1.5708 1.69378 
1.8705 2.12437 2.46138 2.82862 1.5708 1.65886 1.77397 1.9259 2.12437 
2.371 2.64697 2.91443 1.75639 1.87857 1.8563 2.00248 1.99133 1.97796 
2.12437 2.12437 2.12437 2.12437 2.24087 2.25101 2.26308 2.27767 2.29565 
2.34943 2.36803 2.38991 2.41597 2.44752 2.48639 2.44857 2.47368 2.50281 
2.53694 2.57738 2.62586 2.68474 2.53778 2.56754 2.60157 2.64076 2.68621 
2.73933 2.80184 2.87583 1.6744 1.6744 1.78405 1.6744 1.78405 1.89748 
1.6744 1.78405 1.89748 2.01191 1.6744 1.78405 1.89748 2.01191 2.12437 
1.6744 1.78405 1.89748 2.01191 2.12437 2.23222 1.6744 1.78405 1.89748 
2.01191 2.12437 2.23222 2.33343 1.6744 1.78405 1.89748 2.01191 2.12437 
2.23222 2.33343 2.42672 1.4672 1.35755 1.4672 1.24411 1.35755 1.4672 
1.12969 1.24411 1.35755 1.4672 1.01722 1.12969 1.24411 1.35755 1.4672 
0.909371 1.01722 1.12969 1.24411 1.35755 1.4672 0.808166 0.909371 1.01722 
1.12969 1.24411 1.35755 1.4672 0.714871 0.808166 0.909371 1.01722 1.12969 
1.24411 1.35755 1.4672 0.603812 0.57405 0.693022 0.540021 0.667908 0.792164 
0.500837 0.638778 0.773562 0.900726 0.455383 0.604649 0.751687 0.890581 1.01722 
0.402264 0.564217 0.725619 0.878514 1.01722 1.13912 0.339753 0.515737 0.694072 
0.863926 1.01722 1.15026 1.26302 0.265762 0.456853 0.655207 0.845941 1.01722 
1.16363 1.28529 1.38521 0.227158 0.312971 0.494626 0.494626 0.680215 0.770593 
1.01722 1.01722 1.01722 1.01722 2.12437 1.5708 1.36763 1.27109 1.2157 
2.64697 2.12437 1.77397 1.5708 1.44781 1.36763 2.82862 2.46138 2.12437 
1.8705 1.69378 1.5708 1.48273 2.91443 2.64697 2.371 2.12437 1.9259 
1.77397 1.65886 1.5708 1.75639 1.8563 1.87857 1.97796 1.99133 2.00248 
2.12437 2.12437 2.12437 2.12437 2.29565 2.27767 2.26308 2.25101 2.24087 
2.48639 2.44752 2.41597 2.38991 2.36803 2.34943 2.68474 2.62586 2.57738 
2.53694 2.50281 2.47368 2.44857 2.87583 2.80184 2.73933 2.68621 2.64076 
2.60157 2.56754 2.53778 5.86049 5.90139 5.97231 5.94739 6.02165 6.09275 
5.99927 6.07676 6.15015 6.21902 6.0579 6.13831 6.2135 0 0.0641696 
6.12418 6.20694 6.28319 0.069689 0.13304 0.190437 6.19903 0 0.0762451 
0.144876 0.206423 0.261531 0.310872 0 0.0841597 0.159004 0.225289 0.283913 
0.335793 0.381792 0.422692 5.86049 5.97231 5.90139 6.09275 6.02165 5.94739 
6.21902 6.15015 6.07676 5.99927 0.0641696 0 6.2135 6.13831 6.0579 
0.190437 0.13304 0.069689 6.28319 6.20694 6.12418 0.310872 0.261531 0.206423 
0.144876 0.0762451 6.28319 6.19903 0.422692 0.381792 0.335793 0.283913 0.225289 
0.159004 0.0841597 0 5.67937 5.70914 5.59016 5.74316 5.61528 5.49102 
5.78235 5.64441 5.50962 5.38246 5.8278 5.67854 5.5315 5.3926 5.26596 
5.88092 5.71897 5.55757 5.40467 5.26596 5.14407 5.94343 5.76745 5.58911 
5.41926 5.26596 5.13292 5.02016 6.01742 5.82633 5.62798 5.43724 5.26596 
5.11955 4.99789 4.89798 1.38521 1.28529 1.26302 1.16363 1.15026 1.13912 
1.01722 1.01722 1.01722 1.01722 0.845941 0.863926 0.878514 0.890581 0.900726 
0.655207 0.694072 0.725619 0.751687 0.773562 0.792164 0.456853 0.515737 0.564217 
0.604649 0.638778 0.667908 0.693022 0.265762 0.339753 0.402264 0.455383 0.500837 
0.540021 0.57405 0.603812 
