# vtk DataFile Version 4.0
vtk output
ASCII
DATASET POLYDATA
POINTS 1002 float
-84.3021 -90.4693 70.8323 -77.731 -103.006 75.3848 -74.4463 -86.4782 71.2875 
-70.601 -101.861 75.3314 -80.0757 -94.4242 81.8772 -74.2682 -92.0404 81.8974 
-78.5876 -96.5109 67.0433 -72.709 -97.0924 66.9515 -74.4413 -108.239 81.6963 
-80.3068 -82.6354 74.9007 -72.9724 -111.806 69.0138 -81.6945 -84.6831 63.3129 
-83.4634 -91.0388 71.1673 -82.6212 -91.8059 71.7564 -81.977 -93.0473 72.4995 
-81.3023 -94.5013 73.1239 -80.4017 -95.7157 73.667 -79.5313 -96.8748 74.2654 
-78.8888 -98.3847 74.7258 -78.391 -100.098 74.9679 -77.9958 -101.661 75.171 
-83.9308 -90.4891 71.918 -83.5748 -90.5575 73.152 -83.2474 -90.7941 74.4326 
-82.8763 -91.302 75.7601 -82.4258 -91.9976 77.1386 -82.0181 -92.6416 78.5223 
-81.7405 -93.1306 79.839 -81.4229 -93.5505 80.8731 -80.85 -93.9779 81.4925 
-84.1487 -90.7777 70.0313 -83.8198 -91.045 69.244 -83.3739 -91.4944 68.4417 
-82.9499 -92.2563 67.777 -82.531 -93.1108 67.437 -81.9952 -93.9395 67.2747 
-81.3444 -94.8185 67.042 -80.585 -95.5885 66.8369 -79.6465 -96.0997 66.8606 
-84.6698 -89.7259 71.231 -84.6962 -88.673 71.6041 -84.3795 -87.5558 71.8299 
-83.7853 -86.6623 71.9744 -82.9709 -86.0215 72.1289 -82.1435 -85.3926 72.3703 
-81.579 -84.5588 72.883 -81.2351 -83.6849 73.635 -80.8429 -83.0483 74.346 
-84.9287 -90.0286 70.0629 -85.3105 -89.448 69.1827 -85.2664 -88.7232 67.9862 
-84.9769 -87.8719 66.5591 -84.8509 -86.9814 65.2765 -84.8326 -86.1339 64.1989 
-84.479 -85.4008 63.348 -83.6868 -84.9174 63.0194 -82.6909 -84.7179 63.1414 
-78.0766 -102.5 75.9762 -78.4665 -101.861 76.6821 -78.805 -101.148 77.5302 
-79.0346 -100.353 78.4322 -79.2826 -99.462 79.339 -79.6795 -98.5924 80.3032 
-80.0989 -97.7652 81.1443 -80.3003 -96.7955 81.6066 -80.2417 -95.6264 81.775 
-77.5687 -102.614 74.6492 -77.4176 -102.083 73.8713 -77.1754 -101.347 73.2094 
-76.9688 -100.524 72.568 -77.0214 -99.7813 71.6535 -77.1933 -99.0557 70.5276 
-77.3577 -98.2908 69.5311 -77.6789 -97.5927 68.7187 -78.1504 -97.0072 67.9101 
-77.7843 -104.109 75.8802 -77.935 -105.408 76.3593 -77.9951 -106.612 77.0477 
-77.6243 -107.262 77.9363 -76.8471 -107.516 78.7239 -76.2563 -107.996 79.5141 
-76.0781 -108.632 80.4925 -75.826 -108.899 81.2853 -75.2051 -108.7 81.6192 
-77.3885 -104.078 75.1445 -76.9228 -105.199 74.8268 -76.3861 -106.405 74.3887 
-76.0375 -107.758 73.7712 -75.8457 -109.23 72.873 -75.5146 -110.441 71.8697 
-75.0095 -111.012 71.1237 -74.3741 -111.228 70.5412 -73.6322 -111.532 69.8109 
-73.6931 -87.2598 71.6515 -73.0576 -88.3314 72.1318 -72.7736 -89.9489 72.7211 
-72.7167 -92.0422 73.3417 -72.41 -94.0962 73.8387 -71.724 -95.7207 74.1614 
-71.0767 -97.1457 74.4873 -70.7315 -98.7053 74.8911 -70.6013 -100.342 75.2102 
-74.164 -86.5047 72.3168 -74.0092 -86.7363 73.5475 -74.0282 -87.1909 74.7033 
-74.0642 -87.7433 75.7865 -73.9689 -88.3353 77.0131 -73.8897 -89.0322 78.2558 
-73.9583 -89.787 79.3316 -74.0737 -90.5245 80.316 -74.1699 -91.2792 81.1987 
-74.2866 -87.0227 70.6488 -74.0835 -87.6743 70.076 -73.9192 -88.4977 69.535 
-73.8414 -89.5498 69.0129 -73.6883 -90.6802 68.4601 -73.3532 -91.7411 67.8644 
-73.003 -92.8841 67.4081 -72.7997 -94.2454 67.1797 -72.7275 -95.7001 67.0518 
-74.9856 -85.6748 71.5261 -75.5479 -84.7677 71.8075 -76.0733 -83.7545 72.1485 
-76.4818 -82.7019 72.6145 -76.9627 -81.8211 73.2523 -77.6694 -81.3449 73.866 
-78.3902 -81.3562 74.2078 -79.0383 -81.7176 74.3853 -79.7022 -82.183 74.6184 
-75.0914 -86.0026 70.5748 -75.6125 -85.3052 69.7392 -75.9957 -84.4443 68.5714 
-76.6108 -83.8445 67.381 -77.6439 -83.6493 66.5833 -78.6496 -83.5136 65.8264 
-79.3461 -83.409 64.8202 -80.0291 -83.6021 63.9971 -80.8732 -84.0791 63.5759 
-71.0538 -101.157 75.6796 -71.6322 -100.464 76.1263 -72.0127 -99.5677 76.9504 
-72.1988 -98.3758 77.9533 -72.4695 -97.1232 78.8519 -72.7174 -95.8836 79.7692 
-72.7917 -94.5813 80.6999 -73.0257 -93.4412 81.3528 -73.6088 -92.6457 81.6853 
-70.4085 -101.651 74.674 -70.4807 -101.329 73.5736 -70.5264 -100.914 72.3163 
-70.4141 -100.404 71.2097 -70.4599 -99.8608 70.2613 -70.8469 -99.4402 69.4041 
-71.3239 -99.1254 68.6215 -71.7317 -98.6866 67.919 -72.1722 -97.9889 67.3575 
-70.9881 -102.802 75.5282 -71.558 -103.73 75.7154 -71.9699 -104.754 76.3162 
-72.0353 -105.788 77.3563 -72.1348 -106.607 78.3325 -72.5697 -107.234 79.1592 
-73.0305 -107.782 80.0541 -73.3385 -108.157 80.8245 -73.7653 -108.295 81.3266 
-70.5149 -103.308 74.9802 -70.5297 -104.836 74.4302 -70.5644 -106.318 73.7424 
-70.6469 -107.802 72.9429 -70.945 -109.033 72.1519 -71.4761 -109.78 71.4645 
-71.9705 -110.54 70.6707 -72.2714 -111.499 69.7625 -72.5492 -112.023 69.1469 
-79.4762 -94.0143 82.2267 -78.9746 -93.6929 82.7454 -78.5659 -93.4011 83.3732 
-78.0364 -92.9312 83.9251 -77.2529 -92.3065 84.2512 -76.3284 -91.9134 84.2316 
-75.5228 -91.9155 83.7972 -75.0043 -92.0536 83.1127 -74.6539 -92.1001 82.4473 
-79.3605 -95.66 82.2542 -78.8143 -97.0708 82.9166 -78.6515 -98.7689 83.7551 
-78.4522 -100.602 84.2639 -77.6119 -102.113 84.1765 -76.554 -103.313 83.821 
-75.9713 -104.645 83.4222 -75.5905 -106.094 82.8967 -75.0219 -107.327 82.2887 
-80.4012 -92.9428 81.7354 -80.6378 -91.5269 81.3504 -80.6464 -90.3206 80.5866 
-80.5185 -89.1129 79.7088 -80.5144 -87.7338 78.9387 -80.5936 -86.4418 78.1296 
-80.5922 -85.3147 77.2793 -80.5686 -84.182 76.5268 -80.5099 -83.2082 75.7765 
-74.0237 -93.1873 82.3736 -73.812 -94.4706 82.8549 -73.596 -96.1216 83.2939 
-73.4927 -98.1833 83.4543 -73.7292 -100.154 83.1529 -74.0928 -101.834 82.669 
-74.1419 -103.628 82.4183 -74.0045 -105.513 82.3178 -74.0878 -107.078 82.078 
-74.7693 -90.8915 81.7102 -75.1534 -89.5136 81.4572 -75.5134 -88.0147 81.0997 
-76.0992 -86.5842 80.6604 -76.9278 -85.3657 80.0343 -77.7694 -84.4094 79.0439 
-78.5231 -83.629 77.8856 -79.217 -82.9952 76.8708 -79.8274 -82.6472 75.9313 
-78.1467 -96.5383 66.5915 -77.6717 -96.6456 66.0765 -77.1232 -96.8127 65.6514 
-76.4051 -96.9719 65.5686 -75.5263 -97.0862 65.7857 -74.6771 -97.2186 66.023 
-74.0321 -97.3799 66.221 -73.5468 -97.4362 66.4537 -73.1037 -97.3154 66.7004 
-77.2839 -97.4805 67.6817 -76.3035 -99.1246 67.9708 -75.8927 -101.346 67.8817 
-75.6971 -103.689 67.637 -75.3825 -105.785 67.4646 -75.0069 -107.448 67.5612 
-74.523 -108.734 67.9127 -73.8871 -109.894 68.2476 -73.3208 -110.974 68.5322 
-79.5829 -95.7811 65.9806 -80.3789 -94.8224 65.0199 -81.0517 -93.3477 64.2951 
-81.7505 -91.7274 63.3328 -82.1976 -90.6726 62.0329 -82.1648 -89.9098 61.342 
-81.9916 -88.6909 61.6984 -81.9377 -87.1653 62.419 -81.8752 -85.8092 62.9587 
-72.2883 -99.0498 67.0485 -71.7529 -100.913 66.9466 -71.3432 -102.662 66.4497 
-71.3227 -104.402 65.7529 -71.5508 -105.979 65.5858 -71.8224 -107.341 66.1851 
-72.1333 -108.81 66.8716 -72.4128 -110.305 67.3424 -72.6492 -111.337 67.9999 
-73.365 -95.2073 66.619 -74.2599 -93.4213 66.177 -75.3453 -91.9179 65.5391 
-76.4187 -90.436 64.8514 -77.4333 -88.9674 64.2942 -78.441 -87.7973 63.6767 
-79.3688 -86.8663 63.078 -80.1627 -86.0391 62.9349 -80.9066 -85.3322 63.1522 
-74.4717 -109.348 81.0136 -74.5359 -110.428 80.1668 -74.4404 -111.299 79.0586 
-74.192 -112.015 77.5787 -73.9562 -112.969 75.896 -73.7641 -113.838 74.4117 
-73.5624 -113.819 73.1627 -73.3401 -113.103 71.8057 -73.1204 -112.388 70.3063 
-80.3667 -82.5877 73.4942 -80.5214 -82.4082 71.9823 -80.9008 -81.797 70.6723 
-81.3555 -81.4148 69.4605 -81.7325 -81.7477 68.0467 -82.1059 -81.9994 66.4707 
-82.4009 -81.9582 65.0389 -82.3861 -82.4467 64.0489 -82.0775 -83.5422 63.5595 
-83.0594 -91.1353 72.3027 -82.6558 -91.3751 73.5405 -82.2917 -92.1302 72.9295 
-82.3453 -91.9646 74.9191 -81.9914 -92.7241 74.2183 -81.7795 -93.6741 73.6925 
-82.1498 -92.8634 76.4429 -81.8632 -93.636 75.6957 -81.6083 -94.4869 75.03 
-81.1268 -95.2564 74.3206 -81.9453 -93.7268 77.9274 -81.8363 -94.6018 77.1793 
-81.5183 -95.3106 76.3938 -80.8941 -95.9762 75.5913 -80.1636 -96.464 74.8236 
-81.6933 -94.3471 79.2977 -81.6414 -95.3687 78.5369 -81.3359 -96.0354 77.6324 
-80.6514 -96.603 76.7498 -79.8956 -97.1757 75.9596 -79.3255 -97.7234 75.2871 
-81.4248 -94.8143 80.4882 -81.3049 -95.9421 79.8459 -80.9369 -96.7007 78.9193 
-80.3153 -97.282 77.9188 -79.7016 -97.9411 77.0652 -79.23 -98.6299 76.3224 
-78.8006 -99.3408 75.6249 -80.9713 -95.2319 81.2952 -80.9023 -96.3975 80.9157 
-80.5216 -97.2765 80.1895 -79.9405 -97.9821 79.1931 -79.4736 -98.7504 78.2375 
-79.186 -99.5505 77.3952 -78.8458 -100.293 76.5849 -78.3995 -101.009 75.8337 
-84.3553 -89.7664 72.4711 -84.3931 -88.8106 72.8825 -84.0931 -89.8755 73.8086 
-83.9314 -87.7781 72.9772 -84.1055 -88.9387 74.1719 -83.7508 -90.0518 75.0869 
-83.2001 -86.8952 73.0175 -83.513 -87.8528 74.2145 -83.593 -89.0243 75.4042 
-83.1399 -90.4156 76.3259 -82.493 -86.1815 73.2948 -82.8195 -86.94 74.4242 
-82.9111 -87.9679 75.5987 -82.8056 -89.395 76.6563 -82.459 -91.005 77.645 
-81.9147 -85.369 73.852 -82.2943 -86.2092 74.9846 -82.3405 -87.1744 76.0699 
-82.2266 -88.522 77.0213 -82.1978 -90.0807 78.035 -82.0267 -91.5951 79.0672 
-81.465 -84.4176 74.5973 -81.7658 -85.4105 75.6509 -81.8903 -86.4884 76.6721 
-81.7686 -87.7691 77.5214 -81.772 -89.2734 78.3964 -81.8451 -90.6834 79.4488 
-81.6959 -92.0459 80.3547 -81.0356 -83.6584 75.2885 -81.178 -84.6671 76.1867 
-81.2878 -85.8184 77.0879 -81.254 -87.0312 77.9327 -81.202 -88.4509 78.7077 
-81.3104 -89.853 79.6219 -81.3485 -91.0981 80.5866 -81.1549 -92.459 81.2225 
-79.9141 -83.5733 76.6603 -79.1965 -84.1055 77.5898 -79.8899 -84.7324 77.3367 
-78.5168 -84.6148 78.8766 -79.2049 -85.223 78.4289 -79.893 -85.8728 78.179 
-77.8366 -85.3007 80.2616 -78.6335 -85.7298 79.9099 -79.2359 -86.4862 79.4012 
-79.8314 -87.1528 79.1185 -76.9742 -86.3786 81.2105 -77.9721 -86.5821 81.2382 
-78.6563 -87.2663 80.7616 -79.1153 -88.0505 80.2571 -79.7219 -88.6077 79.9196 
-76.0692 -87.7212 81.7541 -77.0307 -87.7244 82.1161 -77.9662 -88.1374 81.9551 
-78.5706 -88.8574 81.4923 -79.0973 -89.476 81.0374 -79.8185 -89.8826 80.7299 
-75.4419 -89.2296 82.1271 -76.0804 -89.0646 82.6977 -77.0548 -89.1313 82.9309 
-77.9897 -89.5631 82.7746 -78.7008 -90.2017 82.3773 -79.3052 -90.6958 81.9142 
[...]
POINT_DATA 1002
FIELD FieldData 2
Theta 1 1002 float
2.58802 2.58802 0.553574 0.553574 2.12437 1.01722 2.12437 1.01722 1.5708 
1.5708 1.5708 1.5708 2.68241 2.78649 2.89924 3.01861 3.14159 3.01861 
2.89924 2.78649 2.68241 2.61035 2.61791 2.60515 2.56958 2.51327 2.44184 
2.36202 2.27983 2.1997 2.61035 2.61791 2.60515 2.56958 2.51327 2.44184 
2.36202 2.27983 2.1997 2.50947 2.41899 2.31794 2.20864 2.0944 1.97902 
1.86631 1.75944 1.66056 2.50947 2.41899 2.31794 2.20864 2.0944 1.97902 
1.86631 1.75944 1.66056 2.61035 2.61791 2.60515 2.56958 2.51327 2.44184 
2.36202 2.27983 2.1997 2.61035 2.61791 2.60515 2.56958 2.51327 2.44184 
2.36202 2.27983 2.1997 2.50947 2.41899 2.31794 2.20864 2.0944 1.97902 
1.86631 1.75944 1.66056 2.50947 2.41899 2.31794 2.20864 2.0944 1.97902 
1.86631 1.75944 1.66056 0.459179 0.355101 0.242354 0.122983 0 0.122983 
0.242354 0.355101 0.459179 0.531246 0.523681 0.536438 0.57201 0.628319 0.699757 
0.779574 0.86176 0.941896 0.531246 0.523681 0.536438 0.57201 0.628319 0.699757 
0.779574 0.86176 0.941896 0.632123 0.7226 0.823657 0.932948 1.0472 1.16257 
1.27528 1.38216 1.48103 0.632123 0.7226 0.823657 0.932948 1.0472 1.16257 
1.27528 1.38216 1.48103 0.531246 0.523681 0.536438 0.57201 0.628319 0.699757 
0.779574 0.86176 0.941896 0.531246 0.523681 0.536438 0.57201 0.628319 0.699757 
0.779574 0.86176 0.941896 0.632123 0.7226 0.823657 0.932948 1.0472 1.16257 
1.27528 1.38216 1.48103 0.632123 0.7226 0.823657 0.932948 1.0472 1.16257 
1.27528 1.38216 1.48103 2.02998 1.9259 1.81315 1.69378 1.5708 1.44781 
1.32844 1.2157 1.11162 2.0928 2.05283 2.00422 1.94767 1.88496 1.81867 
1.75177 1.68695 1.62623 2.0928 2.05283 2.00422 1.94767 1.88496 1.81867 
1.75177 1.68695 1.62623 1.0488 1.08876 1.13737 1.19392 1.25664 1.32292 
1.38982 1.45464 1.51537 1.0488 1.08876 1.13737 1.19392 1.25664 1.32292 
1.38982 1.45464 1.51537 2.02998 1.9259 1.81315 1.69378 1.5708 1.44781 
1.32844 1.2157 1.11162 2.0928 2.05283 2.00422 1.94767 1.88496 1.81867 
1.75177 1.68695 1.62623 2.0928 2.05283 2.00422 1.94767 1.88496 1.81867 
1.75177 1.68695 1.62623 1.0488 1.08876 1.13737 1.19392 1.25664 1.32292 
1.38982 1.45464 1.51537 1.0488 1.08876 1.13737 1.19392 1.25664 1.32292 
1.38982 1.45464 1.51537 1.5708 1.5708 1.5708 1.5708 1.5708 1.5708 
1.5708 1.5708 1.5708 1.5708 1.5708 1.5708 1.5708 1.5708 1.5708 
1.5708 1.5708 1.5708 2.70908 2.71362 2.81592 2.68886 2.81002 2.92597 
2.6349 2.76254 2.89233 3.01997 2.55881 2.68262 2.80854 2.92834 3.01997 
2.47007 2.58462 2.70048 2.80854 2.89233 2.92597 2.37702 2.48017 2.58462 
2.68262 2.76254 2.81002 2.81592 2.28567 2.37702 2.47007 2.55881 2.6349 
2.68886 2.71362 2.70908 2.52097 2.4195 2.51718 2.30791 2.40503 2.49426 
2.18928 2.28408 2.3734 2.45144 2.06758 2.15805 2.24572 2.32523 2.39165 
1.94707 2.03138 2.11543 2.19453 2.26401 2.32035 1.83164 1.90847 1.98711 
2.06376 2.13422 2.1949 2.24359 1.72413 1.79288 1.86489 1.93728 2.00658 
2.06938 2.12312 2.16654 1.5708 1.50988 1.63171 1.44492 1.5708 1.69667 
1.37826 1.5059 1.63569 1.76333 1.31281 1.43962 1.5708 1.70197 1.82878 
1.25155 1.37501 1.50478 1.63681 1.76659 1.89004 1.19686 1.31493 1.44074 
1.5708 1.70086 1.82666 1.94473 1.15011 1.26149 1.38136 1.50697 1.63462 
1.76024 1.88011 1.99148 1.99148 1.88011 1.94473 1.76024 1.82666 1.89004 
1.63462 1.70086 1.76659 1.82878 1.50697 1.5708 1.63681 1.70197 1.76333 
1.38136 1.44074 1.50478 1.5708 1.63569 1.69667 1.26149 1.31493 1.37501 
1.43962 1.5059 1.5708 1.63171 1.15011 1.19686 1.25155 1.31281 1.37826 
1.44492 1.50988 1.5708 2.16654 2.12312 2.24359 2.06938 2.1949 2.32035 
2.00658 2.13422 2.26401 2.39165 1.93728 2.06376 2.19453 2.32523 2.45144 
1.86489 1.98711 2.11543 2.24572 2.3734 2.49426 1.79288 1.90847 2.03138 
2.15805 2.28408 2.40503 2.51718 1.72413 1.83164 1.94707 2.06758 2.18928 
2.30791 2.4195 2.52097 1.66533 1.66946 1.76911 1.67254 1.777 1.88041 
1.67418 1.78222 1.89102 1.99634 1.67418 1.78405 1.89674 2.00785 2.11299 
1.67254 1.78222 1.89674 2.01191 2.12307 2.22608 1.66946 1.777 1.89102 
2.00785 2.12307 2.23222 2.33166 1.66533 1.76911 1.88041 1.99634 2.11299 
2.22608 2.33166 2.42672 1.47626 1.37249 1.47213 1.26118 1.36459 1.46906 
1.14526 1.25058 1.35938 1.46741 1.0286 1.13374 1.24485 1.35755 1.46741 
0.915514 1.01852 1.12969 1.24485 1.35938 1.46906 0.809937 0.909371 1.01852 
1.13374 1.25058 1.36459 1.47213 0.714871 0.809937 0.915514 1.0286 1.14526 
1.26118 1.37249 1.47626 0.975055 0.898002 1.01847 0.821245 0.946693 1.07221 
0.749941 0.877585 1.00737 1.13501 0.690152 0.816367 0.94706 1.07784 1.20431 
0.647337 0.768195 0.895868 1.02616 1.15448 1.2767 0.624416 0.736561 0.857515 
0.983547 1.11021 1.23313 1.34871 0.620619 0.722093 0.833684 0.952313 1.07402 
1.19452 1.30996 1.41746 0.855925 0.764569 0.764569 0.671524 0.661425 0.671524 
0.582786 0.556971 0.556971 0.582786 0.506696 0.458968 0.441109 0.458968 0.506696 
0.45273 0.379052 0.333054 0.333054 0.379052 0.45273 0.427969 0.331576 0.249267 
0.21325 0.249267 0.331576 0.427969 0.432512 0.325669 0.215619 0.121622 0.121622 
0.215619 0.325669 0.432512 0.432512 0.427969 0.325669 0.45273 0.331576 0.215619 
0.506696 0.379052 0.249267 0.121622 0.582786 0.458968 0.333054 0.21325 0.121622 
0.671524 0.556971 0.441109 0.333054 0.249267 0.215619 0.764569 0.661425 0.556971 
0.458968 0.379052 0.331576 0.325669 0.855925 0.764569 0.671524 0.582786 0.506696 
0.45273 0.427969 0.432512 0.975055 1.01847 0.898002 1.07221 0.946693 0.821245 
1.13501 1.00737 0.877585 0.749941 1.20431 1.07784 0.94706 0.816367 0.690152 
1.2767 1.15448 1.02616 0.895868 0.768195 0.647337 1.34871 1.23313 1.11021 
0.983547 0.857515 0.736561 0.624416 1.41746 1.30996 1.19452 1.07402 0.952313 
0.833684 0.722093 0.620619 1.15011 1.26149 1.19686 1.38136 1.31493 1.25155 
1.50697 1.44074 1.37501 1.31281 1.63462 1.5708 1.50478 1.43962 1.37826 
1.76024 1.70086 1.63681 1.5708 1.5059 1.44492 1.88011 1.82666 1.76659 
1.70197 1.63569 1.5708 1.50988 1.99148 1.94473 1.89004 1.82878 1.76333 
1.69667 1.63171 1.5708 1.15011 1.19686 1.26149 1.25155 1.31493 1.38136 
1.31281 1.37501 1.44074 1.50697 1.37826 1.43962 1.50478 1.5708 1.63462 
1.44492 1.5059 1.5708 1.63681 1.70086 1.76024 1.50988 1.5708 1.63569 
1.70197 1.76659 1.82666 1.88011 1.5708 1.63171 1.69667 1.76333 1.82878 
1.89004 1.94473 1.99148 1.72413 1.83164 1.79288 1.94707 1.90847 1.86489 
2.06758 2.03138 1.98711 1.93728 2.18928 2.15805 2.11543 2.06376 2.00658 
2.30791 2.28408 2.24572 2.19453 2.13422 2.06938 2.4195 2.40503 2.3734 
2.32523 2.26401 2.1949 2.12312 2.52097 2.51718 2.49426 2.45144 2.39165 
2.32035 2.24359 2.16654 2.70908 2.81592 2.71362 2.92597 2.81002 2.68886 
3.01997 2.89233 2.76254 2.6349 3.01997 2.92834 2.80854 2.68262 2.55881 
2.92597 2.89233 2.80854 2.70048 2.58462 2.47007 2.81592 2.81002 2.76254 
2.68262 2.58462 2.48017 2.37702 2.70908 2.71362 2.68886 2.6349 2.55881 
2.47007 2.37702 2.28567 2.16654 2.24359 2.12312 2.32035 2.1949 2.06938 
2.39165 2.26401 2.13422 2.00658 2.45144 2.32523 2.19453 2.06376 1.93728 
2.49426 2.3734 2.24572 2.11543 1.98711 1.86489 2.51718 2.40503 2.28408 
2.15805 2.03138 1.90847 1.79288 2.52097 2.4195 2.30791 2.18928 2.06758 
1.94707 1.83164 1.72413 1.66533 1.76911 1.66946 1.88041 1.777 1.67254 
1.99634 1.89102 1.78222 1.67418 2.11299 2.00785 1.89674 1.78405 1.67418 
2.22608 2.12307 2.01191 1.89674 1.78222 1.67254 2.33166 2.23222 2.12307 
2.00785 1.89102 1.777 1.66946 2.42672 2.33166 2.22608 2.11299 1.99634 
1.88041 1.76911 1.66533 1.47626 1.47213 1.37249 1.46906 1.36459 1.26118 
1.46741 1.35938 1.25058 1.14526 1.46741 1.35755 1.24485 1.13374 1.0286 
1.46906 1.35938 1.24485 1.12969 1.01852 0.915514 1.47213 1.36459 1.25058 
1.13374 1.01852 0.909371 0.809937 1.47626 1.37249 1.26118 1.14526 1.0286 
0.915514 0.809937 0.714871 1.41746 1.30996 1.34871 1.19452 1.23313 1.2767 
1.07402 1.11021 1.15448 1.20431 0.952313 0.983547 1.02616 1.07784 1.13501 
0.833684 0.857515 0.895868 0.94706 1.00737 1.07221 0.722093 0.736561 0.768195 
0.816367 0.877585 0.946693 1.01847 0.620619 0.624416 0.647337 0.690152 0.749941 
0.821245 0.898002 0.975055 0.975055 0.898002 1.01847 0.821245 0.946693 1.07221 
0.749941 0.877585 1.00737 1.13501 0.690152 0.816367 0.94706 1.07784 1.20431 
0.647337 0.768195 0.895868 1.02616 1.15448 1.2767 0.624416 0.736561 0.857515 
0.983547 1.11021 1.23313 1.34871 0.620619 0.722093 0.833684 0.952313 1.07402 
1.19452 1.30996 1.41746 
Phi 1 1002 float
6.28319 3.14159 6.28319 3.14159 4.71239 4.71239 1.5708 1.5708 3.69517 
5.72961 2.58802 0.553574 6.28319 6.28319 6.28319 6.28319 3.14159 3.14159 
3.14159 3.14159 3.14159 6.1053 5.8988 5.67687 5.45995 5.26596 5.10322 
4.97131 4.86569 4.78095 0.177881 0.384387 0.606312 0.823235 1.01722 1.17997 
1.31187 1.4175 1.50223 6.18928 6.10703 6.03531 5.97283 5.91832 5.87061 
5.82869 5.79168 5.75886 0.0939024 0.176153 0.247873 0.310351 0.364864 0.412573 
0.454497 0.491504 0.524326 3.31947 3.52598 3.7479 3.96483 4.15881 4.32156 
4.45346 4.55909 4.64383 2.96371 2.75721 2.53528 2.31836 2.12437 1.96162 
1.82972 1.72409 1.63936 3.2355 3.31775 3.38947 3.45194 3.50646 3.55417 
3.59609 3.6331 3.66592 3.04769 2.96544 2.89372 2.83124 2.77673 2.72902 
2.6871 2.65009 2.61727 6.28319 6.28319 6.28319 6.28319 3.14159 3.14159 
3.14159 3.14159 3.14159 6.1053 5.8988 5.67687 5.45995 5.26596 5.10322 
4.97131 4.86569 4.78095 0.177881 0.384387 0.606312 0.823235 1.01722 1.17997 
1.31187 1.4175 1.50223 6.18928 6.10703 6.03531 5.97283 5.91832 5.87061 
5.82869 5.79168 5.75886 0.0939024 0.176153 0.247873 0.310351 0.364864 0.412573 
0.454497 0.491504 0.524326 3.31947 3.52598 3.7479 3.96483 4.15881 4.32156 
4.45346 4.55909 4.64383 2.96371 2.75721 2.53528 2.31836 2.12437 1.96162 
1.82972 1.72409 1.63936 3.2355 3.31775 3.38947 3.45194 3.50646 3.55417 
3.59609 3.6331 3.66592 3.04769 2.96544 2.89372 2.83124 2.77673 2.72902 
2.6871 2.65009 2.61727 4.71239 4.71239 4.71239 4.71239 4.71239 4.71239 
4.71239 4.71239 4.71239 4.60879 4.49914 4.3857 4.27128 4.15881 4.05096 
3.94976 3.85646 3.77161 4.81599 4.92564 5.03907 5.1535 5.26596 5.37381 
5.47502 5.56831 5.65317 4.60879 4.49914 4.3857 4.27128 4.15881 4.05096 
3.94976 3.85646 3.77161 4.81599 4.92564 5.03907 5.1535 5.26596 5.37381 
5.47502 5.56831 5.65317 1.5708 1.5708 1.5708 1.5708 1.5708 1.5708 
1.5708 1.5708 1.5708 1.6744 1.78405 1.89748 2.01191 2.12437 2.23222 
2.33343 2.42672 2.51157 1.4672 1.35755 1.24411 1.12969 1.01722 0.909371 
0.808166 0.714871 0.63002 1.6744 1.78405 1.89748 2.01191 2.12437 2.23222 
2.33343 2.42672 2.51157 1.4672 1.35755 1.24411 1.12969 1.01722 0.909371 
0.808166 0.714871 0.63002 3.60077 3.49669 3.38395 3.26458 3.14159 3.01861 
2.89924 2.78649 2.68241 5.82401 5.92808 6.04083 6.1602 6.28319 0.122983 
0.242354 0.355101 0.459179 6.05603 5.78856 5.97021 5.51259 5.60297 5.78856 
5.26596 5.26596 5.26596 5.26596 5.06749 5.0121 4.91556 4.71239 4.15881 
4.91556 4.83537 4.71239 4.50922 4.15881 3.63622 4.80045 4.71239 4.58941 
4.41268 4.15881 3.82181 3.45456 4.71239 4.62433 4.50922 4.35729 4.15881 
3.91219 3.63622 3.36875 6.01742 5.94343 5.82633 5.88092 5.76745 5.62798 
5.8278 5.71897 5.58911 5.43724 5.78235 5.67854 5.55757 5.41926 5.26596 
5.74316 5.64441 5.5315 5.40467 5.26596 5.11955 5.70914 5.61528 5.50962 
5.3926 5.26596 5.13292 4.99789 5.67937 5.59016 5.49102 5.38246 5.26596 
5.14407 5.02016 4.89798 5.56831 5.47502 5.47502 5.37381 5.37381 5.37381 
5.26596 5.26596 5.26596 5.26596 5.1535 5.1535 5.1535 5.1535 5.1535 
5.03907 5.03907 5.03907 5.03907 5.03907 5.03907 4.92564 4.92564 4.92564 
4.92564 4.92564 4.92564 4.92564 4.81599 4.81599 4.81599 4.81599 4.81599 
4.81599 4.81599 4.81599 4.60879 4.60879 4.49914 4.60879 4.49914 4.3857 
4.60879 4.49914 4.3857 4.27128 4.60879 4.49914 4.3857 4.27128 4.15881 
4.60879 4.49914 4.3857 4.27128 4.15881 4.05096 4.60879 4.49914 4.3857 
4.27128 4.15881 4.05096 3.94976 4.60879 4.49914 4.3857 4.27128 4.15881 
4.05096 3.94976 3.85646 4.5268 4.40462 4.42689 4.28071 4.29185 4.30523 
4.15881 4.15881 4.15881 4.15881 4.04232 4.03217 4.02011 4.00552 3.98753 
3.93376 3.91515 3.89328 3.86721 3.83566 3.7968 3.83461 3.8095 3.78037 
3.74624 3.70581 3.65733 3.59845 3.7454 3.71564 3.68161 3.64243 3.59698 
3.54386 3.48135 3.40735 3.56428 3.45246 3.52338 3.33203 3.40312 3.47739 
3.20576 3.27463 3.34802 3.42551 3.07742 3.14159 3.21128 3.28647 3.36688 
2.95116 3.00855 3.0719 3.14159 3.21784 3.3006 2.83072 2.88006 2.93517 
2.99672 3.06535 3.14159 3.22575 2.7189 2.7598 2.8058 2.85768 2.9163 
2.98259 3.05743 3.14159 3.56428 3.52338 3.45246 3.47739 3.40312 3.33203 
3.42551 3.34802 3.27463 3.20576 3.36688 3.28647 3.21128 3.14159 3.07742 
3.3006 3.21784 3.14159 3.0719 3.00855 2.95116 3.22575 3.14159 3.06535 
2.99672 2.93517 2.88006 2.83072 3.14159 3.05743 2.98259 2.9163 2.85768 
2.8058 2.7598 2.7189 4.5268 4.42689 4.40462 4.30523 4.29185 4.28071 
4.15881 4.15881 4.15881 4.15881 3.98753 4.00552 4.02011 4.03217 4.04232 
3.7968 3.83566 3.86721 3.89328 3.91515 3.93376 3.59845 3.65733 3.70581 
3.74624 3.78037 3.8095 3.83461 3.40735 3.48135 3.54386 3.59698 3.64243 
3.68161 3.71564 3.7454 4.71239 4.80045 4.62433 4.91556 4.71239 4.50922 
5.06749 4.83537 4.58941 4.35729 5.26596 5.0121 4.71239 4.41268 4.15881 
5.51259 5.26596 4.91556 4.50922 4.15881 3.91219 5.78856 5.60297 5.26596 
4.71239 4.15881 3.82181 3.63622 6.05603 5.97021 5.78856 5.26596 4.15881 
3.63622 3.45456 3.36875 0.227158 0.494626 0.312971 0.770593 0.680215 0.494626 
1.01722 1.01722 1.01722 1.01722 1.2157 1.27109 1.36763 1.5708 2.12437 
1.36763 1.44781 1.5708 1.77397 2.12437 2.64697 1.48273 1.5708 1.69378 
1.8705 2.12437 2.46138 2.82862 1.5708 1.65886 1.77397 1.9259 2.12437 
2.371 2.64697 2.91443 1.75639 1.87857 1.8563 2.00248 1.99133 1.97796 
2.12437 2.12437 2.12437 2.12437 2.24087 2.25101 2.26308 2.27767 2.29565 
2.34943 2.36803 2.38991 2.41597 2.44752 2.48639 2.44857 2.47368 2.50281 
2.53694 2.57738 2.62586 2.68474 2.53778 2.56754 2.60157 2.64076 2.68621 
2.73933 2.80184 2.87583 1.6744 1.6744 1.78405 1.6744 1.78405 1.89748 
1.6744 1.78405 1.89748 2.01191 1.6744 1.78405 1.89748 2.01191 2.12437 
1.6744 1.78405 1.89748 2.01191 2.12437 2.23222 1.6744 1.78405 1.89748 
2.01191 2.12437 2.23222 2.33343 1.6744 1.78405 1.89748 2.01191 2.12437 
2.23222 2.33343 2.42672 1.4672 1.35755 1.4672 1.24411 1.35755 1.4672 
1.12969 1.24411 1.35755 1.4672 1.01722 1.12969 1.24411 1.35755 1.4672 
0.909371 1.01722 1.12969 1.24411 1.35755 1.4672 0.808166 0.909371 1.01722 
1.12969 1.24411 1.35755 1.4672 0.714871 0.808166 0.909371 1.01722 1.12969 
1.24411 1.35755 1.4672 0.603812 0.57405 0.693022 0.540021 0.667908 0.792164 
0.500837 0.638778 0.773562 0.900726 0.455383 0.604649 0.751687 0.890581 1.01722 
0.402264 0.564217 0.725619 0.878514 1.01722 1.13912 0.339753 0.515737 0.694072 
0.863926 1.01722 1.15026 1.26302 0.265762 0.456853 0.655207 0.845941 1.01722 
1.16363 1.28529 1.38521 0.227158 0.312971 0.494626 0.494626 0.680215 0.770593 
1.01722 1.01722 1.01722 1.01722 2.12437 1.5708 1.36763 1.27109 1.2157 
2.64697 2.12437 1.77397 1.5708 1.44781 1.36763 2.82862 2.46138 2.12437 
1.8705 1.69378 1.5708 1.48273 2.91443 2.64697 2.371 2.12437 1.9259 
1.77397 1.65886 1.5708 1.75639 1.8563 1.87857 1.97796 1.99133 2.00248 
2.12437 2.12437 2.12437 2.12437 2.29565 2.27767 2.26308 2.25101 2.24087 
2.48639 2.44752 2.41597 2.38991 2.36803 2.34943 2.68474 2.62586 2.57738 
2.53694 2.50281 2.47368 2.44857 2.87583 2.80184 2.73933 2.68621 2.64076 
2.60157 2.56754 2.53778 5.86049 5.90139 5.97231 5.94739 6.02165 6.09275 
5.99927 6.07676 6.15015 6.21902 6.0579 6.13831 6.2135 0 0.0641696 
6.12418 6.20694 6.28319 0.069689 0.13304 0.190437 6.19903 0 0.0762451 
0.144876 0.206423 0.261531 0.310872 0 0.0841597 0.159004 0.225289 0.283913 
0.335793 0.381792 0.422692 5.86049 5.97231 5.90139 6.09275 6.02165 5.94739 
6.21902 6.15015 6.07676 5.99927 0.0641696 0 6.2135 6.13831 6.0579 
0.190437 0.13304 0.069689 6.28319 6.20694 6.12418 0.310872 0.261531 0.206423 
0.144876 0.0762451 6.28319 6.19903 0.422692 0.381792 0.335793 0.283913 0.225289 
0.159004 0.0841597 0 5.67937 5.70914 5.59016 5.74316 5.61528 5.49102 
5.78235 5.64441 5.50962 5.38246 5.8278 5.67854 5.5315 5.3926 5.26596 
5.88092 5.71897 5.55757 5.40467 5.26596 5.14407 5.94343 5.76745 5.58911 
5.41926 5.26596 5.13292 5.02016 6.01742 5.82633 5.62798 5.43724 5.26596 
5.11955 4.99789 4.89798 1.38521 1.28529 1.26302 1.16363 1.15026 1.13912 
1.01722 1.01722 1.01722 1.01722 0.845941 0.863926 0.878514 0.890581 0.900726 
0.655207 0.694072 0.725619 0.751687 0.773562 0.792164 0.456853 0.515737 0.564217 
0.604649 0.638778 0.667908 0.693022 0.265762 0.339753 0.402264 0.455383 0.500837 
0.540021 0.57405 0.603812 
