# vtk DataFile Version 4.0
vtk output
ASCII
DATASET POLYDATA
POINTS 1002 float
-82.6605 -91.8719 67.8111 -74.9839 -104.606 72.6301 -72.4295 -86.9164 68.8119 
-67.4579 -101.653 72.4001 -78.1637 -96.3349 79.5369 -72.1756 -93.126 78.8846 
-75.5053 -98.4436 64.4786 -69.9446 -97.5807 64.0689 -70.2132 -108.802 79.8082 
-79.2886 -84.1032 71.7613 -68.7618 -111.312 65.7241 -81.5321 -85.5421 61.375 
-81.6761 -92.5794 68.1945 -80.5093 -93.3915 68.8893 -79.4796 -94.5533 69.727 
-78.8294 -96.1761 70.4851 -78.1829 -97.9011 71.1756 -77.1365 -99.2285 71.8764 
-76.0658 -100.269 72.4539 -75.4628 -101.569 72.7275 -75.2196 -103.17 72.7236 
-82.2059 -92.0253 68.6905 -81.7367 -92.4272 69.8588 -81.2708 -92.956 71.3074 
-80.9156 -93.4898 72.8127 -80.4479 -93.9929 74.1042 -79.7992 -94.5259 75.3327 
-79.4014 -95.1439 76.7415 -79.2266 -95.7241 78.0654 -78.824 -96.109 78.9745 
-82.6265 -92.3571 67.2396 -82.4914 -92.9043 66.733 -82.0635 -93.4322 66.2686 
-81.4628 -94.0861 65.8306 -80.9266 -94.9829 65.3606 -80.2301 -95.8564 64.8889 
-79.1071 -96.482 64.5846 -77.7829 -97.017 64.4855 -76.5597 -97.6576 64.4825 
-83.184 -91.1215 68.1556 -83.6254 -90.3047 68.6424 -83.7432 -89.4185 68.988 
-83.2895 -88.3428 69.0862 -82.5844 -87.1842 69.2777 -82.0398 -86.2252 69.7982 
-81.4701 -85.4746 70.4281 -80.6991 -84.8519 70.9446 -79.9271 -84.4036 71.3621 
-83.575 -91.4656 67.242 -84.6083 -91.0528 66.6416 -85.4645 -90.434 65.8433 
-85.6976 -89.5525 64.8508 -85.3065 -88.6059 63.7819 -84.7692 -87.7083 62.7396 
-84.2676 -86.8519 61.8803 -83.57 -86.1534 61.3766 -82.5977 -85.7244 61.2512 
-75.2353 -104.108 73.4757 -75.433 -103.381 74.405 -75.9439 -102.828 75.2377 
-76.8335 -102.624 75.9679 -77.6463 -102.286 76.807 -78.0456 -101.44 77.8088 
-78.1142 -100.278 78.6705 -78.0695 -98.9793 79.1437 -78.0807 -97.6036 79.3585 
-74.7697 -104.114 71.9076 -74.517 -103.536 71.1483 -74.3016 -102.873 70.3513 
-74.1328 -102.088 69.5284 -74.0811 -101.327 68.6938 -74.1958 -100.708 67.8268 
-74.408 -100.108 66.8849 -74.7141 -99.5007 65.9302 -75.1148 -98.9661 65.1083 
-74.8334 -105.584 73.0901 -74.4966 -106.373 73.8091 -73.974 -106.963 74.785 
-73.4108 -107.545 75.7515 -72.9629 -108.19 76.6077 -72.6533 -108.73 77.5516 
-72.3087 -109.127 78.5642 -71.693 -109.388 79.3518 -70.8788 -109.32 79.75 
-74.4145 -105.434 72.1493 -73.6411 -106.189 71.6931 -73.0844 -107.365 71.1075 
-72.8349 -108.852 70.3403 -72.3468 -109.862 69.5551 -71.4565 -110.229 68.8666 
-70.675 -110.464 68.1545 -70.1167 -110.79 67.2861 -69.4837 -111.12 66.387 
-71.7986 -87.9569 69.2268 -70.982 -89.0016 69.6498 -70.2913 -90.3107 70.0911 
-69.7638 -92.1221 70.5788 -68.9271 -93.8187 71.0484 -67.9018 -94.9674 71.3934 
-67.4057 -96.3195 71.6864 -67.4543 -98.2521 72.0221 -67.5336 -100.166 72.2929 
-72.2313 -87.1038 69.9101 -71.9454 -87.3301 71.0916 -71.7804 -87.7236 72.149 
-71.9329 -88.4731 73.0997 -72.1285 -89.3777 74.1413 -72.0773 -90.1098 75.318 
-71.958 -90.7721 76.477 -71.9601 -91.5385 77.4673 -72.0551 -92.3474 78.2507 
-72.2536 -87.4834 68.1328 -72.0693 -88.2697 67.5703 -71.8972 -89.1962 67.0327 
-71.7361 -90.1718 66.4789 -71.5325 -91.2629 65.9719 -71.199 -92.4821 65.4757 
-70.7608 -93.6965 64.9572 -70.3639 -94.9053 64.5426 -70.1014 -96.2095 64.2819 
-72.8591 -86.0201 69.0642 -73.4771 -85.2636 69.3552 -74.4099 -84.6407 69.572 
-75.3067 -83.9026 69.8077 -75.8609 -82.9746 70.346 -76.4792 -82.2845 71.0492 
-77.4428 -82.2763 71.437 -78.3469 -82.826 71.4983 -78.9124 -83.5044 71.5719 
-72.8611 -86.1978 67.9355 -73.5181 -85.6386 67.0833 -74.5827 -85.334 66.2661 
-75.7873 -85.0413 65.433 -76.8343 -84.6328 64.594 -77.8542 -84.416 63.8149 
-78.8944 -84.5176 63.1224 -79.8211 -84.7475 62.4936 -80.68 -85.0664 61.9021 
-67.57 -100.887 73.2528 -67.9124 -100.196 73.8631 -68.4423 -99.4479 74.3287 
-68.9458 -98.4515 75.0356 -69.3536 -97.3616 76.0672 -69.7228 -96.3517 77.0332 
-70.1231 -95.3285 77.7184 -70.7048 -94.3716 78.2275 -71.4651 -93.6677 78.6118 
-67.5296 -101.602 71.336 -67.5588 -101.409 70.1208 -67.3867 -100.964 68.9418 
-67.1904 -100.31 67.9466 -67.3718 -99.7192 67.1382 -67.8749 -99.3859 66.3657 
-68.3319 -99.1265 65.5642 -68.756 -98.6989 64.8788 -69.3089 -98.1386 64.4017 
-67.4369 -102.465 72.9654 -67.6976 -103.385 73.4631 -68.1367 -104.433 74.0079 
-68.3729 -105.409 74.715 -68.4974 -106.255 75.5585 -68.8784 -107.039 76.4385 
-69.2903 -107.658 77.3309 -69.4648 -108.105 78.2449 -69.6856 -108.508 79.1089 
-67.3054 -102.948 71.8233 -67.0032 -104.22 71.3654 -66.6795 -105.537 71.0656 
-66.5913 -107.081 70.5266 -66.7166 -108.683 69.5849 -66.828 -109.893 68.6306 
-66.9633 -110.669 67.7894 -67.3511 -111.217 66.8996 -68.0165 -111.466 66.1279 
-77.778 -95.7795 79.997 -77.3687 -95.3302 80.4855 -76.8326 -94.888 80.808 
-76.0931 -94.2789 81.0359 -75.2067 -93.5797 81.3617 -74.2572 -93.1068 81.4526 
-73.4339 -93.0255 80.939 -72.9203 -93.1555 80.1278 -72.5778 -93.2158 79.4318 
-77.3624 -97.3427 79.8269 -76.6297 -98.6531 80.165 -76.1074 -100.213 80.7699 
-75.5463 -101.718 81.4413 -74.5876 -103.045 81.7157 -73.3967 -104.392 81.5979 
-72.4038 -105.828 81.4048 -71.6194 -107.17 81.1286 -70.8737 -108.192 80.5979 
-78.6112 -95.0667 79.3147 -78.7872 -93.773 78.7561 -78.7101 -92.3768 77.8994 
-78.6847 -90.8911 76.9743 -78.8091 -89.4923 75.9902 -78.8863 -88.2645 74.8278 
-78.9441 -87.0632 73.7657 -79.0992 -85.8641 73.056 -79.2412 -84.8526 72.4653 
-71.9013 -94.3142 79.3455 -71.5958 -95.7047 79.8032 -71.1778 -97.2524 80.1906 
-70.6915 -98.9252 80.5829 -70.4072 -100.662 80.9024 -70.4025 -102.304 80.8224 
-70.4081 -103.946 80.4718 -70.2844 -105.784 80.2693 -70.1688 -107.542 80.1452 
-72.7086 -92.022 78.778 -73.1683 -90.6687 78.6715 -73.6162 -89.1351 78.4259 
-74.2919 -87.7105 77.9361 -75.293 -86.6579 77.1914 -76.3329 -85.9112 76.1313 
-77.1714 -85.2514 74.8468 -77.9073 -84.6794 73.6452 -78.6337 -84.3027 72.6513 
-75.0486 -98.6384 64.1175 -74.4556 -98.8405 63.6984 -73.8391 -99.0523 63.2351 
-73.256 -99.2875 62.8971 -72.4546 -99.4301 62.7374 -71.411 -99.3138 62.6727 
-70.6737 -98.9935 62.8199 -70.4235 -98.5912 63.2432 -70.2453 -98.1068 63.7108 
-74.3516 -99.7846 64.6831 -73.367 -101.351 64.5963 -72.6037 -102.999 64.225 
-71.9948 -104.634 63.7924 -71.4659 -106.126 63.5878 -70.9656 -107.358 63.7268 
-70.42 -108.494 64.0724 -69.8227 -109.663 64.4809 -69.2555 -110.668 65.0008 
-76.5358 -97.2894 63.8866 -77.6236 -96.0321 63.2001 -78.6151 -94.7888 62.4925 
-79.4434 -93.5645 61.7957 -80.1653 -92.2167 61.2136 -80.8825 -90.7532 60.8893 
-81.5214 -89.2774 60.7273 -81.844 -87.8185 60.6679 -81.7911 -86.5194 60.8807 
-69.4227 -99.352 63.9529 -68.9692 -101.134 63.6787 -68.651 -102.839 63.2327 
-68.3045 -104.521 62.6014 -67.7984 -106.022 62.0451 -67.5178 -107.253 62.1545 
-67.73 -108.555 62.9889 -68.1005 -109.934 63.9595 -68.4061 -110.903 64.8093 
-70.7847 -96.1432 63.9091 -71.9531 -94.6349 63.7217 -73.314 -93.033 63.3468 
-74.4967 -91.3757 62.7034 -75.5851 -89.9003 62.1157 -76.9319 -88.7261 61.809 
-78.351 -87.7274 61.5932 -79.5502 -86.8264 61.3852 -80.5943 -86.0775 61.2976 
-69.9881 -109.542 78.7882 -69.8367 -110.242 77.5712 -69.6431 -111.322 76.4219 
-69.3927 -112.735 75.2258 -69.268 -113.747 73.7252 -69.2607 -113.795 72.0689 
-69.1658 -113.071 70.4094 -68.9639 -112.231 68.6852 -68.798 -111.693 67.0424 
-79.6628 -83.6379 70.6149 -80.0768 -83.1742 69.3172 -80.5972 -82.7384 68.1374 
-81.2369 -82.3413 67.0448 -81.8665 -82.0181 65.7475 -82.191 -82.1788 64.3587 
-82.1504 -83.0224 63.281 -81.9971 -84.0246 62.534 -81.8181 -84.8144 61.9057 
-81.2127 -92.8893 69.275 -80.7748 -93.436 70.6119 -80.1159 -93.9104 70.1364 
-80.4613 -94.129 72.0874 -79.8105 -94.6587 71.4611 -79.2696 -95.3423 70.9462 
-80.1824 -94.8609 73.463 -79.6507 -95.5574 72.8125 -79.1407 -96.3068 72.1807 
-78.7317 -97.1785 71.5921 -79.6611 -95.5437 74.734 -79.3821 -96.4186 74.1527 
-78.9999 -97.2729 73.5658 -78.5765 -98.169 72.911 -77.9439 -98.8467 72.3314 
-79.1997 -96.231 76.2159 -78.9857 -97.1878 75.6125 -78.714 -98.1091 75.0118 
-78.3018 -99.0104 74.3785 -77.6228 -99.6198 73.7499 -76.767 -99.9289 73.1418 
-79.0481 -96.9106 77.7559 -78.8319 -97.9789 77.2174 -78.562 -98.9638 76.4599 
-78.1207 -99.8733 75.6445 -77.3973 -100.4 74.9615 -76.5072 -100.591 74.3665 
-75.8252 -100.939 73.628 -78.7459 -97.3817 78.8186 -78.6606 -98.6383 78.4849 
-78.5285 -99.7871 77.7759 -78.1907 -100.812 76.7699 -77.5032 -101.414 75.8533 
-76.5547 -101.535 75.1917 -75.778 -101.777 74.5261 -75.418 -102.439 73.654 
-82.7209 -91.3279 69.1139 -83.0002 -90.4915 69.5978 -82.1113 -91.7343 70.3428 
-82.8316 -89.4671 69.8483 -82.155 -90.7965 70.7742 -81.5247 -92.1798 71.8461 
-82.2991 -88.3183 70.0376 -81.9246 -89.6633 71.0523 -81.5275 -91.1519 72.2534 
-81.0841 -92.5704 73.3564 -81.8056 -87.3005 70.5585 -81.6 -88.565 71.501 
-81.3856 -90.045 72.6051 -81.0227 -91.5141 73.735 -80.4614 -92.9583 74.6502 
-81.3849 -86.4919 71.2415 -81.1935 -87.6737 72.1013 -80.9818 -89.0533 73.029 
-80.6474 -90.5205 74.0096 -80.2236 -91.9305 75.0204 -79.7931 -93.4684 75.9318 
-80.7633 -85.7849 71.7511 -80.6035 -86.9315 72.4888 -80.3109 -88.2396 73.3072 
-79.9448 -89.658 74.2258 -79.6518 -91.0564 75.2413 -79.5483 -92.4878 76.3172 
-79.4607 -94.0911 77.2917 -79.9742 -85.223 72.1169 -79.8548 -86.3111 72.7334 
-79.6086 -87.5811 73.4665 -79.3207 -88.9125 74.4538 -79.0768 -90.2738 75.5198 
-79.0619 -91.6753 76.5926 -79.2058 -93.146 77.6355 -79.1658 -94.6556 78.4643 
-78.4757 -85.2649 73.3292 -77.7359 -85.8344 74.45 -78.2972 -86.4441 74.0823 
-77.0867 -86.3953 75.8204 -77.6864 -86.9766 75.5294 -78.3472 -87.594 75.2035 
-76.321 -86.9498 77.1474 -77.1359 -87.399 77.0267 -77.898 -87.9632 76.8864 
-78.5257 -88.6918 76.5288 -75.3085 -87.7521 78.2408 -76.3115 -88.0645 78.2598 
-77.1396 -88.5519 78.1337 -77.9037 -89.2445 77.9264 -78.4129 -90.0992 77.5136 
-74.3266 -88.9239 79.0271 -75.2718 -89.0644 79.31 -76.0916 -89.5696 79.0952 
-76.7908 -90.277 78.72 -77.5229 -91.0732 78.5018 -78.1716 -91.8049 78.2654 
-73.6127 -90.3664 79.3772 -74.3198 -90.2333 80.0149 -75.1471 -90.5697 80.1223 
-75.8388 -91.3137 79.6525 -76.5378 -92.1577 79.2823 -77.3639 -92.855 79.2404 
[...]
POINT_DATA 1002
FIELD FieldData 2
Theta 1 1002 float
2.58802 2.58802 0.553574 0.553574 2.12437 1.01722 2.12437 1.01722 1.5708 
1.5708 1.5708 1.5708 2.68241 2.78649 2.89924 3.01861 3.14159 3.01861 
2.89924 2.78649 2.68241 2.61035 2.61791 2.60515 2.56958 2.51327 2.44184 
2.36202 2.27983 2.1997 2.61035 2.61791 2.60515 2.56958 2.51327 2.44184 
2.36202 2.27983 2.1997 2.50947 2.41899 2.31794 2.20864 2.0944 1.97902 
1.86631 1.75944 1.66056 2.50947 2.41899 2.31794 2.20864 2.0944 1.97902 
1.86631 1.75944 1.66056 2.61035 2.61791 2.60515 2.56958 2.51327 2.44184 
2.36202 2.27983 2.1997 2.61035 2.61791 2.60515 2.56958 2.51327 2.44184 
2.36202 2.27983 2.1997 2.50947 2.41899 2.31794 2.20864 2.0944 1.97902 
1.86631 1.75944 1.66056 2.50947 2.41899 2.31794 2.20864 2.0944 1.97902 
1.86631 1.75944 1.66056 0.459179 0.355101 0.242354 0.122983 0 0.122983 
0.242354 0.355101 0.459179 0.531246 0.523681 0.536438 0.57201 0.628319 0.699757 
0.779574 0.86176 0.941896 0.531246 0.523681 0.536438 0.57201 0.628319 0.699757 
0.779574 0.86176 0.941896 0.632123 0.7226 0.823657 0.932948 1.0472 1.16257 
1.27528 1.38216 1.48103 0.632123 0.7226 0.823657 0.932948 1.0472 1.16257 
1.27528 1.38216 1.48103 0.531246 0.523681 0.536438 0.57201 0.628319 0.699757 
0.779574 0.86176 0.941896 0.531246 0.523681 0.536438 0.57201 0.628319 0.699757 
0.779574 0.86176 0.941896 0.632123 0.7226 0.823657 0.932948 1.0472 1.16257 
1.27528 1.38216 1.48103 0.632123 0.7226 0.823657 0.932948 1.0472 1.16257 
1.27528 1.38216 1.48103 2.02998 1.9259 1.81315 1.69378 1.5708 1.44781 
1.32844 1.2157 1.11162 2.0928 2.05283 2.00422 1.94767 1.88496 1.81867 
1.75177 1.68695 1.62623 2.0928 2.05283 2.00422 1.94767 1.88496 1.81867 
1.75177 1.68695 1.62623 1.0488 1.08876 1.13737 1.19392 1.25664 1.32292 
1.38982 1.45464 1.51537 1.0488 1.08876 1.13737 1.19392 1.25664 1.32292 
1.38982 1.45464 1.51537 2.02998 1.9259 1.81315 1.69378 1.5708 1.44781 
1.32844 1.2157 1.11162 2.0928 2.05283 2.00422 1.94767 1.88496 1.81867 
1.75177 1.68695 1.62623 2.0928 2.05283 2.00422 1.94767 1.88496 1.81867 
1.75177 1.68695 1.62623 1.0488 1.08876 1.13737 1.19392 1.25664 1.32292 
1.38982 1.45464 1.51537 1.0488 1.08876 1.13737 1.19392 1.25664 1.32292 
1.38982 1.45464 1.51537 1.5708 1.5708 1.5708 1.5708 1.5708 1.5708 
1.5708 1.5708 1.5708 1.5708 1.5708 1.5708 1.5708 1.5708 1.5708 
1.5708 1.5708 1.5708 2.70908 2.71362 2.81592 2.68886 2.81002 2.92597 
2.6349 2.76254 2.89233 3.01997 2.55881 2.68262 2.80854 2.92834 3.01997 
2.47007 2.58462 2.70048 2.80854 2.89233 2.92597 2.37702 2.48017 2.58462 
2.68262 2.76254 2.81002 2.81592 2.28567 2.37702 2.47007 2.55881 2.6349 
2.68886 2.71362 2.70908 2.52097 2.4195 2.51718 2.30791 2.40503 2.49426 
2.18928 2.28408 2.3734 2.45144 2.06758 2.15805 2.24572 2.32523 2.39165 
1.94707 2.03138 2.11543 2.19453 2.26401 2.32035 1.83164 1.90847 1.98711 
2.06376 2.13422 2.1949 2.24359 1.72413 1.79288 1.86489 1.93728 2.00658 
2.06938 2.12312 2.16654 1.5708 1.50988 1.63171 1.44492 1.5708 1.69667 
1.37826 1.5059 1.63569 1.76333 1.31281 1.43962 1.5708 1.70197 1.82878 
1.25155 1.37501 1.50478 1.63681 1.76659 1.89004 1.19686 1.31493 1.44074 
1.5708 1.70086 1.82666 1.94473 1.15011 1.26149 1.38136 1.50697 1.63462 
1.76024 1.88011 1.99148 1.99148 1.88011 1.94473 1.76024 1.82666 1.89004 
1.63462 1.70086 1.76659 1.82878 1.50697 1.5708 1.63681 1.70197 1.76333 
1.38136 1.44074 1.50478 1.5708 1.63569 1.69667 1.26149 1.31493 1.37501 
1.43962 1.5059 1.5708 1.63171 1.15011 1.19686 1.25155 1.31281 1.37826 
1.44492 1.50988 1.5708 2.16654 2.12312 2.24359 2.06938 2.1949 2.32035 
2.00658 2.13422 2.26401 2.39165 1.93728 2.06376 2.19453 2.32523 2.45144 
1.86489 1.98711 2.11543 2.24572 2.3734 2.49426 1.79288 1.90847 2.03138 
2.15805 2.28408 2.40503 2.51718 1.72413 1.83164 1.94707 2.06758 2.18928 
2.30791 2.4195 2.52097 1.66533 1.66946 1.76911 1.67254 1.777 1.88041 
1.67418 1.78222 1.89102 1.99634 1.67418 1.78405 1.89674 2.00785 2.11299 
1.67254 1.78222 1.89674 2.01191 2.12307 2.22608 1.66946 1.777 1.89102 
2.00785 2.12307 2.23222 2.33166 1.66533 1.76911 1.88041 1.99634 2.11299 
2.22608 2.33166 2.42672 1.47626 1.37249 1.47213 1.26118 1.36459 1.46906 
1.14526 1.25058 1.35938 1.46741 1.0286 1.13374 1.24485 1.35755 1.46741 
0.915514 1.01852 1.12969 1.24485 1.35938 1.46906 0.809937 0.909371 1.01852 
1.13374 1.25058 1.36459 1.47213 0.714871 0.809937 0.915514 1.0286 1.14526 
1.26118 1.37249 1.47626 0.975055 0.898002 1.01847 0.821245 0.946693 1.07221 
0.749941 0.877585 1.00737 1.13501 0.690152 0.816367 0.94706 1.07784 1.20431 
0.647337 0.768195 0.895868 1.02616 1.15448 1.2767 0.624416 0.736561 0.857515 
0.983547 1.11021 1.23313 1.34871 0.620619 0.722093 0.833684 0.952313 1.07402 
1.19452 1.30996 1.41746 0.855925 0.764569 0.764569 0.671524 0.661425 0.671524 
0.582786 0.556971 0.556971 0.582786 0.506696 0.458968 0.441109 0.458968 0.506696 
0.45273 0.379052 0.333054 0.333054 0.379052 0.45273 0.427969 0.331576 0.249267 
0.21325 0.249267 0.331576 0.427969 0.432512 0.325669 0.215619 0.121622 0.121622 
0.215619 0.325669 0.432512 0.432512 0.427969 0.325669 0.45273 0.331576 0.215619 
0.506696 0.379052 0.249267 0.121622 0.582786 0.458968 0.333054 0.21325 0.121622 
0.671524 0.556971 0.441109 0.333054 0.249267 0.215619 0.764569 0.661425 0.556971 
0.458968 0.379052 0.331576 0.325669 0.855925 0.764569 0.671524 0.582786 0.506696 
0.45273 0.427969 0.432512 0.975055 1.01847 0.898002 1.07221 0.946693 0.821245 
1.13501 1.00737 0.877585 0.749941 1.20431 1.07784 0.94706 0.816367 0.690152 
1.2767 1.15448 1.02616 0.895868 0.768195 0.647337 1.34871 1.23313 1.11021 
0.983547 0.857515 0.736561 0.624416 1.41746 1.30996 1.19452 1.07402 0.952313 
0.833684 0.722093 0.620619 1.15011 1.26149 1.19686 1.38136 1.31493 1.25155 
1.50697 1.44074 1.37501 1.31281 1.63462 1.5708 1.50478 1.43962 1.37826 
1.76024 1.70086 1.63681 1.5708 1.5059 1.44492 1.88011 1.82666 1.76659 
1.70197 1.63569 1.5708 1.50988 1.99148 1.94473 1.89004 1.82878 1.76333 
1.69667 1.63171 1.5708 1.15011 1.19686 1.26149 1.25155 1.31493 1.38136 
1.31281 1.37501 1.44074 1.50697 1.37826 1.43962 1.50478 1.5708 1.63462 
1.44492 1.5059 1.5708 1.63681 1.70086 1.76024 1.50988 1.5708 1.63569 
1.70197 1.76659 1.82666 1.88011 1.5708 1.63171 1.69667 1.76333 1.82878 
1.89004 1.94473 1.99148 1.72413 1.83164 1.79288 1.94707 1.90847 1.86489 
2.06758 2.03138 1.98711 1.93728 2.18928 2.15805 2.11543 2.06376 2.00658 
2.30791 2.28408 2.24572 2.19453 2.13422 2.06938 2.4195 2.40503 2.3734 
2.32523 2.26401 2.1949 2.12312 2.52097 2.51718 2.49426 2.45144 2.39165 
2.32035 2.24359 2.16654 2.70908 2.81592 2.71362 2.92597 2.81002 2.68886 
3.01997 2.89233 2.76254 2.6349 3.01997 2.92834 2.80854 2.68262 2.55881 
2.92597 2.89233 2.80854 2.70048 2.58462 2.47007 2.81592 2.81002 2.76254 
2.68262 2.58462 2.48017 2.37702 2.70908 2.71362 2.68886 2.6349 2.55881 
2.47007 2.37702 2.28567 2.16654 2.24359 2.12312 2.32035 2.1949 2.06938 
2.39165 2.26401 2.13422 2.00658 2.45144 2.32523 2.19453 2.06376 1.93728 
2.49426 2.3734 2.24572 2.11543 1.98711 1.86489 2.51718 2.40503 2.28408 
2.15805 2.03138 1.90847 1.79288 2.52097 2.4195 2.30791 2.18928 2.06758 
1.94707 1.83164 1.72413 1.66533 1.76911 1.66946 1.88041 1.777 1.67254 
1.99634 1.89102 1.78222 1.67418 2.11299 2.00785 1.89674 1.78405 1.67418 
2.22608 2.12307 2.01191 1.89674 1.78222 1.67254 2.33166 2.23222 2.12307 
2.00785 1.89102 1.777 1.66946 2.42672 2.33166 2.22608 2.11299 1.99634 
1.88041 1.76911 1.66533 1.47626 1.47213 1.37249 1.46906 1.36459 1.26118 
1.46741 1.35938 1.25058 1.14526 1.46741 1.35755 1.24485 1.13374 1.0286 
1.46906 1.35938 1.24485 1.12969 1.01852 0.915514 1.47213 1.36459 1.25058 
1.13374 1.01852 0.909371 0.809937 1.47626 1.37249 1.26118 1.14526 1.0286 
0.915514 0.809937 0.714871 1.41746 1.30996 1.34871 1.19452 1.23313 1.2767 
1.07402 1.11021 1.15448 1.20431 0.952313 0.983547 1.02616 1.07784 1.13501 
0.833684 0.857515 0.895868 0.94706 1.00737 1.07221 0.722093 0.736561 0.768195 
0.816367 0.877585 0.946693 1.01847 0.620619 0.624416 0.647337 0.690152 0.749941 
0.821245 0.898002 0.975055 0.975055 0.898002 1.01847 0.821245 0.946693 1.07221 
0.749941 0.877585 1.00737 1.13501 0.690152 0.816367 0.94706 1.07784 1.20431 
0.647337 0.768195 0.895868 1.02616 1.15448 1.2767 0.624416 0.736561 0.857515 
0.983547 1.11021 1.23313 1.34871 0.620619 0.722093 0.833684 0.952313 1.07402 
1.19452 1.30996 1.41746 
Phi 1 1002 float
6.28319 3.14159 6.28319 3.14159 4.71239 4.71239 1.5708 1.5708 3.69517 
5.72961 2.58802 0.553574 6.28319 6.28319 6.28319 6.28319 3.14159 3.14159 
3.14159 3.14159 3.14159 6.1053 5.8988 5.67687 5.45995 5.26596 5.10322 
4.97131 4.86569 4.78095 0.177881 0.384387 0.606312 0.823235 1.01722 1.17997 
1.31187 1.4175 1.50223 6.18928 6.10703 6.03531 5.97283 5.91832 5.87061 
5.82869 5.79168 5.75886 0.0939024 0.176153 0.247873 0.310351 0.364864 0.412573 
0.454497 0.491504 0.524326 3.31947 3.52598 3.7479 3.96483 4.15881 4.32156 
4.45346 4.55909 4.64383 2.96371 2.75721 2.53528 2.31836 2.12437 1.96162 
1.82972 1.72409 1.63936 3.2355 3.31775 3.38947 3.45194 3.50646 3.55417 
3.59609 3.6331 3.66592 3.04769 2.96544 2.89372 2.83124 2.77673 2.72902 
2.6871 2.65009 2.61727 6.28319 6.28319 6.28319 6.28319 3.14159 3.14159 
3.14159 3.14159 3.14159 6.1053 5.8988 5.67687 5.45995 5.26596 5.10322 
4.97131 4.86569 4.78095 0.177881 0.384387 0.606312 0.823235 1.01722 1.17997 
1.31187 1.4175 1.50223 6.18928 6.10703 6.03531 5.97283 5.91832 5.87061 
5.82869 5.79168 5.75886 0.0939024 0.176153 0.247873 0.310351 0.364864 0.412573 
0.454497 0.491504 0.524326 3.31947 3.52598 3.7479 3.96483 4.15881 4.32156 
4.45346 4.55909 4.64383 2.96371 2.75721 2.53528 2.31836 2.12437 1.96162 
1.82972 1.72409 1.63936 3.2355 3.31775 3.38947 3.45194 3.50646 3.55417 
3.59609 3.6331 3.66592 3.04769 2.96544 2.89372 2.83124 2.77673 2.72902 
2.6871 2.65009 2.61727 4.71239 4.71239 4.71239 4.71239 4.71239 4.71239 
4.71239 4.71239 4.71239 4.60879 4.49914 4.3857 4.27128 4.15881 4.05096 
3.94976 3.85646 3.77161 4.81599 4.92564 5.03907 5.1535 5.26596 5.37381 
5.47502 5.56831 5.65317 4.60879 4.49914 4.3857 4.27128 4.15881 4.05096 
3.94976 3.85646 3.77161 4.81599 4.92564 5.03907 5.1535 5.26596 5.37381 
5.47502 5.56831 5.65317 1.5708 1.5708 1.5708 1.5708 1.5708 1.5708 
1.5708 1.5708 1.5708 1.6744 1.78405 1.89748 2.01191 2.12437 2.23222 
2.33343 2.42672 2.51157 1.4672 1.35755 1.24411 1.12969 1.01722 0.909371 
0.808166 0.714871 0.63002 1.6744 1.78405 1.89748 2.01191 2.12437 2.23222 
2.33343 2.42672 2.51157 1.4672 1.35755 1.24411 1.12969 1.01722 0.909371 
0.808166 0.714871 0.63002 3.60077 3.49669 3.38395 3.26458 3.14159 3.01861 
2.89924 2.78649 2.68241 5.82401 5.92808 6.04083 6.1602 6.28319 0.122983 
0.242354 0.355101 0.459179 6.05603 5.78856 5.97021 5.51259 5.60297 5.78856 
5.26596 5.26596 5.26596 5.26596 5.06749 5.0121 4.91556 4.71239 4.15881 
4.91556 4.83537 4.71239 4.50922 4.15881 3.63622 4.80045 4.71239 4.58941 
4.41268 4.15881 3.82181 3.45456 4.71239 4.62433 4.50922 4.35729 4.15881 
3.91219 3.63622 3.36875 6.01742 5.94343 5.82633 5.88092 5.76745 5.62798 
5.8278 5.71897 5.58911 5.43724 5.78235 5.67854 5.55757 5.41926 5.26596 
5.74316 5.64441 5.5315 5.40467 5.26596 5.11955 5.70914 5.61528 5.50962 
5.3926 5.26596 5.13292 4.99789 5.67937 5.59016 5.49102 5.38246 5.26596 
5.14407 5.02016 4.89798 5.56831 5.47502 5.47502 5.37381 5.37381 5.37381 
5.26596 5.26596 5.26596 5.26596 5.1535 5.1535 5.1535 5.1535 5.1535 
5.03907 5.03907 5.03907 5.03907 5.03907 5.03907 4.92564 4.92564 4.92564 
4.92564 4.92564 4.92564 4.92564 4.81599 4.81599 4.81599 4.81599 4.81599 
4.81599 4.81599 4.81599 4.60879 4.60879 4.49914 4.60879 4.49914 4.3857 
4.60879 4.49914 4.3857 4.27128 4.60879 4.49914 4.3857 4.27128 4.15881 
4.60879 4.49914 4.3857 4.27128 4.15881 4.05096 4.60879 4.49914 4.3857 
4.27128 4.15881 4.05096 3.94976 4.60879 4.49914 4.3857 4.27128 4.15881 
4.05096 3.94976 3.85646 4.5268 4.40462 4.42689 4.28071 4.29185 4.30523 
4.15881 4.15881 4.15881 4.15881 4.04232 4.03217 4.02011 4.00552 3.98753 
3.93376 3.91515 3.89328 3.86721 3.83566 3.7968 3.83461 3.8095 3.78037 
3.74624 3.70581 3.65733 3.59845 3.7454 3.71564 3.68161 3.64243 3.59698 
3.54386 3.48135 3.40735 3.56428 3.45246 3.52338 3.33203 3.40312 3.47739 
3.20576 3.27463 3.34802 3.42551 3.07742 3.14159 3.21128 3.28647 3.36688 
2.95116 3.00855 3.0719 3.14159 3.21784 3.3006 2.83072 2.88006 2.93517 
2.99672 3.06535 3.14159 3.22575 2.7189 2.7598 2.8058 2.85768 2.9163 
2.98259 3.05743 3.14159 3.56428 3.52338 3.45246 3.47739 3.40312 3.33203 
3.42551 3.34802 3.27463 3.20576 3.36688 3.28647 3.21128 3.14159 3.07742 
3.3006 3.21784 3.14159 3.0719 3.00855 2.95116 3.22575 3.14159 3.06535 
2.99672 2.93517 2.88006 2.83072 3.14159 3.05743 2.98259 2.9163 2.85768 
2.8058 2.7598 2.7189 4.5268 4.42689 4.40462 4.30523 4.29185 4.28071 
4.15881 4.15881 4.15881 4.15881 3.98753 4.00552 4.02011 4.03217 4.04232 
3.7968 3.83566 3.86721 3.89328 3.91515 3.93376 3.59845 3.65733 3.70581 
3.74624 3.78037 3.8095 3.83461 3.40735 3.48135 3.54386 3.59698 3.64243 
3.68161 3.71564 3.7454 4.71239 4.80045 4.62433 4.91556 4.71239 4.50922 
5.06749 4.83537 4.58941 4.35729 5.26596 5.0121 4.71239 4.41268 4.15881 
5.51259 5.26596 4.91556 4.50922 4.15881 3.91219 5.78856 5.60297 5.26596 
4.71239 4.15881 3.82181 3.63622 6.05603 5.97021 5.78856 5.26596 4.15881 
3.63622 3.45456 3.36875 0.227158 0.494626 0.312971 0.770593 0.680215 0.494626 
1.01722 1.01722 1.01722 1.01722 1.2157 1.27109 1.36763 1.5708 2.12437 
1.36763 1.44781 1.5708 1.77397 2.12437 2.64697 1.48273 1.5708 1.69378 
1.8705 2.12437 2.46138 2.82862 1.5708 1.65886 1.77397 1.9259 2.12437 
2.371 2.64697 2.91443 1.75639 1.87857 1.8563 2.00248 1.99133 1.97796 
2.12437 2.12437 2.12437 2.12437 2.24087 2.25101 2.26308 2.27767 2.29565 
2.34943 2.36803 2.38991 2.41597 2.44752 2.48639 2.44857 2.47368 2.50281 
2.53694 2.57738 2.62586 2.68474 2.53778 2.56754 2.60157 2.64076 2.68621 
2.73933 2.80184 2.87583 1.6744 1.6744 1.78405 1.6744 1.78405 1.89748 
1.6744 1.78405 1.89748 2.01191 1.6744 1.78405 1.89748 2.01191 2.12437 
1.6744 1.78405 1.89748 2.01191 2.12437 2.23222 1.6744 1.78405 1.89748 
2.01191 2.12437 2.23222 2.33343 1.6744 1.78405 1.89748 2.01191 2.12437 
2.23222 2.33343 2.42672 1.4672 1.35755 1.4672 1.24411 1.35755 1.4672 
1.12969 1.24411 1.35755 1.4672 1.01722 1.12969 1.24411 1.35755 1.4672 
0.909371 1.01722 1.12969 1.24411 1.35755 1.4672 0.808166 0.909371 1.01722 
1.12969 1.24411 1.35755 1.4672 0.714871 0.808166 0.909371 1.01722 1.12969 
1.24411 1.35755 1.4672 0.603812 0.57405 0.693022 0.540021 0.667908 0.792164 
0.500837 0.638778 0.773562 0.900726 0.455383 0.604649 0.751687 0.890581 1.01722 
0.402264 0.564217 0.725619 0.878514 1.01722 1.13912 0.339753 0.515737 0.694072 
0.863926 1.01722 1.15026 1.26302 0.265762 0.456853 0.655207 0.845941 1.01722 
1.16363 1.28529 1.38521 0.227158 0.312971 0.494626 0.494626 0.680215 0.770593 
1.01722 1.01722 1.01722 1.01722 2.12437 1.5708 1.36763 1.27109 1.2157 
2.64697 2.12437 1.77397 1.5708 1.44781 1.36763 2.82862 2.46138 2.12437 
1.8705 1.69378 1.5708 1.48273 2.91443 2.64697 2.371 2.12437 1.9259 
1.77397 1.65886 1.5708 1.75639 1.8563 1.87857 1.97796 1.99133 2.00248 
2.12437 2.12437 2.12437 2.12437 2.29565 2.27767 2.26308 2.25101 2.24087 
2.48639 2.44752 2.41597 2.38991 2.36803 2.34943 2.68474 2.62586 2.57738 
2.53694 2.50281 2.47368 2.44857 2.87583 2.80184 2.73933 2.68621 2.64076 
2.60157 2.56754 2.53778 5.86049 5.90139 5.97231 5.94739 6.02165 6.09275 
5.99927 6.07676 6.15015 6.21902 6.0579 6.13831 6.2135 0 0.0641696 
6.12418 6.20694 6.28319 0.069689 0.13304 0.190437 6.19903 0 0.0762451 
0.144876 0.206423 0.261531 0.310872 0 0.0841597 0.159004 0.225289 0.283913 
0.335793 0.381792 0.422692 5.86049 5.97231 5.90139 6.09275 6.02165 5.94739 
6.21902 6.15015 6.07676 5.99927 0.0641696 0 6.2135 6.13831 6.0579 
0.190437 0.13304 0.069689 6.28319 6.20694 6.12418 0.310872 0.261531 0.206423 
0.144876 0.0762451 6.28319 6.19903 0.422692 0.381792 0.335793 0.283913 0.225289 
0.159004 0.0841597 0 5.67937 5.70914 5.59016 5.74316 5.61528 5.49102 
5.78235 5.64441 5.50962 5.38246 5.8278 5.67854 5.5315 5.3926 5.26596 
5.88092 5.71897 5.55757 5.40467 5.26596 5.14407 5.94343 5.76745 5.58911 
5.41926 5.26596 5.13292 5.02016 6.01742 5.82633 5.62798 5.43724 5.26596 
5.11955 4.99789 4.89798 1.38521 1.28529 1.26302 1.16363 1.15026 1.13912 
1.01722 1.01722 1.01722 1.01722 0.845941 0.863926 0.878514 0.890581 0.900726 
0.655207 0.694072 0.725619 0.751687 0.773562 0.792164 0.456853 0.515737 0.564217 
0.604649 0.638778 0.667908 0.693022 0.265762 0.339753 0.402264 0.455383 0.500837 
0.540021 0.57405 0.603812 
