# vtk DataFile Version 4.0
vtk output
ASCII
DATASET POLYDATA
POINTS 1002 float
-84.5825 -91.7014 69.0581 -77.5599 -105.311 74.086 -74.3289 -87.037 69.7576 
-70.543 -103.85 73.7171 -79.9174 -96.5021 80.127 -74.3461 -93.5797 80.6744 
-78.2366 -98.844 65.6658 -72.9973 -99.2314 65.7793 -73.6385 -109.617 81.4513 
-80.8028 -84.0811 72.3946 -72.005 -113.731 66.5316 -82.8122 -85.3247 61.5233 
-83.7665 -92.6674 69.5175 -82.7985 -93.5551 70.1849 -81.8293 -94.5888 71.0639 
-81.0769 -96.0828 71.9344 -80.3366 -97.7134 72.6039 -79.3716 -99.089 73.1272 
-78.664 -100.661 73.535 -78.4327 -102.592 73.7737 -78.1397 -104.241 73.9245 
-84.1255 -91.9423 70.0483 -83.7081 -92.2688 71.3136 -83.46 -92.6317 72.8116 
-83.3658 -93.0124 74.3103 -83.156 -93.477 75.6679 -82.6449 -94.1556 76.9494 
-81.9193 -95.0204 78.0809 -81.1439 -95.7798 78.9106 -80.4551 -96.2313 79.5294 
-84.5689 -92.1304 68.4244 -84.4903 -92.5765 67.8325 -84.2392 -93.1536 67.2882 
-83.7765 -93.9357 66.7802 -83.042 -94.7215 66.4076 -81.9844 -95.3441 66.1924 
-80.892 -96.0239 65.984 -80.0014 -96.9365 65.7912 -79.1458 -97.926 65.7129 
-84.9976 -90.7147 69.2052 -85.1594 -89.6267 69.2606 -84.892 -88.6078 69.2982 
-84.453 -87.5715 69.6525 -84.1898 -86.5048 70.2987 -83.7927 -85.6883 70.7393 
-82.9416 -85.143 70.937 -82.0119 -84.6825 71.2903 -81.3355 -84.314 71.845 
-85.3515 -90.9877 68.2614 -86.221 -90.3317 67.4172 -87.0346 -89.5694 66.4546 
-87.3044 -88.5834 65.3244 -86.7736 -87.7258 64.1976 -85.9334 -87.172 63.3079 
-85.2602 -86.5301 62.5725 -84.5933 -85.7671 61.9146 -83.7345 -85.3208 61.5325 
-77.9477 -104.911 74.9348 -78.3707 -104.249 75.7695 -78.7163 -103.323 76.605 
-78.9307 -102.375 77.5079 -79.3462 -101.549 78.4186 -80.0604 -100.727 79.3089 
-80.4671 -99.8424 80.0262 -80.2861 -98.86 80.2581 -79.9801 -97.7094 80.1418 
-77.5573 -105.054 73.1504 -77.4637 -104.669 72.2358 -77.3361 -104.126 71.3439 
-77.2918 -103.47 70.4593 -77.2926 -102.729 69.5773 -77.3527 -101.976 68.6056 
-77.5912 -101.28 67.5846 -77.903 -100.557 66.7588 -78.1119 -99.7231 66.1756 
-77.1909 -106.027 74.8014 -77.0423 -106.954 75.5519 -77.0629 -108.004 76.2823 
-76.8024 -108.762 77.0627 -76.2491 -109.211 77.9787 -75.9162 -109.711 78.9475 
-75.6953 -110.133 79.8652 -75.1187 -110.204 80.673 -74.3041 -110.002 81.2361 
-76.9234 -106.075 73.6549 -76.4216 -107.196 73.1513 -76.0988 -108.74 72.5318 
-75.7541 -110.201 71.7185 -75.3438 -111.412 70.6651 -74.9145 -112.571 69.5801 
-74.3307 -113.336 68.7257 -73.5628 -113.52 67.9958 -72.7565 -113.582 67.2217 
-73.7954 -88.1097 70.2256 -73.4019 -89.5643 70.7014 -72.8918 -91.2415 71.2596 
-72.3061 -93.0226 71.8504 -72.0659 -95.2307 72.3615 -71.8969 -97.6248 72.8503 
-71.2854 -99.323 73.328 -70.6648 -100.511 73.637 -70.4993 -102.024 73.7326 
-74.1967 -87.2398 70.774 -74.2925 -87.7508 71.798 -74.4684 -88.4704 72.8577 
-74.471 -89.1623 74.0796 -74.3625 -89.8275 75.4278 -74.317 -90.5651 76.7226 
-74.2745 -91.2828 77.9318 -74.2194 -91.9577 79.0607 -74.2479 -92.7161 79.9933 
-74.1749 -87.5873 69.0238 -73.979 -88.2549 68.2506 -73.6965 -89.0366 67.4844 
-73.4089 -90.0164 66.8062 -73.1888 -91.2746 66.3497 -73.0484 -92.7359 66.1098 
-73.0331 -94.2984 66.0372 -73.111 -95.9821 66.1089 -73.1306 -97.7078 66.0964 
-74.8819 -86.1565 69.87 -75.4673 -85.1816 69.9614 -75.9706 -84.1274 70.1217 
-76.4942 -83.1807 70.5447 -77.2019 -82.4868 71.3064 -78.0448 -82.1237 72.0016 
-78.8989 -82.2404 72.1973 -79.6901 -82.7884 72.1156 -80.3368 -83.4684 72.1718 
-74.98 -86.4534 68.7917 -75.754 -85.8265 67.7938 -76.4852 -85.1686 66.867 
-77.2763 -84.6902 65.9156 -78.218 -84.3248 64.8677 -79.19 -84.0272 63.9697 
-80.1909 -84.1552 63.3442 -81.2076 -84.6448 62.7604 -82.0882 -85.042 62.1061 
-70.3861 -102.757 74.7877 -70.4913 -101.799 75.5547 -71.1085 -101.015 76.0572 
-71.8514 -100.071 76.7868 -72.2154 -98.82 77.8194 -72.4822 -97.5749 78.6779 
-72.9483 -96.4785 79.2692 -73.4092 -95.4107 79.8182 -73.8363 -94.4122 80.3142 
-70.6292 -103.732 72.6231 -70.4628 -103.432 71.5848 -70.1809 -103.101 70.6282 
-70.221 -102.889 69.7933 -70.6582 -102.623 69.019 -71.1268 -102.122 68.1241 
-71.5697 -101.535 67.2712 -72.1432 -100.947 66.7224 -72.6846 -100.202 66.3071 
-70.4242 -104.947 74.4393 -70.4246 -105.944 75.204 -70.6837 -106.899 75.8567 
-70.9561 -107.814 76.5228 -71.107 -108.519 77.4104 -71.4657 -108.968 78.3158 
-72.1006 -109.282 79.0645 -72.673 -109.502 79.8567 -73.1181 -109.616 80.7325 
-70.5529 -105.607 72.9575 -70.2842 -106.935 72.2975 -70.0219 -107.763 71.8295 
-70.1542 -108.729 71.2236 -70.4406 -110.039 70.3176 -70.52 -111.345 69.3941 
-70.5747 -112.631 68.4918 -70.8489 -113.693 67.529 -71.3524 -114.046 66.7962 
-79.6926 -95.9592 80.691 -79.3859 -95.5215 81.3151 -78.8297 -95.2163 81.7836 
-78.1147 -94.8717 82.167 -77.4116 -94.399 82.5026 -76.6877 -94.0179 82.509 
-75.9413 -93.8665 82.1409 -75.2973 -93.793 81.6656 -74.781 -93.6836 81.1907 
-79.4328 -97.6371 80.8101 -78.9625 -99.1194 81.7612 -78.3981 -100.738 82.6677 
-77.6645 -102.191 83.1141 -76.8914 -103.582 83.2619 -76.2072 -105.205 83.4987 
-75.524 -106.896 83.6054 -74.7976 -108.196 83.2146 -74.1458 -109.014 82.4087 
-80.3347 -95.1845 79.9574 -80.7495 -93.8705 79.7963 -80.9762 -92.384 79.2851 
-81.1021 -90.6889 78.4371 -81.2449 -89.1165 77.4861 -81.2708 -87.7848 76.416 
-81.15 -86.5669 75.3215 -81.0204 -85.5625 74.3447 -80.9107 -84.7984 73.3695 
-74.0882 -95.0116 81.1043 -73.7545 -96.4419 81.7075 -73.4441 -97.8794 82.4028 
-73.3288 -99.6438 82.8484 -73.3608 -101.709 82.9117 -73.3587 -103.704 82.8209 
-73.3186 -105.568 82.7194 -73.3312 -107.281 82.4949 -73.4349 -108.64 82.0535 
-74.8667 -92.2607 80.5882 -75.3844 -90.9474 80.3605 -75.8413 -89.5729 79.8416 
-76.4186 -88.0238 79.1126 -77.259 -86.4732 78.4339 -78.1825 -85.3252 77.6463 
-79.0135 -84.7572 76.4072 -79.7301 -84.5424 74.9151 -80.3165 -84.3504 73.5511 
-77.7914 -98.8844 65.2135 -77.4076 -98.9902 64.6876 -76.9 -99.1019 64.3314 
-76.1053 -99.1202 64.2295 -75.1916 -99.0454 64.196 -74.3559 -99.0158 64.1271 
-73.6309 -99.1237 64.1614 -73.1501 -99.2823 64.4823 -72.9967 -99.3409 65.0896 
-77.217 -100.339 65.8385 -76.3167 -102.097 65.7545 -75.865 -104.294 65.3206 
-75.6221 -106.732 64.7635 -75.0565 -108.802 64.4344 -74.2829 -110.197 64.507 
-73.6557 -111.151 64.9229 -73.0921 -112.007 65.4498 -72.4996 -112.913 65.9542 
-78.9134 -97.3361 65.148 -79.6943 -95.7479 64.4913 -80.662 -94.2535 63.6281 
-81.6381 -92.97 62.5485 -82.3713 -91.8948 61.5042 -82.8711 -90.7203 60.8213 
-83.163 -89.1355 60.5225 -83.1828 -87.439 60.5422 -83.0181 -86.1497 60.9106 
-72.5078 -101.143 65.4295 -71.742 -102.768 64.7719 -71.022 -104.337 64.1415 
-70.6779 -106.123 63.5116 -70.5974 -107.856 62.9541 -70.5586 -109.37 63.0427 
-70.6631 -110.927 63.8027 -71.0252 -112.369 64.6935 -71.5217 -113.291 65.5749 
-73.2806 -97.1491 65.2361 -73.7195 -94.9996 64.3431 -74.7365 -93.2096 63.5854 
-76.2842 -91.757 63.2563 -77.8189 -90.3737 62.964 -79.0464 -89.0566 62.3629 
-80.1025 -87.9019 61.7376 -81.0933 -86.8839 61.3979 -82.0022 -86.0078 61.3491 
-73.5001 -110.592 80.3965 -73.3172 -111.718 79.2185 -73.1042 -112.827 77.9614 
-72.8904 -113.741 76.702 -72.7212 -114.329 75.2164 -72.6289 -114.569 73.2188 
-72.5217 -114.617 71.0173 -72.3129 -114.548 69.1296 -72.1013 -114.259 67.6714 
-81.097 -83.3781 71.1824 -81.5623 -82.7023 70.0613 -82.1499 -82.2417 68.9676 
-82.7322 -81.8693 67.6097 -83.2454 -81.533 65.9085 -83.6272 -81.646 64.3456 
-83.7141 -82.4404 63.3505 -83.4889 -83.5362 62.736 -83.148 -84.5128 62.1399 
-83.212 -92.9351 70.6659 -82.7644 -93.2293 72.1228 -82.1976 -93.8036 71.5111 
-82.5584 -93.6389 73.6733 -81.8216 -94.2427 73.085 -81.4404 -95.0718 72.4559 
-82.4937 -94.2962 75.0144 -81.7378 -95.0373 74.5104 -81.3223 -95.9389 73.9295 
-80.9768 -96.9491 73.1711 -82.3395 -95.217 76.2821 -81.8094 -96.146 75.6403 
-81.3801 -97.0616 75.1513 -80.9371 -97.972 74.4346 -80.1918 -98.6158 73.6666 
-81.9687 -96.2173 77.6642 -81.8255 -97.2836 76.9313 -81.4567 -98.1551 76.2474 
-80.8478 -98.8787 75.6163 -79.9982 -99.4124 74.8554 -79.1547 -99.9096 74.165 
-81.3598 -97.0087 78.8319 -81.5661 -98.1337 78.4044 -81.3667 -99.0012 77.6011 
-80.6558 -99.622 76.8102 -79.7844 -100.107 76.0749 -79.0604 -100.708 75.3156 
-78.6229 -101.592 74.5697 -80.6325 -97.4549 79.5749 -80.985 -98.5996 79.5368 
-81.007 -99.5252 78.9856 -80.3648 -100.24 78.0993 -79.5368 -100.827 77.2519 
-79.0079 -101.525 76.435 -78.6797 -102.486 75.6168 -78.4074 -103.485 74.7852 
-84.527 -90.9584 70.2814 -84.5686 -89.9103 70.4595 -84.1129 -91.383 71.6729 
-84.2249 -88.9073 70.716 -84.0541 -90.4496 71.9691 -83.8818 -91.8631 73.26 
-83.8873 -87.8409 71.2084 -83.6286 -89.5208 72.192 -83.6807 -91.039 73.4929 
-83.6925 -92.2173 74.7881 -83.5934 -86.8449 71.6666 -83.147 -88.527 72.3976 
-82.9831 -90.1839 73.4288 -83.2235 -91.3511 74.8838 -83.2109 -92.5156 76.1549 
-82.9377 -86.1409 71.8905 -82.5871 -87.5944 72.6333 -82.2414 -89.2413 73.4687 
-82.3109 -90.4915 74.7782 -82.5766 -91.572 76.2571 -82.4376 -93.1104 77.3666 
-82.0679 -85.6052 72.2076 -81.9562 -86.8021 73.042 -81.7712 -88.255 73.937 
-81.712 -89.582 75.1066 -81.849 -90.7625 76.4435 -81.919 -92.2175 77.6081 
-81.6224 -94.002 78.3843 -81.4005 -85.1413 72.7755 -81.4464 -86.1102 73.678 
-81.5019 -87.3253 74.6539 -81.5447 -88.6259 75.8119 -81.5195 -89.9491 76.9879 
-81.4776 -91.4802 78.0416 -81.3174 -93.1501 78.8146 -80.9116 -94.7539 79.2273 
-80.4689 -84.9865 74.6765 -79.8591 -85.2056 76.0783 -80.5778 -85.8175 75.7211 
-79.1203 -85.7179 77.3821 -79.8871 -86.3489 77.0328 -80.6442 -87.023 76.7443 
-78.2958 -86.6636 78.4269 -79.1509 -87.2287 78.1949 -79.8282 -87.8143 77.9657 
-80.6215 -88.3942 77.7644 -77.2968 -87.8559 79.4388 -78.4047 -88.1446 79.4375 
-79.1368 -88.6633 79.2051 -79.7292 -89.2404 78.8689 -80.4911 -89.9394 78.6604 
-76.3591 -89.1477 80.4674 -77.4257 -89.0124 80.7967 -78.4942 -89.3307 80.6989 
-79.1063 -90.0276 80.1615 -79.6798 -90.8998 79.7055 -80.4069 -91.7349 79.5645 
-75.7692 -90.5983 81.0679 -76.5051 -90.2729 81.6389 -77.5751 -90.2936 81.8695 
-78.4597 -90.8935 81.4964 -79.0531 -91.8357 80.8491 -79.7061 -92.6946 80.5378 
[...]
POINT_DATA 1002
FIELD FieldData 2
Theta 1 1002 float
2.58802 2.58802 0.553574 0.553574 2.12437 1.01722 2.12437 1.01722 1.5708 
1.5708 1.5708 1.5708 2.68241 2.78649 2.89924 3.01861 3.14159 3.01861 
2.89924 2.78649 2.68241 2.61035 2.61791 2.60515 2.56958 2.51327 2.44184 
2.36202 2.27983 2.1997 2.61035 2.61791 2.60515 2.56958 2.51327 2.44184 
2.36202 2.27983 2.1997 2.50947 2.41899 2.31794 2.20864 2.0944 1.97902 
1.86631 1.75944 1.66056 2.50947 2.41899 2.31794 2.20864 2.0944 1.97902 
1.86631 1.75944 1.66056 2.61035 2.61791 2.60515 2.56958 2.51327 2.44184 
2.36202 2.27983 2.1997 2.61035 2.61791 2.60515 2.56958 2.51327 2.44184 
2.36202 2.27983 2.1997 2.50947 2.41899 2.31794 2.20864 2.0944 1.97902 
1.86631 1.75944 1.66056 2.50947 2.41899 2.31794 2.20864 2.0944 1.97902 
1.86631 1.75944 1.66056 0.459179 0.355101 0.242354 0.122983 0 0.122983 
0.242354 0.355101 0.459179 0.531246 0.523681 0.536438 0.57201 0.628319 0.699757 
0.779574 0.86176 0.941896 0.531246 0.523681 0.536438 0.57201 0.628319 0.699757 
0.779574 0.86176 0.941896 0.632123 0.7226 0.823657 0.932948 1.0472 1.16257 
1.27528 1.38216 1.48103 0.632123 0.7226 0.823657 0.932948 1.0472 1.16257 
1.27528 1.38216 1.48103 0.531246 0.523681 0.536438 0.57201 0.628319 0.699757 
0.779574 0.86176 0.941896 0.531246 0.523681 0.536438 0.57201 0.628319 0.699757 
0.779574 0.86176 0.941896 0.632123 0.7226 0.823657 0.932948 1.0472 1.16257 
1.27528 1.38216 1.48103 0.632123 0.7226 0.823657 0.932948 1.0472 1.16257 
1.27528 1.38216 1.48103 2.02998 1.9259 1.81315 1.69378 1.5708 1.44781 
1.32844 1.2157 1.11162 2.0928 2.05283 2.00422 1.94767 1.88496 1.81867 
1.75177 1.68695 1.62623 2.0928 2.05283 2.00422 1.94767 1.88496 1.81867 
1.75177 1.68695 1.62623 1.0488 1.08876 1.13737 1.19392 1.25664 1.32292 
1.38982 1.45464 1.51537 1.0488 1.08876 1.13737 1.19392 1.25664 1.32292 
1.38982 1.45464 1.51537 2.02998 1.9259 1.81315 1.69378 1.5708 1.44781 
1.32844 1.2157 1.11162 2.0928 2.05283 2.00422 1.94767 1.88496 1.81867 
1.75177 1.68695 1.62623 2.0928 2.05283 2.00422 1.94767 1.88496 1.81867 
1.75177 1.68695 1.62623 1.0488 1.08876 1.13737 1.19392 1.25664 1.32292 
1.38982 1.45464 1.51537 1.0488 1.08876 1.13737 1.19392 1.25664 1.32292 
1.38982 1.45464 1.51537 1.5708 1.5708 1.5708 1.5708 1.5708 1.5708 
1.5708 1.5708 1.5708 1.5708 1.5708 1.5708 1.5708 1.5708 1.5708 
1.5708 1.5708 1.5708 2.70908 2.71362 2.81592 2.68886 2.81002 2.92597 
2.6349 2.76254 2.89233 3.01997 2.55881 2.68262 2.80854 2.92834 3.01997 
2.47007 2.58462 2.70048 2.80854 2.89233 2.92597 2.37702 2.48017 2.58462 
2.68262 2.76254 2.81002 2.81592 2.28567 2.37702 2.47007 2.55881 2.6349 
2.68886 2.71362 2.70908 2.52097 2.4195 2.51718 2.30791 2.40503 2.49426 
2.18928 2.28408 2.3734 2.45144 2.06758 2.15805 2.24572 2.32523 2.39165 
1.94707 2.03138 2.11543 2.19453 2.26401 2.32035 1.83164 1.90847 1.98711 
2.06376 2.13422 2.1949 2.24359 1.72413 1.79288 1.86489 1.93728 2.00658 
2.06938 2.12312 2.16654 1.5708 1.50988 1.63171 1.44492 1.5708 1.69667 
1.37826 1.5059 1.63569 1.76333 1.31281 1.43962 1.5708 1.70197 1.82878 
1.25155 1.37501 1.50478 1.63681 1.76659 1.89004 1.19686 1.31493 1.44074 
1.5708 1.70086 1.82666 1.94473 1.15011 1.26149 1.38136 1.50697 1.63462 
1.76024 1.88011 1.99148 1.99148 1.88011 1.94473 1.76024 1.82666 1.89004 
1.63462 1.70086 1.76659 1.82878 1.50697 1.5708 1.63681 1.70197 1.76333 
1.38136 1.44074 1.50478 1.5708 1.63569 1.69667 1.26149 1.31493 1.37501 
1.43962 1.5059 1.5708 1.63171 1.15011 1.19686 1.25155 1.31281 1.37826 
1.44492 1.50988 1.5708 2.16654 2.12312 2.24359 2.06938 2.1949 2.32035 
2.00658 2.13422 2.26401 2.39165 1.93728 2.06376 2.19453 2.32523 2.45144 
1.86489 1.98711 2.11543 2.24572 2.3734 2.49426 1.79288 1.90847 2.03138 
2.15805 2.28408 2.40503 2.51718 1.72413 1.83164 1.94707 2.06758 2.18928 
2.30791 2.4195 2.52097 1.66533 1.66946 1.76911 1.67254 1.777 1.88041 
1.67418 1.78222 1.89102 1.99634 1.67418 1.78405 1.89674 2.00785 2.11299 
1.67254 1.78222 1.89674 2.01191 2.12307 2.22608 1.66946 1.777 1.89102 
2.00785 2.12307 2.23222 2.33166 1.66533 1.76911 1.88041 1.99634 2.11299 
2.22608 2.33166 2.42672 1.47626 1.37249 1.47213 1.26118 1.36459 1.46906 
1.14526 1.25058 1.35938 1.46741 1.0286 1.13374 1.24485 1.35755 1.46741 
0.915514 1.01852 1.12969 1.24485 1.35938 1.46906 0.809937 0.909371 1.01852 
1.13374 1.25058 1.36459 1.47213 0.714871 0.809937 0.915514 1.0286 1.14526 
1.26118 1.37249 1.47626 0.975055 0.898002 1.01847 0.821245 0.946693 1.07221 
0.749941 0.877585 1.00737 1.13501 0.690152 0.816367 0.94706 1.07784 1.20431 
0.647337 0.768195 0.895868 1.02616 1.15448 1.2767 0.624416 0.736561 0.857515 
0.983547 1.11021 1.23313 1.34871 0.620619 0.722093 0.833684 0.952313 1.07402 
1.19452 1.30996 1.41746 0.855925 0.764569 0.764569 0.671524 0.661425 0.671524 
0.582786 0.556971 0.556971 0.582786 0.506696 0.458968 0.441109 0.458968 0.506696 
0.45273 0.379052 0.333054 0.333054 0.379052 0.45273 0.427969 0.331576 0.249267 
0.21325 0.249267 0.331576 0.427969 0.432512 0.325669 0.215619 0.121622 0.121622 
0.215619 0.325669 0.432512 0.432512 0.427969 0.325669 0.45273 0.331576 0.215619 
0.506696 0.379052 0.249267 0.121622 0.582786 0.458968 0.333054 0.21325 0.121622 
0.671524 0.556971 0.441109 0.333054 0.249267 0.215619 0.764569 0.661425 0.556971 
0.458968 0.379052 0.331576 0.325669 0.855925 0.764569 0.671524 0.582786 0.506696 
0.45273 0.427969 0.432512 0.975055 1.01847 0.898002 1.07221 0.946693 0.821245 
1.13501 1.00737 0.877585 0.749941 1.20431 1.07784 0.94706 0.816367 0.690152 
1.2767 1.15448 1.02616 0.895868 0.768195 0.647337 1.34871 1.23313 1.11021 
0.983547 0.857515 0.736561 0.624416 1.41746 1.30996 1.19452 1.07402 0.952313 
0.833684 0.722093 0.620619 1.15011 1.26149 1.19686 1.38136 1.31493 1.25155 
1.50697 1.44074 1.37501 1.31281 1.63462 1.5708 1.50478 1.43962 1.37826 
1.76024 1.70086 1.63681 1.5708 1.5059 1.44492 1.88011 1.82666 1.76659 
1.70197 1.63569 1.5708 1.50988 1.99148 1.94473 1.89004 1.82878 1.76333 
1.69667 1.63171 1.5708 1.15011 1.19686 1.26149 1.25155 1.31493 1.38136 
1.31281 1.37501 1.44074 1.50697 1.37826 1.43962 1.50478 1.5708 1.63462 
1.44492 1.5059 1.5708 1.63681 1.70086 1.76024 1.50988 1.5708 1.63569 
1.70197 1.76659 1.82666 1.88011 1.5708 1.63171 1.69667 1.76333 1.82878 
1.89004 1.94473 1.99148 1.72413 1.83164 1.79288 1.94707 1.90847 1.86489 
2.06758 2.03138 1.98711 1.93728 2.18928 2.15805 2.11543 2.06376 2.00658 
2.30791 2.28408 2.24572 2.19453 2.13422 2.06938 2.4195 2.40503 2.3734 
2.32523 2.26401 2.1949 2.12312 2.52097 2.51718 2.49426 2.45144 2.39165 
2.32035 2.24359 2.16654 2.70908 2.81592 2.71362 2.92597 2.81002 2.68886 
3.01997 2.89233 2.76254 2.6349 3.01997 2.92834 2.80854 2.68262 2.55881 
2.92597 2.89233 2.80854 2.70048 2.58462 2.47007 2.81592 2.81002 2.76254 
2.68262 2.58462 2.48017 2.37702 2.70908 2.71362 2.68886 2.6349 2.55881 
2.47007 2.37702 2.28567 2.16654 2.24359 2.12312 2.32035 2.1949 2.06938 
2.39165 2.26401 2.13422 2.00658 2.45144 2.32523 2.19453 2.06376 1.93728 
2.49426 2.3734 2.24572 2.11543 1.98711 1.86489 2.51718 2.40503 2.28408 
2.15805 2.03138 1.90847 1.79288 2.52097 2.4195 2.30791 2.18928 2.06758 
1.94707 1.83164 1.72413 1.66533 1.76911 1.66946 1.88041 1.777 1.67254 
1.99634 1.89102 1.78222 1.67418 2.11299 2.00785 1.89674 1.78405 1.67418 
2.22608 2.12307 2.01191 1.89674 1.78222 1.67254 2.33166 2.23222 2.12307 
2.00785 1.89102 1.777 1.66946 2.42672 2.33166 2.22608 2.11299 1.99634 
1.88041 1.76911 1.66533 1.47626 1.47213 1.37249 1.46906 1.36459 1.26118 
1.46741 1.35938 1.25058 1.14526 1.46741 1.35755 1.24485 1.13374 1.0286 
1.46906 1.35938 1.24485 1.12969 1.01852 0.915514 1.47213 1.36459 1.25058 
1.13374 1.01852 0.909371 0.809937 1.47626 1.37249 1.26118 1.14526 1.0286 
0.915514 0.809937 0.714871 1.41746 1.30996 1.34871 1.19452 1.23313 1.2767 
1.07402 1.11021 1.15448 1.20431 0.952313 0.983547 1.02616 1.07784 1.13501 
0.833684 0.857515 0.895868 0.94706 1.00737 1.07221 0.722093 0.736561 0.768195 
0.816367 0.877585 0.946693 1.01847 0.620619 0.624416 0.647337 0.690152 0.749941 
0.821245 0.898002 0.975055 0.975055 0.898002 1.01847 0.821245 0.946693 1.07221 
0.749941 0.877585 1.00737 1.13501 0.690152 0.816367 0.94706 1.07784 1.20431 
0.647337 0.768195 0.895868 1.02616 1.15448 1.2767 0.624416 0.736561 0.857515 
0.983547 1.11021 1.23313 1.34871 0.620619 0.722093 0.833684 0.952313 1.07402 
1.19452 1.30996 1.41746 
Phi 1 1002 float
6.28319 3.14159 6.28319 3.14159 4.71239 4.71239 1.5708 1.5708 3.69517 
5.72961 2.58802 0.553574 6.28319 6.28319 6.28319 6.28319 3.14159 3.14159 
3.14159 3.14159 3.14159 6.1053 5.8988 5.67687 5.45995 5.26596 5.10322 
4.97131 4.86569 4.78095 0.177881 0.384387 0.606312 0.823235 1.01722 1.17997 
1.31187 1.4175 1.50223 6.18928 6.10703 6.03531 5.97283 5.91832 5.87061 
5.82869 5.79168 5.75886 0.0939024 0.176153 0.247873 0.310351 0.364864 0.412573 
0.454497 0.491504 0.524326 3.31947 3.52598 3.7479 3.96483 4.15881 4.32156 
4.45346 4.55909 4.64383 2.96371 2.75721 2.53528 2.31836 2.12437 1.96162 
1.82972 1.72409 1.63936 3.2355 3.31775 3.38947 3.45194 3.50646 3.55417 
3.59609 3.6331 3.66592 3.04769 2.96544 2.89372 2.83124 2.77673 2.72902 
2.6871 2.65009 2.61727 6.28319 6.28319 6.28319 6.28319 3.14159 3.14159 
3.14159 3.14159 3.14159 6.1053 5.8988 5.67687 5.45995 5.26596 5.10322 
4.97131 4.86569 4.78095 0.177881 0.384387 0.606312 0.823235 1.01722 1.17997 
1.31187 1.4175 1.50223 6.18928 6.10703 6.03531 5.97283 5.91832 5.87061 
5.82869 5.79168 5.75886 0.0939024 0.176153 0.247873 0.310351 0.364864 0.412573 
0.454497 0.491504 0.524326 3.31947 3.52598 3.7479 3.96483 4.15881 4.32156 
4.45346 4.55909 4.64383 2.96371 2.75721 2.53528 2.31836 2.12437 1.96162 
1.82972 1.72409 1.63936 3.2355 3.31775 3.38947 3.45194 3.50646 3.55417 
3.59609 3.6331 3.66592 3.04769 2.96544 2.89372 2.83124 2.77673 2.72902 
2.6871 2.65009 2.61727 4.71239 4.71239 4.71239 4.71239 4.71239 4.71239 
4.71239 4.71239 4.71239 4.60879 4.49914 4.3857 4.27128 4.15881 4.05096 
3.94976 3.85646 3.77161 4.81599 4.92564 5.03907 5.1535 5.26596 5.37381 
5.47502 5.56831 5.65317 4.60879 4.49914 4.3857 4.27128 4.15881 4.05096 
3.94976 3.85646 3.77161 4.81599 4.92564 5.03907 5.1535 5.26596 5.37381 
5.47502 5.56831 5.65317 1.5708 1.5708 1.5708 1.5708 1.5708 1.5708 
1.5708 1.5708 1.5708 1.6744 1.78405 1.89748 2.01191 2.12437 2.23222 
2.33343 2.42672 2.51157 1.4672 1.35755 1.24411 1.12969 1.01722 0.909371 
0.808166 0.714871 0.63002 1.6744 1.78405 1.89748 2.01191 2.12437 2.23222 
2.33343 2.42672 2.51157 1.4672 1.35755 1.24411 1.12969 1.01722 0.909371 
0.808166 0.714871 0.63002 3.60077 3.49669 3.38395 3.26458 3.14159 3.01861 
2.89924 2.78649 2.68241 5.82401 5.92808 6.04083 6.1602 6.28319 0.122983 
0.242354 0.355101 0.459179 6.05603 5.78856 5.97021 5.51259 5.60297 5.78856 
5.26596 5.26596 5.26596 5.26596 5.06749 5.0121 4.91556 4.71239 4.15881 
4.91556 4.83537 4.71239 4.50922 4.15881 3.63622 4.80045 4.71239 4.58941 
4.41268 4.15881 3.82181 3.45456 4.71239 4.62433 4.50922 4.35729 4.15881 
3.91219 3.63622 3.36875 6.01742 5.94343 5.82633 5.88092 5.76745 5.62798 
5.8278 5.71897 5.58911 5.43724 5.78235 5.67854 5.55757 5.41926 5.26596 
5.74316 5.64441 5.5315 5.40467 5.26596 5.11955 5.70914 5.61528 5.50962 
5.3926 5.26596 5.13292 4.99789 5.67937 5.59016 5.49102 5.38246 5.26596 
5.14407 5.02016 4.89798 5.56831 5.47502 5.47502 5.37381 5.37381 5.37381 
5.26596 5.26596 5.26596 5.26596 5.1535 5.1535 5.1535 5.1535 5.1535 
5.03907 5.03907 5.03907 5.03907 5.03907 5.03907 4.92564 4.92564 4.92564 
4.92564 4.92564 4.92564 4.92564 4.81599 4.81599 4.81599 4.81599 4.81599 
4.81599 4.81599 4.81599 4.60879 4.60879 4.49914 4.60879 4.49914 4.3857 
4.60879 4.49914 4.3857 4.27128 4.60879 4.49914 4.3857 4.27128 4.15881 
4.60879 4.49914 4.3857 4.27128 4.15881 4.05096 4.60879 4.49914 4.3857 
4.27128 4.15881 4.05096 3.94976 4.60879 4.49914 4.3857 4.27128 4.15881 
4.05096 3.94976 3.85646 4.5268 4.40462 4.42689 4.28071 4.29185 4.30523 
4.15881 4.15881 4.15881 4.15881 4.04232 4.03217 4.02011 4.00552 3.98753 
3.93376 3.91515 3.89328 3.86721 3.83566 3.7968 3.83461 3.8095 3.78037 
3.74624 3.70581 3.65733 3.59845 3.7454 3.71564 3.68161 3.64243 3.59698 
3.54386 3.48135 3.40735 3.56428 3.45246 3.52338 3.33203 3.40312 3.47739 
3.20576 3.27463 3.34802 3.42551 3.07742 3.14159 3.21128 3.28647 3.36688 
2.95116 3.00855 3.0719 3.14159 3.21784 3.3006 2.83072 2.88006 2.93517 
2.99672 3.06535 3.14159 3.22575 2.7189 2.7598 2.8058 2.85768 2.9163 
2.98259 3.05743 3.14159 3.56428 3.52338 3.45246 3.47739 3.40312 3.33203 
3.42551 3.34802 3.27463 3.20576 3.36688 3.28647 3.21128 3.14159 3.07742 
3.3006 3.21784 3.14159 3.0719 3.00855 2.95116 3.22575 3.14159 3.06535 
2.99672 2.93517 2.88006 2.83072 3.14159 3.05743 2.98259 2.9163 2.85768 
2.8058 2.7598 2.7189 4.5268 4.42689 4.40462 4.30523 4.29185 4.28071 
4.15881 4.15881 4.15881 4.15881 3.98753 4.00552 4.02011 4.03217 4.04232 
3.7968 3.83566 3.86721 3.89328 3.91515 3.93376 3.59845 3.65733 3.70581 
3.74624 3.78037 3.8095 3.83461 3.40735 3.48135 3.54386 3.59698 3.64243 
3.68161 3.71564 3.7454 4.71239 4.80045 4.62433 4.91556 4.71239 4.50922 
5.06749 4.83537 4.58941 4.35729 5.26596 5.0121 4.71239 4.41268 4.15881 
5.51259 5.26596 4.91556 4.50922 4.15881 3.91219 5.78856 5.60297 5.26596 
4.71239 4.15881 3.82181 3.63622 6.05603 5.97021 5.78856 5.26596 4.15881 
3.63622 3.45456 3.36875 0.227158 0.494626 0.312971 0.770593 0.680215 0.494626 
1.01722 1.01722 1.01722 1.01722 1.2157 1.27109 1.36763 1.5708 2.12437 
1.36763 1.44781 1.5708 1.77397 2.12437 2.64697 1.48273 1.5708 1.69378 
1.8705 2.12437 2.46138 2.82862 1.5708 1.65886 1.77397 1.9259 2.12437 
2.371 2.64697 2.91443 1.75639 1.87857 1.8563 2.00248 1.99133 1.97796 
2.12437 2.12437 2.12437 2.12437 2.24087 2.25101 2.26308 2.27767 2.29565 
2.34943 2.36803 2.38991 2.41597 2.44752 2.48639 2.44857 2.47368 2.50281 
2.53694 2.57738 2.62586 2.68474 2.53778 2.56754 2.60157 2.64076 2.68621 
2.73933 2.80184 2.87583 1.6744 1.6744 1.78405 1.6744 1.78405 1.89748 
1.6744 1.78405 1.89748 2.01191 1.6744 1.78405 1.89748 2.01191 2.12437 
1.6744 1.78405 1.89748 2.01191 2.12437 2.23222 1.6744 1.78405 1.89748 
2.01191 2.12437 2.23222 2.33343 1.6744 1.78405 1.89748 2.01191 2.12437 
2.23222 2.33343 2.42672 1.4672 1.35755 1.4672 1.24411 1.35755 1.4672 
1.12969 1.24411 1.35755 1.4672 1.01722 1.12969 1.24411 1.35755 1.4672 
0.909371 1.01722 1.12969 1.24411 1.35755 1.4672 0.808166 0.909371 1.01722 
1.12969 1.24411 1.35755 1.4672 0.714871 0.808166 0.909371 1.01722 1.12969 
1.24411 1.35755 1.4672 0.603812 0.57405 0.693022 0.540021 0.667908 0.792164 
0.500837 0.638778 0.773562 0.900726 0.455383 0.604649 0.751687 0.890581 1.01722 
0.402264 0.564217 0.725619 0.878514 1.01722 1.13912 0.339753 0.515737 0.694072 
0.863926 1.01722 1.15026 1.26302 0.265762 0.456853 0.655207 0.845941 1.01722 
1.16363 1.28529 1.38521 0.227158 0.312971 0.494626 0.494626 0.680215 0.770593 
1.01722 1.01722 1.01722 1.01722 2.12437 1.5708 1.36763 1.27109 1.2157 
2.64697 2.12437 1.77397 1.5708 1.44781 1.36763 2.82862 2.46138 2.12437 
1.8705 1.69378 1.5708 1.48273 2.91443 2.64697 2.371 2.12437 1.9259 
1.77397 1.65886 1.5708 1.75639 1.8563 1.87857 1.97796 1.99133 2.00248 
2.12437 2.12437 2.12437 2.12437 2.29565 2.27767 2.26308 2.25101 2.24087 
2.48639 2.44752 2.41597 2.38991 2.36803 2.34943 2.68474 2.62586 2.57738 
2.53694 2.50281 2.47368 2.44857 2.87583 2.80184 2.73933 2.68621 2.64076 
2.60157 2.56754 2.53778 5.86049 5.90139 5.97231 5.94739 6.02165 6.09275 
5.99927 6.07676 6.15015 6.21902 6.0579 6.13831 6.2135 0 0.0641696 
6.12418 6.20694 6.28319 0.069689 0.13304 0.190437 6.19903 0 0.0762451 
0.144876 0.206423 0.261531 0.310872 0 0.0841597 0.159004 0.225289 0.283913 
0.335793 0.381792 0.422692 5.86049 5.97231 5.90139 6.09275 6.02165 5.94739 
6.21902 6.15015 6.07676 5.99927 0.0641696 0 6.2135 6.13831 6.0579 
0.190437 0.13304 0.069689 6.28319 6.20694 6.12418 0.310872 0.261531 0.206423 
0.144876 0.0762451 6.28319 6.19903 0.422692 0.381792 0.335793 0.283913 0.225289 
0.159004 0.0841597 0 5.67937 5.70914 5.59016 5.74316 5.61528 5.49102 
5.78235 5.64441 5.50962 5.38246 5.8278 5.67854 5.5315 5.3926 5.26596 
5.88092 5.71897 5.55757 5.40467 5.26596 5.14407 5.94343 5.76745 5.58911 
5.41926 5.26596 5.13292 5.02016 6.01742 5.82633 5.62798 5.43724 5.26596 
5.11955 4.99789 4.89798 1.38521 1.28529 1.26302 1.16363 1.15026 1.13912 
1.01722 1.01722 1.01722 1.01722 0.845941 0.863926 0.878514 0.890581 0.900726 
0.655207 0.694072 0.725619 0.751687 0.773562 0.792164 0.456853 0.515737 0.564217 
0.604649 0.638778 0.667908 0.693022 0.265762 0.339753 0.402264 0.455383 0.500837 
0.540021 0.57405 0.603812 
