# vtk DataFile Version 4.0
vtk output
ASCII
DATASET POLYDATA
POINTS 1002 float
-85.3582 -90.8708 70.0614 -78.0344 -103.742 74.9902 -74.9997 -86.4393 70.7252 
-71.6296 -102.915 74.0672 -80.979 -95.1733 81.1063 -74.9075 -92.5346 81.1783 
-78.7732 -97.3029 66.8172 -73.3305 -97.2366 66.5187 -74.1142 -109.196 81.966 
-81.5535 -82.9431 73.8835 -72.4733 -112.058 67.9913 -82.9431 -84.6509 62.0957 
-84.5342 -91.6868 70.5106 -83.5571 -92.5192 71.2761 -82.4462 -93.469 72.1986 
-81.5635 -94.8074 72.915 -81.105 -96.6119 73.3586 -80.4996 -98.2883 73.8506 
-79.4318 -99.4384 74.4684 -78.5155 -100.602 74.9176 -78.1546 -102.163 75.0462 
-84.8373 -91.0261 71.0097 -84.4646 -91.2589 72.2804 -84.2122 -91.5714 73.7876 
-83.9002 -92.0012 75.2485 -83.4082 -92.532 76.4319 -82.7034 -93.0915 77.436 
-82.0336 -93.6718 78.5115 -81.6832 -94.2481 79.6142 -81.4438 -94.7467 80.4989 
-85.3074 -91.2231 69.4037 -84.9732 -91.5062 68.6397 -84.4118 -91.8776 67.878 
-83.7877 -92.4895 67.3588 -83.194 -93.2906 67.0864 -82.5335 -94.159 66.85 
-81.6293 -94.9849 66.661 -80.5497 -95.7205 66.6396 -79.5654 -96.4637 66.7303 
-85.7058 -89.9958 70.2723 -85.8166 -88.9734 70.4782 -85.5646 -87.9444 70.6987 
-85.0138 -86.9049 71.0859 -84.5035 -85.9357 71.5931 -84.0371 -85.1881 71.9568 
-83.296 -84.5872 72.2038 -82.4487 -84.0199 72.5919 -81.8857 -83.4702 73.1918 
-86.2312 -90.2921 69.423 -86.9745 -89.6455 68.7069 -87.2384 -88.8595 67.4845 
-87.0804 -88.0591 65.8328 -86.6654 -87.4252 64.5563 -85.9496 -86.8239 63.8907 
-85.1579 -86.0498 63.2113 -84.5253 -85.2738 62.4249 -83.8385 -84.7929 62.0143 
-78.2266 -103.137 75.7821 -78.476 -102.413 76.6091 -78.8973 -101.747 77.3757 
-79.5183 -101.164 78.112 -80.2329 -100.588 78.9691 -80.8572 -99.9473 79.9473 
-81.278 -99.0409 80.7754 -81.4495 -97.7477 81.2109 -81.3354 -96.3403 81.2654 
-77.9012 -103.276 74.2838 -77.7265 -102.676 73.5163 -77.6066 -102.121 72.6425 
-77.6301 -101.649 71.7045 -77.7043 -100.98 70.8369 -77.7819 -100.116 70.0521 
-77.9448 -99.3778 69.2134 -78.1979 -98.7491 68.3164 -78.4883 -98.0472 67.5007 
-77.9757 -104.812 75.4142 -77.7475 -105.686 76.0176 -77.3055 -106.383 76.8501 
-76.7949 -107.066 77.7987 -76.3457 -107.745 78.6977 -75.9305 -108.363 79.5139 
-75.5657 -108.963 80.343 -75.2162 -109.432 81.1698 -74.7245 -109.53 81.7663 
-77.671 -104.806 74.4865 -77.0253 -105.696 74.0204 -76.3963 -106.778 73.5063 
-76.0934 -108.252 72.7906 -75.9152 -109.747 71.8846 -75.4234 -110.763 70.9879 
-74.605 -111.17 70.2635 -73.8022 -111.331 69.5994 -73.1442 -111.65 68.8074 
-74.2937 -87.3481 71.0719 -73.5679 -88.3936 71.5051 -73.1305 -89.8424 72.0803 
-72.9236 -91.7485 72.6948 -72.506 -93.6634 73.1834 -72.0135 -95.4313 73.5529 
-71.9203 -97.4747 73.8756 -72.0084 -99.7343 74.0768 -71.8751 -101.621 74.1032 
-74.8625 -86.6781 71.6676 -74.7547 -87.0065 72.8071 -74.6983 -87.4291 74.0269 
-74.7772 -88.0504 75.1358 -74.9274 -88.8537 76.1714 -74.9421 -89.5991 77.295 
-74.8694 -90.2612 78.463 -74.8746 -91.0079 79.5279 -74.9101 -91.801 80.429 
-74.7754 -86.8784 70.0587 -74.6042 -87.5113 69.3825 -74.4723 -88.3379 68.7562 
-74.2759 -89.2744 68.2189 -74.018 -90.2969 67.741 -73.8232 -91.4602 67.2978 
-73.6752 -92.717 66.9478 -73.5042 -94.0534 66.7333 -73.3707 -95.5754 66.6146 
-75.5302 -85.6429 70.8992 -76.0867 -84.7914 71.0598 -76.7805 -83.9408 71.3075 
-77.5811 -83.197 71.6711 -78.2502 -82.5118 72.1345 -78.8286 -81.7911 72.7878 
-79.6324 -81.3629 73.4775 -80.5586 -81.5816 73.8403 -81.2199 -82.2396 73.8835 
-75.5142 -85.763 69.934 -76.1579 -85.1285 68.9676 -77.0416 -84.6343 67.8949 
-78.0653 -84.235 66.8979 -78.9788 -83.8253 65.8997 -79.7499 -83.5045 64.8176 
-80.5027 -83.5053 63.9182 -81.2943 -83.8234 63.2767 -82.1306 -84.2365 62.6702 
-71.9908 -102.031 74.9532 -72.0969 -100.894 75.9385 -72.1172 -99.64 76.8735 
-72.2897 -98.4576 77.6638 -72.669 -97.3155 78.3968 -73.0982 -96.0533 79.173 
-73.4879 -94.8676 79.8724 -73.9387 -94.0114 80.3929 -74.4584 -93.311 80.8119 
-71.1969 -102.977 73.3146 -70.8834 -102.896 72.6379 -71.1187 -102.528 71.8977 
-71.7168 -101.881 70.9937 -72.1151 -101.15 70.1147 -72.3687 -100.484 69.3458 
-72.6462 -99.8212 68.4706 -72.7888 -99.052 67.5476 -72.9339 -98.1669 66.8888 
-71.7691 -103.576 74.6344 -71.9609 -104.429 75.3653 -72.1966 -105.32 76.1568 
-72.4451 -106.074 76.9461 -72.6557 -106.908 77.8218 -72.837 -107.882 78.8137 
-72.9945 -108.639 79.7946 -73.1878 -109.068 80.6897 -73.558 -109.271 81.456 
-71.2268 -103.924 73.5866 -71.1547 -104.861 73.1678 -71.6119 -106.153 72.6752 
-72.1155 -107.936 71.9138 -71.9608 -109.626 71.0155 -71.2052 -110.819 70.1937 
-70.6489 -111.765 69.3208 -70.8599 -112.44 68.4487 -71.642 -112.517 67.9683 
-80.2445 -94.8563 81.3104 -79.5276 -94.5996 81.6869 -79.0582 -94.2715 82.3379 
-78.6275 -93.7541 83.0181 -77.8809 -93.1774 83.3392 -76.9115 -92.7861 83.249 
-76.0553 -92.5914 82.9125 -75.4778 -92.4888 82.412 -75.1427 -92.4744 81.8088 
-80.4609 -96.3073 81.69 -79.5951 -97.5898 82.1235 -78.65 -98.8979 82.3937 
-77.785 -100.279 82.6148 -76.9457 -101.814 82.9132 -76.2809 -103.368 83.1274 
-75.8 -104.923 83.027 -75.2274 -106.56 82.7409 -74.5927 -108.071 82.4214 
-80.8375 -93.9602 80.5127 -80.7422 -92.7434 79.88 -80.9509 -91.2499 79.3445 
-81.288 -89.5101 78.8151 -81.3794 -88.0509 78.0361 -81.3348 -86.9746 77.0406 
-81.4225 -85.8229 76.1313 -81.5518 -84.5847 75.377 -81.5897 -83.6077 74.6399 
-74.6497 -93.7694 81.6833 -74.3321 -95.081 82.2805 -73.9539 -96.5718 82.8589 
-73.7694 -98.1977 83.0794 -74.015 -99.7897 82.8402 -74.2808 -101.539 82.4716 
-74.0846 -103.721 82.272 -73.759 -106.013 82.2436 -73.7906 -107.884 82.2026 
-75.2994 -91.1524 81.0307 -75.7702 -89.6867 80.722 -76.4567 -88.3221 80.3474 
-77.3211 -86.9759 80.0435 -78.0598 -85.7298 79.489 -78.6305 -84.851 78.3162 
-79.4082 -84.1328 76.9455 -80.3948 -83.3903 75.89 -81.1571 -82.9434 74.9645 
-78.4441 -97.427 66.464 -77.9437 -97.5607 66.1235 -77.2449 -97.6686 65.8268 
-76.4527 -97.827 65.5553 -75.6396 -98.106 65.3065 -74.9093 -98.3796 65.2732 
-74.4145 -98.4258 65.5657 -74.0685 -98.1661 65.962 -73.6962 -97.7151 66.2685 
-77.835 -98.7672 67.1912 -76.8309 -100.388 67.3569 -76.021 -102.199 67.2623 
-75.678 -104.415 66.8768 -75.5313 -106.628 66.4461 -75.0802 -108.091 66.5101 
-74.3524 -109.061 67.0749 -73.6371 -110.152 67.5408 -73.0087 -111.251 67.7274 
-79.5234 -96.0492 66.0449 -80.3312 -94.9102 65.1165 -81.1631 -93.7152 64.2277 
-81.9277 -92.2976 63.4594 -82.4922 -91.0227 62.6328 -82.8701 -89.9596 61.8075 
-83.1596 -88.5373 61.3305 -83.2922 -86.8306 61.2999 -83.1904 -85.4908 61.597 
-73.0605 -99.5177 66.4894 -72.7845 -101.603 66.1412 -72.3823 -103.368 65.3998 
-72.0503 -105.063 64.5849 -72.0349 -106.686 64.4165 -72.0933 -108.169 65.1048 
-71.9627 -109.693 65.9566 -71.8769 -111.057 66.5306 -72.0752 -111.834 67.123 
-74.0156 -95.2461 66.1838 -74.8852 -93.4438 65.5498 -75.6956 -91.9972 64.7656 
-76.6811 -90.6028 64.2093 -78.1066 -89.1331 63.759 -79.4013 -87.9068 63.054 
-80.2153 -86.9389 62.3926 -81.0335 -86.0064 62.1192 -82.0384 -85.1942 62.0651 
-74.1255 -110.373 81.1989 -74.0852 -111.547 80.0564 -74.0083 -112.747 78.7772 
-73.9374 -113.606 77.4476 -73.6869 -113.875 75.7989 -73.2674 -113.802 73.9366 
-72.9727 -113.498 72.2236 -72.782 -112.975 70.6093 -72.5703 -112.475 69.1039 
-81.6982 -82.7284 72.5687 -82.0088 -82.4139 71.1819 -82.5748 -82.003 69.9506 
-83.1678 -81.7284 68.5851 -83.5678 -81.4614 66.8496 -83.7932 -81.2737 65.2446 
-83.7915 -81.7902 64.1265 -83.5463 -82.9136 63.2798 -83.2381 -83.9225 62.5888 
-84.1476 -92.0087 71.6588 -83.8111 -92.3735 73.0142 -83.1994 -92.9414 72.5381 
-83.4467 -92.8363 74.4903 -82.7833 -93.4314 73.8593 -82.06 -93.9494 73.459 
-83.107 -93.4777 75.8865 -82.4434 -94.1415 75.2008 -81.7562 -94.712 74.7116 
-81.3351 -95.5761 74.1154 -82.7222 -94.219 77.085 -82.3444 -95.0879 76.4465 
-81.7745 -95.8092 75.86 -81.3416 -96.7126 75.307 -81.0218 -97.6707 74.5287 
-82.2071 -94.9211 78.2654 -82.2091 -96.0738 77.6871 -81.9559 -96.993 76.9377 
-81.5037 -97.8642 76.3203 -80.9378 -98.6561 75.6957 -80.2349 -99.1479 75.0135 
-81.8676 -95.52 79.514 -81.9612 -96.8899 79.0749 -81.9042 -98.0074 78.2516 
-81.515 -98.8058 77.3877 -80.7383 -99.3477 76.7284 -79.8274 -99.6976 76.143 
-79.0525 -100.064 75.5394 -81.7179 -95.9842 80.573 -81.7824 -97.4322 80.3524 
-81.6556 -98.6869 79.6835 -81.271 -99.5181 78.7154 -80.508 -100.004 77.8286 
-79.5525 -100.319 77.1539 -78.7886 -100.733 76.5191 -78.3631 -101.402 75.8051 
-85.0864 -90.1133 71.2957 -85.2009 -89.1598 71.626 -84.7463 -90.3422 72.7313 
-85.0494 -88.1333 72.0442 -84.919 -89.4227 73.1505 -84.5248 -90.6394 74.3043 
-84.6325 -86.9715 72.5926 -84.7185 -88.3629 73.5514 -84.511 -89.6815 74.5852 
-84.0327 -90.9946 75.6126 -84.1429 -86.0188 72.9952 -84.1285 -87.2777 73.892 
-83.9407 -88.7074 74.7452 -83.6333 -89.9815 75.7048 -83.217 -91.4219 76.6384 
-83.4959 -85.3831 73.1861 -83.4168 -86.5029 74.0423 -83.1086 -87.9109 74.8713 
-82.884 -89.1712 75.8447 -82.6923 -90.43 76.8162 -82.3546 -91.9878 77.6819 
-82.6659 -84.7557 73.5217 -82.6815 -85.8261 74.3069 -82.4148 -87.2143 75.0896 
-82.2447 -88.503 76.1338 -82.2155 -89.7028 77.2081 -82 -91.1384 78.0461 
-81.7311 -92.7062 78.8111 -81.9977 -84.1186 74.074 -82.0314 -85.1134 74.8498 
-81.8853 -86.4379 75.5885 -81.7925 -87.7111 76.5689 -81.8501 -88.9256 77.6658 
-81.7082 -90.4142 78.4913 -81.3961 -91.9993 79.1121 -81.31 -93.404 79.7912 
-81.0938 -83.9461 75.6268 -80.2421 -84.5954 76.6581 -80.923 -85.2187 76.3967 
-79.2969 -85.0659 78.0993 -80.0365 -85.7727 77.6465 -80.7543 -86.3916 77.3323 
-78.6283 -85.4616 79.6717 -79.195 -85.9477 79.2185 -79.9187 -86.7382 78.6287 
-80.7106 -87.3487 78.3029 -78.0325 -86.5131 80.6111 -78.643 -86.5337 80.5843 
-79.2289 -87.2103 79.9284 -79.8945 -87.9594 79.3436 -80.6374 -88.6733 79.0585 
-77.1513 -88.0647 80.9698 -77.9951 -87.9957 81.344 -78.7718 -88.409 81.0534 
-79.3006 -89.0957 80.3903 -79.7437 -89.7819 79.8767 -80.3298 -90.5396 79.5819 
-76.2018 -89.5418 81.2968 -76.9712 -89.5922 81.7889 -77.9951 -89.9266 81.9049 
-78.8184 -90.4763 81.5621 -79.2002 -91.0667 80.9963 -79.4958 -91.6846 80.4593 
[...]
POINT_DATA 1002
FIELD FieldData 2
Theta 1 1002 float
2.58802 2.58802 0.553574 0.553574 2.12437 1.01722 2.12437 1.01722 1.5708 
1.5708 1.5708 1.5708 2.68241 2.78649 2.89924 3.01861 3.14159 3.01861 
2.89924 2.78649 2.68241 2.61035 2.61791 2.60515 2.56958 2.51327 2.44184 
2.36202 2.27983 2.1997 2.61035 2.61791 2.60515 2.56958 2.51327 2.44184 
2.36202 2.27983 2.1997 2.50947 2.41899 2.31794 2.20864 2.0944 1.97902 
1.86631 1.75944 1.66056 2.50947 2.41899 2.31794 2.20864 2.0944 1.97902 
1.86631 1.75944 1.66056 2.61035 2.61791 2.60515 2.56958 2.51327 2.44184 
2.36202 2.27983 2.1997 2.61035 2.61791 2.60515 2.56958 2.51327 2.44184 
2.36202 2.27983 2.1997 2.50947 2.41899 2.31794 2.20864 2.0944 1.97902 
1.86631 1.75944 1.66056 2.50947 2.41899 2.31794 2.20864 2.0944 1.97902 
1.86631 1.75944 1.66056 0.459179 0.355101 0.242354 0.122983 0 0.122983 
0.242354 0.355101 0.459179 0.531246 0.523681 0.536438 0.57201 0.628319 0.699757 
0.779574 0.86176 0.941896 0.531246 0.523681 0.536438 0.57201 0.628319 0.699757 
0.779574 0.86176 0.941896 0.632123 0.7226 0.823657 0.932948 1.0472 1.16257 
1.27528 1.38216 1.48103 0.632123 0.7226 0.823657 0.932948 1.0472 1.16257 
1.27528 1.38216 1.48103 0.531246 0.523681 0.536438 0.57201 0.628319 0.699757 
0.779574 0.86176 0.941896 0.531246 0.523681 0.536438 0.57201 0.628319 0.699757 
0.779574 0.86176 0.941896 0.632123 0.7226 0.823657 0.932948 1.0472 1.16257 
1.27528 1.38216 1.48103 0.632123 0.7226 0.823657 0.932948 1.0472 1.16257 
1.27528 1.38216 1.48103 2.02998 1.9259 1.81315 1.69378 1.5708 1.44781 
1.32844 1.2157 1.11162 2.0928 2.05283 2.00422 1.94767 1.88496 1.81867 
1.75177 1.68695 1.62623 2.0928 2.05283 2.00422 1.94767 1.88496 1.81867 
1.75177 1.68695 1.62623 1.0488 1.08876 1.13737 1.19392 1.25664 1.32292 
1.38982 1.45464 1.51537 1.0488 1.08876 1.13737 1.19392 1.25664 1.32292 
1.38982 1.45464 1.51537 2.02998 1.9259 1.81315 1.69378 1.5708 1.44781 
1.32844 1.2157 1.11162 2.0928 2.05283 2.00422 1.94767 1.88496 1.81867 
1.75177 1.68695 1.62623 2.0928 2.05283 2.00422 1.94767 1.88496 1.81867 
1.75177 1.68695 1.62623 1.0488 1.08876 1.13737 1.19392 1.25664 1.32292 
1.38982 1.45464 1.51537 1.0488 1.08876 1.13737 1.19392 1.25664 1.32292 
1.38982 1.45464 1.51537 1.5708 1.5708 1.5708 1.5708 1.5708 1.5708 
1.5708 1.5708 1.5708 1.5708 1.5708 1.5708 1.5708 1.5708 1.5708 
1.5708 1.5708 1.5708 2.70908 2.71362 2.81592 2.68886 2.81002 2.92597 
2.6349 2.76254 2.89233 3.01997 2.55881 2.68262 2.80854 2.92834 3.01997 
2.47007 2.58462 2.70048 2.80854 2.89233 2.92597 2.37702 2.48017 2.58462 
2.68262 2.76254 2.81002 2.81592 2.28567 2.37702 2.47007 2.55881 2.6349 
2.68886 2.71362 2.70908 2.52097 2.4195 2.51718 2.30791 2.40503 2.49426 
2.18928 2.28408 2.3734 2.45144 2.06758 2.15805 2.24572 2.32523 2.39165 
1.94707 2.03138 2.11543 2.19453 2.26401 2.32035 1.83164 1.90847 1.98711 
2.06376 2.13422 2.1949 2.24359 1.72413 1.79288 1.86489 1.93728 2.00658 
2.06938 2.12312 2.16654 1.5708 1.50988 1.63171 1.44492 1.5708 1.69667 
1.37826 1.5059 1.63569 1.76333 1.31281 1.43962 1.5708 1.70197 1.82878 
1.25155 1.37501 1.50478 1.63681 1.76659 1.89004 1.19686 1.31493 1.44074 
1.5708 1.70086 1.82666 1.94473 1.15011 1.26149 1.38136 1.50697 1.63462 
1.76024 1.88011 1.99148 1.99148 1.88011 1.94473 1.76024 1.82666 1.89004 
1.63462 1.70086 1.76659 1.82878 1.50697 1.5708 1.63681 1.70197 1.76333 
1.38136 1.44074 1.50478 1.5708 1.63569 1.69667 1.26149 1.31493 1.37501 
1.43962 1.5059 1.5708 1.63171 1.15011 1.19686 1.25155 1.31281 1.37826 
1.44492 1.50988 1.5708 2.16654 2.12312 2.24359 2.06938 2.1949 2.32035 
2.00658 2.13422 2.26401 2.39165 1.93728 2.06376 2.19453 2.32523 2.45144 
1.86489 1.98711 2.11543 2.24572 2.3734 2.49426 1.79288 1.90847 2.03138 
2.15805 2.28408 2.40503 2.51718 1.72413 1.83164 1.94707 2.06758 2.18928 
2.30791 2.4195 2.52097 1.66533 1.66946 1.76911 1.67254 1.777 1.88041 
1.67418 1.78222 1.89102 1.99634 1.67418 1.78405 1.89674 2.00785 2.11299 
1.67254 1.78222 1.89674 2.01191 2.12307 2.22608 1.66946 1.777 1.89102 
2.00785 2.12307 2.23222 2.33166 1.66533 1.76911 1.88041 1.99634 2.11299 
2.22608 2.33166 2.42672 1.47626 1.37249 1.47213 1.26118 1.36459 1.46906 
1.14526 1.25058 1.35938 1.46741 1.0286 1.13374 1.24485 1.35755 1.46741 
0.915514 1.01852 1.12969 1.24485 1.35938 1.46906 0.809937 0.909371 1.01852 
1.13374 1.25058 1.36459 1.47213 0.714871 0.809937 0.915514 1.0286 1.14526 
1.26118 1.37249 1.47626 0.975055 0.898002 1.01847 0.821245 0.946693 1.07221 
0.749941 0.877585 1.00737 1.13501 0.690152 0.816367 0.94706 1.07784 1.20431 
0.647337 0.768195 0.895868 1.02616 1.15448 1.2767 0.624416 0.736561 0.857515 
0.983547 1.11021 1.23313 1.34871 0.620619 0.722093 0.833684 0.952313 1.07402 
1.19452 1.30996 1.41746 0.855925 0.764569 0.764569 0.671524 0.661425 0.671524 
0.582786 0.556971 0.556971 0.582786 0.506696 0.458968 0.441109 0.458968 0.506696 
0.45273 0.379052 0.333054 0.333054 0.379052 0.45273 0.427969 0.331576 0.249267 
0.21325 0.249267 0.331576 0.427969 0.432512 0.325669 0.215619 0.121622 0.121622 
0.215619 0.325669 0.432512 0.432512 0.427969 0.325669 0.45273 0.331576 0.215619 
0.506696 0.379052 0.249267 0.121622 0.582786 0.458968 0.333054 0.21325 0.121622 
0.671524 0.556971 0.441109 0.333054 0.249267 0.215619 0.764569 0.661425 0.556971 
0.458968 0.379052 0.331576 0.325669 0.855925 0.764569 0.671524 0.582786 0.506696 
0.45273 0.427969 0.432512 0.975055 1.01847 0.898002 1.07221 0.946693 0.821245 
1.13501 1.00737 0.877585 0.749941 1.20431 1.07784 0.94706 0.816367 0.690152 
1.2767 1.15448 1.02616 0.895868 0.768195 0.647337 1.34871 1.23313 1.11021 
0.983547 0.857515 0.736561 0.624416 1.41746 1.30996 1.19452 1.07402 0.952313 
0.833684 0.722093 0.620619 1.15011 1.26149 1.19686 1.38136 1.31493 1.25155 
1.50697 1.44074 1.37501 1.31281 1.63462 1.5708 1.50478 1.43962 1.37826 
1.76024 1.70086 1.63681 1.5708 1.5059 1.44492 1.88011 1.82666 1.76659 
1.70197 1.63569 1.5708 1.50988 1.99148 1.94473 1.89004 1.82878 1.76333 
1.69667 1.63171 1.5708 1.15011 1.19686 1.26149 1.25155 1.31493 1.38136 
1.31281 1.37501 1.44074 1.50697 1.37826 1.43962 1.50478 1.5708 1.63462 
1.44492 1.5059 1.5708 1.63681 1.70086 1.76024 1.50988 1.5708 1.63569 
1.70197 1.76659 1.82666 1.88011 1.5708 1.63171 1.69667 1.76333 1.82878 
1.89004 1.94473 1.99148 1.72413 1.83164 1.79288 1.94707 1.90847 1.86489 
2.06758 2.03138 1.98711 1.93728 2.18928 2.15805 2.11543 2.06376 2.00658 
2.30791 2.28408 2.24572 2.19453 2.13422 2.06938 2.4195 2.40503 2.3734 
2.32523 2.26401 2.1949 2.12312 2.52097 2.51718 2.49426 2.45144 2.39165 
2.32035 2.24359 2.16654 2.70908 2.81592 2.71362 2.92597 2.81002 2.68886 
3.01997 2.89233 2.76254 2.6349 3.01997 2.92834 2.80854 2.68262 2.55881 
2.92597 2.89233 2.80854 2.70048 2.58462 2.47007 2.81592 2.81002 2.76254 
2.68262 2.58462 2.48017 2.37702 2.70908 2.71362 2.68886 2.6349 2.55881 
2.47007 2.37702 2.28567 2.16654 2.24359 2.12312 2.32035 2.1949 2.06938 
2.39165 2.26401 2.13422 2.00658 2.45144 2.32523 2.19453 2.06376 1.93728 
2.49426 2.3734 2.24572 2.11543 1.98711 1.86489 2.51718 2.40503 2.28408 
2.15805 2.03138 1.90847 1.79288 2.52097 2.4195 2.30791 2.18928 2.06758 
1.94707 1.83164 1.72413 1.66533 1.76911 1.66946 1.88041 1.777 1.67254 
1.99634 1.89102 1.78222 1.67418 2.11299 2.00785 1.89674 1.78405 1.67418 
2.22608 2.12307 2.01191 1.89674 1.78222 1.67254 2.33166 2.23222 2.12307 
2.00785 1.89102 1.777 1.66946 2.42672 2.33166 2.22608 2.11299 1.99634 
1.88041 1.76911 1.66533 1.47626 1.47213 1.37249 1.46906 1.36459 1.26118 
1.46741 1.35938 1.25058 1.14526 1.46741 1.35755 1.24485 1.13374 1.0286 
1.46906 1.35938 1.24485 1.12969 1.01852 0.915514 1.47213 1.36459 1.25058 
1.13374 1.01852 0.909371 0.809937 1.47626 1.37249 1.26118 1.14526 1.0286 
0.915514 0.809937 0.714871 1.41746 1.30996 1.34871 1.19452 1.23313 1.2767 
1.07402 1.11021 1.15448 1.20431 0.952313 0.983547 1.02616 1.07784 1.13501 
0.833684 0.857515 0.895868 0.94706 1.00737 1.07221 0.722093 0.736561 0.768195 
0.816367 0.877585 0.946693 1.01847 0.620619 0.624416 0.647337 0.690152 0.749941 
0.821245 0.898002 0.975055 0.975055 0.898002 1.01847 0.821245 0.946693 1.07221 
0.749941 0.877585 1.00737 1.13501 0.690152 0.816367 0.94706 1.07784 1.20431 
0.647337 0.768195 0.895868 1.02616 1.15448 1.2767 0.624416 0.736561 0.857515 
0.983547 1.11021 1.23313 1.34871 0.620619 0.722093 0.833684 0.952313 1.07402 
1.19452 1.30996 1.41746 
Phi 1 1002 float
6.28319 3.14159 6.28319 3.14159 4.71239 4.71239 1.5708 1.5708 3.69517 
5.72961 2.58802 0.553574 6.28319 6.28319 6.28319 6.28319 3.14159 3.14159 
3.14159 3.14159 3.14159 6.1053 5.8988 5.67687 5.45995 5.26596 5.10322 
4.97131 4.86569 4.78095 0.177881 0.384387 0.606312 0.823235 1.01722 1.17997 
1.31187 1.4175 1.50223 6.18928 6.10703 6.03531 5.97283 5.91832 5.87061 
5.82869 5.79168 5.75886 0.0939024 0.176153 0.247873 0.310351 0.364864 0.412573 
0.454497 0.491504 0.524326 3.31947 3.52598 3.7479 3.96483 4.15881 4.32156 
4.45346 4.55909 4.64383 2.96371 2.75721 2.53528 2.31836 2.12437 1.96162 
1.82972 1.72409 1.63936 3.2355 3.31775 3.38947 3.45194 3.50646 3.55417 
3.59609 3.6331 3.66592 3.04769 2.96544 2.89372 2.83124 2.77673 2.72902 
2.6871 2.65009 2.61727 6.28319 6.28319 6.28319 6.28319 3.14159 3.14159 
3.14159 3.14159 3.14159 6.1053 5.8988 5.67687 5.45995 5.26596 5.10322 
4.97131 4.86569 4.78095 0.177881 0.384387 0.606312 0.823235 1.01722 1.17997 
1.31187 1.4175 1.50223 6.18928 6.10703 6.03531 5.97283 5.91832 5.87061 
5.82869 5.79168 5.75886 0.0939024 0.176153 0.247873 0.310351 0.364864 0.412573 
0.454497 0.491504 0.524326 3.31947 3.52598 3.7479 3.96483 4.15881 4.32156 
4.45346 4.55909 4.64383 2.96371 2.75721 2.53528 2.31836 2.12437 1.96162 
1.82972 1.72409 1.63936 3.2355 3.31775 3.38947 3.45194 3.50646 3.55417 
3.59609 3.6331 3.66592 3.04769 2.96544 2.89372 2.83124 2.77673 2.72902 
2.6871 2.65009 2.61727 4.71239 4.71239 4.71239 4.71239 4.71239 4.71239 
4.71239 4.71239 4.71239 4.60879 4.49914 4.3857 4.27128 4.15881 4.05096 
3.94976 3.85646 3.77161 4.81599 4.92564 5.03907 5.1535 5.26596 5.37381 
5.47502 5.56831 5.65317 4.60879 4.49914 4.3857 4.27128 4.15881 4.05096 
3.94976 3.85646 3.77161 4.81599 4.92564 5.03907 5.1535 5.26596 5.37381 
5.47502 5.56831 5.65317 1.5708 1.5708 1.5708 1.5708 1.5708 1.5708 
1.5708 1.5708 1.5708 1.6744 1.78405 1.89748 2.01191 2.12437 2.23222 
2.33343 2.42672 2.51157 1.4672 1.35755 1.24411 1.12969 1.01722 0.909371 
0.808166 0.714871 0.63002 1.6744 1.78405 1.89748 2.01191 2.12437 2.23222 
2.33343 2.42672 2.51157 1.4672 1.35755 1.24411 1.12969 1.01722 0.909371 
0.808166 0.714871 0.63002 3.60077 3.49669 3.38395 3.26458 3.14159 3.01861 
2.89924 2.78649 2.68241 5.82401 5.92808 6.04083 6.1602 6.28319 0.122983 
0.242354 0.355101 0.459179 6.05603 5.78856 5.97021 5.51259 5.60297 5.78856 
5.26596 5.26596 5.26596 5.26596 5.06749 5.0121 4.91556 4.71239 4.15881 
4.91556 4.83537 4.71239 4.50922 4.15881 3.63622 4.80045 4.71239 4.58941 
4.41268 4.15881 3.82181 3.45456 4.71239 4.62433 4.50922 4.35729 4.15881 
3.91219 3.63622 3.36875 6.01742 5.94343 5.82633 5.88092 5.76745 5.62798 
5.8278 5.71897 5.58911 5.43724 5.78235 5.67854 5.55757 5.41926 5.26596 
5.74316 5.64441 5.5315 5.40467 5.26596 5.11955 5.70914 5.61528 5.50962 
5.3926 5.26596 5.13292 4.99789 5.67937 5.59016 5.49102 5.38246 5.26596 
5.14407 5.02016 4.89798 5.56831 5.47502 5.47502 5.37381 5.37381 5.37381 
5.26596 5.26596 5.26596 5.26596 5.1535 5.1535 5.1535 5.1535 5.1535 
5.03907 5.03907 5.03907 5.03907 5.03907 5.03907 4.92564 4.92564 4.92564 
4.92564 4.92564 4.92564 4.92564 4.81599 4.81599 4.81599 4.81599 4.81599 
4.81599 4.81599 4.81599 4.60879 4.60879 4.49914 4.60879 4.49914 4.3857 
4.60879 4.49914 4.3857 4.27128 4.60879 4.49914 4.3857 4.27128 4.15881 
4.60879 4.49914 4.3857 4.27128 4.15881 4.05096 4.60879 4.49914 4.3857 
4.27128 4.15881 4.05096 3.94976 4.60879 4.49914 4.3857 4.27128 4.15881 
4.05096 3.94976 3.85646 4.5268 4.40462 4.42689 4.28071 4.29185 4.30523 
4.15881 4.15881 4.15881 4.15881 4.04232 4.03217 4.02011 4.00552 3.98753 
3.93376 3.91515 3.89328 3.86721 3.83566 3.7968 3.83461 3.8095 3.78037 
3.74624 3.70581 3.65733 3.59845 3.7454 3.71564 3.68161 3.64243 3.59698 
3.54386 3.48135 3.40735 3.56428 3.45246 3.52338 3.33203 3.40312 3.47739 
3.20576 3.27463 3.34802 3.42551 3.07742 3.14159 3.21128 3.28647 3.36688 
2.95116 3.00855 3.0719 3.14159 3.21784 3.3006 2.83072 2.88006 2.93517 
2.99672 3.06535 3.14159 3.22575 2.7189 2.7598 2.8058 2.85768 2.9163 
2.98259 3.05743 3.14159 3.56428 3.52338 3.45246 3.47739 3.40312 3.33203 
3.42551 3.34802 3.27463 3.20576 3.36688 3.28647 3.21128 3.14159 3.07742 
3.3006 3.21784 3.14159 3.0719 3.00855 2.95116 3.22575 3.14159 3.06535 
2.99672 2.93517 2.88006 2.83072 3.14159 3.05743 2.98259 2.9163 2.85768 
2.8058 2.7598 2.7189 4.5268 4.42689 4.40462 4.30523 4.29185 4.28071 
4.15881 4.15881 4.15881 4.15881 3.98753 4.00552 4.02011 4.03217 4.04232 
3.7968 3.83566 3.86721 3.89328 3.91515 3.93376 3.59845 3.65733 3.70581 
3.74624 3.78037 3.8095 3.83461 3.40735 3.48135 3.54386 3.59698 3.64243 
3.68161 3.71564 3.7454 4.71239 4.80045 4.62433 4.91556 4.71239 4.50922 
5.06749 4.83537 4.58941 4.35729 5.26596 5.0121 4.71239 4.41268 4.15881 
5.51259 5.26596 4.91556 4.50922 4.15881 3.91219 5.78856 5.60297 5.26596 
4.71239 4.15881 3.82181 3.63622 6.05603 5.97021 5.78856 5.26596 4.15881 
3.63622 3.45456 3.36875 0.227158 0.494626 0.312971 0.770593 0.680215 0.494626 
1.01722 1.01722 1.01722 1.01722 1.2157 1.27109 1.36763 1.5708 2.12437 
1.36763 1.44781 1.5708 1.77397 2.12437 2.64697 1.48273 1.5708 1.69378 
1.8705 2.12437 2.46138 2.82862 1.5708 1.65886 1.77397 1.9259 2.12437 
2.371 2.64697 2.91443 1.75639 1.87857 1.8563 2.00248 1.99133 1.97796 
2.12437 2.12437 2.12437 2.12437 2.24087 2.25101 2.26308 2.27767 2.29565 
2.34943 2.36803 2.38991 2.41597 2.44752 2.48639 2.44857 2.47368 2.50281 
2.53694 2.57738 2.62586 2.68474 2.53778 2.56754 2.60157 2.64076 2.68621 
2.73933 2.80184 2.87583 1.6744 1.6744 1.78405 1.6744 1.78405 1.89748 
1.6744 1.78405 1.89748 2.01191 1.6744 1.78405 1.89748 2.01191 2.12437 
1.6744 1.78405 1.89748 2.01191 2.12437 2.23222 1.6744 1.78405 1.89748 
2.01191 2.12437 2.23222 2.33343 1.6744 1.78405 1.89748 2.01191 2.12437 
2.23222 2.33343 2.42672 1.4672 1.35755 1.4672 1.24411 1.35755 1.4672 
1.12969 1.24411 1.35755 1.4672 1.01722 1.12969 1.24411 1.35755 1.4672 
0.909371 1.01722 1.12969 1.24411 1.35755 1.4672 0.808166 0.909371 1.01722 
1.12969 1.24411 1.35755 1.4672 0.714871 0.808166 0.909371 1.01722 1.12969 
1.24411 1.35755 1.4672 0.603812 0.57405 0.693022 0.540021 0.667908 0.792164 
0.500837 0.638778 0.773562 0.900726 0.455383 0.604649 0.751687 0.890581 1.01722 
0.402264 0.564217 0.725619 0.878514 1.01722 1.13912 0.339753 0.515737 0.694072 
0.863926 1.01722 1.15026 1.26302 0.265762 0.456853 0.655207 0.845941 1.01722 
1.16363 1.28529 1.38521 0.227158 0.312971 0.494626 0.494626 0.680215 0.770593 
1.01722 1.01722 1.01722 1.01722 2.12437 1.5708 1.36763 1.27109 1.2157 
2.64697 2.12437 1.77397 1.5708 1.44781 1.36763 2.82862 2.46138 2.12437 
1.8705 1.69378 1.5708 1.48273 2.91443 2.64697 2.371 2.12437 1.9259 
1.77397 1.65886 1.5708 1.75639 1.8563 1.87857 1.97796 1.99133 2.00248 
2.12437 2.12437 2.12437 2.12437 2.29565 2.27767 2.26308 2.25101 2.24087 
2.48639 2.44752 2.41597 2.38991 2.36803 2.34943 2.68474 2.62586 2.57738 
2.53694 2.50281 2.47368 2.44857 2.87583 2.80184 2.73933 2.68621 2.64076 
2.60157 2.56754 2.53778 5.86049 5.90139 5.97231 5.94739 6.02165 6.09275 
5.99927 6.07676 6.15015 6.21902 6.0579 6.13831 6.2135 0 0.0641696 
6.12418 6.20694 6.28319 0.069689 0.13304 0.190437 6.19903 0 0.0762451 
0.144876 0.206423 0.261531 0.310872 0 0.0841597 0.159004 0.225289 0.283913 
0.335793 0.381792 0.422692 5.86049 5.97231 5.90139 6.09275 6.02165 5.94739 
6.21902 6.15015 6.07676 5.99927 0.0641696 0 6.2135 6.13831 6.0579 
0.190437 0.13304 0.069689 6.28319 6.20694 6.12418 0.310872 0.261531 0.206423 
0.144876 0.0762451 6.28319 6.19903 0.422692 0.381792 0.335793 0.283913 0.225289 
0.159004 0.0841597 0 5.67937 5.70914 5.59016 5.74316 5.61528 5.49102 
5.78235 5.64441 5.50962 5.38246 5.8278 5.67854 5.5315 5.3926 5.26596 
5.88092 5.71897 5.55757 5.40467 5.26596 5.14407 5.94343 5.76745 5.58911 
5.41926 5.26596 5.13292 5.02016 6.01742 5.82633 5.62798 5.43724 5.26596 
5.11955 4.99789 4.89798 1.38521 1.28529 1.26302 1.16363 1.15026 1.13912 
1.01722 1.01722 1.01722 1.01722 0.845941 0.863926 0.878514 0.890581 0.900726 
0.655207 0.694072 0.725619 0.751687 0.773562 0.792164 0.456853 0.515737 0.564217 
0.604649 0.638778 0.667908 0.693022 0.265762 0.339753 0.402264 0.455383 0.500837 
0.540021 0.57405 0.603812 
