# vtk DataFile Version 4.0
vtk output
ASCII
DATASET POLYDATA
POINTS 1002 float
-85.9909 -93.9654 73.4718 -78.8846 -106.427 77.7175 -77.0279 -90.2745 74.2792 
-72.6669 -104.62 77.7282 -81.8769 -99.0457 83.0102 -76.3605 -96.0547 83.5598 
-79.8356 -99.7941 70.4266 -74.4801 -99.4427 70.0624 -75.7247 -111.651 83.2669 
-82.7791 -86.8816 77.0268 -74.7392 -114.536 71.3771 -83.9673 -88.3793 67.147 
-85.1659 -94.555 73.8435 -84.4163 -95.5805 74.5002 -83.5615 -96.7802 75.3163 
-82.5273 -97.8351 75.9629 -81.7248 -99.215 76.3659 -81.2199 -101.077 76.6968 
-80.5342 -102.618 77.0147 -79.6848 -103.707 77.3238 -79.1031 -104.943 77.5962 
-85.7198 -94.1327 74.344 -85.4088 -94.471 75.3849 -85.0051 -94.9231 76.6753 
-84.6714 -95.5389 78.0235 -84.5158 -96.3685 79.141 -84.2524 -97.1333 80.0996 
-83.6365 -97.5663 80.9732 -82.8838 -97.8925 81.6555 -82.2908 -98.4094 82.2815 
-85.7515 -94.2256 72.8357 -85.4685 -94.6471 72.2294 -85.0699 -95.192 71.618 
-84.4886 -95.7304 71.0676 -83.7525 -96.2526 70.6834 -82.9954 -96.9467 70.4186 
-82.2555 -97.7979 70.2556 -81.4344 -98.5309 70.2703 -80.5705 -99.1222 70.3786 
-86.6353 -93.5107 73.8128 -87.0674 -92.7032 74.2522 -87.0709 -91.5425 74.5236 
-86.5966 -90.5196 74.5054 -85.796 -89.8228 74.512 -85.094 -89.1306 74.8903 
-84.6663 -88.3646 75.5074 -84.1442 -87.7046 76.0702 -83.409 -87.2129 76.5508 
-86.7545 -93.6936 72.7472 -87.5101 -93.3418 71.9171 -87.9235 -92.6618 71.0705 
-87.8812 -91.7177 70.1504 -87.6186 -90.8258 69.0831 -87.2352 -90.0895 68.2521 
-86.6242 -89.4247 67.8744 -85.8071 -88.8788 67.5958 -84.8905 -88.5353 67.2824 
-79.0346 -105.919 78.3245 -79.446 -105.492 78.7651 -80.1575 -105.082 79.193 
-80.7703 -104.571 79.8857 -81.0184 -103.864 80.7678 -81.2312 -102.926 81.5664 
-81.5787 -101.918 82.1989 -81.8038 -100.999 82.6408 -81.8517 -100.072 82.8833 
-78.8441 -106.021 76.9844 -78.7285 -105.528 76.2505 -78.5331 -104.864 75.635 
-78.4726 -104.129 74.9882 -78.6174 -103.416 74.1983 -78.7212 -102.575 73.4455 
-78.8037 -101.66 72.7639 -79.1017 -100.946 71.9926 -79.5225 -100.39 71.1649 
-78.8827 -107.645 78.0871 -78.8928 -108.83 78.4454 -78.8145 -109.88 79.0354 
-78.5737 -110.816 79.811 -78.1426 -111.547 80.4412 -77.6605 -111.91 80.9979 
-77.3004 -112.023 81.749 -76.9287 -112.07 82.5255 -76.3595 -111.986 83.0443 
-78.7603 -107.786 77.2188 -78.4997 -109.167 76.6055 -78.0775 -110.349 76.0627 
-77.6547 -111.355 75.6287 -77.2323 -112.321 75.1486 -76.732 -113.142 74.5009 
-76.2752 -113.674 73.6657 -75.8787 -114.064 72.7355 -75.3683 -114.409 71.922 
-76.494 -91.3052 74.5425 -76.1481 -92.7221 74.9121 -75.7102 -94.2241 75.4531 
-74.8781 -95.4864 76.013 -74.0045 -96.7405 76.3866 -73.6121 -98.4194 76.6351 
-73.5302 -100.361 76.9328 -73.3341 -102.038 77.2639 -72.9806 -103.36 77.5352 
-76.9439 -90.5468 75.1544 -76.7839 -90.864 76.1268 -76.6629 -91.3542 77.1005 
-76.7079 -92.0781 78.0428 -76.7539 -92.8235 79.0057 -76.6096 -93.4721 80.0318 
-76.4142 -94.1339 81.0831 -76.3406 -94.8028 82.0593 -76.3512 -95.424 82.8885 
-76.6566 -90.5866 73.6443 -76.296 -91.0736 73.0849 -76.1298 -91.8608 72.5947 
-76.1051 -92.8788 72.0747 -75.9224 -93.9362 71.5459 -75.5627 -95.058 71.1517 
-75.2748 -96.2858 70.8808 -75.0481 -97.4396 70.5956 -74.7585 -98.4494 70.2854 
-77.6372 -89.5953 74.5122 -78.2162 -88.8033 74.6851 -78.7259 -87.8162 74.8799 
-79.2124 -86.8473 75.3056 -79.7573 -86.1463 75.9334 -80.508 -85.7115 76.4692 
-81.4066 -85.5267 76.7973 -82.1084 -85.6933 76.9856 -82.4949 -86.2038 77.0501 
-77.5396 -89.6453 73.5863 -78.2014 -89.1009 72.7965 -78.8631 -88.536 71.9411 
-79.5029 -87.924 71.143 -80.3007 -87.5084 70.4773 -81.1919 -87.4532 69.8414 
-81.9184 -87.5755 69.0992 -82.5441 -87.7294 68.273 -83.2449 -87.9807 67.5571 
-72.9106 -104.132 78.449 -73.2249 -103.65 79.0366 -73.365 -102.822 79.7059 
-73.3918 -101.499 80.5952 -73.7151 -100.217 81.3119 -74.4147 -99.3654 81.7069 
-75.0577 -98.5659 82.2046 -75.4532 -97.5983 82.848 -75.84 -96.7158 83.3173 
-72.7383 -104.366 76.7846 -72.797 -104.099 75.8684 -72.6826 -103.679 75.0797 
-72.6033 -103.081 74.2265 -72.746 -102.461 73.2348 -72.8295 -101.834 72.2418 
-72.8178 -101.126 71.3306 -73.1021 -100.465 70.6351 -73.7412 -99.9438 70.2542 
-72.6101 -105.664 78.3311 -72.8355 -106.676 78.7648 -73.2478 -107.525 79.0781 
-73.4641 -108.517 79.6543 -73.5154 -109.758 80.5031 -73.9215 -110.693 81.0267 
-74.5962 -111.087 81.2718 -75.0304 -111.333 81.8538 -75.2929 -111.582 82.6858 
-72.5549 -105.969 77.2971 -72.6654 -107.664 76.798 -72.7176 -109.287 76.2109 
-72.6494 -110.582 75.4565 -72.8566 -111.735 74.615 -73.2286 -112.782 73.8014 
-73.3355 -113.66 72.9482 -73.4699 -114.386 72.1249 -74.0051 -114.737 71.581 
-81.6384 -98.7157 83.5502 -81.246 -98.3204 83.9993 -80.6275 -97.9627 84.1922 
-79.8689 -97.578 84.2402 -79.1212 -97.0435 84.4567 -78.4514 -96.5502 84.7627 
-77.8531 -96.3258 84.7787 -77.2939 -96.2453 84.4629 -76.7768 -96.1436 84.0242 
-81.4703 -100.329 83.7314 -80.9564 -101.52 84.305 -80.2607 -102.638 84.5193 
-79.4135 -103.959 84.5049 -78.5726 -105.572 84.5292 -77.9188 -107.283 84.5975 
-77.3816 -108.88 84.553 -76.7703 -110.153 84.3265 -76.155 -111.027 83.8974 
-82.1882 -97.534 82.6422 -82.5472 -96.0144 82.2743 -82.7984 -94.6655 81.8145 
-82.8483 -93.4273 81.1468 -82.8596 -92.1614 80.3237 -82.9432 -90.9288 79.4735 
-82.9553 -89.8292 78.6657 -82.8619 -88.8129 77.9843 -82.7911 -87.8165 77.4618 
-75.9572 -97.2026 84.0431 -75.5665 -98.5999 84.4802 -75.4219 -100.143 84.6758 
-75.4775 -101.765 84.4828 -75.4194 -103.595 84.2202 -75.1843 -105.733 84.3161 
-75.0022 -107.878 84.5369 -75.0504 -109.581 84.3758 -75.3361 -110.763 83.8459 
-76.9243 -95.0708 83.3195 -77.4855 -94.0517 82.9201 -78.1336 -92.8895 82.3525 
-78.8608 -91.4947 81.8372 -79.546 -90.03 81.4169 -80.3176 -88.909 80.7346 
-81.221 -88.2635 79.716 -81.9248 -87.7801 78.6848 -82.3517 -87.2768 77.8008 
-79.5681 -99.8841 70.0133 -79.2435 -99.9954 69.594 -78.7922 -100.096 69.2521 
-78.1916 -100.124 69.1955 -77.496 -100.094 69.3869 -76.7129 -100.083 69.499 
-75.9034 -100.064 69.5088 -75.2515 -99.9456 69.6336 -74.8125 -99.7232 69.8559 
-79.0753 -101.184 70.7699 -78.3754 -102.993 70.9763 -77.6938 -104.831 71.0834 
-76.9967 -106.478 71.0222 -76.4119 -108.265 70.7562 -76.0777 -110.084 70.4989 
-75.9144 -111.407 70.4465 -75.6926 -112.444 70.5986 -75.272 -113.571 70.9162 
-80.4567 -98.6796 69.6881 -81.0897 -97.5905 68.8882 -81.8167 -96.5552 68.0668 
-82.6156 -95.4776 67.1692 -83.281 -94.3165 66.4388 -83.7162 -93.1191 66.3109 
-84.0136 -91.8024 66.5964 -84.1775 -90.3983 66.7854 -84.147 -89.2049 66.8821 
-73.9143 -101.002 70.106 -73.6496 -102.951 70.2265 -73.5903 -105.088 70.0373 
-73.4244 -107.085 69.2979 -73.128 -108.667 68.4661 -73.1535 -109.858 68.3323 
-73.6435 -111.059 69.026 -74.1601 -112.471 69.9488 -74.4697 -113.754 70.6946 
-75.4738 -98.193 70.005 -76.6225 -96.7491 69.8475 -77.6726 -95.1924 69.3695 
-78.5209 -93.7799 68.6537 -79.4135 -92.6264 68.0855 -80.4703 -91.5448 67.7511 
-81.474 -90.4399 67.4294 -82.3408 -89.4871 67.1257 -83.1698 -88.8131 67.0149 
-75.7596 -112.626 82.4845 -75.7717 -113.788 81.6323 -75.7221 -114.898 80.5656 
-75.5529 -115.843 79.3647 -75.3923 -116.41 78.2221 -75.398 -116.194 76.9288 
-75.3214 -115.567 75.2902 -74.9895 -115.255 73.6289 -74.7193 -115.082 72.309 
-83.1348 -86.2306 76.2575 -83.5949 -85.7967 75.3678 -84.0621 -85.5662 74.3009 
-84.3613 -85.4596 72.9372 -84.484 -85.5372 71.3675 -84.5804 -85.8737 69.9897 
-84.635 -86.4356 69.0162 -84.5284 -87.1152 68.2774 -84.2801 -87.7684 67.6342 
-84.8831 -94.9131 74.833 -84.5169 -95.4342 76.1106 -84.0784 -96.0701 75.6557 
-84.1772 -96.076 77.5478 -83.6399 -96.5985 76.9829 -83.1813 -97.2627 76.4405 
-84.0813 -96.918 78.7399 -83.3417 -97.2222 78.1736 -82.7676 -97.7553 77.4986 
-82.299 -98.4883 76.8715 -84.026 -97.8356 79.6442 -83.2737 -98.0815 79.1043 
-82.4928 -98.453 78.4239 -82.0684 -99.2865 77.7288 -81.6793 -100.235 77.1618 
-83.5966 -98.4627 80.5315 -83.0874 -98.9619 80.0294 -82.3147 -99.4304 79.4072 
-81.8761 -100.297 78.6789 -81.5781 -101.299 78.0239 -81.0698 -102.064 77.5038 
-82.8854 -98.8548 81.3551 -82.625 -99.619 80.9598 -82.0571 -100.381 80.4255 
-81.6935 -101.367 79.7079 -81.52 -102.35 78.9298 -80.9743 -102.983 78.3184 
-80.2227 -103.35 77.8418 -82.2704 -99.3877 82.0908 -82.1469 -100.255 81.789 
-81.7737 -101.167 81.3169 -81.4504 -102.235 80.6493 -81.3704 -103.23 79.8156 
-80.9927 -103.875 79.0502 -80.1587 -104.212 78.5546 -79.4451 -104.509 78.1424 
-86.3742 -93.6422 74.7806 -86.7899 -92.8007 75.2459 -85.9793 -93.867 75.8151 
-86.6525 -91.6824 75.4206 -86.2085 -92.9348 76.1641 -85.383 -94.1483 77.0044 
-85.955 -90.7502 75.3657 -85.8611 -91.9164 76.244 -85.36 -93.1487 77.1744 
-84.847 -94.6449 78.2601 -85.1505 -90.0379 75.5622 -85.1618 -91.1365 76.3488 
-84.9742 -92.2991 77.2565 -84.7063 -93.627 78.4077 -84.5246 -95.387 79.4783 
-84.6635 -89.291 76.125 -84.6054 -90.3965 76.8286 -84.5135 -91.6111 77.5946 
-84.4435 -92.8339 78.6397 -84.3699 -94.3009 79.8275 -84.1158 -96.0339 80.6169 
-84.2212 -88.6046 76.6778 -84.218 -89.6319 77.409 -84.1277 -90.8272 78.1579 
-84.0772 -92.1183 79.0324 -84.1049 -93.4426 80.1302 -83.9288 -94.8978 81.0279 
-83.4412 -96.4494 81.4452 -83.5054 -88.1307 77.0713 -83.6149 -89.108 77.7422 
-83.6354 -90.1765 78.5212 -83.5574 -91.4133 79.3503 -83.549 -92.7449 80.2846 
-83.5349 -94.0499 81.1739 -83.2382 -95.408 81.7226 -82.7346 -96.9029 82.0056 
-82.2767 -88.2893 78.2785 -81.7681 -88.7479 79.3121 -82.2723 -89.3603 78.8415 
-81.1151 -89.1933 80.5279 -81.7393 -89.8456 80.0126 -82.3213 -90.4654 79.5898 
-80.3618 -89.9873 81.541 -81.2144 -90.3527 81.3368 -81.8168 -91.0035 80.8504 
-82.2837 -91.6304 80.4527 -79.5443 -91.2689 82.1561 -80.5333 -91.2301 82.3559 
-81.3737 -91.5613 82.1922 -81.793 -92.2339 81.6912 -82.1909 -92.9056 81.2758 
-78.6778 -92.658 82.7393 -79.5631 -92.4694 83.0815 -80.6043 -92.513 83.2058 
-81.2752 -93.0112 82.9224 -81.6327 -93.7169 82.4079 -82.1493 -94.2546 82.0093 
-77.9645 -93.8953 83.3884 -78.6083 -93.7479 83.7743 -79.4962 -93.7737 83.9211 
-80.3553 -94.193 83.7625 -80.9495 -94.844 83.435 -81.4853 -95.3322 83.0481 
[...]
POINT_DATA 1002
FIELD FieldData 2
Theta 1 1002 float
2.58802 2.58802 0.553574 0.553574 2.12437 1.01722 2.12437 1.01722 1.5708 
1.5708 1.5708 1.5708 2.68241 2.78649 2.89924 3.01861 3.14159 3.01861 
2.89924 2.78649 2.68241 2.61035 2.61791 2.60515 2.56958 2.51327 2.44184 
2.36202 2.27983 2.1997 2.61035 2.61791 2.60515 2.56958 2.51327 2.44184 
2.36202 2.27983 2.1997 2.50947 2.41899 2.31794 2.20864 2.0944 1.97902 
1.86631 1.75944 1.66056 2.50947 2.41899 2.31794 2.20864 2.0944 1.97902 
1.86631 1.75944 1.66056 2.61035 2.61791 2.60515 2.56958 2.51327 2.44184 
2.36202 2.27983 2.1997 2.61035 2.61791 2.60515 2.56958 2.51327 2.44184 
2.36202 2.27983 2.1997 2.50947 2.41899 2.31794 2.20864 2.0944 1.97902 
1.86631 1.75944 1.66056 2.50947 2.41899 2.31794 2.20864 2.0944 1.97902 
1.86631 1.75944 1.66056 0.459179 0.355101 0.242354 0.122983 0 0.122983 
0.242354 0.355101 0.459179 0.531246 0.523681 0.536438 0.57201 0.628319 0.699757 
0.779574 0.86176 0.941896 0.531246 0.523681 0.536438 0.57201 0.628319 0.699757 
0.779574 0.86176 0.941896 0.632123 0.7226 0.823657 0.932948 1.0472 1.16257 
1.27528 1.38216 1.48103 0.632123 0.7226 0.823657 0.932948 1.0472 1.16257 
1.27528 1.38216 1.48103 0.531246 0.523681 0.536438 0.57201 0.628319 0.699757 
0.779574 0.86176 0.941896 0.531246 0.523681 0.536438 0.57201 0.628319 0.699757 
0.779574 0.86176 0.941896 0.632123 0.7226 0.823657 0.932948 1.0472 1.16257 
1.27528 1.38216 1.48103 0.632123 0.7226 0.823657 0.932948 1.0472 1.16257 
1.27528 1.38216 1.48103 2.02998 1.9259 1.81315 1.69378 1.5708 1.44781 
1.32844 1.2157 1.11162 2.0928 2.05283 2.00422 1.94767 1.88496 1.81867 
1.75177 1.68695 1.62623 2.0928 2.05283 2.00422 1.94767 1.88496 1.81867 
1.75177 1.68695 1.62623 1.0488 1.08876 1.13737 1.19392 1.25664 1.32292 
1.38982 1.45464 1.51537 1.0488 1.08876 1.13737 1.19392 1.25664 1.32292 
1.38982 1.45464 1.51537 2.02998 1.9259 1.81315 1.69378 1.5708 1.44781 
1.32844 1.2157 1.11162 2.0928 2.05283 2.00422 1.94767 1.88496 1.81867 
1.75177 1.68695 1.62623 2.0928 2.05283 2.00422 1.94767 1.88496 1.81867 
1.75177 1.68695 1.62623 1.0488 1.08876 1.13737 1.19392 1.25664 1.32292 
1.38982 1.45464 1.51537 1.0488 1.08876 1.13737 1.19392 1.25664 1.32292 
1.38982 1.45464 1.51537 1.5708 1.5708 1.5708 1.5708 1.5708 1.5708 
1.5708 1.5708 1.5708 1.5708 1.5708 1.5708 1.5708 1.5708 1.5708 
1.5708 1.5708 1.5708 2.70908 2.71362 2.81592 2.68886 2.81002 2.92597 
2.6349 2.76254 2.89233 3.01997 2.55881 2.68262 2.80854 2.92834 3.01997 
2.47007 2.58462 2.70048 2.80854 2.89233 2.92597 2.37702 2.48017 2.58462 
2.68262 2.76254 2.81002 2.81592 2.28567 2.37702 2.47007 2.55881 2.6349 
2.68886 2.71362 2.70908 2.52097 2.4195 2.51718 2.30791 2.40503 2.49426 
2.18928 2.28408 2.3734 2.45144 2.06758 2.15805 2.24572 2.32523 2.39165 
1.94707 2.03138 2.11543 2.19453 2.26401 2.32035 1.83164 1.90847 1.98711 
2.06376 2.13422 2.1949 2.24359 1.72413 1.79288 1.86489 1.93728 2.00658 
2.06938 2.12312 2.16654 1.5708 1.50988 1.63171 1.44492 1.5708 1.69667 
1.37826 1.5059 1.63569 1.76333 1.31281 1.43962 1.5708 1.70197 1.82878 
1.25155 1.37501 1.50478 1.63681 1.76659 1.89004 1.19686 1.31493 1.44074 
1.5708 1.70086 1.82666 1.94473 1.15011 1.26149 1.38136 1.50697 1.63462 
1.76024 1.88011 1.99148 1.99148 1.88011 1.94473 1.76024 1.82666 1.89004 
1.63462 1.70086 1.76659 1.82878 1.50697 1.5708 1.63681 1.70197 1.76333 
1.38136 1.44074 1.50478 1.5708 1.63569 1.69667 1.26149 1.31493 1.37501 
1.43962 1.5059 1.5708 1.63171 1.15011 1.19686 1.25155 1.31281 1.37826 
1.44492 1.50988 1.5708 2.16654 2.12312 2.24359 2.06938 2.1949 2.32035 
2.00658 2.13422 2.26401 2.39165 1.93728 2.06376 2.19453 2.32523 2.45144 
1.86489 1.98711 2.11543 2.24572 2.3734 2.49426 1.79288 1.90847 2.03138 
2.15805 2.28408 2.40503 2.51718 1.72413 1.83164 1.94707 2.06758 2.18928 
2.30791 2.4195 2.52097 1.66533 1.66946 1.76911 1.67254 1.777 1.88041 
1.67418 1.78222 1.89102 1.99634 1.67418 1.78405 1.89674 2.00785 2.11299 
1.67254 1.78222 1.89674 2.01191 2.12307 2.22608 1.66946 1.777 1.89102 
2.00785 2.12307 2.23222 2.33166 1.66533 1.76911 1.88041 1.99634 2.11299 
2.22608 2.33166 2.42672 1.47626 1.37249 1.47213 1.26118 1.36459 1.46906 
1.14526 1.25058 1.35938 1.46741 1.0286 1.13374 1.24485 1.35755 1.46741 
0.915514 1.01852 1.12969 1.24485 1.35938 1.46906 0.809937 0.909371 1.01852 
1.13374 1.25058 1.36459 1.47213 0.714871 0.809937 0.915514 1.0286 1.14526 
1.26118 1.37249 1.47626 0.975055 0.898002 1.01847 0.821245 0.946693 1.07221 
0.749941 0.877585 1.00737 1.13501 0.690152 0.816367 0.94706 1.07784 1.20431 
0.647337 0.768195 0.895868 1.02616 1.15448 1.2767 0.624416 0.736561 0.857515 
0.983547 1.11021 1.23313 1.34871 0.620619 0.722093 0.833684 0.952313 1.07402 
1.19452 1.30996 1.41746 0.855925 0.764569 0.764569 0.671524 0.661425 0.671524 
0.582786 0.556971 0.556971 0.582786 0.506696 0.458968 0.441109 0.458968 0.506696 
0.45273 0.379052 0.333054 0.333054 0.379052 0.45273 0.427969 0.331576 0.249267 
0.21325 0.249267 0.331576 0.427969 0.432512 0.325669 0.215619 0.121622 0.121622 
0.215619 0.325669 0.432512 0.432512 0.427969 0.325669 0.45273 0.331576 0.215619 
0.506696 0.379052 0.249267 0.121622 0.582786 0.458968 0.333054 0.21325 0.121622 
0.671524 0.556971 0.441109 0.333054 0.249267 0.215619 0.764569 0.661425 0.556971 
0.458968 0.379052 0.331576 0.325669 0.855925 0.764569 0.671524 0.582786 0.506696 
0.45273 0.427969 0.432512 0.975055 1.01847 0.898002 1.07221 0.946693 0.821245 
1.13501 1.00737 0.877585 0.749941 1.20431 1.07784 0.94706 0.816367 0.690152 
1.2767 1.15448 1.02616 0.895868 0.768195 0.647337 1.34871 1.23313 1.11021 
0.983547 0.857515 0.736561 0.624416 1.41746 1.30996 1.19452 1.07402 0.952313 
0.833684 0.722093 0.620619 1.15011 1.26149 1.19686 1.38136 1.31493 1.25155 
1.50697 1.44074 1.37501 1.31281 1.63462 1.5708 1.50478 1.43962 1.37826 
1.76024 1.70086 1.63681 1.5708 1.5059 1.44492 1.88011 1.82666 1.76659 
1.70197 1.63569 1.5708 1.50988 1.99148 1.94473 1.89004 1.82878 1.76333 
1.69667 1.63171 1.5708 1.15011 1.19686 1.26149 1.25155 1.31493 1.38136 
1.31281 1.37501 1.44074 1.50697 1.37826 1.43962 1.50478 1.5708 1.63462 
1.44492 1.5059 1.5708 1.63681 1.70086 1.76024 1.50988 1.5708 1.63569 
1.70197 1.76659 1.82666 1.88011 1.5708 1.63171 1.69667 1.76333 1.82878 
1.89004 1.94473 1.99148 1.72413 1.83164 1.79288 1.94707 1.90847 1.86489 
2.06758 2.03138 1.98711 1.93728 2.18928 2.15805 2.11543 2.06376 2.00658 
2.30791 2.28408 2.24572 2.19453 2.13422 2.06938 2.4195 2.40503 2.3734 
2.32523 2.26401 2.1949 2.12312 2.52097 2.51718 2.49426 2.45144 2.39165 
2.32035 2.24359 2.16654 2.70908 2.81592 2.71362 2.92597 2.81002 2.68886 
3.01997 2.89233 2.76254 2.6349 3.01997 2.92834 2.80854 2.68262 2.55881 
2.92597 2.89233 2.80854 2.70048 2.58462 2.47007 2.81592 2.81002 2.76254 
2.68262 2.58462 2.48017 2.37702 2.70908 2.71362 2.68886 2.6349 2.55881 
2.47007 2.37702 2.28567 2.16654 2.24359 2.12312 2.32035 2.1949 2.06938 
2.39165 2.26401 2.13422 2.00658 2.45144 2.32523 2.19453 2.06376 1.93728 
2.49426 2.3734 2.24572 2.11543 1.98711 1.86489 2.51718 2.40503 2.28408 
2.15805 2.03138 1.90847 1.79288 2.52097 2.4195 2.30791 2.18928 2.06758 
1.94707 1.83164 1.72413 1.66533 1.76911 1.66946 1.88041 1.777 1.67254 
1.99634 1.89102 1.78222 1.67418 2.11299 2.00785 1.89674 1.78405 1.67418 
2.22608 2.12307 2.01191 1.89674 1.78222 1.67254 2.33166 2.23222 2.12307 
2.00785 1.89102 1.777 1.66946 2.42672 2.33166 2.22608 2.11299 1.99634 
1.88041 1.76911 1.66533 1.47626 1.47213 1.37249 1.46906 1.36459 1.26118 
1.46741 1.35938 1.25058 1.14526 1.46741 1.35755 1.24485 1.13374 1.0286 
1.46906 1.35938 1.24485 1.12969 1.01852 0.915514 1.47213 1.36459 1.25058 
1.13374 1.01852 0.909371 0.809937 1.47626 1.37249 1.26118 1.14526 1.0286 
0.915514 0.809937 0.714871 1.41746 1.30996 1.34871 1.19452 1.23313 1.2767 
1.07402 1.11021 1.15448 1.20431 0.952313 0.983547 1.02616 1.07784 1.13501 
0.833684 0.857515 0.895868 0.94706 1.00737 1.07221 0.722093 0.736561 0.768195 
0.816367 0.877585 0.946693 1.01847 0.620619 0.624416 0.647337 0.690152 0.749941 
0.821245 0.898002 0.975055 0.975055 0.898002 1.01847 0.821245 0.946693 1.07221 
0.749941 0.877585 1.00737 1.13501 0.690152 0.816367 0.94706 1.07784 1.20431 
0.647337 0.768195 0.895868 1.02616 1.15448 1.2767 0.624416 0.736561 0.857515 
0.983547 1.11021 1.23313 1.34871 0.620619 0.722093 0.833684 0.952313 1.07402 
1.19452 1.30996 1.41746 
Phi 1 1002 float
6.28319 3.14159 6.28319 3.14159 4.71239 4.71239 1.5708 1.5708 3.69517 
5.72961 2.58802 0.553574 6.28319 6.28319 6.28319 6.28319 3.14159 3.14159 
3.14159 3.14159 3.14159 6.1053 5.8988 5.67687 5.45995 5.26596 5.10322 
4.97131 4.86569 4.78095 0.177881 0.384387 0.606312 0.823235 1.01722 1.17997 
1.31187 1.4175 1.50223 6.18928 6.10703 6.03531 5.97283 5.91832 5.87061 
5.82869 5.79168 5.75886 0.0939024 0.176153 0.247873 0.310351 0.364864 0.412573 
0.454497 0.491504 0.524326 3.31947 3.52598 3.7479 3.96483 4.15881 4.32156 
4.45346 4.55909 4.64383 2.96371 2.75721 2.53528 2.31836 2.12437 1.96162 
1.82972 1.72409 1.63936 3.2355 3.31775 3.38947 3.45194 3.50646 3.55417 
3.59609 3.6331 3.66592 3.04769 2.96544 2.89372 2.83124 2.77673 2.72902 
2.6871 2.65009 2.61727 6.28319 6.28319 6.28319 6.28319 3.14159 3.14159 
3.14159 3.14159 3.14159 6.1053 5.8988 5.67687 5.45995 5.26596 5.10322 
4.97131 4.86569 4.78095 0.177881 0.384387 0.606312 0.823235 1.01722 1.17997 
1.31187 1.4175 1.50223 6.18928 6.10703 6.03531 5.97283 5.91832 5.87061 
5.82869 5.79168 5.75886 0.0939024 0.176153 0.247873 0.310351 0.364864 0.412573 
0.454497 0.491504 0.524326 3.31947 3.52598 3.7479 3.96483 4.15881 4.32156 
4.45346 4.55909 4.64383 2.96371 2.75721 2.53528 2.31836 2.12437 1.96162 
1.82972 1.72409 1.63936 3.2355 3.31775 3.38947 3.45194 3.50646 3.55417 
3.59609 3.6331 3.66592 3.04769 2.96544 2.89372 2.83124 2.77673 2.72902 
2.6871 2.65009 2.61727 4.71239 4.71239 4.71239 4.71239 4.71239 4.71239 
4.71239 4.71239 4.71239 4.60879 4.49914 4.3857 4.27128 4.15881 4.05096 
3.94976 3.85646 3.77161 4.81599 4.92564 5.03907 5.1535 5.26596 5.37381 
5.47502 5.56831 5.65317 4.60879 4.49914 4.3857 4.27128 4.15881 4.05096 
3.94976 3.85646 3.77161 4.81599 4.92564 5.03907 5.1535 5.26596 5.37381 
5.47502 5.56831 5.65317 1.5708 1.5708 1.5708 1.5708 1.5708 1.5708 
1.5708 1.5708 1.5708 1.6744 1.78405 1.89748 2.01191 2.12437 2.23222 
2.33343 2.42672 2.51157 1.4672 1.35755 1.24411 1.12969 1.01722 0.909371 
0.808166 0.714871 0.63002 1.6744 1.78405 1.89748 2.01191 2.12437 2.23222 
2.33343 2.42672 2.51157 1.4672 1.35755 1.24411 1.12969 1.01722 0.909371 
0.808166 0.714871 0.63002 3.60077 3.49669 3.38395 3.26458 3.14159 3.01861 
2.89924 2.78649 2.68241 5.82401 5.92808 6.04083 6.1602 6.28319 0.122983 
0.242354 0.355101 0.459179 6.05603 5.78856 5.97021 5.51259 5.60297 5.78856 
5.26596 5.26596 5.26596 5.26596 5.06749 5.0121 4.91556 4.71239 4.15881 
4.91556 4.83537 4.71239 4.50922 4.15881 3.63622 4.80045 4.71239 4.58941 
4.41268 4.15881 3.82181 3.45456 4.71239 4.62433 4.50922 4.35729 4.15881 
3.91219 3.63622 3.36875 6.01742 5.94343 5.82633 5.88092 5.76745 5.62798 
5.8278 5.71897 5.58911 5.43724 5.78235 5.67854 5.55757 5.41926 5.26596 
5.74316 5.64441 5.5315 5.40467 5.26596 5.11955 5.70914 5.61528 5.50962 
5.3926 5.26596 5.13292 4.99789 5.67937 5.59016 5.49102 5.38246 5.26596 
5.14407 5.02016 4.89798 5.56831 5.47502 5.47502 5.37381 5.37381 5.37381 
5.26596 5.26596 5.26596 5.26596 5.1535 5.1535 5.1535 5.1535 5.1535 
5.03907 5.03907 5.03907 5.03907 5.03907 5.03907 4.92564 4.92564 4.92564 
4.92564 4.92564 4.92564 4.92564 4.81599 4.81599 4.81599 4.81599 4.81599 
4.81599 4.81599 4.81599 4.60879 4.60879 4.49914 4.60879 4.49914 4.3857 
4.60879 4.49914 4.3857 4.27128 4.60879 4.49914 4.3857 4.27128 4.15881 
4.60879 4.49914 4.3857 4.27128 4.15881 4.05096 4.60879 4.49914 4.3857 
4.27128 4.15881 4.05096 3.94976 4.60879 4.49914 4.3857 4.27128 4.15881 
4.05096 3.94976 3.85646 4.5268 4.40462 4.42689 4.28071 4.29185 4.30523 
4.15881 4.15881 4.15881 4.15881 4.04232 4.03217 4.02011 4.00552 3.98753 
3.93376 3.91515 3.89328 3.86721 3.83566 3.7968 3.83461 3.8095 3.78037 
3.74624 3.70581 3.65733 3.59845 3.7454 3.71564 3.68161 3.64243 3.59698 
3.54386 3.48135 3.40735 3.56428 3.45246 3.52338 3.33203 3.40312 3.47739 
3.20576 3.27463 3.34802 3.42551 3.07742 3.14159 3.21128 3.28647 3.36688 
2.95116 3.00855 3.0719 3.14159 3.21784 3.3006 2.83072 2.88006 2.93517 
2.99672 3.06535 3.14159 3.22575 2.7189 2.7598 2.8058 2.85768 2.9163 
2.98259 3.05743 3.14159 3.56428 3.52338 3.45246 3.47739 3.40312 3.33203 
3.42551 3.34802 3.27463 3.20576 3.36688 3.28647 3.21128 3.14159 3.07742 
3.3006 3.21784 3.14159 3.0719 3.00855 2.95116 3.22575 3.14159 3.06535 
2.99672 2.93517 2.88006 2.83072 3.14159 3.05743 2.98259 2.9163 2.85768 
2.8058 2.7598 2.7189 4.5268 4.42689 4.40462 4.30523 4.29185 4.28071 
4.15881 4.15881 4.15881 4.15881 3.98753 4.00552 4.02011 4.03217 4.04232 
3.7968 3.83566 3.86721 3.89328 3.91515 3.93376 3.59845 3.65733 3.70581 
3.74624 3.78037 3.8095 3.83461 3.40735 3.48135 3.54386 3.59698 3.64243 
3.68161 3.71564 3.7454 4.71239 4.80045 4.62433 4.91556 4.71239 4.50922 
5.06749 4.83537 4.58941 4.35729 5.26596 5.0121 4.71239 4.41268 4.15881 
5.51259 5.26596 4.91556 4.50922 4.15881 3.91219 5.78856 5.60297 5.26596 
4.71239 4.15881 3.82181 3.63622 6.05603 5.97021 5.78856 5.26596 4.15881 
3.63622 3.45456 3.36875 0.227158 0.494626 0.312971 0.770593 0.680215 0.494626 
1.01722 1.01722 1.01722 1.01722 1.2157 1.27109 1.36763 1.5708 2.12437 
1.36763 1.44781 1.5708 1.77397 2.12437 2.64697 1.48273 1.5708 1.69378 
1.8705 2.12437 2.46138 2.82862 1.5708 1.65886 1.77397 1.9259 2.12437 
2.371 2.64697 2.91443 1.75639 1.87857 1.8563 2.00248 1.99133 1.97796 
2.12437 2.12437 2.12437 2.12437 2.24087 2.25101 2.26308 2.27767 2.29565 
2.34943 2.36803 2.38991 2.41597 2.44752 2.48639 2.44857 2.47368 2.50281 
2.53694 2.57738 2.62586 2.68474 2.53778 2.56754 2.60157 2.64076 2.68621 
2.73933 2.80184 2.87583 1.6744 1.6744 1.78405 1.6744 1.78405 1.89748 
1.6744 1.78405 1.89748 2.01191 1.6744 1.78405 1.89748 2.01191 2.12437 
1.6744 1.78405 1.89748 2.01191 2.12437 2.23222 1.6744 1.78405 1.89748 
2.01191 2.12437 2.23222 2.33343 1.6744 1.78405 1.89748 2.01191 2.12437 
2.23222 2.33343 2.42672 1.4672 1.35755 1.4672 1.24411 1.35755 1.4672 
1.12969 1.24411 1.35755 1.4672 1.01722 1.12969 1.24411 1.35755 1.4672 
0.909371 1.01722 1.12969 1.24411 1.35755 1.4672 0.808166 0.909371 1.01722 
1.12969 1.24411 1.35755 1.4672 0.714871 0.808166 0.909371 1.01722 1.12969 
1.24411 1.35755 1.4672 0.603812 0.57405 0.693022 0.540021 0.667908 0.792164 
0.500837 0.638778 0.773562 0.900726 0.455383 0.604649 0.751687 0.890581 1.01722 
0.402264 0.564217 0.725619 0.878514 1.01722 1.13912 0.339753 0.515737 0.694072 
0.863926 1.01722 1.15026 1.26302 0.265762 0.456853 0.655207 0.845941 1.01722 
1.16363 1.28529 1.38521 0.227158 0.312971 0.494626 0.494626 0.680215 0.770593 
1.01722 1.01722 1.01722 1.01722 2.12437 1.5708 1.36763 1.27109 1.2157 
2.64697 2.12437 1.77397 1.5708 1.44781 1.36763 2.82862 2.46138 2.12437 
1.8705 1.69378 1.5708 1.48273 2.91443 2.64697 2.371 2.12437 1.9259 
1.77397 1.65886 1.5708 1.75639 1.8563 1.87857 1.97796 1.99133 2.00248 
2.12437 2.12437 2.12437 2.12437 2.29565 2.27767 2.26308 2.25101 2.24087 
2.48639 2.44752 2.41597 2.38991 2.36803 2.34943 2.68474 2.62586 2.57738 
2.53694 2.50281 2.47368 2.44857 2.87583 2.80184 2.73933 2.68621 2.64076 
2.60157 2.56754 2.53778 5.86049 5.90139 5.97231 5.94739 6.02165 6.09275 
5.99927 6.07676 6.15015 6.21902 6.0579 6.13831 6.2135 0 0.0641696 
6.12418 6.20694 6.28319 0.069689 0.13304 0.190437 6.19903 0 0.0762451 
0.144876 0.206423 0.261531 0.310872 0 0.0841597 0.159004 0.225289 0.283913 
0.335793 0.381792 0.422692 5.86049 5.97231 5.90139 6.09275 6.02165 5.94739 
6.21902 6.15015 6.07676 5.99927 0.0641696 0 6.2135 6.13831 6.0579 
0.190437 0.13304 0.069689 6.28319 6.20694 6.12418 0.310872 0.261531 0.206423 
0.144876 0.0762451 6.28319 6.19903 0.422692 0.381792 0.335793 0.283913 0.225289 
0.159004 0.0841597 0 5.67937 5.70914 5.59016 5.74316 5.61528 5.49102 
5.78235 5.64441 5.50962 5.38246 5.8278 5.67854 5.5315 5.3926 5.26596 
5.88092 5.71897 5.55757 5.40467 5.26596 5.14407 5.94343 5.76745 5.58911 
5.41926 5.26596 5.13292 5.02016 6.01742 5.82633 5.62798 5.43724 5.26596 
5.11955 4.99789 4.89798 1.38521 1.28529 1.26302 1.16363 1.15026 1.13912 
1.01722 1.01722 1.01722 1.01722 0.845941 0.863926 0.878514 0.890581 0.900726 
0.655207 0.694072 0.725619 0.751687 0.773562 0.792164 0.456853 0.515737 0.564217 
0.604649 0.638778 0.667908 0.693022 0.265762 0.339753 0.402264 0.455383 0.500837 
0.540021 0.57405 0.603812 
