# vtk DataFile Version 4.0
vtk output
ASCII
DATASET POLYDATA
POINTS 1002 float
-83.3016 -93.7481 67.6589 -76.7478 -106.489 73.9216 -73.4268 -89.7841 68.2654 
-70.5105 -105.219 72.81 -78.8484 -97.5584 78.4305 -73.1792 -94.8738 78.6748 
-77.1488 -100.476 65.2568 -72.3538 -101.058 65.9979 -73.5466 -111.759 80.2857 
-79.3162 -86.7061 70.3284 -72.2105 -114.766 68.2544 -81.2562 -88.5815 60.9641 
-82.4214 -94.4067 68.0772 -81.5203 -95.358 68.7466 -80.543 -96.484 69.6514 
-79.5392 -97.5845 70.6344 -78.8608 -99.0331 71.508 -78.5432 -100.993 72.1329 
-78.1396 -102.779 72.5976 -77.5447 -104.081 73.108 -77.0423 -105.258 73.6122 
-82.7832 -93.8334 68.5076 -82.1141 -93.9606 69.4572 -81.5962 -94.2754 70.7124 
-81.5687 -94.9017 72.2785 -81.7272 -95.5322 73.8585 -81.445 -95.8009 75.1696 
-80.712 -95.9558 76.1154 -79.9409 -96.3749 76.8644 -79.3344 -96.9844 77.6486 
-83.1415 -94.0587 67.0068 -82.8349 -94.5054 66.4335 -82.4219 -95.1506 66.0235 
-81.9759 -95.9383 65.6296 -81.3799 -96.7739 65.2127 -80.5022 -97.5728 65.0147 
-79.5756 -98.3462 65.0191 -78.7916 -99.1275 65.0256 -78.0047 -99.8432 65.0844 
-83.8602 -93.1164 67.8805 -84.2403 -92.2037 68.0662 -84.1871 -91.099 68.114 
-83.6107 -90.0165 68.0948 -82.8734 -89.0192 68.192 -82.3404 -88.1803 68.5297 
-81.7867 -87.5907 69.0528 -80.9613 -87.1907 69.5677 -80.0661 -86.9151 69.9712 
-84.1051 -93.3369 66.8854 -84.9281 -92.8249 66.0077 -85.5687 -92.201 65.0721 
-85.5415 -91.5455 64.0695 -84.8882 -90.8296 63.0542 -84.3655 -90.0185 62.2575 
-84.023 -89.2665 61.6943 -83.286 -88.7644 61.2195 -82.2224 -88.5637 60.9378 
-77.2204 -106.205 74.3825 -77.7085 -105.878 74.9041 -78.0227 -105.246 75.6112 
-78.2405 -104.246 76.373 -78.6233 -103.216 77.0413 -79.0468 -102.336 77.7461 
-79.1959 -101.338 78.3896 -79.1072 -100.06 78.6345 -78.9689 -98.7209 78.5419 
-76.491 -106.027 73.2264 -76.3425 -105.554 72.3633 -76.2853 -105.077 71.4446 
-76.138 -104.494 70.5555 -75.8715 -103.726 69.7813 -75.7404 -102.885 69.0791 
-75.932 -102.131 68.152 -76.3714 -101.513 66.9991 -76.8357 -100.986 65.989 
-76.788 -107.537 74.3626 -76.7526 -108.523 74.8676 -76.5619 -109.428 75.7342 
-76.2418 -110.306 76.8455 -75.8993 -111.051 77.7496 -75.6181 -111.592 78.536 
-75.3054 -112.02 79.4861 -74.7834 -112.268 80.2628 -74.112 -112.178 80.4907 
-76.3968 -107.57 73.6381 -76.0506 -108.791 73.1874 -75.6394 -109.951 72.6842 
-75.3199 -111.178 72.1021 -75.1053 -112.499 71.353 -74.5673 -113.338 70.6208 
-73.6959 -113.637 70.0609 -73.0398 -114.032 69.5088 -72.676 -114.546 68.8672 
-72.9949 -90.8357 68.805 -72.6567 -92.3428 69.4652 -72.1881 -94.0371 70.0767 
-71.4863 -95.5437 70.5634 -70.795 -96.9147 71.0931 -70.3955 -98.5017 71.7166 
-70.3025 -100.397 72.2194 -70.3682 -102.285 72.4883 -70.4584 -103.878 72.6373 
-73.2261 -89.8861 69.3015 -73.0673 -90.077 70.4686 -73.0162 -90.4152 71.4494 
-73.1471 -91.0054 72.3508 -73.3333 -91.7989 73.4684 -73.3703 -92.525 74.6497 
-73.2697 -93.0415 75.7566 -73.1553 -93.5174 76.8827 -73.1131 -94.138 77.907 
-73.3387 -90.3211 67.7578 -73.2587 -91.0978 67.3789 -73.1615 -92.0913 66.9218 
-72.9507 -93.07 66.3568 -72.6231 -94.028 65.9438 -72.426 -95.252 65.7709 
-72.436 -96.7175 65.7641 -72.4405 -98.1956 65.8965 -72.384 -99.6528 66.0283 
-73.8974 -89.0039 68.4091 -74.5469 -88.1756 68.589 -75.2048 -87.2569 68.6897 
-75.6347 -86.2924 68.8684 -75.9848 -85.3749 69.417 -76.6724 -84.8175 70.1066 
-77.6212 -84.8829 70.404 -78.4018 -85.411 70.3201 -78.9134 -86.0849 70.2407 
-73.9916 -89.2826 67.4847 -74.7499 -88.804 66.7184 -75.5243 -88.1965 65.7481 
-76.2455 -87.5882 64.6351 -77.1843 -87.3318 63.7708 -78.3926 -87.3694 63.1773 
-79.4146 -87.4214 62.5556 -80.0598 -87.6017 61.9015 -80.6125 -88.0411 61.3628 
-70.5636 -104.492 73.5948 -70.5621 -103.502 74.5564 -70.7367 -102.416 75.2302 
-71.1384 -101.405 75.6514 -71.5532 -100.356 76.2185 -71.9727 -99.2486 76.7721 
-72.4615 -98.1622 77.1698 -72.8223 -97.0006 77.7064 -72.9921 -95.8285 78.3168 
-70.2507 -104.972 72.2354 -69.8603 -104.669 71.708 -69.6484 -104.462 70.7691 
-69.7179 -104.282 69.5883 -69.8866 -103.902 68.6528 -70.138 -103.346 67.8456 
-70.6364 -102.837 67.1286 -71.3204 -102.387 66.7494 -71.9299 -101.822 66.4828 
-70.5322 -106.126 73.5554 -70.483 -107.062 74.5447 -70.6004 -108.025 75.3952 
-71.0503 -109.023 75.8991 -71.6267 -109.962 76.411 -72.0164 -110.66 77.2237 
-72.3066 -111.14 78.14 -72.6798 -111.52 78.9534 -73.0974 -111.752 79.6654 
-70.4252 -106.5 72.6303 -70.1954 -108.042 72.5242 -69.8172 -109.623 72.2956 
-69.6668 -111.002 71.7453 -69.8936 -112.339 70.9482 -69.9814 -113.658 70.1667 
-69.9369 -114.608 69.5149 -70.4191 -115.058 68.9552 -71.3855 -115.087 68.5076 
-78.4262 -97.2403 78.8408 -77.8763 -96.9406 79.1281 -77.2535 -96.5919 79.2503 
-76.6006 -96.0733 79.5289 -75.9762 -95.4472 80.066 -75.4272 -95.0407 80.3048 
-74.8401 -94.9741 79.9798 -74.1479 -94.9793 79.5059 -73.5369 -94.9036 79.1192 
-78.4951 -98.7401 79.1827 -78.1544 -99.9248 79.9334 -77.7114 -101.23 80.66 
-77.1846 -102.842 81.1685 -76.6375 -104.723 81.4229 -75.9515 -106.651 81.7023 
-75.1228 -108.41 81.8735 -74.4063 -109.846 81.5599 -73.9143 -110.94 80.9165 
-79.0988 -96.1439 77.9274 -79.4026 -94.707 77.3392 -79.5552 -93.3766 76.5265 
-79.5236 -92.2292 75.5641 -79.4522 -91.1515 74.5999 -79.4015 -90.0117 73.5922 
-79.3533 -88.9552 72.5894 -79.3139 -88.1303 71.7295 -79.297 -87.4177 70.9901 
-73.1216 -96.1541 79.2079 -72.9711 -97.4799 79.8321 -72.8006 -99.0457 80.4221 
-72.8559 -101.005 80.5958 -73.1835 -103.029 80.396 -73.4855 -104.914 80.2758 
-73.5047 -106.907 80.3 -73.3733 -108.93 80.2969 -73.3684 -110.587 80.2908 
-73.4595 -93.5876 78.3406 -74.0079 -92.3096 77.7901 -74.7753 -91.0423 77.1923 
-75.4978 -89.7705 76.6374 -76.0943 -88.6192 75.9237 -76.7407 -87.7913 74.8225 
-77.4296 -87.3396 73.4478 -78.043 -87.1169 72.1511 -78.6454 -86.9281 71.1333 
-76.6892 -100.544 64.9743 -76.2022 -100.686 64.5606 -75.8355 -100.928 64.0463 
-75.4015 -101.103 63.7906 -74.6067 -101.1 63.9721 -73.7185 -101.115 64.2733 
-73.1725 -101.284 64.5264 -72.8752 -101.413 64.9232 -72.6002 -101.32 65.4804 
-76.1843 -101.578 65.8552 -75.422 -103.179 66.339 -74.9852 -105.378 66.51 
-74.6771 -107.687 66.4168 -74.176 -109.406 66.4101 -73.4809 -110.629 66.6562 
-72.9234 -111.878 66.944 -72.6702 -113.086 67.1823 -72.5129 -114.014 67.5789 
-77.9064 -99.4959 64.4462 -78.6363 -98.3138 63.5003 -79.2921 -96.9934 62.4814 
-79.9109 -95.7545 61.5468 -80.4821 -94.6122 60.7491 -80.9352 -93.3098 60.1552 
-81.295 -91.8759 59.959 -81.5136 -90.6087 60.1665 -81.4728 -89.552 60.5579 
-72.0348 -102.875 66.0882 -71.4564 -104.517 65.8683 -70.7001 -106.123 65.3603 
-70.1405 -107.95 64.6507 -70.0126 -109.896 64.23 -70.1702 -111.588 64.5906 
-70.5233 -112.825 65.4249 -71.1061 -113.663 66.2801 -71.744 -114.275 67.2104 
-72.7174 -99.1679 65.2868 -73.3196 -97.111 64.3711 -74.4087 -95.3378 63.5259 
-75.649 -93.9288 62.7431 -76.5532 -92.6723 61.8875 -77.3911 -91.6037 61.1944 
-78.5267 -90.8091 60.9547 -79.6595 -90.0964 60.9691 -80.5283 -89.3202 60.9518 
-73.4685 -112.798 79.82 -73.4031 -113.88 79.0343 -73.3289 -114.759 77.8497 
-73.0955 -115.04 76.3697 -72.6886 -115.201 74.5841 -72.3246 -116 72.7549 
-72.1368 -116.762 71.4406 -72.1039 -116.517 70.5098 -72.1598 -115.608 69.4406 
-79.8194 -86.1304 69.4134 -80.3707 -85.5925 68.3662 -80.9912 -85.1757 67.2545 
-81.6778 -84.9492 66.0539 -82.1311 -84.9379 64.7365 -82.1512 -85.1872 63.5097 
-81.9811 -85.7528 62.5644 -81.7964 -86.5854 61.8622 -81.5492 -87.5675 61.3343 
-81.8757 -94.6648 69.0526 -81.3546 -95.0214 70.2769 -81.021 -95.7269 69.899 
-81.1322 -95.5011 71.8036 -80.6502 -96.133 71.3268 -80.0889 -96.8062 70.9313 
-81.1376 -96.0443 73.3232 -80.422 -96.5742 72.819 -79.7465 -97.2516 72.3802 
-79.1957 -98.0482 71.9416 -80.9439 -96.4968 74.6068 -80.2011 -97.1283 74.0662 
-79.5031 -97.948 73.7051 -78.9845 -98.854 73.3243 -78.7296 -99.8848 72.731 
-80.4256 -96.9283 75.7587 -79.971 -97.8868 75.2454 -79.4842 -98.9328 74.8332 
-78.9978 -99.9193 74.5334 -78.6949 -100.879 73.993 -78.5169 -101.923 73.2151 
-79.832 -97.5217 76.8099 -79.7236 -98.7732 76.5383 -79.5955 -99.9948 76.0428 
-79.2165 -100.979 75.5666 -78.7501 -101.804 75.0703 -78.4676 -102.726 74.3444 
-78.1205 -103.569 73.6076 -79.3488 -98.1858 77.7351 -79.4205 -99.5472 77.718 
-79.5021 -100.823 77.3119 -79.2818 -101.789 76.6402 -78.7571 -102.584 76.0126 
-78.358 -103.49 75.352 -78.0778 -104.37 74.6276 -77.6143 -104.933 74.0479 
-83.2629 -93.0815 68.713 -83.5408 -92.1052 68.8698 -82.426 -93.0617 69.6352 
-83.3089 -91.0724 68.9296 -82.5157 -92.0855 69.7899 -81.8077 -93.3863 70.9096 
-82.6501 -90.1027 69.0248 -82.2124 -91.2122 69.9645 -81.7848 -92.4552 71.1063 
-81.8056 -94.1069 72.5895 -82.0869 -89.1684 69.3526 -81.7846 -90.3957 70.3153 
-81.5278 -91.5781 71.4174 -81.645 -93.0078 72.8836 -81.8728 -94.6229 74.3299 
-81.6529 -88.3915 69.8852 -81.4414 -89.569 70.8326 -81.2589 -90.8093 71.8672 
-81.2322 -91.9226 73.1599 -81.4423 -93.2913 74.5962 -81.3753 -94.721 75.5944 
-80.9498 -87.8882 70.3764 -80.863 -88.8671 71.2562 -80.8189 -90.1251 72.2267 
-80.7734 -91.2293 73.339 -80.7815 -92.2491 74.5822 -80.8189 -93.5279 75.6552 
-80.5299 -94.9291 76.3323 -80.0598 -87.6039 70.711 -80.0315 -88.3983 71.4978 
-80.0612 -89.476 72.3971 -80.1228 -90.6737 73.4256 -80.1324 -91.7105 74.4931 
-80.1476 -92.7637 75.5307 -80.0716 -94.0415 76.4 -79.7431 -95.4776 77.0519 
-78.7142 -87.725 71.8912 -78.2206 -87.9757 73.146 -78.8333 -88.4722 72.8117 
-77.5874 -88.2226 74.6199 -78.3727 -88.7803 74.2663 -78.8684 -89.3222 73.8661 
-76.819 -88.6863 75.9089 -77.6877 -89.1881 75.6698 -78.3443 -89.7775 75.33 
-78.8376 -90.4301 74.9294 -76.1088 -89.5431 76.8831 -76.8855 -89.8505 76.769 
-77.6861 -90.4756 76.5363 -78.3147 -91.0329 76.2826 -78.9056 -91.6451 75.9066 
-75.3895 -90.7701 77.6466 -76.0944 -90.8281 77.7705 -76.9119 -91.3587 77.5928 
-77.7232 -91.8935 77.4085 -78.4228 -92.3276 77.2365 -79.0215 -92.8707 76.9063 
-74.6204 -92.1985 78.2408 -75.3299 -92.1558 78.5959 -76.0671 -92.4116 78.6672 
-76.8823 -92.8863 78.4492 -77.7186 -93.2976 78.2651 -78.4123 -93.7365 78.1525 
[...]
POINT_DATA 1002
FIELD FieldData 2
Theta 1 1002 float
2.58802 2.58802 0.553574 0.553574 2.12437 1.01722 2.12437 1.01722 1.5708 
1.5708 1.5708 1.5708 2.68241 2.78649 2.89924 3.01861 3.14159 3.01861 
2.89924 2.78649 2.68241 2.61035 2.61791 2.60515 2.56958 2.51327 2.44184 
2.36202 2.27983 2.1997 2.61035 2.61791 2.60515 2.56958 2.51327 2.44184 
2.36202 2.27983 2.1997 2.50947 2.41899 2.31794 2.20864 2.0944 1.97902 
1.86631 1.75944 1.66056 2.50947 2.41899 2.31794 2.20864 2.0944 1.97902 
1.86631 1.75944 1.66056 2.61035 2.61791 2.60515 2.56958 2.51327 2.44184 
2.36202 2.27983 2.1997 2.61035 2.61791 2.60515 2.56958 2.51327 2.44184 
2.36202 2.27983 2.1997 2.50947 2.41899 2.31794 2.20864 2.0944 1.97902 
1.86631 1.75944 1.66056 2.50947 2.41899 2.31794 2.20864 2.0944 1.97902 
1.86631 1.75944 1.66056 0.459179 0.355101 0.242354 0.122983 0 0.122983 
0.242354 0.355101 0.459179 0.531246 0.523681 0.536438 0.57201 0.628319 0.699757 
0.779574 0.86176 0.941896 0.531246 0.523681 0.536438 0.57201 0.628319 0.699757 
0.779574 0.86176 0.941896 0.632123 0.7226 0.823657 0.932948 1.0472 1.16257 
1.27528 1.38216 1.48103 0.632123 0.7226 0.823657 0.932948 1.0472 1.16257 
1.27528 1.38216 1.48103 0.531246 0.523681 0.536438 0.57201 0.628319 0.699757 
0.779574 0.86176 0.941896 0.531246 0.523681 0.536438 0.57201 0.628319 0.699757 
0.779574 0.86176 0.941896 0.632123 0.7226 0.823657 0.932948 1.0472 1.16257 
1.27528 1.38216 1.48103 0.632123 0.7226 0.823657 0.932948 1.0472 1.16257 
1.27528 1.38216 1.48103 2.02998 1.9259 1.81315 1.69378 1.5708 1.44781 
1.32844 1.2157 1.11162 2.0928 2.05283 2.00422 1.94767 1.88496 1.81867 
1.75177 1.68695 1.62623 2.0928 2.05283 2.00422 1.94767 1.88496 1.81867 
1.75177 1.68695 1.62623 1.0488 1.08876 1.13737 1.19392 1.25664 1.32292 
1.38982 1.45464 1.51537 1.0488 1.08876 1.13737 1.19392 1.25664 1.32292 
1.38982 1.45464 1.51537 2.02998 1.9259 1.81315 1.69378 1.5708 1.44781 
1.32844 1.2157 1.11162 2.0928 2.05283 2.00422 1.94767 1.88496 1.81867 
1.75177 1.68695 1.62623 2.0928 2.05283 2.00422 1.94767 1.88496 1.81867 
1.75177 1.68695 1.62623 1.0488 1.08876 1.13737 1.19392 1.25664 1.32292 
1.38982 1.45464 1.51537 1.0488 1.08876 1.13737 1.19392 1.25664 1.32292 
1.38982 1.45464 1.51537 1.5708 1.5708 1.5708 1.5708 1.5708 1.5708 
1.5708 1.5708 1.5708 1.5708 1.5708 1.5708 1.5708 1.5708 1.5708 
1.5708 1.5708 1.5708 2.70908 2.71362 2.81592 2.68886 2.81002 2.92597 
2.6349 2.76254 2.89233 3.01997 2.55881 2.68262 2.80854 2.92834 3.01997 
2.47007 2.58462 2.70048 2.80854 2.89233 2.92597 2.37702 2.48017 2.58462 
2.68262 2.76254 2.81002 2.81592 2.28567 2.37702 2.47007 2.55881 2.6349 
2.68886 2.71362 2.70908 2.52097 2.4195 2.51718 2.30791 2.40503 2.49426 
2.18928 2.28408 2.3734 2.45144 2.06758 2.15805 2.24572 2.32523 2.39165 
1.94707 2.03138 2.11543 2.19453 2.26401 2.32035 1.83164 1.90847 1.98711 
2.06376 2.13422 2.1949 2.24359 1.72413 1.79288 1.86489 1.93728 2.00658 
2.06938 2.12312 2.16654 1.5708 1.50988 1.63171 1.44492 1.5708 1.69667 
1.37826 1.5059 1.63569 1.76333 1.31281 1.43962 1.5708 1.70197 1.82878 
1.25155 1.37501 1.50478 1.63681 1.76659 1.89004 1.19686 1.31493 1.44074 
1.5708 1.70086 1.82666 1.94473 1.15011 1.26149 1.38136 1.50697 1.63462 
1.76024 1.88011 1.99148 1.99148 1.88011 1.94473 1.76024 1.82666 1.89004 
1.63462 1.70086 1.76659 1.82878 1.50697 1.5708 1.63681 1.70197 1.76333 
1.38136 1.44074 1.50478 1.5708 1.63569 1.69667 1.26149 1.31493 1.37501 
1.43962 1.5059 1.5708 1.63171 1.15011 1.19686 1.25155 1.31281 1.37826 
1.44492 1.50988 1.5708 2.16654 2.12312 2.24359 2.06938 2.1949 2.32035 
2.00658 2.13422 2.26401 2.39165 1.93728 2.06376 2.19453 2.32523 2.45144 
1.86489 1.98711 2.11543 2.24572 2.3734 2.49426 1.79288 1.90847 2.03138 
2.15805 2.28408 2.40503 2.51718 1.72413 1.83164 1.94707 2.06758 2.18928 
2.30791 2.4195 2.52097 1.66533 1.66946 1.76911 1.67254 1.777 1.88041 
1.67418 1.78222 1.89102 1.99634 1.67418 1.78405 1.89674 2.00785 2.11299 
1.67254 1.78222 1.89674 2.01191 2.12307 2.22608 1.66946 1.777 1.89102 
2.00785 2.12307 2.23222 2.33166 1.66533 1.76911 1.88041 1.99634 2.11299 
2.22608 2.33166 2.42672 1.47626 1.37249 1.47213 1.26118 1.36459 1.46906 
1.14526 1.25058 1.35938 1.46741 1.0286 1.13374 1.24485 1.35755 1.46741 
0.915514 1.01852 1.12969 1.24485 1.35938 1.46906 0.809937 0.909371 1.01852 
1.13374 1.25058 1.36459 1.47213 0.714871 0.809937 0.915514 1.0286 1.14526 
1.26118 1.37249 1.47626 0.975055 0.898002 1.01847 0.821245 0.946693 1.07221 
0.749941 0.877585 1.00737 1.13501 0.690152 0.816367 0.94706 1.07784 1.20431 
0.647337 0.768195 0.895868 1.02616 1.15448 1.2767 0.624416 0.736561 0.857515 
0.983547 1.11021 1.23313 1.34871 0.620619 0.722093 0.833684 0.952313 1.07402 
1.19452 1.30996 1.41746 0.855925 0.764569 0.764569 0.671524 0.661425 0.671524 
0.582786 0.556971 0.556971 0.582786 0.506696 0.458968 0.441109 0.458968 0.506696 
0.45273 0.379052 0.333054 0.333054 0.379052 0.45273 0.427969 0.331576 0.249267 
0.21325 0.249267 0.331576 0.427969 0.432512 0.325669 0.215619 0.121622 0.121622 
0.215619 0.325669 0.432512 0.432512 0.427969 0.325669 0.45273 0.331576 0.215619 
0.506696 0.379052 0.249267 0.121622 0.582786 0.458968 0.333054 0.21325 0.121622 
0.671524 0.556971 0.441109 0.333054 0.249267 0.215619 0.764569 0.661425 0.556971 
0.458968 0.379052 0.331576 0.325669 0.855925 0.764569 0.671524 0.582786 0.506696 
0.45273 0.427969 0.432512 0.975055 1.01847 0.898002 1.07221 0.946693 0.821245 
1.13501 1.00737 0.877585 0.749941 1.20431 1.07784 0.94706 0.816367 0.690152 
1.2767 1.15448 1.02616 0.895868 0.768195 0.647337 1.34871 1.23313 1.11021 
0.983547 0.857515 0.736561 0.624416 1.41746 1.30996 1.19452 1.07402 0.952313 
0.833684 0.722093 0.620619 1.15011 1.26149 1.19686 1.38136 1.31493 1.25155 
1.50697 1.44074 1.37501 1.31281 1.63462 1.5708 1.50478 1.43962 1.37826 
1.76024 1.70086 1.63681 1.5708 1.5059 1.44492 1.88011 1.82666 1.76659 
1.70197 1.63569 1.5708 1.50988 1.99148 1.94473 1.89004 1.82878 1.76333 
1.69667 1.63171 1.5708 1.15011 1.19686 1.26149 1.25155 1.31493 1.38136 
1.31281 1.37501 1.44074 1.50697 1.37826 1.43962 1.50478 1.5708 1.63462 
1.44492 1.5059 1.5708 1.63681 1.70086 1.76024 1.50988 1.5708 1.63569 
1.70197 1.76659 1.82666 1.88011 1.5708 1.63171 1.69667 1.76333 1.82878 
1.89004 1.94473 1.99148 1.72413 1.83164 1.79288 1.94707 1.90847 1.86489 
2.06758 2.03138 1.98711 1.93728 2.18928 2.15805 2.11543 2.06376 2.00658 
2.30791 2.28408 2.24572 2.19453 2.13422 2.06938 2.4195 2.40503 2.3734 
2.32523 2.26401 2.1949 2.12312 2.52097 2.51718 2.49426 2.45144 2.39165 
2.32035 2.24359 2.16654 2.70908 2.81592 2.71362 2.92597 2.81002 2.68886 
3.01997 2.89233 2.76254 2.6349 3.01997 2.92834 2.80854 2.68262 2.55881 
2.92597 2.89233 2.80854 2.70048 2.58462 2.47007 2.81592 2.81002 2.76254 
2.68262 2.58462 2.48017 2.37702 2.70908 2.71362 2.68886 2.6349 2.55881 
2.47007 2.37702 2.28567 2.16654 2.24359 2.12312 2.32035 2.1949 2.06938 
2.39165 2.26401 2.13422 2.00658 2.45144 2.32523 2.19453 2.06376 1.93728 
2.49426 2.3734 2.24572 2.11543 1.98711 1.86489 2.51718 2.40503 2.28408 
2.15805 2.03138 1.90847 1.79288 2.52097 2.4195 2.30791 2.18928 2.06758 
1.94707 1.83164 1.72413 1.66533 1.76911 1.66946 1.88041 1.777 1.67254 
1.99634 1.89102 1.78222 1.67418 2.11299 2.00785 1.89674 1.78405 1.67418 
2.22608 2.12307 2.01191 1.89674 1.78222 1.67254 2.33166 2.23222 2.12307 
2.00785 1.89102 1.777 1.66946 2.42672 2.33166 2.22608 2.11299 1.99634 
1.88041 1.76911 1.66533 1.47626 1.47213 1.37249 1.46906 1.36459 1.26118 
1.46741 1.35938 1.25058 1.14526 1.46741 1.35755 1.24485 1.13374 1.0286 
1.46906 1.35938 1.24485 1.12969 1.01852 0.915514 1.47213 1.36459 1.25058 
1.13374 1.01852 0.909371 0.809937 1.47626 1.37249 1.26118 1.14526 1.0286 
0.915514 0.809937 0.714871 1.41746 1.30996 1.34871 1.19452 1.23313 1.2767 
1.07402 1.11021 1.15448 1.20431 0.952313 0.983547 1.02616 1.07784 1.13501 
0.833684 0.857515 0.895868 0.94706 1.00737 1.07221 0.722093 0.736561 0.768195 
0.816367 0.877585 0.946693 1.01847 0.620619 0.624416 0.647337 0.690152 0.749941 
0.821245 0.898002 0.975055 0.975055 0.898002 1.01847 0.821245 0.946693 1.07221 
0.749941 0.877585 1.00737 1.13501 0.690152 0.816367 0.94706 1.07784 1.20431 
0.647337 0.768195 0.895868 1.02616 1.15448 1.2767 0.624416 0.736561 0.857515 
0.983547 1.11021 1.23313 1.34871 0.620619 0.722093 0.833684 0.952313 1.07402 
1.19452 1.30996 1.41746 
Phi 1 1002 float
6.28319 3.14159 6.28319 3.14159 4.71239 4.71239 1.5708 1.5708 3.69517 
5.72961 2.58802 0.553574 6.28319 6.28319 6.28319 6.28319 3.14159 3.14159 
3.14159 3.14159 3.14159 6.1053 5.8988 5.67687 5.45995 5.26596 5.10322 
4.97131 4.86569 4.78095 0.177881 0.384387 0.606312 0.823235 1.01722 1.17997 
1.31187 1.4175 1.50223 6.18928 6.10703 6.03531 5.97283 5.91832 5.87061 
5.82869 5.79168 5.75886 0.0939024 0.176153 0.247873 0.310351 0.364864 0.412573 
0.454497 0.491504 0.524326 3.31947 3.52598 3.7479 3.96483 4.15881 4.32156 
4.45346 4.55909 4.64383 2.96371 2.75721 2.53528 2.31836 2.12437 1.96162 
1.82972 1.72409 1.63936 3.2355 3.31775 3.38947 3.45194 3.50646 3.55417 
3.59609 3.6331 3.66592 3.04769 2.96544 2.89372 2.83124 2.77673 2.72902 
2.6871 2.65009 2.61727 6.28319 6.28319 6.28319 6.28319 3.14159 3.14159 
3.14159 3.14159 3.14159 6.1053 5.8988 5.67687 5.45995 5.26596 5.10322 
4.97131 4.86569 4.78095 0.177881 0.384387 0.606312 0.823235 1.01722 1.17997 
1.31187 1.4175 1.50223 6.18928 6.10703 6.03531 5.97283 5.91832 5.87061 
5.82869 5.79168 5.75886 0.0939024 0.176153 0.247873 0.310351 0.364864 0.412573 
0.454497 0.491504 0.524326 3.31947 3.52598 3.7479 3.96483 4.15881 4.32156 
4.45346 4.55909 4.64383 2.96371 2.75721 2.53528 2.31836 2.12437 1.96162 
1.82972 1.72409 1.63936 3.2355 3.31775 3.38947 3.45194 3.50646 3.55417 
3.59609 3.6331 3.66592 3.04769 2.96544 2.89372 2.83124 2.77673 2.72902 
2.6871 2.65009 2.61727 4.71239 4.71239 4.71239 4.71239 4.71239 4.71239 
4.71239 4.71239 4.71239 4.60879 4.49914 4.3857 4.27128 4.15881 4.05096 
3.94976 3.85646 3.77161 4.81599 4.92564 5.03907 5.1535 5.26596 5.37381 
5.47502 5.56831 5.65317 4.60879 4.49914 4.3857 4.27128 4.15881 4.05096 
3.94976 3.85646 3.77161 4.81599 4.92564 5.03907 5.1535 5.26596 5.37381 
5.47502 5.56831 5.65317 1.5708 1.5708 1.5708 1.5708 1.5708 1.5708 
1.5708 1.5708 1.5708 1.6744 1.78405 1.89748 2.01191 2.12437 2.23222 
2.33343 2.42672 2.51157 1.4672 1.35755 1.24411 1.12969 1.01722 0.909371 
0.808166 0.714871 0.63002 1.6744 1.78405 1.89748 2.01191 2.12437 2.23222 
2.33343 2.42672 2.51157 1.4672 1.35755 1.24411 1.12969 1.01722 0.909371 
0.808166 0.714871 0.63002 3.60077 3.49669 3.38395 3.26458 3.14159 3.01861 
2.89924 2.78649 2.68241 5.82401 5.92808 6.04083 6.1602 6.28319 0.122983 
0.242354 0.355101 0.459179 6.05603 5.78856 5.97021 5.51259 5.60297 5.78856 
5.26596 5.26596 5.26596 5.26596 5.06749 5.0121 4.91556 4.71239 4.15881 
4.91556 4.83537 4.71239 4.50922 4.15881 3.63622 4.80045 4.71239 4.58941 
4.41268 4.15881 3.82181 3.45456 4.71239 4.62433 4.50922 4.35729 4.15881 
3.91219 3.63622 3.36875 6.01742 5.94343 5.82633 5.88092 5.76745 5.62798 
5.8278 5.71897 5.58911 5.43724 5.78235 5.67854 5.55757 5.41926 5.26596 
5.74316 5.64441 5.5315 5.40467 5.26596 5.11955 5.70914 5.61528 5.50962 
5.3926 5.26596 5.13292 4.99789 5.67937 5.59016 5.49102 5.38246 5.26596 
5.14407 5.02016 4.89798 5.56831 5.47502 5.47502 5.37381 5.37381 5.37381 
5.26596 5.26596 5.26596 5.26596 5.1535 5.1535 5.1535 5.1535 5.1535 
5.03907 5.03907 5.03907 5.03907 5.03907 5.03907 4.92564 4.92564 4.92564 
4.92564 4.92564 4.92564 4.92564 4.81599 4.81599 4.81599 4.81599 4.81599 
4.81599 4.81599 4.81599 4.60879 4.60879 4.49914 4.60879 4.49914 4.3857 
4.60879 4.49914 4.3857 4.27128 4.60879 4.49914 4.3857 4.27128 4.15881 
4.60879 4.49914 4.3857 4.27128 4.15881 4.05096 4.60879 4.49914 4.3857 
4.27128 4.15881 4.05096 3.94976 4.60879 4.49914 4.3857 4.27128 4.15881 
4.05096 3.94976 3.85646 4.5268 4.40462 4.42689 4.28071 4.29185 4.30523 
4.15881 4.15881 4.15881 4.15881 4.04232 4.03217 4.02011 4.00552 3.98753 
3.93376 3.91515 3.89328 3.86721 3.83566 3.7968 3.83461 3.8095 3.78037 
3.74624 3.70581 3.65733 3.59845 3.7454 3.71564 3.68161 3.64243 3.59698 
3.54386 3.48135 3.40735 3.56428 3.45246 3.52338 3.33203 3.40312 3.47739 
3.20576 3.27463 3.34802 3.42551 3.07742 3.14159 3.21128 3.28647 3.36688 
2.95116 3.00855 3.0719 3.14159 3.21784 3.3006 2.83072 2.88006 2.93517 
2.99672 3.06535 3.14159 3.22575 2.7189 2.7598 2.8058 2.85768 2.9163 
2.98259 3.05743 3.14159 3.56428 3.52338 3.45246 3.47739 3.40312 3.33203 
3.42551 3.34802 3.27463 3.20576 3.36688 3.28647 3.21128 3.14159 3.07742 
3.3006 3.21784 3.14159 3.0719 3.00855 2.95116 3.22575 3.14159 3.06535 
2.99672 2.93517 2.88006 2.83072 3.14159 3.05743 2.98259 2.9163 2.85768 
2.8058 2.7598 2.7189 4.5268 4.42689 4.40462 4.30523 4.29185 4.28071 
4.15881 4.15881 4.15881 4.15881 3.98753 4.00552 4.02011 4.03217 4.04232 
3.7968 3.83566 3.86721 3.89328 3.91515 3.93376 3.59845 3.65733 3.70581 
3.74624 3.78037 3.8095 3.83461 3.40735 3.48135 3.54386 3.59698 3.64243 
3.68161 3.71564 3.7454 4.71239 4.80045 4.62433 4.91556 4.71239 4.50922 
5.06749 4.83537 4.58941 4.35729 5.26596 5.0121 4.71239 4.41268 4.15881 
5.51259 5.26596 4.91556 4.50922 4.15881 3.91219 5.78856 5.60297 5.26596 
4.71239 4.15881 3.82181 3.63622 6.05603 5.97021 5.78856 5.26596 4.15881 
3.63622 3.45456 3.36875 0.227158 0.494626 0.312971 0.770593 0.680215 0.494626 
1.01722 1.01722 1.01722 1.01722 1.2157 1.27109 1.36763 1.5708 2.12437 
1.36763 1.44781 1.5708 1.77397 2.12437 2.64697 1.48273 1.5708 1.69378 
1.8705 2.12437 2.46138 2.82862 1.5708 1.65886 1.77397 1.9259 2.12437 
2.371 2.64697 2.91443 1.75639 1.87857 1.8563 2.00248 1.99133 1.97796 
2.12437 2.12437 2.12437 2.12437 2.24087 2.25101 2.26308 2.27767 2.29565 
2.34943 2.36803 2.38991 2.41597 2.44752 2.48639 2.44857 2.47368 2.50281 
2.53694 2.57738 2.62586 2.68474 2.53778 2.56754 2.60157 2.64076 2.68621 
2.73933 2.80184 2.87583 1.6744 1.6744 1.78405 1.6744 1.78405 1.89748 
1.6744 1.78405 1.89748 2.01191 1.6744 1.78405 1.89748 2.01191 2.12437 
1.6744 1.78405 1.89748 2.01191 2.12437 2.23222 1.6744 1.78405 1.89748 
2.01191 2.12437 2.23222 2.33343 1.6744 1.78405 1.89748 2.01191 2.12437 
2.23222 2.33343 2.42672 1.4672 1.35755 1.4672 1.24411 1.35755 1.4672 
1.12969 1.24411 1.35755 1.4672 1.01722 1.12969 1.24411 1.35755 1.4672 
0.909371 1.01722 1.12969 1.24411 1.35755 1.4672 0.808166 0.909371 1.01722 
1.12969 1.24411 1.35755 1.4672 0.714871 0.808166 0.909371 1.01722 1.12969 
1.24411 1.35755 1.4672 0.603812 0.57405 0.693022 0.540021 0.667908 0.792164 
0.500837 0.638778 0.773562 0.900726 0.455383 0.604649 0.751687 0.890581 1.01722 
0.402264 0.564217 0.725619 0.878514 1.01722 1.13912 0.339753 0.515737 0.694072 
0.863926 1.01722 1.15026 1.26302 0.265762 0.456853 0.655207 0.845941 1.01722 
1.16363 1.28529 1.38521 0.227158 0.312971 0.494626 0.494626 0.680215 0.770593 
1.01722 1.01722 1.01722 1.01722 2.12437 1.5708 1.36763 1.27109 1.2157 
2.64697 2.12437 1.77397 1.5708 1.44781 1.36763 2.82862 2.46138 2.12437 
1.8705 1.69378 1.5708 1.48273 2.91443 2.64697 2.371 2.12437 1.9259 
1.77397 1.65886 1.5708 1.75639 1.8563 1.87857 1.97796 1.99133 2.00248 
2.12437 2.12437 2.12437 2.12437 2.29565 2.27767 2.26308 2.25101 2.24087 
2.48639 2.44752 2.41597 2.38991 2.36803 2.34943 2.68474 2.62586 2.57738 
2.53694 2.50281 2.47368 2.44857 2.87583 2.80184 2.73933 2.68621 2.64076 
2.60157 2.56754 2.53778 5.86049 5.90139 5.97231 5.94739 6.02165 6.09275 
5.99927 6.07676 6.15015 6.21902 6.0579 6.13831 6.2135 0 0.0641696 
6.12418 6.20694 6.28319 0.069689 0.13304 0.190437 6.19903 0 0.0762451 
0.144876 0.206423 0.261531 0.310872 0 0.0841597 0.159004 0.225289 0.283913 
0.335793 0.381792 0.422692 5.86049 5.97231 5.90139 6.09275 6.02165 5.94739 
6.21902 6.15015 6.07676 5.99927 0.0641696 0 6.2135 6.13831 6.0579 
0.190437 0.13304 0.069689 6.28319 6.20694 6.12418 0.310872 0.261531 0.206423 
0.144876 0.0762451 6.28319 6.19903 0.422692 0.381792 0.335793 0.283913 0.225289 
0.159004 0.0841597 0 5.67937 5.70914 5.59016 5.74316 5.61528 5.49102 
5.78235 5.64441 5.50962 5.38246 5.8278 5.67854 5.5315 5.3926 5.26596 
5.88092 5.71897 5.55757 5.40467 5.26596 5.14407 5.94343 5.76745 5.58911 
5.41926 5.26596 5.13292 5.02016 6.01742 5.82633 5.62798 5.43724 5.26596 
5.11955 4.99789 4.89798 1.38521 1.28529 1.26302 1.16363 1.15026 1.13912 
1.01722 1.01722 1.01722 1.01722 0.845941 0.863926 0.878514 0.890581 0.900726 
0.655207 0.694072 0.725619 0.751687 0.773562 0.792164 0.456853 0.515737 0.564217 
0.604649 0.638778 0.667908 0.693022 0.265762 0.339753 0.402264 0.455383 0.500837 
0.540021 0.57405 0.603812 
