# vtk DataFile Version 4.0
vtk output
ASCII
DATASET POLYDATA
POINTS 1002 float
-87.05 -92.0545 71.7101 -79.3503 -104.813 75.7878 -76.1583 -87.4887 72.354 
-73.4444 -104.617 75.6688 -82.2001 -96.6911 81.57 -76.1121 -94.3314 82.1642 
-80.441 -98.4072 67.9181 -74.8363 -97.8094 68.5796 -76.5897 -110.622 82.4124 
-81.9552 -84.594 75.167 -74.9557 -114.354 69.2673 -83.0719 -85.2112 63.7854 
-86.1383 -92.7978 71.8959 -84.9588 -93.5813 72.1811 -83.8384 -94.5292 72.7473 
-82.8052 -95.6131 73.4916 -81.9084 -96.9841 74.1683 -81.3608 -98.859 74.6796 
-80.9488 -100.795 75.0429 -80.3616 -102.287 75.3208 -79.7528 -103.527 75.5729 
-86.6831 -92.2193 72.4695 -85.9148 -92.395 73.2525 -85.1228 -92.673 74.3172 
-84.7434 -93.1716 75.6386 -84.561 -93.8696 76.9963 -84.3143 -94.6322 78.3818 
-84.0972 -95.2962 79.654 -83.7072 -95.7809 80.5223 -82.9742 -96.195 81.07 
-86.7196 -92.4472 70.9589 -86.3581 -93.079 70.1588 -86.0558 -93.8551 69.5081 
-85.5293 -94.4626 69.0354 -84.59 -94.8871 68.5798 -83.5914 -95.4465 68.1808 
-82.8108 -96.2362 67.988 -82.0771 -97.0595 67.9329 -81.2594 -97.7721 67.9085 
-87.4298 -91.2679 71.9739 -87.3913 -90.1724 72.1476 -87.0808 -88.9075 72.2817 
-86.5619 -87.846 72.4914 -85.7481 -87.0444 72.7982 -84.9122 -86.299 73.2124 
-84.2273 -85.6449 73.7346 -83.4358 -85.1839 74.2456 -82.5803 -84.8595 74.6912 
-87.3929 -91.391 70.8948 -87.4979 -90.5995 69.7436 -87.6177 -89.7743 68.571 
-87.5375 -88.9061 67.6716 -86.8542 -88.0312 66.937 -85.9628 -87.33 66.2223 
-85.3588 -86.7244 65.5008 -84.7563 -86.0178 64.708 -83.9168 -85.4091 64.0258 
-79.6468 -104.213 76.511 -80.1473 -103.733 77.2147 -80.7278 -103.375 77.8356 
-81.173 -102.88 78.5248 -81.4948 -102.006 79.3412 -81.7788 -100.888 80.0757 
-82.0218 -99.8155 80.6517 -82.2239 -98.7846 81.1463 -82.3102 -97.7058 81.4821 
-79.316 -104.559 74.985 -79.2477 -104.117 74.2243 -79.0885 -103.413 73.5657 
-78.8786 -102.549 72.9748 -78.7134 -101.619 72.3127 -78.7233 -100.672 71.4524 
-79.0598 -99.9227 70.4513 -79.6308 -99.449 69.4976 -80.1368 -99.0023 68.6722 
-79.2468 -105.848 76.3737 -79.2942 -107.115 76.847 -79.4148 -108.426 77.3646 
-79.3128 -109.399 78.2598 -78.9135 -110.019 79.3373 -78.5236 -110.565 80.141 
-78.2265 -110.977 80.8047 -77.8033 -111.076 81.5428 -77.2078 -110.924 82.1381 
-79.0523 -106.074 75.4897 -78.6196 -107.285 75.2421 -78.0936 -108.507 74.8112 
-77.8388 -110.029 73.9662 -77.6295 -111.41 73.0821 -76.9733 -112.177 72.4441 
-76.3269 -112.904 71.6441 -76.0792 -113.838 70.5807 -75.7242 -114.387 69.7146 
-75.8781 -88.7468 72.7798 -75.6763 -90.4098 73.17 -75.4205 -92.3085 73.4619 
-75.0163 -94.0734 73.8209 -74.3662 -95.4741 74.3916 -73.689 -96.928 74.9759 
-73.4621 -98.9188 75.3374 -73.5983 -101.145 75.5027 -73.6219 -103.076 75.5916 
-76.0353 -87.6618 73.3696 -76.0711 -88.0824 74.3722 -76.2391 -88.7584 75.3095 
-76.3261 -89.4931 76.3149 -76.2987 -90.206 77.4411 -76.3146 -90.9878 78.5358 
-76.3171 -91.7976 79.5522 -76.2202 -92.6022 80.5335 -76.1293 -93.4635 81.4206 
-76.0402 -88.0495 71.6285 -75.7837 -88.671 70.9353 -75.5284 -89.505 70.2914 
-75.3742 -90.5172 69.719 -75.1535 -91.4696 69.2325 -74.8654 -92.3993 68.8009 
-74.75 -93.5479 68.506 -74.7995 -94.9499 68.4752 -74.8473 -96.4371 68.583 
-76.4804 -86.5084 72.5918 -77.0432 -85.6323 72.8663 -77.8367 -84.9462 73.1614 
-78.4569 -84.2192 73.5765 -78.7938 -83.2459 74.2448 -79.4177 -82.5108 75.0266 
-80.4138 -82.577 75.4638 -81.1944 -83.2411 75.3863 -81.6081 -83.9857 75.1723 
-76.6277 -86.8953 71.5014 -77.3638 -86.5035 70.7455 -78.18 -86.1241 69.9908 
-78.8624 -85.5668 68.95 -79.4785 -85.0487 67.809 -80.278 -84.9557 66.9773 
-81.2059 -85.0814 66.2163 -81.9617 -85.0036 65.2169 -82.5166 -84.9111 64.2825 
-73.5692 -103.81 76.4912 -73.5758 -102.693 77.4639 -73.8087 -101.572 78.1102 
-74.3584 -100.651 78.469 -74.7818 -99.6677 79.134 -74.9217 -98.5022 80.0795 
-75.1468 -97.3924 80.7955 -75.5304 -96.3608 81.2857 -75.8546 -95.3095 81.7584 
-73.2575 -104.274 75.0465 -72.9424 -103.701 74.4413 -72.6973 -103.007 73.618 
-72.6639 -102.305 72.6542 -72.7067 -101.591 71.668 -72.7319 -100.894 70.5324 
-73.0003 -100.29 69.5895 -73.6476 -99.6656 69.2371 -74.3512 -98.8303 69.0614 
-73.3933 -105.629 76.2174 -73.41 -106.686 76.9585 -73.4945 -107.761 77.7775 
-73.7103 -108.703 78.396 -74.2083 -109.404 78.8624 -74.8252 -109.928 79.4926 
-75.241 -110.351 80.3025 -75.5469 -110.651 81.1281 -75.9978 -110.755 81.8725 
-73.1349 -105.893 75.3706 -72.9179 -107.349 75.0157 -72.9036 -108.945 74.3447 
-72.9884 -110.385 73.4592 -73.0536 -111.769 72.6769 -72.9676 -113.303 71.885 
-72.8291 -114.463 70.8922 -73.1148 -114.82 69.9786 -73.971 -114.676 69.4416 
-81.6685 -96.4952 81.8931 -81.1604 -96.3529 82.2371 -80.6037 -96.1838 82.5943 
-79.9897 -95.8503 82.9942 -79.3985 -95.3133 83.361 -78.6927 -94.7938 83.5088 
-77.7657 -94.5104 83.4238 -76.9019 -94.3969 83.1762 -76.3679 -94.3341 82.7467 
-81.7138 -97.9995 82.1615 -81.3374 -99.5918 82.8137 -80.8068 -101.186 83.3074 
-79.9853 -102.605 83.5097 -79.2327 -104.052 83.6267 -78.7141 -105.717 83.823 
-78.1626 -107.376 83.917 -77.5508 -108.73 83.6926 -77.0265 -109.773 83.1443 
-82.3935 -95.453 81.1523 -82.5651 -94.2254 80.6348 -82.7432 -92.762 80.1363 
-82.8901 -91.0311 79.6412 -82.9359 -89.4554 78.9694 -82.8391 -88.2206 78.1486 
-82.6322 -87.1042 77.4027 -82.3862 -86.0834 76.7092 -82.146 -85.2642 75.9352 
-75.9548 -95.7499 82.6359 -75.8363 -97.2947 83.0467 -75.8144 -99.1093 83.3294 
-75.8341 -101.13 83.5561 -75.7773 -103.1 83.7885 -75.6905 -105.014 83.8779 
-75.7306 -106.919 83.7477 -75.9443 -108.544 83.4578 -76.2577 -109.72 82.9992 
-76.4324 -92.8716 82.018 -76.9111 -91.3673 81.7861 -77.6026 -89.8713 81.507 
-78.3805 -88.4047 81.1098 -79.0431 -87.133 80.4212 -79.6959 -86.2246 79.4199 
-80.4802 -85.5857 78.3064 -81.1698 -85.0981 77.2251 -81.6036 -84.7765 76.1726 
-80.0483 -98.3664 67.5021 -79.5642 -98.3125 67.1576 -78.9362 -98.2223 66.9238 
-78.2095 -97.9897 66.9008 -77.5391 -97.6975 67.151 -76.8648 -97.6097 67.4078 
-76.0863 -97.74 67.4526 -75.4241 -97.8715 67.5869 -75.0535 -97.894 68.0439 
-79.5 -99.6028 68.3694 -78.6113 -101.219 68.7053 -77.8054 -103.199 68.9627 
-77.0709 -105.311 69.0984 -76.5426 -107.417 68.8672 -76.2666 -109.366 68.3935 
-76.0676 -110.953 68.257 -75.812 -112.228 68.5707 -75.4437 -113.368 68.9523 
-81.1231 -97.2975 67.0451 -81.6905 -96.1146 66.0582 -82.1692 -94.9612 65.1863 
-82.7055 -93.7635 64.4301 -83.2885 -92.3949 63.7281 -83.7152 -90.9978 63.3837 
-83.8321 -89.6043 63.4638 -83.6478 -88.0133 63.5531 -83.332 -86.4008 63.5662 
-74.4948 -99.7671 68.6965 -74.0307 -101.705 68.4724 -73.5641 -103.666 68.0988 
-73.2365 -105.806 67.6653 -73.1286 -108.06 67.1066 -73.281 -110.068 66.794 
-73.5851 -111.519 67.2159 -73.9305 -112.543 68.0737 -74.3873 -113.484 68.7753 
-75.2431 -95.9023 67.7966 -75.835 -94.1327 66.8546 -76.8508 -92.7515 66.2154 
-78.0563 -91.5704 65.7782 -79.0099 -90.3828 65.1357 -79.845 -89.3 64.5773 
-80.8177 -88.2877 64.3725 -81.7256 -87.1535 64.1368 -82.4354 -86.0225 63.8096 
-76.5276 -111.72 81.5566 -76.4307 -112.916 80.7358 -76.2935 -113.993 79.7742 
-76.1127 -114.833 78.3967 -75.8845 -115.316 76.7255 -75.6327 -115.426 74.9525 
-75.3915 -115.493 73.0006 -75.1802 -115.561 71.1542 -75.0266 -115.21 69.9211 
-82.1679 -84.0967 74.1072 -82.548 -83.5621 73.0886 -83.0438 -83.0413 72.0987 
-83.5289 -82.6206 70.8282 -83.9198 -82.4642 69.2212 -84.1205 -82.7605 67.7386 
-84.0315 -83.372 66.5492 -83.7221 -83.9409 65.4107 -83.3688 -84.4612 64.3937 
-85.5609 -92.9685 72.6659 -84.8641 -93.3028 73.6699 -84.3207 -93.8326 73.0979 
-84.4874 -93.9066 75.0172 -83.8897 -94.4232 74.3458 -83.2521 -94.9155 73.8404 
-84.3852 -94.7522 76.3658 -83.831 -95.3365 75.7304 -82.9865 -95.664 75.163 
-82.3503 -96.1728 74.6271 -84.1451 -95.6455 77.6074 -83.739 -96.322 76.888 
-82.9476 -96.6125 76.3971 -82.1832 -97.0564 75.8219 -81.7605 -97.9274 75.15 
-83.886 -96.374 78.9372 -83.4536 -97.1481 78.0307 -82.7912 -97.5063 77.4416 
-82.1178 -98.0405 76.9171 -81.775 -99.0963 76.1144 -81.4802 -100.144 75.4316 
-83.6314 -96.8562 80.102 -83.2044 -97.7618 79.2823 -82.5635 -98.3134 78.5511 
-81.9617 -98.9774 77.9839 -81.7021 -100.147 77.1742 -81.5389 -101.312 76.3065 
-81.03 -101.945 75.7503 -83.0589 -97.2335 80.8801 -82.8232 -98.2563 80.3334 
-82.3524 -99.0874 79.6699 -81.8378 -99.9454 79.0589 -81.5283 -101.068 78.3041 
-81.3671 -102.139 77.4346 -80.9514 -102.762 76.7413 -80.2895 -103.103 76.1802 
-86.9846 -91.3816 72.7876 -86.8709 -90.1446 73.0299 -86.0506 -91.4865 73.5998 
-86.4955 -88.8373 73.2553 -85.905 -90.2769 73.8814 -85.1862 -91.7568 74.6683 
-85.8316 -87.8874 73.5375 -85.5737 -89.1524 74.2224 -85.1294 -90.7266 75.0081 
-84.8144 -92.2569 76.0409 -84.9643 -87.1982 73.8982 -84.9898 -88.3137 74.6909 
-84.927 -89.756 75.5747 -84.7897 -91.3086 76.5474 -84.5959 -92.9017 77.5722 
-84.2637 -86.5568 74.4084 -84.3642 -87.6091 75.2137 -84.5363 -88.8581 76.2501 
-84.5636 -90.3408 77.2531 -84.4472 -91.9566 78.1265 -84.3023 -93.6416 78.9944 
-83.6286 -86.0094 75.0138 -83.8267 -86.9893 75.7671 -84.077 -88.0953 76.7249 
-84.1625 -89.4218 77.7875 -84.0344 -91.0526 78.5812 -83.9445 -92.7715 79.2603 
-83.9066 -94.3553 79.996 -82.8471 -85.5867 75.5284 -83.1406 -86.4823 76.2936 
-83.4408 -87.5306 77.0577 -83.606 -88.7099 77.9816 -83.5217 -90.1915 78.8189 
-83.3725 -91.949 79.4031 -83.314 -93.5762 79.9917 -83.2283 -94.9304 80.6215 
-81.7396 -85.5676 76.9065 -81.2551 -86.056 77.9547 -81.8723 -86.5658 77.6661 
-80.6119 -86.6303 79.1526 -81.325 -87.2142 78.7871 -82.0075 -87.7393 78.4196 
-79.8946 -87.2536 80.377 -80.7601 -87.8446 80.0461 -81.4684 -88.4252 79.6339 
-82.2093 -88.8926 79.2373 -79.1242 -88.246 81.3083 -80.0733 -88.6067 81.1067 
-80.9849 -89.1355 80.7863 -81.7698 -89.5927 80.4556 -82.4095 -90.2215 80.041 
-78.2924 -89.7519 81.8323 -79.2298 -89.9035 81.7764 -80.274 -90.2282 81.5775 
-81.2409 -90.5818 81.4352 -81.9482 -91.1492 81.1521 -82.3577 -91.984 80.6249 
-77.5187 -91.4104 82.1603 -78.4083 -91.5542 82.2479 -79.4198 -91.7459 82.1861 
-80.3876 -92.0199 82.1277 -81.1845 -92.4762 81.9731 -81.6805 -93.1199 81.5619 
[...]
POINT_DATA 1002
FIELD FieldData 2
Theta 1 1002 float
2.58802 2.58802 0.553574 0.553574 2.12437 1.01722 2.12437 1.01722 1.5708 
1.5708 1.5708 1.5708 2.68241 2.78649 2.89924 3.01861 3.14159 3.01861 
2.89924 2.78649 2.68241 2.61035 2.61791 2.60515 2.56958 2.51327 2.44184 
2.36202 2.27983 2.1997 2.61035 2.61791 2.60515 2.56958 2.51327 2.44184 
2.36202 2.27983 2.1997 2.50947 2.41899 2.31794 2.20864 2.0944 1.97902 
1.86631 1.75944 1.66056 2.50947 2.41899 2.31794 2.20864 2.0944 1.97902 
1.86631 1.75944 1.66056 2.61035 2.61791 2.60515 2.56958 2.51327 2.44184 
2.36202 2.27983 2.1997 2.61035 2.61791 2.60515 2.56958 2.51327 2.44184 
2.36202 2.27983 2.1997 2.50947 2.41899 2.31794 2.20864 2.0944 1.97902 
1.86631 1.75944 1.66056 2.50947 2.41899 2.31794 2.20864 2.0944 1.97902 
1.86631 1.75944 1.66056 0.459179 0.355101 0.242354 0.122983 0 0.122983 
0.242354 0.355101 0.459179 0.531246 0.523681 0.536438 0.57201 0.628319 0.699757 
0.779574 0.86176 0.941896 0.531246 0.523681 0.536438 0.57201 0.628319 0.699757 
0.779574 0.86176 0.941896 0.632123 0.7226 0.823657 0.932948 1.0472 1.16257 
1.27528 1.38216 1.48103 0.632123 0.7226 0.823657 0.932948 1.0472 1.16257 
1.27528 1.38216 1.48103 0.531246 0.523681 0.536438 0.57201 0.628319 0.699757 
0.779574 0.86176 0.941896 0.531246 0.523681 0.536438 0.57201 0.628319 0.699757 
0.779574 0.86176 0.941896 0.632123 0.7226 0.823657 0.932948 1.0472 1.16257 
1.27528 1.38216 1.48103 0.632123 0.7226 0.823657 0.932948 1.0472 1.16257 
1.27528 1.38216 1.48103 2.02998 1.9259 1.81315 1.69378 1.5708 1.44781 
1.32844 1.2157 1.11162 2.0928 2.05283 2.00422 1.94767 1.88496 1.81867 
1.75177 1.68695 1.62623 2.0928 2.05283 2.00422 1.94767 1.88496 1.81867 
1.75177 1.68695 1.62623 1.0488 1.08876 1.13737 1.19392 1.25664 1.32292 
1.38982 1.45464 1.51537 1.0488 1.08876 1.13737 1.19392 1.25664 1.32292 
1.38982 1.45464 1.51537 2.02998 1.9259 1.81315 1.69378 1.5708 1.44781 
1.32844 1.2157 1.11162 2.0928 2.05283 2.00422 1.94767 1.88496 1.81867 
1.75177 1.68695 1.62623 2.0928 2.05283 2.00422 1.94767 1.88496 1.81867 
1.75177 1.68695 1.62623 1.0488 1.08876 1.13737 1.19392 1.25664 1.32292 
1.38982 1.45464 1.51537 1.0488 1.08876 1.13737 1.19392 1.25664 1.32292 
1.38982 1.45464 1.51537 1.5708 1.5708 1.5708 1.5708 1.5708 1.5708 
1.5708 1.5708 1.5708 1.5708 1.5708 1.5708 1.5708 1.5708 1.5708 
1.5708 1.5708 1.5708 2.70908 2.71362 2.81592 2.68886 2.81002 2.92597 
2.6349 2.76254 2.89233 3.01997 2.55881 2.68262 2.80854 2.92834 3.01997 
2.47007 2.58462 2.70048 2.80854 2.89233 2.92597 2.37702 2.48017 2.58462 
2.68262 2.76254 2.81002 2.81592 2.28567 2.37702 2.47007 2.55881 2.6349 
2.68886 2.71362 2.70908 2.52097 2.4195 2.51718 2.30791 2.40503 2.49426 
2.18928 2.28408 2.3734 2.45144 2.06758 2.15805 2.24572 2.32523 2.39165 
1.94707 2.03138 2.11543 2.19453 2.26401 2.32035 1.83164 1.90847 1.98711 
2.06376 2.13422 2.1949 2.24359 1.72413 1.79288 1.86489 1.93728 2.00658 
2.06938 2.12312 2.16654 1.5708 1.50988 1.63171 1.44492 1.5708 1.69667 
1.37826 1.5059 1.63569 1.76333 1.31281 1.43962 1.5708 1.70197 1.82878 
1.25155 1.37501 1.50478 1.63681 1.76659 1.89004 1.19686 1.31493 1.44074 
1.5708 1.70086 1.82666 1.94473 1.15011 1.26149 1.38136 1.50697 1.63462 
1.76024 1.88011 1.99148 1.99148 1.88011 1.94473 1.76024 1.82666 1.89004 
1.63462 1.70086 1.76659 1.82878 1.50697 1.5708 1.63681 1.70197 1.76333 
1.38136 1.44074 1.50478 1.5708 1.63569 1.69667 1.26149 1.31493 1.37501 
1.43962 1.5059 1.5708 1.63171 1.15011 1.19686 1.25155 1.31281 1.37826 
1.44492 1.50988 1.5708 2.16654 2.12312 2.24359 2.06938 2.1949 2.32035 
2.00658 2.13422 2.26401 2.39165 1.93728 2.06376 2.19453 2.32523 2.45144 
1.86489 1.98711 2.11543 2.24572 2.3734 2.49426 1.79288 1.90847 2.03138 
2.15805 2.28408 2.40503 2.51718 1.72413 1.83164 1.94707 2.06758 2.18928 
2.30791 2.4195 2.52097 1.66533 1.66946 1.76911 1.67254 1.777 1.88041 
1.67418 1.78222 1.89102 1.99634 1.67418 1.78405 1.89674 2.00785 2.11299 
1.67254 1.78222 1.89674 2.01191 2.12307 2.22608 1.66946 1.777 1.89102 
2.00785 2.12307 2.23222 2.33166 1.66533 1.76911 1.88041 1.99634 2.11299 
2.22608 2.33166 2.42672 1.47626 1.37249 1.47213 1.26118 1.36459 1.46906 
1.14526 1.25058 1.35938 1.46741 1.0286 1.13374 1.24485 1.35755 1.46741 
0.915514 1.01852 1.12969 1.24485 1.35938 1.46906 0.809937 0.909371 1.01852 
1.13374 1.25058 1.36459 1.47213 0.714871 0.809937 0.915514 1.0286 1.14526 
1.26118 1.37249 1.47626 0.975055 0.898002 1.01847 0.821245 0.946693 1.07221 
0.749941 0.877585 1.00737 1.13501 0.690152 0.816367 0.94706 1.07784 1.20431 
0.647337 0.768195 0.895868 1.02616 1.15448 1.2767 0.624416 0.736561 0.857515 
0.983547 1.11021 1.23313 1.34871 0.620619 0.722093 0.833684 0.952313 1.07402 
1.19452 1.30996 1.41746 0.855925 0.764569 0.764569 0.671524 0.661425 0.671524 
0.582786 0.556971 0.556971 0.582786 0.506696 0.458968 0.441109 0.458968 0.506696 
0.45273 0.379052 0.333054 0.333054 0.379052 0.45273 0.427969 0.331576 0.249267 
0.21325 0.249267 0.331576 0.427969 0.432512 0.325669 0.215619 0.121622 0.121622 
0.215619 0.325669 0.432512 0.432512 0.427969 0.325669 0.45273 0.331576 0.215619 
0.506696 0.379052 0.249267 0.121622 0.582786 0.458968 0.333054 0.21325 0.121622 
0.671524 0.556971 0.441109 0.333054 0.249267 0.215619 0.764569 0.661425 0.556971 
0.458968 0.379052 0.331576 0.325669 0.855925 0.764569 0.671524 0.582786 0.506696 
0.45273 0.427969 0.432512 0.975055 1.01847 0.898002 1.07221 0.946693 0.821245 
1.13501 1.00737 0.877585 0.749941 1.20431 1.07784 0.94706 0.816367 0.690152 
1.2767 1.15448 1.02616 0.895868 0.768195 0.647337 1.34871 1.23313 1.11021 
0.983547 0.857515 0.736561 0.624416 1.41746 1.30996 1.19452 1.07402 0.952313 
0.833684 0.722093 0.620619 1.15011 1.26149 1.19686 1.38136 1.31493 1.25155 
1.50697 1.44074 1.37501 1.31281 1.63462 1.5708 1.50478 1.43962 1.37826 
1.76024 1.70086 1.63681 1.5708 1.5059 1.44492 1.88011 1.82666 1.76659 
1.70197 1.63569 1.5708 1.50988 1.99148 1.94473 1.89004 1.82878 1.76333 
1.69667 1.63171 1.5708 1.15011 1.19686 1.26149 1.25155 1.31493 1.38136 
1.31281 1.37501 1.44074 1.50697 1.37826 1.43962 1.50478 1.5708 1.63462 
1.44492 1.5059 1.5708 1.63681 1.70086 1.76024 1.50988 1.5708 1.63569 
1.70197 1.76659 1.82666 1.88011 1.5708 1.63171 1.69667 1.76333 1.82878 
1.89004 1.94473 1.99148 1.72413 1.83164 1.79288 1.94707 1.90847 1.86489 
2.06758 2.03138 1.98711 1.93728 2.18928 2.15805 2.11543 2.06376 2.00658 
2.30791 2.28408 2.24572 2.19453 2.13422 2.06938 2.4195 2.40503 2.3734 
2.32523 2.26401 2.1949 2.12312 2.52097 2.51718 2.49426 2.45144 2.39165 
2.32035 2.24359 2.16654 2.70908 2.81592 2.71362 2.92597 2.81002 2.68886 
3.01997 2.89233 2.76254 2.6349 3.01997 2.92834 2.80854 2.68262 2.55881 
2.92597 2.89233 2.80854 2.70048 2.58462 2.47007 2.81592 2.81002 2.76254 
2.68262 2.58462 2.48017 2.37702 2.70908 2.71362 2.68886 2.6349 2.55881 
2.47007 2.37702 2.28567 2.16654 2.24359 2.12312 2.32035 2.1949 2.06938 
2.39165 2.26401 2.13422 2.00658 2.45144 2.32523 2.19453 2.06376 1.93728 
2.49426 2.3734 2.24572 2.11543 1.98711 1.86489 2.51718 2.40503 2.28408 
2.15805 2.03138 1.90847 1.79288 2.52097 2.4195 2.30791 2.18928 2.06758 
1.94707 1.83164 1.72413 1.66533 1.76911 1.66946 1.88041 1.777 1.67254 
1.99634 1.89102 1.78222 1.67418 2.11299 2.00785 1.89674 1.78405 1.67418 
2.22608 2.12307 2.01191 1.89674 1.78222 1.67254 2.33166 2.23222 2.12307 
2.00785 1.89102 1.777 1.66946 2.42672 2.33166 2.22608 2.11299 1.99634 
1.88041 1.76911 1.66533 1.47626 1.47213 1.37249 1.46906 1.36459 1.26118 
1.46741 1.35938 1.25058 1.14526 1.46741 1.35755 1.24485 1.13374 1.0286 
1.46906 1.35938 1.24485 1.12969 1.01852 0.915514 1.47213 1.36459 1.25058 
1.13374 1.01852 0.909371 0.809937 1.47626 1.37249 1.26118 1.14526 1.0286 
0.915514 0.809937 0.714871 1.41746 1.30996 1.34871 1.19452 1.23313 1.2767 
1.07402 1.11021 1.15448 1.20431 0.952313 0.983547 1.02616 1.07784 1.13501 
0.833684 0.857515 0.895868 0.94706 1.00737 1.07221 0.722093 0.736561 0.768195 
0.816367 0.877585 0.946693 1.01847 0.620619 0.624416 0.647337 0.690152 0.749941 
0.821245 0.898002 0.975055 0.975055 0.898002 1.01847 0.821245 0.946693 1.07221 
0.749941 0.877585 1.00737 1.13501 0.690152 0.816367 0.94706 1.07784 1.20431 
0.647337 0.768195 0.895868 1.02616 1.15448 1.2767 0.624416 0.736561 0.857515 
0.983547 1.11021 1.23313 1.34871 0.620619 0.722093 0.833684 0.952313 1.07402 
1.19452 1.30996 1.41746 
Phi 1 1002 float
6.28319 3.14159 6.28319 3.14159 4.71239 4.71239 1.5708 1.5708 3.69517 
5.72961 2.58802 0.553574 6.28319 6.28319 6.28319 6.28319 3.14159 3.14159 
3.14159 3.14159 3.14159 6.1053 5.8988 5.67687 5.45995 5.26596 5.10322 
4.97131 4.86569 4.78095 0.177881 0.384387 0.606312 0.823235 1.01722 1.17997 
1.31187 1.4175 1.50223 6.18928 6.10703 6.03531 5.97283 5.91832 5.87061 
5.82869 5.79168 5.75886 0.0939024 0.176153 0.247873 0.310351 0.364864 0.412573 
0.454497 0.491504 0.524326 3.31947 3.52598 3.7479 3.96483 4.15881 4.32156 
4.45346 4.55909 4.64383 2.96371 2.75721 2.53528 2.31836 2.12437 1.96162 
1.82972 1.72409 1.63936 3.2355 3.31775 3.38947 3.45194 3.50646 3.55417 
3.59609 3.6331 3.66592 3.04769 2.96544 2.89372 2.83124 2.77673 2.72902 
2.6871 2.65009 2.61727 6.28319 6.28319 6.28319 6.28319 3.14159 3.14159 
3.14159 3.14159 3.14159 6.1053 5.8988 5.67687 5.45995 5.26596 5.10322 
4.97131 4.86569 4.78095 0.177881 0.384387 0.606312 0.823235 1.01722 1.17997 
1.31187 1.4175 1.50223 6.18928 6.10703 6.03531 5.97283 5.91832 5.87061 
5.82869 5.79168 5.75886 0.0939024 0.176153 0.247873 0.310351 0.364864 0.412573 
0.454497 0.491504 0.524326 3.31947 3.52598 3.7479 3.96483 4.15881 4.32156 
4.45346 4.55909 4.64383 2.96371 2.75721 2.53528 2.31836 2.12437 1.96162 
1.82972 1.72409 1.63936 3.2355 3.31775 3.38947 3.45194 3.50646 3.55417 
3.59609 3.6331 3.66592 3.04769 2.96544 2.89372 2.83124 2.77673 2.72902 
2.6871 2.65009 2.61727 4.71239 4.71239 4.71239 4.71239 4.71239 4.71239 
4.71239 4.71239 4.71239 4.60879 4.49914 4.3857 4.27128 4.15881 4.05096 
3.94976 3.85646 3.77161 4.81599 4.92564 5.03907 5.1535 5.26596 5.37381 
5.47502 5.56831 5.65317 4.60879 4.49914 4.3857 4.27128 4.15881 4.05096 
3.94976 3.85646 3.77161 4.81599 4.92564 5.03907 5.1535 5.26596 5.37381 
5.47502 5.56831 5.65317 1.5708 1.5708 1.5708 1.5708 1.5708 1.5708 
1.5708 1.5708 1.5708 1.6744 1.78405 1.89748 2.01191 2.12437 2.23222 
2.33343 2.42672 2.51157 1.4672 1.35755 1.24411 1.12969 1.01722 0.909371 
0.808166 0.714871 0.63002 1.6744 1.78405 1.89748 2.01191 2.12437 2.23222 
2.33343 2.42672 2.51157 1.4672 1.35755 1.24411 1.12969 1.01722 0.909371 
0.808166 0.714871 0.63002 3.60077 3.49669 3.38395 3.26458 3.14159 3.01861 
2.89924 2.78649 2.68241 5.82401 5.92808 6.04083 6.1602 6.28319 0.122983 
0.242354 0.355101 0.459179 6.05603 5.78856 5.97021 5.51259 5.60297 5.78856 
5.26596 5.26596 5.26596 5.26596 5.06749 5.0121 4.91556 4.71239 4.15881 
4.91556 4.83537 4.71239 4.50922 4.15881 3.63622 4.80045 4.71239 4.58941 
4.41268 4.15881 3.82181 3.45456 4.71239 4.62433 4.50922 4.35729 4.15881 
3.91219 3.63622 3.36875 6.01742 5.94343 5.82633 5.88092 5.76745 5.62798 
5.8278 5.71897 5.58911 5.43724 5.78235 5.67854 5.55757 5.41926 5.26596 
5.74316 5.64441 5.5315 5.40467 5.26596 5.11955 5.70914 5.61528 5.50962 
5.3926 5.26596 5.13292 4.99789 5.67937 5.59016 5.49102 5.38246 5.26596 
5.14407 5.02016 4.89798 5.56831 5.47502 5.47502 5.37381 5.37381 5.37381 
5.26596 5.26596 5.26596 5.26596 5.1535 5.1535 5.1535 5.1535 5.1535 
5.03907 5.03907 5.03907 5.03907 5.03907 5.03907 4.92564 4.92564 4.92564 
4.92564 4.92564 4.92564 4.92564 4.81599 4.81599 4.81599 4.81599 4.81599 
4.81599 4.81599 4.81599 4.60879 4.60879 4.49914 4.60879 4.49914 4.3857 
4.60879 4.49914 4.3857 4.27128 4.60879 4.49914 4.3857 4.27128 4.15881 
4.60879 4.49914 4.3857 4.27128 4.15881 4.05096 4.60879 4.49914 4.3857 
4.27128 4.15881 4.05096 3.94976 4.60879 4.49914 4.3857 4.27128 4.15881 
4.05096 3.94976 3.85646 4.5268 4.40462 4.42689 4.28071 4.29185 4.30523 
4.15881 4.15881 4.15881 4.15881 4.04232 4.03217 4.02011 4.00552 3.98753 
3.93376 3.91515 3.89328 3.86721 3.83566 3.7968 3.83461 3.8095 3.78037 
3.74624 3.70581 3.65733 3.59845 3.7454 3.71564 3.68161 3.64243 3.59698 
3.54386 3.48135 3.40735 3.56428 3.45246 3.52338 3.33203 3.40312 3.47739 
3.20576 3.27463 3.34802 3.42551 3.07742 3.14159 3.21128 3.28647 3.36688 
2.95116 3.00855 3.0719 3.14159 3.21784 3.3006 2.83072 2.88006 2.93517 
2.99672 3.06535 3.14159 3.22575 2.7189 2.7598 2.8058 2.85768 2.9163 
2.98259 3.05743 3.14159 3.56428 3.52338 3.45246 3.47739 3.40312 3.33203 
3.42551 3.34802 3.27463 3.20576 3.36688 3.28647 3.21128 3.14159 3.07742 
3.3006 3.21784 3.14159 3.0719 3.00855 2.95116 3.22575 3.14159 3.06535 
2.99672 2.93517 2.88006 2.83072 3.14159 3.05743 2.98259 2.9163 2.85768 
2.8058 2.7598 2.7189 4.5268 4.42689 4.40462 4.30523 4.29185 4.28071 
4.15881 4.15881 4.15881 4.15881 3.98753 4.00552 4.02011 4.03217 4.04232 
3.7968 3.83566 3.86721 3.89328 3.91515 3.93376 3.59845 3.65733 3.70581 
3.74624 3.78037 3.8095 3.83461 3.40735 3.48135 3.54386 3.59698 3.64243 
3.68161 3.71564 3.7454 4.71239 4.80045 4.62433 4.91556 4.71239 4.50922 
5.06749 4.83537 4.58941 4.35729 5.26596 5.0121 4.71239 4.41268 4.15881 
5.51259 5.26596 4.91556 4.50922 4.15881 3.91219 5.78856 5.60297 5.26596 
4.71239 4.15881 3.82181 3.63622 6.05603 5.97021 5.78856 5.26596 4.15881 
3.63622 3.45456 3.36875 0.227158 0.494626 0.312971 0.770593 0.680215 0.494626 
1.01722 1.01722 1.01722 1.01722 1.2157 1.27109 1.36763 1.5708 2.12437 
1.36763 1.44781 1.5708 1.77397 2.12437 2.64697 1.48273 1.5708 1.69378 
1.8705 2.12437 2.46138 2.82862 1.5708 1.65886 1.77397 1.9259 2.12437 
2.371 2.64697 2.91443 1.75639 1.87857 1.8563 2.00248 1.99133 1.97796 
2.12437 2.12437 2.12437 2.12437 2.24087 2.25101 2.26308 2.27767 2.29565 
2.34943 2.36803 2.38991 2.41597 2.44752 2.48639 2.44857 2.47368 2.50281 
2.53694 2.57738 2.62586 2.68474 2.53778 2.56754 2.60157 2.64076 2.68621 
2.73933 2.80184 2.87583 1.6744 1.6744 1.78405 1.6744 1.78405 1.89748 
1.6744 1.78405 1.89748 2.01191 1.6744 1.78405 1.89748 2.01191 2.12437 
1.6744 1.78405 1.89748 2.01191 2.12437 2.23222 1.6744 1.78405 1.89748 
2.01191 2.12437 2.23222 2.33343 1.6744 1.78405 1.89748 2.01191 2.12437 
2.23222 2.33343 2.42672 1.4672 1.35755 1.4672 1.24411 1.35755 1.4672 
1.12969 1.24411 1.35755 1.4672 1.01722 1.12969 1.24411 1.35755 1.4672 
0.909371 1.01722 1.12969 1.24411 1.35755 1.4672 0.808166 0.909371 1.01722 
1.12969 1.24411 1.35755 1.4672 0.714871 0.808166 0.909371 1.01722 1.12969 
1.24411 1.35755 1.4672 0.603812 0.57405 0.693022 0.540021 0.667908 0.792164 
0.500837 0.638778 0.773562 0.900726 0.455383 0.604649 0.751687 0.890581 1.01722 
0.402264 0.564217 0.725619 0.878514 1.01722 1.13912 0.339753 0.515737 0.694072 
0.863926 1.01722 1.15026 1.26302 0.265762 0.456853 0.655207 0.845941 1.01722 
1.16363 1.28529 1.38521 0.227158 0.312971 0.494626 0.494626 0.680215 0.770593 
1.01722 1.01722 1.01722 1.01722 2.12437 1.5708 1.36763 1.27109 1.2157 
2.64697 2.12437 1.77397 1.5708 1.44781 1.36763 2.82862 2.46138 2.12437 
1.8705 1.69378 1.5708 1.48273 2.91443 2.64697 2.371 2.12437 1.9259 
1.77397 1.65886 1.5708 1.75639 1.8563 1.87857 1.97796 1.99133 2.00248 
2.12437 2.12437 2.12437 2.12437 2.29565 2.27767 2.26308 2.25101 2.24087 
2.48639 2.44752 2.41597 2.38991 2.36803 2.34943 2.68474 2.62586 2.57738 
2.53694 2.50281 2.47368 2.44857 2.87583 2.80184 2.73933 2.68621 2.64076 
2.60157 2.56754 2.53778 5.86049 5.90139 5.97231 5.94739 6.02165 6.09275 
5.99927 6.07676 6.15015 6.21902 6.0579 6.13831 6.2135 0 0.0641696 
6.12418 6.20694 6.28319 0.069689 0.13304 0.190437 6.19903 0 0.0762451 
0.144876 0.206423 0.261531 0.310872 0 0.0841597 0.159004 0.225289 0.283913 
0.335793 0.381792 0.422692 5.86049 5.97231 5.90139 6.09275 6.02165 5.94739 
6.21902 6.15015 6.07676 5.99927 0.0641696 0 6.2135 6.13831 6.0579 
0.190437 0.13304 0.069689 6.28319 6.20694 6.12418 0.310872 0.261531 0.206423 
0.144876 0.0762451 6.28319 6.19903 0.422692 0.381792 0.335793 0.283913 0.225289 
0.159004 0.0841597 0 5.67937 5.70914 5.59016 5.74316 5.61528 5.49102 
5.78235 5.64441 5.50962 5.38246 5.8278 5.67854 5.5315 5.3926 5.26596 
5.88092 5.71897 5.55757 5.40467 5.26596 5.14407 5.94343 5.76745 5.58911 
5.41926 5.26596 5.13292 5.02016 6.01742 5.82633 5.62798 5.43724 5.26596 
5.11955 4.99789 4.89798 1.38521 1.28529 1.26302 1.16363 1.15026 1.13912 
1.01722 1.01722 1.01722 1.01722 0.845941 0.863926 0.878514 0.890581 0.900726 
0.655207 0.694072 0.725619 0.751687 0.773562 0.792164 0.456853 0.515737 0.564217 
0.604649 0.638778 0.667908 0.693022 0.265762 0.339753 0.402264 0.455383 0.500837 
0.540021 0.57405 0.603812 
