# vtk DataFile Version 4.0
vtk output
ASCII
DATASET POLYDATA
POINTS 1002 float
-86.0572 -86.497 65.924 -78.6795 -100.199 73.4087 -76.1222 -82.2356 67.4966 
-72.6759 -98.7184 72.9547 -81.5695 -91.0243 78.1714 -76.6706 -88.4705 77.9378 
-78.8677 -94.1071 64.7204 -73.6826 -94.2348 64.7644 -75.7577 -104.494 80.3809 
-82.7898 -78.8517 69.223 -73.6912 -109.446 67.5784 -83.2788 -80.7877 58.1476 
-85.0121 -87.2726 66.4421 -83.8807 -88.054 67.3682 -82.7358 -88.947 68.5836 
-81.7887 -90.3386 69.771 -81.1994 -92.2867 70.7363 -80.5519 -94.1157 71.523 
-79.6385 -95.4804 72.2277 -78.9596 -96.8637 72.835 -78.7316 -98.5284 73.2395 
-85.561 -86.6788 66.778 -85.0338 -86.9707 68.0413 -84.59 -87.2853 69.614 
-84.3906 -87.7837 71.1861 -84.3159 -88.5108 72.6951 -83.9534 -89.1027 74.0922 
-83.1972 -89.4306 75.1434 -82.4003 -89.8152 76.0098 -81.8615 -90.4018 77.0429 
-85.8867 -86.9749 65.4573 -85.5155 -87.5572 65.0007 -84.8175 -88.0557 64.5714 
-84.0015 -88.5782 64.293 -83.3848 -89.4631 64.1351 -82.7417 -90.5307 63.9924 
-81.7479 -91.3733 64.0047 -80.6161 -92.1219 64.2542 -79.6454 -93.046 64.5468 
-86.6638 -85.7572 66.1206 -87.0311 -84.9019 66.4713 -86.921 -83.8468 66.7133 
-86.3055 -82.7385 66.6507 -85.5612 -81.8092 66.5945 -85.0382 -80.923 66.9796 
-84.6214 -80.0321 67.6527 -84.0486 -79.4188 68.2337 -83.3698 -79.0994 68.7076 
-86.9125 -86.051 65.279 -87.5003 -85.7593 64.4089 -87.6218 -85.4157 63.1702 
-87.3616 -84.6814 61.9325 -86.8363 -83.6778 61.049 -86.1721 -82.8463 60.3399 
-85.6189 -82.1773 59.5555 -85.107 -81.4905 58.7839 -84.3169 -80.9654 58.2669 
-78.826 -99.4802 74.0562 -79.0901 -98.6765 74.6374 -79.5869 -97.9474 75.1685 
-80.1932 -97.3552 75.7681 -80.719 -96.7176 76.5313 -81.1506 -95.8193 77.3267 
-81.4475 -94.6766 77.8651 -81.5419 -93.4383 78.0775 -81.5424 -92.2016 78.1387 
-78.5443 -99.8295 72.6491 -78.3499 -99.4154 71.8024 -78.1571 -98.9609 70.9223 
-78.0701 -98.36 70.0266 -78.068 -97.6105 69.09 -78.0848 -96.8535 68.1451 
-78.145 -96.0975 67.2473 -78.2954 -95.3369 66.3882 -78.5475 -94.6717 65.5437 
-78.738 -101.39 73.9012 -78.832 -102.531 74.4993 -78.8569 -103.505 75.3505 
-78.5814 -104.2 76.4259 -78.0072 -104.534 77.417 -77.4499 -104.629 78.1762 
-77.0159 -104.751 78.9805 -76.5666 -104.917 79.8607 -76.1111 -104.879 80.3929 
-78.4971 -101.562 72.9839 -78.1511 -102.845 72.546 -77.6251 -103.979 72.233 
-76.9668 -105.011 71.8791 -76.3775 -106.14 71.1752 -75.9692 -107.301 70.2425 
-75.5412 -108.138 69.4636 -74.9564 -108.665 68.8617 -74.3047 -109.121 68.2382 
-75.7784 -83.5618 68.0795 -75.5005 -85.2764 68.8132 -74.927 -86.9316 69.5905 
-74.0454 -88.2989 70.2715 -73.3551 -89.7527 70.8622 -73.0143 -91.5845 71.4355 
-72.8149 -93.5895 71.9733 -72.7351 -95.4971 72.4056 -72.7302 -97.2096 72.7166 
-76.1204 -82.5627 68.4147 -76.1367 -83.044 69.4873 -76.1459 -83.6153 70.6642 
-76.1557 -84.2103 71.8916 -76.1715 -84.8219 73.1283 -76.2494 -85.5318 74.2613 
-76.4311 -86.3553 75.2552 -76.599 -87.1385 76.2186 -76.6542 -87.8115 77.1505 
-75.9101 -82.7738 66.9798 -75.7509 -83.5523 66.4629 -75.6012 -84.5834 65.9713 
-75.4408 -85.8326 65.6172 -75.2121 -87.0943 65.393 -74.8046 -88.2199 65.1595 
-74.3001 -89.4241 64.9246 -73.9291 -90.9209 64.7832 -73.7546 -92.5943 64.7432 
-76.6616 -81.4065 67.5603 -77.3483 -80.6738 67.7108 -78.0683 -79.9115 67.8435 
-78.8635 -79.1237 67.887 -79.7334 -78.2968 68.0126 -80.539 -77.5484 68.3934 
-81.2425 -77.2755 68.821 -81.8573 -77.5979 69.032 -82.3662 -78.2129 69.1035 
-76.5353 -81.5293 66.6217 -77.2106 -81.0501 65.6463 -78.0023 -80.6503 64.5838 
-78.7693 -80.1779 63.4681 -79.6102 -79.7791 62.3946 -80.511 -79.6924 61.4948 
-81.2433 -79.8721 60.6229 -81.8426 -80.1134 59.588 -82.5236 -80.3761 58.643 
-72.7616 -97.7814 73.7681 -72.7136 -96.6516 74.6136 -72.8489 -95.4733 75.2959 
-73.2768 -94.309 75.8585 -73.8231 -93.1984 76.3574 -74.4616 -92.2443 76.7159 
-75.1218 -91.3129 77.0272 -75.6285 -90.2374 77.413 -76.0918 -89.2192 77.7535 
-72.4286 -98.6085 72.1517 -72.1068 -98.345 71.4271 -71.9749 -97.8971 70.5336 
-71.9707 -97.3422 69.3314 -71.9291 -96.8733 68.1416 -72.1533 -96.5805 67.2712 
-72.7017 -96.2715 66.5937 -73.1166 -95.7488 65.9132 -73.337 -95.0382 65.2674 
-72.6888 -99.6716 73.6902 -72.7294 -100.688 74.5299 -72.8932 -101.646 75.3648 
-73.0679 -102.501 76.2251 -73.1695 -103.328 77.219 -73.4709 -104.026 78.0801 
-74.1255 -104.436 78.5609 -74.839 -104.632 79 -75.3611 -104.672 79.6802 
-72.4306 -100.106 72.6642 -72.2277 -101.57 72.3493 -72.3148 -103.159 71.8277 
-72.6028 -104.647 71.0523 -72.8138 -105.862 70.2449 -72.8576 -107.169 69.5254 
-72.7919 -108.67 68.8222 -72.8234 -109.721 68.1926 -73.1534 -109.895 67.7738 
-81.4561 -90.6702 78.8473 -81.1948 -90.2993 79.3471 -80.629 -89.8709 79.5507 
-79.9157 -89.3037 79.7271 -79.3243 -88.7271 80.0326 -78.831 -88.4882 80.0352 
-78.2964 -88.5957 79.5241 -77.7133 -88.6699 78.9007 -77.1451 -88.5672 78.4097 
-81.2796 -92.2894 79.1702 -80.7626 -93.4703 79.9299 -79.9874 -94.6609 80.4731 
-79.2199 -96.1024 80.9901 -78.6496 -97.8358 81.6136 -78.1291 -99.6061 82.236 
-77.4796 -101.122 82.439 -76.7675 -102.342 81.9849 -76.173 -103.439 81.1755 
-81.7704 -89.4477 77.4504 -82.0464 -87.803 76.6246 -82.3579 -86.3095 75.8002 
-82.6203 -85.017 74.9983 -82.816 -83.7501 74.0508 -82.9124 -82.4974 72.9011 
-82.9017 -81.4305 71.813 -82.8831 -80.5193 70.9186 -82.8729 -79.6511 70.0738 
-76.351 -89.6187 78.5754 -76.1489 -90.9039 79.2033 -76.0089 -92.3307 79.7206 
-75.8282 -94.0325 80.1105 -75.7243 -96.025 80.4359 -75.7827 -98.0286 80.6394 
-75.8317 -99.8755 80.6674 -75.7822 -101.613 80.6208 -75.7302 -103.188 80.5473 
-77.2963 -87.3848 77.6187 -77.8265 -86.1721 77.265 -78.2135 -84.806 76.708 
-78.6888 -83.3419 75.8796 -79.3838 -81.8783 75.0328 -80.2228 -80.5848 74.1812 
-81.1022 -79.6972 73.0337 -81.8439 -79.2635 71.6622 -82.3659 -79.0518 70.3603 
-78.6249 -94.433 64.2834 -78.2973 -94.696 63.8971 -77.7223 -94.8854 63.6358 
-76.8409 -95.0681 63.5245 -75.9522 -95.2387 63.5876 -75.3704 -95.3064 63.8115 
-74.9639 -95.2252 64.0902 -74.499 -95.0061 64.3331 -74.0248 -94.6669 64.5428 
-77.9824 -95.6597 65.2225 -77.2036 -97.4321 65.524 -76.5667 -99.3569 65.7295 
-76.0365 -101.413 65.8048 -75.5963 -103.453 65.6298 -75.216 -105.174 65.4954 
-74.8372 -106.472 65.7347 -74.4486 -107.546 66.2264 -74.0578 -108.552 66.832 
-79.6889 -92.8482 63.7221 -80.5128 -91.5308 62.5779 -81.283 -90.2323 61.4727 
-82.0726 -89.0013 60.3484 -82.7577 -87.8477 59.1972 -83.1106 -86.6527 58.4747 
-83.2322 -85.144 58.3061 -83.3222 -83.3798 58.2036 -83.3597 -81.8379 58.0442 
-73.3482 -96.4473 65.0472 -72.9433 -98.722 65.0243 -72.4928 -100.776 64.1697 
-72.1815 -102.52 62.7708 -72.0466 -104.085 62.2215 -72.0851 -105.532 63.0812 
-72.4019 -106.851 64.3504 -72.8881 -108.034 65.3898 -73.323 -108.945 66.433 
-74.374 -92.3313 64.3179 -75.3888 -90.3384 63.7122 -76.3696 -88.4605 62.682 
-77.1965 -86.9022 61.4725 -78.3252 -85.6238 60.667 -79.7021 -84.4006 60.1353 
-80.6882 -83.2296 59.4113 -81.3748 -82.2298 58.6489 -82.2558 -81.4079 58.2055 
-75.639 -105.906 79.7499 -75.605 -107.268 78.9237 -75.5169 -108.293 77.7314 
-75.2857 -109.105 76.2086 -75.0371 -109.99 74.5253 -74.7857 -110.649 72.9128 
-74.4079 -110.736 71.5313 -74.0068 -110.463 70.2399 -73.7659 -110.039 68.8818 
-82.9436 -78.2807 67.9782 -83.0706 -77.8854 66.6687 -83.3175 -77.65 65.3972 
-83.8317 -77.2436 64.0396 -84.3484 -76.7986 62.5336 -84.435 -77.048 61.2082 
-84.2108 -78.0662 60.2188 -83.9938 -79.1619 59.3499 -83.7245 -80.0065 58.5927 
-84.5492 -87.5271 67.5963 -84.1377 -87.8495 69.1687 -83.4634 -88.3533 68.7938 
-83.84 -88.264 70.8164 -83.0707 -88.7292 70.3664 -82.3355 -89.408 69.994 
-83.661 -88.9335 72.2373 -82.7573 -89.2743 71.7668 -82.0338 -90.0507 71.3022 
-81.5705 -91.1567 70.9773 -83.4032 -89.7106 73.5412 -82.5088 -90.0515 73.0032 
-81.8786 -90.8857 72.5336 -81.5618 -92.1787 72.159 -81.1393 -93.3031 71.8504 
-82.9123 -90.3251 74.7751 -82.2566 -90.9295 74.2842 -81.7494 -91.8521 73.8166 
-81.5783 -93.2191 73.4128 -81.1553 -94.3201 73.0439 -80.3671 -94.9516 72.6495 
-82.3406 -90.9022 75.8916 -82.0365 -91.841 75.6211 -81.6448 -92.9013 75.1934 
-81.4352 -94.1939 74.6804 -81.0575 -95.2047 74.1941 -80.2299 -95.7296 73.7552 
-79.4215 -96.2033 73.3123 -81.8784 -91.5786 77.0161 -81.8343 -92.7417 76.9246 
-81.6082 -93.9234 76.6092 -81.2849 -95.1104 76.0024 -80.8722 -96.0164 75.3063 
-80.1782 -96.5319 74.7367 -79.4022 -97.0199 74.2738 -78.9281 -97.7272 73.7957 
-86.1233 -85.9399 67.0395 -86.408 -84.9826 67.4217 -85.4184 -86.1667 68.2979 
-86.1888 -83.8396 67.6358 -85.5402 -85.1013 68.5852 -84.8325 -86.4249 69.7949 
-85.5728 -82.8091 67.6459 -85.365 -83.998 68.7876 -84.8917 -85.3267 70.026 
-84.63 -86.9229 71.4501 -84.9722 -81.9547 67.8826 -84.9847 -83.0804 69.0371 
-84.8341 -84.2841 70.3687 -84.6305 -85.7495 71.8447 -84.4915 -87.5415 73.2068 
-84.5458 -81.0935 68.5231 -84.5367 -82.2182 69.5391 -84.5909 -83.3799 70.8081 
-84.4776 -84.6556 72.2538 -84.2882 -86.2164 73.6184 -83.9085 -87.9393 74.5724 
-84.0724 -80.3894 69.1832 -84.0508 -81.4341 70.1251 -84.1352 -82.5354 71.2366 
-84.125 -83.7854 72.5379 -83.9154 -85.1343 73.7681 -83.5502 -86.6239 74.7133 
-82.9914 -88.238 75.3922 -83.4563 -79.9733 69.6463 -83.4717 -80.9109 70.5501 
-83.5382 -81.8852 71.5407 -83.565 -83.0666 72.7243 -83.4142 -84.3879 73.8595 
-83.1166 -85.6875 74.7498 -82.6886 -87.1155 75.5096 -82.2147 -88.7465 76.2702 
-82.3817 -79.8652 71.2363 -81.8207 -80.1325 72.6417 -82.3326 -80.8093 72.1251 
-81.1115 -80.7685 74.1043 -81.7466 -81.2894 73.6304 -82.2892 -81.906 73.1367 
-80.2534 -81.7919 75.3177 -81.1191 -82.0725 75.171 -81.7147 -82.5554 74.7215 
-82.2286 -83.1325 74.3227 -79.3011 -82.9379 76.3802 -80.2908 -82.9155 76.5741 
-81.1806 -83.2582 76.3417 -81.6841 -83.8051 75.9209 -82.1032 -84.4312 75.4605 
-78.5417 -84.2374 77.3515 -79.2777 -83.8531 77.8372 -80.3562 -84 77.8739 
-81.152 -84.5801 77.5159 -81.5487 -85.2436 77.0235 -81.9292 -85.8175 76.4156 
-78.138 -85.7853 77.9226 -78.5664 -85.2985 78.5984 -79.3809 -85.1523 78.9907 
-80.3072 -85.621 78.8291 -80.9252 -86.3514 78.3829 -81.3517 -86.937 77.9114 
[...]
POINT_DATA 1002
FIELD FieldData 2
Theta 1 1002 float
2.58802 2.58802 0.553574 0.553574 2.12437 1.01722 2.12437 1.01722 1.5708 
1.5708 1.5708 1.5708 2.68241 2.78649 2.89924 3.01861 3.14159 3.01861 
2.89924 2.78649 2.68241 2.61035 2.61791 2.60515 2.56958 2.51327 2.44184 
2.36202 2.27983 2.1997 2.61035 2.61791 2.60515 2.56958 2.51327 2.44184 
2.36202 2.27983 2.1997 2.50947 2.41899 2.31794 2.20864 2.0944 1.97902 
1.86631 1.75944 1.66056 2.50947 2.41899 2.31794 2.20864 2.0944 1.97902 
1.86631 1.75944 1.66056 2.61035 2.61791 2.60515 2.56958 2.51327 2.44184 
2.36202 2.27983 2.1997 2.61035 2.61791 2.60515 2.56958 2.51327 2.44184 
2.36202 2.27983 2.1997 2.50947 2.41899 2.31794 2.20864 2.0944 1.97902 
1.86631 1.75944 1.66056 2.50947 2.41899 2.31794 2.20864 2.0944 1.97902 
1.86631 1.75944 1.66056 0.459179 0.355101 0.242354 0.122983 0 0.122983 
0.242354 0.355101 0.459179 0.531246 0.523681 0.536438 0.57201 0.628319 0.699757 
0.779574 0.86176 0.941896 0.531246 0.523681 0.536438 0.57201 0.628319 0.699757 
0.779574 0.86176 0.941896 0.632123 0.7226 0.823657 0.932948 1.0472 1.16257 
1.27528 1.38216 1.48103 0.632123 0.7226 0.823657 0.932948 1.0472 1.16257 
1.27528 1.38216 1.48103 0.531246 0.523681 0.536438 0.57201 0.628319 0.699757 
0.779574 0.86176 0.941896 0.531246 0.523681 0.536438 0.57201 0.628319 0.699757 
0.779574 0.86176 0.941896 0.632123 0.7226 0.823657 0.932948 1.0472 1.16257 
1.27528 1.38216 1.48103 0.632123 0.7226 0.823657 0.932948 1.0472 1.16257 
1.27528 1.38216 1.48103 2.02998 1.9259 1.81315 1.69378 1.5708 1.44781 
1.32844 1.2157 1.11162 2.0928 2.05283 2.00422 1.94767 1.88496 1.81867 
1.75177 1.68695 1.62623 2.0928 2.05283 2.00422 1.94767 1.88496 1.81867 
1.75177 1.68695 1.62623 1.0488 1.08876 1.13737 1.19392 1.25664 1.32292 
1.38982 1.45464 1.51537 1.0488 1.08876 1.13737 1.19392 1.25664 1.32292 
1.38982 1.45464 1.51537 2.02998 1.9259 1.81315 1.69378 1.5708 1.44781 
1.32844 1.2157 1.11162 2.0928 2.05283 2.00422 1.94767 1.88496 1.81867 
1.75177 1.68695 1.62623 2.0928 2.05283 2.00422 1.94767 1.88496 1.81867 
1.75177 1.68695 1.62623 1.0488 1.08876 1.13737 1.19392 1.25664 1.32292 
1.38982 1.45464 1.51537 1.0488 1.08876 1.13737 1.19392 1.25664 1.32292 
1.38982 1.45464 1.51537 1.5708 1.5708 1.5708 1.5708 1.5708 1.5708 
1.5708 1.5708 1.5708 1.5708 1.5708 1.5708 1.5708 1.5708 1.5708 
1.5708 1.5708 1.5708 2.70908 2.71362 2.81592 2.68886 2.81002 2.92597 
2.6349 2.76254 2.89233 3.01997 2.55881 2.68262 2.80854 2.92834 3.01997 
2.47007 2.58462 2.70048 2.80854 2.89233 2.92597 2.37702 2.48017 2.58462 
2.68262 2.76254 2.81002 2.81592 2.28567 2.37702 2.47007 2.55881 2.6349 
2.68886 2.71362 2.70908 2.52097 2.4195 2.51718 2.30791 2.40503 2.49426 
2.18928 2.28408 2.3734 2.45144 2.06758 2.15805 2.24572 2.32523 2.39165 
1.94707 2.03138 2.11543 2.19453 2.26401 2.32035 1.83164 1.90847 1.98711 
2.06376 2.13422 2.1949 2.24359 1.72413 1.79288 1.86489 1.93728 2.00658 
2.06938 2.12312 2.16654 1.5708 1.50988 1.63171 1.44492 1.5708 1.69667 
1.37826 1.5059 1.63569 1.76333 1.31281 1.43962 1.5708 1.70197 1.82878 
1.25155 1.37501 1.50478 1.63681 1.76659 1.89004 1.19686 1.31493 1.44074 
1.5708 1.70086 1.82666 1.94473 1.15011 1.26149 1.38136 1.50697 1.63462 
1.76024 1.88011 1.99148 1.99148 1.88011 1.94473 1.76024 1.82666 1.89004 
1.63462 1.70086 1.76659 1.82878 1.50697 1.5708 1.63681 1.70197 1.76333 
1.38136 1.44074 1.50478 1.5708 1.63569 1.69667 1.26149 1.31493 1.37501 
1.43962 1.5059 1.5708 1.63171 1.15011 1.19686 1.25155 1.31281 1.37826 
1.44492 1.50988 1.5708 2.16654 2.12312 2.24359 2.06938 2.1949 2.32035 
2.00658 2.13422 2.26401 2.39165 1.93728 2.06376 2.19453 2.32523 2.45144 
1.86489 1.98711 2.11543 2.24572 2.3734 2.49426 1.79288 1.90847 2.03138 
2.15805 2.28408 2.40503 2.51718 1.72413 1.83164 1.94707 2.06758 2.18928 
2.30791 2.4195 2.52097 1.66533 1.66946 1.76911 1.67254 1.777 1.88041 
1.67418 1.78222 1.89102 1.99634 1.67418 1.78405 1.89674 2.00785 2.11299 
1.67254 1.78222 1.89674 2.01191 2.12307 2.22608 1.66946 1.777 1.89102 
2.00785 2.12307 2.23222 2.33166 1.66533 1.76911 1.88041 1.99634 2.11299 
2.22608 2.33166 2.42672 1.47626 1.37249 1.47213 1.26118 1.36459 1.46906 
1.14526 1.25058 1.35938 1.46741 1.0286 1.13374 1.24485 1.35755 1.46741 
0.915514 1.01852 1.12969 1.24485 1.35938 1.46906 0.809937 0.909371 1.01852 
1.13374 1.25058 1.36459 1.47213 0.714871 0.809937 0.915514 1.0286 1.14526 
1.26118 1.37249 1.47626 0.975055 0.898002 1.01847 0.821245 0.946693 1.07221 
0.749941 0.877585 1.00737 1.13501 0.690152 0.816367 0.94706 1.07784 1.20431 
0.647337 0.768195 0.895868 1.02616 1.15448 1.2767 0.624416 0.736561 0.857515 
0.983547 1.11021 1.23313 1.34871 0.620619 0.722093 0.833684 0.952313 1.07402 
1.19452 1.30996 1.41746 0.855925 0.764569 0.764569 0.671524 0.661425 0.671524 
0.582786 0.556971 0.556971 0.582786 0.506696 0.458968 0.441109 0.458968 0.506696 
0.45273 0.379052 0.333054 0.333054 0.379052 0.45273 0.427969 0.331576 0.249267 
0.21325 0.249267 0.331576 0.427969 0.432512 0.325669 0.215619 0.121622 0.121622 
0.215619 0.325669 0.432512 0.432512 0.427969 0.325669 0.45273 0.331576 0.215619 
0.506696 0.379052 0.249267 0.121622 0.582786 0.458968 0.333054 0.21325 0.121622 
0.671524 0.556971 0.441109 0.333054 0.249267 0.215619 0.764569 0.661425 0.556971 
0.458968 0.379052 0.331576 0.325669 0.855925 0.764569 0.671524 0.582786 0.506696 
0.45273 0.427969 0.432512 0.975055 1.01847 0.898002 1.07221 0.946693 0.821245 
1.13501 1.00737 0.877585 0.749941 1.20431 1.07784 0.94706 0.816367 0.690152 
1.2767 1.15448 1.02616 0.895868 0.768195 0.647337 1.34871 1.23313 1.11021 
0.983547 0.857515 0.736561 0.624416 1.41746 1.30996 1.19452 1.07402 0.952313 
0.833684 0.722093 0.620619 1.15011 1.26149 1.19686 1.38136 1.31493 1.25155 
1.50697 1.44074 1.37501 1.31281 1.63462 1.5708 1.50478 1.43962 1.37826 
1.76024 1.70086 1.63681 1.5708 1.5059 1.44492 1.88011 1.82666 1.76659 
1.70197 1.63569 1.5708 1.50988 1.99148 1.94473 1.89004 1.82878 1.76333 
1.69667 1.63171 1.5708 1.15011 1.19686 1.26149 1.25155 1.31493 1.38136 
1.31281 1.37501 1.44074 1.50697 1.37826 1.43962 1.50478 1.5708 1.63462 
1.44492 1.5059 1.5708 1.63681 1.70086 1.76024 1.50988 1.5708 1.63569 
1.70197 1.76659 1.82666 1.88011 1.5708 1.63171 1.69667 1.76333 1.82878 
1.89004 1.94473 1.99148 1.72413 1.83164 1.79288 1.94707 1.90847 1.86489 
2.06758 2.03138 1.98711 1.93728 2.18928 2.15805 2.11543 2.06376 2.00658 
2.30791 2.28408 2.24572 2.19453 2.13422 2.06938 2.4195 2.40503 2.3734 
2.32523 2.26401 2.1949 2.12312 2.52097 2.51718 2.49426 2.45144 2.39165 
2.32035 2.24359 2.16654 2.70908 2.81592 2.71362 2.92597 2.81002 2.68886 
3.01997 2.89233 2.76254 2.6349 3.01997 2.92834 2.80854 2.68262 2.55881 
2.92597 2.89233 2.80854 2.70048 2.58462 2.47007 2.81592 2.81002 2.76254 
2.68262 2.58462 2.48017 2.37702 2.70908 2.71362 2.68886 2.6349 2.55881 
2.47007 2.37702 2.28567 2.16654 2.24359 2.12312 2.32035 2.1949 2.06938 
2.39165 2.26401 2.13422 2.00658 2.45144 2.32523 2.19453 2.06376 1.93728 
2.49426 2.3734 2.24572 2.11543 1.98711 1.86489 2.51718 2.40503 2.28408 
2.15805 2.03138 1.90847 1.79288 2.52097 2.4195 2.30791 2.18928 2.06758 
1.94707 1.83164 1.72413 1.66533 1.76911 1.66946 1.88041 1.777 1.67254 
1.99634 1.89102 1.78222 1.67418 2.11299 2.00785 1.89674 1.78405 1.67418 
2.22608 2.12307 2.01191 1.89674 1.78222 1.67254 2.33166 2.23222 2.12307 
2.00785 1.89102 1.777 1.66946 2.42672 2.33166 2.22608 2.11299 1.99634 
1.88041 1.76911 1.66533 1.47626 1.47213 1.37249 1.46906 1.36459 1.26118 
1.46741 1.35938 1.25058 1.14526 1.46741 1.35755 1.24485 1.13374 1.0286 
1.46906 1.35938 1.24485 1.12969 1.01852 0.915514 1.47213 1.36459 1.25058 
1.13374 1.01852 0.909371 0.809937 1.47626 1.37249 1.26118 1.14526 1.0286 
0.915514 0.809937 0.714871 1.41746 1.30996 1.34871 1.19452 1.23313 1.2767 
1.07402 1.11021 1.15448 1.20431 0.952313 0.983547 1.02616 1.07784 1.13501 
0.833684 0.857515 0.895868 0.94706 1.00737 1.07221 0.722093 0.736561 0.768195 
0.816367 0.877585 0.946693 1.01847 0.620619 0.624416 0.647337 0.690152 0.749941 
0.821245 0.898002 0.975055 0.975055 0.898002 1.01847 0.821245 0.946693 1.07221 
0.749941 0.877585 1.00737 1.13501 0.690152 0.816367 0.94706 1.07784 1.20431 
0.647337 0.768195 0.895868 1.02616 1.15448 1.2767 0.624416 0.736561 0.857515 
0.983547 1.11021 1.23313 1.34871 0.620619 0.722093 0.833684 0.952313 1.07402 
1.19452 1.30996 1.41746 
Phi 1 1002 float
6.28319 3.14159 6.28319 3.14159 4.71239 4.71239 1.5708 1.5708 3.69517 
5.72961 2.58802 0.553574 6.28319 6.28319 6.28319 6.28319 3.14159 3.14159 
3.14159 3.14159 3.14159 6.1053 5.8988 5.67687 5.45995 5.26596 5.10322 
4.97131 4.86569 4.78095 0.177881 0.384387 0.606312 0.823235 1.01722 1.17997 
1.31187 1.4175 1.50223 6.18928 6.10703 6.03531 5.97283 5.91832 5.87061 
5.82869 5.79168 5.75886 0.0939024 0.176153 0.247873 0.310351 0.364864 0.412573 
0.454497 0.491504 0.524326 3.31947 3.52598 3.7479 3.96483 4.15881 4.32156 
4.45346 4.55909 4.64383 2.96371 2.75721 2.53528 2.31836 2.12437 1.96162 
1.82972 1.72409 1.63936 3.2355 3.31775 3.38947 3.45194 3.50646 3.55417 
3.59609 3.6331 3.66592 3.04769 2.96544 2.89372 2.83124 2.77673 2.72902 
2.6871 2.65009 2.61727 6.28319 6.28319 6.28319 6.28319 3.14159 3.14159 
3.14159 3.14159 3.14159 6.1053 5.8988 5.67687 5.45995 5.26596 5.10322 
4.97131 4.86569 4.78095 0.177881 0.384387 0.606312 0.823235 1.01722 1.17997 
1.31187 1.4175 1.50223 6.18928 6.10703 6.03531 5.97283 5.91832 5.87061 
5.82869 5.79168 5.75886 0.0939024 0.176153 0.247873 0.310351 0.364864 0.412573 
0.454497 0.491504 0.524326 3.31947 3.52598 3.7479 3.96483 4.15881 4.32156 
4.45346 4.55909 4.64383 2.96371 2.75721 2.53528 2.31836 2.12437 1.96162 
1.82972 1.72409 1.63936 3.2355 3.31775 3.38947 3.45194 3.50646 3.55417 
3.59609 3.6331 3.66592 3.04769 2.96544 2.89372 2.83124 2.77673 2.72902 
2.6871 2.65009 2.61727 4.71239 4.71239 4.71239 4.71239 4.71239 4.71239 
4.71239 4.71239 4.71239 4.60879 4.49914 4.3857 4.27128 4.15881 4.05096 
3.94976 3.85646 3.77161 4.81599 4.92564 5.03907 5.1535 5.26596 5.37381 
5.47502 5.56831 5.65317 4.60879 4.49914 4.3857 4.27128 4.15881 4.05096 
3.94976 3.85646 3.77161 4.81599 4.92564 5.03907 5.1535 5.26596 5.37381 
5.47502 5.56831 5.65317 1.5708 1.5708 1.5708 1.5708 1.5708 1.5708 
1.5708 1.5708 1.5708 1.6744 1.78405 1.89748 2.01191 2.12437 2.23222 
2.33343 2.42672 2.51157 1.4672 1.35755 1.24411 1.12969 1.01722 0.909371 
0.808166 0.714871 0.63002 1.6744 1.78405 1.89748 2.01191 2.12437 2.23222 
2.33343 2.42672 2.51157 1.4672 1.35755 1.24411 1.12969 1.01722 0.909371 
0.808166 0.714871 0.63002 3.60077 3.49669 3.38395 3.26458 3.14159 3.01861 
2.89924 2.78649 2.68241 5.82401 5.92808 6.04083 6.1602 6.28319 0.122983 
0.242354 0.355101 0.459179 6.05603 5.78856 5.97021 5.51259 5.60297 5.78856 
5.26596 5.26596 5.26596 5.26596 5.06749 5.0121 4.91556 4.71239 4.15881 
4.91556 4.83537 4.71239 4.50922 4.15881 3.63622 4.80045 4.71239 4.58941 
4.41268 4.15881 3.82181 3.45456 4.71239 4.62433 4.50922 4.35729 4.15881 
3.91219 3.63622 3.36875 6.01742 5.94343 5.82633 5.88092 5.76745 5.62798 
5.8278 5.71897 5.58911 5.43724 5.78235 5.67854 5.55757 5.41926 5.26596 
5.74316 5.64441 5.5315 5.40467 5.26596 5.11955 5.70914 5.61528 5.50962 
5.3926 5.26596 5.13292 4.99789 5.67937 5.59016 5.49102 5.38246 5.26596 
5.14407 5.02016 4.89798 5.56831 5.47502 5.47502 5.37381 5.37381 5.37381 
5.26596 5.26596 5.26596 5.26596 5.1535 5.1535 5.1535 5.1535 5.1535 
5.03907 5.03907 5.03907 5.03907 5.03907 5.03907 4.92564 4.92564 4.92564 
4.92564 4.92564 4.92564 4.92564 4.81599 4.81599 4.81599 4.81599 4.81599 
4.81599 4.81599 4.81599 4.60879 4.60879 4.49914 4.60879 4.49914 4.3857 
4.60879 4.49914 4.3857 4.27128 4.60879 4.49914 4.3857 4.27128 4.15881 
4.60879 4.49914 4.3857 4.27128 4.15881 4.05096 4.60879 4.49914 4.3857 
4.27128 4.15881 4.05096 3.94976 4.60879 4.49914 4.3857 4.27128 4.15881 
4.05096 3.94976 3.85646 4.5268 4.40462 4.42689 4.28071 4.29185 4.30523 
4.15881 4.15881 4.15881 4.15881 4.04232 4.03217 4.02011 4.00552 3.98753 
3.93376 3.91515 3.89328 3.86721 3.83566 3.7968 3.83461 3.8095 3.78037 
3.74624 3.70581 3.65733 3.59845 3.7454 3.71564 3.68161 3.64243 3.59698 
3.54386 3.48135 3.40735 3.56428 3.45246 3.52338 3.33203 3.40312 3.47739 
3.20576 3.27463 3.34802 3.42551 3.07742 3.14159 3.21128 3.28647 3.36688 
2.95116 3.00855 3.0719 3.14159 3.21784 3.3006 2.83072 2.88006 2.93517 
2.99672 3.06535 3.14159 3.22575 2.7189 2.7598 2.8058 2.85768 2.9163 
2.98259 3.05743 3.14159 3.56428 3.52338 3.45246 3.47739 3.40312 3.33203 
3.42551 3.34802 3.27463 3.20576 3.36688 3.28647 3.21128 3.14159 3.07742 
3.3006 3.21784 3.14159 3.0719 3.00855 2.95116 3.22575 3.14159 3.06535 
2.99672 2.93517 2.88006 2.83072 3.14159 3.05743 2.98259 2.9163 2.85768 
2.8058 2.7598 2.7189 4.5268 4.42689 4.40462 4.30523 4.29185 4.28071 
4.15881 4.15881 4.15881 4.15881 3.98753 4.00552 4.02011 4.03217 4.04232 
3.7968 3.83566 3.86721 3.89328 3.91515 3.93376 3.59845 3.65733 3.70581 
3.74624 3.78037 3.8095 3.83461 3.40735 3.48135 3.54386 3.59698 3.64243 
3.68161 3.71564 3.7454 4.71239 4.80045 4.62433 4.91556 4.71239 4.50922 
5.06749 4.83537 4.58941 4.35729 5.26596 5.0121 4.71239 4.41268 4.15881 
5.51259 5.26596 4.91556 4.50922 4.15881 3.91219 5.78856 5.60297 5.26596 
4.71239 4.15881 3.82181 3.63622 6.05603 5.97021 5.78856 5.26596 4.15881 
3.63622 3.45456 3.36875 0.227158 0.494626 0.312971 0.770593 0.680215 0.494626 
1.01722 1.01722 1.01722 1.01722 1.2157 1.27109 1.36763 1.5708 2.12437 
1.36763 1.44781 1.5708 1.77397 2.12437 2.64697 1.48273 1.5708 1.69378 
1.8705 2.12437 2.46138 2.82862 1.5708 1.65886 1.77397 1.9259 2.12437 
2.371 2.64697 2.91443 1.75639 1.87857 1.8563 2.00248 1.99133 1.97796 
2.12437 2.12437 2.12437 2.12437 2.24087 2.25101 2.26308 2.27767 2.29565 
2.34943 2.36803 2.38991 2.41597 2.44752 2.48639 2.44857 2.47368 2.50281 
2.53694 2.57738 2.62586 2.68474 2.53778 2.56754 2.60157 2.64076 2.68621 
2.73933 2.80184 2.87583 1.6744 1.6744 1.78405 1.6744 1.78405 1.89748 
1.6744 1.78405 1.89748 2.01191 1.6744 1.78405 1.89748 2.01191 2.12437 
1.6744 1.78405 1.89748 2.01191 2.12437 2.23222 1.6744 1.78405 1.89748 
2.01191 2.12437 2.23222 2.33343 1.6744 1.78405 1.89748 2.01191 2.12437 
2.23222 2.33343 2.42672 1.4672 1.35755 1.4672 1.24411 1.35755 1.4672 
1.12969 1.24411 1.35755 1.4672 1.01722 1.12969 1.24411 1.35755 1.4672 
0.909371 1.01722 1.12969 1.24411 1.35755 1.4672 0.808166 0.909371 1.01722 
1.12969 1.24411 1.35755 1.4672 0.714871 0.808166 0.909371 1.01722 1.12969 
1.24411 1.35755 1.4672 0.603812 0.57405 0.693022 0.540021 0.667908 0.792164 
0.500837 0.638778 0.773562 0.900726 0.455383 0.604649 0.751687 0.890581 1.01722 
0.402264 0.564217 0.725619 0.878514 1.01722 1.13912 0.339753 0.515737 0.694072 
0.863926 1.01722 1.15026 1.26302 0.265762 0.456853 0.655207 0.845941 1.01722 
1.16363 1.28529 1.38521 0.227158 0.312971 0.494626 0.494626 0.680215 0.770593 
1.01722 1.01722 1.01722 1.01722 2.12437 1.5708 1.36763 1.27109 1.2157 
2.64697 2.12437 1.77397 1.5708 1.44781 1.36763 2.82862 2.46138 2.12437 
1.8705 1.69378 1.5708 1.48273 2.91443 2.64697 2.371 2.12437 1.9259 
1.77397 1.65886 1.5708 1.75639 1.8563 1.87857 1.97796 1.99133 2.00248 
2.12437 2.12437 2.12437 2.12437 2.29565 2.27767 2.26308 2.25101 2.24087 
2.48639 2.44752 2.41597 2.38991 2.36803 2.34943 2.68474 2.62586 2.57738 
2.53694 2.50281 2.47368 2.44857 2.87583 2.80184 2.73933 2.68621 2.64076 
2.60157 2.56754 2.53778 5.86049 5.90139 5.97231 5.94739 6.02165 6.09275 
5.99927 6.07676 6.15015 6.21902 6.0579 6.13831 6.2135 0 0.0641696 
6.12418 6.20694 6.28319 0.069689 0.13304 0.190437 6.19903 0 0.0762451 
0.144876 0.206423 0.261531 0.310872 0 0.0841597 0.159004 0.225289 0.283913 
0.335793 0.381792 0.422692 5.86049 5.97231 5.90139 6.09275 6.02165 5.94739 
6.21902 6.15015 6.07676 5.99927 0.0641696 0 6.2135 6.13831 6.0579 
0.190437 0.13304 0.069689 6.28319 6.20694 6.12418 0.310872 0.261531 0.206423 
0.144876 0.0762451 6.28319 6.19903 0.422692 0.381792 0.335793 0.283913 0.225289 
0.159004 0.0841597 0 5.67937 5.70914 5.59016 5.74316 5.61528 5.49102 
5.78235 5.64441 5.50962 5.38246 5.8278 5.67854 5.5315 5.3926 5.26596 
5.88092 5.71897 5.55757 5.40467 5.26596 5.14407 5.94343 5.76745 5.58911 
5.41926 5.26596 5.13292 5.02016 6.01742 5.82633 5.62798 5.43724 5.26596 
5.11955 4.99789 4.89798 1.38521 1.28529 1.26302 1.16363 1.15026 1.13912 
1.01722 1.01722 1.01722 1.01722 0.845941 0.863926 0.878514 0.890581 0.900726 
0.655207 0.694072 0.725619 0.751687 0.773562 0.792164 0.456853 0.515737 0.564217 
0.604649 0.638778 0.667908 0.693022 0.265762 0.339753 0.402264 0.455383 0.500837 
0.540021 0.57405 0.603812 
