# vtk DataFile Version 4.0
vtk output
ASCII
DATASET POLYDATA
POINTS 1002 float
-79.1444 -103.301 56.1573 -79.2327 -103.522 56.7011 -79.475 -103.137 56.5495 
-79.4429 -103.002 55.8198 -79.9137 -102.755 56.2514 -79.0745 -103.005 55.5151 
-79.9936 -102.814 55.2212 -80.6636 -102.722 55.5116 -79.4877 -102.912 54.8124 
-78.8861 -102.899 54.4467 -80.6978 -102.737 54.4978 -81.4954 -102.814 54.6508 
-80.0174 -102.758 54.153 -79.4079 -102.79 53.7309 -78.6095 -102.823 53.3125 
-81.3149 -102.395 54.0949 -82.1483 -102.576 54.2001 -80.484 -102.368 53.8114 
-79.8077 -102.449 53.3835 -79.1719 -102.49 52.9658 -78.3712 -102.496 52.6019 
-81.8862 -101.993 53.8231 -82.7371 -102.263 53.8837 -80.9961 -101.884 53.5486 
-80.1603 -102.065 53.037 -79.4812 -102.199 52.5932 -78.862 -102.151 52.2909 
-78.1042 -102.024 52.0672 -82.5668 -102.055 53.1034 -83.381 -102.185 53.2304 
-81.6715 -101.869 52.8543 -80.8034 -101.963 52.3026 -79.8986 -102.121 51.8211 
-79.1248 -101.991 51.6438 -78.4811 -101.708 51.5973 -77.7676 -101.444 51.5495 
-83.185 -102.174 52.2131 -83.8262 -102.008 52.5219 -82.2958 -102.102 51.965 
-81.4826 -102.024 51.5418 -80.5891 -101.992 51.1586 -79.556 -101.743 51.0872 
-78.7312 -101.329 51.1581 -78.1034 -101.012 51.1641 -77.4632 -100.827 51.0903 
-83.4523 -101.801 51.7585 -83.8895 -101.522 52.1375 -82.6728 -101.869 51.4925 
-81.8716 -101.756 51.1863 -81.1095 -101.552 50.9506 -80.1312 -101.229 50.9484 
-79.1285 -100.844 50.9664 -78.4024 -100.581 50.8273 -77.8154 -100.498 50.6051 
-77.2183 -100.507 50.3831 -83.3987 -101.147 51.687 -83.7627 -100.944 51.9809 
-82.8038 -101.233 51.4289 -82.0913 -101.176 51.0946 -81.3758 -100.984 50.8153 
-80.5373 -100.702 50.762 -79.5837 -100.48 50.6528 -78.7885 -100.404 50.2605 
-78.1941 -100.409 49.8313 -77.6244 -100.446 49.5513 -77.0408 -100.515 49.3767 
-79.5787 -103.339 57.2997 -79.8887 -102.894 57.1101 -80.0235 -103.11 57.8823 
-80.4455 -102.753 57.5397 -80.5 -103.068 58.2628 -80.4538 -102.584 56.6847 
-81.0887 -102.822 57.8521 -81.1044 -103.078 58.6641 -81.1283 -102.593 56.9681 
-81.3396 -102.726 55.768 -81.7724 -102.812 58.1896 -81.7389 -102.89 59.0854 
-81.8807 -102.684 57.2633 -82.0976 -102.775 56.0775 -82.2516 -102.915 54.8503 
-82.2678 -102.491 58.321 -82.0998 -102.534 59.2183 -82.6002 -102.597 57.4935 
-82.9426 -102.771 56.5315 -83.0721 -102.913 55.322 -82.9489 -102.708 54.404 
-82.614 -102.065 58.3167 -82.4177 -102.215 59.3109 -83.1114 -102.299 57.5182 
-83.6899 -102.683 56.8382 -83.9189 -102.86 55.9123 -83.7329 -102.678 54.8941 
-83.5143 -102.342 54.0541 -83.189 -101.881 58.6392 -83.0255 -102.068 59.6669 
-83.5776 -102.024 57.7391 -84.1269 -102.45 57.0412 -84.4879 -102.711 56.2713 
-84.3482 -102.536 55.3832 -84.0294 -102.159 54.4926 -83.9269 -101.983 53.5002 
-83.8426 -101.905 59.1345 -83.6371 -101.983 60.0075 -84.1066 -101.908 58.256 
-84.4036 -102.085 57.441 -84.6796 -102.252 56.5417 -84.678 -102.165 55.6216 
-84.3302 -101.833 54.8572 -84.0742 -101.556 54.0081 -84.0428 -101.517 52.9736 
-84.1498 -101.777 59.3811 -83.9254 -101.714 60.0863 -84.4108 -101.747 58.621 
-84.6196 -101.677 57.837 -84.7709 -101.592 56.8892 -84.8463 -101.507 55.8299 
-84.6427 -101.37 55.0006 -84.2615 -101.155 54.3477 -84.0638 -101.01 53.5073 
-83.992 -100.988 52.5952 -84.0667 -101.244 59.5954 -84.3055 -101.295 58.8594 
-84.1144 -100.498 59.0198 -84.454 -100.49 58.2282 -84.3292 -99.7404 58.4293 
-84.6384 -101.19 58.1057 -84.8444 -99.7382 57.6487 -84.6356 -99.1753 57.8655 
-84.9657 -100.371 57.4549 -84.9057 -100.969 57.2531 -85.113 -99.1717 57.1342 
-84.6985 -98.6051 57.3548 -85.3902 -99.7354 56.8906 -85.3209 -100.237 56.5907 
-85.0549 -100.799 56.1888 -84.9388 -98.5337 56.533 -84.5576 -97.9507 56.8613 
-85.3695 -99.1806 56.3089 -85.5403 -99.7688 56.053 -85.3634 -100.253 55.5918 
-85.0054 -100.788 55.165 -84.6615 -97.8897 55.8363 -84.4081 -97.4293 56.2802 
-84.9582 -98.4736 55.5549 -85.1937 -99.1791 55.4319 -85.2773 -99.8323 55.0963 
-85.1144 -100.328 54.6285 -84.6687 -100.75 54.408 -84.4322 -97.4314 55.1722 
-84.137 -97.0849 55.6128 -84.64 -97.8601 54.8186 -84.7049 -98.4609 54.6986 
-84.7725 -99.1742 54.4855 -84.9326 -99.7841 54.0353 -84.7858 -100.229 53.7223 
-84.3307 -100.601 53.6438 -84.0359 -97.0913 54.595 -83.6527 -96.8306 54.9725 
-84.3628 -97.4202 54.2264 -84.4403 -97.905 54.029 -84.3407 -98.5327 53.8263 
-84.5299 -99.1239 53.391 -84.8053 -99.6183 52.9578 -84.5905 -100.065 52.8043 
-84.1624 -100.504 52.7597 -83.4789 -96.8164 54.083 -83.0985 -96.6398 54.4149 
-83.9258 -97.0382 53.7079 -84.226 -97.4228 53.4151 -84.1764 -97.9998 53.1745 
-84.1803 -98.5754 52.8089 -84.5568 -99.0497 52.3514 -84.7219 -99.5239 52.0751 
-84.3517 -100.008 52.0514 -83.9319 -100.471 52.0683 -83.4114 -100.513 51.6874 
-83.7256 -100.09 51.6143 -82.9929 -100.085 51.3067 -84.2182 -99.6118 51.5034 
-83.3128 -99.6688 51.1642 -82.5903 -99.6843 50.6545 -84.414 -99.0674 51.5714 
-83.6597 -99.1343 51.1037 -82.7569 -99.171 50.6372 -82.2622 -99.2302 49.8993 
-84.1339 -98.5332 51.8721 -83.7162 -98.4983 51.2286 -82.9019 -98.5474 50.7161 
-82.3207 -98.632 50.0219 -81.9773 -98.7103 49.2661 -83.9825 -97.9605 52.2198 
-83.6561 -97.8232 51.4306 -83.0107 -97.7917 50.8447 -82.4029 -97.9411 50.1253 
-82.0423 -98.0854 49.3404 -81.4961 -98.1494 48.8426 -84.0313 -97.3413 52.5236 
-83.7066 -97.1954 51.6437 -83.1372 -97.0666 50.9781 -82.5413 -97.12 50.2331 
-82.1244 -97.3055 49.363 -81.5843 -97.4403 48.8531 -80.7131 -97.5267 48.7492 
-83.7494 -96.8951 52.8761 -83.4898 -96.7661 51.978 -83.0164 -96.6466 51.2035 
-82.5162 -96.5133 50.4301 -82.1873 -96.4642 49.4869 -81.7234 -96.5719 48.8326 
-80.8904 -96.7476 48.7608 -79.9672 -96.9135 48.8062 -83.2186 -96.6907 53.2991 
-82.9637 -96.5627 52.4491 -82.5832 -96.4566 51.6092 -82.1904 -96.2461 50.7555 
-82.0422 -95.895 49.7787 -81.8387 -95.7144 48.9645 -81.1713 -95.878 48.709 
-80.2684 -96.1727 48.781 -79.5484 -96.4011 48.6489 -82.7924 -96.5617 53.6899 
-82.5239 -96.4322 52.907 -82.223 -96.2492 52.0969 -81.902 -95.9658 51.2152 
-81.808 -95.5 50.2011 -81.8231 -95.059 49.2815 -81.4249 -95.0193 48.8086 
-80.6138 -95.3445 48.7288 -79.8499 -95.7162 48.6471 -79.3512 -95.9812 48.3062 
-82.914 -100.593 51.4617 -82.5058 -100.167 50.8634 -82.3584 -100.626 51.0372 
-82.1875 -99.8428 49.9176 -82.0046 -100.284 50.1381 -81.6882 -100.578 50.5086 
-81.8253 -99.3645 49.1838 -81.5428 -99.965 49.2685 -81.1737 -100.254 49.6415 
-80.8281 -100.391 50.2482 -81.277 -98.7572 48.8044 -80.8796 -99.356 48.946 
-80.4255 -99.8211 49.187 -80.0919 -100.112 49.4592 -79.8629 -100.282 50.0202 
-80.4591 -98.1661 48.6305 -80.1201 -98.7364 48.703 -79.6905 -99.1889 48.9925 
-79.3579 -99.7411 48.897 -79.2074 -100.292 48.729 -79.0552 -100.444 49.3262 
-79.6425 -97.5477 48.5999 -79.4147 -98.2144 48.3313 -79.1931 -98.7296 48.372 
-78.9351 -99.2519 48.3028 -78.7736 -100.055 47.689 -78.6836 -100.636 47.5726 
-78.4808 -100.6 48.5817 -79.2074 -96.9206 48.4073 -79.0099 -97.5583 47.9623 
-78.9414 -98.256 47.6234 -78.8157 -98.8692 47.4987 -78.621 -99.5295 47.1296 
-78.4855 -100.235 46.6992 -78.2888 -100.601 47.1042 -77.9488 -100.558 48.3184 
-79.0843 -96.401 47.9639 -78.9004 -96.8507 47.4989 -78.8427 -97.5021 47.0815 
-78.7573 -98.3307 46.8819 -78.5324 -99.0672 46.7979 -78.3333 -99.5748 46.6931 
-78.1545 -99.9737 46.8076 -77.7969 -100.313 47.4079 -77.3528 -100.494 48.3693 
-79.0122 -95.8877 47.7598 -78.8115 -96.2477 47.1916 -78.4992 -95.9019 47.3699 
-78.2567 -96.1758 46.7052 -77.6937 -96.0407 47.3047 -78.6772 -96.6155 46.714 
-77.3527 -96.2155 46.6623 -76.824 -96.1042 47.3299 -78.0145 -96.4891 46.3532 
-78.5373 -97.3694 46.5182 -76.4911 -96.3102 46.8406 -76.1372 -96.0191 47.391 
-76.9405 -96.6056 46.3904 -77.6047 -97.4499 46.3349 -78.2247 -98.4505 46.5383 
-75.9476 -96.4924 47.2672 -75.5611 -96.0254 47.7652 -76.1024 -96.9324 46.6615 
-76.3867 -97.744 46.3055 -77.1367 -98.6525 46.4812 -77.9266 -99.156 46.7383 
-75.4714 -96.7116 47.9585 -74.9514 -96.155 48.323 -75.7606 -97.2852 47.3361 
-75.7388 -97.9989 46.5966 -76.1193 -98.7421 46.527 -77.0446 -99.0963 47.0254 
-77.813 -99.3693 47.1191 -74.7876 -96.7589 48.5086 -74.325 -96.2225 48.7324 
-75.348 -97.4342 48.1898 -75.5597 -98.0706 47.5016 -75.6986 -98.6305 47.0605 
-76.3046 -98.9841 47.375 -77.0763 -99.2369 47.7072 -77.5484 -99.7308 47.5181 
-74.0215 -96.6989 48.7894 -73.7686 -96.287 49.0609 -74.5533 -97.383 48.7029 
-75.0452 -98.0552 48.438 -75.3632 -98.5393 48.0478 -75.7739 -98.9413 47.9743 
-76.3125 -99.3707 48.0969 -76.7361 -99.851 48.0264 -77.0396 -100.283 47.9823 
-73.4007 -96.7759 49.0684 -73.3239 -96.4913 49.4742 -73.714 -97.3651 48.9228 
-74.1588 -98.079 48.869 -74.6155 -98.6341 48.7327 -75.0937 -99.0565 48.5905 
-75.5658 -99.5553 48.4842 -75.9401 -100.095 48.3485 -76.256 -100.464 48.3505 
-76.6206 -100.572 48.7164 -79.3714 -95.3865 48.3103 -78.8886 -95.3172 48.0004 
-79.2777 -94.6627 48.3541 -78.6445 -94.5784 48.16 -79.1062 -94.0508 48.3388 
-78.1974 -95.4239 47.9277 -78.3176 -93.9527 48.0826 -78.8686 -93.7641 48.5971 
-77.8394 -94.6666 48.127 -77.3058 -95.6017 47.9555 -77.9282 -93.672 48.4511 
-78.5584 -93.7078 49.4576 -77.3981 -93.9743 48.031 -76.8991 -94.7512 48.0961 
-76.4423 -95.5407 47.8342 -77.5879 -93.6828 49.498 -78.2712 -93.7531 50.3982 
-76.9547 -93.6868 48.6034 -76.4239 -94.0404 48.2135 -76.0015 -94.6797 48.1125 
-75.7082 -95.377 47.877 -77.3649 -93.8061 50.4284 -78.0705 -93.8036 51.0979 
-76.6624 -93.7178 49.6876 -76.0585 -93.8181 48.9901 -75.6012 -94.2031 48.6403 
-75.3051 -94.7959 48.4926 -75.0871 -95.4989 48.342 -77.1599 -93.8138 51.2012 
-77.8999 -93.7484 51.9284 -76.4135 -93.7559 50.5692 -75.8276 -93.771 49.962 
-75.3651 -94.0943 49.4544 -75.0711 -94.6344 49.2622 -74.8572 -95.2419 49.1365 
-74.5737 -95.7825 48.8963 -76.9399 -93.6937 52.1688 -77.6965 -93.672 52.8394 
-76.135 -93.691 51.4801 -75.5778 -93.6947 50.8817 -75.1822 -93.9509 50.3059 
-74.8681 -94.4998 49.9761 -74.7093 -95.1405 49.9269 -74.4948 -95.6626 49.736 
-74.1123 -95.9959 49.3492 -76.7437 -93.6364 53.0578 -77.4405 -93.7165 53.4796 
-75.9606 -93.6516 52.4854 -75.4042 -93.7215 51.9055 -75.0471 -93.9076 51.2836 
[...]
CELL_DATA 2000
SCALARS Distance double
LOOKUP_TABLE default
140.95 140.771 140.747 140.504 140.737 140.615 140.385 140.297 139.989 
140.864 140.652 140.363 140.218 139.909 139.769 139.39 140.928 140.727 
140.319 140.167 139.786 139.675 139.299 139.155 138.746 140.916 140.7 
140.229 140.049 139.614 139.503 139.118 139.025 138.636 138.5 138.072 
140.995 140.733 140.302 140.014 139.607 139.387 139.018 138.859 138.47 
138.34 137.906 137.774 137.302 141.015 140.852 140.464 140.176 139.765 
139.484 139.096 138.849 138.407 138.187 137.69 137.54 137.047 136.942 
136.471 140.728 140.755 140.37 140.241 139.759 139.571 139.084 138.89 
138.363 138.128 137.544 137.327 136.791 136.661 136.216 136.131 135.743 
140.219 140.336 139.966 139.973 139.475 139.389 138.84 138.723 138.157 
137.992 137.401 137.189 136.646 136.466 136.042 135.922 135.585 135.491 
135.198 141.192 141.492 141.217 140.999 141.857 141.545 141.339 141.067 
140.96 142.338 141.984 141.814 141.481 141.408 141.159 141.147 142.813 
142.507 142.371 142.032 141.977 141.687 141.702 141.411 141.329 142.983 
142.847 142.726 142.556 142.549 142.309 142.338 142.021 141.954 141.552 
141.366 142.947 142.849 142.757 142.77 142.892 142.841 142.95 142.688 
142.608 142.19 141.978 141.557 141.368 143.186 142.922 142.887 142.82 
143.033 143.092 143.292 143.202 143.106 142.774 142.447 142.069 141.764 
141.485 141.274 143.661 143.363 143.342 143.13 143.253 143.223 143.333 
143.344 143.2 143.052 142.631 142.358 141.896 141.681 141.339 141.213 
140.926 143.872 143.77 143.675 143.545 143.467 143.387 143.261 143.237 
142.976 142.928 142.513 142.364 141.879 141.685 141.266 141.136 140.808 
140.725 140.41 143.725 143.177 143.533 143.585 142.474 142.89 143.031 
143.369 143.382 141.935 142.254 142.395 142.755 142.825 143.114 143.072 
141.453 141.784 141.933 142.225 142.295 142.535 142.486 142.734 142.662 
140.756 141.186 141.314 141.73 141.811 142.084 142.029 142.191 142.072 
142.295 142.194 139.986 140.381 140.409 140.912 140.969 141.451 141.426 
141.731 141.593 141.771 141.598 141.798 141.633 139.296 139.617 139.571 
139.968 139.961 140.458 140.445 140.931 140.84 141.197 141.017 141.239 
141.022 141.216 141.044 138.599 138.921 138.863 139.191 139.155 139.527 
139.495 139.917 139.869 140.307 140.224 140.577 140.419 140.643 140.463 
140.67 140.564 137.889 138.205 138.143 138.479 138.442 138.789 138.751 
139.086 139.035 139.397 139.375 139.764 139.732 140.035 139.923 140.128 
140.002 140.231 140.16 139.82 139.676 139.564 139.192 139.581 139.459 
139.063 138.908 138.468 139.352 139.312 138.888 138.76 138.258 138.122 
137.655 138.967 138.976 138.538 138.49 137.96 137.855 137.337 137.274 
136.843 138.626 138.579 138.125 138.075 137.548 137.48 136.95 136.912 
136.464 136.459 136.038 138.346 138.271 137.796 137.697 137.162 137.064 
136.526 136.481 136.008 136.029 135.593 135.606 135.137 138.023 137.964 
137.48 137.387 136.854 136.729 136.179 136.075 135.559 135.537 135.073 
135.108 134.656 134.672 134.219 137.718 137.635 137.17 137.074 136.577 
136.451 135.914 135.768 135.219 135.114 134.61 134.591 134.154 134.184 
133.792 133.811 133.448 137.487 137.378 136.945 136.82 136.364 136.216 
135.708 135.532 134.976 134.809 134.275 134.18 133.731 133.724 133.361 
133.399 133.089 133.119 132.834 139.829 139.133 139.514 139.534 138.391 
138.771 138.742 139.125 139.059 137.616 138.005 137.971 138.328 138.223 
138.571 138.438 136.819 137.211 137.17 137.54 137.407 137.732 137.541 
137.899 137.736 135.982 136.38 136.28 136.679 136.514 136.872 136.647 
136.991 136.788 137.175 137.005 135.061 135.475 135.328 135.735 135.55 
135.931 135.721 136.079 135.903 136.267 136.132 136.482 136.334 134.144 
134.521 134.381 134.774 134.632 135.001 134.847 135.188 135.066 135.423 
135.356 135.699 135.617 135.902 135.789 133.372 133.661 133.526 133.87 
133.788 134.156 134.1 134.422 134.359 134.664 134.631 134.966 134.94 
135.247 135.175 135.433 135.348 132.764 132.974 132.816 133.081 132.992 
133.355 133.366 133.743 133.765 134.06 134.046 134.312 134.295 134.586 
134.555 134.836 134.779 135.033 134.977 132.428 131.946 132.252 132.431 
131.485 131.741 131.871 132.255 132.551 131.028 131.252 131.311 131.674 
131.997 132.491 132.943 130.608 130.804 130.838 131.121 131.432 131.945 
132.486 132.99 133.436 130.388 130.525 130.655 130.77 131.038 131.417 
131.968 132.524 133.051 133.46 133.775 130.352 130.497 130.792 130.812 
131.062 131.173 131.607 132.022 132.566 133.039 133.42 133.747 134 
130.232 130.475 130.847 131.019 131.315 131.338 131.626 131.783 132.226 
132.593 133.037 133.39 133.7 133.983 134.247 130.007 130.247 130.571 
130.929 131.287 131.501 131.759 131.86 132.172 132.38 132.803 133.091 
133.465 133.72 134.004 134.247 134.498 129.915 130.011 130.249 130.569 
130.944 131.305 131.629 131.869 132.144 132.346 132.688 132.936 133.298 
133.537 133.827 134.038 134.277 134.494 134.718 132.283 131.828 131.996 
131.834 131.255 131.472 131.388 131.582 131.437 130.766 130.862 130.731 
131.041 130.998 131.201 131.025 130.614 130.455 130.144 130.325 130.238 
130.602 130.504 130.724 130.53 130.784 130.453 130.025 129.876 129.639 
129.821 129.728 130.047 129.94 130.204 130.143 131.023 130.695 130.281 
129.942 129.611 129.458 129.323 129.41 129.41 129.621 129.671 129.93 
130.029 131.207 130.922 130.519 130.205 129.837 129.583 129.392 129.285 
129.325 129.362 129.533 129.631 129.781 129.921 130 131.385 131.099 
130.683 130.387 130.011 129.774 129.549 129.421 129.413 129.424 129.611 
129.682 129.881 129.882 129.951 129.93 129.922 131.56 131.283 130.894 
130.581 130.256 129.982 129.798 129.602 129.55 129.489 129.587 129.698 
129.894 130.006 130.119 130.063 130.053 129.933 129.922 137.227 136.628 
136.859 136.686 135.913 136.202 136.029 136.282 136.085 135.167 135.439 
135.247 135.549 135.33 135.614 135.383 134.553 134.734 134.512 134.753 
134.511 134.787 134.521 134.834 134.603 133.989 134.158 133.911 134.084 
133.823 134.01 133.727 133.963 133.719 134.045 133.884 133.334 133.536 
133.266 133.472 133.212 133.39 133.122 133.273 133.023 133.234 133.078 
133.401 133.343 132.751 132.886 132.615 132.793 132.553 132.766 132.542 
132.72 132.474 132.627 132.426 132.665 132.592 132.946 132.972 132.334 
132.401 132.147 132.226 131.987 132.135 131.924 132.117 131.873 132.051 
131.792 132.013 131.875 132.214 132.235 132.639 132.718 131.92 132.013 
131.755 131.823 131.561 131.647 131.394 131.523 131.241 131.398 131.102 
131.318 131.141 131.477 131.495 131.914 132.029 132.43 132.516 137.451 
137.553 137.292 136.837 137.603 137.358 136.893 136.633 136.135 137.655 
137.399 136.949 136.688 136.201 135.909 135.415 137.745 137.459 136.992 
136.738 136.272 135.996 135.52 135.231 134.802 137.851 137.553 137.036 
136.76 136.27 136.036 135.577 135.337 134.899 134.653 134.235 137.933 
137.657 137.139 136.815 136.28 136.01 135.546 135.347 134.922 134.714 
134.271 134.038 133.59 137.974 137.738 137.261 136.937 136.386 136.052 
135.559 135.323 134.923 134.722 134.303 134.061 133.616 133.378 132.988 
137.978 137.778 137.329 137.048 136.505 136.167 135.643 135.369 134.973 
134.763 134.389 134.13 133.702 133.431 133.042 132.837 132.533 137.943 
137.773 137.349 137.105 136.598 136.279 135.766 135.469 135.077 134.855 
134.527 134.272 133.872 133.561 133.14 132.892 132.549 132.394 132.103 
137.777 137.283 137.433 137.175 136.719 136.9 136.646 136.771 136.437 
136.16 136.329 136.115 136.249 135.944 136.006 135.655 135.689 135.784 
135.556 135.717 135.471 135.562 135.256 135.287 135.007 135.339 135.339 
134.995 135.118 134.843 135.035 134.771 134.901 134.621 134.696 134.439 
134.998 134.985 134.557 134.568 134.194 134.348 134.077 134.308 134.034 
134.218 133.9 134.046 133.733 134.517 134.572 134.154 134.152 133.748 
133.78 133.475 133.618 133.353 133.537 133.207 133.386 133.038 133.239 
132.956 133.961 134.033 133.643 133.709 133.342 133.383 133.06 133.121 
132.823 132.912 132.574 132.685 132.335 132.51 132.248 132.493 132.333 
133.5 133.516 133.151 133.205 132.871 132.941 132.604 132.682 132.335 
132.416 132.063 132.133 131.795 131.887 131.629 131.816 131.674 131.947 
131.871 133.179 132.653 132.876 132.832 132.097 132.357 132.279 132.532 
132.516 131.374 131.716 131.592 131.895 131.784 132.153 132.17 130.66 
130.943 130.779 131.085 130.894 131.29 131.248 131.759 131.846 130.306 
130.368 130.185 130.313 130.126 130.4 130.389 130.841 130.995 131.489 
131.626 130.339 130.236 130.048 129.935 129.756 129.818 129.888 130.184 
130.451 130.81 131.027 131.348 131.448 130.428 130.364 130.213 130 
129.782 129.65 129.663 129.839 130.114 130.43 130.657 130.894 130.978 
131.21 131.3 130.301 130.382 130.321 130.217 130.029 129.806 129.673 
129.662 129.765 130.041 130.195 130.495 130.532 130.778 130.841 131.131 
131.319 130.028 130.166 130.181 130.255 130.184 130.062 129.885 129.719 
129.617 129.674 129.705 129.949 129.99 130.273 130.355 130.677 130.891 
131.243 131.523 133.333 133.386 133.152 132.775 133.476 133.196 132.764 
132.577 132.195 133.743 133.349 132.878 132.574 132.108 131.916 131.476 
134.165 133.703 133.23 132.798 132.289 131.902 131.397 131.163 130.778 
134.512 134.092 133.606 133.206 132.742 132.256 131.72 131.247 130.827 
130.592 130.414 134.766 134.366 133.855 133.515 133.115 132.742 132.261 
131.724 131.204 130.78 130.53 130.399 130.394 135.079 134.668 134.192 
133.778 133.381 133.058 132.65 132.225 131.668 131.184 130.757 130.527 
130.418 130.417 130.425 135.417 135.067 134.676 134.211 133.784 133.368 
132.955 132.559 132.044 131.577 131.066 130.729 130.478 130.396 130.328 
130.359 130.28 135.675 135.422 135.102 134.706 134.269 133.813 133.358 
132.916 132.445 131.968 131.494 131.059 130.754 130.509 130.391 130.291 
130.199 130.157 130.04 133.772 134.607 134.073 133.868 135.538 134.984 
134.76 134.179 133.977 136.377 135.91 135.721 135.125 134.902 134.335 
134.229 137.061 136.684 136.564 136.068 135.892 135.322 135.226 134.7 
134.676 137.759 137.354 137.288 136.874 136.79 136.304 136.243 135.735 
135.71 135.176 135.086 138.657 138.14 138.084 137.637 137.613 137.18 
137.141 136.691 136.628 136.155 136.03 135.494 135.32 139.689 139.125 
139.039 138.515 138.47 138.015 137.971 137.53 137.42 136.967 136.783 
136.319 136.109 135.645 135.502 140.637 140.141 140.042 139.504 139.405 
138.895 138.814 138.345 138.237 137.753 137.56 137.043 136.8 136.33 
136.147 135.781 135.708 141.36 140.991 140.921 140.468 140.372 139.847 
139.722 139.199 139.08 138.588 138.445 137.903 137.676 137.091 136.856 
136.382 136.254 135.946 135.908 141.631 141.912 141.629 141.288 142.287 
141.98 141.711 141.302 140.838 142.756 142.415 142.141 141.744 141.262 
140.766 140.174 143.049 142.797 142.403 142.088 141.539 141.111 140.462 
140.022 139.45 142.834 142.802 142.294 142.147 141.538 141.246 140.575 
140.219 139.63 139.301 138.788 142.235 142.323 141.835 141.837 141.281 
141.13 140.508 140.246 139.669 139.409 138.878 138.587 138.017 141.721 
141.742 141.349 141.353 140.926 140.853 140.342 140.149 139.599 139.381 
138.845 138.602 138.015 137.722 137.146 141.442 141.4 141.081 141.008 
140.653 140.568 140.143 139.991 139.488 139.289 138.769 138.542 137.996 
137.712 137.167 136.895 136.477 141.202 141.203 140.924 140.843 140.489 
140.372 139.958 139.815 139.351 139.177 138.698 138.489 138.003 137.736 
137.252 136.967 136.572 136.354 136.093 140.961 140.482 140.736 140.698 
139.888 140.175 140.1 140.369 140.241 139.222 139.499 139.362 139.676 
139.53 139.826 139.66 138.556 138.797 138.621 138.907 138.76 139.068 
138.917 139.213 139.048 137.873 138.112 137.903 138.171 138.016 138.318 
138.184 138.475 138.322 138.599 138.424 137.105 137.378 137.127 137.414 
137.213 137.547 137.384 137.719 137.543 137.855 137.663 137.955 137.743 
136.301 136.576 136.32 136.598 136.373 136.7 136.516 136.865 136.671 
137.014 136.817 137.153 136.954 137.252 137.028 135.597 135.816 135.592 
135.822 135.62 135.892 135.739 136.035 135.877 136.164 135.993 136.302 
136.157 136.472 136.327 136.585 136.414 135.062 135.209 135.014 135.179 
134.998 135.209 135.076 135.334 135.219 135.467 135.325 135.565 135.438 
135.722 135.641 135.932 135.854 136.078 135.975 135.709 135.53 135.487 
135.133 135.262 135.227 134.831 134.779 134.312 135.049 134.952 134.535 
134.448 133.976 133.892 133.395 134.94 134.79 134.367 134.209 133.743 
133.597 133.097 132.979 132.472 134.823 134.685 134.246 134.078 133.611 
133.434 132.948 132.756 132.238 132.07 131.57 134.692 134.554 134.128 
133.957 133.509 133.331 132.888 132.682 132.214 131.96 131.488 131.265 
130.884 134.649 134.476 134.123 133.912 133.541 133.308 132.942 132.7 
132.322 132.042 131.635 131.335 130.963 130.735 130.487 134.693 134.509 
134.225 134.011 133.723 133.464 133.158 132.87 132.552 132.246 131.911 
131.58 131.223 130.906 130.587 130.395 130.207 134.763 134.589 134.327 
134.147 133.886 133.676 133.377 133.119 132.791 132.513 132.207 131.911 
131.607 131.25 130.911 130.565 130.277 130.111 129.986 143.95 143.79 
143.977 143.995 143.431 143.736 143.923 143.994 143.88 143.257 143.476 
143.779 143.92 143.942 143.83 143.572 143.214 143.39 143.634 143.804 
143.873 143.87 143.696 143.511 143.269 142.94 143.205 143.315 143.568 
143.62 143.754 143.667 143.612 143.462 143.305 143.204 142.472 142.768 
142.868 143.151 143.287 143.503 143.577 143.606 143.543 143.453 143.36 
143.268 143.181 142.05 142.311 142.477 142.739 142.999 143.265 143.535 
143.631 143.66 143.542 143.36 143.267 143.077 143.083 142.896 141.695 
141.941 142.095 142.37 142.601 142.968 143.278 143.578 143.685 143.669 
143.431 143.239 142.906 142.837 142.59 142.643 142.417 141.36 141.588 
141.669 141.931 142.024 142.419 142.609 143.1 143.236 143.52 143.365 
143.291 142.934 142.742 142.435 142.353 142.136 142.148 141.925 143.872 
143.9 143.803 143.528 143.688 143.707 143.42 143.338 142.981 143.315 
143.381 143.091 143.112 142.767 142.718 142.34 143.017 143.001 142.728 
142.752 142.464 142.458 142.115 142.047 141.667 142.974 142.822 142.515 
142.438 142.157 142.159 141.855 141.817 141.457 141.376 141.017 143.008 
142.863 142.491 142.295 141.912 141.852 141.522 141.524 141.156 141.127 
140.746 140.718 140.37 142.812 142.826 142.46 142.269 141.784 141.623 
141.219 141.179 140.81 140.786 140.386 140.376 140.004 140.025 139.673 
142.373 142.516 142.214 142.144 141.64 141.469 140.982 140.893 140.506 
140.463 140.075 140.023 139.637 139.628 139.288 139.311 138.984 141.854 
142.033 141.777 141.816 141.349 141.243 140.694 140.605 140.148 140.139 
139.748 139.728 139.335 139.297 138.94 138.939 138.633 138.654 138.369 
143.682 143.321 143.406 143.094 142.848 142.998 142.729 142.739 142.406 
142.261 142.506 142.331 142.404 142.107 142.099 141.848 141.564 141.864 
141.721 141.943 141.683 141.776 141.478 141.558 141.314 140.908 141.163 
140.992 141.25 141.006 141.218 140.914 141.081 140.789 140.942 140.651 
140.299 140.538 140.361 140.56 140.329 140.518 140.255 140.439 140.18 
140.363 140.113 140.248 139.959 139.617 139.898 139.725 139.949 139.729 
139.91 139.671 139.827 139.581 139.75 139.519 139.7 139.456 139.58 
139.286 138.92 139.19 139.017 139.271 139.06 139.293 139.062 139.259 
138.993 139.159 138.877 139.069 138.807 139.013 138.738 138.887 138.575 
138.31 138.531 138.369 138.585 138.39 138.61 138.39 138.608 138.345 
138.533 138.231 138.408 138.119 138.325 138.066 138.272 138.003 138.157 
137.865 133.883 134.352 134.29 134.713 134.882 134.789 135.17 135.156 
135.604 135.363 135.302 135.629 135.589 135.983 136.012 136.413 135.712 
135.723 136.075 136.041 136.406 136.388 136.779 136.775 137.116 136.004 
136.026 136.419 136.456 136.858 136.842 137.233 137.189 137.568 137.498 
137.849 136.416 136.355 136.734 136.777 137.206 137.251 137.644 137.643 
138.034 138.004 138.427 138.342 138.769 136.977 136.843 137.201 137.153 
137.58 137.591 137.993 138.002 138.395 138.428 138.901 138.931 139.44 
139.364 139.816 137.551 137.425 137.767 137.676 138.084 138.036 138.458 
138.405 138.811 138.792 139.275 139.35 139.918 139.979 140.484 140.398 
140.767 138.035 137.958 138.271 138.205 138.567 138.538 138.948 138.917 
139.324 139.272 139.706 139.728 140.26 140.375 140.917 140.965 141.359 
141.247 141.487 
POINT_DATA 1002
SCALARS Distance double
LOOKUP_TABLE default
140.735 141.161 140.956 140.551 140.807 140.226 140.49 140.916 140.116 
139.627 140.553 141.124 140.049 139.565 138.98 140.504 141.156 139.9 
139.411 138.922 138.337 140.44 141.152 139.743 139.201 138.744 138.243 
137.638 140.609 141.226 139.86 139.22 138.636 138.034 137.443 136.827 
140.725 141.097 140.061 139.376 138.695 137.892 137.144 136.556 136.03 
140.446 140.643 139.94 139.277 138.599 137.797 136.945 136.285 135.808 
135.393 139.918 140.097 139.534 138.952 138.292 137.58 136.826 136.168 
135.674 135.274 134.93 141.461 141.236 141.78 141.621 142.172 141.161 
142.16 142.683 141.663 141.405 142.678 143.08 142.276 141.996 141.709 
142.785 143.086 142.718 142.658 142.363 141.793 142.679 143.079 142.81 
143.149 143.046 142.415 141.727 143.011 143.471 142.974 143.318 143.412 
142.862 142.065 141.503 143.609 143.904 143.408 143.38 143.304 142.884 
142.149 141.476 141.041 143.798 143.915 143.619 143.376 143.028 142.598 
142.059 141.431 140.892 140.492 143.464 143.337 142.732 142.603 142.088 
143.153 142.074 141.646 142.51 142.814 141.633 141.081 142.094 142.284 
142.362 140.845 140.344 141.464 141.876 141.929 141.927 139.955 139.66 
140.428 141.014 141.39 141.461 141.408 139.237 138.992 139.522 139.933 
140.39 140.742 140.849 140.811 138.535 138.272 138.818 139.126 139.428 
139.791 140.141 140.27 140.31 137.809 137.587 138.087 138.424 138.706 
138.974 139.363 139.695 139.807 139.892 139.472 139.33 138.777 139.243 
138.617 138.012 139 138.422 137.737 137.217 138.565 138.05 137.408 
136.867 136.446 138.2 137.612 136.984 136.461 136.063 135.604 137.909 
137.28 136.597 136 135.564 135.152 134.657 137.561 136.972 136.312 
135.628 135.049 134.609 134.208 133.794 137.26 136.691 136.069 135.364 
134.665 134.117 133.737 133.432 133.12 137.065 136.51 135.891 135.165 
134.401 133.76 133.318 133.03 132.807 132.577 139.151 138.385 138.691 
137.62 137.909 138.07 136.797 137.094 137.219 137.336 135.898 136.146 
136.303 136.418 136.612 134.924 135.163 135.344 135.518 135.774 136.012 
133.984 134.237 134.496 134.703 134.981 135.317 135.529 133.205 133.391 
133.738 134.068 134.31 134.603 134.9 135.099 132.597 132.648 132.939 
133.424 133.803 134.025 134.256 134.51 134.73 132.111 132.049 131.678 
131.497 131.281 132.068 130.979 130.827 131.458 132.466 130.609 130.388 
130.927 131.914 133.081 130.58 130.196 130.777 131.414 132.579 133.496 
130.718 130.145 131.08 131.332 132.076 133.044 133.721 130.563 129.989 
131.263 131.604 131.941 132.66 133.407 133.975 130.189 129.844 130.962 
131.639 132.036 132.54 133.208 133.78 134.257 130.001 129.9 130.558 
131.316 131.933 132.464 133.062 133.625 134.078 134.496 132.164 131.714 
131.606 131.097 131.062 131.355 130.427 130.81 130.671 130.97 130.13 
130.906 129.878 130.167 130.377 130.327 131.123 129.621 129.419 129.598 
129.848 130.638 131.309 129.88 129.335 129.216 129.419 129.75 130.821 
131.493 130.099 129.535 129.307 129.455 129.726 129.869 130.986 131.679 
130.245 129.691 129.423 129.512 129.867 130.053 129.933 131.186 131.818 
130.514 130.012 129.695 129.534 129.718 130.1 130.207 130.023 137.03 
136.482 136.374 135.751 135.616 135.855 134.95 134.935 135.041 135.096 
134.32 134.407 134.269 134.225 134.244 133.748 133.812 133.666 133.536 
133.422 133.493 133.048 133.144 133.002 132.971 132.861 132.789 132.951 
132.467 132.644 132.331 132.326 132.33 132.233 132.256 132.57 132.095 
132.265 131.882 131.751 131.697 131.594 131.553 131.817 132.32 137.737 
137.109 137.812 137.155 137.843 136.417 137.2 137.925 136.493 135.694 
137.255 138.057 136.523 135.802 135.065 137.349 138.148 136.505 135.784 
135.145 134.489 137.475 138.178 136.593 135.744 135.113 134.511 133.816 
137.563 138.183 136.745 135.822 135.113 134.543 133.857 133.177 137.588 
138.163 136.838 135.933 135.174 134.633 133.992 133.261 132.69 137.567 
138.1 136.891 136.066 135.301 134.758 134.191 133.433 132.728 132.229 