# vtk DataFile Version 4.0
vtk output
ASCII
DATASET POLYDATA
POINTS 1002 float
-79.3934 -105.058 57.6004 -79.4911 -105.133 58.2777 -80.0502 -105.117 57.8809 
-80.0193 -104.947 57.2942 -80.8027 -105.101 57.4552 -79.4453 -104.607 57.1758 
-80.7859 -104.767 56.9886 -81.5582 -104.951 57.1155 -80.073 -104.384 56.9308 
-79.5783 -103.933 56.7194 -81.4142 -104.394 56.7747 -82.0842 -104.466 57.0654 
-80.6927 -104.156 56.5932 -80.1347 -103.734 56.407 -79.6495 -103.346 56.0949 
-81.8373 -103.856 56.6285 -82.428 -103.863 57.0266 -81.1369 -103.871 56.1857 
-80.5986 -103.64 55.8768 -80.1444 -103.192 55.6819 -79.5515 -102.916 55.3372 
-82.3113 -103.536 56.1483 -82.8476 -103.568 56.4901 -81.5874 -103.594 55.6735 
-80.9626 -103.556 55.2188 -80.5567 -103.133 55.033 -80.0108 -102.754 54.7942 
-79.2664 -102.725 54.2252 -82.9081 -103.525 55.2996 -83.4438 -103.564 55.6084 
-82.2192 -103.461 54.9839 -81.445 -103.405 54.5948 -80.8862 -103.095 54.3398 
-80.3925 -102.711 54.0901 -79.6638 -102.689 53.5314 -78.914 -102.803 52.8757 
-83.4742 -103.482 54.5718 -84.1144 -103.581 54.8603 -82.8179 -103.331 54.3529 
-82.07 -103.197 54.0546 -81.3372 -102.999 53.7355 -80.7337 -102.752 53.3894 
-80.0343 -102.731 52.8244 -79.2689 -102.839 52.2294 -78.6795 -102.75 51.9055 
-83.9627 -103.286 54.1098 -84.679 -103.499 54.3453 -83.2495 -103.069 53.9289 
-82.591 -102.944 53.6095 -81.9138 -102.865 53.1637 -81.2378 -102.771 52.7081 
-80.4991 -102.756 52.1617 -79.6965 -102.778 51.6407 -79.0638 -102.63 51.4289 
-78.6277 -102.33 51.4549 -84.3586 -103.059 53.7258 -84.9978 -103.293 53.9591 
-83.6335 -102.809 53.5397 -82.9667 -102.698 53.1995 -82.3634 -102.699 52.661 
-81.7654 -102.694 52.107 -81.0758 -102.689 51.5825 -80.2617 -102.648 51.1133 
-79.5398 -102.431 50.9281 -79.0607 -102.08 51.0415 -78.6741 -101.783 51.1808 
-80.0099 -105 58.9962 -80.6304 -105.008 58.5038 -80.554 -104.874 59.82 
-81.1306 -104.894 59.2339 -80.9583 -104.921 60.4026 -81.3761 -105.099 57.9061 
-81.5798 -104.927 59.7881 -81.3687 -105.014 60.7522 -81.8552 -105.038 58.5189 
-82.088 -105.005 57.4946 -82.1932 -104.98 60.1693 -81.9102 -104.935 61.1256 
-82.4612 -105.042 59.0978 -82.578 -104.951 58.078 -82.5514 -104.488 57.4885 
-82.7009 -104.809 60.4777 -82.2916 -104.666 61.418 -83.1706 -105.037 59.5711 
-83.2232 -104.915 58.6955 -82.9949 -104.412 58.0277 -82.8474 -103.847 57.4111 
-82.7736 -104.341 60.6857 -82.4321 -104.254 61.5366 -83.4627 -104.757 59.9598 
-83.7837 -104.86 59.2257 -83.5232 -104.353 58.5205 -83.2664 -103.736 57.8085 
-83.3191 -103.51 56.7922 -82.8182 -103.797 60.9198 -82.6738 -103.821 61.7205 
-83.392 -104.164 60.3026 -83.9449 -104.495 59.6775 -83.9768 -104.252 58.887 
-83.779 -103.677 58.0672 -83.852 -103.403 57.1056 -84.0854 -103.515 55.9053 
-83.1971 -103.473 61.275 -83.1222 -103.542 62.0331 -83.5155 -103.62 60.6202 
-83.9621 -103.858 60.0148 -84.2357 -103.84 59.1926 -84.2889 -103.562 58.2238 
-84.4101 -103.38 57.291 -84.7063 -103.482 56.2435 -84.8678 -103.622 55.1489 
-83.6792 -103.354 61.6107 -83.5665 -103.384 62.3005 -83.8748 -103.331 60.8734 
-84.1205 -103.322 60.1888 -84.3872 -103.256 59.4127 -84.6475 -103.187 58.4502 
-84.8661 -103.232 57.4875 -85.1244 -103.402 56.5502 -85.366 -103.575 55.5297 
-85.3356 -103.554 54.601 -83.9418 -103.164 62.0275 -84.1293 -103.111 61.2322 
-84.1457 -102.635 61.4799 -84.4477 -102.501 60.6626 -84.3679 -101.812 60.8062 
-84.3379 -102.961 60.4119 -84.8916 -101.753 60.2423 -84.8461 -101.118 60.3214 
-84.7488 -102.352 59.9219 -84.5359 -102.783 59.6307 -85.4167 -101.216 59.937 
-85.2311 -100.673 59.8563 -85.2701 -101.855 59.6329 -85.0089 -102.329 59.1494 
-84.8398 -102.717 58.7568 -85.5569 -100.69 59.1855 -85.1495 -100.243 59.0295 
-85.5979 -101.377 59.0785 -85.4042 -102.028 58.6899 -85.2821 -102.451 58.2257 
-85.1613 -102.862 57.7899 -85.3905 -100.069 58.092 -84.9288 -99.821 58.1055 
-85.593 -100.583 58.0037 -85.5003 -101.378 57.7947 -85.4334 -102.054 57.5268 
-85.4509 -102.584 57.1866 -85.377 -103.1 56.807 -85.2702 -99.5824 57.2789 
-84.881 -99.3875 57.4918 -85.5514 -99.8141 57.0476 -85.5473 -100.428 56.773 
-85.4743 -101.235 56.5066 -85.4974 -101.921 56.3022 -85.5553 -102.629 56.0523 
-85.5637 -103.273 55.7549 -85.145 -99.1544 56.7641 -84.8819 -98.8117 57.0667 
-85.4171 -99.3643 56.4643 -85.5278 -99.7528 56.1362 -85.539 -100.449 55.7116 
-85.5626 -101.118 55.3542 -85.5612 -101.773 55.1618 -85.5914 -102.6 54.9702 
-85.5912 -103.28 54.748 -84.9499 -98.6393 56.2528 -84.8024 -98.1985 56.5885 
-85.1125 -98.9994 55.9257 -85.2223 -99.3681 55.6546 -85.3079 -99.9473 55.2829 
-85.4347 -100.56 54.8067 -85.4681 -101.043 54.4888 -85.4026 -101.692 54.3305 
-85.3925 -102.512 54.1511 -85.3206 -103.092 53.9936 -84.7842 -102.86 53.4394 
-84.9963 -102.521 53.4823 -84.5533 -102.435 52.8635 -85.024 -101.814 53.6796 
-84.6759 -101.965 52.9655 -84.3292 -102.007 52.2622 -85.0841 -101.061 53.8719 
-84.6848 -101.219 53.192 -84.4054 -101.393 52.3789 -83.8632 -101.334 51.8499 
-85.1179 -100.565 54.0872 -84.7379 -100.539 53.382 -84.4457 -100.618 52.528 
-83.9266 -100.614 51.9109 -83.0795 -100.445 51.6994 -84.9781 -100.061 54.4671 
-84.7169 -99.9767 53.618 -84.5493 -99.8896 52.6762 -84.0702 -99.8815 51.9605 
-83.1647 -99.7713 51.7549 -82.3824 -99.6839 51.5129 -84.8646 -99.4106 54.8193 
-84.655 -99.3134 53.8922 -84.6292 -99.1325 52.8957 -84.2862 -99.1378 52.0761 
-83.3856 -99.191 51.784 -82.4954 -99.0989 51.6215 -82.0463 -99.0436 51.0162 
-84.8573 -98.8677 55.047 -84.7032 -98.6821 54.0778 -84.7142 -98.3989 53.0875 
-84.4548 -98.3017 52.2405 -83.6219 -98.4996 51.8328 -82.6813 -98.5952 51.6606 
-82.1398 -98.4505 51.1473 -81.8837 -98.3174 50.3286 -84.8168 -98.4183 55.3675 
-84.7269 -98.2016 54.3679 -84.7362 -97.8902 53.3405 -84.534 -97.6221 52.4189 
-83.8219 -97.6842 51.8787 -82.8845 -97.9151 51.6554 -82.2301 -97.9183 51.2412 
-81.9083 -97.7345 50.488 -81.6719 -97.6129 49.7626 -84.7235 -97.9608 55.7868 
-84.6321 -97.7832 54.8578 -84.5844 -97.5476 53.8537 -84.4294 -97.25 52.8258 
-83.9383 -97.1027 52.0465 -83.1515 -97.1861 51.6597 -82.4001 -97.2724 51.3001 
-81.9034 -97.2207 50.6856 -81.6013 -97.1344 49.9963 -81.3654 -97.1151 49.4776 
-84.1878 -102.672 53.1456 -84.0293 -102.375 52.4267 -83.4788 -102.527 52.8088 
-83.6833 -101.923 51.8639 -83.2202 -102.257 52.0325 -82.744 -102.488 52.311 
-82.9956 -101.13 51.6266 -82.6914 -101.656 51.6036 -82.3213 -102.073 51.6203 
-82.0864 -102.455 51.7364 -82.3289 -100.348 51.3268 -82.1742 -100.925 51.2083 
-81.8561 -101.391 51.1734 -81.6434 -101.941 51.1096 -81.4702 -102.437 51.1847 
-81.9903 -99.7249 50.723 -81.9548 -100.39 50.4703 -81.7198 -100.865 50.4249 
-81.3464 -101.408 50.4749 -81.059 -102.024 50.4933 -80.726 -102.433 50.6748 
-81.7797 -98.9566 50.0692 -81.7138 -99.7002 49.8591 -81.6014 -100.303 49.7348 
-81.2533 -100.924 49.7356 -80.7864 -101.627 49.8278 -80.3759 -102.056 50.0361 
-79.9608 -102.227 50.4296 -81.5362 -98.0966 49.5677 -81.3142 -98.7464 49.5799 
-81.1188 -99.3818 49.6237 -80.8985 -100.082 49.5167 -80.5343 -100.97 49.4184 
-80.124 -101.607 49.5805 -79.7621 -101.747 50.0149 -79.407 -101.813 50.5585 
-81.2788 -97.4482 49.2534 -81.0011 -97.9393 49.3125 -80.6189 -98.5007 49.5576 
-80.3139 -99.1337 49.602 -80.0798 -99.9938 49.4007 -79.8159 -100.85 49.3805 
-79.5439 -101.245 49.7356 -79.2818 -101.304 50.2764 -78.9892 -101.453 50.7914 
-80.9694 -96.9118 49.2053 -80.8375 -97.2765 48.9978 -80.4568 -96.6783 48.9656 
-80.2264 -97.1639 48.705 -79.7687 -96.3925 48.7303 -80.4277 -97.806 49.0997 
-79.4154 -97.0593 48.571 -79.0696 -96.2733 48.7567 -79.7129 -97.8311 48.7308 
-79.915 -98.4255 49.3041 -78.6913 -96.9712 48.9002 -78.5233 -96.3938 49.0702 
-78.984 -97.7847 48.6854 -79.2627 -98.5523 48.8376 -79.59 -99.1591 49.2679 
-78.0814 -96.929 49.3112 -77.8256 -96.493 49.3163 -78.4667 -97.5883 49.1795 
-78.8292 -98.5079 48.8707 -79.0801 -99.2601 48.9541 -79.4045 -99.9804 49.2503 
-77.2512 -97.0179 49.43 -76.9601 -96.5741 49.4795 -77.7946 -97.5831 49.5326 
-78.3631 -98.4084 49.3395 -78.6854 -99.1963 49.196 -78.8732 -99.8423 49.3997 
-79.1886 -100.572 49.6095 -76.5711 -97.3187 49.6534 -76.4659 -96.8639 49.8625 
-76.8508 -97.9095 49.5933 -77.3469 -98.6375 49.4878 -77.8932 -99.2482 49.5126 
-78.2489 -99.6895 49.8044 -78.5551 -100.24 50.0419 -78.9533 -100.832 50.1511 
-76.4432 -97.7086 50.2706 -76.3547 -97.286 50.4916 -76.3465 -98.2594 49.9312 
-76.299 -98.9399 49.5108 -76.6963 -99.4544 49.4719 -77.3461 -99.6948 49.966 
-77.8397 -100.058 50.3789 -78.2654 -100.601 50.4943 -78.6967 -101.048 50.6244 
-76.3961 -98.0291 51.0135 -76.1554 -97.6498 51.1465 -76.2899 -98.4532 50.6131 
-75.9062 -98.9987 49.956 -75.8635 -99.4909 49.5965 -76.4561 -99.7177 49.973 
-77.1276 -99.9763 50.5202 -77.5488 -100.515 50.6793 -77.9546 -101.03 50.7608 
-78.3798 -101.388 50.9915 -81.1052 -96.7219 49.6259 -80.6194 -96.4561 49.4017 
-80.8539 -96.2364 49.7398 -80.3428 -95.8105 49.4847 -80.826 -95.5479 49.7675 
-80.0233 -96.0008 49.1394 -80.4085 -94.9907 49.5071 -80.9688 -94.8541 50.098 
-79.7244 -95.1531 49.1543 -79.3613 -95.5483 48.8734 -80.5854 -94.4037 50.047 
-80.9365 -94.5544 50.9116 -79.7142 -94.447 49.2799 -79.0807 -94.7432 48.9392 
-78.8658 -95.5525 48.9375 -80.3692 -94.3696 51.0531 -80.5496 -94.7445 51.6344 
-79.6531 -94.2949 50.0839 -78.8574 -94.3995 49.3236 -78.6254 -94.9655 49.2466 
-78.4003 -95.8492 49.3373 -79.7612 -94.7222 51.715 -80.0292 -95.167 51.965 
-79.2877 -94.507 51.1948 -78.5569 -94.5289 50.2802 -78.214 -94.7993 49.8396 
-78.1304 -95.3597 49.9052 -77.6079 -95.9983 49.7155 -79.2227 -95.2382 51.9264 
-79.687 -95.579 52.3302 -78.8394 -94.7753 51.8465 -78.2678 -94.5251 51.378 
-77.765 -94.7247 50.6526 -77.6826 -95.1491 50.4632 -77.4301 -95.6116 50.383 
-76.8251 -96.1798 50.0049 -78.9949 -95.7625 52.2477 -79.5684 -95.8478 53.0002 
-78.5665 -95.2569 52.0752 -78.0805 -94.5248 52.0911 -77.4363 -94.3422 51.582 
-77.1413 -94.8408 50.999 -77.123 -95.4199 50.8313 -76.7913 -95.9361 50.6185 
-76.3969 -96.5797 50.3806 -78.944 -96.0667 52.929 -79.5166 -95.9324 53.8241 
-78.4589 -95.8499 52.3887 -77.9863 -95.0567 52.383 -77.291 -94.3449 52.2785 
[...]
CELL_DATA 2000
SCALARS Distance double
LOOKUP_TABLE default
143.031 143.204 142.952 142.622 143.402 143.137 142.758 142.495 142.09 
143.437 143.256 142.832 142.599 142.15 141.905 141.463 143.259 143.162 
142.724 142.576 142.122 141.93 141.474 141.253 140.805 143.064 142.959 
142.557 142.42 141.998 141.848 141.41 141.228 140.762 140.559 140.092 
143.004 142.85 142.509 142.321 141.924 141.738 141.312 141.134 140.677 
140.486 140.017 139.825 139.385 143.048 142.857 142.52 142.326 141.928 
141.713 141.274 141.059 140.613 140.408 139.965 139.765 139.349 139.161 
138.787 143.102 142.892 142.484 142.303 141.882 141.701 141.264 141.052 
140.62 140.395 139.979 139.754 139.345 139.14 138.759 138.593 138.251 
143.068 142.882 142.412 142.224 141.775 141.613 141.194 141.026 140.619 
140.426 140.026 139.805 139.392 139.157 138.744 138.55 138.185 138.052 
137.74 143.318 143.826 143.529 143.494 144.34 144.041 143.989 143.739 
143.714 144.82 144.539 144.477 144.227 144.2 143.937 143.807 145.28 
145.032 145.017 144.743 144.707 144.413 144.276 143.932 143.66 145.558 
145.442 145.49 145.312 145.292 144.959 144.766 144.376 144.074 143.702 
143.406 145.482 145.518 145.559 145.647 145.694 145.516 145.278 144.861 
144.47 144.072 143.755 143.462 143.273 145.308 145.306 145.294 145.512 
145.633 145.726 145.559 145.29 144.852 144.449 144.098 143.802 143.657 
143.423 143.345 145.384 145.231 145.189 145.255 145.362 145.522 145.455 
145.399 145.048 144.771 144.435 144.165 144.059 143.848 143.845 143.576 
143.49 145.642 145.449 145.38 145.273 145.263 145.286 145.202 145.211 
144.973 144.866 144.617 144.463 144.367 144.233 144.238 144.061 143.992 
143.689 143.487 145.708 145.503 145.601 145.466 144.937 145.254 145.219 
145.333 145.237 144.41 144.703 144.78 144.979 144.921 145.064 145.006 
144.118 144.355 144.515 144.648 144.656 144.73 144.675 144.808 144.766 
143.599 144.002 144.131 144.406 144.423 144.54 144.492 144.553 144.526 
144.605 144.563 142.778 143.25 143.278 143.756 143.717 144.109 144.027 
144.293 144.233 144.405 144.39 144.468 144.426 142.073 142.413 142.393 
142.786 142.725 143.178 143.109 143.566 143.497 143.898 143.865 144.185 
144.184 144.347 144.293 141.498 141.782 141.746 142.018 141.958 142.272 
142.242 142.626 142.606 143.019 142.989 143.434 143.442 143.872 143.868 
144.126 144.002 140.86 141.173 141.111 141.401 141.32 141.606 141.565 
141.888 141.886 142.22 142.189 142.545 142.518 142.971 142.984 143.451 
143.391 143.684 143.472 143.053 142.935 142.809 142.361 142.524 142.534 
142.114 142.068 141.663 142.092 142.084 141.687 141.707 141.323 141.325 
140.877 141.809 141.739 141.335 141.291 140.891 140.903 140.451 140.422 
139.85 141.524 141.478 141.047 140.974 140.524 140.485 140.02 139.974 
139.423 139.328 138.752 141.182 141.142 140.685 140.635 140.149 140.11 
139.634 139.582 139.074 138.961 138.421 138.306 137.82 140.907 140.81 
140.342 140.258 139.77 139.711 139.226 139.187 138.703 138.642 138.142 
138.034 137.532 137.433 136.967 140.691 140.568 140.102 139.974 139.503 
139.383 138.892 138.793 138.294 138.244 137.765 137.725 137.236 137.152 
136.649 136.563 136.101 140.461 140.354 139.909 139.78 139.335 139.186 
138.708 138.533 138.025 137.885 137.409 137.34 136.886 136.822 136.342 
136.253 135.789 135.723 135.344 142.823 142.196 142.414 142.189 141.567 
141.807 141.611 141.775 141.549 140.798 141.15 140.964 141.184 140.946 
141.147 140.953 139.754 140.247 140.064 140.428 140.168 140.465 140.255 
140.542 140.377 138.671 139.152 139.029 139.448 139.232 139.588 139.392 
139.762 139.632 139.96 139.803 137.759 138.165 138.122 138.505 138.401 
138.708 138.574 138.902 138.818 139.178 139.067 139.365 139.175 136.884 
137.289 137.24 137.667 137.61 137.96 137.863 138.17 138.101 138.421 
138.338 138.625 138.456 138.708 138.512 136.001 136.38 136.279 136.734 
136.652 137.102 136.992 137.405 137.32 137.71 137.639 137.947 137.801 
138.023 137.841 138.077 137.944 135.265 135.543 135.433 135.79 135.704 
136.111 136.011 136.442 136.359 136.825 136.785 137.208 137.122 137.407 
137.255 137.467 137.342 137.583 137.512 134.89 134.383 134.765 135.03 
133.78 134.236 134.516 134.928 135.246 133.181 133.617 133.952 134.394 
134.708 135.147 135.505 132.854 133.129 133.467 133.854 134.217 134.628 
134.99 135.428 135.851 132.653 132.886 133.176 133.483 133.878 134.225 
134.634 134.987 135.411 135.837 136.305 132.318 132.6 132.884 133.227 
133.643 133.987 134.422 134.721 135.118 135.454 135.874 136.299 136.693 
132.183 132.318 132.635 132.919 133.338 133.719 134.141 134.499 134.845 
135.165 135.497 135.869 136.217 136.615 136.892 132.514 132.458 132.783 
132.826 133.152 133.38 133.714 134.093 134.41 134.804 135.098 135.471 
135.781 136.155 136.451 136.79 137.027 132.97 132.928 133.215 133.126 
133.3 133.284 133.454 133.655 133.933 134.308 134.647 135.043 135.37 
135.735 136.042 136.384 136.659 136.963 137.207 134.728 134.294 134.413 
134.193 133.779 133.909 133.614 133.78 133.514 133.341 133.366 132.978 
133.096 132.763 133.016 132.845 133.235 133.057 132.609 132.504 132.111 
132.252 132.15 132.491 132.552 133.395 133.121 132.699 132.365 131.929 
131.78 131.683 131.912 132.09 132.39 132.459 133.538 133.302 132.939 
132.61 132.19 131.844 131.648 131.637 131.794 132.019 132.125 132.264 
132.176 133.696 133.429 133.087 132.833 132.449 132.135 131.818 131.677 
131.677 131.805 131.915 132.009 131.965 131.993 132 134.02 133.67 
133.341 133.025 132.654 132.332 131.92 131.72 131.527 131.624 131.688 
131.85 131.885 131.906 131.939 132.006 132.245 134.416 134.068 133.773 
133.396 133.05 132.623 132.185 131.804 131.48 131.403 131.4 131.589 
131.707 131.842 131.899 131.976 132.13 132.332 132.643 140.178 139.609 
139.812 139.649 139.073 139.262 139.091 139.277 139.091 138.482 138.705 
138.501 138.698 138.462 138.669 138.435 137.759 138.031 137.8 138.046 
137.782 138 137.728 137.956 137.721 137.008 137.258 137.022 137.292 
137.056 137.299 137.045 137.257 137.01 137.246 137.075 136.367 136.545 
136.299 136.527 136.284 136.543 136.273 136.533 136.246 136.512 136.277 
136.604 136.484 135.805 135.942 135.647 135.827 135.513 135.742 135.385 
135.657 135.285 135.614 135.31 135.707 135.528 135.979 135.9 135.254 
135.364 135 135.147 134.777 134.962 134.579 134.772 134.382 134.622 
134.323 134.682 134.538 134.987 134.945 135.407 135.384 134.762 134.815 
134.421 134.497 134.122 134.255 133.938 134.075 133.769 133.881 133.621 
133.823 133.72 134.077 134.11 134.528 134.583 134.977 135.003 140.397 
140.501 140.234 139.813 140.576 140.326 139.89 139.644 139.251 140.616 
140.396 139.956 139.7 139.272 139.069 138.668 140.613 140.428 140.012 
139.761 139.312 139.08 138.659 138.45 137.992 140.591 140.415 140.023 
139.804 139.368 139.127 138.699 138.463 138.013 137.751 137.268 140.588 
140.398 139.997 139.798 139.367 139.156 138.723 138.507 138.06 137.802 
137.324 137.053 136.615 140.583 140.393 139.985 139.779 139.349 139.135 
138.696 138.494 138.047 137.829 137.358 137.111 136.666 136.441 136.057 
140.539 140.367 139.967 139.774 139.365 139.145 138.721 138.485 138.051 
137.815 137.369 137.131 136.697 136.479 136.096 135.899 135.537 140.471 
140.307 139.903 139.735 139.334 139.157 138.755 138.54 138.123 137.869 
137.442 137.178 136.762 136.518 136.137 135.932 135.588 135.391 135.055 
140.303 139.795 139.934 139.698 139.207 139.359 139.102 139.302 139.106 
138.636 138.761 138.481 138.669 138.479 138.717 138.543 138.083 138.219 
137.934 138.07 137.843 138.064 137.898 138.14 137.934 137.473 137.652 
137.393 137.538 137.265 137.434 137.22 137.464 137.275 137.504 137.265 
136.923 137.048 136.792 136.957 136.682 136.845 136.592 136.798 136.602 
136.835 136.626 136.827 136.588 136.512 136.554 136.235 136.347 136.048 
136.218 135.96 136.171 135.963 136.187 135.982 136.187 135.96 136.159 
135.951 136.082 136.135 135.751 135.808 135.428 135.556 135.247 135.481 
135.254 135.526 135.311 135.543 135.313 135.525 135.323 135.55 135.392 
135.587 135.667 135.31 135.339 134.932 134.963 134.584 134.739 134.482 
134.763 134.578 134.855 134.662 134.889 134.711 134.934 134.791 135.021 
134.882 135.242 134.786 135.002 134.99 134.337 134.568 134.475 134.681 
134.593 133.716 134.058 133.995 134.18 134.021 134.228 134.188 133.128 
133.439 133.545 133.758 133.697 133.774 133.712 133.919 134.058 132.813 
132.967 133.131 133.397 133.526 133.612 133.607 133.629 133.705 133.928 
134.167 132.614 132.662 132.642 132.957 133.08 133.384 133.393 133.53 
133.499 133.652 133.766 134.058 134.277 132.471 132.396 132.195 132.393 
132.355 132.727 132.631 132.994 132.859 133.227 133.241 133.626 133.788 
134.147 134.354 132.535 132.31 132.068 132.028 131.915 132.043 131.877 
132.093 131.904 132.307 132.332 132.897 133.111 133.616 133.849 134.229 
134.442 132.713 132.45 132.177 132.02 131.896 131.83 131.699 131.617 
131.436 131.507 131.548 131.969 132.282 132.858 133.187 133.673 133.912 
134.301 134.51 135.275 135.247 135.088 134.839 135.389 135.123 134.795 
134.67 134.385 135.575 135.274 134.791 134.577 134.126 134.059 133.668 
135.683 135.406 134.843 134.529 133.924 133.734 133.281 133.283 133.018 
135.821 135.524 135.044 134.64 134.053 133.651 133.242 133.061 132.951 
132.907 132.862 136.055 135.74 135.372 134.972 134.511 133.996 133.621 
133.269 133.243 133.105 133.192 132.993 132.897 136.287 135.989 135.65 
135.348 134.984 134.546 134.127 133.717 133.514 133.392 133.43 133.367 
133.309 133.038 132.831 136.516 136.208 135.869 135.609 135.31 134.987 
134.584 134.162 133.746 133.508 133.331 133.375 133.349 133.346 133.255 
133.012 132.876 136.809 136.476 136.165 135.866 135.613 135.318 135.019 
134.609 134.198 133.757 133.43 133.242 133.18 133.244 133.321 133.335 
133.355 133.139 133.062 135.649 136.348 135.842 135.626 137.154 136.631 
136.418 135.92 135.807 137.967 137.47 137.322 136.793 136.65 136.162 
136.045 138.958 138.379 138.288 137.727 137.584 137.036 136.844 136.342 
136.149 140.105 139.507 139.422 138.781 138.631 137.995 137.767 137.164 
136.921 136.408 136.239 140.961 140.569 140.482 139.932 139.754 139.093 
138.845 138.156 137.906 137.274 137.096 136.574 136.472 141.44 141.209 
141.155 140.819 140.68 140.164 139.933 139.275 139.025 138.346 138.158 
137.539 137.405 136.859 136.74 141.946 141.667 141.67 141.39 141.352 
140.978 140.847 140.317 140.109 139.475 139.264 138.627 138.445 137.841 
137.666 137.112 136.966 142.653 142.297 142.34 141.993 142.01 141.65 
141.595 141.165 141.024 140.497 140.298 139.699 139.477 138.86 138.636 
138.045 137.85 137.326 137.208 143.104 143.63 143.186 142.779 143.957 
143.634 143.23 142.819 142.398 144.071 143.844 143.443 143.152 142.7 
142.357 141.915 144.095 143.895 143.478 143.252 142.788 142.527 142.06 
141.791 141.329 144.062 143.892 143.476 143.262 142.799 142.551 142.091 
141.861 141.416 141.154 140.649 143.917 143.809 143.409 143.245 142.801 
142.569 142.114 141.884 141.451 141.214 140.716 140.414 139.84 143.662 
143.613 143.235 143.138 142.722 142.548 142.095 141.893 141.445 141.233 
140.726 140.447 139.849 139.545 138.958 143.359 143.342 143.008 142.95 
142.574 142.442 142.006 141.832 141.378 141.193 140.697 140.442 139.856 
139.543 138.951 138.67 138.153 143.092 143.068 142.78 142.738 142.403 
142.298 141.886 141.725 141.284 141.111 140.653 140.425 139.898 139.585 
139.029 138.709 138.216 137.941 137.52 142.884 142.45 142.633 142.553 
141.894 142.127 142.014 142.257 142.149 141.253 141.499 141.344 141.626 
141.488 141.769 141.611 140.595 140.833 140.643 140.907 140.743 141.042 
140.89 141.179 141.012 139.883 140.141 139.921 140.184 139.976 140.27 
140.101 140.423 140.265 140.566 140.38 139.167 139.398 139.147 139.412 
139.157 139.457 139.228 139.578 139.385 139.751 139.543 139.87 139.617 
138.566 138.722 138.448 138.642 138.373 138.622 138.374 138.678 138.458 
138.815 138.609 138.971 138.73 139.049 138.774 138.051 138.172 137.89 
138.01 137.739 137.908 137.683 137.9 137.697 137.951 137.765 138.066 
137.884 138.187 137.97 138.239 138.001 137.566 137.679 137.403 137.494 
137.207 137.332 137.1 137.282 137.085 137.284 137.091 137.318 137.151 
137.417 137.255 137.505 137.305 137.532 137.327 136.897 136.881 136.679 
136.28 136.835 136.662 136.259 136.079 135.712 136.728 136.575 136.167 
136.025 135.636 135.504 135.106 136.669 136.472 136.05 135.898 135.523 
135.404 134.996 134.83 134.331 136.677 136.454 136.029 135.821 135.47 
135.323 134.987 134.778 134.306 134.025 133.563 136.707 136.481 136.082 
135.854 135.513 135.336 135.044 134.84 134.451 134.125 133.7 133.419 
133.224 136.827 136.56 136.193 135.941 135.604 135.404 135.078 134.894 
134.507 134.268 133.887 133.645 133.464 133.323 133.357 137.041 136.752 
136.406 136.114 135.776 135.517 135.159 134.919 134.492 134.263 133.875 
133.738 133.568 133.536 133.545 133.506 133.491 137.231 136.982 136.654 
136.367 136.03 135.732 135.378 135.063 134.66 134.328 133.94 133.715 
133.507 133.497 133.46 133.541 133.47 133.459 133.245 145.759 145.614 
145.796 145.947 145.629 145.783 146.111 146.094 146.082 145.752 145.897 
146.283 146.345 146.397 146.152 145.86 145.688 145.917 146.215 146.436 
146.5 146.399 146.055 145.761 145.394 145.356 145.647 145.841 146.179 
146.289 146.388 146.151 145.919 145.546 145.315 145.109 144.933 145.22 
145.38 145.709 145.864 146.105 146.07 146.016 145.771 145.532 145.314 
145.122 144.959 144.456 144.768 144.904 145.229 145.343 145.65 145.669 
145.847 145.695 145.672 145.423 145.305 145.069 144.915 144.629 143.895 
144.226 144.306 144.672 144.718 145.064 145.02 145.319 145.164 145.362 
145.106 145.191 144.903 144.899 144.584 144.468 144.081 143.353 143.633 
143.662 144.005 144.022 144.368 144.311 144.617 144.476 144.724 144.513 
144.698 144.455 144.575 144.303 144.316 143.966 143.847 143.429 145.878 
145.91 145.878 145.797 145.807 145.782 145.552 145.599 145.369 145.539 
145.557 145.218 145.239 144.938 145.021 144.717 145.231 145.277 145.043 
144.967 144.636 144.586 144.275 144.323 144.009 145.003 145.046 144.93 
144.882 144.6 144.43 144.065 143.959 143.65 143.651 143.358 144.753 
144.809 144.6 144.678 144.378 144.348 143.929 143.816 143.419 143.358 
143.047 143.045 142.752 144.354 144.434 144.079 144.188 143.811 143.922 
143.506 143.542 143.105 143.095 142.716 142.729 142.41 142.435 142.126 
143.803 143.915 143.524 143.608 143.223 143.317 142.96 143.037 142.66 
142.692 142.307 142.34 142.004 142.061 141.764 141.803 141.504 143.166 
143.307 142.95 143.055 142.722 142.807 142.511 142.571 142.254 142.266 
141.906 141.914 141.583 141.64 141.371 141.438 141.176 141.203 140.92 
145.825 145.743 145.771 145.556 145.348 145.523 145.257 145.262 144.891 
144.733 145.016 144.769 144.835 144.428 144.48 144.233 144.024 144.354 
144.187 144.319 143.966 144.009 143.761 143.932 143.872 143.341 143.649 
143.539 143.746 143.498 143.586 143.34 143.472 143.338 143.567 143.41 
142.714 142.991 142.877 143.117 142.92 143.094 142.852 143.009 142.781 
142.977 142.748 142.952 142.669 142.084 142.356 142.225 142.47 142.268 
142.479 142.227 142.426 142.164 142.362 142.107 142.297 142.057 142.226 
141.996 141.449 141.707 141.567 141.813 141.616 141.826 141.581 141.772 
141.533 141.727 141.514 141.697 141.504 141.674 141.488 141.642 141.435 
140.85 141.078 140.931 141.163 140.987 141.194 140.985 141.164 140.96 
141.139 140.967 141.15 140.984 141.155 140.967 141.131 140.914 141.065 
140.814 135.866 136.415 136.279 136.569 136.836 136.793 137.097 137.009 
137.311 137.195 137.15 137.463 137.453 137.77 137.716 138.055 137.731 
137.579 137.906 137.835 138.226 138.172 138.589 138.527 139.016 138.387 
138.215 138.567 138.411 138.841 138.728 139.211 139.127 139.656 139.608 
140.147 138.989 138.876 139.25 139.114 139.512 139.396 139.838 139.767 
140.242 140.214 140.669 140.65 140.999 139.561 139.468 139.841 139.736 
140.08 139.992 140.362 140.324 140.729 140.718 141.095 141.073 141.356 
141.301 141.493 140.114 140.033 140.377 140.278 140.574 140.481 140.8 
140.768 141.151 141.15 141.516 141.473 141.756 141.661 141.884 141.771 
141.997 140.584 140.534 140.844 140.768 141.033 140.939 141.22 141.174 
141.529 141.538 141.902 141.882 142.175 142.092 142.345 142.231 142.504 
142.384 142.689 
POINT_DATA 1002
SCALARS Distance double
LOOKUP_TABLE default
142.731 143.113 143.25 142.875 143.488 142.261 143.05 143.669 142.35 
141.661 143.049 143.595 142.398 141.704 141.026 142.842 143.341 142.281 
141.688 141.03 140.36 142.694 143.158 142.137 141.577 140.967 140.29 
139.628 142.7 143.156 142.135 141.502 140.86 140.204 139.56 138.971 
142.718 143.272 142.146 141.504 140.818 140.161 139.534 138.955 138.436 
142.687 143.348 142.047 141.454 140.837 140.208 139.57 138.935 138.388 
137.93 142.612 143.243 141.937 141.341 140.79 140.234 139.639 138.969 
138.329 137.839 137.452 143.595 143.745 144.143 144.238 144.642 143.988 
144.739 145.082 144.458 144.157 145.278 145.483 145.036 144.627 144.044 
145.568 145.627 145.626 145.215 144.457 143.721 145.361 145.461 145.75 
145.708 144.913 144.04 143.507 145.096 145.367 145.427 145.723 145.248 
144.396 143.861 143.608 145.23 145.556 145.243 145.418 145.227 144.671 
144.241 144.077 143.851 145.562 145.81 145.349 145.2 144.99 144.703 
144.479 144.384 144.255 143.87 145.753 145.489 145.268 145.007 144.537 
145.163 144.566 144.129 144.771 144.831 144.373 143.852 144.608 144.59 
144.606 143.781 143.165 144.24 144.424 144.464 144.509 142.806 142.365 
143.249 143.666 143.995 144.244 144.417 142.069 141.787 142.306 142.623 
143.04 143.457 143.895 144.243 141.491 141.216 141.681 141.889 142.217 
142.563 142.95 143.481 143.881 140.812 140.551 141.031 141.248 141.56 
141.883 142.122 142.482 142.991 143.303 142.613 142.512 141.959 142.099 
141.733 141.298 141.672 141.291 140.947 140.388 141.423 140.911 140.473 
139.933 139.231 141.129 140.59 140.074 139.515 138.82 138.204 140.739 
140.189 139.669 139.16 138.55 137.893 137.363 140.443 139.846 139.276 
138.733 138.219 137.66 137.044 136.494 140.23 139.636 139.029 138.37 
137.781 137.296 136.753 136.151 135.658 140.02 139.477 138.895 138.2 
137.505 136.943 136.418 135.856 135.36 135.015 142.017 141.445 141.371 
140.709 140.739 140.729 139.646 139.837 139.928 140.11 138.58 138.861 
138.998 139.25 139.538 137.711 138.077 138.265 138.459 138.747 138.919 
136.796 137.216 137.54 137.786 138.059 138.21 138.239 135.852 136.191 
136.549 136.888 137.286 137.572 137.622 137.664 135.12 135.328 135.595 
135.889 136.303 136.768 137.027 137.116 137.246 134.534 134.642 133.974 
134.091 133.274 134.815 133.487 132.784 134.278 135.034 133.117 132.663 
133.799 134.575 135.362 132.88 132.417 133.534 134.301 135.025 135.846 
132.506 132.033 133.269 134.128 134.837 135.492 136.284 132.416 132.102 
132.985 133.763 134.533 135.167 135.833 136.535 132.858 132.582 133.078 
133.395 133.985 134.714 135.414 136.098 136.72 133.345 132.982 133.443 
133.381 133.587 134.228 135.001 135.695 136.334 136.924 134.633 134.071 
134.179 133.476 133.683 133.295 132.941 133.4 132.517 132.479 132.832 
133.475 132.055 131.761 132.212 133.058 133.652 132.21 131.526 131.763 
132.297 133.197 133.767 132.564 131.799 131.623 131.999 132.081 133.325 
133.997 132.74 132.045 131.613 131.796 131.95 131.866 133.688 134.378 
133.01 132.211 131.506 131.465 131.805 131.903 132.051 134.14 134.732 
133.491 132.649 131.696 131.24 131.498 131.819 131.977 132.365 139.963 
139.452 139.413 138.921 138.886 138.902 138.309 138.252 138.274 138.212 
137.534 137.494 137.557 137.516 137.459 136.747 136.784 136.787 136.824 
136.797 136.776 136.104 136.215 136.048 136.018 135.978 135.965 136.092 
135.507 135.695 135.331 135.162 134.976 134.901 135.066 135.427 134.891 
135.179 134.604 134.395 134.18 133.99 134.079 134.469 134.938 140.677 
140.064 140.763 140.152 140.814 139.456 140.223 140.814 139.495 138.867 
140.248 140.779 139.565 138.879 138.232 140.221 140.774 139.601 138.939 
138.282 137.528 140.199 140.793 139.572 138.928 138.303 137.597 136.847 
140.188 140.768 139.568 138.907 138.253 137.589 136.891 136.262 140.145 
140.704 139.568 138.961 138.297 137.605 136.915 136.287 135.74 140.073 