# vtk DataFile Version 4.0
vtk output
ASCII
DATASET POLYDATA
POINTS 1002 float
-79.4631 -102.28 53.1154 -79.5304 -102.559 53.9047 -80.0188 -102.718 53.4085 
-79.9869 -102.421 52.5693 -80.7544 -102.84 52.943 -79.3345 -102.019 52.2593 
-80.7929 -102.504 52.0977 -81.455 -102.718 52.5888 -79.8707 -102 51.7941 
-79.1836 -101.79 51.2883 -81.4425 -102.184 51.7858 -81.7401 -101.987 52.4127 
-80.6141 -101.901 51.3836 -79.6521 -101.559 50.9813 -79.0154 -101.499 50.3188 
-81.6104 -101.326 51.5973 -81.816 -100.972 52.2424 -81.139 -101.465 51.0354 
-80.2292 -101.281 50.631 -79.3835 -101.112 50.143 -78.7841 -101.03 49.5738 
-81.8421 -100.633 51.2222 -82.2892 -100.482 51.7361 -81.414 -100.865 50.6371 
-80.7414 -100.865 50.1951 -79.8908 -100.692 49.8315 -79.156 -100.56 49.3782 
-78.5012 -100.446 48.9363 -82.6192 -100.516 50.4871 -83.1718 -100.456 50.9305 
-81.9841 -100.597 49.9839 -81.3047 -100.538 49.5961 -80.5454 -100.287 49.3605 
-79.7382 -100.096 49.0291 -78.9673 -100.055 48.546 -78.2461 -100.015 48.1271 
-83.4679 -100.444 49.7076 -83.9258 -100.315 50.1949 -82.7806 -100.482 49.2318 
-82.019 -100.388 48.861 -81.2902 -100.114 48.6773 -80.4914 -99.8229 48.5011 
-79.6073 -99.7686 48.0787 -78.7767 -99.8515 47.5675 -78.068 -99.8365 47.2138 
-83.9118 -100.101 49.1778 -84.2994 -99.9585 49.6939 -83.2775 -100.132 48.7201 
-82.5727 -100.099 48.3157 -81.9507 -100.03 47.9652 -81.2591 -99.8562 47.7264 
-80.3573 -99.6984 47.46 -79.4253 -99.7371 47.0245 -78.6355 -99.799 46.6178 
-77.9777 -99.7179 46.3712 -84.0661 -99.6152 48.8688 -84.4404 -99.5078 49.3622 
-83.4692 -99.6127 48.4508 -82.852 -99.5899 48.0725 -82.3884 -99.7029 47.5681 
-81.8969 -99.8469 47.0205 -81.1069 -99.7798 46.6838 -80.1441 -99.6472 46.4367 
-79.2931 -99.65 46.099 -78.5956 -99.641 45.7992 -77.9727 -99.5331 45.6104 
-79.8198 -102.84 54.4643 -80.4436 -102.855 54.0621 -80.1185 -102.736 55.1868 
-80.7364 -102.55 54.816 -80.2926 -102.29 55.8603 -81.1489 -102.818 53.6502 
-80.8886 -102.134 55.3868 -80.4079 -102.002 56.4433 -81.3305 -102.416 54.3543 
-81.6535 -102.481 53.309 -81.16 -102.001 55.9371 -80.7647 -102.039 57.2078 
-81.5467 -102.036 54.8701 -81.8299 -102.027 53.9613 -81.8899 -101.607 53.1001 
-81.5643 -101.856 56.7191 -81.2832 -101.95 58.0385 -81.8581 -101.71 55.4697 
-82.1398 -101.587 54.5103 -82.2638 -101.293 53.6689 -82.2152 -100.784 52.7574 
-81.7495 -101.399 57.3512 -81.5494 -101.529 58.4935 -81.9736 -101.195 56.1397 
-82.2789 -101.05 55.1136 -82.6209 -100.968 54.1969 -82.7946 -100.752 53.159 
-82.914 -100.506 52.0437 -81.75 -100.878 57.6089 -81.5753 -101.007 58.603 
-82.0005 -100.685 56.5763 -82.3389 -100.549 55.6461 -82.8123 -100.557 54.7685 
-83.2663 -100.573 53.6628 -83.5244 -100.46 52.3934 -83.739 -100.351 51.2243 
-81.8745 -100.444 57.7734 -81.6358 -100.515 58.6375 -82.2828 -100.307 56.9239 
-82.7542 -100.232 56.1066 -83.2297 -100.273 55.3084 -83.717 -100.318 54.3005 
-84.0429 -100.235 52.9836 -84.1783 -100.092 51.6795 -84.2892 -100.018 50.5931 
-82.0876 -100.003 57.9082 -81.7619 -100.013 58.625 -82.6618 -99.9098 57.2683 
-83.31 -99.8838 56.5887 -83.8073 -100.002 55.8008 -84.1802 -100.106 54.8681 
-84.4473 -100.011 53.6687 -84.5107 -99.7926 52.3162 -84.4996 -99.6484 51.1069 
-84.5255 -99.5973 50.1335 -82.0598 -99.4834 58.0519 -82.6387 -99.4597 57.4847 
-82.3822 -98.9444 57.3401 -83.0547 -98.9836 56.8525 -82.6574 -98.5589 56.5075 
-83.4092 -99.4156 56.9738 -83.265 -98.6367 56.0113 -82.9694 -98.1695 55.7835 
-83.7102 -99.0256 56.296 -84.0195 -99.5311 56.2339 -83.6217 -98.0219 55.3096 
-83.3156 -97.4603 55.2188 -83.7899 -98.5859 55.3431 -84.1111 -99.1531 55.3797 
-84.3596 -99.7353 55.2451 -84.0048 -97.0892 54.6791 -83.4733 -96.7164 54.4934 
-84.1942 -97.7312 54.547 -84.2258 -98.458 54.3491 -84.4207 -99.1714 54.2655 
-84.5975 -99.7145 54.0936 -83.9772 -96.4515 53.7551 -83.4612 -96.2452 53.62 
-84.4215 -96.8761 53.722 -84.656 -97.5041 53.5058 -84.6844 -98.2082 53.2831 
-84.6919 -98.9104 53.0834 -84.6827 -99.4406 52.766 -83.8295 -96.0331 52.8098 
-83.5027 -95.7356 52.9407 -84.1598 -96.4218 52.6978 -84.6553 -96.8945 52.6246 
-85.0459 -97.3436 52.4735 -84.9994 -97.9036 52.1599 -84.7724 -98.6025 51.7891 
-84.6311 -99.2045 51.4375 -83.8935 -95.3986 52.1806 -83.546 -95.0851 52.4301 
-84.049 -95.8743 51.8835 -84.3574 -96.4622 51.7342 -84.9697 -96.8977 51.667 
-85.3182 -97.2052 51.3813 -85.1113 -97.7354 50.9263 -84.7958 -98.4695 50.5735 
-84.6395 -99.1179 50.3395 -83.9107 -94.7686 51.684 -83.4089 -94.5931 51.864 
-84.1943 -95.1205 51.3826 -84.3665 -95.716 51.1089 -84.7753 -96.3548 50.9404 
-85.2897 -96.7783 50.6755 -85.3836 -97.1292 50.2403 -85.0873 -97.6944 49.8744 
-84.8037 -98.4075 49.6711 -84.6241 -99.039 49.5162 -84.2958 -99.0053 48.8173 
-84.5446 -98.4166 48.9802 -84.0108 -98.3127 48.3343 -84.7773 -97.7269 49.1335 
-84.2247 -97.6778 48.5139 -83.7326 -97.6645 47.7286 -85.0659 -97.1243 49.2925 
-84.4048 -97.0856 48.6367 -83.8885 -97.0942 47.8439 -83.6901 -97.2239 46.8457 
-85.248 -96.6498 49.5998 -84.6561 -96.5627 48.6914 -84.0667 -96.5113 47.8774 
-83.9577 -96.584 46.835 -83.7413 -96.716 45.9786 -85.0703 -96.0862 50.0174 
-84.8478 -95.8655 48.9219 -84.3129 -95.7529 47.9023 -84.1483 -95.7347 46.8826 
-84.0422 -95.8487 45.9465 -83.3186 -95.9799 45.5313 -84.7243 -95.3811 50.369 
-84.811 -95.0416 49.3583 -84.4748 -94.8439 48.1763 -84.1698 -94.8081 47.0928 
-83.9864 -94.9259 46.1752 -83.3712 -95.1494 45.5861 -82.4107 -95.3438 45.3671 
-84.4335 -94.8046 50.6736 -84.5528 -94.5055 49.7996 -84.3993 -94.2409 48.6609 
-84.058 -94.1346 47.4919 -83.695 -94.2463 46.5824 -83.134 -94.501 45.9373 
-82.3404 -94.7376 45.4826 -81.6833 -94.8819 45.1072 -84.029 -94.5165 50.9497 
-84.0515 -94.3487 50.14 -83.9997 -94.1035 49.168 -83.808 -93.8512 48.0213 
-83.4232 -93.8201 47.008 -82.8777 -93.9973 46.3397 -82.2487 -94.203 45.818 
-81.7149 -94.3087 45.2518 -81.3729 -94.3492 44.6698 -83.4426 -94.4024 51.1248 
-83.3815 -94.3102 50.3485 -83.3548 -94.1043 49.5611 -83.3401 -93.7476 48.6161 
-83.1089 -93.5244 47.5433 -82.629 -93.5437 46.6961 -82.1044 -93.6469 46.1482 
-81.6822 -93.7224 45.5879 -81.3849 -93.7444 44.8905 -81.1373 -93.7682 44.2196 
-83.7579 -99.0257 48.3514 -83.4939 -98.3332 47.802 -83.1554 -98.9837 47.9606 
-83.3973 -97.7806 47.0233 -83.0639 -98.3819 47.2975 -82.7254 -99.081 47.4681 
-83.2965 -97.3466 46.1907 -82.932 -97.8877 46.4841 -82.6718 -98.6207 46.6531 
-82.3612 -99.42 46.706 -82.8937 -96.7305 45.7048 -82.4368 -97.3519 45.9297 
-82.2103 -98.0676 45.9934 -82.0588 -98.9774 45.9053 -81.6909 -99.6322 46.0652 
-82.1945 -96.0173 45.4497 -81.8504 -96.7323 45.5662 -81.5561 -97.4482 45.5862 
-81.3901 -98.2773 45.5089 -81.1629 -99.0517 45.4963 -80.7171 -99.49 45.8235 
-81.5748 -95.4638 45.0595 -81.4642 -96.2149 44.9957 -81.2601 -96.9746 44.9071 
-80.939 -97.6663 45.0014 -80.6011 -98.33 45.1759 -80.2513 -98.9112 45.313 
-79.8026 -99.3564 45.6058 -81.2434 -94.9214 44.5136 -81.1635 -95.7312 44.3495 
-81.0768 -96.5949 44.0901 -80.7901 -97.2684 44.0973 -80.3167 -97.8252 44.4847 
-79.894 -98.4027 44.7817 -79.5284 -98.9493 44.9264 -79.0805 -99.3796 45.2543 
-81.0126 -94.2764 43.9755 -80.8264 -95.0865 43.8541 -80.6704 -96.0536 43.6402 
-80.4827 -96.8288 43.4609 -80.1129 -97.3979 43.6669 -79.6639 -98.0183 44.0447 
-79.2983 -98.6417 44.2431 -78.9122 -99.0872 44.4783 -78.4296 -99.361 44.9789 
-80.6797 -93.5308 43.6337 -80.4975 -94.1427 43.4537 -80.0486 -93.4635 43.1991 
-79.8262 -94.1678 43.1188 -79.3846 -93.542 42.9478 -80.2073 -95.1169 43.4366 
-79.1373 -94.3227 42.8662 -78.5663 -93.6269 42.7937 -79.5233 -95.1967 43.1748 
-79.9774 -96.1115 43.3163 -78.1777 -94.5085 42.6364 -77.4352 -93.6888 42.7291 
-78.797 -95.3819 42.8094 -79.2794 -96.1456 43.0852 -79.7497 -96.8329 43.2451 
-76.9743 -94.7167 42.6358 -76.3832 -93.8908 42.8258 -77.6843 -95.6509 42.5043 
-78.388 -96.3432 42.7002 -78.9726 -96.9237 43.0523 -79.3872 -97.5464 43.435 
-76.0833 -94.9771 42.9296 -75.6646 -94.2729 43.0546 -76.5498 -95.8746 42.6918 
-77.1535 -96.5823 42.5828 -77.9119 -97.1283 42.8584 -78.5709 -97.7808 43.2362 
-78.9989 -98.3478 43.652 -75.4063 -95.1806 43.2619 -74.9738 -94.6113 43.3222 
-75.8171 -95.9833 43.1689 -76.1699 -96.708 42.9607 -76.7319 -97.257 42.9795 
-77.5108 -97.8936 43.2323 -78.1684 -98.5329 43.4863 -78.6023 -98.9014 43.879 
-74.5704 -95.2623 43.4835 -74.241 -94.7852 43.631 -75.0254 -96.021 43.4498 
-75.4262 -96.8341 43.3267 -75.8238 -97.4497 43.2325 -76.4373 -98.0164 43.3497 
-77.1404 -98.5979 43.5528 -77.6937 -98.974 43.8472 -78.1009 -99.1677 44.3557 
-73.8113 -95.3631 43.7198 -73.7103 -94.9294 44.0397 -74.0858 -96.0957 43.5495 
-74.4995 -97.0172 43.4304 -74.9512 -97.788 43.3371 -75.4931 -98.3571 43.3858 
-76.1409 -98.8694 43.5681 -76.7306 -99.1963 43.8674 -77.1995 -99.2841 44.3718 
-77.6057 -99.3593 45.01 -80.8446 -93.2696 44.3189 -80.2197 -93.1193 43.7803 
-80.2544 -92.9541 44.6626 -79.5827 -92.8334 44.2127 -79.6658 -92.6947 45.0346 
-79.55 -93.0906 43.4039 -79.156 -92.3049 44.5367 -79.4222 -92.253 45.298 
-78.9899 -92.6204 43.8222 -78.8612 -93.0704 43.1571 -78.9596 -91.6196 44.6932 
-79.2961 -91.7681 45.7219 -78.5724 -91.7924 44.0194 -78.2484 -92.4191 43.4289 
-77.888 -93.0284 42.9594 -78.5531 -91.3946 45.2176 -78.8949 -91.5985 46.4408 
-78.1107 -91.2099 44.2723 -77.6512 -91.6967 43.6154 -77.2172 -92.4725 43.1491 
-76.7599 -93.0981 42.8962 -77.899 -91.5735 46.1494 -78.2967 -91.6394 47.2013 
-77.4791 -91.3255 45.1186 -77.0635 -91.4876 44.2328 -76.7052 -92.1339 43.6127 
-76.3065 -92.7712 43.2566 -75.9096 -93.4335 43.0658 -77.2712 -91.5688 47.0621 
-77.7196 -91.5739 47.9517 -76.8869 -91.51 46.1935 -76.5849 -91.6882 45.3013 
-76.3697 -92.1535 44.5422 -76.0768 -92.6573 44.0522 -75.6278 -93.2309 43.6654 
-75.2234 -93.9387 43.3727 -76.7555 -91.3963 47.9074 -77.2415 -91.4277 48.7825 
-76.3997 -91.4178 47.0918 -76.2157 -91.7524 46.2754 -76.1353 -92.3001 45.4997 
-75.9323 -92.7196 44.9507 -75.4606 -93.1338 44.5208 -74.9115 -93.7388 44.0583 
-74.5077 -94.3273 43.7279 -76.3918 -91.3973 48.7383 -76.8971 -91.3943 49.5568 
-76.0291 -91.4293 47.912 -75.8894 -91.7557 47.1048 -75.8856 -92.3776 46.3232 
[...]
CELL_DATA 2000
SCALARS Distance double
LOOKUP_TABLE default
139.42 139.663 139.303 138.859 139.95 139.595 139.079 138.703 138.237 
139.875 139.779 139.271 138.925 138.34 138.027 137.561 139.282 139.446 
139.034 138.955 138.36 138.091 137.511 137.294 136.828 138.776 138.829 
138.528 138.569 138.118 137.989 137.414 137.206 136.672 136.511 136.034 
138.792 138.608 138.363 138.229 137.905 137.752 137.29 137.08 136.559 
136.359 135.871 135.707 135.25 138.947 138.77 138.496 138.272 137.93 
137.696 137.288 137.034 136.571 136.306 135.845 135.611 135.192 134.996 
134.612 138.849 138.801 138.453 138.326 137.901 137.729 137.308 137.1 
136.689 136.414 135.988 135.684 135.283 135.025 134.674 134.458 134.133 
138.54 138.554 138.159 138.107 137.643 137.565 137.151 137.065 136.721 
136.552 136.177 135.888 135.469 135.168 134.792 134.556 134.231 134.024 
133.716 139.795 140.311 140.06 140.044 140.527 140.459 140.477 140.313 
140.288 140.573 140.554 140.586 140.578 140.545 140.419 140.177 140.872 
140.678 140.697 140.624 140.595 140.524 140.278 140.056 139.591 141.386 
141.094 140.994 140.791 140.695 140.572 140.378 140.156 139.78 139.437 
139.075 141.598 141.44 141.138 140.984 140.718 140.632 140.438 140.308 
140.064 139.759 139.494 139.154 139.038 141.419 141.375 141.003 140.924 
140.61 140.558 140.39 140.357 140.25 140.088 139.917 139.629 139.48 
139.23 139.161 141.159 141.126 140.869 140.789 140.63 140.529 140.503 
140.416 140.457 140.324 140.262 140.018 139.837 139.587 139.415 139.238 
139.073 140.919 140.926 140.794 140.771 140.758 140.697 140.774 140.681 
140.77 140.632 140.6 140.364 140.148 139.866 139.587 139.386 139.151 
139.015 138.778 140.678 140.293 140.562 140.672 139.868 140.207 140.469 
140.665 140.775 139.441 139.791 140.079 140.418 140.653 140.814 140.874 
138.978 139.347 139.549 139.931 140.136 140.519 140.676 140.869 140.858 
138.347 138.787 138.937 139.33 139.427 139.85 139.973 140.415 140.477 
140.726 140.606 137.611 138.054 138.182 138.625 138.701 139.11 139.158 
139.597 139.635 140.073 139.999 140.283 140.061 136.941 137.307 137.371 
137.803 137.899 138.353 138.43 138.825 138.818 139.189 139.112 139.484 
139.337 139.63 139.438 136.322 136.648 136.656 137.013 137.084 137.538 
137.684 138.121 138.174 138.475 138.388 138.654 138.551 138.862 138.78 
139.064 138.978 135.696 136.021 136.03 136.339 136.375 136.763 136.906 
137.373 137.507 137.87 137.834 138.051 137.935 138.17 138.114 138.414 
138.388 138.668 138.604 138.262 138.041 137.979 137.543 137.763 137.717 
137.29 137.179 136.689 137.587 137.47 137.041 136.907 136.425 136.319 
135.908 137.474 137.342 136.876 136.69 136.175 136.043 135.623 135.595 
135.262 137.136 137.139 136.625 136.492 135.889 135.757 135.246 135.245 
134.862 134.907 134.485 136.561 136.658 136.168 136.131 135.499 135.389 
134.787 134.777 134.316 134.402 133.956 133.994 133.473 136.055 136.099 
135.696 135.668 135.13 134.998 134.409 134.309 133.821 133.839 133.419 
133.45 132.987 132.972 132.508 135.699 135.688 135.327 135.29 134.854 
134.722 134.202 134.021 133.526 133.426 133.015 132.99 132.593 132.559 
132.143 132.107 131.724 135.352 135.347 134.965 134.956 134.55 134.485 
134.014 133.863 133.349 133.193 132.721 132.643 132.23 132.204 131.807 
131.78 131.388 131.369 131.005 138.21 137.455 137.839 137.774 136.613 
137.015 136.958 137.334 137.255 135.876 136.211 136.196 136.543 136.528 
136.865 136.839 135.234 135.536 135.499 135.825 135.837 136.194 136.234 
136.542 136.511 134.43 134.825 134.705 135.077 135.007 135.441 135.461 
135.898 135.88 136.184 136.019 133.422 133.888 133.772 134.194 134.081 
134.522 134.487 134.992 134.965 135.415 135.264 135.563 135.303 132.476 
132.889 132.862 133.278 133.257 133.638 133.616 134.023 133.999 134.435 
134.341 134.718 134.536 134.821 134.612 131.69 132.04 132.052 132.46 
132.522 132.902 132.92 133.252 133.222 133.561 133.507 133.851 133.762 
134.069 133.947 134.204 134.06 130.952 131.282 131.255 131.675 131.733 
132.172 132.202 132.569 132.524 132.844 132.796 133.12 133.091 133.389 
133.33 133.581 133.473 133.695 133.557 130.5 129.895 130.373 130.799 
129.39 129.816 130.271 130.776 131.291 128.952 129.374 129.825 130.296 
130.817 131.306 131.778 128.396 128.907 129.38 129.876 130.37 130.84 
131.29 131.738 132.116 127.837 128.324 128.827 129.371 129.868 130.37 
130.807 131.258 131.659 132.069 132.428 127.585 127.905 128.409 128.843 
129.331 129.81 130.256 130.751 131.197 131.655 132.074 132.437 132.776 
127.494 127.757 128.22 128.552 128.998 129.343 129.751 130.185 130.649 
131.167 131.632 132.082 132.434 132.765 133.021 127.291 127.573 127.945 
128.329 128.749 129.087 129.458 129.778 130.197 130.634 131.109 131.588 
131.958 132.354 132.593 132.928 133.129 127.112 127.297 127.582 127.948 
128.364 128.78 129.192 129.533 129.931 130.275 130.727 131.122 131.529 
131.886 132.157 132.469 132.677 133.002 133.207 130.264 129.764 129.873 
129.631 129.319 129.39 129.137 129.269 129.107 128.88 128.926 128.632 
128.772 128.563 128.766 128.627 128.481 128.442 128.012 128.157 127.873 
128.14 127.918 128.202 128.016 128.278 128.091 127.549 127.509 127.137 
127.357 127.147 127.441 127.245 127.536 127.429 128.242 127.999 127.491 
127.228 126.833 126.783 126.645 126.788 126.736 126.899 126.862 127.101 
127.188 128.166 127.982 127.547 127.298 126.961 126.76 126.668 126.603 
126.667 126.656 126.713 126.756 126.84 127.033 127.166 128.06 127.886 
127.48 127.324 127.062 126.948 126.904 126.826 126.903 126.809 126.863 
126.778 126.813 126.831 126.887 127.03 127.076 128.088 127.852 127.503 
127.305 127.12 127.033 127.067 127.053 127.162 127.091 127.106 126.972 
126.92 126.845 126.824 126.848 126.863 126.948 126.978 135.009 134.319 
134.64 134.602 133.585 133.911 133.841 134.21 134.169 132.759 133.116 
132.993 133.391 133.327 133.734 133.644 131.855 132.223 132.082 132.494 
132.406 132.84 132.747 133.144 133 131.036 131.335 131.187 131.566 
131.478 131.905 131.807 132.215 132.078 132.466 132.344 130.361 130.589 
130.402 130.701 130.586 130.984 130.898 131.295 131.159 131.535 131.421 
131.842 131.806 129.741 129.952 129.746 129.968 129.805 130.124 130.042 
130.418 130.32 130.664 130.545 130.926 130.895 131.354 131.379 129.107 
129.328 129.141 129.348 129.176 129.412 129.303 129.614 129.537 129.866 
129.769 130.103 130.047 130.457 130.483 130.947 130.982 128.481 128.682 
128.496 128.734 128.577 128.813 128.66 128.914 128.774 129.086 128.979 
129.333 129.273 129.652 129.653 130.074 130.113 130.559 130.601 135.132 
135.092 134.896 134.452 135.055 134.853 134.426 134.221 133.763 135.045 
134.821 134.387 134.193 133.733 133.507 132.972 135.045 134.805 134.32 
134.125 133.645 133.446 132.894 132.646 132.064 135.036 134.785 134.266 
134.04 133.548 133.346 132.819 132.565 131.99 131.738 131.23 135.05 
134.783 134.266 134 133.517 133.291 132.82 132.55 132.008 131.703 
131.18 130.96 130.538 135.08 134.818 134.297 134.012 133.502 133.274 
132.823 132.595 132.086 131.77 131.198 130.913 130.427 130.272 129.884 
135.095 134.857 134.34 134.042 133.476 133.222 132.723 132.552 132.079 
131.841 131.273 130.946 130.384 130.149 129.715 129.604 129.24 135.106 
134.89 134.416 134.104 133.521 133.191 132.635 132.421 131.978 131.808 
131.343 131.046 130.502 130.166 129.694 129.478 129.117 128.99 128.656 
134.989 134.566 134.644 134.287 133.96 134.114 133.698 133.793 133.339 
133.263 133.416 132.991 133.119 132.656 132.781 132.406 132.708 132.76 
132.364 132.441 132.063 132.15 131.837 131.968 131.754 132.239 132.273 
131.882 131.92 131.602 131.668 131.414 131.497 131.264 131.391 131.15 
131.672 131.76 131.351 131.438 131.086 131.212 130.924 131.061 130.76 
130.881 130.534 130.677 130.326 131.149 131.188 130.771 130.845 130.451 
130.605 130.277 130.471 130.143 130.296 129.921 130.04 129.668 129.812 
129.516 130.805 130.76 130.328 130.3 129.871 129.948 129.626 129.801 
129.55 129.699 129.424 129.494 129.192 129.248 128.979 129.103 128.921 
130.513 130.461 130.003 129.916 129.433 129.417 129.063 129.194 129.013 
129.194 129.06 129.142 128.94 128.92 128.662 128.665 128.435 128.567 
128.429 130.178 129.398 129.754 129.631 128.623 128.938 128.813 129.15 
129.04 128.069 128.279 128.185 128.404 128.338 128.636 128.675 127.629 
127.846 127.845 127.973 127.951 128.096 128.196 128.476 128.683 127.162 
127.401 127.487 127.714 127.776 127.885 127.988 128.155 128.384 128.632 
128.828 126.897 126.967 127.017 127.299 127.45 127.699 127.828 128.008 
128.165 128.374 128.513 128.719 128.749 126.934 126.827 126.761 126.881 
127.018 127.305 127.493 127.767 127.871 128.089 128.093 128.307 128.24 
128.476 128.408 126.994 126.893 126.775 126.75 126.8 126.948 127.128 
127.387 127.511 127.722 127.656 127.809 127.644 127.861 127.763 128.075 
128.099 126.976 126.921 126.838 126.793 126.794 126.826 126.931 127.085 
127.207 127.375 127.344 127.415 127.247 127.324 127.23 127.453 127.541 
127.875 128.073 130.322 130.317 130.079 129.579 130.479 130.131 129.624 
129.309 128.814 130.876 130.42 129.907 129.459 128.929 128.599 128.197 
131.306 130.866 130.36 129.858 129.293 128.813 128.305 128.021 127.676 
131.636 131.252 130.78 130.329 129.792 129.258 128.697 128.224 127.779 
127.515 127.231 131.995 131.599 131.197 130.763 130.29 129.771 129.231 
128.691 128.242 127.803 127.536 127.227 127.089 132.433 132.027 131.67 
131.235 130.798 130.287 129.754 129.218 128.779 128.343 128.121 127.752 
127.64 127.285 127.2 132.85 132.472 132.092 131.696 131.262 130.798 
130.287 129.754 129.308 128.869 128.654 128.341 128.227 127.895 127.724 
127.384 127.218 133.2 132.849 132.443 132.064 131.637 131.232 130.806 
130.325 129.947 129.463 129.243 128.873 128.751 128.417 128.206 127.845 
127.577 127.29 127.121 130.738 131.313 130.929 130.752 132.004 131.56 
131.423 130.999 130.911 132.892 132.384 132.278 131.761 131.71 131.285 
131.309 133.84 133.37 133.327 132.743 132.686 132.17 132.201 131.765 
131.773 134.769 134.343 134.381 133.836 133.765 133.2 133.179 132.697 
132.684 132.196 132.114 135.779 135.311 135.361 134.857 134.781 134.235 
134.142 133.652 133.595 133.109 133.007 132.499 132.418 136.848 136.347 
136.337 135.819 135.726 135.192 135.076 134.572 134.488 134.001 133.902 
133.393 133.297 132.829 132.812 137.83 137.369 137.317 136.786 136.672 
136.13 136.035 135.515 135.452 134.929 134.842 134.302 134.199 133.704 
133.658 133.235 133.234 138.658 138.277 138.243 137.744 137.626 137.085 
136.989 136.48 136.428 135.92 135.829 135.274 135.127 134.593 134.482 
134.043 134 133.613 133.58 139.082 139.593 139.152 138.694 140.055 
139.634 139.157 138.657 138.089 140.404 140.043 139.545 139.079 138.488 
137.998 137.439 140.497 140.273 139.74 139.372 138.743 138.325 137.746 
137.35 136.848 140.266 140.196 139.689 139.457 138.825 138.479 137.857 
137.543 137.017 136.718 136.207 139.919 139.878 139.453 139.334 138.802 
138.525 137.911 137.589 137.022 136.764 136.244 135.986 135.461 139.709 
139.596 139.207 139.105 138.671 138.487 137.955 137.656 137.078 136.766 
136.226 135.963 135.472 135.228 134.784 139.601 139.462 139.07 138.928 
138.507 138.352 137.879 137.666 137.136 136.847 136.302 135.994 135.508 
135.25 134.853 134.63 134.286 139.446 139.344 138.966 138.83 138.416 
138.235 137.772 137.571 137.088 136.865 136.37 136.095 135.616 135.337 
134.943 134.716 134.393 134.184 133.866 139.199 138.646 138.871 138.739 
138.058 138.31 138.198 138.403 138.215 137.416 137.703 137.59 137.832 
137.624 137.802 137.54 136.692 137.014 136.872 137.162 136.931 137.151 
136.86 137.071 136.82 135.881 136.223 136.042 136.37 136.127 136.399 
136.116 136.357 136.101 136.353 136.125 135.066 135.37 135.168 135.499 
135.271 135.572 135.325 135.598 135.372 135.634 135.421 135.661 135.427 
134.397 134.596 134.39 134.659 134.473 134.755 134.56 134.83 134.647 
134.917 134.746 134.989 134.797 134.996 134.791 133.898 134.008 133.799 
133.982 133.838 134.06 133.916 134.135 133.974 134.217 134.07 134.329 
134.169 134.394 134.212 134.41 134.238 133.476 133.55 133.334 133.472 
133.353 133.535 133.427 133.586 133.419 133.589 133.414 133.651 133.484 
133.743 133.55 133.794 133.602 133.849 133.685 133.265 133.134 132.962 
132.49 133.067 132.844 132.329 132.148 131.674 133.024 132.8 132.295 
132.047 131.56 131.368 130.906 132.992 132.77 132.295 132.044 131.579 
131.343 130.899 130.654 130.176 133.068 132.816 132.371 132.072 131.602 
131.36 130.941 130.716 130.279 129.985 129.536 133.149 132.956 132.583 
132.248 131.765 131.418 130.959 130.724 130.306 130.086 129.628 129.373 
128.958 133.082 132.987 132.679 132.467 132.035 131.667 131.162 130.802 
130.344 130.083 129.615 129.381 128.877 128.71 128.291 133.028 132.896 
132.607 132.484 132.135 131.896 131.432 131.066 130.573 130.211 129.746 
129.411 128.907 128.607 128.122 127.973 127.621 133.162 132.93 132.651 
132.459 132.173 131.971 131.599 131.298 130.833 130.474 130.023 129.657 
129.225 128.809 128.36 127.973 127.61 127.406 127.194 141.092 141.417 
141.356 141.499 141.741 141.706 141.885 141.739 141.696 141.849 141.948 
142.094 142.066 142.025 141.801 141.545 141.468 141.773 141.83 142.052 
142.019 142.02 141.815 141.564 141.263 140.868 141.171 141.208 141.562 
141.617 141.853 141.786 141.748 141.522 141.288 141.027 140.58 140.68 
140.769 140.994 141.184 141.455 141.585 141.682 141.58 141.459 141.206 
141.008 140.714 140.529 140.563 140.627 140.733 140.91 141.137 141.349 
141.528 141.539 141.494 141.268 141.101 140.801 140.612 140.272 140.294 
140.444 140.409 140.558 140.573 140.818 140.924 141.228 141.274 141.406 
141.231 141.137 140.839 140.669 140.358 140.151 139.808 139.793 140.041 
139.951 140.168 140.065 140.32 140.287 140.645 140.665 140.99 140.892 
141.002 140.738 140.668 140.346 140.205 139.873 139.682 139.332 140.94 
141.304 141.009 140.724 141.413 141.261 140.957 140.714 140.362 141.185 
141.158 140.806 140.757 140.388 140.236 139.824 140.904 140.844 140.452 
140.441 140.054 140.049 139.618 139.545 139.086 140.729 140.63 140.25 
140.131 139.731 139.664 139.235 139.193 138.74 138.707 138.283 140.443 
140.439 140.067 139.976 139.564 139.438 139.006 138.87 138.426 138.338 
137.944 137.923 137.573 139.966 140.034 139.618 139.655 139.218 139.219 
138.795 138.709 138.265 138.118 137.696 137.61 137.252 137.236 136.891 
139.478 139.514 139.064 139.101 138.651 138.732 138.341 138.403 137.999 
137.947 137.495 137.39 136.967 136.915 136.547 136.539 136.191 139.035 
139.054 138.622 138.596 138.163 138.182 137.824 137.902 137.555 137.59 
137.156 137.113 136.648 136.606 136.208 136.201 135.872 135.871 135.574 
140.659 140.389 140.395 140.144 140.043 140.061 139.738 139.817 139.627 
139.597 139.69 139.374 139.405 139.164 139.307 139.198 138.961 139.193 
138.947 139.036 138.764 138.86 138.679 138.874 138.748 138.207 138.506 
138.31 138.52 138.247 138.401 138.127 138.308 138.083 138.327 138.117 
137.502 137.776 137.583 137.819 137.557 137.776 137.494 137.691 137.412 
137.623 137.393 137.643 137.43 136.818 137.093 136.899 137.115 136.862 
137.068 136.83 137.037 136.799 136.977 136.749 136.954 136.777 137.003 
136.819 136.116 136.391 136.213 136.447 136.212 136.411 136.185 136.397 
136.196 136.39 136.165 136.346 136.135 136.362 136.184 136.414 136.211 
135.484 135.706 135.533 135.764 135.549 135.764 135.526 135.749 135.526 
135.761 135.531 135.74 135.495 135.709 135.492 135.741 135.543 135.782 
135.568 130.848 131.142 131.133 131.406 131.496 131.444 131.751 131.722 
132.073 132.048 131.913 132.24 132.13 132.495 132.466 132.905 132.647 
132.545 132.913 132.744 133.085 132.945 133.322 133.311 133.768 133.119 
133.092 133.503 133.426 133.797 133.626 133.953 133.789 134.173 134.163 
134.661 133.645 133.553 133.941 133.918 134.339 134.296 134.698 134.526 
134.904 134.715 135.196 135.151 135.727 134.306 134.144 134.473 134.362 
134.756 134.757 135.244 135.228 135.695 135.543 135.992 135.834 136.368 
136.306 136.859 134.878 134.773 135.069 134.931 135.276 135.212 135.689 
135.72 136.242 136.233 136.669 136.58 136.992 136.938 137.406 137.389 
137.839 135.276 135.244 135.543 135.474 135.811 135.751 136.189 136.192 
136.693 136.712 137.14 137.106 137.442 137.418 137.781 137.823 138.231 
138.265 138.636 
POINT_DATA 1002
SCALARS Distance double
LOOKUP_TABLE default
138.99 139.533 139.737 139.185 140.07 138.403 139.531 140.251 138.522 
137.788 139.558 139.819 138.725 137.774 137.123 138.963 139.067 138.583 
137.775 136.986 136.375 138.46 138.803 138.163 137.61 136.858 136.173 
135.554 138.565 139.011 138.067 137.486 136.774 136.046 135.396 134.802 
138.739 139.094 138.188 137.537 136.843 136.099 135.393 134.791 134.246 
138.571 138.885 138.052 137.465 136.923 136.304 135.564 134.895 134.34 
133.814 138.207 138.531 137.699 137.18 136.809 136.432 135.799 135.049 
134.436 133.92 133.414 140.117 140.327 140.491 140.563 140.53 140.546 
140.571 140.619 140.627 140.463 140.846 141.155 140.676 140.484 139.889 
141.284 141.722 140.855 140.557 140.096 139.357 141.317 141.759 140.817 
140.487 140.273 139.826 139.303 141.051 141.448 140.643 140.373 140.313 
140.166 139.761 139.38 140.882 141.149 140.677 140.573 140.566 140.495 
140.13 139.624 139.243 140.748 140.862 140.756 140.844 140.908 140.838 
140.471 139.846 139.292 138.92 140.425 140.513 139.943 140.167 139.497 
140.727 139.711 139.118 140.36 140.873 139.214 138.604 139.722 140.326 
140.83 138.545 137.893 139.055 139.506 140.091 140.513 137.725 137.217 
138.277 138.773 139.198 139.62 139.868 136.98 136.625 137.409 138.012 
138.506 138.752 138.968 139.178 136.338 136.004 136.652 137.194 137.847 
138.169 138.247 138.443 138.722 135.724 135.363 136.028 136.446 137.08 
137.594 137.739 137.822 138.079 138.363 137.892 137.682 137.056 137.391 
136.799 136.214 137.2 136.533 135.944 135.569 137.089 136.339 135.653 
135.275 134.944 136.736 136.05 135.279 134.809 134.504 134.008 136.16 
135.609 134.84 134.244 133.896 133.471 132.941 135.692 135.237 134.546 
133.843 133.377 132.985 132.506 132.077 135.346 134.943 134.385 133.677 
133.058 132.61 132.186 131.738 131.358 134.971 134.58 134.13 133.528 
132.845 132.262 131.818 131.417 131.01 130.648 137.418 136.571 136.887 
135.848 136.171 136.528 135.192 135.457 135.884 136.293 134.341 134.583 
134.983 135.519 135.829 133.317 133.659 134.003 134.477 134.899 135.064 
132.41 132.86 133.253 133.592 133.931 134.193 134.352 131.635 132.112 
132.596 132.913 133.162 133.431 133.664 133.827 130.852 131.278 131.81 
132.2 132.459 132.768 133.075 133.253 133.34 130.001 130.267 129.42 
129.763 128.987 130.785 129.373 128.499 130.341 131.326 128.852 127.84 
129.917 130.854 131.691 128.283 127.39 129.348 130.34 131.229 132.058 
128.044 127.321 128.902 129.745 130.686 131.68 132.487 127.908 127.255 
128.71 129.385 130.127 131.137 132.08 132.736 127.556 127.062 128.372 
129.167 129.824 130.641 131.549 132.248 132.797 127.273 127.003 127.919 
128.804 129.609 130.362 131.178 131.861 132.365 132.87 130.146 129.473 
129.675 129.024 129.258 128.915 128.497 128.887 128.377 128.398 127.943 
128.614 127.597 127.648 127.71 127.718 128.505 126.987 126.829 126.967 
127.061 127.778 128.446 126.981 126.536 126.572 126.673 126.855 127.727 
128.327 127.139 126.767 126.706 126.725 126.743 126.923 127.607 128.248 
127.109 126.941 127.009 126.998 126.869 126.828 126.912 127.704 128.314 
127.2 127.052 127.212 127.269 127.052 126.841 126.807 126.871 134.695 
134.255 134.009 133.47 133.278 133.798 132.601 132.398 132.908 133.277 
131.672 131.498 131.975 132.335 132.629 130.837 130.775 131.054 131.406 
131.682 131.926 130.157 130.154 130.213 130.491 130.798 130.999 131.339 
129.549 129.522 129.535 129.669 129.967 130.196 130.442 130.904 128.916 
128.885 128.962 129.035 129.207 129.439 129.674 130.026 130.52 135.34 
134.654 135.284 134.622 135.258 134.002 134.585 135.292 133.956 133.242 
134.539 135.305 133.837 133.142 132.298 134.514 135.292 133.747 133.061 
132.254 131.419 134.545 135.315 133.741 133.066 132.335 131.437 130.686 
134.596 135.33 133.751 133.017 132.387 131.54 130.619 129.977 134.644 
135.31 133.779 132.899 132.255 131.599 130.681 129.853 129.315 134.715 