# vtk DataFile Version 4.0
vtk output
ASCII
DATASET POLYDATA
POINTS 1002 float
-81.3053 -105.434 58.6366 -81.4038 -105.683 59.2735 -81.8132 -105.466 59.0225 
-81.7817 -105.26 58.2991 -82.1463 -105.247 58.7196 -81.2138 -105.205 57.9827 
-82.112 -104.988 57.956 -82.3586 -104.777 58.4476 -81.6669 -104.962 57.6558 
-81.0961 -104.914 57.3317 -82.313 -104.387 57.7054 -82.5615 -104.035 58.2403 
-81.924 -104.452 57.4024 -81.4063 -104.432 57.1242 -80.8326 -104.346 56.7519 
-82.6605 -103.755 57.4112 -83.008 -103.515 57.9144 -82.1842 -103.818 57.0973 
-81.6193 -103.774 56.8886 -81.041 -103.811 56.5249 -80.486 -103.759 56.1212 
-83.3131 -103.532 56.8326 -83.6598 -103.365 57.3296 -82.7751 -103.576 56.4667 
-82.0849 -103.458 56.273 -81.3714 -103.439 56.0284 -80.779 -103.493 55.6476 
-80.2265 -103.454 55.2971 -83.9413 -103.407 56.1503 -84.1949 -103.167 56.7064 
-83.5175 -103.568 55.6825 -82.8514 -103.532 55.3742 -82.0045 -103.426 55.205 
-81.2041 -103.341 55.0115 -80.5893 -103.223 54.7478 -79.9855 -103.104 54.4985 
-84.2665 -102.993 55.7397 -84.4869 -102.757 56.3263 -83.9684 -103.228 55.228 
-83.4405 -103.305 54.8202 -82.6501 -103.251 54.6026 -81.7328 -103.113 54.5047 
-80.9246 -102.867 54.3538 -80.2699 -102.651 54.1411 -79.6647 -102.584 53.9205 
-84.3802 -102.396 55.6075 -84.5853 -102.25 56.1809 -84.1427 -102.613 55.1136 
-83.6884 -102.697 54.7159 -82.9707 -102.637 54.4833 -82.1432 -102.574 54.3624 
-81.3463 -102.459 54.1522 -80.6059 -102.271 53.8725 -79.9344 -102.18 53.6389 
-79.3948 -102.257 53.4056 -84.4063 -101.759 55.5392 -84.5528 -101.696 56.0924 
-84.2312 -101.967 55.0536 -83.8448 -102.11 54.6573 -83.1497 -102.045 54.4195 
-82.356 -101.964 54.2984 -81.7242 -102.03 54.0168 -81.1595 -102.107 53.5474 
-80.4797 -102.092 53.1958 -79.7961 -102.084 53.0214 -79.2943 -102.18 52.8293 
-81.6588 -105.655 59.885 -81.9874 -105.404 59.6862 -81.7388 -105.443 60.6931 
-82.0575 -105.148 60.5274 -81.8767 -105.224 61.5598 -82.2603 -105.041 59.436 
-82.2058 -104.881 61.3034 -82.2391 -105.147 62.2987 -82.3119 -104.663 60.2085 
-82.4429 -104.376 59.1539 -82.3776 -104.616 61.8677 -82.4992 -104.95 62.8251 
-82.4124 -104.325 60.7709 -82.5353 -104 59.7447 -82.7235 -103.677 58.8469 
-82.3831 -104.13 62.2759 -82.4714 -104.439 63.155 -82.5356 -103.907 61.2334 
-82.802 -103.748 60.17 -83.0022 -103.533 59.2971 -83.2988 -103.366 58.4135 
-82.5358 -103.657 62.575 -82.6152 -103.911 63.4486 -82.7557 -103.476 61.677 
-83.2327 -103.423 60.7006 -83.5009 -103.381 59.7393 -83.676 -103.283 58.8584 
-83.9703 -103.206 57.8187 -83.144 -103.5 62.8891 -83.1356 -103.598 63.8368 
-83.3015 -103.434 61.9616 -83.7537 -103.329 61.1584 -84.0351 -103.147 60.2446 
-84.1063 -103.005 59.2862 -84.3079 -102.961 58.3147 -84.498 -102.902 57.2604 
-83.7975 -103.421 63.2664 -83.6414 -103.399 64.1561 -83.9314 -103.518 62.1981 
-84.2597 -103.487 61.3697 -84.4657 -103.138 60.5834 -84.4491 -102.73 59.6137 
-84.6143 -102.623 58.6728 -84.8535 -102.661 57.7954 -84.8075 -102.533 56.929 
-84.0714 -103.177 63.5225 -83.8673 -103.168 64.2134 -84.1752 -103.268 62.4656 
-84.4546 -103.312 61.5429 -84.7291 -103.056 60.8207 -84.7475 -102.584 59.917 
-84.8535 -102.349 58.9266 -85.1435 -102.428 58.151 -85.1571 -102.411 57.4826 
-84.8439 -102.104 56.7771 -84.0413 -102.776 63.7769 -84.0532 -102.733 62.8986 
-83.9992 -102.154 63.1623 -83.9207 -102.032 62.1805 -83.9967 -101.449 62.5023 
-84.1947 -102.703 61.8751 -84.1212 -101.337 61.5825 -84.172 -100.84 61.9159 
-84.2803 -101.867 61.3616 -84.6469 -102.561 61.13 -84.5619 -100.775 61.1012 
-84.3103 -100.339 61.323 -84.7069 -101.216 60.9005 -84.941 -101.691 60.7346 
-84.9814 -102.253 60.3474 -84.7105 -100.21 60.5476 -84.2805 -99.8847 60.6364 
-85.0047 -100.728 60.3123 -85.2709 -101.155 60.1344 -85.3519 -101.585 59.7974 
-85.1368 -102.04 59.276 -84.5539 -99.617 59.9725 -84.2335 -99.3442 60.0649 
-84.8542 -100.094 59.6705 -85.233 -100.602 59.3613 -85.5408 -101.032 59.1207 
-85.5568 -101.58 58.749 -85.3807 -102.108 58.3744 -84.375 -99.0448 59.5286 
-84.2007 -98.6506 59.7209 -84.5658 -99.46 59.1815 -84.9648 -99.8755 58.7554 
-85.4 -100.233 58.486 -85.55 -100.781 58.3091 -85.4901 -101.558 58.0596 
-85.3708 -102.146 57.7786 -84.2001 -98.4807 59.0683 -84.09 -98.0071 59.3361 
-84.277 -98.9651 58.7207 -84.6124 -99.3549 58.3206 -85.0997 -99.5714 58.0176 
-85.2697 -99.8632 57.8655 -85.1256 -100.545 57.7152 -85.0148 -101.343 57.4711 
-84.9628 -101.849 57.1469 -84.0299 -97.9608 58.4416 -83.9085 -97.6184 58.7271 
-84.0197 -98.4379 58.103 -84.1688 -98.9376 57.7729 -84.5765 -99.2507 57.526 
-84.8755 -99.396 57.3493 -84.824 -99.7369 57.1526 -84.6649 -100.363 56.914 
-84.6071 -100.955 56.6592 -84.5956 -101.362 56.3828 -84.446 -101.077 55.5645 
-84.5332 -100.647 55.6897 -84.439 -100.509 54.96 -84.6467 -100.241 55.8036 
-84.7269 -100.094 54.8797 -84.215 -100.074 54.4894 -84.6891 -99.7649 56.0248 
-84.9539 -99.7342 54.8265 -84.6041 -99.667 54.2758 -83.5305 -99.644 54.2237 
-84.5689 -99.3354 56.3719 -84.7216 -99.251 55.0686 -84.7291 -99.1619 54.1631 
-83.8066 -99.1157 53.993 -82.8016 -99.0732 53.8528 -84.3006 -99.0785 56.6552 
-84.1976 -98.7716 55.5068 -84.2829 -98.4937 54.4488 -83.8084 -98.4436 53.9836 
-82.9295 -98.4421 53.7493 -82.45 -98.3873 53.2101 -84.0143 -98.7273 56.8418 
-83.9409 -98.3299 55.82 -83.9337 -97.9366 54.8516 -83.5727 -97.8326 54.292 
-82.876 -97.8796 53.9514 -82.4112 -97.7904 53.3104 -82.1941 -97.6982 52.5701 
-83.8975 -98.1628 57.1154 -83.9679 -97.7299 56.1261 -84.0506 -97.4019 55.1968 
-83.6248 -97.3996 54.5595 -82.7534 -97.5064 54.2283 -82.1801 -97.4058 53.6249 
-82.0083 -97.1682 52.7252 -81.7918 -97.0784 52.1244 -83.9245 -97.6859 57.4904 
-83.9775 -97.2141 56.5935 -84.0847 -96.8501 55.7419 -83.7267 -96.9214 54.9074 
-82.7456 -97.1456 54.349 -81.9017 -97.0815 53.8549 -81.6769 -96.7873 53 
-81.64 -96.5396 52.1645 -81.4398 -96.4973 51.7895 -83.8466 -97.4724 57.829 
-83.8207 -97.1023 57.0339 -83.7842 -96.6623 56.3753 -83.4528 -96.5712 55.536 
-82.6419 -96.753 54.6191 -81.7738 -96.7027 53.9739 -81.4024 -96.3692 53.3077 
-81.4126 -96.0514 52.4281 -81.3904 -95.8826 51.7549 -81.2406 -95.9003 51.4848 
-84.3179 -101.221 55.0495 -84.0796 -100.726 54.5756 -84.0293 -101.495 54.5915 
-83.479 -100.264 54.2738 -83.5762 -101.025 54.1435 -83.4422 -101.618 54.2168 
-82.7915 -99.7354 53.9387 -82.9709 -100.498 53.7629 -82.9257 -101.152 53.699 
-82.6041 -101.546 54.0087 -82.4677 -99.1048 53.2469 -82.5702 -99.8958 53.2296 
-82.4735 -100.606 53.1838 -82.1521 -101.159 53.3747 -81.9186 -101.607 53.7409 
-82.2673 -98.4215 52.4864 -82.3275 -99.2952 52.5296 -82.1361 -100.006 52.6811 
-81.7754 -100.642 52.8308 -81.6528 -101.37 52.925 -81.5465 -101.899 53.157 
-81.8176 -97.7592 52.0666 -81.8925 -98.712 52.0212 -81.79 -99.5053 52.1547 
-81.4214 -100.044 52.4373 -81.3071 -100.836 52.426 -81.3932 -101.74 52.2929 
-81.0704 -102.119 52.5984 -81.3525 -97.1396 51.8503 -81.3701 -98.0947 51.772 
-81.4217 -99.0386 51.6558 -81.191 -99.6073 51.8631 -80.9241 -100.164 52.0924 
-80.9727 -101.103 51.9366 -80.8633 -101.896 51.9094 -80.3258 -102.111 52.395 
-81.1269 -96.5313 51.5758 -81.0553 -97.4476 51.5428 -81.1108 -98.4673 51.2901 
-81.0347 -99.2275 51.23 -80.6946 -99.7207 51.5425 -80.4659 -100.363 51.7333 
-80.3897 -101.185 51.69 -80.0914 -101.784 51.8679 -79.6241 -102.045 52.342 
-81.0257 -95.6711 51.2057 -80.9194 -96.5572 51.2356 -80.6917 -95.7258 50.9105 
-80.4883 -96.8629 50.9213 -80.0312 -96.2461 50.8227 -80.8216 -97.6472 51.0955 
-79.5889 -97.4664 50.993 -79.1098 -97.0711 51.0211 -80.1884 -97.9681 50.9254 
-80.737 -98.6386 50.9059 -78.572 -98.1318 51.136 -78.2308 -97.805 51.0839 
-79.1132 -98.3886 51.0994 -79.8672 -98.8505 50.9687 -80.4404 -99.3596 51.0486 
-77.8097 -98.6393 50.714 -77.4264 -98.249 50.8382 -78.1823 -98.8249 50.69 
-78.7801 -99.1648 50.888 -79.4815 -99.6186 51.1139 -80.019 -99.9479 51.4053 
-77.1354 -98.9308 50.1797 -76.6743 -98.4303 50.7465 -77.5384 -99.1814 49.6808 
-77.9687 -99.4708 49.9535 -78.5357 -99.901 50.7729 -79.1603 -100.212 51.3588 
-79.7812 -100.567 51.5938 -76.5097 -99.0404 50.2877 -76.1621 -98.5096 51.0379 
-76.9216 -99.3816 49.3998 -77.3484 -99.6096 49.2542 -77.8111 -99.953 50.1934 
-78.3653 -100.313 51.2074 -78.9925 -100.665 51.6043 -79.5961 -101.206 51.7033 
-76.0571 -99.1212 50.8635 -75.8482 -98.6852 51.4688 -76.3573 -99.497 50.1127 
-76.7715 -99.6937 49.7584 -77.2213 -99.875 50.3249 -77.6844 -100.241 51.2445 
-78.2562 -100.751 51.6528 -78.853 -101.304 51.7245 -79.3046 -101.786 51.9411 
-75.6711 -99.2747 51.4438 -75.4667 -98.9765 51.8361 -75.8809 -99.6334 51.0064 
-76.2108 -99.9114 50.739 -76.6657 -100.059 50.9776 -77.0919 -100.328 51.5332 
-77.5541 -100.925 51.7601 -78.1621 -101.616 51.6694 -78.7083 -102.068 51.8085 
-79.0441 -102.214 52.2833 -81.1127 -95.1987 51.3731 -80.7855 -94.8888 51.059 
-80.7702 -94.5678 51.5807 -80.2725 -94.4095 51.237 -80.2986 -94.2641 52.1188 
-80.2979 -95.0207 50.8473 -79.7848 -94.5351 51.7205 -79.912 -94.3746 52.7769 
-79.7535 -94.7977 51.089 -79.5958 -95.7081 50.8956 -79.576 -95.0596 52.3528 
-79.6427 -94.7607 53.3529 -79.3912 -95.2314 51.5785 -79.1522 -95.5597 51.1774 
-78.7462 -96.5905 51.0462 -79.3729 -95.5244 52.9813 -79.3408 -95.3469 53.7548 
-79.1802 -95.83 52.1902 -78.7954 -95.8784 51.6378 -78.3154 -96.2635 51.1656 
-77.81 -97.2585 50.9667 -78.8628 -95.8801 53.5133 -78.9122 -95.9967 54.112 
-78.7294 -96.1285 52.7848 -78.3986 -96.2759 52.2191 -77.8688 -96.3143 51.5726 
-77.2728 -96.7757 50.9897 -76.8522 -97.6298 50.8724 -78.2024 -96.2183 54.0932 
-78.4226 -96.4451 54.6614 -78.0454 -96.277 53.3624 -77.8817 -96.5042 52.7937 
-77.5045 -96.6033 52.2672 -76.8885 -96.7276 51.5235 -76.3701 -97.1559 51.1025 
-76.1748 -97.8252 51.1321 -77.6992 -96.4817 54.8353 -78.0324 -96.6524 55.3734 
-77.4665 -96.4567 54.1004 -77.378 -96.6669 53.4168 -77.1875 -96.8763 52.9703 
-76.6906 -96.9812 52.4017 -76.1604 -97.1456 51.7908 -75.9098 -97.5123 51.5987 
-75.867 -98.0769 51.609 -77.4367 -96.6609 55.5836 -77.8196 -96.7794 56.037 
-77.1269 -96.6302 54.9527 -76.9912 -96.823 54.2116 -76.8456 -97.0571 53.6586 
[...]
CELL_DATA 2000
SCALARS Distance double
LOOKUP_TABLE default
144.803 144.764 144.64 144.326 144.574 144.562 144.262 144.149 143.808 
144.158 144.264 143.965 143.975 143.598 143.544 143.119 143.783 143.832 
143.556 143.583 143.196 143.201 142.764 142.736 142.268 143.707 143.619 
143.399 143.286 142.956 142.839 142.453 142.374 141.984 141.907 141.507 
143.695 143.629 143.435 143.292 143.014 142.79 142.443 142.223 141.863 
141.704 141.338 141.218 140.825 143.491 143.517 143.297 143.281 142.989 
142.865 142.484 142.286 141.859 141.657 141.207 141.048 140.592 140.49 
140.054 143.145 143.202 142.944 143.013 142.699 142.691 142.261 142.178 
141.694 141.573 141.075 140.911 140.412 140.252 139.806 139.71 139.355 
142.722 142.791 142.509 142.605 142.311 142.336 141.918 141.852 141.365 
141.29 140.844 140.75 140.345 140.17 139.795 139.59 139.283 139.144 
138.92 145.091 145.396 145.188 145.024 145.632 145.437 145.266 145.061 
144.813 145.949 145.669 145.429 145.221 144.921 144.719 144.374 146.226 
145.941 145.565 145.333 144.97 144.767 144.424 144.234 143.969 146.167 
146.009 145.544 145.385 145.023 144.84 144.561 144.349 144.162 143.973 
143.875 145.991 145.832 145.449 145.319 145.091 144.955 144.807 144.597 
144.474 144.252 144.161 143.973 143.872 146.138 145.858 145.664 145.413 
145.367 145.175 145.142 144.91 144.785 144.559 144.422 144.246 144.101 
143.915 143.713 146.472 146.22 146.118 145.842 145.837 145.613 145.573 
145.295 145.074 144.796 144.57 144.422 144.285 144.14 143.953 143.711 
143.433 146.597 146.506 146.334 146.199 146.055 145.969 145.821 145.649 
145.331 145.034 144.698 144.512 144.378 144.3 144.198 143.995 143.727 
143.407 143.05 146.473 145.914 146.217 146.17 145.123 145.489 145.471 
145.849 145.87 144.466 144.732 144.722 145.096 145.211 145.607 145.645 
143.989 144.22 144.268 144.503 144.625 144.959 145.043 145.333 145.19 
143.429 143.755 143.838 144.12 144.212 144.481 144.54 144.768 144.687 
144.819 144.623 142.76 143.12 143.146 143.539 143.567 143.959 143.971 
144.282 144.248 144.424 144.359 144.426 144.367 142.102 142.43 142.399 
142.755 142.728 143.148 143.126 143.557 143.518 143.898 143.867 144.152 
144.118 144.267 144.175 141.436 141.758 141.707 142.021 141.973 142.324 
142.296 142.678 142.615 143.024 142.938 143.402 143.316 143.747 143.591 
143.871 143.625 140.763 141.066 140.981 141.3 141.222 141.581 141.544 
141.908 141.839 142.164 142.031 142.397 142.267 142.722 142.575 143.013 
142.792 143.124 142.869 142.391 142.233 142.087 141.671 142.024 141.904 
141.494 141.407 141.054 141.774 141.678 141.315 141.251 140.911 140.801 
140.374 141.57 141.443 141.035 141.003 140.629 140.601 140.121 140.004 
139.452 141.383 141.247 140.723 140.638 140.133 140.157 139.646 139.638 
139.058 138.99 138.449 141.081 140.989 140.421 140.291 139.715 139.641 
139.14 139.121 138.633 138.578 138.06 138 137.528 140.743 140.639 
140.097 139.972 139.453 139.326 138.881 138.768 138.351 138.235 137.772 
137.652 137.155 137.092 136.65 140.527 140.367 139.871 139.706 139.256 
139.128 138.731 138.611 138.18 138.033 137.525 137.379 136.838 136.734 
136.236 136.215 135.825 140.383 140.232 139.801 139.6 139.185 139.006 
138.611 138.464 138.005 137.841 137.279 137.109 136.525 136.4 135.876 
135.817 135.388 135.417 135.101 142.338 141.681 142.044 142.147 141.036 
141.399 141.504 141.888 141.956 140.291 140.7 140.755 141.195 141.236 
141.612 141.549 139.391 139.86 139.893 140.379 140.408 140.825 140.742 
141.09 140.972 138.45 138.929 138.999 139.494 139.543 139.971 139.92 
140.274 140.193 140.542 140.489 137.544 138.016 138.121 138.624 138.702 
139.125 139.098 139.464 139.455 139.829 139.862 140.172 140.122 136.668 
137.125 137.236 137.76 137.882 138.321 138.31 138.664 138.669 139.094 
139.217 139.61 139.638 139.839 139.686 135.87 136.278 136.391 136.892 
137.066 137.533 137.589 137.927 137.909 138.297 138.402 138.897 139.003 
139.35 139.248 139.382 139.184 135.179 135.539 135.657 136.1 136.298 
136.763 136.9 137.26 137.267 137.578 137.602 138.038 138.132 138.601 
138.588 138.888 138.741 138.902 138.777 134.828 134.527 134.887 135.356 
134.365 134.666 135.171 135.5 135.998 134.363 134.571 135.026 135.324 
135.795 136.141 136.577 134.398 134.569 134.896 135.144 135.528 135.88 
136.279 136.63 136.96 134.258 134.487 134.675 134.913 135.172 135.538 
135.908 136.296 136.645 136.958 137.289 133.945 134.208 134.313 134.551 
134.689 135.072 135.412 135.882 136.267 136.642 136.989 137.324 137.73 
133.716 133.896 134.008 134.163 134.257 134.546 134.849 135.333 135.769 
136.234 136.61 136.991 137.358 137.763 138.152 133.72 133.783 133.946 
133.991 134.136 134.246 134.537 134.851 135.315 135.748 136.209 136.606 
137.005 137.377 137.751 138.122 138.411 133.844 133.867 134.047 134.063 
134.27 134.297 134.6 134.73 135.167 135.437 135.936 136.274 136.754 
137.087 137.514 137.806 138.134 138.369 138.574 134.486 133.84 134.103 
134.085 133.362 133.47 133.389 133.741 133.882 133.295 133.176 133.061 
133.166 133.294 133.658 133.933 133.606 133.368 133.312 133.123 133.171 
133.237 133.459 133.791 134.05 134.002 133.797 133.806 133.559 133.508 
133.308 133.29 133.375 133.493 133.837 133.956 134.306 134.134 134.072 
133.949 133.839 133.644 133.425 133.27 133.107 133.246 133.256 133.622 
133.662 134.537 134.335 134.135 134.043 133.907 133.825 133.635 133.429 
133.156 132.989 132.844 132.973 133.036 133.358 133.462 134.758 134.515 
134.259 134.08 133.939 133.858 133.785 133.643 133.478 133.198 133.01 
132.824 132.838 132.921 133.114 133.333 133.524 135.003 134.745 134.51 
134.267 134.13 133.981 133.947 133.833 133.751 133.538 133.374 133.127 
133.075 132.972 133.126 133.185 133.411 133.532 133.706 140.156 139.663 
139.832 139.628 139.092 139.314 139.131 139.277 139.035 138.417 138.672 
138.49 138.727 138.489 138.652 138.406 137.779 137.974 137.757 138.017 
137.779 138.013 137.711 137.942 137.687 137.231 137.374 137.087 137.275 
136.987 137.23 136.9 137.147 136.808 137.118 136.873 136.638 136.815 
136.475 136.604 136.189 136.384 135.997 136.27 135.917 136.209 135.917 
136.272 136.094 136.038 136.209 135.905 135.994 135.525 135.592 135.113 
135.325 134.974 135.294 135.023 135.354 135.157 135.542 135.45 135.586 
135.681 135.438 135.491 135.115 135.06 134.603 134.59 134.234 134.407 
134.17 134.465 134.278 134.638 134.539 134.965 134.963 135.258 135.297 
135.054 135.1 134.825 134.787 134.469 134.34 134.045 133.952 133.719 
133.764 133.577 133.796 133.7 134.082 134.115 134.569 134.678 140.353 
140.412 140.205 139.839 140.499 140.262 139.899 139.683 139.285 140.644 
140.372 139.994 139.758 139.362 139.105 138.656 140.777 140.491 140.04 
139.816 139.395 139.177 138.737 138.473 138.039 140.949 140.619 140.095 
139.803 139.308 139.125 138.689 138.519 138.094 137.879 137.476 141.15 
140.833 140.329 139.921 139.374 139.053 138.602 138.421 138.024 137.867 
137.443 137.267 136.845 141.201 141 140.555 140.201 139.677 139.258 
138.788 138.453 138.073 137.825 137.429 137.204 136.778 136.595 136.217 
141.104 140.975 140.568 140.349 139.886 139.567 139.113 138.753 138.355 
138.009 137.631 137.299 136.914 136.619 136.277 136.058 135.784 141.028 
140.887 140.53 140.34 139.948 139.712 139.315 139.035 138.637 138.317 
137.922 137.582 137.207 136.871 136.54 136.241 135.968 135.729 135.492 
140.923 140.677 140.678 140.426 140.424 140.428 140.138 140.135 139.846 
140.03 140.093 139.773 139.814 139.483 139.519 139.222 139.528 139.598 
139.231 139.343 138.994 139.094 138.758 138.851 138.546 139.06 139.082 
138.679 138.758 138.401 138.526 138.182 138.315 137.989 138.128 137.823 
138.615 138.638 138.242 138.262 137.896 137.956 137.607 137.707 137.37 
137.52 137.231 137.397 137.12 138.154 138.204 137.854 137.869 137.509 
137.516 137.141 137.17 136.789 136.888 136.575 136.768 136.533 136.719 
136.475 137.732 137.784 137.488 137.509 137.174 137.16 136.778 136.752 
136.339 136.346 135.974 136.103 135.854 136.09 135.905 136.103 135.895 
137.338 137.397 137.125 137.164 136.849 136.838 136.47 136.425 136.037 
135.977 135.607 135.596 135.319 135.447 135.283 135.504 135.362 135.554 
135.39 137.008 136.363 136.732 136.79 135.71 136.061 136.135 136.495 
136.515 135.253 135.497 135.553 135.84 135.859 136.174 136.139 134.851 
135.123 135.157 135.343 135.307 135.536 135.497 135.786 135.729 134.238 
134.643 134.687 134.93 134.805 134.996 134.903 135.176 135.138 135.402 
135.34 133.686 134.009 134.088 134.362 134.209 134.409 134.259 134.562 
134.563 134.866 134.855 135.064 135.054 133.546 133.636 133.714 133.843 
133.734 133.827 133.691 133.923 133.987 134.324 134.425 134.653 134.679 
134.87 134.971 133.647 133.613 133.601 133.611 133.512 133.505 133.412 
133.504 133.605 133.856 134.042 134.274 134.354 134.53 134.601 134.851 
135.02 133.724 133.661 133.522 133.496 133.326 133.332 133.234 133.321 
133.409 133.601 133.779 133.969 134.056 134.208 134.248 134.465 134.59 
134.896 135.073 137.054 137.017 136.807 136.392 137.179 136.832 136.342 
136.111 135.731 137.458 137.07 136.564 136.182 135.732 135.512 135.246 
137.636 137.315 136.845 136.481 136.002 135.635 135.217 135.049 134.783 
137.771 137.432 136.956 136.69 136.26 135.936 135.431 135.079 134.579 
134.451 134.115 138.086 137.632 137.106 136.769 136.363 136.12 135.717 
135.352 134.808 134.388 133.912 133.767 133.567 138.501 138.036 137.511 
137.036 136.594 136.259 135.959 135.66 135.308 134.821 134.377 133.889 
133.645 133.468 133.496 138.827 138.446 137.991 137.521 137.086 136.634 
136.326 135.987 135.762 135.382 135.077 134.559 134.272 133.846 133.785 
133.612 133.697 139.086 138.757 138.376 137.991 137.619 137.184 136.861 
136.456 136.203 135.849 135.593 135.201 134.918 134.507 134.325 134.029 
134.003 133.843 133.858 137.436 138.104 137.645 137.472 138.978 138.422 
138.268 137.777 137.668 139.961 139.384 139.227 138.666 138.562 138.055 
137.953 140.838 140.363 140.253 139.693 139.596 139.025 138.907 138.342 
138.168 141.566 141.19 141.164 140.702 140.653 140.106 139.999 139.372 
139.185 138.546 138.353 142.322 141.945 141.977 141.572 141.567 141.11 
141.032 140.468 140.289 139.634 139.435 138.794 138.665 143.172 142.776 
142.838 142.415 142.415 141.971 141.905 141.423 141.281 140.71 140.514 
139.894 139.724 139.136 139.023 143.987 143.63 143.692 143.295 143.277 
142.82 142.723 142.252 142.131 141.641 141.483 140.927 140.731 140.148 
139.964 139.427 139.286 144.665 144.367 144.392 144.073 144.029 143.63 
143.486 143.036 142.872 142.437 142.285 141.82 141.624 141.091 140.864 
140.32 140.128 139.632 139.502 144.994 145.334 145.014 144.71 145.644 
145.324 144.978 144.684 144.322 145.863 145.58 145.163 144.88 144.456 
144.191 143.754 145.819 145.667 145.218 144.997 144.529 144.27 143.811 
143.559 143.127 145.53 145.473 145.062 144.96 144.533 144.324 143.849 
143.595 143.148 142.932 142.525 145.312 145.198 144.835 144.757 144.409 
144.288 143.843 143.614 143.111 142.9 142.453 142.295 141.859 145.276 
145.109 144.754 144.594 144.251 144.145 143.758 143.577 143.075 142.838 
142.346 142.172 141.735 141.58 141.118 145.195 145.093 144.72 144.549 
144.147 144.01 143.635 143.49 143.056 142.822 142.347 142.108 141.683 
141.483 141.065 140.855 140.409 144.96 144.931 144.56 144.451 144.031 
143.899 143.509 143.384 142.993 142.81 142.369 142.14 141.711 141.493 
141.092 140.864 140.447 140.202 139.791 144.7 144.186 144.397 144.286 
143.68 143.88 143.74 143.935 143.789 143.03 143.327 143.181 143.395 
143.23 143.429 143.282 142.178 142.557 142.415 142.743 142.554 142.828 
142.646 142.901 142.738 141.37 141.681 141.518 141.873 141.689 142.042 
141.833 142.163 141.966 142.286 142.1 140.668 140.924 140.718 141.001 
140.824 141.157 140.975 141.298 141.095 141.433 141.266 141.613 141.453 
139.927 140.206 139.978 140.233 140.027 140.334 140.186 140.493 140.318 
140.595 140.429 140.761 140.645 140.989 140.845 139.263 139.491 139.311 
139.519 139.308 139.56 139.411 139.729 139.594 139.875 139.7 139.976 
139.834 140.171 140.045 140.376 140.205 138.828 138.96 138.852 138.974 
138.811 138.937 138.773 138.994 138.867 139.149 138.996 139.265 139.095 
139.388 139.246 139.567 139.417 139.724 139.555 139.118 138.967 138.837 
138.424 138.809 138.68 138.271 138.145 137.725 138.659 138.516 138.102 
137.986 137.583 137.448 137.019 138.543 138.377 137.927 137.795 137.373 
137.276 136.855 136.734 136.323 138.457 138.286 137.841 137.647 137.197 
137.054 136.623 136.521 136.101 136.024 135.649 138.466 138.277 137.924 
137.658 137.235 136.967 136.544 136.343 135.942 135.802 135.43 135.355 
135.016 138.57 138.389 138.12 137.843 137.453 137.11 136.676 136.378 
135.987 135.752 135.397 135.215 134.904 134.78 134.5 138.624 138.506 
138.246 138.04 137.64 137.329 136.836 136.526 136.074 135.833 135.449 
135.247 134.915 134.753 134.494 134.364 134.163 138.61 138.514 138.244 
138.094 137.692 137.444 136.932 136.636 136.119 135.868 135.415 135.237 
134.859 134.74 134.454 134.371 134.17 134.093 133.947 146.628 146.537 
146.602 146.478 146.339 146.486 146.492 146.419 146.293 146.383 146.451 
146.604 146.499 146.44 146.308 146.31 146.641 146.698 146.941 146.779 
146.727 146.493 146.434 146.384 146.465 146.604 146.861 147.11 147.134 
147.095 146.85 146.683 146.5 146.493 146.508 146.555 146.159 146.528 
146.716 147.041 147.101 147.132 147.005 146.801 146.685 146.56 146.568 
146.548 146.507 145.746 145.993 146.103 146.458 146.582 146.901 146.94 
147.014 146.923 146.798 146.687 146.582 146.489 146.434 146.27 145.501 
145.656 145.714 145.915 145.97 146.283 146.351 146.689 146.687 146.848 
146.703 146.667 146.446 146.373 146.138 146.09 145.818 145.197 145.399 
145.426 145.586 145.539 145.723 145.663 145.979 145.96 146.33 146.246 
146.459 146.227 146.251 145.95 145.911 145.615 145.571 145.27 146.536 
146.332 146.363 146.112 146.144 146.123 145.888 145.845 145.526 146.254 
146.102 145.933 145.739 145.474 145.304 144.998 146.463 146.325 146.181 
145.941 145.685 145.412 145.1 144.857 144.524 146.477 146.427 146.167 
146.058 145.701 145.568 145.19 144.996 144.581 144.353 143.927 146.351 
146.314 145.921 145.823 145.335 145.321 144.92 144.923 144.515 144.367 
143.878 143.666 143.199 146.117 146.126 145.735 145.567 145.039 144.905 
144.511 144.541 144.244 144.216 143.786 143.596 143.09 142.906 142.493 
145.685 145.805 145.482 145.403 144.926 144.729 144.307 144.223 143.943 
143.935 143.579 143.459 142.959 142.782 142.325 142.221 141.893 145.124 
145.292 145.005 145.076 144.668 144.596 144.156 144.064 143.708 143.672 
143.311 143.226 142.753 142.606 142.138 142.034 141.689 141.652 141.395 
146.442 146.074 146.231 145.958 145.493 145.774 145.628 145.656 145.245 
144.887 145.16 145.076 145.263 144.979 144.934 144.545 144.347 144.569 
144.447 144.68 144.464 144.576 144.233 144.248 143.937 143.747 143.996 
143.844 144.073 143.867 144.025 143.726 143.822 143.505 143.605 143.331 
143.037 143.324 143.177 143.448 143.265 143.456 143.201 143.313 143.024 
143.12 142.849 142.96 142.698 142.373 142.624 142.497 142.763 142.614 
142.845 142.637 142.802 142.538 142.648 142.359 142.464 142.189 142.311 
142.046 141.823 142.031 141.934 142.15 142.029 142.227 142.043 142.22 
141.976 142.128 141.825 141.946 141.622 141.76 141.475 141.638 141.373 
141.333 141.52 141.432 141.639 141.536 141.712 141.526 141.66 141.399 
141.537 141.245 141.381 141.066 141.186 140.892 141.043 140.801 140.967 
140.727 137.587 138.008 137.922 138.231 138.49 138.396 138.762 138.683 
139.111 139.006 138.931 139.329 139.255 139.7 139.635 140.079 139.488 
139.456 139.861 139.809 140.208 140.173 140.567 140.537 140.894 139.945 
139.927 140.346 140.311 140.673 140.622 140.95 140.929 141.252 141.246 
141.566 140.372 140.357 140.748 140.754 141.129 141.083 141.402 141.321 
141.639 141.591 141.94 141.921 142.299 140.693 140.704 141.009 141.068 
141.433 141.488 141.854 141.814 142.158 142.063 142.44 142.365 142.778 
142.73 143.15 140.923 140.942 141.203 141.258 141.604 141.72 142.145 
142.224 142.63 142.603 142.994 142.925 143.348 143.276 143.697 143.619 
143.998 141.158 141.159 141.433 141.456 141.816 141.908 142.377 142.497 
142.957 143.011 143.401 143.411 143.811 143.817 144.234 144.187 144.55 
144.439 144.727 
POINT_DATA 1002
SCALARS Distance double
LOOKUP_TABLE default
144.484 144.977 144.948 144.49 144.855 144.005 144.343 144.527 143.953 
143.468 143.923 144.025 143.629 143.211 142.678 143.549 143.777 143.198 
142.763 142.318 141.808 143.535 143.812 143.113 142.557 142.041 141.595 
141.118 143.542 143.735 143.23 142.701 142.073 141.479 140.942 140.417 
143.276 143.465 143.073 142.666 142.086 141.421 140.722 140.111 139.634 
142.866 143.105 142.691 142.334 141.784 141.213 140.591 139.923 139.385 
139.046 142.402 142.659 142.26 141.983 141.439 140.873 140.447 139.998 
139.464 139.001 138.713 145.348 145.27 145.573 145.471 145.853 145.06 
145.685 146.312 145.134 144.571 145.829 146.54 145.182 144.596 144.106 
145.659 146.303 145.147 144.743 144.345 144.038 145.537 146.136 145.152 
144.977 144.703 144.375 144.072 145.904 146.376 145.553 145.399 145.052 
144.6 144.292 143.941 146.381 146.661 146.071 145.889 145.434 144.738 
144.376 144.19 143.729 146.477 146.653 146.148 145.95 145.627 144.932 
144.424 144.337 144.067 143.387 146.289 145.888 145.566 145.015 144.79 
145.513 144.392 144.217 144.76 145.361 144.053 143.698 144.36 144.758 
145.014 143.515 143.075 143.949 144.328 144.536 144.515 142.771 142.433 
143.153 143.602 143.984 144.225 144.341 142.085 141.79 142.341 142.69 
143.086 143.485 143.893 144.123 141.4 141.119 141.637 141.942 142.258 
142.5 142.83 143.226 143.423 140.68 140.49 140.865 141.166 141.525 
141.733 141.861 142.11 142.391 142.562 141.952 141.749 141.312 141.575 
141.16 140.691 141.353 141.022 140.553 139.878 141.118 140.638 140.23 
139.58 138.9 140.892 140.161 139.604 139.105 138.489 137.959 140.551 
139.823 139.162 138.655 138.139 137.552 137.075 140.199 139.542 138.995 
138.487 137.912 137.265 136.649 136.227 140.037 139.378 138.848 138.352 
137.702 136.961 136.288 135.771 135.479 139.981 139.385 138.792 138.194 
137.471 136.665 135.95 135.392 135.002 134.822 141.779 141.105 141.628 
140.306 140.855 141.227 139.397 139.978 140.394 140.606 138.492 139.109 
139.543 139.823 140.149 137.599 138.273 138.725 139.026 139.515 139.923 
136.703 137.408 137.965 138.241 138.741 139.395 139.598 135.905 136.565 
137.227 137.577 137.908 138.557 139.059 139.088 135.235 135.831 136.498 
136.976 137.249 137.651 138.187 138.518 138.619 134.426 135.002 134.154 
134.845 134.098 135.668 134.774 134.22 135.461 136.258 134.715 134.262 
135.201 135.924 136.656 134.486 134.028 134.826 135.491 136.31 136.969 
134.114 133.697 134.343 134.902 135.844 136.648 137.351 133.878 133.574 
134.035 134.393 135.254 136.21 136.974 137.751 133.898 133.69 134.063 
134.311 134.909 135.783 136.635 137.406 138.097 134.014 133.831 134.23 
134.519 134.973 135.621 136.405 137.223 137.916 138.391 134.209 133.675 
133.639 133.098 133.351 133.396 133.081 133.455 133.005 133.484 133.572 
133.794 133.285 133.224 133.672 134.027 134.188 133.822 133.418 133.232 
133.579 134.19 134.54 134.002 133.694 133.164 132.929 133.262 134.278 
134.794 133.938 133.782 133.43 132.877 132.73 133.117 134.475 135.006 
134.027 133.854 133.719 133.288 132.867 132.918 133.309 134.757 135.246 
134.301 134.062 133.926 133.608 133.227 133.132 133.328 133.597 139.997 
139.518 139.477 138.949 138.851 138.929 138.218 138.182 138.304 138.235 
137.523 137.633 137.532 137.502 137.399 136.967 137.094 136.772 136.658 
136.542 136.485 136.387 136.435 136.075 135.724 135.611 135.6 135.668 
135.808 135.873 135.523 134.977 134.64 134.673 134.797 135.008 135.363 
135.525 135.144 134.679 134.154 133.911 133.928 134.112 134.497 140.574 
140.045 140.619 140.123 140.756 139.531 140.237 140.939 139.624 138.935 
140.297 141.096 139.588 138.976 138.303 140.463 141.287 139.525 138.812 
138.28 137.701 140.75 141.415 139.776 138.823 138.172 137.622 137.006 
140.836 141.353 140.08 139.176 138.366 137.681 136.984 136.346 140.737 
141.224 140.133 139.446 138.72 137.98 137.233 136.527 135.957 140.703 