# vtk DataFile Version 4.0
vtk output
ASCII
DATASET POLYDATA
POINTS 1002 float
-78.5718 -102.737 48.7886 -78.5569 -102.733 49.7398 -79.1298 -102.728 49.1706 
-79.1154 -102.729 48.2448 -79.8404 -102.784 48.5844 -78.5344 -102.783 47.7407 
-79.6604 -102.567 47.8872 -80.5714 -102.674 48.2059 -79.0343 -102.569 47.4503 
-78.3633 -102.646 46.8975 -80.2576 -102.169 47.6708 -81.1791 -102.248 47.966 
-79.4437 -102.122 47.3006 -78.8662 -102.239 46.759 -78.1105 -102.267 46.2292 
-80.9853 -101.887 47.15 -81.7782 -101.936 47.4162 -80.0543 -101.827 46.7955 
-79.3302 -101.9 46.3278 -78.6883 -102.029 45.7688 -77.917 -102.015 45.2514 
-81.7394 -101.984 46.1992 -82.4571 -102.003 46.5111 -80.9515 -102.028 45.7462 
-80.0691 -102.007 45.3102 -79.2682 -102.015 44.8799 -78.5469 -101.99 44.4275 
-77.8574 -101.873 43.9933 -82.235 -101.905 45.421 -82.9715 -101.883 45.8093 
-81.6523 -102.143 44.8239 -80.9265 -102.189 44.3017 -79.9476 -102.029 43.9542 
-79.0781 -101.941 43.6102 -78.4587 -101.725 43.3022 -77.9122 -101.379 43.091 
-82.4483 -101.304 45.1331 -83.1746 -101.318 45.5034 -81.9122 -101.614 44.5028 
-81.4047 -101.832 43.8809 -80.526 -101.654 43.4979 -79.5389 -101.644 43.1166 
-78.8879 -101.692 42.7547 -78.4691 -101.258 42.6319 -78.0012 -100.701 42.64 
-82.6219 -100.708 44.9325 -83.2734 -100.779 45.2183 -82.0808 -100.925 44.3944 
-81.6076 -101.219 43.7454 -80.8391 -101.103 43.308 -79.8958 -101.118 42.8692 
-79.2474 -101.631 42.2963 -78.882 -101.669 42.0194 -78.5172 -100.967 42.0956 
-78.0129 -100.37 42.154 -82.8922 -100.458 44.508 -83.4861 -100.521 44.7309 
-82.3598 -100.555 44.1054 -81.8729 -100.806 43.5015 -81.1135 -100.768 43.024 
-80.1578 -100.66 42.6375 -79.5275 -101.249 41.9938 -79.2344 -101.941 41.4108 
-78.9121 -101.681 41.32 -78.4534 -100.873 41.4476 -77.8833 -100.409 41.4044 
-78.9437 -102.719 50.2802 -79.7207 -102.715 49.6957 -79.5378 -102.662 50.9059 
-80.4738 -102.715 50.3172 -80.2224 -102.7 51.5983 -80.6344 -102.847 49.062 
-81.0676 -102.797 50.9582 -80.8053 -102.806 52.2118 -81.2911 -102.848 49.6669 
-81.3244 -102.718 48.6438 -81.4513 -102.755 51.4886 -81.238 -102.621 52.6845 
-81.6749 -102.767 50.2843 -81.7691 -102.563 49.2194 -81.783 -102.197 48.3235 
-81.7432 -102.327 51.8641 -81.4879 -102.1 52.9436 -82.1238 -102.518 50.8072 
-82.3172 -102.364 49.8499 -82.3601 -102.056 48.7806 -82.4677 -101.977 47.6187 
-81.8917 -101.707 52.0209 -81.6323 -101.562 52.9452 -82.5 -102.07 51.1696 
-83.0556 -102.228 50.4206 -83.2065 -102.021 49.361 -83.285 -102.013 47.9298 
-83.3071 -102.128 46.6557 -82.0335 -101.132 52.0134 -81.8566 -101.07 52.8639 
-82.5928 -101.489 51.3295 -83.3559 -101.937 50.7761 -83.7592 -101.95 49.8946 
-83.8587 -101.84 48.4595 -83.9496 -101.98 46.9914 -83.751 -101.862 46.0349 
-82.3187 -100.607 51.9941 -82.1454 -100.583 52.8156 -82.7441 -100.851 51.3823 
-83.4048 -101.326 50.9208 -83.88 -101.549 50.1933 -83.9772 -101.379 48.9727 
-84.0363 -101.327 47.5858 -84.0742 -101.404 46.4753 -83.7905 -101.19 45.7457 
-82.638 -100.175 51.9992 -82.3936 -100.167 52.7425 -83.0496 -100.32 51.4231 
-83.65 -100.658 50.9851 -84.1661 -100.928 50.3474 -84.2772 -100.857 49.318 
-84.1489 -100.659 48.1545 -84.1069 -100.659 47.1058 -84.0697 -100.735 46.1748 
-83.8473 -100.674 45.3709 -82.8306 -99.8068 52.2187 -83.2271 -99.8942 51.6138 
-83.4438 -99.4503 51.9057 -83.8752 -99.6746 51.3158 -84.0781 -98.9804 51.6704 
-83.8142 -100.133 51.1081 -84.4096 -99.284 50.8192 -84.557 -98.3388 51.1031 
-84.5024 -99.956 50.6292 -84.5122 -100.384 50.515 -84.7391 -98.6877 49.9572 
-84.7714 -97.8407 50.1536 -84.8598 -99.5661 49.8403 -85.1622 -100.099 49.7891 
-84.9061 -100.443 49.5973 -84.7661 -98.2963 48.9272 -84.6128 -97.7244 49.1456 
-84.8902 -98.9879 48.8408 -85.2999 -99.6817 48.8976 -85.4287 -100.134 48.8077 
-84.7892 -100.326 48.5226 -84.5327 -98.1039 47.9215 -84.2986 -97.5219 48.2078 
-84.8302 -98.4971 47.7904 -85.2344 -99.0141 47.8663 -85.5486 -99.7496 47.9283 
-85.2402 -100.134 47.822 -84.5022 -100.232 47.5397 -84.3708 -97.5785 47.0568 
-84.1794 -96.8955 47.3813 -84.8096 -98.0009 46.8785 -85.332 -98.2826 46.8578 
-85.5884 -98.9762 46.8713 -85.4393 -99.7628 46.8705 -84.9035 -100.066 46.7837 
-84.344 -100.266 46.5222 -84.2989 -96.8257 46.4633 -84.0926 -96.2861 46.7531 
-84.6944 -97.3565 46.2963 -85.2695 -97.6991 46.205 -85.5155 -98.2037 46.0516 
-85.3444 -99.0106 45.8818 -85.0602 -99.6575 45.7513 -84.6845 -100.019 45.5915 
-84.2451 -100.353 45.4356 -83.9943 -96.3848 46.0571 -83.7169 -96.0876 46.2575 
-84.3015 -96.8367 45.9385 -84.7717 -97.287 45.8397 -85.0397 -97.7682 45.621 
-84.8966 -98.3916 45.2989 -84.7806 -99.036 44.9731 -84.7904 -99.5844 44.6688 
-84.5515 -100.054 44.4853 -84.038 -100.382 44.5332 -83.451 -100.341 43.9984 
-84.1059 -100.132 43.7357 -83.314 -100.005 43.348 -84.5748 -99.6837 43.7278 
-83.9232 -99.6708 43.1632 -82.9459 -99.4685 42.7992 -84.5236 -99.119 44.0342 
-84.284 -99.2201 43.182 -83.4623 -99.1723 42.605 -82.5643 -99.0708 42.0766 
-84.2731 -98.5572 44.4388 -84.1688 -98.6529 43.3952 -83.8433 -98.747 42.4639 
-82.9851 -98.7524 41.825 -82.3149 -98.7664 41.2418 -84.3306 -97.9652 44.8092 
-84.0219 -97.975 43.6448 -83.9628 -97.9536 42.477 -83.3385 -98.0687 41.6955 
-82.5175 -98.1204 41.1705 -81.9393 -98.134 40.6443 -84.3277 -97.3962 45.1537 
-83.9991 -97.3524 43.954 -83.9484 -97.1069 42.6715 -83.4541 -97.1166 41.8305 
-82.6089 -97.3021 41.2683 -81.9722 -97.3601 40.6758 -81.3777 -97.3915 40.1568 
-83.9524 -96.9266 45.3951 -83.6596 -96.9631 44.3579 -83.6123 -96.732 43.085 
-83.1969 -96.5887 42.1959 -82.4009 -96.7143 41.5359 -81.9062 -96.7998 40.6994 
-81.5037 -96.8265 39.9597 -80.8356 -96.9262 39.6096 -83.5655 -96.5368 45.5188 
-83.1325 -96.7002 44.691 -82.9674 -96.6626 43.5895 -82.6238 -96.5686 42.6846 
-81.9061 -96.5612 41.9371 -81.5654 -96.45 40.8678 -81.5439 -96.3049 39.7865 
-81.101 -96.3665 39.2853 -80.3204 -96.5509 39.2301 -83.2825 -96.2558 45.6276 
-82.7699 -96.4292 44.8749 -82.4589 -96.4516 43.9545 -82.1389 -96.4206 43.1079 
-81.5051 -96.4036 42.3654 -81.14 -96.1527 41.2842 -81.3424 -95.7253 39.9674 
-81.2862 -95.5744 39.1662 -80.5945 -95.7747 39.0437 -79.7866 -96.0324 39.0842 
-82.8072 -100.317 43.7522 -82.587 -99.951 43.0366 -82.2639 -100.44 43.2638 
-82.2494 -99.4464 42.3212 -81.9766 -100.028 42.4714 -81.5693 -100.515 42.6974 
-82.0674 -99.2213 41.4177 -81.6917 -99.6294 41.6621 -81.1189 -100.023 41.9798 
-80.5317 -100.343 42.3336 -81.8444 -98.923 40.5958 -81.5305 -99.5016 40.7458 
-80.8578 -99.7174 41.1929 -80.1421 -100.003 41.6295 -79.7356 -100.628 41.8205 
-81.2448 -98.1373 40.1274 -81.0807 -99.0135 40.0808 -80.6425 -99.4955 40.3236 
-80.0425 -99.7418 40.7898 -79.6521 -100.512 41.0034 -79.4593 -101.527 41.0627 
-80.5359 -97.3916 39.7631 -80.3432 -98.0978 39.7668 -80.1215 -98.8499 39.7492 
-79.7986 -99.34 39.947 -79.5158 -100.005 40.2198 -79.3392 -101.097 40.3628 
-79.1583 -101.817 40.6709 -79.9739 -96.9734 39.3795 -79.7383 -97.4186 39.4437 
-79.528 -98.0619 39.4035 -79.3028 -98.7535 39.3779 -79.0894 -99.3917 39.5326 
-78.8965 -100.202 39.7956 -78.7484 -100.99 40.1235 -78.6239 -101.207 40.6908 
-79.4944 -96.5498 39.0722 -79.3102 -96.9955 39.0059 -79.0959 -97.5314 38.9414 
-78.84 -98.2154 38.9013 -78.6239 -98.8923 38.9736 -78.3982 -99.5089 39.2365 
-78.1808 -100.123 39.5828 -78.0755 -100.565 40.0109 -78.0185 -100.62 40.6468 
-79.123 -95.7518 38.8255 -78.9688 -96.3186 38.585 -78.7266 -95.4378 38.1638 
-78.5602 -96.1263 37.8953 -78.4335 -95.2917 37.5383 -78.7877 -96.9478 38.3783 
-78.0676 -96.1319 37.537 -77.7667 -95.3222 37.4523 -78.233 -97.0061 37.7745 
-78.4961 -97.6872 38.3022 -77.1832 -96.2262 37.5721 -76.5521 -95.2754 37.5331 
-77.5884 -97.1696 37.511 -77.9219 -97.8945 37.7408 -78.2594 -98.4315 38.358 
-75.9426 -96.2423 37.5194 -75.416 -95.206 37.4516 -76.5757 -97.3333 37.3942 
-77.2088 -98.0931 37.3784 -77.7146 -98.6012 37.886 -78.0419 -99.056 38.6223 
-75.1224 -96.2727 37.6487 -75.0014 -95.4161 37.7813 -75.4414 -97.3825 37.42 
-76.0528 -98.2686 37.2692 -76.7991 -98.7497 37.6303 -77.3478 -99.1544 38.3447 
-77.7185 -99.5959 39.0227 -74.989 -96.41 38.4016 -74.9097 -95.8081 38.6586 
-74.9743 -97.2832 38.0024 -75.1138 -98.2398 37.664 -75.6133 -98.8561 37.8134 
-76.2909 -99.2478 38.316 -76.9023 -99.6934 38.8258 -77.4717 -100.107 39.3951 
-74.7497 -96.5895 39.2563 -74.4832 -96.0815 39.4216 -74.8077 -97.1964 38.8663 
-74.7629 -98.0058 38.4184 -74.9147 -98.7592 38.3691 -75.3256 -99.2659 38.6534 
-75.9139 -99.7864 38.8712 -76.6302 -100.256 39.2007 -77.3723 -100.455 39.8863 
-74.0947 -96.7457 39.6919 -73.8267 -96.1996 39.7805 -74.2187 -97.2645 39.4085 
-74.238 -97.8713 39.0048 -74.4191 -98.5818 38.8762 -74.7627 -99.1954 39.0747 
-75.1302 -99.7698 39.1866 -75.674 -100.368 39.2656 -76.4601 -100.635 39.769 
-77.2621 -100.508 40.635 -79.7103 -95.2259 39.0292 -79.0064 -94.9336 38.6637 
-79.6736 -94.4132 38.9877 -78.9495 -94.1798 38.4911 -79.5614 -93.7745 39.0425 
-78.6529 -94.6915 37.8972 -78.7682 -93.5021 38.633 -79.211 -93.3182 39.3978 
-78.5018 -94.0548 37.8875 -78.2398 -94.6699 37.4325 -78.3778 -93.1008 39.2721 
-78.7173 -93.2366 40.085 -78.1563 -93.5202 38.465 -77.773 -94.1983 37.8075 
-77.1875 -94.6974 37.5138 -77.9518 -93.3517 40.1297 -78.3221 -93.5415 40.9254 
-77.7517 -93.4334 39.3204 -77.2753 -93.8921 38.598 -76.4989 -94.2497 37.9306 
-75.8399 -94.523 37.5074 -77.6053 -93.7274 40.9619 -78.0925 -93.6621 41.6749 
-77.3511 -93.7049 40.0864 -76.9342 -93.7796 39.2955 -76.1401 -93.923 38.5784 
-75.4494 -94.0443 37.8788 -75.1085 -94.5205 37.5557 -77.3793 -93.5435 41.6665 
-77.9804 -93.3771 42.2312 -76.9512 -93.5724 40.8899 -76.5484 -93.473 40.0047 
-75.9293 -93.4958 39.293 -75.3799 -93.7024 38.7051 -75.0974 -94.1662 38.2516 
-74.9556 -94.9532 38.2451 -77.2761 -93.1377 42.2719 -77.8918 -93.0447 42.8175 
-76.7183 -93.1437 41.692 -76.2185 -93.0031 40.9426 -75.6481 -92.9899 40.2107 
-75.2089 -93.3448 39.7127 -75.0288 -93.948 39.3397 -74.8414 -94.658 39.0886 
-74.6181 -95.4024 39.1498 -77.1557 -92.9398 42.99 -77.7176 -92.8784 43.6191 
-76.6133 -92.9787 42.4332 -76.1227 -92.9161 41.8511 -75.5629 -92.888 41.2032 
[...]
CELL_DATA 2000
SCALARS Distance double
LOOKUP_TABLE default
137.492 137.65 137.421 137.154 137.824 137.562 137.224 137.045 136.727 
137.871 137.647 137.19 137.028 136.665 136.543 136.152 137.847 137.637 
137.182 136.958 136.56 136.429 136.087 135.934 135.527 137.937 137.692 
137.365 137.064 136.71 136.428 136.109 135.899 135.561 135.342 134.949 
137.974 137.798 137.488 137.301 136.985 136.694 136.304 136.001 135.608 
135.378 134.979 134.769 134.35 137.702 137.65 137.232 137.246 136.898 
136.824 136.34 136.111 135.578 135.379 134.962 134.792 134.4 134.169 
133.754 137.296 137.25 136.816 136.85 136.513 136.546 136.081 135.949 
135.368 135.227 134.844 134.779 134.543 134.333 134.011 133.663 133.303 
137.028 136.922 136.564 136.504 136.225 136.199 135.823 135.67 135.129 
134.959 134.599 134.626 134.551 134.533 134.38 134.067 133.725 133.309 
132.974 137.736 138.216 137.947 137.933 138.834 138.512 138.547 138.237 
138.216 139.482 139.166 139.175 138.878 138.846 138.493 138.325 139.92 
139.718 139.642 139.415 139.287 139.014 138.794 138.457 138.213 139.97 
139.941 139.858 139.76 139.637 139.39 139.174 138.851 138.659 138.36 
138.239 139.721 139.792 139.763 139.856 139.914 139.791 139.711 139.34 
139.222 138.865 138.827 138.502 138.377 139.422 139.477 139.447 139.661 
139.851 140.011 140.077 139.9 139.735 139.428 139.295 139.051 138.896 
138.547 138.196 139.198 139.208 139.146 139.33 139.512 139.82 139.951 
140.049 139.824 139.687 139.326 139.239 138.953 138.853 138.492 138.184 
137.736 139.032 139.029 138.971 139.078 139.229 139.479 139.654 139.818 
139.688 139.597 139.199 139.064 138.703 138.678 138.384 138.298 137.954 
137.7 137.366 138.907 138.841 138.866 138.933 138.866 138.906 139.044 
139.047 139.236 138.681 138.886 139.076 139.193 139.392 139.432 139.6 
138.19 138.537 138.736 139.07 139.291 139.496 139.57 139.634 139.558 
137.612 137.961 138.1 138.528 138.752 139.182 139.311 139.494 139.325 
139.325 139.057 136.999 137.362 137.431 137.82 137.962 138.467 138.676 
139.09 139.062 139.114 138.804 138.748 138.528 136.252 136.672 136.738 
137.133 137.218 137.657 137.822 138.336 138.443 138.755 138.57 138.567 
138.271 138.288 138.169 135.49 135.887 135.978 136.408 136.526 136.939 
137.04 137.483 137.549 137.995 137.925 138.188 137.953 138.039 137.826 
137.938 137.81 134.862 135.18 135.261 135.662 135.798 136.232 136.325 
136.72 136.707 137.094 137.022 137.408 137.299 137.583 137.437 137.594 
137.436 137.539 137.35 137.041 137.172 136.966 136.602 137.134 137.027 
136.666 136.447 135.953 136.875 136.855 136.505 136.424 135.955 135.703 
135.168 136.537 136.497 136.111 136.139 135.745 135.643 135.123 134.901 
134.428 136.269 136.17 135.712 135.692 135.275 135.3 134.812 134.737 
134.181 134.095 133.611 135.943 135.899 135.403 135.315 134.802 134.782 
134.269 134.273 133.713 133.695 133.14 133.142 132.629 135.443 135.494 
135.024 134.977 134.447 134.36 133.826 133.754 133.222 133.177 132.666 
132.646 132.172 132.153 131.708 134.935 134.981 134.569 134.561 134.098 
134.03 133.543 133.425 132.912 132.781 132.274 132.204 131.751 131.738 
131.326 131.314 130.933 134.561 134.553 134.179 134.15 133.73 133.686 
133.243 133.168 132.676 132.538 131.987 131.854 131.334 131.301 130.86 
130.898 130.5 130.546 130.177 136.826 136.387 136.535 136.38 135.737 
136.016 135.902 136.117 136.023 134.959 135.278 135.185 135.529 135.428 
135.706 135.532 134.315 134.578 134.496 134.783 134.662 134.962 134.737 
135.028 134.778 133.612 133.982 133.953 134.203 134.058 134.23 134.009 
134.216 134.075 134.345 134.337 132.615 133.128 133.113 133.568 133.439 
133.679 133.445 133.603 133.541 133.806 133.992 134.252 134.44 131.629 
132.06 131.984 132.524 132.435 132.895 132.706 133.015 132.906 133.275 
133.43 133.883 134.079 134.376 134.333 130.861 131.164 131.045 131.435 
131.361 131.821 131.736 132.16 132.067 132.504 132.525 133.082 133.168 
133.711 133.632 133.957 133.662 130.145 130.443 130.325 130.625 130.542 
130.888 130.851 131.238 131.222 131.626 131.621 132.083 132.092 132.619 
132.571 133.04 132.857 133.154 132.883 129.666 129.002 129.521 129.882 
128.426 128.889 129.295 129.769 130.129 128.001 128.402 128.809 129.237 
129.65 130.068 130.443 127.467 127.983 128.412 128.835 129.264 129.65 
130.067 130.443 130.834 126.721 127.338 127.842 128.4 128.853 129.293 
129.712 130.1 130.499 130.858 131.24 126.332 126.698 127.246 127.773 
128.28 128.802 129.225 129.694 130.081 130.499 130.86 131.243 131.632 
126.586 126.644 127.129 127.365 127.861 128.249 128.693 129.147 129.541 
130.007 130.381 130.817 131.184 131.616 132.027 126.902 126.979 127.329 
127.421 127.781 127.985 128.383 128.703 129.101 129.485 129.883 130.313 
130.721 131.156 131.544 131.983 132.344 126.862 127.084 127.329 127.496 
127.695 127.887 128.163 128.455 128.822 129.148 129.527 129.877 130.285 
130.698 131.107 131.518 131.848 132.234 132.476 129.382 128.714 128.912 
128.678 128.119 128.25 128.001 128.231 128.092 127.612 127.676 127.413 
127.606 127.478 127.733 127.665 127.303 127.229 126.968 127.087 126.972 
127.169 127.023 127.264 127.083 127.397 127.129 126.902 126.814 126.714 
126.754 126.544 126.617 126.279 126.504 126.271 127.651 127.383 127.138 
126.925 126.737 126.615 126.334 126.224 125.824 125.805 125.558 125.798 
125.882 127.668 127.54 127.205 127.07 126.695 126.575 126.156 126.038 
125.647 125.543 125.363 125.396 125.561 125.807 126.199 127.55 127.441 
127.072 126.963 126.521 126.387 125.911 125.8 125.471 125.436 125.373 
125.404 125.573 125.697 126.002 126.259 126.568 127.538 127.362 127.047 
126.865 126.535 126.299 125.953 125.699 125.479 125.362 125.4 125.447 
125.626 125.722 125.876 126.032 126.156 126.435 126.547 134.278 133.64 
133.939 133.849 132.826 133.196 133.087 133.441 133.352 131.975 132.327 
132.196 132.587 132.494 132.904 132.84 131.225 131.515 131.354 131.683 
131.547 131.967 131.888 132.35 132.26 130.517 130.799 130.627 130.89 
130.695 131.023 130.877 131.321 131.206 131.683 131.548 129.783 130.078 
129.914 130.179 129.972 130.224 130.032 130.357 130.211 130.615 130.488 
130.944 130.862 129.068 129.34 129.181 129.46 129.266 129.512 129.301 
129.569 129.402 129.719 129.589 129.954 129.888 130.341 130.371 128.426 
128.65 128.496 128.755 128.584 128.816 128.569 128.807 128.566 128.894 
128.728 129.107 129.008 129.424 129.431 129.925 130.015 127.874 128.047 
127.898 128.124 128.002 128.203 127.979 128.113 127.798 128.013 127.785 
128.173 128.073 128.529 128.511 128.996 129.068 129.594 129.709 134.415 
134.451 134.234 133.798 134.48 134.25 133.768 133.533 133.006 134.447 
134.244 133.74 133.495 132.945 132.692 132.16 134.302 134.147 133.653 
133.449 132.909 132.65 132.103 131.866 131.39 134.137 133.971 133.478 
133.316 132.816 132.613 132.079 131.828 131.309 131.107 130.659 134.041 
133.846 133.342 133.141 132.658 132.496 132.027 131.813 131.296 131.043 
130.543 130.36 129.922 133.943 133.775 133.288 133.05 132.547 132.356 
131.921 131.755 131.292 131.047 130.526 130.274 129.795 129.625 129.214 
133.823 133.678 133.228 133.006 132.496 132.275 131.819 131.656 131.22 
131.023 130.515 130.262 129.751 129.535 129.102 128.95 128.58 133.735 
133.579 133.152 132.946 132.463 132.235 131.773 131.578 131.147 130.952 
130.476 130.236 129.732 129.499 129.054 128.873 128.498 128.356 128.03 
133.563 133.014 133.193 132.938 132.378 132.591 132.356 132.524 132.255 
131.78 131.97 131.773 131.946 131.699 131.84 131.586 131.266 131.397 
131.162 131.348 131.093 131.272 130.998 131.171 130.926 130.855 130.896 
130.55 130.684 130.36 130.583 130.288 130.524 130.241 130.47 130.215 
130.463 130.478 130.054 130.084 129.687 129.828 129.534 129.771 129.517 
129.75 129.481 129.716 129.473 129.875 129.968 129.501 129.572 129.153 
129.237 128.925 129.08 128.831 129.031 128.765 128.982 128.731 128.987 
128.801 129.178 129.256 128.749 128.902 128.508 128.688 128.384 128.537 
128.232 128.372 128.049 128.243 127.972 128.244 128.066 128.367 128.245 
128.715 128.632 128.126 128.166 127.81 128 127.769 127.974 127.701 
127.807 127.46 127.562 127.287 127.502 127.361 127.653 127.572 127.864 
127.79 128.438 127.935 128.026 127.797 127.476 127.566 127.322 127.462 
127.435 126.975 127.101 126.901 127.032 126.969 127.232 127.377 126.648 
126.65 126.44 126.565 126.478 126.752 126.825 127.187 127.307 126.613 
126.471 126.176 126.142 126.011 126.222 126.304 126.634 126.732 127.043 
127.09 126.5 126.438 126.122 126.002 125.818 125.861 125.977 126.209 
126.42 126.612 126.706 126.872 126.967 126.177 126.206 125.985 125.962 
125.816 125.792 125.84 125.982 126.206 126.412 126.574 126.676 126.764 
126.889 127.067 126.06 125.965 125.861 125.851 125.815 125.803 125.761 
125.822 125.85 126.092 126.19 126.466 126.54 126.735 126.844 127.051 
127.264 126.343 126.09 126.014 125.88 125.866 125.811 125.725 125.688 
125.542 125.644 125.62 125.924 126.037 126.376 126.528 126.8 126.988 
127.246 127.48 128.779 129.053 128.719 128.287 129.11 128.897 128.468 
128.191 127.748 129.148 128.896 128.462 128.247 127.795 127.573 127.174 
129.432 129.035 128.607 128.286 127.87 127.594 127.255 127.057 126.854 
129.822 129.39 128.932 128.546 128.123 127.768 127.426 127.188 127.052 
126.915 126.851 130.161 129.747 129.212 128.829 128.302 127.982 127.536 
127.335 127.126 127.081 127.026 126.933 126.757 130.544 130.113 129.591 
129.105 128.515 128.096 127.599 127.359 127.125 127.094 127.073 127.051 
126.934 126.732 126.446 130.967 130.566 130.151 129.607 129.092 128.486 
128.051 127.583 127.427 127.21 127.292 127.187 127.217 126.986 126.818 
126.479 126.305 131.345 131.007 130.674 130.22 129.81 129.226 128.865 
128.295 128.161 127.76 127.833 127.582 127.646 127.385 127.305 126.969 
126.857 126.532 126.541 129.218 129.95 129.548 129.443 130.627 130.218 
130.059 129.685 129.508 131.391 130.895 130.732 130.304 130.164 129.742 
129.595 132.405 131.783 131.633 131.077 131.006 130.52 130.481 129.978 
129.928 133.48 132.891 132.753 132.117 132.047 131.493 131.515 130.989 
130.976 130.418 130.354 134.274 133.861 133.745 133.226 133.131 132.589 
132.563 132.043 132.002 131.46 131.342 130.793 130.676 134.873 134.523 
134.433 134.068 134.027 133.61 133.587 133.083 132.993 132.432 132.262 
131.713 131.546 131.057 130.974 135.563 135.159 135.104 134.728 134.766 
134.431 134.512 134.086 134.044 133.456 133.274 132.642 132.45 131.903 
131.792 131.352 131.323 136.313 135.926 135.922 135.505 135.567 135.205 
135.325 134.968 134.993 134.495 134.348 133.715 133.512 132.879 132.737 
132.197 132.132 131.699 131.681 136.689 137.175 136.767 136.386 137.654 
137.278 136.961 136.478 136.077 138.04 137.719 137.397 137.014 136.62 
136.165 135.777 138.177 137.968 137.561 137.31 136.866 136.558 136.112 
135.785 135.359 138.01 137.906 137.456 137.32 136.852 136.648 136.168 
135.94 135.48 135.226 134.713 137.789 137.665 137.241 137.135 136.726 
136.579 136.134 135.927 135.479 135.261 134.79 134.496 133.928 137.706 
137.531 137.132 136.965 136.593 136.459 136.072 135.894 135.467 135.259 
134.827 134.577 134.076 133.722 133.163 137.64 137.504 137.121 136.925 
136.53 136.365 135.997 135.839 135.443 135.249 134.83 134.615 134.165 
133.877 133.362 133.003 132.512 137.506 137.425 137.081 136.914 136.517 
136.33 135.972 135.804 135.461 135.258 134.869 134.634 134.212 133.958 
133.498 133.191 132.722 132.401 132.004 137.339 136.974 137.087 136.911 
136.541 136.679 136.462 136.58 136.354 135.953 136.157 135.931 136.097 
135.882 136.02 135.825 135.288 135.495 135.262 135.494 135.312 135.534 
135.372 135.524 135.328 134.707 134.86 134.612 134.807 134.614 134.887 
134.73 134.993 134.779 134.961 134.705 134.131 134.308 134.075 134.225 
133.983 134.177 133.955 134.235 134.005 134.286 134.015 134.252 133.994 
133.493 133.689 133.465 133.674 133.422 133.581 133.295 133.476 133.222 
133.471 133.24 133.503 133.261 133.515 133.274 132.971 133.071 132.82 
133.018 132.778 132.972 132.692 132.856 132.593 132.778 132.567 132.78 
132.568 132.787 132.55 132.783 132.537 132.637 132.64 132.361 132.442 
132.187 132.325 132.06 132.232 131.982 132.179 131.954 132.157 131.925 
132.123 131.877 132.085 131.85 132.07 131.857 131.449 131.405 131.217 
130.78 131.391 131.154 130.669 130.483 129.968 131.439 131.152 130.622 
130.376 129.892 129.669 129.15 131.506 131.223 130.7 130.386 129.915 
129.666 129.277 128.984 128.564 131.545 131.294 130.833 130.523 130.061 
129.767 129.382 129.141 128.802 128.518 128.187 131.627 131.362 130.954 
130.675 130.27 129.965 129.532 129.243 128.81 128.61 128.244 128.105 
127.815 131.828 131.533 131.167 130.852 130.492 130.188 129.793 129.441 
128.947 128.605 128.149 127.988 127.69 127.655 127.405 132.087 131.809 
131.499 131.151 130.78 130.435 130.062 129.723 129.3 128.875 128.416 
128.033 127.734 127.553 127.396 127.283 127.071 132.368 132.098 131.82 
131.499 131.116 130.745 130.323 129.985 129.596 129.249 128.854 128.446 
128.122 127.793 127.642 127.426 127.312 127.069 126.863 139.184 139.385 
139.369 139.472 139.605 139.578 139.646 139.556 139.445 139.87 139.809 
139.83 139.693 139.511 139.352 139.115 140.072 140.044 140.016 139.863 
139.651 139.436 139.243 139.081 138.984 139.964 140.088 140.022 139.978 
139.764 139.591 139.428 139.295 139.296 139.146 139.091 139.464 139.745 
139.674 139.827 139.673 139.654 139.509 139.457 139.414 139.386 139.29 
139.146 138.837 138.798 139.112 139.061 139.343 139.279 139.455 139.379 
139.452 139.345 139.359 139.146 139.106 138.734 138.61 138.149 138.213 
138.472 138.441 138.716 138.67 138.951 138.909 139.16 139.068 139.179 
138.928 138.881 138.499 138.393 137.985 137.865 137.488 137.754 137.961 
137.929 138.149 138.062 138.308 138.211 138.531 138.454 138.74 138.566 
138.643 138.326 138.229 137.878 137.74 137.414 137.281 136.966 139.112 
139.364 139.188 138.996 139.338 139.341 139.143 138.973 138.647 139.003 
139.134 139.001 139.008 138.676 138.485 138.043 138.771 138.756 138.578 
138.693 138.437 138.414 137.988 137.808 137.391 138.759 138.6 138.238 
138.231 137.943 138.033 137.697 137.674 137.274 137.171 136.819 138.515 
138.491 138.039 137.945 137.561 137.566 137.25 137.29 136.934 136.941 
136.557 136.539 136.147 137.917 138.056 137.68 137.688 137.315 137.282 
136.94 136.904 136.522 136.512 136.11 136.149 135.753 135.769 135.365 
137.299 137.443 137.152 137.25 136.932 136.989 136.642 136.627 136.18 
136.112 135.639 135.647 135.267 135.335 135.006 135.02 134.698 136.775 
136.901 136.623 136.729 136.409 136.514 136.157 136.226 135.774 135.742 
135.222 135.187 134.771 134.844 134.564 134.658 134.399 134.424 134.154 
138.937 138.828 138.846 138.791 138.495 138.654 138.623 138.742 138.752 
137.9 138.19 138.197 138.47 138.474 138.636 138.545 137.265 137.54 
137.539 137.906 137.92 138.215 138.089 138.257 138.046 136.726 136.952 
136.895 137.207 137.185 137.531 137.417 137.682 137.482 137.679 137.474 
136.074 136.373 136.267 136.562 136.466 136.777 136.66 136.955 136.802 
137.065 136.893 137.105 136.88 135.29 135.622 135.507 135.852 135.735 
136.054 135.921 136.217 136.087 136.377 136.232 136.484 136.263 136.448 
136.146 134.621 134.868 134.765 135.072 134.985 135.303 135.185 135.484 
135.353 135.66 135.526 135.808 135.609 135.813 135.536 135.685 135.393 
134.088 134.281 134.172 134.408 134.324 134.594 134.478 134.752 134.606 
134.907 134.77 135.081 134.913 135.16 134.93 135.102 134.853 134.995 
134.774 129.214 129.673 129.626 130.032 130.3 130.175 130.535 130.439 
130.766 130.829 130.758 131.073 130.974 131.297 131.185 131.542 131.198 
131.187 131.534 131.49 131.855 131.761 132.17 132.063 132.533 131.557 
131.53 131.932 131.947 132.406 132.358 132.803 132.709 133.174 133.106 
133.566 132.017 131.924 132.309 132.343 132.846 132.894 133.351 133.308 
133.695 133.654 134.045 134.026 134.354 132.628 132.457 132.791 132.735 
133.173 133.25 133.697 133.75 134.098 134.085 134.414 134.415 134.758 
134.716 134.986 133.296 133.123 133.433 133.272 133.606 133.563 133.965 
134.023 134.431 134.453 134.821 134.795 135.172 135.133 135.49 135.384 
135.675 133.834 133.745 134.039 133.9 134.165 134.032 134.358 134.334 
134.783 134.822 135.292 135.269 135.68 135.608 135.98 135.899 136.223 
136.105 136.379 
POINT_DATA 1002
SCALARS Distance double
LOOKUP_TABLE default
137.235 137.562 137.681 137.348 137.924 136.882 137.417 138.132 136.908 
136.392 137.393 138.089 136.76 136.329 135.737 137.431 138.023 136.723 
136.199 135.736 135.11 137.625 138.168 137.044 136.368 135.766 135.183 
134.556 137.603 138.153 137.239 136.676 135.872 135.189 134.569 133.926 
137.195 137.76 136.899 136.559 135.786 135.078 134.62 134.012 133.325 
136.797 137.333 136.457 136.183 135.502 134.817 134.64 134.369 133.653 
132.93 136.638 137.115 136.26 135.96 135.327 134.558 134.424 134.592 
134.18 133.344 132.65 137.966 138.197 138.49 138.852 139.163 138.595 
139.486 139.801 139.19 138.754 139.87 140.091 139.573 139.101 138.529 
139.866 139.954 139.841 139.499 138.924 138.529 139.56 139.649 139.867 
140.037 139.601 139.145 138.812 139.225 139.394 139.559 140.131 140.065 
139.543 139.2 138.677 139.007 139.195 139.207 139.772 139.953 139.458 
138.979 138.684 138.116 138.887 139.015 139.022 139.461 139.732 139.383 
138.758 138.375 138.096 137.653 138.819 138.893 138.813 139.013 138.772 
139.228 138.875 138.399 139.34 139.61 138.341 137.833 138.996 139.54 
139.563 137.714 137.292 138.25 139.013 139.383 139.033 137.082 136.626 
137.499 138.14 138.878 138.928 138.454 136.312 135.821 136.821 137.336 
137.992 138.462 138.322 138.039 135.53 135.119 136.094 136.663 137.122 
137.535 137.781 137.759 137.682 134.891 134.577 135.362 135.939 136.375 
136.625 136.908 137.21 137.344 137.284 136.727 136.889 136.192 136.849 
136.262 135.405 136.507 136.162 135.443 134.657 136.079 135.749 135.324 
134.604 134.026 135.81 135.249 134.828 134.284 133.656 133.152 135.514 
134.888 134.271 133.708 133.147 132.617 132.119 135.028 134.531 133.925 
133.283 132.676 132.176 131.724 131.282 134.553 134.127 133.639 133.069 
132.386 131.764 131.316 130.938 130.579 134.215 133.772 133.293 132.799 
132.161 131.415 130.825 130.44 130.123 129.829 136.242 135.614 135.85 
134.817 135.125 135.31 134.262 134.41 134.453 134.45 133.658 133.939 
133.829 133.747 134.03 132.575 133.107 133.272 133.236 133.643 134.307 
131.487 131.891 132.308 132.538 132.947 133.702 134.23 130.723 130.927 
131.264 131.635 132.03 132.6 133.203 133.464 130.028 130.226 130.474 
130.817 131.214 131.62 132.056 132.455 132.655 129.141 129.394 128.473 
128.802 128.004 129.689 128.404 127.597 129.222 130.041 127.952 126.854 
128.882 129.69 130.472 127.21 126.101 128.368 129.31 130.139 130.888 
126.787 126.11 127.745 128.73 129.636 130.472 131.221 127.035 126.614 
127.567 128.274 129.076 129.915 130.759 131.572 127.29 126.803 127.663 
128.115 128.761 129.468 130.268 131.137 131.924 127.161 126.622 127.538 
127.886 128.491 129.216 129.898 130.69 131.496 132.126 129.175 128.421 
128.547 127.783 128.029 127.8 127.219 127.59 127.238 127.396 126.881 
127.439 126.807 126.874 126.801 127.07 127.684 126.757 126.583 126.178 
125.86 127.397 127.873 126.95 126.507 125.915 125.381 125.436 127.353 
127.779 126.866 126.27 125.693 125.336 125.374 125.875 127.193 127.678 
126.672 126.026 125.44 125.282 125.505 125.845 126.289 127.216 127.722 
126.732 126.201 125.634 125.366 125.556 125.819 125.966 126.216 134.043 
133.561 133.318 132.709 132.453 132.993 131.82 131.653 132.061 132.429 
131.074 130.948 131.169 131.414 131.822 130.379 130.225 130.43 130.488 
130.729 131.068 129.633 129.492 129.732 129.756 129.855 130.049 130.35 
128.896 128.816 129.016 129.051 129.098 129.255 129.464 129.851 128.239 
128.225 128.355 128.383 128.273 128.329 128.602 128.959 129.485 134.627 
134.034 134.693 134.025 134.725 133.248 133.984 134.633 133.213 132.377 
133.824 134.449 133.153 132.363 131.57 133.64 134.323 132.971 132.324 
131.552 130.805 133.575 134.226 132.812 132.193 131.566 130.774 130.049 
133.526 134.079 132.765 132.065 131.508 130.804 130 129.335 133.43 
133.96 132.728 131.997 131.396 130.759 129.982 129.271 128.701 133.348 