# vtk DataFile Version 4.0
vtk output
ASCII
DATASET POLYDATA
POINTS 1002 float
-77.6027 -105.873 57.6952 -77.7742 -105.797 58.7069 -78.2424 -105.853 58.2588 
-78.0606 -105.868 57.239 -78.8578 -105.841 57.7892 -77.5659 -105.619 56.9381 
-78.695 -105.833 56.7651 -79.4848 -105.784 57.2689 -78.0146 -105.597 56.4477 
-77.5595 -105.255 56.2215 -79.3456 -105.792 56.2275 -80.0325 -105.77 56.6555 
-78.6633 -105.612 55.907 -78.041 -105.294 55.6286 -77.4185 -105.125 55.2234 
-79.9216 -105.728 55.6587 -80.705 -105.803 56.0181 -79.3212 -105.554 55.3972 
-78.734 -105.246 55.1195 -77.9981 -105.057 54.6827 -77.285 -104.899 54.2843 
-80.6117 -105.637 55.1592 -81.4896 -105.808 55.5009 -79.8667 -105.402 54.9112 
-79.3466 -105.046 54.7122 -78.7394 -104.734 54.3672 -77.9666 -104.573 53.9507 
-77.3397 -104.268 53.7384 -81.35 -105.479 54.7565 -82.0315 -105.631 55.1135 
-80.502 -105.277 54.3706 -79.7831 -104.998 54.0707 -79.2732 -104.549 53.8905 
-78.6793 -104.207 53.6579 -77.958 -103.991 53.3859 -77.3472 -103.703 53.1621 
-81.8439 -105.158 54.3813 -82.3091 -105.213 54.7582 -81.2033 -105.105 53.8695 
-80.3612 -105.089 53.3126 -79.6489 -104.776 53.034 -79.1606 -104.216 53.0466 
-78.5452 -103.837 52.9615 -77.7928 -103.615 52.6703 -77.1626 -103.391 52.3457 
-82.1018 -104.735 54.0402 -82.5382 -104.723 54.445 -81.7076 -104.797 53.5147 
-81.0636 -104.938 52.9088 -80.2109 -104.849 52.4596 -79.5534 -104.312 52.4094 
-79.0153 -103.746 52.4816 -78.3027 -103.454 52.2711 -77.569 -103.252 51.8876 
-77.0239 -103.015 51.6087 -82.2765 -104.315 53.8362 -82.7378 -104.282 54.2476 
-81.9803 -104.422 53.3124 -81.5941 -104.545 52.8017 -80.878 -104.469 52.4108 
-80.0793 -104.01 52.2243 -79.4386 -103.442 52.165 -78.791 -103.138 51.9519 
-78.093 -103.002 51.5449 -77.51 -102.807 51.2094 -77.0686 -102.557 51.0793 
-78.3108 -105.67 59.5908 -78.861 -105.729 59.1038 -78.8121 -105.77 60.3941 
-79.3147 -105.718 59.8333 -79.1297 -106.066 60.9663 -79.4812 -105.688 58.5295 
-79.6383 -105.757 60.3951 -79.4902 -106.101 61.5231 -79.898 -105.624 59.1556 
-80.0591 -105.683 57.8885 -80.2036 -105.687 60.9738 -80.0992 -105.855 62.1096 
-80.3958 -105.681 59.6906 -80.6242 -105.743 58.4544 -80.7382 -105.781 57.1829 
-80.9078 -105.693 61.4369 -80.7837 -105.769 62.4688 -81.119 -105.774 60.1764 
-81.3524 -105.88 58.9785 -81.5336 -105.841 57.7555 -81.591 -105.852 56.4806 
-81.4173 -105.689 61.6804 -81.3662 -105.698 62.6381 -81.6437 -105.746 60.5015 
-81.9489 -105.824 59.4073 -82.131 -105.711 58.3262 -82.2261 -105.67 57.0485 
-82.2102 -105.775 55.8918 -81.7532 -105.313 61.8461 -81.7532 -105.29 62.7312 
-81.9088 -105.36 60.7637 -82.2513 -105.462 59.7616 -82.443 -105.388 58.8262 
-82.4723 -105.266 57.6461 -82.5429 -105.392 56.3727 -82.5201 -105.468 55.4179 
-81.9543 -104.75 61.8572 -81.8949 -104.726 62.6536 -82.1306 -104.805 60.9515 
-82.5284 -104.982 60.1057 -82.8388 -105.102 59.2903 -82.8434 -105.045 58.2182 
-82.8502 -105.041 56.9036 -82.9549 -105.119 55.7686 -82.8568 -105.014 55.0063 
-82.0562 -104.337 61.6737 -81.9275 -104.277 62.4299 -82.3234 -104.42 60.9373 
-82.8039 -104.632 60.3129 -83.3048 -104.895 59.68 -83.4932 -105.023 58.7557 
-83.4543 -105.018 57.477 -83.5063 -104.979 56.1902 -83.5093 -104.848 55.2553 
-83.2037 -104.58 54.677 -82.1356 -103.986 61.7191 -82.4446 -104.089 60.9977 
-82.6488 -103.603 61.1856 -83.1733 -103.698 60.6935 -83.3415 -102.955 60.9413 
-82.9507 -104.277 60.4709 -83.8872 -103.04 60.5575 -83.7823 -102.347 60.5211 
-83.6926 -103.925 60.2692 -83.5455 -104.567 59.9892 -84.1201 -102.528 59.9016 
-83.7925 -102.074 59.5894 -84.0804 -103.318 59.8275 -84.0355 -104.197 59.5556 
-83.9602 -104.817 59.2131 -83.9573 -102.177 58.754 -83.6387 -101.73 58.5824 
-83.9976 -102.802 58.7581 -83.9864 -103.538 58.6688 -84.142 -104.369 58.4422 
-84.032 -104.932 57.9948 -83.8312 -101.53 57.7545 -83.5359 -101.111 57.827 
-83.9307 -102.199 57.525 -83.8511 -102.833 57.4374 -83.9007 -103.567 57.4073 
-84.1087 -104.444 57.0764 -84.0111 -104.92 56.5746 -83.8359 -100.807 56.9894 
-83.4507 -100.604 57.11 -84.1167 -101.388 56.6133 -84.1451 -102.074 56.3464 
-83.9693 -102.68 56.3508 -83.9415 -103.54 56.1721 -84.1078 -104.393 55.7319 
-84.0081 -104.748 55.4023 -83.804 -100.368 56.2638 -83.3171 -100.332 56.3407 
-84.2551 -100.716 55.9739 -84.4988 -101.378 55.6444 -84.4093 -101.965 55.5531 
-84.108 -102.585 55.4354 -83.9668 -103.444 55.0733 -83.9762 -104.12 54.7869 
-83.7349 -104.407 54.7103 -83.6648 -100.077 55.6252 -83.1326 -100.091 55.6747 
-84.1817 -100.222 55.4712 -84.4992 -100.761 55.2083 -84.5626 -101.421 55.0375 
-84.3726 -101.933 54.8968 -84.0257 -102.512 54.5923 -83.7536 -103.191 54.346 
-83.5379 -103.7 54.3273 -83.1845 -104.018 54.3363 -82.5508 -103.819 53.9201 
-82.8944 -103.393 54.047 -82.4376 -103.255 53.5367 -83.2598 -102.925 53.9573 
-82.7508 -102.711 53.6006 -82.3823 -102.65 52.9549 -83.6876 -102.421 53.8626 
-83.2145 -102.292 53.3609 -82.7031 -102.203 52.9051 -82.1351 -102.142 52.2527 
-84.1079 -101.916 54.0541 -83.74 -101.923 53.1765 -83.1858 -101.927 52.646 
-82.4188 -101.804 52.2456 -81.7363 -101.605 51.5933 -84.3195 -101.376 54.3415 
-84.0419 -101.346 53.3235 -83.6295 -101.416 52.5476 -82.8166 -101.388 52.2342 
-82.0059 -101.141 51.6968 -81.6117 -100.925 50.8262 -84.3655 -100.657 54.5647 
-84.1297 -100.503 53.5999 -83.8583 -100.494 52.6575 -83.1487 -100.59 52.3256 
-82.2439 -100.526 51.947 -81.8318 -100.376 50.9462 -81.7068 -100.368 50.0228 
-84.26 -99.9816 54.8387 -84.1646 -99.7061 53.968 -83.9693 -99.594 52.8942 
-83.3789 -99.707 52.3466 -82.3901 -99.8151 52.1662 -81.7863 -99.8212 51.3599 
-81.7303 -99.8656 50.2269 -81.5369 -99.9743 49.6405 -83.8467 -99.7256 55.0581 
-83.9264 -99.3358 54.3929 -83.854 -99.1144 53.3844 -83.451 -99.13 52.4784 
-82.5796 -99.2168 52.1368 -81.7461 -99.2647 51.694 -81.4756 -99.3235 50.7404 
-81.4218 -99.402 49.9403 -81.0639 -99.4475 49.6565 -83.2485 -99.7555 55.1355 
-83.3632 -99.3289 54.6567 -83.3883 -98.9907 53.9373 -83.2039 -98.8204 52.9456 
-82.6846 -98.7187 52.1869 -81.9591 -98.6559 51.7408 -81.4339 -98.6844 51.1251 
-81.2235 -98.754 50.379 -81.0208 -98.7778 49.8859 -80.6124 -98.7619 49.6477 
-82.2101 -103.919 53.3858 -82.1819 -103.377 52.8725 -81.9614 -104.041 52.803 
-82.005 -102.735 52.1962 -81.8376 -103.406 52.2383 -81.4769 -103.954 52.4098 
-81.6043 -102.148 51.4752 -81.535 -102.755 51.4636 -81.2613 -103.154 51.828 
-80.7107 -103.514 52.1815 -81.3439 -101.518 50.7797 -81.2297 -102.244 50.6727 
-81.0501 -102.72 50.8289 -80.5446 -102.797 51.4231 -79.9227 -102.991 51.925 
-81.3689 -100.883 50.0588 -81.0576 -101.628 50.0655 -80.8465 -102.437 49.937 
-80.3687 -102.783 50.1638 -79.6864 -102.691 50.854 -79.1615 -102.772 51.5189 
-81.2258 -100.431 49.6106 -80.7775 -101 49.6694 -80.4704 -101.795 49.5264 
-80.0581 -102.583 49.3496 -79.3829 -102.874 49.6005 -78.8165 -102.755 50.2949 
-78.4501 -102.753 51.0235 -80.741 -99.9396 49.5639 -80.2671 -100.47 49.5128 
-79.9295 -101.069 49.3644 -79.6332 -101.799 49.1428 -79.0914 -102.474 49.0478 
-78.5435 -102.744 49.3166 -78.2172 -102.66 49.9607 -77.901 -102.624 50.6684 
-80.2473 -99.2328 49.5431 -79.7869 -99.8109 49.4112 -79.4666 -100.422 49.2003 
-79.2693 -101.004 49.0014 -78.8793 -101.598 48.8947 -78.3544 -102.154 48.9167 
-78.0238 -102.427 49.2399 -77.7996 -102.394 49.887 -77.4583 -102.373 50.5662 
-80.0762 -98.3283 49.3635 -79.6057 -98.8443 49.2105 -79.5373 -98.036 48.9897 
-79.0637 -98.596 48.8073 -78.8405 -97.965 48.8754 -79.2135 -99.5332 48.9986 
-78.3557 -98.5401 48.7052 -77.9389 -97.9419 48.9825 -78.7088 -99.3379 48.6088 
-78.9994 -100.239 48.7664 -77.4399 -98.5365 48.7388 -77.0265 -97.8069 48.9552 
-77.8682 -99.2625 48.4597 -78.3312 -100.051 48.3917 -78.6754 -100.794 48.638 
-76.5459 -98.4937 48.7216 -76.1795 -97.6678 48.9991 -76.8568 -99.2717 48.4219 
-77.2494 -99.9239 48.1873 -77.73 -100.572 48.2763 -78.1107 -101.324 48.6297 
-75.7548 -98.4569 48.9411 -75.5062 -97.7326 49.4043 -76.0339 -99.2783 48.5933 
-76.3078 -99.8817 48.344 -76.6723 -100.439 48.2124 -77.166 -101.137 48.4045 
-77.6722 -101.871 48.817 -75.1734 -98.5057 49.4007 -75.1521 -98.0203 49.9351 
-75.3352 -99.1942 48.9971 -75.6516 -99.8103 48.8515 -75.9861 -100.381 48.7063 
-76.3311 -101.085 48.5952 -76.8757 -101.726 48.8618 -77.4604 -102.134 49.3691 
-74.8091 -98.6206 49.8946 -74.8888 -98.3089 50.398 -74.7222 -99.0749 49.4031 
-74.8965 -99.6448 49.2428 -75.3158 -100.313 49.2466 -75.6684 -101.093 49.0869 
-76.0577 -101.712 49.12 -76.6695 -101.972 49.5881 -77.2032 -102.117 50.1291 
-74.4369 -98.6893 50.3928 -74.444 -98.4013 50.8076 -74.2421 -99.0132 49.8274 
-74.1405 -99.4942 49.453 -74.3994 -100.219 49.4042 -74.8244 -101.1 49.3522 
-75.2252 -101.761 49.3352 -75.7758 -101.958 49.728 -76.414 -101.98 50.3324 
-76.847 -102.18 50.7678 -80.5727 -98.0814 49.6452 -80.1279 -97.6769 49.2917 
-80.5365 -97.4327 49.6866 -80.0453 -97.0553 49.4199 -80.4004 -96.79 49.8788 
-79.5018 -97.4742 49.0911 -79.7484 -96.4134 49.7091 -80.1693 -96.2351 50.2452 
-79.2332 -96.8257 49.4121 -78.5669 -97.4038 49.1862 -79.3655 -96.0577 50.1087 
-79.9393 -95.9821 50.8417 -78.79 -96.2244 49.7111 -78.1513 -96.6822 49.4682 
-77.5241 -97.2651 49.1948 -78.9686 -96.0395 50.8549 -79.6083 -95.9772 51.6182 
-78.3434 -96.0343 50.2228 -77.7588 -96.1733 49.766 -77.1382 -96.6085 49.3509 
-76.5904 -97.0963 49.096 -78.5143 -95.8313 51.7557 -79.1171 -95.9531 52.2854 
-77.9404 -95.7464 51.2165 -77.4682 -95.8471 50.6264 -76.9422 -96.264 49.9606 
-76.3299 -96.716 49.5071 -75.8239 -97.1249 49.4115 -78.1547 -95.4399 52.3252 
-78.7125 -95.8749 52.8011 -77.6653 -95.0296 52.0039 -77.2592 -95.0936 51.6673 
-76.837 -95.7868 51.0709 -76.3349 -96.5436 50.434 -75.8003 -96.9929 50.1108 
-75.396 -97.4321 50.0239 -77.9983 -95.3899 52.7266 -78.5223 -95.8877 53.3674 
-77.576 -94.717 52.293 -77.1732 -94.457 52.0811 -76.6842 -95.0972 51.7821 
-76.2601 -96.1189 51.3263 -75.9058 -96.8171 50.9304 -75.4974 -97.3007 50.6714 
-75.1459 -97.8258 50.514 -77.8925 -95.7427 53.2799 -78.4005 -96.0382 53.9762 
-77.4948 -95.186 52.668 -77.1189 -94.7251 52.3001 -76.5472 -94.9624 52.0267 
[...]
CELL_DATA 2000
SCALARS Distance double
LOOKUP_TABLE default
142.723 142.827 142.595 142.238 142.949 142.705 142.314 142.079 141.703 
143.036 142.82 142.448 142.186 141.785 141.536 141.151 143.12 142.893 
142.545 142.317 141.926 141.657 141.24 140.982 140.573 143.294 143.002 
142.605 142.376 141.98 141.759 141.317 141.067 140.61 140.373 139.937 
143.434 143.174 142.715 142.438 141.989 141.76 141.31 141.089 140.625 
140.396 139.944 139.721 139.292 143.317 143.2 142.758 142.533 142.07 
141.802 141.352 141.088 140.651 140.408 139.981 139.744 139.309 139.079 
138.653 143.012 142.977 142.605 142.504 142.118 141.91 141.485 141.194 
140.74 140.46 140.019 139.782 139.338 139.101 138.641 138.423 137.999 
142.71 142.672 142.35 142.319 142.022 141.923 141.549 141.319 140.821 
140.532 140.005 139.771 139.283 139.086 138.614 138.405 137.966 137.778 
137.413 143.058 143.668 143.293 143.189 144.283 143.895 143.742 143.411 
143.292 144.79 144.43 144.213 143.913 143.778 143.488 143.36 145.241 
144.894 144.704 144.383 144.296 143.991 143.921 143.579 143.483 145.726 
145.39 145.288 144.95 144.935 144.603 144.593 144.215 144.161 143.77 
143.699 146.122 145.867 145.745 145.502 145.448 145.219 145.143 144.848 
144.705 144.395 144.264 143.959 143.813 146.218 146.104 145.861 145.757 
145.594 145.527 145.363 145.207 144.936 144.728 144.472 144.318 144.114 
143.914 143.652 145.991 145.991 145.696 145.68 145.505 145.521 145.433 
145.341 145.145 144.896 144.635 144.42 144.232 144.081 143.874 143.646 
143.345 145.635 145.672 145.438 145.462 145.379 145.437 145.505 145.485 
145.494 145.246 145.101 144.739 144.584 144.292 144.16 143.893 143.672 
143.353 143.057 145.372 145.092 145.223 145.252 144.97 145.076 145.194 
145.239 145.341 144.76 144.986 145.188 145.291 145.471 145.476 145.582 
144.287 144.665 144.855 145.153 145.317 145.533 145.652 145.696 145.628 
143.578 144.038 144.136 144.574 144.62 145.065 145.139 145.511 145.476 
145.55 145.271 142.752 143.209 143.234 143.701 143.659 144.139 144.122 
144.676 144.704 145.133 144.994 145.058 144.734 141.981 142.359 142.376 
142.794 142.797 143.196 143.163 143.609 143.629 144.171 144.19 144.586 
144.424 144.508 144.225 141.352 141.651 141.685 142.032 142.12 142.468 
142.523 142.82 142.815 143.179 143.196 143.666 143.634 143.997 143.799 
143.943 143.656 140.8 141.074 141.104 141.416 141.507 141.865 141.97 
142.281 142.292 142.529 142.461 142.765 142.702 143.102 142.986 143.32 
143.086 143.277 142.997 142.593 142.596 142.383 141.954 142.455 142.3 
141.818 141.686 141.271 142.249 142.119 141.675 141.529 141.116 140.99 
140.566 142.126 141.977 141.602 141.431 141.062 140.893 140.482 140.281 
139.787 141.979 141.882 141.478 141.348 140.946 140.833 140.407 140.226 
139.689 139.452 138.909 141.635 141.633 141.148 141.09 140.578 140.565 
140.084 140.04 139.481 139.311 138.717 138.552 138.103 141.188 141.21 
140.736 140.675 140.134 140.094 139.6 139.603 139.09 139.012 138.441 
138.316 137.845 137.799 137.487 140.804 140.797 140.398 140.316 139.845 
139.724 139.258 139.174 138.714 138.628 138.119 138.011 137.537 137.498 
137.152 137.188 136.888 140.493 140.466 140.105 140.044 139.636 139.519 
139.07 138.93 138.454 138.322 137.822 137.705 137.226 137.167 136.78 
136.804 136.48 136.528 136.179 142.427 141.867 142.13 142.091 141.231 
141.558 141.566 141.836 141.798 140.471 140.855 140.845 141.228 141.176 
141.476 141.326 139.617 140.017 139.952 140.396 140.31 140.706 140.51 
140.829 140.554 138.759 139.132 139.077 139.498 139.451 139.819 139.634 
139.928 139.645 139.951 139.691 138.028 138.326 138.297 138.675 138.701 
139.057 138.962 139.171 138.906 139.086 138.828 139.126 138.952 137.45 
137.687 137.616 137.928 137.912 138.307 138.263 138.561 138.348 138.483 
138.196 138.361 138.163 138.456 138.314 136.838 137.102 136.959 137.236 
137.11 137.474 137.385 137.779 137.624 137.895 137.643 137.808 137.578 
137.768 137.608 137.863 137.723 136.096 136.395 136.204 136.504 136.331 
136.659 136.536 136.898 136.77 137.103 136.919 137.188 136.997 137.221 
137.062 137.26 137.12 137.329 137.207 135.597 134.872 135.367 135.675 
134.27 134.672 134.973 135.481 135.837 133.772 134.128 134.404 134.847 
135.23 135.712 136.082 133.22 133.624 133.87 134.294 134.621 135.114 
135.468 135.954 136.28 132.634 133.055 133.317 133.727 133.965 134.434 
134.708 135.248 135.547 136.093 136.399 132.248 132.548 132.867 133.213 
133.465 133.806 134.034 134.466 134.776 135.317 135.691 136.228 136.557 
132.214 132.312 132.59 132.844 133.147 133.421 133.699 133.97 134.302 
134.676 135.111 135.585 136.002 136.437 136.718 132.385 132.362 132.475 
132.605 132.815 133.103 133.407 133.728 134.078 134.381 134.775 135.131 
135.533 135.931 136.242 136.594 136.798 132.466 132.473 132.454 132.48 
132.516 132.722 132.946 133.343 133.704 134.118 134.473 134.826 135.139 
135.49 135.77 136.124 136.353 136.674 136.874 135.396 134.912 134.997 
134.703 134.447 134.534 134.268 134.352 134.119 133.981 134.051 133.772 
133.902 133.668 133.8 133.596 133.706 133.631 133.29 133.362 133.083 
133.259 133.006 133.21 132.982 133.718 133.5 133.121 132.987 132.658 
132.682 132.409 132.557 132.31 132.531 132.347 133.711 133.519 133.087 
132.907 132.54 132.425 132.175 132.135 131.958 131.985 131.866 132.007 
131.993 133.575 133.39 132.852 132.74 132.309 132.289 132.066 132.068 
131.994 131.924 131.9 131.816 131.877 131.914 132.071 133.595 133.281 
132.719 132.475 132.019 131.965 131.762 131.884 131.893 132.001 132.054 
132.023 132.078 132.016 132.146 132.164 132.331 133.864 133.467 133.01 
132.576 132.191 131.879 131.703 131.64 131.68 131.811 131.915 132.05 
132.087 132.146 132.156 132.218 132.268 132.362 132.409 140.208 139.586 
139.871 139.794 138.908 139.207 139.128 139.43 139.333 138.229 138.521 
138.415 138.723 138.604 138.912 138.765 137.515 137.824 137.687 137.985 
137.796 138.107 137.907 138.257 138.085 136.744 137.057 136.898 137.219 
136.99 137.269 136.996 137.324 137.121 137.531 137.4 136.025 136.272 
136.075 136.388 136.171 136.452 136.177 136.442 136.218 136.569 136.462 
136.881 136.825 135.434 135.6 135.374 135.603 135.392 135.647 135.407 
135.655 135.437 135.735 135.626 136.001 135.979 136.384 136.398 134.882 
135.025 134.775 134.958 134.746 134.951 134.73 134.931 134.709 134.968 
134.834 135.194 135.162 135.572 135.595 136.017 136.074 134.303 134.431 
134.119 134.32 134.09 134.332 134.138 134.33 134.103 134.28 134.103 
134.398 134.353 134.757 134.782 135.21 135.253 135.695 135.753 140.352 
140.37 140.161 139.732 140.336 140.151 139.711 139.5 139.054 140.284 
140.102 139.683 139.476 139.024 138.813 138.374 140.307 140.082 139.676 
139.46 139.022 138.793 138.33 138.121 137.668 140.374 140.13 139.692 
139.462 139.02 138.796 138.341 138.104 137.632 137.405 136.938 140.405 
140.172 139.698 139.461 138.988 138.776 138.336 138.126 137.681 137.425 
136.956 136.697 136.256 140.416 140.187 139.721 139.466 138.987 138.747 
138.308 138.11 137.691 137.473 137.013 136.752 136.293 136.055 135.659 
140.411 140.197 139.746 139.5 139.037 138.78 138.34 138.108 137.688 
137.469 137.016 136.778 136.306 136.082 135.665 135.479 135.111 140.369 
140.175 139.713 139.499 139.03 138.815 138.373 138.155 137.727 137.492 
137.041 136.783 136.315 136.076 135.658 135.471 135.114 134.94 134.583 
140.194 139.648 139.78 139.493 139.062 139.181 138.862 139.041 138.792 
138.538 138.625 138.298 138.416 138.169 138.366 138.161 138.03 138.15 
137.855 137.916 137.631 137.766 137.551 137.749 137.533 137.411 137.605 
137.316 137.446 137.105 137.229 136.937 137.125 136.878 137.087 136.83 
136.744 136.92 136.575 136.777 136.401 136.599 136.256 136.471 136.185 
136.405 136.132 136.348 136.091 136.189 136.266 135.874 136.006 135.635 
135.828 135.51 135.739 135.463 135.695 135.435 135.653 135.411 135.634 
135.44 135.757 135.771 135.384 135.41 135.066 135.158 134.878 135.037 
134.777 134.974 134.725 134.953 134.74 134.98 134.808 135.046 134.907 
135.379 135.382 135.025 135.014 134.684 134.71 134.431 134.506 134.228 
134.34 134.069 134.256 134.06 134.316 134.174 134.427 134.28 134.522 
134.372 135.063 134.452 134.747 134.706 133.745 134.082 134.049 134.378 
134.368 133.033 133.345 133.318 133.686 133.711 134.064 134.101 132.476 
132.699 132.685 132.992 133.032 133.383 133.427 133.792 133.843 131.997 
132.206 132.211 132.466 132.523 132.782 132.824 133.119 133.176 133.536 
133.649 131.551 131.73 131.754 132.027 132.115 132.356 132.413 132.622 
132.699 132.958 133.115 133.446 133.67 131.463 131.433 131.493 131.636 
131.764 131.971 132.046 132.246 132.305 132.548 132.682 132.989 133.202 
133.551 133.8 131.84 131.623 131.707 131.608 131.75 131.764 131.849 
131.923 131.927 132.108 132.132 132.463 132.57 133.002 133.19 133.639 
133.865 132.279 132.093 132.129 131.96 132.036 131.926 131.987 131.896 
131.862 131.818 131.74 131.873 131.876 132.242 132.382 132.898 133.141 
133.66 133.925 135.156 135.091 134.943 134.556 135.036 134.871 134.481 
134.313 133.873 135.062 134.831 134.426 134.241 133.813 133.612 133.173 
135.256 134.913 134.458 134.202 133.786 133.581 133.183 132.975 132.612 
135.59 135.176 134.657 134.281 133.811 133.571 133.222 133.038 132.703 
132.485 132.14 135.922 135.526 135.003 134.547 133.995 133.634 133.245 
133.073 132.799 132.612 132.266 132.012 131.69 136.219 135.85 135.392 
134.94 134.399 133.909 133.436 133.132 132.862 132.701 132.455 132.207 
131.928 131.666 131.556 136.547 136.174 135.771 135.359 134.901 134.393 
133.913 133.445 133.125 132.845 132.676 132.446 132.286 132.016 131.948 
131.751 131.874 136.882 136.524 136.133 135.754 135.348 134.908 134.484 
133.997 133.658 133.254 133.075 132.776 132.665 132.403 132.338 132.153 
132.215 132.134 132.285 135.533 136.141 135.711 135.482 136.861 136.381 
136.143 135.674 135.448 137.63 137.146 136.932 136.41 136.174 135.68 
135.499 138.427 137.931 137.741 137.227 137.008 136.477 136.297 135.813 
135.718 139.339 138.791 138.615 138.061 137.878 137.339 137.194 136.683 
136.603 136.123 136.074 140.309 139.777 139.639 139.025 138.859 138.266 
138.167 137.633 137.592 137.073 137.015 136.497 136.408 141.158 140.724 
140.629 140.077 139.913 139.309 139.195 138.647 138.613 138.091 138.03 
137.473 137.347 136.801 136.684 141.874 141.506 141.435 140.992 140.859 
140.333 140.202 139.668 139.582 139.075 138.975 138.452 138.301 137.753 
137.605 137.083 136.992 142.535 142.191 142.14 141.751 141.675 141.226 
141.14 140.642 140.536 140.01 139.852 139.324 139.132 138.632 138.465 
137.986 137.865 137.394 137.307 142.878 143.293 142.899 142.505 143.712 
143.337 142.952 142.513 142.072 144.006 143.723 143.362 142.966 142.522 
142.067 141.584 144.06 143.901 143.525 143.268 142.82 142.47 141.958 
141.526 140.978 143.906 143.829 143.417 143.272 142.797 142.601 142.076 
141.783 141.173 140.799 140.2 143.638 143.603 143.2 143.091 142.614 
142.465 141.96 141.766 141.179 140.879 140.242 139.937 139.397 143.33 
143.314 142.95 142.872 142.432 142.282 141.804 141.631 141.114 140.856 
140.27 139.957 139.422 139.168 138.735 143.042 143.02 142.693 142.639 
142.238 142.108 141.641 141.487 141.005 140.806 140.274 139.996 139.467 
139.206 138.771 138.554 138.163 142.8 142.765 142.463 142.412 142.042 
141.922 141.463 141.312 140.84 140.687 140.194 139.98 139.452 139.217 
138.746 138.561 138.164 137.983 137.598 142.576 142.099 142.309 142.231 
141.551 141.789 141.686 141.919 141.781 140.965 141.199 141.059 141.308 
141.128 141.369 141.172 140.359 140.582 140.405 140.647 140.454 140.685 
140.472 140.719 140.538 139.711 139.934 139.716 139.964 139.761 140.008 
139.797 140.029 139.816 140.078 139.887 139.055 139.259 138.997 139.232 
138.983 139.265 139.043 139.327 139.081 139.337 139.079 139.367 139.146 
138.419 138.608 138.332 138.518 138.223 138.454 138.199 138.506 138.271 
138.561 138.287 138.548 138.304 138.614 138.449 137.786 137.975 137.722 
137.89 137.604 137.751 137.47 137.687 137.472 137.749 137.536 137.783 
137.555 137.815 137.66 137.983 137.883 137.212 137.364 137.129 137.299 
137.044 137.182 136.903 137.044 136.812 137.024 136.847 137.081 136.891 
137.118 136.947 137.228 137.117 137.449 137.344 136.915 136.698 136.599 
136.175 136.526 136.388 135.953 135.839 135.391 136.458 136.265 135.808 
135.634 135.174 135.045 134.578 136.424 136.226 135.772 135.547 135.093 
134.894 134.468 134.28 133.848 136.408 136.197 135.768 135.54 135.109 
134.887 134.493 134.272 133.888 133.651 133.282 136.488 136.225 135.793 
135.547 135.123 134.913 134.511 134.313 133.901 133.696 133.298 133.12 
132.801 136.621 136.344 135.904 135.616 135.196 134.948 134.549 134.322 
133.872 133.648 133.19 133.044 132.713 132.647 132.445 136.735 136.481 
136.085 135.785 135.407 135.106 134.765 134.456 134.056 133.699 133.236 
132.951 132.622 132.53 132.414 132.394 132.35 136.869 136.627 136.311 
136.023 135.711 135.395 135.104 134.775 134.457 134.047 133.649 133.195 
132.854 132.566 132.453 132.392 132.431 132.408 132.424 145.823 146.205 
146.073 146.078 146.39 146.376 146.331 146.165 145.974 146.211 146.364 
146.279 146.26 146.055 145.935 145.753 145.826 146.056 146.003 146.073 
145.916 145.917 145.833 145.789 145.73 145.46 145.708 145.777 145.842 
145.753 145.758 145.714 145.788 145.794 145.779 145.621 145.049 145.372 
145.517 145.674 145.617 145.632 145.512 145.59 145.518 145.649 145.479 
145.466 145.107 144.442 144.848 144.934 145.28 145.214 145.394 145.211 
145.314 145.134 145.261 145.06 145.147 144.832 144.805 144.414 143.727 
144.113 144.113 144.528 144.471 144.811 144.681 144.901 144.743 144.873 
144.693 144.753 144.508 144.499 144.183 144.125 143.784 143.096 143.389 
143.37 143.707 143.689 144.037 144.003 144.306 144.245 144.461 144.353 
144.455 144.267 144.259 143.988 143.92 143.6 143.522 143.194 145.656 
145.86 145.689 145.494 145.762 145.736 145.527 145.457 145.255 145.564 
145.533 145.307 145.327 145.104 145.102 144.813 145.508 145.378 145.074 
145.034 144.77 144.82 144.537 144.532 144.159 145.365 145.301 144.901 
144.803 144.46 144.467 144.194 144.215 143.886 143.836 143.458 144.895 
144.998 144.609 144.575 144.193 144.176 143.89 143.901 143.599 143.563 
143.195 143.141 142.778 144.268 144.447 144.168 144.227 143.906 143.907 
143.604 143.605 143.269 143.251 142.851 142.831 142.442 142.444 142.097 
143.653 143.848 143.638 143.779 143.523 143.591 143.271 143.283 142.878 
142.862 142.409 142.416 142.011 142.057 141.728 141.766 141.459 143.05 
143.247 143.025 143.221 142.961 143.122 142.778 142.858 142.401 142.408 
141.918 141.934 141.54 141.611 141.325 141.396 141.131 141.155 140.864 
145.407 145.31 145.255 145.089 145.128 145.145 144.955 144.953 144.85 
144.714 144.875 144.657 144.719 144.5 144.632 144.526 144.067 144.34 
144.14 144.295 144.007 144.15 143.934 144.179 144.034 143.373 143.658 
143.512 143.72 143.471 143.602 143.339 143.529 143.347 143.608 143.4 
142.71 142.988 142.868 143.107 142.917 143.072 142.815 142.95 142.723 
142.931 142.734 142.942 142.663 142.042 142.321 142.185 142.454 142.269 
142.493 142.234 142.4 142.115 142.303 142.07 142.292 142.058 142.22 
141.931 141.394 141.647 141.487 141.747 141.549 141.802 141.554 141.762 
141.461 141.648 141.371 141.605 141.387 141.619 141.393 141.544 141.295 
140.781 141.009 140.833 141.059 140.856 141.087 140.864 141.078 140.821 
140.995 140.725 140.914 140.698 140.938 140.758 140.983 140.779 140.94 
140.723 135.678 136.096 136.02 136.305 136.542 136.462 136.775 136.693 
137.01 137.049 136.925 137.238 137.169 137.511 137.434 137.77 137.64 
137.455 137.737 137.645 138.027 137.963 138.351 138.234 138.59 138.266 
138.071 138.33 138.181 138.572 138.51 138.957 138.861 139.255 139.1 
139.485 138.874 138.722 139.024 138.827 139.174 139.067 139.498 139.449 
139.855 139.756 140.121 140.004 140.391 139.462 139.36 139.729 139.545 
139.848 139.674 140.02 139.951 140.353 140.306 140.683 140.597 140.959 
140.869 141.222 140.019 139.952 140.326 140.205 140.483 140.31 140.588 
140.472 140.869 140.819 141.269 141.18 141.583 141.448 141.802 141.665 
141.969 140.507 140.463 140.796 140.725 140.989 140.868 141.133 141.026 
141.416 141.375 141.869 141.813 142.264 142.123 142.476 142.29 142.58 
142.397 142.645 
POINT_DATA 1002
SCALARS Distance double
LOOKUP_TABLE default
142.388 142.835 142.948 142.45 143.086 141.877 142.583 143.181 141.911 
141.32 142.699 143.231 142.065 141.379 140.756 142.75 143.381 142.187 
141.528 140.813 140.151 142.876 143.626 142.191 141.563 140.863 140.156 
139.503 143.022 143.655 142.249 141.527 140.842 140.17 139.506 138.869 
142.925 143.373 142.33 141.633 140.897 140.215 139.558 138.865 138.227 
142.635 143.029 142.258 141.769 141.054 140.269 139.575 138.881 138.178 
137.595 142.352 142.749 142.064 141.744 141.135 140.275 139.472 138.803 
138.159 137.563 137.083 143.396 143.538 144.074 144.077 144.7 143.614 
144.515 145.155 144.051 143.671 145.015 145.557 144.586 144.255 143.839 
145.601 146.022 145.253 144.971 144.555 144.094 145.981 146.364 145.658 
145.437 145.023 144.541 144.159 145.968 146.326 145.636 145.489 145.165 
144.623 144.255 143.93 145.682 145.969 145.44 145.441 145.37 144.901 
144.383 144.059 143.635 145.366 145.572 145.267 145.431 145.644 145.47 
144.936 144.436 143.985 143.395 145.18 145.125 144.973 145.133 144.806 
145.326 145.019 144.456 145.415 145.673 144.522 143.884 145.026 145.513 
145.773 143.711 143.141 144.178 144.658 145.248 145.41 142.777 142.338 
143.217 143.586 144.125 144.743 144.833 141.964 141.643 142.39 142.788 
143.118 143.646 144.185 144.256 141.348 141.067 141.745 142.228 142.556 
142.775 143.169 143.551 143.589 140.809 140.525 141.156 141.622 142.061 
142.259 142.352 142.586 142.82 142.848 142.181 142.119 141.563 141.96 
141.375 140.875 141.812 141.254 140.72 140.103 141.77 141.228 140.707 
140.021 139.238 141.619 141.048 140.565 139.95 139.098 138.391 141.221 
140.605 140.083 139.607 138.887 138.168 137.753 140.787 140.201 139.598 
139.121 138.545 137.893 137.477 137.23 140.447 139.961 139.375 138.803 
138.219 137.595 137.124 136.857 136.576 140.144 139.724 139.222 138.613 
137.945 137.303 136.783 136.433 136.151 135.812 141.857 141.256 141.587 
140.436 140.843 141.099 139.512 139.91 140.177 140.254 138.649 139.072 
139.373 139.355 139.326 137.941 138.304 138.727 138.787 138.578 138.582 
137.368 137.541 137.892 138.171 138.088 137.927 137.983 136.71 136.8 
136.989 137.275 137.429 137.412 137.396 137.448 135.9 136.004 136.188 
136.43 136.606 136.725 136.855 136.936 136.976 135.08 135.122 134.416 
134.48 133.915 135.319 133.99 133.413 134.744 135.629 133.471 132.777 
134.15 134.972 135.804 132.92 132.205 133.562 134.184 134.97 135.869 
132.522 132.019 133.16 133.673 134.246 135.113 136.092 132.398 132.228 
132.85 133.432 133.992 134.67 135.55 136.365 132.462 132.466 132.567 
133.029 133.761 134.482 135.173 135.879 136.483 132.492 132.441 132.411 
132.573 133.239 134.114 134.825 135.42 136.013 136.564 135.297 134.614 
134.824 134.165 134.354 134.026 133.635 133.956 133.517 133.462 133.302 
133.863 132.935 132.8 132.757 133.336 133.959 132.727 132.315 132.114 
132.059 133.265 133.91 132.662 132.235 131.979 131.784 131.757 132.997 
133.818 132.294 131.973 131.995 132.01 131.909 131.967 133.028 133.939 
132.133 131.63 131.687 132.001 132.153 132.174 132.3 133.436 134.217 
132.567 131.875 131.607 131.748 131.998 132.113 132.183 132.322 139.955 
139.514 139.289 138.818 138.616 139.053 138.129 137.942 138.297 138.463 
137.4 137.205 137.531 137.562 137.698 136.568 136.46 136.726 136.716 
136.713 136.952 135.789 135.828 135.87 135.917 135.899 136.044 136.39 
135.184 135.291 135.151 135.156 135.15 135.264 135.57 135.98 134.6 
134.754 134.542 134.546 134.488 134.491 134.749 135.168 135.638 140.579 
139.952 140.581 139.922 140.504 139.259 139.879 140.469 139.249 138.565 
139.899 140.554 139.252 138.566 137.859 139.94 140.629 139.238 138.571 
137.889 137.151 139.95 140.637 139.207 138.52 137.92 137.236 136.481 
139.974 140.636 139.241 138.514 137.891 137.265 136.541 135.859 139.98 
140.618 139.286 138.586 137.921 137.254 136.529 135.849 135.289 139.927 