# vtk DataFile Version 4.0
vtk output
ASCII
DATASET POLYDATA
POINTS 1002 float
-80.2722 -103.488 55.0002 -80.3241 -103.482 56.2858 -80.7555 -103.503 55.6699 
-80.7696 -103.417 54.5502 -81.3359 -103.54 55.0261 -80.1762 -103.26 54.1818 
-81.4031 -103.281 54.2004 -82.1101 -103.579 54.5328 -80.7592 -103.016 53.9375 
-80.1218 -102.854 53.5996 -82.148 -103.092 53.988 -82.8948 -103.437 54.32 
-81.413 -102.799 53.6134 -80.7845 -102.711 53.1295 -80.1254 -102.694 52.5038 
-82.8861 -102.879 53.7247 -83.5124 -103.082 54.1199 -82.1085 -102.694 53.1449 
-81.466 -102.726 52.4743 -80.8307 -102.739 51.8229 -80.0721 -102.616 51.2966 
-83.5334 -102.783 53.0912 -84.1504 -102.87 53.5386 -82.8324 -102.734 52.4174 
-82.1801 -102.757 51.7444 -81.5634 -102.69 51.2988 -80.7775 -102.434 51.0017 
-79.92 -102.197 50.7074 -84.1714 -102.802 52.2709 -84.8921 -102.876 52.7713 
-83.4859 -102.794 51.6086 -82.8989 -102.726 51.0037 -82.2884 -102.445 50.8089 
-81.5501 -102.103 50.7747 -80.6506 -101.9 50.5422 -79.8212 -101.895 50.0982 
-84.7653 -102.67 51.76 -85.3869 -102.698 52.265 -84.0634 -102.629 51.1622 
-83.5054 -102.609 50.5163 -82.9181 -102.341 50.2531 -82.2319 -101.964 50.2452 
-81.4815 -101.841 49.9767 -80.6383 -101.917 49.498 -79.8771 -101.992 49.0504 
-85.1132 -102.286 51.5674 -85.486 -102.181 52.0291 -84.5577 -102.247 51.0567 
-84.0459 -102.354 50.351 -83.484 -102.462 49.8055 -82.7861 -102.312 49.6141 
-82.1523 -102.128 49.2891 -81.5175 -102.097 48.7462 -80.7392 -102.065 48.3715 
-79.9954 -101.918 48.2269 -85.2219 -101.789 51.4024 -85.4633 -101.55 51.8404 
-84.8698 -101.843 50.9365 -84.5032 -102.012 50.2375 -84.0435 -102.416 49.4993 
-83.3615 -102.666 49.1407 -82.6802 -102.513 48.9127 -82.1637 -102.193 48.4459 
-81.562 -101.92 48.0308 -80.7865 -101.669 47.9164 -80.062 -101.402 47.9475 
-80.5632 -103.517 57.2396 -81.0535 -103.464 56.5705 -80.8053 -103.668 57.9071 
-81.3808 -103.421 57.2875 -81.0915 -103.875 58.2609 -81.7802 -103.543 55.7247 
-81.7088 -103.406 57.7227 -81.3452 -103.929 58.6761 -82.1946 -103.376 56.3632 
-82.6399 -103.671 54.9985 -81.9574 -103.345 58.1689 -81.533 -103.687 59.2653 
-82.4365 -103.127 56.8826 -82.8798 -103.344 55.5241 -83.2758 -103.458 54.6642 
-82.2379 -103.181 58.7187 -81.8412 -103.297 59.6982 -82.6178 -102.957 57.4413 
-82.9232 -102.852 56.109 -83.3306 -103.017 55.0989 -83.8516 -103.027 54.4173 
-82.7035 -103.011 59.1509 -82.3666 -103.005 59.9028 -83.0055 -102.907 58.0088 
-83.2543 -102.665 56.7381 -83.5858 -102.614 55.6465 -84.1705 -102.788 54.795 
-84.736 -102.895 53.8586 -83.2358 -102.863 59.4277 -82.8961 -102.789 60.0554 
-83.5298 -102.836 58.4494 -83.8588 -102.704 57.3254 -84.2467 -102.581 56.2335 
-84.6972 -102.615 55.2684 -85.1831 -102.735 54.3094 -85.4712 -102.799 53.2212 
-83.6212 -102.587 59.6078 -83.2115 -102.458 60.1489 -83.9588 -102.589 58.7475 
-84.309 -102.564 57.8014 -84.7571 -102.54 56.8103 -85.1376 -102.442 55.749 
-85.349 -102.293 54.7723 -85.5241 -102.241 53.8043 -85.6146 -102.264 52.8122 
-83.8067 -102.114 59.6633 -83.3338 -101.959 60.1191 -84.2164 -102.154 58.901 
-84.5237 -102.173 58.0915 -84.8719 -102.219 57.2788 -85.2358 -102.118 56.2371 
-85.3535 -101.764 55.1484 -85.3267 -101.428 54.2625 -85.4245 -101.379 53.4086 
-85.5328 -101.499 52.5442 -83.723 -101.452 59.7614 -84.2322 -101.574 59.1035 
-84.1506 -100.89 59.1889 -84.5471 -101.037 58.4159 -84.468 -100.385 58.5067 
-84.5857 -101.645 58.3022 -84.6992 -100.467 57.7195 -84.6736 -99.7931 57.8532 
-84.7788 -101.111 57.6381 -84.8233 -101.707 57.5717 -84.9996 -99.7032 56.9657 
-85.0292 -99.0525 57.1738 -85.0896 -100.385 56.8493 -85.1539 -101.063 56.8534 
-85.1801 -101.652 56.6683 -85.5196 -99.0402 56.0861 -85.4455 -98.4742 56.3648 
-85.7346 -99.5887 55.9839 -85.9001 -100.257 56.051 -85.7447 -100.879 55.903 
-85.4592 -101.311 55.505 -85.8025 -98.7441 55.237 -85.5652 -98.1743 55.5116 
-86.1926 -99.1452 55.2273 -86.6048 -99.636 55.4651 -86.621 -100.303 55.388 
-86.0548 -100.649 54.8997 -85.4447 -100.849 54.4961 -85.8282 -98.446 54.5764 
-85.479 -97.8936 54.7498 -86.2805 -98.8553 54.6192 -86.7313 -99.1907 54.9244 
-87.0244 -99.8903 54.9722 -86.8418 -100.485 54.4745 -86.097 -100.488 53.9455 
-85.4687 -100.639 53.6715 -85.8967 -97.9118 54.0708 -85.4357 -97.5225 54.135 
-86.4274 -98.3084 54.0864 -86.8077 -98.589 54.1838 -86.9955 -99.1863 54.1313 
-87.1263 -100.121 53.7242 -86.8906 -100.518 53.2495 -86.1848 -100.428 52.9976 
-85.6321 -100.736 52.8145 -85.9118 -97.4018 53.638 -85.3894 -97.1816 53.6577 
-86.5413 -97.6972 53.6105 -87.0282 -97.9369 53.4544 -87.1419 -98.3318 53.1123 
-87.1257 -99.2232 52.6724 -87.1452 -100.098 52.3465 -86.8252 -100.349 52.224 
-86.1641 -100.443 52.1545 -85.6595 -100.909 52.014 -85.3883 -101.181 51.3074 
-85.7629 -100.619 51.4181 -85.3409 -100.835 50.7152 -86.3555 -100.215 51.5407 
-85.7336 -100.29 50.8906 -85.3127 -100.448 50.1281 -86.8442 -99.935 51.5633 
-86.1718 -99.8276 51.1099 -85.5821 -99.8731 50.3884 -85.1949 -99.931 49.5457 
-87.0278 -99.2655 51.5698 -86.4958 -99.2899 51.1707 -85.79 -99.3104 50.667 
-85.2833 -99.3059 49.7423 -84.8786 -99.3184 48.8811 -87.1563 -98.2906 51.8539 
-86.7512 -98.4419 51.1653 -86.0251 -98.602 50.7643 -85.3123 -98.6484 49.9528 
-84.8233 -98.6314 48.9864 -84.5169 -98.7163 48.1627 -87.1679 -97.7088 52.4352 
-86.8123 -97.7352 51.4668 -86.1813 -97.8435 50.8021 -85.4554 -97.9388 50.0248 
-84.8036 -97.9736 49.0941 -84.4399 -97.9819 48.2581 -84.2603 -98.0854 47.5092 
-86.7489 -97.5016 52.9484 -86.4087 -97.5136 52.0295 -85.8619 -97.5004 51.0758 
-85.4061 -97.3988 50.1045 -84.9035 -97.3622 49.1128 -84.4733 -97.3288 48.2617 
-84.2339 -97.2985 47.5638 -83.9631 -97.3736 46.9986 -86.0763 -97.284 53.1588 
-85.7634 -97.3975 52.4372 -85.2246 -97.4766 51.4604 -84.9479 -97.2275 50.3649 
-84.7977 -96.873 49.2758 -84.5473 -96.6553 48.2984 -84.3066 -96.5398 47.515 
-83.999 -96.5486 46.9785 -83.5291 -96.6895 46.6651 -85.4831 -97.0558 53.1895 
-85.2438 -97.1481 52.5748 -84.7606 -97.319 51.6938 -84.4806 -97.1534 50.644 
-84.4804 -96.5997 49.6089 -84.4548 -96.0587 48.6226 -84.3368 -95.7742 47.6817 
-84.0934 -95.7397 46.9607 -83.6307 -95.8932 46.5966 -83.076 -96.1297 46.4576 
-85.0975 -101.404 50.8171 -85.0546 -101.069 50.0903 -84.8379 -101.581 50.1688 
-84.9794 -100.599 49.4536 -84.7684 -101.283 49.3638 -84.5154 -101.958 49.3556 
-84.7301 -99.9636 48.8979 -84.4834 -100.62 48.8809 -84.2936 -101.505 48.7744 
-83.9355 -102.396 48.8381 -84.4333 -99.4031 48.1524 -84.1354 -99.9136 48.3423 
-83.8688 -100.51 48.4963 -83.6223 -101.532 48.5867 -83.1855 -102.4 48.7221 
-84.2358 -98.8666 47.3407 -83.9998 -99.512 47.4304 -83.6181 -99.8678 47.78 
-83.2873 -100.377 48.1648 -82.9592 -101.228 48.4428 -82.5779 -101.939 48.4667 
-83.924 -98.1366 46.7978 -83.8254 -98.9659 46.6826 -83.5363 -99.6069 46.8336 
-83.1255 -99.9987 47.1742 -82.7296 -100.345 47.6596 -82.382 -100.823 48.0529 
-82.0276 -101.43 48.063 -83.3847 -97.3482 46.5433 -83.3159 -98.1076 46.3831 
-83.2028 -98.9416 46.3494 -82.9387 -99.7286 46.3974 -82.5475 -100.223 46.5982 
-82.1165 -100.36 47.1698 -81.7092 -100.556 47.7288 -81.2881 -101.092 47.8739 
-82.8479 -96.704 46.4039 -82.7202 -97.3183 46.2525 -82.6482 -98.0218 46.1643 
-82.5341 -98.8896 46.1383 -82.3002 -99.7798 46.0532 -81.8959 -100.281 46.2402 
-81.3869 -100.332 46.9258 -80.9108 -100.433 47.5887 -80.4854 -100.869 47.8494 
-82.5303 -95.9686 46.2429 -82.3392 -96.5591 46.106 -82.1233 -95.7864 45.8227 
-81.9412 -96.4573 45.5847 -81.6639 -95.6596 45.2185 -82.2015 -97.1741 45.9196 
-81.3443 -96.4602 45.0601 -80.9071 -95.6818 44.8256 -81.6903 -97.1443 45.4714 
-82.0615 -97.8734 45.9086 -80.5277 -96.5395 44.9234 -80.1279 -95.7669 44.9588 
-80.958 -97.224 45.2001 -81.4079 -97.8374 45.651 -81.8928 -98.7601 45.9169 
-79.8434 -96.6151 45.1824 -79.5371 -95.8704 45.4088 -80.1567 -97.3252 45.2386 
-80.5722 -97.9132 45.5653 -81.1009 -98.6648 45.7759 -81.5819 -99.6764 45.8426 
-79.1044 -96.7331 45.5191 -78.7716 -96.0865 45.7201 -79.3938 -97.4142 45.4278 
-79.668 -98.055 45.6022 -80.0858 -98.732 45.7666 -80.6152 -99.5669 45.8075 
-81.0446 -100.19 46.1642 -78.0556 -96.9036 45.7024 -77.7311 -96.3382 45.759 
-78.4562 -97.4977 45.661 -78.7547 -98.1445 45.7211 -79.0376 -98.889 45.8251 
-79.5093 -99.6237 45.8742 -80.0374 -100.122 46.1964 -80.4747 -100.281 46.9306 
-77.0531 -97.0272 45.7964 -76.7899 -96.4897 45.7858 -77.5138 -97.5527 45.9011 
-77.9103 -98.1209 45.9674 -78.1525 -98.9027 45.9697 -78.5213 -99.7 45.978 
-79.0917 -100.144 46.2381 -79.6138 -100.261 46.8944 -80.0427 -100.42 47.565 
-76.4058 -97.1024 46.0136 -76.1892 -96.5915 46.0407 -76.8536 -97.5925 46.1735 
-77.2858 -98.0762 46.3035 -77.4999 -98.7878 46.2423 -77.7193 -99.6483 46.1391 
-78.2183 -100.18 46.3141 -78.8283 -100.293 46.8663 -79.3065 -100.413 47.5009 
-79.6868 -100.825 47.8584 -82.9997 -95.4578 46.3045 -82.4351 -95.2274 46.0214 
-82.9037 -94.7979 46.1692 -82.3044 -94.4518 45.7888 -82.7187 -94.2536 46.3173 
-81.9782 -94.9497 45.517 -82.1036 -93.8335 45.9458 -82.4239 -93.9138 46.9072 
-81.7722 -94.1206 45.2912 -81.3686 -94.8182 44.9509 -81.7804 -93.6394 46.6273 
-81.9976 -93.8784 47.5946 -81.4798 -93.6077 45.5875 -80.9944 -94.0613 44.9212 
-80.4779 -94.8856 44.7953 -81.231 -93.8616 47.3503 -81.4043 -94.1086 47.9795 
-80.9606 -93.6344 46.3868 -80.4537 -93.6484 45.3941 -79.9308 -94.1583 45.0173 
-79.6901 -94.9931 45.1927 -80.5163 -94.0667 47.8453 -80.7544 -94.3676 48.2987 
-80.2232 -93.8341 47.2437 -79.7249 -93.639 46.2663 -79.2161 -93.7558 45.5398 
-79.0844 -94.3734 45.4954 -79.0833 -95.2327 45.6897 -79.9406 -94.1495 48.3593 
-80.3015 -94.5299 48.9214 -79.5992 -93.8392 47.9678 -79.1373 -93.6718 47.2704 
-78.6322 -93.7205 46.399 -78.4721 -94.1807 45.9655 -78.5493 -94.9096 45.9364 
-78.3025 -95.6408 45.883 -79.6699 -94.3517 49.0266 -80.1084 -94.5953 49.769 
-79.3007 -94.008 48.563 -78.8915 -93.7759 48.0897 -78.4235 -93.81 47.383 
-78.1519 -94.2482 46.7602 -78.1334 -94.9275 46.4348 -77.9302 -95.4869 46.1834 
-77.3534 -95.9513 45.9112 -79.5253 -94.5665 49.804 -79.974 -94.5487 50.6083 
[...]
CELL_DATA 2000
SCALARS Distance double
LOOKUP_TABLE default
141.408 141.468 141.251 140.891 141.641 141.348 140.973 140.733 140.352 
141.894 141.555 141.117 140.827 140.435 140.201 139.821 142.051 141.773 
141.294 140.977 140.568 140.316 139.967 139.706 139.32 142.084 141.863 
141.435 141.144 140.732 140.473 140.14 139.885 139.502 139.197 138.754 
142.165 141.916 141.53 141.27 140.878 140.631 140.26 140.028 139.63 
139.358 138.898 138.599 138.174 142.235 142.021 141.603 141.363 140.974 
140.75 140.367 140.124 139.718 139.457 139.053 138.766 138.391 138.099 
137.794 142.051 141.992 141.574 141.4 141.013 140.828 140.512 140.275 
139.956 139.641 139.326 138.999 138.715 138.394 138.116 137.808 137.536 
141.625 141.697 141.362 141.298 140.952 140.841 140.596 140.452 140.25 
139.991 139.741 139.39 139.103 138.755 138.443 138.125 137.782 137.5 
137.157 141.763 142.279 141.934 141.795 142.748 142.416 142.282 142.006 
141.971 143.132 142.831 142.667 142.45 142.451 142.248 142.257 143.399 
143.156 142.931 142.743 142.663 142.588 142.597 142.468 142.384 143.569 
143.394 143.179 142.959 142.753 142.644 142.558 142.586 142.557 142.483 
142.371 143.759 143.614 143.513 143.253 143.061 142.78 142.65 142.536 
142.593 142.587 142.674 142.532 142.495 143.992 143.884 143.867 143.641 
143.545 143.224 143.152 142.858 142.936 142.785 142.956 142.852 142.913 
142.699 142.584 144.091 144.092 144.07 143.953 143.87 143.688 143.638 
143.423 143.405 143.211 143.172 143.067 142.957 142.907 142.694 142.586 
142.297 143.92 144.053 144.003 144.02 143.891 143.858 143.752 143.714 
143.584 143.49 143.209 143.084 142.693 142.669 142.297 142.371 142.041 
142.075 141.756 143.729 143.387 143.672 143.815 142.954 143.266 143.408 
143.671 143.731 142.422 142.763 142.877 143.208 143.306 143.566 143.62 
141.824 142.161 142.247 142.621 142.735 143.088 143.165 143.438 143.44 
141.306 141.582 141.69 142.017 142.205 142.548 142.669 142.934 142.876 
143.11 142.974 140.868 141.135 141.292 141.571 141.847 142.153 142.42 
142.593 142.567 142.586 142.339 142.493 142.336 140.38 140.706 140.892 
141.212 141.463 141.818 142.126 142.422 142.54 142.512 142.267 142.075 
141.8 141.907 141.891 139.851 140.201 140.404 140.77 140.952 141.325 
141.484 141.93 142.074 142.388 142.291 142.196 141.866 141.661 141.485 
141.608 141.683 139.357 139.682 139.881 140.252 140.411 140.744 140.772 
141.139 141.161 141.65 141.671 141.997 141.804 141.767 141.467 141.39 
141.277 141.448 141.487 141.233 141.105 141.021 140.783 141.274 141.024 
140.748 140.591 140.305 141.452 141.221 140.831 140.607 140.232 140.087 
139.733 141.186 141.16 140.696 140.597 140.128 139.985 139.518 139.411 
138.959 140.704 140.707 140.265 140.279 139.822 139.769 139.23 139.123 
138.566 138.51 138.03 140.423 140.332 139.923 139.852 139.42 139.375 
138.854 138.763 138.167 138.078 137.543 137.551 137.136 140.146 140.13 
139.727 139.611 139.127 139.007 138.475 138.367 137.79 137.681 137.128 
137.079 136.625 136.673 136.286 139.656 139.764 139.387 139.367 138.864 
138.741 138.171 138.025 137.443 137.316 136.751 136.672 136.169 136.171 
135.741 135.808 135.416 139.139 139.239 138.909 138.951 138.507 138.441 
137.901 137.755 137.173 137.007 136.424 136.295 135.755 135.708 135.244 
135.275 134.878 134.952 134.604 141.28 140.763 141.049 141.058 140.258 
140.524 140.536 140.785 140.743 139.673 139.98 139.98 140.27 140.289 
140.513 140.477 138.904 139.296 139.239 139.616 139.616 139.999 140.04 
140.294 140.211 138.037 138.462 138.391 138.776 138.687 139.15 139.163 
139.67 139.66 139.948 139.737 137.198 137.621 137.622 137.966 137.87 
138.206 138.126 138.62 138.606 139.139 139.017 139.328 139.045 136.334 
136.783 136.811 137.226 137.204 137.503 137.415 137.702 137.626 138.035 
137.95 138.399 138.22 138.555 138.301 135.43 135.87 135.843 136.334 
136.33 136.784 136.757 137.089 137.012 137.262 137.148 137.426 137.283 
137.628 137.457 137.795 137.594 134.614 134.976 134.913 135.341 135.309 
135.807 135.809 136.304 136.292 136.668 136.576 136.806 136.639 136.838 
136.666 136.941 136.791 137.106 136.952 134.19 133.67 134.102 134.463 
133.139 133.591 133.949 134.389 134.808 132.574 133.055 133.444 133.886 
134.286 134.769 135.272 132.099 132.522 132.945 133.387 133.797 134.255 
134.735 135.27 135.794 131.844 132.149 132.563 132.935 133.348 133.769 
134.21 134.719 135.22 135.761 136.167 131.657 131.937 132.284 132.605 
132.967 133.338 133.725 134.177 134.614 135.149 135.553 136.029 136.272 
131.308 131.647 131.921 132.278 132.575 132.943 133.278 133.688 134.071 
134.545 134.924 135.397 135.67 136.069 136.265 130.869 131.208 131.479 
131.852 132.152 132.518 132.838 133.23 133.595 134.026 134.392 134.815 
135.108 135.49 135.721 136.096 136.348 130.582 130.828 131.155 131.468 
131.829 132.139 132.479 132.812 133.17 133.562 133.929 134.328 134.634 
134.991 135.244 135.591 135.855 136.236 136.525 133.915 133.311 133.52 
133.363 132.734 132.872 132.643 132.926 132.78 132.344 132.317 131.973 
132.162 131.961 132.296 132.174 132.224 132.042 131.623 131.581 131.29 
131.481 131.343 131.701 131.677 132.213 132.02 131.608 131.393 130.98 
130.919 130.669 130.9 130.889 131.307 131.424 132.122 131.986 131.594 
131.409 130.922 130.708 130.284 130.305 130.213 130.565 130.729 131.169 
131.31 132.078 131.882 131.484 131.332 130.892 130.666 130.218 130.05 
129.893 130.034 130.223 130.566 130.76 131.063 131.071 132.258 131.946 
131.578 131.313 130.981 130.712 130.399 130.131 130.011 129.941 130.135 
130.276 130.509 130.65 130.662 130.78 130.679 132.524 132.22 131.914 
131.584 131.32 130.983 130.744 130.43 130.31 130.159 130.281 130.327 
130.525 130.566 130.571 130.527 130.393 130.427 130.372 138.815 138.225 
138.53 138.524 137.5 137.846 137.78 138.152 138.094 136.665 137.021 
136.901 137.312 137.216 137.626 137.499 135.834 136.149 135.969 136.365 
136.24 136.68 136.543 136.953 136.773 135.064 135.332 135.127 135.45 
135.304 135.7 135.569 135.973 135.793 136.183 136 134.418 134.617 
134.42 134.662 134.507 134.827 134.718 135.065 134.916 135.24 135.056 
135.426 135.31 133.911 134.05 133.834 134.005 133.807 134.068 133.94 
134.271 134.151 134.449 134.277 134.56 134.427 134.807 134.788 133.41 
133.548 133.274 133.421 133.157 133.373 133.183 133.49 133.347 133.678 
133.508 133.809 133.649 133.984 133.936 134.36 134.419 132.88 133.004 
132.685 132.817 132.522 132.715 132.512 132.765 132.602 132.878 132.693 
132.993 132.825 133.18 133.117 133.538 133.595 134.052 134.163 138.869 
138.845 138.686 138.327 138.811 138.655 138.261 138.092 137.644 138.704 
138.57 138.158 138.005 137.559 137.366 136.866 138.581 138.44 138.039 
137.891 137.476 137.298 136.832 136.594 136.079 138.473 138.329 137.932 
137.782 137.376 137.218 136.771 136.564 136.045 135.798 135.286 138.357 
138.223 137.824 137.678 137.248 137.096 136.631 136.464 135.945 135.733 
135.211 135.01 134.589 138.242 138.107 137.724 137.576 137.149 136.968 
136.497 136.313 135.83 135.63 135.149 134.941 134.535 134.384 134.074 
138.125 137.99 137.606 137.475 137.068 136.89 136.435 136.223 135.778 
135.569 135.143 134.923 134.519 134.339 134.007 133.893 133.593 137.996 
137.856 137.441 137.327 136.919 136.791 136.356 136.179 135.745 135.556 
135.151 134.947 134.528 134.32 133.921 133.788 133.458 133.377 133.071 
137.787 137.222 137.39 137.185 136.638 136.795 136.57 136.791 136.639 
136.114 136.246 136.02 136.187 136.015 136.246 136.091 135.617 135.762 
135.553 135.68 135.466 135.634 135.452 135.678 135.509 135.07 135.241 
135.006 135.173 134.91 135.076 134.835 135.042 134.857 135.098 134.928 
134.522 134.659 134.366 134.541 134.255 134.458 134.206 134.418 134.194 
134.426 134.218 134.48 134.283 134.048 134.124 133.807 133.911 133.638 
133.807 133.606 133.802 133.586 133.765 133.501 133.723 133.492 133.791 
133.636 133.631 133.679 133.368 133.42 133.161 133.277 133.102 133.263 
133.058 133.184 132.886 133.024 132.764 133.01 132.884 133.21 133.165 
133.256 133.294 133.002 133.028 132.774 132.857 132.674 132.805 132.58 
132.671 132.341 132.429 132.153 132.35 132.249 132.536 132.534 132.836 
132.822 132.991 132.607 132.77 132.743 132.336 132.432 132.366 132.515 
132.52 132.074 132.189 132.113 132.193 132.158 132.337 132.409 131.695 
131.882 131.82 131.935 131.822 131.965 131.915 132.181 132.22 131.252 
131.437 131.338 131.534 131.349 131.522 131.311 131.562 131.461 131.853 
131.882 130.868 130.983 130.829 130.999 130.803 130.957 130.712 130.894 
130.766 131.083 131.167 131.574 131.756 130.544 130.62 130.512 130.606 
130.513 130.54 130.398 130.415 130.382 130.551 130.766 131.066 131.403 
131.687 131.983 130.307 130.346 130.345 130.435 130.503 130.487 130.459 
130.343 130.333 130.355 130.569 130.812 131.178 131.47 131.797 132.027 
132.29 130.279 130.228 130.286 130.364 130.516 130.564 130.578 130.49 
130.39 130.35 130.391 130.59 130.823 131.168 131.427 131.765 131.988 
132.283 132.513 133.025 132.888 132.843 132.647 132.776 132.682 132.493 
132.503 132.367 132.929 132.633 132.326 132.281 132.119 132.196 132.049 
133.386 132.934 132.461 132.149 131.809 131.824 131.66 131.808 131.646 
133.787 133.42 132.925 132.417 131.884 131.587 131.335 131.391 131.338 
131.444 131.309 133.998 133.732 133.352 132.913 132.4 131.879 131.538 
131.29 131.287 131.279 131.305 131.229 131.057 134.307 133.969 133.668 
133.318 132.975 132.496 132.187 131.749 131.677 131.464 131.526 131.376 
131.269 131.026 130.761 134.783 134.377 134.077 133.707 133.459 133.077 
132.857 132.444 132.298 131.968 131.925 131.696 131.601 131.324 131.071 
130.751 130.495 135.228 134.86 134.555 134.178 133.929 133.58 133.391 
133.05 132.885 132.545 132.404 132.113 131.992 131.708 131.528 131.168 
130.938 130.585 130.449 133.322 133.871 133.453 133.2 134.657 134.131 
133.883 133.371 133.152 135.575 135.036 134.853 134.227 134.009 133.446 
133.366 136.474 135.976 135.859 135.276 135.07 134.429 134.278 133.778 
133.793 137.384 136.874 136.789 136.272 136.124 135.505 135.283 134.697 
134.562 134.158 134.118 138.351 137.821 137.752 137.23 137.157 136.568 
136.389 135.722 135.501 134.927 134.796 134.391 134.326 139.252 138.787 
138.743 138.238 138.192 137.634 137.509 136.852 136.646 135.962 135.799 
135.208 135.154 134.677 134.688 139.998 139.629 139.619 139.198 139.167 
138.667 138.544 137.944 137.73 137.088 136.899 136.295 136.211 135.662 
135.656 135.158 135.184 140.643 140.323 140.324 139.99 139.976 139.575 
139.466 138.935 138.702 138.097 137.861 137.305 137.172 136.682 136.62 
136.143 136.094 135.634 135.6 140.993 141.412 141.019 140.67 141.854 
141.429 141.048 140.683 140.323 142.32 141.86 141.397 141.012 140.593 
140.27 139.814 142.653 142.259 141.685 141.284 140.753 140.448 139.936 
139.625 139.044 142.661 142.433 141.816 141.463 140.823 140.515 139.954 
139.68 139.107 138.781 138.204 142.431 142.312 141.757 141.489 140.832 
140.52 139.938 139.681 139.174 138.874 138.357 138.012 137.537 142.162 
142.073 141.595 141.398 140.812 140.515 139.952 139.688 139.251 138.994 
138.562 138.225 137.764 137.421 136.993 141.878 141.82 141.385 141.25 
140.754 140.514 140.009 139.744 139.34 139.11 138.741 138.449 137.995 
137.646 137.176 136.867 136.444 141.562 141.529 141.134 141.048 140.629 
140.47 140.04 139.819 139.42 139.206 138.839 138.603 138.165 137.847 
137.345 137.021 136.568 136.301 135.917 141.273 140.727 140.952 140.846 
140.173 140.39 140.271 140.503 140.371 139.615 139.816 139.684 139.923 
139.799 140.017 139.844 139.067 139.248 139.086 139.321 139.184 139.423 
139.255 139.458 139.255 138.493 138.682 138.507 138.731 138.565 138.783 
138.57 138.803 138.587 138.836 138.634 137.935 138.098 137.949 138.169 
138.017 138.19 137.932 138.094 137.82 138.08 137.857 138.161 137.928 
137.544 137.609 137.463 137.641 137.526 137.682 137.441 137.518 137.203 
137.343 137.089 137.342 137.109 137.39 137.124 137.255 137.278 137.071 
137.192 137.049 137.206 136.992 137.071 136.763 136.819 136.539 136.669 
136.433 136.62 136.377 136.6 136.368 136.876 136.938 136.66 136.77 
136.548 136.706 136.473 136.603 136.313 136.394 136.104 136.193 135.937 
136.048 135.802 135.945 135.721 135.921 135.738 135.331 135.32 135.113 
134.705 135.409 135.15 134.737 134.499 134.1 135.566 135.283 134.867 
134.579 134.172 133.932 133.573 135.731 135.449 135.042 134.742 134.325 
134.043 133.661 133.431 133.084 135.893 135.602 135.178 134.9 134.479 
134.204 133.792 133.53 133.142 132.925 132.585 136.04 135.75 135.289 
135.008 134.572 134.321 133.902 133.648 133.236 132.991 132.622 132.432 
132.13 136.158 135.882 135.434 135.131 134.697 134.419 134.015 133.749 
133.354 133.095 132.727 132.499 132.166 131.987 131.668 136.298 136.018 
135.62 135.312 134.924 134.612 134.247 133.928 133.557 133.249 132.892 
132.63 132.295 132.059 131.7 131.488 131.118 136.506 136.206 135.843 
135.539 135.203 134.896 134.581 134.244 133.898 133.531 133.169 132.839 
132.508 132.225 131.886 131.596 131.226 130.96 130.643 143.801 143.977 
143.819 143.587 143.907 143.892 143.728 143.58 143.429 143.778 143.817 
143.784 143.709 143.665 143.534 143.549 143.766 143.829 143.997 143.912 
143.975 143.803 143.811 143.689 143.675 143.715 143.906 144.25 144.277 
144.445 144.227 144.117 143.873 143.688 143.612 143.417 143.427 143.766 
144.114 144.407 144.623 144.634 144.472 144.172 143.772 143.531 143.224 
143.186 142.933 142.962 143.339 143.555 143.99 144.138 144.478 144.386 
144.369 143.969 143.672 143.248 143.041 142.782 142.713 142.457 142.43 
142.781 142.88 143.276 143.318 143.744 143.712 144.014 143.799 143.772 
143.376 143.15 142.783 142.622 142.335 142.239 141.917 141.871 142.193 
142.232 142.568 142.557 142.91 142.874 143.249 143.155 143.403 143.13 
143.13 142.714 142.593 142.194 142.097 141.74 141.657 141.302 143.536 
143.333 143.3 143.011 143.21 143.107 142.836 142.774 142.528 143.353 
143.117 142.818 142.64 142.374 142.324 142.096 143.513 143.33 142.97 
142.693 142.325 142.185 141.903 141.865 141.565 143.302 143.335 142.951 
142.768 142.289 142.122 141.756 141.678 141.349 141.275 140.918 142.813 
142.95 142.589 142.556 142.059 141.974 141.565 141.513 141.163 141.077 
140.697 140.613 140.269 142.289 142.424 142.081 142.109 141.659 141.642 
141.241 141.249 140.885 140.85 140.44 140.373 139.989 139.969 139.663 
141.727 141.88 141.548 141.614 141.211 141.227 140.839 140.869 140.492 
140.5 140.078 140.053 139.65 139.653 139.333 139.363 139.074 141.13 
141.293 140.996 141.098 140.746 140.792 140.418 140.448 140.064 140.077 
139.675 139.667 139.294 139.302 138.998 139.025 138.742 138.762 138.461 
143.497 142.989 143.238 143.186 142.521 142.745 142.72 142.911 142.8 
142.088 142.31 142.277 142.464 142.367 142.512 142.325 141.529 141.821 
141.765 141.999 141.876 142.057 141.88 142.002 141.763 140.858 141.179 
141.119 141.413 141.282 141.51 141.326 141.515 141.316 141.442 141.227 
140.225 140.509 140.459 140.749 140.648 140.887 140.714 140.925 140.753 
140.955 140.782 140.929 140.741 139.634 139.896 139.826 140.105 140.008 
140.261 140.105 140.318 140.15 140.374 140.231 140.437 140.257 140.415 
140.217 139.028 139.287 139.172 139.448 139.319 139.601 139.448 139.698 
139.528 139.766 139.623 139.864 139.716 139.903 139.704 139.86 139.674 
138.402 138.656 138.52 138.776 138.634 138.9 138.759 139.025 138.874 
139.126 138.977 139.235 139.103 139.342 139.184 139.359 139.176 139.335 
139.187 133.49 133.901 133.796 134.047 134.327 134.228 134.499 134.422 
134.773 134.792 134.674 134.96 134.885 135.252 135.217 135.641 135.303 
135.163 135.471 135.386 135.803 135.745 136.206 136.137 136.568 135.844 
135.702 136.036 135.945 136.42 136.363 136.891 136.791 137.267 137.112 
137.528 136.413 136.288 136.679 136.569 137.057 136.999 137.535 137.483 
137.977 137.86 138.282 138.104 138.49 136.995 136.902 137.344 137.245 
137.699 137.619 138.071 138.044 138.49 138.475 138.885 138.809 139.166 
139.025 139.35 137.563 137.494 137.918 137.862 138.253 138.189 138.545 
138.507 138.883 138.893 139.288 139.296 139.658 139.604 139.91 139.796 
140.068 138.08 138.025 138.386 138.349 138.677 138.638 138.95 138.923 
139.274 139.273 139.659 139.666 140.04 140.026 140.358 140.296 140.582 
140.467 140.718 
POINT_DATA 1002
SCALARS Distance double
LOOKUP_TABLE default
141.051 141.579 141.596 141.108 141.703 140.516 141.236 141.985 140.576 
139.966 141.447 142.253 140.669 140.062 139.438 141.62 142.28 140.818 
140.219 139.622 138.903 141.691 142.283 140.997 140.386 139.817 139.068 
138.294 141.777 142.44 141.127 140.514 139.883 139.191 138.437 137.794 
141.847 142.421 141.186 140.611 139.977 139.297 138.673 138.067 137.523 
141.709 142.024 141.166 140.687 140.24 139.652 139.031 138.446 137.838 
137.248 141.359 141.492 141.019 140.672 140.43 140.083 139.49 138.79 
138.094 137.416 136.809 142.118 142.091 142.632 142.53 143.085 142.229 
142.879 143.435 142.595 142.534 143.157 143.608 142.759 142.639 142.62 
143.422 143.681 142.964 142.538 142.501 142.551 143.742 143.855 143.378 
142.843 142.572 142.71 142.765 144.055 144.067 143.807 143.453 143.162 
143.077 143.084 142.894 144.155 144.052 144.001 143.805 143.657 143.398 
143.043 142.745 142.447 143.952 143.758 143.905 143.77 143.682 143.416 
142.814 142.223 141.925 141.754 143.478 143.589 143.096 143.116 142.65 
143.52 142.525 142.093 142.991 143.409 141.867 141.515 142.351 142.866 
143.223 141.367 141.04 141.838 142.43 142.715 142.695 140.999 140.567 
141.51 142.193 142.638 142.352 141.973 140.552 140.023 141.127 141.752 
142.435 142.549 141.901 141.527 140.028 139.502 140.633 141.097 141.606 
142.184 142.141 141.557 141.373 139.518 139.054 140.097 140.503 140.718 
141.164 141.668 141.604 141.244 141.217 140.99 140.857 140.502 140.975 
140.415 140 141.084 140.434 139.847 139.354 140.729 140.275 139.676 
139.033 138.492 140.231 139.836 139.356 138.661 138.007 137.592 140.05 
139.491 138.934 138.274 137.567 137.056 136.76 139.839 139.295 138.598 
137.893 137.204 136.615 136.204 135.896 139.355 138.97 138.331 137.586 
136.852 136.198 135.695 135.325 135.029 138.845 138.53 138.024 137.35 
136.585 135.837 135.232 134.806 134.503 134.281 140.798 140.274 140.538 
139.668 139.999 140.33 138.868 139.183 139.669 140.122 138.028 138.279 
138.6 139.222 139.64 137.245 137.594 137.739 138.04 138.557 138.856 
136.347 136.842 137.179 137.33 137.509 137.785 138.02 135.368 135.814 
136.334 136.759 136.95 136.987 137.08 137.273 134.532 134.842 135.273 
135.821 136.297 136.483 136.45 136.47 136.63 133.758 134.016 133.235 
133.523 132.659 134.309 132.985 132.081 133.826 134.724 132.502 131.715 
133.35 134.217 135.266 132.233 131.587 132.955 133.741 134.675 135.721 
131.992 131.393 132.629 133.318 134.116 135.054 135.885 131.558 130.974 
132.215 132.885 133.633 134.466 135.252 135.876 131.094 130.542 131.785 
132.457 133.175 133.981 134.729 135.344 135.943 130.849 130.356 131.525 
132.177 132.805 133.533 134.275 134.901 135.487 136.136 133.705 133.097 
133.132 132.387 132.685 132.446 131.879 132.469 131.653 131.786 131.78 
132.425 131.211 131.006 131.237 131.856 132.361 131.189 130.543 130.459 
130.972 131.743 132.264 131.184 130.396 129.917 130.265 130.951 131.64 
132.333 131.071 130.422 129.841 129.923 130.484 130.847 131.865 132.576 
131.229 130.645 130.132 130.061 130.424 130.62 130.522 132.22 132.778 
131.657 131.075 130.515 130.285 130.498 130.655 130.44 130.219 138.547 
138.198 137.93 137.412 137.158 137.731 136.496 136.344 136.795 137.124 
135.61 135.552 135.804 136.121 136.386 134.836 134.805 134.936 135.174 
135.414 135.581 134.211 134.24 134.215 134.373 134.609 134.725 134.863 
133.702 133.794 133.59 133.618 133.832 134.014 134.092 134.327 133.149 
133.289 132.971 132.912 133.022 133.188 133.323 133.534 133.949 139.006 
138.504 139.025 138.436 138.973 137.844 138.302 138.839 137.737 137.098 
138.181 138.724 137.634 137.059 136.343 138.084 138.614 137.532 136.962 
136.293 135.501 137.972 138.487 137.419 136.795 136.138 135.407 134.725 
137.863 138.376 137.338 136.691 136.007 135.347 134.693 134.189 137.731 
138.269 137.225 136.643 135.975 135.355 134.729 134.136 133.697 137.568 
138.152 137.026 136.507 135.922 135.341 134.758 134.097 133.531 133.147 