# vtk DataFile Version 4.0
vtk output
ASCII
DATASET POLYDATA
POINTS 1002 float
-81.1335 -105.009 59.0524 -81.1172 -105.104 59.7999 -81.7408 -105.051 59.4468 
-81.7803 -104.84 58.7826 -82.5213 -105.052 59.118 -81.1534 -104.596 58.558 
-82.4919 -104.66 58.6208 -83.2705 -105.032 58.8736 -81.7289 -104.249 58.4403 
-81.1166 -103.932 58.21 -83.1134 -104.406 58.4554 -83.7373 -104.62 58.6814 
-82.3073 -103.91 58.3444 -81.622 -103.527 58.0811 -80.9927 -103.354 57.6705 
-83.5882 -103.889 58.1527 -83.9848 -103.832 58.4668 -82.8975 -103.663 57.9789 
-82.1689 -103.25 57.7373 -81.5514 -103.085 57.2936 -80.8799 -103.048 56.7892 
-84.049 -103.302 57.8034 -84.3748 -103.251 58.2056 -83.5264 -103.372 57.4179 
-82.802 -103.163 57.0816 -82.1408 -102.932 56.7106 -81.4965 -102.922 56.221 
-80.7998 -102.836 55.7798 -84.5621 -102.936 57.5004 -84.9531 -102.98 57.9422 
-84.119 -103 56.9829 -83.4599 -102.974 56.4985 -82.7419 -102.795 56.1399 
-82.0525 -102.749 55.7376 -81.3152 -102.715 55.2793 -80.6263 -102.505 54.9366 
-84.9945 -102.612 57.2334 -85.3918 -102.612 57.7323 -84.6007 -102.629 56.655 
-84.0293 -102.627 56.1161 -83.3344 -102.52 55.7348 -82.6099 -102.455 55.418 
-81.8242 -102.48 54.9906 -81.0573 -102.338 54.5896 -80.4269 -102.117 54.2887 
-85.2656 -102.152 57.033 -85.5702 -102.059 57.5821 -85.0119 -102.267 56.3515 
-84.5643 -102.334 55.7377 -83.9117 -102.287 55.3023 -83.1834 -102.159 55.036 
-82.3902 -102.126 54.747 -81.624 -102.129 54.3365 -80.984 -102.007 53.9556 
-80.4276 -101.912 53.6265 -85.4314 -101.65 56.9159 -85.6461 -101.504 57.4589 
-85.3508 -101.901 56.146 -85.0947 -102.112 55.408 -84.51 -102.175 54.8603 
-83.7431 -102.019 54.5431 -82.9105 -101.794 54.3894 -82.1532 -101.763 54.1267 
-81.6161 -101.866 53.6681 -81.1726 -101.918 53.2177 -80.6446 -101.951 52.872 
-81.4418 -105.021 60.5048 -82.1556 -105.028 60.1115 -81.7533 -104.921 61.278 
-82.4858 -104.968 60.8848 -82.06 -104.903 61.9725 -83.012 -105.178 59.7264 
-82.7069 -104.886 61.5875 -82.3749 -104.907 62.5663 -83.2973 -105.113 60.5547 
-83.7297 -105.165 59.4582 -82.8167 -104.638 62.1432 -82.5517 -104.647 63.1377 
-83.3682 -104.79 61.3317 -83.923 -104.943 60.354 -84.048 -104.564 59.2663 
-82.7778 -104.147 62.6417 -82.498 -104.064 63.6676 -83.2796 -104.253 61.794 
-83.9068 -104.401 61.0708 -84.2155 -104.276 60.0486 -84.2613 -103.751 58.9758 
-82.8067 -103.714 63.1607 -82.5247 -103.615 64.0801 -83.2332 -103.787 62.1192 
-83.8065 -103.804 61.2949 -84.3033 -103.774 60.4985 -84.6264 -103.595 59.4891 
-84.8486 -103.29 58.5959 -83.1838 -103.596 63.6287 -82.9322 -103.568 64.405 
-83.5399 -103.607 62.5929 -83.951 -103.489 61.4972 -84.4073 -103.297 60.6168 
-84.9733 -103.215 59.7861 -85.469 -103.174 58.946 -85.5807 -102.967 58.2842 
-83.728 -103.553 63.9289 -83.5305 -103.592 64.6835 -84.0458 -103.491 63.0464 
-84.4034 -103.374 61.9687 -84.7582 -103.117 60.9314 -85.2894 -102.908 60.0917 
-85.9586 -102.908 59.2949 -86.2507 -102.832 58.5792 -85.9784 -102.478 58.057 
-84.0831 -103.296 64.041 -83.962 -103.362 64.861 -84.3254 -103.175 63.2252 
-84.7038 -103.108 62.3363 -85.1526 -103.007 61.3931 -85.6706 -102.831 60.5833 
-86.2835 -102.77 59.817 -86.7049 -102.739 58.9657 -86.5769 -102.424 58.2726 
-86.0681 -101.899 57.8502 -84.168 -102.862 64.3106 -84.2814 -102.724 63.3941 
-84.2483 -102.251 63.5798 -84.3946 -102.123 62.6608 -84.5169 -101.705 62.959 
-84.5683 -102.623 62.5344 -84.7304 -101.578 62.0272 -84.9244 -101.096 62.4348 
-84.8074 -102.074 61.7737 -85.1357 -102.644 61.6892 -85.2213 -100.903 61.4655 
-85.138 -100.388 61.7456 -85.3297 -101.45 61.1562 -85.6841 -102.096 61.084 
-85.8925 -102.639 60.9895 -85.5947 -100.207 60.9316 -85.2161 -99.8185 61.0082 
-85.9633 -100.685 60.775 -86.3665 -101.316 60.7465 -86.6425 -102.091 60.7389 
-86.5767 -102.616 60.389 -85.7491 -99.7242 60.4013 -85.3443 -99.3844 60.4485 
-86.2831 -100.086 60.3698 -86.7927 -100.5 60.4551 -87.0811 -101.227 60.505 
-87.1227 -102.118 60.1427 -86.9843 -102.617 59.484 -85.6941 -99.3266 59.766 
-85.4345 -98.908 59.9658 -86.1436 -99.7153 59.6481 -86.6916 -99.9849 59.7271 
-87.0386 -100.383 59.8544 -87.156 -101.198 59.5862 -87.1406 -102.004 58.952 
-86.9488 -102.338 58.4633 -85.5934 -98.8529 59.1167 -85.4408 -98.4002 59.4801 
-85.8753 -99.2888 58.848 -86.3393 -99.5892 58.7823 -86.7418 -99.8251 58.8462 
-86.9528 -100.303 58.715 -87.0243 -101.01 58.2849 -86.8721 -101.517 57.9293 
-86.4944 -101.725 57.8529 -85.5874 -98.3446 58.6415 -85.4057 -97.9631 59.0401 
-85.83 -98.7133 58.3422 -86.2168 -98.9983 58.1893 -86.6036 -99.2652 58.0811 
-86.8381 -99.6598 57.8853 -86.936 -100.181 57.6148 -86.8167 -100.637 57.4533 
-86.426 -100.93 57.4863 -85.9711 -101.182 57.5438 -85.5976 -101.088 57.0259 
-85.8852 -100.669 57.1623 -85.6173 -100.765 56.397 -86.3691 -100.353 57.0704 
-85.8647 -100.284 56.5401 -85.5111 -100.327 55.6731 -86.8143 -100.06 56.8881 
-86.3859 -99.9527 56.3904 -85.8212 -99.8505 55.7903 -85.2847 -99.7156 55.1281 
-87.0016 -99.5686 56.932 -86.9061 -99.5462 56.1323 -86.4037 -99.4768 55.6428 
-85.7025 -99.3048 55.2411 -85.0966 -99.1794 54.6533 -86.9753 -98.9059 57.3147 
-87.1774 -98.7536 56.2786 -86.8612 -98.8175 55.4988 -86.114 -98.8473 55.2064 
-85.392 -98.7652 54.7113 -84.9984 -98.7422 53.8331 -86.7332 -98.4274 57.7409 
-87.158 -97.9343 56.9099 -87.0073 -97.8765 55.8228 -86.2533 -98.1108 55.2565 
-85.4307 -98.2172 54.8127 -85.0538 -98.1522 53.8655 -84.9422 -98.1533 52.9436 
-86.2809 -98.2338 57.958 -86.7726 -97.6432 57.4615 -86.8113 -97.3358 56.4613 
-86.2269 -97.4426 55.5557 -85.4025 -97.5977 55.013 -84.9373 -97.5303 54.1569 
-84.8867 -97.4205 53.1252 -84.7115 -97.4808 52.576 -85.8264 -98.0618 58.113 
-86.1378 -97.6672 57.6793 -86.2283 -97.3422 56.9273 -85.9487 -97.2165 55.9435 
-85.4206 -97.1612 55.2138 -84.942 -97.0192 54.51 -84.7445 -96.8529 53.5895 
-84.5901 -96.8269 52.8693 -84.1421 -96.9652 52.5875 -85.4814 -97.7905 58.3942 
-85.5518 -97.5828 57.828 -85.5177 -97.3771 57.188 -85.3766 -97.1804 56.3234 
-85.188 -96.9286 55.4596 -84.9155 -96.6643 54.7448 -84.6171 -96.4915 54.023 
-84.3507 -96.4294 53.3202 -83.9729 -96.4673 52.8115 -83.4307 -96.5813 52.5154 
-85.5427 -101.383 56.2585 -85.5432 -101.059 55.5058 -85.4988 -101.723 55.3651 
-85.2159 -100.418 54.92 -85.3211 -101.289 54.7089 -85.0931 -101.926 54.6505 
-84.8243 -99.6906 54.5335 -84.8092 -100.48 54.3408 -84.7384 -101.335 54.1613 
-84.3136 -101.854 54.1915 -84.7044 -99.2441 53.8724 -84.4425 -99.8022 53.9041 
-84.248 -100.47 53.8732 -83.8601 -101.096 53.8581 -83.3558 -101.506 54.0248 
-84.73 -98.8316 52.9575 -84.3574 -99.4477 53.1069 -83.9624 -99.9141 53.3256 
-83.424 -100.313 53.5939 -82.8394 -100.766 53.7833 -82.4601 -101.285 53.9184 
-84.5296 -98.1935 52.4994 -84.1619 -98.9658 52.5377 -83.7285 -99.5628 52.6672 
-83.1523 -99.9054 53.0266 -82.4911 -100.253 53.3973 -82.1148 -100.845 53.4639 
-81.9443 -101.48 53.4592 -83.9444 -97.5402 52.53 -83.6287 -98.2577 52.514 
-83.2986 -98.9734 52.4362 -82.8808 -99.5096 52.5015 -82.3214 -99.9249 52.7626 
-81.9645 -100.544 52.8255 -81.9052 -101.322 52.6851 -81.6959 -101.814 52.7893 
-83.217 -97.0221 52.4767 -82.965 -97.5794 52.4891 -82.7675 -98.2163 52.3869 
-82.5488 -98.8531 52.2486 -82.1667 -99.409 52.2705 -81.8329 -100.064 52.2707 
-81.7929 -100.966 52.0562 -81.7314 -101.732 51.9665 -81.2919 -101.997 52.3032 
-82.7111 -96.3733 52.1659 -82.4836 -96.8531 52.1278 -82.2316 -96.0965 51.7251 
-82.0366 -96.6535 51.5643 -81.7814 -95.9545 51.4423 -82.3287 -97.3932 52.0638 
-81.4792 -96.5749 51.0819 -80.9528 -96.0228 51.2812 -81.8772 -97.212 51.3787 
-82.2187 -98.0098 51.927 -80.5703 -96.6003 50.8768 -80.0063 -96.1201 51.1667 
-81.1577 -97.1196 50.9387 -81.6414 -97.8352 51.4057 -81.9591 -98.6617 51.9051 
-79.777 -96.6497 51.0788 -79.366 -96.2393 51.3704 -80.2649 -97.1027 51.0825 
-80.812 -97.7566 51.3572 -81.2703 -98.539 51.7151 -81.6012 -99.3596 51.9661 
-79.1111 -96.8514 51.5218 -78.7271 -96.5118 51.7976 -79.5001 -97.2743 51.5049 
-79.9527 -97.8837 51.6713 -80.4428 -98.6157 51.844 -80.9498 -99.437 51.857 
-81.4548 -100.327 51.8016 -78.1757 -97.2092 51.759 -77.8502 -96.8319 52.0077 
-78.5796 -97.7006 51.6742 -79.0476 -98.2991 51.7365 -79.5365 -98.9538 51.833 
-80.0675 -99.6786 51.8409 -80.7391 -100.57 51.6477 -81.3919 -101.371 51.5701 
-77.2148 -97.5295 51.7739 -77.0363 -97.0807 52.0171 -77.5611 -98.114 51.6621 
-78.0683 -98.7444 51.6525 -78.6089 -99.3335 51.6625 -79.1047 -99.9273 51.705 
-79.6842 -100.687 51.661 -80.4059 -101.488 51.5445 -81.0125 -101.947 51.7217 
-76.5888 -97.7704 51.8607 -76.4976 -97.3129 52.1142 -76.8473 -98.3387 51.7842 
-77.3248 -98.9466 51.8363 -77.8857 -99.5002 51.8541 -78.3691 -100.007 51.8329 
-78.8055 -100.628 51.8094 -79.3294 -101.375 51.7381 -79.9137 -101.919 51.8066 
-80.3782 -102.047 52.2288 -83.1153 -96.1029 52.4926 -82.5529 -95.6815 52.0208 
-82.8248 -95.57 52.5944 -82.4266 -94.9262 52.1264 -82.5681 -95.0389 52.939 
-82.1415 -95.3001 51.7085 -82.2043 -94.4128 52.5305 -82.2844 -94.6571 53.5258 
-81.9064 -94.6091 51.9038 -81.455 -95.2588 51.6876 -81.7949 -94.3267 53.2367 
-81.8736 -94.5412 54.1687 -81.4321 -94.4115 52.2361 -80.905 -94.7303 51.88 
-80.3805 -95.3976 51.6266 -81.2061 -94.4287 54.1089 -81.3242 -94.7184 54.6126 
-80.7855 -94.5423 52.9713 -80.2258 -94.5731 52.1082 -79.7517 -94.7878 51.8356 
-79.4807 -95.504 51.5668 -80.5612 -94.5715 54.7114 -80.7746 -95.0982 54.8595 
-80.0848 -94.4949 54.0157 -79.5171 -94.486 52.9035 -79.1293 -94.4311 52.1907 
-78.9538 -94.929 51.9562 -78.8895 -95.8093 51.8512 -80.0467 -94.937 54.9137 
-80.3368 -95.4813 55.2017 -79.5511 -94.5364 54.6287 -78.9501 -94.3637 53.939 
-78.5763 -94.3283 53.013 -78.4563 -94.7239 52.4112 -78.387 -95.5527 52.2461 
-78.2071 -96.2882 52.1866 -79.7087 -95.4645 55.1574 -79.9971 -95.7351 55.7823 
-79.314 -95.0959 54.7459 -78.7623 -94.7428 54.4354 -78.31 -94.5826 53.8702 
-78.1138 -94.8662 53.0921 -77.9853 -95.5544 52.584 -77.7572 -96.1938 52.4335 
-77.4151 -96.6246 52.2837 -79.4477 -95.8552 55.7169 -79.7163 -95.8955 56.4379 
-79.18 -95.7692 55.0351 -78.7842 -95.546 54.6252 -78.3195 -95.2725 54.3473 
[...]
CELL_DATA 2000
SCALARS Distance double
LOOKUP_TABLE default
144.546 144.747 144.468 144.128 145.022 144.683 144.25 143.974 143.555 
145.126 144.891 144.369 144.067 143.559 143.322 142.865 144.849 144.817 
144.335 144.122 143.57 143.309 142.827 142.621 142.193 144.485 144.478 
144.141 144.029 143.564 143.317 142.83 142.601 142.193 141.992 141.59 
144.374 144.256 143.985 143.878 143.514 143.312 142.855 142.62 142.201 
142.004 141.607 141.395 140.962 144.33 144.214 143.893 143.782 143.424 
143.264 142.835 142.629 142.2 142.008 141.608 141.404 140.966 140.736 
140.295 144.105 144.076 143.739 143.672 143.327 143.19 142.799 142.604 
142.189 141.991 141.587 141.395 140.988 140.763 140.355 140.117 139.771 
143.758 143.779 143.51 143.499 143.245 143.14 142.828 142.624 142.236 
141.996 141.566 141.355 140.944 140.769 140.419 140.231 139.951 139.729 
139.513 144.804 145.246 145.022 145.043 145.691 145.481 145.564 145.35 
145.393 146.105 145.904 145.989 145.86 145.947 145.695 145.559 146.34 
146.207 146.193 146.175 146.248 146.149 145.986 145.648 145.246 146.269 
146.247 146.1 146.179 146.179 146.265 146.128 145.947 145.543 145.18 
144.789 146.134 146.1 145.952 145.974 145.898 146.024 145.926 145.944 
145.675 145.454 145.147 144.845 144.658 146.316 146.147 146.122 145.961 
145.889 145.804 145.703 145.699 145.577 145.535 145.407 145.24 145.116 
144.836 144.667 146.723 146.506 146.502 146.288 146.231 145.994 145.879 
145.673 145.6 145.507 145.536 145.478 145.475 145.279 145.097 144.765 
144.457 146.959 146.824 146.666 146.562 146.417 146.3 146.166 145.982 
145.907 145.73 145.792 145.691 145.776 145.618 145.489 145.164 144.813 
144.438 144.065 146.855 146.277 146.555 146.502 145.657 145.911 145.909 
146.222 146.241 145.204 145.372 145.345 145.629 145.755 146.055 146.097 
144.707 144.943 144.923 145.157 145.33 145.644 145.877 146.029 146.023 
144.106 144.421 144.515 144.781 145 145.315 145.662 145.91 146.109 
146.07 146.016 143.579 143.884 144.067 144.382 144.62 144.971 145.279 
145.656 145.907 146.113 146.131 146.074 145.935 143.076 143.387 143.51 
143.884 144.038 144.458 144.605 145.075 145.188 145.644 145.624 145.906 
145.696 145.783 145.496 142.517 142.819 142.84 143.221 143.274 143.717 
143.752 144.22 144.207 144.706 144.635 145.098 144.893 145.211 144.871 
145.07 144.712 141.984 142.235 142.229 142.531 142.563 142.925 142.962 
143.345 143.34 143.734 143.69 144.092 143.974 144.312 144.069 144.31 
144.003 144.206 143.934 143.543 143.544 143.356 143.037 143.585 143.368 
142.981 142.839 142.49 143.527 143.381 142.997 142.813 142.419 142.238 
141.806 143.293 143.248 142.9 142.794 142.414 142.222 141.785 141.55 
141.101 142.97 142.967 142.614 142.592 142.203 142.131 141.69 141.536 
141.046 140.848 140.394 142.633 142.647 142.297 142.268 141.841 141.799 
141.331 141.293 140.776 140.684 140.136 140.045 139.587 142.281 142.315 
142.019 141.987 141.583 141.467 140.986 140.893 140.398 140.319 139.776 
139.686 139.175 139.167 138.778 141.957 141.977 141.71 141.717 141.363 
141.261 140.794 140.636 140.149 140.005 139.511 139.361 138.871 138.776 
138.378 138.389 138.064 141.703 141.683 141.39 141.397 141.053 141.012 
140.566 140.45 139.95 139.808 139.315 139.162 138.69 138.549 138.14 
138.064 137.719 137.708 137.372 143.463 143.018 143.256 143.283 142.472 
142.802 142.87 143.112 143.086 141.705 142.12 142.184 142.604 142.61 
142.849 142.696 140.925 141.273 141.256 141.753 141.778 142.215 142.084 
142.327 142.07 140.261 140.537 140.457 140.828 140.813 141.266 141.163 
141.544 141.295 141.579 141.315 139.565 139.89 139.835 140.126 140.066 
140.383 140.262 140.589 140.371 140.696 140.474 140.811 140.651 138.807 
139.175 139.157 139.494 139.429 139.712 139.571 139.805 139.604 139.843 
139.697 140.003 139.959 140.27 140.214 138.057 138.411 138.367 138.746 
138.675 139.022 138.892 139.157 138.977 139.19 139.084 139.352 139.404 
139.704 139.77 139.969 139.895 137.306 137.636 137.53 137.908 137.813 
138.202 138.094 138.437 138.296 138.57 138.468 138.769 138.826 139.194 
139.327 139.603 139.6 139.693 139.534 136.827 136.142 136.651 137.026 
135.559 135.997 136.364 136.883 137.294 135.039 135.44 135.748 136.233 
136.635 137.176 137.588 134.491 134.88 135.138 135.605 135.976 136.521 
136.946 137.473 137.838 134.121 134.382 134.656 135.022 135.405 135.891 
136.348 136.858 137.283 137.736 138.092 134.017 134.164 134.454 134.685 
135.088 135.442 135.933 136.353 136.844 137.264 137.739 138.113 138.547 
133.88 134.067 134.307 134.547 134.909 135.219 135.67 136.031 136.505 
136.898 137.401 137.822 138.338 138.688 139.101 133.613 133.829 134.038 
134.328 134.664 135.004 135.402 135.758 136.157 136.544 136.969 137.433 
137.899 138.383 138.778 139.145 139.368 133.434 133.579 133.817 134.06 
134.432 134.746 135.168 135.484 135.871 136.188 136.558 136.953 137.352 
137.834 138.196 138.655 138.87 139.215 139.289 136.594 136.034 136.144 
135.868 135.546 135.575 135.261 135.444 135.28 135.233 135.143 134.777 
134.866 134.692 134.923 134.801 135.129 134.951 134.555 134.471 134.201 
134.333 134.177 134.414 134.263 135.115 134.936 134.561 134.358 133.955 
133.882 133.584 133.746 133.606 133.886 133.852 135.104 134.933 134.556 
134.362 133.882 133.678 133.222 133.201 133.014 133.256 133.33 133.646 
133.768 135.176 134.942 134.54 134.323 133.854 133.606 133.137 132.958 
132.741 132.819 132.946 133.215 133.422 133.658 133.721 135.387 135.092 
134.741 134.422 134.06 133.709 133.376 133.052 132.894 132.763 132.881 
132.987 133.203 133.369 133.441 133.557 133.499 135.647 135.37 135.118 
134.783 134.55 134.147 133.942 133.521 133.407 133.104 133.143 133.052 
133.17 133.215 133.255 133.315 133.261 133.33 133.298 141.484 140.969 
141.19 141.116 140.346 140.605 140.485 140.775 140.705 139.651 139.935 
139.792 140.084 139.964 140.295 140.196 138.928 139.22 139.107 139.394 
139.258 139.536 139.39 139.718 139.588 138.248 138.501 138.385 138.699 
138.574 138.846 138.645 138.912 138.73 139.078 138.946 137.651 137.839 
137.633 137.926 137.754 138.088 137.868 138.153 137.916 138.225 138.077 
138.449 138.346 137.072 137.236 136.945 137.153 136.88 137.187 136.95 
137.297 137.076 137.41 137.251 137.608 137.527 137.893 137.827 136.476 
136.632 136.328 136.478 136.159 136.353 136.089 136.379 136.186 136.537 
136.385 136.765 136.658 137.063 137.001 137.399 137.367 135.956 136.058 
135.765 135.879 135.584 135.715 135.468 135.649 135.466 135.714 135.555 
135.875 135.73 136.133 136.038 136.5 136.468 136.936 136.952 141.625 
141.666 141.487 141.125 141.639 141.488 141.131 140.946 140.532 141.634 
141.453 141.105 140.935 140.531 140.313 139.844 141.687 141.471 141.096 
140.911 140.516 140.306 139.833 139.59 139.105 141.688 141.495 141.072 
140.889 140.463 140.275 139.817 139.585 139.105 138.868 138.439 141.635 
141.45 141.013 140.827 140.373 140.192 139.734 139.547 139.099 138.889 
138.47 138.256 137.877 141.602 141.407 140.987 140.779 140.338 140.119 
139.663 139.459 139.029 138.857 138.456 138.279 137.883 137.694 137.304 
141.534 141.368 140.959 140.774 140.364 140.137 139.691 139.437 138.989 
138.785 138.386 138.23 137.84 137.67 137.266 137.089 136.701 141.394 
141.262 140.861 140.724 140.347 140.172 139.748 139.495 139.01 138.759 
138.317 138.148 137.771 137.619 137.242 137.058 136.689 136.508 136.181 
141.175 140.735 140.841 140.659 140.392 140.443 140.239 140.348 140.173 
139.991 140.08 139.816 139.923 139.678 139.819 139.569 139.384 139.549 
139.213 139.392 139.045 139.225 138.88 139.084 138.779 138.674 138.828 
138.44 138.66 138.286 138.492 138.105 138.314 138.002 138.263 138.052 
138.038 138.109 137.692 137.869 137.55 137.747 137.43 137.582 137.304 
137.514 137.353 137.63 137.518 137.547 137.533 137.1 137.187 136.908 
137.094 136.876 137.014 136.763 136.901 136.722 136.965 136.86 137.137 
137.013 137.202 137.133 136.704 136.685 136.389 136.525 136.342 136.506 
136.255 136.374 136.109 136.32 136.169 136.467 136.353 136.622 136.482 
136.931 136.857 136.446 136.362 136.025 136.071 135.866 136 135.749 
135.84 135.506 135.657 135.448 135.749 135.677 135.983 135.898 136.127 
136.007 136.654 136.012 136.287 136.153 135.28 135.585 135.498 135.79 
135.747 134.607 134.877 134.867 135.182 135.235 135.508 135.581 134.046 
134.27 134.296 134.623 134.716 135.012 135.046 135.342 135.376 133.568 
133.732 133.711 134.051 134.12 134.458 134.431 134.723 134.664 135.022 
135.061 133.257 133.293 133.196 133.449 133.504 133.834 133.867 134.126 
134.132 134.378 134.488 134.814 135.05 133.165 133.086 132.967 133.041 
133.11 133.32 133.48 133.698 133.882 134.056 134.3 134.485 134.799 
135.038 135.364 133.183 133.084 133.006 132.968 133.038 133.106 133.276 
133.44 133.658 133.882 134.135 134.378 134.649 134.885 135.141 135.382 
135.609 133.246 133.16 133.144 133.089 133.146 133.133 133.196 133.271 
133.335 133.558 133.669 134.023 134.181 134.565 134.729 135.069 135.226 
135.526 135.695 136.798 136.812 136.631 136.212 136.884 136.688 136.322 
136.027 135.521 136.979 136.793 136.498 136.223 135.767 135.361 134.849 
136.946 136.796 136.488 136.375 136.038 135.704 135.201 134.751 134.285 
136.904 136.665 136.244 136.215 135.973 135.908 135.572 135.199 134.716 
134.253 133.849 137.163 136.733 136.27 136.019 135.813 135.796 135.707 
135.549 135.254 134.795 134.375 133.893 133.576 137.679 137.189 136.811 
136.321 136.134 135.877 135.924 135.772 135.704 135.344 135.01 134.5 
134.131 133.689 133.449 138.178 137.774 137.477 137.004 136.81 136.429 
136.428 136.179 136.142 135.817 135.521 135.073 134.668 134.235 133.915 
133.571 133.386 138.553 138.239 137.974 137.615 137.394 137.062 136.938 
136.685 136.536 136.241 135.9 135.505 135.074 134.685 134.342 134.004 
133.77 133.496 133.379 137.142 137.635 137.286 137.124 138.337 137.852 
137.671 137.292 137.176 139.306 138.712 138.544 137.988 137.859 137.426 
137.32 140.318 139.749 139.597 138.986 138.837 138.266 138.13 137.617 
137.426 141.223 140.724 140.562 140.004 139.834 139.278 139.117 138.541 
138.331 137.729 137.488 142.008 141.587 141.451 140.925 140.763 140.23 
140.082 139.525 139.304 138.686 138.432 137.836 137.681 142.702 142.346 
142.302 141.827 141.719 141.182 141.065 140.5 140.299 139.66 139.375 
138.765 138.579 138.092 138.064 143.469 143.087 143.116 142.686 142.63 
142.138 142.025 141.49 141.305 140.679 140.396 139.73 139.5 138.959 
138.894 138.485 138.504 144.361 143.938 143.953 143.512 143.438 142.986 
142.841 142.372 142.171 141.638 141.381 140.764 140.528 139.929 139.815 
139.32 139.294 138.886 138.873 144.874 145.31 144.891 144.393 145.466 
145.164 144.642 144.29 143.777 145.513 145.23 144.694 144.408 143.886 
143.606 143.123 145.517 145.268 144.733 144.442 143.927 143.657 143.171 
142.916 142.433 145.334 145.213 144.723 144.493 143.993 143.719 143.227 
142.949 142.457 142.195 141.676 145.017 144.965 144.541 144.421 143.966 
143.768 143.284 143.017 142.527 142.244 141.757 141.45 140.919 144.779 
144.693 144.308 144.209 143.802 143.678 143.232 143.036 142.551 142.31 
141.84 141.57 141.089 140.745 140.24 144.645 144.535 144.175 144.035 
143.647 143.514 143.106 142.948 142.484 142.284 141.799 141.596 141.121 
140.885 140.401 140.101 139.649 144.532 144.436 144.108 143.957 143.575 
143.405 143.006 142.839 142.412 142.215 141.739 141.523 141.039 140.84 
140.379 140.177 139.748 139.521 139.153 144.368 143.939 144.101 143.937 
143.369 143.6 143.423 143.599 143.387 142.672 142.944 142.748 142.997 
142.776 142.991 142.779 141.968 142.203 141.967 142.241 142.022 142.309 
142.113 142.368 142.167 141.341 141.518 141.242 141.456 141.227 141.52 
141.356 141.662 141.472 141.722 141.49 140.728 140.912 140.655 140.808 
140.56 140.766 140.59 140.887 140.719 140.997 140.754 140.997 140.761 
140.086 140.293 140.112 140.289 140.077 140.194 139.956 140.146 139.957 
140.233 140.031 140.274 140.038 140.283 140.1 139.557 139.694 139.564 
139.775 139.655 139.779 139.528 139.588 139.323 139.503 139.338 139.591 
139.43 139.635 139.457 139.677 139.527 139.276 139.278 139.126 139.276 
139.206 139.374 139.192 139.222 138.913 138.954 138.743 138.947 138.851 
139.082 138.951 139.121 138.959 139.146 138.998 138.641 138.625 138.454 
138.101 138.62 138.456 138.095 137.91 137.562 138.505 138.405 138.023 
137.877 137.503 137.373 137.08 138.406 138.264 137.896 137.756 137.339 
137.233 136.869 136.847 136.556 138.607 138.311 137.986 137.714 137.326 
137.092 136.67 136.554 136.168 136.192 135.831 138.895 138.619 138.294 
137.958 137.59 137.231 136.82 136.493 136.07 135.861 135.465 135.411 
135.05 138.925 138.795 138.449 138.224 137.817 137.519 137.091 136.751 
136.324 135.97 135.553 135.257 134.879 134.725 134.406 138.905 138.774 
138.488 138.293 137.901 137.65 137.203 136.942 136.511 136.233 135.808 
135.482 135.048 134.741 134.355 134.173 133.875 139.123 138.904 138.724 
138.44 138.126 137.782 137.369 137.041 136.629 136.359 135.971 135.697 
135.28 134.957 134.53 134.236 133.894 133.715 133.493 147.123 146.761 
147.026 147.077 146.334 146.561 146.642 146.894 146.94 146.288 146.319 
146.494 146.591 146.812 146.911 147.02 146.528 146.514 146.772 146.722 
146.999 146.993 147.21 147.138 147.098 146.526 146.692 146.906 147 
147.181 147.23 147.34 147.326 147.223 147.068 146.742 146.15 146.438 
146.53 146.832 146.905 147.16 147.176 147.307 147.151 147.082 146.757 
146.572 146.236 145.668 145.926 145.939 146.255 146.289 146.637 146.687 
146.971 146.916 146.965 146.744 146.605 146.37 146.186 145.991 145.219 
145.43 145.409 145.659 145.665 145.978 146.04 146.401 146.439 146.67 
146.546 146.57 146.37 146.308 146.131 145.998 145.75 144.792 144.984 
144.933 145.147 145.103 145.37 145.371 145.727 145.744 146.095 145.99 
146.211 145.982 146.117 145.884 145.959 145.687 145.611 145.218 147.194 
147.243 147.262 147.13 147.045 147.164 147.081 147.029 146.675 146.913 
146.909 146.724 146.778 146.46 146.409 145.983 146.832 146.765 146.408 
146.371 146.016 146.05 145.706 145.69 145.31 146.471 146.531 146.133 
146.077 145.668 145.644 145.339 145.367 145.063 145.021 144.622 145.996 
146.062 145.727 145.738 145.356 145.343 145.029 145.05 144.768 144.753 
144.377 144.288 143.857 145.728 145.683 145.356 145.335 144.981 144.991 
144.66 144.712 144.397 144.432 144.051 144.011 143.582 143.517 143.137 
145.447 145.431 145.038 145.008 144.634 144.628 144.286 144.308 143.961 
143.998 143.607 143.625 143.2 143.197 142.806 142.811 142.48 144.905 
144.995 144.549 144.607 144.223 144.279 143.967 143.979 143.642 143.601 
143.206 143.175 142.772 142.779 142.404 142.434 142.092 142.134 141.82 
146.984 146.864 146.786 146.38 146.438 146.526 146.179 146.11 145.754 
145.821 146.01 145.761 145.841 145.588 145.569 145.305 145.189 145.408 
145.213 145.377 145.175 145.306 145.064 145.081 144.745 144.494 144.773 
144.599 144.82 144.615 144.807 144.548 144.674 144.311 144.365 144.012 
143.734 144.037 143.882 144.165 143.989 144.218 143.972 144.111 143.774 
143.848 143.523 143.633 143.421 143.054 143.311 143.171 143.439 143.297 
143.563 143.379 143.559 143.281 143.357 143.069 143.159 142.967 143.118 
142.966 142.438 142.686 142.552 142.78 142.626 142.874 142.718 142.956 
142.74 142.885 142.611 142.718 142.5 142.658 142.5 142.656 142.465 
141.793 142.066 141.938 142.176 142.006 142.228 142.052 142.294 142.114 
142.322 142.087 142.231 141.994 142.156 141.983 142.169 142.003 142.143 
141.943 137.236 137.571 137.532 137.787 137.987 137.942 138.279 138.163 
138.496 138.504 138.44 138.832 138.716 139.077 138.973 139.408 139.105 
139.007 139.397 139.287 139.627 139.533 139.935 139.914 140.381 139.746 
139.621 139.976 139.851 140.17 140.057 140.425 140.398 140.862 140.867 
141.303 140.293 140.212 140.533 140.423 140.749 140.622 141.014 140.931 
141.405 141.363 141.808 141.743 142.084 140.664 140.653 140.962 140.922 
141.252 141.19 141.61 141.562 142.057 141.983 142.405 142.271 142.574 
142.451 142.731 141.002 140.983 141.306 141.296 141.631 141.627 142.026 
142.072 142.553 142.585 142.996 142.89 143.156 142.973 143.235 143.115 
143.468 141.438 141.37 141.71 141.666 142.017 141.993 142.372 142.41 
142.841 142.938 143.345 143.37 143.655 143.547 143.803 143.673 144.035 
143.949 144.373 
POINT_DATA 1002
SCALARS Distance double
LOOKUP_TABLE default
144.248 144.613 144.778 144.379 145.085 143.76 144.586 145.397 143.786 
143.119 144.691 145.291 143.831 143.061 142.415 144.471 144.785 143.844 
143.035 142.387 141.778 144.18 144.493 143.774 143.074 142.382 141.813 
141.181 144.097 144.532 143.68 143.089 142.405 141.818 141.192 140.514 
144.015 144.445 143.569 143.023 142.394 141.804 141.203 140.505 139.868 
143.77 144.101 143.434 142.98 142.396 141.777 141.181 140.582 139.98 
139.466 143.468 143.707 143.295 143.008 142.498 141.815 141.108 140.545 
140.133 139.743 139.333 145.025 145.267 145.449 145.729 145.899 145.7 
146.088 146.329 146.154 145.989 146.207 146.487 146.286 146.306 145.665 
146.048 146.273 146.048 146.207 145.874 145.092 145.98 146.15 145.829 
145.82 145.753 145.4 144.952 146.312 146.488 146.077 145.765 145.525 
145.453 145.372 145.026 146.72 146.964 146.477 146.142 145.731 145.546 
145.612 145.442 144.825 146.79 147.125 146.492 146.283 146.075 145.916 
145.918 145.8 145.226 144.389 146.653 146.224 145.956 145.555 145.463 
145.95 145.1 145.052 145.382 145.935 144.679 144.393 144.992 145.618 
146.079 144.192 143.734 144.674 145.337 146.034 146.216 143.729 143.275 
144.281 144.905 145.598 146.091 146.089 143.158 142.798 143.644 144.189 
144.723 145.246 145.539 145.463 142.503 142.251 142.861 143.319 143.749 
144.152 144.511 144.631 144.521 141.954 141.747 142.231 142.597 142.97 
143.304 143.616 143.796 143.78 143.708 143.215 143.146 142.752 143.179 
142.619 142.099 143.17 142.642 141.997 141.323 142.96 142.572 142.029 
141.331 140.651 142.639 142.246 141.793 141.247 140.562 139.971 142.334 
141.921 141.36 140.84 140.243 139.604 139.187 142.016 141.708 141.121 
140.48 139.874 139.212 138.71 138.438 141.687 141.427 140.956 140.308 
139.661 138.997 138.406 138.019 137.736 141.408 141.076 140.655 140.087 
139.456 138.827 138.245 137.769 137.371 137.009 143.088 142.568 142.955 
141.695 142.291 142.585 140.801 141.274 141.769 141.899 140.162 140.41 
140.755 140.964 141.024 139.54 139.807 139.984 140.049 140.1 140.301 
138.798 139.135 139.347 139.383 139.382 139.611 139.966 137.997 138.306 
138.586 138.743 138.807 139.065 139.537 139.81 137.175 137.42 137.714 
137.984 138.162 138.435 138.98 139.465 139.527 136.297 136.483 135.646 
135.861 135.169 136.747 135.291 134.66 136.091 137.067 134.691 134.124 
135.432 136.404 137.369 134.333 133.908 134.945 135.839 136.803 137.679 
134.254 133.892 134.778 135.543 136.42 137.312 138.227 134.057 133.693 
134.612 135.339 136.131 136.965 137.928 138.859 133.74 133.407 134.319 
135.064 135.806 136.538 137.407 138.363 139.113 133.59 133.305 134.121 
134.856 135.585 136.222 136.916 137.734 138.491 139.008 136.475 135.661 
135.967 135.097 135.574 135.027 134.76 135.366 134.476 134.576 134.728 
135.293 134.179 133.949 134.008 134.791 135.264 134.169 133.52 133.284 
133.527 134.747 135.301 134.132 133.349 132.801 132.959 133.506 134.78 
135.448 134.093 133.34 132.726 132.698 133.182 133.579 135.05 135.663 
134.393 133.697 133.092 132.867 133.081 133.347 133.4 135.4 135.88 
134.906 134.352 133.777 133.354 133.21 133.219 133.2 133.185 141.297 
140.866 140.745 140.206 140.09 140.385 139.51 139.355 139.66 139.846 
138.798 138.634 139.013 139.102 139.223 138.072 138.039 138.288 138.423 
138.412 138.556 137.408 137.507 137.42 137.556 137.626 137.711 137.966 
136.796 136.915 136.635 136.586 136.709 136.895 137.149 137.467 136.186 
136.327 136.004 135.84 135.842 136.008 136.251 136.573 136.962 141.832 
141.333 141.832 141.299 141.788 140.762 141.271 141.844 140.744 140.088 
141.3 141.919 140.718 140.086 139.327 141.269 141.876 140.65 140.024 
139.343 138.645 141.208 141.823 140.565 139.906 139.276 138.68 138.085 
141.191 141.794 140.565 139.887 139.198 138.616 138.073 137.492 141.121 
141.687 140.567 139.961 139.227 138.543 138.001 137.446 136.861 140.977 
141.517 140.486 139.988 139.297 138.508 137.902 137.412 136.869 136.337 