# vtk DataFile Version 4.0
vtk output
ASCII
DATASET POLYDATA
POINTS 1002 float
-82.2802 -106.579 59.0241 -82.4964 -106.632 59.7063 -83.0054 -106.634 59.3698 
-82.8306 -106.407 58.7729 -83.5 -106.437 59.1581 -82.0265 -106.266 58.4269 
-83.3236 -106.135 58.432 -83.9816 -106.174 58.7664 -82.5889 -105.951 58.1454 
-81.9428 -105.84 57.8302 -83.7461 -105.982 57.7662 -84.3908 -105.972 58.0431 
-83.0368 -105.661 57.6634 -82.4717 -105.487 57.4884 -81.8458 -105.409 57.1765 
-84.1345 -105.909 56.9843 -84.6344 -105.671 57.2975 -83.4437 -105.564 56.9598 
-82.8837 -105.208 56.9521 -82.2475 -105.125 56.7295 -81.3809 -105.03 56.3945 
-84.4506 -105.659 56.4028 -84.8372 -105.257 56.7689 -83.8982 -105.555 56.2664 
-83.2905 -105.13 56.2574 -82.6064 -104.969 56.0578 -81.6999 -104.978 55.6946 
-80.8259 -104.938 55.3281 -84.7295 -105.297 55.9167 -85.2348 -105.019 56.2796 
-84.2972 -105.452 55.5803 -83.6842 -105.202 55.4379 -82.886 -104.949 55.2836 
-82.0015 -104.961 54.9198 -81.196 -105.043 54.4611 -80.5591 -105.092 54.0567 
-85.0392 -104.979 55.4482 -85.7382 -104.922 55.7658 -84.5971 -105.176 54.9544 
-84.0483 -105.173 54.5955 -83.1308 -104.93 54.4902 -82.1583 -104.796 54.3309 
-81.4432 -104.861 53.9139 -80.9147 -104.984 53.4033 -80.353 -105.075 53.017 
-85.276 -104.589 55.1817 -86.0457 -104.655 55.4277 -84.7833 -104.678 54.6773 
-84.3527 -104.788 54.164 -83.5083 -104.667 53.9606 -82.4301 -104.451 53.929 
-81.6271 -104.401 53.7033 -81.1123 -104.497 53.2331 -80.607 -104.636 52.7732 
-79.9946 -104.764 52.4909 -85.3458 -104.078 55.1451 -86.0641 -104.167 55.3333 
-84.8413 -104.053 54.7041 -84.4863 -104.138 54.176 -83.8406 -104.128 53.8738 
-82.8738 -103.977 53.7655 -82.0235 -103.912 53.5709 -81.4072 -103.979 53.1999 
-80.83 -104.074 52.7897 -80.2196 -104.195 52.4924 -79.6257 -104.354 52.3185 
-82.8546 -106.563 60.1766 -83.3024 -106.515 59.8185 -83.0632 -106.371 60.6405 
-83.4746 -106.189 60.2823 -83.4158 -106.176 61.0978 -83.7899 -106.235 59.6571 
-83.9148 -105.993 60.7027 -84.0751 -106.24 61.5491 -83.9722 -105.858 60.1304 
-84.3062 -105.875 59.2965 -84.6346 -106.085 61.0872 -84.6888 -106.426 61.9981 
-84.3924 -105.71 60.4164 -84.4624 -105.463 59.7303 -84.6677 -105.505 58.5534 
-85.1262 -105.94 61.5502 -84.9268 -106.218 62.411 -85.0147 -105.635 60.6706 
-84.8646 -105.306 59.9146 -84.8703 -105.066 58.9634 -84.9007 -105.099 57.7647 
-85.334 -105.449 62.0358 -85.0188 -105.683 62.6879 -85.4993 -105.283 61.1338 
-85.5545 -105.197 60.1557 -85.5103 -105.026 59.2113 -85.4249 -104.875 58.1413 
-85.3683 -104.913 57.102 -85.7315 -105.156 62.4242 -85.344 -105.243 62.8809 
-85.9484 -105.069 61.6565 -86.1491 -105.052 60.5905 -86.3125 -105.06 59.5236 
-86.2815 -105.024 58.4557 -86.2184 -105.012 57.3423 -86.1008 -105.015 56.4175 
-86.3627 -105.03 62.7635 -85.8678 -104.891 63.1014 -86.5435 -105.106 62.0916 
-86.5964 -105.026 61.0104 -86.7562 -104.908 59.8659 -86.8356 -104.909 58.8196 
-86.8409 -105.02 57.6783 -86.8904 -105.088 56.5609 -86.6636 -104.967 55.8093 
-86.8094 -104.708 63.0002 -86.2658 -104.476 63.2523 -87.0082 -104.901 62.4131 
-86.9483 -104.836 61.3529 -86.9706 -104.568 60.1528 -87.0244 -104.408 59.1532 
-86.9697 -104.508 58.1608 -87.0535 -104.693 56.9936 -87.1501 -104.728 55.9942 
-86.7998 -104.526 55.4905 -86.7055 -104.131 63.0556 -87.058 -104.305 62.6673 
-86.7198 -103.686 62.5189 -86.9371 -103.618 61.9081 -86.7226 -103.103 61.8205 
-87.0887 -104.305 61.7729 -86.9799 -102.95 61.0123 -86.9141 -102.497 61.1729 
-87.0911 -103.461 60.8469 -87.1167 -104.059 60.5312 -87.0754 -102.532 60.2096 
-86.7777 -102.09 60.4147 -87.3279 -102.969 59.9992 -87.4468 -103.338 59.7583 
-87.25 -103.815 59.4551 -86.7982 -102.18 59.4229 -86.3088 -101.905 59.5533 
-87.3563 -102.649 59.2717 -87.7825 -103.065 59.1196 -87.6085 -103.344 58.9036 
-87.1386 -103.814 58.5712 -86.5571 -101.7 58.7744 -86.093 -101.612 58.9664 
-87.1115 -101.947 58.5951 -87.6715 -102.532 58.4327 -87.7651 -103.028 58.2836 
-87.2744 -103.357 57.9945 -86.9756 -103.954 57.4929 -86.5553 -101.103 58.4015 
-86.0377 -101.032 58.6522 -86.9997 -101.131 58.1385 -87.3134 -101.588 57.8633 
-87.4943 -102.32 57.6261 -87.3078 -102.817 57.3505 -87.0265 -103.28 56.8837 
-87.0855 -104.033 56.3354 -86.3414 -100.511 58.0622 -85.7574 -100.411 58.2732 
-86.8026 -100.591 57.8228 -86.9137 -100.955 57.5547 -86.9428 -101.615 57.2503 
-87.0248 -102.179 56.8748 -86.9899 -102.592 56.417 -86.9703 -103.2 55.9464 
-87.0001 -103.969 55.6095 -85.8179 -100.082 57.5516 -85.2904 -100.014 57.7215 
-86.2914 -100.26 57.3782 -86.3908 -100.707 57.2161 -86.3073 -101.299 57.0084 
-86.4543 -101.744 56.6245 -86.6784 -102.054 56.1207 -86.6966 -102.506 55.7202 
-86.5886 -103.154 55.4993 -86.3967 -103.764 55.3926 -85.5005 -103.57 55.2454 
-85.7804 -103.183 55.3124 -85.0874 -103.057 54.8675 -86.0585 -102.632 55.3043 
-85.3118 -102.709 54.8842 -84.965 -102.673 54.0195 -86.264 -102.019 55.3905 
-85.5862 -102.129 54.8052 -85.0845 -102.228 54.0576 -84.8828 -102.225 53.1204 
-86.1617 -101.617 55.779 -85.7783 -101.452 54.87 -85.2244 -101.512 54.0832 
-84.8564 -101.583 53.2562 -84.5379 -101.55 52.6028 -85.8319 -101.406 56.2824 
-85.6343 -101.069 55.2617 -85.3085 -100.824 54.2748 -84.844 -100.857 53.4356 
-84.4919 -100.84 52.687 -84.0333 -100.801 52.2486 -85.7446 -100.99 56.5524 
-85.3692 -100.87 55.6662 -85.1558 -100.464 54.6645 -84.7723 -100.311 53.7537 
-84.4129 -100.276 52.935 -84.1123 -100.197 52.2817 -83.6049 -100.233 51.922 
-85.7976 -100.362 56.6537 -85.3108 -100.422 55.8493 -84.9848 -100.152 54.9865 
-84.6066 -99.8851 54.1007 -84.2148 -99.8062 53.2802 -83.979 -99.7356 52.6186 
-83.6968 -99.7237 52.1499 -83.2018 -99.8171 51.8342 -85.5344 -99.9434 56.7803 
-85.1762 -99.9201 55.9721 -84.8711 -99.7177 55.2092 -84.5547 -99.3745 54.4013 
-84.1596 -99.1823 53.5384 -83.8022 -99.1403 52.8698 -83.5063 -99.1652 52.4847 
-83.151 -99.2555 52.1914 -82.7091 -99.3416 51.8848 -85.0442 -99.8383 56.9503 
-84.7712 -99.7208 56.1345 -84.5594 -99.4659 55.4125 -84.444 -98.9856 54.7305 
-84.2955 -98.5463 53.8941 -83.9634 -98.3661 53.0528 -83.489 -98.3814 52.554 
-83.0159 -98.5033 52.3326 -82.5984 -98.6592 52.1138 -82.2122 -98.7802 51.8383 
-84.9494 -103.481 54.8591 -84.7718 -103.019 54.162 -84.5907 -103.482 54.268 
-84.7171 -102.7 53.1763 -84.3363 -103.063 53.5298 -84.0627 -103.531 53.8558 
-84.4532 -102.236 52.5773 -84.0079 -102.736 52.7984 -83.4946 -103.077 53.3264 
-83.2085 -103.478 53.6861 -83.8649 -101.51 52.4045 -83.5423 -102.191 52.5389 
-83.039 -102.686 52.7536 -82.6876 -103.072 53.1205 -82.4254 -103.472 53.4032 
-83.2465 -100.815 52.0785 -82.9326 -101.482 52.3494 -82.6668 -102.118 52.3687 
-82.4045 -102.732 52.3729 -82.1693 -103.254 52.6273 -81.8071 -103.615 52.9719 
-82.8422 -100.307 51.7027 -82.4284 -100.902 51.8648 -82.2283 -101.54 51.9405 
-82.1004 -102.249 51.8083 -81.865 -102.966 51.8726 -81.5061 -103.433 52.2433 
-81.0975 -103.702 52.619 -82.5087 -99.7953 51.588 -82.1582 -100.362 51.4703 
-81.8982 -101.051 51.475 -81.7553 -101.786 51.4047 -81.4907 -102.502 51.4069 
-81.0746 -103.058 51.6918 -80.6465 -103.394 52.116 -80.3407 -103.721 52.4067 
-82.0859 -99.2091 51.5792 -81.8755 -99.7132 51.3306 -81.6425 -100.424 51.1876 
-81.4546 -101.27 51.1095 -81.1803 -102.035 51.1067 -80.7397 -102.59 51.2948 
-80.2716 -102.978 51.6673 -79.9091 -103.354 52.0511 -79.702 -103.83 52.2684 
-81.678 -98.5441 51.6128 -81.4708 -98.9834 51.3552 -81.055 -98.5268 51.5 
-80.7259 -98.9823 51.1848 -80.3311 -98.7306 51.537 -81.2447 -99.5576 51.0884 
-79.9296 -99.2189 51.1741 -79.6199 -98.9054 51.606 -80.3834 -99.5767 50.8879 
-81.0134 -100.416 50.9171 -79.2699 -99.5277 51.3736 -78.9374 -99.0105 51.6623 
-79.4787 -99.8056 50.9729 -80.0469 -100.474 50.7969 -80.7509 -101.391 50.8861 
-78.6607 -99.8247 51.6431 -78.1544 -99.2037 51.7741 -78.8664 -100.218 51.3955 
-79.1017 -100.722 51.0702 -79.7374 -101.499 50.8958 -80.3663 -102.147 51.0015 
-77.8632 -99.9816 51.7721 -77.3742 -99.3611 51.9168 -78.366 -100.634 51.7425 
-78.5635 -101.206 51.5433 -78.8301 -101.787 51.1745 -79.4014 -102.278 51.0166 
-79.9117 -102.627 51.2643 -77.0079 -99.9403 51.8082 -76.8218 -99.4077 52.0705 
-77.5772 -100.781 51.8081 -78.0702 -101.618 51.7684 -78.22 -102.194 51.4259 
-78.5004 -102.554 51.0739 -79.0543 -102.82 51.1811 -79.5245 -103.075 51.6386 
-76.3979 -99.9594 51.9621 -76.4636 -99.5642 52.3299 -76.7033 -100.75 51.8649 
-77.2603 -101.73 51.828 -77.5697 -102.438 51.5241 -77.7132 -102.797 51.09 
-78.1764 -103.093 51.0441 -78.7933 -103.393 51.4827 -79.2623 -103.63 51.9773 
-76.0657 -100.21 52.3164 -76.1391 -99.9119 52.7348 -76.1675 -100.811 52.1117 
-76.508 -101.698 51.9994 -76.8273 -102.487 51.6979 -77.0019 -102.916 51.233 
-77.3851 -103.237 51.024 -78.0493 -103.646 51.306 -78.6423 -103.991 51.7974 
-79.1132 -104.199 52.1412 -82.0587 -98.0918 51.8505 -81.5683 -97.9715 51.7208 
-82.0684 -97.3464 51.883 -81.5237 -97.4018 51.9653 -81.969 -96.8727 52.1889 
-80.8855 -98.1183 51.8061 -81.1871 -97.0384 52.3351 -81.4705 -96.8711 52.6991 
-80.565 -97.573 52.1019 -79.9983 -98.2285 51.8937 -80.5745 -96.9027 52.7194 
-80.9714 -96.9304 53.2102 -79.9587 -97.1028 52.227 -79.4103 -97.4272 51.9371 
-79.1327 -98.0988 51.7812 -80.1859 -96.6796 53.3206 -80.8269 -96.7529 53.8225 
-79.4654 -96.8587 52.5575 -78.921 -96.9733 51.9398 -78.5951 -97.2712 51.7524 
-78.3659 -98.1824 51.7693 -79.9913 -96.5221 54.1286 -80.6636 -96.814 54.4513 
-79.249 -96.6546 53.4605 -78.8032 -97.0225 52.6466 -78.5121 -97.2459 52.2102 
-78.0825 -97.77 52.1295 -77.6693 -98.6491 52.0656 -79.7028 -96.8826 54.6631 
-80.3073 -97.2995 54.8932 -79.0119 -96.6477 54.3266 -78.6016 -96.9975 53.7627 
-78.4675 -97.5135 53.2833 -78.1244 -97.9513 53.0079 -77.6024 -98.5103 52.7424 
-77.1802 -99.0215 52.3971 -79.4225 -97.4506 55.0126 -79.9909 -97.6691 55.3915 
-78.8023 -97.0387 54.7403 -78.2687 -96.9729 54.429 -77.9856 -97.3609 54.1361 
-77.7733 -97.8758 53.869 -77.4768 -98.4169 53.5114 -77.1934 -98.8898 53.0864 
-76.8651 -99.2157 52.6622 -79.2134 -97.6416 55.6528 -79.7714 -97.63 56.1527 
-78.7103 -97.435 55.2113 -78.185 -97.258 54.804 -77.6383 -97.304 54.5107 
[...]
CELL_DATA 2000
SCALARS Distance double
LOOKUP_TABLE default
146.354 146.45 146.237 145.839 146.425 146.264 145.841 145.629 145.2 
146.29 146.177 145.73 145.553 145.112 144.971 144.573 146.055 146.021 
145.602 145.422 144.965 144.832 144.431 144.313 143.854 145.729 145.779 
145.477 145.333 144.891 144.703 144.283 144.145 143.702 143.529 143.035 
145.463 145.48 145.271 145.218 144.838 144.654 144.189 144.006 143.548 
143.383 142.93 142.754 142.358 145.353 145.266 145.012 144.999 144.671 
144.563 144.075 143.885 143.355 143.201 142.732 142.626 142.235 142.143 
141.811 145.235 145.119 144.738 144.718 144.378 144.344 143.887 143.726 
143.157 142.976 142.462 142.372 141.963 141.932 141.577 141.549 141.208 
144.952 144.879 144.409 144.384 143.996 144.009 143.594 143.505 142.974 
142.787 142.27 142.126 141.725 141.652 141.307 141.262 140.928 140.902 
140.592 146.613 146.87 146.75 146.704 147.025 146.911 146.882 146.794 
146.7 147.402 147.103 147 146.893 146.842 146.736 146.573 148.035 
147.608 147.387 147.078 146.923 146.795 146.632 146.515 146.265 148.433 
148.163 147.855 147.506 147.206 146.932 146.675 146.502 146.238 146.118 
145.858 148.406 148.329 148.041 147.836 147.552 147.271 147.024 146.702 
146.471 146.179 145.994 145.793 145.647 148.382 148.31 148.2 148.007 
147.872 147.621 147.507 147.192 147.065 146.666 146.554 146.174 146.115 
145.789 145.692 148.554 148.496 148.583 148.359 148.3 148.006 147.88 
147.633 147.495 147.243 147.093 146.804 146.692 146.384 146.264 145.898 
145.676 148.648 148.727 148.853 148.768 148.64 148.397 148.089 147.867 
147.555 147.431 147.152 147.067 146.82 146.735 146.511 146.348 146.061 
145.755 145.387 148.626 148.334 148.657 148.805 147.638 148.1 148.212 
148.594 148.515 146.942 147.308 147.329 147.77 147.719 148.081 147.898 
146.336 146.657 146.687 146.993 147.004 147.289 147.214 147.462 147.34 
145.615 146.001 146.09 146.455 146.572 146.815 146.811 146.926 146.818 
146.985 146.921 144.926 145.259 145.298 145.744 145.866 146.329 146.367 
146.606 146.424 146.522 146.354 146.587 146.571 144.359 144.634 144.591 
144.923 144.926 145.424 145.458 145.939 145.79 146.037 145.767 145.986 
145.893 146.245 146.271 143.696 144.032 143.97 144.255 144.18 144.518 
144.502 144.944 144.895 145.261 145.067 145.326 145.168 145.515 145.51 
145.913 145.866 142.915 143.284 143.236 143.586 143.529 143.838 143.796 
144.121 144.092 144.422 144.326 144.604 144.466 144.771 144.707 145.098 
145.047 145.413 145.24 144.726 144.582 144.434 143.942 144.31 144.237 
143.801 143.655 143.21 144.056 143.964 143.539 143.449 143.003 142.91 
142.49 143.881 143.748 143.268 143.15 142.658 142.601 142.133 142.114 
141.664 143.696 143.581 143.084 142.903 142.355 142.228 141.721 141.682 
141.204 141.204 140.73 143.439 143.369 142.908 142.737 142.173 141.972 
141.431 141.306 140.83 140.766 140.321 140.285 139.87 143.121 143.073 
142.613 142.518 141.967 141.794 141.21 141.048 140.53 140.437 140.001 
139.948 139.578 139.535 139.209 142.773 142.715 142.229 142.174 141.651 
141.539 140.957 140.801 140.224 140.115 139.624 139.603 139.211 139.238 
138.906 138.92 138.6 142.463 142.37 141.891 141.807 141.323 141.221 
140.696 140.543 139.985 139.821 139.295 139.206 138.76 138.785 138.411 
138.505 138.158 138.24 137.898 144.563 143.793 144.122 144.039 143.087 
143.382 143.31 143.639 143.62 142.42 142.717 142.626 142.924 142.869 
143.237 143.197 141.656 142.037 141.947 142.239 142.108 142.441 142.341 
142.729 142.595 140.731 141.196 141.145 141.515 141.368 141.668 141.532 
141.872 141.769 142.104 141.966 139.82 140.235 140.193 140.638 140.544 
140.904 140.792 141.119 141.072 141.383 141.326 141.575 141.477 139.123 
139.4 139.32 139.699 139.656 140.057 140.013 140.388 140.376 140.733 
140.714 140.996 140.898 141.131 141.034 138.527 138.761 138.64 138.923 
138.888 139.243 139.268 139.637 139.661 140.025 140.009 140.341 140.241 
140.517 140.385 140.669 140.608 137.86 138.13 137.985 138.262 138.193 
138.536 138.573 138.95 139.004 139.345 139.331 139.631 139.545 139.824 
139.718 140.004 139.951 140.27 140.28 137.433 136.9 137.275 137.558 
136.503 136.764 136.997 137.416 137.774 136.227 136.409 136.542 136.869 
137.237 137.723 138.179 136.012 136.193 136.304 136.471 136.751 137.189 
137.699 138.202 138.65 135.813 136.054 136.3 136.369 136.588 136.803 
137.255 137.712 138.205 138.639 138.979 135.534 135.857 136.24 136.442 
136.747 136.825 137.173 137.388 137.819 138.179 138.533 138.899 139.165 
135.201 135.5 135.871 136.288 136.727 136.984 137.298 137.41 137.67 
137.864 138.161 138.47 138.764 139.094 139.368 135.042 135.169 135.449 
135.852 136.34 136.797 137.167 137.411 137.55 137.698 137.865 138.133 
138.445 138.768 139.104 139.375 139.671 135.167 135.128 135.35 135.544 
135.996 136.39 136.82 137.14 137.311 137.477 137.579 137.819 138.118 
138.476 138.877 139.183 139.523 139.74 140.029 137.196 136.689 136.862 
136.723 136.313 136.434 136.373 136.49 136.405 136.08 136.122 135.999 
136.129 136.017 136.176 136.093 135.923 135.878 135.575 135.653 135.347 
135.58 135.386 135.739 135.693 135.862 135.705 135.308 135.223 134.817 
134.862 134.577 134.867 134.825 135.297 135.375 135.967 135.694 135.314 
135.086 134.811 134.627 134.489 134.394 134.447 134.587 134.781 135.096 
135.211 136.235 135.889 135.512 135.211 135.005 134.833 134.864 134.704 
134.842 134.681 134.879 134.839 135.004 135.061 135.085 136.558 136.219 
135.846 135.485 135.198 135.02 134.967 134.982 135.047 135.067 135.125 
135.098 135.158 135.103 135.125 135.05 135.038 136.792 136.529 136.203 
135.858 135.547 135.248 135.058 134.955 134.874 134.951 134.903 135.057 
135.049 135.177 135.197 135.199 135.207 135.12 135.163 142.175 141.591 
141.779 141.588 140.944 141.162 140.926 141.165 140.983 140.204 140.445 
140.186 140.45 140.229 140.524 140.338 139.544 139.717 139.462 139.689 
139.478 139.755 139.563 139.851 139.651 138.989 139.121 138.851 139.019 
138.808 139.041 138.865 139.111 138.899 139.151 138.958 138.392 138.547 
138.239 138.411 138.145 138.376 138.159 138.415 138.168 138.406 138.157 
138.458 138.348 137.841 137.951 137.648 137.781 137.49 137.683 137.425 
137.671 137.399 137.639 137.351 137.631 137.47 137.887 137.924 137.443 
137.491 137.22 137.266 136.987 137.078 136.825 136.98 136.747 136.92 
136.684 136.873 136.712 137.029 137.05 137.529 137.669 137.089 137.148 
136.88 136.903 136.598 136.636 136.352 136.451 136.235 136.377 136.222 
136.355 136.257 136.425 136.437 136.746 136.876 137.321 137.468 142.437 
142.647 142.319 141.87 142.829 142.52 142.061 141.739 141.243 142.945 
142.67 142.194 141.894 141.375 141.047 140.507 143.006 142.753 142.279 
141.996 141.478 141.157 140.624 140.303 139.827 143.085 142.815 142.37 
142.087 141.606 141.28 140.768 140.433 139.964 139.679 139.264 143.216 
142.926 142.485 142.199 141.749 141.439 140.945 140.6 140.104 139.803 
139.356 139.102 138.672 143.303 143.049 142.582 142.309 141.846 141.572 
141.086 140.768 140.247 139.927 139.441 139.171 138.736 138.491 138.1 
143.283 143.086 142.629 142.38 141.907 141.646 141.168 140.882 140.379 
140.062 139.576 139.275 138.845 138.576 138.198 137.968 137.66 143.217 
143.049 142.644 142.421 141.98 141.716 141.251 140.964 140.488 140.19 
139.74 139.443 139.031 138.733 138.341 138.076 137.73 137.544 137.268 
143.061 142.632 142.741 142.492 142.126 142.273 142.026 142.136 141.847 
141.617 141.74 141.483 141.622 141.312 141.427 141.094 141.233 141.262 
140.941 141.039 140.685 140.819 140.463 140.623 140.304 140.895 140.894 
140.503 140.521 140.128 140.194 139.848 139.983 139.703 139.863 139.598 
140.395 140.466 140.054 140.093 139.718 139.734 139.422 139.469 139.219 
139.317 139.072 139.192 138.922 139.766 139.873 139.482 139.593 139.277 
139.363 139.09 139.133 138.834 138.873 138.531 138.632 138.296 138.466 
138.183 139.216 139.278 138.931 139.028 138.752 138.891 138.647 138.76 
138.422 138.453 137.989 138.028 137.584 137.751 137.449 137.71 137.523 
138.828 138.84 138.543 138.572 138.302 138.386 138.136 138.259 137.953 
138.004 137.572 137.526 137.074 137.093 136.797 136.986 136.859 137.134 
137.065 138.562 138.101 138.317 138.287 137.554 137.814 137.761 138.018 
138.004 136.894 137.179 137.078 137.401 137.36 137.707 137.755 136.274 
136.504 136.398 136.687 136.671 137.022 137.085 137.471 137.546 135.849 
135.99 135.952 136.13 136.189 136.441 136.583 136.876 136.965 137.249 
137.224 135.624 135.693 135.675 135.794 135.818 136.035 136.16 136.457 
136.568 136.783 136.728 136.886 136.781 135.538 135.551 135.472 135.526 
135.389 135.562 135.483 135.865 135.893 136.3 136.263 136.476 136.359 
136.506 136.504 135.474 135.484 135.382 135.357 135.159 135.136 134.923 
135.096 135.027 135.442 135.463 135.877 135.863 136.131 136.159 136.384 
136.55 135.313 135.37 135.307 135.309 135.206 135.082 134.945 134.809 
134.76 134.804 134.87 135.114 135.22 135.555 135.692 136.027 136.227 
136.526 136.764 138.667 138.728 138.51 138.188 138.953 138.607 138.216 
138.015 137.668 139.36 138.913 138.456 138.104 137.711 137.476 137.077 
139.766 139.348 138.884 138.439 137.996 137.619 137.192 136.885 136.472 
140.022 139.685 139.235 138.852 138.393 137.982 137.511 137.097 136.626 
136.308 135.97 140.222 139.889 139.412 139.094 138.632 138.314 137.851 
137.459 136.961 136.542 136.134 135.88 135.69 140.476 140.117 139.63 
139.257 138.786 138.479 138.073 137.762 137.344 136.935 136.528 136.146 
135.9 135.698 135.619 140.738 140.41 139.984 139.563 139.116 138.712 
138.351 138.018 137.713 137.349 137.028 136.616 136.346 136.012 135.857 
135.666 135.575 140.946 140.679 140.332 139.965 139.57 139.143 138.794 
138.407 138.141 137.78 137.525 137.137 136.879 136.5 136.277 135.968 
135.78 135.578 135.42 139.017 139.723 139.26 139.129 140.644 140.074 
139.943 139.46 139.405 141.7 141.078 140.924 140.359 140.293 139.822 
139.817 142.77 142.177 142.023 141.393 141.265 140.73 140.676 140.233 
140.195 143.766 143.245 143.154 142.525 142.372 141.743 141.624 141.092 
141.012 140.557 140.464 144.723 144.235 144.201 143.642 143.537 142.897 
142.765 142.122 142.003 141.424 141.315 140.809 140.7 145.644 145.186 
145.159 144.662 144.605 144.039 143.935 143.301 143.153 142.497 142.324 
141.72 141.562 141.047 140.929 146.409 146.045 146.03 145.602 145.576 
145.075 144.992 144.417 144.256 143.626 143.395 142.749 142.498 141.915 
141.716 141.244 141.12 146.978 146.718 146.742 146.418 146.431 146.017 
145.951 145.426 145.254 144.658 144.415 143.782 143.5 142.863 142.596 
142.032 141.84 141.399 141.284 147.272 147.708 147.353 147.083 148.101 
147.769 147.479 147.148 146.82 148.346 148.063 147.727 147.474 147.132 
146.808 146.354 148.436 148.202 147.794 147.603 147.222 147.004 146.525 
146.199 145.623 148.241 148.15 147.671 147.55 147.103 146.966 146.473 
146.249 145.664 145.363 144.75 147.668 147.756 147.277 147.284 146.8 
146.74 146.225 146.095 145.54 145.332 144.734 144.452 143.835 146.994 
147.11 146.726 146.805 146.388 146.376 145.876 145.786 145.263 145.148 
144.617 144.411 143.812 143.518 142.916 146.551 146.565 146.267 146.311 
145.994 145.992 145.566 145.462 144.968 144.859 144.391 144.265 143.743 
143.496 142.909 142.622 142.11 146.348 146.275 145.975 145.952 145.656 
145.654 145.296 145.211 144.756 144.618 144.165 144.048 143.594 143.416 
142.891 142.63 142.122 141.888 141.502 146.166 145.641 145.851 145.732 
145.04 145.27 145.157 145.409 145.356 144.436 144.674 144.546 144.799 
144.72 145.025 144.967 143.683 144.005 143.843 144.145 144.009 144.331 
144.229 144.56 144.435 142.833 143.157 142.978 143.341 143.179 143.545 
143.397 143.759 143.621 143.966 143.835 142.179 142.374 142.194 142.474 
142.33 142.672 142.522 142.882 142.726 143.104 142.969 143.355 143.231 
141.667 141.82 141.607 141.787 141.61 141.873 141.723 142.03 141.866 
142.203 142.049 142.437 142.299 142.706 142.543 141.091 141.287 141.041 
141.208 140.954 141.176 140.982 141.266 141.096 141.389 141.223 141.546 
141.408 141.773 141.641 142.004 141.843 140.505 140.699 140.48 140.626 
140.363 140.524 140.309 140.545 140.389 140.656 140.502 140.776 140.641 
140.951 140.858 141.183 141.094 141.391 141.285 140.943 140.735 140.69 
140.346 140.474 140.44 140.088 140.039 139.63 140.236 140.161 139.795 
139.755 139.384 139.308 138.899 140.1 139.967 139.591 139.493 139.142 
139.072 138.721 138.624 138.253 140.009 139.874 139.521 139.371 139.015 
138.884 138.536 138.443 138.088 137.995 137.628 139.943 139.799 139.474 
139.331 138.962 138.795 138.394 138.266 137.888 137.803 137.438 137.355 
136.994 139.999 139.794 139.464 139.288 138.887 138.702 138.242 138.1 
137.695 137.61 137.255 137.167 136.81 136.719 136.381 140.121 139.903 
139.559 139.326 138.89 138.627 138.133 137.932 137.551 137.456 137.167 
137.051 136.705 136.551 136.176 136.096 135.805 140.158 139.992 139.646 
139.431 139.003 138.695 138.211 137.913 137.58 137.419 137.252 137.096 
136.835 136.56 136.151 135.921 135.572 135.535 135.352 148.43 148.408 
148.364 148.308 148.449 148.417 148.534 148.471 148.655 148.633 148.605 
148.824 148.785 149.045 148.978 149.128 148.632 148.756 148.859 148.955 
149.089 149.217 149.318 149.295 149.173 148.19 148.517 148.51 148.727 
148.678 148.943 148.977 149.223 149.171 149.143 148.882 147.584 147.945 
148.082 148.319 148.375 148.516 148.62 148.816 148.964 149.073 149.028 
148.865 148.603 147.165 147.426 147.707 148.002 148.323 148.458 148.725 
148.746 148.988 149.011 149.13 149.039 148.887 148.615 148.301 146.905 
147.086 147.275 147.636 147.987 148.379 148.705 148.914 149.071 149.123 
149.132 149.117 148.957 148.819 148.487 148.242 147.891 146.599 146.772 
146.796 147.118 147.301 147.81 148.06 148.563 148.656 148.954 148.825 
148.951 148.707 148.727 148.405 148.303 147.938 147.77 147.46 148.297 
148.218 148.14 147.956 148.516 148.241 148.07 147.862 147.613 148.894 
148.605 148.326 148.065 147.79 147.545 147.243 148.904 148.793 148.406 
148.228 147.835 147.658 147.299 147.129 146.806 148.607 148.599 148.232 
148.151 147.723 147.585 147.152 147.043 146.67 146.603 146.264 148.286 
148.272 147.97 147.938 147.607 147.473 147.054 146.87 146.445 146.355 
145.984 145.96 145.593 147.979 147.975 147.684 147.693 147.42 147.365 
146.994 146.816 146.369 146.181 145.77 145.664 145.292 145.244 144.884 
147.642 147.672 147.402 147.419 147.135 147.126 146.75 146.673 146.228 
146.102 145.683 145.54 145.161 145.02 144.658 144.569 144.242 147.287 
147.349 147.13 147.154 146.869 146.832 146.425 146.351 145.898 145.851 
145.463 145.422 145.068 144.951 144.572 144.419 144.055 143.966 143.66 
148.368 147.887 148.141 148.077 147.415 147.596 147.483 147.709 147.504 
147.003 147.108 146.94 147.134 147.009 147.153 146.92 146.61 146.693 
146.467 146.609 146.478 146.684 146.521 146.614 146.315 146.136 146.279 
146.014 146.118 145.893 146.11 145.937 146.142 145.855 145.936 145.571 
145.513 145.752 145.509 145.627 145.328 145.49 145.271 145.5 145.265 
145.415 145.106 145.182 144.893 144.82 145.1 144.928 145.098 144.819 
144.931 144.68 144.858 144.663 144.84 144.604 144.72 144.466 144.564 
144.322 144.169 144.432 144.31 144.526 144.31 144.434 144.166 144.301 
144.083 144.267 144.055 144.215 143.959 144.093 143.818 143.949 143.65 
143.577 143.81 143.683 143.921 143.737 143.91 143.644 143.776 143.507 
143.679 143.448 143.64 143.39 143.55 143.264 143.397 143.089 143.21 
142.887 139.12 139.569 139.485 139.844 140.174 140.04 140.446 140.335 
140.784 140.819 140.706 141.132 141.007 141.46 141.349 141.831 141.294 
141.288 141.712 141.669 142.094 142.01 142.439 142.372 142.834 141.582 
141.641 142.07 142.146 142.581 142.571 142.952 142.903 143.311 143.309 
143.765 141.925 141.919 142.367 142.459 142.963 143.01 143.424 143.376 
143.77 143.753 144.236 144.251 144.739 142.431 142.353 142.816 142.836 
143.385 143.421 143.889 143.846 144.252 144.224 144.727 144.756 145.302 
145.271 145.712 142.943 142.888 143.34 143.346 143.876 143.896 144.357 
144.315 144.696 144.675 145.141 145.22 145.761 145.815 146.252 146.181 
146.477 143.348 143.339 143.74 143.796 144.263 144.338 144.763 144.763 
145.11 145.085 145.485 145.561 146.047 146.169 146.583 146.613 146.875 
146.81 147.003 
POINT_DATA 1002
SCALARS Distance double
LOOKUP_TABLE default
146.015 146.449 146.6 146.098 146.652 145.406 146.044 146.579 145.382 
144.813 145.911 146.381 145.235 144.72 144.187 145.775 146.012 145.121 
144.541 144.033 143.343 145.551 145.626 145.106 144.447 143.862 143.213 
142.549 145.265 145.498 144.999 144.41 143.71 143.075 142.503 142.026 
145.038 145.526 144.736 144.281 143.536 142.821 142.303 141.902 141.507 
144.795 145.387 144.381 144.017 143.364 142.574 141.993 141.593 141.237 
140.881 144.456 145.013 143.976 143.631 143.134 142.424 141.814 141.37 
140.957 140.589 140.306 146.791 146.862 146.959 146.913 147.205 146.871 
147.193 147.809 146.895 146.761 147.825 148.474 147.145 146.73 146.406 
148.192 148.633 147.551 146.923 146.372 145.938 148.164 148.422 147.768 
147.34 146.813 146.23 145.817 148.347 148.378 148.091 147.758 147.427 
146.958 146.477 146.053 148.764 148.523 148.641 148.17 147.716 147.345 
146.978 146.624 146.118 148.896 148.526 148.9 148.381 147.717 147.234 
146.88 146.605 146.305 145.763 148.456 148.619 147.929 147.753 147.232 
148.264 146.942 146.654 147.295 147.599 146.378 145.978 146.745 146.976 
147.071 145.648 145.221 146.245 146.727 146.733 146.652 144.909 144.65 
145.339 146.015 146.358 146.183 146.23 144.342 144.086 144.522 144.918 
145.443 145.571 145.548 145.903 143.667 143.335 143.903 144.115 144.473 
144.769 144.861 145.097 145.531 142.852 142.559 143.189 143.496 143.777 
144.026 144.182 144.357 144.666 144.945 144.222 144.137 143.469 143.907 
143.36 142.803 143.629 143.08 142.57 142.098 143.434 142.741 142.154 
141.675 141.22 143.285 142.535 141.79 141.219 140.717 140.254 143.046 
142.393 141.593 140.91 140.362 139.883 139.473 142.678 142.114 141.396 
140.642 140.041 139.601 139.249 138.904 142.279 141.73 141.109 140.366 
139.665 139.168 138.864 138.606 138.291 141.981 141.413 140.825 140.154 
139.434 138.788 138.325 138.045 137.825 137.578 143.688 142.99 143.255 
142.361 142.528 142.826 141.651 141.829 141.97 142.227 140.719 141.067 
141.208 141.419 141.663 139.734 140.128 140.438 140.731 141.067 141.249 
138.992 139.236 139.606 139.995 140.403 140.673 140.774 138.386 138.542 
138.888 139.311 139.678 139.948 140.104 140.278 137.713 137.858 138.18 
138.653 139.048 139.267 139.42 139.631 139.944 137.009 137.105 136.586 
136.602 136.321 137.285 136.304 136.059 136.72 137.706 136.219 135.761 
136.392 137.142 138.25 136.185 135.493 136.497 136.878 137.747 138.621 
135.893 135.217 136.644 137.101 137.542 138.17 138.808 135.392 134.997 
136.329 137.208 137.589 137.882 138.432 139.055 135.121 135.009 135.836 
136.857 137.44 137.625 138.088 138.818 139.44 135.255 135.238 135.676 
136.478 137.126 137.369 137.744 138.523 139.292 139.837 137.001 136.576 
136.49 136.236 136.212 136.309 135.919 136.109 135.843 135.901 135.608 
136.052 135.199 134.999 135.261 135.455 136.081 134.863 134.389 134.342 
134.873 135.547 136.276 134.944 134.629 134.451 134.549 134.924 135.846 
136.586 135.144 134.931 135.034 135.044 135.046 135.044 136.226 136.863 
135.466 134.987 134.984 135.126 135.207 135.222 135.109 136.499 137.015 
135.884 135.292 134.895 134.744 134.841 135.102 135.268 135.244 141.986 
141.37 141.419 140.697 140.718 140.712 139.921 139.975 139.94 140.036 
139.257 139.402 139.207 139.289 139.364 138.706 138.859 138.592 138.627 
138.679 138.654 138.077 138.241 137.936 137.909 137.941 137.886 137.933 
137.536 137.747 137.33 137.204 137.163 137.094 137.074 137.404 137.193 
137.39 136.933 136.7 136.573 136.506 136.453 136.609 137.138 142.767 
142.205 142.969 142.387 143.13 141.593 142.493 143.214 141.704 140.83 
142.553 143.252 141.793 140.939 140.105 142.642 143.361 141.917 141.11 
140.258 139.53 142.776 143.512 142.039 141.292 140.434 139.621 138.918 
142.86 143.539 142.113 141.387 140.582 139.728 138.976 138.315 142.862 
143.448 142.168 141.441 140.679 139.877 139.123 138.437 137.844 142.837 
143.366 142.233 141.539 140.772 140.015 139.33 138.641 137.947 137.4 