# vtk DataFile Version 4.0
vtk output
ASCII
DATASET POLYDATA
POINTS 1002 float
-77.0398 -102.125 48.8 -77.1629 -102.006 49.6947 -77.7304 -101.723 49.5272 
-77.6799 -101.915 48.5409 -78.3604 -101.668 49.2465 -76.923 -102.269 47.8438 
-78.5044 -101.952 48.1362 -79.0863 -101.862 48.7388 -77.7158 -102.121 47.4014 
-76.9947 -102.142 46.7576 -79.3652 -102.102 47.6056 -79.8733 -101.965 48.1381 
-78.6355 -102.063 46.8603 -77.8687 -102.004 46.1545 -77.2608 -101.784 45.5824 
-80.1648 -102.107 47.0836 -80.5874 -101.867 47.5639 -79.4234 -101.984 46.2923 
-78.6347 -101.924 45.4929 -77.9767 -101.818 44.9242 -77.4808 -101.474 44.5832 
-80.9212 -102.016 46.4897 -81.1014 -101.621 46.889 -80.2648 -101.971 45.6857 
-79.3348 -101.915 44.7646 -78.528 -101.979 44.1763 -77.9826 -101.662 43.975 
-77.5093 -100.979 43.8914 -81.4434 -101.74 45.7644 -81.4003 -101.143 46.1246 
-81.2024 -102.052 45.0034 -80.3507 -102.087 44.0368 -79.29 -102.075 43.4207 
-78.5352 -101.807 43.3183 -77.9958 -101.061 43.3519 -77.3229 -100.37 43.1818 
-81.6815 -101.194 45.1179 -81.7234 -100.624 45.4936 -81.7455 -101.798 44.4123 
-81.3168 -102.14 43.5228 -80.2791 -102.029 42.9371 -79.3095 -101.625 42.8316 
-78.6612 -101.04 42.8395 -77.9194 -100.429 42.6237 -76.9548 -100.291 42.2013 
-82.059 -100.701 44.6632 -82.3428 -100.387 45.0645 -81.9534 -101.138 44.0145 
-81.7479 -101.61 43.263 -81.0094 -101.671 42.7658 -80.0399 -101.249 42.6025 
-79.3355 -100.827 42.4561 -78.6482 -100.532 42.1068 -77.6582 -100.363 41.6379 
-76.605 -100.606 41.2056 -82.7678 -100.473 44.3125 -83.169 -100.384 44.7361 
-82.3312 -100.513 43.7154 -81.966 -100.726 43.0773 -81.4399 -100.951 42.6338 
-80.6617 -100.838 42.3778 -79.9379 -100.618 42.0606 -79.2882 -100.586 41.5989 
-78.4211 -100.529 41.1336 -77.3709 -100.454 40.7668 -76.46 -100.664 40.4992 
-77.6031 -101.849 50.4943 -78.1551 -101.617 50.2688 -78.041 -101.827 51.2479 
-78.4398 -101.557 50.8589 -78.3565 -101.664 51.8991 -78.6624 -101.566 49.8394 
-78.5774 -101.164 51.3743 -78.4285 -101.216 52.5044 -78.798 -101.247 50.2281 
-79.2959 -101.537 49.1485 -78.7091 -100.682 51.9887 -78.4504 -100.798 53.0652 
-78.9664 -100.696 50.6663 -79.3817 -100.867 49.3982 -80.0313 -101.356 48.4284 
-79.1119 -100.544 52.6252 -78.8263 -100.535 53.5334 -79.4361 -100.508 51.3546 
-79.6887 -100.449 49.8449 -80.0922 -100.633 48.6624 -80.6642 -101.183 47.7738 
-79.7628 -100.403 53.0707 -79.4833 -100.225 53.8523 -80.1283 -100.528 52.0411 
-80.3737 -100.535 50.5793 -80.4978 -100.466 49.1664 -80.8019 -100.607 48.0356 
-81.1613 -100.921 47.021 -80.2941 -100.015 53.3146 -80.0256 -99.8536 54.0192 
-80.6159 -100.187 52.4544 -80.9543 -100.354 51.2236 -81.1243 -100.436 49.8337 
-81.283 -100.406 48.5379 -81.4993 -100.379 47.2791 -81.6142 -100.452 46.2355 
-80.6467 -99.6172 53.5294 -80.4077 -99.4658 54.1529 -80.8604 -99.7451 52.7084 
-81.1563 -99.842 51.5928 -81.4274 -99.964 50.306 -81.6726 -100.067 49.0388 
-81.9297 -100.018 47.7184 -82.0729 -99.9536 46.4836 -82.1656 -100.109 45.6416 
-81.0154 -99.2477 53.7677 -80.7796 -99.0221 54.3042 -81.1751 -99.4523 52.9576 
-81.3629 -99.5174 51.8499 -81.5546 -99.4753 50.5808 -81.786 -99.519 49.3513 
-82.1027 -99.5948 48.1335 -82.3644 -99.5837 46.8946 -82.582 -99.7039 45.9005 
-82.8851 -100.064 45.2586 -81.3423 -98.6795 54.0838 -81.5618 -99.0139 53.3507 
-81.7788 -98.3371 53.4529 -82.0481 -98.692 52.4802 -81.9777 -97.9439 52.403 
-81.7523 -99.2633 52.2619 -82.3088 -98.1885 51.3746 -82.1615 -97.468 51.362 
-82.2693 -98.8714 51.2582 -81.8834 -99.2329 50.9412 -82.6262 -97.6357 50.3978 
-82.6493 -97.0036 50.457 -82.6282 -98.3084 50.2478 -82.4271 -98.8139 49.9635 
-82.0126 -99.1132 49.6223 -83.2609 -97.1612 49.5394 -83.1597 -96.6419 49.5098 
-83.1722 -97.8278 49.4058 -83.0939 -98.4523 49.1375 -82.7554 -98.8578 48.7594 
-82.3043 -99.1769 48.4092 -83.7458 -96.7052 48.7187 -83.2669 -96.3453 48.588 
-83.8211 -97.3485 48.6635 -83.8194 -98.1481 48.4567 -83.6963 -98.7485 48.1049 
-83.1372 -99.0391 47.6445 -82.6078 -99.2691 47.2181 -83.7844 -96.3332 47.8345 
-83.1426 -96.0927 47.6867 -84.1099 -96.789 47.8473 -84.1809 -97.592 47.7198 
-84.2815 -98.4443 47.4724 -83.9994 -98.9383 47.0594 -83.338 -99.1543 46.5564 
-82.8821 -99.3958 46.1435 -83.6454 -96.1683 46.7512 -83.0496 -95.9226 46.6997 
-84.1198 -96.4217 46.7662 -84.2653 -96.9432 46.7292 -84.4095 -97.7946 46.6241 
-84.4963 -98.5855 46.3709 -84.1527 -99.0537 45.9762 -83.685 -99.4124 45.5976 
-83.3363 -99.7814 45.3598 -83.4764 -96.1163 45.66 -82.9612 -95.8103 45.7566 
-84.0413 -96.3066 45.5847 -84.3571 -96.5529 45.5734 -84.5219 -97.1478 45.5919 
-84.7285 -98.0204 45.4977 -84.7292 -98.7734 45.2486 -84.4752 -99.3397 44.9844 
-84.1994 -99.8569 44.8242 -83.8022 -100.228 44.7609 -83.7206 -100.398 44.1138 
-84.3351 -100.227 44.0913 -83.8832 -100.088 43.298 -84.6423 -99.744 44.0672 
-84.3304 -99.8341 43.1818 -83.7702 -99.6525 42.3181 -84.8366 -99.0892 44.1343 
-84.551 -99.247 43.0575 -84.1374 -99.2369 42.082 -83.8893 -99.3286 41.2407 
-84.9675 -98.3352 44.3331 -84.7604 -98.5297 43.0665 -84.3752 -98.5251 41.8901 
-84.2523 -98.6601 41.0112 -83.9445 -98.8998 40.3784 -84.8587 -97.4214 44.5109 
-84.8859 -97.7331 43.2601 -84.592 -97.817 41.8818 -84.4355 -97.8558 40.8579 
-84.1301 -98.105 40.3097 -83.2959 -98.2656 39.9235 -84.6141 -96.6587 44.5297 
-84.7583 -96.892 43.4751 -84.6796 -97.1375 42.1194 -84.6014 -97.2116 40.8369 
-84.3111 -97.343 40.1412 -83.4735 -97.6092 39.7793 -82.5551 -97.7647 39.4067 
-84.2547 -96.3287 44.5246 -84.3937 -96.3351 43.6228 -84.4582 -96.4944 42.5082 
-84.573 -96.6608 41.125 -84.5167 -96.707 40.0599 -83.8816 -96.8944 39.4415 
-82.9868 -97.219 38.9815 -82.364 -97.4644 38.5902 -83.6713 -96.1811 44.6495 
-83.8048 -96.1221 43.8087 -83.9115 -96.1129 42.9069 -84.0765 -96.2386 41.6625 
-84.1971 -96.2612 40.4042 -83.9396 -96.2663 39.4438 -83.3215 -96.5328 38.7046 
-82.7066 -96.9046 38.2042 -82.1892 -97.1674 37.9301 -83.0763 -95.9142 44.854 
-83.1666 -95.9342 44.0554 -83.2567 -95.9336 43.2404 -83.3385 -96.0401 42.1519 
-83.36 -96.0972 40.9474 -83.238 -96.005 39.9161 -82.9505 -96.0555 39.0023 
-82.5689 -96.3432 38.2561 -82.1142 -96.6331 37.845 -81.5539 -96.8255 37.6584 
-83.1194 -100.21 43.5472 -83.1768 -99.7879 42.6673 -82.4605 -100.015 42.921 
-83.2608 -99.6131 41.6444 -82.5345 -99.7036 42.0664 -81.9121 -100.149 42.4088 
-83.4448 -99.5098 40.562 -82.7134 -99.8126 40.978 -82.0163 -100.027 41.4889 
-81.3259 -100.399 41.9881 -83.0609 -98.9053 39.8703 -82.5903 -99.5753 39.9732 
-82.0512 -100.103 40.3104 -81.4321 -100.38 40.8107 -80.6359 -100.495 41.4635 
-82.2749 -98.1713 39.4924 -81.9995 -98.7648 39.4742 -81.6475 -99.5513 39.5482 
-81.2497 -100.187 39.7348 -80.6176 -100.501 40.1736 -79.8691 -100.592 40.894 
-81.9619 -97.8395 38.8352 -81.609 -98.2775 38.9713 -81.202 -98.8964 39.0915 
-80.7533 -99.5207 39.2265 -80.2197 -100.025 39.4232 -79.5525 -100.42 39.8683 
-78.9323 -100.594 40.5056 -81.8766 -97.6195 38.055 -81.4661 -98.1443 38.1762 
-80.9608 -98.7304 38.3361 -80.3777 -99.1834 38.5909 -79.757 -99.4703 38.9058 
-79.0909 -99.8036 39.3171 -78.4461 -100.156 39.8138 -77.8826 -100.368 40.2951 
-81.3695 -97.2547 37.608 -81.0242 -97.8101 37.5721 -80.5499 -98.4672 37.6174 
-80.0104 -99.0178 37.8026 -79.436 -99.3244 38.1034 -78.7953 -99.528 38.5672 
-78.1266 -99.72 39.178 -77.5122 -99.9199 39.7235 -76.9522 -100.243 40.1212 
-80.555 -96.6866 37.4237 -80.3173 -97.1604 37.2917 -79.6252 -96.569 36.9505 
-79.3725 -97.0399 36.9039 -79.0119 -96.4998 36.2729 -79.9517 -97.7254 37.2575 
-78.6581 -96.9024 36.4791 -78.2061 -96.3586 35.7891 -79.0097 -97.4386 37.1621 
-79.5019 -98.336 37.3963 -77.5808 -96.7782 36.1787 -76.936 -96.1407 35.8138 
-78.1075 -97.181 37.0576 -78.5343 -97.9296 37.4823 -79.0317 -98.9123 37.5482 
-76.2855 -96.7395 36.2478 -75.8465 -96.0181 36.2245 -76.8454 -97.1889 36.8098 
-77.4091 -97.7003 37.4093 -77.9872 -98.7379 37.4619 -78.4825 -99.4531 37.7396 
-75.3733 -96.7106 36.6851 -75.0186 -95.9883 36.6445 -75.7405 -97.2936 36.8396 
-76.1793 -97.7286 37.2044 -76.734 -98.6607 37.3567 -77.3609 -99.6409 37.5128 
-77.8231 -99.7861 38.277 -74.5195 -96.5909 37.0886 -74.0687 -95.9669 36.9249 
-74.9727 -97.2216 37.2197 -75.3741 -97.7088 37.3935 -75.7159 -98.4658 37.5329 
-76.1859 -99.5372 37.6108 -76.7629 -99.981 38.1262 -77.1808 -99.8243 39.0328 
-73.6075 -96.5075 37.3638 -73.2686 -95.9959 37.2934 -74.0975 -97.0746 37.535 
-74.6837 -97.6203 37.7871 -75.1268 -98.2227 38.0467 -75.4209 -99.0798 38.1486 
-75.8463 -99.796 38.3509 -76.3056 -99.9864 38.9521 -76.6118 -100.038 39.6327 
-73.0398 -96.5616 37.8046 -72.8772 -96.0842 37.8954 -73.3258 -97.0507 37.8481 
-73.8418 -97.6032 38.0733 -74.4547 -98.1718 38.4413 -74.9014 -98.7513 38.7163 
-75.2669 -99.406 38.8472 -75.6674 -100.044 39.1249 -75.9315 -100.503 39.5958 
-76.1059 -100.708 40.0556 -81.0099 -96.3352 37.64 -80.0522 -96.0522 37.2569 
-80.5105 -95.6798 37.5618 -79.8388 -95.0968 36.931 -80.3161 -94.839 37.407 
-79.3971 -95.8081 36.5494 -79.7706 -94.1351 36.7687 -80.0353 -94.3013 37.5377 
-79.4 -94.6895 36.2425 -78.8394 -95.6759 35.8763 -79.2509 -93.9783 37.1631 
-79.2839 -94.4399 38.1192 -79.2305 -93.8886 36.3877 -78.663 -94.6524 35.9555 
-77.7394 -95.5326 35.7455 -78.461 -94.352 37.8855 -78.6773 -94.5364 38.7513 
-78.5689 -93.9264 36.934 -78.2771 -94.0714 36.3411 -77.3406 -94.7593 36.1453 
-76.4207 -95.3895 36.0705 -78.1168 -94.1609 38.5742 -78.5923 -94.0454 39.293 
-77.8663 -94.0122 37.6288 -77.5844 -93.8867 36.7959 -76.8784 -94.2343 36.5023 
-76.0249 -94.7954 36.4186 -75.4233 -95.3543 36.4046 -77.9378 -93.6947 39.3604 
-78.399 -93.6416 40.027 -77.4387 -93.7375 38.5275 -76.8898 -93.7144 37.5535 
-76.2242 -93.82 36.9666 -75.5075 -94.2104 36.7601 -74.8898 -94.7687 36.5914 
-74.4221 -95.3758 36.6253 -77.4056 -93.7344 40.2978 -77.818 -93.7321 40.9454 
-76.9713 -93.6934 39.5993 -76.3966 -93.7028 38.7041 -75.6797 -93.732 37.8702 
-74.988 -93.8125 37.3919 -74.3655 -94.1605 37.0717 -73.8264 -94.7692 36.8761 
-73.4618 -95.4188 36.9853 -76.776 -93.947 41.1643 -77.2408 -93.8449 41.7849 
-76.4097 -93.8476 40.5425 -76.0027 -93.7534 39.8462 -75.3877 -93.8073 39.0338 
[...]
CELL_DATA 2000
SCALARS Distance double
LOOKUP_TABLE default
136.134 136.26 136.071 135.855 136.576 136.299 136.072 135.818 135.538 
136.949 136.683 136.429 136.095 135.76 135.456 135.079 137.199 137.025 
136.732 136.402 135.978 135.67 135.266 134.979 134.598 137.267 137.226 
136.978 136.657 136.19 135.842 135.435 135.167 134.811 134.528 134.116 
137.04 137.201 137.117 136.935 136.572 136.148 135.739 135.374 135.037 
134.742 134.321 133.978 133.443 136.605 136.853 136.893 136.997 136.829 
136.586 136.179 135.756 135.311 134.957 134.515 134.175 133.638 133.249 
132.732 136.395 136.466 136.477 136.656 136.573 136.642 136.291 136.071 
135.503 135.165 134.631 134.335 133.858 133.501 133.01 132.632 132.274 
136.59 136.438 136.32 136.288 136.107 136.212 135.918 135.929 135.431 
135.224 134.679 134.423 134.007 133.737 133.347 132.978 132.571 132.247 
131.974 136.376 136.83 136.536 136.484 137.211 136.961 136.842 136.659 
136.713 137.285 137.166 136.941 136.869 136.82 136.848 136.977 137.223 
137.124 136.87 136.807 136.647 136.733 136.782 136.998 137.143 137.388 
137.205 137.107 136.871 136.738 136.577 136.538 136.657 136.792 137.063 
137.159 137.694 137.543 137.6 137.347 137.333 136.959 136.889 136.628 
136.669 136.713 136.802 136.977 136.925 137.861 137.821 137.851 137.782 
137.768 137.573 137.474 137.163 137.065 136.832 136.787 136.713 136.63 
136.666 136.534 137.896 137.898 137.865 137.859 137.767 137.747 137.586 
137.508 137.316 137.184 136.992 136.829 136.639 136.514 136.397 136.38 
136.379 137.895 137.911 137.902 137.856 137.758 137.677 137.483 137.413 
137.187 137.167 136.954 136.911 136.683 136.575 136.423 136.37 136.423 
136.449 136.617 137.88 137.8 137.907 137.914 137.444 137.736 137.799 
137.87 137.761 136.843 137.251 137.385 137.642 137.546 137.596 137.399 
136.325 136.65 136.806 137.133 137.133 137.29 137.098 137.158 137.015 
136.015 136.25 136.423 136.653 136.789 136.941 136.919 136.919 136.797 
136.833 136.79 135.652 135.957 136.157 136.388 136.606 136.777 136.948 
136.938 136.913 136.771 136.661 136.645 136.58 135.119 135.508 135.697 
136.042 136.223 136.556 136.771 136.992 137.056 136.986 136.833 136.651 
136.515 136.461 136.412 134.561 134.94 135.111 135.479 135.595 135.993 
136.152 136.596 136.743 136.981 136.932 136.854 136.74 136.584 136.602 
136.484 136.548 134.063 134.402 134.57 134.9 135.004 135.33 135.452 
135.875 136.088 136.512 136.657 136.839 136.863 136.841 136.918 136.834 
136.963 136.795 136.839 136.965 137.136 137.093 136.92 137.026 137.115 
136.962 136.809 136.369 136.81 136.897 136.685 136.66 136.227 136.088 
135.676 136.471 136.6 136.314 136.312 135.846 135.786 135.373 135.401 
135.108 135.858 136.095 135.817 135.907 135.447 135.389 134.933 134.977 
134.666 134.769 134.368 135.212 135.405 135.163 135.338 134.979 134.998 
134.564 134.557 134.21 134.274 133.907 133.899 133.402 134.759 134.845 
134.588 134.712 134.424 134.516 134.177 134.206 133.861 133.871 133.506 
133.478 133.059 132.992 132.611 134.342 134.427 134.14 134.214 133.917 
134.003 133.707 133.79 133.463 133.505 133.11 133.101 132.676 132.662 
132.3 132.317 132.038 133.859 133.969 133.684 133.77 133.472 133.545 
133.252 133.328 133.005 133.057 132.649 132.66 132.211 132.237 131.854 
131.932 131.623 131.713 131.404 136.767 136.612 136.588 136.294 136.069 
136.201 135.856 135.972 135.817 135.543 135.656 135.391 135.459 135.266 
135.507 135.502 135.104 135.264 135.116 135.13 134.964 135.031 134.951 
135.181 135.098 134.298 134.695 134.542 134.803 134.64 134.786 134.651 
134.748 134.585 134.705 134.492 133.264 133.691 133.503 133.958 133.797 
134.219 134.075 134.361 134.158 134.285 134.035 134.121 133.892 132.537 
132.779 132.668 132.965 132.885 133.262 133.172 133.564 133.382 133.691 
133.424 133.642 133.365 133.529 133.254 132.027 132.232 132.174 132.369 
132.335 132.555 132.493 132.732 132.566 132.825 132.572 132.863 132.583 
132.868 132.57 132.792 132.479 131.38 131.678 131.562 131.854 131.751 
132.037 131.923 132.158 131.977 132.145 131.913 132.082 131.848 132.059 
131.819 132.045 131.807 132.019 131.839 130.878 130.085 130.672 131.058 
129.358 129.882 130.263 130.852 131.253 128.692 129.201 129.517 130.055 
130.449 131.058 131.442 127.866 128.464 128.767 129.311 129.637 130.236 
130.644 131.241 131.541 127.089 127.62 127.958 128.507 128.82 129.406 
129.809 130.448 130.843 131.339 131.543 126.603 127.004 127.363 127.785 
128.104 128.589 128.989 129.624 130.112 130.692 131.001 131.356 131.492 
126.15 126.57 126.927 127.319 127.639 128.002 128.359 128.862 129.359 
129.975 130.388 130.834 130.992 131.295 131.411 125.703 126.076 126.422 
126.853 127.213 127.608 127.971 128.361 128.79 129.286 129.728 130.214 
130.481 130.813 130.947 131.241 131.411 125.546 125.742 126.075 126.382 
126.775 127.175 127.611 128.013 128.433 128.821 129.227 129.638 130.026 
130.383 130.702 130.933 131.188 131.371 131.587 130.582 129.804 130.047 
129.755 128.965 129.193 128.9 129.22 129.026 128.265 128.36 128.024 
128.336 128.175 128.545 128.368 127.916 127.812 127.435 127.552 127.374 
127.685 127.508 127.822 127.547 127.815 127.64 127.252 127.153 126.897 
127.001 126.806 127.002 126.742 126.973 126.761 127.647 127.554 127.15 
127.023 126.624 126.598 126.289 126.392 126.124 126.278 126.067 126.319 
126.246 127.432 127.353 126.966 126.855 126.396 126.291 125.847 125.871 
125.529 125.678 125.423 125.658 125.505 125.842 125.78 127.37 127.22 
126.899 126.724 126.348 126.13 125.709 125.53 125.158 125.133 124.858 
124.998 124.817 125.09 125.012 125.365 125.363 127.39 127.237 126.94 
126.752 126.428 126.199 125.852 125.58 125.234 124.99 124.706 124.598 
124.43 124.508 124.476 124.707 124.79 125.092 125.237 133.502 132.91 
133.243 133.315 132.272 132.626 132.69 133.045 133.117 131.551 131.944 
132.013 132.406 132.487 132.843 132.905 130.812 131.194 131.255 131.681 
131.756 132.169 132.208 132.587 132.611 130.151 130.487 130.512 130.898 
130.933 131.365 131.372 131.802 131.771 132.201 132.186 129.484 129.83 
129.816 130.162 130.128 130.513 130.492 130.92 130.895 131.317 131.288 
131.728 131.742 128.76 129.107 129.051 129.415 129.325 129.691 129.615 
130.031 130.012 130.448 130.446 130.864 130.894 131.331 131.418 128.127 
128.382 128.281 128.604 128.508 128.865 128.763 129.147 129.065 129.515 
129.471 129.966 129.966 130.476 130.551 131.056 131.183 127.659 127.817 
127.68 127.889 127.791 128.087 128.021 128.341 128.228 128.568 128.432 
128.886 128.823 129.408 129.455 130.088 130.21 130.8 130.93 133.497 
133.354 133.258 132.93 133.234 133.13 132.774 132.67 132.295 133.032 
132.969 132.582 132.492 132.074 131.982 131.566 132.763 132.715 132.326 
132.256 131.844 131.753 131.322 131.227 130.83 132.532 132.458 132.081 
131.997 131.615 131.533 131.142 131.023 130.609 130.511 130.157 132.329 
132.248 131.851 131.758 131.349 131.291 130.915 130.848 130.431 130.311 
129.881 129.826 129.474 132.121 132.038 131.622 131.516 131.059 130.985 
130.573 130.56 130.154 130.092 129.623 129.533 129.109 129.105 128.769 
131.931 131.837 131.449 131.318 130.887 130.734 130.311 130.223 129.829 
129.773 129.326 129.238 128.781 128.742 128.4 128.43 128.167 131.739 
131.654 131.295 131.185 130.815 130.647 130.255 130.07 129.671 129.519 
129.081 128.944 128.476 128.401 128.03 128.069 127.832 127.899 127.702 
131.485 130.876 131.145 131.041 130.199 130.492 130.432 130.711 130.595 
129.615 129.822 129.735 130.051 129.974 130.239 130.065 129.187 129.286 
129.075 129.317 129.183 129.524 129.372 129.648 129.439 128.71 128.835 
128.517 128.658 128.404 128.688 128.512 128.856 128.652 128.959 128.753 
128.007 128.234 127.898 128.057 127.757 127.963 127.784 128.05 127.876 
128.135 127.926 128.238 128.097 127.229 127.465 127.149 127.355 127.079 
127.323 127.208 127.464 127.363 127.509 127.312 127.471 127.344 127.658 
127.666 126.61 126.761 126.474 126.624 126.363 126.612 126.546 126.9 
126.897 127.104 126.924 126.986 126.807 127.006 127.038 127.384 127.511 
126.175 126.254 125.986 126.053 125.784 125.943 125.855 126.209 126.256 
126.59 126.463 126.589 126.338 126.493 126.447 126.792 126.939 127.312 
127.435 125.887 125.282 125.621 125.641 124.577 124.937 124.984 125.347 
125.423 124.092 124.3 124.406 124.729 124.925 125.255 125.528 123.982 
124.02 124.131 124.309 124.564 124.856 125.195 125.536 125.91 124.022 
124.027 124.113 124.18 124.343 124.55 124.787 125.139 125.397 125.826 
126.045 124.152 124.098 124.187 124.196 124.28 124.361 124.472 124.692 
124.843 125.196 125.367 125.788 125.954 124.493 124.299 124.319 124.26 
124.311 124.321 124.424 124.494 124.679 124.809 125.066 125.272 125.593 
125.855 126.193 124.893 124.639 124.492 124.365 124.313 124.317 124.404 
124.5 124.737 124.846 125.175 125.265 125.655 125.777 126.21 126.363 
126.765 125.175 124.936 124.696 124.506 124.369 124.303 124.331 124.429 
124.635 124.847 125.162 125.38 125.724 125.909 126.266 126.445 126.796 
126.962 127.259 125.921 125.876 125.718 125.345 125.985 125.716 125.291 
125.077 124.653 126.282 125.905 125.463 125.118 124.695 124.444 124.159 
126.73 126.281 125.865 125.425 125.049 124.663 124.394 124.141 124.036 
127.295 126.799 126.421 125.937 125.631 125.184 124.94 124.536 124.341 
124.094 124.034 127.958 127.438 127.095 126.575 126.312 125.853 125.651 
125.185 124.936 124.495 124.32 124.105 124.147 128.632 128.143 127.828 
127.302 127.026 126.557 126.356 125.909 125.689 125.181 124.995 124.574 
124.614 124.402 124.601 129.183 128.78 128.474 128.012 127.711 127.252 
127.011 126.584 126.386 125.938 125.808 125.372 125.425 125.088 125.285 
125.01 125.156 129.577 129.247 128.944 128.574 128.289 127.889 127.656 
127.237 127.052 126.628 126.526 126.154 126.197 125.905 126.036 125.753 
125.826 125.503 125.48 126.225 126.785 126.38 126.233 127.664 127.094 
126.932 126.475 126.387 128.668 128.088 127.896 127.31 127.185 126.718 
126.693 129.514 129.046 128.919 128.35 128.205 127.626 127.57 127.105 
127.143 130.394 129.899 129.883 129.372 129.332 128.734 128.672 128.087 
128.098 127.619 127.702 131.475 130.925 130.939 130.392 130.42 129.871 
129.861 129.26 129.225 128.648 128.678 128.211 128.325 132.44 132.021 
132.032 131.499 131.467 130.934 130.918 130.394 130.349 129.781 129.728 
129.202 129.243 128.832 128.955 133.11 132.848 132.911 132.514 132.48 
131.966 131.914 131.399 131.366 130.84 130.774 130.23 130.191 129.731 
129.787 129.421 129.501 133.685 133.447 133.566 133.291 133.356 132.943 
132.934 132.421 132.391 131.851 131.796 131.245 131.175 130.666 130.655 
130.236 130.271 129.901 129.913 134.075 134.66 134.215 133.943 135.27 
134.814 134.521 134.095 133.782 135.806 135.383 135.054 134.648 134.312 
133.873 133.438 136.159 135.82 135.414 135.072 134.68 134.327 133.882 
133.433 132.899 136.248 136.025 135.576 135.305 134.846 134.563 134.098 
133.769 133.24 132.819 132.256 136.198 136.017 135.594 135.377 134.928 
134.669 134.223 133.935 133.472 133.106 132.582 132.154 131.625 136.217 
136.007 135.629 135.396 135.004 134.753 134.389 134.119 133.77 133.41 
132.982 132.519 132.025 131.56 131.098 136.264 136.091 135.766 135.514 
135.156 134.879 134.562 134.324 134.058 133.774 133.417 132.984 132.493 
131.996 131.5 131.067 130.658 136.194 136.119 135.861 135.681 135.357 
135.084 134.743 134.498 134.207 134.005 133.665 133.36 132.865 132.431 
131.877 131.442 130.962 130.611 130.236 136.039 135.735 135.855 135.753 
135.339 135.5 135.369 135.502 135.287 134.819 134.998 134.815 135.026 
134.816 134.944 134.674 134.323 134.444 134.219 134.411 134.198 134.393 
134.153 134.305 134.084 133.802 133.939 133.673 133.832 133.585 133.759 
133.5 133.699 133.459 133.692 133.474 133.084 133.306 132.993 133.224 
132.923 133.125 132.814 133.015 132.721 132.966 132.694 132.969 132.665 
132.428 132.585 132.343 132.528 132.262 132.425 132.107 132.293 131.993 
132.219 131.925 132.154 131.829 132.064 131.71 132.098 132.151 132.116 
132.149 132.067 131.993 131.733 131.684 131.391 131.514 131.251 131.437 
131.117 131.28 130.93 131.125 130.812 131.887 131.984 132.098 132.177 
132.272 132.128 131.926 131.604 131.222 131.058 130.748 130.819 130.528 
130.641 130.296 130.422 130.118 130.314 130.088 129.674 129.67 129.451 
129.052 129.84 129.517 129.103 128.856 128.464 130.105 129.762 129.361 
129.024 128.644 128.331 127.924 130.412 130.059 129.703 129.347 128.989 
128.622 128.207 127.82 127.368 131.038 130.537 130.212 129.73 129.366 
128.98 128.576 128.169 127.701 127.286 126.868 131.901 131.395 131.067 
130.385 129.9 129.363 128.931 128.53 128.097 127.675 127.268 126.876 
126.578 132.301 132.132 131.786 131.227 130.575 129.93 129.36 128.899 
128.478 128.077 127.67 127.283 126.951 126.638 126.389 132.044 132.152 
131.81 131.613 130.946 130.467 129.795 129.333 128.873 128.48 128.069 
127.66 127.237 126.915 126.58 126.367 126.087 131.7 131.743 131.447 
131.407 130.916 130.653 130.082 129.702 129.236 128.868 128.472 128.066 
127.625 127.205 126.791 126.488 126.164 125.976 125.692 137.809 137.869 
137.797 137.674 137.837 137.846 137.797 137.697 137.604 137.659 137.762 
137.742 137.768 137.726 137.661 137.584 137.493 137.613 137.695 137.721 
137.682 137.661 137.529 137.517 137.298 137.527 137.613 137.902 137.863 
137.915 137.708 137.48 137.323 137.014 137.002 136.67 137.589 137.731 
138.061 138.146 138.294 138.101 137.858 137.444 137.014 136.742 136.42 
136.361 136.105 137.371 137.629 137.761 138.051 138.096 138.254 138.042 
137.839 137.368 136.958 136.533 136.267 136.015 135.912 135.659 136.895 
137.186 137.146 137.463 137.341 137.684 137.479 137.68 137.317 137.208 
136.747 136.481 136.095 135.894 135.566 135.433 135.049 136.414 136.64 
136.565 136.78 136.606 136.849 136.651 136.938 136.716 136.894 136.56 
136.521 136.107 135.946 135.532 135.353 134.937 134.766 134.349 137.713 
137.498 137.525 137.349 137.373 137.289 137.026 137.058 136.814 137.39 
137.236 136.895 136.768 136.471 136.485 136.2 137.185 137.21 136.863 
136.701 136.33 136.227 135.924 135.882 135.55 136.587 136.805 136.483 
136.515 136.094 136.071 135.704 135.66 135.281 135.213 134.826 136 
136.172 135.875 135.968 135.547 135.641 135.25 135.336 134.918 134.907 
134.448 134.435 134.049 135.507 135.654 135.373 135.421 135.027 135.06 
134.681 134.776 134.398 134.453 134.008 134.014 133.605 133.653 133.331 
134.842 135.074 134.773 134.925 134.55 134.604 134.216 134.26 133.9 
133.942 133.56 133.571 133.192 133.22 132.906 132.968 132.69 134.11 
134.32 134.007 134.228 133.885 134.055 133.688 133.795 133.43 133.491 
133.128 133.154 132.792 132.819 132.49 132.549 132.258 132.337 132.071 
137.769 137.429 137.661 137.665 136.9 137.225 137.21 137.419 137.261 
136.241 136.613 136.592 136.865 136.686 136.874 136.649 135.525 135.899 
135.871 136.193 136.052 136.272 136.085 136.274 136.143 134.801 135.163 
135.127 135.462 135.357 135.624 135.476 135.716 135.614 135.852 135.799 
134.071 134.432 134.398 134.73 134.625 134.916 134.77 135.061 134.946 
135.258 135.175 135.477 135.389 133.357 133.701 133.658 133.994 133.881 
134.179 134.026 134.326 134.212 134.54 134.456 134.778 134.671 134.979 
134.854 132.695 132.999 132.938 133.253 133.155 133.447 133.32 133.602 
133.511 133.822 133.776 134.082 134.007 134.274 134.158 134.43 134.316 
132.085 132.357 132.289 132.566 132.492 132.767 132.686 132.948 132.874 
133.155 133.118 133.427 133.389 133.663 133.571 133.799 133.686 133.931 
133.838 126.372 126.825 126.666 126.923 127.473 127.221 127.514 127.375 
127.806 128.276 127.978 128.279 128.067 128.498 128.376 128.815 128.999 
128.791 129.103 128.888 129.294 129.115 129.502 129.324 129.645 129.461 
129.397 129.735 129.649 130.064 129.923 130.303 130.061 130.356 130.119 
130.484 129.831 129.777 130.126 130.149 130.593 130.595 131.011 130.859 
131.157 130.896 131.215 131.039 131.5 130.377 130.217 130.564 130.528 
130.984 131.027 131.476 131.459 131.784 131.634 131.891 131.733 132.065 
132.008 132.401 131.061 130.856 131.193 131.061 131.489 131.448 131.897 
131.883 132.26 132.179 132.465 132.326 132.598 132.494 132.797 132.762 
133.062 131.685 131.53 131.837 131.704 132.067 131.984 132.379 132.335 
132.721 132.661 133.007 132.891 133.208 133.053 133.362 133.21 133.511 
133.399 133.684 
POINT_DATA 1002
SCALARS Distance double
LOOKUP_TABLE default
135.917 136.219 136.269 136.03 136.485 135.621 136.384 136.863 135.805 
135.19 136.805 137.181 136.101 135.378 134.673 137.092 137.325 136.303 
135.535 134.889 134.234 137.265 137.214 136.58 135.693 135.082 134.464 
133.652 137.126 136.782 136.964 136.177 135.352 134.681 133.82 132.858 
136.652 136.383 136.905 136.621 135.742 134.84 134.027 133.069 132.273 
136.366 136.438 136.415 136.402 135.853 134.915 134.14 133.408 132.557 
131.997 136.511 136.825 136.086 135.821 135.533 134.907 134.216 133.666 
132.971 132.189 131.74 136.642 136.7 137.15 137.034 137.452 136.795 
137.014 137.392 136.779 136.889 136.967 137.314 136.632 136.535 136.926 
137.337 137.516 137.019 136.568 136.514 136.94 137.778 137.79 137.689 
137.295 136.807 136.689 136.781 137.898 137.899 137.881 137.739 137.391 
137.002 136.672 136.44 137.899 137.893 137.801 137.624 137.398 137.162 
136.817 136.433 136.319 137.941 137.851 137.869 137.608 137.221 136.945 
136.757 136.478 136.361 136.592 137.85 137.933 137.619 137.659 137.056 
137.809 137.041 136.436 137.461 137.373 136.477 136.065 136.902 137.04 
136.884 136.212 135.772 136.583 136.885 136.837 136.673 135.89 135.297 
136.372 136.866 137.097 136.807 136.508 135.339 134.723 135.865 136.434 
137.017 137.057 136.64 136.4 134.76 134.202 135.237 135.684 136.342 
136.874 136.868 136.716 136.692 134.247 133.745 134.706 135.073 135.604 
136.322 136.779 136.944 137.096 137.103 136.968 137.211 136.582 137.041 
136.635 135.891 136.71 136.306 135.741 135.398 136.314 135.921 135.313 
135.067 134.862 135.651 135.489 134.935 134.553 134.379 133.864 134.962 
134.877 134.575 134.186 133.891 133.454 132.889 134.502 134.3 134.099 
133.861 133.537 133.091 132.634 132.313 134.076 133.842 133.611 133.413 
133.12 132.675 132.264 132.006 131.798 133.586 133.392 133.183 132.963 
132.643 132.188 131.773 131.526 131.337 131.077 136.286 135.736 135.547 
135.343 135.097 135.155 135.054 134.953 134.844 134.857 134.171 134.404 
134.565 134.547 134.354 133.039 133.301 133.688 133.973 133.958 133.797 
132.411 132.556 132.8 133.031 133.143 133.173 133.128 131.972 132.141 
132.312 132.369 132.301 132.274 132.305 132.279 131.264 131.452 131.662 
131.798 131.768 131.673 131.6 131.553 131.59 130.293 130.46 129.503 
129.685 128.888 130.646 129.03 128.159 129.835 130.867 128.204 127.237 
129.07 130.007 131.059 127.421 126.61 128.251 129.142 130.281 131.192 
126.984 126.218 127.685 128.377 129.452 130.607 131.208 126.509 125.726 
127.29 127.944 128.758 129.869 130.691 131.081 125.996 125.39 126.761 
127.59 128.381 129.233 130.083 130.671 131.09 125.84 125.41 126.39 
127.175 128.07 128.851 129.598 130.398 131.04 131.435 130.377 129.47 
129.566 128.544 128.786 128.688 127.751 128.258 127.779 128.061 127.428 
128.066 127.127 127.218 127.248 127.428 127.953 126.904 126.661 126.544 
126.438 127.283 127.706 126.74 126.232 125.976 125.855 125.911 127.072 
127.52 126.546 125.904 125.408 125.207 125.208 125.399 127.07 127.523 
126.559 125.944 125.283 124.786 124.582 124.664 124.974 127.122 127.527 
126.631 126.098 125.518 124.905 124.429 124.282 124.485 124.913 133.178 
132.967 132.585 132.327 131.906 132.776 131.6 131.149 132.115 132.571 
130.836 130.454 131.33 131.824 132.231 130.173 129.828 130.529 130.942 
131.353 131.731 129.491 129.136 129.787 130.069 130.467 130.868 131.267 
128.696 128.452 128.97 129.22 129.558 130.012 130.46 130.956 128 
127.931 128.149 128.406 128.666 128.976 129.427 130.012 130.686 133.57 
133.029 133.466 132.899 133.34 132.398 132.67 133.088 132.181 131.645 
132.39 132.813 131.921 131.435 130.889 132.175 132.611 131.681 131.246 
130.748 130.192 131.961 132.416 131.42 130.949 130.554 129.996 129.46 
131.739 132.211 131.17 130.591 130.182 129.731 129.147 128.72 131.564 
132.021 131.048 130.445 129.899 129.413 128.839 128.359 128.12 131.379 