# vtk DataFile Version 4.0
vtk output
ASCII
DATASET POLYDATA
POINTS 1002 float
-76.8945 -101.859 60.3974 -76.8246 -102.333 60.8843 -77.4422 -102.24 60.651 
-77.627 -101.59 60.2699 -78.0683 -102.07 60.4321 -76.9608 -101.112 60.1104 
-78.3081 -101.335 60.0728 -78.6537 -101.958 60.0736 -77.7918 -100.82 59.9517 
-76.9457 -100.562 59.5905 -78.8066 -101.353 59.56 -79.2306 -101.971 59.5398 
-78.4588 -100.701 59.5581 -77.7729 -100.452 59.1506 -76.8945 -100.428 58.5483 
-79.274 -101.526 58.8526 -79.8649 -101.919 59.0266 -78.9107 -100.83 58.8736 
-78.4439 -100.379 58.5848 -77.6634 -100.288 58.006 -76.9018 -100.065 57.5917 
-79.9493 -101.45 58.2985 -80.5545 -101.711 58.5871 -79.4404 -100.916 58.1779 
-79.0115 -100.303 58.0027 -78.3867 -99.9863 57.5749 -77.6207 -99.7007 57.2322 
-76.948 -99.3133 57.0249 -80.7396 -101.192 57.8871 -81.1877 -101.563 58.0854 
-80.1576 -100.797 57.6418 -79.5855 -100.278 57.4031 -78.9811 -99.8348 57.0738 
-78.2833 -99.48 56.7482 -77.5934 -99.1141 56.5116 -76.9845 -98.9191 56.1722 
-81.3593 -101.105 57.4167 -81.6668 -101.6 57.5178 -80.8202 -100.693 57.1513 
-80.1349 -100.32 56.7759 -79.4327 -99.9752 56.3783 -78.7389 -99.6271 56.0096 
-78.1053 -99.25 55.7005 -77.5546 -98.9461 55.3925 -77.031 -98.8058 55.0395 
-81.7549 -101.227 56.8437 -82.0248 -101.726 56.9535 -81.294 -100.734 56.6079 
-80.6566 -100.329 56.223 -79.9444 -100.049 55.7651 -79.2087 -99.7808 55.318 
-78.536 -99.4237 54.9433 -78.0241 -99.0229 54.6627 -77.5901 -98.659 54.4548 
-77.0912 -98.3812 54.2981 -82.0673 -101.387 56.245 -82.3428 -101.843 56.4155 
-81.6686 -100.839 56.0304 -81.17 -100.294 55.7533 -80.5947 -99.8996 55.3969 
-79.9014 -99.6242 54.9463 -79.1568 -99.3157 54.4946 -78.5523 -98.9219 54.1913 
-78.1222 -98.4825 54.0546 -77.6885 -98.0734 53.9983 -77.1278 -97.7797 53.9564 
-77.2064 -102.538 61.4315 -77.8083 -102.562 61.1146 -77.7364 -102.689 62.0834 
-78.2896 -102.858 61.6378 -78.2733 -102.915 62.6218 -78.3924 -102.556 60.7271 
-78.7889 -103.17 62.0817 -78.6979 -103.277 62.9631 -78.8519 -102.991 61.1025 
-79.07 -102.481 60.2758 -79.3709 -103.455 62.5303 -79.2033 -103.792 63.1964 
-79.4008 -103.319 61.5276 -79.6277 -102.876 60.6366 -79.847 -102.314 59.8458 
-80.1013 -103.793 62.9528 -79.7761 -104.411 63.298 -80.1032 -103.525 62.0198 
-80.1984 -103.192 60.9946 -80.4714 -102.618 60.2229 -80.5528 -102.122 59.41 
-80.5872 -104.337 63.0164 -80.1185 -105.067 63.1999 -80.7605 -103.848 62.321 
-80.7916 -103.499 61.269 -80.9718 -103.048 60.4088 -81.1031 -102.551 59.645 
-81.1045 -102.061 58.7946 -80.7028 -105.077 62.7389 -80.3228 -105.808 63.04 
-81.0342 -104.483 62.1915 -81.2572 -103.986 61.3769 -81.4443 -103.501 60.5493 
-81.5598 -103.109 59.7338 -81.5356 -102.693 58.8314 -81.5565 -102.132 58.0586 
-80.8208 -105.857 62.4867 -80.609 -106.591 62.9386 -81.1273 -105.243 61.9071 
-81.517 -104.708 61.2988 -81.8366 -104.056 60.6866 -82.0072 -103.515 59.9143 
-82.0071 -103.205 58.9328 -81.9431 -102.776 58.0326 -81.9694 -102.2 57.4207 
-81.0288 -106.504 62.327 -80.8779 -107.219 62.7956 -81.279 -105.851 61.7264 
-81.7074 -105.377 61.1671 -82.1024 -104.764 60.6679 -82.3341 -103.983 60.0123 
-82.4588 -103.474 59.1026 -82.4611 -103.169 58.1671 -82.389 -102.723 57.4412 
-82.3575 -102.23 56.9014 -81.0953 -107.202 62.1909 -81.3016 -106.439 61.6417 
-81.175 -106.989 61.2497 -81.5246 -106.281 60.7327 -81.2761 -106.762 60.1553 
-81.7248 -105.881 61.0633 -81.8263 -106.24 59.7217 -81.5998 -106.645 59.2236 
-82.1197 -105.896 60.2078 -82.2238 -105.46 60.5194 -82.453 -106.328 58.8213 
-82.1932 -106.588 58.4645 -82.6048 -105.966 59.196 -82.6311 -105.442 59.5408 
-82.5303 -104.696 59.8543 -83.2708 -106.372 58.0031 -82.8383 -106.526 57.5861 
-83.3748 -105.982 58.3549 -83.2148 -105.322 58.5678 -82.9976 -104.522 58.7712 
-82.7769 -103.84 59.0207 -83.8176 -106.305 57.0354 -83.3145 -106.449 56.5525 
-84.0196 -105.89 57.5812 -83.9457 -105.15 57.9586 -83.736 -104.34 58.0635 
-83.4302 -103.712 58.1206 -82.9919 -103.363 58.188 -84.0134 -106.153 55.9804 
-83.5812 -106.33 55.6087 -84.2279 -105.747 56.5376 -84.3569 -105.049 57.1452 
-84.3887 -104.278 57.4884 -84.1389 -103.682 57.5221 -83.6049 -103.279 57.4796 
-82.9613 -102.998 57.4465 -83.9931 -105.882 55.1119 -83.6169 -106.109 54.8907 
-84.2084 -105.507 55.4678 -84.4708 -104.944 55.9673 -84.7182 -104.284 56.4299 
-84.5874 -103.711 56.6451 -84.0439 -103.262 56.6858 -83.385 -102.881 56.72 
-82.8041 -102.551 56.786 -83.7576 -105.481 54.5184 -83.4176 -105.779 54.363 
-84.0265 -105.114 54.7208 -84.4093 -104.678 55.0047 -84.8201 -104.157 55.3393 
-84.834 -103.62 55.5914 -84.3428 -103.166 55.729 -83.706 -102.788 55.8604 
-83.1641 -102.452 56.0273 -82.7161 -102.147 56.2099 -82.5166 -101.645 55.7668 
-82.9748 -101.927 55.5611 -82.7102 -101.255 55.2016 -83.4635 -102.183 55.3662 
-83.2866 -101.47 55.0833 -82.8763 -100.682 54.7689 -83.9886 -102.451 55.1592 
-83.8419 -101.635 54.8973 -83.5242 -100.835 54.5882 -82.8921 -100.244 54.0761 
-84.5403 -102.827 54.9756 -84.2556 -101.885 54.5892 -84.072 -100.995 54.1486 
-83.5071 -100.416 53.5798 -82.6615 -100.107 52.9926 -84.8295 -103.363 54.7941 
-84.4824 -102.423 54.2763 -84.2634 -101.432 53.5638 -83.9723 -100.666 52.8696 
-83.1364 -100.32 52.4353 -82.1559 -100.005 52.0555 -84.5605 -103.906 54.5642 
-84.4133 -103.129 54.032 -84.1682 -102.279 53.1534 -84.0459 -101.331 52.2892 
-83.5027 -100.622 51.944 -82.4566 -100.263 51.7596 -81.5957 -99.792 51.3426 
-83.9911 -104.322 54.3472 -83.9668 -103.626 53.8683 -83.9178 -103.067 53.0238 
-83.8776 -102.328 52.0833 -83.5563 -101.36 51.6662 -82.7155 -100.625 51.5373 
-81.8255 -100.183 51.1006 -81.3462 -99.6344 50.4698 -83.5443 -104.707 54.18 
-83.3865 -103.937 53.7813 -83.4481 -103.422 53.0887 -83.5566 -102.998 52.1931 
-83.34 -102.264 51.6127 -82.6801 -101.328 51.3707 -81.9445 -100.63 50.9214 
-81.5118 -100.151 50.21 -81.3353 -99.5885 49.6212 -83.2481 -105.131 54.0152 
-82.9732 -104.344 53.6729 -82.9017 -103.681 53.1619 -83.0173 -103.24 52.4204 
-82.9063 -102.774 51.7391 -82.3776 -102.048 51.3208 -81.7578 -101.22 50.8856 
-81.3932 -100.578 50.2354 -81.2591 -100.092 49.5996 -81.1391 -99.5607 49.1986 
-82.1554 -101.076 55.5404 -82.2847 -100.551 54.9722 -81.7368 -100.389 55.3292 
-82.361 -100.049 54.4219 -81.8773 -99.8579 54.7496 -81.2982 -99.7855 55.1106 
-82.2401 -99.8112 53.4936 -81.8299 -99.524 53.9593 -81.3355 -99.341 54.4094 
-80.6773 -99.3769 54.7324 -81.8992 -99.6081 52.395 -81.549 -99.2445 52.8305 
-81.0081 -99.0594 53.3263 -80.4631 -98.9581 53.811 -79.8571 -99.0463 54.1852 
-81.4459 -99.2379 51.5403 -81.2681 -98.7331 51.8583 -80.72 -98.6142 52.2459 
-80.0761 -98.6472 52.6849 -79.6386 -98.5817 53.2317 -79.1345 -98.6635 53.7671 
-81.169 -98.9241 50.6862 -81.074 -98.2323 51.0563 -80.7381 -97.9997 51.5096 
-80.0742 -98.1468 51.9129 -79.5276 -98.1883 52.3561 -79.1313 -98.1091 53.0026 
-78.6324 -98.2078 53.6297 -81.1703 -98.8239 49.7547 -80.977 -98.0145 50.102 
-80.7305 -97.5834 50.6481 -80.237 -97.5544 51.2784 -79.6135 -97.5972 51.7744 
-79.116 -97.6016 52.2677 -78.6638 -97.6341 52.9658 -78.1634 -97.7775 53.6097 
-81.1043 -98.8485 49.1361 -80.8785 -98.0087 49.2635 -80.5515 -97.4388 49.6133 
-80.1205 -97.1953 50.2944 -79.5462 -97.0165 51.0856 -78.9676 -96.9982 51.6223 
-78.4859 -97.2126 52.1349 -78.0274 -97.3796 52.8862 -77.5585 -97.4945 53.572 
-80.6205 -99.1486 49.0062 -80.5839 -98.3227 48.8615 -79.8178 -98.7633 48.8564 
-79.7764 -97.9086 48.6599 -79.0347 -98.5008 48.5781 -80.296 -97.5489 48.8535 
-78.9288 -97.7042 48.4498 -78.334 -98.3597 48.1919 -79.4648 -97.3005 48.6234 
-79.8377 -97.1384 49.1922 -77.9829 -97.6464 48.1898 -77.4259 -98.347 47.8524 
-78.5322 -97.2654 48.5776 -78.9298 -96.9855 49.1045 -79.2605 -96.8062 50.0637 
-76.8495 -97.7317 48.0279 -76.3708 -98.569 47.8242 -77.4083 -97.3164 48.5224 
-77.9299 -97.0169 49.2159 -78.2904 -96.6168 50.0724 -78.6326 -96.5567 50.9311 
-75.8799 -98.1082 48.246 -75.4878 -98.9724 48.1356 -76.2966 -97.5528 48.5675 
-76.822 -97.186 49.1991 -77.3234 -96.7779 50.0519 -77.6864 -96.6105 50.7813 
-78.0792 -96.8375 51.4205 -75.1705 -98.6261 48.6355 -74.7385 -99.3275 48.4551 
-75.5674 -98.1118 48.8989 -75.9063 -97.6305 49.2556 -76.342 -97.1003 49.9245 
-76.7676 -96.9343 50.6545 -77.1359 -97.1273 51.2856 -77.5903 -97.2623 52.0683 
-74.399 -98.9908 48.8604 -73.9844 -99.5996 48.6991 -74.9442 -98.6362 49.2221 
-75.304 -98.2831 49.5369 -75.5448 -97.6321 49.9806 -75.8638 -97.1911 50.6758 
-76.1956 -97.3022 51.397 -76.5902 -97.4111 52.174 -77.1055 -97.3496 52.9883 
-73.5557 -99.2694 49.0765 -73.3121 -99.9279 49.0662 -74.0974 -98.8913 49.4086 
-74.6233 -98.7061 49.8211 -74.9198 -98.2602 50.227 -75.1519 -97.6477 50.8305 
-75.4069 -97.4279 51.6073 -75.6871 -97.456 52.4038 -76.1211 -97.3837 53.1423 
-76.6692 -97.4295 53.6717 -80.6542 -99.8157 49.3625 -79.8683 -99.5067 49.2255 
-79.9111 -99.9953 49.7402 -79.0873 -99.8454 49.4267 -79.37 -100.431 49.8958 
-79.0496 -99.3103 48.9167 -78.7683 -100.496 49.313 -79.2072 -101.324 49.6338 
-78.5517 -99.8897 48.865 -78.4963 -99.2191 48.4377 -78.713 -101.484 49.0443 
-79.0716 -102.242 49.4325 -78.4221 -100.717 48.7026 -78.1958 -99.9977 48.3478 
-77.884 -99.1907 48.0116 -78.4427 -102.293 49.0814 -78.8065 -102.901 49.5359 
-78.1348 -101.699 48.5795 -77.8463 -100.97 48.2607 -77.4147 -100.148 48.0438 
-76.8837 -99.3292 47.8155 -78.0647 -102.914 49.2899 -78.5478 -103.675 49.5241 
-77.6002 -102.412 48.7216 -77.2518 -101.995 48.1198 -76.8162 -101.251 47.9718 
-76.2866 -100.403 47.9925 -75.8271 -99.6455 47.9621 -77.7428 -103.738 49.2873 
-78.2221 -104.53 49.4057 -77.1813 -102.963 49.0406 -76.7447 -102.65 48.36 
-76.3048 -102.275 47.8786 -75.7665 -101.452 48.0059 -75.3185 -100.622 48.2205 
-74.9901 -99.9336 48.2889 -77.3324 -104.525 49.288 -77.7165 -104.977 49.6323 
-76.8274 -103.67 49.2483 -76.3753 -103.054 48.9771 -75.9416 -102.852 48.3544 
-75.3869 -102.358 48.0751 -74.9108 -101.492 48.3326 -74.6047 -100.752 48.571 
-74.2898 -100.152 48.6103 -76.8048 -104.904 49.6112 -77.1255 -104.99 50.2253 
-76.3624 -104.379 49.3708 -75.8912 -103.624 49.3673 -75.4508 -103.202 49.081 
[...]
CELL_DATA 2000
SCALARS Distance double
LOOKUP_TABLE default
140.593 140.742 140.472 140.037 140.851 140.602 140.184 139.888 139.421 
140.94 140.692 140.284 140.024 139.584 139.276 138.819 141.04 140.781 
140.357 140.107 139.67 139.407 138.944 138.663 138.192 141.126 140.878 
140.442 140.179 139.72 139.462 138.983 138.728 138.225 137.97 137.468 
141.193 140.961 140.539 140.268 139.797 139.513 139.017 138.746 138.24 
137.975 137.472 137.22 136.769 141.266 141.043 140.639 140.368 139.895 
139.596 139.091 138.797 138.293 138.008 137.517 137.246 136.798 136.572 
136.193 141.341 141.128 140.729 140.464 139.985 139.687 139.181 138.884 
138.384 138.087 137.593 137.308 136.848 136.608 136.203 136.014 135.645 
141.4 141.197 140.795 140.54 140.06 139.77 139.277 138.985 138.503 
138.199 137.705 137.397 136.917 136.654 136.232 136.021 135.642 135.454 
135.09 140.96 141.593 141.227 141.128 142.282 141.896 141.79 141.389 
141.251 142.955 142.589 142.494 142.081 141.941 141.512 141.359 143.656 
143.27 143.202 142.792 142.67 142.232 142.077 141.633 141.473 144.446 
144.033 143.965 143.519 143.39 142.951 142.798 142.362 142.184 141.738 
141.552 145.146 144.803 144.709 144.284 144.101 143.653 143.474 143.057 
142.885 142.448 142.236 141.787 141.593 145.701 145.394 145.278 144.937 
144.744 144.334 144.129 143.717 143.554 143.138 142.942 142.478 142.247 
141.811 141.635 146.291 145.916 145.768 145.436 145.295 144.945 144.781 
144.375 144.2 143.791 143.604 143.171 142.933 142.473 142.248 141.846 
141.69 146.867 146.486 146.259 145.916 145.779 145.49 145.384 145.026 
144.828 144.408 144.169 143.775 143.541 143.132 142.889 142.464 142.262 
141.89 141.743 146.998 146.719 146.725 146.369 146.241 146.373 146.182 
146.171 145.925 145.868 145.971 145.926 146.005 145.908 145.839 145.587 
145.786 145.802 145.821 145.842 145.776 145.763 145.505 145.398 144.996 
145.827 145.87 145.931 145.867 145.734 145.623 145.294 145.188 144.763 
144.677 144.27 145.715 145.877 145.947 145.958 145.786 145.628 145.265 
145.042 144.639 144.465 144.11 144 143.665 145.419 145.64 145.643 
145.788 145.603 145.591 145.264 145.097 144.726 144.491 144.136 143.928 
143.579 143.425 143.058 145.004 145.228 145.131 145.325 145.12 145.254 
144.984 145.006 144.667 144.554 144.14 143.957 143.516 143.345 142.926 
142.792 142.421 144.465 144.695 144.511 144.724 144.5 144.703 144.481 
144.628 144.334 144.35 143.921 143.824 143.331 143.207 142.758 142.648 
142.277 142.184 141.878 141.62 142.002 141.65 141.305 142.431 142.045 
141.713 141.324 140.907 142.93 142.478 142.106 141.727 141.318 140.887 
140.389 143.487 142.988 142.521 142.091 141.632 141.24 140.717 140.298 
139.752 143.927 143.509 142.989 142.499 141.934 141.498 140.936 140.547 
139.987 139.611 139.056 144.071 143.812 143.322 142.917 142.322 141.83 
141.236 140.778 140.234 139.831 139.298 138.9 138.335 144.032 143.825 
143.344 143.1 142.581 142.209 141.671 141.19 140.667 140.169 139.645 
139.177 138.639 138.195 137.668 144.024 143.768 143.243 143.025 142.546 
142.346 141.908 141.606 141.127 140.669 140.107 139.582 138.999 138.523 
138.011 137.6 137.181 144.048 143.79 143.259 142.967 142.469 142.265 
141.857 141.7 141.273 141.002 140.437 139.999 139.35 138.875 138.304 
137.917 137.493 137.169 136.832 141.319 140.941 140.985 140.664 140.479 
140.533 140.155 140.243 139.895 139.954 140.024 139.631 139.708 139.353 
139.451 139.124 139.349 139.459 139.065 139.167 138.798 138.906 138.557 
138.676 138.347 138.638 138.79 138.346 138.511 138.07 138.254 137.835 
138.029 137.643 137.842 137.505 137.864 138.011 137.508 137.692 137.205 
137.418 136.97 137.202 136.811 137.058 136.726 136.973 136.695 137.186 
137.243 136.732 136.851 136.412 136.583 136.216 136.39 136.071 136.259 
135.988 136.208 135.977 136.216 136.016 136.739 136.676 136.17 136.169 
135.758 135.882 135.583 135.747 135.464 135.614 135.343 135.529 135.308 
135.536 135.35 135.592 135.428 136.447 136.342 135.829 135.721 135.25 
135.288 134.947 135.118 134.805 134.987 134.65 134.856 134.591 134.857 
134.673 134.938 134.772 135.02 134.869 136.126 135.371 135.678 135.486 
134.571 134.865 134.666 134.98 134.852 133.864 134.092 133.891 134.171 
134.062 134.429 134.486 133.198 133.405 133.225 133.482 133.388 133.688 
133.705 134.135 134.283 132.611 132.739 132.565 132.843 132.805 133.092 
133.071 133.385 133.451 133.918 134.103 132.362 132.303 132.13 132.263 
132.267 132.53 132.571 132.826 132.876 133.187 133.369 133.817 134.099 
132.359 132.247 132.143 132.084 132.095 132.145 132.211 132.374 132.484 
132.732 132.936 133.262 133.564 133.953 134.262 132.275 132.247 132.208 
132.215 132.267 132.205 132.217 132.173 132.235 132.383 132.591 132.895 
133.171 133.514 133.781 134.141 134.386 132.175 132.117 132.049 132.168 
132.258 132.35 132.377 132.306 132.284 132.258 132.388 132.574 132.827 
133.12 133.352 133.671 133.887 134.243 134.478 136.298 136.194 136.04 
135.561 136.114 135.905 135.472 135.283 134.799 136.373 135.964 135.551 
135.268 134.882 134.603 134.146 136.904 136.403 135.993 135.549 135.202 
134.818 134.417 134.024 133.535 137.357 136.931 136.518 136.08 135.696 
135.261 134.85 134.39 133.912 133.449 132.984 137.73 137.316 136.87 
136.498 136.086 135.72 135.288 134.853 134.385 133.904 133.469 133.012 
132.698 138.154 137.709 137.218 136.794 136.371 136.035 135.658 135.277 
134.85 134.394 133.986 133.543 133.219 132.831 132.607 138.457 138.111 
137.618 137.17 136.708 136.333 135.993 135.656 135.297 134.872 134.471 
134.042 133.718 133.339 133.078 132.734 132.513 138.502 138.312 137.881 
137.533 137.05 136.674 136.282 135.977 135.634 135.291 134.891 134.495 
134.152 133.805 133.583 133.235 133.037 132.66 132.479 143.876 143.381 
143.48 143.12 142.882 142.996 142.654 142.679 142.319 142.335 142.511 
142.215 142.244 141.863 141.913 141.654 141.656 141.916 141.656 141.779 
141.368 141.422 141.057 141.24 141.015 140.92 141.175 140.906 141.127 
140.718 140.835 140.369 140.537 140.185 140.481 140.173 140.3 140.464 
140.16 140.346 139.973 140.124 139.682 139.81 139.389 139.596 139.229 
139.51 139.124 139.806 139.926 139.64 139.708 139.359 139.437 139.069 
139.163 138.773 138.87 138.463 138.615 138.232 138.461 138.116 139.325 
139.484 139.27 139.305 138.964 138.95 138.581 138.622 138.249 138.306 
137.866 137.925 137.492 137.647 137.333 137.574 137.338 138.821 139.017 
138.843 138.936 138.593 138.587 138.169 138.178 137.78 137.811 137.361 
137.359 136.872 136.946 136.597 136.829 136.635 136.905 136.723 144.147 
144.169 144.009 143.639 144.118 143.962 143.632 143.469 143.097 144.273 
143.972 143.605 143.42 143.057 142.897 142.505 144.499 144.169 143.705 
143.44 143.034 142.836 142.427 142.257 141.827 144.48 144.281 143.777 
143.531 143.061 142.829 142.391 142.188 141.763 141.572 141.146 144.274 
144.166 143.74 143.55 143.073 142.83 142.352 142.146 141.732 141.553 
141.162 140.946 140.556 144.047 143.977 143.641 143.512 143.086 142.837 
142.319 142.078 141.639 141.5 141.132 140.973 140.568 140.366 139.989 
143.809 143.765 143.447 143.393 143.013 142.835 142.315 142.047 141.552 
141.385 141.012 140.898 140.486 140.314 139.862 139.739 139.396 143.573 
143.521 143.183 143.153 142.788 142.701 142.229 142.02 141.51 141.309 
140.905 140.774 140.382 140.206 139.732 139.56 139.152 139.111 138.845 
143.346 142.815 143.026 142.916 142.204 142.445 142.313 142.573 142.475 
141.565 141.813 141.672 141.93 141.791 142.076 141.916 140.875 141.149 
140.983 141.258 141.088 141.362 141.185 141.453 141.256 140.064 140.383 
140.175 140.502 140.304 140.616 140.428 140.723 140.556 140.821 140.671 
139.195 139.512 139.292 139.637 139.431 139.772 139.572 139.916 139.745 
140.09 139.935 140.251 140.093 138.398 138.664 138.46 138.772 138.593 
138.908 138.711 139.034 138.851 139.218 139.059 139.431 139.25 139.596 
139.411 137.702 137.921 137.716 137.989 137.824 138.116 137.934 138.215 
138.028 138.342 138.207 138.557 138.437 138.759 138.628 138.935 138.849 
137.082 137.264 137.041 137.274 137.092 137.368 137.196 137.469 137.292 
137.57 137.443 137.765 137.704 138.026 137.983 138.263 138.243 138.522 
138.559 136.676 136.023 136.431 136.614 135.356 135.767 135.955 136.394 
136.639 134.648 135.093 135.293 135.743 136.002 136.458 136.739 133.829 
134.33 134.577 135.094 135.404 135.862 136.162 136.583 136.863 133.205 
133.546 133.839 134.37 134.776 135.293 135.645 136.056 136.352 136.737 
137.039 133.197 133.213 133.477 133.763 134.195 134.677 135.099 135.549 
135.873 136.264 136.594 136.983 137.326 133.423 133.413 133.585 133.634 
133.937 134.212 134.627 135.032 135.41 135.801 136.161 136.562 136.954 
137.329 137.663 133.216 133.466 133.597 133.726 133.887 134.049 134.363 
134.666 135.076 135.416 135.808 136.161 136.577 136.968 137.372 137.692 
137.992 132.674 133.043 133.226 133.53 133.689 133.916 134.157 134.442 
134.832 135.164 135.566 135.87 136.243 136.596 137.012 137.397 137.784 
138.058 138.346 136.603 136.28 136.274 135.938 135.932 135.918 135.555 
135.582 135.256 135.556 135.529 135.113 135.153 134.809 134.885 134.54 
135.16 135.119 134.63 134.652 134.262 134.379 134.026 134.111 133.718 
134.795 134.727 134.195 134.141 133.651 133.75 133.395 133.553 133.231 
133.311 133.082 134.513 134.407 133.87 133.727 133.123 133.101 132.69 
132.884 132.715 132.904 132.865 132.963 133.07 134.33 134.176 133.65 
133.45 132.815 132.631 132.159 132.241 132.186 132.467 132.641 132.85 
133.024 133.146 133.283 134.296 134.065 133.596 133.336 132.81 132.488 
132.065 131.92 131.906 132.091 132.375 132.643 132.827 132.998 132.976 
133.139 133.029 134.446 134.149 133.791 133.47 133.128 132.728 132.444 
132.102 132.085 132.034 132.282 132.438 132.596 132.716 132.6 132.688 
132.457 132.635 132.453 136.971 137.456 137.023 136.662 138.007 137.518 
137.13 136.706 136.339 138.651 138.104 137.679 137.194 136.83 136.399 
136.018 139.362 138.806 138.407 137.828 137.451 136.939 136.568 136.079 
135.659 140.064 139.542 139.225 138.646 138.298 137.682 137.29 136.689 
136.24 135.699 135.269 140.778 140.249 139.941 139.439 139.124 138.561 
138.152 137.497 136.996 136.34 135.861 135.331 134.964 141.504 140.968 
140.599 140.101 139.73 139.255 138.809 138.268 137.734 137.117 136.609 
136.009 135.622 135.106 134.81 142.095 141.638 141.247 140.744 140.316 
139.801 139.302 138.785 138.243 137.732 137.258 136.752 136.399 135.869 
135.584 135.04 134.791 142.477 142.125 141.757 141.336 140.927 140.411 
139.927 139.335 138.816 138.242 137.817 137.344 137.074 136.635 136.414 
135.894 135.649 135.09 134.892 142.517 142.343 142.235 141.826 142.101 
142.022 141.596 141.509 141.031 141.736 141.696 141.242 141.222 140.756 
140.653 140.065 141.355 141.284 140.82 140.819 140.412 140.37 139.84 
139.638 138.981 141.125 140.971 140.517 140.437 140.081 140.057 139.654 
139.478 138.884 138.589 137.999 141.024 140.844 140.415 140.243 139.861 
139.778 139.415 139.314 138.824 138.569 138.008 137.733 137.281 140.921 
140.78 140.387 140.203 139.775 139.605 139.168 139.06 138.599 138.464 
137.959 137.758 137.286 137.083 136.655 140.774 140.668 140.289 140.15 
139.71 139.519 139.024 138.842 138.357 138.222 137.761 137.634 137.178 
137.031 136.567 136.394 135.908 140.602 140.505 140.106 139.997 139.547 
139.399 138.908 138.723 138.243 138.059 137.619 137.457 137.031 136.881 
136.44 136.274 135.81 135.617 135.16 140.375 139.781 140 139.828 
139.12 139.332 139.113 139.389 139.218 138.522 138.679 138.428 138.65 
138.47 138.761 138.599 137.933 138.107 137.865 138.029 137.842 138.061 
137.919 138.165 137.995 137.228 137.47 137.245 137.465 137.255 137.468 
137.284 137.516 137.333 137.566 137.374 136.551 136.763 136.564 136.804 
136.598 136.83 136.587 136.828 136.585 136.858 136.639 136.923 136.742 
136.005 136.166 136.007 136.193 136.035 136.201 135.958 136.113 135.837 
136.067 135.848 136.147 135.971 136.283 136.132 135.447 135.628 135.457 
135.675 135.538 135.712 135.481 135.562 135.255 135.375 135.159 135.402 
135.276 135.546 135.403 135.677 135.521 134.852 135.018 134.791 135.049 
134.894 135.165 134.955 135.097 134.767 134.843 134.579 134.774 134.677 
134.936 134.842 135.039 134.865 135.074 134.906 134.481 134.5 134.284 
133.892 134.539 134.37 133.998 133.736 133.294 134.367 134.322 134.008 
133.853 133.442 133.145 132.696 134.21 134.095 133.804 133.762 133.473 
133.309 132.967 132.651 132.382 134.362 134.069 133.762 133.612 133.413 
133.317 133.113 132.929 132.73 132.5 132.45 134.528 134.266 133.914 
133.703 133.488 133.348 133.17 133.032 132.821 132.705 132.551 132.527 
132.517 134.442 134.286 133.878 133.769 133.477 133.408 133.166 133.069 
132.814 132.705 132.468 132.431 132.269 132.379 132.342 134.35 134.155 
133.753 133.632 133.313 133.267 132.984 132.953 132.701 132.659 132.476 
132.394 132.234 132.147 132.029 132.114 132.141 134.46 134.185 133.847 
133.61 133.33 133.155 132.884 132.759 132.517 132.491 132.389 132.417 
132.383 132.283 132.186 132.019 131.973 132.009 132.143 147.103 146.461 
146.891 146.97 145.789 146.175 146.241 146.605 146.527 145.181 145.517 
145.565 145.903 145.913 146.173 146.084 144.465 144.857 144.911 145.282 
145.353 145.646 145.65 145.828 145.752 143.679 144.076 144.124 144.567 
144.642 145.057 145.066 145.366 145.277 145.485 145.379 142.982 143.321 
143.331 143.737 143.754 144.217 144.181 144.615 144.49 144.851 144.696 
145.015 144.891 142.298 142.632 142.586 142.946 142.884 143.286 143.194 
143.626 143.508 143.937 143.804 144.202 144.062 144.431 144.278 141.593 
141.912 141.826 142.167 142.056 142.413 142.277 142.656 142.528 142.948 
142.857 143.284 143.18 143.561 143.412 143.76 143.586 140.96 141.226 
141.137 141.419 141.309 141.605 141.462 141.777 141.62 141.993 141.882 
142.326 142.251 142.678 142.568 142.922 142.775 143.09 142.941 147.404 
147.266 147.49 147.522 146.775 147.15 147.22 147.368 147.134 146.254 
146.591 146.716 146.97 146.883 146.899 146.636 145.876 146.122 146.256 
146.513 146.598 146.715 146.658 146.564 146.417 145.564 145.794 145.908 
146.124 146.229 146.446 146.481 146.576 146.467 146.402 146.216 145.171 
145.481 145.621 145.818 145.854 146.05 146.011 146.225 146.049 146.196 
145.898 145.984 145.686 144.581 145.014 145.183 145.479 145.473 145.651 
145.518 145.684 145.457 145.609 145.285 145.427 145.098 145.272 144.997 
143.859 144.336 144.499 144.913 144.899 145.163 144.984 145.162 144.928 
145.059 144.792 144.866 144.594 144.684 144.46 144.6 144.39 143.179 
143.601 143.75 144.171 144.181 144.496 144.33 144.554 144.329 144.526 
144.315 144.451 144.232 144.301 144.094 144.163 143.974 144.062 143.859 
147.33 147.455 147.348 147.009 147.084 147.251 147.009 146.874 146.452 
146.534 146.746 146.653 146.75 146.466 146.304 145.99 146.232 146.276 
146.202 146.367 146.291 146.294 146.058 145.917 145.779 146.093 146.093 
145.964 146.028 146.039 146.136 146.051 145.97 145.768 145.719 145.682 
145.737 145.91 145.831 145.883 145.897 145.988 146.032 145.998 145.827 
145.679 145.489 145.542 145.524 145.122 145.448 145.451 145.661 145.667 
145.85 145.926 146.017 145.92 145.765 145.468 145.34 145.175 145.306 
145.275 144.465 144.8 144.803 145.129 145.101 145.43 145.439 145.753 
145.678 145.755 145.424 145.293 144.951 144.961 144.841 145.024 144.943 
143.886 144.164 144.139 144.444 144.396 144.727 144.674 145.058 144.971 
145.277 145.005 145.075 144.673 144.68 144.425 144.576 144.476 144.659 
144.491 137.264 137.901 137.645 137.785 138.616 138.338 138.529 138.232 
138.391 139.428 139.115 139.336 139.028 139.228 138.888 139.051 140.293 
139.974 140.201 139.876 140.08 139.74 139.908 139.559 139.714 141.072 
140.81 141.039 140.75 140.968 140.624 140.805 140.43 140.597 140.231 
140.401 141.743 141.524 141.756 141.533 141.788 141.511 141.739 141.378 
141.586 141.182 141.392 140.977 141.169 142.404 142.191 142.449 142.233 
142.513 142.289 142.552 142.278 142.508 142.178 142.406 142.025 142.228 
141.787 141.932 143.024 142.855 143.133 142.94 143.223 143.012 143.272 
143.035 143.254 143.001 143.217 142.953 143.153 142.81 142.922 142.485 
142.514 143.526 143.416 143.661 143.547 143.791 143.66 143.894 143.718 
143.919 143.694 143.892 143.669 143.882 143.631 143.763 143.398 143.394 
142.948 142.881 
POINT_DATA 1002
SCALARS Distance double
LOOKUP_TABLE default
140.195 140.707 140.876 140.347 141.004 139.57 140.456 141.094 139.75 
138.944 140.529 141.199 139.868 139.136 138.379 140.618 141.303 139.925 
139.22 138.478 137.722 140.714 141.361 139.995 139.242 138.487 137.711 
136.971 140.809 141.41 140.096 139.303 138.508 137.727 136.978 136.357 
140.91 141.48 140.2 139.39 138.583 137.79 137.035 136.381 135.843 
140.994 141.549 140.283 139.473 138.682 137.891 137.102 136.41 135.819 
135.274 141.05 141.602 140.343 139.557 138.802 138.027 137.2 136.452 
135.836 135.272 134.725 141.298 141.507 141.977 142.207 142.665 141.657 
142.895 143.305 142.382 141.785 143.612 144.051 143.101 142.53 141.917 
144.438 144.851 143.846 143.225 142.642 141.994 145.122 145.466 144.57 
143.891 143.307 142.708 142.008 145.596 146.041 145.12 144.544 143.955 
143.401 142.719 142.016 146.113 146.719 145.596 145.173 144.629 144.019 
143.394 142.686 142.043 146.626 147.258 146.041 145.704 145.277 144.578 
143.913 143.317 142.665 142.08 147.11 146.442 146.606 146.073 146.047 
146.033 145.797 145.763 145.911 145.783 145.848 145.749 145.822 145.599 
145.134 146.016 145.719 145.932 145.451 144.835 144.322 145.899 145.53 
145.928 145.502 144.843 144.241 143.768 145.495 145.234 145.538 145.346 
144.947 144.39 143.777 143.193 144.956 144.822 144.944 144.88 144.729 
144.327 143.706 143.066 142.52 144.306 144.269 144.272 144.286 144.278 
143.998 143.44 142.849 142.359 141.954 141.305 141.692 140.919 142.084 
141.363 140.439 142.502 141.734 140.859 139.87 143.024 142.037 141.128 
140.165 139.223 143.508 142.435 141.33 140.351 139.447 138.501 143.652 
142.808 141.726 140.654 139.697 138.753 137.753 143.538 142.842 142.096 
141.194 140.156 139.083 138.08 137.172 143.495 142.697 142.102 141.529 
140.659 139.507 138.407 137.548 136.824 143.57 142.712 141.999 141.472 
140.82 139.832 138.711 137.796 137.136 136.537 140.601 140.079 139.785 
139.553 139.261 139.014 138.955 138.689 138.444 138.214 138.192 137.892 
137.632 137.43 137.288 137.34 136.993 136.732 136.547 136.457 136.433 
136.635 136.22 136.025 135.893 135.773 135.735 135.763 136.224 135.654 
135.401 135.324 135.177 135.079 135.11 135.177 135.979 135.286 134.81 
134.631 134.461 134.313 134.383 134.529 134.612 135.864 135.193 135.059 
134.345 134.31 134.462 133.623 133.66 133.708 134.018 132.934 133.003 
133.118 133.34 133.759 132.282 132.55 132.48 132.819 133.058 133.537 
132.082 132.458 132.029 132.294 132.604 132.969 133.603 132.204 132.416 
132.145 132.115 132.226 132.624 133.216 133.876 132.124 132.288 132.299 
132.358 132.181 132.303 132.848 133.452 134.019 131.942 132.297 132.084 
132.394 132.383 132.292 132.574 133.062 133.545 134.098 136.495 135.761 
136.328 135.627 136.389 135.03 135.878 136.855 135.148 134.471 136.478 
137.381 135.623 134.837 133.944 136.936 137.755 136.142 135.324 134.392 
133.402 137.257 138.18 136.419 135.699 134.845 133.922 133.088 137.69 
138.594 136.708 135.988 135.291 134.417 133.622 132.949 138.052 138.727 
137.114 136.304 135.69 134.911 134.087 133.448 132.838 138.16 138.621 
137.434 136.604 135.941 135.274 134.489 133.882 133.42 132.854 143.79 
143.08 143.272 142.636 142.737 142.247 142.16 142.108 141.849 141.493 
141.48 141.38 141.33 140.925 140.755 140.667 140.715 140.573 140.252 
139.932 139.867 140.013 140.173 139.801 139.547 139.248 138.989 138.831 
139.595 139.651 139.313 138.965 138.696 138.375 138.025 137.842 139.209 
139.116 139.007 138.574 138.205 137.848 137.376 137.076 137.083 144.383 
143.855 144.271 143.761 144.322 143.282 143.836 144.663 143.219 142.673 
144.012 144.825 143.268 142.618 141.993 144.006 144.611 143.314 142.604 
141.954 141.344 143.884 144.328 143.332 142.574 141.881 141.363 140.781 
143.722 144.093 143.321 142.605 141.779 141.259 140.777 140.146 143.481 
143.853 143.139 142.581 141.759 141.118 140.66 140.021 139.422 143.23 