# vtk DataFile Version 4.0
vtk output
ASCII
DATASET POLYDATA
POINTS 1002 float
-79.7086 -108.036 59.0771 -79.9074 -108.06 59.9717 -80.4063 -108.03 59.3835 
-80.2493 -107.989 58.4426 -80.9473 -108.002 58.6825 -79.4735 -107.934 58.1808 
-80.841 -107.814 57.9618 -81.5272 -107.864 58.1551 -79.9668 -107.653 57.7988 
-79.212 -107.476 57.5966 -81.3773 -107.417 57.761 -82.0074 -107.445 57.9896 
-80.5081 -107.196 57.6383 -79.6481 -106.945 57.4525 -79.042 -106.873 57.1367 
-81.7258 -106.766 57.6674 -82.2772 -106.741 57.9732 -80.9906 -106.688 57.4633 
-80.1192 -106.445 57.2236 -79.4822 -106.414 56.8196 -78.8772 -106.508 56.3787 
-81.9587 -106.129 57.3866 -82.4983 -106.117 57.7176 -81.3745 -106.224 57.0423 
-80.5659 -106.151 56.7192 -79.8646 -106.116 56.2843 -79.3063 -106.26 55.8037 
-78.5185 -106.218 55.4845 -82.305 -105.836 56.8177 -82.8562 -105.829 57.1169 
-81.7542 -105.932 56.413 -81.0173 -105.953 56.0533 -80.1736 -105.877 55.7111 
-79.5435 -105.95 55.2778 -78.9512 -106.026 54.8998 -78.1487 -105.855 54.6961 
-82.7831 -105.722 56.0813 -83.3058 -105.691 56.3306 -82.1772 -105.749 55.7473 
-81.4736 -105.743 55.4115 -80.5682 -105.574 55.1894 -79.6967 -105.451 54.9208 
-79.1196 -105.579 54.4885 -78.6251 -105.722 54.0891 -77.9723 -105.712 53.8206 
-83.2289 -105.509 55.3399 -83.7151 -105.498 55.5582 -82.5642 -105.444 55.1575 
-81.8469 -105.426 54.9 -81.0479 -105.323 54.6633 -80.1065 -105.072 54.4915 
-79.2952 -105.029 54.1578 -78.8059 -105.327 53.6385 -78.4016 -105.659 53.1726 
-77.8476 -105.812 52.8502 -83.5321 -105.209 54.7342 -83.9846 -105.219 54.9701 
-82.8557 -105.057 54.6636 -82.1215 -105.002 54.5145 -81.4651 -105.095 54.1848 
-80.7298 -105.042 53.8793 -79.8433 -104.866 53.6309 -79.0801 -104.956 53.2427 
-78.5861 -105.34 52.7472 -78.1708 -105.695 52.3257 -77.6648 -105.837 52.0409 
-80.4074 -108.178 60.4461 -80.8428 -108.071 59.8536 -80.8181 -108.341 60.8661 
-81.2638 -108.088 60.2622 -81.1658 -108.306 61.2407 -81.4062 -107.996 59.0794 
-81.8327 -107.958 60.5962 -81.6185 -108.05 61.6017 -82.0559 -107.979 59.491 
-82.1195 -107.908 58.5175 -82.3676 -107.727 60.8597 -82.1123 -107.815 61.9011 
-82.8379 -107.921 59.8708 -82.9963 -108.043 58.982 -82.7006 -107.575 58.3745 
-82.5483 -107.391 61.078 -82.4008 -107.469 62.0887 -83.1158 -107.639 60.2034 
-83.6788 -108.029 59.4257 -83.5773 -107.799 58.7766 -82.9899 -106.891 58.2827 
-82.613 -106.843 61.3348 -82.5013 -106.836 62.2236 -82.9602 -107.029 60.5763 
-83.635 -107.455 59.864 -84.0189 -107.594 59.097 -83.7173 -106.992 58.4451 
-83.1744 -106.199 57.861 -82.8896 -106.322 61.6373 -82.6464 -106.272 62.3815 
-83.1244 -106.435 60.9874 -83.5423 -106.641 60.3658 -83.9937 -106.832 59.5002 
-84.0466 -106.633 58.5832 -83.7238 -106.111 57.8753 -83.4339 -105.771 57.1701 
-83.2929 -106.027 61.932 -82.9557 -105.964 62.578 -83.5973 -106.121 61.3173 
-83.8954 -106.155 60.7698 -84.1706 -106.145 59.9663 -84.2602 -106.052 58.8985 
-84.1006 -105.786 57.9866 -83.8897 -105.546 57.2452 -83.7941 -105.508 56.41 
-83.6677 -105.737 62.1961 -83.3478 -105.664 62.7665 -83.973 -105.838 61.5757 
-84.2553 -105.86 60.9977 -84.4775 -105.749 60.2564 -84.5814 -105.604 59.2196 
-84.5423 -105.453 58.2127 -84.3944 -105.289 57.4339 -84.2436 -105.22 56.6437 
-84.1417 -105.252 55.7453 -83.8809 -105.217 62.5675 -84.1493 -105.298 61.9681 
-84.2325 -104.594 62.2288 -84.4525 -104.633 61.6343 -84.4204 -103.971 61.7373 
-84.3765 -105.368 61.3069 -84.663 -103.957 61.0335 -84.5287 -103.41 61.0504 
-84.5853 -104.64 60.778 -84.5658 -105.31 60.4847 -84.8131 -103.36 60.0958 
-84.4895 -102.875 60.1774 -84.777 -103.886 59.8566 -84.6818 -104.522 59.555 
-84.7266 -105.149 59.3877 -84.7796 -102.835 59.1246 -84.2519 -102.491 59.2791 
-85.0205 -103.204 58.8962 -84.9265 -103.723 58.564 -84.93 -104.434 58.3487 
-84.8936 -105.058 58.3051 -84.5208 -102.447 58.3484 -83.9739 -102.217 58.5011 
-85.0996 -102.617 58.253 -85.2998 -103.011 58.0375 -85.2749 -103.771 57.7153 
-85.2551 -104.551 57.5534 -84.9433 -105.02 57.5152 -84.1872 -102.082 57.6754 
-83.8141 -101.797 57.8839 -84.8361 -102.183 57.6287 -85.3846 -102.407 57.6241 
-85.4656 -103.129 57.4111 -85.3736 -104.031 57.1211 -85.1942 -104.626 56.9416 
-84.7556 -104.947 56.7872 -83.9711 -101.585 57.0962 -83.7581 -101.229 57.4078 
-84.4263 -101.808 56.8819 -85.0502 -101.966 56.8418 -85.2837 -102.492 56.7865 
-85.0788 -103.342 56.6254 -84.9012 -104.035 56.4373 -84.7602 -104.496 56.1859 
-84.4879 -104.898 55.898 -83.9113 -101.025 56.6512 -83.707 -100.717 57.0018 
-84.1827 -101.346 56.2806 -84.6328 -101.581 56.0423 -84.9259 -101.965 55.9323 
-84.7409 -102.616 55.8813 -84.427 -103.246 55.8503 -84.3562 -103.773 55.6885 
-84.3702 -104.34 55.3385 -84.2515 -104.869 55.0305 -83.8354 -104.853 54.4027 
-84.0382 -104.385 54.5138 -83.4568 -104.308 54.0509 -84.0692 -103.681 54.8496 
-83.696 -103.737 54.1125 -82.984 -103.694 53.7022 -84.0582 -103.05 55.1055 
-83.8901 -103.051 54.2429 -83.3603 -103.152 53.5512 -82.5923 -103.173 53.1871 
-84.242 -102.576 55.1311 -84.0788 -102.57 54.2723 -83.7964 -102.701 53.3421 
-83.0655 -102.756 52.8749 -82.2999 -102.774 52.6689 -84.5477 -101.983 55.145 
-84.2579 -102.053 54.3231 -84.0624 -102.251 53.2646 -83.5521 -102.377 52.5621 
-82.7394 -102.341 52.4358 -81.9469 -102.361 52.1942 -84.5952 -101.38 55.2903 
-84.3845 -101.249 54.5367 -84.1252 -101.361 53.5005 -83.7631 -101.63 52.5622 
-83.0993 -101.755 52.2863 -82.2461 -101.795 52.1217 -81.4324 -101.903 51.6439 
-84.355 -101.001 55.5557 -84.4016 -100.6 54.8224 -84.2035 -100.376 53.8678 
-83.8389 -100.548 52.8204 -83.2651 -100.873 52.294 -82.435 -101.111 52.1209 
-81.5741 -101.322 51.7029 -80.8523 -101.508 51.216 -84.0772 -100.71 55.9445 
-84.247 -100.317 55.1709 -84.1998 -99.9418 54.2473 -83.8712 -99.8659 53.1744 
-83.3298 -100.1 52.3782 -82.5482 -100.39 52.0586 -81.6602 -100.684 51.7699 
-80.9098 -100.974 51.3439 -80.3243 -101.158 51.0333 -83.7943 -100.442 56.3589 
-83.8997 -100.176 55.5905 -83.8859 -99.9072 54.7054 -83.619 -99.7563 53.6929 
-83.1577 -99.7902 52.7134 -82.5397 -99.8791 52.0701 -81.7619 -100.019 51.724 
-80.9928 -100.299 51.4018 -80.3754 -100.596 51.0746 -79.8813 -100.763 50.8186 
-83.2222 -104.739 54.2668 -82.7489 -104.204 53.9108 -82.4617 -104.584 54.2003 
-82.3372 -103.726 53.3865 -82.1361 -104.262 53.5581 -81.8423 -104.739 53.8237 
-82.0415 -103.323 52.7468 -81.9533 -104.032 52.6781 -81.7616 -104.705 52.7825 
-81.3296 -105.049 53.2349 -81.6692 -102.917 52.2118 -81.5952 -103.645 52.0377 
-81.5512 -104.493 51.8629 -81.2275 -105.067 52.1296 -80.5732 -105.06 52.8548 
-81.1382 -102.442 51.6657 -80.9257 -103.075 51.7258 -80.8543 -103.851 51.613 
-80.7075 -104.637 51.5502 -80.2595 -105.004 51.9314 -79.5996 -104.943 52.623 
-80.5858 -101.968 51.1692 -80.2644 -102.51 51.3652 -80.019 -103.135 51.5517 
-79.8589 -103.865 51.4807 -79.6192 -104.534 51.4576 -79.2056 -104.895 51.7906 
-78.7922 -105.091 52.2841 -80.0944 -101.548 50.9522 -79.7881 -102.044 51.0059 
-79.4735 -102.645 51.1597 -79.2239 -103.29 51.1824 -79.0149 -103.966 51.0623 
-78.7611 -104.559 51.1417 -78.4621 -105.014 51.4883 -78.2565 -105.407 51.887 
-79.6571 -101.129 50.7917 -79.3995 -101.605 50.7288 -79.1432 -102.256 50.6417 
-78.9147 -102.951 50.5627 -78.7033 -103.61 50.4659 -78.4947 -104.23 50.4665 
-78.2466 -104.752 50.7388 -77.9824 -105.208 51.1579 -77.7979 -105.608 51.5672 
-79.3638 -100.543 50.3181 -79.1085 -100.983 50.3058 -78.944 -100.37 49.5541 
-78.6821 -100.959 49.582 -78.5861 -100.373 49.0488 -78.8833 -101.654 50.1661 
-78.2226 -101.091 49.2561 -77.8274 -100.471 49.1758 -78.4912 -101.797 49.5623 
-78.7175 -102.474 49.9854 -77.2439 -101.252 49.428 -76.4916 -100.534 49.3706 
-77.898 -101.943 49.4939 -78.3055 -102.655 49.5971 -78.5318 -103.253 49.8996 
-75.9724 -101.407 49.4794 -75.4083 -100.702 49.3826 -76.7498 -102.078 49.6022 
-77.4603 -102.793 49.6014 -77.9797 -103.528 49.5947 -78.2996 -103.993 49.871 
-75.2786 -101.645 49.6385 -75.0362 -101.06 49.8225 -75.6442 -102.271 49.5595 
-76.1653 -103.023 49.4506 -76.8856 -103.864 49.3739 -77.6196 -104.419 49.522 
-78.0485 -104.611 50.0351 -75.0163 -101.884 50.3074 -74.7213 -101.366 50.6098 
-75.1857 -102.472 49.9423 -75.2641 -103.249 49.489 -75.6402 -104.167 49.1995 
-76.4967 -104.783 49.3115 -77.3188 -104.946 49.8096 -77.7387 -105.028 50.4958 
-74.5048 -102.025 50.9574 -74.1131 -101.504 51.1322 -74.8636 -102.604 50.6568 
-74.9788 -103.32 50.1455 -75.0209 -104.183 49.6647 -75.5013 -104.837 49.5844 
-76.3448 -105.045 49.9327 -77.0125 -105.138 50.4706 -77.4259 -105.382 51.0243 
-73.8262 -102.156 51.2525 -73.5483 -101.631 51.3878 -74.2643 -102.726 51.1068 
-74.6609 -103.329 50.8467 -74.8286 -104.01 50.5208 -75.0398 -104.622 50.3702 
-75.5869 -104.932 50.5018 -76.2272 -105.088 50.7769 -76.7294 -105.369 51.1045 
-77.19 -105.693 51.5211 -79.7747 -100.198 50.5449 -79.2895 -99.9888 49.7837 
-79.6673 -99.5287 50.2653 -79.172 -99.4791 49.516 -79.4577 -99.023 50.3352 
-78.9515 -99.9094 49.0537 -78.8408 -99.1658 49.9484 -79.07 -98.9088 50.8336 
-78.8034 -99.636 49.2202 -78.4876 -99.9778 49.0015 -78.3019 -99.0196 50.7825 
-78.6155 -98.9902 51.5263 -78.2995 -99.4874 50.1276 -78.0816 -99.814 49.6062 
-77.3288 -99.9675 49.38 -77.8067 -98.9155 51.5152 -78.271 -99.0267 52.3086 
-77.6281 -99.2592 51.037 -77.3945 -99.7504 50.5031 -76.7189 -99.7348 49.885 
-75.878 -99.9079 49.4517 -77.4575 -98.9371 52.2304 -78.0344 -99.0872 53.1636 
-77.0855 -98.9859 51.6414 -76.7787 -99.5328 51.1947 -76.2411 -99.7604 50.5905 
-75.5584 -99.6772 49.9667 -75.121 -100.17 49.6703 -77.1247 -99.0659 53.1399 
-77.7784 -99.1259 54.0386 -76.6231 -98.8844 52.3611 -76.3017 -99.1695 51.8153 
-75.9417 -99.6806 51.3755 -75.4497 -99.8034 50.9373 -75.0124 -100.01 50.5546 
-74.7954 -100.654 50.4377 -76.7842 -99.066 54.1546 -77.4608 -99.0068 54.8937 
-76.1968 -98.9124 53.361 -75.8247 -98.9219 52.6676 -75.5803 -99.3696 52.1783 
-75.2624 -99.805 51.8874 -74.8282 -100.053 51.5934 -74.4553 -100.431 51.2631 
-74.2407 -100.955 51.1049 -76.5384 -98.9421 55.0445 -77.1569 -98.8568 55.6204 
[...]
CELL_DATA 2000
SCALARS Distance double
LOOKUP_TABLE default
146.011 146.015 145.85 145.497 146.018 145.852 145.47 145.279 144.852 
145.962 145.833 145.413 145.217 144.718 144.545 144.097 145.697 145.667 
145.224 145.1 144.56 144.374 143.886 143.783 143.393 145.283 145.289 
144.873 144.839 144.349 144.194 143.692 143.569 143.189 143.117 142.718 
144.978 144.917 144.562 144.511 144.119 143.991 143.509 143.365 142.94 
142.886 142.517 142.422 141.967 144.815 144.724 144.399 144.298 143.938 
143.809 143.343 143.171 142.657 142.57 142.145 142.146 141.769 141.685 
141.291 144.636 144.58 144.229 144.14 143.74 143.639 143.184 143.017 
142.479 142.291 141.789 141.73 141.371 141.41 141.131 141.096 140.82 
144.388 144.36 143.976 143.902 143.463 143.391 142.975 142.869 142.435 
142.213 141.745 141.509 141.131 141.053 140.821 140.861 140.671 140.666 
140.434 146.358 146.867 146.515 146.332 147.281 146.976 146.757 146.466 
146.315 147.575 147.336 147.182 146.909 146.789 146.486 146.319 147.799 
147.603 147.561 147.379 147.398 147.082 146.955 146.495 146.169 147.852 
147.739 147.65 147.668 147.791 147.704 147.667 147.235 146.862 146.257 
145.779 147.648 147.632 147.422 147.553 147.606 147.827 147.837 147.765 
147.392 146.921 146.338 145.802 145.367 147.416 147.401 147.25 147.287 
147.28 147.468 147.469 147.618 147.327 147.174 146.6 146.235 145.72 
145.388 145.091 147.388 147.33 147.323 147.259 147.288 147.272 147.261 
147.27 147.067 146.976 146.545 146.322 145.856 145.618 145.296 145.101 
144.881 147.466 147.425 147.446 147.402 147.415 147.365 147.298 147.209 
146.999 146.848 146.519 146.308 145.958 145.728 145.445 145.25 145.034 
144.86 144.644 147.461 147.254 147.413 147.439 146.8 147.094 147.176 
147.362 147.382 146.212 146.566 146.622 146.938 146.962 147.219 147.185 
145.511 145.917 145.913 146.264 146.199 146.581 146.54 146.887 146.79 
144.737 145.161 145.167 145.513 145.414 145.748 145.705 146.115 146.116 
146.444 146.325 144.009 144.395 144.451 144.8 144.797 145.065 145.091 
145.397 145.524 145.833 145.865 146.03 145.874 143.332 143.685 143.728 
144.108 144.171 144.511 144.591 144.904 145.039 145.353 145.439 145.642 
145.54 145.608 145.408 142.675 142.995 142.984 143.364 143.395 143.822 
143.871 144.301 144.331 144.756 144.734 145.103 144.973 145.208 145.002 
145.134 144.955 142.08 142.348 142.31 142.625 142.616 143.005 143.016 
143.456 143.424 143.869 143.759 144.199 144.04 144.446 144.275 144.596 
144.44 144.666 144.529 144.204 144.054 143.956 143.544 143.775 143.711 
143.281 143.212 142.74 143.47 143.376 142.929 142.898 142.47 142.381 
141.916 143.221 143.091 142.661 142.593 142.236 142.144 141.742 141.602 
141.196 142.946 142.854 142.426 142.363 142.014 141.955 141.593 141.471 
141.066 140.931 140.534 142.587 142.549 142.094 142.064 141.624 141.638 
141.22 141.234 140.805 140.759 140.31 140.22 139.763 142.238 142.199 
141.764 141.697 141.201 141.158 140.668 140.715 140.279 140.355 139.916 
139.916 139.442 139.379 138.928 141.973 141.911 141.537 141.43 140.981 
140.819 140.331 140.223 139.797 139.807 139.419 139.453 139.028 139.017 
138.592 138.566 138.202 141.763 141.694 141.353 141.258 140.87 140.701 
140.255 140.047 139.61 139.469 139.071 139.012 138.603 138.585 138.178 
138.195 137.839 137.872 137.557 144.11 143.441 143.759 143.653 142.645 
143.014 142.908 143.23 143.114 141.836 142.205 142.162 142.496 142.441 
142.738 142.671 141.119 141.445 141.467 141.814 141.867 142.16 142.158 
142.372 142.242 140.439 140.758 140.756 141.139 141.221 141.603 141.65 
141.912 141.783 141.899 141.624 139.649 140.01 139.93 140.356 140.354 
140.836 140.851 141.283 141.171 141.409 141.133 141.231 140.974 138.829 
139.165 139.054 139.457 139.398 139.869 139.829 140.328 140.244 140.655 
140.465 140.704 140.495 140.666 140.591 138.136 138.4 138.3 138.618 
138.569 138.947 138.918 139.33 139.285 139.7 139.623 139.978 139.884 
140.161 140.124 140.383 140.423 137.514 137.762 137.656 137.93 137.884 
138.205 138.208 138.543 138.551 138.881 138.89 139.217 139.23 139.542 
139.561 139.865 139.9 140.199 140.216 137.092 136.462 136.934 137.25 
135.943 136.343 136.72 137.154 137.514 135.614 135.945 136.339 136.712 
137.14 137.507 137.88 135.169 135.62 136.034 136.421 136.864 137.209 
137.616 137.92 138.256 134.602 135.087 135.546 136.042 136.485 136.92 
137.34 137.691 138.055 138.315 138.619 134.467 134.685 135.141 135.517 
135.952 136.425 136.868 137.349 137.774 138.129 138.465 138.693 138.976 
134.749 134.802 135.196 135.317 135.698 135.956 136.388 136.827 137.313 
137.78 138.183 138.513 138.803 139.038 139.31 134.876 135.033 135.374 
135.485 135.817 135.91 136.276 136.496 136.951 137.329 137.766 138.154 
138.476 138.796 139.071 139.35 139.636 134.772 134.99 135.32 135.546 
135.887 136.047 136.377 136.513 136.879 137.097 137.489 137.78 138.12 
138.428 138.721 139.044 139.343 139.655 139.937 136.858 136.235 136.429 
136.191 135.684 135.819 135.626 135.804 135.674 135.401 135.398 135.284 
135.379 135.306 135.424 135.361 135.343 135.233 135.138 135.193 135.163 
135.182 135 135.061 134.862 135.376 135.187 135.002 135.062 135.032 
135.078 134.808 134.711 134.298 134.389 134.21 135.527 135.231 134.911 
134.87 134.785 134.887 134.692 134.567 134.137 133.965 133.746 133.9 
134.075 135.767 135.426 135.006 134.787 134.572 134.611 134.532 134.51 
134.296 134.047 133.875 133.746 133.905 134.079 134.419 135.936 135.655 
135.217 134.909 134.569 134.451 134.35 134.392 134.363 134.288 134.2 
134.036 134.048 134.045 134.206 134.406 134.579 136.008 135.792 135.423 
135.128 134.785 134.535 134.361 134.295 134.283 134.309 134.279 134.245 
134.151 134.118 134.07 134.161 134.194 134.413 134.491 141.542 141.037 
141.237 141.116 140.462 140.686 140.547 140.777 140.626 139.85 140.079 
139.909 140.153 139.985 140.229 140.026 139.209 139.443 139.246 139.483 
139.276 139.535 139.332 139.58 139.372 138.52 138.756 138.534 138.79 
138.564 138.813 138.578 138.838 138.621 138.906 138.747 137.851 138.042 
137.793 138.049 137.861 138.12 137.905 138.115 137.858 138.104 137.907 
138.264 138.178 137.303 137.43 137.188 137.36 137.196 137.441 137.283 
137.489 137.222 137.382 137.111 137.389 137.276 137.709 137.725 136.83 
136.956 136.751 136.856 136.65 136.817 136.615 136.836 136.56 136.74 
136.41 136.621 136.434 136.811 136.835 137.317 137.413 136.342 136.498 
136.306 136.433 136.174 136.284 135.978 136.141 135.834 136.031 135.728 
135.926 135.709 136.006 135.985 136.436 136.552 137.047 137.158 141.716 
141.817 141.591 141.217 141.884 141.672 141.288 141.059 140.654 141.965 
141.736 141.353 141.116 140.691 140.458 140.037 142.095 141.847 141.464 
141.198 140.752 140.481 140.026 139.814 139.393 142.153 141.951 141.564 
141.324 140.875 140.569 140.078 139.807 139.373 139.172 138.751 142.103 
141.924 141.511 141.353 140.924 140.685 140.186 139.885 139.413 139.173 
138.764 138.544 138.121 142.111 141.867 141.419 141.243 140.835 140.675 
140.221 139.971 139.469 139.213 138.768 138.559 138.143 137.926 137.529 
142.194 141.924 141.467 141.207 140.799 140.603 140.208 139.986 139.523 
139.258 138.793 138.561 138.136 137.927 137.516 137.336 136.984 142.21 
142.001 141.57 141.307 140.894 140.647 140.261 140.018 139.596 139.324 
138.884 138.619 138.208 137.957 137.554 137.321 136.941 136.785 136.476 
142.034 141.576 141.689 141.434 141.156 141.235 140.99 141.075 140.798 
140.751 140.81 140.507 140.607 140.314 140.42 140.13 140.213 140.318 
139.907 140.036 139.651 139.827 139.498 139.694 139.404 139.508 139.661 
139.211 139.351 138.902 139.072 138.711 138.96 138.699 138.946 138.698 
138.8 138.934 138.561 138.685 138.318 138.396 138.061 138.207 137.991 
138.235 138.059 138.274 138.049 138.221 138.293 137.982 138.117 137.878 
137.955 137.688 137.716 137.48 137.611 137.443 137.647 137.438 137.624 
137.379 137.816 137.801 137.464 137.573 137.343 137.513 137.278 137.374 
137.088 137.166 136.923 137.069 136.848 137.011 136.761 136.943 136.738 
137.591 137.493 137.123 137.109 136.807 136.932 136.668 136.844 136.553 
136.701 136.427 136.572 136.35 136.479 136.253 136.372 136.172 136.357 
136.251 137.395 136.954 137.081 136.907 136.447 136.625 136.429 136.584 
136.497 135.802 136.073 135.915 136.092 135.943 136.193 136.239 135.143 
135.409 135.348 135.583 135.469 135.652 135.623 135.959 136.098 134.753 
134.847 134.823 135.058 135.058 135.235 135.215 135.42 135.526 135.867 
136.049 134.63 134.573 134.439 134.594 134.604 134.833 134.856 135.061 
135.141 135.4 135.566 135.874 136.03 134.509 134.432 134.175 134.239 
134.168 134.376 134.401 134.652 134.708 134.991 135.098 135.414 135.528 
135.836 135.93 134.371 134.277 134.04 134.016 133.952 134.04 134.099 
134.252 134.315 134.521 134.579 134.873 134.959 135.298 135.399 135.723 
135.846 134.412 134.245 134.105 133.994 133.992 133.974 134.085 134.122 
134.222 134.261 134.292 134.404 134.461 134.722 134.873 135.21 135.418 
135.729 135.949 137.628 137.79 137.528 137.168 137.93 137.632 137.217 
137.015 136.622 138.189 137.769 137.281 137.026 136.608 136.406 135.958 
138.618 138.092 137.571 137.179 136.792 136.475 136.056 135.741 135.319 
139.087 138.569 138.056 137.584 137.228 136.828 136.491 136.035 135.655 
135.252 134.982 139.451 139.034 138.553 138.093 137.699 137.307 136.974 
136.558 136.204 135.757 135.487 135.114 134.942 139.7 139.382 138.978 
138.565 138.148 137.744 137.36 136.982 136.615 136.253 135.967 135.648 
135.438 135.105 134.87 139.946 139.661 139.34 138.975 138.6 138.187 
137.817 137.394 137.045 136.643 136.359 136.044 135.831 135.544 135.295 
134.954 134.687 140.253 139.962 139.68 139.344 139.006 138.628 138.299 
137.901 137.608 137.174 136.906 136.492 136.272 135.926 135.712 135.369 
135.138 134.797 134.648 137.972 138.637 138.259 138.176 139.433 138.986 
138.936 138.505 138.416 140.383 139.859 139.829 139.354 139.347 138.841 
138.774 141.459 140.892 140.842 140.304 140.299 139.818 139.818 139.281 
139.222 142.528 141.997 141.95 141.362 141.28 140.755 140.73 140.274 
140.239 139.725 139.638 143.504 143.036 143.031 142.476 142.386 141.779 
141.687 141.163 141.11 140.642 140.538 140.048 139.914 144.378 143.975 
144.003 143.526 143.492 142.907 142.814 142.202 142.108 141.541 141.404 
140.87 140.678 140.212 140.066 145.126 144.805 144.871 144.473 144.48 
143.975 143.894 143.317 143.193 142.596 142.421 141.796 141.553 140.97 
140.768 140.331 140.25 145.77 145.51 145.61 145.293 145.322 144.907 
144.824 144.314 144.158 143.613 143.424 142.829 142.579 141.928 141.682 
141.105 140.981 140.563 140.549 146.173 146.673 146.292 145.989 146.896 
146.654 146.319 146.034 145.684 146.888 146.734 146.428 146.254 145.926 
145.64 145.195 146.967 146.761 146.524 146.345 146.079 145.833 145.407 
145.054 144.526 147.151 146.934 146.693 146.49 146.211 145.979 145.552 
145.226 144.672 144.325 143.768 147.132 147.026 146.683 146.567 146.173 
146.02 145.522 145.286 144.703 144.416 143.823 143.522 142.928 146.846 
146.821 146.403 146.372 145.913 145.83 145.291 145.136 144.566 144.369 
143.814 143.556 142.977 142.651 142.056 146.48 146.458 146.056 146.027 
145.617 145.534 145.056 144.896 144.394 144.219 143.753 143.545 143.056 
142.746 142.204 141.84 141.342 146.159 146.126 145.779 145.732 145.385 
145.299 144.897 144.737 144.298 144.114 143.701 143.515 143.091 142.839 
142.358 142.032 141.561 141.235 140.86 145.888 145.372 145.603 145.526 
144.738 145.04 144.965 145.22 145.125 144.011 144.344 144.262 144.581 
144.472 144.761 144.619 143.303 143.606 143.503 143.825 143.707 144.035 
143.91 144.204 144.043 142.536 142.844 142.675 143.029 142.903 143.259 
143.153 143.477 143.355 143.627 143.469 141.698 141.971 141.696 142.092 
141.948 142.405 142.308 142.701 142.558 142.889 142.709 143.017 142.825 
141.034 141.16 140.831 141.095 140.928 141.385 141.326 141.792 141.642 
142.015 141.782 142.147 141.931 142.302 142.086 140.626 140.645 140.34 
140.4 140.219 140.483 140.463 140.849 140.776 141.102 140.89 141.197 
140.992 141.361 141.203 141.557 141.358 140.281 140.318 140.05 140.052 
139.861 139.968 139.943 140.175 140.172 140.387 140.248 140.425 140.242 
140.502 140.391 140.723 140.619 140.9 140.729 140.35 140.22 140.122 
139.743 139.989 139.922 139.534 139.452 139.052 139.861 139.72 139.344 
139.225 138.845 138.753 138.378 139.919 139.715 139.355 139.126 138.744 
138.582 138.236 138.125 137.752 139.93 139.816 139.497 139.241 138.814 
138.547 138.139 137.991 137.624 137.497 137.085 139.761 139.751 139.489 
139.349 138.92 138.641 138.139 137.903 137.477 137.346 136.952 136.817 
136.418 139.646 139.57 139.314 139.243 138.867 138.684 138.197 137.93 
137.469 137.251 136.872 136.702 136.326 136.176 135.817 139.761 139.548 
139.243 139.085 138.733 138.587 138.185 137.978 137.564 137.322 136.965 
136.732 136.395 136.158 135.798 135.607 135.271 139.967 139.716 139.374 
139.114 138.76 138.538 138.19 137.984 137.622 137.41 137.06 136.857 
136.54 136.311 135.988 135.712 135.385 135.135 134.853 147.451 147.41 
147.432 147.436 147.593 147.528 147.627 147.513 147.552 147.997 147.926 
148.141 147.907 147.949 147.709 147.715 148.18 148.309 148.563 148.465 
148.426 148.144 147.978 147.789 147.707 147.99 148.258 148.419 148.595 
148.482 148.41 148.099 147.949 147.749 147.696 147.614 147.749 147.967 
148.062 148.245 148.134 148.195 147.936 147.912 147.767 147.754 147.761 
147.675 147.579 147.499 147.728 147.849 147.963 147.914 147.902 147.745 
147.719 147.668 147.741 147.845 147.878 147.871 147.659 147.382 147.047 
147.375 147.488 147.733 147.735 147.802 147.68 147.635 147.517 147.576 
147.586 147.781 147.772 147.829 147.575 147.34 146.908 146.462 146.799 
146.85 147.212 147.23 147.508 147.436 147.541 147.362 147.384 147.206 
147.349 147.237 147.465 147.277 147.331 146.968 146.78 146.366 147.446 
147.392 147.383 147.232 147.409 147.326 147.128 147.043 146.718 147.551 
147.401 147.144 146.954 146.593 146.442 146.089 147.639 147.557 147.329 
147.065 146.657 146.375 146.007 145.872 145.604 147.541 147.554 147.383 
147.239 146.827 146.508 146.046 145.827 145.515 145.428 145.13 147.308 
147.33 147.083 147.122 146.742 146.591 146.066 145.84 145.388 145.282 
144.919 144.855 144.463 146.958 146.965 146.572 146.669 146.306 146.34 
145.882 145.759 145.256 145.111 144.668 144.583 144.184 144.129 143.77 
146.509 146.518 146.095 146.143 145.807 145.873 145.528 145.503 145.089 
144.966 144.531 144.379 143.968 143.858 143.508 143.476 143.193 146.058 
146.073 145.724 145.737 145.454 145.475 145.186 145.172 144.825 144.767 
144.384 144.272 143.865 143.713 143.322 143.227 142.91 142.909 142.642 
147.43 147.168 147.303 147.174 146.63 146.89 146.755 146.905 146.691 
146.008 146.272 146.166 146.388 146.195 146.348 146.103 145.505 145.691 
145.579 145.789 145.626 145.81 145.572 145.713 145.416 144.983 145.182 
144.997 145.208 145.036 145.244 145.023 145.167 144.865 144.973 144.645 
144.319 144.564 144.332 144.567 144.368 144.628 144.438 144.626 144.348 
144.443 144.124 144.217 143.924 143.681 143.895 143.7 143.892 143.699 
143.941 143.777 144.016 143.778 143.923 143.611 143.717 143.427 143.541 
143.273 143.138 143.331 143.166 143.321 143.126 143.312 143.139 143.363 
143.15 143.327 143.034 143.174 142.886 143.033 142.779 142.905 142.644 
142.587 142.8 142.615 142.79 142.555 142.737 142.529 142.745 142.548 
142.729 142.477 142.605 142.34 142.481 142.254 142.403 142.179 142.293 
142.056 137.961 138.213 138.259 138.649 138.625 138.602 139.03 139.031 
139.467 139.225 139.121 139.58 139.513 139.98 139.933 140.424 139.957 
139.808 140.266 140.143 140.598 140.503 140.975 140.943 141.469 140.636 
140.534 140.958 140.84 141.239 141.121 141.533 141.482 141.969 141.989 
142.509 141.106 141.096 141.493 141.456 141.825 141.726 142.093 142.017 
142.482 142.485 143.018 143.023 143.508 141.458 141.467 141.868 141.903 
142.322 142.28 142.667 142.578 143.036 143.015 143.565 143.564 144.062 
144.001 144.399 141.856 141.819 142.212 142.253 142.72 142.755 143.199 
143.153 143.589 143.56 144.06 144.085 144.549 144.527 144.87 144.803 
145.103 142.301 142.237 142.579 142.591 143.017 143.106 143.563 143.621 
144.036 144.05 144.456 144.494 144.876 144.906 145.194 145.181 145.427 
145.416 145.699 
POINT_DATA 1002
SCALARS Distance double
LOOKUP_TABLE default
145.683 146.171 146.182 145.688 146.176 145.12 145.694 146.186 145.03 
144.408 145.62 146.081 144.928 144.197 143.687 145.301 145.712 144.754 
143.998 143.465 143.029 144.856 145.282 144.463 143.832 143.247 142.857 
142.27 144.615 145.039 144.217 143.679 143.02 142.556 142.14 141.493 
144.518 144.89 144.065 143.534 142.816 142.136 141.744 141.425 140.956 
144.334 144.688 143.837 143.318 142.701 141.922 141.31 141.061 140.909 
140.597 144.06 144.418 143.535 143.018 142.588 142.018 141.296 140.79 
140.614 140.493 140.215 146.723 146.641 147.238 147.05 147.556 146.583 
147.404 147.767 147.095 146.69 147.64 147.992 147.64 147.462 146.715 
147.586 147.979 147.725 148.011 147.529 146.344 147.333 147.635 147.349 
147.746 147.756 146.892 145.78 147.238 147.377 147.182 147.31 147.353 
146.874 146.034 145.347 147.375 147.412 147.358 147.326 147.148 146.703 
146.059 145.474 145.067 147.489 147.498 147.475 147.412 147.157 146.694 
146.163 145.653 145.209 144.827 147.396 147.354 147.012 146.916 146.473 
147.258 146.31 145.854 146.643 146.987 145.589 145.093 145.842 146.115 
146.52 144.803 144.317 145.112 145.291 145.712 146.119 144.066 143.646 
144.485 144.795 145.191 145.67 145.809 143.343 143.008 143.776 144.254 
144.727 145.2 145.449 145.364 142.635 142.383 142.974 143.437 143.924 
144.344 144.661 144.811 144.831 142.028 141.83 142.268 142.606 143.007 
143.34 143.593 143.866 144.147 144.342 143.853 143.674 143.107 143.312 
142.857 142.258 142.951 142.526 142.029 141.461 142.73 142.302 141.881 
141.319 140.809 142.493 142.058 141.685 141.214 140.666 140.129 142.149 
141.642 141.175 140.802 140.399 139.867 139.295 141.842 141.302 140.66 
140.171 139.866 139.484 138.978 138.514 141.624 141.146 140.496 139.838 
139.384 139.01 138.592 138.206 137.886 141.432 141.004 140.462 139.808 
139.187 138.643 138.156 137.788 137.522 137.264 143.365 142.57 142.79 
141.789 142.127 142.407 141.087 141.527 141.948 142.122 140.379 140.803 
141.335 141.669 141.56 139.525 139.887 140.373 140.845 141.001 140.839 
138.678 138.961 139.348 139.768 140.119 140.276 140.372 138.008 138.215 
138.533 138.875 139.213 139.54 139.838 140.163 137.391 137.569 137.869 
138.223 138.557 138.901 139.25 139.596 139.943 136.621 136.791 135.974 
136.266 135.588 137.104 135.983 135.271 136.768 137.549 135.608 134.63 
136.514 137.31 137.991 135.027 134.152 136.007 136.938 137.775 138.4 
134.877 134.373 135.52 136.333 137.336 138.214 138.78 135.157 134.72 
135.557 136.019 136.815 137.791 138.545 139.086 135.224 134.685 135.742 
136.155 136.655 137.383 138.127 138.758 139.37 135.063 134.57 135.674 
136.247 136.731 137.253 137.833 138.4 139.006 139.655 136.69 135.978 
136.038 135.441 135.575 135.461 135.179 135.452 135.235 135.224 135.07 
135.508 135.167 135.09 134.69 134.986 135.635 134.954 134.98 134.356 
133.85 135.075 135.873 134.674 134.73 134.367 133.69 133.701 135.332 
136.098 134.614 134.431 134.436 134.085 133.851 134.165 135.539 136.172 
134.784 134.311 134.312 134.344 134.174 134.122 134.335 135.667 136.185 
135.063 134.512 134.264 134.274 134.22 134.061 134.029 134.22 141.365 
140.915 140.832 140.313 140.243 140.414 139.683 139.625 139.732 139.812 
139.022 138.982 139.035 139.062 139.124 138.267 138.313 138.315 138.342 
138.332 138.411 137.547 137.694 137.566 137.704 137.672 137.572 137.737 
137.049 137.168 136.968 137.055 137.094 136.904 136.859 137.234 136.652 
136.672 136.553 136.43 136.363 136.226 136.102 136.342 136.929 141.955 
141.455 142.041 141.52 142.091 140.889 141.599 142.205 140.94 140.243 
141.739 142.341 141.056 140.261 139.576 141.774 142.344 141.18 140.39 
139.585 138.962 141.654 142.313 141.106 140.489 139.68 138.975 138.358 
141.634 142.387 140.969 140.431 139.744 138.985 138.347 137.727 141.751 
142.445 141.018 140.41 139.783 139.044 138.352 137.711 137.113 141.806 