# vtk DataFile Version 4.0
vtk output
ASCII
DATASET POLYDATA
POINTS 1002 float
-77.6512 -103.093 52.6926 -77.8653 -102.93 53.4166 -78.1301 -103.245 52.9869 
-77.9247 -103.413 52.1706 -78.4993 -103.489 52.4437 -77.2721 -103.478 51.8936 
-78.3713 -103.517 51.5365 -79.0894 -103.59 51.8162 -77.6584 -103.538 51.2839 
-76.9111 -103.669 50.9672 -79.0104 -103.543 50.8422 -79.8499 -103.591 51.1603 
-78.2217 -103.419 50.5473 -77.4744 -103.45 50.2429 -76.7998 -103.417 49.9483 
-79.6978 -103.567 50.1828 -80.4789 -103.464 50.5677 -78.8735 -103.479 49.7863 
-78.0763 -103.329 49.4542 -77.4092 -103.16 49.2474 -76.8084 -102.92 49.0228 
-80.2057 -103.343 49.7281 -80.8766 -103.187 50.1258 -79.496 -103.481 49.2401 
-78.6577 -103.379 48.8136 -77.8369 -103.047 48.6806 -77.2013 -102.637 48.5991 
-76.5583 -102.504 48.176 -80.6068 -102.904 49.4521 -81.3118 -102.898 49.7427 
-79.9676 -103.043 49.0452 -79.2535 -103.079 48.5498 -78.299 -102.796 48.3192 
-77.4156 -102.344 48.2892 -76.7433 -102.119 47.9328 -76.1118 -102.353 47.1973 
-81.1166 -102.556 49.0862 -81.8425 -102.664 49.2872 -80.3913 -102.514 48.859 
-79.7702 -102.513 48.4573 -78.9582 -102.343 48.0799 -77.9422 -102.06 47.8594 
-77.0697 -101.884 47.5029 -76.4076 -101.992 46.8624 -75.8758 -102.323 46.2135 
-81.627 -102.295 48.6119 -82.23 -102.369 48.8452 -80.893 -102.203 48.4202 
-80.2337 -102.169 48.1047 -79.5861 -102.091 47.6959 -78.7499 -102.003 47.2858 
-77.8461 -101.985 46.8063 -77.0659 -101.977 46.277 -76.425 -102.011 45.8344 
-75.919 -102.088 45.5415 -81.9281 -101.954 48.2556 -82.3711 -101.942 48.5679 
-81.3423 -101.94 47.9659 -80.7008 -101.965 47.5968 -80.0799 -101.993 47.1679 
-79.4061 -102.038 46.7312 -78.6654 -102.147 46.2035 -77.9425 -102.152 45.6814 
-77.2458 -101.955 45.3927 -76.5803 -101.734 45.2847 -76.0108 -101.591 45.1815 
-78.14 -103.191 53.9268 -78.4984 -103.374 53.511 -78.4706 -103.425 54.5346 
-78.9583 -103.466 54.1025 -78.9382 -103.526 55.156 -79.0126 -103.507 52.9491 
-79.5982 -103.538 54.6271 -79.5934 -103.582 55.7482 -79.6705 -103.48 53.4864 
-79.8105 -103.539 52.2786 -80.327 -103.546 55.112 -80.3135 -103.551 56.344 
-80.4049 -103.525 53.9401 -80.5909 -103.494 52.7695 -80.6529 -103.497 51.5885 
-80.8221 -103.303 55.6291 -80.8148 -103.371 56.8637 -80.9446 -103.438 54.3862 
-81.1999 -103.55 53.2323 -81.3224 -103.484 52.0792 -81.1728 -103.352 50.9915 
-81.0229 -102.981 56.0509 -81.1228 -103.174 57.2294 -81.1531 -103.033 54.8175 
-81.5315 -103.306 53.6836 -81.7464 -103.368 52.5783 -81.6837 -103.227 51.4964 
-81.523 -103.09 50.5155 -81.2889 -102.792 56.2964 -81.4828 -102.921 57.4725 
-81.3266 -102.683 55.0742 -81.7531 -102.8 54.0345 -82.0767 -102.866 53.0109 
-82.0482 -102.761 51.9743 -81.9964 -102.767 50.979 -81.993 -102.814 50.0393 
-81.6747 -102.537 56.3843 -81.8126 -102.49 57.546 -81.6939 -102.488 55.1702 
-82.0725 -102.492 54.2537 -82.4556 -102.451 53.3811 -82.4692 -102.253 52.3601 
-82.3805 -102.204 51.3732 -82.4476 -102.422 50.4249 -82.4519 -102.536 49.5285 
-81.8794 -102.113 56.2965 -81.8988 -101.982 57.3781 -82.0333 -102.175 55.1886 
-82.452 -102.242 54.4316 -82.8821 -102.286 53.7786 -82.9984 -102.166 52.805 
-82.9047 -101.994 51.6998 -82.8859 -102.035 50.7397 -82.8784 -102.183 49.8715 
-82.6967 -102.155 49.118 -81.7902 -101.598 56.3792 -82.0314 -101.691 55.3395 
-81.8655 -101.178 55.4025 -82.4645 -101.214 54.7216 -82.3388 -100.687 54.7963 
-82.5988 -101.767 54.6384 -83.0194 -100.747 54.2391 -82.757 -100.273 54.1713 
-83.2883 -101.262 54.3562 -83.2288 -101.91 54.2033 -83.2219 -100.441 53.3242 
-82.7401 -100.047 53.1687 -83.7423 -100.789 53.7076 -83.8932 -101.46 53.8259 
-83.549 -102.067 53.3944 -83.1955 -100.139 52.3462 -82.7224 -99.7242 52.2902 
-83.7449 -100.422 52.6857 -84.1397 -100.962 52.9508 -84.0783 -101.771 52.6743 
-83.5561 -102.088 52.1032 -83.3114 -99.5623 51.7853 -82.8836 -99.1553 51.7645 
-83.6642 -99.9216 51.9527 -83.9477 -100.405 52.0367 -84.1797 -101.239 51.7347 
-84.0631 -101.912 51.2214 -83.5012 -102.006 50.8886 -83.2889 -98.945 51.2041 
-82.8407 -98.6313 51.2195 -83.6786 -99.2504 51.2918 -83.8235 -99.7109 51.2355 
-83.9537 -100.469 50.8473 -84.1273 -101.292 50.3556 -83.9253 -101.739 50.0797 
-83.375 -101.917 49.9797 -82.9945 -98.5562 50.4617 -82.6004 -98.2742 50.6149 
-83.552 -98.7083 50.4049 -83.9317 -98.9918 50.2762 -83.9798 -99.6245 49.9393 
-83.9703 -100.41 49.5895 -83.8826 -101.004 49.4431 -83.5085 -101.39 49.3934 
-83.0487 -101.766 49.2752 -82.7624 -98.2301 49.9132 -82.4299 -97.9201 50.1424 
-83.3375 -98.3242 49.7109 -83.9587 -98.401 49.4672 -84.2022 -98.8349 49.1481 
-84.0206 -99.5641 48.9384 -83.704 -100.186 48.9682 -83.3284 -100.62 49.0388 
-82.9225 -101.058 48.9422 -82.6145 -101.54 48.7311 -82.143 -101.452 48.2144 
-82.341 -100.952 48.4317 -81.9061 -100.947 47.8449 -82.6348 -100.418 48.6607 
-82.12 -100.398 48.0276 -81.679 -100.443 47.3339 -83.0627 -99.9785 48.7123 
-82.4357 -99.8828 48.1846 -81.967 -99.8975 47.3898 -81.4094 -99.8884 46.7614 
-83.5753 -99.5011 48.5476 -82.8489 -99.4595 48.1961 -82.3089 -99.4367 47.4595 
-81.7942 -99.3965 46.7177 -81.0989 -99.3085 46.2852 -84.0491 -98.7685 48.4733 
-83.318 -98.8653 48.0823 -82.6119 -98.983 47.4951 -82.1451 -98.971 46.7407 
-81.5191 -98.8653 46.1869 -80.7203 -98.731 45.8837 -84.1292 -98.0911 48.7297 
-83.6585 -98.0357 48.1531 -82.8609 -98.2529 47.5201 -82.3404 -98.3952 46.7976 
-81.823 -98.3471 46.1514 -81.0586 -98.2473 45.7383 -80.251 -98.1334 45.5259 
-83.6695 -97.8783 49.1248 -83.6003 -97.4834 48.5269 -82.9821 -97.4522 47.731 
-82.4278 -97.5917 46.8984 -81.9859 -97.5947 46.2049 -81.2852 -97.5672 45.6725 
-80.4989 -97.5817 45.3806 -79.8446 -97.551 45.2067 -83.0382 -97.871 49.4348 
-83.1947 -97.3634 48.9439 -82.8469 -97.0431 48.1398 -82.3535 -96.9687 47.1419 
-82.031 -96.8678 46.333 -81.4785 -96.7822 45.7499 -80.6909 -96.865 45.3451 
-80.0572 -96.9809 45.0856 -79.6282 -97.0175 44.8019 -82.5561 -97.6733 49.6595 
-82.6998 -97.2638 49.2196 -82.5004 -96.8985 48.5538 -82.0602 -96.6971 47.563 
-81.8216 -96.4758 46.5821 -81.5576 -96.2362 45.8941 -80.9096 -96.2124 45.45 
-80.2107 -96.3442 45.0963 -79.7815 -96.438 44.7053 -79.5243 -96.4969 44.253 
-81.7281 -101.529 47.8085 -81.4879 -101.069 47.323 -81.1898 -101.613 47.3381 
-81.1519 -100.502 46.8257 -80.924 -101.143 46.7813 -80.5562 -101.699 46.8226 
-80.7382 -99.8444 46.3977 -80.495 -100.478 46.4242 -80.226 -101.177 46.3392 
-79.8596 -101.788 46.3826 -80.3199 -99.1992 45.9935 -80.0165 -99.7911 46.0922 
-79.7486 -100.45 46.1107 -79.4499 -101.227 45.9754 -79.1447 -101.925 45.9108 
-79.8688 -98.5612 45.584 -79.5636 -99.1625 45.5953 -79.3264 -99.8232 45.6586 
-79.0306 -100.454 45.6515 -78.7834 -101.255 45.4497 -78.5078 -101.968 45.3574 
-79.4679 -97.9266 45.2161 -79.1594 -98.4835 45.0902 -79.0287 -99.2721 44.9565 
-78.8421 -99.9287 44.9483 -78.5431 -100.44 44.9621 -78.2853 -101.124 44.9445 
-77.8904 -101.732 45.0502 -79.2859 -97.3676 44.7807 -78.9414 -97.7995 44.6442 
-78.8238 -98.5576 44.3923 -78.7863 -99.4728 44.1764 -78.5168 -100.06 44.1666 
-78.1131 -100.418 44.4166 -77.6987 -100.888 44.7567 -77.174 -101.371 45.0294 
-79.2689 -96.8875 44.1841 -78.9207 -97.2549 44.1132 -78.7002 -97.7882 43.9823 
-78.6374 -98.6894 43.7738 -78.4352 -99.6394 43.5751 -77.9774 -100.177 43.6749 
-77.4406 -100.428 44.1578 -76.9207 -100.718 44.6704 -76.4292 -101.123 44.9768 
-79.3032 -96.2213 43.5472 -78.9994 -96.7144 43.4844 -78.9277 -96.015 42.9706 
-78.489 -96.5862 42.9779 -78.2406 -95.8612 42.7503 -78.628 -97.1109 43.5054 
-77.6466 -96.3909 42.7482 -77.2892 -95.6238 42.6653 -78.0202 -96.9351 43.1581 
-78.3625 -97.6698 43.559 -76.7546 -96.1069 42.6724 -76.3571 -95.3385 42.6429 
-77.1692 -96.7126 43.0767 -77.6175 -97.4786 43.4603 -78.1036 -98.6607 43.4782 
-76.0507 -95.9504 42.9436 -75.6524 -95.2746 43.0418 -76.4371 -96.5971 43.2127 
-76.7618 -97.3342 43.577 -77.1788 -98.5212 43.5011 -77.6565 -99.6843 43.3196 
-75.3988 -96.043 43.5329 -75.1363 -95.4901 43.7215 -75.6882 -96.6572 43.5011 
-75.9582 -97.3574 43.6562 -76.2602 -98.3908 43.6077 -76.6433 -99.5792 43.3314 
-77.0632 -100.241 43.5088 -74.7783 -96.2246 44.0014 -74.6851 -95.7384 44.2415 
-74.7831 -96.749 43.6811 -74.8996 -97.4156 43.5026 -75.2809 -98.3195 43.5135 
-75.7091 -99.3752 43.4084 -76.0646 -100.15 43.4739 -76.4721 -100.454 44.0495 
-74.3124 -96.3484 44.3761 -74.2368 -95.8615 44.6464 -74.1245 -96.8104 43.8792 
-73.9206 -97.4094 43.3835 -74.201 -98.2324 43.3356 -74.8204 -99.1323 43.5179 
-75.2651 -99.8859 43.6046 -75.5836 -100.354 43.9379 -75.9992 -100.688 44.5408 
-73.9519 -96.4246 44.8727 -73.8211 -95.9219 45.101 -73.8201 -96.8878 44.3873 
-73.494 -97.4298 43.7523 -73.5095 -98.1572 43.5095 -74.083 -98.9175 43.7863 
-74.6816 -99.5461 44.0191 -75.0084 -100.07 44.1194 -75.3096 -100.573 44.4407 
-75.684 -101.101 44.8755 -79.5019 -95.8514 43.9883 -79.2468 -95.4174 43.2493 
-79.3443 -95.1628 43.9175 -79.0584 -94.5806 43.2085 -79.1478 -94.63 44.1672 
-78.8359 -95.0969 42.8269 -78.8427 -94.0604 43.5099 -79.0283 -94.3165 44.6925 
-78.6751 -94.2289 42.8917 -78.1034 -94.931 42.8183 -78.6487 -93.8923 44.1493 
-78.9801 -94.1097 45.3102 -78.4165 -93.8412 43.1996 -77.9265 -94.1963 42.9572 
-77.0584 -94.7727 42.8198 -78.4379 -93.7889 45.0137 -78.8575 -93.9529 45.9175 
-78.0104 -93.779 43.9615 -77.5487 -93.9603 43.3142 -76.8082 -94.2479 43.0766 
-76.0339 -94.6538 42.9072 -78.1609 -93.6897 45.8607 -78.5971 -93.9024 46.5511 
-77.5779 -93.6428 45.0644 -77.0187 -93.8069 44.2238 -76.4585 -94.0521 43.6719 
-75.8272 -94.3106 43.4304 -75.3573 -94.7836 43.4501 -77.8531 -93.731 46.5721 
-78.3505 -93.8983 47.274 -77.2467 -93.5447 45.9829 -76.6338 -93.4873 45.3184 
-76.1317 -93.722 44.6495 -75.7075 -94.1029 44.2599 -75.2723 -94.5132 44.1135 
-74.9165 -95.0803 44.124 -77.6177 -93.8101 47.311 -78.2224 -93.7982 48.0866 
-77.0111 -93.6532 46.655 -76.4489 -93.357 46.0881 -75.9469 -93.3363 45.5156 
-75.5779 -93.7731 45.1175 -75.2357 -94.2998 44.916 -74.796 -94.7508 44.7157 
-74.4289 -95.2805 44.598 -77.479 -93.7826 48.1603 -78.1271 -93.6428 48.8716 
-76.8556 -93.7721 47.4317 -76.3229 -93.5003 46.7775 -75.8129 -93.2699 46.1927 
[...]
CELL_DATA 2000
SCALARS Distance double
LOOKUP_TABLE default
138.663 138.86 138.636 138.397 139.009 138.791 138.503 138.333 138.06 
139.172 138.921 138.561 138.361 138.019 137.889 137.537 139.309 139.083 
138.705 138.434 138.039 137.824 137.452 137.295 136.893 139.269 139.144 
138.803 138.591 138.185 137.905 137.471 137.234 136.796 136.612 136.163 
139.128 139.024 138.686 138.591 138.206 138.013 137.508 137.247 136.694 
136.481 135.957 135.822 135.383 139.058 138.897 138.522 138.416 138.042 
137.928 137.449 137.223 136.64 136.373 135.819 135.616 135.172 135.074 
134.765 138.982 138.839 138.441 138.284 137.904 137.768 137.374 137.169 
136.713 136.41 135.962 135.638 135.27 135.006 134.726 134.582 134.364 
138.76 138.706 138.326 138.204 137.826 137.683 137.33 137.157 136.808 
136.568 136.235 135.932 135.633 135.294 135.014 134.708 134.444 134.244 
133.987 138.934 139.478 139.173 139.126 140.051 139.72 139.639 139.35 
139.302 140.66 140.3 140.212 139.882 139.83 139.539 139.497 141.28 
140.919 140.825 140.478 140.419 140.102 140.057 139.742 139.643 141.706 
141.428 141.265 141.024 140.951 140.694 140.627 140.307 140.166 139.816 
139.607 141.901 141.664 141.379 141.26 141.146 141.08 140.989 140.793 
140.594 140.286 140.04 139.71 139.477 142.037 141.776 141.414 141.254 
141.089 141.102 141.01 140.964 140.719 140.545 140.252 140.054 139.839 
139.591 139.403 142.07 141.877 141.51 141.308 141.122 141.063 141.009 
140.943 140.74 140.562 140.26 140.124 139.932 139.845 139.705 139.511 
139.309 141.839 141.796 141.453 141.36 141.186 141.149 141.153 141.071 
140.99 140.725 140.495 140.208 140.039 139.899 139.812 139.704 139.534 
139.332 139.06 141.467 140.811 141.154 141.182 140.383 140.633 140.817 
141.023 141.119 140.117 140.354 140.62 140.832 141.08 141.161 141.231 
139.686 140.043 140.3 140.639 140.928 141.157 141.278 141.272 141.112 
139.112 139.51 139.737 140.17 140.428 140.847 141.017 141.22 141.089 
140.988 140.636 138.569 138.937 139.129 139.53 139.704 140.169 140.332 
140.762 140.761 140.886 140.612 140.462 140.152 137.978 138.362 138.485 
138.884 138.953 139.372 139.425 139.92 139.963 140.375 140.246 140.357 
140.074 140.02 139.819 137.329 137.698 137.759 138.161 138.188 138.581 
138.566 138.991 138.989 139.466 139.413 139.781 139.568 139.75 139.489 
139.612 139.435 136.756 137.059 137.109 137.44 137.477 137.823 137.833 
138.184 138.179 138.56 138.524 138.9 138.758 139.058 138.822 139.07 
138.852 139.094 138.921 138.536 138.417 138.274 137.888 138.328 138.142 
137.717 137.606 137.225 138.263 138.069 137.615 137.449 137.043 136.931 
136.521 138.105 137.986 137.551 137.372 136.946 136.783 136.369 136.22 
135.779 137.817 137.778 137.37 137.262 136.822 136.685 136.259 136.107 
135.666 135.488 135.019 137.476 137.464 137.048 136.992 136.518 136.457 
136 135.939 135.475 135.354 134.849 134.691 134.187 137.15 137.139 
136.737 136.658 136.157 136.073 135.573 135.561 135.076 135.051 134.512 
134.43 133.894 133.808 133.337 136.831 136.835 136.487 136.401 135.92 
135.755 135.218 135.12 134.627 134.595 134.078 134.021 133.487 133.442 
132.988 132.97 132.594 136.489 136.513 136.188 136.157 135.713 135.562 
135.012 134.833 134.309 134.202 133.722 133.631 133.147 133.061 132.627 
132.6 132.242 132.256 131.939 138.447 137.836 138.133 138.066 137.183 
137.511 137.475 137.733 137.615 136.443 136.809 136.769 137.106 137.021 
137.272 137.13 135.642 136.005 135.93 136.327 136.256 136.613 136.519 
136.785 136.636 134.84 135.172 135.055 135.45 135.372 135.781 135.711 
136.093 136.02 136.297 136.136 134.01 134.335 134.18 134.567 134.487 
134.897 134.818 135.223 135.161 135.576 135.509 135.792 135.592 133.198 
133.491 133.311 133.675 133.613 134.038 134.013 134.382 134.305 134.677 
134.621 135.037 134.94 135.212 134.972 132.501 132.736 132.555 132.837 
132.773 133.185 133.254 133.657 133.664 133.943 133.864 134.169 134.095 
134.449 134.307 134.558 134.336 131.887 132.11 131.951 132.16 132.058 
132.389 132.451 132.904 133.005 133.363 133.326 133.548 133.431 133.673 
133.546 133.827 133.668 133.926 133.778 131.49 130.939 131.353 131.591 
130.364 130.804 131.07 131.444 131.702 129.67 130.177 130.441 130.894 
131.198 131.632 132.051 128.903 129.427 129.716 130.222 130.562 131.084 
131.56 132.093 132.595 128.391 128.771 129.159 129.58 129.984 130.459 
130.954 131.533 132.071 132.6 132.974 128.271 128.476 128.875 129.178 
129.587 129.971 130.424 130.932 131.44 132 132.407 132.851 133.085 
128.311 128.444 128.683 128.909 129.15 129.524 129.861 130.376 130.804 
131.359 131.747 132.234 132.498 132.906 133.125 128.319 128.439 128.556 
128.667 128.728 128.985 129.205 129.707 130.123 130.704 131.104 131.591 
131.87 132.291 132.531 132.957 133.219 128.305 128.421 128.566 128.581 
128.624 128.66 128.839 129.128 129.582 130.076 130.572 131.019 131.357 
131.721 131.995 132.384 132.695 133.104 133.404 131.263 130.628 130.835 
130.648 130.037 130.145 129.907 130.202 130.054 129.721 129.625 129.291 
129.465 129.315 129.609 129.411 129.685 129.441 129.036 128.983 128.77 
128.929 128.729 128.918 128.652 129.737 129.477 129.048 128.851 128.553 
128.525 128.288 128.333 128.064 128.193 128.064 129.775 129.536 129.106 
128.878 128.508 128.38 128.105 128.041 127.798 127.776 127.663 127.822 
127.943 129.854 129.598 129.176 128.923 128.507 128.32 128.005 127.918 
127.735 127.679 127.609 127.615 127.705 127.874 128.069 130 129.728 
129.329 129.033 128.608 128.335 127.972 127.829 127.667 127.66 127.656 
127.661 127.694 127.733 127.814 127.981 128.103 130.159 129.907 129.551 
129.245 128.851 128.509 128.126 127.862 127.648 127.596 127.598 127.665 
127.686 127.71 127.664 127.729 127.738 127.945 128.045 136.183 135.509 
135.857 135.837 134.715 135.088 135.036 135.437 135.344 133.977 134.283 
134.19 134.57 134.465 134.838 134.657 133.347 133.594 133.476 133.766 
133.628 133.947 133.775 134.112 133.943 132.736 132.966 132.814 133.078 
132.886 133.146 132.928 133.238 133.075 133.442 133.329 132.15 132.339 
132.129 132.375 132.147 132.395 132.138 132.412 132.232 132.585 132.486 
132.862 132.771 131.598 131.757 131.508 131.691 131.45 131.66 131.427 
131.657 131.482 131.783 131.692 132.042 131.969 132.322 132.264 131.039 
131.199 130.941 131.092 130.838 131.014 130.796 131 130.816 131.069 
130.923 131.246 131.132 131.506 131.441 131.845 131.851 130.506 130.645 
130.39 130.527 130.263 130.423 130.191 130.389 130.173 130.398 130.17 
130.443 130.239 130.606 130.501 130.962 130.982 131.465 131.54 136.275 
136.275 136.072 135.631 136.282 136.078 135.623 135.38 134.884 136.236 
136.058 135.62 135.389 134.893 134.632 134.156 136.184 135.994 135.547 
135.352 134.879 134.651 134.172 133.938 133.512 136.138 135.941 135.457 
135.253 134.779 134.599 134.162 133.962 133.537 133.321 132.927 136.054 
135.871 135.385 135.166 134.673 134.489 134.079 133.931 133.554 133.361 
132.964 132.747 132.367 136.018 135.803 135.347 135.111 134.637 134.417 
133.998 133.843 133.467 133.325 132.917 132.748 132.33 132.167 131.79 
136.068 135.828 135.395 135.129 134.689 134.433 134.022 133.806 133.402 
133.218 132.774 132.614 132.159 132.044 131.642 131.552 131.2 136.077 
135.885 135.462 135.212 134.778 134.522 134.121 133.877 133.481 133.223 
132.784 132.52 132.072 131.873 131.49 131.375 131.056 130.97 130.671 
135.901 135.38 135.543 135.296 134.791 134.969 134.727 134.891 134.623 
134.195 134.354 134.09 134.285 134.053 134.228 133.982 133.565 133.719 
133.391 133.602 133.361 133.617 133.411 133.602 133.345 132.911 133.044 
132.648 132.841 132.545 132.854 132.679 132.981 132.761 132.935 132.632 
132.363 132.429 132.042 132.128 131.8 132.024 131.866 132.212 132.094 
132.341 132.084 132.201 131.906 131.94 131.971 131.642 131.646 131.332 
131.399 131.206 131.449 131.382 131.681 131.541 131.696 131.427 131.519 
131.303 131.552 131.589 131.274 131.295 130.978 131.01 130.747 130.876 
130.726 130.99 130.88 131.132 130.931 131.071 130.838 130.978 130.845 
131.193 131.216 130.884 130.904 130.555 130.607 130.295 130.403 130.163 
130.356 130.186 130.446 130.281 130.515 130.317 130.501 130.335 130.539 
130.45 130.923 130.406 130.635 130.573 129.85 130.084 129.964 130.224 
130.186 129.211 129.483 129.346 129.593 129.516 129.848 129.905 128.532 
128.786 128.644 128.931 128.85 129.187 129.248 129.634 129.783 128.028 
128.127 127.916 128.178 128.109 128.493 128.582 129 129.172 129.57 
129.779 127.782 127.722 127.449 127.542 127.464 127.768 127.894 128.324 
128.535 128.965 129.185 129.602 129.844 127.684 127.558 127.33 127.28 
127.235 127.325 127.442 127.707 127.922 128.319 128.565 129 129.253 
129.68 129.92 127.732 127.551 127.41 127.316 127.355 127.324 127.423 
127.451 127.568 127.774 127.987 128.379 128.663 129.101 129.38 129.772 
130.003 127.947 127.718 127.609 127.483 127.546 127.513 127.606 127.547 
127.56 127.554 127.643 127.871 128.139 128.539 128.867 129.27 129.56 
129.901 130.144 130.997 130.918 130.811 130.509 130.869 130.713 130.392 
130.294 129.958 131.031 130.727 130.326 130.147 129.773 129.682 129.301 
131.393 131.001 130.552 130.182 129.718 129.488 129.106 129.01 128.666 
131.734 131.375 130.942 130.512 129.997 129.573 129.139 128.902 128.656 
128.515 128.282 132.044 131.684 131.256 130.874 130.378 129.932 129.447 
129.079 128.811 128.626 128.509 128.306 128.111 132.429 132.025 131.591 
131.182 130.735 130.313 129.86 129.441 129.092 128.831 128.687 128.551 
128.438 128.201 127.998 132.813 132.427 132.003 131.572 131.164 130.735 
130.37 129.917 129.561 129.155 128.917 128.711 128.629 128.493 128.397 
128.14 128.008 133.12 132.78 132.374 131.984 131.599 131.21 130.908 
130.496 130.197 129.715 129.415 129.023 128.884 128.697 128.689 128.526 
128.491 128.23 128.184 131.308 131.833 131.451 131.246 132.595 132.082 
131.887 131.433 131.261 133.58 132.986 132.825 132.239 132.087 131.563 
131.474 134.568 134.019 133.893 133.294 133.156 132.536 132.408 131.871 
131.82 135.417 134.961 134.868 134.349 134.232 133.638 133.474 132.864 
132.72 132.212 132.144 136.171 135.781 135.759 135.302 135.237 134.688 
134.555 133.936 133.764 133.158 133.031 132.525 132.475 136.882 136.537 
136.584 136.196 136.199 135.697 135.616 135.024 134.89 134.249 134.098 
133.487 133.393 132.887 132.861 137.567 137.247 137.304 136.985 137.01 
136.611 136.544 136.05 135.939 135.371 135.223 134.59 134.425 133.839 
133.74 133.267 133.223 138.228 137.929 137.971 137.666 137.669 137.332 
137.25 136.861 136.741 136.312 136.18 135.658 135.471 134.87 134.687 
134.144 134.039 133.591 133.521 138.608 139.125 138.7 138.361 139.581 
139.188 138.79 138.388 138.001 139.809 139.534 139.094 138.742 138.274 
137.935 137.521 139.75 139.608 139.176 138.937 138.449 138.138 137.673 
137.396 137.005 139.573 139.473 139.084 138.929 138.475 138.234 137.755 
137.506 137.098 136.874 136.478 139.401 139.311 138.958 138.83 138.415 
138.214 137.743 137.525 137.102 136.924 136.525 136.303 135.818 139.142 
139.107 138.756 138.696 138.316 138.162 137.71 137.491 137.056 136.884 
136.497 136.316 135.857 135.582 135.052 138.813 138.791 138.436 138.436 
138.103 138.043 137.639 137.46 137.008 136.822 136.422 136.269 135.858 
135.628 135.142 134.842 134.372 138.595 138.509 138.193 138.143 137.865 
137.825 137.503 137.377 136.95 136.759 136.319 136.168 135.766 135.608 
135.174 134.937 134.481 134.216 133.813 138.449 138.202 138.227 138.057 
137.918 137.996 137.81 137.846 137.704 137.414 137.624 137.455 137.562 
137.352 137.458 137.297 136.735 137.015 136.859 137.089 136.871 137.027 
136.776 136.94 136.718 136.002 136.293 136.124 136.41 136.222 136.453 
136.187 136.353 136.067 136.267 136.059 135.292 135.569 135.403 135.666 
135.468 135.738 135.488 135.706 135.397 135.591 135.342 135.609 135.468 
134.72 134.938 134.818 135.005 134.777 134.977 134.709 134.95 134.665 
134.894 134.628 134.882 134.704 135.023 134.886 134.278 134.452 134.347 
134.496 134.263 134.357 134.052 134.204 133.952 134.172 133.954 134.181 
133.982 134.251 134.088 134.404 134.235 133.816 133.987 133.82 134.007 
133.759 133.867 133.536 133.627 133.362 133.535 133.362 133.56 133.37 
133.564 133.36 133.614 133.442 133.747 133.59 133.152 132.975 132.842 
132.405 132.913 132.7 132.251 132.089 131.673 132.973 132.72 132.27 
132.014 131.602 131.423 131.047 132.984 132.786 132.335 132.073 131.607 
131.391 130.982 130.816 130.378 132.958 132.754 132.3 132.081 131.577 
131.365 130.894 130.725 130.264 130.082 129.602 133.084 132.771 132.294 
132.028 131.554 131.322 130.873 130.656 130.223 129.998 129.58 129.365 
129.039 133.287 132.943 132.423 132.087 131.631 131.364 130.973 130.714 
130.304 130.029 129.636 129.411 129.132 128.975 128.812 133.387 133.102 
132.578 132.243 131.779 131.502 131.128 130.866 130.428 130.125 129.64 
129.425 129.095 129.027 128.859 128.801 128.643 133.449 133.187 132.733 
132.409 131.982 131.687 131.335 131.054 130.628 130.264 129.715 129.393 
128.972 128.888 128.72 128.759 128.648 128.591 128.393 142.076 142.322 
142.286 142.188 142.331 142.423 142.347 142.148 141.761 142.198 142.367 
142.38 142.268 141.97 141.662 141.355 141.902 142.156 142.215 142.269 
142.117 141.93 141.74 141.473 141.368 141.35 141.693 141.704 141.971 
141.92 142.012 141.921 141.835 141.697 141.497 141.225 140.696 141.025 
140.99 141.326 141.314 141.64 141.652 141.84 141.719 141.661 141.296 
141.06 140.527 140.105 140.39 140.373 140.644 140.63 140.964 141.014 
141.376 141.351 141.506 141.211 141.06 140.561 140.264 139.769 139.515 
139.811 139.812 140.089 140.066 140.336 140.324 140.669 140.664 140.984 
140.829 140.903 140.536 140.346 139.91 139.63 139.263 138.917 139.192 
139.174 139.498 139.488 139.779 139.726 140.002 139.938 140.255 140.166 
140.42 140.205 140.247 139.898 139.75 139.37 139.162 138.825 141.871 
141.955 141.847 141.528 141.487 141.642 141.406 141.4 141.074 141.055 
141.089 140.866 141.028 140.811 140.863 140.521 141.079 140.883 140.577 
140.525 140.297 140.42 140.187 140.236 139.871 140.937 140.92 140.555 
140.407 140.045 139.987 139.722 139.798 139.528 139.552 139.188 140.213 
140.459 140.102 140.216 139.817 139.794 139.429 139.414 139.107 139.144 
138.82 138.84 138.471 139.456 139.637 139.325 139.545 139.239 139.398 
139.079 139.133 138.788 138.776 138.399 138.406 138.036 138.081 137.728 
138.994 139.048 138.786 138.882 138.652 138.789 138.561 138.693 138.411 
138.452 138.065 138.024 137.611 137.616 137.28 137.347 137.055 138.601 
138.669 138.431 138.494 138.277 138.34 138.105 138.189 137.916 138.006 
137.66 137.678 137.266 137.24 136.879 136.913 136.647 136.722 136.478 
141.504 141.216 141.169 140.788 140.843 140.857 140.501 140.48 140.252 
140.347 140.457 140.15 140.179 139.945 140.039 139.932 139.722 139.912 
139.644 139.771 139.547 139.692 139.531 139.678 139.505 139.062 139.276 
139.032 139.209 139.004 139.215 139.043 139.215 138.986 139.13 138.913 
138.386 138.629 138.404 138.592 138.384 138.618 138.457 138.671 138.449 
138.592 138.354 138.53 138.361 137.683 137.952 137.749 137.958 137.738 
137.976 137.807 138.053 137.857 138.038 137.808 137.979 137.79 137.996 
137.82 137.024 137.27 137.086 137.296 137.081 137.314 137.141 137.396 
137.218 137.432 137.222 137.416 137.225 137.428 137.245 137.431 137.22 
136.442 136.655 136.474 136.659 136.443 136.655 136.482 136.734 136.573 
136.801 136.609 136.816 136.633 136.848 136.675 136.869 136.672 136.838 
136.644 131.444 131.821 131.736 131.983 132.238 132.157 132.457 132.369 
132.731 132.714 132.621 132.978 132.896 133.318 133.241 133.699 133.285 
133.154 133.515 133.433 133.87 133.837 134.314 134.252 134.683 133.904 
133.756 134.057 133.946 134.303 134.309 134.766 134.805 135.235 135.174 
135.515 134.498 134.362 134.638 134.481 134.75 134.683 135.077 135.154 
135.624 135.666 136.036 135.946 136.237 135.072 134.939 135.244 135.08 
135.367 135.194 135.546 135.496 135.985 136.036 136.51 136.468 136.797 
136.656 136.935 135.633 135.503 135.807 135.681 136.013 135.864 136.232 
136.087 136.531 136.479 136.973 136.952 137.348 137.234 137.51 137.351 
137.618 136.138 136.033 136.297 136.201 136.517 136.456 136.843 136.769 
137.174 137.081 137.476 137.42 137.775 137.724 137.991 137.891 138.114 
138 138.248 
POINT_DATA 1002
SCALARS Distance double
LOOKUP_TABLE default
138.408 138.682 138.899 138.601 139.081 138.183 138.693 139.254 138.217 
137.783 138.818 139.445 138.175 137.668 137.161 138.988 139.496 138.313 
137.632 137.057 136.461 138.95 139.362 138.474 137.771 137.012 136.319 
135.709 138.759 139.265 138.35 137.794 136.96 136.112 135.439 135.004 
138.669 139.241 138.138 137.639 136.915 136.048 135.297 134.782 134.51 
138.609 139.097 138.047 137.529 136.956 136.268 135.573 134.942 134.455 
134.129 138.412 138.772 137.958 137.475 136.987 136.482 135.958 135.371 
134.729 134.149 133.685 139.223 139.399 139.814 139.95 140.39 139.572 
140.564 141.029 140.126 139.795 141.168 141.646 140.746 140.389 139.99 
141.472 142.004 141.16 140.95 140.544 139.965 141.519 142.182 141.15 
141.132 140.888 140.351 139.804 141.63 142.301 141.095 141.026 140.874 
140.398 140.009 139.705 141.702 142.21 141.202 141.071 140.933 140.417 
139.967 139.822 139.589 141.48 141.829 141.18 141.178 141.212 140.828 
140.241 139.911 139.704 139.311 141.093 140.89 140.451 140.56 140.139 
141.002 140.365 139.848 140.935 141.305 139.918 139.294 140.619 141.231 
141.3 139.32 138.723 139.974 140.693 141.131 140.84 138.769 138.217 
139.298 139.842 140.465 140.692 140.307 138.102 137.616 138.585 138.978 
139.456 139.973 140.076 139.843 137.376 136.996 137.799 138.183 138.541 
138.973 139.296 139.333 139.291 136.805 136.468 137.145 137.488 137.831 
138.167 138.433 138.546 138.586 138.68 138.157 137.986 137.522 137.854 
137.312 136.844 137.81 137.181 136.637 136.084 137.717 137.127 136.532 
135.94 135.315 137.453 136.943 136.398 135.85 135.21 134.532 137.11 
136.581 136.032 135.571 135.004 134.333 133.696 136.819 136.284 135.606 
135.081 134.578 133.954 133.394 132.922 136.543 136.101 135.376 134.674 
134.127 133.531 132.978 132.594 132.268 136.193 135.829 135.21 134.449 
133.805 133.236 132.675 132.228 131.906 131.643 137.829 137.184 137.413 
136.401 136.722 136.93 135.53 135.86 136.188 136.441 134.674 134.962 
135.296 135.65 135.97 133.801 134.065 134.434 134.725 135.108 135.45 
132.975 133.159 133.617 133.99 134.2 134.555 134.817 132.312 132.378 
132.782 133.365 133.64 133.754 133.978 134.129 131.752 131.79 132.007 
132.566 133.086 133.253 133.287 133.375 133.501 131.076 131.233 130.511 
130.669 129.915 131.309 129.949 129.146 130.706 131.581 129.188 128.377 
130.012 130.968 132.134 128.748 128.048 129.542 130.398 131.498 132.583 
128.633 128.134 129.246 129.974 130.903 131.922 132.717 128.566 128.234 
128.851 129.355 130.254 131.257 132.064 132.715 128.518 128.206 128.585 
128.751 129.513 130.603 131.452 132.096 132.784 128.54 128.171 128.643 
128.647 129.122 130.112 131.002 131.616 132.273 133.028 131.072 130.359 
130.454 129.624 130.034 129.739 129.218 129.914 129.033 129.175 129.194 
129.949 128.698 128.58 128.435 129.289 129.974 128.664 128.3 127.988 
127.77 129.346 130.005 128.685 128.18 127.837 127.571 127.65 129.444 
130.113 128.739 128.099 127.738 127.632 127.627 127.841 129.627 130.261 
128.917 128.168 127.653 127.613 127.727 127.732 127.87 129.835 130.383 
129.192 128.445 127.767 127.525 127.658 127.675 127.586 127.76 135.888 
135.491 135.148 134.626 134.373 134.992 133.852 133.708 134.092 134.312 
133.223 133.111 133.355 133.438 133.577 132.564 132.535 132.658 132.648 
132.702 132.946 131.919 131.997 131.906 131.88 131.888 132.108 132.403 
131.356 131.443 131.25 131.197 131.205 131.355 131.615 131.889 130.798 
130.877 130.671 130.595 130.598 130.648 130.769 131.015 131.419 136.469 
135.859 136.498 135.878 136.47 135.134 135.826 136.413 135.157 134.389 
135.742 136.398 135.072 134.408 133.719 135.684 136.331 134.946 134.319 
133.76 133.135 135.6 136.232 134.871 134.204 133.713 133.188 132.571 
135.579 136.245 134.863 134.179 133.613 133.076 132.486 131.934 135.662 
136.298 134.946 134.26 133.629 132.967 132.281 131.712 131.281 135.695 
136.24 135.029 134.361 133.744 133.073 132.312 131.626 131.133 130.755 