# vtk DataFile Version 4.0
vtk output
ASCII
DATASET POLYDATA
POINTS 1002 float
-76.9585 -106.592 52.9596 -77.0187 -106.611 54.0565 -77.4965 -106.646 53.458 
-77.4125 -106.643 52.2868 -78.1406 -106.473 52.8141 -76.8622 -106.543 51.7707 
-78.0601 -106.489 51.6447 -78.8273 -106.372 52.1451 -77.2904 -106.636 51.0941 
-76.8104 -106.495 50.652 -78.7937 -106.473 51.0087 -79.4771 -106.563 51.4306 
-77.9559 -106.496 50.5258 -77.2744 -106.496 50.0524 -76.8024 -106.227 49.6423 
-79.5232 -106.586 50.3838 -80.1572 -106.63 50.7476 -78.7265 -106.36 50.0113 
-77.961 -106.215 49.556 -77.3136 -106.064 49.0671 -76.6666 -105.795 48.5326 
-80.2061 -106.379 49.8474 -80.8204 -106.3 50.2195 -79.4217 -106.184 49.5034 
-78.6643 -105.917 49.0521 -77.9641 -105.775 48.5397 -77.1604 -105.613 48.0241 
-76.3635 -105.524 47.4614 -80.7752 -105.993 49.3471 -81.3117 -105.953 49.7949 
-80.0185 -105.922 48.932 -79.236 -105.75 48.4486 -78.568 -105.625 47.9538 
-77.7841 -105.438 47.5789 -76.8652 -105.24 47.2148 -76.1252 -105.299 46.714 
-81.1978 -105.742 48.8381 -81.6395 -105.698 49.3773 -80.6032 -105.775 48.2817 
-79.8296 -105.731 47.7465 -79.0933 -105.627 47.3069 -78.3959 -105.406 47.0277 
-77.5561 -105.037 46.8383 -76.695 -104.882 46.497 -76.0504 -105.035 45.9774 
-81.4898 -105.445 48.4433 -81.8908 -105.337 49.004 -81.1202 -105.609 47.764 
-80.5257 -105.699 47.1203 -79.7058 -105.595 46.715 -78.9299 -105.367 46.4647 
-78.2159 -105.053 46.1957 -77.4262 -104.803 45.8552 -76.6309 -104.831 45.4017 
-76.0112 -104.96 44.9641 -81.687 -105.03 48.204 -82.0886 -104.919 48.7271 
-81.4534 -105.255 47.4932 -81.1051 -105.465 46.7376 -80.3666 -105.424 46.2589 
-79.461 -105.185 46.0214 -78.7183 -105.013 45.6334 -78.0531 -104.957 45.0747 
-77.2933 -104.987 44.566 -76.528 -105.064 44.1708 -75.9485 -105.021 43.9609 
-77.311 -106.549 54.799 -77.919 -106.515 54.1475 -77.6003 -106.416 55.5928 
-78.3002 -106.455 54.8034 -77.9043 -106.461 56.2562 -78.6543 -106.403 53.4267 
-78.7483 -106.512 55.3548 -78.3692 -106.527 56.6331 -79.1382 -106.529 54.0312 
-79.3422 -106.456 52.7226 -79.2953 -106.366 55.733 -78.9756 -106.296 56.8219 
-79.7165 -106.605 54.6333 -79.9048 -106.612 53.4071 -79.9913 -106.595 51.9876 
-79.6944 -106.009 55.9689 -79.4965 -105.997 57.0296 -80.1651 -106.344 55.067 
-80.5272 -106.543 54.0769 -80.5924 -106.468 52.6937 -80.6957 -106.414 51.2638 
-80.0018 -105.79 56.2531 -79.9435 -105.861 57.3038 -80.342 -105.974 55.3214 
-80.8538 -106.21 54.4435 -81.0958 -106.182 53.2486 -81.181 -106.091 51.8764 
-81.3102 -106.066 50.7081 -80.5236 -105.648 56.6441 -80.4488 -105.675 57.5541 
-80.7056 -105.697 55.6525 -81.0552 -105.835 54.6522 -81.3043 -105.818 53.4715 
-81.4565 -105.731 52.2626 -81.6711 -105.79 51.2209 -81.7734 -105.826 50.2646 
-81.0819 -105.381 56.9162 -80.9011 -105.328 57.6761 -81.2946 -105.403 55.9932 
-81.5197 -105.487 54.9566 -81.5997 -105.481 53.6878 -81.6816 -105.363 52.4404 
-81.9851 -105.401 51.5226 -82.2593 -105.55 50.6916 -82.1894 -105.528 49.8003 
-81.3678 -105.023 56.9248 -81.1736 -104.909 57.6422 -81.6213 -105.067 56.0715 
-81.9008 -105.142 55.1521 -82.0372 -105.201 54.0084 -82.1321 -105.131 52.7391 
-82.4455 -105.082 51.7501 -82.8211 -105.189 50.978 -82.8657 -105.252 50.1484 
-82.5261 -105.122 49.3613 -81.4197 -104.533 57.031 -81.5877 -104.654 56.1428 
-81.6435 -104.063 56.2548 -81.8096 -104.202 55.3206 -82.0414 -103.551 55.6048 
-81.8663 -104.74 55.2365 -82.2499 -103.657 54.6086 -82.4443 -103.105 54.968 
-82.0929 -104.326 54.3379 -82.1933 -104.862 54.2641 -82.6727 -103.155 53.7356 
-82.4853 -102.764 53.965 -82.5838 -103.796 53.4609 -82.6284 -104.514 53.3576 
-82.5655 -104.947 53.1399 -82.7618 -102.81 52.7303 -82.3564 -102.427 52.8877 
-83.0581 -103.275 52.6381 -83.3126 -104.032 52.6584 -83.4213 -104.719 52.5083 
-83.0619 -104.962 52.0946 -82.7911 -102.487 52.0489 -82.4399 -101.994 52.2103 
-83.2779 -102.816 52.0149 -83.7727 -103.349 52.1029 -84.0818 -104.248 52.0126 
-83.9904 -104.86 51.6057 -83.4787 -105.009 51.191 -82.8763 -102.075 51.5687 
-82.5539 -101.506 51.6909 -83.3929 -102.413 51.4587 -83.972 -102.617 51.3848 
-84.2468 -103.32 51.2188 -84.1943 -104.327 50.8733 -83.9635 -104.859 50.4977 
-83.5016 -105.022 50.2685 -82.7231 -101.623 50.9174 -82.4414 -101.05 51.0093 
-83.2159 -102.089 50.7583 -83.8932 -102.212 50.5079 -84.2415 -102.462 50.1991 
-84.0483 -103.313 49.9333 -83.7674 -104.233 49.7332 -83.5366 -104.678 49.571 
-83.1073 -104.879 49.4557 -82.3933 -101.154 50.1698 -82.2228 -100.642 50.2715 
-82.7174 -101.712 50.0367 -83.3219 -102.039 49.7922 -83.8641 -102.168 49.4613 
-83.8662 -102.563 49.2488 -83.5264 -103.346 49.2072 -83.263 -104.058 49.1415 
-82.9853 -104.439 48.9939 -82.5474 -104.666 48.8525 -81.965 -104.604 48.1894 
-82.3492 -104.341 48.3555 -81.9143 -104.375 47.4276 -82.7261 -104.003 48.5848 
-82.2211 -104.025 47.5748 -81.8889 -104.067 46.4449 -82.9844 -103.439 48.7995 
-82.4965 -103.523 47.8425 -82.0963 -103.549 46.5577 -81.7014 -103.482 45.7304 
-83.2083 -102.779 48.8272 -82.6313 -102.937 48.07 -82.2396 -102.968 46.7669 
-81.8549 -102.889 45.8467 -81.2974 -102.791 45.388 -83.3107 -102.294 48.8192 
-82.6841 -102.409 48.0844 -82.324 -102.397 46.8658 -82.0258 -102.309 45.92 
-81.5255 -102.262 45.4017 -80.9131 -102.28 44.7758 -83.03 -101.951 49.0119 
-82.6555 -101.815 48.1289 -82.4518 -101.675 46.8499 -82.2404 -101.592 45.8741 
-81.7743 -101.594 45.405 -81.2224 -101.727 44.6787 -80.7226 -101.851 43.9001 
-82.5602 -101.521 49.2566 -82.5176 -101.126 48.354 -82.5865 -100.775 47.0237 
-82.4368 -100.715 45.8777 -81.91 -100.79 45.4224 -81.3562 -100.921 44.8117 
-80.9721 -101.155 43.8954 -80.5349 -101.297 43.4224 -82.2711 -100.98 49.3961 
-82.3633 -100.556 48.5717 -82.5825 -100.088 47.3974 -82.4719 -99.9908 46.1558 
-81.8829 -100.143 45.5025 -81.2835 -100.195 44.9823 -80.962 -100.286 44.1236 
-80.6578 -100.507 43.5089 -80.1501 -100.647 43.3686 -82.1457 -100.48 49.5092 
-82.2188 -100.171 48.7341 -82.3893 -99.773 47.7656 -82.2736 -99.6036 46.6317 
-81.7353 -99.7002 45.778 -81.2023 -99.685 45.1296 -80.9356 -99.5552 44.2913 
-80.6765 -99.6204 43.6144 -80.221 -99.8422 43.4062 -79.677 -100.019 43.3039 
-81.6826 -104.773 47.4965 -81.6984 -104.558 46.5621 -81.4958 -105.035 46.6429 
-81.5491 -104.153 45.6974 -81.3362 -104.731 45.7632 -80.9663 -105.146 45.9494 
-81.1103 -103.436 45.285 -80.8771 -104.178 45.1615 -80.5165 -104.688 45.2675 
-80.0156 -104.954 45.6209 -80.5859 -102.722 44.8828 -80.3089 -103.391 44.8247 
-79.9899 -104.092 44.7359 -79.569 -104.51 44.9026 -79.1248 -104.792 45.2268 
-80.283 -102.221 44.1147 -79.889 -102.667 44.3386 -79.6034 -103.365 44.3088 
-79.2638 -104.029 44.2393 -78.8407 -104.547 44.2853 -78.4441 -104.91 44.5048 
-80.1078 -101.714 43.5351 -79.6093 -102.091 43.7834 -79.2646 -102.695 43.8582 
-78.984 -103.395 43.7892 -78.5757 -104.055 43.7244 -78.1185 -104.732 43.6413 
-77.7117 -105.095 43.8464 -79.7883 -101.088 43.3648 -79.2991 -101.491 43.412 
-78.8988 -102.11 43.3624 -78.6325 -102.834 43.2728 -78.278 -103.378 43.3643 
-77.7814 -104.017 43.4 -77.3032 -104.792 43.2627 -76.8987 -105.163 43.4535 
-79.375 -100.472 43.1862 -78.9736 -100.885 43.0571 -78.5987 -101.493 42.8842 
-78.3484 -102.314 42.6784 -78.0666 -102.916 42.7363 -77.601 -103.288 43.0588 
-77.0537 -103.935 43.1439 -76.5779 -104.711 43.0277 -76.2137 -105.068 43.266 
-79.1433 -99.7465 42.8711 -78.8365 -100.242 42.6087 -78.796 -99.559 42.1748 
-78.4101 -100.143 42.081 -78.2473 -99.4408 41.8732 -78.4695 -100.764 42.4699 
-77.576 -100.022 42.0844 -77.0553 -99.2947 41.9645 -77.9595 -100.679 42.2223 
-78.1733 -101.527 42.3288 -76.2837 -99.84 41.7641 -75.8208 -99.2046 41.6566 
-76.9588 -100.431 42.1236 -77.5699 -101.398 42.1468 -77.9062 -102.38 42.1888 
-75.4193 -99.8703 40.8521 -75.1998 -99.3033 41.3129 -75.8301 -100.239 41.268 
-76.4691 -101.068 41.8499 -77.1264 -102.228 41.9948 -77.472 -102.891 42.3976 
-75.0118 -100.05 40.8433 -74.6591 -99.4019 41.7073 -75.3012 -100.349 40.6712 
-75.5136 -100.855 41.385 -75.9812 -101.953 41.9225 -76.5815 -102.842 42.2229 
-76.8927 -103.306 42.7599 -74.2784 -99.998 41.7627 -73.8484 -99.3241 42.286 
-74.8516 -100.46 41.3856 -75.1004 -100.844 41.6922 -75.1644 -101.675 42.1962 
-75.5809 -102.687 42.3578 -76.0947 -103.365 42.5546 -76.3494 -104.002 42.8457 
-73.3767 -99.7684 42.3618 -73.2305 -99.2171 42.5603 -73.9401 -100.379 42.2354 
-74.5205 -100.914 42.3681 -74.7007 -101.553 42.6471 -74.8825 -102.416 42.7319 
-75.3631 -103.213 42.7322 -75.7481 -103.905 42.833 -75.9438 -104.603 42.9748 
-72.8844 -99.671 42.6412 -73.0256 -99.2456 42.9087 -73.0876 -100.307 42.5493 
-73.6006 -101.027 42.6203 -74.0153 -101.685 42.7562 -74.2838 -102.334 42.8666 
-74.7418 -102.984 43.0249 -75.255 -103.588 43.2349 -75.5254 -104.214 43.3687 
-75.6885 -104.767 43.533 -79.5678 -99.2654 43.2394 -79.1017 -98.9627 42.7466 
-79.509 -98.4503 43.162 -79.0083 -98.1367 42.7244 -79.4254 -97.8337 43.1854 
-78.7805 -98.7019 42.0908 -78.7516 -97.588 42.8027 -79.156 -97.5444 43.4222 
-78.5489 -97.8173 42.1851 -78.0086 -98.5033 41.8987 -78.3804 -97.2622 43.0741 
-78.7822 -97.3012 43.923 -78.0961 -97.2788 42.3915 -77.5899 -97.641 42.0604 
-76.6625 -98.3835 42.0318 -78.1111 -96.8394 43.716 -78.5418 -96.9462 44.6378 
-77.6422 -96.9241 42.909 -77.1245 -97.2412 42.3903 -76.3851 -97.6952 42.2309 
-75.6314 -98.4018 41.9849 -77.937 -96.5629 44.5874 -78.3802 -96.8076 45.3792 
-77.2966 -96.5607 43.8049 -76.688 -96.9813 43.1193 -76.1261 -97.4409 42.613 
-75.5347 -97.813 42.3544 -75.0216 -98.5198 42.0762 -77.6668 -96.7614 45.3511 
-78.1023 -97.0391 45.9853 -76.9654 -96.5392 44.6776 -76.2652 -96.7027 44.0306 
-75.745 -97.1627 43.3464 -75.2517 -97.494 42.7497 -74.7416 -97.8948 42.4858 
-74.2615 -98.6204 42.3893 -77.3224 -97.1644 45.9373 -77.744 -97.374 46.4902 
-76.6684 -96.8916 45.3331 -75.963 -96.7518 44.7326 -75.4247 -96.8961 44.1604 
-74.9012 -97.1779 43.4945 -74.3566 -97.5201 42.9226 -73.9372 -98.0737 42.6854 
-73.577 -98.7141 42.6204 -77.0521 -97.4391 46.4873 -77.4425 -97.5828 47.0314 
-76.4997 -97.2424 45.9344 -75.863 -97.0827 45.3339 -75.3449 -97.0146 44.8222 
[...]
CELL_DATA 2000
SCALARS Distance double
LOOKUP_TABLE default
141.064 141.089 140.922 140.573 141.104 140.929 140.605 140.415 140.07 
141.258 141.004 140.679 140.455 140.121 139.927 139.562 141.491 141.229 
140.87 140.575 140.184 139.956 139.557 139.357 138.89 141.546 141.394 
140.999 140.737 140.254 139.996 139.536 139.325 138.848 138.613 138.116 
141.437 141.34 140.945 140.756 140.255 140.014 139.535 139.315 138.861 
138.605 138.115 137.861 137.441 141.305 141.21 140.857 140.689 140.262 
140.016 139.583 139.343 138.938 138.677 138.214 137.908 137.443 137.23 
136.889 141.108 141.057 140.752 140.646 140.313 140.096 139.705 139.437 
139.033 138.774 138.341 138.042 137.577 137.284 136.899 136.716 136.44 
140.835 140.818 140.542 140.527 140.267 140.159 139.802 139.565 139.113 
138.849 138.396 138.148 137.726 137.455 137.086 136.824 136.54 136.338 
136.104 141.348 141.732 141.499 141.381 142.144 141.889 141.803 141.528 
141.411 142.613 142.346 142.303 142.015 141.946 141.616 141.564 142.954 
142.775 142.784 142.579 142.571 142.227 142.149 141.816 141.772 143.099 
142.983 142.987 142.967 143.028 142.837 142.725 142.381 142.218 141.943 
141.814 143.273 143.089 143.018 143.031 143.101 143.118 143.024 142.822 
142.562 142.303 142.1 141.887 141.716 143.553 143.327 143.213 143.088 
143.09 143.09 142.999 142.916 142.642 142.49 142.257 142.125 141.981 
141.785 141.601 143.725 143.596 143.484 143.326 143.256 143.145 143.012 
142.866 142.593 142.452 142.241 142.197 142.117 142.032 141.899 141.664 
141.419 143.654 143.655 143.516 143.473 143.341 143.281 143.12 142.961 
142.713 142.492 142.318 142.208 142.208 142.161 142.131 141.954 141.745 
141.446 141.152 143.473 143.024 143.292 143.334 142.546 142.796 142.87 
143.141 143.191 142.163 142.351 142.386 142.655 142.754 143.019 143.008 
141.698 141.95 141.953 142.2 142.323 142.608 142.699 142.835 142.699 
141.064 141.407 141.475 141.77 141.972 142.278 142.545 142.683 142.72 
142.601 142.442 140.495 140.819 140.984 141.299 141.548 141.927 142.285 
142.598 142.803 142.788 142.711 142.484 142.36 140.023 140.349 140.545 
140.856 141.038 141.416 141.631 142.121 142.293 142.662 142.607 142.671 
142.457 142.373 142.191 139.431 139.831 139.988 140.375 140.48 140.831 
140.86 141.281 141.291 141.813 141.765 142.19 141.995 142.198 141.915 
141.992 141.723 138.718 139.131 139.228 139.685 139.769 140.177 140.17 
140.502 140.434 140.802 140.759 141.201 141.136 141.505 141.318 141.524 
141.246 141.367 141.096 140.726 140.841 140.592 140.235 140.881 140.682 
140.27 140.073 139.701 140.682 140.614 140.184 140.04 139.577 139.436 
138.997 140.336 140.323 139.917 139.846 139.354 139.23 138.727 138.634 
138.162 140.048 139.993 139.588 139.525 139.034 138.935 138.422 138.337 
137.873 137.791 137.339 139.761 139.707 139.229 139.165 138.619 138.553 
138.018 137.985 137.519 137.491 137.054 136.985 136.564 139.325 139.324 
138.776 138.735 138.133 138.082 137.517 137.519 137.038 137.069 136.614 
136.626 136.197 136.203 135.827 138.802 138.815 138.293 138.255 137.697 
137.617 137.083 137.035 136.571 136.573 136.118 136.128 135.675 135.731 
135.351 135.441 135.097 138.343 138.329 137.888 137.839 137.38 137.277 
136.806 136.692 136.247 136.174 135.733 135.675 135.211 135.2 134.791 
134.885 134.552 134.675 134.339 140.576 140.116 140.322 140.306 139.619 
139.871 139.866 140.095 140.072 138.945 139.302 139.285 139.597 139.535 
139.78 139.619 138.091 138.511 138.462 138.879 138.766 139.11 138.897 
139.16 138.891 137.213 137.593 137.489 137.937 137.825 138.236 138.04 
138.356 138.112 138.383 138.153 136.441 136.736 136.586 136.958 136.866 
137.284 137.18 137.524 137.371 137.642 137.486 137.726 137.549 135.758 
136.011 135.841 136.121 136.014 136.387 136.336 136.711 136.625 136.941 
136.837 137.111 136.989 137.187 136.996 135.055 135.329 135.134 135.393 
135.238 135.58 135.522 135.906 135.836 136.18 136.067 136.408 136.305 
136.612 136.473 136.659 136.464 134.305 134.598 134.393 134.656 134.474 
134.798 134.742 135.126 135.102 135.429 135.324 135.617 135.503 135.849 
135.76 136.076 135.944 136.145 135.986 133.831 133.201 133.648 133.917 
132.681 133.073 133.34 133.737 134.032 132.061 132.549 132.838 133.238 
133.564 133.961 134.347 131.18 131.769 132.052 132.634 132.984 133.515 
133.928 134.364 134.735 130.504 130.894 131.116 131.685 132.039 132.756 
133.228 133.869 134.253 134.684 134.945 130.304 130.478 130.695 130.943 
131.266 131.793 132.323 133.041 133.55 134.121 134.429 134.823 135.087 
130.101 130.352 130.623 130.792 131.098 131.324 131.794 132.266 132.846 
133.412 133.859 134.306 134.622 135.009 135.336 129.713 130.022 130.302 
130.65 130.993 131.272 131.654 131.951 132.42 132.843 133.328 133.778 
134.17 134.568 134.9 135.281 135.572 129.521 129.659 129.909 130.242 
130.632 131.034 131.436 131.778 132.149 132.494 132.907 133.318 133.74 
134.142 134.496 134.856 135.139 135.475 135.687 133.577 132.927 133.143 
132.951 132.317 132.483 132.287 132.538 132.397 131.876 131.917 131.632 
131.836 131.642 131.951 131.747 131.574 131.517 131.13 131.205 130.909 
131.142 130.895 131.192 130.917 131.354 131.227 130.798 130.759 130.433 
130.508 130.258 130.413 130.214 130.421 130.294 131.313 131.081 130.648 
130.493 130.182 130.162 129.961 129.982 129.812 129.888 129.815 130.013 
130.05 131.485 131.177 130.754 130.457 130.102 129.982 129.778 129.777 
129.586 129.599 129.432 129.571 129.534 129.814 129.816 131.725 131.429 
131.038 130.671 130.266 129.993 129.724 129.628 129.422 129.381 129.157 
129.194 129.082 129.282 129.282 129.537 129.512 131.93 131.677 131.338 
130.996 130.624 130.261 129.977 129.713 129.53 129.336 129.161 129.023 
128.931 128.952 129.022 129.151 129.259 129.364 129.427 137.993 137.368 
137.638 137.546 136.678 136.985 136.884 137.175 137.058 135.905 136.235 
136.112 136.455 136.327 136.639 136.49 135.181 135.46 135.314 135.636 
135.482 135.83 135.678 136.027 135.898 134.533 134.771 134.609 134.872 
134.684 134.971 134.786 135.145 135.014 135.419 135.327 133.85 134.086 
133.867 134.152 133.942 134.21 133.985 134.273 134.103 134.485 134.388 
134.825 134.766 133.184 133.365 133.081 133.347 133.122 133.432 133.226 
133.511 133.32 133.624 133.502 133.883 133.842 134.288 134.323 132.656 
132.755 132.47 132.614 132.374 132.615 132.437 132.738 132.585 132.882 
132.746 133.062 133.002 133.4 133.453 133.93 134.066 132.238 132.307 
132.047 132.111 131.845 131.963 131.739 131.972 131.819 132.131 132.013 
132.331 132.252 132.606 132.63 133.079 133.209 133.718 133.87 138.151 
138.18 137.956 137.527 138.182 137.976 137.539 137.315 136.849 138.154 
137.961 137.537 137.321 136.843 136.595 136.095 138.126 137.932 137.518 
137.317 136.861 136.603 136.089 135.829 135.359 138.074 137.901 137.487 
137.298 136.854 136.618 136.11 135.838 135.348 135.129 134.713 137.961 
137.819 137.398 137.238 136.776 136.58 136.066 135.831 135.332 135.121 
134.696 134.506 134.091 137.848 137.691 137.259 137.108 136.643 136.471 
135.961 135.752 135.249 135.064 134.642 134.485 134.087 133.883 133.461 
137.779 137.595 137.152 136.972 136.527 136.349 135.887 135.67 135.183 
134.971 134.539 134.394 134.016 133.866 133.473 133.272 132.896 137.711 
137.537 137.1 136.899 136.467 136.276 135.857 135.646 135.193 134.947 
134.493 134.296 133.908 133.772 133.414 133.265 132.912 132.744 132.435 
137.52 137.006 137.158 136.912 136.397 136.593 136.347 136.515 136.272 
135.744 135.943 135.698 135.907 135.677 135.874 135.651 135.213 135.33 
135.08 135.249 135.004 135.223 134.988 135.219 134.973 134.821 134.876 
134.595 134.682 134.375 134.528 134.235 134.477 134.221 134.486 134.252 
134.367 134.45 134.106 134.196 133.82 133.911 133.532 133.703 133.419 
133.695 133.503 133.795 133.648 133.797 133.899 133.511 133.635 133.263 
133.357 132.965 133.048 132.732 132.932 132.769 133.064 132.968 133.26 
133.162 133.24 133.309 132.931 133.031 132.721 132.829 132.52 132.562 
132.252 132.338 132.158 132.389 132.321 132.604 132.532 132.798 132.697 
132.771 132.807 132.46 132.515 132.232 132.338 132.082 132.157 131.86 
131.913 131.68 131.839 131.746 131.997 131.941 132.192 132.108 132.347 
132.253 132.428 131.871 132.135 132.13 131.409 131.608 131.587 131.846 
131.892 131.056 131.19 131.068 131.266 131.235 131.602 131.686 130.694 
130.836 130.6 130.698 130.485 130.824 130.853 131.348 131.447 130.283 
130.437 130.218 130.238 129.943 130.092 130.072 130.494 130.696 131.154 
131.335 130.021 130.077 129.945 129.93 129.737 129.729 129.738 129.932 
130.209 130.55 130.872 131.198 131.451 129.929 129.911 129.763 129.741 
129.6 129.611 129.633 129.769 129.999 130.245 130.546 130.831 131.099 
131.392 131.632 129.758 129.783 129.565 129.564 129.35 129.409 129.344 
129.558 129.673 129.978 130.153 130.474 130.663 131.002 131.22 131.556 
131.781 129.516 129.55 129.355 129.346 129.12 129.125 129.006 129.166 
129.228 129.522 129.648 129.974 130.12 130.488 130.707 131.1 131.359 
131.704 131.937 132.492 132.366 132.251 131.923 132.291 132.11 131.746 
131.674 131.423 132.415 132.091 131.611 131.447 131.136 131.184 131.036 
132.717 132.309 131.754 131.379 130.903 130.824 130.62 130.784 130.661 
133.044 132.648 132.154 131.668 131.123 130.735 130.39 130.355 130.244 
130.386 130.265 133.414 132.992 132.562 132.12 131.667 131.157 130.782 
130.404 130.257 130.133 130.12 130.11 130.072 133.931 133.432 132.997 
132.549 132.171 131.73 131.431 130.993 130.849 130.492 130.492 130.244 
130.271 130.108 130.075 134.504 134.005 133.577 133.068 132.698 132.249 
131.989 131.613 131.495 131.171 131.153 130.832 130.793 130.479 130.36 
130.12 129.949 134.981 134.562 134.177 133.691 133.337 132.852 132.589 
132.175 132.038 131.735 131.7 131.442 131.363 131.035 130.809 130.448 
130.161 129.902 129.678 132.861 133.369 132.986 132.733 133.955 133.522 
133.303 132.896 132.711 134.814 134.261 134.119 133.595 133.473 132.996 
132.9 135.89 135.297 135.229 134.605 134.51 133.902 133.802 133.277 
133.198 136.875 136.375 136.307 135.755 135.659 135.037 134.899 134.271 
134.144 133.597 133.51 137.709 137.272 137.184 136.721 136.618 136.108 
135.999 135.412 135.298 134.658 134.567 133.966 133.923 138.53 138.095 
138.048 137.575 137.489 136.996 136.926 136.439 136.397 135.843 135.777 
135.141 135.078 134.461 134.451 139.345 138.93 138.922 138.476 138.432 
137.919 137.84 137.341 137.29 136.833 136.768 136.265 136.153 135.602 
135.518 134.984 134.963 140.099 139.715 139.695 139.318 139.303 138.863 
138.787 138.277 138.166 137.678 137.562 137.108 136.962 136.51 136.369 
135.928 135.844 135.413 135.373 140.479 140.897 140.479 140.079 141.342 
140.915 140.519 140.1 139.702 141.816 141.38 140.977 140.542 140.113 
139.691 139.216 142.21 141.809 141.341 140.944 140.462 140.066 139.55 
139.122 138.582 142.314 142.042 141.46 141.159 140.612 140.312 139.775 
139.41 138.833 138.432 137.9 142.052 141.943 141.346 141.134 140.56 
140.338 139.821 139.559 139.008 138.648 138.07 137.723 137.239 141.64 
141.607 141.136 140.983 140.469 140.257 139.761 139.547 139.057 138.78 
138.238 137.888 137.369 137.066 136.649 141.322 141.276 140.911 140.803 
140.373 140.191 139.712 139.495 139.011 138.787 138.299 138.026 137.534 
137.226 136.795 136.52 136.156 141.118 141.049 140.699 140.607 140.21 
140.084 139.641 139.453 138.965 138.74 138.255 138.037 137.585 137.355 
136.937 136.685 136.309 136.055 135.703 140.91 140.394 140.59 140.448 
139.882 140.048 139.882 140.085 139.939 139.366 139.543 139.35 139.523 
139.347 139.56 139.388 138.667 138.938 138.716 138.952 138.727 138.95 
138.725 138.95 138.716 137.889 138.162 137.933 138.216 137.976 138.252 
137.991 138.242 137.971 138.219 137.983 137.282 137.475 137.301 137.486 
137.288 137.495 137.281 137.502 137.265 137.484 137.264 137.515 137.335 
136.781 136.963 136.84 136.985 136.809 136.927 136.738 136.884 136.701 
136.861 136.669 136.854 136.681 136.912 136.745 136.3 136.469 136.32 
136.509 136.3 136.455 136.21 136.375 136.16 136.34 136.129 136.299 
136.081 136.279 136.087 136.321 136.138 135.903 135.998 135.794 135.948 
135.71 135.874 135.595 135.775 135.517 135.737 135.502 135.714 135.46 
135.658 135.416 135.647 135.449 135.705 135.524 135.08 134.996 134.808 
134.324 134.964 134.742 134.284 134.054 133.552 135.004 134.75 134.307 
134.062 133.609 133.329 132.851 135.043 134.8 134.354 134.115 133.684 
133.423 132.98 132.687 132.29 135.074 134.836 134.409 134.17 133.737 
133.49 133.055 132.806 132.418 132.194 131.908 135.172 134.91 134.529 
134.265 133.846 133.556 133.095 132.841 132.43 132.257 131.928 131.803 
131.516 135.321 135.062 134.715 134.444 134.054 133.719 133.237 132.902 
132.444 132.226 131.835 131.71 131.32 131.252 130.873 135.467 135.232 
134.911 134.653 134.289 133.961 133.496 133.106 132.633 132.306 131.901 
131.648 131.216 131.014 130.562 130.49 130.139 135.64 135.408 135.119 
134.858 134.518 134.207 133.783 133.4 132.946 132.569 132.185 131.844 
131.466 131.091 130.659 130.333 129.972 129.85 129.648 143.68 143.764 
143.72 143.552 143.685 143.767 143.694 143.522 143.292 143.495 143.681 
143.77 143.701 143.59 143.353 143.261 143.316 143.528 143.728 143.784 
143.767 143.642 143.574 143.43 143.369 143.13 143.376 143.631 143.771 
143.798 143.737 143.59 143.553 143.423 143.383 143.111 142.76 143.098 
143.394 143.681 143.817 143.794 143.595 143.452 143.2 143.208 142.977 
142.919 142.538 142.244 142.593 142.842 143.305 143.565 143.79 143.705 
143.533 143.192 143.002 142.735 142.702 142.458 142.352 142.018 141.785 
142.042 142.16 142.612 142.842 143.333 143.403 143.55 143.27 143.084 
142.706 142.546 142.266 142.21 141.924 141.838 141.497 141.384 141.587 
141.595 141.911 142.002 142.482 142.565 142.995 142.853 142.981 142.61 
142.52 142.126 142.031 141.683 141.631 141.272 141.224 140.849 143.545 
143.375 143.408 143.193 143.05 143.103 142.907 142.963 142.686 143 
142.851 142.607 142.609 142.374 142.394 142.071 143.119 142.92 142.58 
142.416 142.109 142.064 141.763 141.749 141.407 142.818 142.841 142.406 
142.345 141.934 141.862 141.497 141.442 141.096 141.075 140.729 142.202 
142.29 141.806 141.9 141.486 141.581 141.231 141.218 140.839 140.773 
140.406 140.384 140.038 141.734 141.731 141.292 141.278 140.911 141.026 
140.774 140.884 140.552 140.521 140.094 140.046 139.667 139.681 139.356 
141.306 141.363 141.013 140.944 140.585 140.566 140.292 140.385 140.08 
140.137 139.692 139.681 139.232 139.266 138.928 139.004 138.717 140.704 
140.888 140.597 140.665 140.306 140.295 139.919 139.935 139.553 139.604 
139.168 139.199 138.752 138.797 138.449 138.545 138.284 138.38 138.122 
143.424 143.111 143.205 142.986 142.62 142.815 142.639 142.716 142.504 
141.998 142.255 142.099 142.288 142.14 142.278 142.132 141.344 141.613 
141.458 141.687 141.546 141.81 141.704 141.887 141.666 140.675 140.958 
140.815 141.046 140.887 141.158 141.04 141.322 141.117 141.279 140.968 
139.981 140.273 140.13 140.389 140.236 140.503 140.38 140.645 140.466 
140.656 140.39 140.54 140.313 139.317 139.584 139.435 139.689 139.54 
139.828 139.722 140.008 139.864 140.058 139.833 139.975 139.763 139.951 
139.807 138.699 138.945 138.803 139.026 138.869 139.129 139.014 139.32 
139.192 139.451 139.245 139.432 139.207 139.395 139.207 139.43 139.246 
138.095 138.335 138.192 138.413 138.252 138.485 138.351 138.62 138.486 
138.752 138.565 138.799 138.582 138.802 138.595 138.811 138.602 138.814 
138.586 133.05 133.565 133.411 133.605 134.145 133.981 134.2 133.978 
134.175 134.687 134.567 134.814 134.611 134.824 134.61 134.944 135.1 
135.049 135.338 135.223 135.509 135.313 135.658 135.502 135.966 135.493 
135.434 135.779 135.733 136.131 136.022 136.432 136.265 136.694 136.551 
136.976 136.04 135.905 136.276 136.208 136.649 136.617 137.072 136.997 
137.406 137.27 137.629 137.479 137.815 136.68 136.521 136.855 136.743 
137.116 137.089 137.495 137.51 137.906 137.877 138.23 138.118 138.443 
138.292 138.62 137.266 137.136 137.415 137.293 137.584 137.519 137.862 
137.865 138.258 138.284 138.695 138.67 139.061 138.945 139.301 139.127 
139.453 137.769 137.666 137.923 137.801 138.066 137.971 138.309 138.265 
138.678 138.667 139.106 139.108 139.539 139.516 139.908 139.807 140.138 
139.957 140.233 
POINT_DATA 1002
SCALARS Distance double
LOOKUP_TABLE default
140.738 141.198 141.257 140.774 141.24 140.209 140.778 141.297 140.267 
139.738 140.941 141.54 140.322 139.778 139.17 141.209 141.726 140.463 
139.769 139.125 138.378 141.248 141.667 140.541 139.759 139.083 138.336 
137.635 141.107 141.539 140.482 139.745 139.105 138.398 137.612 137.078 
140.985 141.392 140.48 139.826 139.182 138.529 137.715 137.002 136.587 
140.796 141.139 140.476 139.987 139.307 138.612 137.882 137.136 136.562 
136.173 140.52 140.848 140.312 140.016 139.404 138.629 137.95 137.349 
136.779 136.282 135.859 141.593 141.65 141.958 142.064 142.415 141.698 
142.563 142.865 142.286 141.857 142.902 143.1 142.89 142.54 142.053 
142.951 143.248 143.111 143.086 142.553 142.052 143.071 143.504 143.035 
143.161 142.829 142.308 141.944 143.41 143.747 143.162 143.077 142.761 
142.338 142.127 141.873 143.634 143.795 143.409 143.199 142.762 142.26 
142.128 142.098 141.729 143.538 143.63 143.379 143.238 142.925 142.457 
142.24 142.258 142.037 141.47 143.253 143.088 142.734 142.567 142.338 
142.958 142.151 142.002 142.443 142.863 141.7 141.396 142.01 142.519 
142.718 141.127 140.673 141.602 142.306 142.814 142.632 140.658 140.156 
141.169 141.876 142.676 142.921 142.583 140.234 139.679 140.742 141.204 
141.814 142.391 142.511 142.28 139.581 139.035 140.151 140.55 140.828 
141.236 141.671 141.805 141.662 138.778 138.344 139.325 139.832 140.131 
140.344 140.698 141.041 141.107 140.971 140.36 140.445 139.903 140.495 
139.872 139.332 140.306 139.754 139.107 138.553 139.965 139.48 138.832 
138.242 137.692 139.67 139.13 138.495 137.939 137.439 136.888 139.322 
138.695 138.036 137.524 137.094 136.629 136.176 138.818 138.19 137.519 
137.001 136.59 136.157 135.806 135.502 138.304 137.76 137.145 136.587 
136.128 135.637 135.232 135.017 134.775 137.908 137.453 136.928 136.348 
135.808 135.263 134.734 134.408 134.234 134.01 140.087 139.624 139.889 
138.952 139.281 139.438 138.028 138.406 138.613 138.64 137.06 137.379 
137.691 137.817 137.881 136.262 136.437 136.785 137.066 137.23 137.35 
135.596 135.665 135.942 136.284 136.527 136.754 136.865 134.889 134.918 
135.133 135.495 135.731 135.943 136.219 136.336 134.131 134.162 134.344 
134.751 135.062 135.179 135.387 135.675 135.821 133.355 133.46 132.79 
132.97 132.284 133.591 132.394 131.508 133.153 133.948 131.408 130.628 
132.356 133.445 134.393 130.649 130.238 131.293 132.469 133.77 134.596 
130.549 130.128 130.889 131.616 132.886 133.997 134.696 130.382 129.795 
130.939 131.469 132.298 133.356 134.225 134.947 129.892 129.455 130.633 
131.409 132.087 132.876 133.754 134.532 135.221 129.633 129.476 130.202 
131.061 131.84 132.522 133.326 134.142 134.815 135.382 133.367 132.709 
132.706 132.036 132.21 132.118 131.504 131.914 131.355 131.454 131.132 
131.678 130.755 130.618 130.618 130.873 131.514 130.392 130.153 130.007 
130.019 130.858 131.569 130.216 129.942 129.79 129.641 129.787 131.105 
131.783 130.3 129.792 129.602 129.367 129.288 129.53 131.401 131.993 
130.61 129.891 129.491 129.176 128.93 129.029 129.288 131.637 132.161 
130.979 130.284 129.759 129.342 128.967 128.9 129.138 129.351 137.729 
137.28 137.096 136.579 136.361 136.795 135.765 135.59 135.993 136.196 
135.028 134.927 135.151 135.303 135.538 134.361 134.313 134.44 134.462 
134.595 134.911 133.585 133.654 133.657 133.73 133.765 133.952 134.303 
132.858 133.042 132.8 132.91 133.041 133.158 133.397 133.828 132.367 
132.561 132.186 132.136 132.267 132.449 132.633 132.976 133.556 138.381 
137.759 138.401 137.769 138.378 137.091 137.737 138.349 137.105 136.335 
137.711 138.321 137.109 136.371 135.563 137.674 138.228 137.077 136.377 
135.583 134.899 137.556 138.102 136.965 136.287 135.534 134.882 134.308 
137.418 138.025 136.803 136.162 135.435 134.78 134.267 133.689 137.345 
137.968 136.695 136.085 135.414 134.701 134.137 133.645 133.088 137.3 