# vtk DataFile Version 4.0
vtk output
ASCII
DATASET POLYDATA
POINTS 1002 float
-76.9532 -99.7817 53.2011 -77.2689 -99.595 54.4727 -77.6388 -99.6797 53.9701 
-77.422 -99.8315 52.6368 -78.1166 -99.7834 53.38 -76.7846 -99.8551 52.0976 
-78.0195 -99.8245 52.114 -78.7299 -99.8063 52.7723 -77.3727 -99.7566 51.6138 
-76.813 -99.4961 51.4005 -78.6885 -99.7207 51.6637 -79.4028 -99.7349 52.1998 
-78.0727 -99.5487 51.2668 -77.4689 -99.2729 50.9848 -76.8364 -99.0657 50.5755 
-79.3305 -99.6657 51.1435 -80.1043 -99.6932 51.6717 -78.7462 -99.4285 50.825 
-78.1582 -99.0736 50.5847 -77.4505 -98.9519 50.0312 -76.6874 -99.079 49.2644 
-79.9539 -99.7635 50.545 -80.8242 -99.8482 51.1252 -79.3275 -99.5428 50.1289 
-78.7849 -99.118 49.9255 -78.0778 -98.8849 49.4467 -77.2851 -98.9817 48.6956 
-76.5276 -99.0175 48.1626 -80.5731 -99.8672 50.0259 -81.4498 -100.055 50.5618 
-79.8307 -99.6498 49.5043 -79.3274 -99.2541 49.1878 -78.729 -98.8699 48.8162 
-77.9979 -98.7439 48.2309 -77.2392 -98.6568 47.8048 -76.5426 -98.3676 47.6766 
-81.1289 -99.7284 49.6581 -81.8529 -99.9342 50.1243 -80.3244 -99.5296 49.1183 
-79.7647 -99.2484 48.6318 -79.2882 -98.8276 48.2616 -78.7314 -98.4758 47.8682 
-78.079 -98.2414 47.5301 -77.3059 -97.9818 47.3622 -76.5995 -97.7167 47.2168 
-81.495 -99.2953 49.4147 -82.0057 -99.4341 49.8579 -80.8278 -99.2334 48.8239 
-80.2467 -99.2089 48.0994 -79.7347 -98.9328 47.5734 -79.2357 -98.4198 47.3623 
-78.7655 -97.9781 47.2313 -78.1059 -97.7044 47.0427 -77.2617 -97.5409 46.7897 
-76.5494 -97.471 46.4755 -81.5897 -98.7414 49.2285 -81.9827 -98.8367 49.6492 
-81.1512 -98.8263 48.595 -80.7597 -99.1166 47.6376 -80.2749 -99.1874 46.792 
-79.6367 -98.7181 46.549 -79.1222 -98.0324 46.6799 -78.6684 -97.5622 46.674 
-77.9551 -97.3526 46.4257 -77.1232 -97.2857 46.0903 -76.4778 -97.2846 45.7816 
-77.7628 -99.6878 55.2436 -78.1391 -99.7794 54.7601 -78.1165 -100.101 55.6388 
-78.5482 -99.9756 55.2842 -78.4559 -100.383 55.9861 -78.6753 -99.7928 54.1663 
-78.9059 -99.9098 55.8307 -78.9236 -100.225 56.7093 -79.1426 -99.758 54.7624 
-79.3694 -99.7667 53.4347 -79.3645 -99.7324 56.5541 -79.4644 -100.074 57.4396 
-79.5461 -99.6212 55.3287 -79.9511 -99.7256 53.9138 -80.1672 -99.7162 52.7157 
-80.0466 -99.8858 57.0222 -80.0623 -100.234 57.7383 -80.1574 -99.6194 55.8738 
-80.5274 -99.7278 54.3343 -80.9053 -99.8088 53.0477 -80.9965 -99.7674 52.1246 
-80.7853 -100.096 57.0896 -80.7246 -100.278 57.903 -80.9359 -99.7135 56.0885 
-81.2317 -99.6971 54.736 -81.5534 -99.9366 53.3741 -81.7232 -100.022 52.4046 
-81.6898 -100.067 51.5257 -81.3032 -99.9259 57.0932 -81.2532 -99.9573 58.0998 
-81.4582 -99.5774 56.0041 -81.8092 -99.4563 54.897 -82.1625 -99.8098 53.7668 
-82.2637 -100.154 52.7587 -82.2025 -100.276 51.865 -82.1001 -100.24 50.9424 
-81.6005 -99.5297 57.1123 -81.4984 -99.4875 58.0769 -81.7446 -99.2909 55.9651 
-82.1281 -99.1382 54.9133 -82.6584 -99.462 54.0354 -82.8901 -99.926 53.1899 
-82.6778 -100.12 52.3224 -82.4145 -100.114 51.419 -82.2596 -99.8997 50.5451 
-81.8163 -99.1428 57.0327 -81.5689 -99.0341 57.8003 -82.0828 -99.0668 56.0601 
-82.4926 -98.978 55.1009 -83.0542 -99.2094 54.3046 -83.493 -99.6072 53.5386 
-83.4094 -99.7419 52.7166 -82.9225 -99.6586 51.9093 -82.5292 -99.5356 51.083 
-82.295 -99.2686 50.2816 -81.8867 -98.6709 57.0845 -82.3439 -98.8035 56.3458 
-82.3931 -98.2614 56.476 -83.1047 -98.4521 55.8813 -82.8967 -97.7852 55.9598 
-82.9072 -98.8499 55.5695 -83.6625 -97.9345 55.4952 -83.2187 -97.2838 55.386 
-83.7527 -98.6239 55.3677 -83.4368 -99.022 54.8418 -83.8144 -97.2843 54.8359 
-83.3465 -96.9095 54.6698 -84.0294 -98.0163 54.9634 -83.9987 -98.8649 54.6141 
-83.8508 -99.3491 53.9866 -83.7533 -96.8106 53.8907 -83.2056 -96.6728 53.9023 
-84.012 -97.1491 53.9785 -84.0087 -98.1136 53.785 -84.1005 -99.0343 53.2909 
-83.9954 -99.4446 52.9322 -83.4506 -96.5397 53.0831 -82.8472 -96.2755 53.2475 
-84.005 -96.5657 52.9235 -84.0981 -97.175 52.6273 -84.0717 -98.2699 52.2065 
-84.057 -98.9353 52.0162 -83.6124 -99.2308 52.044 -82.9651 -96.0819 52.5509 
-82.5686 -95.5526 52.6774 -83.5978 -96.2861 52.3238 -83.9884 -96.61 51.9782 
-83.9717 -97.4831 51.5671 -83.8641 -98.331 51.3367 -83.5598 -98.7037 51.3715 
-82.9873 -99.031 51.3473 -82.6305 -95.3224 51.9578 -82.4555 -94.7569 52.022 
-82.9572 -95.8415 51.8134 -83.3093 -96.2716 51.6228 -83.409 -96.8657 51.4141 
-83.3516 -97.6264 51.1842 -83.2433 -98.1825 50.9763 -82.9302 -98.5051 50.7909 
-82.539 -98.8609 50.5535 -82.5013 -94.5527 51.1612 -82.3541 -94.1561 51.2746 
-82.5999 -95.1184 51.0228 -82.7186 -95.7334 50.9209 -82.7652 -96.2894 50.9002 
-82.7258 -96.8406 50.8484 -82.7356 -97.4245 50.6052 -82.6823 -97.9179 50.2421 
-82.4367 -98.2638 49.9505 -82.1655 -98.5511 49.774 -81.6253 -98.2304 49.1534 
-81.8372 -97.9688 49.1679 -81.2291 -97.7166 48.5884 -82.1616 -97.6729 49.239 
-81.5157 -97.4022 48.5671 -81.0828 -97.2801 47.8994 -82.3765 -97.1836 49.481 
-81.9496 -97.0152 48.5244 -81.465 -96.8902 47.9122 -81.24 -96.8145 47.0151 
-82.4189 -96.5823 49.7575 -82.2369 -96.4243 48.5419 -81.8654 -96.3922 47.8248 
-81.5554 -96.3228 47.083 -81.2479 -96.1831 46.158 -82.4887 -96.0582 49.8717 
-82.4007 -95.8144 48.6169 -82.0584 -95.7227 47.7306 -81.6648 -95.6178 47.1075 
-81.3602 -95.4769 46.3119 -80.8168 -95.3328 45.7084 -82.5477 -95.4989 49.8956 
-82.5014 -95.2281 48.8067 -82.1728 -95.0568 47.8726 -81.6803 -94.847 47.1335 
-81.3542 -94.5817 46.4391 -80.8901 -94.458 45.8772 -80.2652 -94.4196 45.5242 
-82.515 -94.8111 49.9833 -82.4413 -94.5238 49.0627 -82.1638 -94.3631 48.2937 
-81.7674 -94.1993 47.389 -81.5215 -93.861 46.4751 -81.0923 -93.617 45.9206 
-80.3893 -93.5978 45.6225 -79.885 -93.6271 45.224 -82.4669 -94.208 50.1646 
-82.3558 -93.8743 49.2882 -82.0742 -93.6615 48.6584 -81.7768 -93.5649 47.7942 
-81.727 -93.3186 46.6131 -81.4791 -92.9975 45.8393 -80.6774 -92.9086 45.6107 
-79.9301 -92.95 45.3504 -79.6562 -92.9681 44.8045 -82.3443 -93.8439 50.3966 
-82.2924 -93.4859 49.5423 -82.0935 -93.1466 48.9013 -81.8011 -92.9491 48.1358 
-81.7356 -92.7544 46.9168 -81.7073 -92.4304 45.8624 -81.0852 -92.2557 45.5245 
-80.1381 -92.3215 45.4231 -79.6129 -92.3745 45.0299 -79.5236 -92.376 44.4092 
-81.2453 -98.2552 48.6248 -81.0146 -97.9065 47.8323 -81.063 -98.6573 47.6366 
-81.0272 -97.4475 46.9396 -81.0558 -98.3942 46.6453 -80.8545 -99.1294 46.4364 
-81.0152 -96.7459 46.1358 -80.907 -97.5934 46.0511 -80.7353 -98.5974 45.7681 
-80.2036 -98.9905 45.8465 -80.6274 -95.9303 45.6518 -80.4398 -96.5232 45.7677 
-80.2646 -97.4024 45.7182 -79.8703 -98.1445 45.607 -79.4067 -98.2414 45.9774 
-80.0904 -95.0981 45.3968 -79.9163 -95.6899 45.374 -79.7693 -96.3709 45.3536 
-79.5022 -97.1145 45.3065 -79.1431 -97.5001 45.5469 -78.899 -97.5303 46.1188 
-79.7843 -94.2788 45.0013 -79.6686 -95.0125 44.7572 -79.5688 -95.7893 44.4699 
-79.3616 -96.5482 44.3116 -78.9961 -96.9795 44.6127 -78.6564 -97.0525 45.2987 
-78.3498 -97.1436 45.9517 -79.6506 -93.524 44.454 -79.5673 -94.2753 44.1281 
-79.4745 -95.1432 43.7856 -79.2954 -96.0487 43.4864 -78.8838 -96.6811 43.6074 
-78.413 -96.7684 44.3006 -78.002 -96.7272 45.1086 -77.5622 -96.9639 45.6676 
-79.52 -92.8622 43.9881 -79.3816 -93.5487 43.6592 -79.2184 -94.3123 43.4956 
-79.0544 -95.1409 43.3867 -78.6535 -96.0142 43.3364 -78.0989 -96.4808 43.6556 
-77.6661 -96.4298 44.3677 -77.2736 -96.4832 45.0278 -76.8373 -96.886 45.4334 
-79.4069 -92.0568 43.7667 -79.1881 -92.7135 43.3674 -79.044 -91.8547 43.1684 
-78.6023 -92.6685 42.8587 -78.4472 -91.8109 42.7129 -78.8706 -93.4374 43.2287 
-77.9895 -92.6148 42.5134 -77.7655 -91.7893 42.62 -78.2712 -93.2426 42.9938 
-78.6656 -94.0298 43.4163 -77.3026 -92.4704 42.6348 -76.9164 -91.6824 42.9617 
-77.6873 -93.02 42.9015 -78.0001 -93.6434 43.4519 -78.324 -94.8142 43.5471 
-76.3494 -92.3578 43.1195 -75.8865 -91.6219 43.2618 -76.8513 -92.9476 43.1898 
-77.1408 -93.5237 43.4 -77.3354 -94.5815 43.5287 -77.6786 -95.7735 43.5209 
-75.3136 -92.3943 43.3426 -74.8819 -91.7258 43.2972 -75.8661 -93.0015 43.585 
-76.1818 -93.6238 43.6013 -76.3247 -94.6064 43.3882 -76.6686 -95.6145 43.4549 
-77.1934 -96.1642 43.8621 -74.3778 -92.4757 43.4112 -74.0534 -91.8759 43.4849 
-74.97 -93.0195 43.688 -75.4431 -93.5755 43.9132 -75.6486 -94.4706 43.7133 
-75.9604 -95.419 43.5863 -76.479 -95.9009 43.995 -76.9307 -96.1417 44.5623 
-73.6694 -92.4906 43.795 -73.5092 -91.9519 43.979 -74.1608 -92.9881 43.8665 
-74.7621 -93.4399 44.1126 -75.159 -94.1336 44.2146 -75.4628 -95.0245 44.1655 
-75.8936 -95.6525 44.3518 -76.3042 -96.0316 44.7398 -76.57 -96.4576 45.0739 
-73.2907 -92.4904 44.3821 -73.2298 -91.997 44.5386 -73.5953 -92.9986 44.3441 
-74.0828 -93.4573 44.4218 -74.5331 -94.0014 44.559 -74.8629 -94.731 44.6589 
-75.1955 -95.4463 44.7615 -75.5776 -96.0317 44.9181 -75.9084 -96.5783 45.0836 
-76.1745 -97.0306 45.338 -79.4799 -91.7583 44.4207 -79.3795 -91.3099 43.7399 
-79.5887 -91.0727 44.3452 -79.3283 -90.5987 43.6757 -79.8161 -90.3702 44.3496 
-78.9874 -91.0057 43.1846 -79.1447 -90.0619 43.8953 -79.8274 -89.8739 44.8325 
-78.7403 -90.3838 43.3189 -78.3413 -90.9769 42.9694 -78.7806 -89.8181 44.7005 
-79.3989 -89.849 45.7009 -78.3036 -90.1509 43.8 -78.0447 -90.5906 43.4223 
-77.5723 -91.0754 43.1823 -78.3966 -89.9111 45.6693 -78.818 -90.2151 46.4059 
-77.9064 -90.0495 44.6773 -77.594 -90.5725 44.0066 -77.2537 -90.8906 43.7788 
-76.5949 -91.0922 43.5072 -78.1119 -90.1556 46.3784 -78.3981 -90.5183 46.959 
-77.6382 -89.9144 45.5905 -77.1155 -90.2741 44.7925 -76.7208 -90.8035 44.3518 
-76.2233 -90.9269 44.0283 -75.5138 -91.108 43.5796 -77.833 -90.2186 47.1276 
-78.1119 -90.4821 47.7312 -77.3337 -89.8735 46.4269 -76.6567 -89.8508 45.6895 
-76.1069 -90.3078 45.1235 -75.7174 -90.7105 44.6821 -75.2097 -90.8776 44.1419 
-74.5707 -91.2468 43.649 -77.5412 -90.0353 48.1074 -77.8882 -90.2494 48.6624 
-76.9816 -89.8845 47.3823 -76.2846 -89.8451 46.5894 -75.7232 -90.0157 45.9528 
-75.3431 -90.3598 45.4767 -74.9323 -90.6749 44.9413 -74.4087 -90.975 44.3678 
-73.8802 -91.4162 44.0097 -77.3252 -89.8368 49.0471 -77.7183 -90.0634 49.4759 
-76.7495 -89.8452 48.3899 -76.0997 -90.0547 47.5317 -75.6456 -90.2411 46.7426 
[...]
CELL_DATA 2000
SCALARS Distance double
LOOKUP_TABLE default
136.163 136.253 136.01 135.65 136.38 136.121 135.748 135.52 135.167 
136.508 136.255 135.877 135.629 135.248 135.014 134.613 136.651 136.384 
136.012 135.758 135.365 135.103 134.685 134.43 134.021 136.89 136.558 
136.181 135.902 135.514 135.231 134.801 134.517 134.096 133.856 133.469 
137.184 136.82 136.382 136.074 135.664 135.384 134.945 134.645 134.198 
133.932 133.518 133.295 132.881 137.316 137.037 136.516 136.225 135.75 
135.497 135.044 134.772 134.31 134.035 133.603 133.351 132.928 132.681 
132.258 137.13 137.004 136.478 136.269 135.784 135.557 135.114 134.853 
134.399 134.127 133.697 133.448 133.041 132.773 132.357 132.089 131.713 
136.699 136.684 136.218 136.138 135.739 135.595 135.238 134.984 134.565 
134.241 133.798 133.526 133.127 132.89 132.485 132.219 131.815 131.577 
131.245 136.561 137.221 136.808 136.652 137.811 137.443 137.279 136.901 
136.761 138.262 137.94 137.757 137.464 137.328 137.002 136.875 138.717 
138.354 138.142 137.867 137.769 137.522 137.444 137.122 137.022 139.304 
138.891 138.703 138.317 138.243 137.971 137.981 137.701 137.685 137.329 
137.289 139.855 139.513 139.333 138.936 138.813 138.507 138.526 138.272 
138.329 138.022 138.046 137.67 137.634 140.125 139.931 139.649 139.394 
139.148 138.965 138.922 138.79 138.847 138.64 138.658 138.371 138.317 
137.956 137.785 140.077 140.009 139.658 139.493 139.177 139.088 139.037 
139.055 139.159 139.083 139.076 138.859 138.712 138.457 138.217 137.905 
137.562 139.82 139.849 139.59 139.468 139.244 139.118 139.138 139.146 
139.349 139.343 139.391 139.198 138.981 138.712 138.39 138.15 137.785 
137.509 137.092 139.569 139.299 139.468 139.461 139.144 139.325 139.443 
139.41 139.315 138.873 139.188 139.475 139.549 139.611 139.411 139.359 
138.38 138.79 139.067 139.436 139.605 139.706 139.716 139.57 139.552 
137.796 138.182 138.281 138.756 138.851 139.331 139.368 139.652 139.574 
139.619 139.464 137.136 137.525 137.535 137.905 137.897 138.369 138.417 
138.937 138.917 139.269 139.062 139.211 138.921 136.317 136.776 136.812 
137.181 137.166 137.513 137.549 137.983 138.046 138.461 138.357 138.606 
138.333 138.498 138.237 135.407 135.886 135.922 136.388 136.384 136.793 
136.776 137.186 137.197 137.624 137.569 137.888 137.675 137.87 137.604 
137.805 137.594 134.555 134.968 134.955 135.43 135.414 135.902 135.853 
136.319 136.239 136.706 136.602 137.038 136.857 137.175 136.908 137.141 
136.876 137.128 136.902 136.385 136.356 136.091 135.563 136.368 136.082 
135.527 135.273 134.807 136.265 136.043 135.475 135.245 134.761 134.577 
134.198 135.993 135.837 135.25 135.11 134.622 134.503 134.089 133.969 
133.552 135.673 135.532 134.952 134.828 134.309 134.243 133.767 133.732 
133.236 133.176 132.632 135.304 135.205 134.646 134.535 133.995 133.894 
133.343 133.282 132.718 132.706 132.131 132.116 131.551 134.855 134.794 
134.226 134.178 133.639 133.567 133.006 132.884 132.304 132.199 131.647 
131.59 131.066 131.042 130.565 134.438 134.354 133.8 133.733 133.213 
133.167 132.654 132.565 132.031 131.893 131.369 131.229 130.731 130.625 
130.163 130.127 129.734 134.115 134.011 133.519 133.391 132.912 132.8 
132.331 132.23 131.739 131.629 131.122 131 130.492 130.363 129.88 
129.787 129.376 129.359 129.032 136.251 135.449 135.842 135.825 134.741 
135.093 135.174 135.512 135.507 134.13 134.442 134.559 134.938 135.04 
135.271 135.146 133.435 133.784 133.793 134.257 134.342 134.747 134.633 
134.801 134.474 132.516 132.944 132.818 133.319 133.279 133.84 133.716 
134.105 133.779 133.979 133.628 131.487 131.936 131.802 132.256 132.156 
132.678 132.581 133.059 132.841 133.173 132.89 133.145 132.915 130.533 
130.945 130.879 131.286 131.243 131.657 131.634 132.035 131.946 132.273 
132.089 132.375 132.178 132.463 132.27 129.711 130.072 130.038 130.432 
130.44 130.843 130.877 131.252 131.236 131.528 131.392 131.626 131.424 
131.691 131.496 131.791 131.602 129.01 129.314 129.267 129.63 129.624 
130.04 130.063 130.497 130.493 130.858 130.743 130.986 130.768 130.972 
130.76 131.018 130.866 131.155 131.036 128.625 128.09 128.519 128.857 
127.53 127.97 128.319 128.778 129.182 127.017 127.424 127.763 128.219 
128.621 129.125 129.59 126.543 126.934 127.246 127.667 128.021 128.519 
128.971 129.537 130.006 126.031 126.45 126.768 127.172 127.479 127.907 
128.284 128.85 129.31 129.9 130.273 125.501 125.926 126.293 126.716 
127.044 127.403 127.723 128.177 128.599 129.166 129.562 130.079 130.331 
125.069 125.427 125.804 126.245 126.623 126.999 127.329 127.694 128.088 
128.539 128.955 129.41 129.715 130.12 130.345 124.842 125.074 125.41 
125.782 126.173 126.573 126.942 127.322 127.709 128.109 128.519 128.913 
129.261 129.608 129.884 130.217 130.481 124.828 124.947 125.263 125.494 
125.883 126.191 126.592 126.943 127.341 127.728 128.119 128.511 128.866 
129.223 129.537 129.852 130.141 130.437 130.703 128.403 127.915 128.045 
127.837 127.463 127.525 127.254 127.436 127.249 127.148 127.082 126.746 
126.856 126.663 126.874 126.747 127.058 126.845 126.477 126.443 126.288 
126.398 126.307 126.446 126.324 127.174 126.871 126.491 126.31 126.165 
126.177 126.136 126.157 125.992 126.02 125.82 127.362 127.064 126.655 
126.385 126.106 126.067 125.967 126.024 125.834 125.78 125.459 125.471 
125.257 127.492 127.25 126.818 126.521 126.071 125.926 125.653 125.734 
125.544 125.587 125.277 125.204 124.907 124.949 124.835 127.556 127.347 
126.935 126.648 126.182 125.902 125.554 125.451 125.283 125.295 125.127 
125.066 124.833 124.747 124.599 124.645 124.646 127.627 127.412 127.054 
126.786 126.429 126.112 125.85 125.572 125.454 125.268 125.195 125.041 
124.91 124.762 124.631 124.553 124.52 124.567 124.644 133.796 133.136 
133.4 133.227 132.391 132.708 132.565 132.82 132.633 131.604 131.925 
131.799 132.122 131.948 132.204 132.014 130.875 131.143 130.982 131.316 
131.139 131.448 131.22 131.529 131.356 130.191 130.425 130.222 130.511 
130.309 130.603 130.343 130.651 130.426 130.821 130.697 129.517 129.725 
129.497 129.76 129.559 129.819 129.574 129.804 129.551 129.865 129.715 
130.152 130.068 128.933 129.078 128.831 129.042 128.848 129.102 128.912 
129.125 128.9 129.096 128.91 129.215 129.125 129.541 129.482 128.451 
128.558 128.324 128.453 128.255 128.44 128.261 128.48 128.278 128.485 
128.27 128.499 128.353 128.674 128.621 129.013 129 127.978 128.102 
127.895 128.011 127.817 127.933 127.72 127.863 127.616 127.811 127.557 
127.809 127.613 127.929 127.845 128.217 128.225 128.617 128.665 134.02 
134.127 133.833 133.345 134.271 133.946 133.425 133.118 132.592 134.404 
134.099 133.577 133.229 132.682 132.352 131.829 134.406 134.18 133.679 
133.382 132.852 132.5 131.965 131.624 131.13 134.335 134.136 133.662 
133.431 132.93 132.649 132.119 131.788 131.252 130.936 130.448 134.309 
134.093 133.647 133.415 132.938 132.684 132.169 131.886 131.345 131.042 
130.519 130.24 129.776 134.272 134.083 133.649 133.429 132.964 132.705 
132.196 131.914 131.39 131.104 130.598 130.316 129.854 129.592 129.189 
134.167 134.018 133.584 133.405 132.94 132.718 132.213 131.949 131.432 
131.154 130.658 130.388 129.926 129.674 129.254 129.031 128.668 134.04 
133.903 133.481 133.311 132.852 132.659 132.182 131.957 131.472 131.21 
130.715 130.441 129.953 129.708 129.257 129.055 128.655 128.492 128.152 
133.852 133.353 133.502 133.267 132.747 132.931 132.666 132.853 132.607 
132.089 132.275 132.009 132.216 131.976 132.181 131.948 131.464 131.613 
131.337 131.547 131.336 131.558 131.34 131.526 131.274 130.9 131.013 
130.69 130.866 130.623 130.883 130.657 130.892 130.601 130.798 130.5 
130.368 130.478 130.14 130.24 129.918 130.126 129.852 130.124 129.803 
130.046 129.7 129.958 129.685 129.793 129.943 129.625 129.713 129.349 
129.455 129.138 129.327 129.034 129.239 128.92 129.138 128.869 129.158 
128.974 129.182 129.336 129.008 129.148 128.775 128.89 128.552 128.694 
128.44 128.591 128.354 128.478 128.243 128.416 128.245 128.514 128.397 
128.675 128.744 128.382 128.492 128.111 128.255 127.92 128.102 127.865 
128.061 127.884 128.026 127.831 127.924 127.732 127.88 127.749 127.997 
127.915 128.374 127.809 128.033 127.972 127.266 127.431 127.278 127.595 
127.624 126.804 126.906 126.721 126.928 126.914 127.294 127.445 126.41 
126.483 126.301 126.437 126.4 126.671 126.82 127.215 127.453 125.964 
126.074 125.871 126.025 125.979 126.218 126.344 126.675 126.921 127.303 
127.538 125.425 125.574 125.37 125.557 125.532 125.799 125.955 126.261 
126.499 126.827 127.059 127.389 127.54 124.961 125.066 124.925 125.08 
125.101 125.366 125.581 125.902 126.16 126.451 126.641 126.921 127.05 
127.34 127.439 124.716 124.733 124.656 124.743 124.794 124.998 125.2 
125.518 125.753 126.073 126.207 126.485 126.56 126.845 126.952 127.256 
127.418 124.659 124.606 124.543 124.577 124.631 124.762 124.909 125.144 
125.298 125.588 125.671 125.97 126.031 126.344 126.48 126.803 127.02 
127.331 127.58 128.503 128.569 128.381 128.027 128.526 128.415 128.105 
127.905 127.521 128.357 128.255 127.91 127.87 127.535 127.386 127.029 
128.275 128.026 127.542 127.528 127.233 127.28 127.03 126.928 126.63 
128.416 128.002 127.419 127.208 126.914 126.953 126.851 126.882 126.698 
126.549 126.219 128.714 128.242 127.725 127.315 127.05 126.86 126.822 
126.775 126.68 126.573 126.267 126.062 125.658 129.103 128.637 128.248 
127.808 127.619 127.271 127.21 126.951 126.816 126.592 126.284 126.065 
125.674 125.472 125.134 129.552 129.104 128.774 128.383 128.223 127.9 
127.782 127.441 127.199 126.831 126.485 126.161 125.823 125.555 125.283 
125.064 124.874 129.999 129.585 129.246 128.883 128.666 128.398 128.21 
127.919 127.605 127.226 126.855 126.481 126.206 125.872 125.69 125.369 
125.224 124.948 124.844 128.84 129.371 129.012 128.863 130.051 129.582 
129.378 129.017 128.834 130.892 130.337 130.1 129.609 129.419 129.005 
128.798 131.785 131.214 130.993 130.433 130.259 129.736 129.606 129.083 
128.89 132.696 132.116 131.934 131.382 131.254 130.692 130.582 130.019 
129.893 129.287 129.086 133.63 133.046 132.872 132.34 132.262 131.73 
131.626 131.041 130.887 130.302 130.122 129.512 129.314 134.513 133.977 
133.8 133.278 133.209 132.725 132.658 132.091 131.912 131.293 131.095 
130.509 130.34 129.756 129.622 135.289 134.836 134.705 134.204 134.137 
133.663 133.632 133.111 132.973 132.341 132.123 131.496 131.329 130.76 
130.648 130.095 130.023 135.977 135.603 135.552 135.108 135.075 134.605 
134.585 134.086 133.991 133.399 133.19 132.545 132.331 131.742 131.603 
131.078 130.989 130.487 130.43 136.335 136.844 136.389 135.981 137.356 
136.919 136.512 136.028 135.567 137.637 137.328 136.882 136.503 136.021 
135.569 135.057 137.598 137.43 136.93 136.691 136.17 135.88 135.339 
134.969 134.401 137.414 137.303 136.816 136.611 136.07 135.867 135.344 
135.105 134.536 134.201 133.582 137.223 137.133 136.698 136.492 135.961 
135.742 135.256 135.059 134.555 134.27 133.671 133.317 132.711 136.978 
136.929 136.492 136.35 135.819 135.634 135.154 134.993 134.541 134.299 
133.74 133.397 132.803 132.471 131.952 136.647 136.625 136.176 136.091 
135.577 135.445 134.965 134.858 134.423 134.267 133.743 133.458 132.872 
132.559 132.049 131.774 131.335 136.3 136.272 135.863 135.79 135.35 
135.222 134.781 134.656 134.233 134.107 133.626 133.419 132.873 132.61 
132.113 131.865 131.448 131.194 130.791 136.001 135.489 135.687 135.577 
134.996 135.188 135.058 135.249 135.095 134.406 134.636 134.477 134.707 
134.53 134.728 134.541 133.788 133.99 133.781 134.038 133.836 134.098 
133.881 134.127 133.943 133.239 133.393 133.148 133.334 133.104 133.348 
133.122 133.392 133.168 133.472 133.282 132.639 132.824 132.561 132.732 
132.477 132.663 132.434 132.649 132.425 132.675 132.462 132.765 132.563 
131.997 132.178 131.906 132.104 131.837 132.04 131.788 131.997 131.759 
131.973 131.751 131.99 131.793 132.063 131.876 131.47 131.584 131.329 
131.469 131.212 131.381 131.116 131.321 131.056 131.285 131.028 131.28 
131.057 131.331 131.142 131.417 131.237 131.045 131.133 130.905 130.987 
130.742 130.826 130.561 130.682 130.413 130.581 130.312 130.529 130.282 
130.558 130.352 130.662 130.475 130.775 130.582 130.104 129.993 129.815 
129.371 129.862 129.691 129.26 129.118 128.777 129.802 129.589 129.155 
128.998 128.634 128.555 128.257 129.876 129.613 129.205 128.96 128.555 
128.386 128.004 127.955 127.594 130.019 129.752 129.382 129.097 128.694 
128.396 127.963 127.739 127.344 127.249 126.889 130.199 129.927 129.558 
129.281 128.885 128.583 128.155 127.832 127.439 127.174 126.854 126.663 
126.355 130.418 130.141 129.767 129.457 129.042 128.746 128.329 128.039 
127.646 127.367 127.028 126.779 126.457 126.224 125.892 130.606 130.363 
130.014 129.695 129.284 128.94 128.533 128.218 127.829 127.547 127.167 
126.927 126.552 126.332 125.948 125.741 125.394 130.732 130.521 130.196 
129.931 129.561 129.232 128.852 128.497 128.12 127.768 127.381 127.062 
126.671 126.401 126.013 125.78 125.418 125.24 124.965 139.927 140.26 
140.138 140.133 140.267 140.333 140.337 140.259 140.187 139.93 140.148 
140.111 140.233 140.162 140.194 140.065 139.456 139.74 139.761 139.914 
139.865 139.991 139.906 139.948 139.717 138.976 139.302 139.469 139.644 
139.687 139.754 139.722 139.748 139.594 139.52 139.2 138.474 138.825 
138.988 139.306 139.377 139.583 139.568 139.641 139.516 139.443 139.168 
138.999 138.634 137.929 138.27 138.307 138.674 138.651 139.037 138.999 
139.325 139.225 139.343 139.08 138.977 138.586 138.412 138.003 137.315 
137.656 137.648 137.958 137.893 138.219 138.166 138.561 138.525 138.863 
138.698 138.796 138.432 138.325 137.879 137.732 137.314 136.656 136.997 
137.017 137.328 137.311 137.567 137.527 137.801 137.777 138.107 138.039 
138.291 138.057 138.099 137.707 137.594 137.167 137.036 136.658 139.674 
139.836 139.588 139.25 139.944 139.718 139.324 139.104 138.81 139.904 
139.79 139.389 139.149 138.757 138.638 138.377 139.565 139.636 139.281 
139.149 138.703 138.552 138.191 138.134 137.811 139.001 139.169 138.864 
138.904 138.508 138.439 138.044 137.948 137.564 137.484 137.101 138.417 
138.583 138.302 138.415 138.092 138.145 137.802 137.771 137.365 137.256 
136.816 136.742 136.369 137.803 137.995 137.718 137.859 137.547 137.667 
137.357 137.438 137.062 137.021 136.544 136.449 136.005 135.998 135.661 
137.13 137.347 137.068 137.247 136.911 137.07 136.735 136.901 136.555 
136.635 136.196 136.146 135.675 135.629 135.256 135.294 135.003 136.493 
136.687 136.43 136.595 136.269 136.407 136.052 136.221 135.888 136.056 
135.687 135.747 135.323 135.301 134.923 134.924 134.635 134.675 134.421 
139.478 139.097 139.238 139.16 138.734 138.874 138.792 138.936 138.894 
138.363 138.547 138.463 138.567 138.431 138.614 138.549 137.782 138.092 
138.005 138.191 137.993 138.129 137.974 138.211 138.125 137.046 137.399 
137.297 137.593 137.391 137.605 137.402 137.634 137.523 137.777 137.647 
136.353 136.67 136.583 136.856 136.681 136.92 136.727 136.995 136.854 
137.149 137 137.243 137.003 135.685 136.006 135.945 136.204 136.046 
136.249 136.061 136.3 136.151 136.438 136.266 136.532 136.27 136.497 
136.171 135.012 135.327 135.259 135.556 135.401 135.632 135.424 135.649 
135.476 135.739 135.564 135.804 135.543 135.743 135.423 135.624 135.291 
134.397 134.661 134.567 134.85 134.705 134.958 134.752 134.986 134.785 
135.049 134.869 135.12 134.882 135.065 134.76 134.918 134.611 134.784 
134.486 128.959 129.439 129.285 129.525 130.028 129.827 130.069 129.921 
130.236 130.633 130.442 130.694 130.522 130.867 130.729 131.099 131.219 
131.061 131.348 131.173 131.529 131.395 131.808 131.65 132.014 131.797 
131.663 131.984 131.826 132.174 132.052 132.483 132.373 132.801 132.6 
132.95 132.411 132.268 132.602 132.452 132.785 132.664 133.063 133.004 
133.46 133.368 133.778 133.561 133.891 133.056 132.906 133.245 133.085 
133.421 133.271 133.634 133.546 133.959 133.932 134.352 134.29 134.642 
134.458 134.733 133.633 133.521 133.843 133.717 134.057 133.921 134.285 
134.148 134.519 134.418 134.793 134.754 135.117 135.066 135.362 135.212 
135.445 134.093 134.022 134.31 134.242 134.566 134.506 134.884 134.799 
135.178 135.034 135.375 135.236 135.579 135.499 135.834 135.748 136.017 
135.864 136.083 
POINT_DATA 1002
SCALARS Distance double
LOOKUP_TABLE default
135.779 136.321 136.392 135.862 136.508 135.312 135.996 136.64 135.389 
134.8 136.132 136.756 135.505 134.853 134.188 136.267 136.933 135.639 
134.953 134.252 133.628 136.478 137.261 135.801 135.103 134.349 133.691 
133.092 136.725 137.57 135.944 135.249 134.487 133.76 133.106 132.447 
136.818 137.562 136.007 135.3 134.583 133.861 133.19 132.491 131.836 
136.633 137.196 135.983 135.366 134.679 133.937 133.293 132.641 131.94 
131.365 136.224 136.677 135.798 135.44 134.911 134.108 133.35 132.738 
132.079 131.427 130.944 136.974 137.059 137.63 137.641 138.164 137.139 
138.016 138.607 137.615 137.232 138.441 139.103 137.973 137.723 137.38 
139.13 139.68 138.54 138.221 138.002 137.676 139.73 140.157 139.141 
138.765 138.597 138.389 138.074 139.909 140.313 139.313 138.993 139.013 
138.935 138.652 138.225 139.808 140.114 139.261 138.961 139.161 139.304 
138.991 138.496 137.93 139.628 139.721 139.338 139.136 139.32 139.568 
139.303 138.652 138.025 137.402 139.358 139.42 139.121 139.436 138.877 
139.475 139.252 138.49 139.738 139.623 138.63 138.023 139.319 139.759 
139.769 137.894 137.473 138.32 138.918 139.431 139.522 137.21 136.725 
137.503 137.872 138.466 138.856 138.809 136.393 135.833 136.832 137.165 
137.614 138.061 138.154 138.035 135.434 134.957 135.94 136.382 136.782 
137.197 137.449 137.422 137.355 134.515 134.192 134.919 135.384 135.795 
136.141 136.47 136.655 136.648 136.627 135.851 135.795 135.043 135.804 
134.982 134.397 135.672 134.951 134.352 133.847 135.371 134.71 134.207 
133.709 133.102 135.085 134.404 133.815 133.281 132.718 132.077 134.735 
134.12 133.463 132.752 132.121 131.554 131.024 134.265 133.68 133.119 
132.437 131.725 131.096 130.548 130.123 133.88 133.255 132.703 132.141 
131.517 130.867 130.231 129.712 129.369 133.638 133.039 132.444 131.847 
131.233 130.617 129.991 129.419 128.998 128.73 135.453 134.784 135.286 
134.148 134.748 135.091 133.358 133.876 134.406 134.403 132.371 132.725 
133.239 133.506 133.428 131.361 131.674 132.071 132.435 132.584 132.658 
130.452 130.826 131.23 131.604 131.801 131.884 131.994 129.643 130.021 
130.476 130.926 131.181 131.195 131.195 131.301 128.932 129.228 129.624 
130.089 130.467 130.583 130.528 130.56 130.739 128.213 128.413 127.644 
127.853 127.094 128.693 127.326 126.631 128.11 129.059 126.846 126.153 
127.565 128.389 129.465 126.353 125.591 127.106 127.768 128.698 129.771 
125.837 125.079 126.69 127.337 128.068 129.034 129.884 125.367 124.762 
126.208 126.971 127.68 128.517 129.314 129.949 125.095 124.67 125.772 
126.54 127.316 128.132 128.91 129.561 130.144 125.079 124.737 125.616 
126.263 126.973 127.736 128.492 129.199 129.852 130.427 128.268 127.655 
127.823 127.098 127.47 127.01 126.68 127.296 126.461 126.519 126.562 
127.319 126.191 126.215 126.19 126.734 127.471 126.18 126.127 126.068 
125.719 126.987 127.629 126.244 125.897 125.881 125.556 125.105 127.136 
127.713 126.332 125.638 125.428 125.326 124.952 124.667 127.194 127.763 
126.479 125.737 125.288 125.134 124.923 124.626 124.508 127.28 127.84 
126.689 126.124 125.692 125.384 125.069 124.74 124.529 124.526 133.558 
133.005 132.845 132.275 132.054 132.416 131.448 131.31 131.675 131.753 
130.672 130.645 130.826 130.918 130.991 129.959 129.972 130.036 130.067 
130.047 130.242 129.246 129.335 129.287 129.355 129.301 129.307 129.596 
128.654 128.813 128.595 128.664 128.721 128.68 128.743 129.037 128.21 
128.333 128.111 128.061 128.059 128.057 128.074 128.243 128.585 134.31 
133.632 134.44 133.767 134.608 132.877 133.923 134.682 133.043 132.126 
133.935 134.601 133.181 132.334 131.438 133.872 134.532 133.179 132.432 
131.593 130.728 133.876 134.52 133.195 132.442 131.635 130.808 130.023 
133.855 134.444 133.219 132.48 131.667 130.869 130.118 129.422 133.756 
134.302 133.143 132.458 131.703 130.927 130.178 129.484 128.859 133.652 