# vtk DataFile Version 4.0
vtk output
ASCII
DATASET POLYDATA
POINTS 1002 float
-77.7936 -105.322 54.0653 -77.786 -105.596 54.6412 -78.2306 -105.344 54.5903 
-78.2851 -105.077 53.8981 -78.6525 -105.083 54.4093 -77.797 -105.051 53.2121 
-78.8505 -104.972 53.4104 -79.4292 -104.936 53.9295 -78.4335 -104.948 52.7782 
-77.7437 -104.831 52.1175 -79.7369 -105.049 52.6674 -80.5351 -104.996 53.2736 
-79.1491 -104.949 52.1303 -78.5482 -104.734 51.6942 -77.6637 -104.404 51.41 
-80.7584 -105.17 52.0421 -81.5101 -105.08 52.6694 -79.9631 -104.964 51.5373 
-79.3397 -104.548 51.3397 -78.6015 -104.119 51.2673 -77.6968 -103.762 51.0829 
-81.6788 -105.084 51.6319 -82.3677 -105.025 52.1384 -80.84 -104.889 51.1678 
-80.0746 -104.364 51.0166 -79.4145 -103.821 51.0425 -78.649 -103.519 50.8017 
-77.8496 -103.473 50.2491 -82.6106 -104.827 51.2906 -83.3374 -104.995 51.695 
-81.8083 -104.625 50.9029 -80.9649 -104.256 50.6147 -80.1854 -103.771 50.5242 
-79.4232 -103.437 50.2506 -78.6584 -103.419 49.6521 -77.9815 -103.545 49.0211 
-83.4726 -104.602 51.0465 -84.1318 -104.929 51.4316 -82.7198 -104.269 50.7214 
-81.9298 -104.026 50.2906 -81.1071 -103.791 49.943 -80.2442 -103.498 49.6224 
-79.3845 -103.333 49.1249 -78.6549 -103.352 48.6049 -78.0566 -103.348 48.2158 
-84.0482 -104.319 50.8807 -84.5033 -104.534 51.291 -83.401 -103.983 50.5745 
-82.6826 -103.704 50.123 -81.9373 -103.561 49.614 -81.116 -103.387 49.215 
-80.2201 -103.156 48.8061 -79.3838 -103.04 48.3773 -78.7059 -102.989 48.0324 
-78.1043 -102.881 47.734 -84.4044 -103.866 50.6431 -84.6442 -103.885 51.1208 
-83.9298 -103.717 50.2789 -83.297 -103.484 49.8428 -82.6162 -103.289 49.332 
-81.873 -103.125 48.9156 -81.0387 -102.918 48.5506 -80.1943 -102.773 48.1433 
-79.4344 -102.732 47.7663 -78.7629 -102.67 47.4451 -78.114 -102.565 47.1326 
-78.148 -105.689 55.2099 -78.5834 -105.489 55.1158 -78.6171 -105.823 55.9596 
-79.0899 -105.599 55.7827 -79.0663 -105.863 56.837 -79.1226 -105.136 54.9429 
-79.4873 -105.435 56.5502 -79.2869 -105.589 57.6632 -79.7063 -105.127 55.5559 
-80.0814 -104.88 54.529 -79.7522 -105.003 57.3126 -79.5462 -105.179 58.4431 
-80.1265 -105.009 56.2115 -80.6255 -104.923 55.1216 -81.1521 -104.9 53.9102 
-80.3692 -104.8 58.0818 -80.2231 -105.055 59.1722 -80.6838 -104.911 56.9026 
-81.1216 -105.089 55.7177 -81.5998 -104.983 54.5136 -82.0535 -104.946 53.2614 
-81.2209 -104.973 58.6751 -80.9937 -105.078 59.6017 -81.5143 -104.964 57.5468 
-81.8908 -105.14 56.3433 -82.2448 -105.103 55.1916 -82.6661 -104.967 53.993 
-83.0973 -105.022 52.7163 -81.7072 -104.917 58.9369 -81.4349 -104.796 59.7252 
-81.9879 -104.873 57.9273 -82.4144 -104.854 56.7981 -82.8542 -104.845 55.7852 
-83.3165 -104.889 54.8425 -83.8305 -105.097 53.6358 -84.1388 -105.196 52.3361 
-81.8699 -104.361 59.0711 -81.6457 -104.233 59.789 -82.0429 -104.343 58.144 
-82.3885 -104.27 57.0691 -82.9014 -104.254 56.0986 -83.4812 -104.448 55.3657 
-84.1194 -104.884 54.5138 -84.578 -105.183 53.2976 -84.6559 -105.015 52.1019 
-82.0335 -103.712 59.2055 -81.8308 -103.693 59.8538 -82.164 -103.661 58.3759 
-82.4 -103.644 57.3922 -82.832 -103.713 56.4236 -83.368 -103.92 55.6412 
-83.9724 -104.334 54.9428 -84.5123 -104.717 54.048 -84.7471 -104.698 52.9496 
-84.7198 -104.315 51.9217 -82.1898 -103.257 59.4683 -82.4059 -103.194 58.7525 
-82.6043 -102.86 58.9565 -82.9625 -102.901 58.2373 -83.1324 -102.434 58.4851 
-82.6657 -103.189 57.8957 -83.6459 -102.609 57.8462 -83.7596 -101.788 58.1794 
-83.4675 -103.082 57.5206 -83.0878 -103.356 57.0088 -84.2659 -101.93 57.5486 
-84.2438 -101.027 57.7527 -84.2493 -102.822 57.2866 -84.0486 -103.336 56.8585 
-83.5835 -103.582 56.1577 -84.5881 -101.097 56.9335 -84.3458 -100.489 56.8991 
-84.6581 -102.036 56.8189 -84.7041 -102.919 56.5788 -84.4644 -103.422 55.954 
-84.0459 -103.807 55.2746 -84.6128 -100.569 55.9198 -84.2499 -100.19 55.8404 
-84.7145 -101.223 55.8175 -84.7809 -102.109 55.6756 -84.9046 -102.832 55.3487 
-84.7219 -103.363 54.7732 -84.4691 -104.014 54.3503 -84.5584 -100.244 54.8822 
-84.2097 -99.8735 54.8928 -84.6984 -100.727 54.6578 -84.7047 -101.426 54.4005 
-84.9202 -102.162 54.2841 -85.0941 -102.71 54.0766 -84.8879 -103.254 53.7365 
-84.7056 -103.99 53.3956 -84.4591 -99.8686 53.9626 -84.1456 -99.4871 54.04 
-84.6731 -100.326 53.7075 -84.788 -100.877 53.3791 -85.0023 -101.541 53.2672 
-85.2954 -102.175 53.3038 -85.2472 -102.638 53.1617 -84.9122 -103.09 52.8192 
-84.7368 -103.703 52.3864 -84.2392 -99.5021 53.0579 -83.9409 -99.183 53.1814 
-84.5273 -99.9173 52.8639 -84.839 -100.349 52.6426 -85.1787 -100.834 52.5477 
-85.4869 -101.488 52.5837 -85.544 -102.169 52.4957 -85.2617 -102.618 52.1731 
-84.9287 -102.949 51.7614 -84.7619 -103.398 51.3928 -84.7685 -103.328 50.4416 
-85.0021 -102.952 50.5455 -84.9974 -102.95 49.5505 -85.2476 -102.664 50.8097 
-85.2967 -102.639 49.5421 -85.0895 -102.508 48.6973 -85.5246 -102.225 51.2248 
-85.5016 -102.21 49.7173 -85.41 -102.031 48.6802 -85.0116 -101.853 48.0204 
-85.6751 -101.411 51.6399 -85.6001 -101.392 50.1275 -85.5828 -101.322 48.7694 
-85.4202 -101.211 47.9323 -84.9741 -101.243 47.2655 -85.546 -100.608 51.8395 
-85.5669 -100.46 50.63 -85.5034 -100.467 49.1081 -85.5555 -100.501 47.9166 
-85.3568 -100.59 47.0842 -84.8398 -100.737 46.5127 -85.1469 -100.164 51.8464 
-85.34 -99.9456 50.9093 -85.2701 -99.8677 49.5805 -85.2754 -99.8891 48.2023 
-85.3001 -99.9058 47.1397 -84.9747 -99.974 46.4623 -84.3543 -100.048 46.1502 
-84.632 -99.8514 51.866 -84.8778 -99.7098 50.9325 -84.9772 -99.5303 49.8843 
-84.9133 -99.3887 48.6532 -84.9463 -99.2296 47.5048 -84.8532 -99.0766 46.6915 
-84.3818 -99.0784 46.2425 -83.7332 -99.1856 45.9889 -84.1843 -99.4868 51.9847 
-84.3195 -99.4351 50.9511 -84.5686 -99.2111 50.0294 -84.6314 -98.8883 49.0497 
-84.6324 -98.584 47.983 -84.6956 -98.2683 47.0683 -84.4736 -98.0704 46.4566 
-83.8842 -98.1629 46.0486 -83.255 -98.4123 45.7035 -83.8389 -99.1636 52.1657 
-83.8352 -99.1589 51.1046 -84.0655 -98.9528 50.2011 -84.2846 -98.5256 49.3863 
-84.3308 -98.1201 48.4627 -84.4193 -97.7788 47.5073 -84.4556 -97.4376 46.7401 
-84.1012 -97.3067 46.1935 -83.4587 -97.5071 45.7687 -82.8642 -97.8266 45.4263 
-84.5247 -103.378 49.907 -84.6603 -102.976 48.9464 -84.0261 -103.317 49.4029 
-84.622 -102.474 48.097 -84.1426 -102.955 48.3384 -83.4007 -103.164 48.8641 
-84.5033 -101.896 47.397 -84.1368 -102.535 47.4611 -83.5587 -102.907 47.7995 
-82.6836 -102.988 48.4228 -84.4101 -101.35 46.6861 -83.978 -102 46.8078 
-83.5227 -102.588 46.9455 -82.7342 -102.807 47.4086 -81.8113 -102.792 48.0723 
-84.0847 -100.683 46.2143 -83.625 -101.243 46.361 -83.1457 -101.914 46.4316 
-82.5523 -102.495 46.5639 -81.7266 -102.667 47.0209 -80.9067 -102.651 47.6584 
-83.5051 -99.8573 45.9891 -83.0964 -100.354 46.0999 -82.5756 -100.919 46.1922 
-82.1346 -101.681 46.1757 -81.5785 -102.319 46.2369 -80.8217 -102.58 46.6166 
-80.0797 -102.628 47.2295 -83.0019 -99.0741 45.6584 -82.6546 -99.5857 45.7347 
-82.127 -100.083 45.8689 -81.6853 -100.74 45.9473 -81.3299 -101.483 45.9518 
-80.7247 -102.122 46.0051 -79.9586 -102.493 46.31 -79.2956 -102.596 46.8802 
-82.6395 -98.4199 45.2947 -82.3874 -98.9449 45.2891 -81.9268 -99.4967 45.3829 
-81.3879 -100.146 45.4939 -80.9878 -100.74 45.6338 -80.4978 -101.274 45.7852 
-79.7704 -101.869 45.889 -79.0694 -102.327 46.1149 -78.5395 -102.487 46.5932 
-82.2414 -97.6404 45.212 -82.0717 -98.1451 45.0735 -81.3915 -97.2866 45.1418 
-81.1947 -97.7316 45.0448 -80.284 -96.8393 44.8649 -81.7829 -98.7094 45.0625 
-80.0561 -97.293 44.8996 -79.3762 -96.5389 44.1746 -80.837 -98.4181 45.0344 
-81.2283 -99.5021 45.0706 -79.2143 -96.9856 44.5968 -79.0603 -96.3903 43.7736 
-79.7049 -98.0498 45.0346 -80.2388 -99.4205 44.9133 -80.629 -100.262 45.1115 
-78.7238 -96.7935 44.6319 -78.7262 -96.1866 44.2522 -78.8105 -97.7222 45.0464 
-79.1659 -99.1029 44.952 -79.6186 -100.134 44.9436 -80.0823 -100.641 45.4067 
-77.8931 -96.7014 44.9419 -77.7606 -96.0187 44.971 -77.9315 -97.6127 45.0546 
-78.1941 -98.7998 45.0462 -78.6245 -99.7856 45.0869 -79.0123 -100.36 45.4477 
-79.3937 -101.032 45.7568 -76.7571 -96.762 45.076 -76.6265 -96.1141 45.2909 
-76.8441 -97.6934 44.9413 -77.1197 -98.7267 44.9485 -77.6427 -99.5298 45.1867 
-78.0768 -100.115 45.6147 -78.3373 -100.844 45.8504 -78.6631 -101.707 45.8742 
-75.8723 -96.8953 45.1605 -75.8066 -96.3884 45.4085 -75.9824 -97.7299 44.9863 
-76.1868 -98.6828 44.9554 -76.6047 -99.3896 45.1626 -77.1015 -99.9784 45.581 
-77.4179 -100.796 45.8448 -77.6795 -101.664 45.8557 -78.0859 -102.229 46.045 
-75.2199 -96.9922 45.4193 -75.1615 -96.6205 45.6059 -75.4189 -97.6416 45.3676 
-75.654 -98.4931 45.4099 -75.8845 -99.2063 45.4816 -76.1756 -99.8163 45.6212 
-76.4646 -100.697 45.7595 -76.7278 -101.66 45.7993 -77.1166 -102.222 45.9773 
-77.6357 -102.419 46.4879 -82.7241 -97.1409 45.4999 -81.883 -96.9103 45.3866 
-82.4004 -96.5481 45.6846 -81.4861 -96.1768 45.5099 -81.8907 -96.1298 45.862 
-80.8277 -96.4767 45.1768 -81.1954 -95.5619 45.5076 -81.4535 -95.7975 46.158 
-80.498 -95.592 45.0063 -79.7466 -96.0176 44.4253 -81.0747 -95.0931 45.8585 
-81.2575 -95.3907 46.8656 -80.4715 -94.8687 44.9697 -79.6483 -95.0665 44.1282 
-79.1831 -95.7921 43.5079 -80.9366 -94.6935 46.839 -80.9985 -95.0803 47.7334 
-80.4779 -94.5076 45.6635 -79.7355 -94.4182 44.5675 -79.2005 -94.869 43.675 
-79.0223 -95.6641 43.5402 -80.4569 -94.5576 47.7648 -80.3834 -95.1984 48.2279 
-80.2113 -94.3744 46.8329 -79.6207 -94.3732 45.6797 -79.0099 -94.4064 44.6515 
-78.6529 -94.8318 44.1597 -78.3502 -95.4583 44.4675 -79.6632 -94.879 48.1808 
-79.6333 -95.5894 48.471 -79.5741 -94.4511 47.6755 -79.1934 -94.5067 46.8212 
-78.5696 -94.5409 45.7992 -77.9556 -94.4989 45.0292 -77.5498 -94.8197 44.9365 
-77.1699 -95.4369 45.227 -78.956 -95.2984 48.5426 -79.0913 -95.822 48.8948 
-78.8302 -94.7379 48.1947 -78.5601 -94.5655 47.6702 -78.0283 -94.6251 46.8754 
-77.295 -94.5046 45.9609 -76.7315 -94.5208 45.4369 -76.4836 -95.0313 45.4642 
-76.2219 -95.7549 45.5381 -78.5593 -95.4183 49.189 -78.8021 -95.8081 49.5227 
-78.3226 -94.9159 48.867 -78.0035 -94.5975 48.4439 -77.5167 -94.5371 47.8567 
[...]
CELL_DATA 2000
SCALARS Distance double
LOOKUP_TABLE default
140.953 140.964 140.821 140.494 141.017 140.836 140.557 140.357 139.973 
141.294 140.991 140.718 140.464 140.136 139.845 139.399 141.709 141.367 
141.038 140.693 140.332 140.03 139.616 139.277 138.802 142.029 141.747 
141.39 141.024 140.573 140.226 139.781 139.473 139.024 138.693 138.268 
142.315 142.011 141.657 141.319 140.858 140.477 140 139.65 139.206 
138.887 138.478 138.19 137.858 142.631 142.295 141.882 141.549 141.103 
140.75 140.297 139.928 139.486 139.114 138.687 138.37 138.009 137.785 
137.485 142.722 142.508 142.034 141.745 141.263 140.954 140.499 140.195 
139.755 139.415 138.955 138.599 138.176 137.903 137.562 137.368 137.046 
142.465 142.424 141.994 141.818 141.346 141.081 140.613 140.34 139.9 
139.619 139.164 138.84 138.386 138.079 137.703 137.459 137.141 136.922 
136.6 141.255 141.802 141.436 141.276 142.431 142.026 141.819 141.434 
141.303 142.854 142.573 142.343 141.994 141.84 141.533 141.551 143.034 
142.833 142.655 142.447 142.347 142.091 142.096 141.863 141.949 143.447 
143.098 143.038 142.796 142.863 142.623 142.675 142.405 142.446 142.223 
142.266 144.128 143.739 143.739 143.387 143.525 143.242 143.361 143.033 
143.077 142.76 142.832 142.561 142.629 144.479 144.339 144.25 144.039 
143.985 143.823 143.818 143.639 143.657 143.423 143.53 143.256 143.392 
143.036 143.059 144.339 144.398 144.19 144.181 143.905 143.92 143.705 
143.765 143.686 143.758 143.849 143.855 143.977 143.789 143.743 143.369 
143.155 144.061 144.121 143.89 143.899 143.603 143.617 143.389 143.461 
143.379 143.543 143.621 143.854 143.952 144.069 143.953 143.815 143.466 
143.18 142.787 143.887 143.598 143.726 143.669 143.415 143.493 143.44 
143.488 143.412 143.288 143.406 143.495 143.451 143.42 143.333 143.295 
142.993 143.263 143.483 143.597 143.717 143.584 143.546 143.346 143.356 
142.417 142.826 143.021 143.408 143.6 143.794 143.805 143.691 143.598 
143.465 143.564 141.717 142.14 142.243 142.715 142.827 143.324 143.371 
143.656 143.534 143.589 143.528 143.636 143.79 141.062 141.438 141.5 
141.882 141.906 142.379 142.446 142.939 142.941 143.249 143.143 143.366 
143.341 143.657 143.703 140.418 140.786 140.833 141.171 141.175 141.529 
141.606 142.051 142.208 142.605 142.642 142.873 142.772 143.017 142.929 
143.299 143.2 139.739 140.103 140.132 140.494 140.517 140.86 140.937 
141.329 141.514 141.949 142.11 142.407 142.367 142.501 142.342 142.524 
142.395 142.702 142.576 142.171 142.047 141.949 141.671 142.063 141.897 
141.633 141.505 141.201 142.088 141.944 141.602 141.458 141.09 140.962 
140.541 141.801 141.818 141.36 141.288 140.796 140.743 140.282 140.209 
139.771 141.226 141.351 140.886 140.878 140.319 140.309 139.832 139.858 
139.446 139.432 139.042 140.65 140.754 140.377 140.384 139.882 139.825 
139.346 139.363 138.962 139.02 138.612 138.648 138.21 140.168 140.224 
139.872 139.92 139.499 139.454 138.969 138.918 138.46 138.489 138.038 
138.104 137.619 137.689 137.196 139.739 139.752 139.361 139.424 139.037 
139.064 138.595 138.545 138.028 137.994 137.501 137.516 137.026 137.061 
136.574 136.637 136.188 139.366 139.337 138.933 138.944 138.576 138.606 
138.196 138.158 137.666 137.586 137.101 137.05 136.599 136.56 136.111 
136.089 135.67 135.706 135.349 142.125 141.604 141.836 141.745 141.086 
141.324 141.203 141.393 141.169 140.424 140.73 140.609 140.844 140.631 
140.766 140.475 139.691 140.011 139.938 140.229 140.089 140.255 139.985 
140.069 139.767 138.989 139.299 139.231 139.55 139.472 139.72 139.502 
139.601 139.261 139.343 139.02 138.173 138.558 138.418 138.782 138.637 
139.009 138.819 139.065 138.739 138.836 138.469 138.572 138.262 137.177 
137.634 137.448 137.849 137.601 138.027 137.816 138.237 138.005 138.261 
137.949 138.059 137.754 137.854 137.602 136.185 136.615 136.465 136.843 
136.608 136.966 136.762 137.187 137.051 137.449 137.261 137.506 137.242 
137.379 137.118 137.242 137.024 135.349 135.702 135.609 135.942 135.798 
136.086 135.943 136.26 136.168 136.535 136.414 136.743 136.526 136.781 
136.524 136.723 136.481 136.659 136.454 134.903 134.238 134.78 135.133 
133.333 134.031 134.444 135.005 135.337 132.29 133.04 133.552 134.259 
134.698 135.216 135.534 131.539 132.082 132.611 133.331 133.886 134.547 
134.964 135.433 135.75 131.192 131.522 131.939 132.485 133.031 133.713 
134.197 134.787 135.11 135.604 135.902 130.826 131.167 131.449 131.89 
132.324 132.919 133.394 133.99 134.324 134.855 135.123 135.675 135.971 
130.321 130.672 130.9 131.335 131.683 132.229 132.661 133.229 133.595 
134.095 134.386 134.884 135.197 135.732 136.03 129.951 130.189 130.426 
130.786 131.136 131.598 131.997 132.513 132.891 133.404 133.749 134.232 
134.567 135.035 135.354 135.814 136.065 129.757 129.91 130.14 130.419 
130.801 131.159 131.563 131.939 132.294 132.73 133.096 133.602 133.975 
134.458 134.771 135.199 135.45 135.856 136.069 134.636 134.037 134.213 
133.938 133.425 133.556 133.163 133.369 132.971 132.901 132.924 132.416 
132.524 132.013 132.254 131.866 132.616 132.488 131.931 131.837 131.249 
131.318 130.934 131.241 131.122 132.528 132.327 131.82 131.552 130.972 
130.764 130.362 130.464 130.418 130.769 130.856 132.449 132.275 131.842 
131.587 131.11 130.763 130.326 130.133 129.969 130.151 130.212 130.565 
130.561 132.352 132.186 131.78 131.609 131.231 130.986 130.575 130.262 
129.884 129.783 129.624 129.871 129.845 130.181 130.095 132.328 132.13 
131.734 131.55 131.193 131.046 130.684 130.458 129.978 129.717 129.306 
129.314 129.202 129.487 129.523 129.795 129.783 132.374 132.162 131.791 
131.56 131.192 131.009 130.66 130.482 130.032 129.753 129.247 129.06 
128.834 128.968 129.076 129.346 129.478 129.643 129.658 139.045 138.44 
138.692 138.609 137.814 138.085 138.001 138.273 138.229 137.114 137.422 
137.331 137.64 137.564 137.882 137.818 136.355 136.672 136.549 136.901 
136.807 137.162 137.056 137.396 137.282 135.58 135.887 135.728 136.073 
135.967 136.349 136.259 136.611 136.493 136.824 136.723 134.774 135.088 
134.911 135.244 135.107 135.485 135.389 135.78 135.675 136.035 135.926 
136.283 136.211 133.975 134.272 134.096 134.42 134.262 134.616 134.47 
134.865 134.722 135.141 135.011 135.437 135.338 135.756 135.695 133.282 
133.516 133.344 133.626 133.472 133.783 133.617 133.95 133.769 134.148 
133.999 134.444 134.359 134.829 134.788 135.237 135.234 132.722 132.892 
132.71 132.927 132.768 133.03 132.877 133.152 132.977 133.261 133.101 
133.461 133.389 133.842 133.855 134.331 134.381 134.835 134.914 139.209 
139.213 139.011 138.594 139.16 138.981 138.556 138.371 137.946 139.073 
138.907 138.465 138.293 137.848 137.686 137.246 138.921 138.794 138.353 
138.191 137.736 137.565 137.115 136.958 136.509 138.699 138.603 138.196 
138.073 137.638 137.463 136.997 136.82 136.36 136.206 135.745 138.517 
138.389 137.987 137.89 137.483 137.353 136.892 136.711 136.231 136.057 
135.583 135.425 134.945 138.406 138.251 137.824 137.687 137.263 137.155 
136.71 136.576 136.106 135.942 135.467 135.282 134.793 134.615 134.146 
138.258 138.138 137.716 137.556 137.114 136.957 136.507 136.367 135.919 
135.792 135.348 135.188 134.716 134.506 134.029 133.848 133.442 138.037 
137.952 137.55 137.434 137.02 136.86 136.426 136.23 135.784 135.612 
135.194 135.057 134.633 134.452 133.994 133.781 133.363 133.205 132.875 
137.77 137.117 137.385 137.25 136.396 136.678 136.574 136.878 136.764 
135.792 135.993 135.91 136.21 136.148 136.398 136.22 135.371 135.487 
135.364 135.587 135.508 135.77 135.597 135.798 135.558 134.85 135.042 
134.816 135.023 134.829 135.093 134.891 135.134 134.891 135.115 134.923 
133.998 134.328 134.029 134.326 134.038 134.335 134.101 134.394 134.177 
134.432 134.235 134.502 134.349 133.078 133.385 133.133 133.446 133.207 
133.502 133.295 133.597 133.416 133.704 133.508 133.785 133.595 133.893 
133.719 132.411 132.597 132.442 132.67 132.551 132.775 132.637 132.863 
132.691 132.941 132.73 133.009 132.794 133.104 132.927 133.244 133.101 
131.959 132.081 131.95 132.125 132.039 132.237 132.133 132.31 132.13 
132.284 132.037 132.231 132 132.284 132.131 132.464 132.371 132.691 
132.622 131.676 131.185 131.494 131.646 130.652 130.943 131.084 131.478 
131.696 130.276 130.442 130.523 130.874 131.125 131.552 131.792 130.004 
130.149 130.212 130.42 130.645 130.998 131.262 131.627 131.788 129.582 
129.833 129.919 130.153 130.315 130.599 130.797 131.106 131.223 131.539 
131.633 129.198 129.393 129.449 129.724 129.793 130.15 130.253 130.616 
130.683 130.981 131.043 131.379 131.552 129.174 129.177 129.172 129.249 
129.186 129.454 129.489 129.931 130.051 130.439 130.561 130.866 131.066 
131.414 131.71 129.372 129.297 129.251 129.123 128.94 128.926 128.889 
129.184 129.416 129.841 130.132 130.463 130.735 131.032 131.35 131.679 
132.007 129.555 129.49 129.429 129.264 129.043 128.847 128.745 128.801 
129.076 129.397 129.845 130.155 130.52 130.768 131.092 131.376 131.707 
132.009 132.304 131.641 131.485 131.418 131.144 131.46 131.279 130.996 
130.927 130.677 131.703 131.335 130.986 130.828 130.61 130.528 130.336 
132.191 131.683 131.184 130.856 130.542 130.454 130.249 130.214 130.008 
132.69 132.193 131.589 131.09 130.589 130.37 130.105 130.073 129.833 
129.804 129.548 133.084 132.654 132.078 131.511 130.925 130.503 130.221 
130.043 129.895 129.718 129.483 129.343 129.181 133.46 133.059 132.585 
132.035 131.501 130.958 130.681 130.365 130.335 130.043 129.898 129.515 
129.326 129.133 129.146 133.843 133.471 133.098 132.614 132.191 131.628 
131.314 130.91 130.835 130.575 130.479 130.094 129.844 129.46 129.346 
129.226 129.329 134.191 133.855 133.543 133.158 132.841 132.357 132.029 
131.55 131.314 131.004 130.856 130.591 130.377 130.015 129.816 129.531 
129.524 129.442 129.55 131.949 132.581 132.096 131.856 133.513 132.887 
132.626 132.079 131.889 134.467 133.872 133.618 132.998 132.814 132.253 
132.192 135.282 134.759 134.55 134.004 133.846 133.277 133.201 132.677 
132.698 136.203 135.62 135.472 134.926 134.831 134.299 134.207 133.678 
133.615 133.159 133.15 137.265 136.675 136.568 135.949 135.881 135.31 
135.247 134.676 134.558 134.026 133.943 133.523 133.494 138.144 137.713 
137.634 137.08 136.971 136.391 136.311 135.737 135.625 135.017 134.88 
134.338 134.281 133.856 133.847 138.755 138.47 138.453 138.049 137.958 
137.435 137.315 136.771 136.643 136.071 135.899 135.317 135.183 134.688 
134.646 134.229 134.214 139.266 139.032 139.097 138.803 138.825 138.385 
138.315 137.769 137.63 137.049 136.845 136.267 136.058 135.555 135.439 
135.024 134.981 134.587 134.552 139.586 140.127 139.715 139.46 140.702 
140.286 140.018 139.603 139.261 141.106 140.766 140.453 140.12 139.761 
139.317 138.811 141.289 141.018 140.606 140.38 139.997 139.711 139.182 
138.727 138.092 141.337 141.116 140.64 140.402 139.962 139.782 139.289 
138.975 138.3 137.873 137.208 141.28 141.131 140.7 140.431 139.957 
139.726 139.281 139.024 138.424 138.014 137.314 136.934 136.362 141.174 
141.065 140.699 140.483 140.017 139.76 139.31 139.063 138.555 138.174 
137.53 137.08 136.505 136.167 135.747 141.091 140.978 140.626 140.456 
140 139.777 139.285 139.075 138.58 138.307 137.741 137.345 136.789 
136.399 135.971 135.657 135.305 140.994 140.896 140.537 140.38 139.932 
139.722 139.223 139.01 138.516 138.296 137.799 137.517 137.027 136.694 
136.261 135.927 135.544 135.236 134.876 140.81 140.319 140.504 140.329 
139.719 139.928 139.712 139.929 139.689 139.071 139.263 139.02 139.26 
139.03 139.243 138.989 138.44 138.586 138.319 138.56 138.378 138.609 
138.38 138.547 138.289 137.926 137.987 137.675 137.859 137.687 137.964 
137.796 137.981 137.71 137.85 137.581 137.587 137.576 137.248 137.285 
137.049 137.266 137.13 137.383 137.17 137.312 137.022 137.151 136.879 
137.26 137.288 136.978 136.949 136.637 136.701 136.496 136.708 136.53 
136.738 136.468 136.609 136.304 136.444 136.159 136.798 136.896 136.573 
136.627 136.272 136.311 135.996 136.117 135.858 136.058 135.769 135.971 
135.628 135.82 135.492 135.691 135.409 136.309 136.383 136.032 136.124 
135.761 135.854 135.502 135.604 135.268 135.401 135.058 135.226 134.869 
135.07 134.736 134.965 134.688 134.932 134.706 134.276 134.221 134.036 
133.638 134.233 133.997 133.597 133.424 133.01 134.343 134.041 133.614 
133.406 132.994 132.771 132.274 134.565 134.207 133.76 133.469 133.033 
132.766 132.249 131.98 131.5 134.836 134.477 134.052 133.694 133.265 
132.895 132.387 132.008 131.505 131.265 130.932 135.08 134.751 134.348 
134.01 133.603 133.218 132.768 132.308 131.839 131.415 131.038 130.795 
130.505 135.325 134.997 134.61 134.29 133.892 133.544 133.116 132.726 
132.316 131.889 131.516 131.088 130.736 130.396 130.069 135.625 135.282 
134.938 134.594 134.237 133.856 133.43 133.038 132.63 132.298 131.956 
131.6 131.227 130.791 130.407 130.026 129.766 135.962 135.63 135.33 
134.981 134.674 134.274 133.889 133.426 133.006 132.601 132.256 131.942 
131.604 131.245 130.845 130.444 130.121 129.824 129.69 144.122 144.351 
144.194 144.052 144.454 144.385 144.168 143.992 143.752 144.175 144.361 
144.224 144.1 143.822 143.649 143.423 143.642 143.98 144.075 144.133 
143.986 143.798 143.582 143.379 143.139 143.28 143.539 143.739 143.938 
143.951 143.942 143.798 143.627 143.398 143.113 142.732 143.015 143.24 
143.293 143.534 143.488 143.707 143.587 143.688 143.468 143.349 142.946 
142.614 142.077 142.5 142.803 142.683 142.948 142.756 143.055 142.893 
143.207 143.02 143.18 142.804 142.688 142.114 141.835 141.26 141.84 
142.134 141.99 142.236 142.041 142.295 142.155 142.453 142.326 142.579 
142.304 142.369 141.877 141.738 141.156 140.957 140.46 141.286 141.505 
141.408 141.599 141.478 141.674 141.585 141.812 141.713 141.928 141.726 
141.849 141.499 141.464 141.005 140.837 140.374 140.196 139.82 143.99 
143.924 143.934 143.776 143.671 143.783 143.671 143.654 143.393 143.335 
143.481 143.384 143.463 143.206 143.152 142.781 142.912 143.065 142.878 
143.051 142.747 142.822 142.416 142.427 142.027 142.34 142.494 142.156 
142.387 142.035 142.221 141.803 141.921 141.502 141.596 141.193 141.676 
141.821 141.42 141.601 141.252 141.455 141.11 141.271 140.9 141.012 
140.618 140.705 140.304 140.985 141.159 140.842 140.958 140.642 140.755 
140.434 140.585 140.264 140.417 140.073 140.161 139.795 139.849 139.518 
140.284 140.506 140.308 140.47 140.219 140.274 139.898 139.945 139.546 
139.714 139.401 139.606 139.323 139.423 139.134 139.174 138.92 139.661 
139.861 139.717 139.943 139.768 139.882 139.523 139.484 139.001 139.018 
138.669 138.885 138.706 138.939 138.746 138.841 138.584 138.624 138.373 
143.886 143.693 143.748 143.62 143.277 143.457 143.338 143.447 143.347 
142.668 142.924 142.78 143.015 142.92 143.143 143.093 141.993 142.28 
142.12 142.364 142.247 142.568 142.535 142.838 142.763 141.23 141.598 
141.473 141.707 141.542 141.838 141.793 142.169 142.113 142.405 142.226 
140.356 140.794 140.738 141.048 140.89 141.149 141.055 141.403 141.35 
141.683 141.521 141.772 141.54 139.559 139.943 139.937 140.294 140.196 
140.482 140.371 140.685 140.616 140.933 140.795 141.049 140.844 141.084 
140.884 138.939 139.234 139.226 139.545 139.474 139.769 139.654 139.97 
139.883 140.215 140.097 140.36 140.174 140.403 140.218 140.459 140.269 
138.383 138.653 138.612 138.891 138.804 139.069 138.937 139.227 139.118 
139.456 139.356 139.664 139.508 139.755 139.573 139.807 139.626 139.847 
139.632 132.131 132.628 132.47 132.771 133.353 133.089 133.452 133.293 
133.728 134.275 133.937 134.276 134.055 134.49 134.322 134.702 135.07 
134.825 135.074 134.862 135.216 135.065 135.421 135.225 135.513 135.575 
135.466 135.703 135.556 135.859 135.73 136.09 135.933 136.266 136.042 
136.394 136.042 135.941 136.279 136.149 136.489 136.345 136.726 136.599 
136.998 136.822 137.199 136.995 137.394 136.684 136.531 136.946 136.794 
137.143 136.967 137.279 137.182 137.57 137.512 137.903 137.767 138.099 
137.931 138.233 137.394 137.243 137.646 137.502 137.8 137.592 137.763 
137.626 137.901 137.942 138.353 138.373 138.715 138.578 138.804 138.627 
138.823 137.998 137.89 138.226 138.134 138.397 138.207 138.323 138.086 
138.254 138.205 138.604 138.711 139.148 139.133 139.394 139.202 139.35 
139.149 139.316 
POINT_DATA 1002
SCALARS Distance double
LOOKUP_TABLE default
140.661 141.081 141.118 140.686 141.089 140.137 140.737 141.229 140.25 
139.534 141.011 141.647 140.409 139.753 138.91 141.447 142.038 140.66 
139.929 139.169 138.33 141.759 142.294 140.968 140.09 139.324 138.58 
137.896 141.983 142.672 141.233 140.374 139.538 138.758 138.097 137.585 
142.231 142.992 141.434 140.644 139.873 139.048 138.258 137.675 137.197 
142.303 142.872 141.57 140.786 140.068 139.324 138.494 137.778 137.233 
136.707 142.099 142.424 141.582 140.887 140.166 139.467 138.702 137.965 
137.367 136.825 136.269 141.568 141.623 142.216 142.242 142.837 141.593 
142.642 143.086 142.148 141.781 142.775 143.243 142.552 142.345 142.165 
143.278 143.824 143.064 142.976 142.708 142.469 144.118 144.444 143.824 
143.691 143.42 143.108 142.923 144.457 144.538 144.177 143.958 143.809 
143.746 143.741 143.516 144.203 144.278 143.913 143.628 143.53 143.721 
144.082 144.113 143.602 143.884 144.022 143.585 143.313 143.227 143.381 
143.762 144.015 143.733 143.067 143.755 143.541 143.499 143.442 143.307 
143.34 143.471 143.089 143.574 143.349 143.231 142.663 143.749 143.83 
143.463 142.588 142.003 143.246 143.805 143.781 143.552 141.831 141.318 
142.313 142.924 143.385 143.438 143.597 141.167 140.702 141.505 141.905 
142.512 142.927 143.067 143.362 140.49 140.063 140.844 141.179 141.737 
142.376 142.625 142.624 142.803 139.757 139.399 140.15 140.56 141.072 
141.735 142.222 142.257 142.147 142.238 141.853 141.757 141.404 141.79 
141.355 140.845 141.789 141.231 140.687 140.093 141.448 140.848 140.313 
139.847 139.375 140.872 140.342 139.77 139.415 139.076 138.676 140.319 
139.94 139.367 138.905 138.569 138.192 137.764 139.795 139.502 139.057 
138.484 137.994 137.551 137.114 136.711 139.312 138.977 138.635 138.095 
137.506 137.006 136.521 136.088 135.768 138.943 138.545 138.209 137.746 
137.159 136.639 136.155 135.659 135.264 135.016 141.557 141.012 141.041 
140.335 140.48 140.373 139.607 139.874 139.915 139.67 138.917 139.17 
139.373 139.221 138.894 138.08 138.259 138.484 138.602 138.395 138.121 
137.057 137.208 137.338 137.628 137.789 137.665 137.477 136.076 136.263 
136.353 136.595 136.932 137.065 136.996 136.882 135.263 135.489 135.644 
135.833 136.078 136.233 136.283 136.293 136.27 134.431 134.647 133.638 
133.809 132.554 134.878 132.758 131.56 134.09 135.126 131.93 131.129 
133.146 134.426 135.341 131.509 130.94 132.38 133.572 134.595 135.396 
131.055 130.487 131.784 132.81 133.803 134.576 135.399 130.478 130 
131.17 132.097 133.077 133.907 134.678 135.516 130.091 129.765 130.713 
131.528 132.365 133.231 134.112 134.914 135.632 129.876 129.632 130.454 
131.237 131.925 132.594 133.464 134.35 135.052 135.668 134.462 133.746 
133.902 133.02 133.352 132.724 132.401 132.95 131.829 131.487 132.113 
132.786 131.281 130.64 130.679 132.085 132.715 131.264 130.374 130.075 
130.5 132.027 132.606 131.416 130.653 129.955 129.881 130.258 131.928 
132.524 131.387 130.892 130.183 129.518 129.477 129.802 131.938 132.523 
131.335 130.86 130.301 129.454 128.949 129.184 129.586 132.027 132.573 
131.408 130.835 130.288 129.509 128.781 128.774 129.27 129.58 138.795 
138.34 138.186 137.729 137.529 137.936 137.009 136.806 137.257 137.502 
136.203 136.057 136.438 136.728 136.941 135.403 135.28 135.581 135.883 
136.165 136.373 134.584 134.459 134.749 134.993 135.293 135.567 135.84 
133.775 133.691 133.929 134.109 134.31 134.565 134.904 135.273 133.084 
133.072 133.176 133.311 133.43 133.569 133.864 134.311 134.78 139.436 
138.804 139.402 138.74 139.34 138.125 138.642 139.239 138.014 137.407 
138.503 139.023 137.917 137.277 136.664 138.286 138.791 137.802 137.196 
136.521 135.898 138.093 138.67 137.584 137.064 136.42 135.755 135.098 
137.993 138.556 137.387 136.819 136.248 135.654 134.995 134.289 137.867 
138.352 137.29 136.667 136.035 135.475 134.918 134.235 133.565 137.638 