# vtk DataFile Version 4.0
vtk output
ASCII
DATASET POLYDATA
POINTS 1002 float
-80.099 -103.172 54.6828 -80.236 -103.193 55.1694 -80.7785 -103.064 54.8439 
-80.6751 -102.972 54.1327 -81.3931 -102.939 54.2396 -79.9804 -102.945 53.8341 
-81.3526 -102.855 53.366 -82.0004 -102.662 53.5515 -80.5976 -102.746 53.1843 
-79.8677 -102.579 52.8285 -81.96 -102.596 52.7083 -82.5693 -102.32 52.9844 
-81.258 -102.646 52.465 -80.453 -102.454 52.2081 -79.6866 -102.293 51.8302 
-82.4469 -102.218 52.1861 -83.2052 -102.156 52.3763 -81.7533 -102.344 51.8748 
-81.0342 -102.373 51.5043 -80.1885 -102.264 51.1623 -79.3754 -102.146 50.7309 
-82.9718 -101.925 51.5589 -83.8002 -101.91 51.685 -82.1212 -101.896 51.3508 
-81.486 -102.056 50.8598 -80.7318 -102.138 50.4392 -79.8248 -102.011 50.1258 
-78.9736 -101.812 49.7791 -83.44 -101.528 50.9948 -84.0427 -101.289 51.2577 
-82.5428 -101.49 50.8639 -81.8433 -101.572 50.4283 -81.2023 -101.741 49.9185 
-80.319 -101.664 49.6664 -79.416 -101.43 49.4495 -78.6086 -101.228 49.1979 
-83.6609 -100.934 50.6903 -84.0513 -100.608 51.1036 -82.9303 -101.024 50.4889 
-82.1781 -101.053 50.1727 -81.5326 -101.172 49.6781 -80.7154 -101.146 49.3766 
-79.8271 -100.97 49.1924 -79.0659 -100.862 48.9002 -78.3332 -100.787 48.6211 
-83.8126 -100.413 50.3869 -84.1916 -100.183 50.8572 -83.2056 -100.532 50.0908 
-82.4753 -100.559 49.8349 -81.8036 -100.627 49.4214 -81.0291 -100.634 49.0517 
-80.1663 -100.539 48.8196 -79.4531 -100.552 48.4902 -78.8045 -100.631 48.1053 
-78.0786 -100.586 47.8511 -84.057 -100.061 49.9269 -84.4669 -99.9262 50.4207 
-83.4638 -100.135 49.5906 -82.7328 -100.156 49.3557 -82.0712 -100.222 48.9967 
-81.3892 -100.282 48.5631 -80.565 -100.239 48.2642 -79.8249 -100.275 47.9677 
-79.2297 -100.453 47.5615 -78.5654 -100.523 47.2431 -77.8076 -100.4 47.1031 
-80.7269 -103.046 55.4067 -81.3444 -103.02 55.1195 -81.266 -102.974 55.8761 
-81.8895 -102.896 55.6268 -81.708 -102.865 56.6194 -81.9235 -102.758 54.5974 
-82.2866 -102.588 56.2902 -81.9887 -102.55 57.2913 -82.3887 -102.434 55.1598 
-82.4584 -102.303 53.9901 -82.6175 -102.233 56.8306 -82.2724 -102.197 57.7497 
-82.8464 -102.178 55.7412 -82.9207 -102.035 54.5578 -83.1013 -102.095 53.395 
-83.0716 -102.054 57.3212 -82.6889 -102.025 58.177 -83.415 -102.081 56.2182 
-83.4961 -101.941 55.0516 -83.5958 -101.889 53.9282 -83.8221 -101.987 52.716 
-83.5767 -101.87 57.8467 -83.1086 -101.793 58.4821 -83.9345 -101.872 56.7481 
-84.0074 -101.66 55.4176 -83.9658 -101.404 54.363 -84.0923 -101.37 53.3002 
-84.2049 -101.402 52.1204 -83.9112 -101.404 58.1427 -83.3558 -101.247 58.5176 
-84.2094 -101.393 57.2351 -84.1944 -101.108 55.7861 -84.1315 -100.705 54.5706 
-84.2194 -100.507 53.712 -84.3027 -100.535 52.7594 -84.2342 -100.603 51.8231 
-84.0022 -100.743 58.1447 -83.4196 -100.537 58.4302 -84.3195 -100.813 57.4328 
-84.2824 -100.616 56.1262 -84.2928 -100.251 54.8011 -84.6234 -100.004 53.8615 
-84.8513 -99.9692 53.0747 -84.6772 -100.033 52.3231 -84.386 -100.12 51.6082 
-83.9473 -100.1 58.051 -83.4112 -99.9071 58.357 -84.3559 -100.257 57.4069 
-84.4915 -100.245 56.3216 -84.6503 -100.06 55.1652 -85.2567 -99.8801 54.1776 
-85.9123 -99.8245 53.2586 -85.8649 -99.8374 52.498 -85.2637 -99.8636 51.9149 
-84.7423 -99.9041 51.2398 -83.7309 -99.4633 58.0856 -84.2353 -99.6298 57.5298 
-84.1017 -98.9459 57.6418 -84.5821 -99.0785 56.7686 -84.479 -98.3422 56.9959 
-84.6367 -99.7718 56.5592 -84.8172 -98.5227 55.9342 -84.6447 -97.8696 56.2012 
-85.0043 -99.2283 55.7407 -84.9757 -99.7883 55.5447 -84.8331 -98.0978 55.1675 
-84.6476 -97.5024 55.3939 -85.1249 -98.7272 55.0442 -85.5639 -99.3015 55.0063 
-85.6844 -99.7157 54.6904 -85.0047 -97.5177 54.5735 -84.7274 -96.936 54.7357 
-85.1444 -98.2627 54.3767 -85.6555 -98.8783 54.332 -86.5163 -99.3283 54.163 
-86.7178 -99.6763 53.6624 -85.2235 -96.756 54.0541 -84.6504 -96.405 54.097 
-85.4571 -97.5156 53.8015 -85.5673 -98.4249 53.516 -86.3151 -98.9943 53.336 
-87.2589 -99.363 53.0089 -87.0735 -99.6867 52.6276 -84.8901 -96.3685 53.3256 
-84.2206 -96.1977 53.301 -85.4654 -96.7647 53.1908 -85.6224 -97.6297 52.8484 
-85.7693 -98.5206 52.5776 -86.4624 -99.0163 52.4048 -86.951 -99.3793 52.1429 
-86.3758 -99.6913 51.9577 -84.2728 -96.2275 52.4933 -83.8038 -95.9556 52.5443 
-84.8467 -96.42 52.4118 -85.3115 -96.8327 52.1825 -85.4606 -97.6334 51.9358 
-85.5877 -98.4047 51.8559 -85.9134 -98.9201 51.747 -85.9617 -99.3489 51.507 
-85.4391 -99.6823 51.3324 -83.979 -95.7822 51.8672 -83.6528 -95.4333 52.0325 
-84.3054 -96.0766 51.6907 -84.717 -96.3101 51.459 -85.0987 -96.7543 51.2098 
-85.2235 -97.4712 51.1225 -85.1829 -98.1827 51.1359 -85.1959 -98.7769 50.9752 
-85.1444 -99.2841 50.6843 -84.8662 -99.6618 50.4893 -84.4179 -99.6956 49.6131 
-84.6306 -99.301 49.7133 -84.0972 -99.2537 49.0439 -84.6484 -98.7334 49.9987 
-84.1785 -98.7001 49.2106 -83.499 -98.6223 48.7813 -84.6949 -98.0455 50.2565 
-84.188 -97.9858 49.4412 -83.6179 -97.9948 48.8425 -82.9201 -98.0162 48.2912 
-84.8985 -97.3189 50.2754 -84.372 -97.2517 49.4959 -83.7577 -97.2866 48.8319 
-83.1506 -97.4408 48.1176 -82.5399 -97.599 47.4399 -84.9136 -96.6207 50.2641 
-84.5354 -96.6129 49.4166 -83.9112 -96.6595 48.7417 -83.2866 -96.7779 48.0178 
-82.7001 -96.9944 47.3192 -82.1178 -97.1352 46.8084 -84.597 -96.0722 50.4899 
-84.3825 -96.0064 49.524 -83.8876 -96.1028 48.7525 -83.2805 -96.1525 48.0581 
-82.6878 -96.2209 47.3775 -82.0891 -96.3358 46.8637 -81.5366 -96.404 46.3825 
-84.2973 -95.675 50.8469 -84.1745 -95.3805 49.8686 -83.7634 -95.4265 48.9724 
-83.225 -95.5387 48.2402 -82.6691 -95.5042 47.4992 -82.0603 -95.4826 46.8585 
-81.5033 -95.5667 46.3451 -81.02 -95.72 45.8155 -84.1124 -95.3009 51.1882 
-84.072 -94.8551 50.284 -83.6698 -94.7691 49.298 -83.171 -94.9127 48.5082 
-82.7436 -94.916 47.7142 -82.1947 -94.8036 46.8232 -81.5992 -94.8467 46.1572 
-81.1077 -95.0891 45.7059 -80.619 -95.3819 45.3253 -83.8315 -94.9745 51.488 
-83.8328 -94.5655 50.6948 -83.4376 -94.4271 49.666 -82.9484 -94.4818 48.7933 
-82.6943 -94.4561 48.0481 -82.3696 -94.2989 47.0452 -81.7916 -94.2507 46.098 
-81.2306 -94.4947 45.6121 -80.7307 -94.8893 45.3593 -80.1735 -95.2015 45.1037 
-83.8717 -99.7549 49.1975 -83.3735 -99.2483 48.7816 -83.0855 -99.759 48.9614 
-82.7138 -98.6064 48.4529 -82.5355 -99.2603 48.4947 -82.3402 -99.8245 48.6349 
-82.2561 -98.0666 47.7096 -82.0417 -98.6827 47.8797 -81.9484 -99.4411 47.891 
-81.7494 -99.9803 48.088 -81.9612 -97.672 46.8599 -81.7306 -98.178 47.0383 
-81.5878 -98.9179 47.1286 -81.4152 -99.6507 47.2282 -81.0198 -100.032 47.6376 
-81.4875 -97.103 46.296 -81.3355 -97.6997 46.3609 -81.1139 -98.3226 46.5334 
-80.9034 -99.0784 46.6704 -80.6069 -99.6978 46.8974 -80.1932 -100.04 47.3639 
-80.886 -96.3675 45.765 -80.7242 -97.0746 45.8457 -80.4605 -97.7099 46.102 
-80.1824 -98.3742 46.3402 -80.0017 -99.146 46.4623 -79.807 -99.8011 46.6285 
-79.5225 -100.213 47.0029 -80.3733 -95.8601 45.2731 -80.1364 -96.4949 45.3803 
-79.8607 -97.1493 45.6604 -79.5531 -97.7377 45.9358 -79.3814 -98.4849 46.0483 
-79.3235 -99.3481 46.078 -79.1562 -99.9921 46.2401 -78.8599 -100.348 46.6493 
-79.8993 -95.599 44.9896 -79.6661 -96.1421 45.0347 -79.4579 -96.7871 45.2025 
-79.2069 -97.326 45.38 -79.0038 -97.917 45.5041 -78.9166 -98.7713 45.5796 
-78.7531 -99.5532 45.7096 -78.4143 -99.9979 46.0172 -78.0576 -100.241 46.5087 
-79.4262 -95.1249 44.7843 -79.2114 -95.6446 44.6772 -78.7176 -94.904 44.1863 
-78.673 -95.742 44.0446 -78.3576 -94.9276 43.5859 -79.1113 -96.3955 44.6664 
-78.3099 -96.1271 43.4064 -78.1997 -95.4766 43.6864 -78.6255 -96.7607 43.8449 
-78.9734 -97.0842 44.6546 -77.817 -96.5982 43.5367 -77.7501 -96.0388 44.3526 
-77.9448 -97.0832 43.2494 -78.3539 -97.3592 43.8784 -78.7453 -97.5546 44.7911 
-77.1337 -96.6646 44.2401 -76.9149 -96.1127 44.7719 -77.0989 -97.0737 43.6827 
-77.3803 -97.4053 43.8373 -78.0267 -97.7835 44.5141 -78.5631 -98.2536 45.1025 
-76.4022 -96.6033 44.8149 -75.968 -96.0885 44.9947 -76.4465 -97.0041 44.4978 
-76.4736 -97.396 44.432 -76.9935 -97.9794 44.783 -77.754 -98.6112 45.1325 
-78.3246 -99.1224 45.3738 -75.5694 -96.9118 45.2592 -75.0963 -96.3319 45.3577 
-75.81 -97.4141 45.0349 -75.8341 -97.8049 44.689 -76.0833 -98.3492 44.6089 
-76.6923 -98.9652 44.9164 -77.3326 -99.3511 45.3132 -77.8797 -99.6424 45.654 
-74.7141 -97.3161 45.5956 -74.3779 -96.6286 45.6665 -74.9768 -98.0093 45.4361 
-75.1073 -98.4682 44.8495 -75.3315 -98.8567 44.1061 -75.7996 -99.3398 44.0171 
-76.3373 -99.6216 44.7114 -76.8432 -99.6867 45.5309 -77.4201 -99.8938 46.0846 
-74.0352 -97.4438 45.7414 -73.8261 -96.7835 45.8553 -74.2213 -98.2271 45.6936 
-74.357 -98.8203 45.2705 -74.6177 -99.1667 44.3199 -75.1079 -99.5493 43.6284 
-75.6456 -99.9083 43.9964 -76.0884 -99.9711 45.0655 -76.5533 -99.9463 46.0228 
-77.1539 -100.125 46.6337 -79.9984 -94.7354 45.1731 -79.1607 -94.4754 44.674 
-79.7847 -94.0368 45.2999 -78.9893 -93.7501 44.6333 -79.6025 -93.3431 45.4285 
-78.4915 -94.1604 43.8727 -78.8762 -93.2457 44.8601 -79.3782 -92.9825 45.6776 
-78.4055 -93.7135 43.9337 -78.2563 -94.3401 43.6244 -78.5589 -92.9934 45.4953 
-78.9597 -92.8592 46.2602 -78.1849 -93.6004 44.606 -78.0687 -94.1831 44.1717 
-78.0524 -95.0138 44.3198 -78.0163 -92.8016 46.3607 -78.4476 -92.8061 47.0396 
-77.6487 -93.4444 45.5791 -77.5377 -94.0961 45.0039 -77.5278 -94.6709 44.8772 
-77.315 -95.4475 44.8876 -77.5451 -92.8308 47.1027 -78.0329 -93.0071 47.651 
-77.0982 -93.2207 46.3796 -76.8878 -93.7826 45.716 -76.7756 -94.2428 45.2579 
-76.5218 -94.8384 45.0141 -76.2059 -95.4965 44.9316 -77.2068 -93.214 47.6737 
-77.6979 -93.4303 48.1574 -76.7253 -93.2553 47.0076 -76.4092 -93.5262 46.2971 
-76.1588 -93.87 45.7188 -75.7945 -94.3819 45.2925 -75.4241 -95.0182 45.1172 
-75.2128 -95.6291 45.1861 -76.8835 -93.5987 48.348 -77.3945 -93.7348 48.8524 
-76.3896 -93.4745 47.7453 -76.0235 -93.5285 47.0321 -75.6852 -93.7614 46.4172 
-75.2497 -94.1658 45.9649 -74.8568 -94.7303 45.6927 -74.6269 -95.3166 45.6306 
-74.4952 -95.9187 45.6494 -76.5979 -93.7234 49.1952 -77.1607 -93.8285 49.6781 
-76.063 -93.5948 48.6598 -75.6793 -93.6426 47.9888 -75.3334 -93.8813 47.3218 
[...]
CELL_DATA 2000
SCALARS Distance double
LOOKUP_TABLE default
140.818 140.846 140.714 140.404 140.822 140.717 140.385 140.205 139.791 
140.713 140.655 140.373 140.207 139.793 139.557 139.104 140.617 140.522 
140.233 140.141 139.76 139.578 139.119 138.882 138.42 140.554 140.425 
140.025 139.928 139.54 139.464 139.042 138.88 138.392 138.169 137.659 
140.303 140.281 139.834 139.707 139.265 139.195 138.806 138.73 138.265 
138.09 137.546 137.337 136.801 139.836 139.922 139.546 139.48 139.018 
138.93 138.513 138.459 138.011 137.893 137.353 137.18 136.651 136.481 
136.017 139.423 139.476 139.168 139.152 138.725 138.657 138.212 138.157 
137.697 137.605 137.083 136.948 136.454 136.329 135.921 135.778 135.397 
139.171 139.152 138.844 138.806 138.407 138.342 137.913 137.851 137.42 
137.321 136.848 136.702 136.252 136.139 135.789 135.695 135.371 135.215 
134.85 140.999 141.366 141.161 141.112 141.807 141.58 141.488 141.225 
141.064 142.119 141.964 141.8 141.552 141.309 141.084 140.899 142.267 
142.17 142.041 141.827 141.593 141.323 141.155 140.957 140.865 142.505 
142.361 142.35 142.129 141.997 141.676 141.52 141.269 141.202 140.996 
140.878 142.793 142.692 142.705 142.509 142.348 142.058 141.765 141.549 
141.308 141.212 140.99 140.863 140.561 142.779 142.878 142.83 142.759 
142.427 142.213 141.693 141.535 141.086 141.075 140.734 140.745 140.408 
140.352 140.008 142.4 142.66 142.599 142.671 142.29 142.118 141.547 
141.337 140.915 140.822 140.601 140.524 140.33 140.202 139.978 139.841 
139.615 141.901 142.183 142.162 142.319 142.055 141.955 141.546 141.31 
141.079 140.894 140.921 140.722 140.761 140.446 140.36 140.021 139.87 
139.602 139.429 141.664 141.355 141.649 141.865 140.934 141.256 141.409 
141.725 141.758 140.406 140.75 140.894 141.231 141.314 141.526 141.413 
139.838 140.179 140.322 140.694 140.904 141.186 141.3 141.315 141.216 
139.268 139.615 139.759 140.125 140.363 140.771 141.077 141.324 141.472 
141.349 141.24 138.647 139.038 139.199 139.573 139.762 140.186 140.461 
140.945 141.216 141.497 141.502 141.367 141.088 137.938 138.367 138.5 
138.941 139.07 139.517 139.66 140.179 140.36 140.912 140.984 141.292 
141.06 140.99 140.577 137.199 137.614 137.68 138.136 138.184 138.678 
138.721 139.256 139.306 139.891 139.911 140.451 140.317 140.617 140.282 
140.312 139.945 136.503 136.871 136.894 137.287 137.267 137.709 137.688 
138.207 138.206 138.77 138.744 139.3 139.2 139.677 139.477 139.783 
139.512 139.644 139.396 139.087 139.064 138.887 138.463 138.884 138.741 
138.232 138.131 137.631 138.566 138.449 137.874 137.799 137.278 137.212 
136.687 138.156 138.078 137.496 137.408 136.869 136.814 136.318 136.258 
135.781 137.653 137.63 137.082 137.027 136.487 136.417 135.909 135.865 
135.404 135.38 134.947 137.156 137.122 136.596 136.579 136.066 136.029 
135.503 135.453 134.939 134.934 134.452 134.488 134.003 136.787 136.696 
136.174 136.107 135.602 135.577 135.077 135.04 134.502 134.452 133.904 
133.909 133.394 133.452 132.968 136.482 136.395 135.889 135.758 135.229 
135.139 134.66 134.622 134.144 134.061 133.51 133.404 132.874 132.859 
132.438 132.489 132.149 136.148 136.104 135.646 135.518 134.989 134.831 
134.332 134.251 133.828 133.758 133.277 133.112 132.571 132.44 132.03 
132.044 131.786 131.84 131.609 138.952 138.358 138.646 138.557 137.549 
137.943 137.851 138.177 138.064 136.605 137.047 136.973 137.383 137.298 
137.653 137.567 135.702 136.096 136.032 136.465 136.447 136.87 136.839 
137.181 137.096 134.906 135.261 135.191 135.567 135.571 136.017 136.051 
136.451 136.381 136.684 136.534 134 134.444 134.37 134.763 134.712 
135.144 135.155 135.616 135.584 135.95 135.82 136.101 135.965 132.968 
133.448 133.384 133.863 133.781 134.238 134.17 134.654 134.626 135.095 
135.05 135.409 135.335 135.609 135.546 132.136 132.476 132.435 132.862 
132.834 133.274 133.212 133.65 133.619 134.11 134.149 134.62 134.636 
134.993 134.945 135.224 135.143 131.569 131.787 131.745 132.053 132.085 
132.439 132.455 132.788 132.787 133.18 133.266 133.744 133.845 134.266 
134.242 134.565 134.444 134.743 134.606 131.206 130.576 131.071 131.393 
130.024 130.491 130.985 131.391 131.776 129.954 130.153 130.681 131.046 
131.5 131.824 132.149 130.221 130.249 130.543 130.776 131.138 131.497 
131.82 132.149 132.453 130.206 130.363 130.414 130.567 130.712 131.05 
131.378 131.789 132.186 132.522 132.942 129.85 130.132 130.229 130.353 
130.426 130.633 130.959 131.366 131.88 132.29 132.774 133.09 133.515 
129.584 129.841 130.141 130.247 130.419 130.474 130.749 131.027 131.512 
131.958 132.422 132.828 133.166 133.536 133.842 129.464 129.715 130.116 
130.285 130.535 130.564 130.725 130.855 131.156 131.534 131.91 132.352 
132.63 133.037 133.276 133.711 133.99 129.312 129.582 129.952 130.236 
130.505 130.636 130.73 130.792 130.926 131.161 131.472 131.843 132.173 
132.518 132.788 133.139 133.433 133.85 134.166 131.039 130.482 130.612 
130.283 129.886 129.981 129.588 129.76 129.586 129.479 129.463 129.139 
129.169 129.05 129.295 129.534 129.281 129.192 128.975 128.938 128.923 
129.004 129.291 129.576 129.969 129.16 129.043 128.839 128.859 128.863 
128.963 129.121 129.368 129.606 129.922 130.017 129.178 128.97 128.72 
128.706 128.641 128.777 128.76 129.004 128.984 129.34 129.288 129.648 
129.554 129.407 129.105 128.827 128.65 128.495 128.5 128.393 128.516 
128.397 128.621 128.529 128.839 128.798 129.152 129.191 129.713 129.406 
129.108 128.831 128.595 128.436 128.283 128.235 128.123 128.162 128.115 
128.257 128.299 128.529 128.633 128.941 129.083 129.97 129.695 129.377 
129.096 128.827 128.603 128.443 128.282 128.18 128.069 128.011 128.018 
128.067 128.205 128.331 128.53 128.66 128.906 129.017 135.818 135.203 
135.463 135.334 134.576 134.826 134.643 134.891 134.674 133.864 134.129 
133.865 134.129 133.865 134.162 133.978 133.12 133.352 133.011 133.258 
132.945 133.289 133.129 133.522 133.453 132.487 132.655 132.323 132.446 
132.119 132.371 132.225 132.64 132.591 133.011 132.904 131.859 132.061 
131.813 131.906 131.633 131.722 131.555 131.806 131.723 132.094 131.965 
132.355 132.187 131.187 131.401 131.179 131.389 131.163 131.314 131.1 
131.252 131.065 131.285 131.119 131.429 131.324 131.693 131.667 130.662 
130.771 130.504 130.698 130.435 130.69 130.425 130.685 130.414 130.641 
130.41 130.668 130.589 130.936 131.011 131.374 131.479 130.286 130.329 
130.031 130.097 129.78 129.924 129.624 129.871 129.614 129.898 129.68 
129.965 129.852 130.218 130.268 130.714 130.834 131.235 131.312 135.959 
135.991 135.757 135.355 136.096 135.821 135.389 135.157 134.755 136.192 
135.943 135.491 135.211 134.753 134.529 134.085 136.205 136.006 135.585 
135.318 134.812 134.527 134.034 133.816 133.364 136.211 136 135.598 
135.381 134.912 134.61 134.08 133.79 133.324 133.117 132.705 136.261 
136.02 135.575 135.364 134.926 134.69 134.203 133.896 133.403 133.122 
132.685 132.476 132.057 136.289 136.063 135.59 135.343 134.865 134.659 
134.207 133.987 133.526 133.25 132.789 132.505 132.064 131.824 131.414 
136.277 136.076 135.63 135.37 134.876 134.619 134.151 133.946 133.519 
133.32 132.898 132.643 132.217 131.921 131.525 131.257 130.921 136.263 
136.069 135.649 135.411 134.95 134.675 134.209 133.943 133.511 133.292 
132.903 132.708 132.335 132.098 131.722 131.445 131.094 130.84 130.538 
136.135 135.665 135.77 135.479 135.092 135.227 134.927 135.075 134.784 
134.551 134.643 134.349 134.498 134.23 134.369 134.069 134.183 134.18 
133.855 133.932 133.641 133.791 133.496 133.636 133.344 133.911 133.876 
133.471 133.453 133.048 133.159 132.826 133.014 132.729 132.92 132.697 
133.509 133.545 133.077 133.038 132.518 132.545 132.148 132.318 132.059 
132.283 132.091 132.315 132.148 132.934 133.034 132.585 132.592 132.08 
132.045 131.621 131.698 131.44 131.632 131.454 131.689 131.524 131.759 
131.57 132.361 132.441 132.064 132.109 131.692 131.656 131.245 131.245 
130.944 131.063 130.835 131.034 130.818 131.073 130.875 131.137 130.94 
131.93 131.946 131.633 131.671 131.334 131.311 130.897 130.867 130.494 
130.571 130.293 130.438 130.18 130.361 130.132 130.391 130.224 130.51 
130.364 131.645 131.195 131.382 131.353 130.711 130.921 130.829 131.075 
131.017 130.093 130.34 130.132 130.411 130.231 130.591 130.494 129.563 
129.713 129.451 129.623 129.347 129.676 129.568 130.026 130.055 129.342 
129.341 129.105 129.065 128.792 128.903 128.865 129.201 129.358 129.754 
129.915 129.229 129.219 128.966 128.852 128.566 128.547 128.554 128.76 
129.003 129.264 129.453 129.707 129.827 129.015 129.056 128.792 128.712 
128.38 128.348 128.285 128.509 128.727 129.014 129.155 129.333 129.361 
129.601 129.725 128.839 128.834 128.645 128.562 128.285 128.183 128.045 
128.179 128.304 128.627 128.746 128.987 128.975 129.171 129.247 129.561 
129.801 128.901 128.772 128.642 128.52 128.34 128.188 128.041 128 
128.019 128.189 128.292 128.525 128.574 128.783 128.876 129.144 129.376 
129.719 129.996 131.818 132.021 131.7 131.34 132.312 131.931 131.502 
131.231 130.877 132.638 132.231 131.765 131.417 130.973 130.704 130.291 
133.012 132.569 132.09 131.693 131.189 130.818 130.314 130.056 129.707 
133.415 132.962 132.455 132.025 131.531 131.092 130.558 130.151 129.754 
129.568 129.424 133.756 133.355 132.849 132.402 131.929 131.488 131.039 
130.548 130.138 129.75 129.547 129.406 129.334 134.05 133.696 133.268 
132.822 132.37 131.924 131.544 131.1 130.753 130.282 129.978 129.631 
129.445 129.289 129.144 134.38 134.042 133.709 133.289 132.887 132.414 
132.024 131.601 131.279 130.875 130.549 130.124 129.811 129.479 129.266 
129.086 128.963 134.718 134.408 134.117 133.756 133.407 132.958 132.554 
132.093 131.731 131.341 131.035 130.647 130.338 129.928 129.685 129.356 
129.261 129.048 129.053 132.233 133.081 132.587 132.492 133.988 133.494 
133.406 132.898 132.807 134.897 134.393 134.318 133.826 133.733 133.221 
133.133 135.944 135.364 135.29 134.75 134.691 134.167 134.1 133.577 
133.524 137.053 136.498 136.459 135.831 135.772 135.173 135.117 134.569 
134.513 133.991 133.932 138.012 137.592 137.638 137.058 136.993 136.335 
136.22 135.601 135.482 134.942 134.82 134.331 134.216 138.808 138.496 
138.598 138.159 138.125 137.538 137.4 136.74 136.56 135.921 135.731 
135.171 135.004 134.538 134.432 139.478 139.234 139.338 139.014 139.013 
138.563 138.464 137.888 137.725 137.058 136.845 136.158 135.949 135.355 
135.224 134.767 134.722 140.055 139.84 139.933 139.675 139.693 139.353 
139.29 138.851 138.724 138.174 137.971 137.31 137.053 136.379 136.18 
135.618 135.528 135.089 135.058 140.428 140.956 140.548 140.269 141.446 
141.045 140.697 140.329 140.01 141.751 141.443 141.039 140.695 140.306 
139.989 139.609 141.732 141.585 141.137 140.899 140.451 140.203 139.788 
139.51 139.065 141.357 141.379 140.931 140.836 140.393 140.246 139.824 
139.614 139.147 138.875 138.33 140.858 140.925 140.563 140.546 140.175 
140.117 139.74 139.594 139.109 138.871 138.296 138.027 137.411 140.623 
140.58 140.348 140.262 139.95 139.879 139.538 139.457 138.999 138.797 
138.214 137.951 137.365 137.094 136.537 140.703 140.579 140.429 140.24 
139.929 139.724 139.339 139.223 138.814 138.671 138.164 137.909 137.371 
137.09 136.602 136.32 135.872 140.802 140.717 140.561 140.398 140.068 
139.788 139.331 139.087 138.674 138.518 138.116 137.905 137.429 137.15 
136.674 136.407 135.98 135.728 135.352 140.728 140.319 140.539 140.458 
139.655 139.983 139.898 140.152 139.926 138.921 139.237 139.128 139.46 
139.261 139.473 139.159 138.209 138.487 138.333 138.657 138.492 138.764 
138.523 138.706 138.466 137.428 137.727 137.504 137.831 137.624 137.961 
137.751 138.04 137.825 138.068 137.874 136.571 136.876 136.615 136.943 
136.688 137.042 136.8 137.171 136.937 137.301 137.071 137.402 137.167 
135.792 136.026 135.762 136.046 135.821 136.135 135.933 136.244 136.022 
136.343 136.104 136.468 136.244 136.613 136.399 135.156 135.312 135.035 
135.252 135.048 135.333 135.208 135.494 135.353 135.569 135.357 135.57 
135.364 135.674 135.521 135.877 135.725 134.587 134.711 134.42 134.589 
134.374 134.617 134.491 134.797 134.695 134.966 134.794 134.969 134.755 
134.936 134.789 135.064 134.973 135.279 135.158 134.778 134.611 134.536 
134.185 134.439 134.351 134.006 133.915 133.497 134.372 134.203 133.804 
133.695 133.253 133.146 132.652 134.346 134.138 133.639 133.475 132.986 
132.873 132.387 132.273 131.813 134.237 134.059 133.531 133.319 132.818 
132.65 132.21 132.059 131.636 131.504 131.116 134.088 133.936 133.494 
133.268 132.818 132.581 132.177 131.973 131.588 131.401 131.005 130.853 
130.463 133.99 133.83 133.466 133.283 132.882 132.644 132.202 131.971 
131.556 131.376 131.004 130.822 130.451 130.245 129.879 134 133.785 
133.408 133.25 132.862 132.679 132.205 131.967 131.489 131.308 130.979 
130.855 130.614 130.393 130.107 129.8 129.511 134.155 133.859 133.454 
133.218 132.847 132.649 132.245 131.986 131.541 131.283 130.979 130.856 
130.741 130.623 130.48 130.186 129.927 129.56 129.315 141.787 142.283 
141.952 141.856 142.7 142.464 142.389 142.112 142.117 142.78 142.786 
142.806 142.646 142.606 142.355 142.267 142.561 142.734 142.871 142.937 
142.899 142.728 142.475 142.265 142.011 142.357 142.507 142.667 142.858 
142.852 142.827 142.496 142.314 141.979 141.887 141.71 142.15 142.291 
142.34 142.568 142.571 142.664 142.407 142.264 141.968 141.865 141.803 
141.74 141.676 141.729 141.916 141.801 142.084 142.066 142.325 142.257 
142.244 142.099 141.966 141.968 141.908 141.939 141.77 141.561 141.252 
141.388 141.19 141.416 141.362 141.729 141.821 142.089 142.136 142.158 
142.156 142.099 142.071 141.971 141.763 141.521 141.135 140.95 140.998 
140.837 140.893 140.804 141.047 141.143 141.55 141.696 142.015 142.029 
142.148 142.017 141.997 141.733 141.599 141.223 141 140.613 141.491 
141.582 141.382 141.141 141.867 141.588 141.336 141.09 140.826 142.058 
141.895 141.638 141.358 141.036 140.75 140.404 141.888 141.932 141.718 
141.586 141.22 140.95 140.531 140.271 139.898 141.591 141.644 141.449 
141.478 141.13 141.004 140.537 140.334 139.915 139.739 139.374 141.404 
141.349 141.04 141.087 140.752 140.766 140.32 140.217 139.742 139.642 
139.234 139.142 138.731 141.159 141.096 140.64 140.639 140.269 140.335 
139.958 139.928 139.44 139.356 138.885 138.862 138.444 138.405 137.985 
140.749 140.734 140.251 140.22 139.83 139.879 139.567 139.579 139.15 
139.04 138.535 138.464 138.051 138.054 137.698 137.668 137.316 140.308 
140.31 139.891 139.848 139.464 139.477 139.177 139.217 138.865 138.785 
138.316 138.175 137.761 137.708 137.408 137.395 137.106 137.058 136.755 
141.419 141.034 141.202 141.154 140.657 140.814 140.738 140.909 140.788 
140.193 140.371 140.253 140.463 140.348 140.501 140.303 139.684 139.846 
139.68 139.91 139.789 140.017 139.849 139.982 139.744 139.176 139.326 
139.117 139.309 139.159 139.409 139.26 139.472 139.247 139.386 139.133 
138.563 138.776 138.553 138.744 138.558 138.78 138.615 138.844 138.631 
138.823 138.559 138.731 138.476 137.852 138.104 137.907 138.143 137.954 
138.178 137.977 138.192 137.962 138.172 137.917 138.113 137.847 138.038 
137.78 137.199 137.417 137.25 137.487 137.318 137.55 137.335 137.539 
137.285 137.494 137.248 137.462 137.212 137.402 137.135 137.323 137.064 
136.637 136.822 136.657 136.865 136.698 136.914 136.702 136.892 136.642 
136.831 136.605 136.814 136.6 136.784 136.53 136.691 136.427 136.613 
136.379 132.295 132.736 132.687 133.119 133.304 133.186 133.578 133.561 
134.016 133.856 133.751 134.1 134.045 134.492 134.48 134.956 134.236 
134.218 134.559 134.547 135.017 135.016 135.546 135.498 136.019 134.523 
134.541 134.931 134.967 135.482 135.544 136.109 136.111 136.608 136.564 
137.043 134.935 134.905 135.369 135.377 135.923 135.992 136.549 136.604 
137.045 137.046 137.423 137.464 137.893 135.492 135.429 135.912 135.884 
136.394 136.426 136.933 136.987 137.401 137.403 137.735 137.753 138.136 
138.235 138.666 136.032 135.994 136.418 136.4 136.806 136.829 137.251 
137.323 137.742 137.766 138.12 138.087 138.44 138.471 138.881 138.977 
139.364 136.45 136.452 136.805 136.808 137.123 137.139 137.477 137.566 
137.99 138.094 138.5 138.501 138.826 138.798 139.136 139.188 139.559 
139.639 139.97 
POINT_DATA 1002
SCALARS Distance double
LOOKUP_TABLE default
140.601 140.882 140.97 140.571 140.999 140.042 140.583 140.886 140.002 
139.33 140.499 140.756 140.039 139.341 138.644 140.314 140.783 139.887 
139.356 138.664 137.954 140.179 140.703 139.584 139.152 138.622 137.892 
137.133 139.964 140.245 139.36 138.852 138.417 137.758 136.987 136.285 
139.558 139.706 139.116 138.58 138.11 137.506 136.795 136.172 135.596 
139.165 139.397 138.782 138.277 137.782 137.2 136.544 136.022 135.569 
135.029 138.895 139.222 138.472 137.968 137.495 136.983 136.362 135.851 
135.494 135.05 134.474 141.146 141.368 141.585 141.788 142.051 141.31 
142.054 142.253 141.561 141.059 142.204 142.347 141.869 141.351 141.058 
142.534 142.637 142.316 141.81 141.402 141.15 142.907 142.838 142.679 
142.051 141.438 141.086 140.738 142.891 142.61 142.694 141.913 141.119 
140.703 140.414 140.075 142.48 142.111 142.429 141.75 140.982 140.645 
140.459 140.119 139.743 141.959 141.634 142.05 141.69 141.201 141.057 
141.065 140.762 140.202 139.669 141.401 141.589 141.078 141.104 140.621 
141.538 140.526 140.075 141.054 141.352 139.938 139.502 140.504 141.155 
141.395 139.407 138.899 139.933 140.654 141.425 141.601 138.81 138.235 
139.382 139.973 140.757 141.468 141.439 138.058 137.522 138.632 139.199 
139.809 140.514 140.971 140.77 137.265 136.81 137.719 138.204 138.761 
139.349 139.869 140.112 139.966 136.539 136.16 136.877 137.205 137.657 
138.202 138.681 139.049 139.271 139.3 138.739 138.623 138.029 138.333 
137.742 137.124 137.967 137.323 136.77 136.168 137.587 136.936 136.349 
135.836 135.341 137.103 136.558 135.967 135.412 134.965 134.535 136.607 
136.078 135.564 134.98 134.427 133.965 133.512 136.278 135.637 135.091 
134.577 133.95 133.337 132.879 132.513 136.031 135.36 134.691 134.199 
133.656 132.926 132.36 132.077 131.859 135.744 135.164 134.444 133.863 
133.421 132.755 132.034 131.696 131.586 131.384 138.305 137.496 137.753 
136.523 136.901 137.24 135.599 135.973 136.469 136.81 134.843 135.131 
135.611 136.074 136.26 133.954 134.315 134.692 135.162 135.516 135.684 
132.88 133.32 133.71 134.109 134.607 135.029 135.294 132.037 132.389 
132.794 133.133 133.616 134.225 134.656 134.886 131.466 131.734 132.134 
132.438 132.792 133.393 133.917 134.153 134.295 130.769 130.979 129.98 
130.515 129.58 131.461 130.367 129.919 131.164 131.877 130.463 130.286 
130.801 131.453 132.132 130.344 129.99 130.439 130.9 131.784 132.643 
130.066 129.495 130.28 130.563 131.416 132.444 133.235 129.963 129.295 
130.397 130.583 131.104 132.017 132.808 133.456 129.888 129.211 130.499 
130.715 130.883 131.483 132.234 132.849 133.524 129.648 129.078 130.322 
130.697 130.781 131.117 131.815 132.472 133.045 133.732 130.967 130.103 
130.38 129.463 129.818 129.2 129.11 129.511 128.846 129.105 128.958 
129.375 128.86 129.063 129.707 128.8 129.307 128.764 128.968 129.335 
129.778 128.806 129.423 128.559 128.603 128.71 128.909 129.177 129.087 
129.711 128.589 128.341 128.237 128.246 128.434 128.784 129.421 130.007 
128.818 128.381 128.129 128.007 128.095 128.371 128.746 129.659 130.247 
129.052 128.613 128.339 128.075 127.956 128.152 128.474 128.763 135.55 
135.096 134.964 134.419 134.347 134.416 133.624 133.622 133.554 133.628 
132.813 132.928 132.597 132.686 133.075 132.227 132.309 131.93 131.831 
132.161 132.539 131.65 131.623 131.564 131.409 131.428 131.583 131.774 
130.933 131.008 130.956 130.971 130.923 130.846 130.93 131.271 130.375 
130.606 130.207 130.143 130.163 130.157 130.228 130.609 131.155 136.168 
135.553 136.253 135.658 136.377 134.956 135.795 136.405 135.02 134.285 
135.82 136.39 135.142 134.277 133.543 135.791 136.454 135.184 134.413 
133.551 132.881 135.816 136.514 135.12 134.475 133.724 132.936 132.24 
135.86 136.495 135.095 134.383 133.765 133.093 132.34 131.613 135.875 
136.462 135.155 134.379 133.692 133.104 132.498 131.813 131.152 135.87 
136.459 135.204 134.491 133.759 133.084 132.524 131.984 131.37 130.763 