# vtk DataFile Version 4.0
vtk output
ASCII
DATASET POLYDATA
POINTS 1002 float
-77.8169 -106.344 58.0619 -77.9547 -106.534 58.8854 -78.3333 -106.537 58.2318 
-78.2478 -106.306 57.4756 -78.8341 -106.529 57.5508 -77.7265 -106.014 57.3993 
-78.6915 -106.132 56.9981 -79.4722 -106.3 57.1619 -78.1902 -105.94 56.8464 
-77.6011 -105.79 56.57 -79.2629 -105.852 56.5949 -80.1431 -105.954 56.8802 
-78.6213 -105.806 56.272 -78.0381 -105.751 55.8562 -77.2093 -105.672 55.4368 
-79.986 -105.749 55.9069 -80.7466 -105.793 56.2509 -79.1671 -105.711 55.5652 
-78.4455 -105.62 55.1515 -77.5687 -105.475 54.7835 -76.7036 -105.333 54.4882 
-80.619 -105.706 55.0991 -81.2045 -105.671 55.4946 -79.7895 -105.628 54.805 
-78.8957 -105.389 54.5583 -77.9412 -105.049 54.3709 -77.0389 -104.876 54.1543 
-76.467 -104.905 53.7548 -80.9443 -105.302 54.6992 -81.4577 -105.232 55.0876 
-80.2346 -105.221 54.4078 -79.3572 -104.992 54.1904 -78.3732 -104.606 54.0696 
-77.4127 -104.313 53.9435 -76.7562 -104.379 53.5283 -76.339 -104.592 52.9287 
-81.0538 -104.598 54.5816 -81.537 -104.524 54.9364 -80.4561 -104.536 54.2797 
-79.7445 -104.408 53.9968 -78.8803 -104.252 53.726 -77.9017 -104 53.5426 
-77.0701 -103.867 53.2572 -76.5091 -103.98 52.7604 -75.9974 -104.089 52.3347 
-81.1146 -103.911 54.3792 -81.5349 -103.82 54.7504 -80.6063 -103.934 54.0023 
-80.0334 -103.872 53.6782 -79.3364 -103.87 53.341 -78.4536 -103.829 53.0287 
-77.5333 -103.613 52.7894 -76.7747 -103.438 52.5121 -76.1556 -103.41 52.2355 
-75.5609 -103.385 52.0917 -81.2001 -103.366 54.0544 -81.5424 -103.274 54.4493 
-80.7707 -103.493 53.5803 -80.2634 -103.513 53.1901 -79.6492 -103.494 52.8979 
-78.8799 -103.531 52.5895 -78.036 -103.441 52.2924 -77.239 -103.187 52.0573 
-76.5085 -102.991 51.879 -75.84 -102.916 51.7841 -75.2533 -102.886 51.7486 
-78.2433 -106.506 59.5187 -78.7234 -106.543 58.7389 -78.462 -106.37 60.1895 
-79.2192 -106.46 59.347 -78.8668 -106.388 60.6918 -79.5244 -106.669 57.9043 
-79.8313 -106.436 59.8526 -79.5425 -106.576 60.9892 -80.2675 -106.711 58.4096 
-80.332 -106.508 57.501 -80.3505 -106.348 60.1981 -80.1147 -106.584 61.2484 
-80.7444 -106.543 58.8949 -80.9453 -106.556 57.9514 -80.8441 -106.089 57.2711 
-80.6665 -106.116 60.537 -80.46 -106.352 61.5851 -80.9949 -106.166 59.3281 
-81.276 -106.296 58.354 -81.2953 -106.067 57.6475 -81.2541 -105.785 56.6505 
-81.0723 -105.941 60.9621 -80.9241 -106.136 61.9623 -81.36 -105.886 59.8809 
-81.7395 -105.976 58.8219 -81.8721 -105.9 57.9344 -81.7774 -105.671 56.9896 
-81.6716 -105.501 55.9068 -81.6309 -105.794 61.3686 -81.4623 -105.931 62.2818 
-81.8554 -105.707 60.4834 -82.2093 -105.726 59.5043 -82.4432 -105.68 58.4019 
-82.3717 -105.476 57.326 -82.1644 -105.243 56.3109 -81.9042 -104.949 55.4877 
-81.9701 -105.495 61.6286 -81.7267 -105.58 62.4721 -82.1779 -105.363 60.8586 
-82.3728 -105.272 60.0604 -82.5054 -105.187 59.0056 -82.5251 -105.037 57.851 
-82.4497 -104.866 56.7998 -82.2583 -104.627 55.9129 -81.9253 -104.237 55.261 
-81.982 -105.053 61.7417 -81.7255 -105.078 62.5331 -82.2419 -104.891 60.9916 
-82.4251 -104.658 60.2625 -82.4515 -104.448 59.3378 -82.4298 -104.299 58.3159 
-82.4921 -104.252 57.3762 -82.4899 -104.22 56.4467 -82.2502 -103.998 55.6042 
-81.8749 -103.607 54.9783 -81.8261 -104.516 62.0205 -82.1307 -104.447 61.2307 
-82.0369 -103.908 61.4484 -82.5729 -103.776 60.7718 -82.389 -103.311 60.92 
-82.5391 -104.178 60.4832 -83.2215 -103.188 60.3611 -82.5906 -102.826 60.3451 
-83.3046 -103.504 59.9547 -82.8176 -103.846 59.5567 -83.3544 -102.793 59.8034 
-82.439 -102.436 59.6435 -84.0315 -103.134 59.4594 -83.7346 -103.309 58.844 
-82.8444 -103.617 58.5338 -82.8231 -102.353 59.1334 -82.2209 -101.911 59.0222 
-83.6393 -102.892 58.961 -84.152 -103.203 58.4119 -83.7026 -103.246 57.9825 
-82.8518 -103.575 57.7477 -82.4247 -101.603 58.5335 -82.1136 -101.23 58.5286 
-82.6852 -102.234 58.4012 -83.2507 -102.884 58.0615 -83.7472 -103.118 57.7011 
-83.4874 -103.24 57.3703 -82.8567 -103.672 56.9332 -82.2805 -100.833 57.8673 
-81.8713 -100.658 57.9251 -82.3791 -101.25 57.6749 -82.43 -101.945 57.3849 
-82.8626 -102.499 57.1444 -83.2672 -102.816 56.8411 -83.0699 -103.205 56.3616 
-82.5879 -103.645 55.9015 -81.8897 -100.396 57.0381 -81.415 -100.309 57.1664 
-82.2934 -100.55 56.8068 -82.4338 -100.969 56.4546 -82.4644 -101.506 56.1834 
-82.6354 -101.982 55.9639 -82.7072 -102.515 55.5755 -82.4629 -103.026 55.1855 
-82.1258 -103.354 55.0197 -81.2921 -100.199 56.2184 -80.9359 -100.093 56.4011 
-81.8083 -100.244 56.0114 -82.3021 -100.407 55.6566 -82.4818 -100.733 55.2721 
-82.4071 -101.132 55.0213 -82.3283 -101.681 54.7524 -82.2203 -102.314 54.4435 
-82.0056 -102.755 54.3286 -81.7616 -103.009 54.395 -81.4483 -102.903 53.7905 
-81.7339 -102.618 53.6688 -81.4381 -102.647 52.9286 -81.9755 -102.271 53.5702 
-81.7832 -102.287 52.7713 -81.2584 -102.33 52.0742 -82.0842 -101.664 53.6883 
-81.9726 -101.748 52.7418 -81.5316 -101.8 51.9868 -80.6398 -101.752 51.6155 
-82.1229 -100.953 53.9493 -81.9162 -100.965 52.9176 -81.6147 -101.059 52.0978 
-80.7677 -101.092 51.691 -79.7489 -101.007 51.4921 -82.1988 -100.47 54.2276 
-81.7808 -100.275 53.1566 -81.4852 -100.263 52.2642 -80.8469 -100.372 51.838 
-79.8153 -100.416 51.5644 -79.0404 -100.342 51.0619 -82.0852 -100.184 54.6638 
-81.6571 -99.8794 53.573 -81.288 -99.7004 52.4725 -80.8188 -99.7326 51.8795 
-79.9164 -99.7821 51.6023 -79.071 -99.7458 51.0157 -78.6959 -99.6905 50.2386 
-81.6072 -100.029 55.1389 -81.3677 -99.6623 54.2147 -81.0715 -99.3502 53.0413 
-80.6537 -99.2521 52.0616 -79.9356 -99.1443 51.5886 -79.1298 -98.9492 51.0533 
-78.6902 -98.8553 50.259 -78.5451 -98.9094 49.5968 -81.0528 -100.011 55.3951 
-80.9332 -99.6101 54.6681 -80.7921 -99.1442 53.762 -80.4048 -98.892 52.6501 
-79.8021 -98.6669 51.7752 -79.2006 -98.2565 51.1156 -78.7888 -97.9498 50.3851 
-78.5604 -97.9522 49.7251 -78.3466 -98.1278 49.2902 -80.679 -99.9746 55.5471 
-80.5372 -99.6526 54.8252 -80.465 -99.1107 54.1749 -80.1651 -98.6607 53.3139 
-79.6137 -98.3677 52.2864 -79.1624 -97.9273 51.3528 -78.9258 -97.4258 50.5452 
-78.7018 -97.2132 49.8799 -78.3752 -97.2978 49.4045 -77.9975 -97.494 49.0615 
-81.0826 -103.062 53.2677 -80.9401 -102.805 52.3913 -80.5853 -103.202 52.7548 
-80.5163 -102.379 51.7354 -80.2723 -102.865 52.013 -79.9571 -103.19 52.4275 
-79.743 -101.665 51.4544 -79.688 -102.335 51.4886 -79.4745 -102.809 51.721 
-79.1861 -103.159 52.1522 -78.9751 -100.849 51.1188 -78.9258 -101.546 51.0775 
-78.8445 -102.282 51.0159 -78.6579 -102.794 51.274 -78.387 -103.157 51.7849 
-78.5824 -100.185 50.3275 -78.3432 -100.71 50.4817 -78.201 -101.491 50.4161 
-78.182 -102.306 50.3726 -78.0293 -102.812 50.7615 -77.6679 -103.035 51.4299 
-78.4597 -99.5809 49.5253 -78.1299 -100.106 49.6949 -77.774 -100.702 49.8795 
-77.7267 -101.564 49.8369 -77.7285 -102.398 49.8713 -77.4193 -102.798 50.3733 
-76.9201 -102.861 51.1835 -78.266 -98.8644 49.1393 -78.0058 -99.5622 49.1325 
-77.5792 -100.171 49.3173 -77.3358 -100.876 49.4748 -77.2926 -101.777 49.438 
-77.0657 -102.524 49.5339 -76.5931 -102.78 50.148 -76.1267 -102.764 51.0692 
-77.8892 -98.1249 48.9409 -77.7072 -98.8648 48.8855 -77.3552 -99.6219 48.9317 
-76.9963 -100.367 49.0559 -76.7897 -101.175 49.1232 -76.5644 -102.008 49.1189 
-76.1821 -102.585 49.3598 -75.7616 -102.743 50.0969 -75.4368 -102.727 51.0512 
-77.4404 -97.2852 48.6898 -77.3112 -97.9327 48.658 -76.8582 -97.1562 48.3385 
-76.6849 -97.8504 48.4965 -76.2452 -97.2189 48.2429 -77.0535 -98.7293 48.7409 
-75.9224 -97.9587 48.5791 -75.3581 -97.4009 48.3936 -76.2822 -98.7173 48.7382 
-76.6396 -99.6463 48.7892 -74.8982 -98.1891 48.7165 -74.2677 -97.6048 48.59 
-75.355 -98.911 48.8088 -75.7609 -99.7954 48.6942 -76.2696 -100.592 48.7789 
-73.8924 -98.5074 48.858 -73.4529 -97.9734 48.9454 -74.3768 -99.2433 48.8427 
-74.8605 -100.062 48.6844 -75.4201 -100.818 48.6304 -76.0022 -101.444 48.8394 
-73.2344 -98.9303 49.2162 -73.0442 -98.5066 49.537 -73.5617 -99.5828 48.9983 
-74.0588 -100.307 48.8611 -74.6723 -100.935 48.86 -75.2259 -101.526 48.9301 
-75.6942 -102.136 49.0393 -72.7903 -99.3213 49.7289 -72.6973 -98.9662 50.1146 
-72.9362 -99.8446 49.3543 -73.274 -100.466 49.1533 -73.851 -101.006 49.2551 
-74.4804 -101.524 49.3644 -74.952 -102.112 49.3308 -75.3381 -102.574 49.5211 
-72.288 -99.6049 50.244 -72.1725 -99.3023 50.558 -72.3957 -100.037 49.8545 
-72.5631 -100.613 49.5011 -72.8902 -101.198 49.451 -73.4475 -101.737 49.5806 
-74.0945 -102.249 49.6125 -74.6167 -102.602 49.8032 -75.0246 -102.712 50.3733 
-71.6914 -99.8626 50.721 -71.5389 -99.6006 50.9325 -71.8642 -100.244 50.4435 
-72.037 -100.806 50.0481 -72.1834 -101.468 49.7205 -72.4504 -102.109 49.615 
-73.0338 -102.621 49.6517 -73.7693 -102.854 49.9264 -74.3561 -102.821 50.5643 
-74.8018 -102.77 51.2779 -77.795 -96.8406 49.0416 -77.1272 -96.5993 48.6411 
-77.5189 -96.2467 49.2856 -76.8269 -96.0209 48.9817 -77.2077 -95.8461 49.8635 
-76.507 -96.5286 48.3398 -76.6653 -95.9201 49.5475 -77.0147 -95.9608 50.4348 
-76.195 -96.1651 48.7922 -75.7729 -96.707 48.35 -76.5487 -96.4112 50.0669 
-76.8131 -96.4314 50.9906 -75.9992 -96.4431 49.3668 -75.3127 -96.5169 48.8977 
-74.7134 -96.9238 48.5562 -76.0844 -96.7245 50.9706 -76.3161 -96.6613 51.8966 
-75.6376 -96.8995 50.1031 -74.9659 -96.7637 49.6377 -74.2216 -96.7254 49.2099 
-73.6992 -97.1904 48.8694 -75.4103 -96.6238 52.209 -75.7787 -96.7045 52.8644 
-74.9881 -96.7954 51.3353 -74.5151 -96.8202 50.6496 -73.9172 -96.7377 50.1739 
-73.3797 -97.0314 49.686 -73.1401 -97.7176 49.4533 -75.0615 -96.781 53.0228 
-75.5447 -96.9106 53.52 -74.5606 -96.7412 52.3962 -74.0969 -96.6877 51.7216 
-73.5833 -96.6919 51.1552 -73.1003 -96.9876 50.6718 -72.8852 -97.5896 50.2999 
-72.8394 -98.307 50.1385 -74.9513 -97.1616 53.5423 -75.4355 -97.1662 54.104 
-74.4543 -97.1552 52.9594 -73.9685 -97.0064 52.4014 -73.3889 -96.909 51.8585 
-72.8163 -97.1009 51.3911 -72.5463 -97.5319 51.0587 -72.5207 -98.1124 50.816 
-72.424 -98.7506 50.6366 -74.7477 -97.3461 54.2384 -75.2321 -97.3435 54.7678 
-74.2654 -97.4392 53.6203 -73.8344 -97.4187 53.0472 -73.337 -97.3696 52.4953 
[...]
CELL_DATA 2000
SCALARS Distance double
LOOKUP_TABLE default
143.346 143.315 143.153 142.804 143.296 143.116 142.761 142.61 142.246 
143.29 143.082 142.688 142.547 142.184 142.034 141.605 143.3 143.085 
142.674 142.484 142.09 141.931 141.464 141.288 140.766 143.252 143.097 
142.692 142.484 142.021 141.816 141.274 141.081 140.512 140.372 139.898 
143.01 142.97 142.54 142.417 141.892 141.704 141.096 140.872 140.255 
140.088 139.598 139.548 139.194 142.556 142.604 142.143 142.119 141.586 
141.481 140.904 140.707 140.111 139.883 139.357 139.239 138.841 138.846 
138.484 142.003 142.08 141.641 141.657 141.173 141.126 140.634 140.517 
140.012 139.803 139.277 139.06 138.583 138.482 138.072 138.069 137.664 
141.482 141.546 141.173 141.192 140.784 140.749 140.322 140.254 139.817 
139.692 139.212 139.007 138.501 138.294 137.837 137.715 137.323 137.274 
136.918 143.66 144.029 143.781 143.628 144.426 144.171 144.127 143.833 
143.7 144.957 144.644 144.667 144.405 144.374 143.962 143.766 145.429 
145.149 145.074 144.905 144.884 144.614 144.418 143.982 143.72 145.673 
145.46 145.257 145.151 145.06 144.962 144.783 144.509 144.207 143.855 
143.59 145.904 145.654 145.472 145.288 145.22 145.098 145.01 144.793 
144.555 144.243 143.948 143.647 143.35 146.209 145.955 145.818 145.585 
145.545 145.363 145.316 145.085 144.885 144.571 144.254 143.944 143.598 
143.305 142.918 146.322 146.201 146 145.87 145.703 145.611 145.407 
145.295 144.967 144.788 144.382 144.162 143.751 143.498 143.074 142.787 
142.349 146.115 146.133 145.857 145.845 145.541 145.528 145.153 145.123 
144.666 144.621 144.177 144.116 143.729 143.584 143.181 142.925 142.485 
142.196 141.787 145.817 145.256 145.559 145.582 144.781 145.045 145.069 
145.303 145.274 144.402 144.682 144.768 144.89 144.786 144.936 144.827 
143.883 144.309 144.535 144.714 144.634 144.583 144.33 144.424 144.291 
143.117 143.649 143.893 144.354 144.415 144.516 144.281 144.144 143.892 
143.945 143.875 142.282 142.766 142.846 143.442 143.505 144.017 143.923 
144.085 143.827 143.77 143.57 143.623 143.537 141.469 141.881 141.821 
142.302 142.229 142.836 142.765 143.339 143.163 143.49 143.203 143.341 
143.073 143.216 143.006 140.642 141.027 140.932 141.314 141.186 141.62 
141.499 142.036 141.897 142.45 142.218 142.645 142.325 142.615 142.296 
142.543 142.279 139.852 140.192 140.098 140.453 140.352 140.703 140.581 
140.942 140.788 141.205 141.034 141.494 141.296 141.7 141.463 141.769 
141.529 141.792 141.589 141.186 141.104 140.965 140.63 140.982 140.863 
140.511 140.418 140.057 140.73 140.653 140.254 140.231 139.834 139.754 
139.261 140.429 140.322 139.838 139.847 139.411 139.421 138.899 138.819 
138.222 140.235 140.047 139.482 139.379 138.877 138.9 138.415 138.404 
137.834 137.733 137.141 140.092 139.901 139.318 139.087 138.503 138.396 
137.918 137.914 137.411 137.342 136.746 136.646 136.091 139.875 139.738 
139.191 138.963 138.358 138.129 137.592 137.488 136.981 136.908 136.289 
136.196 135.568 135.564 135.085 139.627 139.505 139.008 138.832 138.284 
138.039 137.467 137.25 136.679 136.515 135.875 135.722 135.062 135.001 
134.486 134.574 134.213 139.415 139.284 138.825 138.671 138.183 137.973 
137.422 137.162 136.559 136.294 135.657 135.403 134.78 134.592 134.09 
134.045 133.686 133.766 133.465 141.121 140.562 140.833 140.82 139.974 
140.266 140.216 140.5 140.444 139.175 139.584 139.518 139.858 139.769 
140.072 139.984 138.135 138.646 138.59 139.053 138.958 139.334 139.217 
139.564 139.465 137.03 137.535 137.458 138.003 137.929 138.421 138.313 
138.732 138.621 139.007 138.879 136.019 136.463 136.349 136.839 136.762 
137.308 137.268 137.78 137.726 138.147 138.04 138.386 138.213 135.127 
135.534 135.461 135.831 135.749 136.19 136.205 136.737 136.805 137.282 
137.261 137.597 137.454 137.725 137.555 134.306 134.71 134.709 135.053 
135.004 135.33 135.342 135.775 135.896 136.394 136.471 136.861 136.777 
137.034 136.872 137.122 137.011 133.515 133.909 133.916 134.312 134.298 
134.645 134.642 135.012 135.087 135.537 135.63 136.066 136.05 136.372 
136.253 136.495 136.38 136.646 136.601 133.062 132.479 132.987 133.447 
132.019 132.448 132.919 133.41 133.864 131.69 132.065 132.499 132.924 
133.391 133.841 134.27 131.331 131.73 132.151 132.545 132.981 133.403 
133.868 134.286 134.732 131.091 131.386 131.843 132.21 132.663 133.04 
133.504 133.91 134.382 134.786 135.234 131.232 131.305 131.731 131.974 
132.453 132.775 133.253 133.605 134.067 134.438 134.867 135.259 135.639 
131.565 131.542 131.833 131.949 132.332 132.593 133.034 133.372 133.815 
134.159 134.561 134.899 135.253 135.602 135.893 131.776 131.789 131.969 
132.036 132.289 132.47 132.813 133.115 133.518 133.879 134.279 134.618 
134.966 135.264 135.554 135.835 136.079 131.846 131.894 132.06 132.121 
132.352 132.453 132.758 132.937 133.307 133.586 133.995 134.327 134.709 
135.01 135.317 135.565 135.822 136.056 136.312 132.744 132.145 132.308 
132.118 131.736 131.751 131.508 131.711 131.643 131.728 131.525 131.273 
131.241 131.128 131.327 131.327 132.096 131.763 131.55 131.264 131.069 
130.964 130.838 131.001 130.966 132.419 132.17 131.946 131.66 131.39 
131.085 130.797 130.654 130.511 130.66 130.731 132.539 132.356 132.064 
131.904 131.59 131.362 131.007 130.747 130.522 130.428 130.502 130.655 
130.943 132.747 132.479 132.197 131.966 131.672 131.456 131.145 130.924 
130.704 130.562 130.596 130.629 130.901 131.062 131.373 133.099 132.792 
132.573 132.246 132.015 131.672 131.424 131.113 130.934 130.746 130.748 
130.741 130.93 131.058 131.304 131.459 131.638 133.412 133.151 132.935 
132.663 132.452 132.131 131.915 131.551 131.392 131.085 131.067 130.917 
131.04 131.061 131.241 131.357 131.504 131.63 131.719 139.159 138.557 
138.765 138.561 137.856 138.101 137.877 138.129 137.905 137.116 137.344 
137.077 137.365 137.118 137.406 137.133 136.429 136.603 136.291 136.536 
136.262 136.555 136.262 136.553 136.239 135.765 135.92 135.586 135.782 
135.487 135.72 135.413 135.662 135.326 135.611 135.295 135.114 135.249 
134.907 135.089 134.783 134.984 134.652 134.848 134.492 134.72 134.395 
134.684 134.424 134.545 134.63 134.28 134.422 134.117 134.296 133.955 
134.111 133.717 133.903 133.568 133.833 133.598 133.901 133.755 134.08 
134.12 133.762 133.838 133.529 133.666 133.367 133.477 133.095 133.18 
132.805 133.008 132.772 133.097 132.978 133.334 133.31 133.699 133.715 
133.376 133.384 133.061 133.131 132.877 132.976 132.702 132.711 132.355 
132.365 132.072 132.276 132.143 132.52 132.506 132.941 133.016 139.42 
139.606 139.295 138.826 139.774 139.469 139.003 138.67 138.155 139.969 
139.648 139.186 138.846 138.339 137.981 137.454 140.161 139.847 139.366 
139.026 138.516 138.168 137.656 137.299 136.787 140.278 140.003 139.522 
139.199 138.68 138.337 137.824 137.491 136.987 136.64 136.127 140.36 
140.095 139.646 139.348 138.859 138.514 138.001 137.653 137.151 136.817 
136.314 135.97 135.473 140.456 140.187 139.734 139.459 138.989 138.687 
138.186 137.845 137.332 136.986 136.491 136.153 135.675 135.339 134.896 
140.52 140.275 139.8 139.529 139.031 138.767 138.269 137.99 137.486 
137.169 136.674 136.342 135.875 135.546 135.107 134.793 134.403 140.535 
140.325 139.877 139.597 139.094 138.801 138.309 138.041 137.58 137.303 
136.848 136.536 136.088 135.759 135.324 135.001 134.597 134.313 133.973 
140.422 140.095 140.104 139.769 139.728 139.742 139.346 139.364 138.969 
139.239 139.297 138.89 138.925 138.51 138.536 138.17 138.676 138.745 
138.366 138.453 138.095 138.117 137.742 137.769 137.447 138.155 138.188 
137.806 137.915 137.597 137.69 137.33 137.36 136.986 137.046 136.725 
137.688 137.697 137.277 137.353 136.977 137.112 136.726 136.852 136.448 
136.551 136.177 136.291 135.967 137.223 137.23 136.777 136.816 136.365 
136.45 136.017 136.158 135.768 135.932 135.57 135.711 135.362 135.503 
135.19 136.739 136.743 136.261 136.288 135.821 135.859 135.427 135.5 
135.147 135.274 134.961 135.093 134.749 134.877 134.541 134.713 134.443 
136.247 136.24 135.738 135.755 135.298 135.336 134.943 134.996 134.676 
134.754 134.455 134.534 134.185 134.268 133.916 134.062 133.8 134.008 
133.823 135.798 134.949 135.331 135.279 134.194 134.513 134.463 134.846 
134.848 133.539 133.81 133.737 134.071 134.084 134.478 134.535 132.885 
133.163 133.078 133.381 133.386 133.755 133.843 134.229 134.317 132.277 
132.531 132.511 132.781 132.814 133.115 133.185 133.542 133.616 134.004 
134.064 131.861 132.029 132.086 132.315 132.421 132.651 132.703 132.935 
132.921 133.243 133.239 133.671 133.713 131.665 131.733 131.761 131.947 
132.036 132.282 132.321 132.511 132.439 132.617 132.557 132.857 132.905 
133.33 133.45 131.631 131.61 131.552 131.635 131.603 131.818 131.786 
132.042 131.969 132.175 132.132 132.337 132.418 132.687 132.866 133.205 
133.409 131.696 131.617 131.515 131.47 131.343 131.393 131.271 131.448 
131.367 131.632 131.638 131.932 132.049 132.331 132.518 132.784 132.99 
133.276 133.481 135.985 135.98 135.686 135.117 135.994 135.674 135.087 
134.823 134.336 136.096 135.727 135.132 134.812 134.307 134.096 133.682 
136.273 135.885 135.303 134.919 134.388 134.097 133.649 133.446 133.026 
136.48 136.089 135.556 135.159 134.652 134.265 133.774 133.449 132.978 
132.758 132.363 136.791 136.348 135.851 135.45 135.014 134.612 134.135 
133.684 133.154 132.774 132.336 132.146 131.892 137.213 136.742 136.239 
135.792 135.363 134.986 134.558 134.109 133.564 133.061 132.558 132.215 
131.938 131.806 131.706 137.558 137.164 136.66 136.206 135.727 135.331 
134.901 134.506 134.003 133.51 132.99 132.541 132.22 131.961 131.857 
131.735 131.714 137.735 137.437 136.967 136.585 136.101 135.696 135.245 
134.845 134.388 133.941 133.486 133.027 132.71 132.351 132.225 131.99 
131.962 131.809 131.803 136.555 137.391 136.851 136.574 138.176 137.662 
137.406 136.858 136.584 139.055 138.474 138.233 137.679 137.444 136.897 
136.676 140.119 139.47 139.26 138.604 138.407 137.801 137.623 137.045 
136.853 141.11 140.563 140.408 139.754 139.586 138.895 138.723 138.056 
137.865 137.24 137.051 141.872 141.464 141.388 140.879 140.772 140.133 
139.945 139.226 138.977 138.282 138.065 137.459 137.33 142.616 142.231 
142.262 141.828 141.823 141.276 141.131 140.438 140.14 139.398 139.099 
138.461 138.298 137.773 137.705 143.424 143.055 143.157 142.75 142.803 
142.309 142.215 141.584 141.308 140.557 140.204 139.489 139.238 138.686 
138.566 138.11 138.013 144.15 143.853 143.937 143.611 143.624 143.223 
143.097 142.582 142.32 141.677 141.334 140.611 140.291 139.634 139.423 
138.909 138.765 138.324 138.169 144.52 144.895 144.579 144.294 145.136 
144.861 144.526 144.274 143.932 145.263 145.022 144.6 144.38 143.974 
143.778 143.344 145.215 145.064 144.623 144.401 143.921 143.715 143.25 
143.076 142.566 145.001 144.926 144.526 144.375 143.89 143.658 143.149 
142.947 142.453 142.245 141.656 144.742 144.68 144.28 144.201 143.748 
143.588 143.063 142.856 142.339 142.138 141.583 141.308 140.666 144.422 
144.397 143.961 143.905 143.448 143.37 142.865 142.717 142.175 142.004 
141.452 141.232 140.627 140.335 139.751 143.999 144.023 143.581 143.544 
143.076 143.036 142.566 142.472 141.947 141.797 141.249 141.076 140.512 
140.283 139.72 139.479 139.008 143.57 143.591 143.182 143.147 142.707 
142.673 142.256 142.189 141.72 141.572 141.047 140.874 140.353 140.164 
139.644 139.428 138.944 138.764 138.365 143.251 142.664 142.919 142.828 
142.096 142.321 142.203 142.455 142.369 141.443 141.723 141.591 141.846 
141.743 142.013 141.935 140.608 140.969 140.816 141.158 141.014 141.344 
141.206 141.526 141.378 139.8 140.116 139.954 140.294 140.113 140.491 
140.304 140.688 140.494 140.864 140.68 139.151 139.406 139.254 139.486 
139.282 139.569 139.368 139.725 139.542 139.927 139.761 140.144 139.99 
138.44 138.758 138.593 138.835 138.604 138.82 138.593 138.855 138.672 
139.003 138.853 139.226 139.08 139.46 139.302 137.586 137.946 137.758 
138.087 137.851 138.127 137.886 138.137 137.924 138.197 138.017 138.342 
138.179 138.543 138.385 138.764 138.62 136.812 137.09 136.905 137.213 
137.013 137.322 137.124 137.411 137.214 137.475 137.28 137.549 137.37 
137.675 137.522 137.868 137.754 138.128 138.052 137.654 137.322 137.298 
136.91 137.076 136.989 136.589 136.534 136.107 136.926 136.785 136.366 
136.256 135.813 135.719 135.262 136.837 136.661 136.214 136.06 135.583 
135.446 134.943 134.854 134.379 136.761 136.579 136.119 135.929 135.445 
135.253 134.76 134.587 134.113 133.994 133.548 136.651 136.487 136.04 
135.854 135.398 135.179 134.742 134.515 134.119 133.889 133.503 133.281 
132.902 136.53 136.367 135.945 135.784 135.364 135.164 134.748 134.545 
134.181 133.981 133.635 133.387 133.024 132.761 132.442 136.451 136.274 
135.889 135.723 135.348 135.15 134.733 134.53 134.121 133.974 133.601 
133.461 133.085 132.896 132.549 132.358 132.113 136.418 136.242 135.901 
135.725 135.399 135.188 134.806 134.549 134.12 133.895 133.492 133.344 
132.981 132.862 132.538 132.415 132.167 132.057 131.901 146.296 146.507 
146.498 146.533 146.388 146.564 146.655 146.631 146.552 146.122 146.352 
146.49 146.615 146.627 146.587 146.5 145.949 146.147 146.334 146.446 
146.535 146.59 146.64 146.59 146.559 145.67 145.977 146.22 146.378 
146.524 146.568 146.71 146.727 146.821 146.704 146.603 145.104 145.536 
145.81 146.187 146.399 146.577 146.726 146.814 146.937 146.927 146.865 
146.659 146.368 144.551 144.915 145.187 145.65 145.912 146.284 146.41 
146.674 146.722 146.896 146.803 146.782 146.475 146.267 145.856 144.186 
144.452 144.69 145.062 145.296 145.683 145.775 146.13 146.113 146.441 
146.322 146.51 146.22 146.206 145.808 145.666 145.27 143.815 144.093 
144.254 144.586 144.73 145.068 145.105 145.425 145.383 145.716 145.623 
145.902 145.693 145.823 145.508 145.506 145.169 145.075 144.742 146.103 
146.314 146.087 145.772 146.313 146.173 145.822 145.648 145.309 146.273 
146.12 145.747 145.588 145.212 145.107 144.763 146.326 146.129 145.766 
145.537 145.141 144.975 144.617 144.51 144.138 146.293 146.16 145.786 
145.588 145.192 144.975 144.601 144.41 144.044 143.88 143.505 146.002 
145.983 145.552 145.488 145.076 144.977 144.6 144.442 144.059 143.853 
143.461 143.277 142.914 145.533 145.577 145.136 145.13 144.694 144.704 
144.333 144.328 143.959 143.849 143.416 143.234 142.797 142.661 142.284 
145.021 145.093 144.712 144.71 144.295 144.284 143.909 143.948 143.605 
143.622 143.209 143.114 142.624 142.489 142.04 141.971 141.608 144.52 
144.604 144.278 144.314 143.958 143.94 143.573 143.552 143.196 143.21 
142.831 142.814 142.365 142.271 141.815 141.719 141.346 141.304 141.002 
145.805 145.517 145.533 145.242 145.142 145.225 144.955 144.955 144.704 
144.654 144.831 144.597 144.637 144.328 144.395 144.19 144.018 144.281 
144.094 144.233 143.919 143.973 143.661 143.811 143.597 143.348 143.603 
143.439 143.667 143.426 143.539 143.213 143.28 142.981 143.147 142.902 
142.757 142.963 142.784 143.004 142.813 143.006 142.74 142.834 142.494 
142.574 142.277 142.438 142.17 142.167 142.386 142.19 142.382 142.163 
142.373 142.136 142.31 141.983 142.074 141.71 141.833 141.535 141.71 
141.41 141.526 141.772 141.582 141.781 141.527 141.718 141.46 141.668 
141.381 141.522 141.163 141.259 140.919 141.071 140.779 140.943 140.616 
140.912 141.133 140.95 141.154 140.904 141.078 140.805 140.995 140.734 
140.912 140.613 140.723 140.392 140.492 140.196 140.331 140.046 140.168 
139.853 136.71 137.192 137.156 137.542 137.66 137.633 138.034 137.979 
138.342 138.14 138.12 138.557 138.499 138.918 138.817 139.231 138.641 
138.636 139.134 139.076 139.54 139.439 139.908 139.801 140.273 139.165 
139.163 139.691 139.668 140.136 140.066 140.525 140.467 140.938 140.852 
141.244 139.69 139.684 140.163 140.172 140.591 140.579 140.983 140.999 
141.447 141.444 141.821 141.708 141.981 140.122 140.142 140.54 140.567 
140.924 140.94 141.296 141.351 141.782 141.861 142.272 142.235 142.524 
142.383 142.659 140.429 140.469 140.816 140.867 141.216 141.247 141.608 
141.642 142.056 142.142 142.581 142.632 142.981 142.91 143.194 143.083 
143.41 140.713 140.728 141.059 141.107 141.491 141.549 141.969 141.997 
142.411 142.437 142.843 142.901 143.275 143.303 143.619 143.581 143.883 
143.823 144.134 
POINT_DATA 1002
SCALARS Distance double
LOOKUP_TABLE default
143 143.548 143.491 142.971 143.484 142.442 142.894 143.511 142.419 
141.878 142.843 143.516 142.329 141.806 141.133 142.898 143.488 142.283 
141.658 140.928 140.237 142.908 143.362 142.274 141.507 140.657 139.951 
139.508 142.641 143.028 142.072 141.33 140.452 139.657 139.186 138.89 
142.143 142.498 141.645 141.043 140.341 139.541 138.875 138.462 138.103 
141.599 141.914 141.183 140.691 140.169 139.527 138.765 138.11 137.644 
137.246 141.127 141.406 140.795 140.374 139.902 139.38 138.73 138.01 
137.393 136.933 136.575 143.942 143.912 144.237 144.368 144.678 144.106 
144.891 145.306 144.747 144.272 145.254 145.731 145.082 144.826 144.159 
145.399 145.893 145.121 144.98 144.543 143.922 145.672 146.15 145.346 
145.194 144.858 144.265 143.66 146.045 146.433 145.74 145.552 145.206 
144.591 143.908 143.228 146.127 146.408 145.828 145.543 145.128 144.569 
143.987 143.36 142.635 145.865 146.074 145.581 145.215 144.701 144.169 
143.795 143.405 142.78 142.041 145.512 145.301 144.955 144.881 144.508 
145.028 144.661 144.038 144.765 144.568 144.228 143.385 144.718 144.421 
144.004 143.336 142.631 144.117 144.412 144.011 143.663 142.33 141.885 
142.874 143.524 143.833 143.638 143.412 141.43 141.094 141.705 142.111 
142.659 142.999 142.975 142.834 140.559 140.275 140.809 141.047 141.34 
141.692 141.964 142.039 142.018 139.745 139.537 139.993 140.255 140.441 
140.584 140.827 141.1 141.251 141.319 140.832 140.744 140.316 140.595 
140.195 139.663 140.265 139.904 139.404 138.716 139.877 139.373 138.958 
138.338 137.614 139.683 138.889 138.37 137.917 137.249 136.562 139.581 
138.692 137.929 137.455 136.862 136.128 135.584 139.378 138.616 137.768 
137.081 136.407 135.598 134.98 134.692 139.145 138.503 137.735 136.901 
136.056 135.161 134.427 134.052 133.896 138.963 138.366 137.682 136.851 
135.925 134.991 134.188 133.657 133.352 133.148 140.541 139.944 140.166 
139.146 139.465 139.677 138.077 138.549 138.861 139.115 136.916 137.383 
137.855 138.222 138.527 135.913 136.218 136.687 137.263 137.693 137.902 
135.107 135.364 135.667 136.261 136.893 137.199 137.265 134.331 134.689 
134.96 135.399 136.029 136.492 136.642 136.71 133.501 133.917 134.288 
134.678 135.185 135.677 135.982 136.135 136.296 132.537 132.923 131.978 
132.444 131.636 133.389 132.117 131.317 132.939 133.846 131.757 130.923 
132.582 133.425 134.334 131.481 130.871 132.293 133.115 133.973 134.841 
131.563 131.262 132.151 132.918 133.727 134.503 135.259 131.803 131.632 
132.135 132.712 133.472 134.247 134.936 135.565 131.935 131.765 132.171 
132.563 133.164 133.921 134.671 135.293 135.808 131.986 131.788 132.26 
132.628 133.085 133.675 134.391 135.066 135.595 136.065 132.549 131.838 
132.048 131.369 131.793 131.317 131.413 131.979 131.038 131.029 131.897 
132.414 131.342 130.828 130.659 132.201 132.645 131.744 131.088 130.478 
130.4 132.225 132.75 131.771 131.258 130.68 130.41 130.697 132.464 
133.028 131.905 131.342 130.837 130.599 130.782 131.227 132.885 133.385 
132.37 131.77 131.163 130.804 130.844 131.167 131.52 133.185 133.668 
132.736 132.253 131.723 131.291 131.106 131.173 131.386 131.607 138.978 
138.355 138.339 137.61 137.619 137.668 136.802 136.927 136.818 136.869 
136.08 136.281 135.99 135.978 135.941 135.401 135.615 135.278 135.193 
135.069 134.968 134.733 134.994 134.59 134.482 134.284 134.125 134.093 
134.162 134.48 133.945 133.818 133.568 133.3 133.281 133.421 133.717 
134.044 133.408 133.237 133.048 132.672 132.445 132.591 132.923 139.748 
139.162 139.909 139.338 140.077 138.51 139.529 140.303 138.692 137.816 
139.711 140.47 138.859 137.998 137.155 139.83 140.535 139.028 138.154 
137.321 136.486 139.921 140.626 139.187 138.363 137.487 136.647 135.811 
140.014 140.729 139.269 138.512 137.686 136.825 136.003 135.213 140.084 
140.747 139.304 138.521 137.775 136.998 136.2 135.422 134.686 140.145 