# vtk DataFile Version 4.0
vtk output
ASCII
DATASET POLYDATA
POINTS 1002 float
-80.3058 -105.22 58.7271 -80.4494 -105.057 59.6546 -80.912 -104.948 59.3764 
-80.7874 -104.908 58.5618 -81.2593 -104.551 59.2568 -80.0531 -105.129 58.0843 
-81.188 -104.279 58.5045 -81.4905 -104.008 59.1005 -80.6217 -104.559 58.0001 
-79.8191 -104.546 57.7834 -81.4718 -103.675 58.311 -81.8509 -103.524 58.758 
-81.1231 -103.882 57.8256 -80.4721 -103.953 57.5059 -79.7618 -103.763 57.2278 
-81.8199 -103.194 57.9507 -82.4474 -103.165 58.3268 -81.4391 -103.38 57.4528 
-80.9871 -103.533 56.9804 -80.3634 -103.486 56.5597 -79.7275 -103.314 56.1076 
-82.3989 -102.841 57.4704 -83.093 -102.938 57.8553 -81.7842 -102.909 57.0136 
-81.2612 -103.095 56.4767 -80.7452 -103.199 55.9177 -80.1673 -103.171 55.4455 
-79.4967 -103.042 55.1044 -83.1439 -102.727 56.8018 -83.6354 -102.761 57.2946 
-82.4509 -102.624 56.4231 -81.6412 -102.574 56.0803 -80.9884 -102.589 55.5834 
-80.4675 -102.649 55.0592 -79.8531 -102.672 54.7149 -79.1763 -102.555 54.486 
-83.7617 -102.622 56.1124 -83.9877 -102.443 56.7825 -83.2635 -102.59 55.6709 
-82.3477 -102.378 55.5113 -81.4619 -102.172 55.2187 -80.8664 -102.098 54.6981 
-80.2428 -102.143 54.2831 -79.5298 -102.165 54.0141 -78.9303 -102.104 53.7309 
-84.0282 -102.204 55.6906 -84.0962 -101.914 56.4722 -83.7602 -102.34 55.1165 
-82.98 -102.221 54.9313 -82.065 -102.061 54.6883 -81.4767 -102.012 54.1022 
-80.8715 -101.988 53.5946 -80.0036 -101.945 53.3555 -79.2529 -101.916 53.1229 
-78.7555 -101.929 52.8169 -84.0334 -101.538 55.5314 -84.0578 -101.283 56.3153 
-83.8563 -101.724 54.9125 -83.2068 -101.688 54.6703 -82.3608 -101.624 54.4037 
-81.8888 -101.781 53.688 -81.5354 -101.949 52.9668 -80.7144 -101.886 52.717 
-79.715 -101.746 52.6385 -79.0511 -101.72 52.4194 -78.6162 -101.796 52.1538 
-80.8834 -104.921 60.3612 -81.3509 -104.784 60.0723 -81.4726 -104.936 60.9225 
-81.8876 -104.737 60.5905 -82.0925 -105.031 61.4149 -81.6028 -104.388 59.8883 
-82.3401 -104.592 61.0788 -82.4113 -104.913 62.0932 -82.0669 -104.205 60.3365 
-81.8905 -103.864 59.5744 -82.5094 -104.177 61.7815 -82.4525 -104.469 62.8834 
-82.4976 -103.874 60.8189 -82.5346 -103.67 59.936 -82.5438 -103.477 59.082 
-82.7138 -103.727 62.5027 -82.5899 -103.949 63.443 -82.8929 -103.555 61.4984 
-83.1689 -103.479 60.4692 -83.3746 -103.44 59.4523 -83.2879 -103.245 58.624 
-83.2322 -103.51 62.9798 -82.9153 -103.572 63.742 -83.5335 -103.456 62.115 
-83.7706 -103.386 61.1751 -83.9375 -103.32 60.0908 -83.9679 -103.21 59.0428 
-83.7832 -102.974 58.1944 -83.7814 -103.384 63.343 -83.2855 -103.271 63.9781 
-84.2197 -103.425 62.5532 -84.4043 -103.269 61.7342 -84.3164 -103.019 60.7917 
-84.3092 -102.881 59.6184 -84.3186 -102.762 58.5548 -84.132 -102.578 57.7048 
-84.1194 -103.067 63.7008 -83.6173 -102.894 64.1696 -84.565 -103.181 62.9723 
-84.8064 -103.012 62.1339 -84.6791 -102.624 61.2856 -84.5743 -102.404 60.1667 
-84.7464 -102.392 58.9047 -84.7009 -102.289 57.9888 -84.3388 -102.081 57.2955 
-84.2944 -102.526 63.9338 -83.8372 -102.426 64.2167 -84.6722 -102.656 63.359 
-84.9505 -102.603 62.5219 -84.9748 -102.297 61.6541 -84.8968 -102.053 60.6276 
-85.0964 -102.073 59.3052 -85.248 -102.068 58.1935 -84.8753 -101.824 57.5873 
-84.3218 -101.508 57.0604 -84.2139 -101.894 64.0126 -84.6726 -101.933 63.7129 
-84.5481 -101.275 63.7248 -85.1186 -101.256 63.2852 -84.9147 -100.681 63.2715 
-85.0463 -102.008 63.0108 -85.4486 -100.625 62.5778 -84.9829 -100.174 62.5112 
-85.5082 -101.323 62.4546 -85.2558 -101.945 62.0931 -85.2072 -100.082 61.6461 
-84.6333 -99.7785 61.5645 -85.6342 -100.643 61.6909 -85.5874 -101.348 61.4977 
-85.2529 -101.799 61.0844 -84.7705 -99.5902 60.7865 -84.4328 -99.3102 60.8399 
-85.261 -99.9202 60.8107 -85.5594 -100.58 60.6818 -85.5376 -101.318 60.2801 
-85.3662 -101.792 59.7439 -84.7288 -98.9524 60.1857 -84.5194 -98.5591 60.408 
-85.0771 -99.2035 60.0064 -85.4145 -99.6062 59.752 -85.5566 -100.365 59.3507 
-85.617 -101.225 58.8385 -85.565 -101.793 58.4051 -84.7245 -98.1554 59.6861 
-84.4238 -97.7795 59.9824 -85.1224 -98.4658 59.3601 -85.5098 -98.7531 58.9775 
-85.6027 -99.2397 58.5831 -85.4983 -100.082 58.2131 -85.429 -100.98 57.8854 
-85.2547 -101.534 57.6832 -84.4396 -97.4892 59.1836 -84.0572 -97.2902 59.4783 
-84.9061 -97.7385 58.846 -85.3911 -98.0492 58.4786 -85.5721 -98.4397 58.1359 
-85.3364 -99.0378 57.8794 -85.0093 -99.8653 57.6746 -84.7788 -100.616 57.4845 
-84.5527 -101.112 57.2968 -84.0639 -97.0544 58.7508 -83.6536 -96.9938 59.0175 
-84.5129 -97.1599 58.4591 -84.9447 -97.4029 58.1691 -85.1521 -97.8123 57.8851 
-85.0082 -98.3625 57.6329 -84.6885 -99.0291 57.4281 -84.4168 -99.705 57.2318 
-84.2272 -100.272 56.9943 -84.1031 -100.769 56.6849 -83.9993 -100.738 55.7036 
-84.0393 -100.146 56.0764 -83.8937 -100.142 55.1302 -84.1302 -99.6029 56.4166 
-83.9939 -99.5157 55.4319 -83.4735 -99.5213 54.7392 -84.2163 -99.0519 56.6889 
-84.0533 -98.9287 55.7265 -83.6104 -98.8272 54.9717 -82.8495 -98.8391 54.4117 
-84.3226 -98.388 56.9514 -84.0353 -98.2994 55.9445 -83.7587 -98.1256 55.1339 
-83.0256 -98.072 54.6044 -82.4501 -98.1093 53.9113 -84.5087 -97.673 57.2853 
-84.0582 -97.5252 56.2511 -83.9071 -97.3496 55.1983 -83.3429 -97.3233 54.6416 
-82.5299 -97.4213 54.1548 -82.2263 -97.4784 53.3335 -84.6077 -97.1145 57.6381 
-84.1789 -96.856 56.7556 -83.9901 -96.6043 55.53 -83.6058 -96.5595 54.669 
-82.6993 -96.7854 54.2649 -82.03 -96.9558 53.6881 -81.9008 -96.967 52.8667 
-84.4052 -96.8133 57.9299 -84.1222 -96.5231 57.2448 -83.8518 -96.2405 56.1586 
-83.5471 -96.0268 55.0692 -82.7672 -96.1358 54.4596 -81.9036 -96.3979 53.9748 
-81.6146 -96.4503 53.2235 -81.5677 -96.3973 52.479 -83.9853 -96.7033 58.1979 
-83.7593 -96.377 57.5975 -83.4109 -96.1312 56.7245 -83.1418 -95.8531 55.665 
-82.6706 -95.6735 54.8654 -81.8842 -95.7768 54.3282 -81.4311 -95.8709 53.6205 
-81.4213 -95.7803 52.7731 -81.286 -95.7409 52.1685 -83.542 -96.6628 58.4758 
-83.333 -96.2494 57.9115 -82.9489 -95.9381 57.167 -82.6607 -95.6798 56.196 
-82.4871 -95.3641 55.284 -82.0086 -95.22 54.6662 -81.434 -95.2892 54.0724 
-81.2537 -95.268 53.2553 -81.2169 -95.1496 52.4711 -80.9046 -95.168 52.0048 
-83.8695 -100.935 54.9936 -83.3993 -100.253 54.6643 -83.317 -100.964 54.6547 
-82.7399 -99.5938 54.3661 -82.5487 -100.175 54.4792 -82.4335 -100.845 54.4642 
-82.3993 -98.9051 53.7569 -82.1486 -99.5468 53.912 -81.8753 -100.094 54.0093 
-81.8983 -100.974 53.7708 -82.4095 -98.1607 52.9431 -82.3115 -98.9643 52.8934 
-81.8946 -99.5863 53.116 -81.7129 -100.339 53.0488 -81.7807 -101.356 52.7968 
-82.1817 -97.4971 52.3967 -82.2897 -98.2957 52.0777 -81.97 -99.1375 52.1627 
-81.5634 -99.8208 52.3906 -81.444 -100.644 52.3902 -81.2367 -101.493 52.3781 
-81.6331 -96.9245 52.1656 -81.6489 -97.6091 51.8773 -81.4703 -98.5041 51.7441 
-81.1035 -99.3651 51.8737 -80.8354 -100.007 52.1295 -80.5983 -100.678 52.2858 
-80.1716 -101.352 52.3734 -81.1069 -96.3291 51.9994 -80.8759 -96.9815 51.9142 
-80.676 -97.7195 51.8142 -80.449 -98.6785 51.6927 -80.2302 -99.5621 51.6928 
-80.021 -100.119 51.912 -79.6869 -100.667 52.1269 -79.307 -101.291 52.2177 
-80.638 -95.7299 51.8477 -80.3104 -96.4147 51.8153 -80.0826 -97.0291 51.8049 
-79.9326 -97.7981 51.6929 -79.7892 -98.8834 51.4286 -79.6451 -99.7816 51.303 
-79.4114 -100.278 51.5298 -79.0802 -100.789 51.8043 -78.7971 -101.387 51.9393 
-80.1745 -95.0136 51.8121 -79.8618 -95.6764 51.6522 -79.3225 -94.949 51.6155 
-79.1387 -95.6715 51.3155 -78.6318 -94.9333 51.3759 -79.6528 -96.3814 51.5291 
-78.5073 -95.7299 51.0095 -78.0775 -95.0862 51.3303 -79.0697 -96.3812 51.0516 
-79.5515 -96.9833 51.4664 -77.8093 -95.9617 51.1202 -77.4603 -95.4939 51.5816 
-78.3048 -96.4951 50.8264 -78.9256 -97.0714 51.0382 -79.4173 -97.9193 51.3237 
-77.0723 -96.3173 51.4922 -76.7486 -95.9505 51.8594 -77.4061 -96.7355 51.0832 
-77.9734 -97.3187 50.9531 -78.6732 -98.1986 50.9996 -79.2506 -99.1747 51.0124 
-76.3591 -96.6429 51.7514 -76.0191 -96.2957 52.0695 -76.6592 -97.0312 51.3993 
-77.0359 -97.6383 51.11 -77.6423 -98.5021 50.9574 -78.406 -99.415 50.8378 
-79.0427 -100.02 50.9807 -75.6885 -96.9739 52.0328 -75.3901 -96.6309 52.3816 
-76.0264 -97.3718 51.6689 -76.347 -97.9897 51.2776 -76.7208 -98.7752 51.0054 
-77.305 -99.5105 50.9263 -78.0875 -100.096 51.0178 -78.732 -100.493 51.3425 
-75.1983 -97.3856 52.4907 -74.9611 -97.0137 52.8195 -75.4618 -97.775 52.1022 
-75.7517 -98.3228 51.6464 -76.0738 -99.0003 51.2261 -76.423 -99.5735 51.0665 
-76.9685 -100.074 51.1933 -77.7437 -100.619 51.4043 -78.4093 -101.082 51.6361 
-74.9033 -97.8039 52.988 -74.6786 -97.3642 53.2755 -75.0293 -98.1979 52.5733 
-75.1626 -98.6164 52.1248 -75.498 -99.1272 51.7222 -75.9121 -99.6214 51.4323 
-76.2279 -100.096 51.3735 -76.7034 -100.701 51.4862 -77.4597 -101.307 51.611 
-78.1651 -101.667 51.7982 -80.6477 -94.7151 52.19 -79.8396 -94.5506 51.9469 
-80.2545 -94.4915 52.5421 -79.4818 -94.3109 52.1872 -79.8736 -94.2458 52.9989 
-78.9833 -94.4344 51.7051 -79.1714 -93.994 52.6178 -79.59 -93.8375 53.5108 
-78.7015 -94.1365 51.8801 -78.3207 -94.4046 51.5394 -78.7896 -93.6237 53.2866 
-79.2727 -93.6712 54.1069 -78.3423 -93.8316 52.4147 -77.9561 -94.1357 51.8139 
-77.7085 -94.6539 51.6384 -78.2469 -93.6552 54.0564 -78.8111 -93.8319 54.9007 
-77.8082 -93.6245 53.2839 -77.4116 -93.9367 52.4895 -77.1276 -94.418 52.0191 
-76.9778 -95.1372 51.9204 -77.6925 -93.8607 54.9309 -78.3195 -93.8168 55.8821 
-77.264 -93.7241 54.1421 -76.8888 -93.8105 53.3745 -76.5069 -94.2206 52.6874 
-76.3415 -94.8264 52.3502 -76.245 -95.586 52.2094 -77.3044 -93.777 55.9242 
-77.9575 -93.6262 56.7713 -76.8465 -93.7887 55.0462 -76.5127 -93.7891 54.2114 
-76.1181 -94.0882 53.4729 -75.8838 -94.6241 53.0206 -75.8167 -95.2669 52.7691 
-75.6224 -95.9676 52.5285 -77.1028 -93.6753 56.7737 -77.7413 -93.6685 57.3597 
-76.5614 -93.7111 56.0409 -76.1758 -93.7584 55.1707 -75.8158 -94.0368 54.3221 
-75.6019 -94.5804 53.7905 -75.5811 -95.1623 53.5101 -75.4102 -95.7348 53.1812 
-75.0991 -96.3607 52.8915 -77.0067 -93.8608 57.334 -77.6031 -93.9844 57.7306 
[...]
CELL_DATA 2000
SCALARS Distance double
LOOKUP_TABLE default
144.056 144.022 143.934 143.644 143.782 143.794 143.507 143.445 143.073 
143.461 143.483 143.212 143.224 142.877 142.789 142.333 143.238 143.173 
142.885 142.902 142.599 142.562 142.156 142.015 141.535 143.175 143.006 
142.643 142.587 142.262 142.256 141.879 141.815 141.371 141.233 140.772 
143.196 143.001 142.613 142.424 142.032 141.925 141.509 141.468 141.025 
140.993 140.54 140.458 139.998 143.113 143.02 142.695 142.483 142.078 
141.816 141.361 141.161 140.719 140.624 140.206 140.155 139.725 139.65 
139.212 142.792 142.848 142.563 142.504 142.104 141.89 141.406 141.139 
140.702 140.482 140.116 139.935 139.562 139.403 139.012 138.896 138.54 
142.293 142.424 142.13 142.213 141.8 141.75 141.215 141.086 140.61 
140.494 140.146 139.989 139.637 139.391 138.991 138.771 138.417 138.303 
138.031 144.314 144.787 144.473 144.302 145.344 144.961 144.712 144.367 
144.074 145.795 145.446 145.094 144.743 144.396 144.071 143.757 145.967 
145.721 145.312 145.035 144.694 144.406 144.151 143.826 143.595 145.998 
145.8 145.471 145.229 145.005 144.748 144.623 144.314 144.178 143.784 
143.595 146.111 145.932 145.804 145.541 145.474 145.181 145.129 144.829 
144.723 144.382 144.18 143.788 143.563 146.286 146.188 146.23 146.026 
146.016 145.727 145.59 145.284 145.054 144.793 144.526 144.255 143.958 
143.658 143.384 146.363 146.389 146.467 146.405 146.342 146.158 145.88 
145.6 145.213 144.972 144.649 144.465 144.182 143.946 143.622 143.36 
143.033 146.247 146.374 146.403 146.469 146.352 146.286 145.973 145.752 
145.335 145.076 144.755 144.57 144.355 144.152 143.867 143.573 143.193 
142.914 142.542 146.105 145.807 146.078 146.247 145.423 145.728 145.89 
146.139 146.177 144.896 145.282 145.428 145.731 145.746 145.944 145.806 
144.086 144.583 144.702 145.16 145.201 145.485 145.352 145.476 145.226 
143.222 143.665 143.714 144.253 144.301 144.791 144.731 145.009 144.826 
144.92 144.708 142.517 142.857 142.842 143.257 143.243 143.749 143.707 
144.2 144.107 144.455 144.316 144.475 144.307 141.79 142.148 142.099 
142.454 142.395 142.77 142.686 143.118 143.035 143.532 143.452 143.889 
143.735 143.995 143.758 140.999 141.358 141.286 141.67 141.611 141.982 
141.898 142.228 142.11 142.485 142.389 142.859 142.744 143.182 142.963 
143.278 143.007 140.298 140.59 140.509 140.846 140.787 141.169 141.103 
141.462 141.343 141.661 141.525 141.879 141.765 142.159 142.009 142.374 
142.171 142.488 142.302 141.879 141.682 141.576 141.184 141.503 141.378 
140.949 140.861 140.428 141.287 141.175 140.722 140.621 140.147 140.043 
139.525 141.049 140.925 140.427 140.337 139.825 139.737 139.186 139.079 
138.543 140.839 140.68 140.112 139.983 139.427 139.359 138.823 138.738 
138.202 138.113 137.651 140.618 140.473 139.905 139.703 139.118 138.97 
138.447 138.368 137.873 137.792 137.321 137.268 136.871 140.35 140.246 
139.754 139.558 139.006 138.768 138.225 138.052 137.557 137.458 136.99 
136.934 136.504 136.494 136.115 140.102 140.002 139.554 139.409 138.89 
138.682 138.118 137.9 137.36 137.191 136.702 136.601 136.163 136.123 
135.726 135.729 135.362 139.912 139.798 139.352 139.209 138.685 138.511 
137.941 137.756 137.201 137.024 136.518 136.366 135.925 135.824 135.439 
135.382 135.022 134.998 134.653 141.896 141.196 141.605 141.708 140.385 
140.829 140.849 141.319 141.327 139.455 139.93 139.869 140.344 140.27 
140.782 140.721 138.506 138.971 138.937 139.36 139.263 139.698 139.671 
140.181 140.201 137.645 138.07 138.114 138.515 138.495 138.821 138.814 
139.23 139.359 139.82 139.883 136.862 137.254 137.3 137.736 137.782 
138.141 138.135 138.483 138.557 139.018 139.119 139.523 139.435 136.095 
136.465 136.441 136.884 136.9 137.362 137.358 137.771 137.753 138.191 
138.196 138.663 138.585 138.954 138.756 135.329 135.676 135.605 136 
135.954 136.412 136.407 136.891 136.896 137.344 137.32 137.734 137.671 
138.056 137.948 138.28 138.161 134.594 134.907 134.827 135.178 135.117 
135.499 135.48 135.931 135.988 136.469 136.529 136.932 136.927 137.252 
137.22 137.532 137.514 137.812 137.796 134.157 133.551 134.025 134.383 
132.985 133.438 133.831 134.302 134.686 132.588 132.933 133.322 133.767 
134.179 134.627 135.04 132.452 132.639 132.956 133.293 133.699 134.14 
134.609 135.062 135.559 132.46 132.573 132.796 132.992 133.329 133.698 
134.2 134.671 135.236 135.671 136.161 132.415 132.547 132.73 132.868 
133.13 133.395 133.851 134.287 134.862 135.341 135.851 136.236 136.598 
132.378 132.482 132.692 132.808 133.071 133.256 133.64 133.971 134.454 
134.91 135.39 135.852 136.239 136.601 136.897 132.517 132.541 132.795 
132.841 133.131 133.244 133.593 133.804 134.179 134.498 134.886 135.322 
135.735 136.191 136.569 136.915 137.219 132.791 132.79 133.058 133.039 
133.285 133.33 133.618 133.767 134.088 134.287 134.603 134.882 135.264 
135.681 136.128 136.561 136.946 137.259 137.538 133.964 133.588 133.6 
133.319 133.333 133.261 132.888 132.933 132.711 133.097 133.012 132.609 
132.557 132.266 132.376 132.304 132.918 132.775 132.383 132.301 131.991 
132.008 131.905 132.091 132.188 132.954 132.684 132.275 132.117 131.815 
131.771 131.62 131.737 131.799 132.062 132.215 133.102 132.801 132.371 
132.116 131.796 131.654 131.463 131.474 131.46 131.668 131.802 132.085 
132.198 133.19 132.938 132.531 132.266 131.923 131.71 131.484 131.38 
131.333 131.402 131.53 131.722 131.881 132.075 132.187 133.309 133.047 
132.696 132.432 132.107 131.863 131.625 131.46 131.416 131.393 131.551 
131.619 131.816 131.887 132.03 132.137 132.303 133.564 133.26 132.961 
132.658 132.378 132.091 131.873 131.651 131.604 131.535 131.7 131.74 
131.941 131.949 132.049 132.059 132.166 132.303 132.518 139.674 139.045 
139.285 139.077 138.297 138.584 138.35 138.603 138.354 137.551 137.831 
137.621 137.853 137.577 137.825 137.586 136.854 137.109 136.935 137.167 
136.905 137.083 136.806 137.061 136.861 136.183 136.406 136.195 136.469 
136.216 136.421 136.095 136.303 136.052 136.354 136.189 135.546 135.727 
135.471 135.715 135.464 135.691 135.357 135.557 135.257 135.544 135.376 
135.718 135.606 134.938 135.096 134.849 135.042 134.823 135.001 134.715 
134.845 134.552 134.765 134.611 134.935 134.867 135.195 135.13 134.373 
134.501 134.249 134.439 134.234 134.425 134.174 134.286 133.993 134.13 
133.957 134.226 134.173 134.49 134.436 134.747 134.696 133.899 133.968 
133.681 133.834 133.605 133.815 133.565 133.733 133.423 133.571 133.336 
133.585 133.488 133.807 133.737 134.049 133.972 134.308 134.289 139.904 
140.037 139.754 139.284 140.165 139.861 139.351 139.058 138.531 140.303 
139.989 139.458 139.124 138.57 138.27 137.756 140.379 140.103 139.582 
139.252 138.704 138.356 137.836 137.536 137.076 140.434 140.158 139.654 
139.355 138.834 138.513 138.006 137.677 137.207 136.904 136.459 140.573 
140.266 139.788 139.452 138.949 138.63 138.116 137.813 137.301 137.023 
136.537 136.275 135.817 140.672 140.419 139.957 139.633 139.135 138.787 
138.254 137.902 137.325 137.026 136.484 136.272 135.799 135.607 135.176 
140.632 140.442 139.961 139.729 139.221 138.95 138.431 138.083 137.503 
137.097 136.522 136.208 135.756 135.558 135.184 134.995 134.628 140.589 
140.373 139.886 139.663 139.163 138.952 138.485 138.235 137.748 137.364 
136.836 136.4 135.955 135.625 135.303 135.06 134.759 134.516 134.192 
140.467 140.071 140.08 139.715 139.699 139.697 139.295 139.303 138.974 
139.263 139.335 138.984 138.945 138.571 138.592 138.314 138.701 138.849 
138.543 138.605 138.216 138.22 137.864 137.937 137.621 138.139 138.243 
137.867 138.019 137.596 137.731 137.315 137.443 137.072 137.178 136.776 
137.636 137.675 137.195 137.282 136.807 136.97 136.548 136.759 136.402 
136.588 136.228 136.31 135.925 137.079 137.134 136.645 136.666 136.206 
136.26 135.879 136.004 135.688 135.875 135.584 135.751 135.44 135.531 
135.239 136.493 136.558 136.136 136.167 135.792 135.81 135.501 135.515 
135.211 135.258 134.952 135.09 134.812 134.994 134.731 134.884 134.647 
136.022 136.041 135.678 135.708 135.391 135.444 135.186 135.224 134.938 
134.91 134.553 134.548 134.219 134.345 134.093 134.297 134.071 134.268 
134.056 135.703 135.094 135.375 135.331 134.356 134.697 134.653 135.007 
135.036 133.588 133.912 133.877 134.277 134.35 134.756 134.852 132.997 
133.22 133.189 133.521 133.609 134.038 134.17 134.578 134.626 132.558 
132.722 132.685 132.928 132.986 133.334 133.449 133.856 133.906 134.268 
134.222 132.232 132.319 132.274 132.477 132.509 132.775 132.836 133.162 
133.192 133.528 133.495 133.828 133.83 132.172 132.087 132.035 132.135 
132.192 132.363 132.388 132.596 132.578 132.848 132.822 133.134 133.161 
133.525 133.662 132.359 132.145 132.05 132.024 132.089 132.156 132.164 
132.225 132.131 132.275 132.218 132.495 132.541 132.896 133.039 133.442 
133.648 132.557 132.341 132.165 132.087 132.077 132.105 132.069 132.061 
131.893 131.902 131.778 131.95 131.998 132.312 132.474 132.846 133.053 
133.452 133.663 135.852 135.975 135.697 135.266 136.208 135.858 135.381 
135.068 134.555 136.521 136.13 135.637 135.239 134.682 134.312 133.788 
136.806 136.442 135.966 135.552 134.992 134.52 133.941 133.579 133.155 
136.986 136.674 136.211 135.866 135.335 134.874 134.258 133.796 133.292 
133.012 132.69 137.151 136.834 136.384 136.072 135.59 135.198 134.62 
134.141 133.604 133.217 132.873 132.627 132.408 137.394 137.042 136.618 
136.276 135.854 135.479 135.009 134.542 134.07 133.611 133.31 132.961 
132.824 132.518 132.428 137.691 137.325 136.911 136.555 136.174 135.814 
135.444 135.014 134.623 134.146 133.855 133.478 133.387 133.083 133.065 
132.715 132.673 138 137.636 137.222 136.863 136.488 136.155 135.829 
135.479 135.135 134.709 134.353 133.975 133.779 133.567 133.539 133.341 
133.301 132.983 132.884 136.259 137.041 136.541 136.413 138.066 137.446 
137.3 136.768 136.68 139.18 138.539 138.375 137.756 137.633 137.09 
137.009 140.205 139.611 139.414 138.819 138.666 138.099 137.979 137.432 
137.307 141.178 140.61 140.416 139.814 139.663 139.109 138.996 138.432 
138.264 137.687 137.497 142.134 141.63 141.556 140.91 140.812 140.166 
140.077 139.461 139.29 138.658 138.416 137.832 137.638 142.994 142.612 
142.677 142.125 142.093 141.426 141.318 140.615 140.413 139.705 139.434 
138.777 138.55 137.994 137.859 143.755 143.458 143.563 143.165 143.137 
142.618 142.462 141.83 141.567 140.853 140.551 139.841 139.601 138.967 
138.817 138.265 138.165 144.44 144.188 144.264 143.936 143.863 143.463 
143.276 142.794 142.52 141.925 141.615 140.955 140.7 140.056 139.882 
139.276 139.142 138.583 138.473 144.842 145.265 144.935 144.61 145.463 
145.217 144.82 144.542 144.124 145.47 145.273 144.838 144.629 144.179 
143.952 143.503 145.385 145.188 144.72 144.567 144.146 143.967 143.52 
143.284 142.782 145.239 145.057 144.545 144.405 143.999 143.893 143.475 
143.28 142.766 142.504 141.932 144.971 144.872 144.384 144.239 143.82 
143.72 143.309 143.17 142.661 142.453 141.899 141.64 141.068 144.588 
144.572 144.167 144.077 143.677 143.565 143.152 142.996 142.5 142.306 
141.783 141.585 141.071 140.813 140.271 144.254 144.227 143.874 143.829 
143.455 143.392 143.001 142.873 142.415 142.199 141.697 141.477 140.994 
140.786 140.288 140.03 139.507 144.07 143.992 143.662 143.57 143.199 
143.128 142.757 142.693 142.3 142.15 141.683 141.447 140.95 140.718 
140.233 140.011 139.522 139.275 138.801 143.91 143.504 143.648 143.477 
142.942 143.174 142.981 143.139 142.952 142.193 142.518 142.352 142.584 
142.38 142.59 142.465 141.357 141.696 141.546 141.877 141.703 141.974 
141.826 142.107 142.006 140.578 140.86 140.664 141.011 140.835 141.196 
141.015 141.373 141.218 141.57 141.397 139.826 140.092 139.858 140.147 
139.937 140.278 140.069 140.445 140.242 140.656 140.466 140.855 140.645 
139.057 139.324 139.088 139.356 139.14 139.431 139.236 139.533 139.339 
139.672 139.505 139.884 139.72 140.091 139.912 138.397 138.598 138.371 
138.595 138.376 138.653 138.477 138.768 138.604 138.878 138.729 139.023 
138.889 139.206 139.052 139.387 139.218 137.91 138.039 137.818 137.949 
137.704 137.907 137.705 137.998 137.833 138.148 137.986 138.294 138.137 
138.438 138.269 138.565 138.384 138.702 138.531 138.045 137.893 137.726 
137.267 137.776 137.582 137.084 136.937 136.516 137.642 137.45 136.922 
136.75 136.301 136.214 135.86 137.49 137.303 136.782 136.593 136.127 
136.006 135.622 135.563 135.188 137.344 137.163 136.693 136.5 136.068 
135.883 135.449 135.309 134.864 134.803 134.394 137.247 137.051 136.629 
136.453 136.081 135.89 135.449 135.193 134.661 134.472 134.051 134.034 
133.796 137.295 137.04 136.627 136.412 136.033 135.878 135.473 135.235 
134.706 134.388 133.938 133.789 133.626 133.651 133.605 137.468 137.19 
136.779 136.471 136.017 135.794 135.376 135.209 134.772 134.507 134.08 
133.829 133.619 133.564 133.536 133.551 133.446 137.607 137.386 137.004 
136.675 136.184 135.835 135.362 135.125 134.748 134.562 134.218 134.001 
133.721 133.591 133.442 133.441 133.303 133.292 133.048 146.142 146.231 
146.139 146.011 146.243 146.214 146.159 146.049 146.029 146.279 146.313 
146.449 146.323 146.42 146.236 146.339 146.342 146.445 146.708 146.678 
146.849 146.716 146.85 146.657 146.709 146.324 146.503 146.71 146.813 
146.88 146.946 146.979 147.016 147.001 146.887 146.698 146.052 146.336 
146.441 146.637 146.601 146.741 146.671 146.843 146.786 146.907 146.723 
146.628 146.257 145.49 145.848 145.907 146.215 146.23 146.419 146.402 
146.513 146.49 146.591 146.509 146.52 146.274 146.107 145.74 144.857 
145.177 145.205 145.576 145.651 145.996 146.061 146.277 146.265 146.366 
146.29 146.332 146.187 146.119 145.872 145.659 145.343 144.338 144.567 
144.56 144.878 144.932 145.334 145.389 145.772 145.72 145.998 145.845 
146.036 145.858 145.969 145.771 145.742 145.482 145.296 144.985 145.961 
145.906 145.852 145.622 145.941 145.856 145.746 145.566 145.264 146.157 
145.966 145.886 145.751 145.558 145.251 144.877 146.415 146.182 145.953 
145.849 145.658 145.503 145.154 144.835 144.414 146.383 146.278 145.886 
145.795 145.458 145.426 145.057 144.94 144.484 144.277 143.837 145.968 
146.023 145.632 145.6 145.184 145.134 144.711 144.666 144.221 144.156 
143.704 143.593 143.152 145.444 145.522 145.205 145.261 144.919 144.875 
144.447 144.334 143.872 143.805 143.388 143.353 142.949 142.859 142.445 
145.019 145.039 144.72 144.808 144.528 144.584 144.201 144.108 143.605 
143.482 143.036 143.009 142.656 142.631 142.268 142.172 141.796 144.66 
144.646 144.269 144.323 144.014 144.13 143.794 143.809 143.335 143.223 
142.736 142.671 142.316 142.328 142.026 141.992 141.644 141.545 141.182 
145.915 145.479 145.662 145.582 144.99 145.149 145.029 145.278 145.198 
144.524 144.624 144.451 144.697 144.637 144.889 144.727 144.099 144.168 
143.948 144.131 144.049 144.309 144.162 144.329 144 143.61 143.735 
143.489 143.633 143.464 143.697 143.525 143.73 143.438 143.541 143.184 
142.97 143.185 142.933 143.113 142.859 143.066 142.831 143.058 142.799 
142.974 142.682 142.789 142.488 142.275 142.508 142.277 142.488 142.228 
142.419 142.159 142.365 142.125 142.333 142.087 142.26 141.982 142.102 
141.774 141.638 141.844 141.648 141.849 141.629 141.797 141.552 141.723 
141.496 141.693 141.467 141.653 141.387 141.542 141.229 141.342 140.999 
141.027 141.231 141.052 141.263 141.073 141.238 140.991 141.136 140.885 
141.073 140.843 141.039 140.776 140.937 140.64 140.778 140.479 140.588 
140.296 136.365 136.878 136.769 137.163 137.505 137.369 137.771 137.674 
138.172 138.06 137.984 138.372 138.295 138.77 138.743 139.278 138.499 
138.46 138.842 138.83 139.292 139.309 139.854 139.85 140.346 138.99 
138.893 139.286 139.275 139.79 139.819 140.393 140.412 140.945 140.884 
141.311 139.567 139.441 139.835 139.778 140.321 140.344 140.935 140.955 
141.464 141.435 141.835 141.772 142.143 140.087 140.027 140.424 140.357 
140.826 140.848 141.372 141.437 141.895 141.903 142.244 142.205 142.518 
142.519 142.892 140.502 140.517 140.936 140.902 141.282 141.273 141.674 
141.752 142.179 142.258 142.624 142.602 142.902 142.856 143.193 143.229 
143.627 140.857 140.902 141.326 141.344 141.697 141.668 141.986 142.001 
142.397 142.497 142.948 142.996 143.368 143.295 143.605 143.549 143.904 
143.946 144.326 
POINT_DATA 1002
SCALARS Distance double
LOOKUP_TABLE default
143.809 144.148 144.213 143.783 144.071 143.343 143.529 143.746 143.211 
142.667 143.175 143.463 142.932 142.49 141.843 142.882 143.37 142.6 
142.266 141.713 141.052 142.767 143.389 142.282 141.905 141.467 140.935 
140.33 142.849 143.352 142.226 141.59 141.033 140.576 140.11 139.554 
142.862 143.128 142.377 141.633 140.861 140.264 139.78 139.287 138.794 
142.555 142.694 142.274 141.663 140.923 140.323 139.764 139.144 138.607 
138.218 142.023 142.163 141.812 141.313 140.672 140.237 139.881 139.267 
138.563 138.083 137.792 144.583 144.625 145.154 145.106 145.774 144.405 
145.459 146.153 144.72 144.062 145.553 146.196 144.927 144.437 143.955 
145.655 146.145 145.209 144.882 144.554 144.029 145.998 146.191 145.763 
145.454 145.053 144.565 143.948 146.377 146.291 146.318 145.968 145.348 
144.763 144.253 143.674 146.502 146.298 146.523 146.188 145.486 144.806 
144.382 143.914 143.279 146.325 146.118 146.384 146.149 145.583 144.938 
144.525 144.161 143.528 142.771 145.874 146.034 145.512 145.639 145.118 
146 145.092 144.481 145.556 145.686 144.179 143.599 144.836 145.214 
145.159 143.219 142.85 143.746 144.324 144.656 144.665 142.502 142.201 
142.806 143.178 143.622 144.048 144.239 141.742 141.429 142.056 142.327 
142.556 142.928 143.381 143.586 140.905 140.664 141.214 141.566 141.803 
141.972 142.269 142.581 142.721 140.202 140.028 140.421 140.727 141.017 
141.208 141.397 141.628 141.819 141.972 141.503 141.255 140.796 141.062 
140.532 139.957 140.836 140.271 139.64 138.979 140.542 139.906 139.3 
138.618 138.033 140.292 139.504 138.873 138.297 137.69 137.231 140.11 
139.316 138.537 137.934 137.389 136.884 136.497 139.901 139.251 138.453 
137.687 137.053 136.529 136.101 135.748 139.684 139.077 138.343 137.561 
136.834 136.222 135.739 135.34 134.998 139.508 138.865 138.114 137.367 
136.677 136.043 135.512 135.068 134.658 134.304 141.29 140.402 140.855 
139.431 139.775 140.18 138.506 138.874 139.142 139.694 137.673 138.166 
138.448 138.855 139.531 136.86 137.37 137.812 138.147 138.669 139.157 
136.04 136.425 136.907 137.356 137.757 138.163 138.438 135.242 135.535 
135.904 136.412 136.92 137.284 137.569 137.839 134.481 134.76 135.059 
135.478 136.075 136.594 136.904 137.188 137.514 133.686 133.908 133.059 
133.349 132.548 134.239 132.903 132.314 133.715 134.585 132.703 132.342 
133.263 134.12 135.124 132.675 132.366 133.012 133.712 134.771 135.817 
132.601 132.279 132.917 133.463 134.381 135.439 136.299 132.568 132.287 
132.908 133.389 134.072 134.912 135.821 136.6 132.77 132.496 133.05 
133.437 133.954 134.511 135.235 136.153 136.957 133.105 132.773 133.3 
133.506 133.913 134.398 134.902 135.657 136.575 137.308 133.904 133.212 
133.649 132.924 133.429 132.529 132.685 133.177 132.219 132.052 132.465 
133.112 132.001 131.754 131.909 132.477 133.275 131.887 131.559 131.55 
131.939 132.654 133.381 131.986 131.519 131.314 131.517 131.951 132.782 
133.411 132.161 131.626 131.31 131.376 131.698 131.996 132.952 133.565 
132.357 131.805 131.446 131.494 131.785 131.967 132.128 133.265 133.863 
132.667 132.112 131.703 131.666 131.943 132.097 132.084 132.286 139.487 
138.86 138.787 138.107 137.999 138.083 137.387 137.267 137.37 137.278 
136.674 136.622 136.745 136.602 136.54 135.924 136.004 135.988 135.917 
135.769 135.848 135.255 135.379 135.235 135.171 134.987 135.016 135.264 
134.655 134.78 134.637 134.598 134.379 134.293 134.526 134.811 134.069 
134.271 134.026 134.043 133.884 133.719 133.86 134.135 134.364 140.196 
139.578 140.338 139.667 140.491 138.808 139.809 140.61 138.898 138.004 
139.89 140.639 139.048 138.165 137.339 139.946 140.717 139.127 138.327 
137.529 136.753 140.136 140.866 139.285 138.436 137.585 136.79 136.071 
140.257 140.895 139.48 138.64 137.686 136.705 135.957 135.371 140.176 
140.826 139.452 138.732 137.923 136.9 135.963 135.348 134.835 140.119 