# vtk DataFile Version 4.0
vtk output
ASCII
DATASET POLYDATA
POINTS 1002 float
-79.8172 -103.503 55.1313 -79.8461 -103.707 56.0853 -80.3682 -103.538 55.6886 
-80.4462 -103.537 54.5276 -80.9807 -103.484 55.112 -79.8449 -103.547 53.9324 
-81.1877 -103.566 53.9244 -81.7456 -103.46 54.4491 -80.5385 -103.534 53.3593 
-79.8472 -103.388 52.8985 -81.9613 -103.389 53.4349 -82.5721 -103.282 53.9143 
-81.2783 -103.361 52.898 -80.5243 -103.136 52.5001 -79.7447 -102.935 52.1262 
-82.6372 -103.002 53.0567 -83.2528 -102.971 53.5263 -81.9673 -103.036 52.4754 
-81.2186 -102.88 52.0428 -80.4436 -102.731 51.6654 -79.6013 -102.733 51.1437 
-83.2674 -102.661 52.6183 -83.8979 -102.703 53.0404 -82.5908 -102.673 52.0499 
-81.8619 -102.659 51.5144 -81.1587 -102.641 51.0433 -80.3985 -102.739 50.4697 
-79.503 -102.764 49.9226 -84.0392 -102.477 52.0298 -84.6622 -102.453 52.4808 
-83.3065 -102.404 51.5631 -82.5107 -102.389 51.0601 -81.7396 -102.416 50.5381 
-81.0659 -102.533 49.9346 -80.2857 -102.582 49.4004 -79.4246 -102.385 49.1226 
-84.7472 -102.263 51.5265 -85.2369 -102.051 52.127 -84.086 -102.248 51.0123 
-83.3278 -102.203 50.5381 -82.4143 -102.14 50.0965 -81.5399 -102.068 49.647 
-80.8106 -102.038 49.1955 -80.0649 -101.891 48.9166 -79.3543 -101.634 48.7918 
-85.0736 -101.833 51.2775 -85.425 -101.503 51.961 -84.5827 -101.996 50.6204 
-84.0712 -102.077 49.9986 -83.3175 -102.055 49.4918 -82.2472 -101.794 49.2209 
-81.2783 -101.488 49.0363 -80.5548 -101.311 48.7829 -79.9067 -101.16 48.5491 
-79.3161 -101.029 48.3519 -85.164 -101.252 51.1369 -85.4897 -100.976 51.7631 
-84.7472 -101.486 50.4582 -84.4079 -101.687 49.7529 -83.9732 -101.815 49.0979 
-83.0743 -101.64 48.7353 -81.9507 -101.194 48.6885 -81.0939 -100.867 48.5698 
-80.4665 -100.769 48.2295 -79.8616 -100.738 47.8812 -79.2825 -100.709 47.6361 
-80.2306 -104.024 56.6221 -80.6996 -103.643 56.3495 -80.6068 -104.331 57.1274 
-80.9892 -103.744 56.9444 -80.9582 -104.445 57.6402 -81.2864 -103.419 55.7423 
-81.3277 -103.79 57.4859 -81.3487 -104.393 58.1714 -81.6608 -103.44 56.3019 
-82.2064 -103.398 54.921 -81.7512 -103.755 57.9401 -81.7101 -104.226 58.6856 
-82.2102 -103.556 56.8869 -82.8524 -103.529 55.4115 -83.2022 -103.326 54.2883 
-82.0947 -103.486 58.212 -81.9215 -103.841 59.1421 -82.729 -103.49 57.389 
-83.4968 -103.628 56.1133 -83.8645 -103.445 54.7802 -83.8746 -103.02 53.8699 
-82.397 -103.05 58.4175 -82.1627 -103.369 59.5295 -83.0296 -103.065 57.6224 
-83.7868 -103.297 56.7653 -84.2155 -103.242 55.5163 -84.3389 -102.863 54.3434 
-84.4873 -102.573 53.3934 -82.9149 -102.789 58.7883 -82.6289 -103.042 59.8274 
-83.3702 -102.659 57.8382 -83.9037 -102.744 57.0934 -84.3263 -102.744 56.1192 
-84.6132 -102.446 54.9423 -84.8882 -102.133 53.9084 -85.161 -102.052 52.989 
-83.5518 -102.667 59.2386 -83.1531 -102.743 59.9839 -83.8862 -102.498 58.2777 
-84.1945 -102.393 57.3498 -84.6031 -102.372 56.3963 -85.0745 -102.197 55.3718 
-85.3596 -101.805 54.4675 -85.4693 -101.513 53.6497 -85.519 -101.474 52.7929 
-83.9817 -102.366 59.5002 -83.4981 -102.274 59.9863 -84.3048 -102.295 58.7044 
-84.5243 -102.139 57.6918 -84.952 -102.101 56.5992 -85.6657 -102.115 55.6151 
-86.1039 -101.85 54.8989 -85.9699 -101.351 54.2694 -85.7116 -101.021 53.4704 
-85.6063 -100.965 52.5742 -83.9771 -101.74 59.6489 -84.3822 -101.829 59.0494 
-84.2246 -101.108 59.0853 -84.5228 -101.133 58.3035 -84.3543 -100.492 58.3317 
-84.6271 -101.736 58.1254 -84.7233 -100.467 57.466 -84.5916 -99.9174 57.6038 
-84.881 -101.036 57.2734 -85.0255 -101.652 56.9539 -85.1166 -99.8708 56.7866 
-84.9207 -99.2877 56.9849 -85.3134 -100.386 56.5076 -85.6522 -101.06 56.1856 
-85.9072 -101.769 55.8666 -85.4225 -99.2365 56.1503 -85.1496 -98.6243 56.372 
-85.6956 -99.7776 55.8883 -86.1193 -100.37 55.6868 -86.6581 -101.177 55.4919 
-86.7132 -101.771 55.2128 -85.4986 -98.6331 55.3968 -85.2248 -98.0644 55.6837 
-85.7884 -99.2198 55.1096 -86.1985 -99.692 55.0663 -86.7697 -100.302 55.18 
-87.0456 -101.025 55.0749 -86.6471 -101.349 54.7121 -85.469 -98.1579 54.6177 
-85.1807 -97.6443 54.9338 -85.7521 -98.7683 54.2563 -86.1425 -99.2058 54.1311 
-86.6858 -99.5561 54.3031 -87.0118 -100.147 54.389 -86.7206 -100.678 54.1915 
-86.1165 -100.855 53.8625 -85.3408 -97.7581 53.9354 -84.9959 -97.3045 54.2109 
-85.7013 -98.3195 53.6097 -86.1324 -98.7502 53.3662 -86.6972 -99.0026 53.2757 
-87.1541 -99.4646 53.1871 -87.0313 -100.112 53.0234 -86.4039 -100.481 52.9036 
-85.848 -100.644 52.801 -85.0554 -97.374 53.366 -84.6869 -96.9924 53.5867 
-85.5236 -97.8229 53.1435 -86.0674 -98.1698 52.9344 -86.6413 -98.3578 52.6856 
-87.1426 -98.747 52.3317 -87.2862 -99.5026 51.9812 -86.8997 -100.142 51.8362 
-86.2676 -100.402 51.8808 -85.7726 -100.599 51.8998 -85.4466 -100.63 51.1304 
-85.8956 -100.305 51.2102 -85.3489 -100.177 50.5077 -86.4094 -100.068 51.2091 
-85.7307 -99.8261 50.6834 -85.1297 -99.6579 49.8702 -86.8308 -99.5588 51.2306 
-85.9948 -99.3877 50.8365 -85.3022 -99.1545 50.12 -84.8388 -99.0616 49.1692 
-86.9997 -98.6472 51.4615 -86.2381 -98.6192 50.894 -85.4548 -98.4895 50.2723 
-84.9531 -98.342 49.3437 -84.4049 -98.2757 48.5802 -86.8432 -97.8952 51.9224 
-86.4674 -97.7299 51.0711 -85.7722 -97.7577 50.2415 -85.1846 -97.6752 49.3451 
-84.5612 -97.54 48.595 -83.7476 -97.504 48.1609 -86.3646 -97.6604 52.3368 
-86.3474 -97.2535 51.4666 -85.8904 -97.1977 50.405 -85.3202 -97.2002 49.3454 
-84.7738 -97.1039 48.4501 -84.0308 -97.0544 47.9299 -83.191 -97.0953 47.6011 
-85.6786 -97.537 52.5541 -85.7552 -97.1426 51.7964 -85.4825 -96.9039 50.7744 
-84.9741 -96.776 49.6592 -84.6397 -96.6568 48.5548 -84.3311 -96.6654 47.6776 
-83.6857 -96.7678 47.204 -82.9079 -96.8388 46.8777 -85.022 -97.2243 52.7082 
-85.0441 -96.9429 51.9957 -84.921 -96.6381 51.0917 -84.5096 -96.3437 50.0588 
-84.23 -96.0439 48.9478 -84.2945 -95.9301 47.8214 -84.107 -96.0734 47.0104 
-83.3924 -96.2696 46.6108 -82.5975 -96.3918 46.3387 -84.5496 -96.85 52.8961 
-84.5131 -96.5915 52.2021 -84.5476 -96.2428 51.4058 -84.3676 -95.8838 50.4565 
-84.0552 -95.5238 49.3768 -84.0689 -95.2363 48.2062 -84.16 -95.1842 47.1916 
-83.6989 -95.3629 46.6032 -82.8337 -95.6228 46.328 -82.1041 -95.8521 46.0982 
-84.9785 -100.779 50.5065 -84.8247 -100.216 49.8508 -84.5559 -100.952 49.8339 
-84.6405 -99.666 49.1685 -84.3451 -100.272 49.2824 -84.21 -101.116 49.1758 
-84.2853 -99.0629 48.5289 -83.9844 -99.6059 48.73 -83.7092 -100.233 48.8341 
-83.5487 -101.099 48.6476 -83.6419 -98.2695 48.0784 -83.4819 -99.0069 48.0715 
-83.0765 -99.452 48.3338 -82.7564 -100.055 48.4315 -82.4815 -100.775 48.4255 
-82.9334 -97.5583 47.6371 -82.9328 -98.3554 47.4039 -82.7118 -99.0088 47.4128 
-82.2181 -99.3948 47.7586 -81.8673 -99.8966 48.0402 -81.5505 -100.444 48.2719 
-82.5055 -97.1512 46.9596 -82.452 -97.726 46.7521 -82.4853 -98.5397 46.4928 
-82.1491 -99.1512 46.6426 -81.6453 -99.5296 47.0955 -81.2956 -99.9467 47.4877 
-80.9217 -100.385 47.8351 -82.2462 -96.7879 46.2927 -82.0801 -97.2064 46.1434 
-82.0986 -97.8808 45.9025 -81.9918 -98.688 45.8165 -81.5698 -99.2991 46.0756 
-81.1054 -99.7135 46.4854 -80.7223 -100.105 46.8533 -80.2943 -100.458 47.3051 
-81.8898 -96.3167 45.9195 -81.7042 -96.724 45.7347 -81.5686 -97.2314 45.5737 
-81.4828 -97.954 45.4609 -81.2568 -98.7378 45.5082 -80.8216 -99.3502 45.7788 
-80.3693 -99.8075 46.104 -79.9734 -100.201 46.4446 -79.6027 -100.495 46.9728 
-81.4715 -95.6878 45.8218 -81.2996 -96.1244 45.5514 -80.9212 -95.5041 45.4012 
-80.5334 -95.9235 45.0449 -80.2522 -95.1901 44.7512 -81.0125 -96.5777 45.3394 
-79.6445 -95.7366 44.2192 -79.4973 -94.8893 44.0391 -80.0636 -96.4958 44.7807 
-80.7689 -97.1822 45.2235 -79.1199 -95.6836 43.4609 -79.0076 -94.8582 43.7897 
-79.3158 -96.5274 43.9379 -79.906 -97.2395 44.6967 -80.6634 -97.9705 45.1904 
-78.9991 -95.7359 43.5873 -78.6088 -94.9928 44.2507 -79.1076 -96.572 43.5512 
-79.3631 -97.333 44.137 -79.8853 -98.0504 44.8479 -80.401 -98.7627 45.3569 
-78.4904 -95.781 44.4385 -77.8292 -95.1318 44.8993 -78.8139 -96.5286 44.1769 
-78.8994 -97.2958 44.2329 -79.1509 -98.1023 44.6385 -79.5107 -98.827 45.231 
-79.9058 -99.4015 45.6901 -77.4294 -95.9219 45.0462 -76.8831 -95.3632 45.2788 
-77.8886 -96.5689 44.9785 -78.0576 -97.2636 44.8685 -78.2505 -98.1142 44.7814 
-78.6004 -98.9375 45.0925 -78.973 -99.5125 45.6118 -79.4434 -99.9171 45.9938 
-76.4868 -96.1936 45.2686 -76.2253 -95.6875 45.5751 -76.8282 -96.7946 45.2563 
-77.063 -97.4357 45.2804 -77.3271 -98.2201 45.0841 -77.7768 -99.0514 45.0544 
-78.2204 -99.6468 45.4697 -78.626 -100.022 45.9608 -79.1167 -100.303 46.3964 
-75.9583 -96.451 45.6157 -75.8556 -95.9852 46.0384 -76.1473 -97.0267 45.4427 
-76.3345 -97.6678 45.4584 -76.6049 -98.3896 45.3807 -77.1087 -99.1122 45.295 
-77.6548 -99.6449 45.5474 -78.0506 -100.007 46.0321 -78.4321 -100.316 46.5055 
-78.8749 -100.548 47.03 -81.8852 -95.2022 46.1442 -81.2426 -95.1068 45.8448 
-81.7136 -94.5797 46.2124 -81.1639 -94.4273 45.849 -81.682 -93.9358 46.391 
-80.7954 -94.8734 45.3446 -81.1664 -93.5528 46.0289 -81.6278 -93.2696 46.8583 
-80.7056 -94.0749 45.3693 -80.1654 -94.44 44.7869 -80.9885 -92.8621 46.5536 
-81.3461 -92.9953 47.5211 -80.4693 -93.2716 45.6511 -79.9171 -93.7728 45.1011 
-79.3425 -94.1976 44.4963 -80.5469 -92.8336 47.329 -80.8002 -93.2058 48.2139 
-80.037 -92.9042 46.2858 -79.4634 -93.4031 45.6073 -78.9558 -93.8782 45.2158 
-78.6408 -94.3357 44.6702 -79.965 -93.0666 48.2297 -80.1399 -93.3485 48.9791 
-79.505 -92.9176 47.2411 -78.923 -93.1699 46.3651 -78.4626 -93.6873 45.8562 
-78.1201 -94.1261 45.4699 -77.9251 -94.5407 45.084 -79.4609 -93.0847 49.1148 
-79.6421 -93.2565 49.7675 -79.0031 -92.9523 48.2575 -78.3584 -92.9107 47.3706 
-77.8953 -93.1847 46.6181 -77.6247 -93.7481 46.0345 -77.3507 -94.2691 45.6581 
-77.0911 -94.7448 45.433 -79.1469 -93.0661 49.8499 -79.3712 -93.2281 50.444 
-78.6865 -93.058 49.0629 -77.9746 -92.9725 48.2625 -77.3619 -92.8405 47.5269 
-77.0629 -93.1357 46.7656 -76.8947 -93.8486 46.1822 -76.6755 -94.5093 45.9324 
-76.427 -95.068 45.7713 -78.8822 -93.1942 50.4559 -79.1359 -93.3759 50.9976 
-78.4846 -93.2687 49.7172 -77.866 -93.3708 48.9466 -77.1748 -93.1669 48.313 
[...]
CELL_DATA 2000
SCALARS Distance double
LOOKUP_TABLE default
141.22 141.302 141.09 140.767 141.455 141.237 140.942 140.685 140.329 
141.602 141.406 141.098 140.852 140.443 140.178 139.727 141.648 141.488 
141.132 140.938 140.499 140.25 139.785 139.527 139.086 141.643 141.471 
141.088 140.909 140.486 140.271 139.844 139.607 139.224 138.96 138.578 
141.7 141.493 141.124 140.891 140.487 140.262 139.851 139.649 139.274 
139.086 138.707 138.462 138.029 141.724 141.577 141.236 140.99 140.604 
140.335 139.92 139.662 139.226 139.041 138.609 138.463 137.993 137.803 
137.319 141.518 141.511 141.187 141.058 140.697 140.489 140.111 139.811 
139.344 139.018 138.512 138.289 137.811 137.661 137.195 137.044 136.621 
141.131 141.193 140.873 140.873 140.524 140.477 140.133 139.975 139.525 
139.193 138.622 138.268 137.74 137.507 137.079 136.918 136.538 136.393 
136.055 141.619 142.224 141.798 141.611 142.755 142.341 142.067 141.763 
141.671 143.194 142.807 142.52 142.193 142.077 141.859 141.839 143.555 
143.217 143.008 142.698 142.653 142.36 142.369 142.066 141.989 143.698 
143.483 143.326 143.189 143.25 143.025 143.045 142.683 142.563 142.173 
142.003 143.674 143.511 143.332 143.362 143.449 143.475 143.458 143.253 
143.008 142.681 142.419 142.132 141.979 143.799 143.564 143.397 143.328 
143.368 143.458 143.436 143.409 143.133 142.937 142.601 142.411 142.211 
142.066 141.934 144.055 143.857 143.759 143.533 143.494 143.398 143.379 
143.326 143.202 143.034 142.803 142.566 142.351 142.185 142.016 141.909 
141.705 144.11 144.11 144.052 143.899 143.754 143.575 143.466 143.366 
143.363 143.251 143.231 142.952 142.79 142.426 142.186 141.941 141.706 
141.576 141.327 143.986 143.62 143.924 143.989 142.985 143.401 143.496 
143.78 143.698 142.35 142.714 142.803 143.169 143.21 143.454 143.402 
141.849 142.149 142.255 142.545 142.698 142.996 143.187 143.347 143.409 
141.325 141.663 141.786 142.079 142.251 142.581 142.902 143.21 143.463 
143.501 143.436 140.707 141.079 141.181 141.55 141.671 142.08 142.326 
142.819 143.079 143.415 143.354 143.337 142.97 140.081 140.434 140.519 
140.893 140.993 141.402 141.558 142.073 142.257 142.77 142.722 142.97 
142.591 142.608 142.187 139.461 139.807 139.899 140.257 140.37 140.731 
140.853 141.271 141.418 141.887 141.926 142.247 142.017 142.111 141.754 
141.813 141.576 138.817 139.172 139.263 139.644 139.76 140.127 140.211 
140.576 140.652 141.076 141.153 141.533 141.473 141.636 141.409 141.433 
141.211 141.295 141.175 140.888 140.946 140.744 140.391 141.107 140.866 
140.477 140.204 139.736 141.085 140.945 140.463 140.237 139.666 139.439 
138.897 140.719 140.71 140.158 140.05 139.404 139.246 138.609 138.488 
137.916 140.257 140.247 139.718 139.637 139.031 138.904 138.282 138.145 
137.54 137.432 136.85 139.877 139.846 139.379 139.261 138.718 138.569 
138.002 137.842 137.271 137.107 136.558 136.409 135.908 139.441 139.474 
139.03 138.966 138.417 138.287 137.675 137.539 136.934 136.827 136.302 
136.198 135.75 135.61 135.208 138.918 138.98 138.534 138.551 138.006 
137.936 137.282 137.15 136.472 136.392 135.837 135.854 135.428 135.428 
135.019 134.939 134.529 138.453 138.463 138.024 138.033 137.546 137.501 
136.927 136.777 136.131 135.958 135.386 135.346 134.923 134.988 134.591 
134.621 134.175 134.162 133.741 140.828 140.234 140.527 140.511 139.546 
139.858 139.803 140.162 140.176 138.772 139.123 139.042 139.41 139.422 
139.829 139.834 137.855 138.302 138.208 138.596 138.505 138.964 138.929 
139.392 139.242 136.775 137.297 137.225 137.689 137.516 137.943 137.77 
138.297 138.136 138.617 138.328 135.771 136.196 136.146 136.653 136.565 
136.964 136.768 137.146 136.978 137.441 137.278 137.684 137.45 135.031 
135.295 135.198 135.623 135.636 136.071 136.018 136.315 136.191 136.476 
136.396 136.734 136.643 136.953 136.814 134.382 134.615 134.451 134.769 
134.741 135.183 135.215 135.615 135.568 135.847 135.758 136.022 135.952 
136.234 136.141 136.411 136.296 133.667 133.941 133.77 134.047 133.935 
134.311 134.293 134.757 134.751 135.162 135.085 135.402 135.292 135.578 
135.469 135.751 135.641 135.916 135.819 133.212 132.601 133.051 133.336 
131.854 132.38 132.649 133.155 133.478 130.948 131.518 131.798 132.402 
132.773 133.342 133.781 130.307 130.695 131.044 131.576 132.046 132.639 
133.161 133.735 134.241 130.18 130.362 130.771 131.065 131.59 132.038 
132.623 133.154 133.696 134.21 134.642 130.14 130.372 130.778 130.994 
131.426 131.727 132.229 132.677 133.192 133.681 134.109 134.557 134.889 
129.899 130.222 130.592 130.915 131.24 131.533 131.877 132.272 132.711 
133.184 133.604 134.04 134.38 134.781 135.076 129.705 129.937 130.273 
130.606 130.931 131.242 131.549 131.891 132.297 132.723 133.171 133.58 
133.95 134.313 134.625 134.986 135.27 129.746 129.83 130.128 130.34 
130.694 130.954 131.317 131.603 132.027 132.38 132.847 133.214 133.613 
133.941 134.264 134.585 134.885 135.209 135.483 132.971 132.42 132.589 
132.38 131.931 132.055 131.838 131.994 131.689 131.494 131.555 131.27 
131.429 131.108 131.212 130.805 131.2 131.118 130.74 130.832 130.522 
130.639 130.292 130.355 130.109 131.173 130.932 130.497 130.386 130.093 
130.137 129.925 129.962 129.791 129.875 129.891 131.234 130.994 130.546 
130.289 129.925 129.839 129.657 129.698 129.585 129.639 129.577 129.744 
129.801 131.215 131.045 130.634 130.375 129.91 129.717 129.383 129.409 
129.248 129.383 129.279 129.419 129.359 129.575 129.591 131.241 131.058 
130.732 130.478 130.049 129.741 129.297 129.132 128.855 128.945 128.854 
129.052 129.036 129.204 129.229 129.401 129.477 131.378 131.162 130.902 
130.656 130.36 130.007 129.64 129.238 128.904 128.685 128.558 128.636 
128.714 128.916 129.055 129.2 129.333 129.438 129.582 138.104 137.411 
137.712 137.622 136.655 136.977 136.862 137.207 137.121 135.843 136.177 
136.062 136.426 136.321 136.672 136.522 135.074 135.362 135.226 135.593 
135.486 135.851 135.67 135.99 135.748 134.372 134.619 134.429 134.749 
134.595 134.966 134.783 135.122 134.882 135.189 135 133.612 133.877 
133.64 133.945 133.732 134.063 133.858 134.208 134.009 134.344 134.183 
134.532 134.496 132.827 133.066 132.806 133.115 132.91 133.222 133.013 
133.318 133.13 133.471 133.328 133.704 133.63 134.072 134.102 132.177 
132.328 132.074 132.313 132.151 132.439 132.272 132.534 132.336 132.627 
132.47 132.83 132.725 133.148 133.117 133.628 133.671 131.69 131.778 
131.545 131.691 131.544 131.765 131.625 131.845 131.632 131.862 131.671 
131.988 131.894 132.27 132.247 132.67 132.718 133.208 133.291 138.273 
138.311 138.075 137.605 138.28 138.085 137.62 137.377 136.861 138.21 
138.023 137.581 137.374 136.872 136.603 136.062 138.182 137.965 137.52 
137.324 136.859 136.615 136.089 135.806 135.299 138.162 137.948 137.475 
137.264 136.784 136.575 136.068 135.826 135.315 135.071 134.599 138.106 
137.916 137.448 137.221 136.711 136.485 135.965 135.757 135.254 135.054 
134.571 134.36 133.868 138.041 137.863 137.428 137.202 136.71 136.446 
135.925 135.67 135.17 134.962 134.498 134.306 133.833 133.606 133.112 
137.944 137.796 137.365 137.173 136.696 136.458 135.954 135.685 135.182 
134.922 134.448 134.232 133.782 133.575 133.119 132.883 132.448 137.784 
137.671 137.239 137.081 136.6 136.407 135.906 135.691 135.191 134.951 
134.456 134.213 133.744 133.53 133.092 132.889 132.475 132.27 131.912 
137.556 137.067 137.208 137.004 136.608 136.711 136.437 136.59 136.344 
136.089 136.223 135.896 136.008 135.693 135.876 135.632 135.416 135.624 
135.289 135.427 135.044 135.198 134.893 135.143 134.917 134.728 134.915 
134.568 134.733 134.304 134.476 134.103 134.365 134.113 134.415 134.195 
134.192 134.296 133.915 133.998 133.525 133.664 133.277 133.543 133.305 
133.614 133.415 133.695 133.487 133.726 133.812 133.423 133.421 132.91 
132.93 132.541 132.748 132.576 132.868 132.724 132.962 132.765 133.01 
132.83 133.241 133.338 132.98 132.978 132.484 132.417 131.986 132.089 
131.912 132.192 132.091 132.331 132.133 132.328 132.124 132.38 132.23 
132.787 132.862 132.55 132.571 132.157 132.071 131.625 131.606 131.331 
131.534 131.411 131.687 131.52 131.726 131.519 131.722 131.574 131.825 
131.713 132.463 131.913 132.202 132.214 131.374 131.658 131.653 131.919 
131.841 130.867 131.143 131.157 131.382 131.279 131.472 131.34 130.404 
130.664 130.705 130.921 130.821 130.952 130.798 130.993 131.002 129.991 
130.202 130.202 130.444 130.353 130.513 130.359 130.512 130.505 130.801 
131.006 129.734 129.812 129.698 129.877 129.746 129.979 129.891 130.11 
130.14 130.382 130.56 130.889 131.126 129.696 129.637 129.444 129.428 
129.2 129.339 129.263 129.582 129.712 130.05 130.254 130.522 130.72 
130.995 131.182 129.711 129.635 129.435 129.304 129.022 128.934 128.751 
128.942 129.043 129.494 129.749 130.171 130.374 130.655 130.814 131.067 
131.255 129.659 129.607 129.425 129.33 129.092 128.916 128.676 128.599 
128.559 128.812 129.03 129.516 129.791 130.227 130.429 130.735 130.912 
131.18 131.387 132.526 132.476 132.308 131.956 132.451 132.254 131.859 
131.729 131.402 132.495 132.244 131.863 131.675 131.315 131.172 130.868 
132.726 132.361 131.985 131.738 131.386 131.151 130.78 130.64 130.379 
133.12 132.668 132.205 131.888 131.49 131.236 130.819 130.598 130.26 
130.18 129.994 133.531 133.071 132.53 132.117 131.617 131.308 130.86 
130.625 130.269 130.125 129.936 129.885 129.805 133.909 133.478 132.976 
132.489 131.974 131.516 131.086 130.738 130.463 130.229 130.106 129.958 
129.932 129.831 129.818 134.267 133.878 133.462 132.991 132.549 132.02 
131.647 131.171 130.981 130.621 130.586 130.305 130.316 130.091 130.087 
129.915 129.869 134.591 134.251 133.891 133.491 133.117 132.647 132.319 
131.849 131.673 131.282 131.255 130.919 130.92 130.598 130.554 130.268 
130.184 129.957 129.851 132.908 133.632 133.15 132.936 134.509 133.993 
133.799 133.223 132.96 135.327 134.877 134.727 134.164 133.89 133.262 
133.004 136.104 135.638 135.494 135.033 134.83 134.251 134.012 133.393 
133.25 137.108 136.496 136.31 135.774 135.612 135.13 134.996 134.458 
134.346 133.757 133.686 138.242 137.619 137.438 136.74 136.531 135.939 
135.84 135.379 135.344 134.85 134.769 134.195 134.089 139.196 138.719 
138.62 137.961 137.742 137.011 136.835 136.257 136.228 135.776 135.74 
135.227 135.095 134.531 134.404 140.003 139.615 139.614 139.096 138.962 
138.267 138.05 137.35 137.23 136.687 136.659 136.163 136.065 135.509 
135.353 134.811 134.704 140.781 140.425 140.475 140.053 140.002 139.429 
139.241 138.556 138.351 137.725 137.615 137.091 136.995 136.464 136.306 
135.751 135.594 135.089 134.992 141.216 141.714 141.299 140.914 142.098 
141.726 141.327 140.929 140.439 142.432 142.046 141.592 141.245 140.738 
140.331 139.705 142.641 142.314 141.784 141.448 140.921 140.558 139.944 
139.498 138.83 142.543 142.375 141.836 141.573 141.016 140.7 140.093 
139.7 139.051 138.627 138.038 142.287 142.179 141.69 141.516 140.956 
140.72 140.101 139.79 139.134 138.788 138.187 137.86 137.342 142.072 
141.954 141.487 141.332 140.791 140.591 139.985 139.733 139.093 138.806 
138.201 137.928 137.392 137.132 136.628 141.789 141.726 141.256 141.135 
140.615 140.427 139.854 139.613 139.03 138.763 138.204 137.929 137.409 
137.144 136.648 136.391 135.913 141.404 141.388 140.956 140.887 140.418 
140.266 139.74 139.517 138.985 138.739 138.245 137.977 137.495 137.201 
136.718 136.429 135.967 135.708 135.292 141.08 140.576 140.759 140.651 
140.103 140.268 140.092 140.292 140.129 139.495 139.72 139.498 139.705 
139.467 139.69 139.454 138.826 139.035 138.794 139.032 138.762 138.99 
138.721 138.963 138.717 138.266 138.388 138.111 138.307 138.048 138.265 
138.006 138.234 138.004 138.246 138.019 137.723 137.845 137.533 137.677 
137.414 137.59 137.334 137.533 137.286 137.528 137.292 137.541 137.284 
137.081 137.258 136.969 137.121 136.854 137.003 136.727 136.882 136.585 
136.79 136.505 136.764 136.485 136.756 136.484 136.434 136.618 136.376 
136.549 136.299 136.451 136.168 136.295 135.979 136.114 135.8 135.986 
135.697 135.936 135.675 135.951 135.723 135.876 136.027 135.801 135.967 
135.717 135.876 135.589 135.729 135.431 135.554 135.266 135.377 135.098 
135.233 134.983 135.185 134.98 135.242 135.07 134.647 134.55 134.39 
133.974 134.564 134.337 133.91 133.707 133.251 134.719 134.436 134.018 
133.719 133.263 132.997 132.536 134.89 134.621 134.223 133.903 133.443 
133.102 132.662 132.361 131.969 134.994 134.741 134.316 134.066 133.608 
133.305 132.846 132.544 132.17 131.896 131.572 135.12 134.823 134.353 
134.1 133.66 133.418 132.98 132.712 132.311 132.072 131.741 131.516 
131.199 135.285 134.974 134.516 134.192 133.782 133.503 133.135 132.854 
132.467 132.192 131.819 131.607 131.266 131.083 130.76 135.415 135.149 
134.743 134.421 134.038 133.723 133.382 133.073 132.698 132.372 131.958 
131.68 131.293 131.092 130.745 130.597 130.307 135.519 135.284 134.924 
134.65 134.29 134.001 133.648 133.345 132.944 132.607 132.158 131.835 
131.419 131.156 130.795 130.586 130.274 130.144 129.914 144.017 144.105 
144.068 143.947 144.084 144.193 144.287 144.079 143.945 144.138 144.313 
144.649 144.514 144.441 144.08 143.891 144.157 144.433 144.873 144.914 
144.905 144.568 144.223 143.908 143.699 143.911 144.298 144.644 144.943 
144.978 144.899 144.52 144.181 143.782 143.615 143.442 143.493 143.871 
144.056 144.442 144.478 144.715 144.513 144.397 144.013 143.736 143.443 
143.316 143.121 143.027 143.377 143.467 143.767 143.753 144.079 144.063 
144.261 144.096 143.964 143.638 143.393 143.099 142.954 142.674 142.441 
142.83 142.889 143.176 143.109 143.387 143.38 143.73 143.717 143.886 
143.627 143.51 143.114 142.947 142.596 142.467 142.117 141.758 142.154 
142.2 142.546 142.481 142.758 142.682 143.026 142.995 143.336 143.15 
143.273 142.882 142.84 142.442 142.365 142.009 141.889 141.511 143.808 
143.674 143.586 143.266 143.629 143.491 143.177 143.041 142.737 143.672 
143.545 143.306 143.077 142.778 142.575 142.279 143.657 143.646 143.532 
143.319 143.013 142.702 142.31 142.09 141.726 143.446 143.576 143.489 
143.456 143.103 142.874 142.35 142.098 141.619 141.468 141.083 143.032 
143.23 143.044 143.173 142.751 142.714 142.12 141.986 141.424 141.309 
140.873 140.798 140.425 142.501 142.691 142.417 142.572 142.14 142.19 
141.647 141.613 141.078 141.024 140.554 140.517 140.095 140.078 139.678 
141.901 142.078 141.768 141.917 141.525 141.593 141.136 141.139 140.673 
140.646 140.175 140.138 139.662 139.656 139.217 139.256 138.873 141.266 
141.429 141.101 141.263 140.901 141.015 140.598 140.651 140.201 140.22 
139.753 139.736 139.249 139.212 138.755 138.766 138.392 138.461 138.157 
143.773 143.216 143.501 143.409 142.667 142.92 142.852 143.056 142.851 
142.184 142.41 142.344 142.533 142.369 142.484 142.253 141.619 141.888 
141.803 142.033 141.862 142.01 141.777 141.906 141.703 140.972 141.249 
141.13 141.415 141.241 141.458 141.212 141.384 141.158 141.349 141.157 
140.317 140.578 140.42 140.695 140.53 140.791 140.591 140.795 140.585 
140.776 140.593 140.783 140.578 139.605 139.897 139.721 139.982 139.812 
140.085 139.93 140.175 139.997 140.203 140.02 140.218 140.027 140.197 
139.973 138.854 139.165 139.014 139.279 139.106 139.377 139.225 139.504 
139.329 139.577 139.364 139.601 139.391 139.618 139.398 139.582 139.345 
138.165 138.45 138.343 138.596 138.442 138.687 138.527 138.794 138.619 
138.874 138.651 138.894 138.67 138.93 138.727 138.968 138.748 138.94 
138.702 133.062 133.508 133.403 133.732 133.988 133.866 134.168 134.137 
134.553 134.471 134.353 134.665 134.601 135.007 134.989 135.395 135.029 
134.876 135.251 135.158 135.61 135.522 135.961 135.851 136.249 135.73 
135.531 135.942 135.815 136.307 136.195 136.656 136.509 136.947 136.797 
137.264 136.414 136.263 136.653 136.531 136.971 136.874 137.287 137.181 
137.588 137.501 137.96 137.873 138.339 136.913 136.853 137.204 137.155 
137.528 137.466 137.821 137.739 138.115 138.069 138.514 138.491 138.932 
138.867 139.246 137.322 137.271 137.592 137.586 137.955 137.946 138.332 
138.269 138.677 138.604 139.074 139.029 139.493 139.418 139.799 139.692 
140.03 137.779 137.686 137.995 137.953 138.34 138.348 138.8 138.792 
139.259 139.207 139.682 139.622 140.088 140.004 140.401 140.271 140.609 
140.476 140.805 
POINT_DATA 1002
SCALARS Distance double
LOOKUP_TABLE default
140.857 141.395 141.41 141.004 141.494 140.443 141.217 141.658 140.61 
139.937 141.347 141.802 140.733 139.989 139.258 141.315 141.827 140.736 
140.031 139.337 138.665 141.273 141.83 140.677 140.047 139.455 138.881 
138.19 141.378 141.894 140.723 140.064 139.445 138.923 138.319 137.58 
141.46 141.818 140.872 140.221 139.48 138.756 138.15 137.511 136.868 
141.257 141.479 140.845 140.378 139.736 138.82 137.963 137.322 136.753 
136.245 140.845 141.071 140.519 140.21 139.814 139.026 138.021 137.238 
136.679 136.182 135.739 142.053 141.933 142.688 142.405 143.172 141.865 
142.845 143.567 142.312 142.058 143.241 143.858 142.94 142.713 142.34 
143.353 143.886 143.388 143.428 142.998 142.354 143.296 143.844 143.349 
143.613 143.338 142.692 142.215 143.557 143.999 143.343 143.416 143.28 
142.783 142.33 142.091 144.02 144.151 143.703 143.437 143.286 143.042 
142.588 142.138 141.821 144.162 144.018 143.975 143.586 143.378 143.428 
143.227 142.556 141.867 141.431 143.78 143.832 143.249 143.123 142.586 
143.536 142.437 142.03 142.852 143.244 141.982 141.538 142.349 142.897 
143.424 141.471 140.969 141.909 142.499 143.312 143.656 140.801 140.353 
141.273 141.833 142.647 143.279 143.128 140.15 139.741 140.607 141.101 
141.741 142.384 142.504 142.14 139.531 139.113 140.017 140.487 140.973 
141.541 141.858 141.692 141.433 138.872 138.468 139.385 139.88 140.269 
140.716 141.203 141.362 141.177 141.024 140.569 140.639 139.964 140.784 
140.01 139.235 140.69 139.916 139.072 138.386 140.239 139.545 138.75 
138.007 137.356 139.788 139.129 138.419 137.679 136.935 136.26 139.484 
138.868 138.159 137.428 136.707 136.033 135.434 139.058 138.548 137.837 
137.03 136.346 135.854 135.365 134.827 138.498 138.047 137.423 136.586 
135.803 135.364 135.066 134.627 134.133 138.021 137.555 137.035 136.323 
135.485 134.873 134.536 134.172 133.727 133.364 140.169 139.441 139.8 
138.696 138.991 139.478 137.826 138.102 138.423 138.886 136.711 137.139 
137.306 137.583 137.939 135.62 136.109 136.448 136.55 136.803 137.094 
134.834 135.141 135.658 135.949 136.077 136.308 136.528 134.186 134.335 
134.75 135.24 135.518 135.682 135.867 136.029 133.505 133.621 133.85 
134.282 134.731 135.009 135.186 135.357 135.538 132.766 132.882 132.156 
132.102 131.304 132.963 131.152 130.39 132.143 133.213 130.546 129.988 
131.436 132.561 133.711 130.553 130.001 131.216 132.118 133.19 134.188 
130.566 129.857 131.216 131.847 132.723 133.665 134.475 130.247 129.597 
130.968 131.539 132.249 133.165 133.982 134.685 129.969 129.552 130.606 
131.223 131.889 132.756 133.595 134.274 134.916 129.972 129.718 130.446 
131.033 131.697 132.495 133.292 133.954 134.566 135.174 132.783 132.219 
132.259 131.688 131.846 131.608 131.132 131.507 130.992 130.724 130.718 
131.377 130.373 130.203 129.952 130.704 131.441 130.071 129.838 129.735 
129.687 130.841 131.421 130.097 129.611 129.524 129.499 129.549 130.876 
131.35 130.189 129.447 129.094 129.129 129.21 129.322 130.95 131.424 
130.372 129.588 128.858 128.615 128.82 129.081 129.285 131.112 131.599 
130.647 130.062 129.27 128.585 128.475 128.85 129.236 129.479 137.826 
137.291 137.118 136.522 136.325 136.774 135.685 135.52 135.982 136.209 
134.882 134.822 135.112 135.365 135.439 134.155 134.14 134.253 134.422 
134.566 134.645 133.34 133.36 133.428 133.517 133.639 133.824 134.082 
132.5 132.623 132.58 132.724 132.8 132.953 133.208 133.6 131.862 
132.048 131.861 132.014 132.08 132.13 132.329 132.637 133.114 138.527 
137.873 138.535 137.847 138.459 137.142 137.764 138.409 137.134 136.343 
137.723 138.415 137.075 136.368 135.556 137.707 138.365 136.995 136.283 
135.554 134.836 137.676 138.278 136.961 136.179 135.435 134.774 134.105 
137.638 138.208 136.971 136.2 135.399 134.679 134.042 133.355 137.544 
138.081 136.914 136.206 135.457 134.69 133.977 133.33 132.673 137.388 