# vtk DataFile Version 4.0
vtk output
ASCII
DATASET POLYDATA
POINTS 1002 float
-79.0255 -101.371 60.8922 -79.1751 -101.916 61.3538 -79.7121 -101.673 61.144 
-79.7065 -100.94 60.8082 -80.3544 -101.351 60.9729 -78.8806 -100.715 60.5349 
-80.4264 -100.643 60.5832 -80.8924 -101.132 60.6811 -79.5496 -100.447 60.245 
-78.7567 -100.397 59.803 -80.8718 -100.649 60.0125 -81.1356 -101.207 60.0182 
-80.1596 -100.45 59.6276 -79.2598 -100.449 59.1143 -78.616 -100.331 58.6504 
-81.0571 -100.869 59.1158 -81.2866 -101.483 59.0813 -80.5781 -100.522 58.8205 
-79.7454 -100.458 58.3401 -79 -100.302 57.9566 -78.4494 -99.9336 57.7091 
-81.3272 -101.045 58.2463 -81.6595 -101.608 58.3077 -80.9565 -100.507 58.0564 
-80.3032 -100.188 57.7612 -79.4809 -99.9925 57.4533 -78.84 -99.7011 57.1824 
-78.2773 -99.3539 57.0126 -81.7656 -101.061 57.6106 -82.2028 -101.485 57.759 
-81.3213 -100.528 57.4035 -80.8196 -100.01 57.2047 -80.0835 -99.6687 56.9938 
-79.2997 -99.4653 56.6444 -78.6827 -99.2679 56.3099 -78.094 -99.0424 56.1525 
-82.1909 -101.019 57.0211 -82.6461 -101.344 57.1733 -81.6328 -100.618 56.7864 
-81.091 -100.141 56.5008 -80.4996 -99.741 56.2462 -79.7703 -99.4412 55.9433 
-79.0937 -99.2027 55.5943 -78.5182 -98.9759 55.4184 -77.9118 -98.7137 55.403 
-82.4955 -101.008 56.3743 -82.8842 -101.305 56.544 -81.9796 -100.672 56.163 
-81.3754 -100.242 55.8443 -80.7689 -99.8756 55.4639 -80.139 -99.52 55.1718 
-79.5197 -99.0572 54.9999 -78.9799 -98.6715 54.9272 -78.4098 -98.4033 54.9558 
-77.7488 -98.1492 54.994 -82.7368 -100.975 55.7886 -83.0472 -101.273 56.0174 
-82.351 -100.664 55.5769 -81.8216 -100.204 55.3412 -81.198 -99.754 55.001 
-80.5791 -99.3798 54.6763 -79.9994 -98.8276 54.5793 -79.475 -98.2415 54.6368 
-78.9487 -97.945 54.6623 -78.3094 -97.8047 54.6341 -77.5931 -97.6418 54.592 
-79.534 -102.194 61.8346 -79.9929 -102.146 61.4402 -79.7978 -102.47 62.3591 
-80.2544 -102.567 61.8365 -80.2817 -102.702 62.9203 -80.5472 -101.974 61.0938 
-80.8554 -102.789 62.4227 -81.0813 -102.868 63.4984 -80.8094 -102.499 61.3542 
-81.0277 -101.807 60.6555 -81.577 -102.931 62.9873 -81.6989 -103.155 63.8897 
-81.3569 -102.779 61.8357 -81.3297 -102.378 60.7382 -81.3207 -101.887 59.8649 
-81.9426 -103.327 63.1509 -81.9366 -103.778 63.9543 -81.8292 -103.05 62.1383 
-81.8386 -102.741 60.9913 -81.7513 -102.425 59.8515 -81.6153 -102.085 58.9683 
-82.132 -104.02 63.006 -82.1113 -104.603 63.7943 -82.091 -103.515 62.0765 
-82.3059 -103.055 61.1471 -82.3724 -102.717 60.0977 -82.1522 -102.471 59.0888 
-82.1038 -102.043 58.3484 -82.3137 -104.73 62.7956 -82.2057 -105.288 63.4814 
-82.3415 -104.067 61.9677 -82.6968 -103.415 61.2092 -83.0229 -102.913 60.4034 
-82.8569 -102.634 59.4404 -82.6461 -102.334 58.5349 -82.6759 -101.828 57.8088 
-82.3117 -105.257 62.4729 -82.0722 -105.684 63.0345 -82.4991 -104.606 61.8286 
-82.9473 -103.874 61.2102 -83.4844 -103.264 60.5561 -83.5513 -102.849 59.7205 
-83.2977 -102.569 58.767 -83.1725 -102.204 57.8895 -83.0837 -101.717 57.162 
-82.1995 -105.603 62.0359 -81.874 -105.891 62.5401 -82.558 -105.102 61.5303 
-83.0689 -104.437 61.0313 -83.6535 -103.847 60.4627 -83.9315 -103.354 59.7493 
-83.8438 -102.926 58.8982 -83.6959 -102.584 58.0033 -83.5361 -102.191 57.2033 
-83.2857 -101.71 56.5584 -82.0437 -105.944 61.7345 -82.5538 -105.656 61.271 
-82.5614 -106.086 61.0357 -83.3225 -105.748 60.7097 -83.2548 -106.226 60.5441 
-83.1671 -105.125 60.8403 -84.0955 -105.788 60.3007 -83.7799 -106.253 59.9617 
-84.0039 -105.202 60.3107 -83.7501 -104.553 60.3217 -84.5116 -105.784 59.5525 
-84.1096 -106.196 58.9255 -84.5893 -105.253 59.8156 -84.303 -104.725 59.7063 
-84.0677 -104.067 59.6601 -84.6263 -105.764 58.2745 -84.2623 -106.063 57.725 
-84.8018 -105.296 58.8329 -84.6279 -104.751 59.0568 -84.3023 -104.139 58.9748 
-84.1082 -103.472 58.8988 -84.4553 -105.583 57.0966 -84.1282 -105.828 56.8159 
-84.7286 -105.241 57.4466 -84.8493 -104.667 57.856 -84.6415 -103.931 58.1233 
-84.342 -103.325 58.1234 -84.0807 -102.916 58.032 -84.1316 -105.293 56.2604 
-83.8686 -105.594 56.0195 -84.393 -104.968 56.3862 -84.7927 -104.491 56.497 
-84.9713 -103.729 56.7724 -84.72 -103.062 57.0556 -84.3387 -102.755 57.1499 
-83.9536 -102.527 57.1539 -83.9823 -105.136 55.3047 -83.6981 -105.435 55.0826 
-84.111 -104.72 55.5366 -84.41 -104.252 55.6156 -84.825 -103.628 55.645 
-84.8762 -102.978 55.8229 -84.5337 -102.6 56.0986 -84.0907 -102.375 56.3152 
-83.6608 -102.065 56.4433 -83.9872 -105.105 54.1912 -83.5589 -105.292 54.1762 
-84.1003 -104.684 54.4463 -84.1136 -104.132 54.7877 -84.3225 -103.544 54.978 
-84.546 -102.975 55.029 -84.494 -102.512 55.1701 -84.2087 -102.142 55.4643 
-83.8072 -101.791 55.7364 -83.3901 -101.487 55.893 -83.1415 -100.923 55.3944 
-83.5926 -100.989 55.2516 -83.4017 -100.439 54.6891 -84.0143 -101.255 55.013 
-83.9275 -100.357 54.4582 -83.4972 -99.9772 53.9129 -84.2144 -101.759 54.6646 
-84.1909 -100.636 54.088 -83.9495 -99.8722 53.538 -83.1479 -99.7541 53.1726 
-84.1958 -102.333 54.4258 -84.1187 -101.329 53.6378 -84.0337 -100.278 52.9727 
-83.4638 -99.8257 52.7102 -82.5623 -99.7699 52.4925 -84.0698 -102.895 54.3215 
-83.9989 -102.081 53.3405 -84.0076 -101.119 52.3666 -83.5524 -100.4 52.0787 
-82.7385 -100.089 52.117 -81.9816 -99.7845 51.7829 -83.9837 -103.533 54.0467 
-83.9274 -102.766 53.1335 -84.0305 -101.931 52.0879 -83.6951 -101.216 51.5862 
-82.7994 -100.677 51.7015 -82.0005 -100.19 51.5644 -81.4348 -99.628 51.0533 
-84.0712 -104.233 53.5733 -83.8878 -103.513 52.835 -83.7955 -102.638 52.1414 
-83.5829 -101.92 51.6135 -82.8059 -101.346 51.4946 -81.9367 -100.698 51.3525 
-81.4307 -100.007 50.8458 -80.9953 -99.4183 50.3918 -84.0795 -104.795 53.2611 
-83.8514 -104.213 52.6082 -83.4052 -103.338 52.2718 -83.0146 -102.53 51.9587 
-82.495 -101.982 51.5946 -81.8138 -101.385 51.2049 -81.3684 -100.6 50.6606 
-81.0891 -99.8785 50.1152 -80.6596 -99.3622 49.8456 -83.6951 -105.059 53.3156 
-83.5791 -104.644 52.6634 -83.0797 -103.919 52.3884 -82.4844 -103.098 52.2071 
-82.0428 -102.533 51.7629 -81.6431 -102.103 51.1329 -81.3002 -101.451 50.5183 
-81.0734 -100.653 49.9892 -80.7737 -99.9885 49.6228 -80.3167 -99.488 49.4387 
-82.8306 -100.642 55.0951 -82.8985 -100.224 54.3765 -82.3606 -100.257 54.8862 
-82.6123 -99.8951 53.6619 -82.1392 -99.8355 54.2413 -81.731 -99.6827 54.7088 
-82.1056 -99.6647 52.9019 -81.6588 -99.4777 53.5181 -81.4538 -99.1687 54.1348 
-81.1135 -99.1318 54.4529 -81.7069 -99.3932 52.019 -81.3463 -98.9814 52.5356 
-81.209 -98.5917 53.303 -81.0586 -98.3951 53.9428 -80.5678 -98.5239 54.2951 
-81.2841 -99.129 51.2034 -81.1295 -98.4812 51.5434 -81.0953 -97.958 52.1955 
-81.0027 -97.7322 53.0507 -80.5796 -97.6983 53.8235 -79.9831 -97.8541 54.3375 
-80.762 -98.9757 50.641 -80.6342 -98.3546 50.9618 -80.6897 -97.7357 51.3646 
-80.6341 -97.4634 51.9981 -80.2492 -97.4393 52.8615 -79.7582 -97.419 53.7102 
-79.3412 -97.5441 54.3161 -80.3239 -98.9192 50.1652 -80.065 -98.4424 50.5749 
-80.0238 -97.9194 50.8903 -79.9275 -97.5699 51.2411 -79.5267 -97.5161 51.8543 
-79.1063 -97.5452 52.6361 -78.8792 -97.4989 53.4278 -78.6481 -97.5379 54.1304 
-80.0033 -98.9414 49.6396 -79.7042 -98.4427 49.9972 -79.5443 -97.9841 50.3005 
-79.3499 -97.5981 50.5707 -78.8969 -97.3796 51.0766 -78.4269 -97.3918 51.7457 
-78.2328 -97.4865 52.3861 -78.1314 -97.4781 53.1303 -77.8946 -97.4658 53.9574 
-79.7667 -99.2754 49.1297 -79.5268 -98.5631 49.2415 -79.2628 -98.9462 48.7866 
-79.1189 -98.0722 48.8163 -78.6885 -98.637 48.6343 -79.3332 -97.9226 49.4663 
-78.4191 -97.7753 48.7512 -77.7258 -98.5488 48.7163 -78.8752 -97.3522 49.0107 
-79.0903 -97.4218 49.7212 -77.1873 -97.7933 48.8871 -76.5074 -98.5804 48.666 
-77.9103 -97.1558 49.0786 -78.3928 -96.8747 49.4623 -78.6037 -97.0354 50.2551 
-75.9273 -97.8058 48.7595 -75.5775 -98.6364 48.5514 -76.5919 -97.2671 49.2344 
-77.3701 -96.8697 49.7022 -77.8633 -96.5838 50.357 -78.0615 -96.8533 51.0943 
-75.2109 -97.9171 48.807 -75.1044 -98.9307 48.9321 -75.6059 -97.3003 49.1947 
-76.3666 -97.1759 49.8572 -77.1733 -96.8528 50.6068 -77.5809 -96.5914 51.2798 
-77.7844 -97.0041 51.7681 -74.9464 -98.4803 49.5223 -74.8467 -99.4125 49.7782 
-75.1746 -97.6079 49.5834 -75.6844 -97.356 50.035 -76.4477 -97.3539 50.715 
-77.064 -97.016 51.3899 -77.3376 -96.889 51.8636 -77.6203 -97.2289 52.3592 
-74.7387 -99.1486 50.4303 -74.5511 -99.743 50.5608 -74.954 -98.3951 50.4237 
-75.2459 -97.7805 50.6621 -75.7072 -97.5795 51.0729 -76.2454 -97.4506 51.5709 
-76.6257 -97.1894 52.0746 -76.9089 -97.123 52.5853 -77.3373 -97.2834 53.2406 
-74.3346 -99.4761 51.008 -74.0959 -99.8756 51.0462 -74.6059 -99.0736 51.0846 
-74.8502 -98.5192 51.3605 -75.0838 -97.9501 51.7015 -75.3974 -97.6189 52.0204 
-75.7676 -97.4505 52.4411 -76.1164 -97.2999 52.9854 -76.5142 -97.2441 53.5749 
-77.0347 -97.365 54.1481 -80.1676 -100.055 49.2992 -79.5414 -99.886 49.0243 
-79.823 -100.703 49.36 -79.1571 -100.554 49.0913 -79.3417 -101.257 49.413 
-78.9429 -99.6341 48.7676 -78.7237 -101.204 49.0662 -78.9099 -101.781 49.38 
-78.5014 -100.399 48.838 -78.1717 -99.4285 48.7028 -78.3766 -101.929 49.0155 
-78.7086 -102.485 49.4158 -78.0461 -101.244 48.7637 -77.5983 -100.271 48.7552 
-77.0762 -99.3568 48.7298 -78.0863 -102.722 49.1368 -78.601 -103.381 49.4234 
-77.6077 -102.171 48.6897 -77.0992 -101.254 48.65 -76.5734 -100.177 48.8172 
-76.062 -99.3728 48.6954 -77.6774 -103.496 49.2319 -78.2417 -104.253 49.2884 
-77.1256 -102.965 48.8076 -76.6163 -102.324 48.5288 -76.202 -101.21 48.8362 
-75.845 -100.202 49.0429 -75.443 -99.5481 48.8982 -77.1888 -104.159 49.2954 
-77.6666 -104.818 49.3776 -76.7096 -103.527 49.0911 -76.1894 -103.097 48.7356 
-75.7838 -102.331 48.8451 -75.5892 -101.219 49.2914 -75.3645 -100.399 49.457 
-75.0509 -99.884 49.5089 -76.8317 -104.577 49.6664 -77.2009 -104.989 49.946 
-76.5165 -103.94 49.5674 -76.0503 -103.461 49.3761 -75.5031 -103.042 49.2596 
-75.2248 -102.24 49.4791 -75.1272 -101.295 49.7582 -74.9218 -100.633 49.9527 
-74.684 -100.161 50.2295 -76.6193 -104.768 50.3342 -76.9388 -104.966 50.7384 
-76.4136 -104.279 50.1894 -76.0746 -103.721 50.1405 -75.4907 -103.339 50.0173 
[...]
CELL_DATA 2000
SCALARS Distance double
LOOKUP_TABLE default
141.688 141.731 141.477 141.008 141.792 141.542 141.074 140.795 140.346 
141.775 141.588 141.14 140.876 140.403 140.153 139.726 141.67 141.525 
141.09 140.893 140.401 140.176 139.691 139.491 139.022 141.602 141.423 
140.989 140.802 140.311 140.108 139.587 139.394 138.884 138.711 138.219 
141.599 141.393 140.95 140.724 140.241 140.014 139.504 139.279 138.765 
138.562 138.083 137.913 137.475 141.565 141.387 140.942 140.71 140.213 
139.969 139.469 139.23 138.725 138.484 137.996 137.797 137.367 137.214 
136.814 141.462 141.324 140.901 140.697 140.199 139.947 139.428 139.194 
138.687 138.456 137.939 137.72 137.25 137.096 136.689 136.56 136.159 
141.332 141.209 140.826 140.657 140.2 139.946 139.424 139.159 138.646 
138.409 137.895 137.657 137.154 136.967 136.548 136.425 136.051 135.915 
135.529 142.112 142.709 142.33 142.16 143.33 142.932 142.772 142.38 
142.201 144.075 143.61 143.436 142.996 142.793 142.39 142.168 144.835 
144.379 144.17 143.691 143.443 142.985 142.727 142.312 142.065 145.459 
145.053 144.8 144.373 144.093 143.642 143.354 142.897 142.636 142.218 
142.002 146.041 145.616 145.313 144.904 144.623 144.239 143.976 143.542 
143.274 142.825 142.595 142.19 141.996 146.552 146.17 145.825 145.394 
145.103 144.741 144.541 144.159 143.928 143.477 143.224 142.792 142.566 
142.175 141.956 146.771 146.555 146.214 145.866 145.558 145.227 145.056 
144.731 144.554 144.132 143.879 143.423 143.171 142.747 142.501 142.1 
141.848 146.719 146.64 146.38 146.17 145.915 145.652 145.5 145.236 
145.099 144.742 144.504 144.064 143.797 143.361 143.108 142.672 142.4 
141.977 141.714 146.593 146.53 146.486 146.352 146.747 146.58 146.437 
146.253 146.026 146.969 146.864 146.729 146.47 146.213 145.953 145.69 
146.882 146.967 146.862 146.73 146.436 146.179 145.833 145.605 145.277 
146.478 146.7 146.605 146.682 146.393 146.279 145.846 145.658 145.215 
145.063 144.647 145.887 146.157 146.013 146.239 145.965 146.042 145.592 
145.511 144.993 144.885 144.427 144.34 143.931 145.239 145.487 145.276 
145.532 145.258 145.465 145.064 145.115 144.604 144.564 144.098 144.069 
143.676 143.625 143.237 144.652 144.851 144.626 144.803 144.524 144.724 
144.393 144.526 144.095 144.123 143.683 143.698 143.316 143.324 142.936 
142.901 142.5 144.14 144.326 144.142 144.243 143.962 144.066 143.754 
143.881 143.528 143.609 143.219 143.264 142.889 142.926 142.545 142.548 
142.146 142.132 141.77 141.403 141.722 141.342 140.94 142.097 141.675 
141.195 140.84 140.41 142.443 142.031 141.495 141.08 140.553 140.237 
139.777 142.754 142.353 141.804 141.358 140.757 140.367 139.857 139.583 
139.153 143.038 142.654 142.121 141.671 141.088 140.62 140.093 139.721 
139.313 139.019 138.602 143.301 142.937 142.442 142.01 141.494 141.022 
140.539 140.078 139.652 139.26 138.84 138.476 137.978 143.59 143.241 
142.805 142.37 141.883 141.44 140.983 140.555 140.101 139.66 139.161 
138.734 138.2 137.808 137.282 143.824 143.553 143.164 142.765 142.26 
141.813 141.298 140.912 140.432 140.05 139.525 139.077 138.515 138.064 
137.55 137.16 136.732 143.829 143.696 143.318 143.057 142.544 142.147 
141.562 141.162 140.64 140.298 139.827 139.437 138.945 138.471 138.002 
137.532 137.143 136.733 136.406 141.141 140.689 140.829 140.637 140.166 
140.344 140.123 140.276 140.008 139.534 139.75 139.492 139.686 139.373 
139.541 139.211 138.871 139.058 138.744 138.962 138.624 138.84 138.501 
138.703 138.403 138.22 138.356 137.935 138.135 137.755 138.026 137.706 
137.965 137.66 137.897 137.625 137.539 137.656 137.147 137.291 136.851 
137.115 136.817 137.138 136.87 137.134 136.848 137.103 136.869 136.878 
136.965 136.492 136.557 136.128 136.278 135.996 136.27 136.066 136.346 
136.114 136.353 136.14 136.403 136.268 136.357 136.381 135.987 136.01 
135.643 135.695 135.404 135.554 135.335 135.572 135.375 135.636 135.458 
135.723 135.592 135.874 135.78 136.005 135.957 135.567 135.573 135.213 
135.259 134.917 135.009 134.683 134.859 134.588 134.867 134.678 135.007 
134.867 135.187 135.06 135.371 135.255 135.723 135.075 135.321 135.213 
134.402 134.62 134.468 134.815 134.808 133.783 133.949 133.72 134.021 
133.968 134.409 134.47 133.136 133.318 133.059 133.295 133.159 133.532 
133.555 134.053 134.174 132.475 132.615 132.38 132.642 132.553 132.834 
132.845 133.194 133.328 133.81 134.049 132.225 132.083 131.839 131.995 
132.061 132.357 132.539 132.747 132.918 133.152 133.417 133.831 134.181 
132.607 132.187 131.955 131.749 131.854 132.009 132.372 132.606 132.894 
132.999 133.2 133.384 133.683 134.066 134.422 133.145 132.778 132.627 
132.225 132.252 132.086 132.368 132.498 132.822 132.984 133.152 133.263 
133.413 133.649 133.923 134.313 134.631 133.359 133.22 133.131 132.906 
132.89 132.638 132.716 132.611 132.774 132.855 133.011 133.146 133.269 
133.425 133.613 133.875 134.163 134.529 134.843 135.984 136.265 135.88 
135.373 136.509 136.166 135.665 135.257 134.741 136.673 136.385 135.945 
135.567 135.056 134.637 134.131 136.961 136.607 136.236 135.863 135.381 
134.952 134.411 134.009 133.478 137.458 137.008 136.636 136.218 135.766 
135.303 134.767 134.304 133.784 133.361 132.878 137.921 137.493 137.039 
136.633 136.186 135.737 135.251 134.745 134.296 133.798 133.44 132.943 
132.682 138.181 137.835 137.345 136.977 136.542 136.157 135.754 135.297 
134.921 134.427 134.145 133.655 133.485 133.009 132.972 138.332 138.045 
137.635 137.281 136.905 136.534 136.21 135.814 135.51 135.074 134.805 
134.37 134.181 133.786 133.696 133.358 133.36 138.487 138.241 137.947 
137.629 137.332 136.962 136.677 136.295 136.032 135.642 135.392 134.99 
134.771 134.397 134.241 133.935 133.836 133.599 133.523 143.607 143.04 
143.272 143.115 142.541 142.686 142.494 142.691 142.38 142.2 142.234 
141.933 142.047 141.703 141.84 141.42 141.757 141.849 141.448 141.497 
141.077 141.169 140.763 140.877 140.498 141.068 141.27 140.869 140.956 
140.493 140.566 140.171 140.277 139.944 140.052 139.723 140.386 140.578 
140.283 140.371 139.953 139.989 139.586 139.696 139.389 139.532 139.219 
139.303 138.915 139.834 140.004 139.819 139.905 139.581 139.541 139.099 
139.108 138.731 138.903 138.599 138.773 138.402 138.46 138.022 139.296 
139.483 139.318 139.484 139.225 139.237 138.785 138.687 138.185 138.22 
137.855 138.062 137.755 137.92 137.536 137.579 137.171 138.789 138.935 
138.724 138.921 138.665 138.803 138.405 138.375 137.856 137.765 137.32 
137.376 137.083 137.255 136.969 137.084 136.723 136.766 136.412 143.772 
143.868 143.609 143.213 144.092 143.768 143.389 143.092 142.773 144.386 
144.067 143.726 143.371 143.061 142.76 142.493 144.566 144.334 143.99 
143.7 143.324 143.04 142.691 142.445 142.061 144.557 144.396 144.006 
143.832 143.391 143.172 142.705 142.508 142.037 141.835 141.33 144.5 
144.316 143.904 143.755 143.335 143.145 142.671 142.449 141.961 141.746 
141.255 141.042 140.587 144.542 144.301 143.901 143.688 143.31 143.105 
142.699 142.454 142.015 141.744 141.297 141.024 140.588 140.364 139.993 
144.604 144.393 144.018 143.766 143.387 143.143 142.749 142.51 142.088 
141.838 141.398 141.128 140.681 140.414 139.998 139.8 139.455 144.526 
144.42 144.083 143.891 143.514 143.261 142.845 142.577 142.132 141.883 
141.428 141.194 140.738 140.495 140.055 139.825 139.445 139.273 138.969 
144.305 143.835 144.036 143.92 143.332 143.549 143.441 143.612 143.397 
142.742 142.982 142.836 143.078 142.864 143.014 142.714 142.056 142.299 
142.081 142.377 142.154 142.399 142.095 142.261 141.946 141.338 141.56 
141.273 141.551 141.302 141.609 141.337 141.577 141.263 141.466 141.197 
140.619 140.831 140.523 140.743 140.459 140.74 140.501 140.791 140.531 
140.762 140.49 140.722 140.497 139.928 140.127 139.846 140.03 139.742 
139.951 139.717 139.986 139.793 140.048 139.821 140.033 139.801 140.034 
139.834 139.279 139.464 139.198 139.38 139.108 139.286 139.046 139.269 
139.096 139.351 139.186 139.402 139.205 139.393 139.205 139.413 139.254 
138.634 138.82 138.54 138.733 138.463 138.655 138.417 138.629 138.45 
138.694 138.553 138.79 138.643 138.842 138.69 138.864 138.726 138.907 
138.793 138.168 137.438 137.885 138.072 136.809 137.188 137.366 137.802 
138.001 136.246 136.607 136.762 137.141 137.343 137.766 137.99 135.586 
135.995 136.159 136.564 136.768 137.167 137.411 137.811 138.059 134.992 
135.319 135.502 135.933 136.186 136.616 136.873 137.269 137.524 137.913 
138.164 134.647 134.851 135.023 135.347 135.641 136.048 136.344 136.738 
136.993 137.382 137.64 138.033 138.275 134.309 134.554 134.711 134.975 
135.233 135.575 135.872 136.233 136.497 136.863 137.134 137.523 137.799 
138.158 138.375 133.888 134.174 134.341 134.632 134.836 135.173 135.423 
135.781 136.03 136.385 136.648 137.032 137.32 137.699 137.944 138.26 
138.437 133.59 133.798 133.967 134.225 134.4 134.72 134.935 135.302 
135.54 135.91 136.152 136.535 136.796 137.198 137.448 137.815 138.017 
138.323 138.498 138.079 137.664 137.677 137.319 137.226 137.222 136.851 
136.935 136.673 136.804 136.757 136.324 136.422 136.156 136.323 136.098 
136.439 136.331 135.823 135.863 135.545 135.74 135.526 135.716 135.455 
136.256 136.051 135.573 135.453 135.123 135.175 135.003 135.159 135.004 
135.109 134.913 136.3 136.032 135.671 135.417 135.149 134.974 134.827 
134.803 134.731 134.774 134.665 134.698 134.573 136.352 136.142 135.819 
135.616 135.354 135.141 134.906 134.767 134.575 134.562 134.363 134.422 
134.204 134.321 134.15 136.255 136.114 135.734 135.648 135.313 135.222 
134.859 134.757 134.373 134.331 133.947 133.993 133.638 133.789 133.541 
133.784 133.659 136.152 135.975 135.561 135.461 135.093 135.031 134.655 
134.573 134.176 134.077 133.683 133.595 133.243 133.24 133.027 133.176 
133.131 133.37 133.392 138.516 139.126 138.599 138.148 139.828 139.268 
138.832 138.24 137.76 140.567 140.018 139.62 138.995 138.535 137.892 
137.405 141.288 140.776 140.432 139.826 139.395 138.73 138.247 137.565 
137.073 142.001 141.498 141.178 140.624 140.203 139.58 139.097 138.43 
137.925 137.25 136.822 142.706 142.199 141.838 141.321 140.872 140.308 
139.802 139.213 138.728 138.107 137.677 137.067 136.769 143.314 142.844 
142.441 141.944 141.48 140.926 140.398 139.838 139.363 138.84 138.458 
137.916 137.59 137.053 136.793 143.791 143.372 142.979 142.519 142.096 
141.555 141.063 140.46 139.975 139.437 139.066 138.609 138.304 137.827 
137.514 137.017 136.716 144.207 143.816 143.446 143.028 142.646 142.175 
141.755 141.185 140.723 140.117 139.702 139.19 138.873 138.444 138.151 
137.698 137.387 136.902 136.617 144.319 144.188 144.026 143.545 143.9 
143.813 143.315 143.208 142.728 143.482 143.439 142.934 142.897 142.43 
142.368 141.866 143.071 143.011 142.521 142.487 142.062 142.042 141.591 
141.478 140.905 142.722 142.639 142.184 142.126 141.75 141.72 141.331 
141.223 140.686 140.481 139.885 142.454 142.34 141.904 141.831 141.473 
141.451 141.094 141.004 140.496 140.285 139.686 139.491 138.991 142.288 
142.14 141.704 141.582 141.191 141.156 140.785 140.745 140.266 140.106 
139.525 139.316 138.794 138.664 138.253 142.124 142.004 141.573 141.421 
140.988 140.881 140.457 140.397 139.927 139.836 139.313 139.162 138.658 
138.499 138.054 137.939 137.525 141.857 141.798 141.377 141.272 140.833 
140.702 140.242 140.105 139.61 139.493 139.006 138.917 138.476 138.367 
137.942 137.788 137.35 137.203 136.781 141.527 140.834 141.142 141.051 
140.169 140.444 140.361 140.66 140.547 139.548 139.798 139.68 139.969 
139.846 140.126 139.952 138.837 139.128 138.947 139.25 139.062 139.37 
139.149 139.452 139.247 138.03 138.337 138.121 138.44 138.213 138.533 
138.291 138.601 138.388 138.733 138.609 137.288 137.537 137.325 137.603 
137.4 137.691 137.492 137.773 137.603 137.909 137.819 138.175 138.131 
136.626 136.84 136.633 136.869 136.693 136.946 136.783 137.038 136.891 
137.175 137.084 137.423 137.371 137.724 137.643 135.96 136.173 135.961 
136.207 136.047 136.296 136.133 136.366 136.189 136.459 136.322 136.664 
136.564 136.932 136.811 137.169 137.03 135.308 135.495 135.28 135.534 
135.409 135.676 135.547 135.754 135.562 135.764 135.591 135.88 135.761 
136.103 135.973 136.313 136.167 136.527 136.424 136.023 135.723 135.682 
135.397 135.535 135.431 135.084 135.091 134.887 135.36 135.264 134.926 
134.85 134.577 134.608 134.437 135.21 135.098 134.807 134.731 134.491 
134.412 134.183 134.177 133.997 135.199 135.019 134.722 134.622 134.422 
134.366 134.18 134.075 133.831 133.759 133.542 135.201 135.045 134.7 
134.557 134.262 134.227 134.036 134.045 133.844 133.734 133.446 133.326 
133.115 135.031 134.952 134.571 134.475 134.068 133.998 133.675 133.749 
133.582 133.668 133.49 133.378 133.146 133.003 132.918 134.849 134.724 
134.326 134.251 133.857 133.77 133.399 133.374 133.163 133.296 133.239 
133.347 133.265 133.176 133.089 132.974 133.037 134.872 134.627 134.232 
134.055 133.725 133.601 133.334 133.219 133.019 132.987 132.899 133.017 
132.998 133.138 133.108 133.147 133.154 133.159 133.275 146.909 146.988 
147.047 147.173 146.779 147 147.057 147.171 147.203 146.257 146.613 
146.665 146.888 146.853 147.054 147.077 145.639 146.011 146.082 146.381 
146.387 146.636 146.687 146.927 147.036 144.965 145.363 145.422 145.769 
145.806 146.125 146.202 146.514 146.638 146.919 147.04 144.172 144.607 
144.637 145.055 145.071 145.474 145.509 145.917 145.974 146.382 146.433 
146.809 146.812 143.415 143.794 143.808 144.217 144.212 144.649 144.643 
145.098 145.091 145.558 145.548 146.015 145.975 146.396 146.271 142.796 
143.104 143.1 143.426 143.393 143.771 143.736 144.172 144.14 144.604 
144.575 145.052 145.015 145.472 145.373 145.752 145.552 142.207 142.512 
142.487 142.768 142.689 142.988 142.901 143.271 143.206 143.64 143.587 
144.058 144.013 144.493 144.424 144.847 144.698 145.025 144.807 146.878 
147.221 147.064 147.095 147.403 147.419 147.61 147.443 147.58 147.332 
147.508 147.806 147.891 148.096 147.951 147.965 147.24 147.385 147.605 
147.849 148.017 148.178 148.102 148.033 147.744 147.26 147.343 147.458 
147.574 147.632 147.83 147.727 147.838 147.493 147.468 147.056 147.101 
147.318 147.433 147.49 147.473 147.499 147.398 147.428 147.19 147.145 
146.791 146.727 146.41 146.546 146.96 147.071 147.327 147.259 147.349 
147.172 147.195 146.973 146.938 146.638 146.537 146.212 146.149 145.89 
145.765 146.24 146.312 146.73 146.637 146.91 146.654 146.826 146.518 
146.642 146.301 146.333 145.942 145.922 145.569 145.6 145.336 144.99 
145.42 145.488 145.906 145.859 146.172 145.952 146.16 145.846 146.032 
145.703 145.848 145.468 145.529 145.131 145.19 144.878 144.994 144.77 
146.698 146.872 146.662 146.6 147.265 146.905 146.748 146.653 146.75 
147.648 147.319 147.012 146.8 146.764 146.808 146.911 147.589 147.561 
147.275 147.055 146.842 146.763 146.731 146.835 146.808 147.052 147.309 
147.237 147.23 147.018 146.849 146.64 146.601 146.487 146.591 146.441 
146.417 146.73 146.789 147.039 146.963 146.948 146.655 146.516 146.228 
146.239 146.055 146.155 145.921 145.877 146.144 146.15 146.483 146.444 
146.675 146.413 146.408 145.998 145.957 145.649 145.737 145.517 145.602 
145.319 145.352 145.603 145.52 145.801 145.675 145.985 145.762 145.959 
145.601 145.644 145.278 145.324 145.056 145.161 144.914 144.987 144.708 
144.82 145.06 144.95 145.16 144.963 145.197 144.976 145.231 144.997 
145.17 144.9 144.965 144.683 144.728 144.455 144.536 144.272 144.37 
144.129 138.855 139.504 139.266 139.454 140.163 139.925 140.142 139.909 
140.141 140.884 140.628 140.859 140.612 140.855 140.618 140.853 141.628 
141.385 141.631 141.361 141.584 141.325 141.547 141.312 141.538 142.338 
142.131 142.414 142.156 142.389 142.087 142.311 142.029 142.284 142.028 
142.281 142.965 142.805 143.112 142.929 143.214 142.933 143.194 142.874 
143.182 142.875 143.192 142.855 143.082 143.475 143.349 143.618 143.541 
143.85 143.707 143.984 143.752 144.052 143.803 144.132 143.829 144.061 
143.651 143.746 143.943 143.8 144.021 143.964 144.275 144.238 144.535 
144.424 144.687 144.548 144.831 144.665 144.888 144.587 144.659 144.227 
144.214 144.435 144.274 144.492 144.382 144.708 144.657 145.019 144.933 
145.236 145.101 145.381 145.251 145.508 145.311 145.442 145.09 145.09 
144.646 144.614 
POINT_DATA 1002
SCALARS Distance double
LOOKUP_TABLE default
141.23 141.899 141.935 141.267 141.993 140.529 141.366 142.017 140.589 
139.921 141.381 141.928 140.674 139.95 139.31 141.267 141.819 140.625 
139.908 139.216 138.541 141.187 141.802 140.515 139.794 139.06 138.377 
137.741 141.191 141.804 140.473 139.735 138.985 138.25 137.622 137.063 
141.169 141.724 140.467 139.7 138.973 138.218 137.52 136.959 136.42 
141.079 141.583 140.457 139.674 138.912 138.178 137.423 136.808 136.301 
135.758 140.965 141.448 140.436 139.707 138.891 138.137 137.369 136.67 
136.165 135.687 135.144 142.503 142.554 143.072 143.169 143.749 142.594 
143.914 144.563 143.225 142.56 144.662 145.281 143.936 143.171 142.451 
145.217 145.881 144.523 143.822 143.072 142.387 145.751 146.493 144.973 
144.375 143.734 143.017 142.383 146.267 146.897 145.459 144.878 144.371 
143.681 142.977 142.34 146.504 146.914 145.873 145.346 144.947 144.347 
143.613 142.926 142.238 146.504 146.742 146.134 145.74 145.418 144.934 
144.234 143.545 142.853 142.111 146.535 146.42 146.635 146.686 146.923 
146.207 146.985 147.001 146.519 145.916 146.916 146.731 146.688 146.103 
145.482 146.458 146.248 146.445 146.046 145.39 144.774 145.768 145.647 
145.816 145.636 145.097 144.493 144.015 145.049 145.022 145.014 144.947 
144.613 144.103 143.7 143.315 144.484 144.452 144.346 144.213 144.02 
143.655 143.292 142.957 142.536 144.044 143.927 143.901 143.639 143.411 
143.154 142.847 142.53 142.15 141.751 141.01 141.266 140.546 141.611 
140.709 139.976 141.953 140.922 140.028 139.329 142.26 141.201 140.152 
139.393 138.737 142.549 141.555 140.51 139.62 138.929 138.14 142.853 
141.927 141.003 140.107 139.232 138.361 137.435 143.232 142.332 141.392 
140.556 139.641 138.611 137.629 136.782 143.528 142.734 141.716 140.788 
139.954 138.981 137.953 137.069 136.345 143.517 142.908 141.99 140.982 
140.152 139.376 138.479 137.576 136.785 136.088 140.512 139.976 139.881 
139.299 139.202 139.036 138.547 138.386 138.284 138.183 137.786 137.474 
137.408 137.428 137.371 137.043 136.614 136.466 136.578 136.606 136.57 
136.418 136.015 135.755 135.767 135.854 135.883 135.969 135.945 135.6 
135.317 135.141 135.1 135.175 135.319 135.49 135.581 135.176 134.863 
134.571 134.339 134.329 134.53 134.755 134.937 135.5 134.883 134.843 
134.134 134.228 134.388 133.486 133.636 133.541 133.977 132.834 132.941 
132.859 133.078 133.612 132.074 132.411 132.235 132.568 132.893 133.481 
131.766 132.501 131.68 132.27 132.781 133.084 133.686 132.296 133.026 
131.805 132.079 132.769 133.135 133.382 133.982 133.013 133.399 132.575 
132.378 132.648 133.051 133.273 133.585 134.203 133.25 133.429 133.132 
132.965 132.809 132.867 133.117 133.419 133.838 134.449 136.363 135.776 
136.657 136.066 136.804 135.152 136.286 136.93 135.484 134.532 136.605 
137.349 135.82 134.842 133.861 137.072 137.955 136.232 135.249 134.212 
133.283 137.453 138.356 136.595 135.731 134.777 133.901 133.137 137.699 
138.489 136.885 136.147 135.385 134.605 133.929 133.39 137.948 138.562 
137.259 136.572 135.913 135.236 134.576 134.039 133.659 138.214 138.685 
137.681 137.057 136.403 135.781 135.162 134.576 134.109 133.742 143.381 
142.921 142.82 142.32 142.484 142.243 141.9 142.217 141.579 141.288 
141.431 141.626 141.014 140.64 140.363 140.754 140.825 140.423 140.044 
139.829 139.643 140.158 140.176 139.938 139.5 139.215 139.125 138.891 
139.682 139.646 139.621 139.187 138.611 138.369 138.303 138.012 139.123 
139.123 139.151 138.905 138.264 137.682 137.516 137.446 137.152 144.009 
143.44 144.156 143.71 144.409 143.018 144.083 144.667 143.385 142.781 
144.254 144.78 143.634 142.954 142.341 144.158 144.735 143.61 142.93 
142.232 141.541 144.056 144.712 143.499 142.897 142.188 141.466 140.761 
144.137 144.778 143.51 142.921 142.28 141.579 140.846 140.158 144.265 
144.769 143.653 142.998 142.331 141.656 140.96 140.239 139.598 144.227 
144.583 143.757 143.133 142.404 141.663 140.968 140.288 139.638 139.099 