# vtk DataFile Version 4.0
vtk output
ASCII
DATASET POLYDATA
POINTS 1002 float
-77.9771 -107.303 55.7449 -77.9424 -107.669 56.4378 -78.2534 -107.799 55.8606 
-78.3583 -107.227 55.3763 -78.8403 -107.703 55.4997 -77.9937 -106.669 55.1732 
-78.9568 -106.924 55.2526 -79.6028 -107.387 55.401 -78.4549 -106.482 54.9382 
-77.9331 -106.152 54.4447 -79.6055 -106.54 55.1017 -80.221 -106.901 55.2571 
-79.0565 -106.253 54.6429 -78.4594 -106.064 53.9747 -77.8199 -105.93 53.3204 
-80.1623 -106.198 54.5746 -80.7255 -106.378 54.8088 -79.6519 -106.064 54.0546 
-79.0657 -105.963 53.3248 -78.3661 -105.837 52.7035 -77.7223 -105.605 52.2897 
-80.8181 -105.991 53.7578 -81.431 -106.057 54.1323 -80.2428 -105.924 53.2675 
-79.6723 -105.759 52.7056 -78.9675 -105.58 52.2161 -78.2387 -105.382 51.8602 
-77.6033 -105.135 51.5144 -81.5696 -105.922 52.961 -82.1909 -105.966 53.4076 
-80.9174 -105.833 52.5449 -80.3108 -105.545 52.216 -79.6305 -105.244 51.8979 
-78.8549 -105.133 51.4725 -78.1175 -105.052 50.9705 -77.4337 -104.976 50.4414 
-82.1245 -105.807 52.3443 -82.7198 -105.869 52.7805 -81.5022 -105.7 51.9608 
-80.9404 -105.425 51.6706 -80.3143 -105.094 51.3907 -79.5423 -105.011 50.9028 
-78.7445 -105.07 50.2408 -78.0154 -105.021 49.6809 -77.33 -104.938 49.3096 
-82.5539 -105.568 51.9016 -83.1361 -105.664 52.3075 -81.9656 -105.458 51.4921 
-81.4724 -105.32 51.0532 -80.9138 -105.125 50.6252 -80.1478 -105.009 50.1569 
-79.3169 -105.022 49.5599 -78.5859 -104.968 49.0221 -77.9492 -104.78 48.7645 
-77.3444 -104.573 48.7116 -83.0605 -105.334 51.52 -83.5759 -105.443 51.9247 
-82.507 -105.224 51.0793 -82.0131 -105.193 50.5284 -81.4515 -105.163 49.9512 
-80.6585 -105.011 49.5201 -79.7751 -104.797 49.1772 -79.0281 -104.628 48.7963 
-78.4339 -104.465 48.5044 -77.8988 -104.256 48.4181 -77.3656 -104.034 48.4389 
-78.1095 -107.893 56.8298 -78.5893 -108.069 56.1988 -78.4801 -107.942 57.3345 
-79.1749 -108.145 56.7576 -79.0252 -107.956 57.9783 -79.4332 -108.095 55.7747 
-79.7521 -108.027 57.5198 -79.4404 -107.871 58.6148 -80.1639 -108.227 56.3962 
-80.314 -107.84 55.6019 -79.9245 -107.637 58.1732 -79.5538 -107.458 59.0651 
-80.5413 -107.917 57.2918 -80.9057 -107.932 56.1683 -80.8235 -107.238 55.3959 
-79.8715 -107.087 58.519 -79.6755 -106.866 59.4687 -80.4231 -107.321 57.927 
-81.0099 -107.501 56.9724 -81.2173 -107.251 55.8016 -81.2732 -106.553 54.9935 
-80.1248 -106.659 58.8736 -80.0826 -106.505 60.0045 -80.4258 -106.833 58.1561 
-80.9618 -106.93 57.4969 -81.4002 -106.881 56.386 -81.701 -106.552 55.3297 
-82.0257 -106.152 54.4308 -80.6442 -106.399 59.3862 -80.6038 -106.38 60.48 
-80.8484 -106.489 58.428 -81.2726 -106.539 57.7548 -81.7411 -106.458 56.8821 
-82.1133 -106.296 55.8012 -82.4864 -106.12 54.8039 -82.7622 -105.996 53.7681 
-81.0465 -106.142 59.7402 -80.988 -106.185 60.6768 -81.2899 -106.133 58.7819 
-81.7437 -106.213 58.0428 -82.2504 -106.198 57.3046 -82.6192 -106.031 56.3187 
-82.8948 -105.896 55.2602 -83.1668 -105.872 54.1903 -83.2768 -105.831 53.1437 
-81.2389 -105.78 59.7883 -81.193 -105.799 60.6397 -81.5079 -105.744 58.9378 
-82.0399 -105.85 58.2735 -82.6495 -106.002 57.6706 -83.0886 -105.946 56.8241 
-83.314 -105.738 55.7699 -83.4988 -105.636 54.6736 -83.6818 -105.648 53.5893 
-83.7149 -105.603 52.6482 -81.3219 -105.312 59.961 -81.5223 -105.309 59.0861 
-81.5855 -104.807 59.2618 -82.0637 -104.876 58.5339 -82.0897 -104.362 58.7644 
-82.0779 -105.397 58.4249 -82.7968 -104.395 58.2105 -82.6307 -103.908 58.3308 
-82.9023 -105.047 58.0913 -82.844 -105.65 57.9492 -83.3469 -103.824 57.6875 
-82.9662 -103.482 57.5827 -83.6806 -104.452 57.7118 -83.7002 -105.291 57.5747 
-83.4536 -105.821 57.2647 -83.554 -103.446 56.7208 -83.1336 -103.179 56.5954 
-84.0042 -103.809 56.8856 -84.233 -104.587 56.9018 -84.0998 -105.383 56.6542 
-83.7388 -105.687 56.2272 -83.5891 -103.212 55.7403 -83.2074 -102.845 55.734 
-83.9756 -103.471 55.8232 -84.3094 -103.929 55.9204 -84.435 -104.683 55.8293 
-84.2546 -105.248 55.4873 -83.8839 -105.463 55.055 -83.5218 -102.793 54.9846 
-83.1414 -102.41 55.004 -83.9069 -103.131 54.9681 -84.29 -103.468 54.967 
-84.5988 -104.016 54.9032 -84.6597 -104.661 54.6531 -84.4286 -105.106 54.262 
-84.061 -105.392 53.8821 -83.3358 -102.315 54.2321 -82.9743 -102.029 54.2535 
-83.7831 -102.626 54.2299 -84.2863 -102.954 54.177 -84.7301 -103.397 54.0336 
-84.9282 -104.003 53.7877 -84.8237 -104.61 53.4515 -84.5393 -105.071 53.1034 
-84.1635 -105.392 52.8281 -83.146 -101.966 53.4299 -82.8416 -101.721 53.525 
-83.5671 -102.21 53.4294 -84.0949 -102.482 53.4192 -84.6104 -102.837 53.2782 
-84.8956 -103.335 53.0246 -84.8661 -103.958 52.7263 -84.682 -104.581 52.4117 
-84.4449 -105.052 52.1439 -84.0811 -105.321 51.9859 -83.7222 -105.195 51.2447 
-84.1393 -105.038 51.2628 -83.7797 -104.912 50.4241 -84.327 -104.626 51.4529 
-84.0046 -104.587 50.475 -83.6534 -104.423 49.6496 -84.4273 -103.965 51.7687 
-84.0603 -103.956 50.7562 -83.8386 -103.865 49.7494 -83.374 -103.645 49.167 
-84.5329 -103.28 52.0624 -84.0967 -103.207 51.0637 -83.9885 -103.135 49.9623 
-83.704 -103.015 49.1596 -82.9252 -102.821 48.8851 -84.4708 -102.746 52.3236 
-84.0851 -102.595 51.2715 -84.0279 -102.415 50.0891 -83.9695 -102.315 49.1278 
-83.2645 -102.219 48.7569 -82.2325 -102.11 48.6445 -84.1517 -102.341 52.5511 
-83.9755 -102.091 51.5434 -83.9636 -101.723 50.3085 -84.0461 -101.506 49.1765 
-83.5186 -101.476 48.6797 -82.4792 -101.439 48.5987 -81.5283 -101.417 48.4106 
-83.7212 -102.023 52.634 -83.8149 -101.64 51.8236 -83.9463 -101.041 50.803 
-84.0901 -100.627 49.6115 -83.7134 -100.625 48.841 -82.7635 -100.734 48.6271 
-81.8302 -100.761 48.4284 -81.1073 -100.798 48.0608 -83.3147 -101.763 52.6404 
-83.5755 -101.312 51.9549 -83.8594 -100.583 51.2589 -84.0516 -99.994 50.2943 
-83.8034 -99.9325 49.3132 -82.995 -100.151 48.7621 -82.1259 -100.276 48.4439 
-81.4876 -100.311 48.0169 -80.9036 -100.347 47.5859 -82.9782 -101.506 52.754 
-83.2477 -101.076 52.0769 -83.5484 -100.406 51.5196 -83.7108 -99.8103 50.8236 
-83.5463 -99.6412 49.8803 -82.9572 -99.7767 49.0386 -82.2246 -99.8846 48.4925 
-81.6852 -99.9123 48.0199 -81.2532 -99.944 47.522 -80.7384 -99.9702 47.1458 
-83.245 -105.086 50.7491 -83.3414 -104.834 49.8659 -82.7224 -105.048 50.1919 
-83.1132 -104.289 49.2519 -82.7211 -104.809 49.393 -82.0972 -105.094 49.5831 
-82.6198 -103.435 48.9723 -82.3369 -104.132 48.9794 -81.8671 -104.699 48.9744 
-81.2288 -104.954 49.1249 -81.9948 -102.674 48.6613 -81.8348 -103.276 48.5605 
-81.5354 -103.85 48.4761 -80.9192 -104.225 48.6485 -80.2473 -104.496 48.9289 
-81.2832 -102.06 48.3155 -81.2626 -102.701 48.035 -81.2817 -103.2 47.6736 
-80.9008 -103.455 47.8063 -80.1203 -103.641 48.4075 -79.4301 -104.073 48.7462 
-80.6967 -101.39 48.0183 -80.5596 -102.152 47.8111 -80.7543 -102.848 47.2466 
-80.8143 -103.226 46.847 -80.2797 -103.308 47.3085 -79.4232 -103.474 48.103 
-78.7904 -103.937 48.4356 -80.377 -100.746 47.6301 -79.9988 -101.398 47.6762 
-80.0236 -102.223 47.3691 -80.2406 -102.928 46.7189 -80.0949 -103.303 46.4865 
-79.4268 -103.447 47.0336 -78.6815 -103.605 47.7493 -78.2099 -103.889 48.1717 
-80.2153 -100.233 47.1905 -79.7277 -100.656 47.3344 -79.5362 -101.351 47.3058 
-79.5984 -102.153 46.9031 -79.5426 -102.792 46.4526 -79.1067 -103.223 46.4412 
-78.453 -103.5 46.873 -77.938 -103.635 47.4784 -77.639 -103.759 48.0424 
-80.2606 -99.6853 46.7828 -79.7201 -99.9424 46.8786 -79.7723 -99.3091 46.4766 
-79.2813 -99.6228 46.5181 -79.225 -98.9167 46.146 -79.352 -100.418 46.9214 
-78.7273 -99.385 46.0746 -78.4543 -98.5718 45.8122 -78.9975 -100.286 46.2971 
-79.2282 -101.183 46.694 -77.9259 -99.2222 45.7571 -77.5358 -98.3209 45.674 
-78.3637 -100.301 45.7277 -78.7512 -101.132 45.9483 -79.0689 -101.91 46.3909 
-77.0996 -99.1246 45.8307 -76.743 -98.2976 45.9031 -77.4735 -100.269 45.5921 
-77.9112 -101.152 45.5566 -78.2763 -101.682 46.011 -78.6328 -102.457 46.3412 
-76.4445 -99.194 46.2498 -76.1783 -98.529 46.3808 -76.6253 -100.12 45.8846 
-76.8929 -101.035 45.625 -77.2611 -101.592 45.9072 -77.5965 -102.191 46.2996 
-77.9968 -103.011 46.4752 -75.9546 -99.368 46.7273 -75.7906 -98.7868 46.8881 
-75.9677 -100.021 46.3343 -75.9836 -100.768 45.9042 -76.2068 -101.523 45.9122 
-76.5484 -102.228 46.1849 -76.9483 -102.918 46.4034 -77.4537 -103.422 46.8104 
-75.5415 -99.4494 47.1533 -75.4484 -98.9008 47.3806 -75.5037 -100.023 46.8005 
-75.3906 -100.575 46.3532 -75.4219 -101.313 46.1343 -75.6651 -102.251 46.1768 
-76.0561 -102.99 46.3402 -76.5888 -103.348 46.779 -77.1687 -103.528 47.4683 
-75.0584 -99.411 47.5679 -75.0183 -98.9285 47.852 -75.0661 -100.021 47.2697 
-75.0297 -100.551 46.9504 -75.0371 -101.106 46.7248 -75.1779 -101.974 46.6239 
-75.4668 -102.847 46.6449 -75.9148 -103.259 46.9707 -76.4645 -103.395 47.5954 
-76.9731 -103.637 48.1586 -80.8755 -99.4844 46.9762 -80.4402 -99.1109 46.5518 
-80.9314 -98.7241 46.9213 -80.5276 -98.3148 46.4368 -80.909 -97.8908 47.0316 
-79.9406 -98.6963 46.1731 -80.3571 -97.567 46.6063 -80.6911 -97.4795 47.392 
-79.9487 -97.9376 46.0858 -79.2321 -98.2976 45.8582 -79.8789 -97.2249 47.161 
-80.2086 -97.5141 48.0562 -79.6132 -97.2141 46.4745 -79.0513 -97.6029 45.9859 
-78.2113 -97.9438 45.6763 -79.4285 -97.1358 48.0056 -79.7505 -97.4605 48.9372 
-79.1694 -96.8288 47.1503 -78.6878 -96.9545 46.5666 -77.8759 -97.334 46.0435 
-77.1292 -97.7068 45.7345 -79.2732 -96.9419 48.9927 -79.5471 -97.1863 49.799 
-78.9761 -96.7456 47.9677 -78.4108 -96.7204 47.1465 -77.5671 -96.845 46.6675 
-76.7443 -97.1469 46.2288 -76.3008 -97.7321 46.0918 -79.1436 -96.7583 49.8973 
-79.3658 -97.0591 50.4673 -78.8493 -96.6689 49.0546 -78.2024 -96.7879 47.9817 
-77.3148 -96.7604 47.2939 -76.4914 -96.7265 46.9652 -75.9602 -97.174 46.67 
-75.8022 -97.9971 46.6466 -78.7852 -96.8487 50.5499 -79.0145 -97.2071 50.9959 
-78.4911 -96.6188 50.1059 -77.8648 -96.7217 49.2739 -77.0147 -96.8203 48.3222 
-76.2973 -96.6665 47.8224 -75.8106 -96.8043 47.5645 -75.5621 -97.5025 47.3163 
-75.5119 -98.2986 47.2713 -78.3693 -97.1253 51.0631 -78.6485 -97.4202 51.5323 
-78.0314 -96.7708 50.7928 -77.4751 -96.6117 50.3936 -76.7523 -96.7094 49.5907 
[...]
CELL_DATA 2000
SCALARS Distance double
LOOKUP_TABLE default
143.244 143.297 143.073 142.656 143.399 143.129 142.684 142.436 141.972 
143.428 143.201 142.723 142.477 142.01 141.754 141.296 143.264 143.133 
142.669 142.487 142.02 141.79 141.316 141.078 140.619 143.109 142.962 
142.566 142.404 141.971 141.769 141.294 141.071 140.593 140.379 139.917 
143.134 142.925 142.576 142.365 141.97 141.738 141.288 141.045 140.587 
140.358 139.917 139.691 139.268 143.168 142.984 142.612 142.414 142.015 
141.783 141.347 141.083 140.648 140.394 139.985 139.737 139.338 139.095 
138.723 143.11 142.956 142.556 142.395 141.996 141.814 141.401 141.166 
140.732 140.478 140.054 139.815 139.402 139.173 138.779 138.571 138.22 
143.062 142.893 142.517 142.334 141.975 141.797 141.444 141.229 140.816 
140.555 140.087 139.841 139.375 139.176 138.748 138.58 138.203 138.051 
137.717 143.556 144.009 143.741 143.654 144.538 144.254 144.262 143.93 
143.843 145.039 144.814 144.881 144.613 144.598 144.16 143.943 145.18 
145.15 145.187 145.143 145.156 144.878 144.628 144.131 143.746 144.993 
145.053 145.026 145.19 145.198 145.208 144.977 144.675 144.255 143.823 
143.487 144.973 144.876 144.829 144.919 144.945 145.061 144.932 144.839 
144.524 144.242 143.951 143.628 143.459 145.264 145.025 144.949 144.85 
144.883 144.889 144.873 144.801 144.642 144.458 144.275 144.05 143.919 
143.651 143.51 145.505 145.317 145.153 145.024 145.003 144.961 145.003 
144.91 144.852 144.655 144.528 144.332 144.225 144.037 143.912 143.652 
143.464 145.45 145.382 145.135 145.094 145.011 145.049 145.124 145.12 
145.149 144.974 144.866 144.616 144.479 144.284 144.165 143.981 143.831 
143.574 143.389 145.203 144.693 144.934 144.934 144.368 144.533 144.655 
144.814 144.932 144.205 144.356 144.584 144.718 144.973 145.029 145.182 
143.902 144.171 144.419 144.68 144.983 145.142 145.324 145.309 145.28 
143.416 143.755 143.94 144.335 144.584 144.97 145.135 145.33 145.258 
145.223 144.983 142.891 143.23 143.362 143.733 143.891 144.347 144.502 
144.904 144.885 145.044 144.818 144.792 144.537 142.293 142.666 142.771 
143.129 143.227 143.618 143.751 144.18 144.262 144.565 144.468 144.562 
144.358 144.359 144.182 141.617 141.999 142.077 142.476 142.561 142.954 
143.061 143.467 143.571 143.938 143.943 144.17 144.054 144.148 143.989 
144.023 143.856 140.984 141.311 141.366 141.749 141.835 142.248 142.341 
142.761 142.828 143.232 143.232 143.577 143.499 143.75 143.624 143.77 
143.606 143.659 143.449 143.183 143.327 143.114 142.771 143.275 143.143 
142.746 142.587 142.153 143.062 142.964 142.493 142.408 141.926 141.831 
141.326 142.77 142.677 142.144 142.058 141.557 141.511 141.026 140.937 
140.403 142.41 142.352 141.802 141.687 141.143 141.099 140.631 140.604 
140.099 139.988 139.419 141.966 141.968 141.452 141.344 140.755 140.67 
140.152 140.157 139.666 139.634 139.066 138.962 138.386 141.48 141.517 
141.064 140.996 140.432 140.299 139.74 139.678 139.193 139.174 138.669 
138.593 138.057 137.954 137.466 141.031 141.058 140.662 140.631 140.145 
140.014 139.483 139.342 138.871 138.783 138.351 138.256 137.81 137.688 
137.262 137.144 136.763 140.671 140.663 140.302 140.274 139.858 139.761 
139.291 139.145 138.692 138.559 138.139 138.019 137.597 137.482 137.079 
136.981 136.621 136.522 136.191 142.933 142.548 142.642 142.395 142.013 
142.224 142.025 142.102 141.865 141.23 141.595 141.478 141.698 141.488 
141.579 141.335 140.271 140.709 140.604 141.009 140.836 141.096 140.813 
140.962 140.659 139.27 139.706 139.567 140.028 139.862 140.265 139.977 
140.265 139.899 140.145 139.835 138.27 138.697 138.582 139.015 138.892 
139.278 139.055 139.349 139.018 139.279 138.969 139.279 139.066 137.35 
137.722 137.644 138.077 138.045 138.427 138.335 138.576 138.368 138.515 
138.27 138.463 138.287 138.58 138.461 136.607 136.871 136.758 137.159 
137.158 137.612 137.617 137.958 137.858 138.026 137.835 137.932 137.751 
137.913 137.795 138.05 137.961 136.02 136.194 136.011 136.31 136.259 
136.705 136.725 137.183 137.128 137.461 137.285 137.491 137.27 137.433 
137.249 137.449 137.325 137.581 137.491 135.64 135.009 135.403 135.6 
134.341 134.772 135.013 135.446 135.806 133.61 134.109 134.418 134.89 
135.283 135.765 136.238 132.849 133.388 133.786 134.317 134.738 135.232 
135.658 136.182 136.613 132.285 132.725 133.184 133.707 134.159 134.659 
135.017 135.521 135.871 136.439 136.779 132.097 132.357 132.783 133.171 
133.583 134.048 134.373 134.841 135.124 135.649 135.98 136.541 136.827 
132.155 132.306 132.631 132.847 133.112 133.459 133.734 134.182 134.478 
134.952 135.281 135.783 136.122 136.605 136.864 132.218 132.353 132.595 
132.722 132.873 133.046 133.244 133.584 133.927 134.374 134.763 135.197 
135.553 135.977 136.293 136.697 136.958 132.17 132.315 132.508 132.654 
132.808 132.901 133.075 133.245 133.588 133.93 134.383 134.77 135.161 
135.511 135.833 136.191 136.494 136.856 137.133 135.563 135.142 135.227 
134.91 134.58 134.727 134.439 134.537 134.204 134.091 134.15 133.862 
134.004 133.678 133.781 133.418 133.868 133.741 133.356 133.418 133.097 
133.215 132.828 132.928 132.581 133.85 133.608 133.13 133.006 132.636 
132.665 132.303 132.348 131.969 132.103 131.931 133.893 133.641 133.2 
132.932 132.529 132.358 131.991 131.906 131.535 131.552 131.35 131.595 
131.69 133.951 133.723 133.37 133.1 132.73 132.428 132.027 131.761 
131.367 131.225 130.995 131.103 131.18 131.522 131.778 134.033 133.814 
133.492 133.276 132.941 132.665 132.256 131.919 131.501 131.215 130.968 
130.89 130.944 131.126 131.389 131.699 131.941 134.164 133.93 133.608 
133.39 133.059 132.826 132.447 132.152 131.773 131.459 131.224 131.02 
131.05 131.051 131.29 131.445 131.698 131.884 132.016 140.393 139.825 
140.075 139.992 139.171 139.455 139.346 139.634 139.527 138.44 138.751 
138.632 138.944 138.826 139.122 138.983 137.662 137.978 137.843 138.187 
138.063 138.39 138.253 138.55 138.406 136.933 137.193 137.012 137.347 
137.188 137.56 137.394 137.759 137.599 137.949 137.815 136.331 136.515 
136.289 136.526 136.318 136.646 136.445 136.82 136.616 137.029 136.878 
137.315 137.217 135.749 135.933 135.683 135.854 135.614 135.842 135.643 
135.918 135.704 136.026 135.852 136.291 136.231 136.721 136.697 135.108 
135.31 135.047 135.235 134.978 135.186 134.983 135.212 135.008 135.224 
135.021 135.326 135.26 135.727 135.784 136.265 136.287 134.522 134.673 
134.419 134.591 134.342 134.541 134.32 134.554 134.337 134.562 134.335 
134.578 134.461 134.838 134.898 135.378 135.474 135.903 135.906 140.536 
140.592 140.38 139.987 140.62 140.422 140.014 139.792 139.347 140.606 
140.42 140.012 139.805 139.346 139.111 138.625 140.596 140.391 139.975 
139.783 139.344 139.115 138.618 138.363 137.863 140.623 140.393 139.953 
139.74 139.312 139.108 138.633 138.372 137.851 137.597 137.136 140.639 
140.428 139.98 139.734 139.275 139.065 138.603 138.375 137.854 137.591 
137.099 136.899 136.511 140.583 140.423 139.998 139.765 139.282 139.038 
138.567 138.342 137.847 137.587 137.071 136.846 136.415 136.28 135.915 
140.477 140.343 139.941 139.755 139.288 139.048 138.572 138.334 137.875 
137.612 137.118 136.837 136.365 136.168 135.776 135.658 135.289 140.378 
140.237 139.839 139.677 139.234 139.03 138.57 138.351 137.914 137.675 
137.22 136.925 136.447 136.168 135.75 135.555 135.204 135.057 134.724 
140.205 139.709 139.853 139.627 139.114 139.293 139.038 139.228 138.996 
138.455 138.657 138.399 138.601 138.369 138.573 138.351 137.747 137.981 
137.748 137.964 137.741 137.944 137.731 137.933 137.715 137.018 137.261 
137.051 137.304 137.082 137.304 137.054 137.278 137.031 137.266 137.01 
136.409 136.575 136.372 136.605 136.379 136.603 136.302 136.531 136.227 
136.503 136.234 136.506 136.237 135.951 136.045 135.817 135.977 135.733 
135.902 135.57 135.745 135.407 135.659 135.41 135.709 135.501 135.757 
135.549 135.458 135.57 135.284 135.437 135.159 135.294 134.943 135.05 
134.686 134.868 134.629 134.919 134.78 135.064 134.916 135.146 134.995 
134.861 134.991 134.662 134.843 134.559 134.721 134.398 134.483 134.122 
134.218 133.951 134.179 134.05 134.361 134.259 134.531 134.396 134.631 
134.506 134.406 133.749 134.085 134.211 133.311 133.522 133.608 133.96 
134.128 132.858 133.094 133.109 133.412 133.521 133.884 133.992 132.14 
132.46 132.414 132.828 132.904 133.294 133.365 133.699 133.744 131.55 
131.689 131.593 131.998 132.132 132.625 132.763 133.112 133.166 133.463 
133.573 131.539 131.381 131.27 131.344 131.503 131.886 132.147 132.531 
132.656 132.94 133.061 133.397 133.645 131.796 131.611 131.521 131.339 
131.385 131.474 131.693 131.983 132.159 132.447 132.576 132.906 133.145 
133.549 133.853 131.911 131.848 131.757 131.616 131.496 131.448 131.452 
131.609 131.723 131.983 132.139 132.444 132.686 133.057 133.363 133.754 
134.026 131.96 131.902 131.771 131.69 131.461 131.409 131.236 131.329 
131.346 131.584 131.776 132.071 132.362 132.672 132.99 133.309 133.597 
133.922 134.168 134.462 134.405 134.187 133.795 134.432 134.179 133.786 
133.62 133.362 134.481 134.216 133.801 133.623 133.329 133.235 132.948 
134.634 134.293 133.818 133.591 133.218 133.135 132.823 132.732 132.321 
134.976 134.537 134.03 133.652 133.202 132.995 132.668 132.58 132.28 
132.113 131.794 135.384 134.938 134.453 133.984 133.534 133.13 132.787 
132.532 132.303 132.14 131.969 131.79 131.705 135.749 135.338 134.882 
134.443 134.047 133.607 133.29 132.874 132.611 132.296 132.111 131.948 
131.868 131.805 131.824 136.116 135.712 135.285 134.867 134.509 134.128 
133.865 133.468 133.194 132.755 132.465 132.137 131.962 131.856 131.832 
131.863 131.898 136.493 136.111 135.73 135.308 134.975 134.593 134.352 
134.006 133.765 133.351 133.041 132.595 132.346 132.041 131.976 131.873 
131.94 131.934 132.006 134.972 135.78 135.218 134.926 136.577 136.04 
135.746 135.194 134.926 137.326 136.811 136.525 135.997 135.716 135.197 
134.967 138.104 137.567 137.306 136.779 136.551 136.016 135.818 135.288 
135.144 138.957 138.392 138.173 137.624 137.488 136.942 136.834 136.245 
136.135 135.564 135.494 139.904 139.319 139.142 138.562 138.479 137.954 
137.931 137.357 137.269 136.637 136.525 135.953 135.881 140.883 140.333 
140.2 139.595 139.498 138.962 138.951 138.444 138.374 137.773 137.599 
136.984 136.836 136.306 136.22 141.733 141.294 141.204 140.66 140.543 
139.986 139.922 139.422 139.359 138.817 138.64 138.023 137.812 137.241 
137.112 136.622 136.556 142.394 142.06 141.998 141.582 141.475 140.981 
140.867 140.365 140.266 139.759 139.605 139.027 138.804 138.206 138.025 
137.502 137.405 136.949 136.891 142.703 143.048 142.7 142.329 143.445 
143.065 142.684 142.297 141.86 143.861 143.487 143.083 142.66 142.19 
141.777 141.279 144.112 143.845 143.408 143.02 142.475 142.069 141.528 
141.152 140.64 144.051 143.933 143.49 143.231 142.645 142.276 141.664 
141.322 140.774 140.468 139.939 143.807 143.747 143.339 143.2 142.67 
142.374 141.737 141.395 140.799 140.519 139.973 139.699 139.142 143.613 
143.518 143.144 143.027 142.575 142.358 141.773 141.448 140.825 140.516 
139.958 139.694 139.163 138.884 138.365 143.494 143.384 143.014 142.869 
142.428 142.252 141.728 141.467 140.873 140.556 139.983 139.692 139.179 
138.913 138.435 138.166 137.729 143.339 143.263 142.88 142.741 142.273 
142.106 141.605 141.404 140.873 140.603 140.052 139.749 139.231 138.951 
138.488 138.238 137.823 137.582 137.202 143.102 142.479 142.753 142.607 
141.764 142.051 141.886 142.169 141.975 141.075 141.325 141.139 141.413 
141.223 141.501 141.3 140.401 140.64 140.431 140.68 140.476 140.745 
140.541 140.818 140.592 139.694 139.939 139.706 139.959 139.723 139.99 
139.76 140.042 139.802 140.075 139.804 139.026 139.225 138.978 139.214 
138.963 139.219 138.966 139.24 138.983 139.262 138.992 139.261 138.99 
138.479 138.609 138.354 138.523 138.276 138.481 138.23 138.46 138.201 
138.449 138.184 138.446 138.194 138.469 138.247 138 138.107 137.845 
137.962 137.703 137.848 137.59 137.768 137.512 137.714 137.461 137.682 
137.45 137.699 137.503 137.776 137.603 137.512 137.625 137.353 137.466 
137.186 137.305 137.026 137.166 136.905 137.074 136.842 137.027 136.819 
137.021 136.838 137.071 136.908 137.167 137.007 136.572 136.487 136.311 
135.852 136.448 136.261 135.833 135.6 135.144 136.439 136.252 135.853 
135.622 135.175 134.931 134.52 136.441 136.247 135.84 135.634 135.17 
134.942 134.477 134.299 133.89 136.49 136.258 135.84 135.617 135.15 
134.909 134.413 134.208 133.753 133.613 133.178 136.616 136.341 135.937 
135.668 135.248 134.954 134.508 134.208 133.792 133.543 133.156 132.931 
132.546 136.787 136.498 136.105 135.819 135.445 135.144 134.757 134.416 
134.04 133.717 133.395 133.084 132.77 132.456 132.192 136.966 136.681 
136.292 136.006 135.644 135.369 135 134.69 134.279 133.972 133.613 
133.36 133.08 132.8 132.554 132.259 132.112 137.144 136.869 136.496 
136.204 135.843 135.569 135.209 134.913 134.479 134.155 133.717 133.483 
133.184 133.034 132.832 132.633 132.463 132.237 132.137 145.688 145.705 
145.821 145.906 145.424 145.678 145.776 145.889 145.863 145.14 145.353 
145.495 145.665 145.689 145.774 145.755 145.194 145.245 145.446 145.483 
145.525 145.561 145.551 145.66 145.655 145.353 145.428 145.674 145.641 
145.655 145.502 145.353 145.367 145.311 145.492 145.404 145.115 145.399 
145.611 145.81 145.832 145.71 145.416 145.212 144.956 145.042 144.957 
145.139 144.932 144.548 144.899 145.003 145.43 145.477 145.679 145.435 
145.293 144.914 144.78 144.574 144.666 144.53 144.615 144.31 144.026 
144.281 144.291 144.662 144.677 145.065 144.964 145.131 144.864 144.789 
144.508 144.427 144.223 144.234 143.99 143.981 143.632 143.605 143.807 
143.772 144.001 143.952 144.258 144.209 144.527 144.429 144.6 144.399 
144.384 144.112 144.032 143.739 143.685 143.374 143.33 143.007 145.606 
145.854 145.686 145.468 145.839 145.812 145.63 145.454 145.148 145.756 
145.751 145.594 145.5 145.188 145.012 144.622 145.67 145.675 145.49 
145.414 145.084 144.952 144.523 144.369 143.96 145.378 145.48 145.204 
145.209 144.817 144.769 144.321 144.207 143.77 143.677 143.346 144.822 
145.003 144.632 144.731 144.29 144.373 143.951 143.948 143.523 143.46 
143.108 143.087 142.802 144.146 144.341 143.953 144.063 143.646 143.774 
143.445 143.54 143.193 143.18 142.809 142.8 142.48 142.503 142.177 
143.472 143.657 143.324 143.426 143.081 143.191 142.949 143.074 142.824 
142.848 142.488 142.462 142.098 142.125 141.795 141.823 141.476 142.868 
143.03 142.757 142.866 142.573 142.687 142.465 142.616 142.401 142.483 
142.147 142.128 141.735 141.732 141.392 141.429 141.116 141.134 140.822 
145.294 145.168 145.074 144.742 144.91 144.916 144.627 144.546 144.332 
144.468 144.62 144.437 144.437 144.238 144.213 144.097 143.879 144.134 
144.06 144.211 144.074 144.1 143.916 143.938 143.776 143.302 143.553 
143.508 143.759 143.665 143.829 143.615 143.676 143.406 143.484 143.271 
142.753 142.993 142.891 143.154 143.024 143.284 143.066 143.233 142.917 
143.029 142.747 142.911 142.717 142.107 142.383 142.221 142.487 142.303 
142.577 142.364 142.593 142.312 142.469 142.177 142.343 142.12 142.331 
142.132 141.4 141.678 141.512 141.779 141.598 141.856 141.665 141.899 
141.673 141.857 141.606 141.77 141.548 141.732 141.534 141.724 141.502 
140.756 140.993 140.855 141.097 140.958 141.192 141.032 141.247 141.048 
141.239 141.018 141.201 140.994 141.178 140.99 141.161 140.962 141.113 
140.9 135.208 135.78 135.659 135.986 136.236 136.175 136.511 136.441 
136.773 136.681 136.601 136.968 136.938 137.333 137.237 137.557 137.297 
137.127 137.519 137.44 137.903 137.826 138.233 138.06 138.366 138.042 
137.835 138.226 138.081 138.547 138.447 138.893 138.756 139.112 138.895 
139.199 138.77 138.591 138.971 138.814 139.239 139.117 139.541 139.416 
139.784 139.617 139.946 139.745 140.088 139.431 139.29 139.658 139.519 
139.913 139.792 140.206 140.078 140.46 140.292 140.633 140.455 140.806 
140.64 141.006 140.004 139.906 140.252 140.146 140.51 140.417 140.831 
140.742 141.157 141.003 141.347 141.146 141.463 141.301 141.636 141.507 
141.822 140.476 140.42 140.747 140.678 141.01 140.949 141.335 141.31 
141.729 141.665 142.001 141.837 142.086 141.913 142.179 142.063 142.349 
142.237 142.482 
POINT_DATA 1002
SCALARS Distance double
LOOKUP_TABLE default
142.882 143.406 143.446 142.89 143.555 142.197 142.944 143.7 142.22 
141.5 142.959 143.627 142.268 141.544 140.846 142.815 143.351 142.235 
141.56 140.847 140.165 142.722 143.256 142.166 141.516 140.809 140.125 
139.462 142.8 143.35 142.212 141.536 140.813 140.141 139.486 138.859 
142.805 143.35 142.232 141.604 140.903 140.229 139.587 138.944 138.368 
142.715 143.267 142.149 141.608 140.992 140.303 139.632 138.991 138.403 
137.891 142.698 143.221 142.14 141.637 141.089 140.371 139.589 138.907 
138.348 137.86 137.402 143.816 143.961 144.252 144.553 144.812 144.276 
145.079 145.229 145.014 144.505 145.144 145.168 145.341 145.117 144.263 
144.849 144.963 145.087 145.169 144.647 143.857 144.817 145.141 144.822 
144.928 144.703 144.224 143.774 145.121 145.532 144.913 144.917 144.777 
144.45 144.153 143.832 145.3 145.684 145.041 145.057 145.039 144.742 
144.395 144.13 143.775 145.164 145.503 144.943 145.051 145.266 145.143 
144.714 144.329 144.039 143.68 144.943 144.696 144.44 144.465 144.202 
144.805 144.404 144.009 144.886 145.231 144.101 143.596 144.752 145.312 
145.432 143.568 143.085 144.153 144.849 145.248 145.095 143.039 142.552 
143.481 144.04 144.62 144.792 144.569 142.408 141.92 142.868 143.333 
143.882 144.287 144.328 144.18 141.67 141.262 142.153 142.663 143.187 
143.647 143.899 143.938 143.852 141.005 140.686 141.426 141.928 142.433 
142.865 143.187 143.414 143.52 143.447 142.881 143.016 142.417 142.893 
142.329 141.715 142.586 142.002 141.45 140.814 142.259 141.589 141.082 
140.546 139.85 141.933 141.215 140.628 140.184 139.567 138.84 141.538 
140.885 140.169 139.662 139.152 138.48 137.839 141.086 140.568 139.845 
139.208 138.71 138.147 137.544 137.017 140.662 140.239 139.63 138.975 
138.432 137.911 137.373 136.871 136.403 140.322 139.921 139.414 138.831 
138.271 137.716 137.165 136.699 136.293 135.879 142.348 141.909 141.821 
141.162 141.365 141.28 140.151 140.5 140.644 140.517 139.119 139.433 
139.653 139.634 139.547 138.133 138.495 138.75 138.763 138.658 138.703 
137.196 137.605 138.038 138.218 138.125 138.029 138.13 136.402 136.676 
137.194 137.621 137.737 137.645 137.583 137.674 135.779 135.854 136.245 
136.737 137.027 137.094 137.074 137.091 137.21 135.264 135.168 134.596 
134.553 133.874 135.318 133.902 133.055 134.8 135.733 133.207 132.287 
134.25 135.165 136.076 132.682 131.889 133.666 134.564 135.322 136.216 
132.501 131.901 133.168 133.917 134.639 135.412 136.313 132.517 132.049 
132.875 133.295 133.991 134.807 135.626 136.429 132.493 132.113 132.776 
132.97 133.467 134.326 135.159 135.877 136.574 132.339 132.059 132.693 
132.957 133.3 133.998 134.826 135.499 136.124 136.786 135.547 134.871 
135.008 134.304 134.429 134.143 133.718 134.128 133.565 133.326 133.379 
134.1 132.974 132.755 132.404 133.346 134.106 132.667 132.269 131.887 
131.618 133.471 134.104 132.783 132.139 131.566 131.154 131.281 133.595 
134.154 133.047 132.364 131.579 130.958 130.876 131.385 133.693 134.253 
133.19 132.59 131.819 131.11 130.837 131.12 131.664 133.844 134.396 
133.29 132.701 132.053 131.45 131.115 131.199 131.554 131.878 140.17 
139.733 139.574 139.059 138.883 139.248 138.311 138.127 138.527 138.704 
137.496 137.365 137.723 137.94 138.116 136.719 136.716 136.822 137.02 
137.223 137.46 136.111 136.167 136.037 136.098 136.22 136.406 136.77 
135.523 135.558 135.415 135.393 135.439 135.454 135.696 136.227 134.85 
134.918 134.77 134.752 134.807 134.781 134.828 135.258 135.869 140.752 
140.218 140.807 140.242 140.812 139.584 140.208 140.801 139.589 138.866 
140.166 140.825 139.553 138.892 138.098 140.191 140.855 139.503 138.88 
138.128 137.33 140.241 140.821 139.51 138.814 138.118 137.316 136.652 
140.209 140.719 139.545 138.793 138.094 137.329 136.57 136.023 140.103 
140.611 139.513 138.807 138.117 137.414 136.613 135.913 135.395 139.997 
140.526 139.417 138.773 138.132 137.496 136.751 135.979 135.359 134.859 