# vtk DataFile Version 4.0
vtk output
ASCII
DATASET POLYDATA
POINTS 1002 float
-78.9818 -102.839 53.925 -79.1221 -102.843 54.7911 -79.7486 -102.925 54.3363 
-79.6297 -102.851 53.4692 -80.3649 -102.827 53.9224 -78.8527 -102.571 53.2428 
-80.3642 -102.717 53.1015 -80.9758 -102.592 53.5853 -79.4627 -102.603 52.7468 
-78.7548 -102.307 52.5159 -81.1395 -102.555 52.7597 -81.6194 -102.516 53.1736 
-80.2235 -102.44 52.3883 -79.3093 -102.276 52.0041 -78.6916 -102.06 51.6366 
-81.8075 -102.452 52.2299 -82.1773 -102.332 52.6424 -80.9862 -102.207 51.9773 
-79.974 -101.957 51.641 -79.2387 -101.77 51.2292 -78.5874 -101.501 50.8992 
-82.1725 -101.96 51.6568 -82.4762 -101.597 52.1901 -81.527 -101.902 51.3822 
-80.6142 -101.61 51.1735 -79.802 -101.379 50.8308 -79.1099 -101.119 50.5394 
-78.3334 -100.838 50.292 -82.37 -101.114 51.2297 -82.7312 -100.823 51.7624 
-81.7922 -101.274 50.8991 -81.0864 -101.205 50.6957 -80.3659 -101.062 50.3503 
-79.6106 -100.868 50.0158 -78.7783 -100.602 49.803 -78.0405 -100.451 49.4898 
-82.8068 -100.617 50.7205 -83.239 -100.545 51.1487 -82.1109 -100.652 50.4991 
-81.3967 -100.635 50.3653 -80.8045 -100.604 49.9974 -80.1299 -100.547 49.5098 
-79.2627 -100.375 49.2122 -78.4546 -100.2 48.954 -77.899 -100.169 48.5717 
-83.4395 -100.481 50.0853 -83.8357 -100.441 50.4752 -82.6746 -100.369 49.9437 
-81.8026 -100.201 49.8955 -81.1395 -100.11 49.5882 -80.5536 -100.109 49.0471 
-79.7861 -100.053 48.6581 -78.9626 -99.9192 48.4139 -78.3302 -99.8527 48.0857 
-77.8567 -99.8829 47.7234 -83.8964 -100.241 49.5743 -84.2321 -100.154 49.9758 
-83.1893 -100.144 49.3951 -82.2999 -99.9459 49.2902 -81.566 -99.8307 48.9587 
-80.9766 -99.8543 48.401 -80.2867 -99.8598 47.9918 -79.5097 -99.7586 47.8065 
-78.8356 -99.673 47.5565 -78.2963 -99.6867 47.1959 -77.7752 -99.7337 46.9075 
-79.6273 -102.754 55.5298 -80.2201 -102.86 55.0202 -80.0529 -102.779 56.2177 
-80.6357 -102.766 55.6762 -80.4775 -102.853 56.771 -80.7309 -102.633 54.5824 
-81.1525 -102.643 56.2346 -80.9413 -102.682 57.3408 -81.1475 -102.417 55.2476 
-81.2396 -102.346 54.2124 -81.5926 -102.437 56.7886 -81.2543 -102.325 57.93 
-81.7324 -102.339 55.857 -81.6467 -102.135 54.878 -81.8396 -102.24 53.744 
-81.7426 -102.098 57.3485 -81.4447 -101.994 58.3826 -82.1074 -102.212 56.4653 
-82.1426 -101.997 55.5045 -82.1322 -101.805 54.3399 -82.3447 -101.795 53.2082 
-81.8969 -101.569 57.8116 -81.7192 -101.583 58.6745 -82.2443 -101.69 57.0386 
-82.4171 -101.588 56.0935 -82.4077 -101.275 54.8621 -82.4953 -101.105 53.719 
-82.6394 -100.992 52.7555 -82.2184 -101.005 58.11 -82.0246 -101.071 58.824 
-82.5176 -100.989 57.4307 -82.6945 -100.918 56.5422 -82.7159 -100.726 55.3449 
-82.7761 -100.594 54.1712 -82.8701 -100.552 53.2263 -83.0232 -100.532 52.2348 
-82.5529 -100.604 58.2845 -82.2819 -100.599 58.8524 -82.9126 -100.557 57.667 
-83.1612 -100.48 56.7932 -83.2504 -100.426 55.7116 -83.3509 -100.419 54.6595 
-83.4053 -100.395 53.7138 -83.4204 -100.357 52.7029 -83.6052 -100.393 51.542 
-82.8677 -100.293 58.4068 -82.5438 -100.177 58.8319 -83.2926 -100.331 57.8913 
-83.6516 -100.309 57.0487 -83.8441 -100.346 56.0063 -84.0089 -100.439 55.0759 
-84.1174 -100.397 54.2114 -84.0315 -100.215 53.2001 -83.9774 -100.118 52.0307 
-84.1242 -100.154 50.8819 -83.0659 -99.8303 58.5821 -83.544 -99.989 58.2185 
-83.6907 -99.396 58.3314 -84.2612 -99.5257 57.9105 -84.2151 -98.8536 57.911 
-84.0315 -100.048 57.5598 -84.6918 -98.9675 57.3827 -84.4467 -98.324 57.3105 
-84.656 -99.5923 57.13 -84.3241 -100.117 56.5299 -84.6988 -98.4437 56.5965 
-84.4241 -97.8298 56.5087 -84.8307 -99.0269 56.5184 -84.7278 -99.7083 56.0523 
-84.4696 -100.272 55.4884 -84.6075 -97.8291 55.5463 -84.3513 -97.2877 55.4991 
-84.7094 -98.3868 55.5063 -84.6939 -99.0343 55.2235 -84.7102 -99.78 54.8271 
-84.606 -100.275 54.5287 -84.5682 -97.1804 54.482 -84.2355 -96.8115 54.5094 
-84.7225 -97.6466 54.3017 -84.7024 -98.2519 53.9401 -84.7021 -98.9902 53.5963 
-84.7748 -99.6255 53.4883 -84.5816 -100.004 53.4313 -84.309 -96.7902 53.5983 
-83.9703 -96.4913 53.6726 -84.6303 -97.0931 53.3404 -84.8865 -97.5472 52.8705 
-84.9783 -98.265 52.4107 -84.937 -98.9705 52.2415 -84.7733 -99.414 52.2864 
-84.423 -99.7643 52.2341 -83.9278 -96.4953 52.7911 -83.6876 -96.1472 52.9241 
-84.232 -96.7978 52.5424 -84.7203 -97.0759 52.1654 -85.1906 -97.5972 51.7902 
-85.2943 -98.3804 51.5516 -85.0483 -98.9935 51.436 -84.7047 -99.35 51.3049 
-84.4008 -99.737 51.09 -83.7979 -95.9681 52.0495 -83.5701 -95.6605 52.2807 
-83.9853 -96.3597 51.7589 -84.3492 -96.6881 51.4582 -84.9196 -97.0048 51.2512 
-85.312 -97.598 51.1257 -85.2557 -98.3844 50.947 -84.9473 -98.9637 50.6721 
-84.6641 -99.3461 50.3685 -84.4599 -99.7568 50.1141 -84.2346 -99.7784 49.352 
-84.493 -99.372 49.4274 -83.966 -99.2837 48.8184 -84.729 -98.9395 49.6199 
-84.3491 -98.9022 48.7375 -83.5941 -98.8099 48.3348 -84.9472 -98.3306 49.9323 
-84.6012 -98.3218 48.7904 -84.0271 -98.3624 48.2201 -83.1117 -98.2643 47.9724 
-85.0583 -97.501 50.2502 -84.6425 -97.4696 49.0462 -84.1584 -97.5895 48.2798 
-83.3688 -97.6645 48.0068 -82.5078 -97.5872 47.4761 -84.8978 -96.8345 50.4233 
-84.5756 -96.7338 49.3829 -84.0885 -96.7731 48.5047 -83.3927 -96.8545 48.084 
-82.616 -96.9515 47.505 -82.1684 -97.0959 46.511 -84.5055 -96.4508 50.5439 
-84.4266 -96.3141 49.6918 -84.0174 -96.2974 48.8741 -83.4216 -96.2204 48.1824 
-82.7358 -96.2154 47.448 -82.2806 -96.4594 46.4647 -82.0918 -96.7385 45.5606 
-84.2074 -96.008 50.8009 -84.2757 -95.7945 50.0145 -83.8722 -95.8518 49.3494 
-83.3289 -95.8186 48.5348 -82.8753 -95.6264 47.5083 -82.4486 -95.6732 46.4587 
-82.1247 -95.9369 45.6267 -81.7462 -96.0749 45.1639 -84.0607 -95.4956 51.1831 
-84.2223 -95.12 50.4029 -83.7726 -95.1743 49.7707 -83.0448 -95.3604 49.0243 
-82.708 -95.2282 47.9246 -82.5287 -95.0323 46.7074 -82.1796 -95.0848 45.7748 
-81.7327 -95.2146 45.2401 -81.1489 -95.2408 44.9974 -83.8144 -95.1823 51.5667 
-84.0515 -94.7082 50.8424 -83.7373 -94.6292 50.1358 -82.91 -94.8866 49.3727 
-82.4066 -94.9334 48.3924 -82.359 -94.673 47.2053 -82.1575 -94.4974 46.1061 
-81.7402 -94.5205 45.3293 -81.2836 -94.6017 44.8634 -80.7295 -94.6799 44.62 
-83.6486 -99.7656 49.0505 -83.1696 -99.2108 48.5798 -82.8003 -99.6413 48.8501 
-82.7057 -98.704 48.089 -82.375 -99.1634 48.2237 -82.051 -99.5882 48.4473 
-82.241 -98.0731 47.5208 -81.9934 -98.6358 47.5975 -81.8448 -99.3026 47.5605 
-81.4848 -99.7123 47.7727 -81.9331 -97.4874 46.6021 -81.6142 -97.9141 46.8876 
-81.4667 -98.6783 46.9708 -81.2783 -99.4773 46.8722 -80.8013 -99.804 47.2346 
-81.9184 -97.1967 45.5505 -81.4806 -97.4354 45.9248 -81.0256 -97.8216 46.4182 
-80.7673 -98.6229 46.4886 -80.4449 -99.3979 46.5151 -79.971 -99.6954 47.0527 
-81.631 -96.6903 45.0551 -81.3207 -97.1095 45.2008 -80.7765 -97.3315 45.7198 
-80.2665 -97.6958 46.1501 -79.927 -98.4631 46.1888 -79.6069 -99.2342 46.3302 
-79.2295 -99.574 46.8801 -80.8718 -95.776 45.0095 -80.6386 -96.353 45.0306 
-80.3657 -96.8602 45.2463 -79.9324 -97.2113 45.6821 -79.4781 -97.6746 45.9434 
-79.1703 -98.5025 45.8982 -78.9204 -99.2778 46.0082 -78.6189 -99.5981 46.5221 
-80.2303 -95.0281 44.7998 -79.8393 -95.49 44.9273 -79.7104 -96.1119 44.9753 
-79.5651 -96.7454 45.1747 -79.1658 -97.2294 45.5549 -78.758 -97.8357 45.6949 
-78.5164 -98.7236 45.5418 -78.2945 -99.4283 45.6353 -78.025 -99.6709 46.1931 
-80.1998 -94.6021 44.173 -79.5577 -94.9447 44.4633 -79.6374 -94.6578 43.7819 
-79.0842 -95.16 44.0551 -78.8557 -94.6344 43.6277 -79.2239 -95.4398 44.5883 
-78.475 -95.4261 43.7267 -77.8126 -94.502 43.5896 -78.884 -95.8026 43.9991 
-79.187 -96.143 44.5599 -77.4279 -95.4976 43.4974 -76.7075 -94.4261 43.4493 
-78.1785 -96.2274 43.469 -78.6453 -96.4769 43.916 -78.9132 -96.81 44.8242 
-76.2781 -95.3126 43.4275 -75.7985 -94.3877 43.4548 -76.9443 -96.2856 43.3255 
-77.6056 -96.7266 43.5564 -78.0682 -96.9233 44.4334 -78.401 -97.3232 45.3064 
-75.5955 -95.0514 43.7759 -75.307 -94.3892 43.9957 -75.9324 -95.9752 43.6302 
-76.4412 -96.6564 43.7757 -77.086 -96.9393 44.3899 -77.6292 -97.3663 45.0722 
-78.0687 -98.0781 45.3758 -75.3564 -95.0488 44.5427 -75.082 -94.5557 44.8415 
-75.5328 -95.7314 44.2652 -75.7518 -96.4441 44.3229 -76.284 -96.931 44.7237 
-76.9332 -97.4342 45.0693 -77.4123 -98.239 45.148 -77.8401 -99.0173 45.2303 
-74.9993 -95.292 45.2867 -74.6578 -94.7884 45.4696 -75.2632 -95.8109 45.017 
-75.4115 -96.3545 44.9534 -75.7173 -96.9145 45.185 -76.2547 -97.5559 45.3118 
-76.7103 -98.3642 45.1992 -77.0746 -99.135 45.1957 -77.5427 -99.5679 45.5466 
-74.2707 -95.4702 45.7128 -73.9382 -94.9107 45.7838 -74.6616 -96.0006 45.6062 
-74.9643 -96.4381 45.5554 -75.2304 -96.8962 45.67 -75.6185 -97.5633 45.6984 
-76.0002 -98.4015 45.5015 -76.2849 -99.1285 45.4388 -76.6979 -99.5463 45.7429 
-77.2736 -99.6983 46.2842 -80.8547 -94.3202 44.1893 -80.411 -94.2816 43.6372 
-80.7329 -94.0353 43.9641 -80.14 -93.88 43.5411 -80.157 -93.8076 44.2648 
-79.611 -94.1029 43.3721 -79.3874 -93.5796 44.1008 -79.4928 -93.6252 44.9646 
-79.0711 -93.4917 43.4917 -78.4218 -93.737 43.4311 -78.7797 -93.2878 44.9719 
-79.1458 -93.3201 45.66 -78.3886 -93.223 44.2323 -77.8823 -93.1637 43.6594 
-77.2574 -93.5668 43.4698 -78.5092 -92.6538 45.7087 -78.9308 -92.9188 46.2599 
-78.003 -92.7639 45.2126 -77.5479 -92.9943 44.5036 -76.9725 -93.2317 43.7667 
-76.2732 -93.724 43.3969 -78.2275 -92.1779 46.2549 -78.62 -92.7751 46.9478 
-77.741 -91.8903 45.9066 -77.3064 -92.3138 45.5102 -76.8273 -92.9698 44.7159 
-76.0913 -93.4607 43.8872 -75.4673 -93.892 43.6689 -77.912 -92.4689 46.8378 
-78.3438 -92.9368 47.7702 -77.4586 -91.7346 46.2775 -77.0214 -91.6018 46.0361 
-76.5955 -92.3097 45.6384 -75.9843 -93.105 44.8758 -75.3234 -93.5995 44.3279 
-75.0386 -94.0164 44.4393 -77.6975 -93.0327 47.6511 -78.1756 -93.0844 48.6549 
-77.249 -92.4839 46.8176 -76.8094 -91.9336 46.3622 -76.3614 -92.1227 46.1357 
-75.8561 -92.8068 45.7571 -75.2895 -93.3381 45.2431 -74.8866 -93.7117 45.0446 
-74.7374 -94.1858 45.232 -77.5104 -93.2226 48.6709 -78.0122 -93.0536 49.5498 
-77.0507 -93.0892 47.7948 -76.6314 -92.7071 47.1312 -76.1839 -92.6115 46.7505 
[...]
CELL_DATA 2000
SCALARS Distance double
LOOKUP_TABLE default
139.792 139.978 139.72 139.326 140.094 139.887 139.513 139.209 138.791 
140.23 140.029 139.698 139.389 138.944 138.649 138.232 140.318 140.186 
139.841 139.553 139.046 138.746 138.252 138.033 137.569 140.021 140.103 
139.718 139.587 139.023 138.769 138.2 137.982 137.477 137.284 136.768 
139.441 139.592 139.223 139.267 138.756 138.643 138.089 137.899 137.385 
137.18 136.669 136.451 135.956 139.116 139.091 138.774 138.755 138.344 
138.301 137.837 137.739 137.25 137.085 136.568 136.356 135.843 135.661 
135.238 139.103 138.97 138.671 138.5 138.102 137.966 137.535 137.449 
136.999 136.899 136.407 136.241 135.731 135.545 135.104 134.979 134.641 
139.04 138.973 138.644 138.476 138.026 137.825 137.359 137.206 136.782 
136.661 136.244 136.09 135.655 135.462 135.055 134.883 134.554 134.437 
134.163 140.1 140.607 140.34 140.29 141.096 140.819 140.699 140.437 
140.332 141.531 141.273 141.096 140.798 140.623 140.419 140.382 141.814 
141.645 141.517 141.225 141.021 140.716 140.613 140.483 140.462 141.908 
141.828 141.768 141.626 141.458 141.144 140.897 140.671 140.511 140.433 
140.207 141.887 141.834 141.734 141.748 141.589 141.441 141.066 140.836 
140.461 140.363 140.067 139.99 139.653 141.808 141.763 141.607 141.63 
141.46 141.405 141.044 140.853 140.437 140.276 139.985 139.875 139.655 
139.51 139.323 141.702 141.683 141.576 141.544 141.426 141.318 141.1 
140.88 140.644 140.392 140.239 139.994 139.879 139.651 139.548 139.366 
139.291 141.597 141.624 141.625 141.595 141.573 141.435 141.346 141.118 
141.05 140.795 140.765 140.461 140.362 140.024 139.861 139.614 139.482 
139.341 139.221 141.531 141.538 141.597 141.664 141.435 141.609 141.723 
141.719 141.657 141.081 141.404 141.557 141.702 141.668 141.627 141.454 
140.471 140.905 141.038 141.368 141.37 141.526 141.431 141.4 141.224 
139.671 140.154 140.207 140.658 140.613 140.996 140.927 141.207 141.118 
141.167 140.962 138.837 139.283 139.284 139.726 139.634 140.071 139.964 
140.437 140.37 140.771 140.621 140.763 140.467 138.081 138.466 138.46 
138.833 138.776 139.136 139.092 139.483 139.485 139.898 139.848 140.169 
139.975 140.13 139.862 137.363 137.724 137.704 138.055 138.023 138.371 
138.408 138.768 138.881 139.207 139.272 139.5 139.428 139.582 139.437 
139.562 139.429 136.669 137 136.962 137.305 137.268 137.635 137.662 
138.087 138.201 138.635 138.729 139.041 139 139.16 139.036 139.159 
139.063 139.208 139.139 138.89 138.796 138.691 138.326 138.741 138.597 
138.235 138.068 137.625 138.642 138.506 138.06 137.933 137.489 137.348 
136.857 138.317 138.27 137.702 137.628 137.097 137.086 136.588 136.501 
135.922 137.795 137.818 137.254 137.185 136.608 136.594 136.08 136.086 
135.531 135.455 134.903 137.273 137.292 136.84 136.78 136.288 136.184 
135.685 135.596 135.064 134.994 134.485 134.471 134.092 136.862 136.84 
136.439 136.42 136.006 135.933 135.454 135.309 134.756 134.601 134.072 
134.027 133.627 133.705 133.358 136.555 136.492 136.084 136.054 135.645 
135.615 135.142 135.053 134.499 134.346 133.782 133.663 133.193 133.201 
132.807 132.885 132.449 136.299 136.222 135.831 135.756 135.359 135.278 
134.829 134.723 134.22 134.085 133.567 133.417 132.919 132.814 132.374 
132.358 131.956 131.97 131.568 138.828 138.205 138.509 138.392 137.442 
137.765 137.621 137.944 137.747 136.657 136.965 136.793 137.125 136.977 
137.275 137.089 135.736 136.114 135.935 136.305 136.215 136.555 136.458 
136.693 136.54 134.789 135.154 134.985 135.387 135.314 135.772 135.749 
136.095 135.972 136.181 136.007 134.091 134.356 134.232 134.496 134.373 
134.789 134.745 135.248 135.167 135.546 135.362 135.614 135.417 133.373 
133.72 133.613 133.86 133.681 133.932 133.777 134.175 134.086 134.576 
134.478 134.885 134.732 135.011 134.843 132.382 132.833 132.661 133.094 
132.901 133.242 133.043 133.328 133.178 133.538 133.489 133.938 133.919 
134.305 134.223 134.482 134.365 131.448 131.783 131.57 131.997 131.84 
132.312 132.208 132.598 132.483 132.779 132.7 133.049 133.071 133.491 
133.517 133.864 133.808 134.05 133.965 131.01 130.495 130.818 131.044 
130.082 130.391 130.587 130.916 131.286 129.562 130.028 130.357 130.607 
130.922 131.272 131.722 128.846 129.471 129.951 130.37 130.681 130.982 
131.325 131.715 132.086 128.124 128.722 129.209 129.813 130.155 130.603 
130.858 131.279 131.593 132.011 132.329 127.743 128.096 128.531 129.048 
129.449 129.953 130.259 130.717 131.049 131.504 131.893 132.3 132.692 
127.843 127.942 128.346 128.583 129.017 129.367 129.794 130.182 130.616 
131.024 131.493 131.907 132.371 132.75 133.155 128.062 128.153 128.517 
128.61 128.989 129.16 129.592 129.877 130.361 130.711 131.2 131.574 
132.035 132.419 132.817 133.175 133.481 127.993 128.232 128.546 128.74 
129.046 129.202 129.539 129.758 130.182 130.5 130.958 131.309 131.718 
132.071 132.423 132.786 133.087 133.425 133.666 130.899 130.579 130.629 
130.417 130.161 130.256 129.978 130.089 129.857 129.761 129.793 129.41 
129.5 129.105 129.351 129.11 129.506 129.438 129.035 128.975 128.521 
128.562 128.212 128.513 128.34 129.256 129.162 128.747 128.688 128.316 
128.21 127.875 127.837 127.622 127.823 127.732 129.067 128.869 128.343 
128.314 127.968 128.029 127.785 127.738 127.489 127.411 127.263 127.382 
127.422 129.211 128.825 128.264 127.981 127.575 127.591 127.43 127.563 
127.416 127.39 127.2 127.151 127.143 127.295 127.517 129.593 129.172 
128.731 128.208 127.803 127.454 127.31 127.271 127.294 127.306 127.25 
127.17 127.122 127.145 127.279 127.499 127.734 129.908 129.605 129.278 
128.823 128.471 127.973 127.784 127.471 127.514 127.377 127.442 127.302 
127.274 127.173 127.183 127.266 127.36 127.608 127.697 136.034 135.511 
135.713 135.586 134.931 135.174 135.041 135.251 135.1 134.202 134.51 
134.354 134.642 134.456 134.703 134.513 133.396 133.698 133.487 133.836 
133.639 133.971 133.76 134.055 133.868 132.642 132.893 132.635 132.928 
132.704 133.066 132.883 133.244 133.062 133.391 133.225 131.898 132.15 
131.897 132.132 131.876 132.155 131.949 132.314 132.141 132.528 132.349 
132.717 132.562 131.172 131.4 131.164 131.409 131.166 131.398 131.152 
131.424 131.212 131.564 131.386 131.784 131.638 132.048 131.964 130.603 
130.736 130.479 130.677 130.432 130.675 130.437 130.682 130.459 130.717 
130.55 130.867 130.78 131.153 131.124 131.525 131.533 130.197 130.257 
129.955 130.044 129.719 129.909 129.643 129.928 129.739 130.025 129.885 
130.152 130.096 130.407 130.44 130.784 130.828 131.176 131.197 136.219 
136.299 136.066 135.68 136.371 136.138 135.734 135.51 135.098 136.432 
136.203 135.787 135.552 135.105 134.876 134.401 136.446 136.241 135.811 
135.585 135.115 134.87 134.372 134.131 133.631 136.389 136.217 135.789 
135.587 135.119 134.872 134.358 134.102 133.593 133.361 132.876 136.277 
136.123 135.706 135.544 135.108 134.885 134.382 134.102 133.573 133.32 
132.816 132.603 132.118 136.159 135.994 135.563 135.429 135.016 134.858 
134.384 134.131 133.588 133.309 132.786 132.546 132.061 131.846 131.397 
136.051 135.871 135.409 135.265 134.847 134.732 134.291 134.102 133.569 
133.307 132.77 132.527 132.053 131.827 131.402 131.188 130.829 135.945 
135.76 135.288 135.117 134.694 134.568 134.168 134.007 133.526 133.278 
132.75 132.503 132.035 131.829 131.42 131.22 130.863 130.686 130.4 
135.744 135.244 135.343 135.072 134.806 134.858 134.574 134.689 134.482 
134.396 134.448 134.154 134.228 134 134.138 133.95 133.87 133.999 
133.673 133.776 133.473 133.623 133.354 133.543 133.281 133.257 133.413 
133.049 133.18 132.778 132.969 132.617 132.853 132.532 132.771 132.489 
132.736 132.836 132.483 132.539 132.1 132.208 131.827 132.045 131.743 
131.993 131.732 131.988 131.782 132.285 132.366 132.049 132.067 131.674 
131.651 131.287 131.355 131.088 131.258 131.034 131.258 131.067 131.335 
131.181 131.783 131.885 131.563 131.646 131.303 131.313 130.966 130.963 
130.673 130.729 130.477 130.611 130.392 130.625 130.475 130.763 130.645 
131.28 131.357 131.018 131.123 130.794 130.89 130.56 130.627 130.308 
130.358 130.046 130.108 129.829 129.979 129.807 130.072 129.998 130.284 
130.216 130.923 130.296 130.607 130.626 129.565 129.935 129.921 130.3 
130.364 128.74 129.144 129.163 129.57 129.631 130.046 130.146 128.169 
128.406 128.502 128.855 128.968 129.338 129.444 129.838 129.933 127.997 
128.044 128.113 128.334 128.476 128.758 128.852 129.169 129.24 129.611 
129.673 127.792 127.88 127.827 128.013 128.097 128.338 128.418 128.65 
128.688 128.961 129.018 129.36 129.453 127.395 127.534 127.45 127.656 
127.705 127.96 128.058 128.275 128.333 128.514 128.582 128.813 128.956 
129.253 129.458 127.223 127.211 127.186 127.286 127.355 127.568 127.691 
127.926 128 128.19 128.239 128.45 128.594 128.868 129.115 129.407 
129.683 127.477 127.28 127.252 127.17 127.196 127.281 127.368 127.566 
127.611 127.81 127.778 128.017 128.067 128.432 128.648 129.056 129.333 
129.669 129.915 131.002 130.948 130.783 130.393 130.941 130.734 130.329 
130.153 129.686 131.125 130.788 130.36 130.107 129.605 129.36 128.835 
131.566 131.092 130.626 130.231 129.731 129.357 128.842 128.565 128.232 
132.073 131.582 131.069 130.587 130.075 129.614 129.164 128.765 128.491 
128.235 128.125 132.478 132.039 131.505 131.026 130.482 130.013 129.581 
129.193 128.944 128.641 128.47 128.21 127.994 132.823 132.411 131.92 
131.453 130.941 130.448 130.01 129.611 129.329 129.049 128.792 128.516 
128.161 127.899 127.558 133.155 132.77 132.346 131.907 131.483 130.983 
130.576 130.096 129.775 129.406 129.115 128.78 128.403 128.059 127.708 
127.469 127.318 133.456 133.111 132.73 132.351 131.983 131.553 131.179 
130.702 130.35 129.903 129.599 129.179 128.868 128.426 128.156 127.781 
127.704 127.48 127.582 131.42 132.13 131.637 131.384 132.901 132.407 
132.16 131.63 131.401 133.613 133.168 133.006 132.491 132.301 131.74 
131.617 134.403 133.9 133.804 133.355 133.292 132.753 132.669 132.094 
132.077 135.403 134.811 134.727 134.224 134.249 133.766 133.761 133.204 
133.158 132.606 132.586 136.405 135.862 135.797 135.254 135.272 134.77 
134.795 134.269 134.223 133.67 133.597 133.065 132.991 137.297 136.827 
136.781 136.293 136.274 135.796 135.786 135.287 135.234 134.696 134.603 
134.058 133.955 133.421 133.319 138.16 137.726 137.703 137.229 137.186 
136.719 136.671 136.216 136.143 135.659 135.543 135.025 134.889 134.364 
134.231 133.72 133.61 138.938 138.587 138.618 138.168 138.14 137.632 
137.563 137.068 136.981 136.511 136.385 135.9 135.729 135.236 135.065 
134.585 134.442 133.978 133.869 139.339 139.882 139.46 139.09 140.347 
139.981 139.619 139.151 138.651 140.681 140.366 140.005 139.624 139.125 
138.621 138.041 140.928 140.631 140.219 139.907 139.419 139.018 138.422 
137.95 137.386 140.97 140.782 140.284 140.017 139.487 139.201 138.638 
138.26 137.658 137.256 136.725 140.639 140.64 140.132 139.963 139.387 
139.178 138.65 138.396 137.83 137.47 136.878 136.535 136.024 140.151 
140.207 139.803 139.726 139.204 139.033 138.531 138.357 137.87 137.598 
137.023 136.664 136.101 135.804 135.339 139.841 139.809 139.501 139.439 
139.03 138.871 138.395 138.227 137.77 137.588 137.081 136.789 136.228 
135.899 135.404 135.141 134.724 139.719 139.615 139.309 139.229 138.879 
138.743 138.299 138.111 137.635 137.463 136.992 136.793 136.285 136.013 
135.51 135.23 134.79 134.548 134.157 139.563 139.086 139.251 139.102 
138.548 138.726 138.565 138.776 138.634 138.014 138.188 137.998 138.197 
138.02 138.246 138.047 137.361 137.606 137.383 137.601 137.37 137.59 
137.35 137.581 137.358 136.533 136.841 136.586 136.884 136.628 136.896 
136.63 136.865 136.614 136.875 136.682 135.74 136 135.747 136.026 
135.78 136.084 135.844 136.122 135.865 136.123 135.894 136.192 135.995 
135.093 135.299 135.089 135.277 135.037 135.262 135.03 135.308 135.069 
135.348 135.096 135.385 135.162 135.474 135.262 134.519 134.712 134.524 
134.694 134.438 134.594 134.313 134.525 134.266 134.532 134.277 134.562 
134.322 134.633 134.427 134.744 134.552 134.006 134.158 133.94 134.113 
133.837 133.992 133.677 133.842 133.555 133.766 133.515 133.759 133.525 
133.802 133.604 133.918 133.754 134.071 133.918 133.486 133.303 133.189 
132.778 133.135 132.998 132.578 132.473 132.057 133.047 132.855 132.402 
132.263 131.829 131.728 131.28 133.054 132.819 132.358 132.133 131.656 
131.491 131.035 130.924 130.47 133.112 132.862 132.443 132.173 131.705 
131.413 130.935 130.722 130.29 130.149 129.724 133.222 132.944 132.547 
132.296 131.893 131.572 131.107 130.762 130.324 130.066 129.657 129.456 
129.02 133.379 133.078 132.661 132.408 132.042 131.778 131.362 131.011 
130.562 130.219 129.82 129.517 129.111 128.814 128.393 133.536 133.25 
132.842 132.554 132.195 131.936 131.568 131.259 130.825 130.479 130.075 
129.759 129.419 129.074 128.731 128.346 128.032 133.681 133.429 133.077 
132.776 132.424 132.13 131.777 131.473 131.064 130.725 130.302 129.997 
129.658 129.395 129.12 128.8 128.533 128.149 127.924 141.625 141.854 
141.804 141.932 142.062 142.089 142.292 142.184 142.212 142.142 142.272 
142.504 142.497 142.461 142.284 142.061 142.079 142.26 142.46 142.574 
142.498 142.391 142.093 141.939 141.677 141.924 142.109 142.239 142.409 
142.348 142.323 142.074 141.95 141.774 141.654 141.507 141.615 141.839 
141.899 142.114 142.088 142.152 142.006 141.953 141.875 141.819 141.759 
141.567 141.288 141.118 141.38 141.374 141.67 141.691 141.894 141.85 
141.898 141.829 141.859 141.781 141.737 141.451 141.195 140.711 140.558 
140.792 140.726 141.046 141.104 141.453 141.529 141.723 141.663 141.722 
141.557 141.586 141.3 141.209 140.764 140.523 140.064 140.039 140.23 
140.137 140.399 140.445 140.829 140.967 141.318 141.319 141.47 141.266 
141.294 141.005 140.982 140.638 140.511 140.122 139.915 139.555 141.513 
141.754 141.515 141.295 141.983 141.777 141.483 141.241 140.936 141.873 
141.867 141.57 141.392 141.005 140.791 140.426 141.545 141.619 141.39 
141.347 140.94 140.776 140.336 140.201 139.843 141.268 141.283 141.032 
141.064 140.689 140.607 140.13 140.023 139.617 139.572 139.231 140.894 
140.933 140.548 140.631 140.249 140.274 139.813 139.75 139.293 139.266 
138.891 138.901 138.54 140.321 140.41 139.979 140.078 139.695 139.784 
139.381 139.385 138.934 138.905 138.487 138.5 138.134 138.163 137.807 
139.764 139.832 139.481 139.539 139.206 139.264 138.911 138.939 138.542 
138.532 138.133 138.117 137.755 137.759 137.428 137.447 137.121 139.305 
139.365 139.071 139.12 138.81 138.839 138.475 138.489 138.096 138.121 
137.762 137.783 137.46 137.448 137.134 137.109 136.792 136.785 136.462 
141.439 141.169 141.314 141.347 140.772 140.951 140.909 141.159 141.176 
140.282 140.483 140.382 140.629 140.584 140.88 140.816 139.744 139.957 
139.836 140.06 139.973 140.249 140.17 140.44 140.271 139.151 139.393 
139.245 139.476 139.359 139.632 139.541 139.803 139.632 139.83 139.548 
138.473 138.753 138.579 138.829 138.668 138.967 138.857 139.158 138.981 
139.193 138.905 139.061 138.739 137.759 138.048 137.886 138.136 137.955 
138.237 138.103 138.425 138.258 138.513 138.234 138.414 138.103 138.271 
137.984 137.07 137.347 137.202 137.452 137.279 137.532 137.38 137.669 
137.512 137.779 137.542 137.742 137.456 137.636 137.367 137.547 137.283 
136.388 136.66 136.508 136.772 136.603 136.859 136.698 136.965 136.81 
137.067 136.875 137.083 136.845 137.017 136.772 136.942 136.703 136.864 
136.614 131.597 132.095 131.986 132.302 132.556 132.468 132.77 132.714 
133.036 132.979 132.88 133.156 133.134 133.48 133.438 133.748 133.505 
133.327 133.581 133.508 133.907 133.901 134.332 134.221 134.589 134.149 
133.941 134.197 134.015 134.405 134.37 134.897 134.866 135.343 135.178 
135.583 134.732 134.614 134.935 134.727 135.069 134.93 135.39 135.392 
135.893 135.874 136.286 136.16 136.523 135.188 135.166 135.579 135.466 
135.823 135.634 135.979 135.873 136.292 136.309 136.75 136.746 137.131 
137.034 137.385 135.618 135.613 136.053 136.041 136.434 136.329 136.638 
136.476 136.806 136.727 137.162 137.169 137.624 137.591 137.979 137.871 
138.217 136.074 136.047 136.441 136.452 136.827 136.821 137.14 137.062 
137.361 137.267 137.643 137.617 138.056 138.057 138.446 138.402 138.718 
138.641 138.934 
POINT_DATA 1002
SCALARS Distance double
LOOKUP_TABLE default
139.436 139.852 140.089 139.636 140.209 138.906 139.817 140.259 139.087 
138.382 140.014 140.418 139.266 138.481 137.835 140.128 140.409 139.382 
138.492 137.782 137.092 139.773 139.885 139.254 138.435 137.673 136.978 
136.237 139.12 139.319 138.776 138.24 137.591 136.891 136.14 135.492 
138.835 139.195 138.368 137.888 137.385 136.775 136.039 135.352 134.873 
138.884 139.232 138.297 137.643 137.076 136.537 135.91 135.246 134.715 
134.336 138.803 139.085 138.246 137.536 136.9 136.372 135.826 135.232 
134.689 134.26 133.893 140.36 140.573 140.89 140.997 141.403 140.53 
141.422 141.771 140.869 140.471 141.745 141.93 141.386 140.809 140.561 
141.811 141.986 141.75 141.239 140.645 140.331 141.709 141.969 141.684 
141.336 140.626 140.116 139.756 141.615 141.842 141.501 141.197 140.601 
140.088 139.754 139.458 141.595 141.669 141.52 141.259 140.845 140.489 
140.142 139.743 139.448 141.609 141.514 141.673 141.528 141.253 141.053 
140.755 140.191 139.653 139.347 141.471 141.713 141.43 141.685 141.19 
141.773 141.338 140.716 141.651 141.582 140.663 140.037 141.116 141.346 
141.368 139.764 139.215 140.197 140.53 140.909 141.08 138.872 138.425 
139.22 139.491 139.877 140.327 140.457 138.102 137.717 138.408 138.702 
139.087 139.495 139.726 139.744 137.356 137.018 137.657 138.006 138.518 
139.042 139.282 139.278 139.291 136.627 136.362 136.905 137.245 137.738 
138.347 138.8 138.921 138.911 138.988 138.597 138.489 137.893 138.393 
137.824 137.159 138.207 137.583 137.062 136.35 137.805 137.096 136.614 
136.09 135.327 137.302 136.657 136.072 135.556 134.949 134.436 136.837 
136.382 135.825 135.159 134.478 134.032 133.809 136.439 136.043 135.593 
134.944 134.167 133.572 133.277 132.988 136.133 135.682 135.211 134.624 
133.93 133.253 132.754 132.39 131.97 135.908 135.453 134.943 134.335 
133.705 133.069 132.437 131.93 131.55 131.184 138.128 137.276 137.459 
136.461 136.641 136.832 135.53 135.813 136.193 136.349 134.606 134.819 
135.311 135.745 135.825 134.029 134.064 134.238 134.688 135.071 135.193 
133.324 133.487 133.495 133.601 133.97 134.393 134.61 132.189 132.471 
132.746 132.889 133.045 133.453 133.913 134.149 131.191 131.331 131.719 
132.159 132.403 132.652 133.11 133.531 133.744 130.655 130.61 130.222 
130.343 129.681 130.809 130.06 128.945 130.67 131.287 129.411 128.184 
130.383 130.991 131.699 128.572 127.619 129.647 130.438 131.149 131.934 
128.096 127.515 128.926 129.775 130.568 131.432 132.316 128.217 127.798 
128.727 129.401 130.207 131.074 131.974 132.826 128.447 127.943 128.888 
129.353 130.024 130.853 131.676 132.458 133.169 128.308 127.729 128.886 
129.366 129.898 130.625 131.398 132.081 132.733 133.362 130.858 130.375 
130.505 129.889 130.09 129.67 129.402 129.793 128.941 128.704 129.122 
129.606 128.584 128.041 127.893 128.761 129.401 128.36 128.006 127.58 
127.395 128.446 129.357 127.823 127.723 127.63 127.262 127.133 128.673 
129.604 127.674 127.23 127.34 127.282 127.061 127.238 129.242 129.934 
128.279 127.458 127.244 127.301 127.17 127.137 127.463 129.643 130.15 
128.951 128.185 127.712 127.588 127.438 127.215 127.199 127.42 135.834 
135.398 135.303 134.822 134.669 134.904 134.04 133.899 134.202 134.264 
133.156 133.134 133.269 133.449 133.567 132.391 132.403 132.361 132.483 
132.718 132.903 131.657 131.637 131.646 131.623 131.742 131.964 132.182 
130.909 130.971 130.928 130.928 130.908 130.988 131.208 131.525 130.331 
130.51 130.199 130.173 130.212 130.258 130.407 130.727 131.12 136.461 
135.904 136.535 135.975 136.605 135.324 136.031 136.66 135.357 134.636 
136.034 136.645 135.369 134.62 133.86 135.973 136.549 135.36 134.629 
133.828 133.092 135.847 136.435 135.3 134.666 133.851 133.042 132.316 
135.701 136.341 135.141 134.61 133.878 133.035 132.282 131.585 135.572 
136.239 134.956 134.446 133.82 133.011 132.265 131.615 131.008 135.469 
136.127 134.824 134.303 133.756 133.005 132.235 131.608 131.04 130.542 