# vtk DataFile Version 4.0
vtk output
ASCII
DATASET POLYDATA
POINTS 1002 float
-80.3228 -103.657 57.6599 -80.39 -103.682 58.4476 -80.9256 -103.686 58.0179 
-80.9414 -103.526 57.3936 -81.3849 -103.458 57.7269 -80.251 -103.248 57.09 
-81.4994 -103.135 57.1355 -81.8899 -103.088 57.4276 -80.9052 -103.01 56.7937 
-80.2623 -102.868 56.2809 -82.0368 -102.787 56.5927 -82.6068 -102.837 56.9665 
-81.5059 -102.746 56.2381 -80.9064 -102.787 55.7267 -80.2843 -102.794 55.1393 
-82.7226 -102.73 55.8361 -83.394 -102.787 56.3919 -82.0654 -102.666 55.4257 
-81.4939 -102.713 55.0046 -80.8559 -102.742 54.5596 -80.1928 -102.545 54.1826 
-83.4655 -102.723 55.1763 -83.9673 -102.665 55.8258 -82.7314 -102.628 54.7732 
-82.0059 -102.476 54.512 -81.3439 -102.379 54.1689 -80.7352 -102.295 53.7669 
-80.1505 -102.147 53.3507 -83.955 -102.363 54.7631 -84.2429 -102.209 55.3962 
-83.3681 -102.312 54.4042 -82.5166 -102.014 54.333 -81.6868 -101.71 54.1115 
-81.1377 -101.73 53.5657 -80.7542 -101.951 52.9087 -80.2282 -102.038 52.3885 
-84.1046 -101.659 54.6181 -84.3333 -101.515 55.1722 -83.6947 -101.67 54.2217 
-82.9596 -101.471 54.1174 -82.0443 -101.169 53.9581 -81.3856 -101.147 53.4246 
-81.0918 -101.52 52.6577 -80.7522 -101.832 52.0264 -80.1279 -101.774 51.7359 
-84.1605 -100.946 54.564 -84.4354 -100.857 55.0194 -83.7869 -100.964 54.138 
-83.2399 -100.927 53.8499 -82.5028 -100.859 53.5511 -81.7857 -100.846 53.0868 
-81.3185 -101.027 52.5009 -80.9547 -101.258 51.9454 -80.428 -101.248 51.6201 
-79.7682 -101.013 51.5439 -84.3452 -100.431 54.3601 -84.6516 -100.369 54.78 
-83.9456 -100.443 53.9324 -83.4777 -100.46 53.5607 -82.9439 -100.548 53.1546 
-82.3407 -100.626 52.6963 -81.733 -100.621 52.3151 -81.162 -100.589 51.9749 
-80.5784 -100.511 51.6499 -79.9753 -100.368 51.4536 -79.4243 -100.254 51.359 
-80.7007 -103.489 59.1555 -81.0516 -103.341 58.6532 -80.8058 -103.262 59.8612 
-81.0123 -102.914 59.3824 -80.9128 -103.283 60.3985 -81.4327 -103.131 58.2536 
-81.2631 -102.809 60.0195 -81.2527 -103.409 60.8801 -81.5464 -102.757 58.9033 
-82.1513 -102.926 57.8998 -81.7701 -102.886 60.4761 -81.5599 -103.32 61.3702 
-81.9543 -102.599 59.4181 -82.4511 -102.674 58.4173 -83.0751 -102.789 57.5009 
-82.0423 -102.775 60.8582 -81.7138 -103.096 61.8012 -82.3129 -102.451 59.7436 
-82.6703 -102.355 58.7474 -83.2771 -102.526 57.9526 -83.7873 -102.679 57.0086 
-82.2717 -102.546 61.3446 -82.0561 -102.852 62.1961 -82.5531 -102.232 60.2385 
-82.8868 -102.038 59.1464 -83.3773 -102.126 58.2833 -83.9217 -102.348 57.4517 
-84.2166 -102.403 56.4292 -82.6963 -102.256 61.778 -82.4709 -102.418 62.4136 
-83.0016 -102.11 60.9113 -83.3806 -101.982 59.909 -83.7929 -101.935 58.9047 
-84.2042 -102.011 57.8751 -84.4428 -102.026 56.8456 -84.4466 -101.844 55.9187 
-82.9223 -101.747 61.8599 -82.5861 -101.752 62.2934 -83.3914 -101.873 61.2975 
-83.902 -102.006 60.579 -84.3032 -101.976 59.6959 -84.5976 -101.843 58.5598 
-84.7516 -101.692 57.312 -84.7017 -101.461 56.2972 -84.5647 -101.159 55.5867 
-82.86 -101.092 61.7112 -82.5293 -101.055 62.0488 -83.4231 -101.343 61.3306 
-84.0603 -101.677 60.8184 -84.4862 -101.788 60.1262 -84.7154 -101.614 59.1745 
-84.8875 -101.368 57.9655 -84.9237 -101.12 56.7912 -84.8274 -100.836 55.9332 
-84.7335 -100.571 55.3304 -82.7834 -100.456 61.7774 -83.2186 -100.631 61.4276 
-83.3704 -100.092 61.735 -83.8421 -100.313 61.2641 -84.0293 -99.8674 61.5497 
-83.8872 -100.973 60.9883 -84.3932 -99.9444 60.8882 -84.3358 -99.4376 60.9248 
-84.3631 -100.483 60.6091 -84.4108 -101.196 60.3302 -84.6042 -99.3173 60.1646 
-84.4362 -98.6809 60.1808 -84.6932 -99.8721 59.9986 -84.6476 -100.427 59.6825 
-84.6386 -101.096 59.4661 -84.6893 -98.5381 59.365 -84.6113 -97.9547 59.5847 
-84.8334 -99.2217 59.1757 -84.9739 -99.7643 58.9672 -84.9133 -100.281 58.7478 
-84.862 -100.877 58.4564 -84.7913 -97.911 58.626 -84.6311 -97.5232 58.9122 
-84.8923 -98.5388 58.3556 -85.1825 -99.2164 58.2553 -85.4058 -99.7668 58.1729 
-85.2833 -100.247 57.8705 -85.0738 -100.713 57.3297 -84.7976 -97.4733 57.9206 
-84.3816 -97.2308 58.1138 -85.0375 -97.8655 57.6866 -85.2252 -98.4467 57.578 
-85.5338 -99.1532 57.5368 -85.6717 -99.7706 57.2981 -85.4366 -100.187 56.7964 
-85.0959 -100.504 56.2711 -84.6724 -97.0876 57.2857 -84.0954 -96.9357 57.3818 
-85.204 -97.2827 57.1563 -85.4323 -97.577 56.9999 -85.4843 -98.161 56.7826 
-85.6078 -98.9738 56.4582 -85.626 -99.6265 56.0628 -85.3849 -99.9857 55.7017 
-85.042 -100.255 55.4641 -84.4333 -96.7613 56.6988 -83.8814 -96.6871 56.7531 
-85.0977 -96.8647 56.6265 -85.5666 -96.9706 56.4515 -85.6241 -97.2585 56.0894 
-85.5276 -97.9442 55.6021 -85.5359 -98.7979 55.205 -85.5086 -99.4129 54.9924 
-85.3069 -99.7736 54.8866 -84.9883 -100.069 54.8275 -84.7443 -100.036 54.149 
-85.0849 -99.7146 54.1898 -84.727 -99.6899 53.3858 -85.3067 -99.3099 54.281 
-84.9291 -99.2535 53.5525 -84.5182 -99.1686 52.7211 -85.3983 -98.7324 54.3512 
-85.0446 -98.669 53.7766 -84.5832 -98.559 52.9714 -84.219 -98.3988 52.2538 
-85.4427 -97.9184 54.5035 -85.1748 -97.9411 53.8572 -84.7409 -97.869 53.1573 
-84.3624 -97.7338 52.2629 -83.9296 -97.6071 51.8115 -85.5205 -97.1598 54.91 
-85.2234 -97.2367 53.9372 -84.8884 -97.204 53.196 -84.627 -97.091 52.2375 
-84.2541 -97.0468 51.5071 -83.5421 -97.0501 51.3729 -85.4752 -96.8 55.4267 
-85.0251 -96.858 54.2117 -84.655 -96.793 53.2578 -84.599 -96.5099 52.3817 
-84.4846 -96.4136 51.5232 -83.8769 -96.5316 51.1473 -82.9839 -96.6206 51.128 
-85.0797 -96.6874 55.802 -84.6086 -96.7075 54.6132 -84.1363 -96.6492 53.4449 
-84.1445 -96.1762 52.6059 -84.3083 -95.7324 51.9167 -83.9856 -95.8064 51.3956 
-83.1812 -96.0436 51.1647 -82.4129 -96.1073 50.9816 -84.4719 -96.5808 55.9907 
-84.1588 -96.5069 54.9985 -83.7346 -96.4361 53.8194 -83.6987 -96.0157 52.8538 
-83.9415 -95.3288 52.2583 -83.8442 -95.0727 51.8272 -83.2227 -95.3482 51.4388 
-82.4822 -95.5628 51.0787 -81.9868 -95.5432 50.6679 -83.9316 -96.5074 56.0743 
-83.7937 -96.3288 55.2594 -83.5253 -96.1363 54.2792 -83.4473 -95.81 53.2883 
-83.6102 -95.2347 52.5558 -83.6044 -94.729 52.1247 -83.1593 -94.7375 51.7397 
-82.4928 -95.0275 51.25 -81.9657 -95.1254 50.7198 -81.6908 -95.0604 50.2017 
-84.3599 -100.08 53.6295 -84.337 -99.721 52.7936 -83.9009 -100.095 53.1859 
-84.1607 -99.1422 52.2275 -83.8761 -99.7421 52.4165 -83.4059 -100.171 52.8057 
-83.7579 -98.3126 52.0006 -83.584 -99.1173 52.0169 -83.2546 -99.7704 52.1377 
-82.8409 -100.267 52.3897 -83.206 -97.5761 51.7209 -82.9766 -98.3195 51.8139 
-82.741 -99.0816 51.7504 -82.4915 -99.6916 51.852 -82.1724 -100.2 52.0805 
-82.6561 -97.111 51.2787 -82.4297 -97.7467 51.3554 -82.2339 -98.4512 51.272 
-81.9976 -99.059 51.3095 -81.7547 -99.5421 51.5889 -81.4486 -100.017 51.8637 
-82.198 -96.6365 50.8818 -82.0766 -97.3318 50.7609 -82.0268 -98.0442 50.6115 
-81.859 -98.6985 50.5367 -81.5288 -99.2333 50.7262 -81.1138 -99.544 51.1628 
-80.7429 -99.8859 51.5289 -81.8731 -96.0067 50.4774 -81.7802 -96.7576 50.2469 
-81.7615 -97.5487 50.0646 -81.7345 -98.256 49.9373 -81.5268 -99.0223 49.8683 
-81.0801 -99.5557 50.1014 -80.517 -99.6564 50.6678 -80.1049 -99.8223 51.1946 
-81.6602 -95.4073 49.9749 -81.5538 -96.0978 49.74 -81.3876 -96.9168 49.6126 
-81.255 -97.5881 49.6134 -81.1489 -98.3516 49.5436 -80.9252 -99.2516 49.4777 
-80.4787 -99.7263 49.7727 -79.9376 -99.7347 50.3987 -79.5619 -99.8331 50.9951 
-81.4314 -94.8321 49.5764 -81.4117 -95.3623 49.2913 -81.0759 -94.8017 49.0522 
-81.0116 -95.5388 48.8044 -80.4501 -94.9114 48.7662 -81.1956 -96.1962 49.1398 
-80.3316 -95.7278 48.6721 -79.5417 -95.0194 48.6696 -80.7011 -96.3964 48.8445 
-80.8328 -96.9376 49.2493 -79.3395 -95.8079 48.7173 -78.5769 -95.2365 48.6855 
-80.0331 -96.5901 48.8145 -80.2262 -97.0802 49.0962 -80.52 -97.5541 49.4116 
-78.2292 -95.9827 48.7538 -77.7503 -95.6638 48.8273 -79.0602 -96.7854 48.7471 
-79.5872 -97.4539 48.89 -79.7807 -97.7686 49.2396 -80.3182 -98.4407 49.3911 
-77.2624 -96.3215 48.8229 -76.9812 -96.0644 48.9718 -77.9137 -97.0264 48.6799 
-78.7197 -97.8814 48.6033 -79.1054 -98.2248 48.9108 -79.4581 -98.594 49.3093 
-80.0764 -99.3326 49.4446 -76.4612 -96.6583 48.8505 -76.2234 -96.3176 48.9874 
-76.8794 -97.2742 48.7446 -77.6676 -98.1351 48.599 -78.346 -98.6291 48.6759 
-78.7117 -98.8453 49.0954 -79.1912 -99.3394 49.4751 -79.6836 -99.7416 49.8211 
-75.7988 -96.9715 48.8198 -75.6306 -96.578 49.0656 -76.0259 -97.5403 48.7286 
-76.5982 -98.2962 48.7349 -77.4011 -98.8896 48.7674 -77.9817 -99.1985 48.9222 
-78.4234 -99.5654 49.2546 -78.9071 -99.8747 49.7544 -79.2726 -99.8578 50.3962 
-75.3434 -97.2992 49.0005 -75.2783 -96.9011 49.4317 -75.4015 -97.8375 48.7101 
-75.689 -98.4972 48.6917 -76.3618 -99.1 48.8432 -77.1115 -99.5378 48.9476 
-77.6892 -99.9392 49.0589 -78.2068 -100.219 49.4732 -78.6585 -100.169 50.2233 
-79.0168 -100.05 50.9488 -81.4978 -94.6912 50.0925 -81.123 -94.4289 49.5493 
-81.2553 -94.2887 50.1802 -80.719 -94.0468 49.7343 -80.9945 -93.875 50.4965 
-80.571 -94.3122 49.1599 -80.2872 -93.776 50.058 -80.6334 -93.6919 50.9557 
-79.9751 -93.9011 49.3706 -79.7561 -94.3145 48.893 -79.7306 -93.7424 50.5683 
-80.0865 -93.7214 51.608 -79.4016 -93.7137 49.6569 -79.1318 -93.8909 49.0655 
-78.8789 -94.5089 48.7407 -79.0628 -93.7256 51.4039 -79.4708 -93.6759 52.4096 
-78.7962 -93.7503 50.2845 -78.6156 -93.7901 49.4585 -78.4372 -94.248 49.0411 
-78.1572 -95.0272 48.8594 -78.5492 -93.6499 52.2606 -78.9739 -93.6497 53.0512 
-78.3096 -93.8226 51.2433 -78.1441 -93.9816 50.233 -77.959 -94.2127 49.628 
-77.7458 -94.8333 49.3449 -77.4117 -95.5569 49.1302 -78.2613 -93.7959 52.8414 
-78.6343 -93.8348 53.5248 -78.0661 -93.9869 52.0678 -77.8525 -94.2795 51.1464 
-77.4536 -94.3896 50.3152 -77.0685 -94.5688 49.8343 -76.7885 -95.1426 49.5169 
-76.5107 -95.7999 49.2159 -78.0212 -94.1091 53.3809 -78.3858 -94.0958 54.0611 
-77.8293 -94.2658 52.6967 -77.6108 -94.5051 51.9636 -77.0887 -94.5799 51.0858 
-76.4842 -94.4845 50.307 -76.1053 -94.6895 49.8121 -75.8958 -95.3158 49.4828 
-75.7542 -95.9964 49.2416 -77.7534 -94.3523 54.0139 -78.1748 -94.3285 54.6082 
-77.46 -94.4555 53.3704 -77.196 -94.5542 52.7469 -76.7146 -94.5693 51.9951 
[...]
CELL_DATA 2000
SCALARS Distance double
LOOKUP_TABLE default
142.545 142.63 142.469 142.113 142.567 142.488 142.166 141.951 141.517 
142.497 142.379 142.067 141.932 141.55 141.35 140.963 142.595 142.361 
142.014 141.838 141.509 141.356 141.014 140.821 140.428 142.724 142.5 
142.125 141.873 141.504 141.317 140.948 140.798 140.394 140.217 139.784 
142.579 142.522 142.139 141.966 141.505 141.294 140.788 140.629 140.162 
140.077 139.701 139.586 139.253 142.137 142.212 141.827 141.811 141.322 
141.189 140.602 140.411 139.869 139.779 139.434 139.442 139.199 139.126 
138.817 141.642 141.715 141.345 141.382 140.94 140.896 140.385 140.223 
139.715 139.551 139.192 139.166 138.924 138.95 138.628 138.568 138.12 
141.273 141.284 140.951 140.938 140.561 140.527 140.138 140.04 139.647 
139.483 139.121 138.993 138.672 138.628 138.254 138.228 137.763 137.715 
137.249 142.778 142.975 142.848 142.776 143.128 142.927 142.794 142.77 
142.703 143.498 143.127 142.915 142.782 142.798 142.744 142.725 143.941 
143.576 143.312 143.022 142.996 142.905 143.015 142.89 142.895 144.161 
143.936 143.645 143.387 143.195 143.093 143.13 143.143 143.213 143.091 
143.014 144.318 144.109 143.844 143.606 143.356 143.203 143.131 143.159 
143.225 143.265 143.216 143.087 142.855 144.462 144.302 144.126 143.877 
143.755 143.472 143.457 143.269 143.345 143.272 143.264 143.168 142.95 
142.765 142.415 144.253 144.319 144.208 144.174 144.178 144.008 144.058 
143.79 143.809 143.552 143.468 143.252 143.012 142.805 142.46 142.255 
141.903 143.708 143.917 143.844 144.07 144.125 144.267 144.295 144.256 
144.129 143.95 143.687 143.462 143.121 142.886 142.518 142.3 141.971 
141.78 141.507 143.369 143.183 143.314 143.58 143.278 143.281 143.479 
143.647 143.967 143.168 143.322 143.397 143.551 143.735 143.984 144.17 
142.577 142.959 142.999 143.283 143.277 143.575 143.613 143.959 143.957 
141.829 142.221 142.284 142.68 142.691 143.003 142.969 143.281 143.26 
143.59 143.499 141.199 141.506 141.526 141.912 142.014 142.396 142.499 
142.759 142.783 142.973 142.914 143.11 142.957 140.588 140.896 140.888 
141.211 141.278 141.695 141.854 142.275 142.371 142.62 142.54 142.645 
142.455 142.571 142.368 139.937 140.274 140.32 140.626 140.652 140.981 
141.017 141.472 141.521 141.999 141.932 142.224 142.007 142.133 141.897 
142.015 141.837 139.325 139.647 139.729 140.065 140.106 140.387 140.324 
140.624 140.542 140.984 140.934 141.404 141.295 141.605 141.424 141.588 
141.416 141.546 141.407 141.132 141.134 140.989 140.664 141.067 140.95 
140.582 140.442 140.015 140.819 140.774 140.352 140.277 139.79 139.668 
139.162 140.401 140.396 139.951 139.952 139.466 139.379 138.832 138.737 
138.237 140.072 139.981 139.54 139.515 139.07 139.02 138.506 138.405 
137.908 137.835 137.398 139.945 139.776 139.316 139.173 138.7 138.622 
138.129 138.063 137.587 137.533 137.115 137.053 136.65 139.764 139.666 
139.169 138.989 138.426 138.28 137.738 137.665 137.178 137.167 136.755 
136.757 136.361 136.315 135.9 139.399 139.392 138.904 138.779 138.19 
138.017 137.446 137.313 136.816 136.755 136.34 136.351 135.981 135.989 
135.588 135.544 135.124 139.017 139.008 138.588 138.491 137.972 137.796 
137.269 137.092 136.626 136.483 136.073 135.991 135.629 135.608 135.25 
135.222 134.826 134.771 134.385 141.029 140.535 140.757 140.667 139.911 
140.208 140.114 140.351 140.257 139.122 139.524 139.493 139.786 139.709 
139.944 139.859 138.219 138.678 138.691 139.104 139.061 139.373 139.29 
139.54 139.426 137.338 137.756 137.733 138.209 138.157 138.596 138.495 
138.876 138.758 139.057 138.916 136.556 136.899 136.837 137.253 137.21 
137.638 137.557 137.975 137.87 138.272 138.147 138.492 138.375 135.805 
136.127 136.067 136.435 136.447 136.807 136.819 137.141 137.121 137.432 
137.356 137.669 137.546 137.907 137.831 135.031 135.357 135.292 135.681 
135.709 136.108 136.159 136.51 136.554 136.843 136.843 137.044 136.941 
137.13 137.005 137.344 137.303 134.297 134.59 134.519 134.895 134.907 
135.333 135.348 135.776 135.783 136.21 136.234 136.577 136.529 136.691 
136.548 136.673 136.571 136.861 136.855 133.883 133.412 133.786 134.129 
133.037 133.4 133.765 134.12 134.522 132.627 133.06 133.473 133.813 
134.164 134.518 134.919 132.149 132.613 133.103 133.529 133.882 134.177 
134.486 134.874 135.31 131.797 132.13 132.604 133.113 133.578 133.92 
134.205 134.476 134.856 135.303 135.798 131.621 131.817 132.16 132.613 
133.149 133.605 133.981 134.238 134.539 134.886 135.346 135.812 136.2 
131.433 131.614 131.86 132.209 132.701 133.187 133.66 133.998 134.29 
134.574 134.929 135.354 135.738 136.118 136.304 131.256 131.408 131.636 
131.908 132.319 132.763 133.261 133.671 134.03 134.311 134.624 134.958 
135.326 135.681 135.934 136.178 136.32 131.288 131.329 131.55 131.705 
132.043 132.385 132.846 133.277 133.705 134.048 134.395 134.69 135.05 
135.351 135.661 135.89 136.1 136.287 136.531 133.697 133.265 133.353 
133.166 132.874 132.912 132.653 132.819 132.701 132.597 132.544 132.204 
132.276 132.042 132.302 132.203 132.464 132.321 131.915 131.852 131.524 
131.642 131.49 131.791 131.75 132.386 132.216 131.797 131.64 131.29 
131.238 131.096 131.23 131.282 131.501 131.566 132.329 132.149 131.803 
131.62 131.35 131.176 131.038 131.01 131.072 131.21 131.333 131.469 
131.503 132.403 132.176 131.947 131.754 131.621 131.399 131.247 131.059 
130.938 130.979 130.959 131.175 131.151 131.343 131.28 132.626 132.368 
132.202 132.009 131.934 131.739 131.562 131.292 130.967 130.801 130.547 
130.664 130.572 130.844 130.816 131.06 131.062 132.888 132.641 132.453 
132.272 132.133 131.988 131.751 131.52 131.127 130.844 130.513 130.381 
130.305 130.379 130.487 130.653 130.806 130.971 131.124 138.738 138.206 
138.423 138.281 137.578 137.833 137.649 137.881 137.669 136.871 137.138 
136.955 137.21 136.993 137.219 136.995 136.214 136.433 136.235 136.49 
136.294 136.541 136.338 136.565 136.373 135.553 135.778 135.537 135.776 
135.559 135.822 135.626 135.894 135.709 135.961 135.803 134.814 135.066 
134.821 135.068 134.826 135.078 134.85 135.134 134.939 135.245 135.088 
135.394 135.302 134.132 134.333 134.107 134.344 134.124 134.359 134.124 
134.363 134.142 134.433 134.272 134.621 134.53 134.905 134.873 133.592 
133.713 133.455 133.648 133.425 133.664 133.454 133.68 133.461 133.684 
133.503 133.8 133.703 134.084 134.046 134.46 134.441 133.171 133.227 
132.929 133.035 132.767 132.963 132.753 133.005 132.818 133.048 132.864 
133.096 132.972 133.282 133.237 133.62 133.61 134.016 134.015 138.887 
138.998 138.76 138.395 139.13 138.882 138.476 138.227 137.784 139.201 
138.981 138.552 138.295 137.82 137.557 137.084 139.233 139.018 138.598 
138.352 137.887 137.611 137.148 136.884 136.452 139.268 139.053 138.626 
138.386 137.933 137.681 137.23 136.973 136.524 136.267 135.805 139.208 
139.058 138.622 138.405 137.935 137.703 137.237 137.016 136.537 136.301 
135.785 135.546 135.042 139.041 138.934 138.526 138.364 137.908 137.695 
137.232 137.006 136.536 136.288 135.782 135.515 135.015 134.782 134.353 
138.956 138.788 138.401 138.246 137.839 137.663 137.257 137.039 136.628 
136.351 135.907 135.586 135.133 134.83 134.428 134.184 133.842 139.03 
138.784 138.384 138.169 137.783 137.608 137.258 137.083 136.729 136.492 
136.087 135.778 135.342 135.017 134.608 134.322 133.969 133.732 133.425 
138.968 138.588 138.612 138.274 138.197 138.217 137.886 137.919 137.644 
137.871 137.88 137.587 137.573 137.297 137.335 137.125 137.463 137.557 
137.284 137.304 136.988 136.995 136.714 136.806 136.586 136.832 137.028 
136.732 136.894 136.518 136.591 136.172 136.288 135.966 136.171 135.909 
136.158 136.313 135.98 136.204 135.84 135.992 135.528 135.635 135.218 
135.432 135.149 135.42 135.161 135.622 135.678 135.311 135.458 135.149 
135.308 134.955 135.023 134.63 134.718 134.417 134.633 134.417 134.673 
134.445 135.146 135.182 134.797 134.87 134.572 134.706 134.463 134.553 
134.262 134.27 133.956 134.015 133.771 133.956 133.766 133.999 133.809 
134.653 134.703 134.329 134.386 134.082 134.195 133.99 134.124 133.918 
133.965 133.66 133.644 133.322 133.39 133.162 133.352 133.196 133.42 
133.273 134.266 133.623 133.931 133.944 133.032 133.297 133.307 133.645 
133.725 132.446 132.703 132.728 133.066 133.207 133.528 133.679 131.873 
132.114 132.201 132.557 132.782 133.093 133.265 133.53 133.634 131.541 
131.66 131.836 132.135 132.428 132.719 132.844 133.078 133.067 133.358 
133.337 131.544 131.535 131.726 131.907 132.147 132.369 132.359 132.543 
132.358 132.647 132.542 132.94 132.942 131.576 131.574 131.599 131.761 
131.785 131.99 131.8 131.947 131.654 131.88 131.773 132.144 132.235 
132.634 132.785 131.421 131.446 131.244 131.399 131.183 131.408 131.116 
131.303 131.064 131.267 131.287 131.566 131.792 132.089 132.338 132.635 
132.855 131.236 131.202 130.925 130.942 130.656 130.742 130.499 130.649 
130.587 130.814 131.023 131.293 131.628 131.848 132.116 132.309 132.507 
132.756 132.949 134.36 134.407 134.152 133.749 134.648 134.29 133.882 
133.595 133.204 134.929 134.566 134.126 133.8 133.404 133.094 132.664 
135.047 134.756 134.254 133.989 133.58 133.322 132.898 132.551 132.09 
135.102 134.805 134.278 134.019 133.569 133.395 133.025 132.786 132.352 
132.003 131.666 135.319 134.935 134.46 134.1 133.649 133.377 133.028 
132.849 132.546 132.288 131.986 131.714 131.597 135.706 135.27 134.845 
134.419 134.029 133.619 133.286 132.968 132.749 132.506 132.344 132.083 
131.96 131.747 131.696 136.147 135.716 135.311 134.876 134.52 134.098 
133.808 133.406 133.213 132.875 132.777 132.489 132.404 132.136 132.025 
131.798 131.653 136.573 136.178 135.806 135.37 135.019 134.603 134.331 
133.957 133.78 133.439 133.325 133.001 132.881 132.572 132.405 132.126 
131.927 131.68 131.482 134.798 135.497 135.018 134.835 136.278 135.766 
135.6 135.148 135.077 137.173 136.614 136.47 135.968 135.905 135.466 
135.401 138.244 137.616 137.489 136.903 136.814 136.319 136.23 135.751 
135.571 139.413 138.772 138.642 137.987 137.853 137.266 137.137 136.596 
136.41 135.864 135.637 140.456 139.912 139.769 139.14 138.972 138.34 
138.178 137.563 137.386 136.774 136.581 135.989 135.838 141.264 140.848 
140.739 140.204 140.051 139.448 139.276 138.639 138.452 137.814 137.635 
137.013 136.868 136.284 136.201 141.939 141.595 141.554 141.114 141.02 
140.492 140.346 139.734 139.527 138.882 138.663 138.055 137.875 137.31 
137.183 136.658 136.594 142.583 142.275 142.278 141.901 141.84 141.399 
141.279 140.754 140.556 139.941 139.686 139.054 138.814 138.244 138.063 
137.567 137.454 137.006 136.954 142.953 143.392 143.018 142.651 143.682 
143.391 142.995 142.629 142.195 143.778 143.586 143.178 142.879 142.407 
142.09 141.615 143.764 143.617 143.225 142.979 142.488 142.216 141.731 
141.446 140.912 143.697 143.566 143.176 142.982 142.497 142.25 141.761 
141.514 140.99 140.673 140.062 143.491 143.415 142.986 142.878 142.403 
142.216 141.708 141.501 140.974 140.711 140.098 139.767 139.152 143.116 
143.095 142.659 142.627 142.195 142.078 141.572 141.389 140.845 140.638 
140.049 139.773 139.167 138.876 138.359 142.741 142.703 142.317 142.295 
141.939 141.872 141.428 141.244 140.708 140.492 139.955 139.72 139.189 
138.912 138.428 138.164 137.756 142.523 142.425 142.077 142.007 141.691 
141.646 141.278 141.128 140.636 140.4 139.898 139.669 139.218 138.972 
138.546 138.278 137.892 137.633 137.279 142.35 141.873 142.034 141.859 
141.293 141.486 141.324 141.535 141.437 140.751 140.913 140.747 140.964 
140.851 141.113 140.999 140.192 140.373 140.159 140.372 140.198 140.46 
140.292 140.569 140.356 139.54 139.736 139.479 139.721 139.493 139.758 
139.538 139.809 139.588 139.857 139.635 139.015 139.104 138.829 139.008 
138.781 139.025 138.794 139.042 138.809 139.084 138.888 139.171 138.981 
138.578 138.65 138.339 138.429 138.191 138.363 138.148 138.334 138.077 
138.303 138.087 138.397 138.232 138.534 138.344 137.917 138.126 137.791 
137.933 137.642 137.81 137.581 137.747 137.487 137.63 137.375 137.606 
137.444 137.761 137.622 137.904 137.719 137.113 137.376 137.097 137.303 
137.009 137.206 136.952 137.16 136.921 137.082 136.834 136.984 136.799 
137.029 136.911 137.187 137.047 137.297 137.115 136.681 136.612 136.429 
135.949 136.517 136.359 135.897 135.67 135.176 136.449 136.286 135.875 
135.644 135.165 134.924 134.494 136.453 136.254 135.852 135.637 135.183 
134.941 134.523 134.316 133.976 136.472 136.252 135.799 135.599 135.14 
134.938 134.513 134.339 133.995 133.838 133.528 136.496 136.255 135.797 
135.561 135.116 134.895 134.466 134.285 133.894 133.777 133.427 133.335 
133.011 136.573 136.314 135.924 135.649 135.275 134.977 134.591 134.3 
133.885 133.659 133.245 133.129 132.766 132.74 132.443 136.649 136.419 
136.08 135.844 135.53 135.236 134.888 134.54 134.143 133.779 133.34 
133.032 132.622 132.471 132.158 132.156 131.919 136.662 136.476 136.158 
135.993 135.705 135.479 135.133 134.837 134.458 134.113 133.707 133.298 
132.865 132.496 132.134 131.946 131.7 131.674 131.484 143.849 144.424 
144.229 144.357 144.665 144.693 144.845 144.704 144.761 144.554 144.741 
144.976 145.052 145.193 145.043 145.011 144.416 144.598 144.9 145.091 
145.43 145.456 145.596 145.301 145.153 144.259 144.508 144.837 145.047 
145.457 145.649 145.956 145.876 145.799 145.371 145.017 143.906 144.301 
144.696 144.984 145.29 145.554 145.756 145.966 145.889 145.802 145.396 
145.04 144.573 143.486 143.894 144.317 144.724 144.955 145.233 145.21 
145.47 145.29 145.5 145.153 145.136 144.688 144.48 144.081 143.141 
143.452 143.728 144.185 144.363 144.725 144.633 144.839 144.602 144.793 
144.56 144.711 144.448 144.441 144.126 143.973 143.645 142.783 143.019 
143.075 143.474 143.553 143.985 143.945 144.231 144.06 144.224 144.059 
144.203 144.07 144.162 143.967 143.937 143.652 143.512 143.187 143.573 
144.059 143.655 143.418 144.477 144.122 143.795 143.495 143.3 144.687 
144.435 144.097 143.812 143.46 143.249 142.964 144.694 144.518 144.159 
143.99 143.613 143.368 142.952 142.759 142.408 144.507 144.401 143.977 
143.911 143.54 143.41 142.987 142.774 142.377 142.203 141.887 144.179 
144.135 143.716 143.664 143.271 143.213 142.789 142.693 142.287 142.184 
141.852 141.729 141.402 143.798 143.802 143.45 143.408 143.026 142.942 
142.496 142.402 141.958 141.94 141.596 141.611 141.292 141.206 140.824 
143.387 143.432 143.102 143.116 142.753 142.706 142.276 142.15 141.68 
141.583 141.204 141.234 140.954 140.997 140.684 140.597 140.217 142.945 
143.013 142.679 142.723 142.36 142.376 141.98 141.926 141.495 141.376 
140.977 140.901 140.608 140.63 140.385 140.396 140.09 139.999 139.642 
143.279 143.212 143.154 143.114 143.226 143.214 143.227 143.185 143.251 
142.958 143.168 143.228 143.299 143.259 143.253 143.126 142.373 142.719 
142.779 143.079 142.96 143.07 142.761 142.823 142.483 141.778 142.059 
142.059 142.433 142.321 142.548 142.208 142.311 141.95 142.06 141.761 
141.225 141.444 141.342 141.677 141.579 141.849 141.587 141.719 141.417 
141.545 141.323 141.429 141.189 140.607 140.812 140.623 140.935 140.824 
141.134 140.939 141.122 140.855 141.018 140.806 140.983 140.752 140.854 
140.556 139.994 140.157 139.929 140.19 140.072 140.394 140.26 140.495 
140.261 140.438 140.205 140.411 140.181 140.346 140.045 140.153 139.849 
139.437 139.571 139.335 139.53 139.404 139.684 139.595 139.848 139.672 
139.849 139.625 139.804 139.595 139.767 139.522 139.635 139.36 139.465 
139.231 134.981 135.511 135.396 135.692 136.015 135.94 136.277 136.144 
136.461 136.533 136.447 136.812 136.717 137.051 136.928 137.304 137.151 
137.006 137.352 137.244 137.578 137.479 137.865 137.813 138.311 137.746 
137.629 137.956 137.823 138.141 138.005 138.375 138.334 138.861 138.89 
139.465 138.18 138.15 138.505 138.428 138.776 138.623 138.966 138.855 
139.337 139.383 139.974 140.026 140.519 138.559 138.552 138.944 138.927 
139.321 139.247 139.605 139.478 139.874 139.843 140.353 140.437 140.929 
140.959 141.312 138.978 138.97 139.364 139.346 139.715 139.707 140.067 
140.04 140.402 140.363 140.771 140.792 141.233 141.286 141.665 141.661 
141.957 139.351 139.385 139.768 139.756 140.067 140.044 140.34 140.37 
140.714 140.772 141.154 141.192 141.586 141.606 141.984 141.989 142.321 
142.293 142.582 
POINT_DATA 1002
SCALARS Distance double
LOOKUP_TABLE default
142.253 142.627 142.757 142.4 142.735 141.688 142.331 142.636 141.767 
141.098 142.172 142.683 141.699 141.186 140.608 142.229 142.875 141.644 
141.187 140.671 140.006 142.399 142.9 141.749 141.12 140.538 139.974 
139.374 142.268 142.57 141.752 141.015 140.23 139.719 139.41 138.976 
141.799 142.044 141.414 140.801 139.99 139.388 139.198 138.992 138.483 
141.304 141.579 140.933 140.475 139.88 139.276 138.913 138.662 138.229 
137.65 140.97 141.27 140.579 140.172 139.766 139.295 138.793 138.309 
137.793 137.266 136.83 142.952 142.837 143.139 142.808 143.438 142.739 
143.138 143.92 142.8 142.858 143.67 144.236 143.131 143.059 143.131 
143.905 144.346 143.364 143.092 143.241 143.269 144.078 144.534 143.552 
143.154 143.148 143.288 143.095 144.298 144.555 144.003 143.713 143.506 
143.383 143.123 142.633 144.104 144.101 144.223 144.309 144.155 143.77 
143.253 142.66 142.089 143.547 143.476 143.884 144.27 144.307 143.928 
143.366 142.745 142.151 141.674 143.087 143.31 143.154 143.38 143.302 
143.749 143.287 142.918 143.525 143.934 142.673 142.141 143.04 143.267 
143.639 141.851 141.495 142.331 142.704 142.938 143.205 141.174 140.93 
141.556 142.157 142.638 142.777 142.762 140.586 140.25 140.905 141.374 
142.031 142.447 142.397 142.209 139.987 139.575 140.388 140.665 141.012 
141.521 141.83 141.795 141.687 139.38 139.02 139.823 140.109 140.198 
140.42 140.863 141.193 141.284 141.278 140.848 140.842 140.304 140.726 
140.181 139.561 140.404 139.926 139.265 138.663 139.922 139.527 138.947 
138.285 137.765 139.602 139.097 138.587 137.986 137.455 136.975 139.529 
138.82 138.182 137.618 137.159 136.731 136.244 139.36 138.619 137.839 
137.194 136.724 136.383 135.972 135.483 138.994 138.36 137.593 136.906 
136.349 135.948 135.614 135.179 134.711 138.652 138.12 137.438 136.778 
136.195 135.676 135.263 134.874 134.424 134.019 140.452 139.87 140.022 
139.143 139.468 139.639 138.23 138.701 139.014 139.217 137.273 137.696 
138.074 138.399 138.66 136.449 136.792 137.145 137.453 137.759 138.023 
135.69 136.065 136.487 136.827 137.085 137.226 137.391 134.899 135.29 
135.775 136.218 136.619 136.825 136.775 136.849 134.161 134.499 134.935 
135.336 135.795 136.288 136.476 136.395 136.468 133.47 133.728 133.04 
133.434 132.636 134.134 133.112 132.133 133.873 134.486 132.594 131.721 
133.603 134.172 134.801 132.078 131.593 133.143 133.988 134.456 135.313 
131.783 131.488 132.622 133.685 134.271 134.89 135.837 131.574 131.239 
132.226 133.257 134.039 134.561 135.337 136.041 131.411 131.118 131.925 
132.81 133.718 134.334 134.978 135.665 136.098 131.459 131.29 131.781 
132.424 133.306 134.094 134.76 135.412 135.908 136.295 133.602 132.989 
133.205 132.544 132.875 132.429 132.213 132.703 131.857 131.842 132.048 
132.645 131.487 131.23 131.399 131.958 132.558 131.388 130.997 131.061 
131.386 131.934 132.498 131.518 131.146 130.972 131.185 131.43 132.097 
132.617 131.812 131.536 131.062 130.782 130.912 131.114 132.393 132.87 
132.119 131.872 131.28 130.561 130.3 130.507 130.83 132.663 133.132 
132.306 131.974 131.409 130.695 130.285 130.333 130.622 130.966 138.544 
138.073 138.003 137.423 137.308 137.45 136.683 136.622 136.758 136.77 
135.994 136.027 136.028 136.095 136.148 135.313 135.319 135.306 135.343 
135.439 135.54 134.565 134.558 134.587 134.585 134.622 134.756 134.968 
133.876 133.962 133.882 133.905 133.883 133.922 134.139 134.484 133.303 
133.511 133.187 133.206 133.253 133.248 133.34 133.632 134.024 139.098 
138.638 139.259 138.749 139.383 138.042 138.811 139.41 138.096 137.323 
138.834 139.456 138.151 137.416 136.707 138.872 139.478 138.174 137.477 
136.797 136.069 138.825 139.322 138.172 137.459 136.776 136.039 135.25 
138.658 139.144 138.098 137.455 136.784 136.051 135.258 134.539 138.563 
139.161 137.983 137.436 136.881 136.221 135.449 134.692 134.053 138.628 