# vtk DataFile Version 4.0
vtk output
ASCII
DATASET POLYDATA
POINTS 1002 float
-79.4735 -103.409 56.2794 -79.2978 -103.425 57.2562 -79.9848 -103.384 56.7554 
-79.9577 -103.141 55.9102 -80.5333 -103.174 56.352 -79.4017 -103.147 55.4272 
-80.3286 -102.737 55.6684 -80.9449 -102.794 56.0646 -79.6822 -102.666 55.2041 
-79.1079 -102.676 54.7327 -80.7789 -102.391 55.285 -81.3836 -102.38 55.6236 
-80.1001 -102.286 54.889 -79.4113 -102.235 54.3862 -78.8354 -102.325 53.8759 
-81.3766 -102.082 54.6594 -82.0959 -102.109 54.9708 -80.7656 -102.117 54.2952 
-80.1031 -102.1 53.7845 -79.2884 -102.036 53.3101 -78.6107 -102.068 52.8875 
-82.0982 -101.723 54.1806 -83.0121 -102.005 54.4823 -81.3335 -101.718 53.8332 
-80.8285 -101.932 53.2553 -80.0568 -101.881 52.7577 -79.0763 -101.656 52.4989 
-78.3185 -101.538 52.23 -82.8182 -101.416 53.9746 -83.6262 -101.791 54.2637 
-81.8235 -101.12 53.7178 -81.1656 -101.283 53.1741 -80.5726 -101.409 52.5734 
-79.6575 -101.193 52.2823 -78.7556 -100.988 52.0692 -78.0526 -100.921 51.742 
-83.2669 -101.075 53.6886 -83.7996 -101.24 54.0037 -82.3895 -100.732 53.4925 
-81.5336 -100.654 53.0938 -80.8651 -100.747 52.4955 -80.0878 -100.657 52.0841 
-79.2608 -100.573 51.7719 -78.5788 -100.619 51.3609 -77.9067 -100.642 50.9747 
-83.4711 -100.566 53.2188 -83.8832 -100.519 53.5928 -82.8155 -100.414 53.0116 
-82.0154 -100.307 52.7109 -81.3114 -100.354 52.1474 -80.6026 -100.332 51.6378 
-79.8085 -100.32 51.2485 -79.1483 -100.494 50.7763 -78.5471 -100.618 50.3558 
-77.8335 -100.574 50.1056 -83.6398 -100.022 52.7641 -84.0112 -99.8876 53.1918 
-83.0667 -99.9955 52.5487 -82.3084 -99.9174 52.3391 -81.6457 -99.9928 51.82 
-81.1222 -100.119 51.1796 -80.4524 -100.157 50.7009 -79.7194 -100.288 50.2493 
-79.1268 -100.49 49.8253 -78.5129 -100.519 49.5906 -77.7923 -100.41 49.4687 
-79.5626 -103.442 57.8844 -80.3236 -103.44 57.3145 -79.875 -103.509 58.4806 
-80.5975 -103.415 57.9272 -80.0776 -103.45 59.1919 -80.9427 -103.211 56.866 
-80.8201 -103.259 58.6749 -80.2571 -103.339 59.9687 -81.2441 -103.054 57.5097 
-81.3624 -102.699 56.5895 -81.1625 -103.183 59.388 -80.6524 -103.4 60.483 
-81.5513 -102.855 58.2058 -81.6478 -102.397 57.2251 -81.8375 -102.203 56.1195 
-81.5671 -103.139 59.9008 -81.1104 -103.349 60.743 -81.9479 -102.822 58.8031 
-81.9409 -102.18 57.7591 -82.1343 -101.872 56.6557 -82.716 -102.066 55.4116 
-81.8382 -102.805 60.2681 -81.382 -102.915 61.021 -82.3221 -102.725 59.3327 
-82.3525 -102.155 58.2377 -82.3463 -101.552 57.092 -82.9372 -101.697 55.9244 
-83.5846 -102.031 54.932 -82.0329 -102.341 60.4811 -81.5651 -102.436 61.2927 
-82.6592 -102.427 59.7121 -82.8924 -102.136 58.8072 -82.7011 -101.401 57.6619 
-82.8767 -101.123 56.4629 -83.5389 -101.472 55.4722 -83.9279 -101.605 54.6983 
-82.224 -102.017 60.5904 -81.7862 -102.127 61.452 -82.9365 -102.103 59.8897 
-83.4291 -102.044 59.2663 -83.281 -101.462 58.3914 -83.0157 -100.827 57.1847 
-83.3436 -100.761 56.0188 -83.8973 -100.929 55.1438 -84.0589 -100.828 54.3757 
-82.3827 -101.702 60.7596 -82.0088 -101.802 61.5461 -83.0654 -101.728 60.1141 
-83.7182 -101.791 59.6029 -83.8073 -101.526 58.9662 -83.4444 -100.909 57.9444 
-83.4376 -100.452 56.6579 -83.953 -100.334 55.5465 -84.3171 -100.245 54.7298 
-84.25 -100.063 53.9631 -82.3812 -101.245 61.1918 -82.947 -101.168 60.6188 
-82.87 -100.545 60.9773 -83.5388 -100.467 60.6459 -83.3618 -99.9085 60.6854 
-83.6617 -101.228 60.1272 -83.9025 -99.8017 60.3352 -83.4856 -99.4042 60.0779 
-84.023 -100.547 60.0388 -84.0422 -101.272 59.4776 -83.8578 -99.1026 59.5655 
-83.2385 -98.8155 59.3079 -84.0762 -99.734 59.4086 -84.0508 -100.53 58.9537 
-83.8581 -100.953 58.5058 -83.7006 -98.2725 58.7726 -83.0756 -98.1246 58.5927 
-84.0004 -98.7404 58.5634 -83.9888 -99.508 58.0614 -83.9083 -100.151 57.6385 
-83.7226 -100.391 57.2121 -83.6251 -97.57 58.0409 -83.0211 -97.5313 57.9081 
-83.9748 -97.8245 57.8355 -83.9777 -98.4196 57.2508 -83.9799 -99.1121 56.7064 
-84.1449 -99.6472 56.2966 -84.1548 -99.9868 55.8884 -83.4085 -97.0908 57.2337 
-82.8199 -97.0534 57.2423 -83.8738 -97.1893 57.0268 -84.0166 -97.5771 56.4796 
-83.9632 -98.1683 55.895 -84.1645 -98.7613 55.5051 -84.5486 -99.2841 55.1808 
-84.5962 -99.7393 54.908 -83.0601 -96.6691 56.5003 -82.5438 -96.5967 56.6655 
-83.5947 -96.6859 56.2199 -84.0486 -96.8724 55.7152 -84.1834 -97.3503 55.1333 
-84.0964 -97.9319 54.7882 -84.2436 -98.4838 54.6172 -84.5367 -99.0089 54.3967 
-84.5292 -99.5227 54.1515 -82.778 -96.2449 55.9723 -82.3296 -96.1329 56.2067 
-83.2549 -96.2803 55.6479 -83.8749 -96.3108 55.1983 -84.4692 -96.5773 54.6196 
-84.5667 -97.0882 54.1644 -84.2438 -97.6412 54.0078 -84.1115 -98.2077 53.9039 
-84.2296 -98.8094 53.6498 -84.2221 -99.3835 53.3625 -83.8973 -99.4712 52.5557 
-83.9956 -98.8955 52.7225 -83.7132 -99.0165 52.03 -83.9643 -98.1257 53.0157 
-83.8216 -98.2677 52.1201 -83.3684 -98.4139 51.6593 -84.2282 -97.3693 53.2287 
-84.0201 -97.2962 52.3388 -83.5203 -97.5245 51.7254 -82.7559 -97.734 51.3893 
-84.8135 -96.8023 53.3834 -84.5685 -96.569 52.5542 -83.7805 -96.6134 51.9046 
-82.7868 -96.8956 51.5288 -82.0618 -97.0676 50.9869 -84.8618 -96.3605 53.7925 
-84.7596 -96.2292 52.926 -83.9768 -96.1508 52.1318 -82.8696 -96.2077 51.6304 
-82.023 -96.3039 51.0808 -81.6688 -96.326 50.2492 -84.1022 -96.0945 54.4087 
-84.013 -96.0667 53.5551 -83.5062 -95.9807 52.5859 -82.8144 -95.7786 51.7697 
-82.1457 -95.5936 51.0579 -81.7266 -95.4673 50.2219 -81.5045 -95.5129 49.4413 
-83.308 -96.0315 54.9203 -83.1363 -95.9751 54.1346 -82.7626 -95.8129 53.1831 
-82.5023 -95.3738 52.1939 -82.2744 -94.9461 51.2363 -81.9019 -94.6586 50.2728 
-81.5312 -94.5859 49.4654 -81.1327 -94.827 48.9609 -82.8349 -95.9328 55.3192 
-82.7382 -95.7654 54.5832 -82.4696 -95.5249 53.7166 -82.3045 -94.9684 52.789 
-82.2511 -94.4234 51.7863 -81.9752 -94.1341 50.6718 -81.5047 -93.9656 49.7089 
-81.0095 -94.028 49.1052 -80.4439 -94.3612 48.7623 -82.4277 -95.7362 55.665 
-82.4617 -95.3967 55.0306 -82.3775 -95.0725 54.257 -82.2565 -94.5781 53.412 
-82.114 -94.0931 52.4918 -81.7887 -93.9177 51.3682 -81.3052 -93.8262 50.2362 
-80.8169 -93.6947 49.4305 -80.2925 -93.7652 48.9332 -79.6951 -94.0297 48.5757 
-83.4478 -99.5615 52.2285 -83.0947 -99.0333 51.8511 -82.6565 -99.4554 52.1158 
-82.5863 -98.4096 51.4528 -82.1406 -98.854 51.6771 -81.8192 -99.4082 51.7649 
-82.0568 -97.7517 50.8749 -81.7591 -98.2702 50.9637 -81.4337 -98.8696 51.0706 
-81.3412 -99.6213 51.0345 -81.6643 -97.043 50.1383 -81.5151 -97.6636 50.1109 
-81.2445 -98.3228 50.2374 -81.093 -99.1321 50.3061 -80.911 -99.8228 50.3689 
-81.4138 -96.3018 49.3964 -81.2154 -96.9785 49.4322 -80.9397 -97.6642 49.5785 
-80.7143 -98.461 49.7228 -80.5122 -99.255 49.7752 -80.1783 -99.8978 49.8877 
-81.0379 -95.6373 48.8851 -80.7921 -96.3282 48.9599 -80.4529 -96.9619 49.157 
-80.1542 -97.713 49.3219 -79.9133 -98.491 49.3781 -79.7 -99.2789 49.387 
-79.4592 -100.033 49.4844 -80.342 -95.0753 48.6409 -80.16 -95.7368 48.6321 
-79.9028 -96.3087 48.7681 -79.6393 -97.0171 48.9403 -79.3843 -97.8175 49.025 
-79.1833 -98.5831 49.0661 -79.0621 -99.4103 49.1172 -78.8698 -100.146 49.2498 
-79.5233 -94.5724 48.4452 -79.3795 -95.1486 48.3727 -79.2644 -95.6882 48.3705 
-79.1529 -96.3434 48.4784 -78.9832 -97.1699 48.6259 -78.7765 -97.9978 48.7271 
-78.6427 -98.7969 48.8128 -78.5061 -99.5655 48.9261 -78.2069 -100.127 49.122 
-78.9073 -93.9462 48.149 -78.7164 -94.4182 48.0526 -78.3113 -93.7235 47.564 
-78.2102 -94.2814 47.4652 -77.9119 -93.5773 46.914 -78.6333 -94.9967 47.963 
-77.7994 -94.5022 46.7037 -77.2712 -93.7651 46.3804 -78.1569 -95.1299 47.3015 
-78.6152 -95.6763 47.925 -76.9749 -94.9427 46.1198 -76.3207 -94.2001 46.344 
-77.6193 -95.5645 46.5605 -78.0864 -95.9117 47.3795 -78.5478 -96.4506 48.1128 
-76.0047 -95.1843 46.3697 -75.6998 -94.656 47.0326 -76.744 -95.7503 46.3752 
-77.4645 -96.0612 47.1002 -77.9385 -96.5233 47.8791 -78.3694 -97.3186 48.3651 
-75.5075 -95.3758 47.3742 -75.4278 -95.0878 47.9755 -75.8846 -95.7215 47.0592 
-76.6628 -96.0532 47.3974 -77.2944 -96.5627 47.9083 -77.7314 -97.4494 48.1732 
-78.1938 -98.2764 48.4521 -75.1691 -95.7763 48.2492 -74.8602 -95.4876 48.5618 
-75.2885 -96.0356 47.8755 -75.7698 -96.4053 47.8618 -76.4955 -96.9791 48.0534 
-77.0605 -97.8283 48.0208 -77.5382 -98.6551 48.0917 -78.0387 -99.1728 48.514 
-74.5083 -96.2533 48.5928 -73.9893 -95.8691 48.7488 -74.6928 -96.608 48.2295 
-74.9174 -97.0841 47.9669 -75.5193 -97.7193 48.0105 -76.2468 -98.4524 47.9824 
-76.8201 -99.1252 47.8755 -77.2855 -99.5395 48.1653 -77.7446 -99.8073 48.7134 
-73.7379 -96.7112 48.6686 -73.2908 -96.3064 48.8222 -73.9953 -97.1177 48.341 
-74.1784 -97.6406 47.9433 -74.6204 -98.2892 47.8511 -75.3499 -98.9224 48.0129 
-76.0718 -99.4648 48.0385 -76.5855 -99.8428 48.104 -76.9494 -100.035 48.5117 
-77.3361 -100.198 49.0416 -79.4146 -93.6118 48.5709 -78.6791 -93.4699 47.9886 
-79.1761 -93.2845 48.7964 -78.4316 -93.112 48.1959 -78.8704 -92.9858 49.4201 
-78.0757 -93.2273 47.2794 -78.0331 -92.8795 48.9538 -78.458 -92.8326 50.1666 
-77.6509 -92.9732 47.5113 -77.4804 -93.0732 46.7068 -77.549 -92.8528 49.8167 
-78.0047 -93.0193 50.6437 -77.0868 -92.9394 48.4083 -76.8409 -92.9742 47.1348 
-76.6533 -93.2776 46.5876 -77.0812 -93.0856 50.3862 -77.5331 -93.384 51.049 
-76.6264 -93.0306 49.4341 -76.3094 -93.137 48.1947 -76.128 -93.2786 47.3829 
-75.9296 -93.8163 47.09 -76.6181 -93.4311 50.9358 -77.0518 -93.6239 51.706 
-76.2798 -93.2856 50.2007 -76.004 -93.332 49.2969 -75.7406 -93.4459 48.4704 
-75.5865 -93.7444 48.0339 -75.5182 -94.3842 47.9002 -76.1847 -93.72 51.678 
-76.6168 -93.7535 52.4696 -75.9221 -93.6737 50.909 -75.7221 -93.6586 50.126 
-75.3184 -93.6275 49.3852 -74.9055 -93.6785 48.8342 -74.7862 -94.0898 48.5251 
-74.8503 -94.7909 48.4724 -75.8546 -93.941 52.4411 -76.2861 -93.9268 53.1244 
-75.5567 -93.9877 51.7007 -75.3512 -94.0356 50.891 -74.9113 -93.9868 50.1061 
-74.24 -93.8357 49.4671 -73.7726 -93.8921 48.9816 -73.6941 -94.3801 48.7168 
-73.8463 -95.125 48.7039 -75.6608 -94.1569 53.092 -76.0849 -94.1788 53.6543 
-75.2572 -94.1615 52.4779 -74.9356 -94.2171 51.7316 -74.5637 -94.3055 50.8877 
[...]
CELL_DATA 2000
SCALARS Distance double
LOOKUP_TABLE default
141.298 141.326 141.174 140.833 141.213 141.091 140.657 140.551 140.125 
141.04 140.931 140.495 140.344 139.883 139.77 139.356 140.911 140.768 
140.415 140.25 139.858 139.641 139.225 139.052 138.669 140.98 140.705 
140.319 140.172 139.852 139.702 139.315 139.054 138.588 138.376 137.935 
141.151 140.827 140.287 140.054 139.64 139.585 139.205 139.084 138.559 
138.324 137.773 137.596 137.128 141.032 140.878 140.286 140.019 139.475 
139.329 138.9 138.831 138.335 138.184 137.63 137.453 136.993 136.844 
136.462 140.555 140.578 140.063 139.925 139.373 139.191 138.721 138.576 
138.135 137.964 137.501 137.318 136.936 136.787 136.486 136.31 136.003 
140.022 140.079 139.662 139.624 139.13 139.018 138.539 138.425 138.015 
137.871 137.478 137.28 136.928 136.767 136.503 136.371 136.112 135.919 
135.617 141.537 141.981 141.74 141.652 142.384 142.174 142.085 141.805 
141.601 142.725 142.527 142.423 142.191 141.986 141.675 141.396 143.142 
142.89 142.776 142.506 142.261 141.972 141.697 141.431 141.218 143.548 
143.33 143.204 142.902 142.589 142.218 141.887 141.655 141.542 141.371 
141.339 143.667 143.599 143.484 143.307 142.995 142.579 142.123 141.802 
141.635 141.608 141.702 141.604 141.569 143.57 143.565 143.509 143.496 
143.337 143.013 142.545 142.071 141.69 141.575 141.575 141.729 141.742 
141.68 141.416 143.496 143.456 143.442 143.499 143.528 143.379 143.091 
142.581 142.077 141.66 141.416 141.444 141.426 141.569 141.378 141.287 
140.88 143.446 143.403 143.364 143.443 143.539 143.567 143.472 143.145 
142.702 142.143 141.703 141.392 141.243 141.248 141.15 141.137 140.851 
140.685 140.304 143.315 143.067 143.214 143.307 142.827 143.031 143.224 
143.353 143.506 142.428 142.764 142.95 143.206 143.329 143.5 143.438 
141.68 142.181 142.279 142.712 142.719 143.079 142.932 143.119 142.71 
140.764 141.278 141.307 141.807 141.72 142.198 142.021 142.393 142.061 
142.19 141.742 139.953 140.377 140.381 140.797 140.677 141.101 140.932 
141.373 141.2 141.516 141.293 141.391 141.203 139.205 139.593 139.563 
139.926 139.794 140.129 139.945 140.325 140.209 140.643 140.595 140.93 
140.86 141.035 140.978 138.459 138.822 138.752 139.106 138.978 139.303 
139.15 139.456 139.332 139.705 139.667 140.124 140.112 140.514 140.433 
140.722 140.608 137.784 138.092 138.023 138.321 138.227 138.532 138.47 
138.764 138.715 138.975 138.909 139.228 139.181 139.609 139.558 139.981 
139.874 140.213 140.074 139.687 139.439 139.391 139.036 139.06 139.048 
138.647 138.683 138.311 138.739 138.67 138.24 138.228 137.836 137.883 
137.453 138.61 138.487 138.118 137.94 137.507 137.414 136.97 136.963 
136.471 138.449 138.411 138.093 137.923 137.444 137.205 136.661 136.518 
135.989 135.949 135.432 138.13 138.157 137.809 137.782 137.264 137.095 
136.45 136.253 135.619 135.496 134.916 134.892 134.4 137.846 137.809 
137.443 137.415 136.921 136.797 136.156 135.979 135.318 135.154 134.52 
134.405 133.848 133.866 133.441 137.65 137.566 137.202 137.116 136.672 
136.506 135.93 135.705 135.1 134.891 134.303 134.097 133.521 133.388 
132.915 132.95 132.592 137.426 137.361 136.976 136.901 136.469 136.327 
135.802 135.571 135.009 134.762 134.232 133.982 133.456 133.202 132.71 
132.557 132.169 132.169 131.84 139.647 139.022 139.337 139.296 138.313 
138.671 138.576 138.886 138.759 137.441 137.873 137.736 138.08 137.907 
138.275 138.168 136.446 136.926 136.802 137.18 137.014 137.396 137.342 
137.746 137.707 135.418 135.91 135.835 136.246 136.143 136.532 136.526 
136.954 136.994 137.344 137.259 134.432 134.912 134.876 135.307 135.242 
135.667 135.652 136.122 136.146 136.591 136.546 136.864 136.731 133.518 
133.976 133.968 134.389 134.325 134.748 134.7 135.179 135.151 135.648 
135.606 136.059 136.008 136.361 136.294 132.648 133.084 133.064 133.491 
133.41 133.824 133.758 134.211 134.189 134.651 134.64 135.098 135.124 
135.58 135.614 135.975 135.924 131.816 132.202 132.128 132.555 132.453 
132.882 132.809 133.27 133.278 133.745 133.786 134.22 134.287 134.733 
134.824 135.249 135.26 135.574 135.459 131.336 130.618 131.169 131.576 
129.978 130.476 130.893 131.442 131.892 129.52 129.96 130.427 130.862 
131.332 131.813 132.301 129.161 129.568 130.093 130.511 130.988 131.373 
131.866 132.311 132.828 129.045 129.255 129.718 130.149 130.632 131.053 
131.504 131.931 132.445 132.895 133.388 129.355 129.296 129.594 129.806 
130.268 130.663 131.15 131.57 132.087 132.535 133.078 133.481 133.947 
129.721 129.673 129.865 129.845 130.205 130.417 130.961 131.299 131.883 
132.251 132.83 133.21 133.73 134.064 134.496 129.766 129.906 130.107 
130.114 130.352 130.463 130.936 131.222 131.829 132.152 132.719 133.029 
133.509 133.83 134.227 134.558 134.897 129.678 129.866 130.123 130.224 
130.424 130.544 130.899 131.179 131.72 132.084 132.623 132.935 133.357 
133.621 133.946 134.23 134.507 134.842 135.09 131.101 130.67 130.694 
130.377 130.409 130.309 129.89 129.935 129.678 130.29 130.105 129.623 
129.509 129.13 129.254 129.114 130.287 130.046 129.578 129.34 128.903 
128.806 128.57 128.754 128.752 130.383 130.103 129.68 129.396 129.017 
128.761 128.527 128.433 128.451 128.585 128.785 130.539 130.246 129.869 
129.583 129.292 129.009 128.815 128.589 128.573 128.53 128.741 128.861 
129.18 130.715 130.438 130.126 129.85 129.626 129.354 129.145 128.889 
128.701 128.612 128.589 128.762 128.927 129.225 129.448 130.916 130.655 
130.405 130.153 129.966 129.715 129.491 129.194 128.867 128.63 128.347 
128.394 128.317 128.678 128.772 129.245 129.378 131.174 130.911 130.683 
130.438 130.234 130.013 129.793 129.522 129.234 128.876 128.583 128.29 
128.143 128.122 128.18 128.47 128.659 129.094 129.294 137.144 136.497 
136.775 136.673 135.802 136.083 135.953 136.263 136.135 135.127 135.393 
135.24 135.519 135.367 135.673 135.481 134.411 134.697 134.548 134.825 
134.65 134.912 134.708 134.971 134.729 133.67 133.924 133.722 134.061 
133.865 134.177 133.934 134.202 133.945 134.208 133.958 133.038 133.192 
132.904 133.18 132.945 133.292 133.029 133.36 133.073 133.39 133.126 
133.431 133.179 132.476 132.597 132.296 132.449 132.192 132.413 132.155 
132.425 132.151 132.469 132.225 132.566 132.34 132.648 132.433 131.915 
132.037 131.758 131.896 131.64 131.783 131.521 131.672 131.404 131.613 
131.39 131.685 131.507 131.821 131.653 131.956 131.845 131.459 131.52 
131.24 131.356 131.091 131.237 130.962 131.102 130.816 130.966 130.718 
130.932 130.746 131.026 130.875 131.187 131.083 131.437 131.432 137.311 
137.355 137.12 136.674 137.425 137.154 136.699 136.453 135.995 137.598 
137.257 136.762 136.473 135.988 135.755 135.296 137.809 137.467 136.932 
136.568 136.028 135.737 135.25 135.042 134.587 137.89 137.637 137.124 
136.762 136.195 135.827 135.326 135.04 134.618 134.372 133.942 137.889 
137.673 137.203 136.907 136.367 136.018 135.52 135.197 134.796 134.503 
134.116 133.8 133.373 137.934 137.699 137.24 136.959 136.446 136.15 
135.67 135.389 134.974 134.704 134.293 133.998 133.54 133.23 132.774 
137.952 137.744 137.285 137.015 136.515 136.227 135.763 135.503 135.082 
134.833 134.392 134.122 133.639 133.351 132.868 132.601 132.18 137.893 
137.715 137.268 137.046 136.571 136.31 135.859 135.601 135.185 134.926 
134.493 134.208 133.747 133.447 133.003 132.712 132.322 132.058 131.731 
137.721 137.262 137.343 137.067 136.86 136.869 136.544 136.661 136.387 
136.56 136.483 136.088 136.14 135.848 135.978 135.711 136.27 136.188 
135.728 135.706 135.358 135.45 135.179 135.311 135.043 135.769 135.808 
135.337 135.34 134.947 134.988 134.67 134.77 134.476 134.617 134.326 
135.081 135.193 134.759 134.864 134.486 134.566 134.207 134.27 133.923 
134.029 133.71 133.866 133.572 134.49 134.535 134.118 134.23 133.877 
134.029 133.675 133.773 133.381 133.467 133.122 133.26 132.972 133.128 
132.859 133.998 134.014 133.566 133.624 133.253 133.394 133.072 133.202 
132.823 132.903 132.525 132.657 132.374 132.551 132.303 132.454 132.209 
133.39 133.469 132.99 133.071 132.675 132.798 132.504 132.637 132.33 
132.385 132.006 132.066 131.743 131.919 131.689 131.896 131.676 131.837 
131.623 132.817 131.959 132.38 132.473 131.584 131.697 131.757 132.112 
132.233 131.539 131.463 131.328 131.509 131.589 131.957 132.105 131.264 
131.269 130.92 131.056 130.989 131.341 131.464 131.86 131.951 130.752 
130.816 130.476 130.575 130.445 130.723 130.792 131.181 131.232 131.607 
131.607 130.273 130.34 130.158 130.229 130.179 130.296 130.318 130.536 
130.529 130.837 130.818 131.212 131.289 129.749 129.86 129.658 129.888 
129.841 130.061 130.009 130.149 130.042 130.205 130.159 130.463 130.581 
131.011 131.236 129.297 129.301 128.941 129.188 129.003 129.426 129.316 
129.679 129.558 129.78 129.738 129.954 130.086 130.409 130.658 131.055 
131.287 129.243 129.016 128.631 128.552 128.29 128.494 128.405 128.804 
128.835 129.225 129.332 129.621 129.795 130.044 130.263 130.555 130.771 
131.106 131.281 132.898 132.801 132.495 131.993 132.993 132.506 132.005 
131.798 131.651 133.384 132.816 132.266 131.942 131.844 131.76 131.769 
133.751 133.222 132.602 132.214 131.992 131.946 131.979 131.885 131.651 
134.154 133.628 133.047 132.549 132.183 132.014 131.956 131.967 131.794 
131.572 131.12 134.714 134.177 133.741 133.137 132.774 132.318 132.162 
131.97 131.856 131.67 131.34 131.013 130.577 135.266 134.808 134.453 
133.924 133.598 133.053 132.81 132.375 132.2 131.874 131.631 131.283 
130.912 130.532 130.117 135.656 135.291 134.911 134.532 134.176 133.772 
133.44 133.023 132.708 132.319 132.006 131.644 131.298 130.913 130.527 
130.111 129.739 135.93 135.602 135.205 134.879 134.508 134.184 133.827 
133.487 133.125 132.763 132.389 132.021 131.648 131.287 130.929 130.554 
130.242 129.843 129.627 133.554 134.534 133.873 133.524 135.463 134.881 
134.66 133.964 133.728 136.458 135.844 135.667 135.065 134.894 134.253 
134.086 137.586 136.937 136.731 136.075 135.894 135.314 135.16 134.574 
134.4 138.545 138.047 137.908 137.241 137.055 136.364 136.205 135.58 
135.426 134.833 134.709 139.297 138.907 138.882 138.381 138.283 137.626 
137.464 136.735 136.552 135.868 135.736 135.171 135.153 140.192 139.718 
139.716 139.27 139.22 138.734 138.587 137.975 137.722 137.029 136.801 
136.192 136.114 135.641 135.661 141.235 140.711 140.654 140.134 140.029 
139.56 139.41 138.923 138.668 138.079 137.781 137.196 137.037 136.563 
136.538 136.109 136.081 142.14 141.692 141.566 141.053 140.87 140.367 
140.198 139.71 139.508 138.952 138.681 138.099 137.899 137.422 137.365 
136.955 136.915 136.469 136.372 142.526 142.775 142.429 141.917 142.925 
142.604 142.083 141.742 141.208 142.948 142.702 142.188 141.89 141.396 
141.055 140.548 142.642 142.57 142.054 141.918 141.455 141.231 140.747 
140.405 139.852 142.068 142.099 141.63 141.656 141.268 141.204 140.769 
140.537 139.965 139.622 139.006 141.568 141.562 141.282 141.319 141.173 
141.096 140.805 140.543 140.031 139.686 139.096 138.759 138.234 141.294 
141.235 141.145 141.199 141.318 141.256 141.145 140.771 140.292 139.814 
139.251 138.878 138.409 138.102 137.71 141.214 141.116 141.045 141.133 
141.252 141.383 141.298 141.122 140.592 140.136 139.465 139.058 138.545 
138.27 137.87 137.618 137.233 141.231 141.117 140.958 140.985 140.89 
141.068 140.83 140.927 140.364 140.205 139.478 139.195 138.591 138.349 
137.897 137.693 137.274 137.066 136.651 141.141 140.745 140.929 140.861 
140.083 140.421 140.35 140.606 140.609 139.328 139.7 139.613 139.925 
139.789 140.217 140.26 138.623 138.978 138.929 139.192 138.989 139.274 
139.145 139.703 139.71 137.85 138.245 138.214 138.543 138.388 138.571 
138.366 138.656 138.589 139.086 139.013 136.998 137.38 137.289 137.727 
137.589 137.92 137.707 137.969 137.822 138.152 138.073 138.438 138.299 
136.281 136.533 136.401 136.775 136.653 137.029 136.835 137.182 137.001 
137.378 137.249 137.614 137.47 137.791 137.63 135.769 135.895 135.758 
136.012 135.982 136.248 136.155 136.365 136.209 136.498 136.389 136.763 
136.644 136.986 136.822 137.145 136.993 135.361 135.429 135.268 135.471 
135.507 135.764 135.792 135.916 135.785 135.867 135.732 135.966 135.895 
136.199 136.08 136.361 136.204 136.513 136.38 135.937 135.772 135.638 
135.234 135.677 135.525 135.108 134.95 134.55 135.52 135.421 135.011 
134.849 134.398 134.258 133.859 135.403 135.262 134.863 134.711 134.256 
134.105 133.655 133.549 133.156 135.532 135.285 134.881 134.601 134.137 
133.944 133.502 133.364 132.924 132.822 132.418 135.583 135.454 135.05 
134.724 134.182 133.875 133.389 133.209 132.744 132.597 132.113 132.036 
131.634 135.27 135.318 134.946 134.807 134.257 133.957 133.384 133.123 
132.599 132.4 131.865 131.725 131.258 131.244 130.9 134.979 134.944 
134.625 134.579 134.158 133.975 133.46 133.169 132.624 132.316 131.769 
131.517 131.048 130.929 130.598 130.583 130.299 135.045 134.824 134.533 
134.369 134.058 133.893 133.517 133.267 132.795 132.444 131.908 131.542 
131.074 130.832 130.537 130.422 130.208 130.1 129.827 143.662 143.731 
143.853 144.129 143.826 143.947 144.322 144.382 144.557 143.914 144.068 
144.505 144.638 144.95 144.809 144.77 143.713 144.011 144.387 144.728 
145.087 145.177 145.214 144.949 144.741 143.237 143.59 143.829 144.329 
144.61 145.028 145.087 145.185 144.999 144.82 144.576 142.814 143.074 
143.253 143.655 143.872 144.327 144.414 144.757 144.673 144.818 144.645 
144.581 144.351 142.434 142.666 142.789 143.116 143.298 143.653 143.777 
144.084 144.12 144.366 144.332 144.466 144.328 144.277 144.007 141.946 
142.188 142.154 142.523 142.565 143.013 143.082 143.492 143.544 143.865 
143.869 144.09 143.991 144.096 143.868 143.831 143.502 141.474 141.642 
141.496 141.766 141.662 142.092 142.057 142.598 142.616 143.151 143.146 
143.543 143.417 143.644 143.398 143.519 143.217 143.238 142.893 143.653 
144.089 143.804 143.586 144.346 144.131 143.828 143.569 143.172 144.369 
144.197 143.773 143.619 143.154 142.966 142.512 144.328 144.135 143.674 
143.484 143.009 142.833 142.371 142.237 141.84 144.273 144.105 143.71 
143.472 143.058 142.785 142.357 142.119 141.728 141.584 141.211 144.088 
144.016 143.634 143.496 143.099 142.899 142.484 142.215 141.796 141.548 
141.149 140.957 140.537 143.735 143.743 143.31 143.273 142.811 142.775 
142.325 142.234 141.784 141.614 141.162 140.945 140.485 140.268 139.818 
143.266 143.323 142.884 142.863 142.38 142.364 141.903 141.901 141.462 
141.435 140.999 140.895 140.42 140.227 139.733 139.541 139.109 142.709 
142.818 142.412 142.421 141.972 141.951 141.527 141.495 141.077 141.046 
140.635 140.613 140.184 140.094 139.605 139.437 138.953 138.818 138.426 
143.391 143.264 143.22 142.998 142.884 142.959 142.685 142.768 142.633 
142.326 142.494 142.231 142.347 142.139 142.343 142.2 141.727 141.938 
141.719 141.843 141.574 141.753 141.529 141.772 141.498 141.066 141.325 
141.12 141.301 141.012 141.159 140.87 141.06 140.77 140.965 140.632 
140.321 140.597 140.348 140.612 140.333 140.551 140.274 140.444 140.158 
140.293 139.993 140.137 139.844 139.595 139.829 139.558 139.8 139.534 
139.803 139.586 139.838 139.601 139.751 139.444 139.551 139.25 139.4 
139.12 138.94 139.148 138.919 139.094 138.854 139.052 138.866 139.131 
138.957 139.175 138.889 139.008 138.664 138.799 138.503 138.675 138.397 
138.309 138.531 138.352 138.531 138.321 138.469 138.271 138.47 138.306 
138.527 138.283 138.427 138.084 138.201 137.882 138.049 137.792 137.968 
137.722 133.839 134.42 134.34 134.715 134.896 134.842 135.215 135.168 
135.569 135.516 135.377 135.784 135.676 136.131 136.071 136.58 136.244 
136.104 136.532 136.352 136.817 136.705 137.249 137.184 137.712 136.752 
136.765 137.172 137.08 137.469 137.386 137.854 137.828 138.293 138.241 
138.613 137.026 137.135 137.543 137.567 137.915 137.909 138.323 138.351 
138.791 138.758 139.105 139.012 139.334 137.301 137.39 137.855 137.899 
138.306 138.297 138.746 138.778 139.297 139.282 139.717 139.573 139.95 
139.804 140.242 137.662 137.711 138.222 138.278 138.775 138.759 139.236 
139.232 139.769 139.801 140.31 140.24 140.656 140.509 140.952 140.831 
141.306 138.066 138.088 138.584 138.67 139.208 139.257 139.744 139.739 
140.2 140.234 140.699 140.743 141.153 141.136 141.53 141.493 141.925 
141.859 142.237 
POINT_DATA 1002
SCALARS Distance double
LOOKUP_TABLE default
141.045 141.349 141.503 140.976 141.499 140.478 140.798 141.344 140.199 
139.699 140.653 141.123 140.036 139.414 138.957 140.529 141.084 140.064 
139.477 138.786 138.265 140.504 141.353 139.925 139.569 138.901 138.08 
137.462 140.624 141.476 139.734 139.263 138.785 137.992 137.247 136.676 
140.535 141.086 139.7 138.993 138.445 137.776 137.122 136.611 136.101 
140.115 140.467 139.541 138.881 138.291 137.672 137.058 136.629 136.221 
135.689 139.657 139.943 139.217 138.634 138.104 137.651 137.111 136.616 
136.266 135.849 135.313 141.762 141.957 142.228 142.339 142.59 141.961 
142.656 142.932 142.276 141.721 143.087 143.411 142.589 141.92 141.451 
143.496 143.74 143.033 142.147 141.597 141.583 143.564 143.7 143.394 
142.559 141.665 141.648 141.879 143.434 143.578 143.532 143.088 141.991 
141.417 141.662 141.687 143.359 143.552 143.535 143.52 142.666 141.576 
141.257 141.36 141.088 143.298 143.489 143.438 143.647 143.251 142.189 
141.347 141.129 140.965 140.502 143.159 143.187 142.858 143.05 142.575 
143.436 142.668 142.041 143.133 143.419 141.835 141.165 142.336 142.689 
142.69 140.837 140.291 141.252 141.574 141.805 141.692 140.004 139.565 
140.303 140.48 140.745 141.054 141.137 139.212 138.841 139.474 139.607 
139.753 140.133 140.601 140.843 138.414 138.124 138.632 138.832 139.014 
139.231 139.639 140.097 140.36 137.739 137.489 137.918 138.133 138.448 
138.684 138.814 139.091 139.486 139.777 139.341 139.055 138.712 138.605 
138.282 137.941 138.315 137.801 137.429 136.991 138.335 137.707 137.014 
136.47 135.953 138.215 137.729 136.895 136.074 135.425 134.918 137.809 
137.403 136.663 135.792 134.99 134.336 133.946 137.487 137.035 136.326 
135.482 134.681 133.892 133.317 133.06 137.294 136.827 136.157 135.308 
134.511 133.719 132.955 132.474 132.242 137.053 136.583 136 135.251 
134.469 133.718 132.932 132.243 131.791 131.487 139.014 138.288 138.426 
137.393 137.528 137.766 136.394 136.619 136.895 137.367 135.384 135.727 
136.084 136.601 137.016 134.435 134.811 135.19 135.682 136.155 136.467 
133.55 133.922 134.244 134.667 135.107 135.557 136.001 132.643 133.002 
133.307 133.722 134.181 134.633 135.184 135.658 131.722 132.021 132.338 
132.782 133.332 133.848 134.382 134.906 135.217 130.799 130.986 130.07 
130.374 129.492 131.319 130.015 129.054 130.894 131.783 129.639 128.794 
130.626 131.445 132.37 129.335 129.01 130.182 131.088 131.98 132.985 
129.547 129.51 129.904 130.72 131.643 132.639 133.612 129.964 129.692 
130.086 130.628 131.536 132.473 133.38 134.2 130.063 129.544 130.295 
130.677 131.505 132.45 133.237 133.912 134.569 129.993 129.5 130.317 
130.662 131.359 132.299 133.12 133.715 134.21 134.742 131.02 130.264 
130.728 129.937 130.565 129.471 129.815 130.493 129.12 128.798 129.833 
130.538 129.091 128.502 128.411 129.94 130.674 129.269 128.694 128.39 
128.555 130.127 130.818 129.541 129.068 128.685 128.648 129.023 130.37 
130.958 129.884 129.455 128.915 128.504 128.617 129.144 130.639 131.152 
130.208 129.807 129.215 128.475 128.063 128.274 128.901 130.943 131.429 
130.469 130.028 129.548 128.941 128.335 128.032 128.238 128.839 136.891 
136.383 136.217 135.651 135.541 135.825 134.988 134.853 135.082 135.194 
134.251 134.13 134.407 134.462 134.468 133.391 133.488 133.526 133.664 
133.679 133.689 132.699 132.929 132.623 132.689 132.738 132.804 132.889 
132.163 132.337 132.026 131.93 131.849 131.866 132.008 132.125 131.612 
131.797 131.501 131.395 131.239 131.124 131.181 131.332 131.501 137.553 
136.916 137.596 136.952 137.727 136.229 137.095 137.974 136.24 135.496 
137.334 138.121 136.369 135.477 134.778 137.458 138.093 136.583 135.635 
134.866 134.21 137.471 138.106 136.682 135.837 135.09 134.435 133.704 
137.523 138.173 136.726 135.932 135.243 134.59 133.857 133.058 137.537 
138.146 136.797 136.023 135.336 134.667 133.921 133.138 132.409 137.462 