# vtk DataFile Version 4.0
vtk output
ASCII
DATASET POLYDATA
POINTS 1002 float
-79.9619 -105.134 55.8211 -80.2171 -105.065 56.6449 -80.7538 -105.203 56.2396 
-80.4564 -105.024 55.5768 -81.234 -104.914 55.9901 -79.6566 -104.943 55.2754 
-80.9842 -104.515 55.4083 -81.5601 -104.265 55.7788 -80.2532 -104.555 55.0788 
-79.5869 -104.442 54.8029 -81.4297 -103.892 55.1014 -81.9766 -103.717 55.3452 
-80.87 -103.96 54.806 -80.3071 -103.938 54.4498 -79.726 -103.844 54.066 
-81.9893 -103.426 54.5784 -82.737 -103.436 54.7318 -81.384 -103.447 54.3766 
-80.8782 -103.454 53.9808 -80.3535 -103.426 53.5346 -79.6949 -103.302 53.1389 
-82.7713 -103.075 54.0352 -83.6001 -103.214 54.2504 -82.0286 -103.012 53.8634 
-81.3939 -103.078 53.4633 -80.785 -103.142 52.9214 -80.1605 -103.08 52.5064 
-79.4346 -102.895 52.2017 -83.5828 -102.87 53.5215 -84.3174 -103.012 53.8026 
-82.7942 -102.704 53.2795 -82.0894 -102.748 52.8793 -81.3466 -102.901 52.296 
-80.6102 -102.965 51.7951 -79.9266 -102.882 51.4554 -79.2021 -102.759 51.1515 
-84.3253 -102.819 52.851 -84.9254 -102.833 53.141 -83.5441 -102.683 52.5216 
-82.7974 -102.669 52.1098 -82.0583 -102.73 51.6168 -81.2503 -102.749 51.1598 
-80.4682 -102.754 50.7857 -79.7342 -102.748 50.4317 -79.0185 -102.759 50.0952 
-84.8747 -102.666 52.1769 -85.3444 -102.545 52.5068 -84.2443 -102.703 51.7267 
-83.4965 -102.79 51.2323 -82.7148 -102.794 50.8532 -81.93 -102.59 50.5995 
-81.1159 -102.44 50.3253 -80.2682 -102.472 49.9604 -79.4747 -102.557 49.5984 
-78.8125 -102.615 49.3399 -85.0777 -102.27 51.833 -85.4866 -102.111 52.2024 
-84.694 -102.451 51.2569 -84.166 -102.708 50.5932 -83.3808 -102.84 50.1724 
-82.5248 -102.591 50.0644 -81.7557 -102.244 49.9472 -80.9269 -102.172 49.6223 
-80.0093 -102.263 49.2432 -79.22 -102.314 49.0026 -78.6536 -102.296 48.9193 
-80.7015 -105.123 57.3301 -81.3305 -105.187 56.8367 -81.1715 -105.201 58.0189 
-81.6881 -104.967 57.5108 -81.5518 -105.094 58.708 -81.6595 -104.664 56.547 
-81.773 -104.432 58.251 -81.7514 -104.656 59.4186 -81.7509 -104.142 57.2283 
-81.8574 -103.916 56.2752 -81.8716 -103.832 58.9212 -81.8519 -104.095 59.9758 
-81.7993 -103.592 57.9077 -82.0794 -103.551 56.8463 -82.5252 -103.578 55.697 
-82.339 -103.551 59.3506 -82.1478 -103.728 60.2783 -82.3458 -103.367 58.397 
-82.65 -103.432 57.3213 -83.2385 -103.565 56.1251 -83.5775 -103.482 55.0457 
-83.0623 -103.528 59.6428 -82.7521 -103.56 60.5162 -83.228 -103.374 58.7209 
-83.5552 -103.432 57.6627 -84.058 -103.604 56.5283 -84.3176 -103.478 55.5075 
-84.3421 -103.21 54.6168 -83.7116 -103.409 59.9903 -83.4128 -103.352 60.787 
-83.8555 -103.251 59.0565 -84.1333 -103.178 57.9973 -84.579 -103.375 56.9224 
-84.7492 -103.322 55.9752 -84.7366 -102.989 55.0528 -84.8565 -102.849 54.0581 
-84.1848 -103.077 60.3499 -83.8464 -102.986 60.9493 -84.257 -102.96 59.4541 
-84.3199 -102.734 58.339 -84.6657 -102.804 57.2743 -84.958 -102.932 56.3806 
-85.0162 -102.696 55.4507 -85.1917 -102.478 54.3329 -85.4079 -102.526 53.2716 
-84.4904 -102.656 60.564 -84.0218 -102.541 60.916 -84.6728 -102.654 59.8205 
-84.612 -102.424 58.6544 -84.7293 -102.254 57.4803 -85.1201 -102.355 56.6076 
-85.4451 -102.381 55.7849 -85.6811 -102.223 54.6955 -85.8857 -102.167 53.5319 
-85.8333 -102.191 52.6885 -84.4724 -102.17 60.6573 -84.9772 -102.314 60.2399 
-84.9634 -101.806 60.3226 -85.3871 -101.929 59.6113 -85.2985 -101.309 59.7143 
-85.0973 -102.275 59.1814 -85.5528 -101.285 58.7073 -85.4207 -100.632 58.8701 
-85.4082 -101.776 58.2195 -85.0214 -101.977 57.7518 -85.7415 -100.505 57.8668 
-85.5664 -100.03 58.01 -85.6387 -101.019 57.3373 -85.4478 -101.395 56.8133 
-85.2821 -101.793 56.6523 -86.1669 -99.9989 57.1312 -85.6913 -99.6386 57.1244 
-86.2137 -100.355 56.8201 -86.0104 -100.774 56.2771 -85.9701 -101.33 55.9717 
-85.8537 -101.923 55.9117 -86.3058 -99.7336 56.287 -85.5828 -99.3112 56.2441 
-86.8446 -99.9941 56.2902 -86.7845 -100.338 56.0019 -86.6068 -101.024 55.5863 
-86.6145 -101.716 55.2696 -86.3095 -102.057 54.9725 -85.9638 -99.4275 55.5207 
-85.4193 -98.9418 55.5956 -86.7448 -99.6719 55.5354 -87.1725 -99.854 55.4413 
-87.0315 -100.546 55.1196 -86.9384 -101.507 54.6996 -86.9115 -101.981 54.2348 
-86.4992 -102.033 53.7872 -85.6522 -98.9965 54.9853 -85.4011 -98.5085 55.1425 
-86.1718 -99.2998 54.8153 -86.8461 -99.3359 54.6111 -87.1199 -99.7126 54.2845 
-87.0312 -100.709 53.8928 -86.9947 -101.552 53.5291 -86.8162 -101.804 53.1592 
-86.3411 -101.909 52.8383 -85.5848 -98.4818 54.4779 -85.4212 -98.039 54.6645 
-85.8015 -98.9039 54.1788 -86.3135 -99.0428 53.8209 -86.8717 -99.1448 53.402 
-87.0954 -99.7387 52.9524 -87.0715 -100.613 52.6456 -86.8571 -101.165 52.5357 
-86.3777 -101.419 52.4608 -85.8519 -101.717 52.3294 -85.1864 -101.665 51.9214 
-85.5874 -101.201 52.0492 -84.9722 -101.226 51.5079 -86.3033 -100.827 51.9446 
-85.5119 -100.763 51.4862 -84.969 -100.909 50.7558 -86.9141 -100.459 51.7674 
-86.283 -100.414 51.2518 -85.5127 -100.496 50.6431 -84.9054 -100.55 49.8979 
-87.0519 -99.9009 51.878 -86.6054 -100.095 51.2537 -85.8749 -100.192 50.6748 
-85.2525 -100.144 49.8557 -84.5767 -100.043 49.2659 -86.8246 -99.3135 52.3002 
-86.3775 -99.6744 51.629 -85.635 -99.8466 51.0877 -85.1967 -99.758 50.138 
-84.8215 -99.6089 49.235 -84.0069 -99.4833 48.9156 -86.3567 -99.0058 52.7537 
-86.0586 -99.206 51.9937 -85.3194 -99.302 51.4824 -84.8746 -99.1647 50.5459 
-84.8203 -99.0352 49.3937 -84.2928 -98.9592 48.8384 -83.2744 -98.8035 48.7265 
-85.8646 -98.7632 53.1662 -85.7579 -98.7402 52.2319 -85.2743 -98.6572 51.604 
-84.8238 -98.3942 50.754 -84.7751 -98.1923 49.5721 -84.4875 -98.1884 48.8506 
-83.5862 -98.1731 48.6801 -82.6432 -98.0377 48.4325 -85.6204 -98.3034 53.5867 
-85.5073 -98.1887 52.5615 -85.193 -98.0521 51.747 -84.8825 -97.7527 50.9241 
-84.7967 -97.4174 49.8014 -84.5533 -97.2977 48.9603 -83.7895 -97.3807 48.7039 
-82.8981 -97.4652 48.4362 -82.3206 -97.477 47.8663 -85.4799 -97.8043 53.933 
-85.344 -97.636 52.9911 -85.0232 -97.5169 52.0932 -84.7468 -97.2992 51.26 
-84.68 -96.9683 50.2188 -84.4797 -96.7133 49.2531 -83.7888 -96.6874 48.8205 
-82.9477 -96.8563 48.5353 -82.431 -97.059 47.9241 -82.2014 -97.1881 47.206 
-84.859 -101.873 51.3528 -84.739 -101.519 50.7417 -84.6372 -102.213 50.5175 
-84.6006 -101.135 50.0243 -84.4567 -101.863 49.9083 -84.0786 -102.533 49.8352 
-84.228 -100.583 49.4445 -83.961 -101.276 49.5164 -83.6457 -101.988 49.4687 
-83.117 -102.47 49.629 -83.6535 -99.9712 49.0608 -83.3314 -100.595 49.1776 
-83.0019 -101.262 49.1853 -82.6409 -101.829 49.2589 -82.2399 -102.13 49.551 
-82.9435 -99.2945 48.7578 -82.7508 -99.9175 48.7319 -82.5167 -100.589 48.6596 
-82.2137 -101.252 48.6511 -81.9236 -101.782 48.8317 -81.4924 -102.02 49.2073 
-82.3053 -98.4805 48.3619 -82.174 -99.1118 48.2393 -82.0921 -99.8261 48.1108 
-81.8527 -100.537 48.0798 -81.5676 -101.331 48.1274 -81.1682 -101.915 48.3386 
-80.5616 -102.114 48.7753 -82.018 -97.7949 47.7426 -81.7826 -98.3369 47.6753 
-81.632 -99.0504 47.6525 -81.3843 -99.6695 47.7757 -81.0671 -100.384 47.9123 
-80.7248 -101.289 47.9241 -80.1934 -101.887 48.1086 -79.6026 -102.105 48.5573 
-81.9852 -97.4235 47.0635 -81.6561 -97.8355 47.0871 -81.3164 -98.5161 47.163 
-80.9412 -99.1181 47.361 -80.5367 -99.528 47.7093 -80.2035 -100.207 47.886 
-79.8307 -101.088 47.9077 -79.3342 -101.665 48.1543 -78.9057 -101.977 48.5757 
-81.9924 -97.08 46.5794 -81.646 -97.3814 46.6304 -81.4294 -96.82 46.422 
-80.8673 -97.278 46.6088 -80.3683 -96.427 46.5522 -81.1603 -97.9701 46.7485 
-79.7525 -97.0733 46.6162 -79.1932 -96.1452 46.522 -80.2894 -98.0909 46.5348 
-80.6451 -98.7629 46.7802 -78.7231 -96.9013 46.5327 -78.3554 -96.1053 46.5319 
-79.2499 -98.0296 46.3327 -79.7504 -98.9564 46.3322 -80.1259 -99.2327 47.0174 
-78.0048 -96.8372 46.7769 -77.831 -96.2033 46.9982 -78.3548 -97.8051 46.5495 
-78.8298 -98.879 46.273 -79.2763 -99.3529 46.635 -79.7028 -99.5269 47.4759 
-77.504 -96.8703 47.3408 -77.3324 -96.3445 47.6743 -77.7753 -97.5706 47.1954 
-78.1284 -98.5368 46.9786 -78.5058 -99.2981 46.8748 -78.9266 -99.656 47.2912 
-79.3816 -100.203 47.7702 -76.992 -96.9904 47.9025 -76.7418 -96.5036 48.2112 
-77.3357 -97.5019 47.7715 -77.6705 -98.2166 47.748 -77.8979 -99.057 47.6121 
-78.1909 -99.7133 47.5935 -78.6168 -100.277 47.8322 -79.0075 -100.986 48.0339 
-76.3317 -97.1408 48.4043 -76.0926 -96.6691 48.624 -76.7068 -97.6113 48.2533 
-77.0855 -98.1676 48.1884 -77.2825 -98.9135 48.084 -77.4505 -99.6875 47.9945 
-77.8335 -100.322 48.1067 -78.288 -100.918 48.3155 -78.6169 -101.516 48.4441 
-75.5668 -97.2579 48.8235 -75.4164 -96.8239 48.9809 -75.8803 -97.7635 48.7273 
-76.2355 -98.3131 48.6035 -76.461 -98.9878 48.3771 -76.6311 -99.7472 48.1976 
-76.9879 -100.386 48.2806 -77.5187 -100.906 48.5321 -77.9851 -101.442 48.7051 
-78.3219 -101.948 48.7811 -82.1425 -96.8339 47.0623 -81.9264 -96.5454 46.4685 
-81.9521 -96.2268 47.1221 -81.7813 -95.6131 46.5853 -81.7862 -95.4518 47.3846 
-81.2383 -96.0075 46.3516 -81.6336 -94.6791 46.9066 -81.6984 -94.8732 47.8538 
-81.0107 -94.9433 46.4248 -79.9971 -95.5183 46.3954 -81.3669 -94.3688 47.4917 
-81.5413 -94.6058 48.5804 -80.7292 -94.2951 46.7723 -79.6512 -94.6622 46.4231 
-78.8079 -95.3685 46.3789 -80.8788 -94.4756 48.4549 -81.2275 -94.4288 49.4979 
-80.3111 -94.4478 47.5486 -79.3639 -94.3775 46.9475 -78.5347 -94.7264 46.6765 
-78.1294 -95.4637 46.7513 -80.3172 -94.4453 49.609 -80.8442 -94.3354 50.4337 
-79.8073 -94.6632 48.715 -79.1218 -94.5914 47.9284 -78.3555 -94.4773 47.4508 
-77.8973 -94.873 47.3811 -77.6346 -95.6252 47.538 -79.8806 -94.4168 50.5915 
-80.505 -94.4173 51.3062 -79.3474 -94.5279 49.8735 -78.8239 -94.5971 49.1147 
-78.1145 -94.4713 48.4295 -77.4733 -94.519 48.0688 -77.1745 -95.0416 48.0786 
-76.9896 -95.8019 48.1779 -79.5949 -94.5556 51.3786 -80.2043 -94.5219 52.1236 
-79.0072 -94.4906 50.7295 -78.4571 -94.4448 50.1633 -77.7533 -94.4027 49.5363 
-76.9281 -94.3768 48.8755 -76.4466 -94.635 48.4944 -76.3882 -95.2683 48.486 
-76.3274 -96.022 48.5767 -79.3438 -94.6233 52.1734 -79.8646 -94.5154 52.868 
-78.7488 -94.597 51.4839 -78.1182 -94.4925 50.9642 -77.4292 -94.4297 50.5432 
[...]
CELL_DATA 2000
SCALARS Distance double
LOOKUP_TABLE default
142.756 142.858 142.651 142.259 142.675 142.626 142.237 142.076 141.672 
142.337 142.35 142.02 141.956 141.566 141.442 141.04 142.153 142.061 
141.759 141.705 141.351 141.275 140.886 140.774 140.338 142.202 141.984 
141.636 141.503 141.164 141.066 140.694 140.59 140.178 140.037 139.567 
142.334 142.077 141.677 141.453 141.098 140.941 140.588 140.439 140.054 
139.897 139.489 139.299 138.871 142.413 142.206 141.817 141.544 141.168 
140.945 140.604 140.403 140.03 139.83 139.442 139.257 138.871 138.675 
138.307 142.334 142.24 141.902 141.686 141.32 141.075 140.737 140.489 
140.118 139.861 139.452 139.232 138.831 138.655 138.274 138.122 137.784 
142.062 142.07 141.767 141.693 141.373 141.215 140.892 140.659 140.282 
139.989 139.561 139.281 138.868 138.638 138.253 138.066 137.712 137.582 
137.281 143.088 143.663 143.351 143.225 144.101 143.833 143.601 143.304 
142.986 144.253 144.059 143.67 143.48 143.096 142.9 142.575 144.207 
144.039 143.589 143.414 143.073 142.946 142.757 142.582 142.436 144.258 
144.044 143.749 143.462 143.299 143.086 143.118 142.917 142.955 142.648 
142.584 144.546 144.305 144.213 143.87 143.846 143.562 143.699 143.468 
143.565 143.252 143.188 142.826 142.701 144.91 144.727 144.665 144.391 
144.291 144.09 144.111 144.005 143.99 143.78 143.576 143.297 143.069 
142.835 142.675 145.105 145.046 144.932 144.734 144.467 144.299 144.112 
144.126 144.016 143.986 143.72 143.52 143.196 143.025 142.824 142.707 
142.54 145.038 145.117 145.042 144.916 144.614 144.364 144.024 143.94 
143.778 143.839 143.698 143.609 143.367 143.155 142.96 142.8 142.655 
142.511 142.298 144.927 144.824 144.964 145.001 144.557 144.801 144.781 
144.84 144.579 143.935 144.331 144.258 144.464 144.154 144.209 143.904 
143.202 143.585 143.512 143.79 143.543 143.7 143.472 143.621 143.579 
142.66 142.97 143.016 143.175 143.081 143.171 143.131 143.274 143.361 
143.517 143.575 142.117 142.51 142.714 142.909 142.964 142.976 143.05 
143.115 143.326 143.429 143.539 143.529 143.411 141.46 141.912 142.137 
142.545 142.638 142.861 142.876 143.053 143.189 143.399 143.513 143.55 
143.415 143.285 143.046 140.862 141.237 141.371 141.819 141.858 142.27 
142.195 142.578 142.552 142.986 143.014 143.332 143.185 143.231 142.927 
142.872 142.641 140.334 140.644 140.692 141.044 141.039 141.406 141.333 
141.71 141.646 142.104 142.101 142.576 142.481 142.772 142.486 142.594 
142.279 142.381 142.18 141.833 141.864 141.618 141.226 142.004 141.697 
141.249 141.024 140.674 141.992 141.801 141.353 141.107 140.712 140.505 
140.143 141.668 141.655 141.27 141.158 140.753 140.553 140.115 139.912 
139.452 141.246 141.271 140.948 140.96 140.563 140.468 139.97 139.816 
139.294 139.134 138.615 140.923 140.9 140.575 140.598 140.189 140.144 
139.588 139.509 138.95 138.889 138.364 138.249 137.686 140.643 140.6 
140.218 140.216 139.773 139.724 139.132 139.041 138.439 138.427 137.917 
137.914 137.375 137.262 136.662 140.346 140.301 139.871 139.831 139.353 
139.297 138.727 138.611 138.004 137.923 137.395 137.401 136.906 136.883 
136.341 136.234 135.717 140.03 139.994 139.56 139.481 138.99 138.901 
138.378 138.26 137.715 137.576 137.049 136.949 136.455 136.406 135.925 
135.883 135.439 135.382 135.031 141.75 141.156 141.465 141.475 140.61 
140.89 140.94 141.216 141.188 140.039 140.337 140.362 140.686 140.691 
140.917 140.779 139.303 139.657 139.597 140.004 139.953 140.316 140.165 
140.401 140.137 138.445 138.814 138.687 139.114 139.003 139.435 139.277 
139.643 139.411 139.668 139.385 137.485 137.879 137.71 138.149 138.024 
138.45 138.326 138.72 138.593 138.916 138.732 138.943 138.706 136.44 
136.839 136.635 137.112 136.995 137.467 137.363 137.795 137.726 138.129 
138.05 138.329 138.138 138.305 138.081 135.537 135.832 135.642 136.047 
135.967 136.437 136.361 136.814 136.723 137.204 137.147 137.59 137.456 
137.725 137.495 137.684 137.503 134.928 135.098 134.96 135.209 135.174 
135.527 135.512 135.875 135.781 136.176 136.088 136.578 136.509 136.944 
136.794 137.075 136.905 137.143 137.051 134.617 134.155 134.485 134.657 
133.485 133.98 134.239 134.586 134.855 132.617 133.233 133.616 134.128 
134.462 134.841 135.146 131.882 132.402 132.847 133.445 133.869 134.374 
134.675 135.067 135.339 131.555 131.845 132.26 132.742 133.215 133.744 
134.107 134.533 134.794 135.208 135.561 131.525 131.67 132.014 132.315 
132.777 133.194 133.627 134.01 134.337 134.695 135.055 135.508 135.964 
131.529 131.661 131.955 132.164 132.573 132.885 133.321 133.645 134.017 
134.326 134.699 135.07 135.498 135.94 136.335 131.454 131.617 131.886 
132.091 132.43 132.703 133.076 133.381 133.729 134.041 134.398 134.748 
135.147 135.527 135.904 136.27 136.558 131.306 131.487 131.727 131.961 
132.254 132.518 132.823 133.108 133.41 133.725 134.055 134.415 134.792 
135.175 135.551 135.9 136.216 136.508 136.764 134.508 134.065 134.214 
133.993 133.465 133.646 133.36 133.558 133.226 132.964 133.008 132.618 
132.788 132.383 132.623 132.266 132.799 132.636 132.175 132.113 131.651 
131.75 131.404 131.68 131.511 132.839 132.611 132.2 131.927 131.46 
131.245 130.896 130.955 130.883 131.163 131.244 132.884 132.679 132.353 
132.102 131.714 131.345 130.949 130.715 130.594 130.702 130.844 131.106 
131.273 132.991 132.747 132.423 132.233 131.911 131.642 131.225 130.901 
130.575 130.501 130.48 130.714 130.856 131.153 131.273 133.198 132.913 
132.559 132.313 131.984 131.771 131.384 131.107 130.652 130.443 130.164 
130.274 130.294 130.642 130.776 131.11 131.202 133.364 133.127 132.775 
132.492 132.133 131.871 131.523 131.249 130.85 130.53 130.168 130.01 
129.929 130.103 130.287 130.611 130.799 131.056 131.126 139.71 139.022 
139.338 139.224 138.292 138.612 138.491 138.786 138.63 137.566 137.877 
137.741 138.035 137.856 138.156 137.992 136.776 137.101 136.916 137.245 
137.04 137.356 137.167 137.503 137.343 135.975 136.259 136.037 136.369 
136.163 136.504 136.319 136.666 136.5 136.842 136.687 135.307 135.501 
135.277 135.529 135.353 135.655 135.506 135.829 135.669 135.994 135.813 
136.164 136.031 134.74 134.9 134.665 134.848 134.649 134.903 134.741 
135.042 134.86 135.164 134.949 135.273 135.107 135.514 135.457 134.192 
134.353 134.1 134.252 133.986 134.2 133.969 134.256 134.028 134.331 
134.09 134.405 134.239 134.617 134.583 135.016 135.04 133.688 133.826 
133.572 133.685 133.389 133.537 133.276 133.494 133.26 133.507 133.274 
133.554 133.407 133.777 133.791 134.219 134.311 134.699 134.748 139.829 
139.768 139.592 139.157 139.759 139.539 139.084 138.877 138.423 139.796 
139.568 139.107 138.843 138.373 138.159 137.718 139.724 139.577 139.149 
138.907 138.431 138.161 137.692 137.463 136.987 139.56 139.449 139.048 
138.894 138.423 138.201 137.698 137.46 136.962 136.718 136.223 139.465 
139.309 138.905 138.755 138.279 138.1 137.579 137.398 136.897 136.7 
136.216 135.983 135.54 139.405 139.239 138.827 138.648 138.179 137.96 
137.44 137.237 136.752 136.593 136.135 135.956 135.503 135.32 134.926 
139.295 139.151 138.73 138.571 138.124 137.91 137.419 137.167 136.692 
136.48 136.034 135.848 135.381 135.214 134.781 134.676 134.328 139.156 
139.019 138.594 138.449 138.013 137.846 137.393 137.179 136.721 136.486 
136.033 135.794 135.315 135.087 134.623 134.484 134.127 134.077 133.803 
138.927 138.349 138.553 138.356 137.77 137.966 137.777 137.964 137.766 
137.256 137.424 137.229 137.387 137.164 137.357 137.15 136.642 136.865 
136.611 136.807 136.52 136.719 136.474 136.713 136.497 135.854 136.107 
135.779 136.06 135.72 135.984 135.689 135.98 135.755 136.034 135.805 
135.191 135.314 134.973 135.184 134.877 135.131 134.868 135.162 134.954 
135.256 135.029 135.3 135.049 134.773 134.794 134.48 134.535 134.268 
134.398 134.189 134.405 134.242 134.497 134.302 134.533 134.291 134.536 
134.338 134.368 134.436 134.148 134.171 133.884 133.926 133.666 133.799 
133.585 133.812 133.61 133.846 133.631 133.845 133.678 133.926 133.854 
133.882 134.007 133.766 133.838 133.557 133.58 133.255 133.3 132.969 
133.121 132.836 133.098 132.886 133.183 133.051 133.332 133.283 133.558 
133.556 133.545 133.065 133.357 133.453 132.537 132.87 132.947 133.239 
133.27 131.823 132.252 132.347 132.709 132.715 132.984 132.946 131.146 
131.502 131.658 132.074 132.139 132.418 132.327 132.586 132.564 130.949 
131.043 131.242 131.501 131.694 131.917 131.872 132.004 131.909 132.21 
132.33 131.085 131.079 131.219 131.288 131.452 131.599 131.633 131.683 
131.579 131.672 131.743 132.101 132.395 131.084 131.165 131.15 131.21 
131.119 131.293 131.245 131.438 131.375 131.465 131.496 131.681 131.962 
132.318 132.678 130.974 131.038 130.901 130.93 130.617 130.746 130.543 
130.868 130.865 131.178 131.266 131.494 131.725 132.008 132.371 132.684 
133.008 131.022 130.954 130.802 130.684 130.357 130.261 130.018 130.171 
130.241 130.61 130.857 131.2 131.467 131.765 132.082 132.405 132.738 
133.028 133.301 133.507 133.406 133.288 133.033 133.548 133.266 132.926 
132.812 132.511 133.858 133.472 133.011 132.747 132.341 132.219 131.816 
134.173 133.779 133.245 132.863 132.375 132.117 131.684 131.505 131.156 
134.512 134.109 133.598 133.127 132.605 132.235 131.824 131.53 131.203 
131.008 130.904 134.941 134.524 134.073 133.55 133.02 132.546 132.131 
131.779 131.451 131.169 130.97 130.9 130.951 135.336 134.965 134.54 
134.065 133.552 133.029 132.593 132.169 131.837 131.471 131.169 130.95 
130.826 130.897 130.949 135.604 135.287 134.871 134.496 134.042 133.573 
133.156 132.699 132.403 131.966 131.687 131.256 131.029 130.819 130.799 
130.858 130.928 135.833 135.517 135.135 134.808 134.443 134.052 133.701 
133.273 133.008 132.595 132.396 131.925 131.725 131.26 131.173 130.922 
131.009 130.955 131.068 133.827 134.399 133.949 133.748 135.215 134.634 
134.437 134.001 133.942 136.217 135.566 135.344 134.797 134.734 134.314 
134.307 137.213 136.619 136.412 135.788 135.649 135.142 135.08 134.664 
134.609 138.132 137.603 137.482 136.885 136.733 136.122 135.972 135.437 
135.328 134.916 134.883 139.137 138.558 138.462 137.915 137.825 137.24 
137.113 136.456 136.311 135.718 135.674 135.25 135.297 140.218 139.622 
139.481 138.9 138.803 138.274 138.202 137.624 137.513 136.857 136.774 
136.183 136.195 135.731 135.746 141.09 140.637 140.524 139.965 139.858 
139.276 139.185 138.639 138.543 137.995 137.887 137.322 137.243 136.705 
136.643 136.147 136.055 141.651 141.372 141.359 140.966 140.943 140.395 
140.308 139.679 139.554 138.963 138.837 138.309 138.18 137.679 137.542 
137.043 136.899 136.406 136.272 141.882 142.268 141.953 141.71 142.747 
142.402 142.193 141.815 141.442 143.217 142.857 142.589 142.27 141.906 
141.456 140.87 143.609 143.255 142.848 142.542 142.147 141.83 141.276 
140.766 140.079 143.749 143.528 143.018 142.693 142.212 141.972 141.505 
141.126 140.471 139.934 139.283 143.482 143.474 142.98 142.745 142.178 
141.969 141.519 141.295 140.722 140.277 139.568 139.111 138.536 143.038 
143.092 142.701 142.598 142.068 141.882 141.395 141.242 140.714 140.419 
139.714 139.307 138.644 138.331 137.838 142.755 142.712 142.404 142.339 
141.949 141.781 141.329 141.129 140.626 140.366 139.737 139.38 138.73 
138.4 137.876 137.627 137.186 142.663 142.536 142.236 142.147 141.845 
141.712 141.329 141.114 140.63 140.343 139.781 139.436 138.864 138.515 
138.014 137.704 137.261 136.992 136.571 142.515 142.066 142.218 142.066 
141.515 141.727 141.591 141.779 141.646 140.886 141.131 140.963 141.212 
141.05 141.297 141.112 140.161 140.444 140.215 140.488 140.247 140.56 
140.332 140.637 140.371 139.347 139.64 139.381 139.673 139.382 139.682 
139.409 139.747 139.486 139.805 139.502 138.615 138.823 138.554 138.819 
138.563 138.835 138.573 138.849 138.607 138.907 138.661 138.938 138.644 
138.075 138.186 137.908 138.067 137.836 138.066 137.847 138.083 137.836 
138.085 137.847 138.123 137.872 138.117 137.835 137.61 137.716 137.448 
137.528 137.259 137.407 137.174 137.384 137.129 137.346 137.066 137.319 
137.054 137.331 137.058 137.317 137.052 137.139 137.266 137.026 137.102 
136.8 136.877 136.586 136.735 136.475 136.659 136.389 136.58 136.311 
136.533 136.273 136.521 136.268 136.539 136.327 135.867 135.781 135.593 
135.178 135.802 135.564 135.135 134.938 134.531 135.878 135.628 135.216 
134.961 134.527 134.293 133.854 135.968 135.725 135.329 135.069 134.619 
134.331 133.861 133.618 133.199 136.049 135.811 135.422 135.183 134.748 
134.443 133.956 133.663 133.242 133.021 132.632 136.184 135.907 135.523 
135.276 134.881 134.592 134.128 133.797 133.366 133.104 132.732 132.48 
132.044 136.436 136.111 135.734 135.423 135.043 134.747 134.324 133.995 
133.561 133.263 132.901 132.632 132.257 131.92 131.514 136.685 136.396 
136.03 135.692 135.297 134.958 134.546 134.208 133.793 133.476 133.122 
132.846 132.537 132.217 131.889 131.522 131.267 136.815 136.601 136.258 
135.975 135.584 135.243 134.827 134.469 134.074 133.736 133.402 133.105 
132.829 132.537 132.267 131.939 131.691 131.386 131.24 144.963 145.079 
145.015 144.967 144.881 144.992 144.982 145.02 145.002 144.581 144.734 
144.79 144.928 144.99 145.025 144.916 144.503 144.587 144.793 144.844 
145.035 145.043 145.047 144.884 144.626 144.592 144.675 144.955 144.99 
145.212 145.206 145.257 145.091 144.88 144.579 144.268 144.523 144.694 
144.818 144.996 145.049 145.23 145.181 145.214 144.959 144.792 144.431 
144.208 143.885 144.158 144.387 144.305 144.565 144.468 144.774 144.679 
144.905 144.673 144.693 144.304 144.208 143.799 143.698 143.32 143.602 
143.831 143.676 143.921 143.852 144.139 144.163 144.396 144.324 144.374 
144.088 143.997 143.589 143.487 143.078 143.012 142.648 143.018 143.22 
143.084 143.311 143.308 143.603 143.723 143.996 144.031 144.125 143.925 
143.838 143.484 143.327 142.949 142.803 142.466 142.376 142.106 144.741 
144.783 144.61 144.318 144.878 144.713 144.401 144.179 143.887 144.745 
144.73 144.418 144.254 143.877 143.731 143.448 144.342 144.43 144.128 
144.132 143.745 143.654 143.278 143.218 142.892 143.956 143.983 143.673 
143.731 143.413 143.422 143.052 142.998 142.612 142.566 142.193 143.63 
143.641 143.27 143.275 142.919 142.998 142.666 142.71 142.316 142.271 
141.852 141.82 141.457 143.144 143.267 142.865 142.857 142.364 142.421 
142.028 142.193 141.846 141.925 141.515 141.487 141.097 141.099 140.788 
142.54 142.729 142.418 142.432 141.938 141.879 141.425 141.516 141.224 
141.389 141.09 141.138 140.773 140.76 140.432 140.458 140.178 142.027 
142.189 142.011 142.051 141.694 141.568 141.14 141.056 140.768 140.845 
140.632 140.713 140.405 140.417 140.067 140.094 139.787 139.845 139.564 
144.712 144.244 144.507 144.581 143.81 144.028 144.072 144.362 144.361 
143.408 143.614 143.596 143.835 143.789 144.025 143.825 142.856 143.141 
143.061 143.31 143.179 143.418 143.221 143.392 143.119 142.15 142.486 
142.365 142.654 142.476 142.752 142.563 142.793 142.561 142.716 142.489 
141.448 141.768 141.664 141.925 141.745 142.006 141.855 142.136 141.968 
142.163 141.914 142.085 141.863 140.793 141.095 141.023 141.271 141.104 
141.316 141.158 141.435 141.324 141.575 141.37 141.513 141.246 141.424 
141.227 140.162 140.448 140.362 140.635 140.474 140.695 140.501 140.751 
140.624 140.92 140.782 140.981 140.749 140.871 140.658 140.836 140.694 
139.542 139.808 139.698 139.966 139.817 140.053 139.866 140.093 139.943 
140.223 140.116 140.379 140.207 140.378 140.158 140.317 140.147 140.346 
140.204 134.062 134.612 134.432 134.647 135.105 135.012 135.327 135.142 
135.475 135.588 135.523 135.955 135.853 136.262 136.069 136.46 136.235 
136.091 136.555 136.484 136.929 136.809 137.167 137.01 137.361 136.918 
136.764 137.155 137.089 137.5 137.411 137.718 137.594 137.898 137.821 
138.202 137.449 137.335 137.646 137.621 138.023 137.968 138.298 138.137 
138.463 138.347 138.817 138.75 139.258 137.972 137.82 138.122 138.063 
138.505 138.491 138.933 138.796 139.182 139.01 139.523 139.446 140.044 
139.923 140.399 138.594 138.412 138.742 138.604 139.047 139.008 139.495 
139.435 139.83 139.714 140.127 140.107 140.63 140.644 141.088 140.963 
141.236 139.181 139.051 139.376 139.248 139.632 139.568 139.991 139.957 
140.291 140.224 140.489 140.507 140.871 141.013 141.408 141.469 141.714 
141.606 141.74 
POINT_DATA 1002
SCALARS Distance double
LOOKUP_TABLE default
142.399 142.814 143.056 142.5 143.018 141.877 142.361 142.649 141.851 
141.288 142.042 142.321 141.66 141.188 140.645 141.823 142.319 141.414 
140.98 140.492 139.878 141.813 142.476 141.274 140.805 140.3 139.743 
139.081 141.944 142.582 141.274 140.748 140.213 139.652 139.075 138.46 
142.094 142.566 141.416 140.817 140.25 139.629 139.046 138.493 137.972 
142.062 142.375 141.552 140.995 140.402 139.705 139.024 138.426 137.904 
137.477 141.774 142.038 141.467 141.101 140.584 139.861 139.117 138.466 
137.868 137.367 137 143.397 143.602 143.992 143.91 144.404 143.294 
143.867 144.489 143.237 142.758 143.762 144.372 143.139 142.846 142.671 
144.001 144.402 143.486 143.275 143.238 142.958 144.516 144.723 144.126 
143.931 143.897 143.563 143.045 144.946 145.064 144.535 144.217 144.191 
143.884 143.284 142.878 145.131 145.121 144.722 144.147 143.974 143.885 
143.392 142.915 142.681 145.1 144.895 144.897 144.225 143.703 143.66 
143.55 143.161 142.806 142.48 144.787 145.008 144.678 144.719 144.276 
144.617 143.998 143.531 144.06 143.787 143.227 142.85 143.314 143.257 
143.376 142.835 142.297 142.988 142.946 143.193 143.518 142.401 141.655 
142.908 142.998 143.21 143.579 143.523 141.682 141.045 142.329 142.679 
142.952 143.409 143.552 143.174 140.986 140.556 141.446 141.801 142.106 
142.601 143.036 142.969 142.639 140.391 140.055 140.701 140.973 141.226 
141.609 142.095 142.313 142.175 142.023 141.438 141.394 140.846 141.523 
140.833 140.346 141.57 140.967 140.339 139.746 141.301 140.939 140.355 
139.651 138.962 140.905 140.64 140.113 139.443 138.789 138.094 140.572 
140.249 139.68 138.973 138.436 137.866 137.099 140.257 139.827 139.243 
138.473 137.875 137.441 136.821 136.067 139.947 139.411 138.821 138.119 
137.423 136.889 136.39 135.813 135.272 139.646 139.087 138.471 137.841 
137.187 136.537 135.94 135.446 135.06 134.762 141.185 140.64 140.997 
140.026 140.422 140.654 139.201 139.565 139.874 139.967 138.282 138.579 
138.867 139.09 139.176 137.263 137.587 137.907 138.205 138.484 138.537 
136.156 136.488 136.91 137.273 137.7 137.966 137.912 135.273 135.498 
135.915 136.259 136.639 137.104 137.299 137.275 134.75 134.856 135.17 
135.452 135.632 135.994 136.43 136.654 136.787 134.341 134.366 133.759 
133.815 132.883 134.539 133.003 131.966 134.033 134.817 132.239 131.443 
133.303 134.275 134.934 131.855 131.37 132.687 133.657 134.391 135.06 
131.786 131.422 132.404 133.241 133.984 134.637 135.471 131.777 131.389 
132.303 133.012 133.712 134.358 135.103 135.922 131.688 131.286 132.194 
132.796 133.42 134.055 134.783 135.558 136.234 131.49 131.144 132.004 
132.566 133.11 133.704 134.409 135.186 135.911 136.504 134.423 133.88 
133.895 133.166 133.334 133.037 132.524 133.036 132.164 131.951 132.348 
133.013 131.653 131.139 131.125 132.473 133.033 131.783 130.947 130.604 
130.922 132.536 133.084 132.055 131.307 130.596 130.583 131.028 132.623 
133.269 132.113 131.568 130.804 130.327 130.532 131.011 132.85 133.477 
132.207 131.634 130.953 130.202 129.965 130.387 130.932 133.056 133.561 
132.419 131.773 131.163 130.439 129.866 129.96 130.517 130.951 139.431 
138.94 138.696 138.201 137.981 138.333 137.45 137.27 137.571 137.665 
136.584 136.476 136.716 136.833 137.004 135.718 135.733 135.811 135.966 
136.161 136.338 135.055 135.135 135.061 135.189 135.363 135.485 135.617 
134.513 134.574 134.43 134.459 134.575 134.645 134.718 134.987 133.974 
134.029 133.815 133.713 133.737 133.774 133.853 134.146 134.616 140.002 
139.344 139.958 139.315 140.006 138.592 139.386 140 138.624 137.904 
139.347 139.826 138.715 137.957 137.217 139.176 139.681 138.622 137.933 
137.207 136.463 139.074 139.642 138.468 137.748 137.057 136.43 135.755 
139.004 139.569 138.405 137.666 136.906 136.293 135.684 135.07 138.881 
139.438 138.306 137.662 136.931 136.242 135.568 134.891 134.384 138.741 