# vtk DataFile Version 4.0
vtk output
ASCII
DATASET POLYDATA
POINTS 1002 float
-81.0187 -104.902 56.7837 -81.0038 -105.032 57.4314 -81.5458 -105.032 56.9909 
-81.5314 -105.015 56.1725 -82.1518 -105.027 56.4835 -81.0689 -104.756 56.0711 
-82.1437 -105.111 55.6417 -82.8759 -105.001 56.0752 -81.5161 -104.968 55.3966 
-81.0406 -104.519 55.3174 -82.8501 -104.946 55.4536 -83.5436 -104.839 55.8821 
-82.132 -104.954 55.0327 -81.465 -104.592 54.7948 -81.0095 -103.987 54.7266 
-83.3934 -104.426 55.4768 -83.8985 -104.373 55.8167 -82.7912 -104.44 55.0254 
-82.1244 -104.281 54.5913 -81.5226 -103.907 54.3153 -81.0947 -103.415 54.1016 
-83.7985 -103.834 55.335 -84.2428 -103.8 55.6213 -83.2707 -103.717 54.9568 
-82.7098 -103.598 54.4941 -82.1866 -103.566 54.0252 -81.6319 -103.486 53.5212 
-81.0737 -103.21 53.0783 -84.4618 -103.559 54.8421 -84.9887 -103.574 55.1106 
-83.8491 -103.317 54.5811 -83.1828 -103.046 54.2673 -82.6638 -103.056 53.8079 
-82.1808 -103.288 53.1143 -81.5186 -103.344 52.4276 -80.8643 -103.035 52.0838 
-85.2538 -103.59 54.1347 -85.8336 -103.625 54.4527 -84.6277 -103.306 53.9644 
-83.9069 -102.921 53.8668 -83.1845 -102.757 53.5831 -82.6134 -102.902 52.9201 
-82.0219 -103.095 52.1001 -81.3445 -102.971 51.6269 -80.7817 -102.54 51.5691 
-85.7642 -103.561 53.5497 -86.3461 -103.515 53.9626 -85.1674 -103.373 53.336 
-84.6256 -103.021 53.2925 -83.9569 -102.771 53.1235 -83.178 -102.722 52.6019 
-82.5004 -102.786 51.8569 -81.9175 -102.767 51.2855 -81.379 -102.48 51.1254 
-80.896 -102.075 51.1584 -86.058 -103.29 53.2504 -86.5798 -103.146 53.7046 
-85.4295 -103.275 52.9432 -84.9632 -103.067 52.7773 -84.5555 -102.849 52.5204 
-83.8606 -102.742 52.0161 -83.0192 -102.7 51.4064 -82.3875 -102.676 50.8812 
-81.9391 -102.549 50.5759 -81.4889 -102.251 50.5036 -80.9717 -101.961 50.4814 
-81.425 -105.073 57.9802 -82.0364 -105.023 57.5882 -81.8836 -105.045 58.6887 
-82.5289 -104.983 58.3095 -82.2207 -105.01 59.3099 -82.7412 -104.951 57.1319 
-82.9016 -104.948 58.9397 -82.5715 -104.969 59.8318 -83.3227 -104.983 57.8909 
-83.573 -104.993 56.684 -83.2822 -104.846 59.4859 -83.143 -104.951 60.4342 
-83.7063 -104.985 58.5789 -84.1887 -105.141 57.4413 -84.1688 -104.89 56.3795 
-83.6984 -104.721 60.0106 -83.6231 -104.935 60.9517 -83.856 -104.675 59.0681 
-84.4037 -104.981 58.1704 -84.6134 -104.868 57.0896 -84.3466 -104.261 56.2195 
-83.9331 -104.562 60.4148 -83.73 -104.647 61.1782 -83.9263 -104.246 59.3939 
-84.2842 -104.327 58.5869 -84.7159 -104.42 57.7587 -84.7367 -103.996 56.7667 
-84.7528 -103.6 55.9111 -84.0583 -104.155 60.6646 -83.7713 -104.015 61.2548 
-84.1376 -103.945 59.7302 -84.3625 -103.775 58.829 -84.8056 -103.828 58.0991 
-85.1144 -103.698 57.2048 -85.3532 -103.462 56.2248 -85.6732 -103.49 55.3252 
-84.2658 -103.567 60.7767 -83.9846 -103.401 61.3034 -84.5005 -103.638 60.0429 
-84.8092 -103.582 59.1587 -85.2431 -103.56 58.339 -85.6385 -103.552 57.485 
-85.9813 -103.485 56.5191 -86.3244 -103.475 55.6034 -86.4899 -103.526 54.7508 
-84.4918 -103.078 60.7666 -84.2403 -103.022 61.3087 -84.7965 -103.249 60.1576 
-85.2251 -103.4 59.4154 -85.7531 -103.45 58.6187 -86.2165 -103.451 57.7983 
-86.5673 -103.448 56.9029 -86.8335 -103.426 56.0108 -86.9342 -103.355 55.181 
-86.8271 -103.248 54.393 -84.5809 -102.709 60.9086 -84.8593 -102.785 60.2678 
-84.9134 -102.337 60.4438 -85.2165 -102.421 59.6486 -85.2723 -101.882 59.8676 
-85.2827 -102.979 59.5652 -85.6536 -101.918 59.0298 -85.6314 -101.39 59.1846 
-85.7643 -102.541 58.9165 -85.9063 -103.132 58.8414 -86.24 -101.372 58.5983 
-86.083 -100.803 58.6286 -86.3225 -101.985 58.466 -86.4839 -102.63 58.3147 
-86.5407 -103.167 58.1143 -86.8466 -100.731 58.2506 -86.6632 -100.057 58.2785 
-86.8527 -101.482 58.0717 -86.9362 -102.131 57.8395 -87.1094 -102.675 57.6376 
-87.0135 -103.161 57.3115 -87.1684 -100.049 57.7221 -86.982 -99.4552 57.8394 
-87.0664 -100.907 57.367 -87.106 -101.697 57.032 -87.4221 -102.209 56.9498 
-87.5373 -102.655 56.8374 -87.2718 -103.135 56.4457 -87.0781 -99.6182 57.0184 
-86.8079 -99.1844 57.1377 -87.0016 -100.325 56.5991 -87.037 -101.105 56.1352 
-87.4891 -101.693 56.0312 -87.7738 -102.107 56.1403 -87.5609 -102.551 55.9901 
-87.234 -103.023 55.5709 -86.8692 -99.2787 56.2869 -86.5231 -98.9294 56.3695 
-86.9458 -99.838 56.0294 -87.0447 -100.453 55.659 -87.5138 -100.996 55.4396 
-87.8769 -101.51 55.4238 -87.6344 -101.987 55.3442 -87.2235 -102.418 55.0652 
-87.0235 -102.852 54.7031 -86.841 -98.7089 55.662 -86.4685 -98.4687 55.7875 
-87.022 -99.2143 55.5159 -87.1642 -99.812 55.3243 -87.556 -100.289 55.1238 
-87.9189 -100.797 54.9335 -87.7295 -101.437 54.6995 -87.25 -101.966 54.426 
-86.9885 -102.341 54.1677 -86.852 -102.736 53.9245 -86.5523 -102.818 53.2408 
-86.927 -102.416 53.3829 -86.6024 -102.473 52.8107 -87.0815 -102.051 53.5352 
-87.0087 -102.071 52.8747 -86.4043 -101.925 52.4086 -87.304 -101.53 53.7746 
-87.0642 -101.564 53.0287 -86.6251 -101.419 52.5066 -85.7441 -101.126 52.1032 
-87.6891 -100.738 54.0983 -87.1546 -100.748 53.2675 -86.6248 -100.712 52.7363 
-85.8729 -100.593 52.2706 -85.082 -100.412 51.872 -87.739 -100.059 54.4008 
-87.3296 -99.908 53.4967 -86.746 -99.8333 52.9004 -86.1275 -99.8989 52.419 
-85.3925 -99.9582 51.9294 -84.7673 -99.8746 51.5184 -87.4023 -99.5914 54.6504 
-87.2014 -99.4303 53.7806 -86.7487 -99.255 53.0745 -86.3657 -99.1642 52.4813 
-85.8307 -99.3103 51.8241 -85.1227 -99.3811 51.3888 -84.5324 -99.2576 51.0077 
-87.1814 -98.9513 54.8636 -86.9861 -98.9023 54.1509 -86.4957 -98.9486 53.5036 
-86.1947 -98.7444 52.8237 -85.945 -98.5935 51.9112 -85.3739 -98.6838 51.2271 
-84.706 -98.6705 50.9069 -84.2489 -98.5553 50.5066 -87.0819 -98.2659 55.0594 
-86.9742 -98.1077 54.4834 -86.3987 -98.3841 53.9648 -85.9003 -98.4594 53.3669 
-85.7159 -98.114 52.4127 -85.3817 -97.947 51.4694 -84.7912 -97.9954 50.9828 
-84.3073 -97.9481 50.6114 -84.0312 -97.9132 50.1007 -86.8067 -97.9412 55.2721 
-86.891 -97.5627 54.7671 -86.4388 -97.7141 54.2454 -85.8259 -97.9975 53.6578 
-85.5522 -97.7701 52.8396 -85.3749 -97.3854 51.9266 -84.9181 -97.3455 51.3284 
-84.3878 -97.3883 50.9265 -84.0547 -97.3368 50.3823 -83.8307 -97.3767 49.8047 
-85.9389 -102.956 52.844 -85.8457 -102.493 52.4747 -85.2588 -102.927 52.5467 
-85.5143 -101.753 52.1002 -85.1065 -102.387 52.1211 -84.8402 -102.772 52.1701 
-84.9653 -100.933 51.7688 -84.8398 -101.641 51.6797 -84.6564 -102.298 51.5052 
-84.3804 -102.667 51.5375 -84.5623 -100.337 51.3766 -84.5249 -101.005 51.1609 
-84.4151 -101.73 50.9324 -84.0694 -102.306 50.7245 -83.5518 -102.624 50.8797 
-84.314 -99.7704 50.8375 -84.2264 -100.481 50.481 -84.169 -101.232 50.2636 
-83.8447 -101.84 50.2001 -83.2688 -102.334 50.1796 -82.7574 -102.612 50.4078 
-84.0747 -99.0787 50.3115 -83.9013 -99.7867 49.9546 -83.8175 -100.585 49.6556 
-83.6628 -101.261 49.6729 -83.207 -101.857 49.7505 -82.6583 -102.377 49.7583 
-82.2746 -102.586 50.0266 -83.875 -98.4308 49.8899 -83.6074 -99.0557 49.7229 
-83.3609 -99.7537 49.5023 -83.2503 -100.468 49.364 -83.0613 -101.167 49.3588 
-82.6322 -101.867 49.2795 -82.1905 -102.358 49.3018 -81.8527 -102.419 49.7693 
-83.6705 -97.8888 49.5563 -83.3422 -98.4755 49.5146 -82.9326 -99.0364 49.4781 
-82.6762 -99.6488 49.2894 -82.5975 -100.369 49.0974 -82.4033 -101.129 48.9639 
-82.0045 -101.821 48.8522 -81.6116 -102.203 49.0352 -81.2945 -102.164 49.6787 
-83.4123 -97.2134 49.4226 -83.1036 -97.8038 49.2477 -82.7439 -97.116 49.2027 
-82.3462 -97.6702 48.9096 -82.0631 -96.9712 48.9876 -82.6315 -98.3731 49.2017 
-81.7823 -97.4606 48.4592 -81.5272 -96.7667 48.7511 -81.9537 -98.2119 48.5519 
-82.2091 -98.9092 49.0215 -81.3396 -97.3204 48.3332 -80.8209 -96.6535 48.73 
-81.6158 -98.1023 47.9984 -81.719 -98.8669 48.2144 -82.0381 -99.5969 48.7557 
-80.5051 -97.3164 48.5918 -79.8931 -96.6922 48.8276 -81.1146 -98.1003 48.2319 
-81.401 -98.896 47.9885 -81.5731 -99.6321 48.2548 -81.9526 -100.375 48.6832 
-79.5498 -97.3639 48.742 -79.1989 -96.8087 48.9048 -80.1058 -98.1178 48.6759 
-80.626 -98.8862 48.4835 -80.968 -99.5867 48.4198 -81.2636 -100.331 48.5903 
-81.6357 -101.126 48.6982 -78.9366 -97.4492 48.9267 -78.7216 -96.9794 49.159 
-79.2391 -98.1449 48.8678 -79.6082 -98.8826 48.8154 -80.0076 -99.5212 48.7318 
-80.3748 -100.241 48.7645 -80.725 -101.072 48.7546 -81.1626 -101.77 48.7439 
-78.3508 -97.5801 49.3293 -78.1196 -97.1861 49.5457 -78.6337 -98.2118 49.1709 
-78.9064 -98.9529 49.0446 -79.1865 -99.5697 48.9036 -79.4944 -100.224 48.8444 
-79.7984 -101.062 48.8365 -80.2129 -101.744 48.854 -80.7836 -102.051 49.1291 
-77.5969 -97.7037 49.6389 -77.4573 -97.3712 49.8394 -77.8652 -98.2711 49.4634 
-78.2118 -99.0274 49.3362 -78.5642 -99.6758 49.221 -78.8758 -100.226 49.1061 
-79.1124 -100.982 49.008 -79.397 -101.727 48.9934 -79.9072 -102.013 49.2711 
-80.5187 -101.959 49.8667 -83.6775 -96.8627 49.9643 -83.1415 -96.6795 49.6196 
-83.341 -96.5433 50.2277 -82.691 -96.3689 49.9428 -82.821 -96.3608 50.5105 
-82.4675 -96.577 49.4606 -82.1977 -96.0473 50.2841 -82.354 -95.99 50.8763 
-82.1279 -96.1371 49.7358 -81.8639 -96.3905 49.2473 -81.9519 -95.3851 50.694 
-82.1993 -95.4171 51.3149 -81.8105 -95.459 49.9543 -81.6046 -95.7155 49.3615 
-81.2089 -96.1368 48.9992 -81.9706 -94.7621 51.1593 -82.2108 -94.9776 51.7353 
-81.5891 -94.6469 50.3088 -81.2374 -94.8266 49.4945 -80.8147 -95.3914 49.1417 
-80.3007 -96.069 49.0113 -81.889 -94.5723 51.7165 -82.1068 -94.6992 52.2983 
-81.3501 -94.3968 50.8766 -80.7858 -94.2873 49.9573 -80.358 -94.6967 49.4723 
-79.9153 -95.4954 49.3705 -79.4862 -96.222 49.1615 -81.571 -94.5015 52.4929 
-81.8879 -94.5296 53.0247 -80.9629 -94.5554 51.6743 -80.3297 -94.4328 50.7438 
-79.9182 -94.5088 50.1101 -79.605 -95.0846 49.8715 -79.2706 -95.8229 49.6456 
-78.963 -96.4451 49.3175 -81.1883 -94.4203 53.2656 -81.6236 -94.6402 53.5909 
-80.5301 -94.487 52.6069 -79.9243 -94.5753 51.7177 -79.5872 -94.66 50.9641 
-79.3501 -94.9854 50.5024 -79.0548 -95.5303 50.1475 -78.7334 -96.1315 49.7904 
-78.4165 -96.6993 49.5725 -80.8363 -94.5716 53.7243 -81.3081 -95.0327 53.8689 
-80.1819 -94.3373 53.3587 -79.5914 -94.3775 52.6626 -79.308 -94.6242 51.8793 
[...]
CELL_DATA 2000
SCALARS Distance double
LOOKUP_TABLE default
143.47 143.604 143.399 143.123 143.799 143.56 143.286 143.052 142.729 
144.011 143.779 143.493 143.238 142.875 142.6 142.18 144.005 143.895 
143.545 143.375 142.966 142.721 142.26 141.994 141.55 143.775 143.742 
143.354 143.266 142.81 142.68 142.226 142.051 141.63 141.394 140.983 
143.705 143.565 143.24 143.062 142.618 142.454 142.033 141.935 141.585 
141.455 141.073 140.838 140.403 143.9 143.664 143.386 143.102 142.718 
142.413 142.024 141.807 141.493 141.369 141.042 140.877 140.456 140.217 
139.775 144.031 143.854 143.524 143.291 142.927 142.638 142.274 141.965 
141.618 141.363 141.023 140.827 140.46 140.253 139.861 139.621 139.26 
143.929 143.847 143.482 143.337 142.966 142.79 142.443 142.217 141.843 
141.553 141.142 140.868 140.493 140.281 139.959 139.746 139.443 139.196 
138.914 143.746 144.25 143.958 143.886 144.742 144.48 144.412 144.111 
144.067 145.154 144.944 144.956 144.686 144.673 144.355 144.319 145.588 
145.339 145.389 145.215 145.308 145.035 144.977 144.579 144.381 146.052 
145.766 145.65 145.522 145.592 145.551 145.5 145.2 144.861 144.441 
144.097 146.256 146.107 145.788 145.618 145.444 145.546 145.477 145.471 
145.117 144.808 144.38 144.089 143.908 146.07 146.114 145.827 145.65 
145.33 145.295 145.192 145.27 145.099 144.951 144.647 144.386 144.263 
144.076 144.109 145.758 145.861 145.744 145.666 145.469 145.311 145.246 
145.162 145.178 145.036 144.977 144.737 144.715 144.502 144.554 144.347 
144.315 145.548 145.607 145.569 145.603 145.562 145.507 145.513 145.41 
145.472 145.324 145.368 145.164 145.178 144.97 144.957 144.753 144.647 
144.415 144.213 145.445 145.228 145.365 145.429 144.925 145.11 145.212 
145.394 145.493 144.555 144.778 144.899 145.147 145.339 145.503 145.578 
144.226 144.455 144.632 144.854 145.088 145.325 145.517 145.606 145.604 
143.924 144.187 144.423 144.639 144.853 145.08 145.287 145.487 145.584 
145.611 145.524 143.523 143.845 144.001 144.316 144.43 144.751 144.887 
145.195 145.306 145.495 145.48 145.482 145.341 142.988 143.337 143.378 
143.719 143.73 144.126 144.22 144.66 144.774 145.112 145.096 145.275 
145.139 145.203 145.027 142.363 142.72 142.753 143.062 143.071 143.398 
143.507 143.933 144.105 144.506 144.516 144.768 144.594 144.785 144.586 
144.764 144.588 141.734 142.067 142.122 142.452 142.51 142.82 142.932 
143.292 143.456 143.843 143.896 144.168 144.022 144.196 144.002 144.2 
144.058 144.268 144.125 143.825 143.772 143.682 143.433 143.696 143.608 
143.389 143.303 142.963 143.652 143.52 143.215 143.172 142.805 142.681 
142.11 143.511 143.412 142.956 142.891 142.433 142.391 141.829 141.671 
141.046 143.152 143.154 142.647 142.548 141.996 141.947 141.436 141.36 
140.835 140.678 140.194 142.675 142.732 142.291 142.204 141.65 141.542 
141.046 140.989 140.549 140.47 140.019 139.9 139.449 142.203 142.256 
141.86 141.838 141.359 141.258 140.774 140.671 140.209 140.144 139.676 
139.63 139.14 139.078 138.6 141.773 141.795 141.397 141.409 141.004 
140.977 140.554 140.453 139.964 139.823 139.304 139.222 138.734 138.698 
138.234 138.198 137.785 141.421 141.404 141.035 141.006 140.643 140.63 
140.265 140.217 139.76 139.609 139.072 138.908 138.433 138.34 137.941 
137.871 137.493 137.444 137.115 143.715 143.298 143.437 143.286 142.781 
142.986 142.794 142.955 142.78 141.916 142.306 142.122 142.405 142.235 
142.449 142.289 140.883 141.315 141.205 141.622 141.509 141.839 141.692 
141.927 141.708 140.05 140.371 140.314 140.716 140.695 141.071 140.963 
141.253 141.038 141.258 140.982 139.312 139.618 139.528 139.903 139.903 
140.293 140.243 140.536 140.365 140.577 140.355 140.541 140.327 138.497 
138.838 138.709 139.093 139.047 139.482 139.461 139.832 139.73 139.971 
139.815 139.987 139.835 139.989 139.834 137.724 138.034 137.929 138.264 
138.185 138.584 138.547 138.988 138.943 139.314 139.21 139.47 139.34 
139.532 139.386 139.535 139.357 137.068 137.336 137.259 137.543 137.449 
137.755 137.659 138.052 137.999 138.449 138.393 138.783 138.674 138.97 
138.824 139.047 138.87 139.032 138.834 136.696 136.17 136.583 136.878 
135.564 136.002 136.278 136.742 137.028 134.966 135.364 135.586 136.062 
136.343 136.846 137.17 134.473 134.826 135.073 135.435 135.73 136.163 
136.536 137.041 137.478 134.003 134.382 134.727 135.066 135.416 135.718 
136.108 136.493 136.958 137.437 137.904 133.581 133.923 134.289 134.714 
135.103 135.465 135.817 136.157 136.547 136.963 137.389 137.85 138.231 
133.382 133.587 133.912 134.272 134.659 135.064 135.391 135.781 136.094 
136.519 136.872 137.326 137.674 138.118 138.415 133.307 133.454 133.736 
133.99 134.362 134.672 135.011 135.326 135.633 136.011 136.358 136.793 
137.139 137.566 137.86 138.265 138.497 133.162 133.323 133.526 133.793 
134.118 134.434 134.783 135.051 135.362 135.631 135.974 136.324 136.691 
137.071 137.377 137.739 137.971 138.324 138.499 136.505 136.104 136.178 
135.957 135.754 135.785 135.523 135.62 135.396 135.371 135.413 135.126 
135.205 134.958 135.052 134.822 134.971 134.99 134.641 134.736 134.425 
134.569 134.295 134.454 134.245 134.729 134.641 134.212 134.193 133.769 
133.907 133.591 133.835 133.614 133.866 133.715 134.678 134.52 134.102 
133.882 133.382 133.288 132.948 133.114 132.991 133.249 133.184 133.399 
133.345 134.693 134.535 134.191 133.916 133.447 133.133 132.776 132.685 
132.626 132.767 132.84 132.999 133.031 133.163 133.194 134.755 134.569 
134.233 134.013 133.602 133.311 132.971 132.751 132.656 132.622 132.698 
132.774 132.841 132.939 132.972 133.096 133.138 134.892 134.646 134.258 
134.031 133.625 133.415 133.111 132.958 132.852 132.771 132.792 132.752 
132.78 132.792 132.809 132.892 132.915 133.038 133.047 141.153 140.698 
140.878 140.776 140.145 140.389 140.251 140.458 140.354 139.363 139.705 
139.534 139.837 139.684 139.995 139.919 138.581 138.876 138.695 139.012 
138.825 139.194 139.066 139.48 139.37 137.956 138.183 138.025 138.243 
138.05 138.315 138.154 138.535 138.419 138.839 138.693 137.243 137.525 
137.335 137.609 137.399 137.622 137.415 137.682 137.564 137.92 137.847 
138.2 138.104 136.43 136.693 136.405 136.766 136.519 136.878 136.634 
136.948 136.776 137.126 137.069 137.435 137.391 137.707 137.637 135.775 
135.908 135.586 135.821 135.579 135.917 135.718 136.077 135.906 136.291 
136.209 136.637 136.6 136.988 136.917 137.249 137.176 135.278 135.356 
135.079 135.176 134.976 135.144 135.005 135.241 135.123 135.429 135.365 
135.76 135.747 136.16 136.125 136.494 136.441 136.791 136.78 141.271 
141.251 141.108 140.81 141.24 141.07 140.748 140.632 140.275 141.282 
141.074 140.698 140.542 140.154 140.004 139.532 141.273 141.103 140.712 
140.515 140.095 139.89 139.421 139.213 138.749 141.161 141.036 140.665 
140.511 140.097 139.877 139.404 139.152 138.69 138.494 138.099 141.069 
140.919 140.543 140.414 140.016 139.853 139.387 139.157 138.669 138.453 
138.022 137.863 137.439 141.018 140.855 140.467 140.304 139.899 139.739 
139.287 139.097 138.604 138.406 137.948 137.78 137.356 137.174 136.715 
140.936 140.796 140.426 140.26 139.862 139.663 139.216 138.999 138.519 
138.314 137.853 137.686 137.274 137.112 136.706 136.491 136.072 140.841 
140.707 140.363 140.222 139.858 139.664 139.232 138.983 138.506 138.259 
137.8 137.599 137.187 137.029 136.647 136.485 136.099 135.901 135.525 
140.677 140.215 140.366 140.187 139.627 139.851 139.688 139.872 139.684 
138.96 139.214 139.058 139.308 139.109 139.302 139.044 138.319 138.537 
138.355 138.622 138.42 138.658 138.39 138.584 138.295 137.749 137.907 
137.677 137.908 137.712 137.956 137.724 137.92 137.647 137.828 137.58 
137.248 137.358 137.081 137.242 137.022 137.26 137.078 137.297 137.065 
137.219 136.966 137.145 136.952 136.772 136.886 136.603 136.687 136.405 
136.579 136.394 136.655 136.483 136.674 136.421 136.558 136.322 136.536 
136.389 136.237 136.404 136.163 136.248 135.944 136.016 135.775 135.98 
135.841 136.084 135.882 136.027 135.748 135.907 135.7 135.969 135.84 
135.66 135.843 135.641 135.794 135.543 135.608 135.349 135.444 135.278 
135.471 135.31 135.477 135.196 135.322 135.034 135.254 135.08 135.398 
135.281 135.287 134.691 135.063 135.233 134.081 134.443 134.612 135.031 
135.187 133.514 133.844 134.04 134.446 134.66 134.983 135.079 133.107 
133.358 133.615 133.967 134.238 134.526 134.661 134.891 134.995 132.971 
133.095 133.388 133.658 133.939 134.168 134.254 134.46 134.494 134.799 
134.92 132.993 133.043 133.253 133.475 133.7 133.894 133.882 134.013 
133.893 134.168 134.171 134.618 134.727 132.965 133.006 133.05 133.247 
133.359 133.59 133.547 133.644 133.433 133.55 133.436 133.782 133.871 
134.369 134.55 132.91 132.914 132.865 132.96 132.968 133.171 133.161 
133.307 133.171 133.199 133.063 133.183 133.257 133.599 133.862 134.315 
134.625 132.963 132.9 132.862 132.822 132.793 132.844 132.848 132.962 
132.934 132.996 132.936 132.974 133.043 133.206 133.483 133.796 134.165 
134.54 134.879 135.276 135.319 135.08 134.719 135.601 135.249 134.84 
134.55 134.16 135.854 135.537 135.145 134.8 134.356 134.006 133.597 
136.023 135.712 135.332 135.082 134.694 134.314 133.825 133.458 133.125 
136.347 135.921 135.503 135.224 134.896 134.616 134.206 133.795 133.39 
133.087 132.945 136.836 136.358 135.922 135.492 135.118 134.8 134.472 
134.158 133.844 133.486 133.284 133.046 133.022 137.242 136.85 136.428 
135.977 135.534 135.104 134.738 134.424 134.193 133.927 133.749 133.464 
133.326 133.123 133.052 137.475 137.177 136.775 136.418 135.987 135.555 
135.16 134.774 134.534 134.268 134.1 133.848 133.624 133.388 133.191 
133.059 132.968 137.63 137.367 137.005 136.711 136.358 135.991 135.658 
135.259 135.019 134.681 134.496 134.181 133.919 133.614 133.345 133.159 
133.036 132.977 132.981 135.638 136.286 135.84 135.718 137.124 136.605 
136.499 136.058 136.012 138.021 137.486 137.364 136.897 136.845 136.4 
136.306 138.992 138.401 138.253 137.751 137.707 137.268 137.214 136.696 
136.554 140.179 139.503 139.382 138.723 138.659 138.145 138.15 137.656 
137.577 136.992 136.887 141.263 140.72 140.648 139.986 139.89 139.222 
139.154 138.595 138.528 138.004 137.894 137.362 137.299 141.834 141.531 
141.392 141.051 140.955 140.456 140.296 139.663 139.465 138.89 138.743 
138.271 138.172 137.731 137.659 142.175 141.871 141.601 141.425 141.324 
141.194 141.138 140.739 140.516 139.876 139.629 139.072 138.951 138.522 
138.436 138.013 137.894 142.708 142.274 141.97 141.601 141.46 141.359 
141.47 141.377 141.391 140.929 140.698 140.038 139.826 139.297 139.188 
138.756 138.626 138.187 138.031 143.022 143.344 142.882 142.264 143.691 
143.232 142.623 142.116 141.681 144 143.597 143.105 142.59 142.199 
141.796 141.685 144.2 143.882 143.445 143.072 142.754 142.396 142.237 
141.928 141.726 144.175 143.991 143.541 143.312 142.983 142.798 142.567 
142.364 142.014 141.685 141.119 143.935 143.868 143.478 143.335 142.978 
142.855 142.54 142.438 142.006 141.786 141.168 140.829 140.196 143.686 
143.634 143.342 143.254 142.932 142.8 142.433 142.297 141.836 141.649 
141.063 140.802 140.211 139.943 139.465 143.549 143.465 143.2 143.13 
142.833 142.723 142.337 142.18 141.712 141.506 140.966 140.711 140.162 
139.924 139.448 139.257 138.85 143.457 143.368 143.096 143.013 142.712 
142.602 142.214 142.06 141.606 141.416 140.93 140.686 140.179 139.91 
139.432 139.209 138.787 138.619 138.239 143.308 142.959 143.074 142.95 
142.537 142.696 142.548 142.687 142.531 141.971 142.198 142.039 142.228 
142.023 142.186 141.979 141.326 141.561 141.4 141.65 141.442 141.625 
141.367 141.558 141.34 140.719 140.905 140.702 140.962 140.76 140.991 
140.726 140.92 140.664 140.892 140.673 140.121 140.291 140.037 140.261 
140.031 140.27 140.002 140.227 139.949 140.192 139.94 140.192 139.942 
139.509 139.67 139.419 139.616 139.388 139.579 139.311 139.494 139.213 
139.442 139.186 139.441 139.184 139.433 139.191 138.997 139.093 138.857 
139.023 138.833 139.001 138.769 138.888 138.615 138.756 138.517 138.718 
138.494 138.704 138.473 138.711 138.53 138.641 138.66 138.412 138.512 
138.327 138.481 138.284 138.404 138.145 138.238 137.992 138.13 137.931 
138.093 137.888 138.057 137.868 138.102 137.979 137.609 137.498 137.362 
137.022 137.525 137.325 136.961 136.794 136.424 137.57 137.37 136.992 
136.783 136.391 136.199 135.799 137.62 137.398 136.999 136.793 136.392 
136.198 135.81 135.603 135.221 137.762 137.483 137.056 136.794 136.372 
136.175 135.789 135.617 135.22 135.032 134.645 137.919 137.656 137.241 
136.92 136.491 136.205 135.82 135.601 135.199 134.99 134.525 134.368 
133.957 138.01 137.8 137.452 137.157 136.774 136.429 136.068 135.745 
135.395 135.067 134.638 134.304 133.858 133.668 133.361 138.135 137.918 
137.644 137.387 137.069 136.75 136.404 136.065 135.742 135.394 135.059 
134.63 134.249 133.81 133.507 133.248 133.109 138.383 138.126 137.889 
137.623 137.342 137.045 136.699 136.376 136.018 135.722 135.41 135.095 
134.779 134.363 134.05 133.633 133.435 133.17 133.101 145.609 145.719 
145.629 145.634 146.004 145.757 145.548 145.515 145.484 146.265 146.058 
145.731 145.468 145.313 145.362 145.441 146.111 146.175 145.938 145.701 
145.515 145.389 145.569 145.571 145.733 145.607 145.844 145.776 145.806 
145.737 145.683 145.85 145.861 146.05 145.92 145.777 145.136 145.34 
145.346 145.546 145.617 145.779 145.903 146.028 146.041 146.053 145.765 
145.619 145.123 144.728 144.912 144.879 145.11 145.191 145.498 145.612 
145.855 145.757 145.819 145.45 145.386 144.917 144.801 144.379 144.242 
144.457 144.367 144.605 144.593 144.948 145.022 145.378 145.3 145.435 
145.109 145.063 144.694 144.612 144.317 144.201 143.937 143.737 143.941 
143.843 144.053 143.981 144.283 144.289 144.673 144.626 144.896 144.654 
144.732 144.397 144.404 144.102 144.097 143.798 143.753 143.439 145.592 
145.731 145.71 145.669 145.684 145.812 145.864 145.743 145.489 145.518 
145.639 145.679 145.777 145.547 145.38 144.942 145.5 145.415 145.195 
145.339 145.111 145.222 144.86 144.747 144.343 145.428 145.338 144.892 
144.835 144.492 144.625 144.381 144.505 144.206 144.158 143.813 144.887 
145.034 144.664 144.612 144.229 144.168 143.893 143.974 143.747 143.856 
143.548 143.555 143.189 144.19 144.376 144.136 144.278 143.993 143.996 
143.644 143.603 143.267 143.331 143.039 143.148 142.826 142.861 142.51 
143.735 143.811 143.568 143.707 143.471 143.615 143.281 143.305 142.871 
142.873 142.523 142.624 142.376 142.469 142.192 142.198 141.877 143.319 
143.432 143.186 143.245 143.002 143.089 142.814 142.862 142.482 142.466 
142.1 142.154 141.926 142.046 141.842 141.894 141.609 141.587 141.277 
145.481 145.473 145.403 145.23 145.237 145.295 145.107 145.112 144.924 
144.715 144.902 144.772 144.919 144.762 144.763 144.541 144.164 144.342 
144.255 144.498 144.417 144.534 144.287 144.293 144.079 143.673 143.838 
143.719 143.957 143.887 144.103 143.877 143.944 143.647 143.776 143.66 
143.101 143.327 143.174 143.401 143.272 143.52 143.336 143.477 143.201 
143.304 143.132 143.359 143.302 142.446 142.71 142.569 142.807 142.64 
142.878 142.711 142.921 142.73 142.868 142.686 142.847 142.735 142.963 
142.835 141.798 142.054 141.927 142.177 142.015 142.239 142.066 142.299 
142.156 142.376 142.217 142.389 142.203 142.388 142.205 142.424 142.221 
141.196 141.426 141.3 141.544 141.401 141.622 141.453 141.672 141.531 
141.781 141.648 141.864 141.668 141.836 141.615 141.799 141.605 141.808 
141.617 135.847 136.414 136.206 136.444 136.993 136.802 137.047 136.896 
137.258 137.521 137.38 137.667 137.525 137.888 137.771 138.172 138.034 
137.917 138.243 138.134 138.504 138.4 138.806 138.694 139.133 138.575 
138.448 138.797 138.71 139.11 139.013 139.439 139.336 139.817 139.725 
140.26 139.189 139.021 139.374 139.277 139.715 139.636 140.104 140.005 
140.508 140.423 140.961 140.89 141.351 139.868 139.684 140.037 139.895 
140.311 140.228 140.68 140.636 141.104 141.075 141.544 141.514 141.911 
141.82 142.034 140.483 140.361 140.72 140.58 140.93 140.803 141.142 
141.102 141.474 141.52 141.895 141.947 142.265 142.259 142.481 142.348 
142.451 140.949 140.906 141.257 141.193 141.493 141.37 141.599 141.498 
141.772 141.788 142.132 142.193 142.495 142.515 142.747 142.719 142.915 
142.78 142.937 
POINT_DATA 1002
SCALARS Distance double
LOOKUP_TABLE default
143.199 143.541 143.671 143.33 143.811 142.841 143.541 144.046 142.987 
142.36 143.752 144.237 143.187 142.453 141.727 143.697 144.081 143.188 
142.525 141.804 141.12 143.45 143.794 142.916 142.329 141.827 141.26 
140.572 143.451 143.873 142.821 142.119 141.651 141.279 140.683 139.954 
143.672 144.158 143.036 142.3 141.653 141.178 140.671 140.015 139.355 
143.735 144.201 143.168 142.58 141.944 141.259 140.635 140.074 139.494 
138.931 143.605 143.982 143.108 142.622 142.13 141.458 140.712 140.135 
139.671 139.166 138.646 144.026 144.178 144.548 144.715 144.964 144.345 
145.155 145.345 145 144.676 145.519 145.902 145.494 145.432 144.826 
145.88 146.376 145.554 145.729 145.343 144.416 146.066 146.326 145.42 
145.359 145.345 144.665 144.06 145.951 145.933 145.464 145.108 145.11 
144.844 144.434 144.297 145.7 145.641 145.583 145.362 145.27 145.157 
144.934 144.778 144.589 145.481 145.523 145.527 145.579 145.601 145.548 
145.402 145.201 144.894 144.458 145.332 145.282 145.071 144.98 144.725 
145.377 144.632 144.312 145.088 145.556 144.422 143.945 144.846 145.333 
145.664 144.198 143.632 144.652 145.063 145.467 145.623 143.707 143.231 
144.1 144.542 145.058 145.395 145.423 143.075 142.659 143.354 143.738 
144.381 144.884 145.01 144.986 142.426 142.007 142.759 143.103 143.681 
144.254 144.411 144.361 144.411 141.77 141.426 142.173 142.6 143.093 
143.595 143.839 143.818 143.828 143.935 143.56 143.553 143.187 143.444 
143.17 142.532 143.3 142.902 142.342 141.456 143.099 142.471 141.928 
141.217 140.466 142.77 142.075 141.445 140.936 140.353 139.765 142.334 
141.77 141.106 140.588 140.123 139.583 139 141.836 141.411 140.899 
140.318 139.721 139.185 138.653 138.148 141.377 140.98 140.621 140.143 
139.432 138.761 138.256 137.793 137.415 141.067 140.662 140.289 139.887 
139.252 138.533 138.005 137.563 137.125 136.807 143.146 142.625 142.612 
141.762 141.979 142.115 140.728 141.126 141.424 141.537 139.919 140.295 
140.666 140.8 140.78 139.17 139.496 139.922 140.144 140.152 140.135 
138.344 138.616 139.031 139.431 139.618 139.675 139.697 137.611 137.834 
138.106 138.504 138.894 139.12 139.225 139.237 136.982 137.186 137.327 
137.545 137.95 138.337 138.567 138.68 138.694 136.299 136.468 135.745 
135.795 135.154 136.573 135.145 134.6 135.819 136.64 134.734 134.088 
135.342 136.031 136.939 134.325 133.598 135.124 135.783 136.511 137.425 
133.847 133.299 134.696 135.491 136.178 136.954 137.789 133.615 133.234 
134.275 135.008 135.677 136.428 137.236 137.998 133.515 133.174 134.08 
134.733 135.295 135.931 136.718 137.465 138.119 133.281 133.033 133.785 
134.49 135.126 135.668 136.324 137.031 137.634 138.16 136.409 135.828 
136.075 135.453 135.735 135.289 135.053 135.327 134.873 134.715 134.59 
134.995 134.282 134.121 134.049 134.339 134.854 133.708 133.319 133.334 
133.461 134.368 134.812 133.601 132.838 132.689 132.953 133.141 134.426 
134.843 133.782 132.962 132.53 132.662 132.906 133.049 134.441 134.983 
133.835 133.192 132.762 132.677 132.756 132.864 133.006 134.517 135.177 
133.818 133.222 132.923 132.874 132.826 132.758 132.807 132.934 140.968 
140.6 140.527 140.042 139.868 140.114 139.205 139.016 139.357 139.583 
138.406 138.32 138.475 138.643 138.971 137.822 137.728 137.848 137.828 
137.991 138.295 137.026 136.978 137.157 137.193 137.227 137.474 137.773 
136.074 136.237 136.116 136.286 136.425 136.677 137.057 137.343 135.412 
135.675 135.273 135.349 135.519 135.774 136.179 136.566 136.841 141.419 
140.938 141.397 140.877 141.446 140.431 140.9 141.5 140.32 139.713 
140.91 141.41 140.327 139.639 138.912 140.79 141.284 140.297 139.668 
138.908 138.251 140.684 141.24 140.156 139.595 138.899 138.203 137.613 
140.642 141.174 140.074 139.468 138.798 138.117 137.525 136.931 140.574 
141.059 140.064 139.448 138.733 138.027 137.417 136.883 136.304 140.487 
140.977 140.029 139.482 138.769 138.018 137.355 136.789 136.271 135.724 