# vtk DataFile Version 4.0
vtk output
ASCII
DATASET POLYDATA
POINTS 1002 float
-79.2779 -102.021 55.7887 -79.3591 -102 56.7331 -79.9047 -102.074 56.2737 
-79.8412 -101.997 55.3567 -80.4842 -102.115 55.7887 -79.1684 -101.961 54.8715 
-80.472 -101.947 54.8346 -81.0993 -102.034 55.1853 -79.7796 -101.93 54.3716 
-79.0295 -102.005 53.7692 -81.1388 -101.898 54.1682 -81.7714 -101.917 54.5485 
-80.5032 -101.949 53.7319 -79.6507 -102.045 53.1478 -78.8271 -102.072 52.5627 
-81.858 -101.926 53.5252 -82.5833 -101.948 54.1016 -81.2109 -102.031 52.9887 
-80.3709 -102.09 52.4781 -79.3988 -102.032 51.9782 -78.6836 -101.972 51.5196 
-82.7218 -102.057 52.9693 -83.4532 -102.092 53.7 -81.8868 -102.089 52.271 
-81.0268 -102.091 51.8033 -80.028 -101.9 51.4651 -79.2579 -101.843 51.0095 
-78.7329 -101.991 50.4145 -83.5309 -102.164 52.3524 -84.0058 -102.08 53.1016 
-82.613 -102.055 51.6563 -81.6272 -101.931 51.241 -80.6239 -101.656 51.0452 
-79.7874 -101.557 50.6635 -79.3191 -101.868 49.9502 -78.814 -102.14 49.2801 
-83.9258 -101.981 51.7975 -84.1187 -101.71 52.508 -83.196 -101.862 51.2463 
-82.203 -101.609 50.9666 -81.2215 -101.301 50.8214 -80.3057 -101.123 50.4947 
-79.7002 -101.404 49.8131 -79.3087 -101.804 49.0889 -78.7218 -101.834 48.7236 
-83.992 -101.428 51.4883 -84.1102 -101.099 52.1388 -83.492 -101.415 51.0472 
-82.6462 -101.175 50.8828 -81.7707 -100.926 50.7356 -80.9093 -100.754 50.3653 
-80.1216 -100.838 49.7694 -79.5865 -101.133 49.1436 -79.1232 -101.24 48.7611 
-78.504 -101.055 48.6777 -84.0408 -100.775 51.3012 -84.2065 -100.519 51.9005 
-83.6804 -100.851 50.8558 -83.0052 -100.726 50.6577 -82.2253 -100.593 50.4727 
-81.4901 -100.552 50.0582 -80.7184 -100.553 49.5131 -80.0035 -100.596 49.0346 
-79.4499 -100.618 48.7064 -78.9157 -100.522 48.5464 -78.3048 -100.373 48.4894 
-79.7136 -101.924 57.4828 -80.334 -102.078 56.9627 -80.0127 -101.842 58.214 
-80.7898 -101.992 57.6451 -80.411 -101.898 58.744 -81.0277 -102.161 56.3771 
-81.3802 -101.971 58.1354 -81.1056 -102.167 59.1441 -81.663 -102.04 56.9542 
-81.7403 -102.049 55.6536 -82.0297 -102.043 58.5134 -81.8258 -102.278 59.5943 
-82.2145 -101.868 57.3624 -82.3505 -101.87 56.0996 -82.4394 -101.907 54.9949 
-82.3953 -101.789 58.9258 -82.0965 -101.815 59.9308 -82.4645 -101.592 57.7126 
-82.5542 -101.465 56.4391 -82.8259 -101.607 55.3809 -83.1771 -101.876 54.622 
-82.4683 -101.174 59.2141 -82.1002 -101.114 59.9816 -82.554 -101.06 58.1221 
-82.5356 -100.882 56.8276 -82.8267 -100.947 55.7145 -83.3341 -101.327 54.9916 
-83.7791 -101.79 54.2406 -82.6915 -100.756 59.3293 -82.3424 -100.683 59.9618 
-82.864 -100.627 58.4436 -82.8568 -100.439 57.3018 -83.0632 -100.429 56.1696 
-83.4705 -100.634 55.3137 -83.7828 -101.015 54.5946 -84.007 -101.465 53.6423 
-83.1976 -100.597 59.4705 -82.836 -100.421 60.0466 -83.4514 -100.508 58.6683 
-83.5516 -100.334 57.702 -83.763 -100.387 56.7171 -84.0881 -100.513 55.7724 
-84.162 -100.528 54.8894 -84.0633 -100.669 54.0237 -84.0704 -100.958 53.0745 
-83.6884 -100.313 59.6528 -83.2822 -100.046 60.138 -83.9953 -100.351 58.8882 
-84.2025 -100.252 58.0093 -84.4787 -100.385 57.2067 -84.8376 -100.67 56.3476 
-84.9207 -100.63 55.3033 -84.644 -100.379 54.3042 -84.3691 -100.343 53.4716 
-84.2623 -100.472 52.6777 -83.8382 -99.6795 59.8919 -84.1959 -99.8926 59.2309 
-84.127 -99.1785 59.3439 -84.3932 -99.3811 58.5247 -84.1797 -98.7868 58.4939 
-84.4866 -99.922 58.3629 -84.5551 -98.9885 57.801 -84.3426 -98.4307 57.7438 
-84.8316 -99.4666 57.8385 -84.8574 -100.016 57.6333 -84.949 -98.4868 57.2924 
-84.7161 -97.805 57.2586 -85.2159 -99.0167 57.3802 -85.3908 -99.6421 57.3132 
-85.2973 -100.381 56.9216 -85.2728 -97.7683 56.6974 -84.8953 -97.2012 56.601 
-85.5037 -98.421 56.7093 -85.6151 -99.0487 56.6394 -85.6606 -99.888 56.3295 
-85.4937 -100.572 55.7997 -85.1879 -97.2384 55.7944 -84.6819 -96.977 55.6637 
-85.5014 -97.7733 55.7325 -85.5293 -98.4129 55.5345 -85.5183 -99.1256 55.2583 
-85.5728 -99.9173 54.8741 -85.3015 -100.334 54.5165 -84.8665 -96.9295 54.9206 
-84.379 -96.7407 54.9169 -85.3514 -97.2014 54.7848 -85.5094 -97.7432 54.4837 
-85.4051 -98.45 54.1735 -85.4379 -99.2285 53.9018 -85.4311 -99.8441 53.6804 
-84.9805 -100.107 53.5624 -84.5731 -96.5196 54.3106 -84.2325 -96.1612 54.5032 
-85.1084 -96.7106 54.0521 -85.5317 -97.0139 53.6984 -85.5519 -97.6529 53.3609 
-85.442 -98.5351 53.1343 -85.4446 -99.3556 52.9867 -85.2353 -99.8291 52.9072 
-84.7119 -100.085 52.8386 -84.3661 -95.9843 53.8077 -84.1884 -95.4803 54.1259 
-84.7331 -96.3186 53.4515 -85.2057 -96.5285 53.0781 -85.4501 -96.9208 52.7383 
-85.3812 -97.6785 52.5097 -85.2703 -98.6128 52.3788 -85.1588 -99.3506 52.2944 
-84.8681 -99.7634 52.2251 -84.4784 -100.085 52.1037 -84.213 -100.174 51.2575 
-84.406 -99.7485 51.413 -84.1543 -99.8667 50.5003 -84.5943 -99.2797 51.5644 
-84.2075 -99.318 50.6764 -84.0763 -99.5599 49.7138 -84.738 -98.6287 51.7031 
-84.2394 -98.6069 50.9343 -84.0939 -98.7898 49.9558 -83.8928 -98.9998 49.0472 
-84.8571 -97.805 51.834 -84.318 -97.8833 51.1519 -84.124 -97.9656 50.2281 
-83.9695 -98.1359 49.2001 -83.406 -98.2019 48.6077 -84.9311 -97.0469 52.0031 
-84.353 -97.2616 51.3185 -84.1554 -97.3203 50.3899 -84.0099 -97.3428 49.332 
-83.4808 -97.4494 48.6593 -82.7126 -97.5181 48.4083 -84.8202 -96.5466 52.2583 
-84.2718 -96.6959 51.5219 -84.1026 -96.6727 50.5283 -84.039 -96.5431 49.3865 
-83.4949 -96.6088 48.768 -82.733 -96.806 48.5451 -82.1758 -96.9372 48.1389 
-84.5354 -96.2144 52.5729 -84.1533 -96.1514 51.7547 -84.038 -95.9026 50.7587 
-84.1114 -95.6097 49.4903 -83.6466 -95.6348 48.7585 -82.7559 -95.9044 48.6601 
-82.1616 -96.1258 48.281 -81.9277 -96.2479 47.5206 -84.2912 -95.8067 52.932 
-84.0804 -95.6276 52.0014 -83.9869 -95.2477 51.0439 -84.0935 -94.8595 49.8175 
-83.8383 -94.8494 48.8149 -82.9709 -95.1132 48.5576 -82.1763 -95.3199 48.299 
-81.8901 -95.4334 47.5433 -81.7836 -95.5607 46.8382 -84.1694 -95.2742 53.3252 
-84.0306 -95.1299 52.3231 -83.874 -94.8435 51.3574 -83.816 -94.5256 50.3106 
-83.6549 -94.4958 49.2219 -83.075 -94.6526 48.5955 -82.3103 -94.7152 48.2533 
-81.8648 -94.7314 47.6023 -81.7325 -94.8358 46.8515 -81.5466 -95.0206 46.4825 
-83.9763 -100.347 50.6542 -83.919 -100.086 49.8224 -83.5064 -100.391 50.2259 
-83.7373 -99.7553 49.0405 -83.3386 -100.141 49.3311 -82.7611 -100.338 49.9293 
-83.2163 -98.9742 48.6584 -82.911 -99.6491 48.7411 -82.4828 -100.096 48.9905 
-81.9971 -100.374 49.5213 -82.4814 -98.072 48.5039 -82.194 -98.7104 48.6619 
-81.9688 -99.4716 48.6022 -81.7071 -100.133 48.6134 -81.2788 -100.444 49.0079 
-81.9576 -97.4769 48.0947 -81.6293 -97.9399 48.2877 -81.4238 -98.5871 48.3623 
-81.3012 -99.4507 48.191 -81.0178 -100.109 48.2113 -80.5173 -100.369 48.6081 
-81.7662 -96.9076 47.391 -81.4467 -97.4836 47.4185 -81.1771 -98.0305 47.5166 
-80.9878 -98.7249 47.5555 -80.7152 -99.4599 47.6107 -80.2975 -99.9328 47.878 
-79.8179 -100.211 48.3399 -81.6426 -96.1999 46.7916 -81.3441 -96.9015 46.792 
-81.0628 -97.5934 46.7478 -80.8207 -98.2748 46.7522 -80.468 -98.9316 46.9142 
-80.0405 -99.4628 47.1694 -79.6092 -99.8058 47.5713 -79.2061 -100.095 48.124 
-81.3558 -95.5684 46.5261 -81.0238 -96.2124 46.6313 -80.7233 -96.9331 46.6005 
-80.5159 -97.7112 46.4839 -80.2016 -98.4579 46.53 -79.7571 -99.0685 46.6907 
-79.3368 -99.5249 46.8682 -78.9402 -99.8228 47.2931 -78.5753 -100.046 47.9598 
-80.9774 -94.8577 46.4418 -80.5827 -95.4486 46.5324 -80.1046 -94.6685 46.3398 
-79.6477 -95.3793 46.2406 -79.3488 -94.5766 45.9196 -80.1718 -96.1008 46.5769 
-79.074 -95.5043 45.7521 -78.9917 -94.823 45.8728 -79.3129 -96.0572 46.1375 
-79.9274 -96.8285 46.4821 -78.8294 -95.8404 45.9647 -78.544 -95.1801 46.4678 
-78.8039 -96.2097 45.7145 -79.0828 -96.7386 46.1173 -79.7096 -97.6657 46.4495 
-78.1251 -95.9934 46.5369 -77.5196 -95.1793 46.6843 -78.3118 -96.4912 45.9309 
-78.3473 -96.8107 45.7987 -78.7412 -97.5352 46.2877 -79.3223 -98.4706 46.5578 
-76.8785 -95.8164 46.5113 -76.4172 -95.004 46.4442 -77.3158 -96.5934 46.2306 
-77.5234 -97.0153 45.8341 -77.7916 -97.4847 46.0543 -78.3233 -98.3543 46.4513 
-78.8967 -99.1486 46.576 -75.9689 -95.7 46.5127 -75.8169 -95.0597 46.7439 
-76.2718 -96.5026 46.3485 -76.614 -97.1124 46.0689 -76.9442 -97.5475 46.0706 
-77.3845 -98.2656 46.346 -77.9515 -99.1609 46.4665 -78.5016 -99.6716 46.6971 
-75.6589 -95.82 47.2107 -75.5175 -95.2908 47.5869 -75.7953 -96.4708 46.8955 
-76.0187 -97.0795 46.5781 -76.3324 -97.5859 46.4402 -76.6745 -98.2428 46.5376 
-77.0831 -99.1275 46.5863 -77.5882 -99.7664 46.7372 -78.1102 -99.945 47.2842 
-75.4364 -96.0205 48.0754 -75.1334 -95.5167 48.2804 -75.6166 -96.5624 47.7956 
-75.7427 -97.0877 47.4151 -75.9573 -97.6083 47.1058 -76.2257 -98.2323 47.0099 
-76.4842 -99.0276 46.9655 -76.8247 -99.7246 47.0158 -77.2855 -100.017 47.4394 
-77.7981 -100.109 48.0658 -81.3983 -94.3845 46.5128 -80.755 -94.1377 46.4979 
-81.253 -93.649 46.7889 -80.5551 -93.4487 46.7225 -81.1493 -92.944 47.2439 
-79.8815 -93.8078 46.2838 -80.4044 -93.1247 47.1493 -80.9372 -92.4901 47.8315 
-79.699 -93.2012 46.4288 -79.1848 -93.6843 45.9555 -80.1431 -92.9708 47.9067 
-80.4333 -92.1675 48.5112 -79.5464 -93.1823 46.9496 -78.922 -93.1985 46.2568 
-78.655 -94.0359 46.1949 -79.6784 -92.4188 48.6952 -79.831 -91.8553 48.9735 
-79.3121 -93.0738 47.8726 -78.6228 -93.2075 46.9009 -78.0687 -93.5592 46.4881 
-77.8228 -94.4048 46.592 -79.2346 -91.9148 48.9925 -79.4619 -91.8861 49.1755 
-78.9509 -92.5192 48.5953 -78.3315 -93.0353 47.7678 -77.6037 -93.3609 47.007 
-77.1431 -93.8773 46.6659 -76.8083 -94.4503 46.5293 -78.9294 -92.1472 49.1952 
-79.2659 -92.3361 49.622 -78.5468 -92.3803 48.8971 -77.9806 -92.8009 48.425 
-77.3188 -93.1649 47.7838 -76.8489 -93.6196 47.295 -76.5042 -94.1053 46.9651 
-76.1189 -94.524 46.7369 -78.606 -92.6841 49.914 -79.0096 -92.788 50.4731 
-78.1116 -92.77 49.4342 -77.5427 -92.9558 48.9953 -76.9915 -93.1332 48.5238 
-76.634 -93.4761 48.1648 -76.3865 -93.9846 47.9483 -76.0273 -94.3871 47.7066 
-75.6694 -94.7559 47.5272 -78.2046 -92.9483 50.8924 -78.6617 -93.0154 51.3374 
-77.6473 -92.9868 50.3741 -77.0797 -93.1062 49.8259 -76.5948 -93.2139 49.29 
[...]
CELL_DATA 2000
SCALARS Distance double
LOOKUP_TABLE default
140.063 140.221 139.97 139.62 140.334 140.109 139.746 139.508 139.15 
140.401 140.197 139.875 139.65 139.301 139.04 138.664 140.591 140.308 
140.03 139.801 139.487 139.212 138.802 138.515 138.11 140.98 140.608 
140.278 139.981 139.646 139.381 138.933 138.629 138.175 137.943 137.615 
141.271 140.998 140.572 140.223 139.768 139.487 138.988 138.7 138.192 
137.972 137.644 137.519 137.298 141.129 141.102 140.664 140.407 139.845 
139.554 139 138.714 138.172 137.938 137.549 137.476 137.255 137.203 
136.935 140.64 140.772 140.4 140.318 139.762 139.545 138.979 138.723 
138.192 137.925 137.473 137.33 137.032 137.03 136.754 136.711 136.324 
140.13 140.254 139.954 139.967 139.504 139.38 138.864 138.679 138.202 
137.971 137.528 137.296 136.922 136.8 136.49 136.445 136.096 136.018 
135.616 140.347 140.806 140.58 140.546 141.26 141.047 141.068 140.793 
140.693 141.845 141.539 141.568 141.31 141.241 140.899 140.745 142.511 
142.154 142.052 141.771 141.661 141.388 141.249 140.947 140.886 142.79 
142.637 142.34 142.112 141.798 141.628 141.423 141.317 141.288 141.158 
141.234 142.53 142.6 142.261 142.155 141.684 141.555 141.207 141.245 
141.175 141.323 141.406 141.447 141.466 142.276 142.312 142.132 142.012 
141.654 141.432 141.121 141.025 140.949 141.061 141.12 141.316 141.309 
141.418 141.25 142.344 142.295 142.289 142.091 141.937 141.62 141.506 
141.229 141.285 141.101 141.174 141.08 141.039 141.072 140.923 140.992 
140.738 142.455 142.474 142.523 142.387 142.302 142.05 142.025 141.798 
141.949 141.713 141.813 141.457 141.347 141.022 140.839 140.707 140.531 
140.493 140.271 142.455 142.251 142.472 142.52 141.742 142.102 142.211 
142.408 142.326 141.235 141.571 141.768 142.048 142.166 142.248 142.198 
140.841 141.155 141.415 141.692 141.944 142.138 142.321 142.299 142.277 
140.333 140.732 140.958 141.326 141.502 141.843 141.994 142.277 142.315 
142.337 142.109 139.663 140.101 140.239 140.697 140.743 141.181 141.156 
141.629 141.592 141.995 141.793 141.886 141.479 138.979 139.372 139.444 
139.873 139.883 140.296 140.231 140.654 140.615 141.081 141.03 141.339 
141.099 141.147 140.831 138.314 138.674 138.702 139.078 139.075 139.45 
139.412 139.78 139.779 140.191 140.261 140.634 140.609 140.764 140.572 
140.59 140.423 137.651 137.993 137.994 138.344 138.316 138.671 138.621 
138.988 138.961 139.384 139.428 139.892 139.921 140.265 140.151 140.302 
140.111 140.213 140.099 139.844 139.794 139.642 139.33 139.727 139.561 
139.134 139.056 138.74 139.449 139.369 138.842 138.772 138.361 138.407 
138.074 138.977 138.969 138.454 138.407 137.946 137.97 137.596 137.653 
137.215 138.524 138.496 138.042 138.008 137.574 137.56 137.15 137.162 
136.723 136.718 136.224 138.186 138.115 137.671 137.625 137.187 137.171 
136.703 136.697 136.201 136.215 135.735 135.749 135.303 137.896 137.815 
137.346 137.273 136.777 136.737 136.201 136.184 135.635 135.657 135.158 
135.223 134.781 134.846 134.43 137.595 137.524 137.047 136.95 136.422 
136.323 135.771 135.69 135.168 135.129 134.668 134.675 134.246 134.287 
133.868 133.945 133.565 137.281 137.223 136.767 136.662 136.155 136.012 
135.492 135.35 134.884 134.782 134.377 134.301 133.889 133.827 133.398 
133.397 133.022 133.112 132.821 139.823 139.295 139.585 139.592 138.763 
139.043 139.005 139.264 139.162 138.124 138.479 138.425 138.671 138.514 
138.746 138.571 137.199 137.687 137.609 137.991 137.817 138.093 137.905 
138.151 137.968 136.152 136.63 136.514 137.005 136.869 137.298 137.16 
137.492 137.34 137.571 137.362 135.253 135.628 135.497 135.906 135.801 
136.273 136.219 136.677 136.597 136.929 136.752 136.955 136.747 134.431 
134.797 134.697 135.021 134.93 135.301 135.276 135.722 135.704 136.122 
136.005 136.303 136.109 136.349 136.214 133.609 133.99 133.944 134.284 
134.232 134.554 134.542 134.893 134.9 135.266 135.213 135.535 135.398 
135.673 135.529 135.83 135.756 132.88 133.216 133.193 133.54 133.508 
133.86 133.854 134.214 134.226 134.562 134.537 134.823 134.74 134.993 
134.881 135.141 135.045 135.359 135.297 132.503 131.927 132.416 132.77 
131.232 131.76 132.143 132.664 133.056 130.849 131.157 131.531 131.989 
132.421 132.967 133.412 130.954 131.055 131.333 131.502 131.843 132.305 
132.808 133.37 133.824 130.807 131.141 131.35 131.441 131.562 131.795 
132.171 132.722 133.24 133.78 134.158 130.053 130.638 130.888 131.265 
131.314 131.519 131.673 132.091 132.538 133.136 133.593 134.076 134.372 
129.493 129.856 130.182 130.628 130.841 131.15 131.292 131.611 131.949 
132.459 132.948 133.485 133.871 134.275 134.532 129.578 129.636 129.995 
130.177 130.532 130.75 131.038 131.272 131.616 131.975 132.45 132.914 
133.368 133.788 134.106 134.445 134.698 129.855 129.9 130.255 130.291 
130.642 130.7 131.035 131.155 131.529 131.756 132.202 132.537 132.987 
133.354 133.712 134.044 134.324 134.639 134.924 132.229 131.671 131.861 
131.646 131.19 131.303 131.002 131.156 130.909 130.921 130.936 130.605 
130.558 130.247 130.444 130.459 130.748 130.801 130.576 130.364 129.976 
129.905 129.866 130.223 130.513 130.387 130.58 130.488 130.43 130.058 
129.816 129.554 129.675 129.783 130.264 130.371 130.036 130.145 130.076 
130.226 129.987 129.878 129.5 129.419 129.256 129.5 129.47 129.86 
129.711 130.134 129.95 129.847 129.864 129.751 129.723 129.451 129.336 
129.124 129.125 129.082 129.182 129.146 129.284 129.264 130.57 130.242 
130.089 129.878 129.767 129.623 129.446 129.301 129.164 129.101 129.134 
129.114 129.188 129.119 129.182 129.188 129.36 130.934 130.663 130.427 
130.181 129.967 129.764 129.552 129.378 129.223 129.153 129.16 129.204 
129.275 129.28 129.282 129.252 129.289 129.39 129.564 136.966 136.334 
136.593 136.451 135.662 135.936 135.767 136.024 135.833 134.881 135.207 
135.023 135.31 135.102 135.368 135.169 134.019 134.361 134.172 134.508 
134.3 134.607 134.421 134.717 134.573 133.266 133.531 133.343 133.643 
133.403 133.724 133.493 133.882 133.742 134.137 134.043 132.654 132.856 
132.655 132.877 132.573 132.799 132.423 132.794 132.555 133.113 133.019 
133.554 133.476 132.078 132.249 131.977 132.182 131.825 131.994 131.542 
131.745 131.408 131.847 131.765 132.379 132.39 132.953 132.936 131.581 
131.672 131.312 131.448 131.052 131.224 130.862 131.011 130.774 130.968 
130.953 131.312 131.451 131.915 132.043 132.501 132.587 131.214 131.233 
130.86 130.849 130.451 130.518 130.287 130.459 130.451 130.616 130.72 
130.862 131.009 131.239 131.404 131.743 131.897 132.283 132.426 137.129 
137.117 136.921 136.5 137.053 136.881 136.463 136.278 135.839 136.992 
136.812 136.396 136.218 135.776 135.581 135.079 136.975 136.777 136.351 
136.15 135.699 135.502 135.003 134.775 134.235 136.948 136.768 136.332 
136.113 135.638 135.425 134.948 134.722 134.213 133.955 133.474 136.848 
136.707 136.273 136.079 135.587 135.365 134.886 134.682 134.223 133.98 
133.508 133.261 132.85 136.702 136.571 136.139 135.983 135.503 135.302 
134.812 134.618 134.169 133.978 133.526 133.299 132.862 132.661 132.294 
136.57 136.423 135.984 135.83 135.368 135.197 134.724 134.541 134.088 
133.909 133.47 133.278 132.847 132.658 132.29 132.127 131.821 136.456 
136.306 135.87 135.694 135.233 135.06 134.606 134.441 134.004 133.834 
133.41 133.224 132.818 132.633 132.276 132.122 131.831 131.692 131.433 
136.259 135.738 135.897 135.658 135.122 135.315 135.052 135.235 134.986 
134.473 134.648 134.361 134.571 134.31 134.541 134.333 133.939 134.019 
133.694 133.861 133.591 133.83 133.63 133.902 133.737 133.558 133.563 
133.213 133.265 132.968 133.127 132.923 133.186 133.041 133.32 133.163 
133.18 133.211 132.873 132.87 132.533 132.579 132.321 132.505 132.357 
132.63 132.502 132.756 132.598 132.738 132.808 132.488 132.523 132.162 
132.175 131.837 131.937 131.724 131.959 131.835 132.105 131.975 132.213 
132.077 132.303 132.361 132.039 132.097 131.744 131.774 131.414 131.465 
131.185 131.345 131.167 131.422 131.287 131.57 131.456 131.725 131.632 
131.915 131.945 131.617 131.653 131.319 131.351 131.033 131.066 130.801 
130.87 130.657 130.794 130.614 130.851 130.734 131.056 131.001 131.31 
131.249 131.611 131.054 131.311 131.286 130.467 130.713 130.648 130.964 
130.96 129.851 130.06 129.939 130.28 130.296 130.66 130.7 129.374 
129.446 129.265 129.548 129.611 130.017 130.157 130.477 130.545 129.128 
129.072 128.836 128.956 129.01 129.382 129.62 129.989 130.117 130.353 
130.396 128.96 128.889 128.646 128.649 128.637 128.879 129.111 129.48 
129.652 129.92 129.939 130.179 130.258 128.919 128.792 128.652 128.577 
128.586 128.645 128.821 129.046 129.236 129.473 129.542 129.74 129.831 
130.11 130.348 129.165 128.929 128.905 128.755 128.86 128.766 128.912 
128.908 129.061 129.164 129.307 129.449 129.617 129.802 130.074 130.342 
130.674 129.512 129.27 129.221 129.092 129.189 129.108 129.196 129.094 
129.129 129.1 129.201 129.304 129.501 129.672 129.926 130.143 130.43 
130.693 130.961 131.702 131.675 131.512 131.165 131.696 131.503 131.181 
131.005 130.647 131.826 131.56 131.232 131.047 130.728 130.504 130.114 
132.088 131.732 131.337 131.104 130.769 130.579 130.244 130.003 129.667 
132.451 132.035 131.6 131.258 130.885 130.63 130.311 130.116 129.864 
129.656 129.419 132.861 132.438 132.057 131.635 131.308 130.901 130.599 
130.266 130.047 129.841 129.674 129.46 129.239 133.285 132.883 132.56 
132.158 131.901 131.473 131.205 130.739 130.48 130.122 129.961 129.719 
129.574 129.308 129.156 133.696 133.325 133.01 132.648 132.382 132.037 
131.762 131.358 131.034 130.622 130.383 130.08 129.982 129.718 129.671 
129.374 129.373 134.056 133.731 133.426 133.077 132.783 132.45 132.152 
131.809 131.475 131.105 130.822 130.512 130.409 130.182 130.22 129.973 
130.029 129.726 129.76 132.064 132.622 132.246 132.046 133.205 132.828 
132.655 132.249 132.072 133.903 133.457 133.337 132.912 132.781 132.347 
132.238 134.835 134.275 134.165 133.674 133.611 133.143 133.09 132.618 
132.563 135.801 135.262 135.138 134.603 134.539 134.038 134.005 133.524 
133.483 132.993 132.934 136.599 136.15 136.05 135.579 135.514 135.009 
134.925 134.422 134.331 133.874 133.796 133.346 133.286 137.383 136.938 
136.9 136.462 136.458 135.981 135.888 135.336 135.158 134.656 134.533 
134.131 134.079 133.685 133.663 138.212 137.794 137.825 137.376 137.423 
136.944 136.888 136.31 136.097 135.497 135.304 134.842 134.791 134.43 
134.434 134.06 134.054 138.947 138.623 138.707 138.327 138.385 137.931 
137.875 137.312 137.095 136.459 136.214 135.66 135.555 135.148 135.148 
134.795 134.785 134.418 134.385 139.353 139.95 139.486 139.164 140.508 
140.067 139.706 139.267 138.868 140.861 140.523 140.104 139.728 139.265 
138.845 138.306 140.957 140.738 140.307 140.011 139.492 139.122 138.509 
138.112 137.464 140.883 140.734 140.31 140.102 139.587 139.273 138.645 
138.25 137.586 137.197 136.583 140.709 140.606 140.169 140.022 139.531 
139.304 138.718 138.374 137.742 137.35 136.779 136.401 135.926 140.468 
140.401 139.991 139.862 139.4 139.216 138.69 138.419 137.839 137.506 
136.96 136.625 136.169 135.849 135.477 140.235 140.175 139.826 139.709 
139.298 139.119 138.645 138.401 137.879 137.587 137.07 136.775 136.316 
136.045 135.655 135.407 135.068 140.059 139.985 139.67 139.571 139.201 
139.045 138.609 138.389 137.917 137.652 137.187 136.896 136.456 136.17 
135.769 135.525 135.176 134.967 134.65 139.876 139.431 139.595 139.463 
138.945 139.113 138.957 139.143 138.981 138.433 138.603 138.405 138.59 
138.388 138.592 138.377 137.888 138.06 137.843 138.017 137.788 137.973 
137.747 137.947 137.708 137.41 137.516 137.28 137.435 137.204 137.383 
137.169 137.348 137.131 137.29 137.035 137.082 137.097 136.795 136.872 
136.605 136.781 136.572 136.781 136.571 136.743 136.48 136.612 136.323 
136.709 136.761 136.408 136.426 136.105 136.207 135.973 136.162 135.942 
136.143 135.869 136.034 135.725 135.881 135.613 136.11 136.272 135.932 
136.016 135.702 135.773 135.524 135.622 135.381 135.512 135.239 135.395 
135.107 135.272 135.016 135.201 135.007 135.418 135.606 135.312 135.476 
135.207 135.349 135.109 135.212 134.947 135.017 134.727 134.818 134.554 
134.688 134.465 134.629 134.447 134.641 134.493 134.134 134.091 133.926 
133.543 134.102 133.909 133.517 133.317 132.907 134.177 133.947 133.554 
133.318 132.869 132.658 132.237 134.34 134.054 133.66 133.391 132.954 
132.669 132.193 131.972 131.554 134.561 134.244 133.819 133.521 133.124 
132.826 132.396 132.048 131.599 131.327 130.965 134.725 134.443 133.987 
133.681 133.274 133.015 132.669 132.348 131.953 131.553 131.19 130.875 
130.63 134.795 134.553 134.114 133.83 133.406 133.157 132.822 132.594 
132.258 131.939 131.589 131.241 130.992 130.696 130.513 134.865 134.617 
134.215 133.955 133.558 133.294 132.924 132.702 132.345 132.13 131.769 
131.548 131.263 131.056 130.844 130.598 130.362 134.978 134.719 134.349 
134.093 133.736 133.461 133.07 132.797 132.379 132.149 131.746 131.581 
131.245 131.148 130.88 130.783 130.508 130.333 130.034 142.283 142.238 
142.196 142.063 142.291 142.204 142.182 142.083 142.015 142.667 142.464 
142.476 142.281 142.218 142.051 141.884 142.967 142.913 142.901 142.666 
142.476 142.222 141.96 141.789 141.563 142.619 142.921 142.91 142.943 
142.673 142.44 142.076 141.85 141.654 141.54 141.485 141.852 142.27 
142.299 142.638 142.487 142.489 142.177 141.997 141.844 141.728 141.753 
141.625 141.543 141.219 141.505 141.556 141.933 141.96 142.176 142.041 
142.04 141.929 141.913 141.907 141.863 141.714 141.522 141.124 140.769 
140.969 140.988 141.289 141.367 141.662 141.646 141.811 141.715 141.834 
141.745 141.833 141.608 141.533 141.075 140.859 140.323 140.336 140.532 
140.505 140.761 140.785 141.09 141.081 141.343 141.249 141.456 141.314 
141.483 141.249 141.286 140.882 140.747 140.255 140.048 139.609 142.163 
141.917 141.93 141.698 141.821 141.743 141.459 141.402 141.104 141.69 
141.663 141.355 141.23 140.885 140.816 140.527 141.426 141.458 141.206 
141.131 140.784 140.663 140.335 140.268 139.972 141.325 141.243 141.004 
140.937 140.604 140.527 140.167 140.095 139.743 139.687 139.346 141.261 
141.183 140.828 140.731 140.309 140.249 139.824 139.819 139.417 139.413 
139.025 139.015 138.673 140.784 140.9 140.447 140.453 139.929 139.881 
139.375 139.378 138.955 138.999 138.617 138.647 138.296 138.332 138.031 
140.025 140.221 139.809 139.92 139.434 139.437 138.939 138.925 138.524 
138.551 138.222 138.244 137.923 137.945 137.649 137.7 137.431 139.362 
139.503 139.184 139.295 138.914 138.943 138.507 138.501 138.118 138.155 
137.855 137.895 137.596 137.603 137.3 137.325 137.055 137.11 136.852 
142.25 141.75 142.069 142.054 141.148 141.499 141.513 141.749 141.586 
140.566 140.899 140.946 141.209 141.097 141.238 141.057 139.97 140.305 
140.349 140.657 140.588 140.764 140.583 140.735 140.599 139.319 139.657 
139.665 140.022 139.974 140.232 140.056 140.231 140.035 140.25 140.092 
138.664 138.978 138.952 139.3 139.248 139.565 139.408 139.641 139.418 
139.637 139.44 139.679 139.481 138.036 138.326 138.272 138.583 138.5 
138.817 138.666 138.94 138.72 138.965 138.752 139.007 138.819 139.053 
138.842 137.424 137.698 137.614 137.897 137.784 138.076 137.928 138.201 
138.002 138.247 138.034 138.294 138.106 138.377 138.187 138.419 138.196 
136.828 137.079 136.971 137.232 137.11 137.378 137.248 137.505 137.347 
137.57 137.379 137.597 137.408 137.659 137.483 137.741 137.548 137.771 
137.548 132.198 132.58 132.505 132.747 133.008 132.908 133.148 133.062 
133.314 133.489 133.387 133.664 133.526 133.815 133.689 134.025 133.925 
133.887 134.24 134.12 134.465 134.298 134.691 134.544 134.983 134.31 
134.301 134.684 134.662 135.02 134.942 135.32 135.234 135.665 135.56 
135.952 134.801 134.718 135.077 135.053 135.39 135.379 135.702 135.72 
136.104 136.134 136.52 136.443 136.741 135.416 135.27 135.61 135.501 
135.849 135.763 136.091 136.042 136.41 136.454 136.885 136.921 137.295 
137.193 137.494 136.008 135.878 136.2 136.078 136.437 136.317 136.68 
136.54 136.899 136.818 137.245 137.268 137.716 137.708 138.066 137.955 
138.261 136.506 136.414 136.705 136.62 136.945 136.883 137.232 137.148 
137.472 137.363 137.709 137.672 138.088 138.109 138.499 138.465 138.768 
138.675 138.949 
POINT_DATA 1002
SCALARS Distance double
LOOKUP_TABLE default
139.733 140.14 140.317 139.863 140.484 139.266 139.982 140.54 139.395 
138.792 140.071 140.595 139.576 138.937 138.267 140.261 140.917 139.76 
139.128 138.344 137.722 140.649 141.377 139.926 139.256 138.417 137.766 
137.358 140.972 141.469 140.099 139.281 138.428 137.733 137.434 137.105 
140.87 141.05 140.152 139.284 138.434 137.654 137.263 137.072 136.628 
140.399 140.472 139.933 139.201 138.452 137.689 137.077 136.758 136.433 
135.911 139.892 140.028 139.571 139.008 138.384 137.772 137.124 136.568 
136.145 135.709 135.227 140.588 140.839 140.995 141.311 141.478 141.059 
141.83 142.228 141.565 141.102 142.407 142.902 141.922 141.5 141.147 
142.605 142.867 142.011 141.463 141.307 141.411 142.33 142.396 141.851 
141.193 140.967 141.253 141.557 142.212 142.223 141.856 141.256 140.918 
140.966 141.142 141.232 142.452 142.359 142.206 141.749 141.516 141.423 
141.134 140.844 140.695 142.614 142.394 142.504 142.198 142.131 142.203 
141.817 141.091 140.585 140.315 142.36 142.443 141.953 141.913 141.361 
142.279 141.441 140.904 141.953 142.268 141.122 140.497 141.684 142.196 
142.5 140.58 139.922 141.175 141.649 142.138 142.31 139.803 139.265 
140.338 140.72 141.102 141.54 141.533 139.05 138.623 139.479 139.834 
140.143 140.604 140.948 140.818 138.35 137.971 138.707 139.039 139.367 
139.83 140.351 140.529 140.37 137.658 137.325 137.975 138.267 138.559 
138.959 139.497 139.917 140.008 139.957 139.55 139.42 139.022 139.257 
138.727 138.474 138.935 138.335 138.022 137.727 138.476 137.951 137.554 
137.212 136.708 138.054 137.597 137.177 136.722 136.236 135.73 137.733 
137.226 136.74 136.195 135.687 135.284 134.895 137.447 136.861 136.246 
135.622 135.09 134.7 134.36 134.035 137.152 136.544 135.863 135.206 
134.678 134.236 133.804 133.441 133.219 136.86 136.29 135.63 134.984 
134.465 133.99 133.442 132.949 132.677 132.566 139.313 138.794 138.91 
138.171 138.311 138.322 137.163 137.493 137.648 137.749 136.02 136.361 
136.754 137.081 137.193 135.134 135.337 135.706 136.197 136.515 136.55 
134.363 134.594 134.86 135.263 135.654 135.846 135.931 133.573 133.895 
134.209 134.558 134.882 135.105 135.243 135.414 132.856 133.152 133.478 
133.875 134.246 134.484 134.633 134.768 134.955 132.089 132.303 131.389 
131.588 130.72 132.539 131.164 130.666 131.84 132.885 131.335 130.864 
131.501 132.19 133.351 131.228 130.332 131.489 131.697 132.627 133.746 
130.357 129.471 131.082 131.374 131.951 133.037 133.999 129.742 129.268 
130.448 130.996 131.509 132.389 133.42 134.195 129.9 129.568 130.343 
130.807 131.312 132.028 132.935 133.751 134.374 130.233 129.766 130.632 
130.952 131.348 131.929 132.65 133.379 134.008 134.591 132.034 131.461 
131.521 130.929 131.122 130.619 130.759 130.884 130.128 129.994 130.764 
130.598 130.207 129.594 130.011 130.383 130.183 130.321 129.65 129.421 
129.919 129.87 130.056 129.977 129.666 129.187 129.162 129.329 129.925 
130.422 129.748 129.531 129.16 129.029 129.057 129.052 130.381 130.909 
129.965 129.593 129.216 129.118 129.259 129.251 129.245 130.703 131.194 
130.2 129.74 129.328 129.126 129.237 129.332 129.264 129.36 136.714 
136.206 136.084 135.519 135.385 135.579 134.718 134.541 134.832 134.895 
133.825 133.693 133.975 134.095 134.274 133.077 133.029 133.13 133.105 
133.279 133.675 132.464 132.471 132.426 132.165 132.001 132.386 132.997 
131.812 131.953 131.658 131.392 131.07 131.155 131.756 132.42 131.251 
131.54 130.875 130.624 130.572 130.68 131.025 131.572 132.138 137.348 
136.703 137.301 136.639 137.22 136.048 136.58 137.178 135.969 135.312 
136.574 137.174 135.901 135.227 134.472 136.558 137.114 135.866 135.149 
134.468 133.702 136.45 136.981 135.814 135.081 134.43 133.772 133.053 
136.283 136.843 135.686 135.012 134.346 133.734 133.075 132.459 136.145 
136.721 135.524 134.896 134.268 133.651 133.027 132.441 131.97 136.053 
136.595 135.414 134.762 134.16 133.584 132.997 132.432 131.955 131.568 