# vtk DataFile Version 4.0
vtk output
ASCII
DATASET POLYDATA
POINTS 1002 float
-77.7236 -105.045 55.4826 -77.773 -105.071 56.3622 -78.3596 -105.009 56.0741 
-78.4464 -104.868 55.2189 -79.1327 -104.997 55.6831 -77.7676 -104.791 54.7929 
-79.2717 -104.74 54.9491 -80.0256 -105.044 55.2742 -78.5954 -104.487 54.5689 
-77.9113 -104.195 54.2951 -80.0719 -104.565 54.7788 -80.7814 -104.868 55.0271 
-79.3895 -104.259 54.3922 -78.7082 -103.926 53.9874 -78.0351 -103.55 53.6727 
-80.731 -104.14 54.6528 -81.3555 -104.336 54.9002 -80.0669 -103.924 54.2374 
-79.4322 -103.776 53.6379 -78.7108 -103.531 53.1455 -78.1029 -103.259 52.6909 
-81.405 -103.715 54.2712 -81.9532 -103.771 54.6024 -80.7045 -103.537 53.8568 
-80.1002 -103.468 53.2092 -79.4401 -103.48 52.5666 -78.6978 -103.347 52.0744 
-78.1714 -103.051 51.6466 -82.2445 -103.54 53.5932 -82.6031 -103.381 54.0943 
-81.5622 -103.509 53.1466 -80.8254 -103.271 52.6326 -80.2288 -103.175 52.0568 
-79.4764 -103.192 51.5305 -78.7101 -102.998 51.1016 -78.2269 -102.618 50.8048 
-83.0714 -103.359 52.993 -83.213 -103.098 53.6447 -82.6204 -103.593 52.4607 
-81.778 -103.409 52.0332 -81.0475 -103.027 51.61 -80.3801 -102.893 51.127 
-79.4892 -102.814 50.6401 -78.7424 -102.565 50.2551 -78.2972 -102.316 49.9789 
-83.6785 -103.075 52.6699 -83.7508 -102.904 53.3629 -83.4755 -103.348 52.1006 
-82.7719 -103.372 51.6554 -81.9041 -103.045 51.2212 -81.2429 -102.775 50.7305 
-80.4371 -102.686 50.2276 -79.5133 -102.527 49.7992 -78.883 -102.339 49.4421 
-78.4496 -102.271 49.1081 -84.0639 -102.823 52.4723 -84.1865 -102.741 53.1372 
-83.9214 -102.944 51.9384 -83.4197 -102.982 51.5115 -82.6129 -102.832 51.0056 
-81.9414 -102.647 50.3853 -81.2985 -102.575 49.8261 -80.4194 -102.47 49.4284 
-79.628 -102.272 49.112 -79.1162 -102.137 48.7769 -78.641 -102.1 48.4409 
-78.1397 -105.019 57.1836 -78.7937 -105.025 56.8118 -78.493 -104.965 58.0572 
-79.2704 -104.984 57.647 -78.8819 -104.933 58.9341 -79.7085 -105.132 56.2819 
-79.7313 -104.895 58.5092 -79.3197 -105.042 59.7043 -80.2208 -105.061 57.0716 
-80.6177 -105.219 55.7372 -80.241 -104.974 59.2352 -79.812 -105.219 60.3248 
-80.5547 -104.833 57.9508 -80.8872 -104.974 56.5203 -81.2156 -104.915 55.4398 
-80.8704 -105.173 59.9085 -80.2638 -105.112 60.9163 -81.0276 -104.856 58.7338 
-80.9696 -104.534 57.4507 -81.2759 -104.489 56.2058 -81.711 -104.242 55.3186 
-81.2679 -105.046 60.5871 -80.4964 -104.658 61.3822 -81.6351 -105.019 59.4849 
-81.3802 -104.43 58.2486 -81.3613 -104.004 57.0198 -81.8817 -103.892 55.9549 
-82.3254 -103.632 55.0457 -81.2277 -104.494 60.9685 -80.591 -104.162 61.5696 
-81.8101 -104.718 60.0745 -81.8554 -104.374 58.8896 -81.7403 -103.791 57.6152 
-82.1482 -103.588 56.501 -82.7039 -103.499 55.5685 -82.9751 -103.247 54.6295 
-81.1434 -103.853 61.0525 -80.7766 -103.762 61.6636 -81.619 -103.969 60.299 
-81.9298 -103.86 59.3018 -82.0338 -103.49 58.0719 -82.4075 -103.289 56.8998 
-83.0735 -103.333 55.9908 -83.4879 -103.24 55.1818 -83.6062 -103.016 54.285 
-81.2835 -103.335 61.1471 -81.0469 -103.375 61.8313 -81.5781 -103.272 60.3793 
-81.8734 -103.18 59.5074 -82.1208 -103.007 58.4406 -82.5061 -102.883 57.3092 
-83.1835 -102.971 56.3823 -83.8392 -103.082 55.6471 -84.1238 -103.001 54.8866 
-84.1568 -102.839 54.016 -81.4278 -102.895 61.5479 -81.7087 -102.805 60.7374 
-81.8045 -102.346 61.0677 -82.1401 -102.31 60.2432 -82.204 -101.754 60.4635 
-81.9573 -102.702 59.8528 -82.5319 -101.802 59.6531 -82.5746 -101.098 59.8012 
-82.3987 -102.324 59.2825 -82.2152 -102.627 58.8498 -82.9488 -101.178 58.9594 
-82.8341 -100.542 58.9977 -82.9719 -101.912 58.6648 -82.838 -102.346 58.2308 
-82.6192 -102.553 57.7644 -83.4129 -100.596 58.2321 -83.1307 -100.077 58.2025 
-83.693 -101.278 58.1017 -83.7494 -101.942 57.796 -83.4735 -102.298 57.3352 
-83.2364 -102.568 56.816 -83.8213 -100.013 57.6038 -83.6371 -99.3547 57.7382 
-84.1716 -100.592 57.5547 -84.4938 -101.237 57.479 -84.3551 -101.851 57.1234 
-84.0223 -102.283 56.5512 -83.9353 -102.701 56.0289 -84.0752 -99.2691 57.037 
-84.0627 -98.4828 57.397 -84.1975 -99.8997 56.8446 -84.5858 -100.427 56.8667 
-84.7605 -101.094 56.6786 -84.5401 -101.751 56.1462 -84.4333 -102.29 55.614 
-84.422 -102.746 55.2306 -84.1098 -98.5999 56.3744 -84.0671 -97.9172 56.7753 
-84.0861 -99.2327 56.0414 -84.351 -99.6934 55.9597 -84.7488 -100.252 55.8206 
-84.8026 -100.946 55.3696 -84.7002 -101.583 54.8934 -84.7185 -102.173 54.6018 
-84.5735 -102.633 54.346 -83.9979 -98.1515 55.6611 -83.7967 -97.6631 55.9566 
-84.0764 -98.6835 55.3636 -84.2825 -99.1089 55.2016 -84.7196 -99.5777 55.0078 
-85.0235 -100.182 54.5775 -85.0004 -100.753 54.1114 -84.9237 -101.337 53.841 
-84.8283 -101.995 53.6582 -84.5515 -102.499 53.4189 -84.3957 -102.498 52.4504 
-84.7106 -102.01 52.6733 -84.4315 -101.981 51.8006 -84.9791 -101.258 52.9404 
-84.7247 -101.257 52.0421 -84.2062 -101.123 51.3876 -85.1618 -100.582 53.1981 
-84.9913 -100.48 52.414 -84.4369 -100.363 51.6781 -83.7404 -100.14 51.1881 
-85.2733 -100.118 53.5384 -85.1809 -99.9819 52.733 -84.6701 -99.7861 51.9762 
-83.9472 -99.5622 51.3329 -83.3492 -99.413 50.807 -85.124 -99.5626 54.0471 
-85.1828 -99.5092 53.0696 -84.8541 -99.2823 52.1106 -84.3423 -99.0387 51.2908 
-83.761 -98.9539 50.6519 -83.2822 -98.9704 50.0783 -84.7081 -98.941 54.4928 
-84.9352 -98.7985 53.5648 -84.7994 -98.5535 52.3552 -84.6418 -98.2693 51.2603 
-84.3694 -98.2255 50.456 -83.8222 -98.372 49.8263 -83.1861 -98.4265 49.3814 
-84.3498 -98.4583 54.7172 -84.6544 -98.1293 54.0169 -84.5955 -97.8227 52.8681 
-84.4744 -97.5542 51.6081 -84.4719 -97.4148 50.6615 -84.1599 -97.5138 49.8777 
-83.4807 -97.6616 49.2869 -82.722 -97.6755 49.0031 -84.1053 -98.0139 54.8857 
-84.4231 -97.6217 54.2823 -84.4787 -97.2662 53.3939 -84.1836 -97.1486 52.2127 
-83.9673 -97.0718 51.2401 -83.7929 -96.9572 50.4203 -83.3732 -96.9329 49.6085 
-82.7623 -96.9612 49.0803 -82.1384 -96.9781 48.8198 -83.8026 -97.5873 55.0925 
-84.0845 -97.2086 54.462 -84.3078 -96.7885 53.7761 -84.0763 -96.7296 52.7846 
-83.5983 -96.8732 51.8232 -83.2294 -96.7962 51.0481 -82.9359 -96.5627 50.2142 
-82.5944 -96.4296 49.4518 -82.1823 -96.4056 48.9788 -81.7506 -96.4321 48.6226 
-84.1848 -102.548 51.8633 -84.0064 -101.943 51.3588 -83.7932 -102.504 51.466 
-83.6011 -101.003 51.0542 -83.3831 -101.807 51.0335 -83.0988 -102.391 51.0101 
-83.1879 -100.048 50.7504 -82.9895 -100.947 50.6039 -82.7223 -101.729 50.4244 
-82.4181 -102.29 50.2822 -82.9793 -99.4245 50.1472 -82.7677 -100.151 50.0253 
-82.4876 -101 49.8377 -82.2227 -101.696 49.6207 -81.8773 -102.25 49.5628 
-82.8333 -98.9329 49.4505 -82.5663 -99.5182 49.3544 -82.2589 -100.242 49.2567 
-81.9455 -100.92 49.2081 -81.6234 -101.582 49.1028 -81.1185 -102.171 49.1378 
-82.4367 -98.2374 48.9976 -82.1712 -98.8415 48.8648 -81.8772 -99.5025 48.7252 
-81.5349 -100.099 48.7961 -81.196 -100.691 48.8652 -80.798 -101.389 48.8173 
-80.2603 -101.975 48.8702 -81.8931 -97.4886 48.7003 -81.673 -98.1104 48.4899 
-81.462 -98.7845 48.2397 -81.1652 -99.3823 48.2106 -80.7953 -99.9109 48.3665 
-80.4393 -100.518 48.4593 -80.0912 -101.189 48.4899 -79.6508 -101.768 48.5682 
-81.5035 -96.8774 48.3628 -81.3179 -97.4887 48.0333 -81.2032 -98.1792 47.6942 
-81.0042 -98.7965 47.5419 -80.6172 -99.3301 47.6286 -80.1768 -99.8657 47.816 
-79.8505 -100.41 48.021 -79.5627 -101.002 48.1695 -79.1494 -101.631 48.2513 
-81.3892 -96.1286 48.0707 -81.174 -96.6978 47.6142 -81.1186 -95.7462 47.2745 
-80.9645 -96.4601 46.7997 -80.7951 -95.355 46.6451 -81.0822 -97.4611 47.1748 
-80.5334 -96.1497 46.4361 -80.1262 -95.1387 46.4551 -80.8379 -97.3454 46.5492 
-80.9756 -98.2 46.9303 -79.5845 -95.9463 46.4625 -78.9789 -95.1339 46.3953 
-80.1079 -97.1087 46.4725 -80.4911 -98.1391 46.5221 -80.6055 -98.8122 46.9285 
-78.362 -95.9542 46.4579 -77.7433 -95.2298 46.2844 -78.9134 -96.9481 46.5704 
-79.4515 -98.0338 46.4479 -79.8546 -98.8694 46.5468 -80.0259 -99.4058 47.0853 
-77.4297 -96.0776 46.5443 -76.9403 -95.3941 46.464 -77.8285 -96.9222 46.6356 
-78.2362 -97.9452 46.4138 -78.7778 -98.9003 46.3492 -79.2272 -99.4934 46.7863 
-79.5453 -99.9004 47.4319 -76.9522 -96.2239 46.9542 -76.5611 -95.6137 47.0581 
-77.1932 -96.9384 46.8882 -77.3249 -97.8223 46.5262 -77.7204 -98.7799 46.3047 
-78.3013 -99.4176 46.7443 -78.7918 -99.7979 47.3951 -79.2216 -100.325 47.8309 
-76.5867 -96.3731 47.5078 -76.2261 -95.841 47.7474 -76.8102 -96.9852 47.3166 
-76.7913 -97.7175 46.9218 -76.9086 -98.5768 46.5588 -77.3885 -99.2386 46.8528 
-77.9141 -99.6264 47.5214 -78.3779 -100.182 47.8646 -78.8349 -100.968 47.9889 
-76.0328 -96.5209 47.9632 -75.7303 -96.0543 48.2442 -76.3211 -97.0697 47.7521 
-76.3964 -97.7081 47.4705 -76.3839 -98.466 47.1199 -76.6425 -99.1553 47.1467 
-77.0825 -99.6123 47.6202 -77.4599 -100.156 47.9225 -77.8709 -100.977 47.9148 
-78.3239 -101.718 48.035 -81.7648 -95.8823 48.6443 -81.4399 -95.4235 48.0217 
-81.7848 -95.2798 48.7035 -81.3942 -94.7463 48.0672 -81.6803 -94.6468 48.8841 
-81.0923 -94.929 47.25 -81.1372 -94.2049 48.3665 -81.3906 -94.1654 49.3442 
-80.9029 -94.3911 47.4501 -80.5856 -94.6621 46.7746 -80.7506 -93.8475 48.9902 
-80.987 -93.9924 50.0286 -80.4853 -94.0636 47.9854 -80.1513 -94.4142 47.2322 
-79.63 -94.6711 46.6947 -80.3414 -93.694 49.7542 -80.4884 -94.0008 50.7067 
-79.9782 -93.733 48.6943 -79.5102 -94.1735 47.9074 -78.9522 -94.4818 47.2935 
-78.2728 -94.6882 46.6083 -79.8379 -93.7176 50.5474 -79.8788 -94.0033 51.3291 
-79.4897 -93.5682 49.4564 -78.893 -93.7981 48.5076 -78.3241 -94.156 47.9624 
-77.6883 -94.3562 47.2674 -77.1179 -94.7102 46.5464 -79.2558 -93.7898 51.3676 
-79.3056 -94.003 51.9483 -78.9681 -93.6683 50.4115 -78.3632 -93.6857 49.2476 
-77.8357 -93.8409 48.5271 -77.3833 -94.0532 48.0358 -76.8267 -94.3595 47.3345 
-76.5042 -94.9034 46.9154 -78.7647 -93.8072 52.1169 -78.9173 -94.0257 52.5677 
-78.4345 -93.7495 51.4274 -77.8317 -93.7697 50.3339 -77.3036 -93.7578 49.3493 
-77.007 -93.8449 48.783 -76.6431 -94.1466 48.2463 -76.2696 -94.6128 47.7623 
-76.1629 -95.2012 47.641 -78.4022 -93.7842 52.7705 -78.66 -94.035 53.1935 
[...]
CELL_DATA 2000
SCALARS Distance double
LOOKUP_TABLE default
141.28 141.477 141.203 140.875 141.776 141.433 141.064 140.779 140.396 
142.051 141.728 141.304 140.983 140.556 140.253 139.805 142.085 141.884 
141.418 141.162 140.704 140.419 139.955 139.643 139.202 141.962 141.826 
141.376 141.169 140.703 140.494 140.057 139.803 139.364 139.075 138.669 
141.899 141.773 141.451 141.19 140.766 140.486 140.083 139.863 139.469 
139.224 138.787 138.522 138.097 141.899 141.813 141.664 141.429 141.114 
140.713 140.308 139.957 139.595 139.326 138.924 138.63 138.182 137.915 
137.533 141.926 141.857 141.778 141.672 141.453 141.131 140.709 140.287 
139.872 139.53 139.162 138.825 138.41 138.061 137.685 137.424 137.158 
141.958 141.881 141.749 141.715 141.501 141.346 140.92 140.606 140.116 
139.804 139.405 139.105 138.716 138.358 137.969 137.645 137.352 137.126 
136.903 141.573 142.085 141.808 141.787 142.625 142.346 142.374 142.093 
142.125 143.199 142.896 142.924 142.681 142.737 142.462 142.436 143.842 
143.5 143.439 143.165 143.135 142.949 142.887 142.649 142.466 144.456 
144.187 144.107 143.7 143.49 143.197 143.019 142.895 142.717 142.527 
142.282 144.731 144.719 144.754 144.41 144.102 143.587 143.215 142.939 
142.759 142.661 142.504 142.314 142.121 144.569 144.768 144.845 144.842 
144.559 144.162 143.635 143.202 142.913 142.746 142.69 142.546 142.43 
142.194 142.059 144.289 144.45 144.418 144.613 144.363 144.312 143.788 
143.508 143.087 142.924 142.855 142.788 142.791 142.577 142.472 142.19 
142.099 144.14 144.162 144.014 144.11 143.872 143.93 143.541 143.451 
143.058 142.974 142.846 142.89 142.953 142.92 142.903 142.668 142.555 
142.267 142.171 144.039 143.726 143.874 143.827 143.346 143.539 143.483 
143.624 143.573 142.895 143.159 143.167 143.298 143.195 143.33 143.24 
142.365 142.693 142.805 143.014 143.007 143.057 142.947 142.996 142.905 
141.867 142.193 142.41 142.693 142.87 142.975 142.984 142.907 142.848 
142.797 142.822 141.432 141.745 141.981 142.32 142.58 142.847 142.98 
143.013 142.981 142.894 142.907 142.886 142.973 140.934 141.271 141.388 
141.786 141.934 142.39 142.507 142.83 142.784 142.903 142.825 142.917 
142.934 143.011 142.973 140.318 140.669 140.667 141.05 141.061 141.548 
141.604 142.107 142.076 142.429 142.301 142.578 142.514 142.779 142.726 
142.843 142.66 139.661 139.996 139.989 140.309 140.308 140.676 140.748 
141.188 141.257 141.641 141.589 141.895 141.817 142.159 142.126 142.429 
142.325 142.439 142.238 142.009 141.995 141.88 141.534 141.753 141.725 
141.329 141.253 140.785 141.458 141.427 141.06 140.99 140.515 140.385 
139.82 141.255 141.203 140.884 140.773 140.336 140.147 139.588 139.39 
138.841 140.942 140.992 140.675 140.62 140.161 139.988 139.42 139.208 
138.667 138.498 138.073 140.452 140.577 140.254 140.301 139.787 139.702 
139.078 138.969 138.42 138.329 137.89 137.802 137.409 140.006 140.079 
139.772 139.821 139.33 139.248 138.619 138.533 137.992 137.987 137.544 
137.537 137.083 137.043 136.558 139.656 139.674 139.356 139.38 138.958 
138.859 138.307 138.148 137.643 137.572 137.148 137.124 136.661 136.627 
136.118 136.089 135.601 139.309 139.311 138.952 138.979 138.591 138.546 
138.077 137.936 137.469 137.333 136.913 136.798 136.344 136.23 135.745 
135.667 135.226 135.188 134.804 141.874 141.46 141.672 141.623 140.723 
141.118 141.077 141.371 141.283 139.73 140.235 140.193 140.641 140.528 
140.876 140.669 138.735 139.194 139.168 139.662 139.588 140.006 139.843 
140.158 139.92 137.967 138.287 138.253 138.675 138.655 139.074 138.986 
139.338 139.197 139.463 139.261 137.299 137.587 137.488 137.835 137.782 
138.18 138.107 138.494 138.379 138.73 138.573 138.837 138.593 136.451 
136.826 136.66 137.035 136.895 137.296 137.166 137.578 137.432 137.845 
137.688 138.065 137.869 138.132 137.867 135.506 135.887 135.72 136.118 
135.965 136.368 136.222 136.619 136.462 136.862 136.71 137.122 136.985 
137.354 137.196 137.445 137.255 134.706 134.995 134.859 135.203 135.112 
135.476 135.397 135.74 135.634 135.959 135.835 136.186 136.083 136.468 
136.382 136.74 136.639 136.904 136.778 134.264 133.617 134.092 134.398 
132.951 133.461 133.852 134.313 134.684 132.307 132.832 133.306 133.816 
134.252 134.658 135.007 131.625 132.185 132.656 133.253 133.734 134.222 
134.574 134.953 135.236 130.911 131.47 131.915 132.541 133.018 133.613 
133.998 134.47 134.751 135.138 135.412 130.437 130.851 131.319 131.825 
132.278 132.845 133.268 133.826 134.177 134.63 134.923 135.318 135.638 
130.381 130.602 131.077 131.38 131.783 132.176 132.571 133.097 133.508 
134.031 134.375 134.814 135.138 135.566 135.925 130.535 130.674 131.087 
131.269 131.598 131.809 132.117 132.485 132.884 133.381 133.767 134.239 
134.572 135.032 135.397 135.862 136.218 130.61 130.763 131.082 131.267 
131.552 131.702 131.96 132.164 132.516 132.867 133.28 133.683 134.049 
134.466 134.836 135.307 135.696 136.141 136.436 134.114 133.695 133.741 
133.415 133.252 133.282 132.886 132.973 132.665 132.844 132.826 132.436 
132.465 132.128 132.241 132.002 132.604 132.48 132.108 132.081 131.795 
131.814 131.534 131.61 131.356 132.529 132.332 131.903 131.802 131.498 
131.518 131.226 131.224 130.84 130.895 130.606 132.478 132.299 131.84 
131.641 131.221 131.179 130.859 130.887 130.491 130.446 130.049 130.153 
130.045 132.408 132.267 131.89 131.642 131.177 130.956 130.577 130.523 
130.227 130.167 129.845 129.771 129.628 129.797 129.968 132.387 132.243 
131.943 131.731 131.312 131.006 130.565 130.357 130.07 129.993 129.797 
129.708 129.591 129.585 129.696 129.911 130.185 132.44 132.265 131.96 
131.782 131.395 131.137 130.682 130.416 130.061 129.922 129.731 129.682 
129.592 129.59 129.634 129.746 129.933 130.157 130.355 138.981 138.337 
138.628 138.597 137.704 137.977 137.909 138.237 138.205 137.018 137.32 
137.199 137.516 137.437 137.797 137.714 136.2 136.556 136.408 136.749 
136.618 136.989 136.909 137.273 137.168 135.384 135.711 135.564 135.904 
135.752 136.125 136.023 136.434 136.354 136.723 136.604 134.672 134.94 
134.786 135.083 134.932 135.261 135.132 135.521 135.42 135.842 135.719 
136.112 135.967 133.973 134.225 134.03 134.323 134.164 134.476 134.331 
134.657 134.52 134.894 134.772 135.176 135.052 135.449 135.343 133.303 
133.508 133.282 133.552 133.394 133.713 133.578 133.884 133.717 134.027 
133.883 134.254 134.172 134.566 134.509 134.888 134.85 132.769 132.9 
132.693 132.871 132.73 132.983 132.872 133.148 132.984 133.248 133.065 
133.39 133.293 133.703 133.679 134.091 134.076 134.456 134.448 139.123 
139.122 138.91 138.477 139.051 138.882 138.45 138.257 137.844 138.916 
138.775 138.346 138.191 137.754 137.6 137.158 138.804 138.634 138.194 
138.047 137.602 137.463 136.991 136.839 136.342 138.758 138.547 138.09 
137.907 137.475 137.317 136.854 136.666 136.159 135.987 135.518 138.711 
138.51 138.03 137.82 137.369 137.207 136.759 136.564 136.052 135.834 
135.353 135.209 134.807 138.579 138.434 137.946 137.741 137.23 137.067 
136.595 136.448 135.94 135.738 135.226 135.058 134.639 134.532 134.144 
138.389 138.279 137.826 137.637 137.11 136.908 136.407 136.257 135.783 
135.612 135.116 134.931 134.492 134.367 133.994 133.879 133.502 138.236 
138.114 137.708 137.53 137.038 136.807 136.306 136.108 135.666 135.491 
135.048 134.845 134.403 134.235 133.857 133.741 133.397 133.273 132.943 
138.063 137.594 137.729 137.495 136.992 137.168 136.88 137.073 136.794 
136.323 136.481 136.14 136.362 136.071 136.31 136.053 135.721 135.815 
135.42 135.586 135.283 135.545 135.33 135.6 135.41 135.121 135.232 
134.826 134.921 134.566 134.762 134.53 134.836 134.664 134.969 134.782 
134.426 134.598 134.252 134.369 134.013 134.116 133.807 134.025 133.809 
134.141 133.965 134.3 134.124 133.783 133.928 133.653 133.806 133.533 
133.624 133.315 133.395 133.118 133.313 133.13 133.448 133.328 133.669 
133.57 133.295 133.38 133.114 133.242 132.983 133.121 132.836 132.939 
132.644 132.743 132.509 132.701 132.578 132.888 132.832 133.174 133.117 
132.88 132.949 132.647 132.727 132.367 132.494 132.126 132.33 132.024 
132.235 131.979 132.154 131.963 132.195 132.11 132.438 132.407 132.745 
132.695 132.558 131.958 132.27 132.291 131.334 131.596 131.492 131.874 
131.871 130.888 130.997 130.762 130.996 130.89 131.383 131.511 130.693 
130.705 130.529 130.477 130.346 130.525 130.674 131.167 131.477 130.518 
130.598 130.586 130.504 130.47 130.362 130.474 130.606 130.909 131.286 
131.577 130.264 130.389 130.381 130.498 130.496 130.548 130.568 130.601 
130.696 130.871 131.063 131.391 131.602 130.116 130.145 130.038 130.15 
130.053 130.282 130.23 130.464 130.418 130.616 130.656 130.927 131.119 
131.466 131.742 130.155 130.068 129.922 129.864 129.708 129.785 129.723 
129.939 129.95 130.195 130.282 130.544 130.775 131.079 131.413 131.729 
132.067 130.301 130.15 129.98 129.839 129.68 129.608 129.563 129.601 
129.678 129.811 130.002 130.227 130.552 130.837 131.225 131.497 131.844 
132.099 132.389 132.577 132.431 132.322 131.99 132.379 132.176 131.816 
131.74 131.446 132.467 132.161 131.713 131.572 131.295 131.246 131.025 
132.639 132.286 131.775 131.508 131.147 131.076 130.873 130.871 130.722 
132.897 132.513 132.042 131.658 131.242 130.999 130.73 130.676 130.518 
130.565 130.457 133.292 132.874 132.491 132.042 131.662 131.246 130.926 
130.653 130.434 130.353 130.241 130.297 130.233 133.775 133.354 133.025 
132.58 132.246 131.776 131.45 131.016 130.732 130.424 130.248 130.146 
130.107 130.138 130.141 134.254 133.857 133.547 133.137 132.83 132.385 
132.078 131.612 131.326 130.881 130.656 130.331 130.247 130.125 130.178 
130.163 130.224 134.689 134.32 134.022 133.647 133.371 132.964 132.688 
132.246 131.994 131.539 131.342 130.904 130.8 130.468 130.503 130.335 
130.456 130.361 130.443 132.947 133.61 133.123 132.862 134.406 133.87 
133.616 133.095 132.868 135.221 134.684 134.425 133.894 133.676 133.171 
132.988 136.109 135.554 135.33 134.738 134.525 133.995 133.823 133.322 
133.153 137.028 136.532 136.435 135.788 135.626 134.955 134.803 134.203 
134.05 133.503 133.372 137.847 137.45 137.464 136.945 136.863 136.19 
136.054 135.338 135.191 134.505 134.364 133.78 133.723 138.718 138.286 
138.32 137.895 137.851 137.338 137.209 136.598 136.437 135.746 135.571 
134.876 134.758 134.189 134.179 139.709 139.229 139.245 138.768 138.723 
138.231 138.112 137.603 137.456 136.9 136.725 136.087 135.912 135.278 
135.185 134.656 134.649 140.594 140.189 140.183 139.718 139.66 139.142 
139.023 138.485 138.342 137.821 137.666 137.126 136.947 136.373 136.222 
135.67 135.592 135.101 135.076 140.996 141.381 141.013 140.605 141.654 
141.329 140.921 140.566 140.085 141.813 141.519 141.066 140.793 140.337 
139.984 139.44 141.836 141.594 141.086 140.852 140.388 140.146 139.639 
139.286 138.725 141.742 141.559 141.069 140.837 140.354 140.138 139.657 
139.4 138.859 138.537 137.999 141.602 141.454 141.033 140.83 140.386 
140.142 139.668 139.399 138.877 138.595 138.06 137.786 137.275 141.472 
141.331 140.931 140.78 140.389 140.198 139.759 139.473 138.949 138.623 
138.096 137.815 137.333 137.067 136.59 141.36 141.218 140.808 140.661 
140.269 140.147 139.751 139.554 139.056 138.738 138.197 137.881 137.414 
137.146 136.716 136.427 135.981 141.251 141.123 140.739 140.566 140.172 
140.021 139.644 139.496 139.056 138.814 138.293 137.995 137.515 137.249 
136.836 136.572 136.158 135.857 135.443 141.075 140.659 140.784 140.577 
140.171 140.339 140.131 140.245 140.013 139.558 139.782 139.586 139.767 
139.53 139.662 139.444 138.938 139.133 138.928 139.157 138.924 139.115 
138.846 139.042 138.803 138.405 138.547 138.301 138.488 138.233 138.44 
138.143 138.359 138.065 138.314 138.047 137.842 138.002 137.709 137.867 
137.549 137.729 137.407 137.614 137.315 137.551 137.295 137.543 137.309 
137.292 137.419 137.11 137.241 136.88 137.03 136.687 136.883 136.601 
136.825 136.589 136.824 136.612 136.85 136.643 136.932 136.956 136.665 
136.693 136.343 136.4 136.072 136.208 135.963 136.159 135.953 136.158 
135.942 136.161 135.941 136.185 135.964 136.675 136.672 136.38 136.349 
136.02 135.986 135.684 135.712 135.493 135.608 135.434 135.582 135.377 
135.531 135.295 135.485 135.255 135.489 135.269 134.815 134.813 134.592 
134.17 134.885 134.632 134.215 133.973 133.549 135.004 134.747 134.327 
134.047 133.597 133.341 132.887 135.107 134.882 134.465 134.167 133.68 
133.39 132.914 132.667 132.215 135.221 135.008 134.651 134.333 133.852 
133.496 133.026 132.732 132.321 132.051 131.632 135.422 135.178 134.891 
134.577 134.165 133.758 133.317 132.94 132.586 132.26 131.909 131.552 
131.157 135.726 135.431 135.123 134.828 134.449 134.101 133.675 133.299 
132.927 132.592 132.274 131.917 131.564 131.161 130.838 136.075 135.75 
135.374 135.043 134.621 134.323 133.892 133.592 133.165 132.876 132.51 
132.243 131.92 131.597 131.29 130.934 130.72 136.388 136.079 135.682 
135.302 134.844 134.495 134.07 133.765 133.34 133.04 132.629 132.387 
132.069 131.869 131.609 131.353 131.11 130.833 130.651 144.234 144.285 
144.251 144.223 144.418 144.294 144.22 144.182 144.087 144.544 144.43 
144.334 144.247 144.221 144.098 144.002 144.406 144.482 144.458 144.423 
144.445 144.33 144.295 144.09 143.941 143.908 144.203 144.278 144.456 
144.492 144.516 144.451 144.345 144.158 143.96 143.646 143.235 143.602 
143.676 144.056 144.076 144.334 144.217 144.31 144.08 144.034 143.697 
143.507 143.058 142.613 142.92 142.922 143.311 143.292 143.677 143.567 
143.849 143.648 143.785 143.495 143.453 143.051 142.846 142.395 142.076 
142.323 142.276 142.567 142.503 142.839 142.748 143.092 142.96 143.235 
143.017 143.14 142.805 142.758 142.354 142.196 141.814 141.565 141.79 
141.713 141.952 141.852 142.112 142.003 142.303 142.19 142.503 142.332 
142.572 142.295 142.405 142.058 142.054 141.703 141.62 141.281 144.207 
144.201 144.202 144.057 143.995 144.069 143.934 143.922 143.626 143.792 
143.797 143.601 143.665 143.398 143.372 142.993 143.678 143.616 143.343 
143.324 143.021 143.032 142.659 142.647 142.241 143.371 143.422 143.129 
143.112 142.774 142.702 142.288 142.233 141.81 141.83 141.447 142.747 
142.921 142.61 142.767 142.465 142.489 142.093 141.963 141.523 141.425 
141.059 141.063 140.729 142.09 142.229 141.896 142.102 141.84 142.046 
141.755 141.778 141.384 141.258 140.876 140.775 140.444 140.394 140.041 
141.574 141.651 141.337 141.442 141.183 141.376 141.145 141.318 140.998 
141.041 140.647 140.608 140.222 140.158 139.77 139.703 139.322 141.079 
141.178 140.874 140.955 140.673 140.796 140.544 140.7 140.394 140.518 
140.13 140.216 139.808 139.853 139.448 139.429 139.035 138.995 138.659 
144.092 143.92 143.95 143.75 143.465 143.624 143.407 143.503 143.286 
142.861 143.079 142.865 143.035 142.834 142.99 142.786 142.201 142.475 
142.317 142.49 142.317 142.492 142.319 142.457 142.237 141.465 141.807 
141.718 141.954 141.794 141.985 141.797 141.957 141.724 141.866 141.667 
140.708 141.06 140.981 141.298 141.141 141.401 141.178 141.383 141.108 
141.289 141.065 141.301 141.187 139.963 140.294 140.194 140.529 140.39 
140.685 140.484 140.716 140.457 140.644 140.418 140.658 140.55 140.843 
140.752 139.238 139.541 139.442 139.764 139.662 139.952 139.802 140.038 
139.837 140.025 139.828 140.034 139.917 140.193 140.111 140.376 140.208 
138.596 138.848 138.763 139.054 138.98 139.265 139.14 139.386 139.203 
139.419 139.23 139.452 139.308 139.566 139.451 139.72 139.56 139.783 
139.558 133.132 133.578 133.484 133.787 134.096 133.976 134.333 134.238 
134.598 134.772 134.586 134.962 134.829 135.221 135.085 135.43 135.507 
135.33 135.704 135.521 135.902 135.734 136.085 135.917 136.263 136.134 
136.031 136.417 136.267 136.637 136.455 136.797 136.594 136.904 136.741 
137.083 136.713 136.617 137.001 136.903 137.274 137.158 137.523 137.344 
137.656 137.419 137.704 137.532 137.874 137.33 137.21 137.569 137.455 
137.806 137.722 138.11 138.027 138.409 138.217 138.529 138.254 138.577 
138.37 138.775 137.891 137.803 138.158 138.045 138.397 138.272 138.657 
138.579 139.009 138.922 139.307 139.106 139.434 139.18 139.55 139.352 
139.776 138.331 138.294 138.662 138.614 139.006 138.903 139.3 139.179 
139.601 139.509 139.914 139.799 140.123 139.959 140.257 140.102 140.437 
140.309 140.647 
POINT_DATA 1002
SCALARS Distance double
LOOKUP_TABLE default
140.965 141.357 141.519 141.128 141.784 140.532 141.387 142.157 140.679 
139.979 141.641 142.357 140.885 140.105 139.332 141.653 142.245 140.961 
140.267 139.495 138.782 141.581 142.062 140.895 140.256 139.65 138.95 
138.277 141.679 141.96 141.097 140.309 139.685 139.075 138.34 137.677 
141.802 141.939 141.514 140.736 139.881 139.223 138.478 137.73 137.193 
141.832 142.008 141.702 141.147 140.247 139.489 138.778 137.977 137.35 
136.934 141.804 142.063 141.612 141.19 140.426 139.677 139.05 138.323 
137.609 137.097 136.68 141.846 142.061 142.352 142.628 142.899 142.437 
143.166 143.535 142.982 142.796 143.801 144.191 143.353 143.074 142.796 
144.571 144.609 143.95 143.168 142.817 142.54 144.981 144.606 144.713 
143.644 142.834 142.63 142.344 144.721 144.381 144.836 144.13 143.132 
142.776 142.667 142.281 144.25 144.238 144.285 143.971 143.265 142.867 
142.924 142.785 142.351 143.998 144.184 143.797 143.537 143.118 142.795 
142.881 143.055 142.871 142.444 143.936 143.688 143.556 143.375 143.11 
143.387 142.993 142.582 143.134 143.067 142.506 142.008 142.918 142.972 
142.806 142.068 141.527 142.659 143.037 142.945 142.794 141.643 141.128 
142.235 142.848 143.058 142.944 142.986 141.043 140.633 141.48 142.088 
142.586 142.711 142.824 142.995 140.331 139.991 140.627 141.075 141.649 
141.995 142.201 142.52 142.666 139.668 139.325 139.97 140.327 140.842 
141.282 141.493 141.759 142.102 142.209 141.758 141.677 141.17 141.399 
140.915 140.271 141.125 140.658 139.972 139.217 140.991 140.538 139.812 
138.982 138.325 140.704 140.332 139.616 138.833 138.189 137.705 140.189 
139.87 139.16 138.459 137.969 137.514 137.009 139.723 139.405 138.717 
137.983 137.535 137.129 136.609 136.058 139.331 139.014 138.457 137.748 
137.199 136.711 136.143 135.602 135.143 138.934 138.592 138.168 137.606 
137.054 136.487 135.837 135.258 134.82 134.45 141.454 140.73 141.047 
139.704 140.146 140.392 138.663 139.138 139.48 139.658 137.873 138.225 
138.604 138.876 139.057 137.183 137.41 137.714 138.003 138.258 138.406 
136.286 136.513 136.765 137.019 137.274 137.534 137.67 135.317 135.557 
135.828 136.074 136.295 136.561 136.86 137.059 134.526 134.736 135.045 
135.32 135.508 135.705 135.984 136.303 136.557 133.818 133.934 133.1 
133.352 132.403 134.273 132.742 131.778 133.826 134.658 132.036 131.064 
133.192 134.184 134.881 131.312 130.36 132.4 133.465 134.347 135.026 
130.883 130.069 131.765 132.674 133.669 134.518 135.226 130.855 130.219 
131.494 132.091 132.949 133.908 134.7 135.489 130.95 130.439 131.458 
131.844 132.418 133.286 134.11 134.908 135.794 130.902 130.489 131.394 
131.805 132.232 132.899 133.656 134.382 135.222 136.072 134.075 133.329 
133.682 132.838 133.237 132.493 132.406 132.89 132.066 131.827 132.147 
132.777 131.773 131.549 131.228 132.075 132.738 131.49 131.234 130.898 
130.397 132.087 132.611 131.362 130.815 130.532 130.046 129.706 132.104 
132.509 131.481 130.694 130.223 129.927 129.564 129.618 132.116 132.537 
131.612 130.849 130.156 129.832 129.636 129.576 129.897 132.144 132.64 
131.621 130.954 130.247 129.782 129.582 129.56 129.768 130.137 138.687 
138.266 138.059 137.606 137.448 137.855 136.906 136.7 137.087 137.369 
136.064 135.837 136.255 136.514 136.845 135.233 135.084 135.395 135.609 
135.946 136.273 134.505 134.428 134.622 134.78 135.007 135.307 135.578 
133.743 133.748 133.844 134.029 134.185 134.368 134.644 134.934 133.034 
133.129 133.07 133.269 133.439 133.528 133.752 134.12 134.472 139.358 
138.687 139.323 138.638 139.195 138.027 138.493 139.062 137.909 137.327 
138.349 139.003 137.743 137.156 136.49 138.292 138.981 137.631 137.053 
136.354 135.634 138.259 138.892 137.539 136.938 136.288 135.517 134.91 
138.152 138.693 137.427 136.727 136.121 135.412 134.749 134.258 137.993 
138.483 137.334 136.57 135.926 135.304 134.633 134.094 133.631 137.867 