# vtk DataFile Version 4.0
vtk output
ASCII
DATASET POLYDATA
POINTS 1002 float
-78.1945 -105.54 55.4837 -78.3768 -105.71 56.1161 -78.98 -105.623 55.8244 
-78.7418 -105.246 55.3223 -79.6097 -105.578 55.5179 -78.0468 -105.143 55.0473 
-79.3449 -105.014 55.0866 -80.2395 -105.384 55.1757 -78.5561 -104.662 54.9454 
-77.9576 -104.512 54.6592 -79.981 -104.647 54.7589 -80.7643 -104.843 54.903 
-79.1447 -104.318 54.6391 -78.436 -104.065 54.3804 -77.8274 -103.882 54.0266 
-80.4872 -104.085 54.4188 -81.1026 -104.166 54.6841 -79.7831 -103.975 54.1454 
-78.9872 -103.817 53.8302 -78.2463 -103.627 53.4773 -77.5772 -103.475 53.0895 
-80.8944 -103.685 53.9299 -81.4751 -103.716 54.2523 -80.2937 -103.639 53.5546 
-79.5613 -103.613 53.1399 -78.7234 -103.477 52.7611 -77.9679 -103.284 52.4301 
-77.2788 -103.207 52.0355 -81.4478 -103.587 53.1701 -82.0192 -103.494 53.5716 
-80.7505 -103.46 52.8093 -80.0069 -103.351 52.4487 -79.2154 -103.29 52.0499 
-78.402 -103.103 51.6946 -77.6562 -102.95 51.3706 -76.9701 -102.931 50.9969 
-82.0016 -103.48 52.4207 -82.4624 -103.266 52.9209 -81.2937 -103.362 52.0074 
-80.4234 -103.076 51.7351 -79.632 -102.985 51.4289 -78.8756 -102.921 51.0309 
-78.0368 -102.746 50.6696 -77.2585 -102.661 50.3627 -76.6354 -102.656 50.0463 
-82.2487 -103.141 51.9256 -82.6241 -102.908 52.4441 -81.7435 -103.168 51.3945 
-80.9473 -102.9 51.0368 -80.0662 -102.712 50.7856 -79.3247 -102.713 50.45 
-78.5052 -102.61 50.0702 -77.5721 -102.452 49.7696 -76.8391 -102.411 49.5088 
-76.3442 -102.417 49.2201 -82.2395 -102.632 51.6179 -82.6236 -102.462 52.1052 
-81.9442 -102.814 50.993 -81.4537 -102.783 50.4561 -80.6186 -102.614 50.1218 
-79.7484 -102.544 49.8485 -78.967 -102.472 49.5337 -78.0514 -102.285 49.2553 
-77.1526 -102.159 49.0315 -76.5603 -102.171 48.7745 -76.1597 -102.223 48.4752 
-78.9621 -105.778 56.6847 -79.6442 -105.813 56.305 -79.5349 -105.822 57.3258 
-80.1096 -105.734 56.9306 -79.9262 -105.696 57.9584 -80.2803 -105.776 55.8979 
-80.2884 -105.363 57.5638 -80.264 -105.543 58.5199 -80.6381 -105.526 56.4821 
-80.9015 -105.494 55.483 -80.5847 -105.158 58.0805 -80.7521 -105.56 59.1041 
-80.8353 -105.116 57.0809 -81.3605 -105.307 55.984 -81.4181 -104.929 55.1916 
-81.1278 -105.178 58.5491 -81.1665 -105.528 59.7317 -81.2696 -104.922 57.5562 
-81.7866 -105.066 56.5238 -82.03 -104.925 55.5791 -81.7398 -104.228 54.9469 
-81.4909 -104.941 58.9621 -81.3331 -105.189 60.2255 -81.6957 -104.645 57.9258 
-82.1314 -104.661 57.0208 -82.4864 -104.691 56.0298 -82.3533 -104.179 55.2169 
-82.0894 -103.608 54.496 -81.6482 -104.438 59.2451 -81.4745 -104.678 60.4871 
-81.8488 -104.15 58.191 -82.1986 -104.038 57.4141 -82.6421 -104.113 56.5099 
-82.7819 -103.909 55.541 -82.6412 -103.426 54.724 -82.55 -103.207 53.8618 
-81.8734 -104.011 59.4292 -81.678 -104.208 60.5344 -82.0659 -103.788 58.4418 
-82.3527 -103.627 57.7203 -82.8262 -103.598 56.9204 -83.1774 -103.555 55.9179 
-83.1796 -103.306 54.9741 -83.062 -103.037 54.0984 -82.9102 -102.944 53.2276 
-82.1283 -103.704 59.5227 -81.8288 -103.805 60.4077 -82.4469 -103.588 58.7293 
-82.8384 -103.494 58.0673 -83.3822 -103.406 57.2883 -83.8116 -103.317 56.3064 
-83.8243 -103.196 55.3148 -83.625 -103.021 54.3511 -83.4216 -102.837 53.4293 
-83.0904 -102.653 52.6879 -82.1642 -103.357 59.7161 -82.6267 -103.305 59.0786 
-82.5814 -102.793 59.1979 -83.1608 -102.752 58.7763 -82.9076 -102.114 58.7572 
-83.2054 -103.274 58.5308 -83.5375 -102.09 58.2738 -83.1272 -101.525 58.1755 
-83.9831 -102.755 58.1729 -83.9458 -103.235 57.7702 -83.7935 -101.467 57.6172 
-83.473 -100.943 57.6019 -84.2715 -102.122 57.5017 -84.7165 -102.729 57.1874 
-84.5145 -103.114 56.7367 -84.052 -100.675 57.1092 -83.7366 -100.191 57.1469 
-84.1353 -101.435 56.8734 -84.4479 -102.099 56.5577 -84.7302 -102.573 56.164 
-84.4666 -102.954 55.7046 -83.9737 -99.853 56.4934 -83.4149 -99.6673 56.5227 
-84.0516 -100.531 56.2111 -83.9727 -101.336 55.8672 -84.1064 -101.87 55.5432 
-84.2656 -102.36 55.0951 -84.0958 -102.824 54.6275 -83.3445 -99.5529 55.5849 
-82.7146 -99.5669 55.6807 -83.821 -99.8199 55.2614 -84.0186 -100.442 54.841 
-84.0013 -101.014 54.5247 -83.997 -101.548 54.1834 -84.0343 -102.212 53.7581 
-83.8471 -102.686 53.4858 -82.6207 -99.5619 54.7228 -82.2144 -99.4181 54.8831 
-83.1908 -99.6397 54.389 -83.8395 -99.8688 53.8952 -84.2087 -100.209 53.4606 
-84.1449 -100.667 53.1528 -84.0048 -101.376 52.8629 -83.8661 -102.077 52.658 
-83.526 -102.454 52.637 -82.2004 -99.3083 54.0639 -82.0289 -98.9449 54.2236 
-82.5178 -99.5458 53.8014 -83.1166 -99.6784 53.3731 -83.7566 -99.7697 52.8777 
-83.9535 -100.009 52.4974 -83.786 -100.592 52.2798 -83.6071 -101.326 52.1626 
-83.3498 -101.846 52.1251 -82.959 -102.153 52.1324 -82.2867 -102.022 51.5573 
-82.5506 -101.635 51.6865 -82.0217 -101.593 50.8191 -82.8553 -101.29 51.7632 
-82.2053 -101.169 50.9912 -81.8945 -101.219 49.8514 -83.0541 -100.759 51.7634 
-82.4562 -100.814 51.0309 -82.0853 -100.746 49.9309 -81.6323 -100.719 49.0504 
-83.2204 -100.074 51.7953 -82.6523 -100.277 50.9281 -82.3606 -100.293 49.8625 
-81.8016 -100.124 49.0733 -80.9384 -99.9274 48.7431 -83.2287 -99.6402 52.0609 
-82.7253 -99.6407 51.0076 -82.4903 -99.6538 49.8315 -81.9247 -99.4831 49.0683 
-80.9538 -99.1975 48.7818 -80.0883 -98.9756 48.57 -82.8081 -99.5405 52.5283 
-82.4967 -99.2904 51.4207 -82.3385 -99.0225 50.1516 -81.8669 -98.7701 49.2246 
-80.9625 -98.5039 48.745 -80.1654 -98.2649 48.4293 -79.6186 -98.1988 48.0895 
-82.2829 -99.4041 52.9655 -82.0675 -99.1224 51.8753 -81.9746 -98.676 50.6253 
-81.7119 -98.199 49.5826 -81.0988 -97.9045 48.7442 -80.5181 -97.7529 48.0505 
-80.0496 -97.675 47.6419 -79.5248 -97.7721 47.406 -82.0508 -99.0413 53.2684 
-81.8411 -98.7581 52.221 -81.6829 -98.3892 50.9906 -81.5484 -97.8425 49.9206 
-81.2863 -97.4039 48.9289 -81.0074 -97.3093 47.8537 -80.6968 -97.347 47.1158 
-80.1318 -97.381 46.8919 -79.4414 -97.5157 46.7981 -81.9851 -98.5782 53.474 
-81.8238 -98.2393 52.528 -81.5916 -97.9567 51.3643 -81.4117 -97.524 50.2625 
-81.2887 -97.0005 49.2838 -81.1913 -96.8069 48.1659 -81.0285 -96.959 47.1515 
-80.5864 -97.0942 46.67 -79.8842 -97.1187 46.5368 -79.217 -97.1834 46.3735 
-82.0026 -102.239 50.8621 -81.8824 -101.891 49.9071 -81.8234 -102.5 50.0955 
-81.6164 -101.437 49.0706 -81.5959 -102.139 49.2195 -81.2484 -102.529 49.5756 
-80.9069 -100.669 48.7195 -80.8705 -101.408 48.7911 -80.6621 -102.019 48.9525 
-80.2203 -102.373 49.2974 -80.0204 -99.7137 48.5589 -79.8815 -100.411 48.6475 
-79.6853 -101.079 48.7331 -79.4833 -101.742 48.7607 -79.2644 -102.222 49.0248 
-79.4256 -98.8723 48.1429 -79.2615 -99.5952 48.1978 -78.9985 -100.242 48.3696 
-78.777 -100.936 48.3829 -78.6471 -101.602 48.3916 -78.4152 -102.04 48.732 
-79.1534 -98.3372 47.5441 -79.0099 -99.0679 47.4936 -78.8232 -99.7691 47.5884 
-78.4953 -100.422 47.7623 -78.196 -101.041 47.8127 -77.8892 -101.523 48.0193 
-77.4915 -101.872 48.4986 -78.9993 -98.037 46.9385 -78.8217 -98.734 46.8588 
-78.7197 -99.4247 46.7781 -78.381 -100.037 46.9576 -77.8997 -100.603 47.1981 
-77.4855 -101.091 47.3872 -77.1033 -101.497 47.7374 -76.7615 -101.864 48.2504 
-78.8509 -97.6945 46.3818 -78.6418 -98.4141 46.3259 -78.514 -99.1081 46.1917 
-78.17 -99.6351 46.2616 -77.5975 -100.102 46.6122 -77.1077 -100.622 46.9154 
-76.7927 -101.156 47.1065 -76.532 -101.625 47.431 -76.3081 -101.981 47.9298 
-78.7225 -96.9621 45.9706 -78.4794 -97.6659 45.8826 -78.1755 -96.6938 45.6161 
-77.8902 -97.5873 45.6303 -77.2958 -96.5833 45.5931 -78.2762 -98.5515 45.8257 
-76.8493 -97.5937 45.746 -76.1794 -96.7543 45.8045 -77.4943 -98.6091 45.66 
-77.9088 -99.2325 45.7929 -75.6562 -97.6881 45.8506 -75.2226 -97.0119 45.9507 
-76.3137 -98.6447 45.7083 -76.9013 -99.2876 45.7195 -77.2835 -99.6487 46.0755 
-74.6324 -97.7622 45.7833 -74.4128 -97.1989 46.0972 -75.1106 -98.6371 45.6234 
-75.7777 -99.3615 45.7209 -76.3183 -99.7413 46.1019 -76.7113 -100.13 46.5371 
-73.8296 -97.9356 45.9277 -73.7323 -97.4726 46.4661 -74.0836 -98.6711 45.5985 
-74.6651 -99.4512 45.6421 -75.3865 -100.017 46.0176 -75.9561 -100.431 46.4184 
-76.401 -100.823 46.7226 -73.4304 -98.2788 46.5249 -73.3999 -97.8615 47.1223 
-73.4583 -98.8787 46.0415 -73.7064 -99.5779 45.8164 -74.3024 -100.264 45.9074 
-75.0303 -100.864 46.1485 -75.6838 -101.279 46.4061 -76.1925 -101.496 46.8165 
-73.3288 -98.562 47.4077 -73.2494 -98.1592 47.9343 -73.2755 -99.09 46.8855 
-73.2205 -99.6915 46.4299 -73.4338 -100.318 46.1648 -73.9519 -100.993 46.1453 
-74.6467 -101.574 46.2777 -75.3875 -101.863 46.6032 -75.9646 -101.935 47.2043 
-73.0883 -98.6745 48.2333 -72.9003 -98.3008 48.6261 -73.1131 -99.1429 47.7685 
-73.0146 -99.6926 47.2377 -73.0513 -100.238 46.784 -73.3225 -100.811 46.6113 
-73.7432 -101.441 46.6684 -74.3663 -101.922 46.837 -75.1293 -102.115 47.2121 
-75.7568 -102.164 47.8167 -79.1928 -96.7335 46.3649 -78.5912 -96.354 46.0434 
-78.9502 -96.4246 46.8119 -78.3316 -96.0799 46.6014 -78.6268 -96.1437 47.4866 
-77.8657 -96.0622 45.7553 -78.0137 -95.836 47.4095 -78.3561 -95.4335 47.9732 
-77.4942 -95.9473 46.3849 -76.814 -96.1248 45.7393 -77.6403 -95.0782 48.0322 
-78.0552 -94.4433 48.2891 -77.1177 -95.7824 47.3308 -76.4361 -96.154 46.3107 
-75.7845 -96.4797 45.9086 -77.3087 -94.4494 48.3442 -77.7665 -94.2376 48.6579 
-76.7831 -95.2333 48.0714 -76.172 -95.9727 47.2416 -75.5548 -96.4328 46.4054 
-74.9897 -96.761 46.1842 -77.2088 -94.895 48.5962 -77.6085 -95.0458 49.1214 
-76.6461 -95.1878 48.3821 -75.9817 -95.6525 48.0021 -75.3243 -96.1245 47.2409 
-74.7439 -96.5499 46.7483 -74.1914 -96.9395 46.6106 -77.1215 -95.7274 49.1921 
-77.3869 -95.8567 49.7889 -76.6127 -95.7847 48.7737 -75.855 -95.8404 48.4989 
-75.0503 -95.9062 48.0184 -74.409 -96.2184 47.4891 -73.9255 -96.7077 47.2697 
-73.5671 -97.2525 47.1844 -76.7481 -95.995 50.2061 -76.9698 -96.1267 50.6829 
-76.3388 -96.0374 49.7022 -75.6334 -96.0993 49.2709 -74.7865 -96.0113 48.8295 
-74.0973 -96.0506 48.3014 -73.68 -96.4545 47.9676 -73.4222 -97.0425 47.9091 
-73.2826 -97.6279 47.9131 -76.2696 -95.9319 51.2352 -76.5565 -96.1722 51.5554 
[...]
CELL_DATA 2000
SCALARS Distance double
LOOKUP_TABLE default
141.955 142.079 141.805 141.415 142.194 141.902 141.408 141.195 140.785 
142.137 141.937 141.403 141.167 140.674 140.505 140.061 141.853 141.769 
141.276 141.11 140.603 140.404 139.919 139.745 139.276 141.548 141.472 
141.047 140.936 140.484 140.317 139.822 139.622 139.124 138.952 138.488 
141.405 141.281 140.9 140.742 140.306 140.16 139.683 139.512 138.989 
138.801 138.299 138.158 137.707 141.305 141.219 140.854 140.658 140.16 
139.967 139.468 139.33 138.837 138.666 138.141 137.961 137.475 137.362 
136.937 141.045 141.06 140.711 140.591 140.078 139.844 139.301 139.119 
138.664 138.52 138.049 137.841 137.327 137.141 136.693 136.603 136.234 
140.619 140.689 140.357 140.364 139.946 139.78 139.275 139.03 138.571 
138.387 137.968 137.775 137.285 137.045 136.554 136.389 136.01 135.946 
135.649 142.311 142.941 142.594 142.512 143.416 143.174 143.114 142.799 
142.659 143.668 143.474 143.37 143.251 143.152 142.874 142.608 144.016 
143.675 143.486 143.374 143.353 143.25 143.084 142.721 142.333 144.512 
144.091 143.826 143.561 143.558 143.462 143.445 143.171 142.847 142.373 
141.97 144.749 144.48 144.123 143.889 143.749 143.683 143.657 143.515 
143.239 142.846 142.401 141.998 141.699 144.653 144.51 144.082 143.963 
143.672 143.693 143.557 143.588 143.338 143.132 142.69 142.351 141.982 
141.733 141.524 144.49 144.362 143.982 143.843 143.577 143.525 143.409 
143.421 143.296 143.183 142.894 142.607 142.268 141.981 141.729 141.52 
141.286 144.325 144.248 143.998 143.859 143.735 143.591 143.597 143.467 
143.487 143.304 143.192 142.895 142.654 142.313 142.053 141.754 141.492 
141.231 140.921 144.101 143.776 143.95 143.925 143.422 143.694 143.836 
143.892 143.841 142.936 143.313 143.593 143.844 143.974 143.916 143.815 
142.428 142.801 143.073 143.488 143.722 143.958 143.956 143.871 143.673 
141.891 142.265 142.412 142.848 142.984 143.444 143.465 143.741 143.553 
143.569 143.27 141.146 141.585 141.603 142.056 142.033 142.525 142.448 
142.928 142.765 143.113 142.851 142.993 142.672 140.291 140.713 140.662 
141.113 141.044 141.51 141.395 141.841 141.679 142.123 141.963 142.342 
142.135 142.323 142.044 139.528 139.873 139.815 140.183 140.136 140.547 
140.484 140.867 140.731 141.097 140.974 141.396 141.306 141.665 141.484 
141.675 141.42 138.829 139.156 139.106 139.42 139.372 139.721 139.672 
140.024 139.904 140.228 140.088 140.468 140.396 140.812 140.705 141.017 
140.793 141.006 140.766 140.318 140.289 140.054 139.575 140.207 140.016 
139.49 139.285 138.834 139.925 139.845 139.357 139.194 138.69 138.535 
138.082 139.595 139.505 139.039 138.972 138.493 138.373 137.844 137.707 
137.143 139.4 139.231 138.716 138.615 138.13 138.076 137.519 137.405 
136.735 136.61 135.936 139.217 139.066 138.521 138.34 137.782 137.674 
137.081 136.979 136.271 136.14 135.424 135.345 134.759 138.956 138.85 
138.323 138.145 137.538 137.356 136.717 136.548 135.866 135.69 135.038 
134.903 134.392 134.327 133.961 138.683 138.582 138.061 137.908 137.301 
137.11 136.461 136.25 135.604 135.388 134.828 134.655 134.249 134.121 
133.82 133.724 133.467 138.403 138.308 137.784 137.639 137.051 136.866 
136.244 136.031 135.413 135.198 134.669 134.515 134.147 134.055 133.781 
133.673 133.389 133.279 132.99 140.231 139.514 139.905 139.962 138.815 
139.205 139.299 139.665 139.643 138.055 138.49 138.58 139 138.993 
139.269 139.067 137.057 137.595 137.583 138.134 138.076 138.516 138.316 
138.591 138.339 135.851 136.44 136.34 136.945 136.81 137.39 137.2 
137.687 137.476 137.853 137.666 134.727 135.228 135.174 135.697 135.605 
136.113 135.997 136.504 136.393 136.879 136.745 137.155 136.968 133.933 
134.268 134.29 134.694 134.73 135.118 135.121 135.492 135.469 135.863 
135.795 136.192 136.052 136.417 136.244 133.408 133.637 133.67 133.988 
134.079 134.418 134.471 134.787 134.769 135.08 135.009 135.33 135.227 
135.552 135.451 135.778 135.71 132.907 133.137 133.144 133.447 133.528 
133.842 133.868 134.159 134.09 134.384 134.28 134.594 134.51 134.822 
134.78 135.084 135.077 135.377 135.381 132.535 131.987 132.451 132.83 
131.407 131.936 132.434 132.863 133.258 130.866 131.383 131.926 132.448 
132.874 133.255 133.551 130.418 130.85 131.331 131.89 132.315 132.777 
133.041 133.433 133.681 130.039 130.368 130.712 131.242 131.666 132.18 
132.498 132.897 133.163 133.556 133.86 129.84 130.002 130.248 130.629 
131.04 131.546 131.988 132.426 132.806 133.145 133.501 133.824 134.161 
130.017 129.974 130.224 130.336 130.711 131.034 131.51 131.958 132.438 
132.849 133.265 133.579 133.935 134.194 134.501 130.431 130.325 130.581 
130.522 130.826 130.903 131.275 131.559 131.999 132.431 132.867 133.291 
133.661 133.992 134.301 134.551 134.824 130.714 130.71 130.91 130.886 
131.091 131.089 131.325 131.433 131.755 132.037 132.436 132.834 133.225 
133.628 133.962 134.304 134.589 134.859 135.116 132.368 132.017 132.005 
131.708 131.842 131.717 131.292 131.296 131.045 131.599 131.586 131.186 
131.017 130.63 130.654 130.499 130.994 131.214 130.977 130.962 130.6 
130.437 130.179 130.217 130.152 130.497 130.597 130.51 130.671 130.506 
130.451 130.197 130.089 129.944 129.97 129.907 130.774 130.476 130.451 
130.385 130.375 130.335 130.169 130.086 129.894 129.861 129.75 129.77 
129.742 131.485 131.071 131.012 130.69 130.644 130.395 130.217 130.031 
129.806 129.752 129.633 129.664 129.668 129.725 129.866 131.935 131.681 
131.511 131.256 131.069 130.779 130.491 130.177 129.869 129.684 129.552 
129.556 129.624 129.705 129.89 129.994 130.251 132.099 131.921 131.665 
131.509 131.238 131.054 130.729 130.456 130.115 129.841 129.66 129.556 
129.623 129.687 129.886 130.008 130.22 130.359 130.543 138.068 137.317 
137.613 137.425 136.566 136.836 136.621 136.914 136.684 135.839 136.082 
135.829 136.098 135.835 136.129 135.874 135.104 135.333 135.047 135.3 
134.998 135.266 134.972 135.286 135.039 134.409 134.594 134.302 134.525 
134.224 134.445 134.132 134.391 134.151 134.485 134.33 133.796 133.93 
133.616 133.802 133.506 133.705 133.4 133.607 133.376 133.661 133.576 
133.911 133.882 133.253 133.35 132.983 133.115 132.726 132.931 132.581 
132.852 132.623 132.941 132.875 133.225 133.253 133.574 133.566 132.787 
132.858 132.496 132.523 132.036 132.107 131.641 131.911 131.684 132.126 
132.115 132.547 132.583 132.938 132.927 133.233 133.164 132.388 132.455 
132.18 132.15 131.709 131.566 131.045 131.049 130.798 131.163 131.259 
131.769 131.889 132.271 132.237 132.537 132.443 132.764 132.701 138.288 
138.36 138.076 137.559 138.452 138.161 137.665 137.346 136.834 138.567 
138.29 137.828 137.493 136.987 136.646 136.135 138.609 138.389 137.948 
137.664 137.159 136.817 136.287 135.946 135.421 138.607 138.391 137.959 
137.736 137.245 136.952 136.419 136.095 135.572 135.239 134.737 138.693 
138.418 137.989 137.745 137.284 137.007 136.49 136.195 135.697 135.398 
134.918 134.591 134.13 138.799 138.526 138.068 137.805 137.343 137.064 
136.558 136.261 135.769 135.5 135.047 134.765 134.304 133.996 133.566 
138.808 138.585 138.098 137.854 137.365 137.117 136.623 136.343 135.85 
135.572 135.118 134.861 134.417 134.141 133.694 133.426 133.043 138.763 
138.567 138.105 137.859 137.372 137.123 136.659 136.407 135.953 135.675 
135.224 134.944 134.513 134.242 133.821 133.549 133.153 132.916 132.593 
138.606 138.182 138.263 137.958 137.674 137.8 137.472 137.549 137.211 
137.058 137.212 136.879 137.013 136.664 136.784 136.482 136.508 136.574 
136.197 136.348 136.014 136.196 135.902 136.067 135.79 136.08 136.075 
135.633 135.688 135.323 135.497 135.21 135.433 135.156 135.347 135.059 
135.544 135.619 135.17 135.189 134.757 134.836 134.488 134.688 134.408 
134.653 134.38 134.595 134.329 134.86 135.003 134.592 134.684 134.232 
134.286 133.853 133.976 133.662 133.894 133.673 133.914 133.691 133.891 
133.654 134.254 134.346 133.963 134.066 133.641 133.714 133.26 133.344 
132.994 133.188 133.003 133.256 133.098 133.292 133.07 133.232 133.004 
133.785 133.818 133.438 133.491 133.1 133.146 132.733 132.773 132.422 
132.558 132.374 132.625 132.51 132.73 132.53 132.677 132.439 132.604 
132.43 133.401 132.614 133.024 133.027 131.794 132.216 132.269 132.671 
132.69 131.104 131.47 131.586 131.962 132.023 132.349 132.345 130.508 
130.858 131.016 131.377 131.489 131.757 131.763 132.024 132.061 129.927 
130.266 130.434 130.833 130.977 131.272 131.298 131.52 131.57 131.85 
132.027 129.607 129.77 129.93 130.254 130.411 130.735 130.786 131.054 
131.098 131.393 131.551 131.906 132.138 129.765 129.681 129.804 129.889 
130.006 130.204 130.261 130.519 130.57 130.881 130.991 131.367 131.536 
131.952 132.124 130.182 129.99 130.018 129.916 129.913 129.918 129.899 
130.044 130.096 130.363 130.498 130.814 130.983 131.33 131.509 131.888 
132.057 130.506 130.345 130.243 130.108 129.963 129.871 129.729 129.752 
129.75 129.949 130.133 130.414 130.67 130.922 131.167 131.407 131.635 
131.906 132.115 133.515 133.47 133.235 132.712 133.522 133.211 132.65 
132.385 131.865 133.718 133.335 132.802 132.428 131.888 131.59 131.153 
133.999 133.593 133.11 132.701 132.216 131.778 131.272 130.946 130.547 
134.326 133.921 133.472 133.066 132.63 132.189 131.678 131.199 130.659 
130.332 129.954 134.676 134.29 133.88 133.467 133.025 132.593 132.1 
131.627 131.07 130.581 130.107 129.807 129.617 134.994 134.637 134.241 
133.87 133.413 132.981 132.483 132.034 131.562 131.072 130.654 130.179 
129.964 129.703 129.777 135.311 134.936 134.514 134.177 133.739 133.346 
132.878 132.447 132.062 131.626 131.336 130.854 130.661 130.247 130.26 
130.052 130.232 135.675 135.265 134.834 134.458 134.059 133.677 133.289 
132.883 132.576 132.187 131.983 131.569 131.399 130.973 130.894 130.595 
130.67 130.514 130.625 133.973 134.679 134.206 133.983 135.548 134.99 
134.8 134.265 134.064 136.649 135.992 135.825 135.19 135.025 134.433 
134.274 137.823 137.177 137.021 136.326 136.165 135.497 135.34 134.708 
134.558 138.827 138.302 138.161 137.525 137.338 136.672 136.49 135.825 
135.626 134.991 134.838 139.64 139.216 139.134 138.603 138.458 137.828 
137.651 136.978 136.77 136.083 135.868 135.259 135.133 140.402 140.008 
140.011 139.56 139.543 138.971 138.881 138.191 138.023 137.275 137.069 
136.349 136.178 135.571 135.471 141.195 140.806 140.856 140.455 140.519 
140.058 140.05 139.446 139.299 138.567 138.346 137.595 137.401 136.703 
136.564 135.939 135.838 141.984 141.626 141.675 141.294 141.325 140.951 
140.929 140.489 140.327 139.742 139.459 138.795 138.53 137.887 137.702 
137.077 136.932 136.318 136.201 142.436 142.994 142.528 142.126 143.38 
142.986 142.513 142.118 141.699 143.498 143.205 142.637 142.339 141.853 
141.607 141.212 143.389 143.19 142.591 142.331 141.794 141.614 141.189 
141.033 140.587 143.121 143.02 142.49 142.26 141.746 141.54 141.113 
140.943 140.491 140.292 139.748 142.769 142.736 142.288 142.143 141.684 
141.516 141.121 140.924 140.472 140.21 139.675 139.413 138.859 142.447 
142.414 142.018 141.924 141.489 141.393 141.012 140.907 140.478 140.24 
139.697 139.394 138.859 138.586 138.072 142.211 142.155 141.812 141.707 
141.301 141.176 140.775 140.707 140.308 140.184 139.671 139.422 138.865 
138.605 138.097 137.837 137.322 142.016 141.961 141.669 141.577 141.227 
141.055 140.643 140.489 140.089 139.977 139.527 139.346 138.806 138.575 
138.046 137.828 137.328 137.081 136.574 141.792 141.31 141.537 141.47 
140.71 141.016 140.966 141.193 141.042 139.955 140.325 140.251 140.587 
140.43 140.659 140.433 139.123 139.486 139.357 139.752 139.602 139.945 
139.745 140.004 139.815 138.322 138.634 138.449 138.809 138.647 139.046 
138.888 139.244 139.058 139.371 139.195 137.554 137.839 137.618 137.916 
137.709 138.082 137.914 138.321 138.126 138.507 138.281 138.656 138.449 
136.798 137.07 136.836 137.099 136.861 137.173 136.974 137.342 137.133 
137.51 137.271 137.661 137.447 137.859 137.687 136.107 136.337 136.105 
136.333 136.095 136.36 136.16 136.462 136.266 136.57 136.36 136.684 
136.501 136.874 136.729 137.131 136.989 135.533 135.703 135.475 135.647 
135.413 135.632 135.443 135.705 135.529 135.788 135.604 135.872 135.716 
136.021 135.889 136.225 136.081 136.444 136.276 135.737 135.582 135.407 
134.913 135.446 135.283 134.798 134.604 134.125 135.283 135.145 134.685 
134.501 134.009 133.828 133.373 135.149 134.984 134.525 134.365 133.908 
133.736 133.31 133.128 132.738 135.083 134.887 134.432 134.234 133.811 
133.645 133.276 133.113 132.759 132.565 132.201 135.018 134.835 134.41 
134.203 133.796 133.602 133.236 133.076 132.713 132.56 132.18 132.014 
131.627 134.991 134.785 134.377 134.185 133.78 133.599 133.194 133.025 
132.61 132.459 132.06 131.934 131.588 131.447 131.14 135.08 134.831 
134.44 134.192 133.788 133.569 133.144 132.951 132.513 132.341 131.95 
131.82 131.538 131.432 131.235 131.085 130.913 135.194 134.97 134.622 
134.342 133.967 133.66 133.252 132.955 132.53 132.28 131.905 131.745 
131.487 131.409 131.248 131.18 131.046 130.93 130.797 144.58 144.848 
144.861 145.075 145.033 145.1 145.319 145.281 145.298 145.084 145.225 
145.372 145.399 145.368 145.306 145.126 144.827 145.131 145.242 145.342 
145.272 145.271 145.132 145.049 144.843 144.313 144.705 144.84 145.074 
145.022 145.12 145.048 145.06 144.962 144.827 144.611 143.849 144.155 
144.258 144.552 144.529 144.765 144.758 144.943 144.948 144.955 144.796 
144.587 144.256 143.449 143.689 143.69 143.953 143.923 144.204 144.24 
144.557 144.653 144.859 144.8 144.73 144.427 144.162 143.754 142.922 
143.188 143.121 143.383 143.346 143.623 143.672 144.007 144.131 144.459 
144.487 144.622 144.41 144.285 143.903 143.637 143.231 142.326 142.589 
142.53 142.795 142.769 143.057 143.09 143.428 143.492 143.859 143.858 
144.157 143.997 144.114 143.791 143.705 143.301 143.093 142.693 144.448 
144.886 144.54 144.22 145.101 144.895 144.531 144.203 143.828 144.949 
144.931 144.6 144.406 143.989 143.74 143.373 144.64 144.669 144.375 
144.325 143.939 143.798 143.4 143.223 142.822 144.342 144.355 144.042 
144.033 143.669 143.626 143.239 143.154 142.731 142.575 142.105 143.94 
144.003 143.655 143.681 143.295 143.292 142.897 142.888 142.478 142.407 
141.933 141.786 141.312 143.42 143.512 143.152 143.232 142.842 142.878 
142.471 142.494 142.101 142.095 141.658 141.567 141.088 140.978 140.559 
142.906 142.978 142.621 142.702 142.338 142.397 142.013 142.052 141.676 
141.702 141.302 141.264 140.802 140.717 140.272 140.223 139.861 142.403 
142.479 142.13 142.201 141.863 141.919 141.572 141.607 141.247 141.276 
140.883 140.882 140.43 140.389 139.938 139.907 139.532 139.535 139.225 
144.144 143.906 143.921 143.703 143.565 143.625 143.392 143.455 143.255 
143.171 143.275 143.06 143.117 142.866 142.941 142.73 142.63 142.83 
142.623 142.749 142.477 142.537 142.266 142.384 142.216 141.911 142.189 
141.985 142.22 141.964 142.095 141.787 141.898 141.671 141.872 141.709 
141.158 141.438 141.26 141.528 141.325 141.526 141.245 141.375 141.086 
141.271 141.055 141.292 141.035 140.463 140.729 140.575 140.826 140.636 
140.866 140.617 140.794 140.486 140.648 140.363 140.584 140.331 140.544 
140.233 139.799 140.066 139.918 140.162 139.94 140.163 139.885 140.108 
139.81 140.01 139.706 139.897 139.621 139.834 139.574 139.761 139.473 
139.16 139.409 139.252 139.496 139.265 139.465 139.166 139.363 139.078 
139.302 139.05 139.252 138.991 139.168 138.908 139.1 138.844 139.03 
138.759 134.123 134.59 134.492 134.815 135.212 135.034 135.376 135.256 
135.678 135.944 135.754 136.114 135.914 136.344 136.227 136.755 136.524 
136.463 136.856 136.696 137.091 136.938 137.424 137.358 137.898 136.914 
136.926 137.327 137.319 137.703 137.635 138.054 137.996 138.478 138.446 
138.896 137.377 137.299 137.644 137.661 138.06 138.112 138.551 138.562 
139.018 138.992 139.422 139.358 139.713 137.956 137.813 138.107 138.016 
138.407 138.435 138.938 139.003 139.51 139.515 139.954 139.888 140.251 
140.141 140.462 138.473 138.373 138.674 138.55 138.934 138.881 139.393 
139.422 139.959 139.982 140.436 140.404 140.771 140.685 141.01 140.898 
141.226 138.894 138.842 139.17 139.102 139.496 139.452 139.935 139.93 
140.426 140.427 140.854 140.84 141.197 141.161 141.479 141.415 141.728 
141.652 141.979 
POINT_DATA 1002
SCALARS Distance double
LOOKUP_TABLE default
141.589 142.062 142.216 141.611 142.412 141.045 141.683 142.488 140.931 
140.379 141.642 142.281 140.887 140.206 139.598 141.385 141.894 140.803 
140.12 139.432 138.8 141.137 141.614 140.62 140.031 139.317 138.627 
138.038 141.096 141.507 140.469 139.831 139.19 138.462 137.81 137.275 
141.058 141.354 140.411 139.603 138.972 138.35 137.614 137.002 136.535 
140.772 141.011 140.305 139.519 138.784 138.239 137.56 136.808 136.272 
135.896 140.284 140.563 140.017 139.516 138.79 138.14 137.528 136.769 
136.088 135.673 135.381 142.657 142.91 143.259 143.356 143.635 143.078 
143.435 143.936 143.322 143.058 143.657 144.455 143.368 143.373 142.824 
144.163 144.918 143.659 143.648 143.317 142.402 144.362 144.969 143.846 
143.745 143.581 142.821 141.98 144.203 144.789 143.682 143.49 143.44 
142.996 142.253 141.714 144.099 144.586 143.646 143.404 143.336 143.115 
142.573 141.978 141.495 144.061 144.33 143.836 143.725 143.664 143.463 
143 142.39 141.792 141.189 143.913 143.878 143.537 143.668 143.062 
143.965 143.212 142.535 143.901 144.059 142.656 142.093 143.352 143.917 
143.895 142.046 141.535 142.537 143.065 143.413 143.352 141.176 140.728 
141.588 141.975 142.306 142.576 142.629 140.234 139.911 140.577 140.97 
141.244 141.49 141.826 141.953 139.477 139.199 139.738 140.095 140.39 
140.561 140.875 141.219 141.282 138.793 138.497 139.048 139.332 139.59 
139.734 139.969 140.344 140.552 140.546 139.847 139.769 139.112 139.727 
138.975 138.417 139.463 138.881 138.215 137.615 139.083 138.573 138.026 
137.291 136.522 138.877 138.189 137.632 136.9 136.016 135.269 138.732 
137.955 137.204 136.408 135.507 134.749 134.258 138.489 137.75 136.912 
136.034 135.156 134.454 133.975 133.651 138.209 137.486 136.669 135.805 
134.975 134.356 133.938 133.548 133.203 137.921 137.223 136.445 135.621 
134.816 134.217 133.87 133.535 133.087 132.681 139.585 138.919 139.395 
138.135 138.688 138.897 137.035 137.579 137.963 138.089 135.763 136.222 
136.629 137.01 137.332 134.654 135.105 135.488 135.875 136.296 136.608 
133.892 134.324 134.763 135.115 135.418 135.673 135.876 133.37 133.748 
134.168 134.484 134.709 134.901 135.108 135.37 132.839 133.224 133.613 
133.825 133.961 134.172 134.457 134.774 135.09 132.087 132.427 131.446 
131.937 130.84 132.939 131.375 130.388 132.469 133.216 130.792 130.077 
131.83 132.649 133.259 130.239 129.805 131.108 132.062 132.784 133.448 
129.964 129.754 130.543 131.472 132.432 133.203 133.853 130.207 130.092 
130.503 131.09 131.971 132.914 133.681 134.272 130.678 130.524 130.858 
131.119 131.618 132.409 133.28 134.023 134.609 130.929 130.69 131.124 
131.293 131.563 132.086 132.815 133.582 134.281 134.879 132.336 131.592 
132.125 131.435 131.969 130.851 131.357 131.472 130.768 130.272 130.814 
130.697 130.764 130.274 129.993 130.28 130.514 130.438 130.319 130.001 
129.84 130.636 131.173 130.439 130.251 129.94 129.744 129.668 131.406 
131.877 130.997 130.497 129.906 129.575 129.583 129.754 131.763 132.168 
131.368 130.845 130.132 129.573 129.511 129.78 130.139 131.835 132.297 
131.4 130.952 130.395 129.823 129.587 129.772 130.106 130.417 137.787 
137.133 137.031 136.344 136.323 136.387 135.581 135.615 135.564 135.558 
134.805 134.893 134.755 134.678 134.682 134.086 134.25 134.016 133.903 
133.816 133.958 133.455 133.685 133.307 133.196 133.103 133.212 133.56 
132.912 133.165 132.582 132.291 132.259 132.51 132.906 133.294 132.499 
132.701 132.077 131.45 131.184 131.61 132.227 132.617 132.87 138.583 
137.86 138.639 137.987 138.732 137.149 138.152 138.819 137.346 136.47 
138.196 138.814 137.496 136.639 135.756 138.164 138.845 137.517 136.726 
135.894 135.068 138.247 138.988 137.555 136.78 135.966 135.232 134.456 
138.344 139.066 137.615 136.859 136.039 135.302 134.607 133.849 138.347 
139.013 137.604 136.878 136.135 135.378 134.675 133.969 133.267 138.343 