# vtk DataFile Version 4.0
vtk output
ASCII
DATASET POLYDATA
POINTS 1002 float
-79.8636 -108.792 59.4552 -79.8016 -108.693 60.4551 -80.3857 -108.726 60.0757 
-80.516 -108.844 59.0321 -81.0267 -108.702 59.617 -79.8372 -108.925 58.2912 
-81.2561 -108.809 58.5176 -81.7951 -108.738 59.0689 -80.5477 -108.874 57.8661 
-79.844 -108.76 57.4422 -82.048 -108.806 58.0271 -82.648 -108.832 58.5682 
-81.3629 -108.723 57.4878 -80.6077 -108.544 57.166 -79.9759 -108.28 56.9668 
-82.7291 -108.673 57.7619 -83.329 -108.674 58.2112 -82.1034 -108.537 57.2844 
-81.425 -108.283 56.9534 -80.7319 -108.09 56.6933 -80.0662 -108.017 56.1495 
-83.2976 -108.23 57.5481 -83.866 -108.281 57.8256 -82.6828 -108.196 57.1688 
-82.124 -108.071 56.658 -81.4786 -107.959 56.2097 -80.7366 -108.02 55.6408 
-80.0095 -108.079 54.9428 -84.074 -107.945 57.0451 -84.55 -108.094 57.3165 
-83.383 -107.875 56.7542 -82.8067 -107.973 56.1248 -82.2281 -107.984 55.4485 
-81.4259 -107.991 54.9389 -80.6496 -108.03 54.4644 -80.0366 -107.887 54.1331 
-84.9684 -108.019 56.4499 -85.2138 -108.006 56.879 -84.2962 -107.879 56.0841 
-83.6139 -107.992 55.4651 -83.0631 -108.124 54.7372 -82.2346 -107.981 54.3255 
-81.2933 -107.783 54.1086 -80.6741 -107.583 53.9035 -80.2227 -107.295 53.7892 
-85.4683 -107.852 56.1138 -85.5094 -107.561 56.6299 -84.9636 -107.846 55.648 
-84.2705 -107.861 55.0785 -83.7625 -107.981 54.4255 -83.0812 -107.85 54.0683 
-82.0228 -107.484 53.9887 -81.1827 -107.161 53.8362 -80.7372 -106.924 53.5952 
-80.3123 -106.748 53.3972 -85.521 -107.205 55.967 -85.5414 -106.833 56.4664 
-85.1769 -107.376 55.5221 -84.5702 -107.391 55.059 -84.0814 -107.405 54.5075 
-83.6292 -107.333 54.0992 -82.7613 -107.091 53.951 -81.7548 -106.816 53.7796 
-81.1116 -106.606 53.4447 -80.6773 -106.501 53.0839 -80.1784 -106.507 52.7961 
-80.0009 -108.719 60.9951 -80.5927 -108.666 60.5588 -80.238 -108.713 61.523 
-80.9243 -108.693 61.0709 -80.7124 -108.735 62.2985 -81.3026 -108.652 60.09 
-81.5359 -108.832 61.8583 -81.2906 -108.824 63.0521 -81.8035 -108.756 60.6424 
-82.2498 -108.755 59.6033 -82.0575 -108.812 62.5202 -81.6395 -108.684 63.3433 
-82.4191 -108.82 61.3856 -82.8517 -108.824 60.2584 -83.2239 -108.837 59.1634 
-82.2291 -108.382 62.7059 -81.8692 -108.252 63.4495 -82.6539 -108.5 61.8635 
-83.2235 -108.694 60.9304 -83.7063 -108.773 59.8991 -83.8451 -108.614 58.7601 
-82.3837 -107.848 62.8227 -82.1888 -107.891 63.7177 -82.6331 -107.891 61.9775 
-83.1842 -108.216 61.2528 -83.8646 -108.497 60.5298 -84.1745 -108.417 59.5001 
-84.2748 -108.218 58.2953 -82.6311 -107.446 63.0943 -82.4289 -107.562 63.9308 
-82.7729 -107.355 62.1642 -83.1496 -107.577 61.3839 -83.8518 -107.965 60.8224 
-84.3471 -108.009 60.0886 -84.4896 -107.859 58.9599 -84.7729 -107.9 57.7881 
-82.8085 -107.004 63.3061 -82.5097 -107.025 63.932 -82.9974 -106.935 62.4752 
-83.2744 -107.003 61.6372 -83.8684 -107.306 61.0257 -84.4392 -107.497 60.3893 
-84.6182 -107.379 59.408 -84.7577 -107.323 58.2985 -85.1522 -107.47 57.3649 
-82.9788 -106.517 63.405 -82.5987 -106.427 63.8428 -83.2271 -106.569 62.7477 
-83.4504 -106.595 61.9487 -83.917 -106.733 61.3049 -84.4789 -106.984 60.6935 
-84.7201 -107.056 59.7202 -84.7618 -106.901 58.5914 -84.986 -106.797 57.7298 
-85.3383 -106.821 57.0818 -83.1221 -106.062 63.5805 -83.5119 -106.22 63.1503 
-83.8271 -105.827 63.4518 -84.1312 -105.962 62.9233 -84.4284 -105.377 63.3177 
-83.7117 -106.309 62.4018 -84.5897 -105.446 62.5321 -84.6806 -104.697 62.8448 
-84.306 -105.993 62.0377 -84.024 -106.331 61.6374 -84.7264 -104.862 61.7771 
-84.6723 -104.218 61.8946 -84.7992 -105.523 61.533 -84.7328 -106.04 61.3284 
-84.5672 -106.495 61.0627 -84.763 -104.451 60.8652 -84.756 -103.84 60.924 
-84.9763 -105.095 60.8078 -85.259 -105.692 60.8219 -85.1914 -106.273 60.643 
-84.9041 -106.75 60.1447 -85.0751 -103.884 60.2055 -85.044 -103.245 60.3027 
-85.0955 -104.624 60.0385 -85.3718 -105.23 59.9812 -85.5833 -105.82 59.8856 
-85.3401 -106.419 59.3908 -84.9521 -106.721 58.8257 -85.4725 -103.219 59.6667 
-85.213 -102.774 59.7218 -85.44 -103.981 59.3443 -85.387 -104.688 58.9643 
-85.6615 -105.164 58.8333 -85.8392 -105.732 58.6321 -85.5278 -106.209 58.1689 
-85.1169 -106.432 57.8423 -85.5026 -102.888 58.9273 -85.0761 -102.659 58.9277 
-85.674 -103.487 58.6093 -85.5035 -104.305 58.0184 -85.5964 -104.799 57.7153 
-86.1496 -105.133 57.8296 -86.3456 -105.594 57.7995 -85.8895 -105.913 57.5153 
-85.4255 -106.221 57.2723 -85.2423 -102.771 58.112 -84.8491 -102.584 58.1417 
-85.5715 -103.222 57.865 -85.547 -104.068 57.2973 -85.5263 -104.751 56.8265 
-86.1281 -104.992 56.9193 -86.8608 -105.261 57.2282 -86.7832 -105.599 57.2006 
-86.1077 -105.813 56.9283 -85.625 -106.182 56.6766 -85.5695 -106.366 55.9245 
-85.9321 -105.924 56.0334 -85.6564 -106.031 55.2678 -86.6989 -105.728 56.242 
-86.2656 -105.808 55.2201 -85.7795 -105.771 54.703 -87.3028 -105.428 56.4413 
-87.0489 -105.495 55.3465 -86.3345 -105.438 54.6777 -85.5949 -105.295 54.382 
-86.9199 -105.035 56.3436 -87.3252 -104.861 55.5205 -86.8571 -104.743 54.8321 
-85.8935 -104.733 54.5246 -85.1149 -104.666 54.0042 -85.953 -104.873 56.1305 
-86.66 -104.436 55.5904 -86.8711 -103.954 55.0466 -86.241 -103.995 54.6404 
-85.3647 -104.166 54.0856 -84.8087 -104.137 53.3021 -85.5137 -104.45 56.3422 
-85.8556 -104.274 55.7557 -86.2722 -103.648 55.2924 -86.2147 -103.403 54.7304 
-85.7292 -103.617 53.9584 -85.1875 -103.684 53.1205 -84.6852 -103.598 52.6017 
-85.5106 -103.511 56.8909 -85.5972 -103.607 56.1463 -85.7609 -103.347 55.5803 
-85.7661 -103.036 54.9013 -85.6625 -103.015 53.9128 -85.4962 -103.066 52.8847 
-85.0882 -103 52.3134 -84.4215 -102.99 52.2099 -85.2906 -102.76 57.2999 
-85.4385 -102.688 56.55 -85.5408 -102.611 55.8509 -85.4128 -102.503 55.0883 
-85.2751 -102.387 54.0889 -85.3224 -102.352 52.9707 -85.2239 -102.368 52.2403 
-84.7209 -102.41 52.0324 -83.9955 -102.518 51.9935 -84.9142 -102.434 57.4844 
-85.0884 -102.161 56.8481 -85.2332 -101.989 56.1229 -85.1565 -101.942 55.287 
-85.0005 -101.815 54.3495 -85.0076 -101.69 53.3152 -84.9893 -101.785 52.5052 
-84.6675 -101.987 52.1698 -84.1121 -102.13 52.0309 -83.5226 -102.237 51.8071 
-85.3325 -106.612 55.4826 -85.2658 -106.129 54.965 -84.8502 -106.724 55.1401 
-85.2691 -105.754 54.4271 -84.7234 -106.18 54.6474 -84.2854 -106.717 54.7016 
-85.0302 -105.241 53.8291 -84.682 -105.794 53.8867 -84.1382 -106.157 54.1267 
-83.8484 -106.636 54.1981 -84.6903 -104.626 53.1746 -84.5166 -105.307 53.0827 
-83.9998 -105.81 53.3064 -83.5264 -106.075 53.6359 -83.2194 -106.524 53.849 
-84.414 -104.079 52.6723 -84.2412 -104.695 52.6061 -83.7905 -105.343 52.6959 
-83.2047 -105.769 52.9609 -82.7657 -106.088 53.2376 -82.2914 -106.456 53.543 
-84.0068 -103.54 52.4101 -83.7352 -104.128 52.4457 -83.3878 -104.728 52.3947 
-82.8975 -105.323 52.4514 -82.4951 -105.84 52.5538 -82.0543 -106.191 52.7535 
-81.5161 -106.39 53.1151 -83.5312 -103 52.1481 -83.1213 -103.579 52.2771 
-82.7946 -104.146 52.1715 -82.4647 -104.759 51.9968 -82.2323 -105.435 51.9519 
-81.9589 -105.964 52.0168 -81.4367 -106.211 52.2548 -80.9397 -106.325 52.6632 
-83.1575 -102.569 51.7649 -82.7179 -103.04 51.901 -82.3504 -103.57 51.9012 
-82.056 -104.181 51.6415 -81.8689 -104.895 51.4424 -81.7151 -105.541 51.4604 
-81.2956 -105.962 51.5901 -80.7041 -106.207 51.8559 -80.3268 -106.372 52.2887 
-82.8847 -102.157 51.4681 -82.5324 -102.506 51.3901 -82.176 -102.127 51.1528 
-81.8051 -102.527 51.0679 -81.2739 -102.248 50.9903 -82.1497 -102.941 51.5017 
-80.9067 -102.663 50.6285 -80.4004 -102.38 50.7476 -81.5287 -102.926 50.9578 
-81.8386 -103.491 51.3782 -80.1358 -102.716 49.8681 -79.842 -102.274 50.4028 
-80.7615 -102.988 50.0074 -81.3054 -103.451 50.6646 -81.5744 -104.202 51.1022 
-79.593 -102.571 49.4552 -79.3288 -102.005 50.3567 -80.0041 -103.001 49.1088 
-80.5754 -103.363 49.8712 -81.0064 -104.051 50.7044 -81.3452 -104.907 51.0852 
-78.969 -102.406 49.8889 -78.5736 -101.812 50.6098 -79.2849 -102.974 49.2521 
-79.728 -103.299 49.6666 -80.2211 -103.756 50.5959 -80.5891 -104.633 51.0192 
-80.9431 -105.478 51.2037 -78.234 -102.393 50.5744 -77.7515 -101.803 50.8663 
-78.572 -102.987 50.1348 -78.8976 -103.385 50.2 -79.3591 -103.714 50.7782 
-79.7504 -104.44 51.0649 -79.9858 -105.383 51.0688 -80.3008 -105.99 51.3167 
-77.5136 -102.532 51.0311 -77.0273 -101.958 51.1015 -77.916 -103.06 50.8541 
-78.2031 -103.516 50.7985 -78.5573 -103.929 50.9946 -78.9943 -104.561 51.0761 
-79.2569 -105.46 50.9709 -79.4311 -106.154 51.1124 -79.8154 -106.379 51.6241 
-76.7891 -102.704 51.318 -76.4137 -102.167 51.3717 -77.2116 -103.164 51.2485 
-77.5831 -103.603 51.1936 -77.8976 -104.094 51.2082 -78.2929 -104.694 51.1877 
-78.7047 -105.454 51.0854 -78.9503 -106.168 51.1485 -79.2012 -106.515 51.5569 
-79.6609 -106.528 52.1806 -83.2636 -101.954 51.947 -82.6091 -101.761 51.6381 
-82.8256 -101.527 52.2348 -82.2956 -101.138 51.919 -82.5727 -100.805 52.2979 
-81.9103 -101.637 51.3346 -82.216 -100.382 51.8578 -82.6458 -100.088 52.2003 
-81.7965 -100.866 51.4354 -81.0696 -101.708 51.13 -82.1333 -99.9046 51.7562 
-82.5304 -99.7729 52.544 -81.7064 -100.078 51.1942 -81.0436 -100.811 50.9839 
-80.2992 -101.76 50.9418 -81.6217 -99.7898 52.2777 -81.9426 -99.7346 53.299 
-81.1845 -99.6837 51.2951 -80.6685 -99.9228 50.8052 -80.117 -100.856 50.8431 
-79.6572 -101.646 50.8407 -80.9743 -99.7481 53.128 -81.3371 -99.6987 53.8992 
-80.4299 -99.7073 52.072 -79.8831 -99.536 51.3075 -79.499 -100.041 51.0281 
-79.1777 -100.956 50.983 -78.8486 -101.463 50.8593 -80.5742 -99.6624 53.8417 
-80.9691 -99.6777 54.3583 -79.9692 -99.8361 52.9535 -79.305 -99.7025 52.1347 
-78.8699 -99.7178 51.7209 -78.5752 -100.347 51.4043 -78.2051 -100.938 51.0633 
-77.8911 -101.289 50.8808 -80.2476 -99.6161 54.4984 -80.6383 -99.7638 54.8872 
-79.6761 -99.8026 53.7841 -78.9874 -99.8909 52.8735 -78.4649 -99.8082 52.3079 
-78.142 -100.037 52.0113 -77.718 -100.448 51.537 -77.2559 -100.759 51.0873 
-77.0411 -101.244 50.9831 -79.8385 -99.708 55.0599 -80.246 -99.9619 55.3579 
-79.3005 -99.6968 54.5883 -78.628 -99.7676 53.7521 -78.0311 -99.7816 52.9172 
[...]
CELL_DATA 2000
SCALARS Distance double
LOOKUP_TABLE default
146.736 146.921 146.711 146.421 147.105 146.892 146.615 146.355 146.003 
147.376 147.107 146.816 146.537 146.176 145.902 145.534 147.591 147.362 
147.021 146.745 146.363 146.073 145.699 145.434 145.073 147.558 147.433 
147.06 146.879 146.476 146.236 145.84 145.592 145.231 144.978 144.619 
147.544 147.37 147.043 146.858 146.521 146.321 145.964 145.724 145.356 
145.112 144.755 144.516 144.165 147.723 147.512 147.255 146.958 146.682 
146.429 146.175 145.91 145.579 145.265 144.874 144.608 144.239 144.035 
143.69 147.702 147.686 147.445 147.223 146.88 146.636 146.352 146.145 
145.837 145.536 145.09 144.743 144.283 144.045 143.666 143.514 143.178 
147.265 147.452 147.204 147.212 146.796 146.685 146.268 146.179 145.807 
145.671 145.205 144.924 144.385 144.091 143.636 143.45 143.099 142.979 
142.673 146.952 147.271 147.103 147.097 147.72 147.442 147.424 147.248 
147.285 148.403 148.03 148.006 147.678 147.737 147.52 147.609 148.887 
148.697 148.67 148.352 148.374 148.086 148.17 147.91 147.907 148.863 
148.902 148.837 148.795 148.763 148.659 148.685 148.484 148.419 148.102 
147.912 148.741 148.725 148.572 148.645 148.581 148.74 148.782 148.831 
148.75 148.539 148.3 147.99 147.809 148.734 148.638 148.398 148.35 
148.227 148.384 148.47 148.709 148.719 148.711 148.465 148.265 148.029 
147.883 147.828 148.573 148.577 148.327 148.244 148.054 148.085 148.121 
148.348 148.435 148.567 148.381 148.287 147.962 147.905 147.729 147.798 
147.708 148.25 148.35 148.207 148.179 148.011 147.969 147.93 148.051 
148.144 148.3 148.225 148.173 147.852 147.735 147.445 147.497 147.33 
147.473 147.279 148.085 148.108 148.107 148.129 148.176 148.18 148.125 
148.075 147.985 147.895 148.1 148.043 148.064 147.952 147.922 147.91 
147.251 147.614 147.648 147.872 147.873 147.932 147.967 147.974 148.087 
146.58 146.934 147.048 147.4 147.567 147.815 147.946 148.038 148.078 
148.119 148.101 146.039 146.346 146.475 146.824 147.004 147.395 147.558 
147.86 147.855 147.982 147.8 147.878 147.681 145.56 145.86 145.979 
146.287 146.37 146.738 146.813 147.242 147.271 147.582 147.436 147.528 
147.285 147.359 147.24 145.07 145.378 145.485 145.786 145.827 146.103 
146.111 146.453 146.556 146.945 147.044 147.224 147.131 147.1 146.967 
147.033 147.07 144.554 144.858 144.945 145.264 145.335 145.597 145.634 
145.872 146.014 146.356 146.648 146.948 147.1 147.104 146.997 146.892 
146.797 146.91 146.976 146.763 146.665 146.566 146.357 146.947 146.71 
146.523 146.27 146.037 147.073 147.026 146.818 146.552 146.216 145.953 
145.595 146.584 146.856 146.636 146.644 146.192 146.029 145.518 145.346 
144.839 145.896 146.174 145.976 146.166 145.736 145.753 145.223 145.15 
144.626 144.487 143.98 145.453 145.573 145.387 145.512 145.177 145.212 
144.771 144.765 144.323 144.257 143.787 143.65 143.198 145.083 145.164 
144.915 145.018 144.707 144.741 144.321 144.316 143.872 143.885 143.434 
143.402 142.926 142.859 142.431 144.658 144.724 144.4 144.51 144.169 
144.263 143.83 143.854 143.342 143.365 142.874 142.93 142.484 142.512 
142.098 142.084 141.714 144.277 144.293 143.953 143.993 143.646 143.712 
143.317 143.341 142.855 142.832 142.336 142.355 141.959 142.031 141.716 
141.755 141.452 141.425 141.12 146.9 146.337 146.682 146.799 145.888 
146.101 146.097 146.45 146.439 145.432 145.641 145.528 145.771 145.691 
146.006 145.945 144.707 145.051 144.932 145.201 145.043 145.291 145.177 
145.517 145.467 143.847 144.22 144.145 144.513 144.387 144.648 144.463 
144.744 144.623 145.006 144.88 143.087 143.405 143.344 143.71 143.651 
143.96 143.804 144.046 143.868 144.164 144.01 144.343 144.128 142.36 
142.677 142.6 142.949 142.872 143.208 143.082 143.369 143.224 143.481 
143.34 143.573 143.395 143.618 143.42 141.636 141.935 141.831 142.18 
142.062 142.406 142.259 142.6 142.496 142.834 142.759 143.007 142.861 
143.015 142.827 143.009 142.875 141.006 141.233 141.098 141.397 141.276 
141.592 141.455 141.778 141.695 142.073 142.056 142.405 142.312 142.52 
142.323 142.476 142.311 142.528 142.447 140.638 140.086 140.458 140.692 
139.562 139.917 140.151 140.554 140.839 139.038 139.383 139.593 140.007 
140.285 140.715 141.015 138.471 138.798 138.927 139.377 139.65 140.145 
140.483 140.923 141.28 137.938 138.208 138.264 138.656 138.899 139.444 
139.835 140.379 140.794 141.255 141.653 137.501 137.742 137.841 138.092 
138.322 138.738 139.141 139.694 140.146 140.702 141.101 141.591 141.902 
137.155 137.415 137.647 137.83 138.095 138.336 138.715 139.105 139.558 
140.046 140.46 140.958 141.275 141.728 141.941 136.916 137.185 137.524 
137.726 138.025 138.211 138.545 138.809 139.224 139.583 140.019 140.408 
140.779 141.147 141.429 141.77 141.987 136.762 137.014 137.365 137.606 
137.904 138.121 138.417 138.656 139.012 139.316 139.733 140.077 140.477 
140.79 141.113 141.384 141.649 141.911 142.153 140.533 140.149 140.219 
139.951 139.605 139.76 139.498 139.619 139.399 139.016 139.164 138.921 
139.099 138.901 139.08 138.897 138.649 138.648 138.336 138.462 138.228 
138.49 138.356 138.585 138.398 138.502 138.387 137.946 137.897 137.498 
137.704 137.54 137.93 137.849 138.088 137.891 138.395 138.266 137.809 
137.605 137.085 137.026 136.753 137.06 137.045 137.443 137.35 137.558 
137.364 138.322 138.181 137.828 137.586 137.127 136.83 136.488 136.469 
136.426 136.694 136.67 136.927 136.752 136.98 136.857 138.342 138.169 
137.875 137.675 137.301 136.995 136.618 136.408 136.251 136.289 136.224 
136.337 136.149 136.306 136.151 136.474 136.504 138.419 138.224 137.912 
137.736 137.366 137.13 136.7 136.494 136.208 136.176 136.041 136.051 
135.844 135.829 135.631 135.797 135.817 136.202 136.361 143.981 143.414 
143.684 143.64 142.822 143.104 143.064 143.33 143.296 142.231 142.505 
142.464 142.741 142.674 142.963 142.919 141.624 141.889 141.804 142.105 
142.026 142.318 142.208 142.52 142.432 141.003 141.249 141.118 141.408 
141.311 141.627 141.508 141.797 141.658 141.981 141.907 140.446 140.64 
140.495 140.727 140.595 140.889 140.756 141.059 140.918 141.228 141.159 
141.515 141.547 139.93 140.097 139.905 140.109 139.934 140.187 140.014 
140.289 140.122 140.448 140.395 140.795 140.869 141.265 141.361 139.362 
139.534 139.277 139.481 139.277 139.525 139.36 139.595 139.418 139.67 
139.592 139.99 140.091 140.569 140.703 141.1 141.152 138.789 138.941 
138.689 138.854 138.659 138.878 138.754 138.987 138.864 139.06 138.96 
139.241 139.299 139.751 139.909 140.383 140.468 140.841 140.836 144.076 
143.983 143.857 143.493 143.848 143.725 143.337 143.23 142.87 143.758 
143.601 143.203 143.063 142.702 142.616 142.296 143.719 143.549 143.148 
142.96 142.574 142.457 142.136 142.061 141.732 143.633 143.509 143.106 
142.915 142.452 142.299 141.879 141.834 141.472 141.445 141.091 143.45 
143.383 143.012 142.858 142.374 142.159 141.628 141.501 141.063 141.079 
140.757 140.796 140.514 143.271 143.19 142.858 142.747 142.331 142.113 
141.607 141.337 140.88 140.732 140.456 140.465 140.293 140.302 140.067 
143.217 143.066 142.722 142.594 142.207 142.055 141.622 141.392 140.979 
140.736 140.461 140.329 140.185 140.139 139.958 139.876 139.567 143.229 
143.058 142.684 142.499 142.077 141.913 141.476 141.337 140.94 140.812 
140.501 140.393 140.164 140.087 139.852 139.768 139.452 139.333 138.976 
143.088 142.63 142.771 142.539 142.138 142.292 142.051 142.156 141.879 
141.638 141.801 141.552 141.647 141.316 141.442 141.203 141.068 141.264 
141.032 141.158 140.816 140.879 140.582 140.78 140.656 140.45 140.64 
140.431 140.628 140.361 140.423 140.096 140.192 140.036 140.303 140.276 
139.891 140.019 139.785 140.008 139.816 139.973 139.683 139.744 139.497 
139.694 139.644 139.96 139.955 139.42 139.49 139.19 139.356 139.127 
139.364 139.119 139.282 138.999 139.153 138.989 139.283 139.254 139.61 
139.583 138.988 139.046 138.704 138.778 138.443 138.625 138.344 138.601 
138.359 138.594 138.404 138.644 138.547 138.863 138.824 139.188 139.14 
138.538 138.623 138.305 138.328 137.945 137.985 137.628 137.804 137.576 
137.875 137.753 138.048 137.957 138.216 138.148 138.44 138.399 138.735 
138.689 138.183 137.647 137.948 137.985 137.229 137.447 137.44 137.677 
137.613 136.984 137.089 137.02 137.153 137.021 137.245 137.22 136.867 
136.889 136.778 136.803 136.637 136.722 136.67 136.944 137.124 136.732 
136.749 136.608 136.615 136.454 136.45 136.37 136.505 136.672 137.017 
137.348 136.443 136.497 136.303 136.397 136.254 136.303 136.176 136.246 
136.298 136.589 136.881 137.294 137.608 136.11 136.115 135.863 135.997 
135.895 136.057 135.962 136.031 135.97 136.167 136.364 136.787 137.129 
137.538 137.819 136.006 135.851 135.58 135.587 135.537 135.71 135.768 
135.856 135.853 135.898 136.043 136.312 136.692 137.086 137.459 137.783 
138.071 136.225 135.926 135.678 135.487 135.461 135.504 135.689 135.78 
135.925 135.909 136.057 136.146 136.504 136.78 137.212 137.496 137.825 
138.076 138.358 138.142 137.89 137.846 137.586 137.86 137.649 137.352 
137.333 137.177 138.203 137.79 137.415 137.188 137.005 137.012 136.96 
138.728 138.266 137.825 137.388 137.06 136.903 136.838 136.887 136.889 
139.143 138.764 138.306 137.83 137.363 137.03 136.844 136.809 136.854 
136.885 136.847 139.457 139.11 138.686 138.263 137.826 137.403 137.156 
136.93 136.938 136.897 136.92 136.839 136.67 139.79 139.426 139.054 
138.662 138.373 137.96 137.809 137.428 137.374 137.11 137.071 136.922 
136.801 136.631 136.399 140.136 139.786 139.474 139.107 138.914 138.572 
138.51 138.159 138.072 137.669 137.471 137.137 136.945 136.758 136.623 
136.435 136.301 140.486 140.162 139.92 139.582 139.416 139.114 139.024 
138.761 138.637 138.299 138.024 137.599 137.299 136.978 136.856 136.688 
136.697 136.499 136.503 138.49 139.028 138.589 138.285 139.689 139.216 
138.97 138.477 138.293 140.474 139.977 139.816 139.282 139.13 138.634 
138.615 141.357 140.845 140.749 140.217 140.091 139.539 139.454 139.026 
139.076 142.241 141.747 141.664 141.178 141.089 140.535 140.38 139.851 
139.783 139.436 139.467 143.069 142.607 142.523 142.074 142.029 141.531 
141.394 140.798 140.632 140.147 140.132 139.8 139.823 143.842 143.425 
143.385 142.945 142.938 142.472 142.395 141.815 141.639 141.052 140.972 
140.536 140.576 140.194 140.193 144.54 144.194 144.225 143.833 143.871 
143.416 143.373 142.818 142.666 142.066 141.945 141.437 141.431 141.005 
141 140.569 140.517 145.155 144.876 144.962 144.657 144.745 144.351 
144.331 143.808 143.669 143.082 142.95 142.413 142.362 141.888 141.848 
141.386 141.307 140.868 140.811 145.502 146.035 145.632 145.372 146.554 
146.193 145.942 145.524 145.203 146.87 146.623 146.356 146.035 145.666 
145.251 144.774 147.024 146.813 146.501 146.292 145.894 145.589 145.068 
144.667 144.086 147.208 146.936 146.549 146.326 145.92 145.697 145.23 
144.906 144.37 143.95 143.401 147.314 147.089 146.639 146.371 145.925 
145.697 145.287 145.044 144.602 144.252 143.747 143.316 142.814 147.135 
147.051 146.593 146.406 145.933 145.721 145.3 145.094 144.681 144.433 
143.954 143.619 143.088 142.714 142.223 146.832 146.781 146.367 146.263 
145.839 145.697 145.287 145.102 144.671 144.456 143.99 143.737 143.226 
142.913 142.396 142.079 141.625 146.657 146.546 146.188 146.061 145.713 
145.596 145.255 145.088 144.676 144.444 143.99 143.751 143.31 143.039 
142.588 142.258 141.82 141.503 141.128 146.522 146.17 146.244 146.023 
145.768 145.869 145.66 145.739 145.557 145.305 145.439 145.252 145.372 
145.182 145.288 145.104 144.807 144.939 144.715 144.894 144.675 144.843 
144.589 144.744 144.483 144.327 144.421 144.143 144.306 144.063 144.253 
143.977 144.144 143.846 144.03 143.77 143.888 143.948 143.652 143.755 
143.521 143.667 143.427 143.547 143.274 143.406 143.164 143.343 143.122 
143.444 143.512 143.196 143.277 143.021 143.163 142.934 143.052 142.771 
142.874 142.612 142.769 142.535 142.709 142.446 142.97 143.06 142.73 
142.798 142.477 142.62 142.353 142.525 142.223 142.351 142.035 142.193 
141.927 142.113 141.837 141.997 141.7 142.501 142.598 142.298 142.339 
141.989 142.059 141.751 141.903 141.625 141.774 141.477 141.61 141.346 
141.506 141.264 141.41 141.138 141.268 141.013 140.622 140.745 140.484 
140.107 140.877 140.63 140.252 139.989 139.636 140.97 140.743 140.364 
140.12 139.733 139.512 139.201 141.085 140.842 140.468 140.217 139.794 
139.554 139.168 139.037 138.736 141.204 140.961 140.591 140.341 139.942 
139.646 139.225 138.987 138.614 138.495 138.121 141.358 141.089 140.743 
140.488 140.154 139.858 139.499 139.163 138.788 138.477 138.078 137.842 
137.445 141.65 141.328 141.042 140.727 140.448 140.13 139.832 139.498 
139.17 138.796 138.419 138.011 137.635 137.304 137.037 141.975 141.678 
141.418 141.106 140.843 140.5 140.192 139.842 139.505 139.167 138.818 
138.443 138.099 137.698 137.431 137.101 136.929 142.176 141.951 141.666 
141.431 141.143 140.868 140.525 140.192 139.8 139.464 139.092 138.784 
138.466 138.154 137.889 137.567 137.341 137.034 136.806 148.292 148.742 
148.56 148.629 148.933 148.945 149.067 148.932 148.947 148.849 148.944 
149.025 149.135 149.152 149.098 148.906 148.844 148.813 148.77 148.887 
148.901 149.055 148.936 148.84 148.435 148.819 148.816 148.684 148.67 
148.639 148.753 148.76 148.788 148.548 148.29 147.817 148.389 148.616 
148.522 148.594 148.519 148.578 148.576 148.643 148.534 148.409 148.051 
147.716 147.279 147.769 148.066 148.094 148.324 148.304 148.427 148.347 
148.437 148.291 148.321 148.024 147.879 147.454 147.188 146.788 147.307 
147.528 147.611 147.88 147.946 148.14 148.054 148.138 147.921 147.983 
147.707 147.719 147.36 147.24 146.824 146.638 146.261 146.926 147.113 
147.13 147.408 147.463 147.732 147.667 147.796 147.561 147.602 147.337 
147.38 147.125 147.093 146.769 146.62 146.247 146.074 145.732 148.046 
148.301 147.986 147.703 148.626 148.283 147.894 147.628 147.373 148.611 
148.483 148.065 147.819 147.457 147.276 147.002 148.099 148.21 147.82 
147.804 147.401 147.299 146.936 146.82 146.467 147.421 147.558 147.197 
147.348 147.004 147.073 146.703 146.667 146.262 146.178 145.771 146.913 
146.953 146.609 146.715 146.427 146.564 146.252 146.321 145.943 145.92 
145.521 145.457 145.093 146.521 146.554 146.251 146.266 145.981 146.037 
145.74 145.818 145.473 145.529 145.172 145.187 144.866 144.836 144.552 
146.064 146.173 145.924 145.968 145.689 145.688 145.375 145.371 145.027 
145.05 144.704 144.769 144.47 144.551 144.298 144.329 144.085 145.551 
145.696 145.477 145.596 145.334 145.383 145.068 145.061 144.722 144.692 
144.346 144.335 144.014 144.084 143.83 143.963 143.746 143.837 143.605 
147.948 147.652 147.837 147.975 147.315 147.519 147.661 147.931 148.06 
146.907 147.122 147.152 147.486 147.579 147.883 147.794 146.372 146.63 
146.564 146.871 146.871 147.245 147.19 147.434 147.173 145.705 146.017 
145.962 146.253 146.205 146.517 146.475 146.774 146.618 146.772 146.498 
145.019 145.315 145.281 145.616 145.58 145.879 145.803 146.087 145.963 
146.195 145.982 146.13 145.906 144.455 144.664 144.582 144.901 144.869 
145.213 145.125 145.416 145.261 145.524 145.336 145.561 145.36 145.557 
145.39 144 144.147 144.003 144.228 144.157 144.478 144.419 144.722 
144.589 144.837 144.668 144.904 144.743 144.974 144.83 145.05 144.911 
143.553 143.7 143.535 143.691 143.577 143.819 143.772 144.052 143.979 
144.214 144.078 144.284 144.135 144.359 144.23 144.47 144.346 144.567 
144.423 138.746 139.245 139.087 139.27 139.717 139.599 139.819 139.648 
139.877 140.204 140.1 140.376 140.213 140.456 140.291 140.599 140.745 
140.627 140.946 140.799 141.066 140.885 141.191 141.07 141.456 141.319 
141.186 141.505 141.383 141.658 141.488 141.766 141.65 142.035 141.963 
142.357 141.84 141.717 141.998 141.919 142.215 142.076 142.332 142.192 
142.536 142.496 142.911 142.846 143.191 142.313 142.178 142.401 142.345 
142.659 142.608 142.917 142.779 143.091 142.988 143.389 143.353 143.738 
143.642 143.937 142.818 142.655 142.847 142.728 143.006 142.994 143.351 
143.325 143.664 143.568 143.924 143.848 144.235 144.16 144.478 144.35 
144.601 143.308 143.18 143.386 143.216 143.443 143.351 143.668 143.68 
144.037 144.047 144.387 144.36 144.703 144.654 144.97 144.869 145.114 
144.974 145.192 
POINT_DATA 1002
SCALARS Distance double
LOOKUP_TABLE default
146.475 146.775 146.961 146.698 147.107 146.094 146.873 147.336 146.276 
145.641 147.115 147.679 146.464 145.791 145.171 147.292 147.804 146.658 
145.966 145.34 144.709 147.204 147.669 146.687 146.085 145.471 144.886 
144.264 147.24 147.723 146.686 146.192 145.618 144.982 144.401 143.831 
147.576 147.87 146.951 146.412 145.925 145.199 144.444 143.873 143.366 
147.614 147.623 147.145 146.545 146.101 145.485 144.587 143.82 143.305 
142.864 147.12 147.053 146.878 146.367 145.892 145.429 144.702 143.866 
143.224 142.769 142.388 147.123 147.226 147.465 147.636 148.061 147.413 
148.396 148.755 147.988 147.813 148.942 148.966 148.677 148.46 148.239 
148.802 148.824 148.771 148.844 148.755 148.265 148.55 148.852 148.366 
148.608 148.897 148.6 148.037 148.512 148.839 148.135 148.181 148.624 
148.638 148.16 147.892 148.383 148.499 148.088 147.942 148.241 148.442 
148.065 147.665 147.634 148.171 148.083 148.069 147.878 147.972 148.219 
148.015 147.478 147.194 147.163 148.001 148.149 148.175 148.218 148.138 
148.009 147.947 147.602 147.967 147.882 147.296 146.859 147.704 147.949 
148.07 146.648 146.236 147.203 147.794 148.096 148.071 146.156 145.727 
146.623 147.189 147.692 147.781 147.55 145.698 145.256 146.086 146.403 
146.848 147.276 147.255 147.05 145.183 144.773 145.578 145.823 146.109 
146.714 147.145 146.997 146.855 144.621 144.271 145.034 145.396 145.687 
146.247 146.987 147.171 146.825 146.713 146.526 146.46 146.087 146.847 
146.264 145.76 147.064 146.548 145.836 145.19 146.521 146.324 145.704 
145.014 144.315 145.756 145.654 145.231 144.734 144.132 143.494 145.278 
145.128 144.751 144.33 143.906 143.324 142.776 144.82 144.65 144.345 
143.868 143.42 142.977 142.479 142.039 144.319 144.061 143.796 143.351 
142.808 142.395 142.08 141.735 141.369 143.941 143.599 143.279 142.877 
142.337 141.863 141.62 141.45 141.173 140.82 146.4 145.817 146.073 
145.348 145.421 145.579 144.616 144.835 144.873 145.081 143.731 144.09 
144.238 144.279 144.51 142.99 143.311 143.553 143.622 143.705 143.817 
142.266 142.546 142.762 142.933 143.118 143.197 143.171 141.501 141.728 
141.912 142.106 142.451 142.708 142.679 142.632 140.83 140.964 141.136 
141.318 141.662 142.056 142.175 142.117 142.185 140.264 140.282 139.713 
139.757 139.217 140.416 139.177 138.721 139.848 140.592 138.498 138.197 
139.108 139.997 140.861 137.932 137.688 138.363 139.228 140.28 141.242 
137.609 137.208 137.982 138.623 139.575 140.584 141.477 137.431 136.829 
137.902 138.405 139.119 139.982 140.816 141.534 137.296 136.624 137.848 
138.328 138.905 139.649 140.428 141.094 141.662 137.125 136.537 137.676 
138.19 138.736 139.396 140.156 140.849 141.396 141.889 140.515 139.878 
140.056 139.348 139.412 139.268 138.734 138.904 138.681 138.756 138.305 
138.739 137.971 138.036 138.279 138.117 138.652 137.418 137.108 137.479 
137.789 138.031 138.503 137.284 136.556 136.596 137.062 137.199 138.011 
138.452 137.445 136.653 136.258 136.428 136.522 136.535 138.045 138.529 
137.572 136.889 136.313 136.183 136.063 135.862 136.059 138.097 138.631 
137.594 136.933 136.28 136.033 135.908 135.563 135.471 135.923 143.732 
143.381 143.132 142.802 142.534 143.01 142.179 141.982 142.413 142.602 
141.508 141.384 141.726 141.941 142.083 140.858 140.77 140.991 141.217 
141.368 141.523 140.296 140.276 140.334 140.461 140.593 140.794 141.16 
139.723 139.793 139.699 139.769 139.815 139.959 140.433 141.015 139.088 
139.207 139.022 139.11 139.203 139.239 139.581 140.26 140.835 144.225 
143.616 144.108 143.453 143.985 142.944 143.367 143.925 142.793 142.371 
143.355 143.877 142.723 142.208 141.831 143.295 143.726 142.667 141.967 
141.464 141.121 143.129 143.495 142.613 141.843 141.074 140.652 140.499 
142.947 143.372 142.499 141.883 141.095 140.471 140.246 140.134 142.882 
143.398 142.338 141.786 141.2 140.643 140.271 140.039 139.703 142.894 
143.396 142.277 141.615 141.029 140.594 140.268 139.954 139.563 139.09 