# vtk DataFile Version 4.0
vtk output
ASCII
DATASET POLYDATA
POINTS 1002 float
-77.3996 -106.248 52.673 -77.4488 -105.928 53.5968 -77.9439 -106.077 53.1414 
-77.9476 -106.355 52.388 -78.4082 -105.961 52.8941 -77.3397 -106.458 52.0866 
-78.4516 -106.075 52.184 -78.8697 -105.709 52.5779 -77.9125 -106.329 51.9163 
-77.3047 -106.128 51.5618 -79.0186 -105.828 51.5712 -79.6074 -105.743 51.8716 
-78.467 -105.978 51.3925 -77.8795 -105.888 51.0845 -77.2785 -105.654 50.4092 
-79.8581 -105.91 50.5795 -80.474 -105.817 51.0618 -79.11 -105.845 50.3391 
-78.4766 -105.757 50.06 -77.8847 -105.69 49.4591 -77.2454 -105.71 48.6893 
-80.6121 -105.827 49.8295 -80.9419 -105.49 50.5178 -79.8455 -105.803 49.3916 
-79.048 -105.655 49.0885 -78.5021 -105.745 48.5057 -77.9166 -105.887 47.8237 
-77.1876 -105.846 47.3638 -81.0023 -105.411 49.3906 -81.2609 -105.136 50.0119 
-80.41 -105.505 48.8824 -79.5461 -105.336 48.6156 -78.9452 -105.41 48.1171 
-78.5147 -105.731 47.3589 -77.8475 -105.741 46.8788 -77.0495 -105.452 46.6658 
-81.4276 -105.07 48.9181 -81.8551 -104.999 49.388 -80.9043 -105.165 48.4215 
-80.116 -105.075 48.1302 -79.3765 -105.001 47.7896 -78.9142 -105.26 47.0721 
-78.3594 -105.43 46.4422 -77.5825 -105.213 46.1876 -76.8341 -104.979 45.9549 
-81.8979 -104.77 48.4608 -82.321 -104.71 48.8803 -81.4607 -104.91 47.9165 
-80.8588 -105.026 47.4256 -80.0789 -104.975 47.0591 -79.3914 -104.997 46.511 
-78.7539 -105.112 45.8871 -77.9874 -105.002 45.583 -77.2317 -104.808 45.4092 
-76.623 -104.837 45.0508 -82.0598 -104.291 48.161 -82.3284 -104.137 48.5826 
-81.8022 -104.543 47.5672 -81.4543 -104.869 46.8935 -80.8239 -105.004 46.3779 
-80.0198 -104.936 45.9423 -79.2236 -104.876 45.4529 -78.3943 -104.752 45.1406 
-77.5918 -104.553 45.0151 -76.9603 -104.544 44.7484 -76.4764 -104.772 44.2901 
-77.7315 -105.937 54.3946 -78.2095 -105.945 53.9601 -77.9664 -106.188 55.2704 
-78.44 -106.052 54.849 -78.2891 -106.535 55.9984 -78.6482 -105.754 53.6413 
-78.782 -106.188 55.5687 -78.7412 -106.703 56.5406 -78.95 -105.823 54.4044 
-79.249 -105.654 53.1497 -79.1882 -106.119 56.1295 -79.0876 -106.629 57.0448 
-79.3897 -105.9 55.0173 -79.779 -105.818 53.706 -80.1642 -105.759 52.3607 
-79.521 -105.991 56.6482 -79.2812 -106.409 57.5715 -79.8254 -105.828 55.5208 
-80.3606 -105.881 54.1833 -80.7245 -105.739 52.849 -80.8329 -105.521 51.6644 
-79.9456 -105.925 57.1522 -79.6427 -106.111 58.0486 -80.2135 -105.764 55.9577 
-80.8067 -105.791 54.6331 -81.2544 -105.673 53.3243 -81.1756 -105.283 52.1925 
-81.1094 -105.088 51.1131 -80.5447 -105.799 57.5963 -80.1996 -105.792 58.3694 
-80.6568 -105.664 56.3367 -81.0851 -105.595 55.0405 -81.6656 -105.589 53.8702 
-81.7156 -105.324 52.7339 -81.5714 -105.029 51.5679 -81.7082 -105.004 50.3931 
-80.9931 -105.528 57.8557 -80.6157 -105.43 58.4794 -81.0198 -105.404 56.62 
-81.2276 -105.218 55.3476 -81.8278 -105.272 54.3691 -82.1775 -105.303 53.3664 
-82.1817 -105.085 52.1161 -82.3243 -104.944 50.7741 -82.4609 -104.896 49.6528 
-81.0921 -105.105 57.8725 -80.7614 -104.953 58.4377 -81.1211 -105.02 56.7281 
-81.2401 -104.753 55.5269 -81.7757 -104.71 54.6753 -82.2979 -104.895 53.8421 
-82.447 -104.825 52.6788 -82.5794 -104.571 51.3155 -82.755 -104.46 50.0696 
-82.6535 -104.357 49.1759 -80.9601 -104.456 57.9906 -81.0457 -104.54 56.9703 
-80.9914 -103.814 57.1326 -81.1333 -103.837 55.9792 -81.1861 -103.158 56.1785 
-81.1554 -104.341 55.7711 -81.6249 -103.182 55.285 -81.5218 -102.657 55.3426 
-81.5975 -103.651 55.1253 -81.6343 -104.125 54.9133 -81.9919 -102.715 54.518 
-81.6197 -102.363 54.3448 -82.1827 -103.093 54.5724 -82.1999 -103.595 54.3628 
-82.2317 -104.24 54.1102 -81.8878 -102.395 53.3241 -81.5233 -102.094 53.1995 
-82.3269 -102.664 53.5502 -82.5454 -103.116 53.4171 -82.4719 -103.679 53.0964 
-82.4323 -104.276 52.9244 -81.8594 -102.036 52.2657 -81.6238 -101.665 52.3439 
-82.3505 -102.291 52.4146 -82.877 -102.655 52.3574 -82.8387 -103.089 51.947 
-82.467 -103.427 51.6881 -82.4574 -103.932 51.5836 -82.1482 -101.586 51.6419 
-81.8907 -101.155 51.7674 -82.6108 -101.934 51.656 -83.3926 -102.238 51.6462 
-83.7455 -102.612 51.2696 -83.1266 -102.832 50.8005 -82.501 -103.043 50.5755 
-82.584 -103.68 50.3606 -82.3488 -101.148 51.0913 -82.0212 -100.715 51.1961 
-82.7312 -101.629 51.0078 -83.4394 -101.961 50.9769 -84.2315 -102.24 50.7449 
-84.1432 -102.526 50.241 -83.1652 -102.667 49.8331 -82.5111 -102.959 49.6068 
-82.5589 -103.645 49.3772 -82.2768 -100.746 50.465 -81.9411 -100.36 50.5979 
-82.5673 -101.306 50.2936 -82.9186 -101.785 50.1604 -83.5615 -102.032 49.9914 
-84.1616 -102.264 49.5918 -83.9547 -102.518 49.1084 -83.0908 -102.691 48.8465 
-82.4651 -103.006 48.7588 -82.3369 -103.567 48.6759 -82.0974 -103.62 48.0622 
-82.3673 -103.112 48.0506 -82.2333 -103.308 47.3489 -83.0557 -102.772 47.9604 
-82.9917 -102.912 47.2393 -82.5229 -103.194 46.5635 -83.8289 -102.57 47.9959 
-83.8882 -102.642 47.1403 -83.3577 -102.813 46.5089 -82.2731 -102.98 45.9491 
-83.8535 -102.304 48.3657 -83.9743 -102.339 47.3185 -83.7733 -102.391 46.5836 
-82.6426 -102.48 46.0131 -81.6129 -102.54 45.3735 -83.1247 -102.039 48.8712 
-83.0891 -101.981 47.7741 -83.3225 -101.889 46.8393 -82.6878 -101.833 46.1448 
-81.6489 -101.876 45.482 -81.2492 -102.009 44.6482 -82.5756 -101.811 49.1958 
-82.3804 -101.659 48.2024 -82.6645 -101.402 47.1544 -82.5724 -101.192 46.2263 
-81.7746 -101.13 45.544 -81.2258 -101.241 44.7884 -81.069 -101.421 43.9865 
-82.4511 -101.34 49.414 -82.3304 -101.202 48.5088 -82.4177 -100.914 47.4846 
-82.3983 -100.664 46.3635 -81.9045 -100.531 45.4971 -81.3125 -100.517 44.8199 
-80.9976 -100.61 44.1196 -80.6612 -100.738 43.5846 -82.2832 -100.699 49.6596 
-82.279 -100.587 48.7921 -82.2488 -100.397 47.8365 -82.0292 -100.222 46.7209 
-81.6644 -100.068 45.6613 -81.3222 -99.9047 44.8194 -81.0095 -99.8241 44.1254 
-80.6248 -99.8906 43.6429 -80.1216 -100.054 43.3888 -81.9472 -100.225 49.8819 
-81.9297 -100.105 49.047 -81.8626 -99.9998 48.118 -81.5638 -99.8986 47.1086 
-81.2023 -99.6939 46.0967 -81.1245 -99.335 45.1294 -81.1068 -99.0355 44.2341 
-80.7745 -99.0032 43.6206 -80.2055 -99.1983 43.3862 -79.654 -99.4837 43.2847 
-81.9253 -103.921 47.4987 -81.9267 -103.704 46.7094 -81.7358 -104.358 46.7599 
-81.7907 -103.438 46.0246 -81.486 -104.026 46.0832 -81.3042 -104.669 46.113 
-81.4233 -103.001 45.4136 -81.0774 -103.421 45.5843 -80.8152 -104.028 45.6808 
-80.5379 -104.651 45.7008 -81.1962 -102.576 44.5944 -80.8509 -102.931 44.8174 
-80.3741 -103.308 45.1558 -80.021 -103.908 45.3268 -79.6685 -104.514 45.3138 
-80.9997 -102.099 43.8276 -80.6452 -102.621 43.9152 -80.1266 -102.999 44.2025 
-79.6792 -103.392 44.5926 -79.2574 -103.866 44.8992 -78.7915 -104.36 44.9856 
-80.4967 -101.404 43.4458 -80.0744 -102.022 43.4767 -79.6211 -102.605 43.5667 
-79.3576 -103.148 43.669 -79.0166 -103.49 44.0853 -78.4453 -103.742 44.6008 
-77.9118 -104.137 44.8287 -79.8931 -100.673 43.2698 -79.477 -101.234 43.2655 
-79.0483 -101.819 43.3558 -78.8977 -102.585 43.2338 -78.7572 -103.238 43.2028 
-78.2558 -103.442 43.7425 -77.6223 -103.609 44.3531 -77.1887 -104.072 44.5807 
-79.4366 -100.09 43.1192 -79.1683 -100.637 42.922 -78.8569 -101.128 42.9145 
-78.6631 -101.823 42.8936 -78.4922 -102.732 42.6712 -78.0598 -103.286 42.7961 
-77.4536 -103.397 43.4569 -76.9657 -103.696 43.9733 -76.6676 -104.299 44.113 
-79.1216 -99.3827 43.0714 -78.9725 -100.016 42.7026 -78.637 -99.2415 42.6913 
-78.5253 -99.8992 42.2136 -78.0572 -98.9681 42.3258 -78.8357 -100.586 42.3429 
-77.7971 -99.6539 42.0238 -77.2727 -98.6952 42.0891 -78.3826 -100.55 41.8859 
-78.6471 -101.167 42.2792 -76.8212 -99.4664 42.0067 -76.3693 -98.6277 41.8753 
-77.4125 -100.443 41.9228 -78.0167 -101.3 41.8834 -78.3223 -102.037 42.2325 
-75.8699 -99.5275 41.9321 -75.4936 -98.7618 41.9361 -76.2817 -100.43 42.0397 
-76.8472 -101.337 41.9632 -77.4048 -102.205 41.9214 -77.7807 -102.911 42.1874 
-75.0555 -99.6821 42.1775 -74.7676 -98.9789 42.4346 -75.3849 -100.562 42.0802 
-75.8245 -101.36 42.0825 -76.361 -102.088 42.095 -76.8253 -102.798 42.2061 
-77.1741 -103.246 42.658 -74.4009 -99.7565 42.6826 -74.173 -99.189 42.8819 
-74.6708 -100.606 42.41 -75.0519 -101.413 42.2203 -75.5797 -101.945 42.3472 
-76.0752 -102.462 42.6188 -76.4246 -103.057 42.8759 -76.7048 -103.473 43.3274 
-73.83 -99.8125 42.99 -73.5979 -99.3596 43.0729 -74.0757 -100.54 42.8554 
-74.3373 -101.382 42.6019 -74.7621 -101.96 42.5994 -75.312 -102.33 42.9611 
-75.7585 -102.9 43.2249 -76.0818 -103.621 43.3075 -76.3763 -104.11 43.5853 
-73.2824 -99.9389 43.222 -73.077 -99.527 43.3467 -73.5585 -100.538 43.2088 
-73.7756 -101.305 43.1013 -74.0112 -101.992 43.0075 -74.4408 -102.435 43.2025 
-74.9634 -102.909 43.4677 -75.4012 -103.674 43.4444 -75.7763 -104.433 43.3795 
-76.134 -104.781 43.6781 -79.5833 -98.7768 43.2261 -78.9849 -98.6607 43.0144 
-79.5704 -98.102 43.1003 -78.8937 -97.9556 42.8075 -79.4305 -97.563 43.1807 
-78.4358 -98.4245 42.6315 -78.7228 -97.2943 42.8724 -79.0395 -97.1809 43.6885 
-78.2906 -97.6549 42.4363 -77.7735 -98.1209 42.2589 -78.4104 -96.7627 43.4821 
-78.6009 -96.9862 44.3643 -78.0232 -96.9894 42.6606 -77.4359 -97.4534 42.2205 
-76.8572 -97.9657 42.0004 -78.0179 -96.6265 44.2553 -78.2246 -97.0241 44.9339 
-77.5841 -96.6097 43.388 -76.8961 -96.9814 42.6415 -76.2728 -97.4317 42.2054 
-75.8537 -97.9954 41.9504 -77.4881 -96.8294 44.964 -77.7572 -97.1971 45.5125 
-77.061 -96.618 44.2359 -76.3501 -96.7612 43.3423 -75.6824 -97.0501 42.7297 
-75.303 -97.505 42.4418 -75.0456 -98.2077 42.3407 -76.9143 -97.0295 45.6688 
-77.2709 -97.3735 46.1579 -76.5286 -96.6937 45.1526 -75.958 -96.6859 44.2734 
-75.3521 -96.8665 43.405 -74.9611 -97.1928 43.0261 -74.71 -97.8318 42.9353 
-74.4393 -98.5721 42.8831 -76.5567 -97.1894 46.2762 -76.9603 -97.527 46.7921 
-76.1526 -96.7604 45.9457 -75.6968 -96.6523 45.3726 -75.2029 -96.8588 44.4431 
-74.7861 -97.1293 43.7412 -74.4699 -97.603 43.5141 -74.1638 -98.286 43.381 
-73.8492 -98.8852 43.1827 -76.3982 -97.3823 46.8373 -76.7871 -97.6319 47.45 
-75.9534 -97.0144 46.4612 -75.5076 -96.8458 46.1619 -75.0718 -97.0196 45.5458 
[...]
CELL_DATA 2000
SCALARS Distance double
LOOKUP_TABLE default
140.771 140.959 140.819 140.673 140.966 140.933 140.814 140.694 140.419 
140.977 140.883 140.731 140.694 140.408 140.253 139.785 141.176 140.968 
140.717 140.572 140.273 140.145 139.734 139.529 139.083 141.235 141.142 
140.824 140.606 140.215 140.027 139.673 139.509 139.177 138.957 138.626 
141.012 141.038 140.75 140.629 140.164 139.969 139.554 139.448 139.169 
139.064 138.756 138.539 138.138 140.874 140.813 140.568 140.478 140.081 
139.889 139.442 139.303 138.989 138.962 138.668 138.568 138.132 137.919 
137.434 140.806 140.727 140.46 140.363 140.073 139.881 139.523 139.276 
138.936 138.788 138.486 138.393 137.989 137.828 137.346 137.166 136.766 
140.472 140.53 140.239 140.249 140.011 139.933 139.662 139.444 139.096 
138.836 138.471 138.269 137.869 137.681 137.226 137.051 136.652 136.547 
136.275 140.97 141.461 141.159 141.101 142.099 141.677 141.487 141.212 
141.103 142.721 142.286 142.026 141.649 141.485 141.214 141.17 143.157 
142.8 142.523 142.185 142.041 141.718 141.673 141.397 141.411 143.416 
143.138 142.878 142.621 142.53 142.288 142.226 141.933 141.806 141.561 
141.42 143.652 143.415 143.217 142.958 142.888 142.718 142.67 142.419 
142.179 141.859 141.561 141.366 141.155 143.915 143.738 143.591 143.306 
143.164 143.004 142.969 142.804 142.625 142.251 141.938 141.568 141.385 
141.167 141.084 144.038 143.997 143.823 143.593 143.287 143.142 143.015 
143.001 142.927 142.715 142.474 142.072 141.858 141.541 141.452 141.213 
141.083 143.866 143.971 143.733 143.627 143.18 143.069 142.793 142.883 
142.817 142.874 142.673 142.485 142.133 141.909 141.622 141.483 141.215 
141.055 140.719 143.63 142.958 143.387 143.386 142.164 142.575 142.555 
142.937 142.837 141.597 141.89 141.951 142.204 142.232 142.483 142.549 
141.11 141.429 141.562 141.79 141.881 142.069 142.204 142.433 142.611 
140.453 140.859 140.967 141.35 141.414 141.717 141.728 142.027 142.057 
142.412 142.417 139.809 140.159 140.268 140.67 140.804 141.165 141.169 
141.429 141.276 141.606 141.479 141.936 141.84 139.347 139.615 139.787 
140.091 140.362 140.674 140.884 141.018 140.92 140.919 140.676 140.908 
140.833 141.308 141.314 138.921 139.21 139.395 139.705 139.967 140.321 
140.603 140.855 140.904 140.835 140.564 140.407 140.176 140.371 140.388 
140.856 140.896 138.41 138.739 138.879 139.247 139.4 139.811 139.95 
140.388 140.44 140.703 140.523 140.451 140.121 140.002 139.822 140.013 
140.019 140.434 140.418 140.002 139.698 139.697 139.462 139.693 139.563 
139.47 139.37 139.254 140.016 139.768 139.72 139.552 139.459 139.26 
138.992 140.194 140.018 139.774 139.725 139.512 139.414 139.003 138.78 
138.245 139.952 139.886 139.395 139.459 139.08 139.183 138.673 138.591 
137.923 137.799 137.26 139.532 139.483 138.951 138.929 138.487 138.574 
138.106 138.103 137.467 137.369 136.786 136.801 136.413 139.085 139.078 
138.627 138.549 138.103 138.062 137.615 137.571 137.023 136.922 136.352 
136.314 135.878 135.962 135.597 138.586 138.638 138.23 138.225 137.773 
137.728 137.226 137.153 136.593 136.507 135.937 135.884 135.383 135.415 
134.998 135.096 134.707 138.118 138.154 137.762 137.786 137.352 137.345 
136.841 136.768 136.192 136.089 135.516 135.449 134.93 134.916 134.457 
134.506 134.114 134.217 133.887 140.067 139.512 139.812 139.926 139.18 
139.347 139.443 139.722 139.798 138.785 138.979 138.929 139.227 139.279 
139.571 139.514 138.068 138.395 138.231 138.57 138.489 138.901 138.831 
139.152 138.953 137.248 137.61 137.497 137.79 137.634 137.994 137.883 
138.308 138.169 138.493 138.272 136.476 136.852 136.807 137.09 136.944 
137.195 137.059 137.387 137.284 137.64 137.482 137.789 137.588 135.622 
136.051 135.95 136.331 136.16 136.49 136.346 136.663 136.56 136.852 
136.705 136.978 136.782 137.086 136.911 134.716 135.129 134.986 135.378 
135.189 135.59 135.477 135.902 135.856 136.196 136.066 136.283 136.076 
136.303 136.147 136.452 136.367 133.926 134.265 134.173 134.48 134.353 
134.669 134.619 135.025 135.074 135.48 135.449 135.696 135.514 135.678 
135.523 135.765 135.734 136.032 136.045 133.53 133.053 133.465 133.769 
132.494 132.973 133.309 133.692 133.969 131.804 132.361 132.772 133.241 
133.587 133.932 134.265 131.105 131.654 132.1 132.661 133.101 133.559 
133.956 134.317 134.721 130.586 131.025 131.478 132.004 132.474 133.01 
133.452 133.939 134.331 134.751 135.074 130.336 130.631 131.079 131.487 
131.956 132.418 132.858 133.356 133.747 134.235 134.531 134.951 135.144 
130.244 130.459 130.849 131.175 131.617 131.991 132.407 132.812 133.195 
133.632 133.972 134.383 134.649 134.991 135.206 130.129 130.338 130.659 
130.955 131.347 131.683 132.065 132.414 132.775 133.151 133.52 133.905 
134.274 134.608 134.942 135.198 135.485 130.016 130.189 130.496 130.756 
131.137 131.431 131.806 132.102 132.454 132.778 133.15 133.516 133.927 
134.3 134.711 135.018 135.364 135.574 135.837 133.246 132.659 132.882 
132.753 132.113 132.276 132.081 132.335 132.155 131.657 131.722 131.438 
131.634 131.395 131.662 131.444 131.356 131.291 130.931 131.013 130.728 
130.915 130.664 130.926 130.737 131.27 131.081 130.68 130.594 130.257 
130.309 130.026 130.194 129.991 130.273 130.201 131.311 131.08 130.674 
130.462 130.066 129.947 129.612 129.639 129.438 129.623 129.594 129.891 
129.981 131.368 131.14 130.736 130.5 130.088 129.866 129.502 129.368 
129.171 129.215 129.245 129.44 129.59 129.835 129.974 131.483 131.221 
130.829 130.572 130.21 129.961 129.665 129.428 129.252 129.131 129.157 
129.228 129.389 129.556 129.685 129.859 129.92 131.687 131.396 131.037 
130.733 130.433 130.167 129.977 129.722 129.594 129.361 129.311 129.229 
129.301 129.389 129.489 129.616 129.657 129.787 129.822 137.787 137.18 
137.45 137.389 136.506 136.798 136.687 137.008 136.948 135.726 136.048 
135.908 136.255 136.14 136.512 136.414 134.975 135.241 135.06 135.405 
135.263 135.651 135.502 135.893 135.744 134.346 134.548 134.32 134.567 
134.393 134.744 134.601 134.971 134.804 135.187 135.061 133.693 133.925 
133.694 133.887 133.669 133.928 133.788 134.109 133.969 134.294 134.155 
134.538 134.474 133.019 133.246 133.032 133.247 133.017 133.246 133.07 
133.352 133.216 133.512 133.368 133.686 133.588 133.992 133.989 132.476 
132.618 132.395 132.581 132.356 132.575 132.365 132.63 132.454 132.758 
132.606 132.92 132.809 133.159 133.14 133.565 133.641 132.033 132.122 
131.863 131.994 131.76 131.936 131.714 131.924 131.71 131.976 131.81 
132.137 132.048 132.406 132.405 132.79 132.881 133.306 133.449 137.89 
137.839 137.696 137.323 137.738 137.618 137.258 137.106 136.671 137.686 
137.509 137.126 136.995 136.569 136.397 135.909 137.744 137.5 137.069 
136.873 136.44 136.267 135.808 135.622 135.173 137.773 137.556 137.109 
136.866 136.4 136.171 135.701 135.512 135.073 134.92 134.52 137.744 
137.546 137.112 136.89 136.412 136.165 135.659 135.425 134.939 134.776 
134.343 134.239 133.832 137.791 137.548 137.112 136.873 136.4 136.161 
135.667 135.414 134.917 134.677 134.215 134.044 133.643 133.534 133.169 
137.864 137.625 137.174 136.904 136.42 136.155 135.677 135.429 134.966 
134.709 134.257 134.004 133.605 133.415 133.094 132.955 132.664 137.825 
137.647 137.193 136.959 136.471 136.202 135.713 135.453 134.991 134.752 
134.3 134.062 133.634 133.43 133.085 132.938 132.662 132.525 132.249 
137.615 137.046 137.222 136.978 136.43 136.608 136.353 136.547 136.274 
135.838 135.979 135.712 135.907 135.649 135.822 135.53 135.311 135.406 
135.117 135.282 135.021 135.193 134.898 135.062 134.783 134.767 134.868 
134.528 134.683 134.393 134.567 134.239 134.398 134.073 134.293 134.049 
134.16 134.279 133.899 134.047 133.73 133.922 133.596 133.739 133.369 
133.544 133.269 133.553 133.376 133.608 133.69 133.321 133.411 133.083 
133.254 132.983 133.133 132.805 132.898 132.601 132.796 132.652 132.947 
132.86 133.17 133.212 132.867 132.894 132.556 132.655 132.399 132.556 
132.303 132.402 132.123 132.228 132.059 132.287 132.24 132.518 132.466 
132.763 132.807 132.477 132.495 132.165 132.199 131.91 132.012 131.754 
131.889 131.634 131.768 131.568 131.753 131.659 131.918 131.867 132.138 
132.057 132.411 131.817 132.123 132.145 131.372 131.609 131.651 131.881 
131.883 131.015 131.252 131.294 131.456 131.411 131.609 131.602 130.618 
130.883 130.897 131.071 130.906 131.085 130.963 131.283 131.334 130.33 
130.485 130.423 130.569 130.303 130.466 130.246 130.563 130.587 131.038 
131.203 130.215 130.241 130.062 130.089 129.795 129.863 129.685 129.905 
129.999 130.363 130.617 131.006 131.237 130.054 130.071 129.827 129.792 
129.522 129.499 129.422 129.541 129.737 129.975 130.275 130.552 130.824 
131.119 131.356 129.845 129.85 129.658 129.617 129.428 129.368 129.328 
129.405 129.597 129.809 130.056 130.284 130.473 130.736 130.944 131.269 
131.521 129.788 129.72 129.624 129.558 129.463 129.374 129.311 129.325 
129.397 129.591 129.739 129.991 130.101 130.355 130.497 130.823 131.063 
131.437 131.702 132.46 132.307 132.182 131.826 132.215 132.031 131.649 
131.57 131.324 132.372 132.035 131.634 131.433 131.114 131.083 130.895 
132.869 132.371 131.938 131.538 131.115 130.89 130.559 130.594 130.449 
133.421 132.947 132.468 131.957 131.451 131.008 130.561 130.336 130.137 
130.216 130.229 133.717 133.382 132.899 132.458 131.954 131.457 131.027 
130.574 130.355 130.144 130.202 130.209 130.284 133.909 133.6 133.183 
132.817 132.413 131.989 131.678 131.211 131.043 130.641 130.648 130.421 
130.477 130.333 130.247 134.241 133.877 133.555 133.171 132.887 132.496 
132.288 131.893 131.766 131.383 131.325 130.993 130.937 130.649 130.505 
130.247 130.049 134.671 134.308 134.05 133.661 133.441 133.052 132.872 
132.5 132.349 132.01 131.894 131.591 131.476 131.153 130.973 130.613 
130.401 130.095 129.96 132.854 133.445 133.031 132.763 134.161 133.705 
133.507 132.979 132.708 135.084 134.542 134.4 133.822 133.584 132.999 
132.844 136.084 135.518 135.351 134.775 134.562 133.95 133.789 133.27 
133.295 137.017 136.474 136.289 135.732 135.537 134.943 134.765 134.224 
134.186 133.777 133.825 137.994 137.427 137.322 136.727 136.614 135.981 
135.833 135.212 135.097 134.612 134.572 134.194 134.125 139.071 138.51 
138.496 137.875 137.828 137.163 137.063 136.366 136.219 135.571 135.446 
134.931 134.839 134.41 134.312 140.068 139.609 139.633 139.081 139.017 
138.385 138.242 137.584 137.407 136.738 136.552 135.909 135.762 135.207 
135.117 134.651 134.611 140.86 140.519 140.561 140.135 140.073 139.506 
139.311 138.679 138.452 137.837 137.626 137.01 136.805 136.2 136.043 
135.515 135.439 135.002 134.995 141.26 141.771 141.353 140.996 142.208 
141.841 141.461 141.034 140.537 142.386 142.152 141.761 141.437 140.906 
140.433 139.773 142.298 142.147 141.736 141.584 141.098 140.744 140.063 
139.565 138.877 142.203 142.006 141.535 141.416 140.981 140.816 140.226 
139.828 139.111 138.658 138.022 142.086 141.936 141.433 141.229 140.749 
140.621 140.121 139.893 139.227 138.843 138.148 137.78 137.179 141.664 
141.708 141.244 141.119 140.587 140.421 139.911 139.74 139.154 138.869 
138.184 137.846 137.221 136.922 136.391 141.063 141.173 140.781 140.807 
140.335 140.239 139.729 139.567 139.034 138.792 138.193 137.87 137.283 
136.971 136.481 136.2 135.777 140.699 140.679 140.375 140.366 140.019 
139.961 139.543 139.407 138.935 138.724 138.22 137.931 137.425 137.1 
136.656 136.349 135.971 135.681 135.336 140.583 140.439 140.396 140.207 
140.176 140.217 139.94 139.973 139.794 139.557 139.782 139.517 139.633 
139.359 139.486 139.294 138.858 139.077 138.862 139.077 138.807 138.972 
138.699 138.893 138.671 138.372 138.478 138.262 138.427 138.184 138.349 
138.058 138.243 137.98 138.214 137.973 137.86 138.007 137.742 137.891 
137.623 137.752 137.446 137.588 137.315 137.522 137.292 137.509 137.25 
137.184 137.391 137.107 137.311 137.026 137.19 136.872 136.999 136.706 
136.88 136.657 136.862 136.633 136.804 136.534 136.594 136.743 136.499 
136.657 136.397 136.562 136.275 136.421 136.13 136.288 136.045 136.241 
136.021 136.208 135.959 136.115 135.859 136.186 136.285 136.096 136.162 
135.924 136.001 135.744 135.852 135.592 135.724 135.475 135.638 135.407 
135.594 135.362 135.54 135.298 135.462 135.229 134.829 134.893 134.655 
134.24 134.943 134.715 134.31 134.072 133.662 134.994 134.762 134.355 
134.131 133.729 133.498 133.097 135.092 134.842 134.449 134.194 133.788 
133.547 133.137 132.919 132.543 135.23 134.978 134.628 134.349 133.967 
133.661 133.247 132.964 132.58 132.377 132.066 135.4 135.146 134.818 
134.55 134.198 133.894 133.492 133.151 132.747 132.458 132.121 131.933 
131.644 135.629 135.362 135.038 134.748 134.375 134.093 133.681 133.385 
132.953 132.656 132.26 132.014 131.657 131.476 131.127 135.845 135.615 
135.303 134.993 134.582 134.255 133.804 133.513 133.067 132.803 132.385 
132.139 131.74 131.503 131.101 130.905 130.54 135.933 135.78 135.474 
135.227 134.809 134.474 134.004 133.661 133.218 132.916 132.524 132.257 
131.89 131.62 131.241 130.959 130.595 130.371 130.098 143.745 143.902 
143.713 143.423 143.866 143.812 143.658 143.458 143.395 143.804 143.843 
143.91 143.779 143.889 143.705 143.819 143.752 143.903 144.174 144.142 
144.356 144.233 144.353 144.122 143.962 143.512 143.83 144.148 144.34 
144.546 144.594 144.649 144.531 144.321 143.983 143.518 142.987 143.422 
143.64 144.048 144.178 144.482 144.487 144.606 144.424 144.258 143.863 
143.461 143.011 142.285 142.739 142.881 143.347 143.438 143.86 143.869 
144.191 144.084 144.198 143.916 143.747 143.331 142.997 142.602 141.567 
141.969 142.104 142.561 142.693 143.103 143.135 143.48 143.403 143.684 
143.488 143.605 143.253 143.148 142.709 142.497 142.094 140.972 141.266 
141.378 141.813 141.99 142.412 142.465 142.778 142.667 142.947 142.775 
143.034 142.796 142.899 142.544 142.461 142.054 141.899 141.523 143.473 
143.156 143.173 142.901 143.125 142.92 142.626 142.589 142.349 143.508 
143.123 142.733 142.44 142.117 142.062 141.823 143.579 143.428 142.999 
142.688 142.248 141.969 141.624 141.532 141.223 143.069 143.151 142.76 
142.759 142.373 142.173 141.758 141.489 141.109 140.936 140.579 142.578 
142.579 142.223 142.322 142.065 142.117 141.784 141.626 141.17 140.924 
140.497 140.326 139.986 142.275 142.236 141.916 141.901 141.658 141.723 
141.44 141.449 140.984 140.864 140.331 140.21 139.794 139.74 139.435 
141.862 141.938 141.661 141.677 141.392 141.388 141.036 141.023 140.546 
140.499 139.96 139.912 139.453 139.456 139.12 139.152 138.867 141.312 
141.456 141.192 141.32 141.019 141.075 140.666 140.63 140.118 140.048 
139.546 139.505 139.097 139.093 138.769 138.792 138.505 138.547 138.264 
143.428 142.906 143.134 142.906 142.396 142.641 142.488 142.524 142.165 
141.878 142.164 142.052 142.131 141.791 141.79 141.495 141.198 141.561 
141.452 141.655 141.316 141.373 141.033 141.156 140.939 140.445 140.776 
140.627 140.939 140.655 140.829 140.495 140.642 140.401 140.575 140.339 
139.836 140.042 139.847 140.101 139.896 140.138 139.92 140.103 139.895 
140.046 139.835 139.954 139.718 139.343 139.5 139.29 139.432 139.239 
139.45 139.323 139.551 139.399 139.56 139.343 139.466 139.24 139.372 
139.196 138.817 139.011 138.812 138.935 138.706 138.868 138.718 138.962 
138.823 139.032 138.798 138.948 138.694 138.862 138.673 138.874 138.736 
138.224 138.456 138.275 138.437 138.192 138.339 138.133 138.35 138.187 
138.416 138.19 138.362 138.104 138.285 138.097 138.316 138.178 138.397 
138.253 133.035 133.424 133.333 133.566 133.876 133.734 133.953 133.876 
134.211 134.493 134.291 134.556 134.36 134.729 134.658 135.151 135.143 
134.988 135.334 135.104 135.513 135.335 135.866 135.753 136.252 135.683 
135.615 136.007 135.88 136.291 136.154 136.651 136.54 137.026 136.851 
137.226 136.211 136.151 136.578 136.501 136.903 136.819 137.252 137.22 
137.68 137.596 137.976 137.781 138.139 136.792 136.714 137.167 137.092 
137.504 137.391 137.777 137.722 138.18 138.17 138.627 138.517 138.911 
138.728 139.144 137.361 137.284 137.696 137.657 138.049 137.971 138.318 
138.237 138.662 138.661 139.184 139.161 139.636 139.497 139.894 139.725 
140.111 137.885 137.807 138.144 138.11 138.447 138.425 138.751 138.721 
139.108 139.13 139.638 139.694 140.21 140.175 140.575 140.433 140.75 
140.597 140.895 
POINT_DATA 1002
SCALARS Distance double
LOOKUP_TABLE default
140.612 140.746 140.957 140.888 141.034 140.521 140.881 140.985 140.675 
140.061 140.787 141.162 140.527 140.023 139.272 140.961 141.411 140.407 
139.888 139.296 138.687 141.059 141.239 140.454 139.789 139.348 138.894 
138.301 140.818 140.98 140.374 139.666 139.211 138.952 138.424 137.689 
140.645 141.001 140.244 139.627 139.035 138.725 138.329 137.644 136.971 
140.536 140.881 140.202 139.776 139.168 138.609 138.127 137.511 136.882 
136.447 140.174 140.361 140.009 139.824 139.39 138.734 138.073 137.407 
136.762 136.313 136.068 141.21 141.313 141.862 141.858 142.579 141.292 
142.424 143.162 141.799 141.367 142.815 143.495 142.334 141.992 141.665 
143.107 143.648 142.716 142.543 142.145 141.612 143.492 143.818 143.054 
142.898 142.572 141.823 141.25 143.908 144.021 143.376 143.065 142.947 
142.359 141.634 141.273 144.064 144.032 143.5 142.987 142.994 142.841 
142.224 141.719 141.368 143.818 143.75 143.319 142.724 142.67 142.789 
142.392 141.787 141.364 140.917 143.321 143.024 142.531 142.173 141.79 
142.471 141.709 141.293 141.971 142.255 141.287 140.752 141.691 141.984 
142.375 140.542 140.066 141.076 141.479 141.726 142.073 139.87 139.494 
140.395 140.945 141.086 141.021 141.346 139.482 139.066 140.01 140.685 
141.026 140.652 140.359 140.796 139.082 138.615 139.624 140.27 140.857 
140.831 140.211 139.96 140.409 138.522 138.093 139.036 139.542 140.041 
140.424 140.316 139.839 139.671 139.979 139.667 139.447 139.274 139.573 
139.393 139.097 139.896 139.694 139.293 138.589 139.844 139.585 139.257 
138.46 137.686 139.393 138.951 138.707 138.056 137.253 136.843 139.017 
138.444 138.066 137.546 136.799 136.308 136.088 138.678 138.188 137.677 
137.103 136.422 135.837 135.49 135.213 138.202 137.811 137.322 136.682 
135.995 135.393 134.921 134.585 134.325 137.74 137.345 136.902 136.302 
135.593 134.961 134.437 134.015 133.743 133.593 139.597 139.172 139.563 
138.669 138.947 139.33 137.929 138.095 138.426 138.738 137.215 137.348 
137.462 137.762 138.009 136.499 136.707 136.779 136.939 137.152 137.285 
135.565 135.787 135.987 136.274 136.468 136.497 136.566 134.611 134.782 
134.998 135.447 135.848 135.886 135.848 136.028 133.861 134.047 134.229 
134.631 135.146 135.356 135.303 135.42 135.756 133.135 133.4 132.623 
132.896 131.963 133.631 132.226 131.224 133.196 133.936 131.513 130.58 
132.563 133.546 134.387 130.986 130.194 131.938 132.924 133.888 134.722 
130.715 130.102 131.538 132.395 133.257 134.096 134.777 130.563 130.069 
131.272 132.041 132.785 133.545 134.277 134.896 130.384 129.936 131.031 
131.738 132.417 133.123 133.893 134.652 135.279 130.249 129.862 130.855 
131.527 132.153 132.794 133.534 134.356 135.126 135.687 133.011 132.502 
132.466 131.861 132.013 131.88 131.293 131.665 131.162 131.145 130.916 
131.487 130.585 130.438 130.409 130.841 131.484 130.283 129.907 129.736 
129.831 130.917 131.533 130.264 129.655 129.278 129.304 129.65 130.971 
131.601 130.321 129.683 129.173 129.065 129.369 129.754 131.092 131.756 
130.427 129.883 129.431 129.155 129.252 129.546 129.755 131.34 131.966 
130.68 130.193 129.855 129.5 129.282 129.371 129.55 129.67 137.529 
137.082 136.931 136.384 136.206 136.597 135.556 135.416 135.785 136.039 
134.752 134.76 134.875 135.131 135.339 134.134 134.144 134.077 134.229 
134.444 134.63 133.499 133.435 133.451 133.48 133.655 133.811 134.026 
132.804 132.82 132.793 132.808 132.923 133.073 133.223 133.516 132.233 
132.377 132.149 132.127 132.162 132.28 132.468 132.739 133.167 138.05 
137.509 137.958 137.387 137.87 136.878 137.271 137.92 136.722 136.108 
137.311 138.004 136.627 135.974 135.346 137.356 137.96 136.661 135.914 
135.218 134.657 137.326 137.948 136.656 135.921 135.145 134.456 133.917 
137.374 138.054 136.64 135.906 135.177 134.431 133.761 133.252 137.448 
138.091 136.701 135.922 135.204 134.52 133.822 133.234 132.795 137.402 