# vtk DataFile Version 4.0
vtk output
ASCII
DATASET POLYDATA
POINTS 1002 float
-79.3104 -105.789 59.048 -79.1696 -105.741 59.942 -79.9331 -105.924 59.4133 
-79.9872 -105.838 58.6032 -80.6218 -105.827 59.0088 -79.4531 -105.7 58.1481 
-80.4483 -105.477 58.3885 -81.1233 -105.476 58.7517 -79.9067 -105.46 57.8978 
-79.3673 -105.456 57.3376 -80.933 -105.094 58.1178 -81.6889 -105.238 58.4028 
-80.2357 -105.026 57.6957 -79.669 -105.093 57.1363 -79.0079 -105.18 56.566 
-81.7029 -105.051 57.5233 -82.2482 -104.982 57.9115 -80.9076 -104.94 57.1237 
-80.1524 -104.921 56.6587 -79.4241 -104.943 56.2116 -78.7184 -104.975 55.6814 
-82.2372 -104.789 56.9632 -82.4569 -104.38 57.4953 -81.7164 -104.962 56.4291 
-80.9347 -104.973 55.9296 -80.0954 -104.874 55.6153 -79.3068 -104.789 55.2684 
-78.7102 -104.9 54.6457 -82.307 -104.062 56.7293 -82.5884 -103.722 57.2146 
-82.0075 -104.406 56.1683 -81.4508 -104.605 55.5747 -80.665 -104.58 55.1872 
-79.8703 -104.458 54.9325 -79.2478 -104.571 54.3953 -78.8024 -104.876 53.6753 
-82.4666 -103.354 56.6323 -82.9767 -103.25 57.0177 -82.07 -103.595 56.1453 
-81.6341 -103.836 55.5811 -80.9688 -103.938 55.1061 -80.1884 -103.898 54.8003 
-79.5736 -103.983 54.3512 -79.1908 -104.342 53.6254 -78.8451 -104.652 53.0165 
-82.8461 -102.816 56.5216 -83.3895 -102.81 56.8802 -82.3458 -102.988 56.0388 
-81.9215 -103.235 55.4758 -81.3647 -103.397 54.9702 -80.574 -103.416 54.6256 
-79.8342 -103.407 54.2962 -79.3992 -103.607 53.7248 -79.1476 -103.973 53.0482 
-78.8162 -104.189 52.6292 -83.1766 -102.354 56.3624 -83.6158 -102.351 56.7381 
-82.678 -102.501 55.8816 -82.2493 -102.767 55.3064 -81.813 -102.993 54.7464 
-81.1386 -103.073 54.3308 -80.3135 -103.019 54.0656 -79.6828 -102.995 53.7364 
-79.3354 -103.187 53.1902 -79.0701 -103.503 52.6317 -78.6995 -103.702 52.3236 
-79.5642 -105.753 60.4951 -80.4236 -105.845 59.9754 -80.0182 -105.697 61.1215 
-80.8732 -105.727 60.6406 -80.4264 -105.715 61.7727 -81.151 -105.737 59.5193 
-81.2169 -105.751 61.3532 -80.8011 -105.775 62.3658 -81.5475 -105.662 60.1766 
-81.6827 -105.503 59.1815 -81.5869 -105.674 62.0379 -81.1575 -105.627 62.9035 
-81.8479 -105.556 60.9601 -82.0363 -105.359 59.8468 -82.1709 -105.161 58.8576 
-81.9204 -105.286 62.6309 -81.3974 -105.367 63.4005 -82.1687 -105.151 61.6777 
-82.2424 -104.905 60.6127 -82.3686 -104.66 59.5693 -82.4708 -104.508 58.4886 
-82.0535 -104.913 63.1018 -81.5319 -105.168 63.8182 -82.3791 -104.629 62.2116 
-82.3906 -104.339 61.1625 -82.4414 -104.034 60.1999 -82.6002 -103.861 59.1751 
-82.6647 -103.83 58.0637 -82.1354 -104.613 63.4597 -81.6593 -104.804 64.093 
-82.5407 -104.288 62.6941 -82.6121 -103.985 61.6417 -82.6186 -103.694 60.619 
-82.8571 -103.498 59.6863 -83.1046 -103.503 58.6025 -83.129 -103.482 57.6274 
-82.2797 -104.125 63.6487 -81.7598 -104.185 64.164 -82.8201 -103.935 63.1238 
-83.0905 -103.737 62.2794 -83.1226 -103.545 61.1952 -83.3074 -103.381 60.1597 
-83.6576 -103.379 59.0789 -83.81 -103.406 58.0281 -83.666 -103.191 57.3182 
-82.3689 -103.525 63.6319 -81.7868 -103.561 64.0612 -83.0311 -103.452 63.3004 
-83.5599 -103.39 62.7782 -83.7807 -103.327 61.8775 -83.8867 -103.235 60.7889 
-84.1264 -103.207 59.6441 -84.3096 -103.23 58.5186 -84.2033 -103.082 57.6763 
-83.9142 -102.719 57.1626 -82.1434 -103.019 63.6155 -82.8166 -102.972 63.2689 
-82.472 -102.556 63.2072 -83.0291 -102.596 62.734 -82.6041 -102.183 62.6894 
-83.5149 -102.981 62.9196 -82.9659 -102.281 61.9118 -82.6195 -101.801 61.9731 
-83.6152 -102.645 62.1563 -84.0453 -103.002 62.2897 -83.0017 -101.787 61.1462 
-82.7488 -101.297 61.3346 -83.4906 -102.202 61.2354 -84.1205 -102.612 61.4523 
-84.2939 -102.977 61.3362 -83.2959 -101.093 60.7762 -82.9434 -100.659 60.9315 
-83.6349 -101.486 60.7178 -84.1019 -101.996 60.71 -84.4797 -102.534 60.5873 
-84.4628 -102.929 60.192 -83.476 -100.4 60.4512 -82.9939 -100.016 60.4942 
-83.9131 -100.721 60.4175 -84.3409 -101.158 60.2596 -84.6632 -101.805 59.9451 
-84.7288 -102.404 59.5167 -84.594 -102.874 58.9958 -83.3557 -99.8723 59.8339 
-82.8806 -99.5472 59.8795 -83.8424 -100.181 59.8042 -84.4051 -100.472 59.6488 
-84.865 -100.932 59.3281 -84.9092 -101.537 58.9514 -84.6739 -102.141 58.51 
-84.4621 -102.694 58.0361 -83.1194 -99.5049 59.1086 -82.6848 -99.2624 59.2399 
-83.5279 -99.8025 59.0242 -84.0455 -100.069 58.8721 -84.64 -100.329 58.5991 
-84.8995 -100.691 58.3602 -84.6624 -101.21 58.1296 -84.3334 -101.827 57.7738 
-84.1451 -102.37 57.4065 -82.8904 -99.1614 58.5189 -82.4503 -99.0062 58.7249 
-83.2825 -99.3672 58.4062 -83.6935 -99.6128 58.2944 -84.183 -99.8693 58.0269 
-84.5577 -100.118 57.7508 -84.5533 -100.475 57.6079 -84.2873 -101.03 57.4119 
-84.0533 -101.622 57.1125 -83.8753 -102.061 56.874 -83.5451 -101.945 56.253 
-83.8471 -101.629 56.3247 -83.4693 -101.595 55.646 -84.0569 -101.118 56.524 
-83.8058 -101.175 55.6953 -83.1965 -101.031 55.2473 -84.2108 -100.43 56.7706 
-83.951 -100.468 55.8875 -83.4298 -100.384 55.3839 -82.6254 -100.179 55.1472 
-84.3156 -99.8411 56.9569 -84.0276 -99.6225 56.082 -83.5321 -99.5127 55.5384 
-82.7682 -99.4395 55.3418 -82.031 -99.4085 54.9334 -84.2482 -99.4283 57.2847 
-84.1936 -98.9047 56.3744 -83.7776 -98.6427 55.6106 -82.9995 -98.677 55.3518 
-82.2097 -98.7698 55.0774 -81.6312 -98.8333 54.4146 -83.9347 -99.0815 57.7318 
-84.2038 -98.3452 56.9941 -84.0572 -97.8953 56.0133 -83.3292 -97.9461 55.3319 
-82.4595 -98.1203 55.0165 -81.7933 -98.1777 54.535 -81.3299 -98.2138 53.8479 
-83.4778 -98.8643 57.9414 -83.8063 -98.0757 57.5225 -83.8912 -97.4545 56.7805 
-83.3771 -97.3508 55.8038 -82.5694 -97.4533 55.0699 -81.917 -97.4339 54.5548 
-81.4394 -97.4291 53.9694 -81.0675 -97.5522 53.3454 -82.9849 -98.7737 57.998 
-83.1694 -98.1162 57.666 -83.2839 -97.476 57.2839 -83.0226 -97.1613 56.5302 
-82.4562 -97.0215 55.5615 -81.9509 -96.8096 54.7429 -81.5585 -96.6666 54.0783 
-81.1745 -96.7492 53.4407 -80.8153 -96.9788 52.8715 -82.4895 -98.6923 58.1845 
-82.5525 -98.1723 57.7839 -82.6148 -97.6162 57.4884 -82.5323 -97.2173 57.0176 
-82.251 -96.8861 56.2099 -81.9333 -96.4992 55.2724 -81.6389 -96.2176 54.4104 
-81.2782 -96.1752 53.6367 -80.8703 -96.2991 52.9756 -80.4787 -96.5201 52.4914 
-83.0747 -102.009 55.801 -82.8596 -101.596 55.2779 -82.5377 -102.179 55.3067 
-82.4336 -100.902 55.008 -82.2125 -101.628 54.9054 -82.0811 -102.4 54.7488 
-81.9057 -100.108 54.7351 -81.7697 -100.88 54.5903 -81.697 -101.744 54.3684 
-81.5642 -102.558 54.196 -81.5023 -99.4688 54.1897 -81.421 -100.236 54.0396 
-81.3341 -101.079 53.9 -81.1857 -101.915 53.7462 -80.8334 -102.59 53.796 
-81.2145 -98.846 53.6118 -81.169 -99.6094 53.4256 -81.133 -100.535 53.2707 
-80.9678 -101.389 53.1784 -80.598 -102.028 53.2869 -80.101 -102.524 53.5333 
-80.9506 -98.1949 53.1519 -80.8782 -98.874 53.0058 -80.8472 -99.795 52.8232 
-80.7695 -100.84 52.6213 -80.4801 -101.595 52.6807 -80.0019 -102.065 52.9608 
-79.5736 -102.56 53.1494 -80.6773 -97.6279 52.7102 -80.5366 -98.2592 52.6342 
-80.3853 -98.9949 52.5587 -80.2827 -100.005 52.348 -80.157 -101.004 52.2123 
-79.84 -101.676 52.3539 -79.44 -102.204 52.5355 -79.1859 -102.825 52.5961 
-80.328 -97.1295 52.3307 -80.1354 -97.8066 52.2659 -79.878 -98.4589 52.2796 
-79.6511 -99.2289 52.223 -79.5671 -100.16 52.0664 -79.4698 -101.037 52.0008 
-79.2035 -101.781 52.0361 -78.9308 -102.483 52.0683 -78.7935 -103.141 52.1511 
-79.8995 -96.4839 52.1415 -79.6849 -97.1941 52.0221 -79.1319 -96.6449 51.9268 
-78.8576 -97.4262 51.8127 -78.2746 -97.0075 51.6415 -79.3938 -97.9617 51.9999 
-78.0776 -97.6913 51.4836 -77.4864 -97.2455 51.2002 -78.5672 -98.2073 51.7605 
-79.0782 -98.6746 52.0297 -77.4541 -97.825 51.112 -76.8531 -97.2977 51.0276 
-77.8788 -98.4465 51.3566 -78.3376 -98.9457 51.7144 -78.919 -99.4245 51.9869 
-76.8966 -98.0622 51.1594 -76.3182 -97.5883 51.3612 -77.2319 -98.7536 51.0168 
-77.6518 -99.2901 51.2158 -78.2954 -99.6448 51.6554 -78.9354 -100.246 51.8905 
-76.3373 -98.5015 51.5756 -75.6711 -98.0823 51.7251 -76.6222 -99.1566 51.1745 
-76.8805 -99.7057 50.9236 -77.5633 -99.9527 51.2295 -78.3299 -100.375 51.6429 
-78.8402 -101.143 51.8087 -75.5905 -98.8378 51.8393 -74.7942 -98.4277 51.8005 
-76.0796 -99.4116 51.6005 -76.279 -99.9596 51.1736 -76.7578 -100.237 51.1255 
-77.5567 -100.587 51.45 -78.1791 -101.341 51.6353 -78.5797 -102.091 51.7452 
-74.6105 -99.1128 51.8481 -73.931 -98.7403 51.8109 -75.277 -99.5968 51.7999 
-75.7227 -100.109 51.5552 -76.1325 -100.462 51.3982 -76.7539 -100.835 51.5301 
-77.4002 -101.56 51.6588 -77.9088 -102.388 51.6732 -78.3732 -102.906 51.8134 
-73.7746 -99.5564 51.8655 -73.3921 -99.2248 51.9794 -74.2864 -99.9941 51.7783 
-74.8546 -100.494 51.6655 -75.4261 -100.896 51.6097 -76.0191 -101.261 51.6941 
-76.6024 -101.862 51.786 -77.1397 -102.606 51.8027 -77.6882 -103.153 51.875 
-78.245 -103.469 52.0642 -80.2405 -96.0548 52.4855 -79.5274 -96.0258 52.1767 
-79.7691 -95.9036 52.6757 -78.9632 -95.8792 52.3789 -79.0776 -96.0181 53.1359 
-78.6663 -96.2647 51.9444 -78.2535 -95.9098 52.8162 -78.4248 -96.1137 53.7552 
-78.0195 -96.0514 52.0961 -77.6792 -96.6638 51.5321 -77.5666 -95.9234 53.4358 
-77.9143 -96.039 54.3819 -77.2448 -95.878 52.5208 -76.9079 -96.2839 51.6616 
-76.7503 -96.8287 51.1027 -76.9354 -95.9505 54.1397 -77.3105 -95.8952 55.0576 
-76.5567 -95.8951 53.1806 -76.2175 -96.0205 52.2043 -76.0169 -96.4587 51.4336 
-76.0948 -96.9638 51.1932 -76.3574 -96.0304 54.8873 -76.6648 -95.8637 55.7665 
-76.0765 -96.171 53.9313 -75.8142 -96.2057 52.9875 -75.5935 -96.4172 52.1796 
-75.4646 -96.866 51.7045 -75.5169 -97.43 51.6137 -75.9625 -96.1518 55.586 
-76.2599 -96.0233 56.3508 -75.759 -96.418 54.6949 -75.5281 -96.5547 53.8064 
-75.2576 -96.646 53.0189 -74.9783 -96.9132 52.3995 -74.7519 -97.3455 51.9768 
-74.7045 -97.8686 51.7875 -75.7036 -96.3189 56.1768 -76.0432 -96.2852 56.795 
-75.4647 -96.5402 55.4169 -75.1694 -96.7039 54.6129 -74.7451 -96.7572 53.8174 
-74.3386 -96.8759 53.0818 -74.0362 -97.1396 52.4574 -73.8551 -97.5677 52.0011 
-73.8427 -98.1329 51.802 -75.4414 -96.5247 56.682 -75.8408 -96.5573 57.1744 
-75.0928 -96.6476 56.0712 -74.7261 -96.7572 55.3841 -74.2347 -96.7782 54.6149 
[...]
CELL_DATA 2000
SCALARS Distance double
LOOKUP_TABLE default
144.086 144.321 144.077 143.763 144.311 144.169 143.799 143.637 143.261 
144.246 144.071 143.656 143.525 143.121 143.018 142.607 144.28 144.088 
143.699 143.442 143.062 142.87 142.504 142.343 141.948 144.061 144.084 
143.784 143.591 143.219 142.946 142.582 142.33 141.96 141.738 141.392 
143.538 143.695 143.442 143.508 143.134 143.038 142.587 142.404 141.95 
141.758 141.369 141.226 140.95 143.152 143.18 142.911 143.016 142.684 
142.736 142.289 142.236 141.727 141.625 141.167 141.104 140.782 140.772 
140.543 142.973 142.893 142.581 142.57 142.287 142.295 141.961 141.903 
141.477 141.354 140.908 140.822 140.466 140.489 140.242 140.306 140.074 
142.779 142.712 142.371 142.32 142.035 142.013 141.745 141.685 141.349 
141.2 140.793 140.623 140.239 140.167 139.879 139.931 139.706 139.785 
139.544 144.322 144.777 144.581 144.589 145.249 145.031 145.028 144.783 
144.657 145.754 145.515 145.487 145.219 145.116 144.799 144.628 146.173 
145.995 145.939 145.671 145.521 145.234 145.051 144.762 144.572 146.385 
146.3 146.201 146.017 145.757 145.529 145.221 145.03 144.723 144.555 
144.24 146.479 146.409 146.247 146.123 145.779 145.596 145.176 145.029 
144.65 144.536 144.191 144.063 143.727 146.488 146.445 146.263 146.134 
145.812 145.58 145.181 144.96 144.644 144.482 144.264 144.087 143.889 
143.658 143.44 146.287 146.356 146.227 146.178 145.982 145.744 145.467 
145.135 144.918 144.648 144.559 144.337 144.274 144.002 143.865 143.534 
143.325 145.885 146.05 145.99 146.098 146.041 145.974 145.836 145.566 
145.39 145.074 144.971 144.727 144.661 144.429 144.276 143.983 143.726 
143.399 143.113 145.603 145.273 145.542 145.765 144.906 145.214 145.469 
145.751 145.919 144.377 144.749 144.973 145.385 145.61 145.862 145.846 
143.787 144.14 144.296 144.757 144.99 145.431 145.523 145.686 145.5 
143.277 143.582 143.709 144.07 144.269 144.728 144.905 145.259 145.224 
145.302 145.091 142.734 143.083 143.212 143.533 143.678 144.053 144.219 
144.612 144.664 144.923 144.807 144.896 144.711 142.083 142.477 142.583 
142.97 143.056 143.443 143.526 143.928 143.947 144.29 144.176 144.434 
144.251 144.438 144.235 141.441 141.795 141.862 142.256 142.303 142.716 
142.74 143.164 143.136 143.518 143.381 143.696 143.493 143.79 143.594 
143.852 143.636 140.865 141.164 141.19 141.533 141.558 141.934 141.942 
142.335 142.295 142.672 142.556 142.882 142.714 143.01 142.852 143.139 
142.985 143.224 143.029 142.654 142.61 142.474 142.124 142.465 142.376 
142.036 141.919 141.511 142.261 142.17 141.771 141.726 141.281 141.182 
140.645 142.054 141.928 141.422 141.356 140.845 140.815 140.269 140.197 
139.634 141.831 141.707 141.168 141.01 140.445 140.347 139.826 139.779 
139.284 139.211 138.724 141.535 141.464 140.975 140.803 140.239 140.04 
139.507 139.392 138.931 138.87 138.408 138.335 137.871 141.182 141.151 
140.711 140.606 140.092 139.897 139.343 139.153 138.629 138.523 138.022 
137.968 137.468 137.444 136.999 140.841 140.807 140.393 140.328 139.878 
139.748 139.246 139.037 138.488 138.271 137.722 137.579 137.064 137.007 
136.554 136.57 136.199 140.548 140.498 140.101 140.029 139.618 139.532 
139.11 138.955 138.468 138.212 137.674 137.401 136.899 136.706 136.279 
136.185 135.819 135.817 135.503 142.521 141.995 142.212 142.128 141.372 
141.652 141.566 141.826 141.783 140.524 140.923 140.829 141.193 141.166 
141.498 141.482 139.545 139.987 139.915 140.359 140.335 140.779 140.786 
141.157 141.086 138.635 139.033 138.995 139.435 139.448 139.904 139.932 
140.37 140.335 140.68 140.537 137.796 138.171 138.138 138.564 138.629 
139.073 139.152 139.554 139.564 139.906 139.82 140.105 139.978 136.978 
137.348 137.308 137.722 137.776 138.257 138.372 138.823 138.879 139.217 
139.168 139.428 139.345 139.61 139.583 136.215 136.565 136.538 136.911 
136.916 137.367 137.438 137.964 138.045 138.508 138.499 138.82 138.752 
139.016 139.001 139.304 139.375 135.51 135.839 135.824 136.173 136.16 
136.529 136.537 136.995 137.055 137.579 137.629 138.085 138.07 138.415 
138.404 138.726 138.785 139.132 139.222 135.119 134.662 135.063 135.439 
134.274 134.641 135.016 135.413 135.785 133.878 134.264 134.623 135.008 
135.378 135.758 136.14 133.462 133.85 134.235 134.623 135.005 135.375 
135.765 136.15 136.607 133.3 133.542 133.966 134.271 134.677 135.023 
135.43 135.802 136.254 136.673 137.171 133.409 133.563 133.979 134.139 
134.507 134.739 135.121 135.467 135.913 136.329 136.816 137.239 137.682 
133.359 133.637 134.022 134.209 134.504 134.641 134.925 135.172 135.581 
135.977 136.483 136.907 137.386 137.738 138.115 133.094 133.429 133.805 
134.12 134.421 134.617 134.859 135.03 135.379 135.683 136.195 136.6 
137.136 137.499 137.942 138.206 138.555 133.012 133.192 133.562 133.84 
134.202 134.467 134.791 134.986 135.343 135.564 136.045 136.372 136.914 
137.273 137.747 138.052 138.43 138.668 138.989 134.867 134.429 134.523 
134.373 134.157 134.123 133.898 134.055 133.976 134.013 133.882 133.548 
133.6 133.429 133.648 133.56 133.91 133.737 133.291 133.233 132.913 
133.057 132.872 133.155 133.086 133.798 133.636 133.182 133.009 132.612 
132.573 132.337 132.491 132.44 132.751 132.885 133.717 133.568 133.246 
133.023 132.717 132.479 132.289 132.186 132.182 132.282 132.446 132.738 
132.998 133.777 133.595 133.409 133.21 133.033 132.764 132.602 132.366 
132.301 132.222 132.262 132.386 132.499 132.818 132.95 133.976 133.761 
133.605 133.436 133.286 133.083 132.856 132.644 132.403 132.296 132.113 
132.159 132.057 132.272 132.273 132.632 132.705 134.21 133.988 133.796 
133.628 133.441 133.268 132.987 132.777 132.43 132.266 131.97 131.924 
131.747 131.834 131.814 132.038 132.173 132.481 132.69 140.279 139.695 
139.936 139.808 139.039 139.304 139.164 139.428 139.309 138.34 138.617 
138.469 138.751 138.632 138.928 138.814 137.615 137.901 137.735 138.026 
137.871 138.196 138.063 138.386 138.196 136.893 137.163 136.986 137.272 
137.07 137.378 137.19 137.55 137.357 137.68 137.414 136.221 136.441 
136.234 136.51 136.3 136.573 136.348 136.657 136.473 136.812 136.611 
136.89 136.647 135.59 135.763 135.48 135.732 135.508 135.8 135.597 
135.871 135.693 135.985 135.835 136.121 135.937 136.184 136.009 134.994 
135.123 134.785 134.969 134.701 134.988 134.815 135.132 134.978 135.264 
135.101 135.379 135.203 135.475 135.301 135.588 135.492 134.509 134.576 
134.266 134.345 134.071 134.243 134.071 134.356 134.233 134.538 134.377 
134.654 134.462 134.733 134.56 134.856 134.76 135.109 135.122 140.431 
140.446 140.259 139.865 140.445 140.245 139.841 139.649 139.213 140.503 
140.246 139.804 139.599 139.164 138.97 138.518 140.604 140.331 139.866 
139.596 139.157 138.931 138.486 138.267 137.804 140.613 140.417 139.975 
139.696 139.244 138.975 138.536 138.273 137.804 137.554 137.096 140.506 
140.379 139.97 139.761 139.28 139.041 138.562 138.325 137.845 137.586 
137.116 136.876 136.453 140.44 140.286 139.905 139.716 139.234 139.006 
138.477 138.271 137.761 137.571 137.09 136.893 136.46 136.26 135.855 
140.489 140.284 139.934 139.708 139.287 139.002 138.497 138.2 137.682 
137.448 136.974 136.806 136.383 136.233 135.837 135.659 135.265 140.564 
140.358 140.017 139.797 139.44 139.155 138.727 138.354 137.86 137.485 
137.019 136.742 136.355 136.165 135.819 135.641 135.291 135.093 134.755 
140.462 140.068 140.148 139.909 139.689 139.736 139.51 139.602 139.353 
139.435 139.388 139.106 139.18 138.929 139.009 138.668 139.213 139.151 
138.763 138.764 138.42 138.511 138.139 138.216 137.781 138.809 138.846 
138.421 138.4 137.932 137.951 137.51 137.608 137.188 137.284 136.898 
138.27 138.346 137.958 137.995 137.517 137.474 136.984 137.001 136.628 
136.717 136.405 136.489 136.225 137.82 137.816 137.421 137.486 137.075 
137.068 136.6 136.559 136.193 136.245 136.001 136.072 135.826 135.894 
135.679 137.484 137.406 136.949 136.968 136.583 136.625 136.204 136.186 
135.765 135.814 135.518 135.652 135.393 135.496 135.22 135.336 135.125 
137.153 137.062 136.56 136.524 136.118 136.158 135.769 135.773 135.308 
135.318 134.899 135.049 134.742 134.951 134.671 134.838 134.592 134.765 
134.592 136.782 136.018 136.315 136.183 135.297 135.555 135.434 135.765 
135.735 134.612 134.841 134.694 135.029 134.996 135.372 135.366 133.956 
134.148 133.983 134.3 134.248 134.61 134.546 134.927 134.865 133.494 
133.562 133.435 133.664 133.653 133.921 133.835 134.099 133.984 134.369 
134.392 133.305 133.237 133.081 133.21 133.202 133.416 133.348 133.5 
133.356 133.577 133.585 134.016 134.215 133.175 133.075 132.75 132.825 
132.65 132.897 132.778 133.015 132.881 133.07 133.06 133.354 133.545 
133.974 134.221 132.948 132.854 132.404 132.401 132.073 132.247 132.078 
132.361 132.309 132.592 132.667 132.945 133.149 133.454 133.698 134.036 
134.241 132.779 132.629 132.232 132.101 131.818 131.794 131.703 131.814 
131.904 132.117 132.347 132.614 132.907 133.163 133.416 133.646 133.839 
134.095 134.274 137.023 137.142 136.813 136.276 137.351 136.966 136.45 
136.089 135.573 137.69 137.234 136.697 136.299 135.806 135.441 134.936 
138.042 137.593 137.007 136.567 136.073 135.71 135.241 134.832 134.316 
138.332 137.935 137.388 136.91 136.4 136.003 135.586 135.187 134.718 
134.257 133.828 138.624 138.261 137.823 137.347 136.868 136.399 135.998 
135.582 135.196 134.732 134.347 133.905 133.639 138.913 138.593 138.221 
137.814 137.389 136.919 136.514 136.062 135.703 135.254 134.92 134.477 
134.21 133.814 133.581 139.137 138.864 138.514 138.19 137.806 137.411 
137.015 136.588 136.22 135.786 135.449 135.032 134.741 134.361 134.087 
133.703 133.391 139.32 139.064 138.734 138.456 138.108 137.781 137.415 
137.044 136.686 136.289 135.947 135.541 135.215 134.832 134.522 134.156 
133.84 133.458 133.165 137.531 138.22 137.794 137.615 138.826 138.428 
138.284 137.897 137.809 139.561 139.087 138.985 138.581 138.581 138.196 
138.194 140.471 139.961 139.898 139.396 139.402 138.991 139.019 138.607 
138.552 141.345 140.916 140.909 140.4 140.358 139.86 139.805 139.374 
139.284 138.874 138.761 142.178 141.79 141.843 141.391 141.356 140.832 
140.723 140.193 140.064 139.586 139.479 139.064 138.998 143.04 142.666 
142.751 142.316 142.3 141.792 141.694 141.149 141.037 140.483 140.389 
139.865 139.795 139.344 139.289 143.784 143.501 143.596 143.22 143.191 
142.705 142.57 142.066 141.94 141.456 141.352 140.84 140.719 140.198 
140.073 139.615 139.511 144.321 144.144 144.26 143.995 143.99 143.562 
143.4 142.893 142.707 142.258 142.12 141.699 141.542 141.074 140.881 
140.4 140.231 139.8 139.681 144.614 145.146 144.792 144.615 145.8 
145.398 145.164 144.736 144.376 146.227 145.975 145.655 145.247 144.757 
144.315 143.767 146.055 146.078 145.681 145.51 144.95 144.605 143.978 
143.582 143.029 145.525 145.64 145.224 145.241 144.726 144.606 144.028 
143.745 143.173 142.852 142.393 145.06 145.136 144.809 144.781 144.364 
144.292 143.844 143.701 143.199 142.955 142.455 142.213 141.783 144.611 
144.732 144.523 144.524 144.212 144.08 143.694 143.53 143.109 142.921 
142.452 142.231 141.762 141.557 141.122 144.163 144.268 144.086 144.22 
144.007 143.998 143.653 143.481 143.05 142.842 142.405 142.203 141.759 
141.54 141.101 140.889 140.479 143.938 143.889 143.664 143.755 143.588 
143.706 143.459 143.414 142.998 142.806 142.336 142.143 141.712 141.531 
141.111 140.901 140.491 140.281 139.915 143.834 143.531 143.592 143.471 
143.12 143.264 143.138 143.283 143.31 142.514 142.783 142.7 142.911 
142.879 143.133 143.164 141.807 142.109 142.043 142.364 142.306 142.611 
142.542 142.842 142.72 141.23 141.434 141.348 141.655 141.603 141.933 
141.814 142.119 141.937 142.238 142.046 140.84 140.953 140.846 141.037 
140.987 141.247 141.141 141.378 141.174 141.428 141.239 141.556 141.416 
140.474 140.594 140.438 140.577 140.468 140.687 140.588 140.782 140.579 
140.734 140.514 140.765 140.629 140.963 140.84 140.01 140.174 139.952 
140.097 139.882 140.113 139.981 140.236 140.062 140.211 139.957 140.105 
139.911 140.184 140.062 140.385 140.246 139.483 139.66 139.418 139.547 
139.271 139.461 139.289 139.578 139.457 139.686 139.473 139.594 139.351 
139.52 139.361 139.63 139.516 139.809 139.688 139.32 139.135 139.06 
138.729 138.99 138.877 138.529 138.456 138.113 138.988 138.785 138.416 
138.272 137.902 137.815 137.445 139.094 138.853 138.448 138.214 137.794 
137.626 137.223 137.129 136.741 139.064 138.915 138.5 138.275 137.812 
137.566 137.108 136.933 136.513 136.416 136.019 138.893 138.787 138.408 
138.27 137.833 137.601 137.11 136.863 136.386 136.211 135.769 135.675 
135.277 138.872 138.665 138.314 138.161 137.783 137.593 137.127 136.876 
136.363 136.12 135.616 135.441 134.984 134.915 134.543 139.031 138.76 
138.4 138.159 137.782 137.559 137.103 136.861 136.345 136.097 135.579 
135.341 134.853 134.672 134.253 134.193 133.856 139.129 138.918 138.54 
138.292 137.877 137.607 137.118 136.838 136.308 136.057 135.572 135.343 
134.918 134.666 134.274 134.042 133.692 133.565 133.256 145.944 146.398 
146.221 146.275 146.637 146.616 146.747 146.583 146.591 146.582 146.697 
146.875 146.946 147.058 146.867 146.747 146.386 146.514 146.627 146.874 
147.064 147.178 147.16 146.92 146.662 146.119 146.247 146.249 146.502 
146.651 146.967 147.02 147.099 146.875 146.677 146.352 145.704 145.891 
145.85 146.08 146.16 146.479 146.563 146.788 146.639 146.647 146.328 
146.231 145.93 145.193 145.408 145.377 145.632 145.709 146.007 146.153 
146.389 146.409 146.433 146.234 146.121 145.846 145.751 145.484 144.695 
144.892 144.87 145.14 145.239 145.554 145.742 146.043 146.228 146.358 
146.369 146.221 146.029 145.766 145.506 145.319 145.063 144.229 144.406 
144.388 144.654 144.772 145.087 145.254 145.594 145.789 146.122 146.273 
146.39 146.321 146.107 145.839 145.5 145.21 144.959 144.718 145.682 
145.98 145.663 145.36 146.236 145.933 145.575 145.319 145.009 146.308 
146.072 145.657 145.463 145.116 144.918 144.562 146.208 146.027 145.55 
145.415 145.052 144.947 144.581 144.393 143.982 146.026 145.897 145.405 
145.239 144.834 144.782 144.444 144.348 143.934 143.756 143.343 145.755 
145.73 145.305 145.109 144.645 144.536 144.203 144.163 143.814 143.68 
143.271 143.112 142.741 145.357 145.449 145.132 145.013 144.553 144.381 
144.019 143.95 143.672 143.576 143.227 143.055 142.684 142.529 142.188 
144.904 145.034 144.801 144.807 144.439 144.303 143.937 143.824 143.548 
143.464 143.152 143.011 142.63 142.474 142.109 141.977 141.639 144.518 
144.602 144.393 144.463 144.191 144.16 143.836 143.747 143.43 143.343 
142.999 142.89 142.48 142.36 141.949 141.853 141.485 141.403 141.073 
145.459 145.145 145.225 145.1 144.815 144.91 144.773 144.881 144.747 
144.363 144.526 144.377 144.529 144.376 144.485 144.272 143.789 144.001 
143.839 144.053 143.895 144.067 143.854 143.949 143.701 143.187 143.406 
143.248 143.469 143.311 143.524 143.33 143.488 143.248 143.365 143.147 
142.591 142.805 142.639 142.863 142.696 142.922 142.75 142.945 142.73 
142.876 142.635 142.789 142.57 142.009 142.199 141.991 142.216 142.024 
142.28 142.124 142.368 142.197 142.365 142.128 142.253 142.001 142.164 
141.935 141.457 141.616 141.376 141.559 141.354 141.594 141.456 141.731 
141.604 141.826 141.618 141.752 141.485 141.608 141.371 141.533 141.327 
140.928 141.076 140.844 140.985 140.786 140.972 140.846 141.091 140.985 
141.223 141.038 141.211 140.948 141.089 140.842 141 140.805 140.969 
140.784 137.614 137.956 137.995 138.337 138.258 138.316 138.707 138.689 
138.97 138.655 138.64 139.053 139.063 139.428 139.353 139.684 139.196 
139.119 139.525 139.475 139.889 139.832 140.208 140.134 140.521 139.63 
139.65 140.067 140.019 140.418 140.338 140.71 140.637 140.993 140.951 
141.329 139.822 139.955 140.384 140.476 140.868 140.858 141.212 141.144 
141.493 141.416 141.778 141.733 142.136 140.015 140.102 140.518 140.668 
141.09 141.198 141.595 141.618 142.011 141.954 142.343 142.244 142.637 
142.573 142.989 140.372 140.367 140.769 140.834 141.283 141.39 141.854 
141.951 142.408 142.446 142.867 142.821 143.19 143.105 143.448 143.395 
143.728 140.769 140.76 141.146 141.16 141.596 141.653 142.126 142.22 
142.682 142.774 143.177 143.233 143.574 143.577 143.869 143.825 144.077 
144.033 144.266 
POINT_DATA 1002
SCALARS Distance double
LOOKUP_TABLE default
143.805 144.06 144.394 144.032 144.539 143.453 143.937 144.458 143.427 
142.903 143.82 144.462 143.212 142.724 142.196 143.983 144.396 143.297 
142.677 142.112 141.538 143.874 143.914 143.495 142.868 142.203 141.566 
141.076 143.297 143.405 143.155 142.753 142.142 141.508 141.036 140.739 
142.84 143.211 142.596 142.302 141.814 141.226 140.769 140.542 140.349 
142.629 143.08 142.275 141.99 141.594 141.025 140.473 140.156 140.028 
139.845 142.428 142.828 142.056 141.775 141.471 140.984 140.373 139.872 
139.609 139.482 139.305 144.513 144.837 144.983 145.275 145.493 144.975 
145.779 145.993 145.41 144.964 146.216 146.312 145.825 145.33 144.861 
146.374 146.471 146.014 145.435 144.901 144.411 146.383 146.584 145.984 
145.342 144.753 144.299 143.864 146.369 146.514 146.038 145.416 144.785 
144.395 144.099 143.707 146.186 146.162 146.128 145.781 145.206 144.764 
144.521 144.204 143.685 145.804 145.691 145.982 146.015 145.714 145.253 
144.899 144.565 144.061 143.431 145.314 145.51 144.996 145.136 144.586 
145.762 144.527 144.019 145.258 145.811 143.876 143.467 144.486 145.227 
145.534 143.403 142.961 143.849 144.473 145.018 145.122 142.886 142.357 
143.35 143.838 144.347 144.63 144.671 142.189 141.705 142.676 143.143 
143.601 143.896 144.004 144.08 141.493 141.125 141.904 142.331 142.75 
143.058 143.189 143.287 143.415 140.875 140.595 141.202 141.569 141.927 
142.21 142.399 142.554 142.715 142.827 142.308 142.288 141.777 142.128 
141.695 141.061 141.831 141.356 140.792 140.082 141.554 140.882 140.298 
139.718 139.103 141.357 140.594 139.861 139.321 138.813 138.258 141.111 
140.459 139.666 138.996 138.478 137.936 137.42 140.775 140.25 139.568 
138.797 138.096 137.492 136.977 136.601 140.445 139.96 139.426 138.746 
137.923 137.148 136.553 136.134 135.863 140.175 139.684 139.212 138.693 
137.967 137.132 136.417 135.868 135.455 135.192 141.902 141.278 141.52 
140.43 140.781 141.199 139.45 139.866 140.358 140.803 138.547 138.989 
139.49 139.948 140.254 137.71 138.157 138.741 139.226 139.518 139.688 
136.914 137.3 137.873 138.504 138.907 139.08 139.269 136.18 136.519 
136.928 137.516 138.115 138.475 138.701 139.035 135.474 135.819 136.142 
136.542 137.108 137.665 138.07 138.442 138.88 134.69 135.025 134.272 
134.628 133.923 135.396 134.242 133.47 135.002 135.737 133.838 133.079 
134.626 135.387 136.172 133.709 133.112 134.351 135.057 135.849 136.741 
133.87 133.245 134.358 134.813 135.496 136.396 137.311 133.797 133.036 
134.401 134.754 135.21 136.04 137.015 137.834 133.456 132.791 134.165 
134.697 135.127 135.8 136.746 137.648 138.344 133.33 132.918 133.902 
134.542 135.135 135.767 136.571 137.428 138.166 138.782 134.72 134.159 
134.408 133.802 134.264 133.735 133.581 134.196 133.265 133.289 133.437 
134.099 132.858 132.62 132.708 133.376 133.924 132.735 132.246 132.148 
132.466 133.407 133.824 132.96 132.458 132.167 132.234 132.639 133.557 
133.951 133.267 132.875 132.474 132.266 132.288 132.571 133.776 134.202 
133.485 133.108 132.586 132.15 131.926 131.96 132.291 133.988 134.442 
133.625 133.215 132.641 132.064 131.699 131.619 131.866 132.363 140.068 
139.566 139.451 138.895 138.771 139.033 138.187 138.062 138.326 138.538 
137.454 137.331 137.564 137.724 137.929 136.704 136.645 136.8 136.848 
136.999 137.144 135.973 136.046 136.027 136.073 136.125 136.295 136.394 
135.27 135.455 135.198 135.302 135.418 135.537 135.675 135.743 134.645 
134.883 134.44 134.467 134.679 134.84 134.928 135.01 135.153 140.631 
140.077 140.632 140.026 140.677 139.419 140.036 140.796 139.352 138.721 
140.163 140.854 139.4 138.72 138.019 140.236 140.751 139.526 138.806 
138.081 137.313 140.152 140.617 139.524 138.791 138.089 137.366 136.67 
140.09 140.613 139.474 138.706 137.936 137.259 136.645 136.066 140.151 
140.705 139.561 138.828 137.96 137.15 136.515 135.99 135.457 140.219 
140.769 139.681 139.079 138.275 137.346 136.562 135.99 135.477 134.941 