# vtk DataFile Version 4.0
vtk output
ASCII
DATASET POLYDATA
POINTS 1002 float
-74.6382 -100.639 49.5853 -74.5573 -100.584 50.7525 -75.1673 -100.539 50.2396 
-75.308 -100.446 49.2178 -75.7334 -100.245 49.8262 -74.6471 -100.329 48.755 
-75.8244 -99.981 48.9866 -76.2939 -99.8339 49.5512 -75.321 -99.9562 48.5618 
-74.5742 -99.6226 48.2611 -76.3918 -99.6861 48.56 -77.0945 -99.6935 49.0961 
-75.81 -99.608 48.1981 -75.2172 -99.343 47.913 -74.3969 -99.0078 47.5582 
-77.3682 -99.869 47.7217 -78.0998 -99.77 48.2917 -76.469 -99.6398 47.4341 
-75.7345 -99.2949 47.2557 -74.989 -98.8957 47.006 -74.0316 -98.5625 46.6828 
-78.3804 -99.9167 46.9888 -78.8815 -99.5245 47.6626 -77.4595 -99.7713 46.6935 
-76.4272 -99.2552 46.6543 -75.5498 -98.7812 46.503 -74.6228 -98.3555 46.2644 
-73.612 -98.0272 46.0074 -78.9204 -99.2435 46.8993 -79.3657 -98.8799 47.5696 
-78.2358 -99.3526 46.4853 -77.236 -98.8938 46.4487 -76.2081 -98.3736 46.3432 
-75.2714 -98.0475 45.9899 -74.3242 -97.7774 45.6085 -73.4181 -97.5999 45.2648 
-79.2873 -98.32 47.0517 -79.8376 -98.2695 47.5499 -78.6773 -98.4695 46.5813 
-77.8746 -98.2957 46.3497 -76.8994 -97.913 46.1679 -75.9496 -97.7152 45.7105 
-75.0953 -97.6049 45.1297 -74.2446 -97.4719 44.67 -73.4371 -97.4054 44.321 
-79.7595 -97.7098 46.9028 -80.3053 -97.8238 47.2475 -79.1161 -97.7097 46.5263 
-78.3805 -97.6865 46.1512 -77.5294 -97.5627 45.7889 -76.616 -97.5178 45.2683 
-75.8034 -97.5277 44.6034 -75.0621 -97.4118 44.0849 -74.2547 -97.2558 43.7728 
-73.4801 -97.1944 43.5196 -80.1399 -97.2745 46.5942 -80.5925 -97.3275 46.8928 
-79.5093 -97.1932 46.3411 -78.7507 -97.1252 46.0017 -77.9645 -97.1059 45.5615 
-77.1553 -97.184 45.0184 -76.3785 -97.3026 44.3318 -75.7234 -97.2801 43.7125 
-75.0432 -97.0915 43.3807 -74.2413 -96.9115 43.2043 -73.4971 -96.8509 42.995 
-74.8246 -100.563 51.5485 -75.4098 -100.403 50.998 -75.1613 -100.714 52.0765 
-75.7856 -100.398 51.5503 -75.6178 -100.903 52.441 -76.0711 -100.121 50.4989 
-76.3397 -100.476 51.9799 -76.0059 -100.852 53.0089 -76.6727 -100.19 51.0221 
-76.848 -99.8373 50.1953 -76.842 -100.456 52.5313 -76.2327 -100.595 53.7244 
-77.4511 -100.394 51.4125 -77.6071 -100.019 50.6731 -77.7156 -99.6503 49.7399 
-77.2295 -100.317 53.1219 -76.6117 -100.365 54.2287 -78.0575 -100.476 51.8895 
-78.3981 -100.26 50.9651 -78.3385 -99.6604 50.1658 -78.5562 -99.4309 48.9421 
-77.7182 -100.152 53.5917 -77.3069 -100.27 54.5961 -78.369 -100.26 52.4891 
-78.904 -100.21 51.3986 -78.9995 -99.7104 50.4252 -79.0759 -99.2636 49.3844 
-79.2997 -99.1029 48.3393 -78.2658 -100.037 54.0612 -77.9883 -100.251 55.0556 
-78.5724 -99.8808 53.0442 -79.0041 -99.7061 51.9812 -79.3905 -99.391 50.862 
-79.6899 -99.1695 49.7435 -79.9273 -99.0629 48.8144 -79.9662 -98.7509 48.1335 
-78.6058 -99.885 54.5655 -78.3574 -100.099 55.4817 -78.7699 -99.5566 53.515 
-79.0019 -99.1452 52.4219 -79.3862 -98.7328 51.3438 -79.9074 -98.6416 50.2405 
-80.4104 -98.8591 49.2544 -80.614 -98.8135 48.5305 -80.5086 -98.3461 47.8952 
-78.6894 -99.525 54.9163 -78.4616 -99.6702 55.6686 -78.9025 -99.2207 53.9172 
-79.1477 -98.7963 52.7688 -79.4274 -98.3033 51.7074 -79.8183 -98.0243 50.7408 
-80.3902 -98.1978 49.7797 -80.8756 -98.4254 48.9508 -80.9909 -98.2323 48.2426 
-80.8349 -97.761 47.5241 -78.6009 -98.9593 55.2354 -78.8664 -98.7632 54.4169 
-78.7754 -98.1041 54.6214 -79.2433 -97.9005 53.7705 -79.0709 -97.3002 53.8931 
-79.2856 -98.4781 53.3437 -79.7569 -97.0911 53.1793 -79.3549 -96.6016 53.138 
-79.9323 -97.728 52.8986 -79.711 -98.1364 52.2554 -80.1087 -96.3481 52.58 
-79.5206 -95.9634 52.3939 -80.5437 -96.9709 52.6496 -80.4213 -97.5767 52.0876 
-79.9768 -97.7803 51.3053 -80.1994 -95.726 51.8131 -79.5954 -95.3979 51.7295 
-80.8023 -96.1842 52.067 -80.9552 -96.9011 51.815 -80.5972 -97.3821 51.0317 
-80.3168 -97.6468 50.3056 -80.1623 -95.1853 51.0933 -79.5953 -94.848 51.169 
-80.7462 -95.4769 51.1447 -81.1 -96.0301 50.9475 -81.0777 -96.718 50.3553 
-80.8743 -97.1818 49.7527 -80.8429 -97.7231 49.3185 -80.1087 -94.5176 50.5471 
-79.5189 -94.2303 50.6326 -80.6384 -94.7342 50.4472 -80.9831 -95.0696 50.0963 
-81.2201 -95.7113 49.5056 -81.3147 -96.3518 49.0417 -81.2585 -96.8997 48.7848 
-81.1767 -97.6072 48.515 -79.9987 -93.797 50.0071 -79.3743 -93.6254 50.1072 
-80.5696 -93.9209 49.9277 -80.9101 -94.1041 49.6181 -81.2008 -94.5894 49.0325 
-81.5147 -95.2875 48.5452 -81.5713 -95.8751 48.3326 -81.3719 -96.4889 48.0974 
-81.1331 -97.2257 47.7558 -79.7704 -93.2583 49.4493 -79.1844 -93.1354 49.6511 
-80.38 -93.3193 49.3263 -80.8225 -93.3958 49.1091 -81.1931 -93.6898 48.663 
-81.6049 -94.2981 48.1797 -81.7702 -94.9349 47.9282 -81.5204 -95.4638 47.7514 
-81.1579 -96.1146 47.408 -80.8835 -96.8331 47.0497 -80.4492 -96.675 46.5168 
-80.705 -96.0162 46.729 -80.1474 -95.8871 46.3713 -81.0568 -95.3031 47.024 
-80.4576 -95.2403 46.4712 -79.8356 -95.1233 46.1222 -81.5559 -94.7459 47.1959 
-80.8894 -94.6641 46.4667 -80.2107 -94.6219 45.9922 -79.536 -94.552 45.5692 
-81.8103 -94.177 47.3151 -81.3789 -94.0698 46.4422 -80.5911 -93.9942 45.8408 
-79.8454 -93.9999 45.4524 -78.9582 -93.9593 45.1424 -81.4909 -93.5421 47.6357 
-81.4494 -93.3704 46.6155 -80.9044 -93.0511 45.9137 -80.1626 -92.9974 45.4965 
-79.2148 -93.1902 45.1949 -78.093 -93.1881 44.9942 -80.918 -93.1528 48.0984 
-80.9217 -92.9242 46.9932 -80.7596 -92.3017 46.1596 -80.3963 -91.8031 45.6825 
-79.6125 -92.0713 45.3301 -78.3917 -92.4855 45.0347 -77.3404 -92.4483 44.6984 
-80.4136 -93.0236 48.486 -80.3054 -92.8006 47.4842 -80.225 -92.1832 46.5335 
-80.1937 -91.312 45.8629 -79.7933 -91.1529 45.4635 -78.7181 -91.7138 45.1476 
-77.525 -91.9884 44.7587 -76.85 -91.7647 44.1917 -79.8794 -92.9382 48.7686 
-79.8595 -92.6615 48.0031 -79.8024 -92.1783 47.1661 -79.7739 -91.4321 46.3232 
-79.5275 -90.9604 45.7021 -78.7129 -91.152 45.3488 -77.5938 -91.4772 44.9775 
-76.821 -91.3687 44.402 -76.5083 -91.0253 43.711 -79.2954 -92.8148 49.0468 
-79.3994 -92.4614 48.4315 -79.4784 -91.9728 47.8266 -79.4351 -91.4249 47.1092 
-79.118 -91.0578 46.3208 -78.4374 -90.9592 45.7281 -77.5361 -90.9699 45.2794 
-76.8 -90.8545 44.6965 -76.4327 -90.5649 43.9751 -76.2426 -90.2948 43.3138 
-79.8983 -96.6507 46.2933 -79.4559 -95.824 46.1357 -79.1047 -96.5336 46.0409 
-79.0644 -95.0805 45.7041 -78.537 -95.745 45.7135 -78.2345 -96.4641 45.6153 
-78.6443 -94.539 45.1253 -78.0907 -95.1388 45.1553 -77.6436 -95.7905 45.2044 
-77.4487 -96.5391 45.1002 -77.8933 -93.8424 44.888 -77.603 -94.5771 44.7257 
-77.1649 -95.2013 44.7221 -76.8824 -95.8512 44.7126 -76.7088 -96.6814 44.453 
-77.139 -92.9686 44.6174 -77.0015 -93.7703 44.4146 -76.726 -94.5018 44.2156 
-76.3995 -95.0569 44.1517 -76.2387 -95.8602 43.9554 -76.0796 -96.7637 43.6746 
-76.7473 -92.1598 43.9588 -76.6215 -92.9309 43.7301 -76.3978 -93.7432 43.5086 
-76.0841 -94.2873 43.3636 -75.8867 -94.9805 43.2293 -75.7903 -95.9531 43.0931 
-75.5256 -96.7132 43.1236 -76.4899 -91.387 43.3314 -76.3594 -92.1452 42.9982 
-76.1126 -93.0443 42.7972 -75.8349 -93.6532 42.7071 -75.649 -94.2617 42.5742 
-75.5455 -95.1945 42.4691 -75.294 -96.047 42.6043 -74.8041 -96.5637 42.8989 
-76.165 -90.6405 42.9721 -75.9606 -91.3324 42.6718 -75.6467 -92.2534 42.5032 
-75.3816 -92.981 42.4777 -75.2582 -93.5755 42.3824 -75.1968 -94.4386 42.1675 
-74.9908 -95.3637 42.1564 -74.5335 -95.9923 42.432 -73.975 -96.4379 42.7368 
-75.8685 -89.8129 42.7891 -75.5844 -90.354 42.5853 -75.2792 -89.4578 42.4177 
-74.8559 -90.1914 42.3228 -74.6221 -89.2794 42.1664 -75.1633 -91.199 42.4714 
-74.2065 -90.1991 41.9284 -73.9292 -89.471 42.0546 -74.3741 -91.055 42.1945 
-74.7828 -92.0542 42.4304 -73.5193 -90.4511 41.5178 -73.1382 -90.0029 42.1495 
-73.7535 -91.0548 41.3712 -74.0225 -91.8232 41.904 -74.612 -92.7381 42.3353 
-72.7908 -90.7637 41.4888 -72.4477 -90.4648 42.3159 -73.1095 -91.2388 40.6023 
-73.3777 -91.8398 40.7258 -73.8345 -92.606 41.6158 -74.5672 -93.5666 42.0964 
-72.2093 -90.9802 41.7932 -71.8561 -90.7026 42.4242 -72.5193 -91.4342 40.7284 
-72.8024 -92.018 40.1793 -73.1209 -92.6435 40.8128 -73.6986 -93.5231 41.6548 
-74.4307 -94.5619 41.9613 -71.5365 -91.2404 42.1211 -71.1038 -90.9363 42.5484 
-71.9205 -91.6782 41.4075 -72.2602 -92.2123 40.7795 -72.5611 -92.7517 40.9578 
-72.9412 -93.4646 41.6019 -73.4916 -94.4551 41.94 -74.0651 -95.3758 42.1142 
-70.6863 -91.6345 42.4149 -70.295 -91.2954 42.7648 -71.1099 -92.0707 42.0159 
-71.4878 -92.5134 41.5945 -71.839 -92.9819 41.5644 -72.2388 -93.6283 41.9145 
-72.7095 -94.5064 42.0916 -73.1642 -95.3782 42.1207 -73.5686 -96.0096 42.3559 
-69.9812 -92.1054 42.7659 -69.6924 -91.7522 43.0817 -70.354 -92.5399 42.5235 
-70.6666 -92.9292 42.2013 -70.9084 -93.3472 41.9376 -71.2576 -94.0072 41.9654 
-71.8133 -94.8811 42.0636 -72.3905 -95.6817 42.0588 -72.8054 -96.2313 42.1982 
-73.1328 -96.5846 42.5689 -76.1619 -89.6728 43.306 -75.7324 -89.0991 42.7628 
-76.1358 -88.9551 43.431 -75.5087 -88.3787 42.994 -75.9903 -88.3642 43.8984 
-75.0579 -88.612 42.4238 -75.124 -88.041 43.5673 -75.5763 -88.2522 44.6281 
-74.6612 -87.9451 42.7301 -74.3123 -88.4295 42.3119 -74.6349 -88.2924 44.277 
-74.9982 -88.4889 45.3582 -74.1817 -87.9875 43.2209 -73.8297 -87.998 42.652 
-73.5047 -88.8898 42.435 -74.0526 -88.5169 45.1213 -74.3688 -88.6701 46.0054 
-73.6369 -88.4535 43.9292 -73.2457 -88.2458 43.1 -72.9307 -88.6392 42.7759 
-72.6654 -89.6753 42.6156 -73.3893 -88.4684 46.0068 -73.7309 -88.9144 46.505 
-72.9505 -88.485 45.0466 -72.488 -88.4863 43.9843 -72.151 -88.5428 43.2797 
-72.0022 -89.2731 42.8964 -71.9529 -90.176 42.6738 -72.885 -88.7567 46.5324 
-73.2488 -89.3834 46.8856 -72.3882 -88.4654 46.0012 -71.7961 -88.4475 45.1347 
-71.3325 -88.3913 44.1847 -71.174 -88.7725 43.4384 -71.2332 -89.6982 42.9986 
-71.2481 -90.4525 42.7641 -72.6541 -89.4103 46.8263 -72.991 -89.804 47.3786 
-72.1717 -89.035 46.3775 -71.5228 -88.8018 45.8403 -70.918 -88.5836 45.061 
-70.6063 -88.6409 44.2155 -70.5865 -89.3529 43.6112 -70.6085 -90.2303 43.2761 
-70.4871 -90.8031 43.0094 -72.5086 -89.9271 47.3062 -72.8166 -90.0188 48.0322 
-72.073 -89.7544 46.6904 -71.4721 -89.5088 46.2222 -70.8547 -89.2082 45.6908 
[...]
CELL_DATA 2000
SCALARS Distance double
LOOKUP_TABLE default
134.02 134.07 133.935 133.605 133.975 133.901 133.599 133.438 132.981 
133.989 133.807 133.497 133.362 132.961 132.741 132.212 134.295 133.981 
133.651 133.348 132.972 132.719 132.246 131.959 131.397 134.547 134.347 
134.038 133.656 133.2 132.819 132.323 132.003 131.443 131.124 130.532 
134.419 134.414 134.111 133.934 133.4 133.048 132.422 132.079 131.482 
131.167 130.582 130.265 129.734 134.152 134.134 133.784 133.766 133.267 
133.077 132.428 132.125 131.502 131.203 130.659 130.353 129.863 129.559 
129.151 133.971 133.867 133.471 133.405 132.969 132.849 132.312 132.082 
131.522 131.245 130.76 130.473 130.042 129.738 129.337 129.053 128.709 
133.751 133.679 133.264 133.159 132.714 132.59 132.105 131.948 131.456 
131.261 130.808 130.583 130.177 129.922 129.531 129.25 128.87 128.613 
128.28 134.28 134.697 134.423 134.298 135.179 134.834 134.658 134.396 
134.241 135.665 135.326 135.168 134.844 134.736 134.396 134.311 136.028 
135.794 135.748 135.461 135.424 135.022 134.929 134.559 134.55 136.294 
136.139 136.216 136.06 136.109 135.76 135.596 135.166 134.992 134.747 
134.692 136.642 136.446 136.526 136.451 136.524 136.339 136.15 135.756 
135.45 135.116 134.946 134.767 134.627 137.118 136.851 136.793 136.664 
136.594 136.529 136.31 136.117 135.812 135.54 135.368 135.107 135.008 
134.706 134.516 137.485 137.265 137.044 136.838 136.552 136.437 136.1 
136.039 135.74 135.707 135.581 135.515 135.464 135.217 135.05 134.65 
134.389 137.492 137.424 137.11 136.949 136.557 136.365 135.959 135.81 
135.487 135.479 135.353 135.488 135.47 135.513 135.356 135.14 134.811 
134.46 134.114 137.232 136.562 136.925 136.871 135.86 136.239 136.258 
136.528 136.375 135.25 135.619 135.758 136.019 135.97 136.057 135.833 
134.64 135.055 135.312 135.646 135.75 135.815 135.633 135.565 135.369 
133.993 134.428 134.691 135.16 135.36 135.617 135.52 135.472 135.246 
135.21 135.203 133.361 133.77 133.942 134.428 134.569 135.031 134.997 
135.228 135.023 135.087 135.007 135.158 135.291 132.694 133.105 133.195 
133.623 133.635 134.095 134.041 134.481 134.366 134.676 134.564 134.831 
134.844 135.153 135.176 131.968 132.38 132.429 132.832 132.78 133.154 
133.058 133.485 133.454 133.895 133.862 134.222 134.153 134.508 134.439 
134.797 134.65 131.277 131.641 131.673 132.049 132.01 132.337 132.253 
132.6 132.611 133.038 133.102 133.486 133.434 133.742 133.606 133.948 
133.809 134.152 133.968 133.513 133.314 133.202 132.749 133.134 132.981 
132.522 132.402 131.943 133.029 132.865 132.396 132.206 131.753 131.61 
131.155 132.754 132.732 132.273 132.101 131.569 131.41 130.923 130.811 
130.302 132.256 132.334 131.899 131.859 131.244 131.126 130.514 130.47 
129.924 129.869 129.268 131.845 131.837 131.401 131.384 130.769 130.668 
129.974 129.938 129.374 129.405 128.87 128.789 128.177 131.59 131.509 
131.067 130.967 130.411 130.229 129.568 129.414 128.864 128.86 128.433 
128.413 127.904 127.748 127.168 131.294 131.25 130.827 130.725 130.242 
130.028 129.459 129.181 128.653 128.49 128.088 128.035 127.607 127.496 
126.943 126.771 126.215 130.938 130.922 130.534 130.484 130.06 129.921 
129.437 129.189 128.685 128.427 127.972 127.796 127.343 127.206 126.672 
126.52 125.951 125.819 125.32 133.418 132.689 133.048 132.965 131.843 
132.242 132.152 132.517 132.37 131.001 131.355 131.198 131.596 131.448 
131.858 131.717 130.152 130.507 130.311 130.648 130.48 130.883 130.791 
131.215 131.111 129.123 129.573 129.403 129.786 129.606 129.963 129.847 
130.273 130.221 130.636 130.528 127.993 128.46 128.316 128.809 128.659 
129.074 128.888 129.304 129.196 129.689 129.639 130.063 129.937 126.961 
127.357 127.218 127.709 127.623 128.079 127.905 128.298 128.138 128.62 
128.602 129.128 129.107 129.491 129.34 126.029 126.378 126.235 126.679 
126.634 127.087 126.991 127.352 127.226 127.619 127.636 128.137 128.215 
128.659 128.598 128.894 128.705 125.169 125.482 125.328 125.732 125.679 
126.138 126.088 126.489 126.403 126.78 126.787 127.25 127.347 127.811 
127.808 128.151 128.008 128.266 128.099 124.644 123.917 124.442 124.812 
123.252 123.751 124.153 124.689 125.152 122.77 123.16 123.543 124.037 
124.486 125.065 125.542 122.525 122.76 123.033 123.426 123.782 124.348 
124.821 125.436 125.897 122.433 122.551 122.674 122.922 123.147 123.614 
124.037 124.678 125.234 125.837 126.351 122.358 122.449 122.523 122.631 
122.798 123.066 123.438 123.942 124.521 125.173 125.81 126.385 126.917 
122.21 122.349 122.486 122.569 122.77 122.891 123.251 123.529 124.069 
124.558 125.202 125.803 126.383 126.923 127.349 122.062 122.213 122.434 
122.568 122.814 122.933 123.258 123.454 123.927 124.264 124.854 125.303 
125.879 126.359 126.807 127.257 127.573 122.08 122.162 122.455 122.575 
122.869 122.973 123.244 123.41 123.779 124.101 124.626 125.041 125.599 
125.987 126.449 126.788 127.134 127.468 127.735 124.45 123.921 123.998 
123.666 123.454 123.445 123.028 123.174 122.925 123.224 123.048 122.543 
122.533 122.224 122.471 122.408 123.272 122.977 122.466 122.208 121.83 
121.856 121.816 122.121 122.248 123.334 123.088 122.635 122.308 121.88 
121.66 121.514 121.643 121.812 122.111 122.271 123.289 123.088 122.645 
122.438 121.983 121.752 121.402 121.384 121.363 121.661 121.83 122.141 
122.212 123.382 123.082 122.648 122.412 121.986 121.764 121.319 121.189 
120.935 121.128 121.196 121.6 121.726 122.027 122.034 123.707 123.329 
122.972 122.591 122.249 121.881 121.507 121.167 120.871 120.77 120.79 
121.024 121.252 121.55 121.678 121.863 121.887 124.076 123.746 123.469 
123.073 122.792 122.35 122.051 121.576 121.326 120.959 120.967 120.898 
121.19 121.309 121.588 121.66 121.776 121.819 121.912 130.632 130.042 
130.296 130.214 129.394 129.663 129.546 129.844 129.74 128.677 128.964 
128.806 129.119 128.993 129.316 129.151 127.882 128.197 127.998 128.32 
128.142 128.502 128.346 128.672 128.453 127.02 127.346 127.106 127.443 
127.189 127.567 127.36 127.778 127.585 127.933 127.71 126.199 126.474 
126.203 126.509 126.204 126.547 126.258 126.692 126.459 126.932 126.71 
127.139 126.947 125.486 125.693 125.408 125.642 125.334 125.589 125.27 
125.595 125.321 125.75 125.52 126.006 125.809 126.321 126.181 124.868 
125.017 124.707 124.889 124.576 124.786 124.488 124.717 124.445 124.724 
124.491 124.859 124.678 125.142 125.022 125.55 125.472 124.382 124.45 
124.105 124.212 123.866 124.048 123.771 124.002 123.765 123.979 123.732 
123.965 123.751 124.096 123.975 124.437 124.393 124.899 124.88 130.787 
130.896 130.633 130.225 131.032 130.755 130.317 130.049 129.598 131.116 
130.857 130.386 130.123 129.632 129.374 128.883 131.173 130.908 130.421 
130.159 129.646 129.382 128.85 128.609 128.088 131.242 130.976 130.49 
130.2 129.677 129.386 128.837 128.566 128.017 127.78 127.249 131.25 
131.033 130.557 130.28 129.741 129.428 128.861 128.562 128.01 127.737 
127.204 126.953 126.45 131.192 130.998 130.533 130.309 129.779 129.487 
128.903 128.59 128.024 127.744 127.213 126.946 126.436 126.191 125.733 
131.172 130.938 130.459 130.249 129.756 129.51 128.956 128.641 128.055 
127.752 127.2 126.941 126.422 126.184 125.714 125.508 125.11 131.184 
130.926 130.412 130.179 129.699 129.486 128.992 128.709 128.136 127.798 
127.214 126.921 126.401 126.162 125.714 125.504 125.133 124.946 124.635 
130.994 130.354 130.521 130.198 129.689 129.869 129.586 129.748 129.482 
129.094 129.254 129.003 129.155 128.889 129.055 128.778 128.536 128.681 
128.39 128.552 128.208 128.393 128.032 128.252 127.893 127.968 128.085 
127.688 127.847 127.387 127.586 127.13 127.39 126.993 127.276 126.936 
127.379 127.479 127.019 127.111 126.602 126.72 126.255 126.466 126.124 
126.39 126.119 126.381 126.14 126.706 126.853 126.436 126.502 126.036 
126.045 125.615 125.707 125.441 125.647 125.48 125.685 125.502 125.695 
125.508 125.997 126.173 125.851 125.967 125.596 125.6 125.191 125.199 
124.897 125.048 124.886 125.112 124.963 125.148 124.967 125.134 124.969 
125.45 125.558 125.31 125.426 125.14 125.193 124.836 124.83 124.473 
124.533 124.271 124.474 124.298 124.561 124.401 124.622 124.461 124.64 
124.494 125.183 124.777 124.978 124.996 124.203 124.486 124.432 124.741 
124.768 123.38 123.754 123.687 124.081 124.089 124.466 124.481 122.604 
122.876 122.83 123.268 123.351 123.778 123.83 124.156 124.154 122.284 
122.273 122.195 122.48 122.632 123.066 123.196 123.533 123.532 123.827 
123.885 122.374 122.199 122.075 122.08 122.174 122.441 122.596 122.917 
122.942 123.219 123.262 123.632 123.843 122.411 122.334 122.213 122.128 
122.088 122.128 122.16 122.362 122.402 122.661 122.741 123.064 123.292 
123.701 123.996 122.206 122.254 122.137 122.174 122.025 122.024 121.841 
121.937 121.866 122.129 122.229 122.582 122.822 123.209 123.506 123.884 
124.128 121.992 122.01 121.886 121.965 121.783 121.807 121.492 121.527 
121.293 121.535 121.575 122.006 122.231 122.694 122.956 123.382 123.613 
123.982 124.168 125.242 125.299 125.129 124.87 125.416 125.175 124.842 
124.707 124.332 125.638 125.271 124.793 124.605 124.179 124.041 123.539 
125.987 125.531 124.956 124.585 124.107 123.889 123.474 123.262 122.831 
126.262 125.873 125.352 124.892 124.426 124.013 123.69 123.369 123.123 
122.797 122.58 126.443 126.097 125.669 125.314 124.939 124.512 124.196 
123.788 123.591 123.247 123.102 122.76 122.638 126.798 126.362 125.97 
125.623 125.302 124.973 124.612 124.262 123.937 123.673 123.471 123.242 
123.056 122.793 122.606 127.287 126.839 126.463 126.03 125.689 125.308 
124.9 124.533 124.094 123.848 123.581 123.467 123.306 123.124 122.897 
122.642 122.399 127.632 127.301 126.943 126.554 126.196 125.764 125.349 
124.866 124.421 124.016 123.753 123.564 123.511 123.368 123.269 122.981 
122.753 122.426 122.216 125.545 126.259 125.765 125.632 127.314 126.645 
126.463 125.944 125.852 128.475 127.791 127.583 126.925 126.802 126.248 
126.18 129.61 128.967 128.789 128.089 127.897 127.268 127.156 126.622 
126.536 130.797 130.165 130.061 129.329 129.101 128.369 128.153 127.571 
127.435 126.935 126.776 131.933 131.375 131.329 130.647 130.458 129.644 
129.351 128.593 128.377 127.802 127.652 127.126 126.958 132.884 132.414 
132.361 131.833 131.716 131.022 130.749 129.892 129.561 128.805 128.602 
128.024 127.907 127.367 127.288 133.726 133.276 133.178 132.732 132.65 
132.161 132 131.281 130.921 130.059 129.695 128.995 128.809 128.298 
128.219 127.749 127.708 134.506 134.076 133.944 133.495 133.388 132.989 
132.907 132.406 132.154 131.387 130.956 130.126 129.783 129.166 129.014 
128.578 128.496 128.096 128.007 134.877 135.214 134.809 134.305 135.456 
135.099 134.585 134.196 133.729 135.471 135.242 134.721 134.423 133.956 
133.651 133.228 135.254 135.13 134.611 134.431 133.947 133.77 133.319 
133.082 132.509 135.028 134.894 134.398 134.238 133.737 133.625 133.167 
133.039 132.447 132.155 131.368 134.856 134.721 134.255 134.066 133.559 
133.389 132.922 132.812 132.285 132.049 131.318 130.929 130.174 134.581 
134.522 134.09 133.957 133.473 133.263 132.759 132.587 132.106 131.913 
131.314 130.955 130.27 129.878 129.335 134.24 134.207 133.821 133.762 
133.34 133.184 132.681 132.466 131.964 131.775 131.269 131 130.406 
130.035 129.479 129.17 128.767 134.011 133.929 133.575 133.499 133.124 
133.024 132.58 132.393 131.885 131.671 131.176 130.963 130.441 130.153 
129.592 129.288 128.812 128.599 128.24 133.84 133.385 133.536 133.353 
132.735 132.972 132.76 132.99 132.838 131.951 132.234 132.027 132.316 
132.154 132.445 132.287 131.117 131.418 131.215 131.54 131.38 131.704 
131.531 131.822 131.607 130.228 130.54 130.3 130.672 130.479 130.861 
130.657 131.002 130.772 131.086 130.869 129.426 129.654 129.368 129.701 
129.471 129.876 129.663 130.062 129.837 130.201 129.979 130.332 130.118 
128.868 128.969 128.682 128.853 128.621 128.905 128.758 129.111 128.982 
129.309 129.122 129.428 129.2 129.537 129.299 128.459 128.52 128.26 
128.321 128.091 128.219 128.108 128.362 128.351 128.617 128.516 128.694 
128.46 128.66 128.423 128.725 128.542 128.054 128.136 127.906 127.969 
127.733 127.794 127.621 127.807 127.785 128.074 128.038 128.214 127.991 
128.059 127.785 127.949 127.785 128.076 127.987 127.621 127.416 127.342 
126.996 127.41 127.205 126.857 126.722 126.312 127.628 127.321 126.921 
126.662 126.22 126.005 125.474 127.692 127.505 127.063 126.786 126.302 
125.994 125.432 125.128 124.558 127.442 127.385 126.931 126.795 126.301 
126.085 125.566 125.221 124.684 124.325 123.925 127.305 127.147 126.728 
126.568 126.082 125.95 125.471 125.303 124.843 124.568 124.188 123.904 
123.679 127.451 127.196 126.851 126.54 126.088 125.79 125.283 125.096 
124.637 124.553 124.192 124.103 123.807 123.669 123.402 127.614 127.396 
127.082 126.793 126.382 125.988 125.456 125.05 124.517 124.292 123.911 
123.896 123.614 123.615 123.285 123.211 122.85 127.73 127.52 127.191 
126.972 126.575 126.274 125.76 125.336 124.759 124.346 123.891 123.68 
123.404 123.352 123.089 123.02 122.681 122.585 122.277 137.67 137.638 
137.755 137.789 137.222 137.522 137.604 137.753 137.719 136.721 137.034 
137.19 137.46 137.556 137.667 137.618 136.415 136.646 136.894 137.125 
137.357 137.518 137.646 137.635 137.526 136.241 136.473 136.784 136.973 
137.237 137.391 137.597 137.691 137.729 137.574 137.314 135.946 136.288 
136.602 136.865 137.035 137.218 137.311 137.536 137.599 137.697 137.528 
137.3 136.901 135.427 135.855 136.108 136.512 136.581 136.841 136.755 
137.041 137.012 137.345 137.252 137.338 137.009 136.802 136.383 134.827 
135.211 135.35 135.818 135.85 136.208 136.061 136.348 136.225 136.603 
136.547 136.864 136.657 136.717 136.349 136.223 135.845 134.298 134.571 
134.595 134.99 135.007 135.4 135.307 135.609 135.466 135.795 135.717 
136.091 135.969 136.218 135.935 136.006 135.642 135.608 135.248 137.524 
137.685 137.507 137.169 137.648 137.579 137.266 137.035 136.601 137.493 
137.471 137.168 137.032 136.584 136.383 135.941 137.246 137.231 136.872 
136.832 136.388 136.276 135.821 135.686 135.264 136.897 136.877 136.43 
136.44 136.004 135.992 135.557 135.498 135.072 134.974 134.535 136.476 
136.456 135.981 135.974 135.555 135.574 135.165 135.16 134.72 134.692 
134.248 134.189 133.75 136.037 136.03 135.575 135.546 135.121 135.137 
134.729 134.738 134.269 134.257 133.786 133.805 133.407 133.41 133.049 
135.586 135.617 135.17 135.135 134.646 134.662 134.214 134.265 133.803 
133.797 133.319 133.319 132.943 133.011 132.726 132.761 132.454 135.064 
135.165 134.736 134.71 134.16 134.131 133.626 133.693 133.288 133.347 
132.952 132.929 132.563 132.576 132.302 132.383 132.115 132.151 131.808 
137.236 136.871 136.92 136.553 136.361 136.498 136.187 136.193 135.824 
135.774 135.977 135.752 135.826 135.488 135.48 135.147 135.111 135.367 
135.172 135.355 135.063 135.123 134.757 134.79 134.478 134.366 134.651 
134.429 134.694 134.427 134.614 134.283 134.366 134.018 134.098 133.825 
133.601 133.872 133.64 133.911 133.676 133.927 133.676 133.846 133.555 
133.644 133.348 133.45 133.209 132.927 133.139 132.919 133.15 132.948 
133.203 133.014 133.237 133.014 133.163 132.885 132.981 132.688 132.813 
132.554 132.328 132.512 132.281 132.476 132.273 132.514 132.338 132.583 
132.373 132.581 132.321 132.477 132.174 132.29 131.984 132.123 131.85 
131.68 131.896 131.646 131.848 131.628 131.859 131.675 131.913 131.697 
131.911 131.653 131.854 131.582 131.746 131.456 131.578 131.295 131.428 
131.183 125.687 126.298 126.097 126.448 127.092 126.86 127.26 127.05 
127.529 127.811 127.671 128.105 127.926 128.37 128.184 128.653 128.352 
128.295 128.723 128.673 129.092 128.968 129.361 129.232 129.697 128.839 
128.773 129.18 129.187 129.645 129.6 130.003 129.888 130.325 130.264 
130.809 129.388 129.278 129.706 129.674 130.211 130.175 130.655 130.529 
130.953 130.864 131.377 131.383 131.929 130.034 129.893 130.353 130.275 
130.841 130.809 131.33 131.213 131.586 131.452 131.857 131.87 132.393 
132.446 132.919 130.741 130.601 131.044 130.937 131.418 131.4 131.873 
131.836 132.169 132.037 132.324 132.278 132.728 132.83 133.363 133.4 
133.814 131.381 131.295 131.687 131.575 131.922 131.873 132.239 132.258 
132.605 132.554 132.842 132.744 133.123 133.153 133.684 133.792 134.294 
134.28 134.62 
POINT_DATA 1002
SCALARS Distance double
LOOKUP_TABLE default
133.751 134.099 134.212 133.845 134.157 133.221 133.705 134.066 133.249 
132.474 133.652 134.251 133.135 132.501 131.663 134.045 134.594 133.26 
132.523 131.716 130.813 134.407 134.644 133.665 132.677 131.771 130.844 
129.939 134.194 134.422 133.733 132.802 131.789 130.888 130.014 129.25 
133.786 134.248 133.374 132.697 131.786 130.933 130.16 129.417 128.789 
133.569 134.096 133.058 132.478 131.763 131.019 130.329 129.641 128.956 
128.384 133.373 133.785 132.851 132.234 131.605 131.002 130.404 129.799 
129.155 128.5 127.959 134.532 134.53 135.031 134.944 135.563 134.504 
135.474 135.96 135.088 134.62 135.951 136.176 135.824 135.361 134.809 
136.295 136.416 136.408 136.098 135.33 134.842 136.632 136.881 136.655 
136.513 135.842 135.181 134.818 137.042 137.433 136.708 136.423 135.998 
135.6 135.326 134.88 137.323 137.701 136.768 136.183 135.699 135.527 
135.62 135.448 134.822 137.25 137.526 136.759 136.148 135.55 135.215 
135.321 135.473 135.149 134.463 136.92 136.606 136.162 135.95 135.47 
136.221 135.44 134.841 135.888 135.804 134.886 134.195 135.612 135.755 
135.344 134.204 133.582 134.983 135.486 135.321 135.075 133.525 132.977 
134.099 134.627 134.881 134.869 135.08 132.814 132.291 133.247 133.56 
133.938 134.281 134.546 134.907 132.036 131.578 132.438 132.657 132.96 
133.467 133.841 134.074 134.338 131.31 130.946 131.675 131.917 132.186 
132.69 133.151 133.311 133.434 133.658 133.098 132.852 132.299 132.658 
132.056 131.475 132.626 131.905 131.298 130.693 132.421 131.774 131.028 
130.444 129.77 131.893 131.383 130.576 129.938 129.393 128.643 131.435 
130.879 130.045 129.302 128.886 128.334 127.555 131.178 130.59 129.765 
128.895 128.395 128.022 127.357 126.593 130.897 130.409 129.73 128.884 
128.18 127.69 127.11 126.364 125.689 130.56 130.146 129.627 128.954 
128.217 127.52 126.82 126.086 125.404 124.867 132.673 131.756 132.027 
130.836 131.004 131.314 129.993 130.106 130.332 130.728 128.958 129.26 
129.453 129.759 130.179 127.781 128.209 128.51 128.701 129.13 129.61 
126.735 127.139 127.521 127.684 128.031 128.647 129.067 125.808 126.164 
126.602 126.852 127.144 127.736 128.265 128.463 124.951 125.225 125.649 
126.014 126.345 126.873 127.433 127.726 127.837 124.114 124.262 123.375 
123.617 122.764 124.582 123.1 122.448 123.913 124.965 122.736 122.396 
123.267 124.168 125.332 122.524 122.383 122.767 123.409 124.537 125.836 
122.444 122.249 122.605 123.024 123.881 125.148 126.447 122.356 122.027 
122.661 123.047 123.682 124.646 125.814 126.89 122.258 121.903 122.689 
123.094 123.636 124.466 125.451 126.374 127.157 122.328 122.011 122.781 
123.14 123.501 124.204 125.21 126.139 126.835 127.41 124.37 123.511 
123.885 122.94 123.54 122.636 122.666 123.468 122.024 122.015 122.801 
123.55 121.935 121.531 121.904 122.916 123.538 122.192 121.516 121.498 
122.037 122.812 123.518 122.21 121.552 121.143 121.451 122.005 122.916 
123.712 122.217 121.535 120.876 120.792 121.348 121.829 123.361 124.049 
122.64 121.893 121.094 120.645 120.936 121.475 121.734 123.829 124.351 
123.219 122.518 121.744 121.141 121.116 121.519 121.773 121.823 130.391 
129.938 129.799 129.252 129.133 129.449 128.51 128.391 128.658 128.873 
127.693 127.564 127.794 127.977 128.189 126.784 126.715 126.843 126.933 
127.172 127.395 125.924 125.96 125.901 125.868 125.974 126.231 126.504 
125.198 125.302 125.102 124.998 124.945 125.046 125.285 125.639 124.555 
124.748 124.369 124.259 124.21 124.181 124.248 124.503 124.925 131.025 
130.485 131.179 130.602 131.317 129.864 130.652 131.381 129.906 129.129 
130.693 131.446 129.921 129.112 128.311 130.791 131.492 129.987 129.126 
128.275 127.468 130.818 131.442 130.064 129.172 128.287 127.471 126.676 
130.736 131.401 130.049 129.226 128.311 127.477 126.692 125.94 130.677 
131.439 129.965 129.256 128.387 127.47 126.656 125.92 125.284 130.663 
131.451 129.897 129.239 128.484 127.537 126.638 125.913 125.31 124.807 