# vtk DataFile Version 4.0
vtk output
ASCII
DATASET POLYDATA
POINTS 1002 float
-77.6953 -100.059 61.4326 -77.6359 -100.285 62.1247 -78.283 -100.261 61.8214 
-78.3699 -99.9775 61.1304 -78.9995 -100.138 61.5528 -77.8101 -99.6403 60.7776 
-79.0583 -99.7415 60.9054 -79.6318 -99.9813 61.291 -78.5194 -99.387 60.6019 
-77.9128 -98.8917 60.376 -79.6254 -99.5467 60.5818 -80.1818 -99.9139 60.8642 
-79.1508 -99.0486 60.414 -78.6603 -98.5234 60.2885 -77.9323 -98.0677 60.1037 
-80.1792 -99.4723 60.0386 -80.7853 -99.7728 60.3369 -79.6463 -98.9258 59.9329 
-79.2257 -98.2743 59.9894 -78.6995 -97.8034 59.8886 -77.909 -97.5824 59.5485 
-80.8128 -99.2623 59.5561 -81.3896 -99.5346 59.8414 -80.2295 -98.899 59.3329 
-79.6988 -98.3193 59.3534 -79.2272 -97.7288 59.387 -78.6609 -97.4556 59.0998 
-77.9198 -97.4119 58.6277 -81.3667 -99.0699 59.1399 -81.8504 -99.5278 59.2267 
-80.8998 -98.6647 58.9833 -80.3756 -98.2783 58.8173 -79.7574 -97.8035 58.7059 
-79.1786 -97.3969 58.4952 -78.6111 -97.2401 58.1288 -77.9106 -97.1737 57.7718 
-81.7823 -99.1825 58.5305 -82.2079 -99.6959 58.5318 -81.4365 -98.5426 58.5733 
-81.0886 -98.0138 58.4746 -80.488 -97.7086 58.1751 -79.7407 -97.4326 57.8258 
-79.1332 -97.1287 57.5633 -78.5556 -96.9327 57.3634 -77.8366 -96.811 57.1605 
-82.1702 -99.3076 57.9225 -82.5698 -99.6899 58.0415 -81.8407 -98.6935 57.9067 
-81.5739 -97.9782 57.8858 -81.1125 -97.5596 57.6479 -80.3741 -97.4505 57.2163 
-79.6795 -97.2162 56.9075 -79.1289 -96.8556 56.8099 -78.5006 -96.6624 56.7034 
-77.7695 -96.6217 56.474 -82.5781 -99.2004 57.5387 -82.9671 -99.5079 57.753 
-82.2072 -98.7887 57.3242 -81.9003 -98.1982 57.1485 -81.5033 -97.6655 56.9406 
-80.8742 -97.4781 56.6061 -80.2038 -97.3488 56.2894 -79.6699 -96.9689 56.1618 
-79.117 -96.6473 56.0787 -78.4334 -96.6233 55.8517 -77.7465 -96.7129 55.5247 
-78.0406 -100.536 62.5433 -78.7798 -100.456 62.3179 -78.5608 -100.956 62.8852 
-79.3263 -100.786 62.7865 -79.0996 -101.516 63.1345 -79.5243 -100.301 62.0991 
-79.8676 -101.228 63.0976 -79.625 -101.986 63.3207 -80.081 -100.55 62.6052 
-80.1649 -100.19 61.7649 -80.4409 -101.687 63.2904 -80.1614 -102.358 63.6255 
-80.6885 -100.907 62.942 -80.7942 -100.376 62.1895 -80.7785 -100.115 61.2375 
-80.9721 -102.271 63.5668 -80.6202 -102.855 64.0493 -81.2542 -101.46 63.1758 
-81.4502 -100.679 62.4888 -81.456 -100.24 61.575 -81.4212 -99.9365 60.6602 
-81.2903 -102.917 63.7855 -80.8508 -103.362 64.168 -81.5458 -102.212 63.3023 
-81.8038 -101.31 62.5625 -81.9603 -100.582 61.7304 -81.989 -100.176 60.8945 
-81.9651 -99.8576 60.0106 -81.3761 -103.358 63.6567 -80.8755 -103.715 63.8435 
-81.6041 -102.836 63.1519 -81.8022 -102.081 62.2988 -82.091 -101.254 61.5337 
-82.3207 -100.645 60.93 -82.4231 -100.274 60.1324 -82.3684 -99.9902 59.225 
-81.3727 -103.708 63.3194 -80.8933 -104.082 63.4688 -81.637 -103.245 62.8012 
-81.8137 -102.66 61.9036 -82.1494 -101.944 61.1656 -82.5649 -101.235 60.7932 
-82.8196 -100.708 60.2489 -82.8432 -100.353 59.3631 -82.7185 -100.045 58.5604 
-81.4249 -104.17 63.0127 -81.0286 -104.555 63.2626 -81.7252 -103.691 62.4546 
-81.977 -103.14 61.6404 -82.3756 -102.496 60.9978 -82.9162 -101.782 60.7336 
-83.2957 -101.14 60.3781 -83.3442 -100.664 59.601 -83.2111 -100.296 58.7467 
-83.0764 -99.9206 58.1515 -81.454 -104.795 62.8174 -81.7955 -104.338 62.2556 
-81.8437 -104.82 61.8889 -82.2764 -104.347 61.2875 -82.2823 -104.622 60.893 
-82.1436 -103.782 61.544 -82.9137 -104.249 60.6226 -82.8738 -104.554 60.3323 
-82.8078 -103.784 60.9128 -82.6169 -103.124 61.0236 -83.5794 -104.281 60.1317 
-83.5348 -104.786 59.7543 -83.5197 -103.705 60.4767 -83.4265 -103.033 60.7762 
-83.2532 -102.352 60.8148 -84.0667 -104.347 59.2691 -84.0002 -104.873 58.7128 
-84.0132 -103.642 59.6588 -83.9427 -102.924 60.0596 -83.9406 -102.22 60.4043 
-83.7545 -101.603 60.4712 -84.249 -104.086 58.2438 -84.0579 -104.449 57.6944 
-84.3264 -103.515 58.6671 -84.2139 -102.879 58.9169 -84.1018 -102.22 59.2296 
-84.0721 -101.556 59.55 -83.8232 -101.013 59.6652 -84.1373 -103.565 57.3588 
-83.8245 -103.808 56.9798 -84.4883 -103.244 57.8391 -84.6025 -102.808 58.1122 
-84.3311 -102.227 58.1912 -84.0656 -101.585 58.346 -83.9237 -100.996 58.5934 
-83.6396 -100.551 58.7459 -83.9972 -103.183 56.4608 -83.6773 -103.42 56.2962 
-84.4454 -102.967 56.8704 -84.8622 -102.671 57.3246 -84.8193 -102.106 57.5412 
-84.4034 -101.423 57.5612 -84.0901 -100.893 57.6519 -83.8675 -100.462 57.8918 
-83.5191 -100.109 58.0948 -84.0964 -103.093 55.5613 -83.8011 -103.366 55.5497 
-84.4012 -102.81 55.7825 -84.776 -102.508 56.201 -84.9836 -101.961 56.6187 
-84.8053 -101.175 56.8493 -84.4934 -100.586 56.9232 -84.2522 -100.269 57.0791 
-83.9312 -99.9395 57.3939 -83.4651 -99.6387 57.6572 -83.1491 -99.1348 57.2777 
-83.728 -99.3499 56.9992 -83.2191 -98.9074 56.5415 -84.2438 -99.6824 56.571 
-83.7991 -99.1849 56.0798 -83.0916 -98.9149 55.6186 -84.5466 -99.9155 56.2592 
-84.2994 -99.4147 55.6414 -83.6159 -99.1224 55.1357 -82.899 -98.9301 54.6938 
-84.7131 -100.274 56.0757 -84.6005 -99.5976 55.3484 -84.1791 -99.1868 54.7658 
-83.4074 -99.0423 54.2647 -82.7324 -98.708 53.7805 -84.8247 -101.06 55.7701 
-84.7389 -100.159 54.944 -84.679 -99.4558 54.2962 -84.1103 -99.1194 53.8248 
-83.1717 -98.9355 53.3893 -82.4743 -98.3517 52.9415 -84.7598 -101.861 55.3767 
-84.6927 -100.993 54.5174 -84.8668 -100.135 53.7168 -84.7091 -99.5214 53.2096 
-83.7499 -99.2401 52.9835 -82.6844 -98.8249 52.7123 -82.0693 -98.0944 52.3246 
-84.6049 -102.388 55.0519 -84.5783 -101.672 54.3622 -84.6379 -100.838 53.5562 
-84.7161 -100.137 52.8432 -84.0972 -99.7134 52.6156 -82.9219 -99.3526 52.5625 
-82.0297 -98.7195 52.2782 -81.5385 -98.0397 51.8516 -84.5007 -102.85 54.8454 
-84.6246 -102.315 54.305 -84.4412 -101.533 53.7225 -84.2825 -100.796 52.9835 
-83.953 -100.271 52.5427 -83.0845 -99.8843 52.4535 -82.079 -99.3637 52.2448 
-81.3939 -98.6938 51.8459 -80.9155 -98.1366 51.4204 -84.2941 -103.264 54.7971 
-84.6311 -102.962 54.2106 -84.4732 -102.341 53.7366 -84.0299 -101.612 53.1454 
-83.6348 -100.981 52.6221 -83.0974 -100.471 52.3802 -82.2747 -99.9663 52.1392 
-81.4538 -99.3526 51.7685 -80.8226 -98.7413 51.4171 -80.3251 -98.2471 51.0747 
-82.6813 -98.8186 56.9826 -82.656 -98.6488 56.2023 -82.2589 -98.4649 56.6229 
-82.5579 -98.622 55.2889 -82.2386 -98.2802 55.8013 -81.8725 -97.9723 56.2813 
-82.488 -98.3488 54.32 -82.2743 -97.9319 54.9307 -81.8704 -97.6887 55.4349 
-81.3398 -97.5664 55.9746 -82.3295 -97.8408 53.3287 -82.2408 -97.3371 53.9643 
-81.9519 -97.1046 54.6231 -81.3299 -97.2055 55.1733 -80.6882 -97.3507 55.7121 
-81.9988 -97.5169 52.4794 -81.8981 -97.0431 52.9481 -81.7376 -96.7658 53.6514 
-81.3024 -96.7565 54.3603 -80.6572 -96.9107 54.9691 -80.111 -97.0076 55.5437 
-81.5152 -97.4865 51.83 -81.3327 -97.1185 52.0522 -81.1045 -96.9459 52.5622 
-80.8407 -96.834 53.245 -80.4017 -96.7184 53.9698 -79.9266 -96.661 54.6651 
-79.5277 -96.654 55.3645 -80.8705 -97.5805 51.2864 -80.6745 -97.0927 51.3064 
-80.3804 -96.818 51.5915 -80.14 -96.7876 52.0653 -79.8413 -96.7926 52.6709 
-79.4488 -96.7171 53.3974 -79.121 -96.6663 54.1893 -78.8148 -96.6525 55.0303 
-80.2095 -97.6702 50.8466 -80.0408 -96.9181 50.6914 -79.8047 -96.164 50.8187 
-79.6161 -95.8781 51.1695 -79.3992 -96.1842 51.5874 -79.0088 -96.6048 52.1353 
-78.6188 -96.8189 52.8576 -78.3627 -96.8854 53.696 -78.0996 -96.8409 54.621 
-79.7467 -97.9402 50.609 -79.6143 -97.0903 50.2601 -79.3663 -97.4749 49.9762 
-79.352 -96.2705 49.6593 -79.1814 -97.0777 49.3062 -79.4824 -95.8488 50.1534 
-79.2147 -95.8512 49.2282 -78.8019 -96.9821 48.8974 -79.3345 -94.8326 49.7888 
-79.3761 -94.8339 50.4562 -78.5641 -96.079 48.9165 -77.9782 -96.9832 48.7228 
-79.0899 -94.925 49.5442 -79.2527 -94.2598 50.2717 -79.2504 -94.9231 50.8803 
-77.4233 -96.3558 48.6253 -77.0369 -96.9745 48.6798 -78.1594 -95.7166 49.189 
-78.7654 -95.0682 50.047 -78.9218 -95.0048 50.7352 -78.8635 -95.8313 51.3008 
-76.5339 -96.5504 48.7666 -76.3819 -97.2246 49.0257 -77.0243 -96.1163 49.0683 
-77.7172 -95.917 49.847 -78.174 -95.7392 50.6724 -78.2632 -95.9689 51.2781 
-78.3038 -96.5671 51.9011 -76.1028 -96.9616 49.5371 -75.9514 -97.6553 49.7568 
-76.3599 -96.3533 49.64 -76.7734 -96.143 50.1361 -77.1896 -96.0647 50.8465 
-77.4761 -96.0435 51.4928 -77.6633 -96.4413 51.9947 -77.9228 -96.8876 52.6739 
-75.6754 -97.3992 50.4064 -75.4341 -97.9494 50.4426 -75.9195 -96.8094 50.4958 
-76.1694 -96.4339 50.7868 -76.3941 -96.2507 51.2684 -76.6465 -96.0777 51.8277 
-76.9863 -96.2076 52.2965 -77.333 -96.6926 52.7833 -77.6831 -96.9679 53.5818 
-75.005 -97.6425 50.9529 -74.7376 -98.0913 50.8488 -75.2736 -97.2193 51.0835 
-75.5231 -96.883 51.2875 -75.7135 -96.6277 51.6398 -75.8827 -96.378 52.1266 
-76.2091 -96.2788 52.6146 -76.6661 -96.5148 53.0738 -77.0519 -96.8204 53.7062 
-77.3751 -96.8608 54.5981 -80.1385 -98.6172 50.999 -79.5883 -98.3317 50.5329 
-80.053 -99.0446 50.8569 -79.483 -98.8555 50.2616 -79.9388 -99.6042 50.706 
-79.1965 -98.0689 49.7679 -79.3643 -99.5759 49.9324 -79.7281 -100.171 50.7368 
-78.9881 -98.8235 49.3359 -78.864 -97.9655 49.0331 -79.2068 -100.175 50.0139 
-79.4929 -100.605 50.9413 -78.8219 -99.6267 49.0781 -78.5555 -98.8368 48.7783 
-78.379 -97.8853 48.8323 -78.9197 -100.524 50.4972 -79.179 -101.089 51.0869 
-78.6088 -100.099 49.5087 -78.3341 -99.5223 48.8995 -78.1215 -98.6216 48.9778 
-77.6724 -97.6684 48.969 -78.4396 -101 50.8571 -78.7067 -101.715 51.1729 
-78.1592 -100.396 50.2422 -77.8852 -99.9687 49.4605 -77.7034 -99.3068 49.2087 
-77.4099 -98.3632 49.3174 -76.868 -97.6397 49.1646 -77.9347 -101.684 50.997 
-78.2351 -102.272 51.3636 -77.641 -100.925 50.6892 -77.2651 -100.41 50.0882 
-76.9182 -100.031 49.4801 -76.7201 -99.2685 49.4121 -76.4986 -98.4189 49.568 
-76.192 -97.9506 49.597 -77.5571 -102.308 51.1796 -77.9148 -102.666 51.6572 
-77.2639 -101.613 50.9545 -76.8876 -100.912 50.6742 -76.3631 -100.562 50.0732 
-75.9896 -100.136 49.6382 -75.8964 -99.325 49.7418 -75.8175 -98.6399 50.0015 
-75.6347 -98.2737 50.1871 -77.27 -102.762 51.4916 -77.6922 -102.956 51.9984 
-76.9482 -102.261 51.2493 -76.6764 -101.489 51.2011 -76.2511 -100.878 50.949 
[...]
CELL_DATA 2000
SCALARS Distance double
LOOKUP_TABLE default
140.149 140.344 140.066 139.681 140.491 140.232 139.828 139.554 139.104 
140.575 140.329 139.894 139.652 139.202 138.928 138.436 140.616 140.379 
139.913 139.673 139.214 138.985 138.533 138.257 137.789 140.615 140.398 
139.945 139.698 139.239 138.996 138.558 138.324 137.898 137.638 137.219 
140.608 140.393 139.975 139.745 139.327 139.069 138.634 138.367 137.93 
137.696 137.286 137.07 136.674 140.642 140.418 140.017 139.789 139.396 
139.164 138.749 138.476 138.018 137.739 137.301 137.083 136.697 136.504 
136.12 140.677 140.473 140.081 139.85 139.439 139.214 138.793 138.56 
138.116 137.847 137.4 137.134 136.741 136.522 136.172 135.963 135.617 
140.676 140.497 140.118 139.906 139.489 139.253 138.815 138.581 138.153 
137.921 137.51 137.258 136.865 136.613 136.258 136.035 135.715 135.505 
135.212 140.487 141.138 140.766 140.705 141.898 141.469 141.378 140.985 
140.883 142.651 142.234 142.111 141.684 141.551 141.143 140.997 143.359 
142.962 142.85 142.416 142.257 141.82 141.651 141.237 141.051 144.131 
143.712 143.638 143.174 143.011 142.527 142.318 141.879 141.676 141.262 
141.045 144.817 144.495 144.407 143.969 143.754 143.26 142.979 142.521 
142.277 141.871 141.657 141.244 141.029 145.138 145.018 144.886 144.597 
144.281 143.875 143.499 143.097 142.807 142.445 142.235 141.853 141.648 
141.237 141.041 145.248 145.193 145.072 144.886 144.551 144.235 143.844 
143.514 143.246 142.942 142.772 142.427 142.24 141.843 141.628 141.237 
141.043 145.466 145.337 145.253 145.043 144.781 144.476 144.182 143.866 
143.703 143.415 143.335 142.997 142.847 142.435 142.206 141.797 141.575 
141.212 141.025 145.645 145.664 145.592 145.328 145.462 145.494 145.255 
145.162 144.825 145.38 145.35 145.253 145.126 144.863 144.656 144.319 
145.565 145.439 145.379 145.223 145.054 144.821 144.555 144.259 143.96 
145.626 145.597 145.404 145.313 145.051 144.949 144.67 144.509 144.194 
143.94 143.604 145.206 145.394 145.128 145.167 144.801 144.777 144.4 
144.396 144.03 143.99 143.583 143.45 143.031 144.428 144.742 144.558 
144.756 144.505 144.51 144.143 144.058 143.648 143.624 143.216 143.215 
142.786 142.734 142.322 143.691 143.953 143.859 144.149 144.074 144.231 
143.987 143.894 143.456 143.294 142.862 142.807 142.444 142.424 142.07 
142.02 141.682 143.276 143.389 143.317 143.525 143.483 143.741 143.575 
143.665 143.239 143.123 142.621 142.521 142.157 142.134 141.846 141.801 
141.498 141.43 141.135 140.847 141.215 140.858 140.489 141.561 141.232 
140.855 140.468 140.058 141.833 141.526 141.146 140.803 140.359 140.001 
139.581 142.216 141.792 141.376 141.036 140.598 140.263 139.82 139.497 
139.05 142.762 142.241 141.741 141.299 140.871 140.509 140.103 139.749 
139.313 138.937 138.421 143.11 142.722 142.166 141.705 141.233 140.841 
140.464 140.089 139.686 139.265 138.771 138.303 137.751 143.141 142.935 
142.462 142.081 141.584 141.197 140.789 140.449 140.058 139.671 139.194 
138.716 138.163 137.666 137.145 143.128 142.995 142.733 142.407 142.004 
141.562 141.122 140.737 140.34 140.001 139.568 139.148 138.619 138.112 
137.565 137.094 136.628 143.167 143.09 142.992 142.768 142.502 142.063 
141.634 141.134 140.707 140.298 139.911 139.52 139.066 138.585 138.052 
137.539 137.04 136.6 136.188 140.555 140.157 140.234 139.976 139.723 
139.802 139.521 139.617 139.342 139.275 139.36 139.068 139.15 138.849 
138.945 138.653 138.712 138.854 138.527 138.657 138.322 138.432 138.112 
138.237 137.971 137.988 138.167 137.771 137.99 137.632 137.834 137.51 
137.678 137.405 137.572 137.343 137.277 137.396 136.974 137.17 136.842 
137.085 136.815 137.038 136.784 136.983 136.748 136.94 136.714 136.695 
136.741 136.33 136.443 136.142 136.344 136.124 136.352 136.119 136.328 
136.077 136.298 136.07 136.295 136.09 136.19 136.206 135.742 135.82 
135.407 135.616 135.304 135.61 135.339 135.621 135.34 135.587 135.355 
135.616 135.448 135.697 135.545 135.741 135.715 135.161 135.173 134.567 
134.724 134.209 134.581 134.237 134.69 134.434 134.803 134.596 134.9 
134.769 135.055 134.957 135.198 135.074 135.363 134.526 134.846 134.67 
133.726 133.932 133.588 134.006 133.892 133.185 133.216 132.769 132.936 
132.698 133.236 133.397 132.744 132.776 132.42 132.383 132.142 132.291 
132.433 133.001 133.469 132.182 132.291 132.078 132.175 132.113 132.117 
132.252 132.419 132.845 133.327 133.839 131.861 131.802 131.639 131.805 
131.908 132.118 132.311 132.441 132.713 132.95 133.35 133.756 134.144 
132.064 131.784 131.644 131.558 131.676 131.859 132.101 132.343 132.535 
132.775 133.013 133.351 133.684 134.071 134.392 132.371 132.144 132.024 
131.805 131.846 131.803 131.991 132.106 132.281 132.469 132.651 132.955 
133.25 133.642 133.978 134.342 134.622 132.389 132.34 132.213 132.125 
132.083 132.024 132.087 132.098 132.202 132.272 132.418 132.61 132.881 
133.217 133.562 133.931 134.22 134.547 134.759 135.595 135.761 135.405 
134.853 135.995 135.599 135.063 134.673 134.141 136.301 135.877 135.336 
134.919 134.434 134.046 133.601 136.611 136.213 135.704 135.252 134.776 
134.375 133.969 133.582 133.134 136.861 136.512 136.045 135.635 135.174 
134.768 134.375 133.977 133.546 133.089 132.59 137.079 136.746 136.278 
135.926 135.466 135.123 134.72 134.378 133.968 133.534 133.076 132.589 
132.239 137.314 136.978 136.523 136.157 135.695 135.357 134.938 134.644 
134.245 133.91 133.507 133.107 132.808 132.428 132.33 137.563 137.244 
136.849 136.464 136.037 135.634 135.229 134.871 134.508 134.176 133.842 
133.507 133.255 132.956 132.834 132.588 132.55 137.806 137.52 137.189 
136.837 136.473 136.058 135.687 135.26 134.933 134.539 134.274 133.909 
133.703 133.384 133.237 132.987 132.864 132.674 132.544 143.136 142.942 
143.07 143.003 142.426 142.722 142.679 142.831 142.554 141.694 142.03 
141.949 142.302 142.081 142.18 141.698 140.995 141.259 141.129 141.482 
141.343 141.588 141.229 141.239 140.747 140.347 140.594 140.472 140.743 
140.628 140.875 140.632 140.741 140.332 140.327 139.901 139.685 139.946 
139.832 140.112 139.941 140.187 139.896 140.093 139.694 139.824 139.369 
139.451 139.007 139.081 139.288 139.121 139.404 139.165 139.423 139.037 
139.264 138.811 139.042 138.58 138.777 138.297 138.446 137.972 138.58 
138.709 138.467 138.671 138.397 138.608 138.228 138.4 137.966 138.15 
137.734 137.932 137.506 137.674 137.226 137.375 136.957 138.137 138.22 
137.933 138.051 137.751 137.892 137.556 137.681 137.319 137.432 137.073 
137.191 136.817 136.934 136.536 136.66 136.281 136.428 136.098 143.202 
143.327 143.164 142.969 143.572 143.319 143.034 142.847 142.524 143.789 
143.57 143.285 143.002 142.648 142.357 141.923 143.845 143.708 143.442 
143.238 142.878 142.571 142.106 141.75 141.257 143.81 143.674 143.338 
143.243 142.858 142.696 142.203 141.92 141.349 141.041 140.533 143.752 
143.587 143.165 143.052 142.642 142.543 142.08 141.903 141.354 141.083 
140.526 140.284 139.837 143.632 143.486 143.047 142.891 142.482 142.346 
141.932 141.766 141.301 141.066 140.575 140.305 139.862 139.636 139.277 
143.447 143.34 142.925 142.778 142.37 142.23 141.827 141.666 141.219 
141.021 140.563 140.351 139.936 139.716 139.351 139.138 138.813 143.248 
143.163 142.772 142.641 142.223 142.1 141.686 141.553 141.094 140.921 
140.441 140.28 139.859 139.726 139.362 139.207 138.865 138.685 138.369 
143.032 142.514 142.703 142.529 141.906 142.114 141.906 142.132 141.958 
141.271 141.467 141.239 141.47 141.29 141.552 141.403 140.656 140.836 
140.6 140.807 140.619 140.871 140.701 140.972 140.796 140.032 140.226 
139.99 140.183 139.995 140.224 140.052 140.277 140.072 140.32 140.138 
139.412 139.611 139.393 139.578 139.391 139.614 139.466 139.674 139.479 
139.651 139.454 139.693 139.575 138.829 139.023 138.829 139 138.799 
139.004 138.842 139.079 138.902 139.092 138.879 139.069 138.923 139.19 
139.111 138.213 138.44 138.239 138.434 138.205 138.398 138.179 138.417 
138.221 138.468 138.262 138.483 138.304 138.554 138.448 138.738 138.647 
137.508 137.774 137.561 137.799 137.556 137.767 137.518 137.737 137.523 
137.769 137.595 137.84 137.689 137.932 137.819 138.085 138.001 138.274 
138.176 137.028 136.362 136.819 137.086 135.823 136.186 136.413 136.856 
137.089 135.351 135.667 135.817 136.199 136.399 136.845 137.063 134.734 
135.108 135.193 135.585 135.747 136.179 136.41 136.849 137.09 133.986 
134.392 134.477 134.904 135.081 135.532 135.803 136.249 136.538 136.94 
137.198 133.326 133.689 133.863 134.244 134.493 134.902 135.223 135.673 
136.022 136.442 136.74 137.095 137.34 132.852 133.162 133.437 133.775 
134.092 134.429 134.749 135.134 135.481 135.92 136.254 136.654 136.923 
137.254 137.491 132.58 132.814 133.107 133.42 133.729 134.063 134.331 
134.681 134.947 135.362 135.669 136.122 136.42 136.822 137.079 137.416 
137.661 132.494 132.641 132.881 133.113 133.347 133.651 133.86 134.207 
134.415 134.805 135.058 135.507 135.808 136.269 136.563 136.971 137.233 
137.585 137.827 136.821 136.279 136.4 136.15 135.824 135.872 135.628 
135.785 135.634 135.486 135.451 135.144 135.273 135.141 135.345 135.217 
135.118 135.074 134.658 134.763 134.582 134.831 134.739 134.921 134.681 
134.692 134.624 134.154 134.232 134.014 134.259 134.202 134.433 134.248 
134.314 133.961 134.465 134.266 133.842 133.797 133.62 133.76 133.744 
133.941 133.827 133.903 133.576 133.568 133.23 134.552 134.242 133.911 
133.71 133.587 133.542 133.508 133.571 133.453 133.512 133.216 133.205 
132.842 132.876 132.662 134.79 134.477 134.211 133.956 133.832 133.664 
133.54 133.43 133.198 133.159 132.846 132.844 132.506 132.516 132.281 
132.393 132.348 135.042 134.764 134.509 134.27 134.09 133.907 133.692 
133.492 133.141 132.957 132.573 132.501 132.199 132.207 132.015 132.079 
132.04 132.197 132.282 137.19 137.626 137.153 136.664 138.163 137.643 
137.164 136.658 136.225 138.839 138.268 137.811 137.228 136.797 136.301 
135.935 139.615 139.034 138.606 137.954 137.485 136.911 136.525 136.046 
135.641 140.379 139.838 139.461 138.81 138.307 137.633 137.164 136.629 
136.237 135.727 135.272 141.095 140.579 140.227 139.65 139.185 138.492 
137.966 137.312 136.903 136.363 136.005 135.423 135.042 141.746 141.255 
140.866 140.354 139.932 139.34 138.859 138.177 137.74 137.12 136.806 
136.232 135.927 135.319 135.053 142.213 141.807 141.364 140.912 140.477 
140.008 139.597 139.039 138.615 137.996 137.622 137.051 136.737 136.188 
135.899 135.372 135.184 142.468 142.147 141.686 141.308 140.855 140.474 
140.097 139.689 139.319 138.803 138.384 137.821 137.419 136.906 136.575 
136.117 135.882 135.477 135.36 142.439 142.178 142.077 141.644 142.023 
141.825 141.336 141.256 140.843 141.929 141.696 141.167 141.005 140.595 
140.513 140.147 141.773 141.601 141.097 140.897 140.469 140.33 139.952 
139.851 139.432 141.505 141.433 141.006 140.842 140.396 140.224 139.773 
139.641 139.151 139.042 138.51 141.142 141.155 140.795 140.718 140.275 
140.117 139.606 139.434 138.871 138.719 138.137 138.037 137.51 140.735 
140.777 140.442 140.447 140.032 139.937 139.43 139.257 138.694 138.48 
137.899 137.708 137.191 137.092 136.671 140.381 140.383 140.048 140.066 
139.693 139.654 139.206 139.078 138.57 138.361 137.829 137.582 137.097 
136.896 136.511 136.383 136.054 140.14 140.077 139.734 139.703 139.353 
139.325 138.941 138.861 138.413 138.251 137.76 137.547 137.092 136.888 
136.527 136.351 136.055 135.885 135.597 139.935 139.445 139.617 139.478 
138.84 139.054 138.882 139.134 139.039 138.136 138.364 138.154 138.457 
138.35 138.681 138.61 137.464 137.632 137.366 137.659 137.531 137.919 
137.844 138.205 138.088 136.913 137.007 136.698 136.888 136.718 137.067 
136.984 137.374 137.253 137.607 137.44 136.402 136.492 136.172 136.285 
136.07 136.313 136.215 136.537 136.438 136.764 136.643 136.965 136.829 
135.848 135.959 135.631 135.754 135.507 135.711 135.589 135.85 135.763 
136.029 135.948 136.235 136.175 136.446 136.348 135.338 135.412 135.083 
135.19 134.937 135.131 134.997 135.25 135.15 135.401 135.297 135.578 
135.518 135.827 135.768 136.017 135.901 134.959 134.974 134.671 134.705 
134.472 134.596 134.476 134.682 134.589 134.804 134.667 134.91 134.795 
135.123 135.06 135.396 135.306 135.562 135.427 135.091 134.943 134.862 
134.559 134.665 134.638 134.326 134.328 134.099 134.393 134.326 133.983 
134.011 133.755 133.842 133.618 134.297 134.137 133.766 133.679 133.354 
133.403 133.109 133.238 132.961 134.282 134.126 133.759 133.559 133.149 
133.031 132.648 132.677 132.361 132.515 132.312 134.216 134.115 133.802 
133.602 133.168 132.915 132.469 132.319 131.999 132.011 131.849 131.996 
131.955 134.215 134.08 133.827 133.65 133.28 132.998 132.579 132.303 
132.022 131.869 131.776 131.744 131.76 131.824 131.876 134.4 134.178 
133.941 133.725 133.405 133.137 132.775 132.499 132.261 132.06 132.004 
131.873 131.917 131.835 131.915 131.892 131.991 134.684 134.429 134.176 
133.91 133.584 133.295 132.937 132.685 132.438 132.289 132.2 132.115 
132.107 132.04 132.079 132.035 132.127 132.107 132.241 145.442 145.214 
145.28 145.279 145.142 145.163 145.193 145.243 145.408 144.852 145.058 
145.136 145.25 145.435 145.543 145.771 144.18 144.58 144.678 145.029 
145.168 145.46 145.609 145.814 145.853 143.432 143.834 143.927 144.371 
144.47 144.915 144.978 145.381 145.374 145.641 145.509 142.723 143.107 
143.165 143.583 143.651 144.093 144.145 144.585 144.596 144.983 144.904 
145.163 144.979 141.931 142.34 142.33 142.771 142.78 143.241 143.274 
143.736 143.772 144.192 144.152 144.477 144.304 144.548 144.305 141.137 
141.502 141.457 141.877 141.857 142.319 142.327 142.821 142.837 143.327 
143.275 143.679 143.486 143.786 143.51 143.786 143.543 140.479 140.758 
140.722 141.057 141.068 141.449 141.481 141.897 141.908 142.355 142.291 
142.722 142.532 142.892 142.617 142.935 142.694 143.027 142.874 145.646 
145.464 145.668 145.884 145.524 145.544 145.737 145.874 145.897 145.814 
145.701 145.764 145.781 145.812 145.793 145.591 145.871 145.874 145.779 
145.782 145.753 145.767 145.664 145.508 145.287 145.561 145.711 145.537 
145.603 145.471 145.618 145.622 145.653 145.553 145.343 145.178 145.1 
145.336 145.238 145.29 145.11 145.225 145.221 145.47 145.497 145.549 
145.355 145.195 144.951 144.494 144.858 144.906 145.051 144.951 144.957 
144.862 145.011 144.999 145.236 145.071 145.138 144.784 144.756 144.456 
143.783 144.215 144.348 144.676 144.681 144.81 144.677 144.722 144.559 
144.687 144.487 144.634 144.321 144.404 144.077 144.157 143.93 143.146 
143.539 143.687 144.065 144.101 144.39 144.269 144.427 144.192 144.279 
144.01 144.091 143.819 143.902 143.649 143.742 143.542 143.65 143.484 
145.795 145.998 145.931 145.852 145.888 145.978 145.842 145.783 145.562 
145.474 145.666 145.543 145.628 145.433 145.425 145.354 145.14 145.244 
145.252 145.358 145.334 145.324 145.342 145.381 145.533 145.057 145.075 
145.209 145.283 145.449 145.393 145.454 145.413 145.535 145.616 145.677 
144.902 145.025 145.176 145.342 145.54 145.572 145.544 145.48 145.391 
145.486 145.438 145.549 145.311 144.498 144.75 144.86 145.163 145.279 
145.489 145.354 145.375 145.076 145.155 144.951 145.14 144.898 144.958 
144.54 144.005 144.275 144.337 144.67 144.704 145.01 144.858 144.992 
144.668 144.73 144.466 144.607 144.4 144.503 144.18 144.157 143.782 
143.533 143.775 143.774 144.066 144.031 144.335 144.202 144.419 144.192 
144.307 144.096 144.192 144.023 144.089 143.858 143.847 143.57 143.529 
143.324 137.618 138.331 138.002 138.047 138.953 138.682 138.756 138.449 
138.549 139.569 139.305 139.411 139.134 139.274 138.995 139.181 140.24 
139.976 140.127 139.828 140.004 139.727 139.953 139.684 139.923 140.903 
140.681 140.886 140.596 140.8 140.507 140.755 140.477 140.734 140.449 
140.681 141.542 141.354 141.611 141.365 141.595 141.32 141.566 141.295 
141.555 141.273 141.52 141.214 141.427 142.167 141.999 142.274 142.074 
142.322 142.089 142.332 142.084 142.335 142.077 142.33 142.055 142.287 
141.966 142.123 142.727 142.587 142.822 142.677 142.901 142.746 142.987 
142.806 143.066 142.843 143.105 142.85 143.085 142.797 142.951 142.598 
142.627 143.191 143.076 143.26 143.146 143.336 143.237 143.467 143.373 
143.644 143.519 143.798 143.607 143.843 143.576 143.714 143.376 143.386 
142.989 142.898 
POINT_DATA 1002
SCALARS Distance double
LOOKUP_TABLE default
139.793 140.224 140.431 139.977 140.624 139.274 140.097 140.754 139.413 
138.626 140.139 140.833 139.448 138.747 137.937 140.167 140.851 139.435 
138.762 138.09 137.341 140.177 140.819 139.493 138.791 138.122 137.485 
136.833 140.185 140.821 139.566 138.923 138.188 137.482 136.893 136.297 
140.25 140.857 139.619 139.006 138.319 137.548 136.876 136.323 135.742 
140.312 140.862 139.683 139.018 138.358 137.674 136.98 136.368 135.826 
135.284 140.318 140.848 139.725 139.06 138.369 137.734 137.123 136.494 
135.913 135.409 134.945 140.809 141.061 141.544 141.804 142.347 141.271 
142.553 143.052 141.979 141.406 143.281 143.746 142.718 142.076 141.473 
144.11 144.538 143.526 142.79 142.09 141.466 144.838 145.077 144.274 
143.464 142.684 142.059 141.447 145.142 145.198 144.681 143.891 143.145 
142.592 142.054 141.444 145.241 145.305 144.837 144.137 143.508 143.088 
142.636 142.031 141.411 145.466 145.628 145.053 144.457 143.955 143.649 
143.268 142.638 141.95 141.364 145.843 145.468 145.683 145.335 145.37 
144.966 145.348 145.423 145.078 144.548 145.547 145.727 145.246 144.841 
144.278 145.521 145.634 145.148 144.764 144.409 143.896 145.028 144.959 
144.836 144.421 144.018 143.666 143.188 144.241 144.084 144.407 144.273 
143.736 143.191 142.794 142.378 143.534 143.454 143.802 144.014 143.676 
142.958 142.438 142.101 141.732 143.179 143.198 143.24 143.408 143.306 
142.737 142.168 141.866 141.572 141.193 140.501 140.88 140.086 141.247 
140.44 139.649 141.466 140.725 139.915 139.182 141.744 140.918 140.152 
139.396 138.573 142.244 141.238 140.458 139.701 138.844 137.846 142.62 
141.635 140.828 140.109 139.251 138.219 137.188 142.778 141.99 141.128 
140.411 139.655 138.679 137.592 136.656 142.968 142.454 141.568 140.672 
139.938 139.113 138.068 137.035 136.195 143.124 142.884 142.169 141.165 
140.285 139.512 138.575 137.513 136.572 135.797 139.885 139.437 139.243 
138.997 138.772 138.533 138.383 138.202 137.993 137.812 137.547 137.385 
137.309 137.231 137.173 136.796 136.581 136.562 136.576 136.547 136.526 
136.241 135.955 135.892 135.921 135.864 135.821 135.865 135.721 135.264 
135.002 135.019 135.08 135.08 135.166 135.315 135.23 134.534 133.904 
133.722 133.971 134.252 134.458 134.687 134.872 135.064 134.245 134.271 
133.28 133.63 133.239 132.739 133.188 132.291 132.567 132.404 132.643 
132.12 132.017 132.716 131.829 132.074 132.005 132.218 132.525 133.295 
131.506 132.006 131.586 132.135 132.585 133.033 133.724 131.843 132.346 
131.586 131.859 132.312 132.711 133.298 134.033 132.245 132.525 131.988 
131.969 132.149 132.386 132.857 133.596 134.309 132.252 132.391 132.144 
132.118 132.177 132.282 132.588 133.2 133.891 134.462 135.926 135.225 
136.131 135.442 136.414 134.524 135.776 136.714 134.792 133.986 136.151 
136.97 135.189 134.349 133.572 136.417 137.197 135.567 134.766 134.012 
133.053 136.624 137.418 135.794 135.038 134.357 133.536 132.64 136.892 
137.631 136.053 135.239 134.54 133.841 133.147 132.64 137.208 137.851 
136.446 135.612 134.836 134.151 133.537 133.084 132.78 137.5 138.068 
136.859 136.117 135.332 134.632 134.041 133.532 133.097 132.717 143.088 
143.001 142.739 142.428 142.113 142.61 141.55 141.42 141.869 141.763 
140.81 140.757 141.029 141.133 140.792 140.218 140.069 140.392 140.465 
140.298 139.907 139.553 139.434 139.728 139.704 139.518 139.266 138.935 
138.879 138.931 138.932 138.837 138.571 138.344 138.129 137.828 138.318 
138.493 138.205 138.054 137.792 137.535 137.323 137.065 136.786 143.323 
143.083 143.577 143.298 143.843 142.721 143.571 143.956 142.988 142.237 
143.598 143.982 143.158 142.488 141.594 143.443 144.006 142.976 142.443 
141.681 140.775 143.314 143.938 142.74 142.212 141.587 140.795 140.009 
143.206 143.751 142.622 142.087 141.5 140.817 140.112 139.466 143.064 
143.527 142.507 141.983 141.412 140.746 140.126 139.571 139.018 142.9 