# vtk DataFile Version 4.0
vtk output
ASCII
DATASET POLYDATA
POINTS 1002 float
-78.5827 -106.56 57.7033 -78.7307 -107.135 58.0008 -78.3227 -106.855 58.1566 
-77.9942 -106.414 57.6962 -77.7248 -106.673 58.2176 -78.3541 -106.108 57.0944 
-77.2936 -106.327 57.5778 -77.0778 -106.509 58.1963 -77.6441 -106.042 56.9777 
-77.9932 -105.856 56.1894 -76.6825 -106.178 57.4348 -76.5648 -106.201 58.2177 
-76.9397 -105.96 56.7545 -77.2222 -105.795 55.9739 -77.4663 -105.615 55.2457 
-76.0465 -105.947 57.2851 -76.0583 -105.852 58.1746 -76.2091 -105.855 56.4398 
-76.4474 -105.717 55.6562 -76.6472 -105.539 54.945 -76.9193 -105.143 54.4671 
-75.1842 -105.763 57.0067 -75.2888 -105.678 57.8746 -75.2138 -105.798 56.0402 
-75.491 -105.691 55.2717 -75.7983 -105.475 54.6709 -76.0885 -105.032 54.2195 
-76.4864 -104.471 53.9229 -74.2695 -105.645 56.6741 -74.3005 -105.655 57.4724 
-74.2114 -105.74 55.6941 -74.4201 -105.66 54.9451 -74.8613 -105.337 54.5204 
-75.29 -104.856 54.1352 -75.6694 -104.314 53.7696 -76.0687 -103.911 53.4511 
-73.4967 -105.497 56.4793 -73.4076 -105.601 57.2083 -73.5224 -105.552 55.5797 
-73.6468 -105.492 54.8267 -74.0036 -105.07 54.4485 -74.5045 -104.494 54.1722 
-74.9664 -104.021 53.7559 -75.318 -103.743 53.2697 -75.6291 -103.619 52.7975 
-72.8839 -105.263 56.3906 -72.8279 -105.392 57.0724 -72.9663 -105.218 55.616 
-73.1078 -105.124 54.9248 -73.3521 -104.732 54.4379 -73.7277 -104.161 54.086 
-74.2264 -103.7 53.7222 -74.6912 -103.457 53.2397 -75.0045 -103.396 52.6422 
-75.255 -103.378 52.0721 -72.4403 -104.939 56.3125 -72.5113 -105.02 56.9747 
-72.4377 -104.827 55.6163 -72.5526 -104.64 55.0512 -72.7795 -104.299 54.5546 
-73.042 -103.908 53.992 -73.397 -103.595 53.4929 -73.9039 -103.337 53.1174 
-74.3801 -103.149 52.6613 -74.692 -103.061 52.0812 -74.9315 -102.987 51.5663 
-78.6458 -107.392 58.4517 -78.2809 -107.007 58.8176 -78.5283 -107.36 59.3295 
-78.2105 -106.998 59.833 -78.3331 -107.314 60.3386 -77.7124 -106.771 59.0283 
-77.9552 -107.12 60.6801 -78.0428 -107.558 60.9797 -77.6485 -106.791 60.0635 
-77.0549 -106.496 59.1013 -77.4157 -107.48 61.0965 -77.6335 -107.906 61.6015 
-77.3025 -107.008 60.7635 -76.9518 -106.475 60.0857 -76.5613 -106.062 59.1386 
-76.7021 -107.856 61.7317 -77.1458 -108.102 62.5869 -76.6236 -107.419 61.1521 
-76.5703 -106.718 60.7437 -76.4225 -106.04 59.9959 -76.0567 -105.743 58.9642 
-76.1621 -108.059 62.6947 -76.7548 -108.08 63.3725 -75.9544 -107.729 61.7889 
-76.0007 -107.045 61.2049 -76.03 -106.229 60.6648 -75.7913 -105.794 59.6644 
-75.1336 -105.724 58.4968 -76.0151 -107.913 63.3736 -76.5623 -107.727 63.6914 
-75.7035 -107.701 62.5681 -75.6251 -107.104 61.7397 -75.6123 -106.34 61.1945 
-75.3575 -105.86 60.3572 -74.7234 -105.82 59.1134 -73.9751 -105.808 58.0283 
-76.0547 -107.377 63.7307 -76.4779 -107.102 63.9433 -75.733 -107.284 63.1822 
-75.4955 -106.831 62.3782 -75.341 -106.261 61.6879 -75.0461 -105.845 60.9429 
-74.3993 -105.771 59.7897 -73.6503 -105.845 58.6021 -73.1327 -105.713 57.7542 
-76.0087 -106.695 64.0214 -76.3961 -106.462 64.2596 -75.6308 -106.669 63.655 
-75.2413 -106.378 63.0885 -74.9685 -106.067 62.3674 -74.7406 -105.853 61.5044 
-74.2565 -105.714 60.395 -73.579 -105.668 59.1991 -73.0557 -105.588 58.2663 
-72.7529 -105.343 57.6002 -76.008 -106.007 64.3052 -75.4767 -106.067 64.0373 
-75.4689 -105.461 64.0866 -74.6448 -105.482 63.9049 -74.9219 -104.991 63.6093 
-74.8422 -105.929 63.7505 -74.1048 -105.158 63.4229 -74.7059 -104.734 62.9127 
-73.8914 -105.473 63.712 -74.3582 -105.792 63.2486 -74.2255 -104.888 62.5197 
-74.6463 -104.372 62.1876 -73.6521 -105.261 63.0146 -73.6082 -105.588 63.0093 
-74.1817 -105.811 62.2881 -74.2144 -104.194 61.6757 -74.2889 -103.613 61.6251 
-73.8957 -104.758 61.8492 -73.4783 -105.28 62.0135 -73.5301 -105.648 61.6684 
-73.9551 -105.737 60.9733 -73.6008 -103.23 61.1701 -73.7787 -102.807 61.0817 
-73.535 -103.834 61.078 -73.3142 -104.517 61.0064 -73.1185 -105.047 60.7983 
-73.2656 -105.317 60.2504 -73.4896 -105.471 59.6571 -73.0308 -102.514 60.6423 
-73.4216 -102.241 60.4496 -72.7935 -102.978 60.6562 -72.7115 -103.645 60.5025 
-72.695 -104.206 60.2235 -72.819 -104.513 59.6983 -73.0169 -104.79 59.0775 
-73.0667 -105.2 58.6133 -72.8378 -102.019 59.9701 -73.1606 -101.732 59.8937 
-72.4624 -102.381 60.0386 -72.2311 -102.93 59.9791 -72.2872 -103.47 59.7111 
-72.5186 -103.765 59.1864 -72.7389 -103.98 58.5811 -72.8228 -104.399 58.1553 
-72.7724 -104.946 57.8771 -72.7533 -101.489 59.3897 -72.9127 -101.158 59.4945 
-72.4514 -101.835 59.319 -72.0841 -102.276 59.2385 -71.967 -102.761 59.0201 
-72.1539 -103.13 58.5527 -72.3506 -103.367 58.0079 -72.434 -103.678 57.6703 
-72.4607 -104.172 57.4939 -72.465 -104.682 57.2723 -72.14 -104.534 56.4927 
-71.9893 -104.133 56.8595 -71.635 -104.025 56.03 -71.8193 -103.646 57.1007 
-71.2987 -103.649 56.5099 -71.0823 -103.486 55.6121 -71.7371 -103.213 57.2194 
-70.9942 -103.239 56.8201 -70.6469 -103.166 56.1129 -70.5397 -102.897 55.083 
-71.7231 -102.826 57.5157 -70.9599 -102.761 56.9865 -70.4204 -102.757 56.4268 
-70.2002 -102.542 55.437 -70.1102 -102.256 54.5189 -71.6201 -102.399 58.0177 
-71.0335 -102.146 57.3317 -70.5078 -102.099 56.7164 -70.1519 -101.999 55.6862 
-69.915 -101.759 54.7583 -70.0029 -101.548 54.2098 -71.6641 -101.952 58.3886 
-71.0729 -101.579 57.726 -70.604 -101.333 57.149 -70.2665 -101.189 56.1354 
-69.8794 -101.064 55.0108 -69.7887 -100.932 54.4373 -70.1496 -100.783 53.9541 
-72.0513 -101.517 58.5916 -71.3846 -101.156 57.9412 -70.7612 -100.825 57.4072 
-70.4059 -100.517 56.6504 -70.0237 -100.298 55.5657 -69.7232 -100.222 54.7081 
-69.9067 -100.167 54.1717 -70.3235 -100.081 53.4208 -72.4449 -101.117 58.7993 
-71.8973 -100.747 58.1645 -71.2048 -100.458 57.5334 -70.7372 -100.192 56.8701 
-70.4309 -99.8878 56.0779 -70.0869 -99.6698 55.2113 -70.0012 -99.5824 54.4458 
-70.2769 -99.5506 53.6966 -70.5535 -99.5758 52.8253 -72.6297 -100.775 59.0174 
-72.2645 -100.382 58.4497 -71.7219 -100.067 57.7885 -71.2484 -99.8822 57.0403 
-71.0104 -99.7186 56.3109 -70.775 -99.4766 55.6209 -70.5355 -99.2385 54.8609 
-70.5582 -99.1145 54.0359 -70.7748 -99.1361 53.2251 -70.936 -99.272 52.4973 
-72.0085 -104.454 55.7464 -71.5516 -103.859 55.251 -71.9974 -104.221 55.1359 
-71.0685 -103.23 54.7572 -71.6059 -103.502 54.6891 -72.1761 -103.848 54.7055 
-70.5231 -102.676 54.1672 -71.1484 -102.961 54.0447 -71.8244 -103.188 54.1476 
-72.4403 -103.555 54.0835 -70.2459 -102.088 53.725 -70.6782 -102.555 53.2956 
-71.3569 -102.832 53.2753 -72.0338 -103.148 53.3087 -72.6653 -103.472 53.2942 
-70.4111 -101.311 53.4278 -70.619 -101.868 52.7878 -71.0073 -102.289 52.5302 
-71.5853 -102.687 52.5347 -72.2245 -103.146 52.539 -73.0304 -103.343 52.7646 
-70.5602 -100.5 52.8779 -70.7665 -100.955 52.3148 -71.0372 -101.379 52.1218 
-71.4583 -101.84 52.1273 -71.9543 -102.464 51.988 -72.6584 -102.934 52.0541 
-73.5826 -103.055 52.4086 -70.5596 -99.921 52.2134 -70.6856 -100.264 51.7027 
-71.0564 -100.606 51.6827 -71.6281 -101.063 51.8718 -72.0999 -101.753 51.6314 
-72.5209 -102.388 51.3709 -73.2252 -102.651 51.6231 -74.0606 -102.785 51.9604 
-70.7557 -99.5952 51.8934 -70.6913 -99.9013 51.3465 -71.0005 -100.191 51.231 
-71.7096 -100.62 51.4391 -72.3657 -101.337 51.2462 -72.6649 -102.059 50.7524 
-73.0004 -102.348 50.8043 -73.6644 -102.375 51.2671 -74.3825 -102.587 51.5069 
-71.3352 -99.248 52.1203 -71.1661 -99.5664 51.567 -71.9043 -99.1118 51.9413 
-71.9615 -99.3646 51.4593 -72.5111 -98.7069 51.6172 -71.2457 -99.8414 51.1403 
-72.7553 -98.9156 51.0598 -72.9047 -98.1976 50.9947 -72.2347 -99.6165 50.9466 
-71.7752 -100.194 51.0069 -73.1175 -98.4479 50.3302 -73.2356 -97.8319 50.4143 
-72.9338 -99.2257 50.3352 -72.6194 -100.106 50.396 -72.4723 -100.879 50.753 
-73.4809 -98.0605 49.7366 -73.8972 -97.5885 50.1009 -73.1966 -98.8514 49.6944 
-72.9651 -99.8297 49.6824 -72.8567 -100.92 49.7817 -72.8217 -101.728 50.1823 
-74.3675 -97.7254 49.4516 -74.8572 -97.4699 49.9443 -73.8512 -98.5149 49.412 
-73.4101 -99.5484 49.4872 -73.1113 -100.561 49.4403 -72.9968 -101.523 49.6001 
-72.9811 -102.111 50.1082 -75.4377 -97.6449 49.4449 -75.7549 -97.5646 49.9602 
-75 -98.2787 49.3474 -74.5057 -99.3961 49.5335 -74.0162 -100.287 49.6109 
-73.6083 -100.917 49.7633 -73.4178 -101.533 50.179 -73.4737 -102.014 50.7015 
-76.2111 -97.8908 49.7177 -76.3978 -97.7731 50.2051 -75.9886 -98.3253 49.4293 
-75.6626 -99.3334 49.4732 -75.2269 -100.259 49.6185 -74.7187 -100.636 49.8814 
-74.2979 -100.941 50.3749 -74.1408 -101.487 50.8213 -74.2204 -102.089 51.1283 
-76.6973 -98.2293 50.1115 -76.8529 -97.9419 50.5315 -76.6281 -98.5935 49.648 
-76.4762 -99.323 49.425 -76.1271 -100.144 49.5217 -75.6429 -100.555 49.8524 
-75.1978 -100.742 50.3606 -74.9374 -101.184 50.8047 -74.8637 -101.872 51.0056 
-74.8848 -102.527 51.184 -71.3508 -98.9218 52.7552 -71.8286 -98.8396 52.4467 
-71.6873 -98.526 53.0561 -72.1533 -98.2964 52.7275 -71.908 -98.0164 53.4449 
-72.3 -98.5401 52.1353 -72.3794 -97.5948 53.1057 -72.2001 -97.3909 53.8391 
-72.5051 -97.793 52.2799 -72.6407 -97.9923 51.5895 -72.6197 -96.8732 53.4727 
-72.5929 -96.8228 54.102 -72.6897 -96.9649 52.6215 -72.7837 -97.1849 51.7056 
-72.9828 -97.5391 51.0332 -72.9023 -96.3695 53.7339 -72.9957 -96.4568 54.4609 
-72.8909 -96.3198 52.9685 -73.0779 -96.4438 52.0685 -73.3607 -96.8929 51.3556 
-73.6179 -97.3699 50.8139 -73.4177 -96.1106 54.2328 -73.4975 -96.296 55.0657 
-73.3186 -96.0202 53.3458 -73.4769 -96.0177 52.4197 -73.8804 -96.3232 51.6888 
-74.2121 -96.902 51.2978 -74.49 -97.3369 50.7429 -74.174 -96.0229 54.9159 
-74.1411 -96.337 55.5684 -74.1456 -95.909 54.0453 -74.1849 -95.9303 52.9809 
-74.4503 -96.028 51.9904 -74.7537 -96.353 51.4707 -75.0211 -96.9066 51.1726 
-75.3792 -97.3595 50.5902 -74.9132 -96.1293 55.3392 -74.8229 -96.5051 55.8203 
-75.0086 -95.8959 54.7275 -75.075 -95.9275 53.8152 -75.1986 -96.0217 52.6701 
-75.3551 -96.0294 51.7271 -75.5394 -96.2435 51.2562 -75.8485 -96.8233 50.9297 
-76.1823 -97.4071 50.5264 -75.5498 -96.3751 55.5357 -75.4662 -96.6473 56.0735 
-75.6556 -96.066 55.0565 -75.778 -95.9502 54.4471 -75.9466 -96.0386 53.5376 
[...]
CELL_DATA 2000
SCALARS Distance double
LOOKUP_TABLE default
143.724 143.315 143.373 143.053 142.848 142.922 142.586 142.659 142.322 
142.358 142.433 142.08 142.158 141.801 141.892 141.527 141.82 141.912 
141.525 141.617 141.225 141.331 140.937 141.042 140.63 141.182 141.303 
140.854 140.983 140.554 140.704 140.304 140.431 140.01 140.104 139.678 
140.492 140.612 140.145 140.265 139.832 139.991 139.615 139.778 139.386 
139.492 139.063 139.156 138.775 139.855 139.944 139.529 139.61 139.219 
139.32 138.952 139.088 138.711 138.846 138.437 138.549 138.165 138.298 
137.994 139.302 139.364 138.978 139.053 138.685 138.769 138.383 138.465 
138.049 138.159 137.761 137.904 137.559 137.707 137.416 137.57 137.315 
138.801 138.847 138.442 138.51 138.117 138.217 137.813 137.896 137.457 
137.528 137.128 137.251 136.951 137.115 136.869 137.021 136.775 136.915 
136.665 144.04 144.357 144.037 143.663 144.661 144.369 144.036 143.65 
143.228 144.951 144.685 144.397 144.04 143.61 143.184 142.728 145.198 
144.934 144.637 144.366 143.947 143.547 143.047 142.655 142.192 145.455 
145.14 144.779 144.541 144.155 143.832 143.332 142.946 142.452 142.091 
141.597 145.688 145.39 144.977 144.682 144.285 143.997 143.531 143.189 
142.674 142.322 141.809 141.446 140.911 145.689 145.557 145.166 144.884 
144.419 144.116 143.63 143.334 142.81 142.492 141.945 141.614 141.073 
140.734 140.226 145.411 145.447 145.121 144.972 144.472 144.203 143.66 
143.391 142.867 142.582 142.032 141.713 141.167 140.859 140.369 140.075 
139.642 145.024 145.111 144.816 144.79 144.311 144.142 143.594 143.381 
142.884 142.639 142.132 141.81 141.266 140.942 140.453 140.188 139.769 
139.518 139.131 144.729 144.055 144.44 144.44 143.21 143.632 143.588 
144.011 143.908 142.484 142.802 142.757 143.121 143.051 143.414 143.268 
141.9 142.179 142.14 142.401 142.361 142.646 142.571 142.829 142.658 
141.073 141.503 141.418 141.776 141.67 141.993 141.872 142.163 141.965 
142.201 141.92 139.963 140.464 140.307 140.831 140.657 141.138 140.923 
141.335 141.054 141.394 141.057 141.347 141.015 138.955 139.333 139.141 
139.615 139.466 139.985 139.808 140.267 139.994 140.37 140.045 140.393 
140.1 140.432 140.193 138.162 138.438 138.245 138.572 138.439 138.86 
138.758 139.187 138.996 139.344 139.063 139.388 139.144 139.509 139.339 
139.691 139.532 137.443 137.708 137.527 137.788 137.614 137.94 137.802 
138.199 138.032 138.399 138.145 138.461 138.213 138.571 138.42 138.823 
138.71 139.068 138.918 138.458 138.232 138.13 137.653 137.913 137.838 
137.372 137.288 136.8 137.659 137.511 137.035 136.971 136.513 136.425 
135.912 137.54 137.303 136.769 136.65 136.2 136.127 135.627 135.5 
134.963 137.412 137.175 136.566 136.398 135.896 135.817 135.308 135.191 
134.626 134.525 134.076 137.236 137.013 136.383 136.173 135.611 135.502 
134.964 134.85 134.248 134.142 133.642 133.677 133.364 137.124 136.883 
136.301 136.024 135.45 135.247 134.718 134.544 133.966 133.785 133.254 
133.217 132.884 132.996 132.74 137.069 136.839 136.311 136.014 135.455 
135.169 134.668 134.419 133.944 133.664 133.199 132.97 132.634 132.585 
132.377 132.42 132.205 136.99 136.798 136.307 136.05 135.522 135.225 
134.74 134.468 134.081 133.804 133.46 133.134 132.823 132.553 132.337 
132.211 132.072 132.023 131.911 138.388 137.586 137.993 138 136.726 
137.148 137.14 137.586 137.634 135.818 136.257 136.229 136.69 136.723 
137.222 137.301 134.881 135.324 135.307 135.772 135.812 136.302 136.381 
136.881 136.954 134.077 134.445 134.457 134.876 134.943 135.414 135.519 
135.997 136.104 136.562 136.664 133.432 133.746 133.745 134.088 134.115 
134.55 134.643 135.141 135.277 135.763 135.918 136.361 136.525 132.765 
133.089 133.024 133.366 133.322 133.728 133.783 134.262 134.403 134.921 
135.111 135.622 135.824 136.283 136.463 132.151 132.39 132.274 132.583 
132.542 132.938 133.061 133.499 133.718 134.143 134.373 134.824 135.051 
135.539 135.741 136.205 136.365 131.846 131.904 131.817 131.948 131.966 
132.251 132.489 132.902 133.262 133.641 133.934 134.241 134.448 134.807 
134.995 135.441 135.619 136.079 136.238 131.811 131.895 131.804 131.752 
131.986 131.951 131.911 131.804 131.888 131.801 131.978 132.067 132.036 
132.152 132.111 132.427 131.42 131.683 131.859 132.066 132.253 132.37 
132.704 132.802 133.225 131.236 131.333 131.488 131.751 131.985 132.28 
132.62 132.927 133.344 133.543 133.874 131.437 131.299 131.433 131.525 
131.85 132.047 132.426 132.705 133.125 133.457 133.82 134.037 134.303 
131.944 131.658 131.81 131.722 132.17 132.207 132.702 132.724 133.136 
133.258 133.649 133.878 134.224 134.431 134.765 132.583 132.275 132.44 
132.26 132.72 132.718 133.283 133.23 133.621 133.504 133.813 133.836 
134.207 134.366 134.769 134.96 135.369 133.18 132.944 133.118 132.923 
133.288 133.265 133.75 133.77 134.115 134.018 134.224 134.136 134.427 
134.475 134.889 135.024 135.465 135.618 136.027 131.863 131.916 131.908 
131.948 131.846 131.902 131.895 131.948 131.931 131.683 131.748 131.647 
131.737 131.602 131.742 131.62 131.521 131.536 131.358 131.404 131.192 
131.3 131.163 131.342 131.261 131.488 131.386 131.165 131.122 130.914 
130.939 130.879 130.995 131.079 131.166 131.228 131.758 131.485 131.287 
131.069 130.914 130.802 130.817 130.869 131.092 131.185 131.425 131.382 
131.528 132.306 131.934 131.821 131.448 131.377 131.061 131.094 130.962 
131.158 131.235 131.524 131.621 131.861 131.812 132.007 132.927 132.566 
132.506 132.132 132.128 131.746 131.786 131.45 131.53 131.369 131.531 
131.609 131.861 132.016 132.275 132.316 132.561 133.522 133.194 133.139 
132.812 132.809 132.498 132.548 132.218 132.255 131.902 131.927 131.716 
131.862 131.928 132.22 132.411 132.713 132.823 133.082 136.774 136.263 
136.385 136.11 135.826 135.905 135.607 135.689 135.359 135.343 135.466 
135.152 135.213 134.862 134.926 134.604 134.697 134.882 134.581 134.728 
134.402 134.476 134.185 134.249 133.998 134.152 134.215 133.914 134.095 
133.848 134.009 133.785 133.887 133.68 133.725 133.464 133.941 133.811 
133.454 133.495 133.258 133.43 133.238 133.431 133.232 133.378 133.127 
133.167 132.852 133.868 133.691 133.269 133.162 132.836 132.891 132.648 
132.822 132.597 132.813 132.58 132.747 132.483 132.547 132.303 133.756 
133.602 133.166 133.01 132.604 132.537 132.226 132.282 132.056 132.197 
132.03 132.197 132.061 132.18 132.044 132.103 131.998 133.667 133.5 
133.089 132.908 132.486 132.338 131.982 131.937 131.717 131.78 131.686 
131.796 131.778 131.876 131.879 131.928 131.909 131.92 131.881 137.096 
137.442 137.015 136.571 137.877 137.384 136.887 136.501 136.113 138.388 
137.855 137.313 136.838 136.381 136.042 135.631 138.909 138.39 137.852 
137.307 136.783 136.332 135.867 135.506 135.032 139.352 138.891 138.389 
137.868 137.346 136.806 136.318 135.831 135.393 134.956 134.558 139.721 
139.295 138.826 138.381 137.927 137.413 136.948 136.394 135.972 135.459 
135.12 134.656 134.38 140.139 139.692 139.267 138.827 138.452 137.996 
137.594 137.06 136.611 136.078 135.691 135.246 134.948 134.546 134.284 
140.643 140.192 139.823 139.346 139.007 138.552 138.209 137.706 137.262 
136.702 136.23 135.753 135.387 135.027 134.744 134.403 134.141 141.11 
140.724 140.391 139.941 139.591 139.135 138.789 138.318 137.91 137.357 
136.872 136.307 135.89 135.448 135.17 134.825 134.604 134.261 134.043 
141.215 141.079 140.959 140.521 140.874 140.773 140.343 140.21 139.731 
140.697 140.562 140.101 139.983 139.503 139.385 138.899 140.497 140.372 
139.86 139.723 139.205 139.103 138.602 138.517 137.999 140.178 140.103 
139.576 139.457 138.907 138.791 138.266 138.179 137.646 137.55 136.977 
139.821 139.746 139.238 139.143 138.609 138.492 137.955 137.845 137.319 
137.207 136.661 136.527 136.006 139.516 139.411 138.914 138.817 138.318 
138.206 137.679 137.545 137.024 136.907 136.424 136.29 135.829 135.679 
135.285 139.225 139.115 138.607 138.511 138.033 137.937 137.446 137.3 
136.786 136.643 136.193 136.091 135.701 135.573 135.193 135.055 134.719 
138.926 138.822 138.321 138.216 137.753 137.667 137.222 137.097 136.619 
136.453 135.999 135.882 135.505 135.426 135.06 134.956 134.582 134.483 
134.151 138.598 137.945 138.182 138.009 137.304 137.548 137.376 137.6 
137.449 136.56 136.873 136.694 136.952 136.771 137.044 136.903 135.714 
136.056 135.857 136.181 135.965 136.296 136.125 136.46 136.301 134.938 
135.21 134.998 135.302 135.085 135.423 135.253 135.624 135.488 135.83 
135.695 134.286 134.473 134.238 134.49 134.292 134.582 134.431 134.763 
134.647 135 134.9 135.252 135.18 133.779 133.858 133.551 133.743 
133.515 133.812 133.674 134.003 133.887 134.199 134.084 134.432 134.362 
134.758 134.718 133.492 133.444 133.077 133.105 132.783 133 132.833 
133.21 133.133 133.483 133.375 133.665 133.568 133.918 133.883 134.287 
134.255 133.319 133.246 132.899 132.778 132.401 132.378 132.131 132.368 
132.31 132.699 132.668 132.996 132.913 133.196 133.142 133.479 133.474 
133.846 133.84 138.839 138.933 138.64 138.163 139.007 138.702 138.188 
137.941 137.479 139.168 138.798 138.243 137.938 137.419 137.207 136.719 
139.448 139.032 138.485 138.067 137.505 137.163 136.634 136.402 135.901 
139.709 139.333 138.83 138.398 137.856 137.38 136.825 136.421 135.917 
135.629 135.17 139.886 139.558 139.091 138.739 138.247 137.796 137.246 
136.751 136.218 135.789 135.318 134.987 134.568 140.077 139.738 139.314 
138.995 138.564 138.168 137.637 137.166 136.608 136.155 135.654 135.246 
134.813 134.465 134.104 140.34 139.974 139.583 139.263 138.898 138.519 
138.022 137.536 136.95 136.493 135.978 135.592 135.162 134.79 134.43 
134.092 133.814 140.629 140.26 139.852 139.541 139.196 138.874 138.429 
137.957 137.351 136.831 136.27 135.874 135.458 135.132 134.78 134.45 
134.142 133.844 133.595 139.324 140.137 139.641 139.449 141.047 140.507 
140.336 139.774 139.563 142.089 141.507 141.373 140.741 140.541 139.924 
139.738 143.065 142.568 142.45 141.837 141.642 140.977 140.773 140.151 
139.997 143.794 143.422 143.32 142.844 142.672 142.082 141.876 141.232 
141.036 140.424 140.251 144.559 144.147 144.113 143.657 143.564 143.055 
142.903 142.315 142.116 141.482 141.26 140.642 140.427 145.439 145.041 
145.081 144.565 144.53 143.985 143.884 143.312 143.125 142.518 142.278 
141.655 141.409 140.8 140.598 145.971 145.822 145.851 145.507 145.414 
144.953 144.794 144.27 144.038 143.465 143.19 142.61 142.362 141.783 
141.577 141 140.844 146.025 146.076 146.045 145.969 145.78 145.569 
145.306 144.992 144.702 144.272 143.961 143.453 143.185 142.674 142.479 
141.96 141.801 141.262 141.126 146.016 145.946 145.971 145.95 145.834 
145.806 145.632 145.751 145.657 145.774 145.684 145.432 145.407 145.247 
145.378 145.237 145.886 145.723 145.514 145.313 145.086 145.044 144.91 
144.971 144.75 146.06 145.909 145.677 145.444 145.151 144.994 144.795 
144.753 144.551 144.486 144.128 145.95 145.951 145.6 145.477 145.084 
144.991 144.727 144.689 144.465 144.369 144.032 143.856 143.421 145.458 
145.602 145.212 145.209 144.781 144.78 144.507 144.548 144.328 144.283 
143.947 143.792 143.374 143.18 142.749 144.82 145.001 144.665 144.731 
144.36 144.413 144.172 144.268 144.061 144.079 143.733 143.646 143.224 
143.107 142.696 142.532 142.104 144.219 144.385 144.101 144.2 143.886 
143.98 143.748 143.887 143.665 143.743 143.377 143.349 142.917 142.878 
142.499 142.434 142.049 141.882 141.444 143.82 143.151 143.566 143.682 
142.433 142.868 142.996 143.394 143.5 141.649 142.125 142.258 142.694 
142.829 143.237 143.391 140.749 141.283 141.405 141.905 142.008 142.497 
142.632 143.118 143.253 139.787 140.332 140.449 140.988 141.066 141.588 
141.662 142.218 142.311 142.86 142.906 138.897 139.388 139.506 140.023 
140.119 140.623 140.712 141.23 141.354 141.878 141.984 142.463 142.502 
138.125 138.552 138.661 139.125 139.218 139.696 139.809 140.321 140.508 
141.022 141.216 141.654 141.768 142.137 142.172 137.426 137.812 137.895 
138.317 138.392 138.83 138.919 139.42 139.596 140.171 140.377 140.908 
141.015 141.438 141.436 141.802 141.743 136.745 137.107 137.159 137.561 
137.634 138.043 138.131 138.569 138.711 139.236 139.405 139.971 140.052 
140.565 140.519 140.967 140.857 141.267 141.134 140.639 140.349 140.264 
139.845 139.999 139.938 139.511 139.503 139.165 139.567 139.559 139.109 
139.121 138.743 138.794 138.381 139.018 139.098 138.669 138.687 138.231 
138.274 137.773 137.828 137.272 138.391 138.529 138.143 138.203 137.682 
137.692 137.091 137.13 136.551 136.637 136.156 137.79 137.909 137.508 
137.605 137.046 137.063 136.402 136.421 135.85 135.941 135.537 135.665 
135.363 137.249 137.317 136.859 136.931 136.364 136.381 135.754 135.758 
135.25 135.324 134.999 135.12 134.872 134.987 134.73 136.76 136.777 
136.288 136.302 135.759 135.748 135.226 135.214 134.833 134.866 134.615 
134.674 134.433 134.509 134.243 134.35 134.092 136.354 136.317 135.836 
135.79 135.284 135.239 134.796 134.794 134.513 134.564 134.372 134.39 
134.113 134.097 133.756 133.826 133.554 133.713 133.514 145.178 145.567 
145.421 145.563 145.942 145.856 146.016 145.869 146.069 146.087 146.209 
146.454 146.347 146.466 146.335 146.452 145.911 146.244 146.598 146.686 
146.725 146.612 146.548 146.519 146.563 145.563 145.96 146.333 146.637 
146.659 146.659 146.42 146.421 146.378 146.55 146.691 145.205 145.553 
145.861 146.244 146.313 146.424 146.146 146.142 146.022 146.257 146.456 
146.718 146.824 144.908 145.186 145.474 145.801 145.989 146.119 145.977 
145.893 145.752 145.885 146.088 146.423 146.607 146.745 146.603 144.655 
144.914 145.233 145.514 145.832 145.98 146.062 145.93 145.837 145.742 
145.841 146.054 146.253 146.472 146.421 146.414 146.18 144.354 144.649 
144.95 145.274 145.601 145.878 146.082 146.118 146.095 145.946 145.887 
145.876 145.926 146.091 146.089 146.2 146.085 146.071 145.977 145.011 
145.423 145.114 144.916 145.94 145.6 145.413 145.037 144.739 146.351 
146.105 145.885 145.533 145.203 144.785 144.364 146.565 146.419 146.19 
145.902 145.512 145.165 144.733 144.35 143.932 146.777 146.638 146.463 
146.161 145.755 145.393 144.953 144.64 144.254 143.929 143.554 146.846 
146.826 146.699 146.476 146.118 145.699 145.235 144.85 144.464 144.181 
143.817 143.516 143.113 146.498 146.662 146.523 146.579 146.312 146.074 
145.611 145.19 144.724 144.382 144.004 143.722 143.326 143.019 142.61 
146.046 146.176 146.03 146.213 146.043 146.086 145.717 145.479 144.97 
144.635 144.194 143.905 143.522 143.225 142.835 142.526 142.161 145.904 
145.864 145.745 145.781 145.647 145.726 145.462 145.411 144.974 144.77 
144.315 144.074 143.678 143.416 143.027 142.743 142.37 142.096 141.764 
144.731 144.57 144.488 144.101 144.309 144.261 143.825 143.746 143.279 
143.903 143.893 143.421 143.4 142.946 142.904 142.518 143.505 143.462 
142.992 142.96 142.523 142.53 142.175 142.205 141.893 143.179 143.127 
142.693 142.601 142.166 142.12 141.743 141.791 141.449 141.522 141.098 
142.773 142.8 142.422 142.366 141.945 141.837 141.402 141.354 140.953 
141.001 140.578 140.603 140.077 142.277 142.347 141.997 142.044 141.66 
141.616 141.158 141.052 140.587 140.537 140.117 140.111 139.666 139.606 
139.116 141.825 141.858 141.483 141.553 141.168 141.228 140.791 140.765 
140.28 140.209 139.754 139.713 139.285 139.244 138.795 138.726 138.289 
141.443 141.439 141.024 141.035 140.601 140.665 140.232 140.299 139.844 
139.852 139.377 139.35 138.879 138.855 138.385 138.366 137.916 137.908 
137.515 139.387 139.708 139.766 140.199 139.994 140.077 140.529 140.593 
141.071 140.295 140.362 140.825 140.909 141.424 141.522 142.079 140.658 
140.698 141.165 141.225 141.753 141.867 142.449 142.563 143.07 140.973 
141.059 141.525 141.591 142.092 142.194 142.736 142.877 143.369 143.448 
143.815 141.15 141.302 141.774 141.912 142.397 142.511 142.986 143.109 
143.552 143.672 144.068 144.131 144.523 141.301 141.443 141.924 142.104 
142.614 142.77 143.229 143.33 143.731 143.83 144.229 144.347 144.774 
144.886 145.32 141.488 141.61 142.074 142.247 142.759 142.947 143.422 
143.548 143.953 144.035 144.424 144.52 144.908 145.044 145.398 145.562 
145.829 141.615 141.769 142.192 142.375 142.837 143.049 143.501 143.686 
144.104 144.245 144.659 144.757 145.123 145.179 145.439 145.522 145.693 
145.836 145.927 
POINT_DATA 1002
SCALARS Distance double
LOOKUP_TABLE default
143.43 144.054 143.689 143 143.256 142.73 142.51 142.778 142.248 
141.989 142.013 142.284 141.718 141.44 141.154 141.441 141.737 141.122 
140.838 140.535 140.203 140.733 141.077 140.389 140.154 139.923 139.574 
139.257 140.028 140.374 139.677 139.433 139.259 138.979 138.637 138.431 
139.433 139.759 139.128 138.851 138.574 138.3 138.033 137.828 137.724 
138.901 139.245 138.6 138.329 137.971 137.602 137.381 137.263 137.158 
137.065 138.395 138.762 138.029 137.723 137.389 137.011 136.77 136.702 
136.642 136.524 136.405 144.379 144.045 144.647 144.416 144.922 143.651 
144.719 145.213 144.057 143.125 144.871 145.512 144.323 143.461 142.556 
145.039 145.816 144.43 143.713 142.822 141.98 145.316 145.932 144.578 
143.849 143.034 142.167 141.284 145.425 145.71 144.759 143.923 143.12 
142.277 141.394 140.545 145.206 145.318 144.732 143.927 143.13 142.351 
141.471 140.64 139.923 144.809 144.946 144.433 143.769 143.085 142.437 
141.609 140.719 140 139.385 144.431 144.08 143.655 143.161 142.816 
143.523 142.431 142.208 142.68 142.951 141.899 141.595 142.093 142.309 
142.454 141.016 140.607 141.34 141.58 141.729 141.716 139.768 139.513 
140.138 140.495 140.697 140.739 140.718 138.716 138.637 138.939 139.322 
139.608 139.676 139.723 139.86 137.961 137.887 138.06 138.319 138.633 
138.748 138.767 138.945 139.212 137.277 137.164 137.343 137.442 137.646 
137.819 137.869 138.003 138.313 138.606 138.007 137.778 137.175 137.424 
136.914 136.313 137.106 136.576 136.051 135.374 136.934 136.269 135.756 
135.075 134.441 136.773 135.992 135.428 134.743 134.061 133.726 136.621 
135.756 135.087 134.381 133.623 133.243 133.124 136.588 135.696 134.9 
134.167 133.353 132.787 132.623 132.475 136.589 135.758 134.913 134.191 
133.473 132.771 132.347 132.164 131.98 136.529 135.805 135.005 134.302 
133.75 133.159 132.542 132.125 131.929 131.826 137.577 136.692 137.151 
135.768 136.226 136.792 134.831 135.323 135.889 136.464 134.066 134.475 
135.031 135.639 136.211 133.448 133.725 134.146 134.753 135.44 136.103 
132.698 132.928 133.316 133.889 134.569 135.324 136.045 132 132.126 
132.573 133.294 133.974 134.579 135.25 135.929 131.735 131.718 132.056 
132.838 133.656 134.174 134.592 135.145 135.784 131.874 131.805 132.009 
132.041 131.911 131.889 131.984 131.508 132.18 132.388 131.557 131.198 
132.037 132.546 133.182 131.247 131.267 131.661 132.26 133.057 133.796 
131.387 131.66 131.668 132.222 132.799 133.52 134.143 131.93 132.244 
132.113 132.733 133.154 133.458 133.971 134.558 132.652 132.855 132.737 
133.312 133.808 133.903 134.081 134.57 135.18 133.324 133.361 133.379 
133.747 134.192 134.346 134.425 134.776 135.324 135.892 131.89 131.964 
131.897 131.848 131.795 131.874 131.604 131.653 131.491 131.441 131.354 
131.558 131.118 130.97 131.079 131.248 131.66 130.896 130.731 130.938 
131.222 131.548 132.069 131.067 130.781 130.941 131.398 131.659 132.185 
132.664 131.731 131.338 131.165 131.369 131.808 132.119 132.85 133.269 
132.483 132.172 131.851 131.575 131.652 132.124 132.586 133.464 133.835 
133.105 132.842 132.633 132.284 131.924 132.012 132.526 133.03 136.631 
135.996 136.162 135.559 135.757 135.268 135.084 135.188 134.814 134.506 
134.375 134.527 134.286 134.108 133.943 133.743 134.187 133.626 133.635 
133.613 133.486 133.505 134.132 133.117 133.032 133.048 133.037 132.858 
133.436 134.037 132.867 132.527 132.388 132.356 132.348 132.244 133.335 
133.898 132.727 132.219 131.934 131.849 131.887 131.948 131.942 137.493 
136.921 137.911 137.32 138.402 136.421 137.845 138.917 136.776 135.949 
138.409 139.401 137.303 136.272 135.382 138.865 139.792 137.894 136.843 
135.84 134.959 139.23 140.142 138.385 137.502 136.499 135.58 134.822 
139.704 140.574 138.868 138.103 137.179 136.157 135.339 134.685 140.299 
141.056 139.467 138.687 137.838 136.77 135.765 135.06 134.488 140.818 
141.455 140.057 139.251 138.431 137.462 136.386 135.521 134.93 134.397 