# vtk DataFile Version 4.0
vtk output
ASCII
DATASET POLYDATA
POINTS 1002 float
-83.1923 -104.982 60.2839 -83.0915 -104.781 60.7428 -83.5284 -104.814 60.5293 
-83.5368 -104.831 60.1533 -83.8461 -104.534 60.396 -82.9573 -104.808 59.6896 
-83.6287 -104.247 60.0158 -83.9997 -103.929 60.1819 -83.1404 -104.387 59.5763 
-82.6078 -104.434 58.916 -83.7295 -103.611 59.6014 -84.2942 -103.401 59.6815 
-83.2245 -103.741 59.3312 -82.7733 -103.92 58.7885 -82.3081 -104.098 58.2423 
-84.2896 -103.424 58.8092 -84.8703 -103.087 59.0405 -83.6558 -103.485 58.639 
-83.1159 -103.529 58.3617 -82.5597 -103.662 57.9926 -81.9049 -103.727 57.6907 
-84.9405 -103.256 58.1224 -85.2978 -102.723 58.6005 -84.3831 -103.529 57.7421 
-83.7641 -103.558 57.5002 -83.0736 -103.527 57.2842 -82.2879 -103.489 57.0727 
-81.5194 -103.441 56.9007 -85.0703 -102.686 57.8391 -85.4306 -102.315 58.2942 
-84.6865 -103.078 57.2708 -84.224 -103.389 56.7785 -83.6006 -103.523 56.4348 
-82.8389 -103.507 56.1679 -82.072 -103.473 55.9843 -81.3894 -103.465 55.8675 
-85.0429 -102.139 57.5878 -85.6205 -101.994 57.911 -84.6414 -102.393 57.0552 
-84.346 -102.808 56.4388 -83.872 -103.18 55.9376 -83.1925 -103.33 55.5725 
-82.5253 -103.415 55.2648 -81.9169 -103.522 55.0294 -81.327 -103.567 54.8525 
-85.28 -101.843 57.1899 -85.898 -101.691 57.5363 -84.8529 -102.072 56.6441 
-84.6168 -102.455 56.0271 -84.1925 -102.816 55.544 -83.4231 -102.912 55.2691 
-82.6612 -102.941 55.0184 -82.1127 -103.142 54.6619 -81.6453 -103.376 54.285 
-81.1612 -103.498 53.9703 -85.5369 -101.584 56.8439 -86.0166 -101.356 57.2819 
-85.2093 -101.891 56.1958 -85.0182 -102.291 55.5293 -84.6197 -102.625 55.0644 
-83.7859 -102.632 54.8863 -82.8231 -102.455 54.8119 -82.1273 -102.504 54.5629 
-81.698 -102.796 54.1272 -81.3512 -103.097 53.6717 -80.9811 -103.322 53.3014 
-83.0115 -104.399 61.0908 -83.4382 -104.329 60.8495 -82.9323 -103.961 61.6426 
-83.3127 -103.734 61.4229 -83.2084 -103.785 62.3495 -83.8786 -104.05 60.6782 
-83.5027 -103.405 62.1066 -83.7633 -103.864 62.8972 -83.9153 -103.534 61.1565 
-84.304 -103.588 60.3702 -84.0168 -103.297 62.5352 -84.2425 -103.776 63.2229 
-84.2274 -103.238 61.6415 -84.6625 -103.264 60.6827 -84.7936 -103.063 59.8693 
-84.6275 -103.086 62.7891 -84.6348 -103.397 63.5944 -84.8079 -103.028 61.9054 
-85.2057 -103.065 61.0176 -85.2791 -102.73 60.2203 -85.2468 -102.538 59.4223 
-85.1287 -102.772 63.1133 -84.9891 -102.99 63.9672 -85.3258 -102.714 62.1065 
-85.8213 -102.873 61.2941 -85.9525 -102.648 60.6732 -85.6679 -102.206 59.9274 
-85.5637 -102.194 59.0438 -85.3556 -102.409 63.3124 -85.1212 -102.597 64.0698 
-85.4896 -102.263 62.3026 -86.0457 -102.452 61.5204 -86.6025 -102.596 61.0946 
-86.4412 -102.307 60.4597 -86.0949 -102.048 59.4339 -85.9312 -102.041 58.5199 
-85.3537 -101.936 63.2677 -85.011 -102.116 63.9511 -85.4645 -101.699 62.3863 
-85.8399 -101.763 61.6651 -86.6549 -102.129 61.3477 -87.0626 -102.295 60.8887 
-86.8349 -102.134 59.812 -86.5892 -101.947 58.6579 -86.3358 -101.808 57.9735 
-85.3158 -101.427 63.2158 -84.8621 -101.597 63.8464 -85.5668 -101.163 62.5043 
-85.7762 -101.09 61.8692 -86.3577 -101.378 61.5077 -87.0232 -101.767 61.1316 
-87.1752 -101.904 60.1822 -87.0253 -101.785 58.8918 -86.864 -101.585 58.0101 
-86.5208 -101.422 57.6245 -85.1534 -101.026 63.4901 -85.7067 -100.799 62.9393 
-85.6371 -100.475 63.3556 -86.3237 -100.344 63.0196 -86.0661 -100.023 63.2504 
-86.067 -100.636 62.4036 -86.726 -100.041 62.8997 -86.0672 -99.7249 62.6904 
-86.7515 -100.353 62.525 -86.3631 -100.73 61.8856 -86.4761 -99.7795 62.0732 
-85.6571 -99.588 61.7779 -87.0196 -100.057 62.0891 -86.9244 -100.423 61.7048 
-86.7906 -101.008 61.3327 -85.8631 -99.5488 61.1128 -85.3184 -99.3245 61.1255 
-86.62 -99.6688 61.1026 -87.037 -99.9015 60.9295 -86.9871 -100.427 60.6655 
-87.0521 -101.224 60.4221 -85.5201 -99.1459 60.6024 -85.285 -98.6881 60.7551 
-86.0544 -99.3587 60.3904 -86.766 -99.4007 60.1131 -87.0395 -99.6944 59.7931 
-86.9741 -100.432 59.4324 -87.0417 -101.261 59.0998 -85.4781 -98.5012 60.2049 
-85.258 -98.0253 60.2976 -85.7516 -98.9719 59.977 -86.3534 -99.1349 59.598 
-86.9675 -99.2024 59.1455 -87.0865 -99.6845 58.6592 -86.9868 -100.481 58.2433 
-86.9933 -101.16 58.0297 -85.3822 -97.9356 59.6322 -85.0202 -97.6759 59.7269 
-85.621 -98.4203 59.4196 -85.9205 -98.8484 59.0507 -86.4944 -98.9933 58.5981 
-86.9927 -99.2297 58.1169 -87.0335 -99.8376 57.7244 -86.8843 -100.516 57.564 
-86.7672 -101.035 57.5756 -85.1388 -97.5692 59.0349 -84.701 -97.473 59.1925 
-85.4786 -97.8741 58.7762 -85.6033 -98.381 58.4161 -85.7974 -98.7787 58.0513 
-86.3022 -99.0024 57.6958 -86.705 -99.3896 57.3637 -86.6638 -99.9842 57.2207 
-86.4467 -100.537 57.2739 -86.2623 -100.982 57.3216 -85.6778 -101.139 56.7921 
-85.7945 -100.685 56.8802 -85.3524 -100.846 56.1291 -85.9898 -100.156 56.8435 
-85.4085 -100.292 56.2092 -85.1016 -100.406 55.4623 -86.1509 -99.5662 56.8641 
-85.5506 -99.6736 56.2528 -85.1613 -99.7974 55.5121 -84.7608 -99.9612 54.9533 
-85.9019 -99.0867 57.0936 -85.49 -99.1185 56.4599 -85.1629 -99.1549 55.6278 
-84.7281 -99.3422 55.0088 -84.072 -99.5732 54.6339 -85.4289 -98.7519 57.3518 
-85.1386 -98.699 56.7377 -85.0164 -98.6005 55.8399 -84.6629 -98.6739 55.0767 
-83.9219 -98.925 54.7633 -83.2291 -99.1133 54.4217 -85.328 -98.2773 57.574 
-85.0067 -98.1546 56.8898 -84.9146 -97.9756 56.0036 -84.7417 -97.9453 55.096 
-84.0073 -98.227 54.7719 -83.1533 -98.5125 54.5995 -82.7481 -98.6391 54.053 
-85.4019 -97.6917 57.9155 -85.1587 -97.4953 57.1175 -84.9394 -97.2744 56.2227 
-84.8096 -97.1348 55.2165 -84.2632 -97.3984 54.7141 -83.2969 -97.9027 54.6515 
-82.7037 -98.1545 54.2191 -82.6244 -98.2328 53.4073 -85.1484 -97.33 58.3064 
-85.0374 -97.083 57.5472 -84.7605 -96.9105 56.7059 -84.5261 -96.7318 55.6876 
-84.1902 -96.7327 54.8972 -83.3818 -97.1906 54.6673 -82.5775 -97.6805 54.4018 
-82.3712 -97.7998 53.6435 -82.459 -97.8287 52.768 -84.6825 -97.2091 58.5894 
-84.6105 -96.92 57.9564 -84.3258 -96.8317 57.2804 -83.959 -96.8343 56.4182 
-83.6905 -96.6829 55.4602 -83.2035 -96.7089 54.8434 -82.4347 -97.125 54.5203 
-81.9869 -97.4356 53.9727 -82.033 -97.4338 53.1525 -82.1194 -97.4545 52.4221 
-85.3954 -101.439 56.1127 -85.1613 -101.087 55.4219 -85.224 -101.808 55.3528 
-84.7385 -100.556 54.9368 -84.7941 -101.323 54.8329 -84.8609 -102.163 54.7901 
-84.1348 -100.129 54.5454 -84.0616 -100.703 54.5224 -84.0952 -101.534 54.4603 
-84.0846 -102.289 54.5343 -83.3721 -99.7236 54.2012 -83.4161 -100.295 54.1138 
-83.3967 -100.956 54.1233 -83.3518 -101.7 54.1774 -83.1129 -102.157 54.4438 
-82.7379 -99.2079 53.8699 -82.7584 -99.8586 53.7604 -82.8931 -100.55 53.6584 
-82.9944 -101.325 53.5961 -82.7393 -101.86 53.8033 -82.3014 -102.106 54.2452 
-82.5355 -98.7638 53.2969 -82.2305 -99.4002 53.4162 -82.1475 -100.027 53.3829 
-82.4555 -100.827 53.0667 -82.5655 -101.638 52.9763 -82.1602 -102.04 53.3833 
-81.7565 -102.306 53.8686 -82.4867 -98.3698 52.5549 -82.0805 -99.0559 52.7844 
-81.6116 -99.6035 53.0627 -81.6476 -100.183 52.8462 -81.9996 -101.055 52.4664 
-81.9919 -101.814 52.6061 -81.6301 -102.218 53.0998 -81.3855 -102.609 53.451 
-82.2154 -97.9389 52.0543 -81.9777 -98.6447 52.0957 -81.5278 -99.2612 52.4666 
-81.2815 -99.7607 52.5961 -81.4044 -100.479 52.2991 -81.5364 -101.338 52.1918 
-81.4043 -101.973 52.5426 -81.1831 -102.44 52.9028 -81.0577 -102.919 53.0721 
-81.7069 -97.4153 52.0798 -81.6277 -97.993 51.761 -81.001 -97.5602 51.9872 
-80.8706 -98.0719 51.6756 -80.1824 -97.8159 51.9843 -81.4191 -98.6557 51.8281 
-80.0593 -98.2288 51.6598 -79.4429 -98.1122 51.975 -80.788 -98.6257 51.6973 
-81.214 -99.2893 52.1313 -79.2031 -98.6025 51.6997 -78.8274 -98.4835 52.0892 
-79.8596 -98.8725 51.6512 -80.6825 -99.5417 51.8717 -81.1175 -100.103 52.1382 
-78.4912 -99.0721 51.9281 -78.2811 -98.8544 52.3987 -78.8416 -99.3917 51.7085 
-79.6365 -100.078 51.6868 -80.4929 -100.744 51.7683 -81.0487 -101.041 51.9586 
-77.9326 -99.3592 52.2525 -77.6799 -99.0619 52.6633 -78.2634 -99.7852 51.9792 
-78.7996 -100.436 51.7459 -79.5212 -101.147 51.5653 -80.2547 -101.557 51.737 
-80.9072 -101.746 52.1527 -77.247 -99.5392 52.3884 -77.0403 -99.2005 52.7714 
-77.7476 -100.053 52.2422 -78.4102 -100.612 52.1519 -78.9293 -101.13 51.8726 
-79.4163 -101.643 51.7577 -80.1006 -102.056 52.0859 -80.7717 -102.304 52.5228 
-76.6072 -99.8477 52.4898 -76.5905 -99.4706 52.9854 -76.9671 -100.431 52.3012 
-77.7238 -101 52.4288 -78.4104 -101.318 52.4611 -78.8099 -101.665 52.2466 
-79.342 -102.254 52.171 -80.0933 -102.731 52.3666 -80.699 -102.895 52.6743 
-76.373 -100.251 52.9153 -76.427 -99.8465 53.4628 -76.4542 -100.83 52.5245 
-76.9149 -101.442 52.5008 -77.6138 -101.78 52.7068 -78.1722 -101.974 52.7384 
-78.6693 -102.461 52.5385 -79.3637 -103.076 52.3979 -80.0861 -103.361 52.4894 
-80.6091 -103.355 52.8161 -81.7281 -97.1174 52.6678 -81.3025 -97.0603 52.3955 
-81.3972 -96.8244 52.8542 -80.87 -96.6741 52.5232 -81.0359 -96.384 52.9308 
-80.5083 -97.2159 52.3226 -80.2653 -96.1484 52.5267 -80.4809 -95.9306 53.2172 
-79.9018 -96.6824 52.3815 -79.5922 -97.4635 52.3186 -79.6181 -95.87 52.9331 
-79.9163 -95.8492 53.8437 -79.2614 -96.2 52.4389 -78.9321 -96.8579 52.4654 
-78.8883 -97.7365 52.386 -79.165 -95.9607 53.797 -79.5054 -95.998 54.5678 
-78.8811 -96.2335 53.0927 -78.5189 -96.596 52.7779 -78.3322 -97.2151 52.7548 
-78.3908 -98.1342 52.6281 -78.7207 -95.9488 54.6453 -79.1037 -95.9964 55.2996 
-78.5123 -96.2939 54.1163 -78.3293 -96.7356 53.6081 -78.0303 -97.0603 53.2514 
-77.898 -97.7321 53.1011 -77.8875 -98.558 52.9423 -78.2461 -95.8565 55.324 
-78.6945 -95.9437 56.0616 -77.9067 -96.0243 54.8684 -77.8036 -96.5095 54.4867 
-77.691 -96.9408 53.9652 -77.495 -97.4516 53.558 -77.4286 -98.2135 53.3819 
-77.3335 -98.8147 53.148 -77.9771 -96.0062 55.9763 -78.3904 -96.0284 56.7476 
-77.5038 -95.9814 55.3806 -77.1709 -96.1478 54.9986 -77.0673 -96.5321 54.5656 
-77.0275 -97.0997 54.0966 -77.0174 -97.8532 53.8392 -77.0165 -98.5446 53.6691 
-76.8606 -99.0145 53.3544 -77.8907 -96.2948 56.6189 -78.1953 -96.1963 57.2752 
-77.4785 -96.3101 55.9697 -76.9722 -96.2346 55.4586 -76.5982 -96.3051 55.0171 
[...]
CELL_DATA 2000
SCALARS Distance double
LOOKUP_TABLE default
145.942 145.99 145.958 145.733 145.683 145.805 145.524 145.485 145.047 
145.215 145.333 145.025 145.093 144.686 144.678 144.272 144.985 144.965 
144.721 144.662 144.358 144.313 143.988 143.954 143.596 144.868 144.866 
144.702 144.577 144.334 144.173 143.891 143.75 143.411 143.291 142.895 
144.55 144.652 144.441 144.493 144.209 144.174 143.85 143.728 143.363 
143.187 142.812 142.641 142.306 144.183 144.228 143.928 144.038 143.741 
143.86 143.552 143.577 143.207 143.116 142.732 142.604 142.284 142.157 
141.892 143.952 143.896 143.596 143.583 143.369 143.417 143.234 143.249 
142.944 142.876 142.467 142.414 142.044 142.042 141.739 141.716 141.431 
143.742 143.699 143.434 143.388 143.226 143.22 143.102 143.066 142.8 
142.661 142.215 142.088 141.65 141.659 141.325 141.407 141.125 141.172 
140.908 145.881 145.693 145.853 145.948 145.677 145.639 145.705 145.854 
145.774 146.043 145.719 145.626 145.651 145.66 145.635 145.425 146.493 
146.108 145.872 145.714 145.704 145.625 145.506 145.33 145.14 146.752 
146.46 146.207 146.004 145.965 145.823 145.71 145.472 145.243 145.087 
144.933 146.887 146.672 146.434 146.262 146.232 146.139 146.101 145.815 
145.554 145.22 144.99 144.86 144.692 146.851 146.756 146.447 146.341 
146.219 146.284 146.365 146.275 146.149 145.716 145.434 145.044 144.866 
144.645 144.458 146.535 146.577 146.195 146.16 145.871 146.037 146.1 
146.362 146.438 146.315 146.077 145.631 145.332 144.959 144.755 144.475 
144.256 146.09 146.18 145.86 145.834 145.522 145.595 145.572 145.911 
146.07 146.334 146.224 146.091 145.694 145.382 145.019 144.765 144.492 
144.262 144.002 145.8 145.514 145.65 145.62 145.456 145.518 145.503 
145.469 145.397 145.267 145.505 145.611 145.547 145.482 145.366 145.468 
144.65 145.123 145.301 145.551 145.508 145.503 145.493 145.573 145.836 
143.879 144.345 144.459 144.941 144.919 145.236 145.115 145.376 145.407 
145.787 145.911 143.224 143.586 143.636 144.043 144.049 144.443 144.351 
144.706 144.609 145.049 145.038 145.519 145.436 142.587 142.938 142.987 
143.323 143.346 143.665 143.64 143.932 143.862 144.184 144.145 144.558 
144.542 144.938 144.832 141.931 142.277 142.318 142.676 142.684 143.018 
142.981 143.285 143.233 143.519 143.486 143.79 143.795 144.133 144.129 
144.432 144.345 141.325 141.627 141.632 141.976 141.955 142.304 142.234 
142.578 142.506 142.858 142.826 143.169 143.157 143.48 143.464 143.776 
143.728 143.994 143.881 143.538 143.361 143.284 142.916 143.107 143.051 
142.647 142.588 142.2 142.803 142.769 142.347 142.281 141.858 141.836 
141.467 142.437 142.426 142.001 141.956 141.5 141.468 141.065 141.085 
140.703 142.069 142.033 141.602 141.581 141.125 141.09 140.64 140.647 
140.233 140.268 139.841 141.784 141.691 141.233 141.181 140.719 140.685 
140.215 140.205 139.777 139.798 139.398 139.406 139.014 141.538 141.437 
140.969 140.858 140.368 140.282 139.785 139.752 139.319 139.353 138.996 
139.02 138.672 138.659 138.334 141.264 141.192 140.754 140.633 140.162 
140.008 139.514 139.378 138.928 138.901 138.556 138.617 138.306 138.338 
137.999 138.009 137.698 140.994 140.928 140.525 140.425 140.006 139.864 
139.439 139.242 138.809 138.63 138.249 138.2 137.891 137.935 137.625 
137.657 137.329 137.36 137.073 143.472 142.912 143.215 143.221 142.235 
142.62 142.72 143.018 143.069 141.487 141.891 141.964 142.409 142.522 
142.884 142.922 140.709 141.112 141.092 141.541 141.584 142.121 142.172 
142.611 142.524 139.847 140.282 140.255 140.664 140.66 141.131 141.184 
141.688 141.643 142.04 141.869 139.001 139.399 139.398 139.82 139.852 
140.284 140.38 140.809 140.856 141.185 141.086 141.374 141.281 138.326 
138.637 138.634 138.996 139.012 139.446 139.529 140.031 140.141 140.536 
140.518 140.739 140.664 140.919 140.954 137.716 138.019 138.027 138.33 
138.318 138.638 138.638 139.095 139.196 139.74 139.829 140.212 140.185 
140.417 140.413 140.696 140.784 137.088 137.394 137.407 137.737 137.748 
138.026 138.014 138.306 138.378 138.812 138.986 139.459 139.574 139.918 
139.95 140.214 140.27 140.558 140.635 136.754 136.362 136.701 137.048 
136.004 136.302 136.625 137.032 137.402 135.706 135.937 136.213 136.602 
137.017 137.41 137.744 135.544 135.668 135.89 136.204 136.666 137.09 
137.564 137.824 138.167 135.558 135.586 135.759 135.94 136.378 136.79 
137.378 137.727 138.17 138.349 138.734 135.556 135.619 135.788 135.9 
136.267 136.564 137.101 137.504 137.987 138.304 138.675 138.925 139.292 
135.383 135.524 135.724 135.924 136.306 136.536 136.977 137.245 137.658 
137.998 138.394 138.754 139.132 139.419 139.734 135.286 135.349 135.575 
135.808 136.259 136.557 137.018 137.207 137.552 137.734 138.123 138.444 
138.914 139.242 139.634 139.838 140.111 135.528 135.436 135.683 135.759 
136.209 136.475 136.978 137.223 137.585 137.724 138.061 138.279 138.748 
139.062 139.513 139.756 140.063 140.213 140.449 136.542 136.181 136.283 
136.157 135.745 135.889 135.737 135.904 135.811 135.158 135.32 135.096 
135.37 135.28 135.554 135.515 134.79 134.758 134.481 134.657 134.556 
134.906 134.96 135.296 135.363 134.84 134.616 134.405 134.303 134.241 
134.318 134.42 134.713 134.935 135.249 135.402 134.934 134.737 134.554 
134.446 134.443 134.34 134.393 134.396 134.591 134.836 135.097 135.35 
135.442 134.945 134.759 134.476 134.468 134.403 134.485 134.461 134.472 
134.476 134.592 134.77 135.031 135.19 135.349 135.322 135.086 134.823 
134.51 134.35 134.168 134.23 134.149 134.298 134.239 134.406 134.48 
134.729 134.916 135.117 135.199 135.245 135.243 135.358 135.092 134.877 
134.558 134.35 134.12 133.975 133.943 133.915 134.062 134.197 134.447 
134.7 134.919 135.125 135.204 135.31 135.304 135.439 140.736 140.163 
140.387 140.242 139.538 139.768 139.62 139.869 139.734 138.965 139.152 
139.011 139.249 139.15 139.385 139.232 138.418 138.597 138.424 138.65 
138.545 138.807 138.675 138.865 138.639 137.747 137.987 137.763 138.02 
137.846 138.145 137.98 138.249 138.014 138.214 138.003 137.021 137.265 
137.063 137.32 137.129 137.398 137.194 137.477 137.251 137.519 137.322 
137.606 137.543 136.423 136.606 136.462 136.674 136.529 136.726 136.52 
136.718 136.506 136.755 136.616 136.915 136.876 137.22 137.258 135.951 
136.086 135.929 136.122 135.969 136.163 135.936 136.095 135.838 136.051 
135.919 136.235 136.234 136.576 136.614 136.952 136.991 135.579 135.647 
135.421 135.569 135.357 135.564 135.328 135.505 135.214 135.388 135.188 
135.506 135.508 135.92 135.995 136.346 136.389 136.697 136.747 140.916 
141.001 140.778 140.374 141.049 140.844 140.44 140.193 139.752 141.109 
140.888 140.475 140.233 139.795 139.561 139.16 141.172 140.962 140.55 
140.285 139.845 139.598 139.21 139.007 138.631 141.097 140.971 140.586 
140.375 139.938 139.674 139.266 139.05 138.664 138.449 137.994 140.967 
140.843 140.497 140.365 139.966 139.75 139.304 139.085 138.659 138.455 
137.985 137.74 137.247 141.04 140.809 140.51 140.321 139.978 139.755 
139.3 139.066 138.599 138.412 137.959 137.736 137.255 137.012 136.602 
141.249 140.993 140.714 140.463 140.15 139.855 139.414 139.083 138.604 
138.354 137.945 137.736 137.325 137.066 136.658 136.437 136.122 141.354 
141.167 140.867 140.669 140.351 140.083 139.661 139.287 138.81 138.457 
138.077 137.814 137.488 137.207 136.84 136.549 136.223 136.017 135.777 
141.25 140.924 140.971 140.774 140.69 140.66 140.421 140.488 140.263 
140.518 140.452 140.125 140.124 139.836 139.907 139.573 140.219 140.224 
139.854 139.821 139.44 139.456 139.09 139.135 138.746 139.803 139.841 
139.465 139.473 139.04 139.04 138.647 138.681 138.339 138.359 138.042 
139.442 139.426 139.025 139.026 138.57 138.575 138.15 138.222 137.902 
137.985 137.69 137.728 137.436 139.134 139.084 138.656 138.614 138.149 
138.104 137.648 137.689 137.348 137.489 137.2 137.317 136.989 137.07 
136.755 138.843 138.769 138.334 138.271 137.83 137.75 137.306 137.25 
136.882 136.939 136.665 136.785 136.506 136.593 136.298 136.379 136.138 
138.652 138.515 138.081 137.975 137.561 137.479 137.083 136.99 136.611 
136.559 136.258 136.306 136.088 136.168 135.966 136.009 135.815 135.863 
135.708 138.463 137.928 138.072 137.827 137.302 137.48 137.23 137.433 
137.273 136.726 136.874 136.668 136.846 136.697 136.921 136.813 136.335 
136.417 136.245 136.348 136.168 136.339 136.189 136.439 136.33 136.068 
136.134 135.996 136.026 135.769 135.809 135.53 135.74 135.601 135.942 
135.922 135.874 135.913 135.829 135.847 135.584 135.477 135.062 135.076 
134.865 135.181 135.246 135.647 135.764 135.814 135.771 135.678 135.698 
135.488 135.356 134.905 134.718 134.382 134.516 134.589 135.004 135.235 
135.595 135.716 135.79 135.722 135.554 135.554 135.35 135.265 134.86 
134.632 134.203 134.14 134.061 134.377 134.597 135.041 135.221 135.536 
135.592 135.642 135.625 135.429 135.426 135.228 135.154 134.831 134.623 
134.241 134.05 133.858 133.933 134.022 134.371 134.554 134.96 135.074 
135.39 135.459 138.776 139.103 138.744 138.287 139.34 139.034 138.568 
138.181 137.644 139.53 139.224 138.761 138.412 137.872 137.491 137.001 
139.823 139.455 139.017 138.63 138.148 137.739 137.263 136.905 136.548 
140.171 139.805 139.411 138.992 138.578 138.122 137.697 137.247 136.851 
136.51 136.231 140.459 140.142 139.784 139.42 139.047 138.625 138.224 
137.752 137.335 136.884 136.536 136.224 136.022 140.764 140.449 140.134 
139.785 139.437 139.064 138.671 138.253 137.834 137.388 137.042 136.641 
136.434 136.128 136.023 141.114 140.817 140.55 140.181 139.838 139.443 
139.051 138.652 138.254 137.854 137.545 137.179 137.008 136.664 136.543 
136.208 136.067 141.384 141.165 140.919 140.601 140.245 139.852 139.446 
139.041 138.664 138.277 137.992 137.66 137.496 137.21 137.07 136.746 
136.517 136.173 135.913 139.128 139.777 139.443 139.45 140.565 140.146 
140.123 139.76 139.72 141.425 141.004 140.983 140.522 140.462 140.023 
139.949 142.144 141.823 141.855 141.436 141.368 140.855 140.752 140.285 
140.233 142.813 142.482 142.523 142.217 142.188 141.758 141.631 141.137 
141.041 140.604 140.561 143.653 143.224 143.221 142.851 142.852 142.495 
142.434 142 141.898 141.433 141.344 140.908 140.835 144.496 144.121 
144.133 143.662 143.644 143.204 143.192 142.78 142.726 142.279 142.163 
141.693 141.564 141.142 141.08 145.106 144.891 144.975 144.591 144.567 
144.091 144.032 143.573 143.493 143.058 142.91 142.462 142.269 141.841 
141.707 141.368 141.349 145.577 145.43 145.552 145.311 145.308 144.947 
144.853 144.414 144.261 143.799 143.595 143.142 142.915 142.491 142.306 
141.95 141.862 141.6 141.584 145.936 146.466 146.081 145.844 146.891 
146.519 146.164 145.873 145.578 147.088 146.818 146.402 146.12 145.776 
145.524 145.16 147.049 146.904 146.533 146.302 145.943 145.699 145.315 
145.028 144.567 146.884 146.823 146.505 146.361 146.006 145.82 145.411 
145.15 144.64 144.345 143.835 146.584 146.629 146.318 146.256 145.867 
145.761 145.333 145.169 144.663 144.396 143.851 143.585 143.119 146.128 
146.272 146.028 146.029 145.643 145.544 145.096 144.991 144.546 144.382 
143.901 143.637 143.162 142.909 142.52 145.781 145.87 145.744 145.757 
145.47 145.355 144.943 144.783 144.382 144.251 143.869 143.684 143.258 
143 142.598 142.371 142.068 145.764 145.708 145.61 145.558 145.334 
145.234 144.898 144.723 144.348 144.168 143.817 143.651 143.277 143.071 
142.672 142.457 142.132 141.97 141.749 145.824 145.573 145.679 145.521 
144.945 145.223 145.077 145.268 145.134 144.24 144.545 144.46 144.713 
144.602 144.831 144.696 143.544 143.871 143.797 144.08 143.976 144.245 
144.129 144.351 144.179 142.77 143.114 143 143.356 143.216 143.552 
143.416 143.724 143.569 143.801 143.62 142.139 142.349 142.212 142.519 
142.404 142.745 142.639 142.974 142.857 143.143 142.979 143.223 143.047 
141.73 141.828 141.663 141.837 141.763 142.022 142.019 142.296 142.277 
142.503 142.389 142.579 142.407 142.63 142.462 141.309 141.431 141.219 
141.353 141.222 141.458 141.467 141.77 141.814 142.045 141.97 142.088 
141.912 142.041 141.888 142.086 141.971 140.842 140.984 140.774 140.887 
140.679 140.881 140.796 141.147 141.166 141.53 141.469 141.678 141.48 
141.595 141.415 141.579 141.496 141.691 141.631 141.412 141.244 141.219 
140.945 141.088 140.999 140.672 140.642 140.26 141.091 140.88 140.467 
140.348 139.946 139.888 139.467 141.058 140.877 140.413 140.214 139.789 
139.641 139.245 139.13 138.732 140.75 140.702 140.239 140.129 139.696 
139.555 139.157 138.996 138.61 138.461 138.108 140.409 140.344 139.932 
139.874 139.475 139.405 139.001 138.894 138.481 138.358 137.998 137.896 
137.617 140.353 140.167 139.853 139.683 139.354 139.204 138.832 138.699 
138.291 138.181 137.793 137.733 137.422 137.408 137.146 140.485 140.272 
140.019 139.786 139.485 139.223 138.85 138.609 138.228 138.043 137.671 
137.531 137.159 137.11 136.772 136.823 136.518 140.557 140.41 140.152 
139.974 139.641 139.386 138.944 138.67 138.256 138.055 137.722 137.523 
137.141 136.918 136.488 136.391 136.036 136.112 135.851 146.224 146.7 
146.478 146.499 147.008 146.898 146.888 146.711 146.782 147.072 147.097 
147.084 146.986 147.015 146.989 147.131 147.068 147.172 147.241 147.129 
147.095 147.08 147.173 147.25 147.264 146.948 147.231 147.473 147.38 
147.309 147.137 147.117 147.168 147.205 147.223 147.064 146.465 146.985 
147.388 147.594 147.596 147.405 147.279 147.163 147.225 147.216 147.229 
147.058 146.875 145.879 146.344 146.753 147.277 147.46 147.573 147.471 
147.368 147.404 147.378 147.527 147.387 147.335 146.993 146.747 145.668 
145.816 146.074 146.546 146.847 147.237 147.296 147.417 147.415 147.505 
147.615 147.663 147.643 147.455 147.184 146.818 146.445 145.763 145.711 
145.785 146 146.253 146.629 146.815 147.093 147.117 147.318 147.312 
147.519 147.439 147.516 147.238 147.094 146.694 146.411 146.037 145.978 
146.247 145.981 145.744 146.611 146.288 146.034 145.757 145.538 147.022 
146.709 146.405 146.052 145.726 145.488 145.194 147.134 147.012 146.644 
146.35 145.888 145.616 145.22 145.036 144.663 146.861 146.891 146.524 
146.399 145.903 145.686 145.254 145.061 144.704 144.491 144.107 146.57 
146.549 146.237 146.181 145.778 145.625 145.234 145.081 144.772 144.588 
144.245 143.977 143.585 146.346 146.286 145.964 145.934 145.615 145.515 
145.158 145.03 144.703 144.598 144.253 144.083 143.663 143.433 143.024 
146.024 145.996 145.605 145.632 145.314 145.327 144.991 144.922 144.547 
144.456 144.063 143.965 143.523 143.391 142.94 142.802 142.413 145.683 
145.637 145.236 145.232 144.907 144.962 144.677 144.693 144.356 144.28 
143.881 143.756 143.32 143.186 142.74 142.626 142.224 142.148 141.817 
145.76 145.553 145.571 145.475 145.353 145.381 145.248 145.324 145.3 
145.035 145.144 144.954 145.03 144.865 145.06 144.977 144.498 144.711 
144.521 144.655 144.39 144.524 144.311 144.569 144.385 143.868 144.086 
143.908 144.129 143.892 144.019 143.754 143.911 143.723 143.939 143.737 
143.302 143.455 143.248 143.483 143.311 143.498 143.264 143.392 143.176 
143.349 143.175 143.347 143.127 142.775 142.902 142.646 142.839 142.664 
142.901 142.715 142.891 142.653 142.811 142.591 142.782 142.559 142.733 
142.479 142.23 142.371 142.086 142.234 141.99 142.227 142.052 142.303 
142.102 142.278 142.041 142.197 141.972 142.144 141.917 142.078 141.84 
141.695 141.845 141.584 141.685 141.397 141.555 141.356 141.616 141.481 
141.717 141.534 141.683 141.468 141.601 141.404 141.547 141.35 141.481 
141.27 139.056 139.261 139.337 139.743 139.563 139.616 140.055 140.106 
140.559 139.852 139.923 140.391 140.471 140.933 140.971 141.398 140.159 
140.191 140.639 140.768 141.255 141.34 141.741 141.761 142.109 140.552 
140.53 140.918 140.995 141.487 141.619 142.086 142.123 142.5 142.466 
142.833 140.869 140.909 141.28 141.311 141.762 141.861 142.379 142.472 
142.935 142.926 143.326 143.267 143.677 141.024 141.137 141.53 141.633 
142.063 142.161 142.646 142.765 143.238 143.315 143.69 143.711 144.041 
144.066 144.417 141.209 141.278 141.67 141.809 142.25 142.402 142.859 
143.006 143.443 143.557 143.893 143.951 144.196 144.266 144.523 144.648 
144.942 141.519 141.525 141.898 141.974 142.414 142.552 143.012 143.168 
143.602 143.73 144.086 144.136 144.391 144.393 144.625 144.684 144.971 
145.103 145.414 
POINT_DATA 1002
SCALARS Distance double
LOOKUP_TABLE default
145.889 145.878 146.061 145.923 145.987 145.388 145.503 145.558 145.145 
144.608 144.94 145.148 144.633 144.283 143.925 144.808 145 144.417 
144.027 143.656 143.209 144.792 144.815 144.51 144.077 143.571 143.01 
142.469 144.352 144.483 144.18 143.938 143.538 142.983 142.446 142.005 
143.85 144.216 143.583 143.462 143.256 142.828 142.386 142.023 141.65 
143.623 144.019 143.318 143.21 143.031 142.545 142.028 141.719 141.476 
141.168 143.456 143.754 143.225 143.137 142.961 142.409 141.693 141.229 
141.026 140.872 140.684 145.705 145.797 145.579 145.542 145.91 145.779 
145.706 146.513 145.633 145.569 146.105 146.863 145.806 145.676 145.275 
146.415 146.981 146.104 145.989 145.467 144.987 146.623 147.061 146.269 
146.327 145.99 145.208 144.778 146.587 146.908 146.133 146.259 146.509 
145.951 145.147 144.676 146.239 146.46 145.762 145.721 146.32 146.485 
145.798 145.055 144.534 145.842 145.97 145.501 145.304 145.692 146.197 
145.991 145.295 144.707 144.236 145.59 145.519 145.435 145.603 145.332 
145.389 145.582 144.887 145.65 145.408 144.902 144.161 145.421 145.453 
145.62 143.974 143.504 144.502 144.837 145.058 145.546 143.28 142.89 
143.654 143.992 144.225 144.546 145.025 142.645 142.227 143.036 143.35 
143.579 143.784 144.106 144.496 141.961 141.607 142.348 142.669 142.927 
143.195 143.482 143.798 144.093 141.316 141.054 141.622 141.897 142.139 
142.453 142.83 143.16 143.435 143.654 143.207 142.993 142.548 142.726 
142.224 141.829 142.421 141.894 141.457 141.116 142.03 141.553 141.054 
140.683 140.309 141.617 141.161 140.663 140.203 139.814 139.402 141.318 
140.765 140.233 139.75 139.379 139.003 138.639 141.098 140.493 139.849 
139.275 138.932 138.68 138.335 138.029 140.857 140.31 139.684 139.012 
138.497 138.239 137.998 137.665 137.401 140.611 140.109 139.601 139.034 
138.384 137.866 137.57 137.308 137.016 136.802 142.984 142.328 142.848 
141.515 142.05 142.669 140.704 141.058 141.644 142.204 139.833 140.23 
140.692 141.218 141.507 138.965 139.396 139.929 140.519 140.832 140.922 
138.31 138.627 139.013 139.646 140.259 140.465 140.607 137.719 138.053 
138.274 138.628 139.317 139.912 140.18 140.454 137.063 137.439 137.754 
138.016 138.492 139.149 139.663 140.009 140.348 136.399 136.642 136.048 
136.218 135.747 137.016 135.848 135.524 136.574 137.463 135.633 135.478 
136.191 137.235 137.994 135.648 135.55 135.998 136.946 137.955 138.564 
135.661 135.459 136.055 136.748 137.612 138.397 139.065 135.454 135.238 
136.057 136.807 137.376 137.986 138.802 139.531 135.358 135.265 135.915 
136.807 137.44 137.84 138.545 139.395 139.976 135.686 135.634 136.007 
136.705 137.424 137.892 138.454 139.246 139.899 140.314 136.425 136.027 
136.093 135.546 135.597 135.64 134.818 135.06 134.926 135.277 134.397 
134.916 134.229 134.516 135.089 134.536 135.069 134.286 134.21 134.536 
135.181 134.608 135.129 134.519 134.526 134.445 134.792 135.32 134.543 
135.166 134.281 134.412 134.447 134.539 134.981 135.27 134.761 135.334 
134.227 133.999 134.038 134.234 134.668 135.1 135.229 135.182 135.561 
134.688 134.135 133.792 133.917 134.442 134.992 135.285 135.419 140.544 
140.006 139.939 139.36 139.317 139.493 138.779 138.799 138.894 139.063 
138.216 138.24 138.278 138.465 138.5 137.508 137.493 137.568 137.693 
137.785 137.759 136.796 136.775 136.886 136.934 136.956 137.014 137.195 
136.249 136.247 136.343 136.361 136.267 136.297 136.539 136.896 135.765 
135.843 135.778 135.789 135.658 135.591 135.87 136.295 136.652 141.15 
140.64 141.212 140.679 141.256 140.002 140.728 141.343 140.019 139.366 
140.817 141.359 140.108 139.408 138.856 140.741 141.193 140.202 139.507 
138.886 138.251 140.598 141.111 140.154 139.543 138.864 138.229 137.476 
140.721 141.291 140.213 139.569 138.791 138.145 137.504 136.786 140.967 
141.489 140.455 139.783 138.892 138.13 137.563 136.909 136.278 141.047 