# vtk DataFile Version 4.0
vtk output
ASCII
DATASET POLYDATA
POINTS 1002 float
-79.8114 -103.486 55.916 -79.8422 -103.315 56.6296 -80.3949 -103.599 56.3036 
-80.3872 -103.644 55.6821 -81.0489 -103.739 56.0443 -79.8167 -103.192 55.2416 
-81.045 -103.545 55.3875 -81.6902 -103.54 55.6887 -80.4177 -103.203 54.9262 
-79.8572 -102.851 54.2371 -81.6451 -103.084 54.92 -82.228 -103.039 55.2315 
-81.1118 -103.047 54.4598 -80.5318 -102.878 53.79 -79.8478 -102.793 53.0255 
-82.1141 -102.463 54.5223 -82.6743 -102.512 54.8491 -81.6906 -102.631 53.9741 
-81.247 -102.803 53.3032 -80.5641 -102.76 52.6751 -79.7124 -102.582 52.1316 
-82.6146 -102.049 54.1632 -83.1981 -102.093 54.3847 -82.1187 -102.152 53.653 
-81.7269 -102.451 52.9024 -81.2175 -102.607 52.2732 -80.4311 -102.394 51.8247 
-79.5617 -102.151 51.3681 -83.3714 -101.918 53.3941 -83.8038 -101.739 53.7202 
-82.7803 -102.001 53.0413 -82.1417 -102.049 52.4712 -81.6425 -102.257 51.7921 
-81.0763 -102.285 51.253 -80.3166 -102.048 50.836 -79.5191 -101.937 50.4102 
-84.1132 -101.812 52.5243 -84.1916 -101.408 53.1965 -83.761 -102.115 52.0421 
-82.9282 -101.959 51.7466 -82.137 -101.836 51.3376 -81.5871 -102.042 50.7222 
-80.9694 -102.062 50.1935 -80.2329 -101.848 49.8749 -79.491 -101.687 49.6494 
-84.4395 -101.481 52.1399 -84.3228 -101.05 52.9226 -84.4799 -101.979 51.4374 
-83.8303 -101.951 51.1213 -82.8282 -101.533 51.0002 -82.1102 -101.507 50.5766 
-81.4968 -101.733 49.938 -80.7649 -101.631 49.5392 -80.0316 -101.331 49.3857 
-79.3563 -101.082 49.2688 -84.5104 -100.955 52.0468 -84.5223 -100.66 52.6425 
-84.6778 -101.412 51.3806 -84.3383 -101.586 50.9592 -83.3973 -101.255 50.8312 
-82.5566 -100.98 50.5755 -81.954 -101.106 49.9921 -81.23 -101.14 49.4839 
-80.441 -100.858 49.2793 -79.7493 -100.57 49.1486 -79.1502 -100.428 48.939 
-80.1954 -103.003 57.2813 -80.8028 -103.276 56.85 -80.5157 -102.701 57.983 
-81.136 -102.892 57.4708 -80.8163 -102.726 58.6474 -81.5236 -103.463 56.4965 
-81.4774 -102.751 58.1119 -81.1919 -102.925 59.3631 -81.9506 -103.09 57.0519 
-82.2529 -103.385 56.085 -81.8491 -102.707 58.7294 -81.5422 -102.985 60.1249 
-82.3202 -102.768 57.6149 -82.7619 -103.127 56.6266 -82.8416 -103.075 55.6084 
-82.1207 -102.549 59.2956 -81.7794 -102.85 60.7452 -82.557 -102.408 58.0625 
-83.0356 -102.668 57.1667 -83.3598 -102.948 56.1197 -83.3333 -102.645 55.1174 
-82.3872 -102.316 59.8449 -82.0277 -102.504 61.0827 -82.7983 -102.164 58.5661 
-83.1729 -102.17 57.6116 -83.6393 -102.477 56.6233 -83.9702 -102.572 55.4848 
-83.8997 -102.121 54.5681 -82.7182 -102.015 60.2487 -82.2713 -101.996 61.0903 
-83.218 -102.115 59.2373 -83.5392 -102.048 58.1861 -83.9008 -102.034 57.0585 
-84.4508 -102.231 55.8795 -84.6392 -102.096 54.9223 -84.3515 -101.617 54.1171 
-82.9511 -101.642 60.359 -82.4281 -101.502 60.9169 -83.5626 -101.954 59.7301 
-84.0031 -102.066 58.8277 -84.2858 -101.874 57.5655 -84.7306 -101.85 56.2611 
-85.1282 -101.928 55.3067 -84.9723 -101.64 54.5945 -84.5107 -101.207 53.8056 
-83.1007 -101.242 60.3408 -82.5939 -101.093 60.8144 -83.665 -101.537 59.8755 
-84.1682 -101.755 59.1828 -84.5415 -101.647 58.0579 -84.8658 -101.494 56.7481 
-85.1956 -101.565 55.7118 -85.313 -101.527 54.9449 -85.0568 -101.184 54.1826 
-84.6841 -100.823 53.3861 -83.1853 -100.763 60.5475 -83.6413 -100.917 60.0331 
-83.8104 -100.305 60.267 -84.0491 -100.391 59.5271 -84.1709 -99.7532 59.6735 
-84.0372 -101.106 59.3721 -84.3242 -99.8692 58.7224 -84.277 -99.2765 58.7902 
-84.3354 -100.474 58.5909 -84.49 -101.134 58.4341 -84.5919 -99.4068 57.8751 
-84.3952 -98.7916 57.9488 -84.7962 -99.9565 57.829 -84.9353 -100.474 57.7139 
-84.9396 -101.032 57.3138 -84.7212 -98.8188 57.0677 -84.5166 -98.2344 57.1885 
-85.1743 -99.4074 57.1432 -85.4908 -99.946 57.2561 -85.3481 -100.492 56.9318 
-85.1684 -101.062 56.2588 -84.6361 -98.2687 56.1789 -84.5141 -97.7556 56.3483 
-85.0825 -98.7579 56.2291 -85.5956 -99.2878 56.4819 -85.571 -99.8822 56.3919 
-85.2882 -100.498 55.7929 -85.2812 -101.098 55.2285 -84.6258 -97.796 55.3649 
-84.471 -97.3151 55.5077 -84.9266 -98.2109 55.3008 -85.3176 -98.6238 55.3451 
-85.4505 -99.1596 55.2219 -85.405 -99.7545 54.7196 -85.4538 -100.365 54.2431 
-85.3936 -100.898 54.1537 -84.734 -97.2056 54.7369 -84.4206 -96.8398 54.785 
-85.0774 -97.5882 54.6613 -85.3245 -97.9931 54.4761 -85.3736 -98.5293 54.126 
-85.5424 -99.1271 53.5944 -85.926 -99.6788 53.0939 -85.9297 -100.195 53.0007 
-85.3414 -100.588 53.2495 -84.7022 -96.6408 54.1462 -84.2977 -96.4295 54.1577 
-85.173 -96.9105 54.0969 -85.5126 -97.2759 53.8577 -85.5401 -97.8565 53.427 
-85.6497 -98.5905 52.9737 -86.2222 -99.2301 52.5715 -86.5926 -99.708 52.3106 
-86.0752 -100.077 52.3617 -85.1301 -100.363 52.5868 -84.7777 -100.357 51.9688 
-85.5293 -100.038 51.8861 -85.0455 -100.049 51.1478 -86.4795 -99.7626 51.8918 
-85.7193 -99.739 51.1269 -85.1284 -99.7917 50.1648 -86.7084 -99.3662 52.0992 
-86.2944 -99.3543 51.3787 -85.512 -99.325 50.246 -84.9284 -99.4283 49.4427 
-86.0961 -98.7369 52.2629 -86.1477 -98.7689 51.585 -85.6636 -98.6587 50.5129 
-85.0659 -98.6194 49.6131 -84.4468 -98.7198 49.2443 -85.6214 -97.8837 52.4069 
-85.5849 -97.9958 51.5433 -85.4047 -97.9769 50.6116 -85.0897 -97.8262 49.7367 
-84.5394 -97.7404 49.3331 -83.7947 -97.8656 49.0869 -85.5553 -97.0996 52.7752 
-85.2935 -97.1789 51.6648 -85.0527 -97.2996 50.7516 -84.9585 -97.2743 49.8697 
-84.6515 -97.102 49.2594 -83.9213 -97.0171 49.0287 -83.1142 -97.2259 48.736 
-85.3111 -96.6427 53.1854 -85.1207 -96.6047 52.043 -84.8703 -96.6085 51.1007 
-84.8221 -96.5668 50.2479 -84.711 -96.5567 49.3553 -84.1095 -96.5033 48.8848 
-83.2033 -96.5263 48.7441 -82.4848 -96.7645 48.4267 -84.8091 -96.3995 53.4007 
-84.7638 -96.2988 52.3911 -84.7065 -96.1044 51.4216 -84.7684 -95.7332 50.6002 
-84.756 -95.6286 49.6642 -84.2994 -95.8449 48.9229 -83.3935 -96.0029 48.7007 
-82.5221 -96.1158 48.5322 -82.0117 -96.3111 48.0567 -84.3437 -96.2058 53.4966 
-84.3656 -96.0475 52.6662 -84.4688 -95.7701 51.7485 -84.6641 -95.2094 50.8887 
-84.7198 -94.803 49.9882 -84.3814 -94.9702 49.1621 -83.6093 -95.3428 48.7531 
-82.7044 -95.549 48.5486 -82.0682 -95.6879 48.112 -81.766 -95.8579 47.4697 
-84.6992 -100.612 51.4276 -84.7826 -100.221 50.5836 -84.585 -100.885 50.9362 
-84.6957 -99.9566 49.6361 -84.2993 -100.346 50.2163 -83.861 -100.846 50.6672 
-84.341 -99.5673 49.1273 -83.9761 -100.01 49.3712 -83.374 -100.297 49.9311 
-82.9002 -100.61 50.3958 -83.695 -98.8094 48.9569 -83.4942 -99.4897 48.8884 
-83.0182 -99.9333 49.0612 -82.532 -100.3 49.4425 -82.2443 -100.618 49.8436 
-82.9829 -98.0362 48.6031 -82.8163 -98.6958 48.5627 -82.509 -99.2576 48.6049 
-82.156 -99.9476 48.6185 -81.8821 -100.403 48.8666 -81.5832 -100.669 49.2855 
-82.3838 -97.4692 48.1761 -82.2057 -98.0415 48.095 -81.9016 -98.4542 48.2518 
-81.6296 -99.2096 48.2391 -81.4483 -100.012 48.1697 -81.1597 -100.257 48.5423 
-80.7572 -100.4 49.0498 -81.9326 -96.9206 47.7735 -81.7845 -97.5093 47.5875 
-81.4996 -97.9169 47.6607 -81.2419 -98.5187 47.723 -81.1137 -99.4311 47.606 
-80.878 -99.9257 47.8012 -80.4133 -99.9131 48.4155 -79.984 -100.072 48.925 
-81.6645 -96.3477 47.227 -81.5131 -96.9086 47.0474 -81.2884 -97.4625 46.9898 
-81.107 -98.107 46.9438 -81.0117 -98.9617 46.827 -80.786 -99.6241 46.9603 
-80.27 -99.7542 47.542 -79.6866 -99.7396 48.2055 -79.3217 -99.981 48.6504 
-81.569 -95.6863 46.6583 -81.3769 -96.1613 46.4931 -81.2112 -95.5257 46.0868 
-80.892 -96.052 45.9912 -80.4896 -95.4509 45.7562 -81.1286 -96.7691 46.4163 
-80.1415 -96.1154 45.6384 -79.6159 -95.5525 45.2683 -80.6371 -96.8168 45.9415 
-80.9757 -97.5768 46.2976 -79.3183 -96.2768 45.2489 -78.947 -95.8049 44.8737 
-79.9131 -96.9488 45.6602 -80.5622 -97.8356 45.7732 -80.9339 -98.5379 46.0818 
-78.5719 -96.4143 45.1631 -78.3588 -95.992 45.1913 -78.9823 -97.0138 45.5085 
-79.6772 -97.8916 45.6579 -80.358 -98.7589 45.6805 -80.6966 -99.3068 46.1376 
-77.7908 -96.4886 45.5394 -77.5659 -96.0286 45.8233 -78.0493 -97.1327 45.5294 
-78.5244 -97.8899 45.7 -79.1826 -98.6275 45.8416 -79.7486 -99.2369 46.1088 
-80.0801 -99.6038 46.7219 -76.9485 -96.57 45.921 -76.7216 -96.1143 46.1679 
-77.1837 -97.3236 45.6965 -77.5378 -98.1153 45.7086 -78.0458 -98.6716 45.9798 
-78.5664 -99.1411 46.3309 -78.9943 -99.5508 46.7563 -79.3552 -99.704 47.422 
-76.2158 -96.7607 46.183 -76.0883 -96.3619 46.4233 -76.3883 -97.4927 45.9319 
-76.6825 -98.3397 45.8363 -77.1442 -98.9341 46.0007 -77.6675 -99.3757 46.3121 
-78.0974 -99.7966 46.6564 -78.4709 -99.9627 47.1781 -78.8803 -99.9023 47.9372 
-75.6551 -97.0312 46.546 -75.6421 -96.6545 46.8547 -75.7406 -97.6682 46.2827 
-75.9462 -98.4236 46.1839 -76.3053 -99.0392 46.2333 -76.8241 -99.5874 46.3206 
-77.3767 -100.133 46.4941 -77.8306 -100.359 46.9313 -78.2347 -100.231 47.6507 
-78.6769 -100.172 48.4064 -81.7709 -95.2855 47.2065 -81.5302 -95.0945 46.4373 
-81.7747 -94.599 47.0279 -81.3275 -94.4208 46.4403 -81.6629 -93.9332 47.0547 
-80.9618 -94.915 46.0574 -80.918 -93.9172 46.6282 -81.3716 -93.6563 47.3886 
-80.4551 -94.2547 46.174 -80.0162 -94.7933 45.7079 -80.3792 -93.8265 47.0898 
-80.8713 -93.733 48.1318 -79.8645 -93.8807 46.3283 -79.4627 -94.1531 45.7331 
-79.1991 -94.9439 45.1193 -79.7606 -93.7948 47.9386 -80.2519 -93.7875 48.9965 
-79.3563 -93.8177 46.8638 -79.0509 -93.9174 46.0231 -78.8791 -94.4395 45.4317 
-78.7035 -95.3298 45.0951 -79.2028 -93.6566 48.7706 -79.7507 -93.8191 49.6231 
-78.9052 -93.6962 47.8579 -78.7421 -94.0029 46.8904 -78.5833 -94.3351 46.2188 
-78.3782 -94.8892 45.8769 -78.0306 -95.5607 45.7604 -78.8205 -93.6848 49.4278 
-79.3939 -93.8669 50.2659 -78.5322 -93.664 48.7871 -78.4237 -94.1232 48.0248 
-78.1824 -94.4963 47.1958 -77.8094 -94.6109 46.6395 -77.4308 -95.0374 46.3309 
-77.0689 -95.6363 46.197 -78.4829 -93.7503 50.2519 -79.0102 -93.7809 51.1469 
-78.1963 -93.8076 49.6042 -78.1031 -94.2612 49.0084 -77.7951 -94.6645 48.1594 
-77.1946 -94.5085 47.2862 -76.6744 -94.5163 46.6874 -76.4176 -95.1573 46.4031 
-76.2778 -95.8566 46.3767 -78.127 -93.6841 51.1658 -78.596 -93.6422 51.9717 
-77.831 -93.828 50.4704 -77.7317 -94.2462 49.8871 -77.4823 -94.6676 49.1265 
[...]
CELL_DATA 2000
SCALARS Distance double
LOOKUP_TABLE default
141.393 141.761 141.451 141.104 141.973 141.751 141.357 141.021 140.542 
141.866 141.782 141.395 141.192 140.728 140.414 139.964 141.589 141.538 
141.175 141.116 140.766 140.582 140.182 139.879 139.443 141.393 141.289 
140.943 140.881 140.598 140.544 140.234 140.058 139.618 139.307 138.806 
141.303 141.201 140.928 140.774 140.469 140.356 140.058 139.99 139.621 
139.426 138.94 138.632 138.173 141.197 141.182 141.055 140.903 140.623 
140.343 139.969 139.796 139.473 139.366 138.995 138.765 138.329 138.046 
137.657 140.975 141.065 141.043 141.048 140.855 140.582 140.132 139.799 
139.388 139.235 138.917 138.784 138.383 138.159 137.703 137.484 137.056 
140.671 140.788 140.756 140.92 140.782 140.712 140.251 139.945 139.395 
139.172 138.776 138.674 138.283 138.125 137.628 137.431 136.929 136.773 
136.329 141.529 141.759 141.729 141.904 142.048 141.935 142.11 142.109 
142.188 142.534 142.258 142.345 142.31 142.457 142.337 142.205 143.079 
142.735 142.675 142.56 142.697 142.63 142.608 142.303 142.015 143.455 
143.156 142.929 142.792 142.799 142.819 142.864 142.72 142.52 142.119 
141.796 143.637 143.417 143.148 142.959 142.843 142.821 142.854 142.878 
142.816 142.602 142.311 141.905 141.603 143.625 143.549 143.428 143.247 
143.179 142.963 142.943 142.857 142.891 142.827 142.712 142.41 142.083 
141.682 141.397 143.414 143.497 143.544 143.552 143.616 143.423 143.347 
143.083 143.013 142.908 142.896 142.764 142.562 142.184 141.806 141.421 
141.131 143.158 143.291 143.391 143.562 143.661 143.707 143.598 143.43 
143.186 143.033 142.897 142.863 142.733 142.563 142.23 141.852 141.449 
141.113 140.841 143.078 143.037 143.129 143.309 142.759 142.976 143.083 
143.324 143.505 142.229 142.544 142.596 142.917 143.027 143.374 143.42 
141.644 141.985 142.115 142.41 142.534 142.83 142.907 143.15 143.083 
141.014 141.393 141.581 141.962 142.183 142.46 142.574 142.725 142.716 
142.832 142.797 140.319 140.703 140.809 141.308 141.514 142.007 142.097 
142.387 142.282 142.46 142.367 142.589 142.557 139.655 139.997 140.047 
140.475 140.585 141.123 141.158 141.638 141.479 141.833 141.645 142 
141.906 142.24 142.083 139.021 139.36 139.434 139.779 139.85 140.227 
140.239 140.632 140.569 140.937 140.883 141.237 141.229 141.541 141.446 
141.653 141.398 138.392 138.734 138.813 139.175 139.235 139.565 139.563 
139.859 139.873 140.19 140.33 140.655 140.844 141.064 141.097 141.167 
140.994 141.019 140.797 140.53 140.735 140.492 140.224 140.97 140.78 
140.478 140.166 139.819 140.807 140.9 140.643 140.411 139.913 139.634 
139.199 140.185 140.473 140.229 140.306 139.734 139.574 138.939 138.844 
138.366 139.556 139.729 139.399 139.612 139.091 139.137 138.478 138.44 
137.854 137.875 137.377 139.186 139.166 138.737 138.799 138.343 138.423 
137.923 137.932 137.411 137.37 136.857 136.842 136.36 138.875 138.828 
138.363 138.293 137.831 137.819 137.407 137.43 137.018 136.99 136.518 
136.426 135.933 135.883 135.461 138.47 138.471 138.029 137.968 137.498 
137.431 136.978 136.965 136.539 136.568 136.133 136.111 135.633 135.548 
135.091 135.054 134.68 138.062 138.062 137.666 137.632 137.208 137.135 
136.675 136.585 136.11 136.076 135.645 135.672 135.26 135.243 134.803 
134.736 134.322 134.303 133.963 140.48 140.138 140.355 140.514 139.678 
139.939 140.019 140.378 140.481 139.111 139.405 139.376 139.73 139.705 
140.098 139.938 138.387 138.777 138.715 139.02 138.872 139.203 139.009 
139.351 139.114 137.414 137.933 137.882 138.274 138.088 138.38 138.17 
138.468 138.311 138.615 138.5 136.361 136.88 136.819 137.301 137.129 
137.525 137.336 137.69 137.555 137.878 137.762 138.079 137.964 135.451 
135.874 135.81 136.235 136.076 136.488 136.337 136.789 136.71 137.121 
136.991 137.308 137.108 137.447 137.269 134.662 135.026 134.964 135.324 
135.193 135.521 135.399 135.804 135.807 136.261 136.235 136.553 136.354 
136.593 136.363 136.701 136.558 133.934 134.256 134.179 134.523 134.432 
134.742 134.675 135.005 135.063 135.461 135.55 135.87 135.775 135.941 
135.71 135.894 135.726 136.052 135.979 133.532 132.992 133.412 133.737 
132.432 132.866 133.184 133.636 133.987 131.847 132.306 132.685 133.129 
133.547 133.953 134.331 131.352 131.753 132.194 132.666 133.181 133.617 
134.108 134.416 134.818 131.074 131.341 131.713 132.165 132.674 133.217 
133.747 134.201 134.626 134.935 135.269 130.871 131.087 131.342 131.701 
132.113 132.633 133.103 133.674 134.067 134.565 134.834 135.23 135.416 
130.591 130.819 131.045 131.353 131.721 132.121 132.549 133.011 133.397 
133.883 134.177 134.63 134.818 135.208 135.336 130.39 130.549 130.794 
131.063 131.437 131.787 132.21 132.572 132.976 133.34 133.705 134.056 
134.336 134.646 134.847 135.148 135.354 130.396 130.453 130.69 130.873 
131.231 131.526 131.927 132.261 132.653 133.006 133.404 133.738 134.084 
134.331 134.58 134.786 135.021 135.288 135.587 133.299 132.777 132.95 
132.763 132.217 132.393 132.189 132.387 132.182 131.775 131.835 131.562 
131.741 131.478 131.722 131.513 131.618 131.492 131.114 131.123 130.78 
130.956 130.745 131.058 130.992 131.585 131.39 130.952 130.802 130.429 
130.398 130.229 130.4 130.457 130.736 130.83 131.52 131.309 130.878 
130.716 130.435 130.299 130.192 130.153 130.234 130.367 130.506 130.69 
130.718 131.536 131.262 130.879 130.705 130.569 130.461 130.428 130.295 
130.225 130.203 130.157 130.327 130.286 130.494 130.419 131.624 131.347 
131.012 130.818 130.76 130.685 130.7 130.551 130.312 130.119 129.766 
129.826 129.657 129.947 129.926 130.191 130.204 131.663 131.445 131.137 
130.981 130.905 130.877 130.882 130.78 130.497 130.177 129.663 129.444 
129.174 129.327 129.422 129.731 129.919 130.127 130.256 137.748 137.165 
137.417 137.337 136.545 136.81 136.711 136.986 136.891 135.887 136.159 
136.057 136.345 136.231 136.503 136.36 135.218 135.483 135.376 135.679 
135.577 135.843 135.671 135.916 135.756 134.498 134.772 134.62 134.958 
134.869 135.186 135.036 135.255 135.063 135.318 135.241 133.803 134.036 
133.841 134.151 134.026 134.406 134.271 134.583 134.378 134.638 134.5 
134.847 134.839 133.242 133.418 133.239 133.429 133.266 133.554 133.394 
133.731 133.506 133.841 133.635 134.034 133.951 134.41 134.39 132.69 
132.897 132.722 132.887 132.684 132.873 132.679 132.912 132.682 132.939 
132.707 133.068 132.957 133.441 133.43 133.92 133.919 132.058 132.295 
132.079 132.298 132.034 132.253 132.013 132.25 132.032 132.231 132.012 
132.231 132.12 132.484 132.522 132.983 133.063 133.508 133.571 137.892 
137.948 137.724 137.328 137.989 137.776 137.363 137.139 136.711 137.977 
137.788 137.361 137.148 136.698 136.485 136.047 137.948 137.762 137.326 
137.113 136.646 136.443 136.001 135.817 135.391 137.927 137.737 137.299 
137.073 136.581 136.366 135.911 135.748 135.326 135.153 134.705 137.906 
137.714 137.277 137.052 136.557 136.312 135.824 135.638 135.196 135.048 
134.596 134.426 133.986 137.863 137.679 137.236 137.026 136.549 136.306 
135.808 135.57 135.087 134.899 134.427 134.272 133.825 133.708 133.348 
137.758 137.606 137.162 136.975 136.516 136.3 135.822 135.573 135.069 
134.821 134.318 134.112 133.646 133.513 133.129 133.08 132.766 137.601 
137.48 137.062 136.895 136.458 136.266 135.814 135.584 135.09 134.823 
134.314 134.057 133.591 133.386 132.991 132.866 132.532 132.481 132.168 
137.397 136.988 137.079 136.864 136.555 136.645 136.367 136.495 136.256 
135.933 136.109 135.781 135.949 135.669 135.848 135.598 135.174 135.391 
135.073 135.287 134.986 135.199 134.91 135.13 134.851 134.531 134.679 
134.391 134.568 134.256 134.46 134.143 134.381 134.086 134.337 134.066 
134.073 134.153 133.864 133.953 133.591 133.716 133.359 133.582 133.315 
133.581 133.358 133.592 133.374 133.673 133.746 133.47 133.509 133.123 
133.115 132.705 132.823 132.586 132.855 132.726 132.962 132.789 132.966 
132.788 133.222 133.317 133.073 133.154 132.852 132.783 132.383 132.313 
132.049 132.205 132.126 132.378 132.257 132.43 132.231 132.411 132.28 
132.733 132.817 132.562 132.724 132.523 132.571 132.267 132.148 131.826 
131.798 131.636 131.809 131.698 131.893 131.697 131.861 131.684 131.922 
131.862 132.359 131.74 132.049 132.168 131.255 131.472 131.589 131.976 
132.17 130.978 131.071 131.124 131.426 131.617 131.975 132.023 130.882 
130.906 130.929 131.054 131.165 131.426 131.477 131.717 131.639 130.826 
130.886 130.962 130.981 131.006 131.065 131.026 131.177 131.119 131.341 
131.367 130.693 130.81 130.867 130.959 130.9 130.927 130.766 130.806 
130.689 130.851 130.885 131.179 131.337 130.523 130.614 130.503 130.64 
130.409 130.578 130.352 130.513 130.415 130.551 130.597 130.769 130.905 
131.179 131.344 130.389 130.401 130.138 130.15 129.75 129.873 129.629 
129.939 130.018 130.332 130.535 130.663 130.801 130.871 130.995 131.193 
131.37 130.312 130.262 129.998 129.862 129.473 129.351 129.147 129.303 
129.549 129.954 130.387 130.654 130.865 130.884 130.928 130.969 131.101 
131.303 131.557 132.494 132.614 132.307 131.864 132.728 132.447 132.014 
131.737 131.397 132.759 132.505 132.097 131.887 131.559 131.346 131.112 
132.945 132.562 132.099 131.888 131.57 131.452 131.21 131.083 130.925 
133.388 132.887 132.393 131.987 131.639 131.433 131.216 131.111 130.921 
130.861 130.758 133.842 133.387 132.97 132.477 132.139 131.708 131.473 
131.188 130.995 130.833 130.672 130.658 130.609 134.228 133.827 133.483 
133.082 132.8 132.351 132.057 131.612 131.32 130.988 130.755 130.602 
130.502 130.524 130.518 134.639 134.242 133.918 133.561 133.298 132.938 
132.615 132.183 131.788 131.371 131.047 130.763 130.607 130.499 130.487 
130.484 130.478 135.028 134.674 134.366 134.008 133.733 133.379 133.057 
132.653 132.269 131.835 131.522 131.152 131.005 130.744 130.723 130.574 
130.585 130.491 130.452 132.976 133.785 133.292 133.116 134.521 134.097 
133.915 133.427 133.205 135.158 134.778 134.642 134.203 133.996 133.486 
133.263 135.911 135.447 135.372 134.947 134.848 134.337 134.19 133.627 
133.505 136.899 136.318 136.235 135.753 135.718 135.239 135.16 134.623 
134.535 133.981 133.921 138.032 137.403 137.281 136.695 136.603 136.108 
136.007 135.538 135.43 134.965 134.88 134.39 134.312 139.189 138.591 
138.499 137.819 137.67 137.04 136.885 136.346 136.207 135.76 135.684 
135.269 135.212 134.744 134.676 140.191 139.726 139.685 139.056 138.901 
138.195 138.012 137.331 137.163 136.578 136.484 136.038 136.021 135.61 
135.578 135.112 135.062 140.902 140.603 140.578 140.125 139.971 139.377 
139.166 138.507 138.297 137.633 137.45 136.886 136.793 136.375 136.339 
135.953 135.89 135.466 135.397 141.229 141.661 141.271 140.92 142.195 
141.689 141.215 140.835 140.339 142.625 142.148 141.502 141.075 140.509 
140.152 139.574 142.591 142.349 141.651 141.281 140.627 140.281 139.701 
139.351 138.733 142.173 142.109 141.519 141.304 140.669 140.362 139.749 
139.434 138.827 138.476 137.856 141.737 141.7 141.231 141.114 140.587 
140.357 139.763 139.462 138.847 138.526 137.937 137.618 137.118 141.397 
141.363 140.974 140.879 140.425 140.249 139.716 139.46 138.889 138.576 
138.024 137.704 137.24 136.973 136.611 141.182 141.12 140.815 140.703 
140.301 140.118 139.625 139.4 138.904 138.649 138.175 137.861 137.411 
137.109 136.729 136.499 136.163 141.16 141.025 140.767 140.621 140.267 
140.059 139.599 139.348 138.887 138.668 138.269 138.03 137.616 137.31 
136.883 136.606 136.233 136.021 135.679 141.131 140.799 140.882 140.655 
140.249 140.422 140.194 140.342 140.101 139.68 139.837 139.618 139.801 
139.551 139.702 139.408 139.132 139.284 139.031 139.208 138.945 139.105 
138.804 138.955 138.685 138.488 138.678 138.388 138.589 138.289 138.469 
138.158 138.334 138.078 138.278 138.08 137.88 138.02 137.74 137.917 
137.619 137.791 137.471 137.659 137.391 137.634 137.426 137.673 137.447 
137.388 137.485 137.206 137.32 137.043 137.165 136.865 137 136.716 
136.919 136.679 136.943 136.704 136.961 136.704 136.814 136.973 136.657 
136.793 136.481 136.616 136.316 136.443 136.151 136.289 136.021 136.208 
135.967 136.199 135.976 136.224 136.031 136.125 136.327 136.01 136.181 
135.848 136.012 135.702 135.872 135.585 135.738 135.461 135.607 135.363 
135.536 135.341 135.549 135.389 135.624 135.483 135.101 135.027 134.879 
134.499 134.971 134.816 134.441 134.272 133.864 134.961 134.764 134.356 
134.187 133.74 133.586 133.133 135.033 134.777 134.337 134.113 133.664 
133.461 132.993 132.82 132.36 135.142 134.867 134.428 134.154 133.738 
133.472 133.082 132.806 132.404 132.13 131.726 135.256 134.983 134.585 
134.305 133.922 133.629 133.277 132.995 132.668 132.352 131.992 131.639 
131.289 135.401 135.119 134.774 134.514 134.194 133.882 133.512 133.199 
132.847 132.597 132.259 131.97 131.598 131.269 130.965 135.556 135.28 
134.949 134.727 134.47 134.199 133.861 133.485 133.078 132.752 132.396 
132.152 131.797 131.532 131.176 130.938 130.708 135.669 135.416 135.068 
134.878 134.624 134.44 134.149 133.841 133.441 133.054 132.663 132.331 
131.986 131.695 131.341 131.088 130.795 130.653 130.492 143.145 143.502 
143.365 143.499 143.846 143.805 144.038 143.868 143.983 143.948 144.08 
144.315 144.313 144.377 144.217 144.087 143.745 144.018 144.161 144.325 
144.279 144.332 144.146 144.061 143.773 143.3 143.667 143.767 143.989 
143.909 144.036 143.928 143.984 143.836 143.71 143.436 142.683 143.105 
143.271 143.566 143.596 143.718 143.774 143.857 143.944 143.865 143.729 
143.426 143.078 142.074 142.434 142.622 143.037 143.184 143.449 143.591 
143.794 144.003 144.069 144.035 143.774 143.38 142.987 142.521 141.652 
141.854 141.934 142.342 142.483 142.91 143.017 143.434 143.581 143.947 
143.94 143.962 143.558 143.237 142.669 142.346 141.911 141.371 141.463 
141.41 141.679 141.728 142.124 142.167 142.633 142.677 143.208 143.187 
143.553 143.233 143.216 142.655 142.429 141.941 141.747 141.423 143.013 
143.255 142.99 142.799 143.649 143.289 142.931 142.706 142.447 143.795 
143.591 143.175 142.875 142.49 142.287 141.974 143.535 143.53 143.169 
143.018 142.615 142.387 142.008 141.797 141.438 143.127 143.162 142.792 
142.803 142.421 142.384 142.018 141.87 141.463 141.241 140.818 142.712 
142.751 142.342 142.349 141.924 141.985 141.643 141.714 141.355 141.252 
140.78 140.567 140.108 142.21 142.31 141.965 141.959 141.548 141.506 
141.138 141.214 140.911 140.98 140.553 140.456 139.927 139.792 139.353 
141.675 141.798 141.53 141.598 141.266 141.222 140.849 140.807 140.474 
140.502 140.116 140.098 139.578 139.505 139.002 138.985 138.614 141.22 
141.307 141.032 141.131 140.813 140.88 140.514 140.528 140.148 140.136 
139.728 139.68 139.199 139.116 138.632 138.592 138.211 138.25 137.962 
142.96 142.768 142.905 142.931 142.418 142.645 142.668 142.818 142.706 
141.897 142.181 142.152 142.411 142.263 142.408 142.145 141.309 141.592 
141.506 141.782 141.585 141.806 141.543 141.737 141.48 140.659 140.954 
140.865 141.135 140.94 141.115 140.86 141.067 140.879 141.098 140.883 
139.954 140.255 140.163 140.477 140.33 140.523 140.272 140.434 140.254 
140.492 140.349 140.521 140.268 139.268 139.554 139.445 139.753 139.619 
139.881 139.648 139.846 139.612 139.859 139.698 139.95 139.733 139.879 
139.588 138.604 138.891 138.792 139.06 138.914 139.165 138.959 139.18 
138.946 139.181 138.984 139.254 139.056 139.282 139.019 139.179 138.908 
137.965 138.243 138.157 138.419 138.276 138.503 138.317 138.522 138.325 
138.527 138.34 138.562 138.384 138.608 138.401 138.586 138.346 138.508 
138.279 133.093 133.534 133.489 133.865 133.954 133.91 134.257 134.257 
134.601 134.355 134.309 134.659 134.651 135.015 134.966 135.265 134.84 
134.744 135.132 135.093 135.53 135.46 135.848 135.702 136.059 135.536 
135.351 135.773 135.65 136.133 136.051 136.532 136.398 136.829 136.636 
137.069 136.322 136.143 136.568 136.384 136.828 136.699 137.171 137.085 
137.541 137.419 137.85 137.693 138.153 136.896 136.839 137.219 137.127 
137.51 137.394 137.81 137.716 138.156 138.068 138.491 138.395 138.831 
138.747 139.223 137.254 137.252 137.573 137.596 137.958 137.963 138.379 
138.341 138.79 138.699 139.133 139.013 139.437 139.351 139.797 139.754 
140.184 137.622 137.569 137.87 137.875 138.256 138.316 138.775 138.833 
139.305 139.3 139.735 139.658 140.058 139.957 140.346 140.272 140.639 
140.594 140.9 
POINT_DATA 1002
SCALARS Distance double
LOOKUP_TABLE default
141.147 141.323 141.71 141.495 142.079 140.672 141.68 142.161 140.897 
140.057 141.508 141.93 140.999 140.289 139.548 141.176 141.661 140.844 
140.459 139.801 138.982 141.031 141.487 140.623 140.33 139.915 139.141 
138.297 141.088 141.337 140.669 140.119 139.728 139.223 138.459 137.765 
141.125 141.133 140.957 140.246 139.544 139.149 138.614 137.917 137.29 
140.94 140.853 141.065 140.545 139.608 139.014 138.589 137.946 137.246 
136.632 140.573 140.59 140.756 140.526 139.683 138.895 138.421 137.839 
137.1 136.441 135.915 141.556 141.923 141.802 142.083 142.261 142.327 
142.435 142.909 142.522 142.525 142.866 143.466 142.727 142.845 142.456 
143.14 143.763 142.786 142.888 142.863 142.242 143.353 143.799 142.955 
142.79 142.886 142.703 141.988 143.497 143.582 143.437 143.147 142.896 
142.895 142.541 141.723 143.414 143.25 143.725 143.689 143.209 142.938 
142.858 142.289 141.408 143.211 143.014 143.551 143.711 143.396 142.957 
142.797 142.545 141.859 141.08 143.011 143.167 142.936 142.827 142.515 
143.256 142.293 141.881 142.668 143.157 141.784 141.27 142.269 142.667 
142.9 141.126 140.647 141.836 142.445 142.612 142.64 140.338 139.976 
140.965 141.741 142.105 142.132 142.332 139.681 139.31 140.125 140.665 
141.071 141.265 141.541 141.847 139.09 138.665 139.534 139.893 140.161 
140.479 140.909 141.24 141.256 138.449 138.061 138.903 139.271 139.526 
139.934 140.58 141.044 141.008 140.723 140.279 140.475 139.921 140.86 
140.102 139.435 140.798 140.273 139.366 138.799 140.043 139.847 139.084 
138.369 137.932 139.21 138.946 138.482 137.868 137.326 136.873 138.762 
138.242 137.842 137.447 136.918 136.329 135.88 138.452 137.877 137.375 
137.004 136.606 136.03 135.442 135.06 138.059 137.577 137.042 136.518 
136.096 135.698 135.173 134.66 134.32 137.678 137.263 136.786 136.196 
135.617 135.224 134.86 134.377 133.931 133.64 140.215 139.681 140.163 
139.102 139.348 139.605 138.43 138.613 138.657 138.766 137.438 137.779 
137.873 137.983 138.185 136.331 136.688 136.922 137.214 137.468 137.633 
135.413 135.687 135.856 136.234 136.683 136.822 136.869 134.606 134.873 
135.021 135.322 135.867 136.155 136.088 136.133 133.843 134.09 134.333 
134.673 135.196 135.59 135.582 135.462 135.584 133.114 133.28 132.584 
132.735 131.979 133.539 132.206 131.357 133.115 133.989 131.696 131.004 
132.68 133.75 134.587 131.322 130.898 132.121 133.224 134.269 135.025 
131.043 130.673 131.663 132.556 133.532 134.403 135.077 130.741 130.361 
131.354 132.147 132.946 133.716 134.413 134.967 130.546 130.264 131.098 
131.861 132.624 133.361 134.039 134.559 135.017 130.55 130.375 130.977 
131.62 132.3 133.035 133.817 134.397 134.785 135.264 133.144 132.592 
132.596 131.99 132.067 131.986 131.449 131.811 131.247 131.204 131.219 
131.827 130.676 130.419 130.616 131.127 131.805 130.513 130.102 130.168 
130.59 130.997 131.758 130.512 130.285 130.19 130.347 130.586 131.033 
131.82 130.607 130.59 130.414 130.076 130.051 130.226 131.189 131.867 
130.815 130.86 130.654 129.87 129.354 129.568 129.987 131.282 131.843 
130.942 130.96 130.829 130.01 129.111 129.061 129.639 130.132 137.504 
137.07 136.923 136.438 136.276 136.625 135.764 135.622 135.972 136.099 
135.065 134.967 135.301 135.461 135.455 134.286 134.243 134.509 134.797 
134.851 134.884 133.58 133.587 133.657 133.914 134.104 134.182 134.436 
133.09 133.051 133.05 133.092 133.178 133.239 133.484 133.935 132.554 
132.467 132.525 132.479 132.468 132.401 132.483 132.904 133.45 138.11 
137.558 138.179 137.594 138.195 136.937 137.577 138.161 136.913 136.244 
137.55 138.134 136.851 136.174 135.587 137.53 138.121 136.818 136.076 
135.486 134.907 137.494 138.105 136.809 136.045 135.353 134.752 134.131 
137.438 138.046 136.776 136.065 135.315 134.595 133.935 133.409 137.337 
137.893 136.711 136.061 135.34 134.553 133.806 133.198 132.781 137.21 