# vtk DataFile Version 4.0
vtk output
ASCII
DATASET POLYDATA
POINTS 1002 float
-80.59 -96.752 59.2034 -80.7411 -96.8632 59.9888 -81.225 -96.8583 59.6282 
-81.0871 -96.7898 58.6903 -81.678 -96.9275 59.0828 -80.4669 -96.7317 58.1373 
-81.6461 -96.702 58.1761 -82.2197 -97.0049 58.4336 -81.0222 -96.5502 57.7547 
-80.433 -96.3112 57.3874 -82.2804 -96.54 57.7052 -82.8053 -96.9948 57.859 
-81.6113 -96.1629 57.49 -81.0635 -95.8028 57.2919 -80.4196 -95.3423 57.1866 
-82.8417 -96.3978 57.2649 -83.3155 -96.8018 57.4454 -82.1625 -95.9272 57.091 
-81.5723 -95.4193 57.0126 -81.1038 -94.8936 57.0043 -80.3036 -94.5458 56.8512 
-83.3322 -96.2402 56.8023 -83.8429 -96.5762 57.0476 -82.7153 -95.8634 56.5208 
-82.0281 -95.4252 56.3349 -81.5547 -94.8795 56.3457 -80.981 -94.4797 56.2984 
-80.0816 -94.4018 55.9974 -83.8446 -96.1811 56.2285 -84.3951 -96.5663 56.4898 
-83.3419 -95.739 55.9818 -82.7144 -95.3419 55.7397 -82.0534 -94.9473 55.5996 
-81.442 -94.5591 55.5436 -80.6982 -94.3519 55.3683 -79.8622 -94.3048 55.0676 
-84.273 -96.2761 55.5664 -84.7887 -96.6819 55.8066 -83.8553 -95.6948 55.4782 
-83.4733 -95.0514 55.4502 -82.8666 -94.6011 55.3076 -82.0315 -94.3567 55.0866 
-81.1992 -94.1605 54.8231 -80.4369 -94.0052 54.5056 -79.7133 -93.9109 54.229 
-84.5804 -96.3294 54.968 -85.0254 -96.7392 55.1618 -84.1737 -95.7543 54.9562 
-83.9371 -94.9603 55.0838 -83.6353 -94.234 55.08 -82.8732 -93.935 54.8399 
-81.8343 -93.8999 54.4694 -80.9716 -93.805 54.0223 -80.2849 -93.6875 53.6061 
-79.6142 -93.6534 53.3495 -84.8622 -96.3121 54.5116 -85.2398 -96.7742 54.6511 
-84.4696 -95.7527 54.4823 -84.2085 -95.0248 54.5325 -84.0566 -94.2174 54.499 
-83.5877 -93.7214 54.3015 -82.5974 -93.6891 54.0151 -81.5635 -93.7529 53.6262 
-80.8202 -93.6976 53.1405 -80.1853 -93.6508 52.7448 -79.5222 -93.6776 52.5492 
-81.1741 -97.1657 60.3063 -81.6371 -97.1206 59.9913 -81.4982 -97.6634 60.5157 
-81.9828 -97.5893 60.1887 -81.7699 -98.273 60.6755 -82.0626 -97.2275 59.4229 
-82.4301 -98.0959 60.3117 -82.1716 -98.7716 60.8207 -82.5217 -97.5749 59.7195 
-82.6092 -97.3722 58.7299 -83.0041 -98.4585 60.4401 -82.6606 -99.0446 61.0429 
-83.2598 -97.7824 60.0598 -83.2382 -97.532 59.198 -83.2349 -97.3191 58.1322 
-83.4623 -98.821 60.6109 -83.0671 -99.3048 61.3253 -83.9441 -98.0738 60.2563 
-84.1189 -97.5819 59.6914 -83.9856 -97.387 58.5881 -83.8789 -97.0332 57.6806 
-83.8512 -99.343 60.7985 -83.4321 -99.7222 61.4289 -84.249 -98.7578 60.2127 
-84.571 -98.109 59.7298 -84.6915 -97.6455 58.8733 -84.667 -97.2379 57.9235 
-84.5597 -96.8512 57.2326 -84.3121 -99.8605 60.9007 -83.8062 -100.213 61.2789 
-84.5309 -99.4964 60.1842 -84.5986 -99.0072 59.4485 -84.7734 -98.4315 58.7107 
-85.0706 -97.804 57.9312 -85.2134 -97.2613 57.3069 -85.0679 -96.9286 56.6361 
-84.66 -100.296 60.8416 -84.12 -100.708 61.0695 -84.9054 -99.9574 60.2161 
-84.8487 -99.6026 59.3382 -84.8108 -99.1694 58.5101 -85.059 -98.5909 57.78 
-85.4014 -97.9333 57.1936 -85.482 -97.4165 56.6382 -85.2929 -97.0673 55.9055 
-84.7805 -100.738 60.6312 -84.3433 -101.181 60.9029 -85.0891 -100.331 60.0809 
-85.2275 -99.9165 59.3004 -85.2855 -99.4997 58.523 -85.3902 -99.0834 57.7894 
-85.5631 -98.584 57.0988 -85.6692 -98.0307 56.5077 -85.6124 -97.5507 55.8912 
-85.4439 -97.1548 55.2112 -84.6992 -101.32 60.4304 -84.9968 -100.888 59.8507 
-84.8932 -101.377 59.4832 -85.2224 -101.003 58.7248 -85.1792 -101.36 58.3413 
-85.3254 -100.416 59.1356 -85.7293 -101.112 57.8039 -85.7621 -101.468 57.5108 
-85.7694 -100.504 58.2099 -85.7296 -99.8573 58.5186 -86.4614 -101.341 57.2442 
-86.4737 -101.796 56.8446 -86.3962 -100.638 57.6336 -86.4276 -99.8441 57.909 
-86.0662 -99.3496 57.9265 -87.0188 -101.588 56.44 -86.8012 -101.951 55.9334 
-86.9241 -100.833 56.9639 -86.9172 -99.9161 57.2823 -86.7873 -99.2744 57.2953 
-86.1606 -98.9508 57.148 -87.0151 -101.475 55.3356 -86.5337 -101.632 55.0065 
-87.126 -100.931 55.7884 -87.0533 -100.023 56.2406 -87.0384 -99.2389 56.4426 
-86.7113 -98.8227 56.3916 -86.0795 -98.4976 56.3607 -86.613 -101.044 54.4496 
-86.0986 -101.199 54.3013 -86.9797 -100.761 54.5988 -87.0125 -100.095 54.9228 
-86.9839 -99.2154 55.3498 -86.9218 -98.5965 55.582 -86.5112 -98.2896 55.6068 
-85.9605 -97.9704 55.6891 -86.2595 -100.729 53.7641 -85.8459 -101.029 53.6319 
-86.7299 -100.474 53.7514 -86.9624 -100.065 53.7738 -86.9609 -99.2754 54.0875 
-86.9781 -98.3944 54.5629 -86.8364 -97.9274 54.8378 -86.3525 -97.7556 54.9211 
-85.8199 -97.4998 55.0378 -86.0161 -100.649 53.0559 -85.6674 -101.028 52.9236 
-86.489 -100.284 53.0651 -86.8861 -99.9386 52.9527 -87.033 -99.3434 52.9515 
-87.0674 -98.3936 53.2816 -87.0267 -97.6387 53.7644 -86.691 -97.4366 54.0993 
-86.131 -97.3699 54.2953 -85.6256 -97.1056 54.4751 -85.2587 -96.5514 54.1484 
-85.6692 -96.9535 53.8902 -85.2374 -96.2874 53.6414 -86.2084 -97.1491 53.5517 
-85.5752 -96.728 53.2493 -85.1293 -95.9264 52.9456 -86.792 -97.1338 53.0912 
-86.1082 -96.854 52.7314 -85.3758 -96.3388 52.4741 -84.9469 -95.5026 52.0279 
-87.1125 -97.5337 52.5551 -86.7026 -96.943 52.1652 -85.8514 -96.5364 51.9943 
-85.1192 -95.918 51.5764 -84.6778 -95.1794 51.0319 -87.0934 -98.5082 52.2228 
-86.8948 -97.6191 51.8188 -86.2305 -96.9438 51.6726 -85.3728 -96.3704 51.2915 
-84.7514 -95.6865 50.6649 -84.2913 -95.0437 50.2222 -86.8873 -99.347 52.2514 
-86.6251 -98.5741 51.8482 -86.0772 -97.7686 51.6499 -85.3997 -97.038 51.1941 
-84.798 -96.3361 50.4968 -84.2972 -95.6812 49.9962 -83.765 -95.1369 49.7518 
-86.5053 -99.8346 52.3846 -86.2242 -99.246 51.9475 -85.6781 -98.5716 51.6998 
-85.1546 -97.8194 51.1732 -84.7769 -97.0134 50.3606 -84.362 -96.3401 49.8017 
-83.7701 -95.8629 49.5947 -83.1104 -95.4169 49.4122 -86.0127 -100.289 52.3937 
-85.8271 -99.7852 51.8681 -85.4405 -99.2168 51.5169 -85.0242 -98.5683 51.007 
-84.7445 -97.7364 50.2077 -84.4627 -96.9311 49.5512 -83.9098 -96.4254 49.3039 
-83.1336 -96.0761 49.2189 -82.4397 -95.6231 49.0129 -85.5874 -100.746 52.3167 
-85.4359 -100.314 51.7487 -85.2601 -99.8108 51.2597 -85.0478 -99.2666 50.715 
-84.7736 -98.5238 50.0435 -84.4611 -97.6407 49.4323 -84.0049 -96.9606 49.0668 
-83.2812 -96.5352 48.9245 -82.4668 -96.1115 48.8459 -81.8607 -95.5782 48.6505 
-84.8921 -95.9191 54.0688 -84.9293 -95.4694 53.4786 -84.5648 -95.1896 53.9765 
-84.8452 -95.0544 52.6265 -84.621 -94.6741 53.1843 -84.3249 -94.4287 53.7838 
-84.5514 -94.8113 51.6565 -84.341 -94.4796 52.313 -84.1421 -94.1339 52.8381 
-83.9651 -93.8301 53.5071 -84.1313 -94.6876 50.7207 -83.7684 -94.5668 51.4985 
-83.4573 -94.2938 52.1162 -83.3496 -93.8556 52.5893 -83.1306 -93.6322 53.2836 
-83.6517 -94.592 49.9832 -83.2879 -94.4808 50.6017 -82.8002 -94.4341 51.3637 
-82.5372 -93.9943 51.9148 -82.3867 -93.6391 52.4384 -82.0472 -93.6673 53.0691 
-83.0422 -94.6819 49.4595 -82.8729 -94.2294 49.7476 -82.5084 -94.1544 50.3581 
-82.1619 -93.8377 51.0108 -81.9125 -93.3559 51.615 -81.6021 -93.3813 52.2021 
-81.2105 -93.6467 52.6912 -82.377 -94.9162 48.9573 -82.3428 -94.192 49.0151 
-82.1822 -93.8405 49.4069 -81.955 -93.6071 49.9843 -81.7272 -93.0875 50.6089 
-81.3953 -92.8613 51.2981 -80.9689 -93.252 51.8626 -80.5568 -93.615 52.2668 
-81.8158 -95.0171 48.4675 -81.8385 -94.3146 48.3181 -81.7363 -93.7867 48.5433 
-81.5163 -93.5924 49.1092 -81.3194 -93.2793 49.7161 -81.0747 -92.7946 50.3837 
-80.6805 -92.8054 51.0951 -80.2393 -93.2986 51.6124 -79.853 -93.6431 52.0149 
-81.3089 -95.0901 48.2256 -81.385 -94.5498 47.7768 -80.8111 -94.7362 47.5875 
-80.9185 -94.2742 46.9168 -80.2264 -94.7791 46.7508 -81.377 -93.952 47.5966 
-80.236 -94.3013 46.2368 -79.5832 -95.0158 46.2623 -80.777 -93.7851 46.9437 
-81.0927 -93.6503 48.094 -79.4844 -94.3804 46.3592 -79.0722 -95.0471 46.6744 
-80.0013 -93.7883 46.8052 -80.3293 -93.6919 47.8741 -80.7266 -93.6323 48.9103 
-78.8167 -94.3458 47.1882 -78.5174 -94.9434 47.5036 -79.1926 -93.8278 47.356 
-79.5503 -93.7459 48.0674 -79.8697 -93.7629 48.9042 -80.4464 -93.2988 49.6349 
-77.9342 -94.3407 47.8424 -77.5466 -94.994 47.9268 -78.2672 -93.875 48.0009 
-78.6651 -93.7434 48.4756 -79.0234 -93.6923 49.0643 -79.4595 -93.3119 49.7027 
-80.1044 -92.846 50.4033 -76.7837 -94.4737 48.0448 -76.4027 -95.2159 48.018 
-77.1454 -93.932 48.2549 -77.5542 -93.7231 48.7103 -78.0101 -93.5116 49.2425 
-78.4593 -93.0967 49.8221 -79.0162 -92.8369 50.5036 -79.6758 -92.9764 51.1158 
-75.8827 -94.7485 48.275 -75.6534 -95.5044 48.2913 -76.1859 -94.0716 48.3957 
-76.5393 -93.725 48.7925 -76.9626 -93.4586 49.3687 -77.4629 -92.9989 49.9411 
-78.0333 -92.7592 50.5561 -78.6641 -93.0424 51.1507 -79.3021 -93.4557 51.5987 
-75.4894 -95.1255 48.8157 -75.383 -95.7985 48.8715 -75.6668 -94.4078 48.8 
-75.9181 -93.8965 49.0169 -76.2342 -93.5802 49.5373 -76.6616 -93.2174 50.1122 
-77.2393 -92.9633 50.61 -77.8688 -93.1446 51.1257 -78.4584 -93.5313 51.6296 
-79.015 -93.712 52.0802 -81.6357 -95.759 48.5502 -80.9488 -95.267 48.2899 
-81.469 -96.1197 48.4637 -80.6898 -95.7339 48.2808 -81.3332 -96.8303 48.4002 
-80.3139 -95.0691 47.7494 -80.5475 -96.565 48.2282 -81.1168 -97.6057 48.4494 
-80.0423 -95.6521 47.825 -79.7262 -95.3 46.9897 -80.3241 -97.4043 48.4021 
-80.8095 -98.219 48.5993 -79.9472 -96.4914 47.9805 -79.5572 -95.8666 47.3086 
-79.2427 -95.5397 46.7402 -79.9849 -98.1342 48.6613 -80.5551 -98.9044 48.6847 
-79.6557 -97.4032 48.3776 -79.3692 -96.6871 47.767 -79.0106 -96.0631 47.3442 
-78.7663 -95.5299 47.3182 -79.6927 -98.9471 48.7006 -80.3298 -99.6908 48.7448 
-79.201 -98.3052 48.5661 -78.8523 -97.7293 48.1361 -78.4813 -96.9811 47.8016 
-78.1965 -96.1813 47.8314 -77.9645 -95.5472 47.9156 -79.4062 -99.7098 48.7774 
-79.9918 -100.298 48.951 -78.8311 -99.1405 48.5291 -78.3372 -98.6601 48.1666 
-77.8715 -98.0479 47.9487 -77.4884 -97.1571 48.0353 -77.1975 -96.3209 48.1136 
-76.8354 -95.7328 48.0352 -79.0301 -100.255 49.0743 -79.5717 -100.72 49.2268 
-78.5015 -99.7854 48.7669 -77.9952 -99.33 48.3186 -77.4834 -98.8358 48.0418 
-77.0368 -98.1051 48.1267 -76.6657 -97.1932 48.2458 -76.2702 -96.4644 48.1627 
-75.891 -95.9701 48.117 -78.6174 -100.734 49.327 -79.1787 -101.134 49.4188 
-78.1232 -100.317 49.1586 -77.6753 -99.8534 48.8081 -77.1678 -99.3792 48.4276 
[...]
CELL_DATA 2000
SCALARS Distance double
LOOKUP_TABLE default
138.518 138.618 138.384 137.997 138.694 138.46 138.059 137.831 137.411 
138.782 138.531 138.086 137.849 137.404 137.194 136.717 138.832 138.603 
138.124 137.858 137.365 137.148 136.687 136.467 135.967 138.829 138.618 
138.157 137.892 137.38 137.118 136.654 136.441 136.009 135.755 135.301 
138.872 138.627 138.19 137.931 137.457 137.17 136.703 136.448 136.024 
135.799 135.374 135.13 134.701 138.939 138.69 138.246 137.991 137.553 
137.278 136.83 136.542 136.09 135.828 135.371 135.143 134.675 134.477 
134.026 138.925 138.72 138.27 138.045 137.611 137.374 136.942 136.673 
136.215 135.92 135.439 135.153 134.672 134.422 133.968 133.77 133.371 
138.879 138.684 138.256 138.046 137.614 137.404 136.967 136.743 136.285 
136.025 135.548 135.257 134.79 134.491 134.065 133.791 133.43 133.207 
132.913 138.884 139.483 139.117 138.986 140.11 139.72 139.573 139.205 
139.072 140.76 140.361 140.209 139.812 139.678 139.307 139.181 141.376 
141.008 140.884 140.484 140.355 139.946 139.806 139.411 139.242 141.941 
141.608 141.523 141.166 141.078 140.666 140.512 140.061 139.863 139.439 
139.24 142.525 142.207 142.153 141.803 141.733 141.364 141.221 140.781 
140.566 140.1 139.906 139.47 139.305 143.095 142.835 142.821 142.458 
142.338 141.963 141.783 141.409 141.19 140.788 140.59 140.174 140.01 
139.576 139.392 143.566 143.383 143.389 143.087 142.915 142.529 142.278 
141.906 141.673 141.331 141.136 140.798 140.617 140.245 140.029 139.61 
139.362 143.938 143.785 143.749 143.535 143.345 143.027 142.763 142.4 
142.176 141.821 141.645 141.302 141.125 140.778 140.56 140.182 139.926 
139.525 139.282 144.103 144.027 144.016 143.814 143.762 143.822 143.636 
143.64 143.385 143.69 143.638 143.537 143.476 143.282 143.187 142.884 
143.974 143.793 143.742 143.539 143.397 143.203 142.957 142.733 142.388 
144.151 144.111 143.992 143.804 143.569 143.367 143.085 142.87 142.509 
142.251 141.863 143.719 143.989 143.798 143.84 143.457 143.375 142.962 
142.874 142.463 142.313 141.868 141.676 141.28 142.901 143.28 143.114 
143.361 142.986 143.04 142.557 142.561 142.12 142.11 141.675 141.584 
141.143 141.032 140.658 142.217 142.477 142.365 142.623 142.379 142.496 
142.082 142.089 141.642 141.669 141.277 141.292 140.897 140.84 140.444 
140.373 140.018 141.763 141.916 141.799 141.989 141.83 141.962 141.661 
141.663 141.235 141.206 140.801 140.844 140.506 140.543 140.201 140.159 
139.804 139.734 139.399 139.084 139.5 139.115 138.74 139.857 139.51 
139.115 138.73 138.262 140.092 139.785 139.358 139.035 138.541 138.154 
137.588 140.377 140.006 139.579 139.237 138.769 138.396 137.832 137.412 
136.82 140.851 140.399 140.003 139.554 139.126 138.683 138.169 137.691 
137.104 136.653 136.114 141.289 140.908 140.51 140.057 139.606 139.125 
138.607 138.094 137.514 137.002 136.463 136.025 135.583 141.465 141.227 
140.807 140.471 139.976 139.564 139.005 138.529 137.929 137.428 136.883 
136.43 135.999 135.59 135.215 141.477 141.301 140.903 140.647 140.18 
139.844 139.327 138.899 138.332 137.839 137.293 136.839 136.397 136.01 
135.627 135.241 134.844 141.481 141.311 140.955 140.722 140.319 140.033 
139.614 139.243 138.766 138.283 137.761 137.264 136.795 136.381 135.972 
135.605 135.183 134.808 134.364 138.751 138.366 138.408 138.107 137.87 
137.964 137.618 137.719 137.435 137.203 137.376 137.015 137.162 136.839 
137.011 136.753 136.458 136.664 136.341 136.518 136.189 136.364 136.078 
136.296 136.052 135.762 135.939 135.669 135.865 135.579 135.727 135.416 
135.592 135.328 135.57 135.326 135.195 135.285 134.996 135.202 134.952 
135.134 134.803 134.938 134.61 134.824 134.578 134.838 134.594 134.774 
134.762 134.367 134.511 134.222 134.456 134.128 134.293 133.895 134.077 
133.783 134.07 133.867 134.131 133.9 134.386 134.342 133.851 133.888 
133.509 133.7 133.397 133.591 133.216 133.355 133.009 133.255 133.072 
133.396 133.249 133.488 133.291 133.929 133.915 133.401 133.381 132.935 
133.027 132.73 132.909 132.641 132.753 132.434 132.552 132.336 132.61 
132.518 132.833 132.72 132.938 132.783 133.479 132.66 133.036 132.971 
131.931 132.233 132.163 132.527 132.511 131.383 131.552 131.451 131.76 
131.789 132.176 132.303 131.088 131.093 130.948 131.137 131.205 131.548 
131.739 132.106 132.264 130.96 130.883 130.697 130.757 130.823 131.082 
131.303 131.616 131.763 132.043 132.102 130.698 130.705 130.46 130.529 
130.511 130.745 130.888 131.186 131.267 131.531 131.55 131.841 131.958 
130.241 130.309 130.015 130.159 130.043 130.326 130.341 130.67 130.643 
130.942 130.92 131.264 131.408 131.811 132.098 129.96 129.9 129.628 
129.675 129.54 129.764 129.753 130.048 130.012 130.279 130.273 130.614 
130.812 131.262 131.605 132.038 132.346 130.092 129.86 129.66 129.488 
129.382 129.386 129.421 129.564 129.633 129.787 129.882 130.1 130.367 
130.737 131.141 131.559 131.906 132.259 132.478 133.628 133.632 133.327 
132.803 133.865 133.403 132.836 132.541 132.096 134.31 133.758 133.15 
132.69 132.24 131.941 131.607 134.74 134.247 133.691 133.147 132.673 
132.227 131.912 131.59 131.362 135.108 134.668 134.217 133.733 133.296 
132.781 132.416 131.994 131.757 131.447 131.25 135.53 135.076 134.652 
134.233 133.85 133.397 132.996 132.531 132.185 131.834 131.572 131.298 
131.002 135.929 135.512 135.061 134.655 134.258 133.872 133.477 133.054 
132.637 132.234 131.861 131.55 131.201 130.926 130.553 136.185 135.853 
135.418 135.042 134.622 134.244 133.852 133.471 133.079 132.67 132.264 
131.859 131.471 131.123 130.786 130.491 130.238 136.356 136.071 135.686 
135.365 134.975 134.608 134.212 133.834 133.464 133.09 132.729 132.313 
131.935 131.498 131.18 130.815 130.637 130.356 130.309 141.395 141.045 
141.107 140.838 140.65 140.702 140.425 140.499 140.214 140.357 140.329 
140.034 140.079 139.815 139.876 139.562 140.079 140.062 139.687 139.686 
139.353 139.437 139.102 139.166 138.742 139.526 139.671 139.244 139.276 
138.798 138.875 138.437 138.581 138.13 138.226 137.728 138.742 138.986 
138.617 138.73 138.22 138.255 137.733 137.838 137.389 137.537 137.095 
137.19 136.753 138.007 138.219 137.924 138.077 137.648 137.677 137.166 
137.187 136.753 136.85 136.475 136.572 136.174 136.261 135.893 137.371 
137.548 137.261 137.425 137.043 137.113 136.623 136.647 136.193 136.278 
135.894 135.992 135.569 135.654 135.227 135.379 135.036 136.768 136.926 
136.628 136.786 136.419 136.512 136.041 136.081 135.603 135.691 135.268 
135.386 134.92 135.006 134.502 134.638 134.229 134.475 134.178 141.639 
141.907 141.643 141.337 142.157 141.902 141.606 141.305 140.961 142.332 
142.109 141.793 141.545 141.236 140.954 140.671 142.316 142.192 141.841 
141.664 141.348 141.169 140.903 140.688 140.39 142.043 142.049 141.718 
141.634 141.282 141.173 140.85 140.76 140.41 140.256 139.799 141.685 
141.706 141.426 141.433 141.107 141.041 140.65 140.568 140.151 140.082 
139.611 139.482 138.965 141.535 141.423 141.126 141.109 140.829 140.821 
140.456 140.351 139.897 139.778 139.337 139.238 138.802 138.658 138.222 
141.632 141.41 141.061 140.888 140.58 140.539 140.243 140.169 139.755 
139.589 139.156 139.023 138.659 138.537 138.166 137.995 137.603 141.745 
141.559 141.209 140.933 140.562 140.381 140.087 139.99 139.649 139.489 
139.064 138.898 138.529 138.423 138.089 137.953 137.571 137.391 137.001 
141.65 141.281 141.405 141.151 140.757 140.966 140.741 140.801 140.489 
140.072 140.359 140.164 140.338 140.061 140.152 139.931 139.276 139.594 
139.394 139.677 139.434 139.645 139.405 139.6 139.415 138.513 138.791 
138.59 138.876 138.655 138.931 138.697 138.961 138.741 139 138.81 
137.862 138.091 137.921 138.142 137.941 138.169 137.957 138.21 138.011 
138.278 138.113 138.386 138.272 137.272 137.491 137.336 137.537 137.335 
137.518 137.298 137.51 137.322 137.57 137.422 137.699 137.596 137.897 
137.819 136.677 136.899 136.719 136.937 136.712 136.908 136.661 136.867 
136.66 136.902 136.745 137.016 136.886 137.189 137.079 137.408 137.295 
136.073 136.279 136.059 136.277 136.032 136.248 136.009 136.225 136.023 
136.252 136.095 136.345 136.21 136.48 136.351 136.646 136.524 136.844 
136.73 135.663 134.93 135.399 135.589 134.142 134.613 134.811 135.317 
135.542 133.471 133.874 134.111 134.577 134.864 135.323 135.573 132.929 
133.295 133.565 133.979 134.311 134.73 135.021 135.405 135.64 132.392 
132.775 133.024 133.448 133.728 134.177 134.436 134.861 135.087 135.482 
135.708 131.868 132.22 132.421 132.841 133.039 133.502 133.694 134.18 
134.398 134.881 135.13 135.563 135.815 131.426 131.699 131.835 132.206 
132.387 132.8 132.996 133.427 133.677 134.163 134.485 134.97 135.279 
135.691 135.957 131.01 131.237 131.294 131.62 131.809 132.205 132.473 
132.851 133.147 133.542 133.906 134.363 134.739 135.17 135.474 135.849 
136.121 130.562 130.782 130.811 131.096 131.287 131.673 132.003 132.407 
132.755 133.118 133.465 133.858 134.234 134.658 135.003 135.388 135.682 
136.04 136.329 135.561 135.216 135.219 134.851 134.877 134.86 134.477 
134.466 134.073 134.519 134.489 134.082 134.088 133.702 133.699 133.365 
134.115 134.081 133.62 133.651 133.269 133.314 132.963 133.018 132.757 
133.699 133.65 133.145 133.148 132.726 132.816 132.446 132.548 132.222 
132.378 132.165 133.372 133.274 132.774 132.693 132.227 132.257 131.867 
131.966 131.62 131.774 131.543 131.779 131.653 133.241 133.059 132.594 
132.406 131.944 131.846 131.485 131.476 131.187 131.231 131.046 131.204 
131.154 131.367 131.309 133.321 133.067 132.656 132.364 131.941 131.709 
131.414 131.289 131.11 131.017 130.897 130.882 130.865 130.979 130.983 
131.101 130.991 133.5 133.244 132.899 132.565 132.191 131.859 131.592 
131.379 131.263 131.119 131.036 130.907 130.829 130.803 130.748 130.815 
130.694 130.753 130.551 135.911 136.382 135.951 135.599 137.041 136.511 
136.152 135.671 135.305 137.795 137.239 136.86 136.304 135.925 135.408 
135.01 138.494 137.968 137.567 137.014 136.588 136.054 135.621 135.095 
134.638 139.217 138.666 138.261 137.688 137.219 136.67 136.18 135.665 
135.163 134.663 134.188 139.95 139.42 139.022 138.415 137.94 137.317 
136.808 136.218 135.695 135.155 134.666 134.199 133.807 140.509 140.09 
139.698 139.161 138.682 138.068 137.573 136.935 136.447 135.797 135.324 
134.734 134.356 133.896 133.642 140.914 140.567 140.209 139.759 139.288 
138.748 138.254 137.693 137.254 136.647 136.221 135.549 135.159 134.556 
134.292 133.838 133.689 141.283 140.963 140.652 140.245 139.819 139.312 
138.829 138.311 137.889 137.393 137.022 136.458 136.073 135.446 135.113 
134.561 134.354 133.936 133.823 141.374 141.203 141.141 140.739 140.836 
140.876 140.492 140.417 139.905 140.441 140.461 140.11 140.1 139.616 
139.495 138.926 140.225 140.131 139.759 139.717 139.287 139.194 138.662 
138.515 137.996 140.05 139.948 139.493 139.398 138.928 138.858 138.349 
138.245 137.729 137.627 137.148 139.68 139.669 139.16 139.087 138.536 
138.473 137.937 137.883 137.364 137.314 136.825 136.762 136.251 139.203 
139.212 138.724 138.684 138.159 138.084 137.571 137.487 136.997 136.928 
136.46 136.407 135.932 135.839 135.328 138.818 138.771 138.331 138.275 
137.842 137.766 137.349 137.229 136.799 136.651 136.204 136.082 135.635 
135.538 135.093 134.976 134.553 138.56 138.47 138.063 137.97 137.587 
137.514 137.163 137.074 136.694 136.539 136.091 135.903 135.433 135.287 
134.859 134.762 134.397 134.305 133.993 138.315 137.79 137.974 137.811 
137.204 137.417 137.242 137.452 137.32 136.481 136.751 136.543 136.821 
136.68 136.969 136.884 135.668 135.932 135.67 136.011 135.849 136.24 
136.158 136.513 136.413 134.983 135.138 134.84 135.108 134.947 135.347 
135.281 135.702 135.605 135.96 135.793 134.437 134.548 134.255 134.391 
134.22 134.507 134.457 134.83 134.742 135.096 134.926 135.268 135.095 
133.812 133.999 133.721 133.866 133.626 133.844 133.716 134.042 133.935 
134.262 134.099 134.409 134.261 134.605 134.515 133.161 133.347 133.083 
133.27 132.975 133.186 132.927 133.239 133.068 133.438 133.31 133.645 
133.552 133.859 133.822 134.135 134.114 132.695 132.779 132.538 132.656 
132.381 132.512 132.209 132.413 132.188 132.531 132.448 132.857 132.86 
133.221 133.246 133.54 133.55 133.811 133.782 133.492 133.289 133.26 
132.924 132.994 133.028 132.716 132.641 132.243 132.539 132.648 132.362 
132.395 132.051 131.973 131.654 132.022 132.109 131.807 131.95 131.68 
131.747 131.507 131.492 131.313 131.741 131.657 131.344 131.406 131.181 
131.312 131.137 131.266 131.13 131.194 131.059 131.817 131.573 131.29 
131.144 130.929 130.903 130.725 130.828 130.692 130.866 130.751 130.881 
130.78 132.038 131.776 131.503 131.261 130.995 130.808 130.542 130.484 
130.266 130.37 130.223 130.43 130.352 130.572 130.567 132.231 132.006 
131.711 131.471 131.11 130.876 130.487 130.339 130.021 130.006 129.787 
129.899 129.779 130.025 130.018 130.34 130.401 132.423 132.199 131.902 
131.639 131.226 130.937 130.483 130.266 129.932 129.835 129.631 129.599 
129.458 129.526 129.484 129.731 129.8 130.148 130.24 143.942 143.49 
143.715 143.768 143.041 143.253 143.293 143.582 143.809 142.577 142.833 
142.935 143.183 143.421 143.758 144.062 142.06 142.378 142.534 142.836 
143.046 143.383 143.613 143.955 144.053 141.486 141.836 141.941 142.322 
142.444 142.867 142.971 143.38 143.372 143.704 143.586 140.856 141.214 
141.243 141.619 141.641 142.084 142.11 142.573 142.522 142.912 142.782 
143.125 143.023 140.201 140.548 140.568 140.905 140.914 141.274 141.295 
141.688 141.669 142.04 141.96 142.313 142.253 142.62 142.595 139.552 
139.881 139.902 140.241 140.288 140.624 140.683 140.994 140.993 141.276 
141.216 141.529 141.5 141.871 141.881 142.237 142.192 138.921 139.223 
139.21 139.56 139.599 139.988 140.061 140.419 140.419 140.682 140.589 
140.84 140.785 141.132 141.162 141.54 141.541 141.837 141.731 144.188 
144.105 144.298 144.563 144.169 144.28 144.571 144.662 144.748 144.361 
144.417 144.605 144.649 144.657 144.666 144.51 144.297 144.498 144.58 
144.632 144.508 144.489 144.25 144.261 144.02 143.857 144.218 144.329 
144.49 144.378 144.344 144.1 144.024 143.775 143.759 143.512 143.35 
143.723 143.932 144.177 144.198 144.238 144.11 144.007 143.799 143.643 
143.364 143.25 142.949 142.905 143.258 143.48 143.782 143.849 144.021 
143.947 143.998 143.814 143.719 143.381 143.183 142.799 142.679 142.418 
142.415 142.771 142.912 143.268 143.283 143.562 143.437 143.65 143.433 
143.546 143.179 143.109 142.642 142.53 142.211 142.219 142.101 141.871 
142.199 142.262 142.619 142.611 142.919 142.792 143.031 142.814 143.004 
142.684 142.746 142.309 142.275 141.917 141.965 141.833 141.961 141.914 
144.274 144.572 144.394 144.234 144.685 144.608 144.379 144.184 143.918 
144.477 144.569 144.354 144.241 143.947 143.819 143.716 144.072 144.28 
144.198 144.18 143.958 143.838 143.754 143.759 143.914 143.546 143.845 
143.884 144.029 143.951 143.898 143.834 143.809 143.907 144.007 144.106 
142.91 143.245 143.276 143.616 143.637 143.827 143.798 143.858 143.828 
143.903 143.836 143.94 143.714 142.39 142.613 142.59 142.917 142.94 
143.319 143.347 143.635 143.575 143.709 143.514 143.567 143.256 143.3 
142.926 142.125 142.216 142.158 142.309 142.27 142.573 142.614 143.009 
143.03 143.308 143.158 143.23 142.933 142.906 142.585 142.561 142.276 
141.934 142.005 141.89 141.952 141.819 141.986 141.963 142.289 142.348 
142.694 142.656 142.842 142.641 142.66 142.398 142.35 142.114 142.064 
141.852 136.215 136.806 136.551 136.677 137.403 137.159 137.326 137.099 
137.335 138.02 137.78 137.984 137.775 138.05 137.837 138.1 138.714 
138.45 138.689 138.464 138.757 138.552 138.834 138.595 138.816 139.484 
139.2 139.463 139.216 139.53 139.296 139.607 139.35 139.62 139.326 
139.555 140.226 139.957 140.179 139.969 140.284 140.091 140.434 140.183 
140.493 140.187 140.444 140.107 140.3 140.861 140.618 140.744 140.574 
140.828 140.748 141.088 140.966 141.272 141.049 141.277 140.978 141.118 
140.777 140.846 141.376 141.166 141.218 141.039 141.219 141.177 141.501 
141.491 141.797 141.698 141.907 141.708 141.816 141.525 141.555 141.217 
141.226 141.754 141.605 141.637 141.461 141.609 141.545 141.888 141.884 
142.244 142.166 142.417 142.256 142.415 142.174 142.244 141.916 141.927 
141.575 141.582 
POINT_DATA 1002
SCALARS Distance double
LOOKUP_TABLE default
138.144 138.645 138.767 138.242 138.848 137.608 138.291 138.946 137.645 
136.981 138.356 139.045 137.611 136.957 136.215 138.409 139.044 137.609 
136.875 136.231 135.455 138.403 139.041 137.66 136.871 136.217 135.58 
134.87 138.437 139.139 137.73 136.982 136.257 135.6 134.943 134.292 
138.496 139.183 137.807 137.122 136.388 135.628 134.887 134.197 133.59 
138.481 139.111 137.833 137.194 136.511 135.746 134.946 134.183 133.525 
132.999 138.462 139.065 137.825 137.185 136.525 135.82 135.081 134.345 
133.667 133.098 132.645 139.241 139.344 139.864 139.953 140.512 139.424 
140.617 141.153 140.058 139.553 141.257 141.721 140.778 140.23 139.637 
141.848 142.258 141.465 140.992 140.318 139.636 142.516 142.803 142.098 
141.638 141.034 140.348 139.735 143.187 143.297 142.762 142.157 141.557 
140.982 140.441 139.854 143.667 143.734 143.315 142.671 142.008 141.457 
140.971 140.441 139.793 143.956 144.123 143.625 143.097 142.524 142 
141.48 140.925 140.315 139.671 144.23 143.863 143.992 143.614 143.683 
143.434 143.619 143.771 143.382 143.034 143.992 144.161 143.617 143.196 
142.644 144.183 144.111 143.804 143.289 142.773 142.112 143.676 143.371 
143.536 143.035 142.563 142.057 141.437 142.794 142.538 142.874 142.552 
142.087 141.711 141.259 140.736 142.101 142.014 142.201 142.065 141.631 
141.212 140.908 140.526 140.07 141.633 141.642 141.666 141.623 141.296 
140.78 140.415 140.197 139.882 139.461 138.727 139.156 138.336 139.492 
138.697 137.754 139.666 138.916 138.012 137 139.939 139.132 138.261 
137.225 136.237 140.481 139.591 138.658 137.589 136.499 135.605 140.95 
140.101 139.129 138.035 136.919 135.97 135.173 141.108 140.362 139.465 
138.424 137.33 136.401 135.628 134.844 141.132 140.471 139.707 138.81 
137.763 136.787 136.003 135.252 134.435 141.17 140.564 139.923 139.212 
138.278 137.244 136.354 135.561 134.737 133.921 138.036 137.52 137.297 
136.855 136.67 136.552 136.139 136.029 135.87 135.813 135.443 135.428 
135.283 135.096 135.078 134.808 134.737 134.692 134.436 134.3 134.359 
134.304 133.99 133.941 133.754 133.497 133.552 133.69 133.879 133.37 
133.169 133.081 132.814 132.717 132.947 133.109 133.431 132.895 132.542 
132.479 132.364 132.127 132.166 132.443 132.609 133.087 132.59 132.305 
131.804 131.685 132.098 131.169 131.295 131.381 131.89 130.814 131.156 
130.862 131.376 131.952 130.682 131.046 130.598 131.013 131.524 131.817 
130.389 130.66 130.311 130.629 131.025 131.256 131.582 129.88 130.184 
129.78 130.04 130.358 130.55 130.959 131.687 129.637 130.06 129.369 
129.474 129.748 129.933 130.337 131.142 131.986 129.884 130.333 129.46 
129.318 129.472 129.682 130.033 130.732 131.55 132.183 133.876 133.018 
134.001 133.191 134.404 132.3 133.681 134.847 132.58 131.841 134.213 
135.159 133.181 132.26 131.636 134.632 135.534 133.807 132.902 132.088 
131.55 135.064 135.994 134.261 133.484 132.603 131.867 131.302 135.48 
136.313 134.641 133.873 133.077 132.235 131.485 130.818 135.767 136.476 
135.007 134.22 133.463 132.7 131.861 131.069 130.473 135.972 136.622 
135.321 134.597 133.82 133.11 132.379 131.566 130.905 130.536 141.373 
140.78 140.983 140.343 140.626 140.154 140.019 140.428 139.74 139.551 
139.742 140.069 139.301 139.019 138.736 139.204 139.307 138.788 138.305 
137.989 137.665 138.447 138.473 138.2 137.674 137.221 136.959 136.663 
137.739 137.811 137.585 137.16 136.666 136.372 136.094 135.767 137.095 
137.208 136.95 136.594 136.117 135.799 135.512 135.102 134.812 141.901 
141.655 142.165 141.886 142.42 141.277 142.022 142.556 141.472 140.961 
142.001 142.393 141.501 141.074 140.676 141.754 141.985 141.401 140.946 
140.533 140.024 141.382 141.692 141.147 140.777 140.228 139.694 139.117 
141.199 141.716 140.802 140.544 140.051 139.415 138.905 138.385 141.318 
141.865 140.667 140.275 139.915 139.303 138.751 138.323 137.79 141.495 
141.877 140.816 140.204 139.786 139.251 138.641 138.196 137.748 137.175 