# vtk DataFile Version 4.0
vtk output
ASCII
DATASET POLYDATA
POINTS 1002 float
-80.6195 -106.464 55.7352 -80.5011 -106.634 56.5203 -81.2792 -106.686 56.123 
-81.3544 -106.506 55.3155 -81.9588 -106.618 55.7094 -80.6804 -106.12 55.0826 
-81.9302 -106.339 54.938 -82.4613 -106.347 55.3741 -81.311 -106.055 54.7351 
-80.6451 -105.662 54.5297 -82.4799 -105.889 54.6654 -83.0766 -105.926 55.0802 
-81.8258 -105.733 54.4064 -81.2375 -105.506 54.1586 -80.5992 -105.199 53.7552 
-83.3072 -105.497 54.2997 -83.8281 -105.537 54.7052 -82.4989 -105.297 53.9787 
-81.7979 -105.221 53.6606 -81.2274 -105.066 53.2332 -80.5634 -104.762 52.8221 
-84.1316 -105.305 53.7807 -84.3852 -105.093 54.3093 -83.424 -105.194 53.2948 
-82.5109 -105.029 52.9557 -81.8104 -104.899 52.6432 -81.167 -104.589 52.3583 
-80.4421 -104.259 52.187 -84.5671 -104.856 53.3753 -84.7131 -104.461 53.9793 
-84.159 -105.102 52.6963 -83.3149 -105.007 52.2308 -82.449 -104.723 52.0727 
-81.7153 -104.331 51.9673 -80.9624 -103.946 51.835 -80.235 -103.743 51.6497 
-84.7596 -104.111 53.1402 -85.0203 -103.86 53.6738 -84.4822 -104.463 52.504 
-83.8941 -104.598 51.9192 -83.1051 -104.398 51.6657 -82.3401 -104.033 51.5867 
-81.5321 -103.684 51.3995 -80.7206 -103.477 51.1273 -80.0244 -103.413 50.8067 
-84.9786 -103.485 52.9379 -85.4008 -103.444 53.3873 -84.6309 -103.645 52.4719 
-84.1805 -103.776 51.9458 -83.5613 -103.738 51.5006 -82.9117 -103.625 51.1979 
-82.1915 -103.537 50.8468 -81.3492 -103.442 50.4531 -80.5335 -103.327 50.1472 
-79.8446 -103.23 49.9043 -85.2871 -103.043 52.7414 -85.8139 -103.105 53.1392 
-84.8348 -103.073 52.3581 -84.4066 -103.127 51.9001 -83.871 -103.117 51.3583 
-83.2694 -103.12 50.858 -82.6557 -103.249 50.3788 -81.956 -103.388 49.8852 
-81.1667 -103.363 49.5206 -80.3865 -103.197 49.3319 -79.7048 -103.023 49.2163 
-80.893 -106.664 57.1466 -81.6775 -106.575 56.7966 -81.3172 -106.47 57.8618 
-81.9372 -106.248 57.5702 -81.6065 -106.256 58.5672 -82.2705 -106.41 56.4349 
-82.0906 -106.016 58.2552 -81.793 -106.104 59.1756 -82.4474 -106.052 57.2352 
-82.782 -106.134 56.0598 -82.371 -105.85 58.8109 -82.0578 -105.745 59.7127 
-82.7057 -105.83 57.8868 -83.0709 -105.795 56.7718 -83.4435 -105.734 55.6217 
-82.7589 -105.478 59.3022 -82.3972 -105.283 60.1847 -83.1318 -105.636 58.3932 
-83.522 -105.596 57.3918 -83.8395 -105.438 56.2247 -84.1143 -105.271 55.1742 
-83.1088 -105.115 59.7322 -82.7903 -105.109 60.5857 -83.4827 -105.262 58.7928 
-83.9997 -105.435 57.8966 -84.4185 -105.342 56.8622 -84.576 -105.037 55.7494 
-84.6358 -104.718 54.8052 -83.5299 -104.947 60.1566 -83.2633 -105.025 60.973 
-83.763 -104.864 59.127 -84.2496 -105.033 58.2023 -84.8385 -105.168 57.3244 
-85.14 -104.945 56.3091 -85.1458 -104.524 55.3211 -85.079 -104.143 54.4577 
-83.9757 -104.695 60.555 -83.654 -104.671 61.275 -84.1028 -104.545 59.4835 
-84.3693 -104.515 58.4137 -84.8802 -104.612 57.5127 -85.3172 -104.531 56.6044 
-85.5144 -104.256 55.6968 -85.5709 -103.97 54.8824 -85.5348 -103.707 54.1019 
-84.2099 -104.232 60.7595 -83.8136 -104.121 61.3489 -84.3516 -104.189 59.785 
-84.4649 -104.098 58.6756 -84.8024 -104.012 57.6953 -85.2264 -103.84 56.7933 
-85.5425 -103.652 55.9246 -85.8118 -103.597 55.1762 -86.02 -103.567 54.4816 
-86.0243 -103.395 53.7705 -84.1063 -103.623 60.9117 -84.3812 -103.701 60.1475 
-84.2978 -103.063 60.2863 -84.4712 -103.128 59.4274 -84.5239 -102.431 59.6568 
-84.4825 -103.704 59.1062 -84.7393 -102.437 58.7256 -84.7971 -101.764 58.9465 
-84.7255 -103.12 58.4533 -84.7504 -103.595 58.0811 -85.1014 -101.756 57.8491 
-85.0224 -101.189 58.0291 -85.2912 -102.425 57.7729 -85.3777 -102.956 57.6071 
-85.261 -103.312 57.1739 -85.2981 -101.285 56.8653 -85.2368 -100.7 57.1898 
-85.7235 -101.893 56.8675 -86.2088 -102.417 57.0922 -86.1133 -102.705 56.8629 
-85.694 -103.033 56.2778 -85.476 -100.84 56.1891 -85.4099 -100.222 56.5687 
-85.8152 -101.47 56.0242 -86.5185 -102.015 56.3659 -86.8672 -102.416 56.5222 
-86.492 -102.681 56.0035 -86.0203 -103.068 55.4277 -85.6914 -100.281 55.7168 
-85.3621 -99.8254 55.881 -86.0317 -100.831 55.5325 -86.519 -101.339 55.6636 
-86.9686 -101.905 55.884 -87.0199 -102.495 55.5857 -86.721 -102.928 55.0052 
-86.3755 -103.274 54.6575 -85.6912 -99.799 55.0991 -85.1506 -99.5491 55.0796 
-86.2524 -100.156 55.0784 -86.7064 -100.493 55.079 -86.9348 -100.937 55.0964 
-87.027 -101.742 54.8332 -87.0715 -102.574 54.3427 -86.9475 -103.042 54.0307 
-86.568 -103.258 53.9062 -85.4998 -99.4761 54.4092 -85.0065 -99.3031 54.4049 
-86.0987 -99.7254 54.4409 -86.6937 -99.954 54.3992 -87.0061 -100.149 54.2657 
-87.009 -100.702 53.9625 -87.0348 -101.677 53.5214 -87.1077 -102.468 53.2491 
-86.9198 -102.81 53.2267 -86.4147 -102.963 53.2237 -85.8185 -102.64 52.6544 
-86.3959 -102.423 52.6324 -85.6734 -102.119 52.1444 -86.8385 -102.213 52.4979 
-86.1474 -101.861 52.0264 -85.4265 -101.675 51.5323 -86.9962 -101.684 52.4376 
-86.5927 -101.574 51.811 -85.8343 -101.393 51.4123 -85.144 -101.262 50.8326 
-87.0297 -100.724 52.6592 -86.9268 -100.852 51.7105 -86.3834 -100.947 51.2337 
-85.5621 -100.906 50.7904 -84.886 -100.763 50.1023 -87.0474 -99.9866 53.0272 
-87.0701 -99.9636 51.8274 -86.7857 -100.075 51.1527 -86.0309 -100.295 50.7287 
-85.2953 -100.373 50.0509 -84.7472 -100.283 49.2828 -86.7678 -99.7926 53.3675 
-86.8232 -99.5996 52.1293 -86.7575 -99.3799 51.2463 -86.1286 -99.4477 50.7697 
-85.41 -99.7307 50.0922 -85.0821 -99.8735 49.1351 -84.6381 -99.8896 48.4911 
-86.1732 -99.636 53.6374 -86.213 -99.479 52.5957 -86.3296 -99.1291 51.6211 
-85.9748 -98.8851 50.9685 -85.204 -98.9889 50.2882 -84.9198 -99.1883 49.2813 
-84.8601 -99.3336 48.3946 -84.2372 -99.4803 48.0643 -85.6225 -99.3407 53.776 
-85.67 -99.1552 53.0251 -85.8133 -98.8222 52.1736 -85.7799 -98.5007 51.3706 
-85.1907 -98.4404 50.56 -84.6907 -98.5148 49.5836 -84.6631 -98.6013 48.6554 
-84.3594 -98.7945 48.1377 -83.483 -99.0493 48.0092 -85.2213 -99.0982 53.8495 
-85.3656 -98.8128 53.2834 -85.4536 -98.4279 52.6024 -85.4939 -98.0673 51.8106 
-85.2231 -97.9551 50.9108 -84.7381 -98.0157 49.8988 -84.4864 -98.0471 48.9794 
-84.2423 -98.1423 48.4024 -83.5741 -98.3843 48.1467 -82.6997 -98.6439 47.9902 
-85.239 -102.602 52.2715 -85.1512 -102.189 51.6518 -84.7866 -102.703 51.778 
-85.009 -101.826 50.8219 -84.8057 -102.467 50.8624 -84.3279 -102.805 51.1083 
-84.72 -101.325 50.0161 -84.7308 -102.165 49.8536 -84.334 -102.678 50.0072 
-83.6866 -102.812 50.4571 -84.3518 -100.694 49.3765 -84.3133 -101.518 49.2381 
-84.1295 -102.305 49.1965 -83.4617 -102.595 49.5551 -82.9259 -102.844 49.9927 
-84.0578 -100.215 48.773 -83.69 -100.79 48.9235 -83.5127 -101.577 48.8851 
-82.981 -102.045 49.0903 -82.4133 -102.407 49.3997 -82.1947 -102.986 49.5651 
-83.6625 -99.8926 48.2823 -83.1172 -100.323 48.5535 -82.8015 -100.967 48.5726 
-82.3499 -101.484 48.6504 -81.8095 -101.795 48.9527 -81.6078 -102.396 49.0761 
-81.5032 -103.085 49.1356 -82.9969 -99.5413 48.0412 -82.555 -99.9777 48.1464 
-82.2862 -100.549 48.075 -81.9278 -101.178 47.9519 -81.4066 -101.542 48.1381 
-81.1136 -101.898 48.4231 -81.0202 -102.514 48.5707 -80.7717 -103.019 48.8306 
-82.3093 -99.1226 47.8797 -82.0287 -99.5854 47.7627 -81.9125 -100.109 47.5507 
-81.7306 -100.78 47.3097 -81.3052 -101.395 47.2988 -80.8888 -101.808 47.5022 
-80.6485 -102.205 47.7422 -80.384 -102.607 48.1099 -80.0236 -102.867 48.6517 
-81.948 -98.4745 47.6409 -81.7162 -98.9749 47.3707 -81.621 -98.1922 46.9149 
-81.4389 -98.8284 46.4929 -81.2814 -97.9515 46.105 -81.6173 -99.5296 47.0382 
-80.8698 -98.7661 45.7333 -80.4657 -97.8706 45.6934 -81.2131 -99.5098 46.1737 
-81.5285 -100.142 46.7721 -79.9609 -98.697 45.5874 -79.5035 -97.8523 45.8413 
-80.4281 -99.4427 45.7212 -80.919 -100.07 46.2696 -81.2346 -100.843 46.7688 
-79.1734 -98.5851 45.9827 -78.6137 -97.854 46.18 -79.5894 -99.267 45.8661 
-80.0308 -99.8886 46.2127 -80.5076 -100.77 46.6109 -80.7766 -101.573 46.8804 
-78.3359 -98.6106 46.3863 -77.5989 -97.9806 46.3324 -78.8548 -99.1741 46.2971 
-79.1265 -99.7938 46.3664 -79.5096 -100.758 46.5404 -79.9915 -101.766 46.5665 
-80.3507 -102.186 46.9181 -77.4079 -98.7917 46.6236 -76.7743 -98.2185 46.5157 
-78.0396 -99.2557 46.69 -78.3136 -99.8352 46.6507 -78.5097 -100.829 46.5471 
-78.9681 -101.937 46.3525 -79.5033 -102.496 46.4906 -79.9555 -102.532 47.2372 
-76.8326 -98.9566 47.0404 -76.4566 -98.445 47.0768 -77.3892 -99.3569 47.1096 
-77.7498 -99.8452 47.1128 -77.8998 -100.717 46.9559 -78.2151 -101.784 46.6552 
-78.7006 -102.464 46.599 -79.1424 -102.613 47.147 -79.5659 -102.654 47.9848 
-76.5931 -99.0485 47.7351 -76.3717 -98.6079 47.8763 -77.0038 -99.4176 47.6839 
-77.4091 -99.8392 47.6711 -77.646 -100.498 47.6228 -77.8921 -101.341 47.4469 
-78.2622 -102.048 47.3122 -78.5941 -102.416 47.5653 -78.8834 -102.586 48.1563 
-79.258 -102.78 48.7458 -82.527 -98.0982 47.9813 -81.8988 -97.8251 47.4805 
-82.3772 -97.5394 47.9454 -81.8553 -97.2022 47.4347 -82.257 -96.9181 48.0668 
-81.5972 -97.4428 46.7339 -81.7718 -96.6799 47.7463 -82.1513 -96.3389 48.4309 
-81.4208 -96.9362 46.8937 -81.034 -97.2217 46.13 -81.5887 -96.3042 48.2646 
-81.9165 -96.0898 48.8684 -81.0969 -96.7043 47.4978 -80.5941 -96.9509 46.5931 
-80.0272 -97.2411 45.9818 -81.1674 -96.0932 48.6934 -81.4776 -96.0715 49.4638 
-80.6469 -96.4225 48.0884 -80.0937 -96.8301 47.3935 -79.5368 -97.0368 46.5859 
-78.9858 -97.2738 46.1609 -80.6306 -95.9557 49.2961 -81.0703 -95.9506 50.3689 
-80.0762 -96.0904 48.4314 -79.5715 -96.3998 47.9928 -79.0605 -96.7652 47.4142 
-78.4424 -96.9492 46.655 -77.8875 -97.2728 46.2801 -80.2351 -95.8637 50.241 
-80.7716 -95.8394 51.2471 -79.5921 -95.9725 49.0534 -79.0791 -96.0531 48.3629 
-78.6006 -96.3132 48.0643 -77.9743 -96.6284 47.4473 -77.3195 -96.8631 46.6923 
-76.8818 -97.4002 46.3709 -79.8834 -95.8863 51.1639 -80.3598 -95.924 51.8474 
-79.2551 -96.0112 50.1199 -78.7093 -96.037 49.1271 -78.2192 -96.0901 48.613 
-77.6336 -96.3815 48.2383 -77.062 -96.6569 47.6051 -76.6442 -96.9906 47.0092 
-76.4324 -97.6691 46.8385 -79.4552 -95.9687 51.8793 -79.8199 -96.0573 52.359 
-78.9299 -96.0347 51.1831 -78.387 -96.0396 50.3071 -77.8856 -95.9832 49.5311 
[...]
CELL_DATA 2000
SCALARS Distance double
LOOKUP_TABLE default
144.056 144.313 144.029 143.646 144.376 144.199 143.817 143.547 143.108 
144.299 144.164 143.772 143.601 143.169 142.945 142.478 144.294 144.117 
143.716 143.506 143.088 142.922 142.499 142.28 141.804 144.295 144.184 
143.848 143.557 143.124 142.866 142.472 142.271 141.836 141.588 141.113 
144.042 144.109 143.868 143.719 143.3 142.996 142.545 142.28 141.837 
141.594 141.101 140.867 140.396 143.62 143.735 143.509 143.577 143.207 
143.079 142.579 142.349 141.846 141.599 141.087 140.832 140.331 140.128 
139.694 143.307 143.31 143.035 143.12 142.78 142.8 142.324 142.231 
141.717 141.563 141.078 140.85 140.379 140.115 139.686 139.468 139.093 
143.148 143.049 142.723 142.705 142.38 142.371 141.96 141.893 141.426 
141.342 140.913 140.804 140.404 140.207 139.81 139.552 139.174 138.934 
138.591 144.339 144.76 144.579 144.58 145.051 144.908 144.886 144.739 
144.648 145.289 145.137 145.069 144.96 144.895 144.73 144.592 145.491 
145.366 145.299 145.154 145.09 144.941 144.844 144.661 144.544 145.592 
145.538 145.536 145.422 145.39 145.204 145.109 144.899 144.767 144.596 
144.458 145.734 145.641 145.653 145.602 145.639 145.542 145.516 145.268 
145.124 144.833 144.633 144.429 144.2 146.041 145.863 145.79 145.672 
145.664 145.682 145.725 145.656 145.552 145.268 145.015 144.672 144.393 
144.126 143.854 146.274 146.162 146.004 145.81 145.632 145.605 145.545 
145.648 145.525 145.499 145.203 145.004 144.675 144.406 144.134 143.849 
143.613 146.179 146.236 146.05 145.93 145.627 145.524 145.293 145.342 
145.134 145.215 144.91 144.925 144.617 144.566 144.348 144.185 143.999 
143.712 143.504 145.968 145.487 145.811 145.837 144.899 145.237 145.263 
145.539 145.45 144.303 144.625 144.663 144.963 144.947 145.158 145.104 
143.682 144.013 144.107 144.435 144.532 144.744 144.724 144.874 144.855 
143.082 143.39 143.539 143.925 144.198 144.477 144.585 144.62 144.527 
144.613 144.586 142.582 142.847 142.989 143.374 143.721 144.16 144.464 
144.61 144.587 144.469 144.351 144.384 144.4 142.082 142.381 142.513 
142.855 143.112 143.593 143.907 144.339 144.451 144.553 144.451 144.367 
144.314 144.314 144.313 141.487 141.848 141.999 142.364 142.535 142.94 
143.089 143.575 143.665 144.109 144.091 144.331 144.25 144.316 144.227 
144.223 144.072 140.901 141.243 141.392 141.788 141.936 142.318 142.365 
142.732 142.7 143.148 143.143 143.643 143.633 144 143.888 144.048 
143.824 143.851 143.571 143.213 143.435 143.105 142.625 143.482 143.254 
142.728 142.429 141.924 143.173 143.135 142.646 142.467 141.94 141.696 
141.209 142.635 142.675 142.238 142.247 141.804 141.675 141.187 140.964 
140.467 142.241 142.18 141.757 141.774 141.39 141.41 140.979 140.884 
140.387 140.193 139.702 141.998 141.906 141.475 141.387 140.969 140.954 
140.514 140.519 140.031 139.995 139.515 139.416 138.986 141.616 141.631 
141.197 141.134 140.674 140.597 140.116 140.047 139.523 139.502 139.019 
139.067 138.662 138.679 138.291 141.103 141.178 140.78 140.783 140.338 
140.293 139.826 139.726 139.204 139.071 138.556 138.525 138.13 138.219 
137.879 137.933 137.541 140.652 140.705 140.38 140.38 139.985 139.94 
139.499 139.43 138.953 138.826 138.322 138.185 137.761 137.737 137.418 
137.471 137.139 137.156 136.768 142.949 142.393 142.609 142.482 141.758 
142.031 141.95 142.184 142.101 141.076 141.396 141.382 141.662 141.581 
141.785 141.654 140.306 140.67 140.687 141.078 141.052 141.275 141.088 
141.264 141.102 139.51 139.84 139.804 140.288 140.31 140.683 140.501 
140.684 140.445 140.688 140.583 138.819 139.057 138.924 139.342 139.329 
139.813 139.659 139.973 139.684 139.972 139.821 140.188 140.119 138.169 
138.391 138.197 138.492 138.399 138.819 138.689 139.045 138.771 139.095 
138.91 139.347 139.304 139.709 139.597 137.434 137.703 137.495 137.767 
137.626 137.964 137.865 138.171 137.986 138.229 138.061 138.418 138.396 
138.845 138.807 139.154 138.99 136.659 136.94 136.749 137.035 136.899 
137.219 137.154 137.463 137.386 137.603 137.502 137.717 137.686 138.008 
138.005 138.354 138.258 138.546 138.388 136.171 135.509 135.982 136.28 
134.882 135.361 135.697 136.143 136.477 134.221 134.737 135.109 135.59 
135.958 136.399 136.756 133.6 134.08 134.459 134.97 135.358 135.864 
136.261 136.712 137.033 133.148 133.551 133.916 134.343 134.718 135.222 
135.662 136.195 136.604 136.991 137.243 132.752 133.167 133.55 133.897 
134.227 134.622 135.049 135.585 136.079 136.564 136.917 137.208 137.436 
132.416 132.799 133.239 133.575 133.902 134.208 134.577 135.023 135.519 
136.039 136.462 136.854 137.112 137.403 137.65 132.375 132.59 133.058 
133.323 133.705 133.948 134.312 134.635 135.099 135.537 135.986 136.39 
136.681 137.011 137.232 137.58 137.839 132.613 132.688 133.104 133.259 
133.661 133.842 134.233 134.46 134.896 135.211 135.651 135.987 136.32 
136.61 136.853 137.146 137.394 137.739 138.001 135.981 135.463 135.565 
135.282 134.974 135.05 134.729 134.859 134.608 134.596 134.624 134.323 
134.352 134.041 134.167 133.925 134.361 134.339 134.103 134.059 133.753 
133.706 133.396 133.489 133.304 134.203 134.136 133.867 133.856 133.58 
133.52 133.183 133.105 132.814 132.92 132.812 134.116 133.965 133.564 
133.533 133.205 133.262 132.949 132.93 132.546 132.508 132.206 132.404 
132.326 134.157 133.915 133.464 133.265 132.867 132.838 132.555 132.609 
132.285 132.241 131.838 131.841 131.614 131.9 131.943 134.247 134.006 
133.605 133.306 132.908 132.669 132.373 132.289 132.069 132.011 131.739 
131.61 131.388 131.389 131.432 131.7 131.958 134.279 134.098 133.758 
133.507 133.142 132.842 132.494 132.265 132.024 131.913 131.772 131.656 
131.564 131.424 131.476 131.482 131.742 131.949 132.291 140.352 139.839 
140.105 140.081 139.207 139.531 139.475 139.758 139.663 138.471 138.812 
138.717 139.057 138.917 139.241 139.122 137.753 138.053 137.926 138.25 
138.092 138.42 138.273 138.652 138.552 137.031 137.321 137.177 137.482 
137.321 137.607 137.438 137.777 137.672 138.068 137.965 136.313 136.573 
136.394 136.708 136.53 136.837 136.628 136.943 136.797 137.187 137.121 
137.503 137.435 135.704 135.897 135.693 135.931 135.732 136.017 135.786 
136.09 135.887 136.279 136.206 136.657 136.649 137.045 137.053 135.155 
135.337 135.14 135.304 135.098 135.288 135.076 135.289 135.086 135.379 
135.284 135.718 135.735 136.214 136.245 136.687 136.722 134.611 134.798 
134.615 134.776 134.56 134.718 134.517 134.686 134.523 134.71 134.615 
134.895 134.899 135.304 135.352 135.813 135.849 136.315 136.345 140.409 
140.366 140.214 139.891 140.408 140.191 139.809 139.661 139.285 140.482 
140.251 139.842 139.616 139.206 139.022 138.604 140.482 140.294 139.882 
139.66 139.226 138.997 138.56 138.35 137.918 140.411 140.248 139.814 
139.637 139.178 138.989 138.518 138.318 137.847 137.656 137.202 140.324 
140.167 139.731 139.541 139.076 138.89 138.41 138.227 137.737 137.557 
137.083 136.919 136.489 140.242 140.092 139.683 139.48 139.029 138.815 
138.365 138.146 137.674 137.448 136.972 136.788 136.36 136.226 135.858 
140.191 140.038 139.637 139.432 138.96 138.76 138.31 138.128 137.68 
137.444 136.947 136.701 136.227 136.07 135.674 135.596 135.262 140.151 
140.008 139.61 139.392 138.883 138.655 138.156 138.01 137.572 137.424 
136.943 136.702 136.18 135.951 135.5 135.38 135.027 134.987 134.693 
140.003 139.561 139.693 139.444 139.054 139.196 138.89 139.006 138.664 
138.499 138.644 138.309 138.414 138.027 138.161 137.882 137.87 138.019 
137.668 137.814 137.438 137.547 137.239 137.44 137.276 137.215 137.322 
136.902 137.099 136.745 136.938 136.62 136.812 136.581 136.845 136.661 
136.643 136.679 136.191 136.306 135.912 136.152 135.855 136.129 135.872 
136.131 135.887 136.152 135.913 136.162 136.181 135.739 135.712 135.276 
135.36 135.056 135.311 135.126 135.413 135.217 135.43 135.197 135.414 
135.231 135.713 135.763 135.411 135.368 134.946 134.881 134.526 134.618 
134.459 134.713 134.634 134.85 134.687 134.82 134.64 134.834 134.75 
135.296 135.351 135.027 135.036 134.633 134.586 134.189 134.194 133.96 
134.133 134.062 134.308 134.216 134.379 134.213 134.342 134.227 134.441 
134.424 134.999 134.451 134.707 134.679 133.976 134.135 134.016 134.304 
134.249 133.66 133.723 133.516 133.649 133.539 133.852 133.839 133.251 
133.399 133.17 133.223 133.035 133.217 133.228 133.537 133.653 132.603 
132.85 132.659 132.83 132.612 132.764 132.698 132.98 133.121 133.485 
133.721 132.161 132.237 132.111 132.286 132.152 132.307 132.181 132.42 
132.476 132.896 133.136 133.597 133.846 132.194 132.04 131.945 131.939 
131.905 131.942 131.855 131.938 131.941 132.239 132.473 132.951 133.26 
133.695 133.899 132.36 132.171 131.993 131.919 131.852 131.843 131.787 
131.762 131.754 131.85 132.064 132.388 132.759 133.153 133.462 133.773 
133.972 132.401 132.238 131.922 131.865 131.678 131.739 131.677 131.733 
131.737 131.783 131.929 132.114 132.439 132.759 133.113 133.422 133.701 
133.94 134.178 135.052 134.949 134.849 134.54 134.827 134.706 134.396 
134.331 134.082 134.926 134.629 134.217 134.105 133.853 133.895 133.726 
135.405 134.938 134.424 134 133.574 133.539 133.375 133.52 133.306 
135.835 135.5 135.045 134.436 133.841 133.403 133.123 133.13 133.025 
133.056 132.754 135.909 135.76 135.425 135.046 134.519 133.924 133.543 
133.18 133.13 132.968 132.874 132.629 132.402 136.047 135.787 135.496 
135.284 134.968 134.583 134.286 133.842 133.752 133.404 133.395 133.027 
132.921 132.541 132.454 136.516 136.084 135.796 135.467 135.286 134.998 
134.864 134.536 134.435 134.095 134.01 133.658 133.537 133.168 133.056 
132.721 132.65 137.059 136.637 136.361 135.952 135.788 135.451 135.379 
135.08 134.994 134.678 134.522 134.194 134.007 133.702 133.554 133.276 
133.17 132.879 132.751 135.372 135.889 135.512 135.292 136.567 136.111 
135.89 135.448 135.226 137.388 136.894 136.709 136.161 135.939 135.446 
135.345 138.3 137.783 137.681 137.101 136.899 136.285 136.136 135.688 
135.737 139.318 138.744 138.653 138.106 137.979 137.352 137.161 136.559 
136.459 136.084 136.088 140.372 139.791 139.635 139.071 138.952 138.407 
138.269 137.65 137.471 136.882 136.752 136.332 136.23 141.278 140.806 
140.691 140.101 139.95 139.365 139.235 138.684 138.549 137.955 137.805 
137.191 137.078 136.536 136.476 142.001 141.65 141.659 141.172 141.084 
140.452 140.282 139.65 139.499 138.95 138.841 138.29 138.19 137.592 
137.526 136.951 136.954 142.643 142.341 142.389 142.058 142.047 141.56 
141.406 140.76 140.542 139.914 139.774 139.25 139.169 138.66 138.572 
138.036 137.964 137.457 137.44 142.995 143.337 143.021 142.717 143.577 
143.306 143.003 142.731 142.392 143.821 143.531 143.191 142.934 142.578 
142.308 141.809 144.072 143.783 143.381 143.079 142.656 142.412 141.937 
141.605 140.984 144.188 143.972 143.533 143.232 142.742 142.468 142.017 
141.731 141.204 140.79 140.208 144.143 143.996 143.584 143.337 142.853 
142.559 142.125 141.858 141.432 141.065 140.537 140.094 139.579 144.034 
143.915 143.564 143.38 142.961 142.681 142.247 141.984 141.591 141.306 
140.821 140.419 139.86 139.463 138.965 143.939 143.812 143.489 143.361 
142.997 142.781 142.328 142.073 141.62 141.401 140.927 140.633 140.063 
139.692 139.142 138.811 138.347 143.895 143.737 143.396 143.275 142.926 
142.776 142.331 142.098 141.583 141.361 140.873 140.659 140.147 139.846 
139.304 138.971 138.501 138.207 137.808 143.772 143.348 143.447 143.229 
142.832 142.974 142.74 142.896 142.714 142.22 142.411 142.17 142.358 
142.129 142.33 142.096 141.536 141.753 141.512 141.738 141.49 141.693 
141.404 141.607 141.327 140.854 141.061 140.81 141.044 140.809 141.029 
140.744 140.915 140.614 140.823 140.592 140.181 140.393 140.122 140.332 
140.069 140.313 140.055 140.266 139.982 140.158 139.895 140.12 139.889 
139.499 139.718 139.441 139.634 139.308 139.533 139.248 139.527 139.274 
139.518 139.24 139.441 139.152 139.374 139.091 138.876 139.056 138.795 
138.962 138.64 138.793 138.487 138.717 138.488 138.766 138.523 138.753 
138.45 138.647 138.346 138.566 138.309 138.349 138.476 138.23 138.37 
138.111 138.213 137.947 138.067 137.857 138.048 137.852 138.048 137.789 
137.96 137.682 137.869 137.631 137.849 137.642 137.207 137.217 137.001 
136.576 137.26 137.034 136.663 136.422 136.043 137.358 137.107 136.741 
136.523 136.197 135.958 135.631 137.455 137.22 136.828 136.599 136.248 
136.064 135.731 135.537 135.2 137.521 137.314 136.935 136.682 136.27 
136.064 135.688 135.539 135.163 135.018 134.656 137.626 137.41 137.077 
136.808 136.394 136.109 135.713 135.499 135.139 134.953 134.584 134.433 
134.112 137.76 137.542 137.223 136.974 136.601 136.29 135.911 135.618 
135.293 135.028 134.698 134.441 134.121 133.942 133.689 137.86 137.649 
137.313 137.105 136.766 136.512 136.157 135.868 135.526 135.244 134.905 
134.625 134.28 134.033 133.737 133.571 133.33 137.99 137.746 137.412 
137.19 136.88 136.665 136.349 136.096 135.732 135.451 135.055 134.791 
134.404 134.173 133.82 133.63 133.316 133.181 132.894 146.097 146.209 
146.089 145.818 146.005 146.062 145.863 145.739 145.54 145.705 145.799 
145.716 145.724 145.66 145.6 145.616 145.588 145.608 145.612 145.626 
145.698 145.724 145.838 145.79 145.753 145.573 145.616 145.691 145.667 
145.746 145.763 145.849 145.898 145.833 145.736 145.419 145.413 145.573 
145.697 145.772 145.791 145.789 145.696 145.738 145.556 145.601 145.294 
145.208 144.84 145.097 145.307 145.376 145.606 145.58 145.689 145.475 
145.483 145.175 145.204 144.91 144.954 144.682 144.653 144.385 144.698 
144.893 144.836 145.109 145.033 145.274 145.089 145.18 144.888 144.874 
144.584 144.59 144.363 144.41 144.188 144.192 143.901 144.235 144.413 
144.275 144.503 144.39 144.647 144.52 144.721 144.536 144.611 144.364 
144.351 144.098 144.104 143.873 143.91 143.646 143.633 143.298 145.841 
145.588 145.603 145.326 145.394 145.363 145.184 145.132 144.896 145.489 
145.328 145.189 145.077 144.894 144.765 144.478 145.526 145.436 145.195 
145.11 144.859 144.756 144.408 144.26 143.84 145.127 145.217 144.842 
144.909 144.531 144.566 144.145 144.09 143.623 143.522 143.085 144.609 
144.686 144.313 144.379 143.982 144.066 143.663 143.706 143.295 143.267 
142.871 142.79 142.405 144.228 144.266 143.969 143.939 143.605 143.582 
143.25 143.247 142.917 142.923 142.593 142.57 142.209 142.126 141.738 
143.754 143.888 143.608 143.652 143.34 143.323 143.015 142.966 142.646 
142.601 142.258 142.245 141.873 141.86 141.466 141.428 141.068 143.13 
143.318 143.03 143.187 142.88 142.99 142.691 142.733 142.41 142.373 
141.99 141.92 141.496 141.461 141.055 141.073 140.734 140.768 140.499 
145.78 145.282 145.499 145.362 144.812 145.005 144.912 145.053 144.84 
144.342 144.545 144.437 144.612 144.454 144.542 144.279 143.721 144.005 
143.885 144.114 143.953 144.119 143.889 143.962 143.655 142.999 143.317 
143.231 143.515 143.349 143.558 143.323 143.489 143.227 143.32 143.039 
142.286 142.585 142.502 142.83 142.7 142.935 142.693 142.872 142.632 
142.821 142.609 142.734 142.512 141.596 141.864 141.732 142.072 141.969 
142.27 142.072 142.26 142.018 142.211 142.026 142.236 142.039 142.191 
141.961 140.975 141.192 141.042 141.314 141.211 141.526 141.395 141.64 
141.437 141.627 141.431 141.638 141.446 141.638 141.396 141.567 141.327 
140.462 140.637 140.509 140.697 140.583 140.825 140.717 140.971 140.823 
141.043 140.866 141.064 140.869 141.044 140.814 140.974 140.743 140.924 
140.742 135.528 135.962 135.833 136.054 136.494 136.345 136.591 136.43 
136.721 137.09 136.961 137.265 137.045 137.304 137.141 137.482 137.684 
137.596 137.964 137.762 137.998 137.759 138.049 137.935 138.358 138.26 
138.181 138.569 138.44 138.717 138.476 138.758 138.569 139.023 138.927 
139.443 138.804 138.713 139.073 139.007 139.364 139.203 139.545 139.341 
139.801 139.672 140.212 140.079 140.536 139.301 139.196 139.495 139.462 
139.86 139.828 140.26 140.138 140.582 140.45 140.913 140.804 141.194 
141.059 141.367 139.774 139.656 139.909 139.853 140.228 140.269 140.751 
140.774 141.234 141.164 141.554 141.435 141.756 141.624 141.89 141.768 
142.03 140.21 140.113 140.369 140.281 140.629 140.631 141.093 141.171 
141.644 141.684 142.067 142.007 142.309 142.176 142.448 142.294 142.569 
142.427 142.7 
POINT_DATA 1002
SCALARS Distance double
LOOKUP_TABLE default
143.709 144.072 144.39 143.99 144.562 143.239 144.048 144.52 143.413 
142.672 143.927 144.451 143.344 142.751 142.013 143.977 144.458 143.247 
142.673 142.076 141.323 144.12 144.31 143.45 142.679 142.067 141.368 
140.649 143.898 143.922 143.59 142.861 142.096 141.349 140.586 139.954 
143.386 143.556 143.245 142.787 142.091 141.352 140.563 139.846 139.284 
142.99 143.375 142.729 142.368 141.817 141.246 140.637 139.939 139.275 
138.722 142.783 143.286 142.396 142.016 141.497 140.966 140.529 140.049 
139.444 138.805 138.245 144.557 144.792 144.933 145.003 145.22 144.865 
145.192 145.458 145.016 144.808 145.451 145.565 145.257 145.001 144.727 
145.6 145.615 145.559 145.357 144.971 144.607 145.711 145.877 145.649 
145.712 145.481 144.924 144.371 146.003 146.244 145.659 145.688 145.779 
145.4 144.724 144.086 146.241 146.339 145.769 145.471 145.479 145.321 
144.891 144.411 143.908 146.131 146.07 145.782 145.334 145.078 144.848 
144.564 144.398 144.237 143.852 145.703 145.601 145.159 144.953 144.586 
145.237 144.337 143.987 144.702 144.904 143.717 143.345 144.269 144.629 
144.642 143.111 142.793 143.792 144.536 144.593 144.349 142.639 142.316 
143.219 144.154 144.704 144.467 144.24 142.191 141.739 142.709 143.408 
144.159 144.491 144.397 144.306 141.614 141.107 142.194 142.703 143.159 
143.679 144.107 144.248 144.128 141.008 140.588 141.556 142.06 142.335 
142.609 143.146 143.648 143.769 143.575 142.779 142.962 142.134 143.03 
142.192 141.447 142.729 142.179 141.448 140.731 142.153 141.834 141.399 
140.714 139.958 141.782 141.339 140.998 140.542 139.909 139.242 141.603 
141.043 140.526 140.017 139.536 139.1 138.617 141.233 140.758 140.225 
139.599 138.956 138.565 138.322 137.934 140.745 140.361 139.897 139.356 
138.659 138.055 137.771 137.543 137.149 140.361 140.034 139.562 139.039 
138.464 137.844 137.385 137.1 136.776 136.379 142.267 141.693 141.891 
141.05 141.403 141.451 140.231 140.784 140.972 140.845 139.331 139.852 
140.296 140.236 140.256 138.598 138.844 139.293 139.389 139.427 139.78 
137.958 138.035 138.32 138.455 138.469 138.834 139.299 137.221 137.308 
137.537 137.74 137.764 137.952 138.402 138.72 136.451 136.577 136.814 
137.112 137.307 137.437 137.671 137.942 138.114 135.684 135.813 135.033 
135.239 134.377 136.041 134.596 133.69 135.492 136.343 133.957 133.155 
134.824 135.759 136.681 133.544 132.748 134.249 135.083 136.146 136.986 
133.211 132.3 133.898 134.536 135.53 136.564 137.202 132.888 132.061 
133.619 134.192 135.005 136.026 136.797 137.338 132.824 132.243 133.464 
134.034 134.711 135.583 136.349 136.9 137.461 133 132.598 133.49 
134.029 134.636 135.341 136.032 136.583 137.079 137.644 135.881 135.131 
135.378 134.642 134.904 134.416 134.327 134.557 134 133.71 134.133 
134.395 133.85 133.41 133.07 133.883 134.334 133.588 133.304 132.838 
132.537 133.681 134.337 133.132 132.896 132.65 132.152 131.931 133.729 
134.409 132.985 132.487 132.284 131.923 131.443 131.47 133.883 134.452 
133.207 132.536 132.097 131.829 131.467 131.256 131.572 133.962 134.424 
133.433 132.787 132.163 131.816 131.675 131.553 131.622 132.034 140.108 
139.847 139.563 139.184 138.876 139.395 138.377 138.163 138.592 138.766 
137.621 137.477 137.783 137.903 138.152 136.867 136.751 137.044 137.137 
137.277 137.588 136.102 136.088 136.217 136.333 136.416 136.699 137.078 
135.501 135.525 135.478 135.505 135.523 135.723 136.196 136.674 134.985 
134.957 134.935 134.883 134.842 134.893 135.236 135.774 136.29 140.532 
140.004 140.563 140.006 140.655 139.418 140.095 140.698 139.426 138.775 
140.09 140.66 139.463 138.792 138.114 139.994 140.579 139.359 138.714 
138.049 137.379 139.928 140.467 139.272 138.598 137.92 137.243 136.63 
139.884 140.378 139.241 138.577 137.921 137.182 136.492 135.961 139.853 
140.342 139.174 138.465 137.888 137.232 136.43 135.759 135.305 139.831 
140.283 139.149 138.327 137.678 137.153 136.447 135.665 135.078 134.7 