# vtk DataFile Version 4.0
vtk output
ASCII
DATASET POLYDATA
POINTS 1002 float
-80.5826 -102.674 52.9394 -80.7474 -102.921 53.5904 -81.2718 -102.772 53.3704 
-81.0676 -102.472 52.6287 -81.645 -102.471 53.0928 -80.2391 -102.194 52.2715 
-81.486 -102.187 52.1294 -82.1301 -102.138 52.5711 -80.7458 -102.092 51.6912 
-79.9646 -101.93 51.2358 -81.9908 -101.84 51.5603 -82.7376 -101.826 51.9537 
-81.2677 -101.947 51.0444 -80.5257 -101.934 50.5311 -79.8428 -101.941 49.9438 
-82.4619 -101.396 51.2382 -83.1617 -101.392 51.6042 -81.7795 -101.588 50.707 
-81.0161 -101.696 50.124 -80.2634 -101.65 49.5872 -79.5079 -101.605 49.0604 
-82.8322 -100.897 51.034 -83.5364 -100.872 51.356 -82.1966 -101.026 50.6033 
-81.4672 -101.165 50.0391 -80.6103 -101.088 49.5124 -79.7832 -100.973 49.0672 
-78.881 -100.869 48.6129 -83.4082 -100.589 50.4588 -84.1679 -100.522 50.7614 
-82.6467 -100.56 50.1626 -81.9563 -100.619 49.7482 -81.1471 -100.647 49.2323 
-80.2968 -100.567 48.7903 -79.4047 -100.485 48.4011 -78.4843 -100.425 47.92 
-84.1357 -100.468 49.6572 -84.7857 -100.268 50.0149 -83.2795 -100.389 49.3663 
-82.4823 -100.277 49.0817 -81.7568 -100.385 48.6252 -81.0293 -100.552 48.0838 
-80.2491 -100.551 47.6646 -79.3475 -100.441 47.2883 -78.5513 -100.426 46.8554 
-84.5759 -100.185 49.1756 -85.0636 -99.8642 49.5775 -83.8733 -100.258 48.7715 
-83.0387 -100.103 48.4463 -82.2404 -100.084 48.061 -81.5564 -100.365 47.4838 
-80.9332 -100.603 46.9077 -80.2149 -100.564 46.4782 -79.4228 -100.45 46.108 
-78.7868 -100.496 45.7936 -84.6603 -99.6363 49.0564 -85.1133 -99.34 49.4503 
-84.1915 -99.8786 48.5285 -83.5591 -99.912 48.0317 -82.7368 -99.8212 47.6334 
-81.9174 -99.9071 47.1627 -81.2724 -100.188 46.5589 -80.715 -100.358 45.9852 
-80.101 -100.345 45.5153 -79.473 -100.347 45.1385 -78.9325 -100.456 44.9069 
-81.0782 -102.808 54.2396 -81.4913 -102.577 53.9994 -81.1462 -102.46 54.9573 
-81.5242 -102.136 54.659 -81.1636 -102.102 55.6463 -81.9533 -102.301 53.6735 
-81.7838 -101.808 55.3412 -81.5234 -101.997 56.3744 -82.3229 -102.043 54.2423 
-82.752 -102.166 53.0167 -82.4883 -101.908 56.11 -82.1741 -102.142 57.0788 
-82.9258 -101.921 54.917 -83.426 -102.155 53.5151 -83.4934 -101.964 52.3097 
-83.2306 -102.142 56.7829 -82.6656 -102.11 57.546 -83.572 -101.967 55.6818 
-83.8836 -101.926 54.2502 -84.017 -101.833 52.8723 -83.8133 -101.366 51.9884 
-83.6326 -101.867 57.2299 -82.9138 -101.622 57.7943 -83.9642 -101.795 56.2993 
-84.0461 -101.474 55.0115 -84.1113 -101.236 53.6388 -84.1415 -100.959 52.5496 
-84.1641 -100.648 51.6884 -83.8396 -101.124 57.5164 -83.1159 -100.951 57.9088 
-84.1554 -101.196 56.7515 -84.1546 -100.936 55.5632 -84.1755 -100.585 54.2394 
-84.2893 -100.345 53.0689 -84.5102 -100.176 52.0347 -84.7583 -100.165 50.9842 
-84.0239 -100.407 57.6118 -83.2822 -100.376 57.8803 -84.3696 -100.512 57.0497 
-84.3806 -100.473 55.9812 -84.4731 -100.229 54.6276 -84.6848 -99.965 53.3803 
-84.8912 -99.7674 52.286 -85.1338 -99.6965 51.2039 -85.2517 -99.7794 50.2458 
-84.1416 -99.8482 57.5283 -83.3618 -99.8766 57.7647 -84.6139 -99.9526 57.1279 
-84.7069 -100.093 56.2683 -84.8248 -100.047 54.9721 -85.1582 -99.815 53.655 
-85.4611 -99.5601 52.5448 -85.6488 -99.3832 51.4869 -85.7198 -99.3339 50.511 
-85.5339 -99.357 49.8462 -83.8987 -99.3291 57.456 -84.625 -99.367 57.1449 
-84.3201 -98.8208 57.0469 -84.9222 -98.9089 56.5895 -84.4788 -98.4185 56.4569 
-84.9787 -99.5733 56.5319 -85.0116 -98.387 55.7986 -84.5406 -97.9761 55.7136 
-85.2316 -99.0606 55.6744 -85.1012 -99.7171 55.3813 -85.1347 -97.7561 54.8632 
-84.7748 -97.3793 54.9846 -85.3915 -98.294 54.6057 -85.4541 -99.0224 54.3116 
-85.4034 -99.5804 53.9884 -85.2993 -97.187 54.0057 -84.8804 -96.8455 54.2617 
-85.6173 -97.5609 53.6014 -85.772 -98.1498 53.3054 -85.8982 -98.8403 53.1094 
-85.8742 -99.3231 52.8289 -85.1329 -96.792 53.2229 -84.6068 -96.4773 53.4341 
-85.7266 -97.0736 52.8553 -86.1632 -97.489 52.5772 -86.4099 -98.1386 52.4441 
-86.5292 -98.7627 52.1957 -86.253 -99.1427 51.7903 -84.7497 -96.4172 52.4698 
-84.3382 -96.0441 52.679 -85.4591 -96.7128 52.2092 -86.3031 -96.9653 52.003 
-86.8675 -97.4699 51.8303 -87.1282 -98.1977 51.5473 -86.9932 -98.7516 51.1188 
-86.388 -99.0487 50.7236 -84.4834 -95.932 51.8807 -84.2348 -95.474 52.1602 
-85.0122 -96.3896 51.6016 -85.9332 -96.5923 51.4075 -86.7803 -96.7649 51.1711 
-87.261 -97.3634 50.7815 -87.3577 -98.1738 50.3744 -86.9074 -98.6955 50.1014 
-86.1368 -98.9902 49.9508 -84.2466 -95.3924 51.4317 -84.041 -94.9463 51.7275 
-84.5761 -96.0073 51.1049 -85.2692 -96.4045 50.86 -86.0841 -96.4189 50.5984 
-86.6588 -96.5877 50.1693 -86.9668 -97.3117 49.7333 -86.8623 -98.121 49.5458 
-86.2548 -98.5825 49.5608 -85.553 -98.9043 49.561 -84.7932 -98.9305 49.1401 
-85.2271 -98.5 49.2281 -84.5098 -98.5003 48.5101 -85.8238 -98.1282 49.1794 
-84.815 -98.058 48.6493 -84.2757 -98.1208 47.6361 -86.1374 -97.4856 49.1512 
-85.1221 -97.6086 48.7608 -84.3351 -97.589 47.9635 -83.8265 -97.6737 47.0383 
-85.9825 -96.6697 49.3585 -85.1377 -96.9514 48.847 -84.392 -97.0617 48.2017 
-83.718 -97.0294 47.3747 -83.0848 -97.1056 46.7398 -85.6179 -96.2932 49.766 
-84.9202 -96.3434 48.9869 -84.3856 -96.4417 48.1757 -83.8149 -96.4137 47.3616 
-83.0552 -96.441 46.773 -82.3979 -96.5824 46.2182 -85.0905 -96.2773 50.1228 
-84.6378 -96.0055 49.2401 -84.2843 -95.7794 48.162 -83.9921 -95.6964 47.1309 
-83.3209 -95.7269 46.5457 -82.4802 -95.8837 46.1408 -81.9915 -96.0549 45.4201 
-84.4722 -95.9502 50.3778 -84.2513 -95.6155 49.5142 -84.0403 -95.127 48.4181 
-83.899 -94.9149 47.2249 -83.4973 -94.9804 46.4384 -82.6731 -95.1081 46.0894 
-81.9665 -95.2356 45.5469 -81.7461 -95.3323 44.6417 -84.0479 -95.2906 50.6705 
-83.8428 -95.0607 49.7644 -83.6869 -94.6229 48.7566 -83.4992 -94.3469 47.6691 
-83.1976 -94.3965 46.7199 -82.6251 -94.4933 46.1596 -81.9002 -94.537 45.7033 
-81.5014 -94.561 44.9499 -81.5057 -94.5826 44.0497 -83.7985 -94.7519 50.9957 
-83.5052 -94.6131 50.0458 -83.2985 -94.3928 49.0392 -83.0195 -94.1819 48.0902 
-82.6188 -94.1122 47.1765 -82.2271 -94.0606 46.3883 -81.7419 -94.0193 45.8082 
-81.2539 -94.07 45.2295 -81.091 -94.1079 44.4893 -81.1931 -94.102 43.744 
-84.3775 -99.1987 48.5345 -84.2344 -98.8221 47.6102 -84.0285 -99.5078 47.783 
-83.9964 -98.4765 46.74 -83.8915 -99.2243 46.8091 -83.3899 -99.6294 47.2076 
-83.3004 -97.8974 46.456 -83.3699 -98.7822 46.2366 -83.036 -99.3454 46.4013 
-82.4257 -99.5714 46.8218 -82.4272 -97.1845 46.1777 -82.4342 -97.9528 46.0409 
-82.2993 -98.764 45.9317 -81.9661 -99.2507 46.0656 -81.5528 -99.635 46.3351 
-81.9384 -96.6427 45.3267 -81.7621 -97.1646 45.3781 -81.5693 -97.9139 45.3723 
-81.4684 -98.7492 45.3176 -81.258 -99.3315 45.4492 -80.9598 -99.8503 45.6932 
-81.8062 -96.0698 44.3344 -81.6234 -96.7013 44.3354 -81.3133 -97.2887 44.4748 
-81.1774 -98.1256 44.4618 -81.0912 -98.9848 44.4755 -80.7972 -99.5676 44.7251 
-80.4411 -100.01 45.0758 -81.691 -95.2629 43.628 -81.5864 -96.1598 43.5332 
-81.2704 -96.9265 43.6888 -81.0296 -97.6052 43.7536 -80.8978 -98.4468 43.7127 
-80.6503 -99.2499 43.8445 -80.2673 -99.779 44.1655 -79.8793 -100.119 44.582 
-81.4401 -94.512 43.2564 -81.368 -95.3906 43.0711 -81.0484 -96.4277 43.1564 
-80.7521 -97.1947 43.2354 -80.5382 -97.8429 43.2366 -80.2984 -98.6638 43.3287 
-80.0055 -99.4537 43.5256 -79.6737 -99.9634 43.7978 -79.3115 -100.254 44.2517 
-80.9555 -93.9692 43.3387 -81.0194 -94.476 42.9143 -80.4516 -93.9964 43.0822 
-80.2698 -94.7263 42.7307 -79.6779 -94.2194 42.8717 -80.7083 -95.5337 42.7865 
-79.4071 -95.1748 42.6218 -78.7803 -94.531 42.7449 -79.8878 -95.8738 42.475 
-80.3311 -96.6216 42.7362 -78.5894 -95.5711 42.6603 -77.9111 -94.7788 42.7715 
-79.1539 -96.2571 42.2562 -79.5777 -96.8251 42.1928 -80.0504 -97.3222 42.7053 
-77.7252 -95.8114 42.8021 -77.1115 -95.0037 42.8664 -78.3678 -96.5224 42.3905 
-78.8559 -97.0353 42.0089 -79.2613 -97.4705 42.3115 -79.7653 -98.0168 42.9136 
-76.7909 -96.0078 42.9043 -76.3334 -95.3085 43.0209 -77.3368 -96.6695 42.6681 
-77.9374 -97.2321 42.3468 -78.4818 -97.7533 42.3924 -78.972 -98.3238 42.8277 
-79.5133 -98.9553 43.1973 -75.9796 -96.2476 43.0766 -75.638 -95.6655 43.3595 
-76.3192 -96.8263 42.8308 -76.8076 -97.4473 42.6763 -77.5199 -98.1357 42.6633 
-78.2011 -98.7773 42.8296 -78.758 -99.3328 43.0691 -79.2698 -99.7567 43.3473 
-75.4455 -96.5481 43.493 -75.1658 -96.0323 43.8673 -75.6445 -97.077 43.0915 
-75.8589 -97.7351 42.8514 -76.4077 -98.5633 42.7856 -77.1868 -99.2707 42.7805 
-77.8592 -99.702 42.8969 -78.4342 -100.006 43.2018 -78.9427 -100.199 43.6652 
-75.1027 -96.8805 44.0626 -74.874 -96.3903 44.3827 -75.2665 -97.3799 43.6263 
-75.3283 -98.0051 43.2355 -75.5796 -98.8605 43.0197 -76.1652 -99.6289 42.9055 
-76.8163 -99.9777 42.9509 -77.4393 -100.135 43.2929 -78.0868 -100.336 43.81 
-78.6112 -100.462 44.3476 -80.6748 -93.8871 44.1125 -80.332 -93.7621 43.79 
-80.1184 -93.5479 44.5774 -79.6567 -93.2718 44.1893 -79.8033 -92.6331 44.7941 
-79.834 -93.6435 43.3966 -79.298 -92.2586 44.1785 -79.7125 -91.6168 44.6995 
-79.2818 -92.9695 43.5419 -79.1273 -93.6618 42.947 -79.1735 -91.5559 44.1083 
-79.4328 -91.3445 44.9632 -79.0914 -92.189 43.596 -78.7657 -93.0035 43.0692 
-78.2277 -93.8322 42.7322 -78.8659 -91.7099 44.7661 -78.9489 -91.5357 46.0218 
-78.9299 -92.0631 44.0611 -78.6078 -92.6656 43.6374 -77.8734 -93.3111 43.0759 
-77.3412 -94.0423 42.7948 -78.5236 -92.0811 45.9823 -78.6729 -91.6015 47.1983 
-78.5015 -92.4443 44.9917 -78.2202 -92.7691 44.4865 -77.5329 -93.1537 43.8701 
-76.9213 -93.6002 43.1879 -76.5798 -94.3407 42.9566 -78.3789 -92.3005 46.9306 
-78.5578 -91.7668 47.8255 -78.1393 -92.7102 45.9273 -77.6992 -92.8787 45.2063 
-77.0462 -93.0967 44.5608 -76.5077 -93.4382 43.8086 -76.1531 -93.962 43.3301 
-75.8422 -94.7709 43.2772 -78.1351 -92.5512 47.4655 -78.2709 -92.2088 48.1306 
-77.8581 -92.839 46.6837 -77.3759 -92.9248 45.9512 -76.7425 -93.0746 45.2407 
-76.2129 -93.4257 44.5196 -75.8517 -93.8739 43.9846 -75.4938 -94.4679 43.777 
-75.2231 -95.2363 43.799 -77.6257 -92.7992 47.9597 -77.7957 -92.6448 48.5496 
-77.3726 -92.9409 47.3665 -77.0311 -93.032 46.8223 -76.623 -93.2485 46.2178 
[...]
CELL_DATA 2000
SCALARS Distance double
LOOKUP_TABLE default
140.23 140.236 140.062 139.587 140.097 139.98 139.542 139.322 138.806 
139.957 139.822 139.421 139.258 138.816 138.584 138.162 139.806 139.679 
139.283 139.16 138.762 138.582 138.14 137.952 137.5 139.589 139.489 
139.09 139.01 138.615 138.49 137.998 137.828 137.288 137.147 136.575 
139.449 139.306 138.912 138.795 138.401 138.301 137.84 137.662 137.141 
136.935 136.423 136.202 135.682 139.413 139.268 138.892 138.679 138.256 
138.095 137.695 137.54 137.145 136.923 136.54 136.245 135.854 135.512 
135.153 139.26 139.227 138.895 138.706 138.258 138.022 137.589 137.424 
137.076 136.953 136.645 136.455 136.114 135.809 135.445 135.131 134.866 
138.912 138.972 138.677 138.633 138.231 138.044 137.58 137.361 136.943 
136.823 136.484 136.43 136.092 135.967 135.584 135.367 135.019 134.831 
134.603 140.522 140.735 140.632 140.514 140.747 140.712 140.664 140.57 
140.408 140.953 140.762 140.789 140.727 140.763 140.539 140.363 141.604 
141.221 141.283 141.042 141.209 140.994 140.962 140.555 140.275 142.293 
142.021 142.066 141.711 141.746 141.486 141.421 141.112 140.81 140.381 
140.011 142.48 142.529 142.541 142.35 142.12 141.871 141.542 141.352 
140.96 140.728 140.329 140.042 139.762 142.245 142.47 142.472 142.494 
142.157 141.974 141.464 141.28 140.815 140.685 140.313 140.19 139.933 
139.792 139.625 141.915 142.15 142.177 142.273 142.023 141.886 141.444 
141.205 140.802 140.596 140.3 140.148 139.934 139.843 139.682 139.604 
139.427 141.573 141.806 141.867 142.003 141.886 141.81 141.518 141.291 
140.992 140.742 140.52 140.285 140.108 139.909 139.759 139.622 139.461 
139.342 139.116 141.392 141.17 141.438 141.681 140.818 141.159 141.396 
141.649 141.718 140.281 140.689 140.885 141.251 141.316 141.53 141.406 
139.662 140.049 140.149 140.577 140.62 140.994 140.932 141.131 140.944 
139.07 139.41 139.444 139.796 139.817 140.214 140.253 140.598 140.566 
140.714 140.54 138.402 138.78 138.825 139.149 139.215 139.53 139.68 
140.006 140.165 140.38 140.359 140.372 140.175 137.643 138.047 138.12 
138.52 138.647 139.016 139.215 139.563 139.798 140.074 140.174 140.244 
140.103 140.022 139.803 136.933 137.295 137.377 137.799 137.949 138.398 
138.553 139.001 139.141 139.591 139.678 139.986 139.883 139.93 139.67 
139.626 139.42 136.269 136.606 136.668 137.077 137.221 137.672 137.776 
138.21 138.208 138.692 138.684 139.222 139.168 139.521 139.293 139.395 
139.103 139.172 138.986 138.652 138.716 138.45 138.019 138.828 138.544 
138.019 137.759 137.29 138.61 138.499 137.928 137.732 137.158 136.975 
136.496 138.088 138.068 137.501 137.472 136.902 136.784 136.199 136.093 
135.582 137.688 137.576 137.018 136.963 136.441 136.408 135.836 135.745 
135.159 135.102 134.594 137.373 137.286 136.728 136.572 135.986 135.91 
135.349 135.308 134.732 134.674 134.135 134.112 133.649 136.857 136.906 
136.349 136.259 135.569 135.453 134.808 134.78 134.23 134.223 133.693 
133.663 133.155 133.164 132.714 136.279 136.325 135.79 135.766 135.099 
134.993 134.322 134.253 133.708 133.713 133.228 133.215 132.697 132.667 
132.168 132.205 131.787 135.866 135.816 135.311 135.24 134.678 134.561 
133.985 133.852 133.325 133.251 132.771 132.744 132.25 132.216 131.728 
131.709 131.304 131.344 131.037 138.584 137.93 138.294 138.327 137.232 
137.613 137.671 138.02 137.968 136.497 136.918 137.009 137.381 137.357 
137.595 137.393 135.598 136.11 136.191 136.668 136.644 136.961 136.751 
136.946 136.714 134.575 135.099 135.09 135.67 135.617 136.113 135.925 
136.245 136.011 136.285 136.175 133.627 134.071 133.987 134.481 134.393 
134.948 134.865 135.345 135.22 135.566 135.47 135.806 135.777 132.744 
133.173 133.132 133.501 133.435 133.832 133.844 134.322 134.386 134.804 
134.804 135.124 135.087 135.403 135.336 131.846 132.294 132.337 132.746 
132.772 133.092 133.126 133.482 133.596 134.023 134.124 134.488 134.485 
134.764 134.702 134.957 134.857 131.069 131.435 131.492 131.947 132.044 
132.461 132.51 132.855 132.881 133.266 133.332 133.763 133.812 134.17 
134.147 134.4 134.339 134.541 134.475 130.731 130.349 130.694 131.089 
129.983 130.323 130.712 131.133 131.634 129.656 130.003 130.402 130.77 
131.241 131.684 132.143 129.36 129.74 130.181 130.496 130.886 131.263 
131.672 132.11 132.503 129.057 129.467 129.942 130.276 130.618 130.912 
131.236 131.619 132.025 132.47 132.915 128.776 129.149 129.581 129.963 
130.304 130.624 130.949 131.267 131.694 132.069 132.578 132.979 133.445 
128.622 128.882 129.232 129.557 129.89 130.255 130.653 131.027 131.512 
131.861 132.378 132.72 133.187 133.512 133.857 128.685 128.807 129.128 
129.293 129.614 129.886 130.329 130.731 131.269 131.676 132.156 132.508 
132.899 133.236 133.551 133.847 134.076 128.912 128.96 129.287 129.332 
129.643 129.76 130.184 130.481 131.019 131.405 131.855 132.199 132.518 
132.865 133.166 133.514 133.785 134.051 134.249 130.52 130.134 130.267 
130.133 129.525 129.788 129.62 129.833 129.707 128.683 129.006 128.837 
129.189 129.036 129.342 129.27 128.122 128.22 128.103 128.397 128.342 
128.629 128.533 128.868 128.874 128.149 127.978 127.942 127.968 128.063 
128.143 128.106 128.209 128.142 128.472 128.548 128.482 128.258 128.262 
128.117 128.206 128.125 128.082 127.983 127.818 127.875 127.853 128.197 
128.331 128.811 128.656 128.659 128.489 128.421 128.284 128.098 127.977 
127.718 127.659 127.519 127.657 127.739 128.07 128.255 129.063 128.96 
128.935 128.789 128.62 128.423 128.15 127.963 127.719 127.595 127.481 
127.464 127.511 127.649 127.832 128.107 128.352 129.224 129.137 129.038 
128.939 128.756 128.582 128.379 128.144 128.03 127.793 127.799 127.611 
127.696 127.614 127.768 127.849 128.089 128.317 128.601 135.539 134.8 
135.1 134.923 133.962 134.306 134.138 134.455 134.281 133.094 133.435 
133.283 133.643 133.487 133.808 133.63 132.295 132.565 132.33 132.708 
132.515 132.934 132.741 133.115 132.944 131.529 131.762 131.426 131.724 
131.426 131.839 131.596 132.078 131.893 132.384 132.286 130.663 130.923 
130.574 130.845 130.541 130.824 130.565 130.923 130.75 131.237 131.174 
131.732 131.724 129.86 130.04 129.716 129.99 129.766 130.046 129.837 
130.074 129.9 130.218 130.187 130.656 130.721 131.232 131.27 129.439 
129.433 129.162 129.264 129.08 129.308 129.123 129.374 129.153 129.443 
129.351 129.777 129.877 130.352 130.473 130.881 130.934 129.33 129.254 
129.075 128.988 128.827 128.817 128.627 128.706 128.453 128.649 128.49 
128.902 128.996 129.545 129.752 130.204 130.324 130.646 130.708 135.758 
135.78 135.553 135.034 135.677 135.512 135.008 134.758 134.18 135.628 
135.417 134.952 134.709 134.153 133.875 133.317 135.689 135.439 134.982 
134.706 134.179 133.869 133.331 133.057 132.564 135.656 135.467 134.992 
134.757 134.219 133.917 133.358 133.082 132.591 132.347 131.846 135.579 
135.379 134.901 134.703 134.169 133.919 133.343 133.083 132.567 132.352 
131.86 131.598 131.022 135.656 135.378 134.908 134.632 134.117 133.853 
133.314 133.055 132.547 132.319 131.851 131.607 131.09 130.766 130.227 
135.751 135.506 135.032 134.712 134.174 133.856 133.336 133.059 132.581 
132.329 131.871 131.621 131.157 130.869 130.408 130.088 129.727 135.686 
135.537 135.072 134.813 134.251 133.933 133.386 133.108 132.639 132.388 
131.932 131.667 131.203 130.943 130.514 130.267 129.924 129.703 129.49 
135.477 134.975 135.117 134.862 134.478 134.578 134.243 134.385 134.034 
133.976 134.052 133.652 133.742 133.356 133.506 133.176 133.438 133.518 
133.104 133.161 132.756 132.861 132.544 132.709 132.449 132.894 132.973 
132.573 132.624 132.222 132.297 131.958 132.099 131.814 131.998 131.731 
132.369 132.449 132.077 132.121 131.728 131.778 131.414 131.519 131.187 
131.34 131.029 131.235 130.972 131.851 131.94 131.588 131.644 131.249 
131.288 130.911 130.987 130.651 130.746 130.422 130.552 130.285 130.498 
130.301 131.357 131.434 131.09 131.154 130.761 130.799 130.417 130.49 
130.178 130.263 129.96 130.024 129.743 129.874 129.695 129.909 129.779 
130.931 130.972 130.648 130.689 130.331 130.339 129.975 130.015 129.734 
129.824 129.573 129.624 129.342 129.397 129.192 129.36 129.28 129.486 
129.418 130.611 130.093 130.34 130.336 129.701 129.875 129.845 130.06 
130.014 129.393 129.5 129.387 129.558 129.447 129.689 129.643 129.084 
129.125 128.846 129.001 128.818 129.094 129.054 129.36 129.412 128.845 
128.786 128.402 128.421 128.219 128.462 128.516 128.832 128.941 129.213 
129.285 128.742 128.624 128.322 128.159 128.041 128.081 128.288 128.479 
128.697 128.843 128.889 129.06 129.066 128.691 128.59 128.397 128.248 
128.198 128.154 128.387 128.479 128.73 128.756 128.772 128.76 128.716 
128.851 128.923 128.652 128.544 128.328 128.282 128.18 128.246 128.318 
128.503 128.609 128.744 128.7 128.702 128.621 128.646 128.722 128.863 
129.054 128.669 128.503 128.207 128.14 127.941 128.027 127.937 128.161 
128.109 128.372 128.299 128.493 128.459 128.584 128.678 128.79 128.967 
129.089 129.248 130.73 130.814 130.53 130.165 131.064 130.643 130.164 
129.97 129.724 131.439 130.941 130.358 130.002 129.675 129.593 129.463 
131.784 131.326 130.743 130.273 129.847 129.605 129.468 129.408 129.298 
132.06 131.652 131.167 130.716 130.302 129.904 129.666 129.472 129.377 
129.263 129.109 132.444 131.989 131.583 131.169 130.864 130.449 130.168 
129.783 129.543 129.331 129.175 129.067 128.921 132.988 132.496 132.108 
131.65 131.377 131.006 130.763 130.341 130.001 129.588 129.314 129.113 
129.009 128.925 128.846 133.504 133.085 132.72 132.236 131.905 131.505 
131.257 130.887 130.577 130.113 129.781 129.394 129.269 129.084 129.103 
128.949 128.901 133.859 133.555 133.242 132.826 132.479 132.043 131.757 
131.372 131.115 130.69 130.406 129.959 129.796 129.491 129.518 129.314 
129.345 129.085 129.002 131.144 131.936 131.447 131.316 132.859 132.332 
132.245 131.719 131.637 133.817 133.293 133.203 132.682 132.615 132.095 
132.02 134.767 134.26 134.188 133.657 133.575 133.053 132.97 132.456 
132.333 135.778 135.245 135.235 134.686 134.63 134.051 133.96 133.401 
133.285 132.732 132.59 136.925 136.344 136.356 135.779 135.748 135.148 
135.053 134.444 134.319 133.72 133.592 133.016 132.941 138.055 137.524 
137.523 136.936 136.878 136.267 136.146 135.532 135.367 134.764 134.594 
134.023 133.915 133.41 133.405 138.929 138.543 138.545 138.056 137.992 
137.401 137.264 136.621 136.429 135.79 135.571 134.979 134.797 134.305 
134.225 133.831 133.832 139.555 139.271 139.274 138.933 138.9 138.447 
138.34 137.748 137.56 136.884 136.648 135.975 135.747 135.162 135.01 
134.565 134.501 134.162 134.138 139.883 140.303 139.916 139.59 140.738 
140.326 139.952 139.603 139.253 141.05 140.709 140.28 139.934 139.551 
139.218 138.758 141.131 140.921 140.464 140.164 139.697 139.43 138.952 
138.613 138.006 140.98 140.892 140.439 140.221 139.674 139.45 138.933 
138.703 138.12 137.763 137.08 140.649 140.635 140.197 140.088 139.55 
139.353 138.816 138.62 138.093 137.823 137.195 136.808 136.149 140.327 
140.271 139.869 139.809 139.378 139.227 138.739 138.525 138.033 137.798 
137.255 136.921 136.3 135.914 135.36 140.203 140.043 139.678 139.561 
139.225 139.103 138.705 138.493 138.011 137.765 137.254 136.979 136.419 
136.073 135.523 135.196 134.782 140.189 140.005 139.62 139.454 139.103 
138.992 138.635 138.471 138.011 137.763 137.25 136.987 136.474 136.181 
135.67 135.359 134.929 134.679 134.373 140.011 139.361 139.617 139.41 
138.583 138.873 138.717 138.998 138.857 137.953 138.153 137.996 138.27 
138.176 138.482 138.37 137.329 137.572 137.375 137.599 137.459 137.762 
137.646 137.948 137.753 136.376 136.778 136.522 136.876 136.632 136.991 
136.815 137.167 136.965 137.249 136.994 135.392 135.713 135.421 135.828 
135.557 136.007 135.818 136.267 136.1 136.447 136.215 136.479 136.223 
134.87 134.939 134.736 134.897 134.764 135.017 134.944 135.295 135.242 
135.598 135.453 135.723 135.481 135.716 135.457 134.698 134.681 134.636 
134.622 134.68 134.661 134.716 134.746 134.751 134.896 134.818 135.019 
134.828 135.02 134.783 134.985 134.768 134.51 134.57 134.573 134.656 
134.757 134.796 134.839 134.779 134.676 134.618 134.437 134.493 134.292 
134.427 134.218 134.382 134.202 134.386 134.241 133.921 133.856 133.72 
133.345 133.847 133.666 133.281 133.097 132.647 133.921 133.685 133.293 
133.07 132.638 132.399 131.946 134.128 133.813 133.399 133.115 132.695 
132.44 131.991 131.735 131.29 134.476 134.109 133.649 133.254 132.791 
132.516 132.084 131.813 131.342 131.073 130.614 134.711 134.451 133.939 
133.504 132.929 132.612 132.175 131.923 131.487 131.176 130.73 130.436 
130.065 134.625 134.535 134.016 133.679 133.025 132.711 132.24 132.022 
131.63 131.347 130.925 130.619 130.279 130.019 129.777 134.405 134.355 
133.913 133.663 133.069 132.767 132.31 132.098 131.74 131.49 131.06 
130.777 130.388 130.195 129.928 129.77 129.542 134.307 134.199 133.875 
133.638 133.201 132.882 132.5 132.23 131.905 131.628 131.192 130.874 
130.403 130.2 129.863 129.784 129.518 129.434 129.153 141.441 141.773 
141.531 141.454 142.074 141.837 141.785 141.644 141.737 142.293 142.112 
142.062 141.973 142.161 142.066 142.162 142.18 142.229 142.187 142.201 
142.415 142.465 142.652 142.444 142.241 141.652 141.955 141.995 142.178 
142.311 142.534 142.733 142.802 142.679 142.326 141.867 141.117 141.433 
141.615 141.875 141.947 142.201 142.286 142.595 142.597 142.613 142.299 
141.907 141.476 140.885 141.064 141.286 141.521 141.622 141.789 141.779 
142.022 142.063 142.329 142.251 142.206 141.878 141.54 141.163 140.767 
140.882 140.959 141.184 141.261 141.464 141.46 141.607 141.612 141.825 
141.84 142 141.808 141.731 141.337 141.106 140.703 140.49 140.632 
140.53 140.742 140.7 140.995 141.001 141.263 141.256 141.458 141.421 
141.589 141.429 141.488 141.137 141.063 140.64 140.511 140.142 141.178 
141.233 141.047 140.781 141.524 141.21 140.915 140.672 140.382 141.849 
141.54 141.181 140.87 140.504 140.26 139.92 141.781 141.671 141.261 
141.08 140.663 140.398 139.977 139.744 139.363 141.351 141.35 140.951 
140.972 140.609 140.481 140.03 139.792 139.355 139.16 138.799 141 
140.916 140.54 140.577 140.294 140.305 139.916 139.769 139.294 139.118 
138.71 138.586 138.231 140.767 140.669 140.267 140.222 139.898 139.933 
139.59 139.563 139.131 139.009 138.559 138.436 138.018 137.937 137.537 
140.411 140.417 140.002 139.949 139.516 139.509 139.113 139.16 138.796 
138.794 138.392 138.28 137.813 137.675 137.212 137.155 136.764 139.94 
140.017 139.651 139.629 139.17 139.108 138.647 138.659 138.293 138.382 
138.046 138.058 137.612 137.479 136.961 136.832 136.398 136.386 136.074 
141.131 140.681 140.9 140.892 140.257 140.446 140.396 140.623 140.559 
139.777 139.991 139.903 140.119 140.011 140.225 140.075 139.191 139.428 
139.298 139.559 139.415 139.652 139.489 139.698 139.516 138.622 138.81 
138.633 138.883 138.739 139.01 138.859 139.101 138.942 139.148 138.954 
138.078 138.255 138.042 138.232 138.084 138.342 138.23 138.475 138.312 
138.538 138.336 138.546 138.285 137.423 137.669 137.44 137.635 137.436 
137.697 137.574 137.849 137.656 137.873 137.607 137.844 137.583 137.813 
137.526 136.705 136.983 136.778 136.988 136.739 136.992 136.81 137.132 
136.926 137.176 136.863 137.077 136.797 137.066 136.847 137.077 136.832 
136.057 136.311 136.155 136.344 136.09 136.275 136.042 136.324 136.139 
136.419 136.158 136.352 136.072 136.302 136.118 136.394 136.221 136.429 
136.192 131.255 131.679 131.619 131.997 132.179 132.084 132.469 132.443 
132.909 132.731 132.629 133.05 132.984 133.47 133.421 133.896 133.283 
133.2 133.653 133.604 134.121 134.052 134.523 134.415 134.844 133.813 
133.736 134.147 134.146 134.656 134.679 135.176 135.089 135.51 135.373 
135.829 134.334 134.251 134.599 134.572 135.015 135.1 135.627 135.68 
136.159 136.076 136.538 136.427 136.958 134.818 134.751 135.112 135.042 
135.47 135.469 135.991 136.063 136.592 136.635 137.12 137.106 137.603 
137.566 138.064 135.264 135.207 135.599 135.571 136.061 136.029 136.559 
136.521 137.014 137.013 137.473 137.536 138.003 138.083 138.537 138.555 
138.932 135.714 135.642 136.013 136.027 136.541 136.603 137.156 137.144 
137.588 137.497 137.866 137.843 138.258 138.354 138.805 138.907 139.293 
139.299 139.581 
POINT_DATA 1002
SCALARS Distance double
LOOKUP_TABLE default
139.848 140.368 140.477 139.863 140.369 139.051 139.711 140.214 139.053 
138.317 139.543 140.115 139.012 138.386 137.785 139.38 139.923 138.926 
138.349 137.687 137.03 139.164 139.681 138.726 138.195 137.45 136.727 
135.968 139.076 139.591 138.497 137.982 137.343 136.63 135.913 135.167 
139.138 139.513 138.466 137.809 137.296 136.799 136.195 135.458 134.835 
139.03 139.238 138.518 137.792 137.168 136.766 136.374 135.777 135.104 
134.661 138.648 138.851 138.352 137.823 137.126 136.536 136.152 135.753 
135.224 134.731 134.42 140.722 140.7 140.785 140.653 140.806 140.643 
140.831 141.224 140.888 140.763 141.611 141.981 141.41 141.336 140.789 
142.473 142.428 142.115 141.718 141.213 140.431 142.689 142.325 142.464 
141.783 141.129 140.542 140.016 142.399 142.013 142.33 141.679 140.933 
140.387 140.014 139.772 142.041 141.694 142.093 141.65 141.006 140.471 
140.046 139.745 139.53 141.685 141.343 141.877 141.689 141.221 140.753 
140.34 139.94 139.594 139.26 141.15 141.481 140.88 141.117 140.458 
141.591 140.494 139.892 141.047 141.313 139.764 139.332 140.193 140.626 
140.862 139.136 138.744 139.435 139.826 140.311 140.53 138.461 138.002 
138.88 139.332 139.885 140.302 140.25 137.68 137.249 138.222 138.84 
139.475 140.038 140.185 139.879 136.958 136.593 137.496 138.132 138.69 
139.261 139.739 139.727 139.407 136.269 135.944 136.777 137.39 137.808 
138.127 138.666 139.1 139.053 138.85 138.256 138.246 137.556 138.333 
137.477 136.838 138.066 137.387 136.611 136.039 137.473 136.965 136.356 
135.631 135.078 137.13 136.454 135.905 135.249 134.598 134.107 136.922 
136.133 135.372 134.772 134.177 133.632 133.21 136.406 135.721 134.855 
134.197 133.721 133.182 132.652 132.28 135.793 135.173 134.405 133.708 
133.222 132.742 132.168 131.683 131.399 135.386 134.756 134.107 133.445 
132.824 132.27 131.74 131.277 130.952 130.762 137.981 137.304 137.73 
136.614 137.11 137.234 135.679 136.282 136.541 136.48 134.542 135.051 
135.518 135.716 135.839 133.567 133.853 134.275 134.802 135.144 135.428 
132.743 133.086 133.369 133.89 134.469 134.802 135.032 131.86 132.41 
132.822 133.19 133.711 134.194 134.46 134.618 131.046 131.572 132.153 
132.555 132.899 133.387 133.857 134.125 134.275 130.386 130.649 130.011 
130.31 129.629 131.179 130.074 129.267 130.826 131.722 129.882 128.933 
130.592 131.242 132.054 129.587 128.651 130.358 130.905 131.564 132.459 
129.212 128.466 129.945 130.612 131.334 132.185 133.092 128.97 128.434 
129.516 130.212 131.137 132.067 132.884 133.589 129.02 128.602 129.396 
129.932 130.847 131.826 132.577 133.237 133.828 129.261 128.874 129.581 
129.953 130.668 131.545 132.196 132.784 133.478 134.052 130.412 130.005 
129.986 129.375 129.216 129.483 128.428 128.406 128.711 128.916 127.828 
128.133 128.054 128.262 128.422 127.976 128.344 128.023 128.114 127.945 
128.062 128.458 128.647 128.355 128.243 127.894 127.62 127.88 128.867 
128.923 128.655 128.257 127.798 127.465 127.474 127.866 129.092 129.175 
128.848 128.359 127.838 127.526 127.454 127.608 128.023 129.145 129.355 
128.878 128.543 128.239 128.018 127.856 127.781 127.918 128.328 135.288 
134.628 134.484 133.807 133.598 133.982 132.901 132.785 133.143 133.338 
132.011 132.09 132.081 132.321 132.564 131.187 131.313 131.082 131.116 
131.351 131.764 130.268 130.408 130.267 130.276 130.305 130.597 131.162 
129.445 129.728 129.436 129.596 129.643 129.754 130.209 130.793 129.128 
129.461 128.913 128.892 128.885 128.932 129.368 130.055 130.573 136.04 
135.331 135.969 135.236 135.828 134.459 135.189 135.868 134.432 133.569 
135.261 135.94 134.498 133.608 132.818 135.202 135.829 134.513 133.646 
132.822 132.137 135.106 135.803 134.396 133.601 132.783 132.099 131.346 
135.225 135.942 134.394 133.562 132.782 132.077 131.378 130.547 135.353 
135.959 134.518 133.612 132.836 132.128 131.409 130.685 129.993 135.298 
135.803 134.567 133.669 132.879 132.203 131.466 130.735 130.125 129.657 