# vtk DataFile Version 4.0
vtk output
ASCII
DATASET POLYDATA
POINTS 1002 float
-102.513 -80.1172 74.6525 -102.562 -79.2595 73.574 -102.935 -79.0505 74.4864 
-102.876 -79.9671 75.7201 -103.387 -78.9889 75.4793 -102.526 -81.0951 75.8512 
-103.324 -79.9266 76.8458 -103.97 -79.0637 76.5035 -102.939 -81.0387 77.0265 
-102.675 -82.2291 77.1198 -104.043 -80.099 77.8441 -104.726 -79.2447 77.5214 
-103.558 -81.155 78.1011 -103.196 -82.3667 78.2679 -102.914 -83.6332 78.4737 
-104.996 -80.4577 78.7255 -105.576 -79.5223 78.5448 -104.491 -81.5479 78.9309 
-104.015 -82.7307 79.1995 -103.56 -83.9509 79.554 -103.367 -85.2705 79.8339 
-105.885 -80.8596 79.6952 -106.417 -79.9183 79.5212 -105.421 -82.0119 79.8287 
-105.009 -83.2603 80.0352 -104.533 -84.4294 80.4346 -104.213 -85.6578 80.8237 
-104.252 -87.0326 80.9553 -106.707 -81.3594 80.6539 -107.275 -80.4748 80.3041 
-106.128 -82.4154 80.9969 -105.763 -83.6814 81.2157 -105.537 -84.9538 81.3829 
-105.281 -86.1903 81.6389 -105.181 -87.5665 81.8526 -105.279 -88.9873 81.9176 
-107.627 -82.0332 81.4007 -108.12 -81.1023 80.9467 -106.945 -82.9788 82.0118 
-106.391 -84.0745 82.5173 -106.247 -85.3914 82.6372 -106.22 -86.8055 82.5625 
-106.09 -88.2719 82.6519 -106.031 -89.7533 82.8494 -106.079 -91.0724 82.9794 
-108.474 -82.6492 82.1297 -108.821 -81.6267 81.6737 -107.922 -83.6482 82.7217 
-107.296 -84.6551 83.3222 -106.973 -85.886 83.6473 -106.951 -87.414 83.588 
-106.892 -89.0331 83.5095 -106.778 -90.574 83.6733 -106.769 -91.936 83.8894 
-106.85 -93.0462 83.9745 -109.085 -83.0401 82.9932 -109.366 -82.0369 82.502 
-108.727 -84.1277 83.422 -108.301 -85.2634 83.7518 -107.97 -86.5318 84.0211 
-107.829 -88.0744 84.1713 -107.762 -89.7654 84.2117 -107.703 -91.3521 84.3242 
-107.701 -92.7481 84.5199 -107.77 -93.9303 84.6366 -107.872 -94.8865 84.6206 
-102.798 -78.2787 73.0957 -103.324 -78.1311 74.0017 -103.086 -77.329 72.5969 
-103.874 -77.3296 73.522 -103.687 -76.5791 72.029 -104.009 -78.1973 74.9557 
-104.614 -76.6234 73.0598 -104.673 -76.0561 71.4556 -104.719 -77.4134 74.5494 
-104.701 -78.2841 76.0314 -105.451 -75.8491 72.6475 -105.661 -75.4228 71.0756 
-105.35 -76.4916 74.2867 -105.353 -77.3454 75.7791 -105.39 -78.3661 77.2236 
-106.258 -74.8803 72.3751 -106.391 -74.4589 70.8993 -106.049 -75.5071 74.0099 
-105.945 -76.3145 75.6146 -106.016 -77.3559 77.0376 -106.187 -78.6122 78.3756 
-107.023 -73.9454 72.2109 -107.113 -73.6092 70.7245 -106.93 -74.6466 73.7024 
-106.817 -75.5003 75.2815 -106.816 -76.4458 76.7413 -106.92 -77.6793 78.1117 
-107.067 -79.084 79.3383 -107.862 -73.3701 71.9993 -108.025 -73.2098 70.4859 
-107.819 -73.9656 73.4362 -107.811 -74.844 74.9188 -107.783 -75.7321 76.3374 
-107.787 -76.824 77.7245 -107.811 -78.2109 79.0748 -107.915 -79.6729 80.1119 
-108.81 -73.0244 71.7155 -108.979 -72.9378 70.2697 -108.707 -73.4093 73.1702 
-108.684 -74.1252 74.6911 -108.613 -74.9743 76.0977 -108.532 -75.9997 77.4167 
-108.518 -77.3123 78.8239 -108.549 -78.7641 80.0067 -108.663 -80.2299 80.8325 
-109.729 -72.6449 71.4704 -109.806 -72.5238 70.1309 -109.64 -72.9314 72.9027 
-109.58 -73.4528 74.5012 -109.433 -74.1989 75.9968 -109.207 -75.207 77.2601 
-109.122 -76.4684 78.6093 -109.178 -77.8452 79.9297 -109.243 -79.2831 80.8418 
-109.309 -80.7318 81.5855 -110.551 -72.1988 70.9022 -110.541 -72.4871 72.3252 
-111.315 -72.3025 71.8064 -111.356 -72.7782 73.4079 -112.086 -72.9652 72.783 
-110.539 -72.934 73.9868 -112.141 -73.5316 74.4587 -112.942 -73.8384 73.6562 
-111.418 -73.3802 75.1588 -110.456 -73.5878 75.689 -112.946 -74.4277 75.284 
-113.801 -74.7152 74.5017 -112.179 -74.2713 76.0269 -111.304 -74.2949 76.642 
-110.163 -74.5959 77.0587 -113.686 -75.4528 76.154 -114.332 -75.8137 75.4699 
-112.842 -75.3561 76.7857 -112.034 -75.4543 77.3578 -111.013 -75.605 77.9341 
-109.91 -75.9047 78.3916 -114.143 -76.8045 77.1502 -114.423 -77.2266 76.4355 
-113.428 -76.6599 77.8028 -112.622 -76.7525 78.3172 -111.839 -76.8559 78.8629 
-110.882 -76.9408 79.4806 -109.922 -77.2608 79.872 -114.327 -78.4369 78.063 
-114.315 -78.8732 77.3649 -113.914 -78.2324 78.8115 -113.16 -78.2409 79.4168 
-112.439 -78.2641 79.8827 -111.742 -78.2066 80.3996 -110.881 -78.3011 80.8488 
-109.984 -78.7037 80.9765 -114.428 -80.2061 78.9127 -114.236 -80.6458 78.3419 
-114.312 -79.9197 79.617 -113.744 -79.855 80.2852 -112.977 -79.8973 80.7385 
-112.292 -79.8719 81.0962 -111.604 -79.8361 81.4778 -110.783 -79.961 81.7327 
-109.962 -80.2852 81.7425 -114.547 -81.9511 79.7247 -114.266 -82.3488 79.2517 
-114.624 -81.6035 80.3427 -114.301 -81.4362 81.0093 -113.629 -81.4799 81.4956 
-112.863 -81.6019 81.7866 -112.155 -81.6596 82.0746 -111.435 -81.632 82.3974 
-110.649 -81.6137 82.6265 -109.922 -81.7412 82.656 -109.718 -83.0715 83.6736 
-110.396 -82.9917 83.7476 -110.229 -84.4182 84.5668 -111.222 -83.1614 83.5523 
-111.077 -84.5987 84.5103 -111.024 -86.6497 84.812 -112.031 -83.3589 83.2312 
-111.964 -84.9296 84.3041 -111.897 -87.0412 84.7725 -111.885 -89.892 85.0669 
-112.804 -83.3568 82.928 -112.763 -85.1281 84.1151 -112.671 -87.3369 84.834 
-112.589 -90.2937 85.2949 -112.585 -93.1194 86.1066 -113.602 -83.2064 82.6585 
-113.541 -85.1532 83.8836 -113.39 -87.5053 84.8492 -113.269 -90.481 85.5598 
-113.295 -93.4646 86.3926 -113.369 -95.6721 87.1947 -114.309 -83.102 82.2687 
-114.225 -85.1651 83.5341 -114.051 -87.7035 84.5979 -113.948 -90.6866 85.4834 
-114.077 -93.7599 86.3915 -114.269 -96.31 87.1558 -114.352 -98.2918 87.4672 
-114.742 -83.1805 81.617 -114.676 -85.2257 82.9577 -114.489 -87.9105 84.1601 
-114.412 -90.9846 85.1207 -114.631 -94.0995 86.0092 -115.005 -96.9469 86.7888 
-115.221 -99.308 87.2387 -115.268 -101.334 87.3489 -114.805 -83.443 80.875 
-114.864 -85.3366 82.1378 -114.712 -87.9926 83.4971 -114.639 -91.2023 84.6856 
-114.853 -94.3859 85.5669 -115.279 -97.3494 86.2485 -115.697 -100.013 86.7689 
-115.946 -102.256 87.1082 -116.062 -104.188 87.2512 -114.58 -83.7806 80.2796 
-114.795 -85.5011 81.3342 -114.764 -87.9581 82.6356 -114.744 -91.1921 84.0499 
-115.006 -94.5029 85.1235 -115.417 -97.4521 85.7549 -115.835 -100.178 86.2033 
-116.259 -102.64 86.5999 -116.615 -104.718 86.887 -116.829 -106.503 86.9739 
-109.431 -84.1844 84.1155 -110.045 -85.9677 84.6833 -109.201 -85.5826 84.2118 
-110.992 -88.9558 84.8839 -110.044 -87.9767 84.5461 -109.062 -87.1814 84.1803 
-111.89 -92.4521 85.7422 -111.074 -91.3305 85.2024 -110.117 -90.0372 84.5859 
-108.968 -88.9173 84.3104 -112.625 -95.1969 87.0406 -111.901 -94.4375 86.5333 
-111.11 -93.2707 85.6067 -110.115 -91.9248 84.8256 -108.889 -90.7234 84.5329 
-113.544 -97.677 87.5066 -112.745 -97.0386 87.3442 -111.963 -96.215 86.706 
-111.202 -95.0442 85.6998 -110.213 -93.6781 85.0119 -108.911 -92.4144 84.7226 
-114.589 -100.831 87.3152 -113.837 -100.216 87.2092 -112.977 -99.4827 87.0527 
-112.178 -98.4427 86.5151 -111.501 -96.9843 85.6865 -110.466 -95.3596 85.1461 
-109.015 -93.9239 84.8956 -115.527 -104.115 87.2331 -114.897 -103.807 87.0199 
-114.075 -103.222 86.957 -113.086 -102.292 86.9961 -112.337 -100.868 86.5836 
-111.701 -98.9563 85.8038 -110.581 -96.953 85.2735 -109.081 -95.2619 85.0105 
-116.402 -106.81 87.0921 -115.825 -106.858 86.9417 -115.063 -106.499 86.7937 
-114.002 -105.736 86.9889 -112.948 -104.58 87.1555 -112.27 -102.855 86.6891 
-111.609 -100.597 85.8842 -110.496 -98.2874 85.3375 -109.107 -96.3644 85.0211 
-117.384 -108.927 86.4868 -116.901 -109.339 86.547 -117.828 -111.46 85.6518 
-117.277 -111.719 85.6748 -118.043 -113.75 84.8204 -116.187 -109.244 86.4102 
-117.383 -113.661 84.9099 -118.068 -115.498 84.1787 -116.407 -111.156 85.6202 
-115.159 -108.54 86.4284 -117.173 -114.999 84.4 -117.892 -116.637 83.4548 
-116.388 -112.591 84.9501 -115.206 -109.947 85.7534 -113.879 -107.483 86.7995 
-116.74 -115.519 83.8239 -117.385 -116.859 82.6994 -116.069 -113.485 84.472 
-115.174 -110.945 85.007 -113.904 -108.567 86.085 -112.807 -106.084 86.9296 
-116.155 -114.945 83.1746 -116.471 -115.933 82.2554 -115.601 -113.467 83.9106 
-114.872 -111.432 84.3783 -113.923 -109.161 85.1713 -112.841 -106.856 86.1779 
-112.097 -103.991 86.4069 -115.233 -113.642 82.6393 -115.24 -114.381 82.0325 
-114.994 -112.564 83.2747 -114.352 -111.135 83.824 -113.585 -109.246 84.4804 
-112.793 -107.034 85.3655 -111.994 -104.416 85.8767 -111.288 -101.33 85.7038 
-113.948 -112.22 82.2556 -113.957 -112.67 81.874 -113.984 -111.379 82.7622 
-113.63 -110.269 83.3712 -112.966 -108.776 84.0563 -112.375 -106.793 84.813 
-111.781 -104.347 85.3679 -111.01 -101.549 85.4295 -110.092 -98.7574 85.2176 
-112.696 -110.632 82.0896 -112.887 -110.698 81.853 -112.72 -110.092 82.4925 
-112.65 -109.148 83.0938 -112.236 -107.843 83.8085 -111.711 -106.132 84.486 
-111.243 -103.971 84.9651 -110.61 -101.469 85.1054 -109.717 -98.9401 84.9903 
-108.738 -96.7147 84.8209 -117.414 -107.467 86.4178 -117.985 -110.054 85.7314 
-117.759 -108.261 85.7528 -118.289 -110.968 84.9944 -117.894 -108.735 85.1393 
-118.358 -112.665 84.8575 -118.491 -111.384 84.2982 -117.929 -108.604 84.4277 
-118.792 -113.47 84.1348 -118.634 -114.879 84.0784 -118.582 -110.916 83.4698 
-117.69 -107.743 83.7099 -119.313 -113.682 83.3281 -119.442 -115.601 83.2141 
-118.892 -116.626 83.1913 -118.092 -109.453 82.9175 -117.081 -106.33 83.3814 
-119.262 -112.857 82.6005 -120.031 -115.732 82.3554 -119.83 -117.388 82.0579 
-118.735 -117.737 82.1396 -117.175 -107.405 82.8497 -116.353 -104.553 83.2633 
-118.191 -110.825 82.4261 -119.348 -114.463 82.0331 -119.91 -117.054 81.4527 
-119.269 -118.028 81.118 -117.832 -117.515 81.5347 -116.297 -105.167 82.7666 
-115.469 -102.421 83.0005 -117.005 -108.221 82.4399 -117.873 -111.81 82.1366 
-118.765 -114.955 81.5803 -118.898 -116.699 80.9285 -117.913 -116.983 80.9012 
-116.463 -116.034 81.4833 -115.236 -102.724 82.5862 -114.255 -100.026 82.6839 
-116.072 -105.511 82.2981 -116.76 -108.692 82.07 -117.451 -111.839 81.7945 
-117.894 -114.048 81.2711 -117.547 -115.075 80.9116 -116.418 -115.025 81.1057 
-115.08 -114.066 81.5484 -113.869 -100.112 82.455 -112.986 -97.6575 82.3283 
-114.859 -102.654 82.2669 -115.715 -105.442 81.993 -116.36 -108.397 81.8237 
[...]
CELL_DATA 2000
SCALARS Distance double
LOOKUP_TABLE default
148.562 149.254 149.116 149.613 150.114 149.892 150.412 150.271 150.864 
151.172 150.857 151.401 151.178 151.823 151.65 152.354 152.395 152.026 
152.615 152.305 152.994 152.736 153.483 153.275 154.104 153.676 153.309 
153.926 153.6 154.32 154.024 154.803 154.521 155.369 155.16 156.113 
154.967 154.612 155.232 154.913 155.642 155.374 156.189 155.914 156.775 
156.512 157.467 157.277 158.308 156.257 155.929 156.582 156.24 156.965 
156.686 157.522 157.292 158.185 157.942 158.883 158.67 159.694 159.523 
160.56 157.468 157.219 157.92 157.611 158.327 158.023 158.825 158.604 
159.509 159.32 160.27 160.076 161.078 160.909 161.947 161.769 162.753 
158.535 158.373 159.085 158.881 159.579 159.333 160.077 159.873 160.748 
160.606 161.578 161.432 162.443 162.284 163.321 163.152 164.159 163.938 
164.856 148.046 147.515 148.093 148.748 147.16 147.669 148.423 148.924 
149.652 147.101 147.47 148.268 148.712 149.485 149.924 150.701 147.212 
147.491 148.187 148.595 149.34 149.787 150.553 151.029 151.868 147.244 
147.536 148.119 148.49 149.174 149.616 150.378 150.868 151.715 152.24 
153.133 147.231 147.504 148.118 148.44 149.154 149.517 150.31 150.729 
151.606 152.103 153.03 153.535 154.433 147.425 147.581 148.247 148.512 
149.291 149.611 150.43 150.765 151.623 152.046 152.969 153.456 154.365 
154.836 155.698 147.823 147.898 148.527 148.72 149.479 149.787 150.581 
150.904 151.682 152.066 152.92 153.4 154.29 154.767 155.605 156.065 
156.874 148.213 148.302 148.882 149.031 149.738 149.993 150.76 151.041 
151.769 152.087 152.875 153.324 154.207 154.693 155.535 155.971 156.749 
157.192 157.948 148.578 149.487 149.1 149.315 150.705 150.177 150.438 
149.963 150.238 152.125 151.528 151.815 151.253 151.536 150.996 151.264 
153.573 152.972 153.239 152.68 152.957 152.376 152.583 152.012 152.237 
155.006 154.416 154.656 154.081 154.366 153.801 154.052 153.415 153.636 
153.029 153.349 156.365 155.854 156.152 155.544 155.854 155.251 155.598 
154.964 155.287 154.596 154.936 154.296 154.705 157.627 157.212 157.642 
157.093 157.466 156.834 157.207 156.574 156.953 156.3 156.648 155.975 
156.31 155.68 156.024 158.913 158.522 159.064 158.599 159.061 158.477 
158.851 158.213 158.56 157.933 158.267 157.634 157.928 157.277 157.547 
156.924 157.214 160.246 159.868 160.449 160.036 160.558 160.049 160.461 
159.847 160.185 159.536 159.864 159.223 159.54 158.878 159.152 158.473 
158.734 158.097 158.389 159.242 159.638 159.855 160.715 160.107 160.332 
161.266 161.431 162.391 160.533 160.825 161.837 162.052 163.086 163.26 
164.469 160.881 161.232 162.311 162.624 163.731 163.98 165.233 165.55 
167.022 161.21 161.577 162.694 163.077 164.254 164.597 165.897 166.287 
167.789 168.208 169.685 161.469 161.881 162.988 163.433 164.639 165.077 
166.411 166.889 168.424 168.934 170.49 170.821 172.13 161.538 162.037 
163.092 163.632 164.819 165.382 166.712 167.305 168.818 169.459 171.057 
171.576 173.001 173.223 174.42 161.406 161.972 162.96 163.581 164.717 
165.416 166.746 167.481 168.96 169.705 171.252 171.962 173.426 173.945 
175.209 175.462 176.582 161.175 161.754 162.684 163.324 164.386 165.159 
166.48 167.369 168.876 169.733 171.231 172.005 173.409 174.12 175.397 
175.966 177.091 177.453 178.449 159.332 160.766 159.996 159.911 162.427 
161.517 161.428 160.591 160.463 164.625 163.45 163.42 162.306 162.215 
161.207 161.067 167.333 166.017 166.12 164.697 164.647 163.278 163.167 
161.964 161.849 169.966 168.801 168.965 167.601 167.556 166.025 165.858 
164.37 164.214 162.897 162.768 172.285 171.258 171.401 170.274 170.262 
168.909 168.728 167.208 166.986 165.482 165.29 163.895 163.715 174.584 
173.541 173.751 172.636 172.779 171.53 171.533 170.082 169.956 168.378 
168.184 166.601 166.365 164.876 164.64 176.871 175.914 176.257 175.135 
175.426 174.183 174.386 172.983 173.033 171.455 171.332 169.637 169.362 
167.674 167.332 165.788 165.475 178.846 178.139 178.561 177.637 177.934 
176.846 177.028 175.812 175.869 174.494 174.379 172.794 172.469 170.733 
170.267 168.555 168.082 166.547 166.149 179.941 181.459 180.452 179.778 
182.741 181.871 181.192 180.108 179.188 183.696 182.981 182.226 181.308 
180.333 179.299 178.226 184.21 183.706 182.867 182.103 181.013 180.162 
179.072 178.171 177.031 184.058 183.88 182.993 182.485 181.32 180.612 
179.445 178.756 177.661 176.836 175.56 183.089 183.294 182.392 182.268 
181.112 180.672 179.441 178.922 177.787 177.215 175.97 175.14 173.634 
181.468 181.951 181.09 181.325 180.253 180.164 178.959 178.675 177.497 
177.127 175.88 175.295 173.794 172.964 171.334 179.57 180.158 179.379 
179.827 178.902 179.093 178.007 177.962 176.815 176.633 175.407 175.023 
173.565 172.921 171.3 170.542 169.003 177.658 178.26 177.559 178.089 
177.309 177.674 176.742 176.883 175.811 175.788 174.6 174.401 173.015 
172.563 171.001 170.381 168.857 168.236 166.918 180.182 180.772 180.939 
181.707 181.06 181.437 182.313 182.416 183.038 180.978 181.619 182.616 
182.934 183.667 183.669 184.087 180.312 181.308 182.468 183.135 184.04 
184.254 184.787 184.618 184.732 179.027 180.286 181.491 182.677 183.81 
184.506 185.197 185.264 185.401 185.038 184.694 177.413 178.714 179.711 
181.229 182.39 183.786 184.625 185.341 185.478 185.471 184.996 184.582 
183.739 175.584 176.916 177.66 179.154 180.087 181.806 182.653 184.077 
184.285 184.97 184.448 184.481 183.518 183.19 182.056 173.409 174.874 
175.504 176.957 177.655 179.291 180.025 181.668 182.006 183.198 182.864 
183.429 182.574 182.629 181.511 181.264 180.088 171.007 172.522 173.1 
174.616 175.164 176.749 177.317 178.956 179.332 180.738 180.628 181.561 
180.948 181.397 180.442 180.5 179.375 179.209 178.09 161.326 162.075 
162.077 162.856 163.004 162.935 163.806 163.725 164.616 164.191 164.05 
165.066 164.889 165.975 165.782 166.874 165.414 165.359 166.522 166.369 
167.657 167.439 168.756 168.384 169.497 166.383 166.529 167.817 167.865 
169.298 169.242 170.698 170.431 171.63 171.07 171.946 167.252 167.494 
168.977 169.154 170.729 170.824 172.356 172.285 173.532 173.145 174.016 
173.379 174.068 168.259 168.538 170.272 170.47 172.205 172.285 173.871 
173.845 175.164 174.921 175.882 175.365 176.084 175.424 176.043 169.273 
169.67 171.535 171.86 173.642 173.789 175.339 175.339 176.672 176.521 
177.604 177.206 178.022 177.416 178.054 177.34 177.819 170.077 170.617 
172.432 172.954 174.64 175.004 176.444 176.632 177.914 177.953 179.092 
178.893 179.783 179.308 179.945 179.296 179.746 178.983 179.25 160.484 
159.409 160.343 161.183 158.348 159.234 160.04 161.055 162.015 157.319 
158.155 158.849 159.849 160.802 161.953 163.081 156.194 157.065 157.695 
158.643 159.516 160.675 161.828 163.083 164.248 155.009 155.88 156.54 
157.484 158.316 159.4 160.5 161.77 162.952 164.175 165.195 154.002 
154.757 155.426 156.339 157.16 158.194 159.199 160.422 161.566 162.826 
163.844 164.99 165.936 153.2 153.852 154.471 155.289 156.045 157.002 
157.876 159.04 160.085 161.388 162.414 163.609 164.51 165.691 166.729 
152.461 153.072 153.627 154.374 155.043 155.895 156.636 157.66 158.567 
159.829 160.844 162.127 163.039 164.228 165.148 166.468 167.602 151.768 
152.323 152.811 153.506 154.105 154.896 155.561 156.449 157.235 158.328 
159.271 160.525 161.463 162.695 163.567 164.832 165.819 167.269 168.401 
151.545 151.566 151.861 152.573 151.71 151.937 152.665 153.006 153.844 
151.992 152.141 152.847 153.144 154.032 154.391 155.318 152.321 152.471 
153.186 153.413 154.353 154.675 155.722 156.006 157.034 152.577 152.813 
153.631 153.854 154.852 155.124 156.253 156.529 157.669 157.891 159.034 
152.866 153.114 154.068 154.349 155.42 155.7 156.844 157.125 158.299 
158.567 159.748 159.994 161.169 153.445 153.571 154.595 154.844 155.983 
156.278 157.452 157.737 158.933 159.213 160.447 160.714 161.951 162.159 
163.326 154.283 154.328 155.36 155.5 156.656 156.89 158.112 158.378 
159.64 159.909 161.237 161.495 162.862 163.051 164.372 164.438 165.667 
155.11 155.198 156.219 156.335 157.463 157.643 158.867 159.102 160.396 
160.668 162.05 162.35 163.817 164.072 165.538 165.65 167.032 166.983 
168.268 155.846 157.452 156.766 157.05 159.351 158.529 158.876 158.083 
158.379 161.599 160.628 161.024 160.093 160.465 159.544 159.851 164.115 
163.075 163.538 162.459 162.882 161.818 162.18 161.134 161.444 166.849 
165.785 166.436 165.23 165.769 164.5 164.943 163.686 164.063 162.867 
163.201 169.855 168.79 169.77 168.478 169.325 167.821 168.477 166.866 
167.365 165.818 166.234 164.813 165.129 172.848 171.976 173.233 172.09 
173.251 171.774 172.694 170.898 171.516 169.592 170.014 168.203 168.505 
166.853 167.006 175.285 174.809 176.14 175.436 176.675 175.632 176.621 
175.158 175.771 173.924 174.194 172.209 172.315 170.423 170.438 168.674 
168.587 176.979 176.86 178.136 177.893 179.073 178.56 179.48 178.585 
179.12 177.77 177.871 176.144 175.965 174.123 173.888 172.096 171.854 
170.11 169.84 155.386 155.175 155.825 156.972 155.087 155.707 156.959 
157.574 158.876 155.061 155.705 157.017 157.652 159.034 159.643 161.09 
154.836 155.607 156.892 157.659 159.031 159.771 161.245 161.953 163.504 
154.416 155.245 156.499 157.375 158.717 159.606 161.079 161.977 163.581 
164.399 166.074 154.077 154.835 156.132 156.967 158.366 159.24 160.775 
161.725 163.431 164.39 166.183 167.049 168.888 153.909 154.598 155.944 
156.721 158.195 159.005 160.603 161.498 163.282 164.265 166.164 167.123 
169.009 169.908 171.746 153.842 154.488 155.828 156.597 158.071 158.893 
160.465 161.364 163.105 164.127 166.015 167.069 168.932 169.914 171.644 
172.578 174.157 153.853 154.442 155.734 156.473 157.902 158.733 160.241 
161.152 162.783 163.837 165.625 166.78 168.581 169.68 171.315 172.298 
173.727 174.653 175.902 154.404 152.929 153.79 154.121 151.662 152.376 
152.623 153.508 153.941 150.567 151.213 151.407 152.104 152.414 153.368 
153.87 149.385 150.094 150.27 150.937 151.117 151.898 152.228 153.246 
153.667 148.078 148.803 148.914 149.673 149.777 150.554 150.727 151.62 
151.905 152.935 153.274 146.826 147.459 147.48 148.211 148.286 149.094 
149.252 150.108 150.343 151.248 151.545 152.543 152.926 145.753 146.249 
146.237 146.835 146.918 147.638 147.865 148.67 148.971 149.787 150.09 
150.943 151.295 152.28 152.743 144.975 145.29 145.271 145.721 145.84 
146.439 146.727 147.432 147.781 148.515 148.822 149.581 149.889 150.749 
151.157 152.165 152.685 144.533 144.67 144.627 144.912 145.051 145.529 
145.857 146.457 146.807 147.426 147.687 148.349 148.602 149.383 149.747 
150.66 151.154 152.17 152.738 144.36 144.181 144.273 144.403 144.256 
144.21 144.381 144.482 144.844 144.582 144.436 144.64 144.631 145.032 
145.144 145.68 144.953 144.8 144.939 144.925 145.252 145.369 145.816 
146.015 146.543 145.28 145.123 145.128 145.096 145.263 145.433 145.745 
146.011 146.417 146.75 147.274 145.669 145.465 145.423 145.242 145.311 
145.364 145.669 145.881 146.318 146.589 147.141 147.494 148.16 146.211 
145.962 146.012 145.676 145.78 145.595 146 146.021 146.641 146.727 
147.428 147.572 148.349 148.583 149.389 146.923 146.643 146.828 146.445 
146.65 146.321 146.789 146.652 147.381 147.349 148.163 148.157 148.999 
149.047 149.913 150.02 150.872 147.761 147.466 147.741 147.382 147.674 
147.325 147.796 147.59 148.291 148.219 149.034 149.011 149.855 149.851 
150.714 150.728 151.591 151.627 152.477 148.367 149.398 148.707 148.375 
150.644 149.837 149.508 148.737 148.396 152.152 151.227 150.946 150.034 
149.742 148.874 148.624 153.946 152.914 152.723 151.679 151.459 150.435 
150.234 149.291 149.165 155.997 154.887 154.784 153.652 153.518 152.369 
152.209 151.099 150.97 149.979 149.92 158.22 157.072 157.023 155.845 
155.771 154.576 154.47 153.252 153.122 151.951 151.858 150.818 150.777 
160.493 159.368 159.366 158.168 158.126 156.907 156.842 155.6 155.489 
154.229 154.099 152.899 152.806 151.724 151.665 162.695 161.644 161.694 
160.541 160.535 159.317 159.272 158.016 157.913 156.628 156.476 155.207 
155.058 153.857 153.739 152.629 152.541 164.791 163.814 163.911 162.841 
162.872 161.718 161.69 160.461 160.357 159.065 158.898 157.594 157.416 
156.149 155.989 154.78 154.64 153.511 153.41 154.276 155.586 155.322 
156.19 157.017 156.753 157.719 157.42 158.393 158.515 158.276 159.369 
159.076 160.153 159.769 160.787 160.052 159.847 161.064 160.825 162.06 
161.682 162.825 162.315 163.401 161.558 161.421 162.716 162.564 163.951 
163.686 165.012 164.531 165.753 165.133 166.303 162.93 162.902 164.259 
164.209 165.689 165.582 167.08 166.775 168.146 167.605 168.844 168.162 
169.285 164.13 164.217 165.651 165.72 167.281 167.299 168.899 168.786 
170.272 169.936 171.213 170.663 171.75 171.054 171.985 165.166 165.355 
166.846 167.055 168.693 168.85 170.489 170.52 172.02 171.884 173.165 
172.831 173.875 173.345 174.206 173.542 174.301 166.038 166.316 167.816 
168.158 169.818 170.144 171.777 171.966 173.403 173.426 174.646 174.522 
175.545 175.233 176.065 175.568 176.282 175.679 176.354 147.705 147.292 
147.264 146.753 146.848 146.79 146.253 146.245 145.81 146.668 146.44 
145.889 145.76 145.344 145.402 145.231 146.728 146.425 145.916 145.608 
145.221 145.086 144.962 145.05 145.054 146.623 146.432 145.94 145.728 
145.378 145.18 145.063 144.981 144.983 144.969 144.886 146.385 146.186 
145.648 145.593 145.282 145.28 145.175 145.156 145.113 145.022 144.891 
144.768 144.606 146.468 146.062 145.559 145.344 145.109 145.102 145.067 
145.142 145.108 145.1 144.928 144.809 144.594 144.513 144.43 146.949 
146.41 146.02 145.575 145.409 145.157 145.162 145.078 145.074 145.029 
144.876 144.783 144.543 144.472 144.332 144.372 144.381 147.559 147.04 
146.698 146.217 146.009 145.646 145.554 145.321 145.25 145.087 144.947 
144.78 144.569 144.424 144.257 144.236 144.206 144.312 144.374 147.733 
146.788 147.326 147.481 145.936 146.406 146.599 147.136 147.492 145.455 
145.751 146.035 146.414 146.836 147.376 147.969 145.221 145.44 145.735 
146.035 146.478 146.9 147.501 148.028 148.633 144.897 145.146 145.33 
145.7 146.069 146.547 147.098 147.629 148.198 148.674 149.151 144.576 
144.749 144.867 145.198 145.514 146.014 146.542 147.147 147.753 148.273 
148.768 149.17 149.608 144.478 144.531 144.679 144.841 145.177 145.518 
146.059 146.583 147.249 147.814 148.407 148.841 149.291 149.657 150.083 
144.499 144.537 144.696 144.784 145.104 145.333 145.849 146.233 146.854 
147.346 147.941 148.436 148.907 149.327 149.711 150.102 150.488 144.52 
144.576 144.726 144.807 145.076 145.283 145.758 146.094 146.66 147.036 
147.544 147.957 148.395 148.849 149.241 149.683 150.057 150.471 150.86 
148.28 148.104 148.497 149.182 148.178 148.447 149.226 149.57 150.403 
148.63 148.724 149.526 149.76 150.643 150.943 151.842 149.202 149.258 
149.985 150.158 151.006 151.256 152.154 152.44 153.325 149.661 149.753 
150.423 150.599 151.375 151.609 152.453 152.747 153.626 153.918 154.756 
150.1 150.172 150.849 151.008 151.769 151.96 152.753 153.012 153.851 
154.171 154.993 155.287 156.048 150.557 150.622 151.27 151.425 152.152 
152.337 153.083 153.308 154.109 154.393 155.199 155.48 156.225 156.5 
157.232 150.956 151.044 151.627 151.788 152.427 152.636 153.31 153.573 
154.34 154.652 155.467 155.731 156.486 156.7 157.436 157.694 158.479 
151.337 151.417 151.987 152.109 152.712 152.869 153.506 153.738 154.487 
154.826 155.663 155.992 156.777 157.008 157.742 157.957 158.738 159.003 
159.815 154.244 153.44 153.489 152.789 152.614 152.655 151.998 152.084 
151.511 152.061 151.936 151.278 151.301 150.745 150.868 150.374 151.874 
151.607 150.969 150.767 150.194 150.15 149.627 149.728 149.212 151.734 
151.523 150.95 150.664 150.095 149.827 149.265 149.109 148.552 148.554 
148.003 151.413 151.305 150.723 150.578 149.995 149.797 149.204 148.939 
148.289 148.057 147.423 147.367 146.809 151.083 150.935 150.291 150.187 
149.547 149.499 148.906 148.809 148.134 147.879 147.116 146.892 146.25 
146.223 145.743 150.941 150.684 150.062 149.815 149.189 149.024 148.475 
148.404 147.85 147.676 146.968 146.662 145.972 145.784 145.324 145.31 
145.004 150.973 150.663 150.136 149.791 149.27 148.914 148.431 148.156 
147.709 147.471 146.932 146.601 145.993 145.67 145.226 145.069 144.837 
144.785 144.619 
POINT_DATA 1002
SCALARS Distance double
LOOKUP_TABLE default
149.003 148.045 148.643 149.705 149.417 150.134 150.557 150.373 150.977 
151.484 151.645 151.502 152.004 152.492 153.091 152.933 152.751 153.268 
153.713 154.246 154.979 154.246 154.033 154.603 155.093 155.606 156.258 
157.104 155.559 155.31 155.895 156.431 157.046 157.675 158.471 159.353 
156.921 156.543 157.268 157.735 158.403 159.108 159.868 160.748 161.581 
158.194 157.668 158.647 159.068 159.676 160.452 161.255 162.115 162.98 
163.701 159.26 158.68 159.805 160.287 160.88 161.693 162.592 163.486 
164.364 165.135 165.735 147.452 148.187 146.909 147.914 146.661 149.17 
147.839 146.807 149.055 150.233 147.831 147.002 148.894 150.076 151.354 
147.782 146.952 148.751 149.884 151.178 152.617 147.783 146.964 148.794 
149.922 151.128 152.517 153.959 148.001 147.315 148.962 150.122 151.25 
152.496 153.897 155.241 148.383 147.776 149.2 150.28 151.345 152.455 
153.811 155.166 156.412 148.752 148.116 149.515 150.504 151.501 152.465 
153.708 155.104 156.338 157.5 148.871 149.681 149.914 150.939 151.265 
150.698 152.384 152.731 152.126 151.789 153.803 154.189 153.533 153.215 
152.748 155.26 155.573 154.91 154.657 154.286 153.878 156.733 156.794 
156.467 156.189 155.953 155.627 155.306 158.113 157.979 158.085 157.852 
157.585 157.325 156.994 156.632 159.481 159.285 159.603 159.5 159.207 
158.893 158.587 158.207 157.806 160.843 160.614 161.027 161.047 160.84 
160.512 160.193 159.844 159.409 158.989 160.06 160.52 161.568 161.071 
162.209 163.401 161.564 162.879 164.178 165.839 161.942 163.431 164.89 
166.644 168.591 162.282 163.861 165.475 167.337 169.397 171.072 162.526 
164.162 165.902 167.866 170.079 172.001 173.322 162.542 164.215 166.09 
168.157 170.443 172.658 174.353 175.593 162.352 163.993 165.953 168.209 
170.527 172.796 174.833 176.448 177.713 162.073 163.632 165.542 167.958 
170.474 172.701 174.74 176.625 178.205 179.434 160.671 162.315 161.299 
164.644 163.31 162.039 167.578 166.147 164.491 162.978 170.239 169.083 
167.444 165.646 164.026 172.466 171.502 170.205 168.54 166.778 165.072 
174.845 173.95 172.893 171.51 169.823 167.956 166.073 177.315 176.623 
175.719 174.558 173.043 171.139 168.999 166.93 179.397 178.981 178.206 
177.168 175.891 174.211 172.068 169.741 167.58 181 180.965 182.42 
182.235 183.574 180.385 183.139 184.381 181.31 179.312 183.601 184.654 
181.865 179.871 178.04 183.389 184.134 181.993 180.108 178.365 176.584 
182.364 182.772 181.426 179.921 178.301 176.702 174.631 180.721 180.914 
180.188 179.15 177.811 176.386 174.557 172.2 178.843 178.956 178.575 
177.946 176.93 175.709 174.132 172.014 169.691 176.985 177.038 176.851 
176.505 175.779 174.731 173.368 171.551 169.442 167.441 180.117 181.708 
180.497 182.113 180.579 183.127 182.174 180.191 183.569 184.312 181.569 
179.186 183.669 184.889 185.166 180.111 177.792 182.802 184.967 185.743 
185.298 178.248 176.207 180.784 183.595 185.319 185.376 184.316 176.301 
174.25 178.439 181.049 183.324 184.216 183.753 182.486 174.078 171.905 
176.139 178.394 180.64 182.06 182.32 181.653 180.397 171.591 169.531 
173.638 175.723 177.843 179.523 180.309 180.221 179.456 178.278 161.294 
162.866 162.068 163.875 163.071 164.682 165.212 164.297 166.12 167.134 
166.576 165.376 167.789 169.075 170.072 167.643 166.137 169.242 170.872 
172.155 172.673 168.71 166.916 170.587 172.366 173.836 174.613 174.771 
169.995 167.874 172.123 173.913 175.342 176.321 176.719 176.77 171.149 
168.803 173.471 175.341 176.772 177.911 178.589 178.767 178.633 159.549 
160.191 158.492 159.024 157.534 160.911 157.913 156.515 159.616 161.882 
156.773 155.299 158.405 160.532 163.077 155.573 154.16 157.281 159.268 
161.707 164.078 154.541 153.308 156.168 158.038 160.298 162.699 164.759 
153.713 152.583 155.164 156.806 158.791 161.174 163.375 165.402 152.924 
151.881 154.249 155.718 157.387 159.527 161.837 163.912 166.134 152.166 