# vtk DataFile Version 4.0
vtk output
ASCII
DATASET POLYDATA
POINTS 1002 float
-106.275 -87.3875 77.5766 -106.264 -86.6424 76.3953 -106.525 -86.4583 77.458 
-106.764 -87.406 78.5422 -107.059 -86.4739 78.3366 -106.553 -88.3857 78.7209 
-107.484 -87.5813 79.3304 -107.836 -86.6902 79.059 -107.198 -88.5707 79.641 
-106.901 -89.4909 80.0553 -108.214 -87.8017 80.2484 -108.561 -86.9277 80.0857 
-107.884 -88.7391 80.5867 -107.522 -89.6857 81.0445 -107.154 -90.5791 81.5944 
-108.725 -87.9366 81.6631 -109.065 -87.0768 81.51 -108.398 -88.8513 81.9038 
-108.12 -89.8582 82.2145 -107.834 -90.8518 82.6002 -107.666 -91.8439 82.9941 
-109.176 -88.1419 83.0854 -109.574 -87.3701 82.6934 -108.804 -89.0312 83.4402 
-108.606 -90.1394 83.692 -108.514 -91.3049 83.8613 -108.453 -92.3991 84.0622 
-108.495 -93.486 84.3063 -109.876 -88.6221 83.949 -110.295 -87.8882 83.4665 
-109.441 -89.4501 84.4788 -109.169 -90.5904 84.9494 -109.118 -91.904 85.2425 
-109.121 -93.1068 85.376 -109.138 -94.2172 85.5183 -109.17 -95.3369 85.7373 
-110.726 -89.1724 84.6673 -111.082 -88.3887 84.2679 -110.341 -90.0019 85.1219 
-110.025 -91.121 85.6394 -109.897 -92.5117 86.162 -109.835 -93.8037 86.5062 
-109.762 -94.9145 86.6628 -109.736 -96.0298 86.8122 -109.732 -97.1836 87.0033 
-111.446 -89.6443 85.5591 -111.751 -88.8379 85.1391 -111.143 -90.5025 85.95 
-110.908 -91.6177 86.3186 -110.837 -93.0754 86.7455 -110.801 -94.499 87.1736 
-110.635 -95.6297 87.4534 -110.489 -96.7014 87.6241 -110.46 -97.8799 87.7912 
-110.467 -99.0495 87.9391 -112.018 -90.1711 86.3611 -112.316 -89.3583 85.8567 
-111.722 -91.0265 86.8459 -111.506 -92.1027 87.2341 -111.509 -93.5795 87.5395 
-111.641 -95.1684 87.8279 -111.57 -96.4228 88.0929 -111.325 -97.4636 88.3147 
-111.216 -98.6221 88.507 -111.247 -99.8604 88.6545 -111.265 -100.971 88.7305 
-106.471 -85.8767 75.7981 -106.777 -85.69 76.9163 -106.77 -85.2373 75.1262 
-107.294 -85.1237 76.2438 -107.37 -84.734 74.4699 -107.385 -85.6833 77.8589 
-108.073 -84.6058 75.5826 -108.15 -84.089 73.9442 -107.968 -85.0275 77.3219 
-108.179 -85.83 78.7487 -108.691 -83.8247 75.1153 -108.586 -83.1246 73.6123 
-108.645 -84.3796 76.8123 -108.647 -84.9885 78.4775 -108.864 -85.9842 79.9808 
-108.978 -82.8443 74.9205 -108.855 -82.2602 73.3988 -109.179 -83.6253 76.4268 
-109.254 -84.2918 78.0943 -109.292 -85.0752 79.7986 -109.41 -86.1772 81.3436 
-109.511 -82.0902 74.8333 -109.644 -81.8686 73.1721 -109.7 -82.7847 76.2599 
-109.984 -83.6964 77.6602 -110.03 -84.4712 79.3469 -109.972 -85.377 81.0123 
-110.06 -86.6069 82.3546 -110.436 -81.6662 74.5847 -110.718 -81.5794 72.9165 
-110.388 -82.0522 76.1612 -110.657 -82.9546 77.4438 -110.846 -83.9507 78.8802 
-110.767 -84.8028 80.5691 -110.717 -85.8616 82.0404 -110.857 -87.1559 83.205 
-111.213 -81.307 74.1561 -111.439 -81.0104 72.7014 -111.059 -81.6124 75.8813 
-111.169 -82.2272 77.3882 -111.382 -83.1972 78.7021 -111.415 -84.1798 80.2188 
-111.379 -85.1905 81.7664 -111.464 -86.3952 83.0348 -111.618 -87.6597 84.1185 
-111.727 -80.9029 73.7566 -111.851 -80.3578 72.5667 -111.649 -81.3844 75.4665 
-111.699 -81.8145 77.2603 -111.833 -82.4688 78.7166 -111.882 -83.3966 80.0497 
-111.875 -84.4909 81.4809 -111.971 -85.7165 82.8098 -112.135 -86.9733 83.9333 
-112.253 -88.1874 84.9375 -112.331 -80.3277 73.1318 -112.363 -81.037 74.6613 
-113.268 -80.6561 74.0953 -113.443 -81.2868 76.0236 -114.294 -81.1244 75.5176 
-112.458 -81.5534 76.6887 -114.375 -81.6802 77.4801 -114.87 -81.9396 76.9543 
-113.526 -81.7308 78.1038 -112.549 -81.9726 78.5507 -114.859 -82.6217 78.6254 
-115.36 -83.09 78.1087 -114.303 -82.2857 79.2669 -113.489 -82.2896 79.7838 
-112.549 -82.6867 79.9797 -115.483 -83.7885 79.7081 -116.142 -83.9771 79.2215 
-114.882 -83.469 80.2443 -114.278 -83.2246 80.8219 -113.392 -83.3359 81.16 
-112.475 -83.8366 81.3162 -116.283 -84.7758 80.9915 -116.767 -84.8581 80.4706 
-115.649 -84.7415 81.3714 -115.044 -84.6124 81.8486 -114.281 -84.5601 82.2809 
-113.303 -84.8037 82.4987 -112.501 -85.25 82.6645 -116.875 -86.0348 82.251 
-117.142 -86.3093 81.6788 -116.34 -85.9882 82.556 -115.721 -85.9877 82.8524 
-115.056 -85.9193 83.3181 -114.198 -85.9938 83.6671 -113.322 -86.2956 83.8015 
-112.661 -86.6409 83.8909 -117.38 -87.5461 83.2442 -117.546 -87.9071 82.6427 
-116.861 -87.3735 83.6084 -116.163 -87.3775 83.8006 -115.529 -87.31 84.1843 
-114.89 -87.1826 84.7205 -114.147 -87.2949 84.9985 -113.427 -87.6174 85.0049 
-112.807 -87.9222 84.9731 -117.765 -88.8721 83.9589 -117.821 -89.19 83.3584 
-117.308 -88.6652 84.4618 -116.545 -88.7044 84.7363 -115.825 -88.7961 85.0029 
-115.297 -88.6484 85.526 -114.779 -88.4645 86.0414 -114.16 -88.5969 86.1733 
-113.502 -88.9263 86.0431 -112.873 -89.1899 85.9278 -112.704 -90.5356 86.8056 
-113.352 -90.4312 86.937 -113.151 -91.8954 87.8564 -114.029 -90.1727 87.1427 
-113.827 -91.8638 88.058 -113.613 -93.3623 89.0158 -114.649 -90.0028 87.1815 
-114.429 -91.8078 88.1528 -114.216 -93.5435 89.1192 -114.097 -95.1987 90.0076 
-115.159 -90.1882 86.7913 -114.974 -91.9925 87.8851 -114.756 -93.8482 88.9221 
-114.698 -95.6923 89.9027 -114.746 -97.6458 90.6112 -115.614 -90.4056 86.2308 
-115.502 -92.2492 87.4092 -115.39 -94.1282 88.5657 -115.383 -96.0904 89.7011 
-115.504 -98.1912 90.571 -115.547 -100.255 91.1917 -116.229 -90.243 85.8735 
-116.046 -92.135 87.0619 -116.049 -94.09 88.3073 -116.135 -96.1064 89.5991 
-116.272 -98.4092 90.6308 -116.337 -100.685 91.3766 -116.217 -102.661 92.0725 
-117.005 -89.9916 85.5581 -116.635 -91.8368 86.7461 -116.568 -93.9543 88.0124 
-116.716 -96.042 89.3495 -116.809 -98.4229 90.4847 -116.823 -101.008 91.3264 
-116.778 -103.242 92.1423 -116.646 -105.111 92.8768 -117.591 -90.0347 85.0189 
-117.108 -91.7868 86.2081 -116.868 -94.0603 87.5077 -117.042 -96.3058 88.8314 
-117.151 -98.6205 89.9578 -117.026 -101.286 90.7978 -116.931 -103.808 91.6626 
-116.962 -105.843 92.5769 -117.001 -107.568 93.1372 -117.762 -90.2836 84.3634 
-117.295 -91.9395 85.5027 -116.936 -94.2283 86.8281 -117.118 -96.5981 88.2183 
-117.41 -98.8593 89.4163 -117.312 -101.403 90.2472 -117.067 -104.045 90.969 
-117.034 -106.272 91.846 -117.204 -108.081 92.5962 -117.381 -109.63 92.8534 
-112.37 -91.4598 87.4228 -112.792 -92.9492 88.5819 -112.039 -92.4853 88.0279 
-113.316 -94.6774 89.7678 -112.459 -94.2754 89.2684 -111.899 -93.9203 88.4911 
-113.99 -97.0161 90.5994 -113.116 -96.502 90.3317 -112.412 -96.1213 89.7268 
-112.072 -95.7167 88.7737 -114.789 -99.8649 91.0877 -114.023 -99.3252 90.9225 
-113.214 -98.6855 90.5843 -112.608 -98.0216 89.9254 -112.198 -97.2792 88.9604 
-115.5 -102.528 91.857 -114.868 -102.294 91.4969 -114.24 -101.635 91.0667 
-113.376 -100.583 90.6518 -112.576 -99.501 90.0476 -111.99 -98.4704 89.1602 
-116.025 -104.982 92.854 -115.36 -104.915 92.5106 -114.962 -104.56 91.8637 
-114.383 -103.553 91.1804 -113.321 -102.185 90.7442 -112.385 -100.908 90.2221 
-111.81 -99.7322 89.375 -116.529 -107.51 93.3131 -115.751 -107.37 93.2426 
-115.199 -107.098 92.849 -114.996 -106.41 92.0211 -114.407 -105.199 91.2209 
-113.319 -103.8 90.8114 -112.451 -102.455 90.3298 -111.885 -101.126 89.5089 
-117.091 -109.812 93.0127 -116.368 -109.698 93.0367 -115.52 -109.317 93.018 
-115.146 -108.715 92.6345 -115.059 -107.807 91.7552 -114.475 -106.582 91.0198 
-113.472 -105.226 90.6996 -112.639 -103.822 90.272 -111.98 -102.362 89.5251 
-117.695 -111.584 92.3072 -117.295 -111.766 92.236 -117.903 -113.421 91.4785 
-117.431 -113.424 91.2363 -117.911 -115.239 90.7482 -116.442 -111.465 92.1934 
-117.474 -115.017 90.3815 -117.852 -117.129 90.0729 -116.62 -112.927 91.097 
-115.583 -110.815 92.2523 -117.478 -116.567 89.589 -117.891 -118.598 89.127 
-116.829 -114.385 90.1008 -115.853 -112.152 91.1284 -115.289 -109.981 91.8937 
-117.394 -117.517 88.6772 -117.851 -119.052 88.0287 -116.84 -115.63 89.2967 
-116.036 -113.468 90.1181 -115.441 -111.129 90.8592 -115.127 -108.886 91.095 
-117.089 -117.662 87.8389 -117.465 -118.639 87.1692 -116.568 -116.167 88.5681 
-115.885 -114.312 89.3929 -115.3 -112.081 90.057 -114.933 -109.752 90.3982 
-114.378 -107.539 90.6052 -116.588 -117.232 87.3104 -116.824 -117.807 86.615 
-116.178 -116.009 87.9383 -115.603 -114.339 88.6627 -114.999 -112.458 89.4062 
-114.473 -110.374 89.9284 -113.961 -108.241 90.2543 -113.332 -106.09 90.4246 
-115.963 -116.341 86.9546 -116.118 -116.742 86.1865 -115.698 -115.331 87.5144 
-115.296 -113.775 87.9603 -114.774 -112.167 88.5927 -114.119 -110.575 89.3681 
-113.456 -108.731 89.9413 -112.926 -106.672 90.1375 -112.466 -104.52 89.9717 
-115.2 -115.151 86.532 -115.375 -115.479 85.814 -114.999 -114.349 87.14 
-114.75 -113.022 87.4929 -114.415 -111.593 87.8861 -113.873 -110.322 88.6175 
-113.168 -108.849 89.3983 -112.562 -106.967 89.7485 -112.127 -104.908 89.6134 
-111.717 -102.876 89.2157 -117.647 -110.39 92.2636 -118.011 -112.413 91.6379 
-117.905 -110.934 91.4451 -118.287 -113.207 90.6665 -118.113 -111.475 90.5367 
-118.224 -114.551 90.8664 -118.516 -113.967 89.6053 -118.12 -111.873 89.7267 
-118.67 -115.717 89.8318 -118.316 -116.843 90.1884 -118.523 -114.235 88.8475 
-118.067 -111.695 89.0216 -119.156 -116.467 88.7337 -119.155 -118.183 89.0184 
-118.479 -118.979 89.3353 -118.352 -113.819 88.3093 -118.077 -110.864 88.381 
-119.144 -116.409 88.0727 -119.894 -118.559 87.8686 -119.588 -120.039 88.0294 
-118.642 -120.127 88.1917 -118.066 -112.774 87.8158 -117.916 -109.46 87.8593 
-118.562 -115.688 87.6518 -119.607 -117.969 87.2531 -120.172 -119.779 86.9378 
-119.525 -120.551 87.0011 -118.395 -119.881 87.1101 -117.689 -110.861 87.4515 
-117.581 -107.488 87.3577 -117.872 -114.087 87.3329 -118.59 -116.606 86.9398 
-119.568 -118.497 86.3558 -119.71 -119.729 86.0334 -118.797 -119.74 86.0736 
-117.67 -118.847 86.2745 -117.383 -108.248 87.0653 -117.284 -105.241 86.7098 
-117.434 -111.448 87.117 -117.752 -114.267 86.7938 -118.513 -116.418 86.1235 
-119.105 -118.01 85.4743 -118.776 -118.765 85.2031 -117.777 -118.486 85.2992 
-116.825 -117.684 85.6681 -117.147 -105.63 86.4427 -117.005 -103.172 85.9329 
-117.208 -108.439 86.7375 -117.334 -111.265 86.6628 -117.739 -113.672 86.1455 
[...]
CELL_DATA 2000
SCALARS Distance double
LOOKUP_TABLE default
156.486 157.224 157.09 157.659 158.15 157.954 158.584 158.423 159.089 
159.216 158.967 159.605 159.418 160.098 159.93 160.617 160.347 160.076 
160.692 160.47 161.155 160.969 161.685 161.501 162.261 161.47 161.208 
161.829 161.584 162.302 162.094 162.901 162.677 163.533 163.3 164.224 
162.613 162.343 162.991 162.74 163.5 163.307 164.209 164.011 164.958 
164.703 165.663 165.416 166.406 163.811 163.529 164.201 163.933 164.708 
164.526 165.474 165.35 166.354 166.161 167.103 166.86 167.785 167.579 
168.52 164.989 164.74 165.42 165.164 165.929 165.74 166.688 166.603 
167.657 167.532 168.492 168.257 169.132 168.903 169.806 169.628 170.551 
166.069 165.875 166.553 166.348 167.092 166.929 167.843 167.79 168.861 
168.814 169.825 169.629 170.492 170.231 171.1 170.903 171.842 171.666 
172.59 155.963 155.444 155.99 156.647 155.133 155.566 156.231 156.766 
157.539 155.032 155.39 156.041 156.449 157.188 157.744 158.603 154.815 
155.276 155.902 156.309 156.98 157.452 158.266 158.861 159.745 154.428 
154.941 155.618 156.119 156.815 157.27 158.033 158.558 159.42 160.013 
160.877 154.361 154.655 155.402 155.852 156.679 157.141 157.964 158.402 
159.242 159.736 160.611 161.159 162.023 154.708 154.816 155.5 155.792 
156.632 157.069 157.967 158.4 159.255 159.659 160.511 160.969 161.854 
162.36 163.232 154.964 155.136 155.692 155.948 156.669 157.061 157.906 
158.374 159.22 159.667 160.486 160.926 161.779 162.25 163.123 163.6 
164.429 154.958 155.218 155.769 156.071 156.77 157.113 157.903 158.304 
159.109 159.556 160.356 160.838 161.668 162.169 163.02 163.503 164.321 
164.77 165.525 155.12 156.066 155.687 156.075 157.563 156.952 157.324 
156.827 157.22 159.138 158.539 158.874 158.27 158.585 158.032 158.372 
160.599 160.025 160.322 159.771 160.041 159.458 159.699 159.167 159.503 
162.134 161.503 161.802 161.196 161.521 160.918 161.196 160.56 160.844 
160.319 160.724 163.716 163.107 163.472 162.798 163.187 162.517 162.9 
162.182 162.506 161.802 162.179 161.625 162.087 165.311 164.734 165.17 
164.517 164.9 164.245 164.633 163.958 164.304 163.57 163.904 163.217 
163.624 163.047 163.48 166.916 166.371 166.807 166.183 166.506 165.876 
166.188 165.6 165.928 165.307 165.62 164.952 165.285 164.645 165.012 
164.424 164.781 168.287 167.879 168.256 167.728 167.984 167.386 167.628 
167.059 167.372 166.829 167.173 166.585 166.913 166.281 166.599 165.97 
166.28 165.679 165.974 166.812 167.182 167.42 168.296 167.55 167.824 
168.764 168.999 169.941 167.873 168.193 169.161 169.459 170.444 170.691 
171.69 168.111 168.484 169.467 169.824 170.833 171.155 172.218 172.506 
173.629 168.278 168.674 169.677 170.097 171.155 171.535 172.678 173.039 
174.281 174.584 175.835 168.492 168.83 169.817 170.269 171.378 171.845 
173.055 173.509 174.839 175.25 176.595 176.877 178.126 168.799 169.064 
169.974 170.389 171.488 172.025 173.267 173.83 175.159 175.715 177.066 
177.536 178.809 179.117 180.279 169.032 169.319 170.113 170.503 171.523 
172.094 173.342 173.979 175.289 175.906 177.189 177.795 179.032 179.576 
180.738 181.132 182.181 169.035 169.404 170.092 170.515 171.415 172.034 
173.242 173.98 175.299 175.971 177.214 177.815 178.989 179.6 180.731 
181.325 182.366 182.827 183.701 166.871 168.346 167.528 167.405 169.999 
169.106 168.997 168.113 168.007 171.811 170.869 170.826 169.846 169.811 
168.855 168.854 173.838 172.835 172.916 171.849 171.911 170.853 170.949 
169.906 169.966 176.08 175.037 175.247 174.129 174.27 173.119 173.222 
172.11 172.147 171.046 170.952 178.376 177.372 177.664 176.581 176.794 
175.601 175.653 174.425 174.35 173.184 173.004 171.874 171.61 180.571 
179.659 179.982 178.99 179.266 178.152 178.237 176.93 176.785 175.432 
175.209 173.947 173.712 172.505 172.256 182.536 181.78 182.09 181.204 
181.439 180.493 180.623 179.48 179.377 177.988 177.748 176.321 176.118 
174.771 174.585 173.277 173.058 184.086 183.568 183.836 183.113 183.206 
182.419 182.453 181.604 181.529 180.446 180.202 178.892 178.612 177.264 
177.034 175.701 175.447 174.112 173.818 184.886 185.827 185.189 184.657 
186.554 185.965 185.384 184.713 183.985 187.268 186.611 185.927 185.289 
184.545 183.912 183.168 187.893 187.266 186.494 185.813 185.014 184.385 
183.647 183.064 182.274 188.008 187.658 186.851 186.314 185.462 184.843 
184.017 183.45 182.639 182.047 181.057 187.46 187.445 186.662 186.418 
185.555 185.137 184.214 183.712 182.778 182.271 181.29 180.669 179.533 
186.491 186.705 186.008 185.979 185.111 184.931 183.976 183.677 182.669 
182.271 181.252 180.778 179.719 179.096 177.945 185.289 185.664 185.053 
185.183 184.299 184.256 183.277 183.177 182.214 182.005 181.019 180.663 
179.635 179.165 178.069 177.472 176.307 183.904 184.383 183.801 184.096 
183.24 183.314 182.336 182.342 181.446 181.418 180.542 180.352 179.366 
179.004 177.913 177.447 176.292 175.749 174.596 184.993 185.251 185.478 
186.009 185.342 185.687 186.387 186.482 186.888 185.327 185.782 186.644 
186.903 187.574 187.464 187.788 185.052 185.699 186.694 187.183 188.09 
188.221 188.777 188.453 188.562 184.419 185.269 186.306 187.084 188.11 
188.626 189.349 189.368 189.54 189.056 188.738 183.402 184.445 185.412 
186.424 187.378 188.286 189.028 189.575 189.782 189.728 189.305 188.799 
188.084 181.937 183.171 184.013 185.212 185.972 187.127 187.721 188.715 
188.919 189.439 189.012 188.932 188.076 187.734 186.895 180.137 181.455 
182.176 183.499 184.102 185.375 185.803 186.995 187.172 188.102 187.817 
188.207 187.429 187.377 186.471 186.33 185.551 178.275 179.531 180.15 
181.475 182.005 183.308 183.673 184.896 185.065 186.149 186.044 186.782 
186.284 186.541 185.766 185.748 184.96 184.904 184.163 169.153 169.647 
169.677 170.248 170.392 170.307 171.027 170.938 171.683 171.558 171.33 
172.186 171.968 172.913 172.717 173.658 172.85 172.679 173.597 173.333 
174.338 174.136 175.221 174.938 175.842 173.868 173.915 174.912 174.765 
175.778 175.615 176.753 176.56 177.567 177.131 177.832 174.693 174.865 
176.05 176.05 177.207 177.08 178.295 178.129 179.256 178.886 179.675 
179.055 179.611 175.601 175.781 177.16 177.258 178.611 178.56 179.848 
179.709 180.877 180.59 181.45 180.905 181.478 180.804 181.312 176.575 
176.791 178.253 178.442 179.879 179.95 181.229 181.177 182.262 182.1 
182.93 182.567 183.133 182.589 183.058 182.455 182.915 177.427 177.735 
179.187 179.49 180.921 181.121 182.368 182.404 183.414 183.321 184.111 
183.881 184.45 184.065 184.501 184.037 184.441 183.921 184.246 168.487 
167.45 168.323 168.957 166.277 167.231 167.963 168.816 169.59 165.176 
166.086 166.834 167.757 168.58 169.559 170.589 164.157 165.025 165.728 
166.627 167.411 168.442 169.466 170.635 171.775 163.094 163.972 164.658 
165.546 166.291 167.258 168.199 169.377 170.487 171.717 172.745 162.057 
162.884 163.57 164.467 165.23 166.167 167.053 168.118 169.152 170.343 
171.375 172.548 173.499 161.23 161.927 162.59 163.407 164.166 165.094 
165.967 166.989 167.96 169.058 170.059 171.186 172.172 173.313 174.327 
160.619 161.206 161.833 162.52 163.232 164.061 164.897 165.875 166.807 
167.87 168.826 169.919 170.888 172.014 173.031 174.203 175.262 160.118 
160.641 161.223 161.829 162.483 163.199 163.964 164.833 165.708 166.703 
167.617 168.678 169.609 170.727 171.707 172.885 173.908 175.114 176.12 
160.024 160.195 160.437 161.113 160.373 160.629 161.376 161.618 162.382 
160.671 160.873 161.688 161.935 162.801 163.006 163.874 161.218 161.314 
162.173 162.346 163.285 163.493 164.46 164.635 165.601 161.937 162.004 
162.909 162.983 163.949 164.079 165.113 165.285 166.334 166.474 167.496 
162.629 162.754 163.723 163.811 164.819 164.883 165.961 166.06 167.194 
167.295 168.401 168.461 169.514 163.331 163.45 164.457 164.606 165.665 
165.79 166.907 167.013 168.197 168.278 169.462 169.484 170.62 170.589 
171.664 164.156 164.215 165.218 165.342 166.413 166.588 167.726 167.92 
169.122 169.293 170.519 170.608 171.803 171.793 172.937 172.839 173.905 
164.996 165.061 166.039 166.136 167.191 167.344 168.484 168.691 169.907 
170.144 171.414 171.618 172.885 172.981 174.188 174.154 175.272 175.121 
176.13 165.727 167.23 166.593 166.84 168.964 168.249 168.597 167.825 
168.079 170.915 170.151 170.611 169.773 170.119 169.197 169.449 173.024 
172.224 172.789 171.939 172.42 171.437 171.758 170.691 170.942 175.484 
174.556 175.263 174.296 174.949 173.921 174.418 173.236 173.543 172.315 
172.549 178.221 177.307 178.209 177.092 177.88 176.702 177.377 176.119 
176.567 175.171 175.401 174.007 174.139 180.58 180.014 181.042 180.149 
180.974 179.82 180.479 179.212 179.695 178.307 178.53 177.02 177.047 
175.56 175.514 182.196 182 182.997 182.605 183.42 182.681 183.243 
182.196 182.545 181.312 181.458 180.065 179.998 178.491 178.302 176.813 
176.605 183.33 183.274 184.162 184.082 184.899 184.629 185.24 184.593 
184.899 183.9 183.961 182.753 182.635 181.272 181.008 179.546 179.216 
177.765 177.441 165.312 165.074 165.709 166.761 164.809 165.48 166.598 
167.244 168.428 164.526 165.242 166.423 167.109 168.356 169.03 170.329 
164.154 164.94 166.15 166.917 168.194 168.947 170.29 170.998 172.383 
163.745 164.551 165.778 166.59 167.871 168.708 170.085 170.914 172.374 
173.135 174.704 163.424 164.202 165.483 166.253 167.548 168.355 169.765 
170.659 172.201 173.087 174.709 175.564 177.257 163.179 163.949 165.287 
166.043 167.345 168.08 169.463 170.342 171.926 172.892 174.532 175.465 
177.077 178.015 179.544 162.98 163.728 165.076 165.865 167.156 167.879 
169.157 170.004 171.522 172.565 174.211 175.214 176.745 177.677 179.086 
180.015 181.247 162.859 163.539 164.847 165.636 166.924 167.654 168.853 
169.632 171.021 172.064 173.696 174.802 176.331 177.273 178.593 179.473 
180.666 181.51 182.516 164.331 162.679 163.697 164.043 160.985 161.975 
162.308 163.357 163.717 159.51 160.345 160.619 161.592 161.93 163.006 
163.382 158.235 158.972 159.172 159.984 160.224 161.198 161.517 162.626 
162.983 156.958 157.68 157.804 158.559 158.656 159.51 159.699 160.733 
161.037 162.179 162.544 155.682 156.338 156.352 157.096 157.077 157.881 
157.939 158.903 159.142 160.243 160.595 161.754 162.178 154.468 155.028 
154.941 155.61 155.548 156.271 156.266 157.129 157.322 158.372 158.732 
159.854 160.27 161.434 161.911 153.365 153.816 153.701 154.266 154.243 
154.856 154.876 155.562 155.705 156.602 156.95 158.03 158.483 159.601 
160.078 161.224 161.745 152.554 152.834 152.752 153.167 153.206 153.717 
153.806 154.352 154.467 155.134 155.396 156.314 156.775 157.863 158.407 
159.504 160.053 161.148 161.703 152.239 152.011 152.168 152.4 151.955 
152.021 152.204 152.425 152.816 152.003 152.012 152.141 152.267 152.575 
152.903 153.383 152.161 152.099 152.134 152.167 152.349 152.631 153.052 
153.476 154.015 152.483 152.328 152.305 152.173 152.254 152.397 152.799 
153.172 153.774 154.194 154.907 153.082 152.809 152.879 152.531 152.648 
152.503 152.967 153.12 153.859 154.139 154.993 155.342 156.29 153.936 
153.606 153.833 153.379 153.618 153.236 153.758 153.634 154.454 154.525 
155.487 155.674 156.707 156.975 158.003 154.839 154.544 154.848 154.467 
154.792 154.397 154.912 154.655 155.418 155.34 156.277 156.353 157.39 
157.558 158.594 158.771 159.724 155.693 155.429 155.752 155.465 155.837 
155.546 156.058 155.819 156.504 156.359 157.2 157.196 158.17 158.289 
159.299 159.436 160.376 160.486 161.371 156.305 157.421 156.671 156.381 
158.835 157.931 157.608 156.808 156.55 160.407 159.465 159.188 158.233 
157.992 157.109 156.908 162.084 161.114 160.943 159.958 159.791 158.778 
158.606 157.618 157.453 164.052 162.952 162.849 161.81 161.746 160.712 
160.613 159.519 159.37 158.292 158.183 166.283 165.12 165.063 163.891 
163.868 162.762 162.743 161.629 161.538 160.373 160.267 159.157 159.148 
168.476 167.412 167.449 166.262 166.273 165.05 165.051 163.85 163.803 
162.604 162.508 161.336 161.284 160.206 160.237 170.548 169.581 169.715 
168.647 168.734 167.547 167.566 166.293 166.241 164.952 164.858 163.613 
163.531 162.374 162.339 161.281 161.282 172.587 171.66 171.836 170.857 
170.988 169.933 169.978 168.798 168.732 167.447 167.326 166.026 165.926 
164.676 164.615 163.436 163.397 162.301 162.279 163.217 164.426 164.268 
165.218 165.721 165.57 166.573 166.379 167.296 167.071 166.926 167.987 
167.784 168.719 168.425 169.252 168.479 168.324 169.445 169.252 170.312 
169.981 170.953 170.518 171.508 169.892 169.761 170.923 170.762 171.987 
171.729 172.952 172.506 173.689 173.127 174.272 171.16 171.14 172.354 
172.268 173.586 173.465 174.851 174.595 175.879 175.418 176.527 175.942 
176.897 172.196 172.323 173.616 173.667 175.029 175.034 176.41 176.349 
177.578 177.365 178.366 177.989 178.83 178.323 179.076 173.059 173.288 
174.632 174.833 176.208 176.353 177.653 177.706 178.802 178.736 179.637 
179.481 180.31 180.036 180.819 180.367 181.076 173.807 174.104 175.435 
175.734 177.057 177.33 178.548 178.727 179.736 179.759 180.594 180.539 
181.385 181.313 182.191 181.971 182.726 182.283 182.879 154.554 154.537 
154.388 154.034 154.173 154.174 153.718 153.727 153.327 153.746 153.666 
153.163 153.215 152.786 152.891 152.569 153.831 153.442 152.978 152.778 
152.449 152.406 152.21 152.269 152.202 154.211 153.74 153.258 152.884 
152.582 152.346 152.201 152.108 152.116 152.15 152.248 154.369 154.01 
153.395 153.115 152.67 152.511 152.227 152.152 152.026 152.083 152.126 
152.258 152.333 154.496 154.091 153.45 153.113 152.6 152.437 152.1 
152.05 151.828 151.88 151.826 152.016 152.072 152.258 152.272 154.906 
154.391 153.886 153.349 152.923 152.51 152.271 152.023 151.91 151.765 
151.732 151.741 151.808 151.948 152.008 152.146 152.164 155.485 154.973 
154.591 154.017 153.657 153.099 152.854 152.438 152.341 152.059 152.035 
151.852 151.882 151.828 151.893 151.932 151.984 152.078 152.176 154.426 
153.968 154.193 154.292 153.403 153.736 153.847 154.178 154.51 152.721 
153.117 153.283 153.68 153.952 154.451 154.92 152.315 152.534 152.729 
153.082 153.357 153.83 154.256 154.846 155.377 152.33 152.346 152.536 
152.7 153.055 153.359 153.856 154.28 154.881 155.389 156.007 152.429 
152.436 152.602 152.686 153.089 153.293 153.898 154.157 154.843 155.143 
155.829 156.186 156.824 152.388 152.47 152.63 152.755 153.13 153.38 
153.969 154.283 154.943 155.245 155.887 156.171 156.771 157.068 157.637 
152.326 152.424 152.665 152.79 153.19 153.405 153.935 154.249 154.809 
155.19 155.744 156.14 156.679 157.027 157.548 157.861 158.389 152.411 
152.474 152.853 152.946 153.459 153.577 154.131 154.273 154.784 155.006 
155.515 155.873 156.427 156.838 157.384 157.746 158.265 158.594 159.113 
154.777 154.699 154.951 155.674 155.009 155.084 155.795 156.134 157.137 
155.504 155.535 156.182 156.368 157.275 157.706 158.732 155.99 156.042 
156.658 156.768 157.544 157.866 158.859 159.293 160.275 156.564 156.558 
157.212 157.26 158.013 158.189 159.147 159.495 160.541 160.886 161.841 
157.287 157.206 157.875 157.887 158.692 158.77 159.701 159.902 160.9 
161.19 162.133 162.44 163.342 158.049 157.942 158.559 158.574 159.365 
159.471 160.366 160.518 161.413 161.593 162.441 162.691 163.569 163.913 
164.865 158.802 158.686 159.255 159.236 159.954 160.069 160.914 161.105 
161.967 162.122 162.928 163.066 163.916 164.168 165.151 165.502 166.494 
159.54 159.434 159.991 159.928 160.581 160.626 161.406 161.578 162.44 
162.636 163.476 163.612 164.443 164.609 165.533 165.821 166.784 167.105 
167.935 164.136 163.262 163.307 162.483 162.421 162.411 161.583 161.61 
160.815 161.735 161.646 160.835 160.781 160.017 160.025 159.359 161.097 
161.021 160.257 160.16 159.421 159.332 158.638 158.658 158.072 160.446 
160.393 159.706 159.646 158.975 158.846 158.132 158.013 157.351 157.39 
156.832 159.95 159.822 159.192 159.129 158.538 158.443 157.796 157.612 
156.946 156.804 156.232 156.22 155.691 159.685 159.464 158.834 158.69 
158.086 157.997 157.381 157.275 156.661 156.517 155.953 155.811 155.273 
155.165 154.597 159.537 159.284 158.642 158.413 157.755 157.571 156.901 
156.799 156.189 156.158 155.615 155.555 154.99 154.85 154.238 154.093 
153.513 159.403 159.159 158.54 158.277 157.64 157.347 156.681 156.418 
155.807 155.681 155.168 155.133 154.608 154.524 153.929 153.782 153.219 
153.094 152.665 
POINT_DATA 1002
SCALARS Distance double
LOOKUP_TABLE default
156.953 155.956 156.552 157.768 157.354 158.257 158.74 158.356 159.247 
159.765 159.809 159.486 160.27 160.78 161.309 160.935 160.622 161.336 
161.861 162.417 163.059 162.07 161.722 162.485 163.088 163.756 164.427 
165.188 163.238 162.879 163.668 164.351 165.191 165.929 166.635 167.399 
164.471 164.085 164.896 165.562 166.511 167.363 168.018 168.706 169.456 
165.664 165.221 166.126 166.766 167.739 168.724 169.392 169.988 170.724 
171.473 166.742 166.247 167.256 167.898 168.867 169.981 170.772 171.313 
172 172.803 173.494 155.385 156.036 154.914 155.752 154.737 156.909 
155.687 154.676 156.688 157.968 155.469 154.304 156.556 157.701 159.13 
155.053 153.931 156.335 157.557 158.845 160.289 154.986 154.172 156.172 
157.533 158.806 160.078 161.47 155.296 154.662 156.222 157.506 158.865 
160.097 161.361 162.734 155.456 154.779 156.33 157.458 158.756 160.042 
161.322 162.656 163.982 155.424 154.673 156.43 157.554 158.7 159.874 
161.154 162.531 163.874 165.109 155.267 156.375 156.561 157.923 158.209 
157.679 159.489 159.721 159.214 158.866 160.867 161.213 160.615 160.297 
159.938 162.433 162.76 162.108 161.843 161.449 161.147 164.131 164.261 
163.855 163.601 163.258 162.815 162.577 165.814 165.862 165.567 165.282 
165.018 164.639 164.262 164.036 167.44 167.448 167.17 166.783 166.502 
166.267 165.957 165.639 165.362 168.753 168.663 168.578 168.209 167.896 
167.721 167.533 167.25 166.911 166.568 167.625 168.07 169.196 168.493 
169.734 170.896 168.84 170.154 171.447 172.731 169.084 170.481 171.869 
173.342 174.818 169.223 170.73 172.26 173.909 175.595 177.096 169.374 
170.859 172.547 174.362 176.25 177.945 179.341 169.614 170.938 172.672 
174.585 176.536 178.418 180.07 181.43 169.77 170.963 172.676 174.684 
176.603 178.439 180.248 181.903 183.214 169.694 170.819 172.471 174.586 
176.633 178.414 180.123 181.829 183.37 184.523 168.218 169.905 168.868 
171.808 170.767 169.802 173.969 172.976 171.994 171.054 176.332 175.447 
174.39 173.286 172.106 178.694 177.97 176.971 175.604 174.164 172.746 
180.948 180.31 179.522 178.222 176.533 174.934 173.459 182.97 182.36 
181.652 180.701 179.214 177.5 175.923 174.376 184.528 184.017 183.249 
182.464 181.428 179.967 178.374 176.808 175.16 185.612 185.433 186.441 
186.028 187.198 184.696 186.611 188.002 185.149 183.798 187.19 188.493 
185.685 184.215 182.935 187.296 188.239 186.072 184.636 183.206 181.781 
186.803 187.34 185.889 184.709 183.301 181.831 180.263 185.974 186.159 
185.249 184.199 183.025 181.685 180.244 178.655 184.86 184.85 184.327 
183.323 182.312 181.31 180.065 178.6 176.955 183.442 183.421 183.103 
182.294 181.395 180.635 179.686 178.352 176.789 175.135 184.848 185.979 
184.931 186.158 184.942 187.031 186.253 184.793 187.528 188.169 186.06 
184.312 187.776 188.972 189.195 185.442 183.511 187.423 189.136 189.945 
189.485 184.389 182.317 186.413 188.303 189.648 189.757 188.677 182.817 
180.688 184.841 186.668 188.197 188.914 188.365 187.187 180.87 178.861 
182.85 184.622 186.125 187.198 187.342 186.581 185.646 178.871 177.099 
180.715 182.46 183.946 185.129 185.81 185.701 185.018 184.218 169.104 
170.237 169.602 171.087 170.491 171.765 172.418 171.771 173.059 173.922 
173.851 172.931 174.526 175.433 176.311 174.967 173.711 175.922 176.892 
177.94 178.455 175.923 174.453 177.269 178.439 179.567 180.273 180.305 
176.976 175.382 178.591 179.983 181.134 181.941 182.146 181.991 178.022 
176.329 179.769 181.287 182.426 183.234 183.624 183.637 183.55 167.696 
168.17 166.487 167.041 165.309 168.681 165.913 164.309 167.554 169.511 
164.857 163.308 166.419 168.267 170.627 163.755 162.223 165.366 167.093 
169.242 171.597 162.677 161.275 164.282 166.046 168.024 170.194 172.339 
161.832 160.588 163.264 164.958 166.902 168.959 171.029 173.151 161.202 
160.071 162.47 163.966 165.77 167.752 169.772 171.867 174.079 160.652 