# vtk DataFile Version 4.0
vtk output
ASCII
DATASET POLYDATA
POINTS 1002 float
-106.111 -79.695 74.3531 -105.969 -78.9924 73.1573 -106.426 -78.8834 74.0365 
-106.613 -79.6453 75.3543 -107.098 -78.86 74.8918 -106.355 -80.4898 75.8818 
-107.344 -79.6987 76.3317 -107.907 -78.9486 75.7991 -106.902 -80.5053 76.9971 
-106.652 -81.4277 77.6341 -108.182 -79.8641 77.3916 -108.636 -79.0861 76.9134 
-107.647 -80.6238 78.0407 -107.284 -81.5875 78.678 -107.122 -82.6795 79.2126 
-108.904 -80.0756 78.664 -109.309 -79.2468 78.1701 -108.435 -80.8419 79.2108 
-108.044 -81.803 79.7206 -107.902 -83.0536 80.1721 -107.86 -84.2131 80.6708 
-109.605 -80.3659 79.9563 -110.106 -79.5668 79.3459 -109.139 -81.1898 80.5374 
-108.782 -82.1204 81.0115 -108.669 -83.4013 81.387 -108.672 -84.7457 81.8095 
-108.571 -85.8147 82.371 -110.448 -80.8201 81.0729 -110.92 -80.0589 80.4344 
-109.956 -81.732 81.6975 -109.554 -82.7079 82.2851 -109.368 -83.8717 82.79 
-109.359 -85.2245 83.209 -109.318 -86.4714 83.6334 -109.179 -87.5264 84.103 
-111.268 -81.3733 82.0767 -111.605 -80.5721 81.4923 -110.907 -82.3855 82.6373 
-110.533 -83.5036 83.2499 -110.212 -84.6304 83.9105 -110.043 -85.8459 84.4867 
-110.018 -87.151 84.9078 -110.015 -88.3811 85.244 -109.975 -89.4417 85.5569 
-111.97 -81.9616 82.966 -112.261 -81.0737 82.4267 -111.729 -83.0549 83.4847 
-111.49 -84.2676 84.0872 -111.19 -85.4567 84.7808 -110.894 -86.636 85.4432 
-110.762 -87.9428 85.9784 -110.794 -89.3072 86.3844 -110.853 -90.4924 86.6826 
-110.855 -91.4166 86.9075 -112.65 -82.5869 83.6906 -112.95 -81.6203 83.1697 
-112.412 -83.7397 84.2252 -112.22 -84.9669 84.8811 -111.997 -86.1677 85.6241 
-111.736 -87.38 86.3 -111.556 -88.7409 86.8737 -111.509 -90.2163 87.4127 
-111.523 -91.5434 87.865 -111.536 -92.5545 88.1409 -111.523 -93.3269 88.2834 
-106.191 -78.2511 72.5537 -106.763 -78.0893 73.443 -106.491 -77.4715 71.7758 
-107.16 -77.2731 72.762 -106.825 -76.7396 70.8513 -107.536 -78.0552 74.3146 
-107.607 -76.5885 71.9861 -107.417 -76.2582 69.947 -107.985 -77.2616 73.7652 
-108.305 -78.1252 75.3053 -108.33 -76.1212 71.1635 -108.375 -75.9769 69.1498 
-108.543 -76.592 73.1248 -108.759 -77.3126 74.8674 -108.996 -78.2159 76.4939 
-109.255 -75.742 70.3943 -109.306 -75.6397 68.4618 -109.329 -76.0128 72.3688 
-109.461 -76.5938 74.286 -109.596 -77.4203 76.0514 -109.828 -78.4466 77.6977 
-110.078 -75.4114 69.7913 -110.051 -75.3014 67.9293 -110.14 -75.5476 71.6932 
-110.28 -75.9618 73.6137 -110.433 -76.7519 75.49 -110.574 -77.796 77.18 
-110.739 -78.9399 78.8078 -110.911 -75.1279 69.304 -110.897 -75.0457 67.5758 
-110.936 -75.2398 71.1486 -111.028 -75.5122 73.055 -111.197 -76.1478 74.9626 
-111.325 -77.1573 76.6877 -111.386 -78.354 78.2754 -111.466 -79.4995 79.9359 
-111.86 -74.7488 68.8199 -111.846 -74.7194 67.3562 -111.867 -74.8798 70.5396 
-111.867 -75.1511 72.5048 -111.914 -75.6419 74.5371 -111.981 -76.456 76.3351 
-112.003 -77.6158 77.8517 -112.03 -78.8666 79.4207 -112.122 -79.9817 81.0612 
-112.706 -74.3398 68.3821 -112.655 -74.3412 67.2064 -112.773 -74.4524 69.884 
-112.793 -74.7409 71.8339 -112.756 -75.2139 74.0312 -112.708 -75.8747 76.0182 
-112.685 -76.8689 77.5524 -112.703 -78.1493 78.9617 -112.769 -79.3799 80.5389 
-112.857 -80.4744 82.0352 -113.331 -74.1539 67.7229 -113.449 -74.238 69.0195 
-113.974 -74.5295 68.4843 -114.161 -74.7018 70.2251 -114.699 -75.3477 69.8895 
-113.59 -74.4486 70.8659 -114.93 -75.5156 72.0233 -115.567 -76.0259 71.5996 
-114.358 -74.9826 72.4581 -113.639 -74.8848 73.1979 -115.763 -76.2013 73.6516 
-116.47 -76.5056 72.9313 -115.109 -75.8403 74.1697 -114.41 -75.5168 74.7826 
-113.565 -75.5266 75.5013 -116.529 -76.9048 74.8274 -117.167 -77.2982 74.0143 
-115.842 -76.7176 75.451 -115.12 -76.5274 76.043 -114.333 -76.3649 76.7439 
-113.486 -76.4489 77.2879 -117.099 -77.9537 76.0114 -117.521 -78.4026 75.2461 
-116.506 -77.7259 76.6645 -115.802 -77.6719 77.1786 -115.058 -77.6364 77.7686 
-114.315 -77.6066 78.3573 -113.504 -77.7496 78.7394 -117.459 -79.16 77.2768 
-117.636 -79.5294 76.5527 -117.054 -78.9175 78.0346 -116.459 -78.8409 78.6221 
-115.74 -78.896 79.0998 -115.053 -78.971 79.5822 -114.371 -79.0026 80.0106 
-113.57 -79.1105 80.3228 -117.66 -80.4373 78.5212 -117.701 -80.7871 77.8534 
-117.432 -80.2009 79.3262 -117.02 -80.0707 80.0623 -116.401 -80.041 80.6089 
-115.678 -80.1203 81.0192 -115.021 -80.2054 81.3847 -114.367 -80.2244 81.7047 
-113.608 -80.2902 81.927 -117.769 -81.9222 79.7829 -117.812 -82.2793 79.1405 
-117.621 -81.6571 80.5436 -117.367 -81.4869 81.2756 -116.941 -81.37 81.8579 
-116.286 -81.3365 82.2631 -115.546 -81.3906 82.5762 -114.902 -81.4197 82.8737 
-114.293 -81.4124 83.1028 -113.618 -81.4726 83.1951 -113.453 -82.9194 84.1613 
-114.093 -82.86 84.2365 -113.982 -84.5468 85.2882 -114.68 -82.907 84.1396 
-114.547 -84.6384 85.383 -114.49 -86.331 86.6552 -115.296 -83.0032 83.8783 
-115.087 -84.8887 85.2317 -114.99 -86.6382 86.7074 -114.919 -88.3405 88.0352 
-116.052 -83.0263 83.602 -115.742 -85.125 84.9664 -115.532 -87.0874 86.5244 
-115.461 -88.8696 88.0332 -115.39 -90.8764 89.2888 -116.781 -83.0274 83.3282 
-116.447 -85.1588 84.7578 -116.123 -87.3431 86.3493 -116.064 -89.3495 87.9396 
-116.136 -91.5065 89.3583 -116.085 -93.7287 90.657 -117.269 -83.1056 82.9229 
-117.014 -85.1186 84.4732 -116.665 -87.3209 86.1359 -116.56 -89.5378 87.8566 
-116.789 -91.8985 89.391 -116.924 -94.305 90.8259 -116.783 -96.3801 92.0948 
-117.545 -83.2409 82.3331 -117.397 -85.1438 83.9913 -117.176 -87.267 85.6582 
-117.025 -89.5958 87.5201 -117.168 -92.1376 89.2784 -117.418 -94.6822 90.8025 
-117.412 -96.9333 92.187 -117.204 -98.9112 93.1728 -117.735 -83.4396 81.5878 
-117.629 -85.2116 83.3195 -117.534 -87.2165 84.9732 -117.49 -89.5985 86.8757 
-117.532 -92.3416 88.8812 -117.654 -95.044 90.5558 -117.707 -97.3854 91.957 
-117.616 -99.496 93.0896 -117.478 -101.587 93.6852 -117.897 -83.7196 80.802 
-117.827 -85.3179 82.4859 -117.691 -87.1054 84.1428 -117.674 -89.3874 86.0681 
-117.808 -92.269 88.2636 -117.935 -95.2336 90.1592 -117.951 -97.7455 91.5675 
-117.908 -99.9095 92.6975 -117.86 -102.07 93.4579 -117.792 -104.22 93.692 
-113.188 -84.1466 84.7672 -113.779 -85.9121 86.1186 -112.95 -85.4702 85.5003 
-114.316 -87.8127 87.6374 -113.513 -87.3439 87.0173 -112.701 -86.7666 86.3554 
-114.749 -90.197 89.0233 -114.042 -89.5644 88.4842 -113.205 -88.8625 87.85 
-112.45 -88.0943 87.134 -115.291 -93.1105 90.4034 -114.601 -92.3643 89.8718 
-113.848 -91.5388 89.1993 -113.045 -90.584 88.5324 -112.305 -89.6267 87.7571 
-116.028 -95.9646 91.8917 -115.324 -95.3202 91.3792 -114.665 -94.5576 90.6435 
-113.886 -93.5978 89.905 -113.043 -92.4552 89.2159 -112.243 -91.3128 88.3937 
-116.674 -98.6904 93.0702 -116.078 -98.2036 92.6736 -115.482 -97.5489 92.0781 
-114.777 -96.6704 91.3563 -113.88 -95.4599 90.6569 -112.929 -94.1198 89.9631 
-112.147 -92.821 89.0328 -117.108 -101.646 93.6416 -116.651 -101.364 93.3472 
-116.093 -100.76 92.9953 -115.437 -99.8308 92.5516 -114.658 -98.4734 91.9053 
-113.687 -96.8817 91.226 -112.733 -95.378 90.4911 -112.061 -93.9586 89.4363 
-117.464 -104.605 93.6761 -117.068 -104.603 93.4407 -116.526 -104.129 93.2311 
-115.84 -103.184 93.1176 -115.207 -101.711 92.7535 -114.545 -99.8541 92.0627 
-113.626 -98.0372 91.3779 -112.704 -96.4117 90.6377 -112.058 -94.8408 89.5647 
-117.924 -107.096 93.2782 -117.521 -107.468 93.1404 -117.907 -109.725 92.3661 
-117.436 -109.756 92.1738 -117.735 -111.834 91.2041 -117.017 -107.279 92.9184 
-117.291 -111.447 90.9301 -117.567 -113.653 90.0035 -116.844 -109.247 92.017 
-116.285 -106.513 92.9202 -117.145 -113.051 89.68 -117.288 -115.1 88.6773 
-116.68 -110.795 90.8528 -116.014 -108.274 92.2144 -115.56 -105.138 92.9621 
-116.731 -114.328 88.6435 -116.613 -115.701 87.3109 -116.47 -112.281 89.8676 
-115.85 -109.704 91.2376 -115.475 -106.63 92.3117 -115.171 -103.153 92.5022 
-115.989 -114.671 87.904 -115.732 -115.449 86.5073 -116.072 -113.083 89.2202 
-115.671 -110.657 90.3839 -115.445 -107.703 91.3993 -115.341 -104.394 91.8504 
-114.64 -100.973 91.7553 -115.306 -114.065 87.5615 -115.112 -114.537 86.538 
-115.63 -112.768 88.7064 -115.485 -110.611 89.679 -115.221 -107.992 90.5769 
-115.203 -105.214 91.207 -114.711 -102.098 91.3457 -113.625 -98.9642 91.1444 
-114.904 -112.689 87.5746 -114.875 -112.948 86.9582 -115.224 -111.614 88.3771 
-115.288 -109.76 89.1363 -114.951 -107.51 89.947 -114.672 -105.287 90.754 
-114.312 -102.798 91.1217 -113.499 -99.8337 90.9293 -112.615 -97.0258 90.3718 
-114.683 -110.708 87.7266 -114.817 -110.796 87.3392 -114.785 -109.921 88.2921 
-114.867 -108.499 88.9022 -114.611 -106.686 89.5946 -114.144 -104.824 90.3947 
-113.664 -102.811 90.9155 -113.061 -100.266 90.7753 -112.392 -97.4854 90.0982 
-111.878 -95.1257 89.2031 -118.198 -105.356 93.3343 -118.347 -108.373 92.6149 
-118.503 -106.286 92.6936 -118.613 -109.477 91.5974 -118.488 -106.947 91.8993 
-118.305 -111.212 91.4163 -118.561 -110.241 90.523 -118.28 -107.144 91.1059 
-118.7 -112.625 90.1789 -118.169 -113.714 90.2384 -118.398 -110.135 89.7066 
-118.326 -106.577 90.3853 -118.893 -113.312 89.0569 -118.791 -115.308 89.0787 
-117.992 -115.69 89.0667 -118.452 -108.812 89.2177 -118.594 -105.124 89.7285 
-118.754 -112.454 88.4238 -119.09 -115.441 88.0917 -118.569 -116.824 87.9097 
-117.497 -116.563 87.4289 -118.565 -106.524 88.9339 -118.612 -102.936 89.0269 
-118.468 -110.162 88.313 -118.665 -113.652 87.7245 -118.649 -116.1 87.1468 
-117.843 -116.795 86.323 -116.623 -116.288 85.9246 -118.442 -103.726 88.5868 
-118.29 -100.363 88.1101 -118.249 -107.165 88.43 -118.051 -110.682 87.9362 
-118.069 -113.717 87.2318 -117.854 -115.416 86.237 -116.959 -115.741 85.4568 
-115.805 -115.351 85.622 -118.1 -100.814 87.881 -117.84 -97.8637 86.9262 
-118.064 -103.934 88.3023 -117.789 -107.244 88.2084 -117.58 -110.444 87.7201 
-117.502 -112.77 86.9429 -117.142 -113.88 86.1535 -116.273 -114.14 85.8596 
-115.359 -113.843 86.243 -117.637 -98.1768 86.7857 -117.357 -95.7926 85.6142 
-117.757 -100.798 87.6421 -117.664 -103.674 88.0461 -117.464 -106.72 87.9737 
[...]
CELL_DATA 2000
SCALARS Distance double
LOOKUP_TABLE default
150.646 151.441 151.268 151.833 152.427 152.172 152.758 152.592 153.289 
153.557 153.264 153.864 153.612 154.317 154.16 154.962 154.745 154.457 
155.095 154.794 155.487 155.262 156.102 155.959 156.887 156.005 155.697 
156.387 156.072 156.792 156.508 157.373 157.192 158.204 158.042 159.053 
157.36 157.025 157.756 157.426 158.211 157.892 158.792 158.557 159.604 
159.432 160.503 160.286 161.286 158.695 158.397 159.163 158.857 159.706 
159.391 160.329 160.049 161.084 160.874 161.96 161.761 162.818 162.559 
163.567 159.929 159.69 160.478 160.249 161.138 160.901 161.863 161.605 
162.609 162.368 163.43 163.232 164.341 164.126 165.215 164.915 165.934 
161.09 160.886 161.679 161.511 162.41 162.266 163.231 163.065 164.044 
163.846 164.866 164.692 165.805 165.652 166.791 166.569 167.623 167.287 
168.226 150.123 149.606 150.199 150.896 149.068 149.7 150.456 151.059 
151.859 148.657 149.215 150.047 150.655 151.483 152.084 152.945 148.596 
148.961 149.791 150.318 151.179 151.736 152.582 153.19 154.089 148.757 
149.022 149.763 150.167 151.017 151.502 152.367 152.891 153.8 154.391 
155.354 148.916 149.175 149.864 150.187 150.981 151.406 152.297 152.773 
153.712 154.216 155.196 155.744 156.729 149.154 149.352 150.053 150.306 
151.066 151.417 152.294 152.749 153.696 154.184 155.135 155.644 156.598 
157.135 158.064 149.511 149.642 150.305 150.518 151.253 151.548 152.389 
152.784 153.699 154.156 155.064 155.555 156.459 156.992 157.903 158.437 
159.308 149.851 149.963 150.531 150.741 151.433 151.733 152.554 152.916 
153.801 154.189 155.067 155.484 156.367 156.851 157.772 158.29 159.193 
159.676 160.501 150.182 150.996 150.634 150.871 152.292 151.669 151.922 
151.486 151.838 154.001 153.227 153.478 152.796 153.158 152.636 153.053 
155.662 154.981 155.238 154.509 154.815 154.147 154.524 153.951 154.338 
157.123 156.544 156.819 156.195 156.47 155.819 156.127 155.501 155.833 
155.243 155.583 158.547 157.995 158.321 157.724 158.047 157.416 157.748 
157.11 157.467 156.817 157.17 156.527 156.894 159.909 159.436 159.849 
159.286 159.695 159.051 159.451 158.778 159.203 158.529 158.957 158.248 
158.643 157.932 158.327 161.215 160.797 161.303 160.829 161.323 160.752 
161.199 160.542 160.96 160.293 160.715 160.053 160.451 159.75 160.103 
159.391 159.738 162.602 162.16 162.72 162.28 162.832 162.348 162.84 
162.262 162.66 162.015 162.363 161.73 162.073 161.456 161.774 161.123 
161.408 160.735 161.015 161.925 162.342 162.58 163.54 162.706 162.99 
163.98 164.293 165.389 163.022 163.337 164.363 164.723 165.867 166.221 
167.399 163.365 163.682 164.758 165.124 166.323 166.707 167.958 168.295 
169.568 163.696 164.054 165.15 165.538 166.752 167.172 168.48 168.883 
170.277 170.625 172.076 163.874 164.332 165.412 165.873 167.047 167.539 
168.845 169.367 170.833 171.341 172.906 173.292 174.781 163.856 164.406 
165.475 166.023 167.165 167.727 169.014 169.64 171.13 171.801 173.408 
174.005 175.527 175.916 177.219 163.735 164.32 165.374 165.98 167.09 
167.727 168.998 169.723 171.235 172.017 173.641 174.362 175.883 176.451 
177.764 178.143 179.272 163.614 164.188 165.214 165.816 166.85 167.519 
168.705 169.548 171.046 172.008 173.664 174.515 176.039 176.686 177.996 
178.505 179.661 180.049 181.074 161.973 163.641 162.728 162.639 165.558 
164.562 164.52 163.51 163.449 167.609 166.6 166.616 165.532 165.477 
164.404 164.33 169.812 168.749 168.843 167.719 167.69 166.53 166.443 
165.315 165.195 172.353 171.146 171.335 170.095 170.163 168.881 168.848 
167.568 167.486 166.241 166.11 175.067 173.856 174.1 172.787 172.951 
171.567 171.637 170.199 170.188 168.755 168.683 167.284 167.153 177.531 
176.514 176.794 175.59 175.793 174.466 174.589 173.143 173.138 171.621 
171.516 170.012 169.85 168.39 168.181 179.656 178.838 179.204 178.175 
178.42 177.24 177.382 176.056 176.019 174.546 174.326 172.813 172.52 
171.06 170.75 169.331 168.994 181.504 180.863 181.302 180.459 180.733 
179.722 179.852 178.691 178.638 177.291 177.019 175.527 175.132 173.638 
173.236 171.808 171.402 170.007 169.574 182.577 183.915 183.049 182.415 
184.733 184.147 183.572 182.706 181.867 185.162 184.709 184.14 183.59 
182.836 181.98 180.976 185.414 185.036 184.412 183.97 183.283 182.7 
181.786 180.918 179.741 185.216 185.16 184.604 184.234 183.543 183.035 
182.2 181.535 180.412 179.487 178.113 184.421 184.734 184.385 184.312 
183.625 183.227 182.349 181.832 180.787 180.033 178.676 177.68 176.192 
183.423 183.849 183.623 183.846 183.198 183.051 182.071 181.768 180.732 
180.268 179.018 178.179 176.661 175.669 174.207 182.432 182.848 182.563 
182.912 182.285 182.347 181.351 181.221 180.174 179.987 178.875 178.369 
176.929 176.059 174.487 173.627 172.25 181.303 181.745 181.323 181.725 
181.084 181.295 180.378 180.371 179.362 179.294 178.268 178.034 176.731 
176.13 174.538 173.765 172.239 171.584 170.304 182.82 183.424 183.555 
184.179 183.655 184.021 184.732 184.758 185.081 183.472 184.08 184.965 
185.249 185.781 185.585 185.692 182.926 183.718 184.74 185.379 186.217 
186.334 186.631 186.184 186.033 182.047 182.982 183.919 184.888 185.849 
186.541 187.011 186.984 186.712 186.209 185.646 180.718 181.852 182.582 
183.716 184.494 185.66 186.182 186.842 186.585 186.482 185.656 185.324 
184.58 178.859 180.23 180.87 182.088 182.638 183.91 184.372 185.478 
185.437 185.884 185.193 185.068 184.231 184.076 183.491 176.648 178.156 
178.816 180.157 180.636 181.898 182.29 183.492 183.64 184.479 184.148 
184.415 183.76 183.701 183.093 183.038 182.556 174.407 175.878 176.526 
177.955 178.43 179.769 180.126 181.384 181.59 182.644 182.542 183.207 
182.772 183.058 182.481 182.575 182.018 182.052 181.488 163.906 164.953 
164.787 165.522 166.031 165.863 166.558 166.382 167.108 167.045 166.929 
167.64 167.437 168.218 168.065 168.994 167.998 167.963 168.858 168.651 
169.631 169.4 170.607 170.352 171.563 168.95 168.999 170.191 170.085 
171.398 171.151 172.641 172.326 173.8 173.289 174.429 169.987 170.094 
171.571 171.62 173.268 173.152 174.83 174.565 176.107 175.656 176.822 
176.105 176.864 171.151 171.305 173.016 173.177 175.05 175.091 176.843 
176.696 178.158 177.834 178.93 178.369 179.085 178.297 178.782 172.345 
172.586 174.418 174.696 176.624 176.817 178.526 178.508 179.832 179.627 
180.628 180.254 180.99 180.381 180.889 180.078 180.448 173.388 173.752 
175.54 175.967 177.776 178.156 179.726 179.902 181.09 181.035 181.939 
181.735 182.477 182.105 182.675 182.068 182.451 181.642 181.88 163.023 
161.941 162.988 164.036 160.832 161.854 162.912 164.047 165.132 159.844 
160.748 161.701 162.844 163.957 165.11 166.125 158.938 159.773 160.596 
161.619 162.629 163.824 164.886 166.035 166.989 157.972 158.816 159.556 
160.501 161.381 162.486 163.527 164.733 165.788 166.895 167.854 157.034 
157.823 158.519 159.409 160.204 161.232 162.222 163.413 164.544 165.713 
166.755 167.79 168.78 156.308 156.974 157.652 158.409 159.145 160.05 
160.964 162.108 163.239 164.484 165.59 166.693 167.661 168.713 169.768 
155.737 156.342 157.01 157.653 158.338 159.073 159.878 160.864 161.909 
163.14 164.262 165.467 166.45 167.54 168.505 169.679 170.824 155.156 
155.771 156.408 157.041 157.677 158.331 159.022 159.835 160.737 161.826 
162.906 164.111 165.141 166.275 167.226 168.366 169.409 170.692 171.851 
154.993 155.123 155.463 156.263 155.289 155.614 156.464 156.773 157.553 
155.604 155.849 156.721 157.01 157.873 158.108 158.924 156.108 156.266 
157.168 157.377 158.325 158.531 159.501 159.658 160.659 156.777 156.864 
157.801 157.947 158.967 159.135 160.241 160.4 161.561 161.663 162.821 
157.573 157.605 158.549 158.658 159.721 159.884 161.073 161.261 162.531 
162.672 163.898 163.944 165.059 158.412 158.442 159.403 159.478 160.594 
160.728 161.984 162.166 163.508 163.685 164.987 165.059 166.219 166.172 
167.206 159.208 159.289 160.324 160.409 161.606 161.715 163.042 163.176 
164.557 164.706 166.062 166.167 167.425 167.405 168.548 168.395 169.459 
159.945 160.091 161.21 161.362 162.616 162.775 164.125 164.282 165.648 
165.789 167.124 167.248 168.548 168.62 169.871 169.818 171.001 170.793 
171.903 160.704 162.518 161.758 162.119 164.577 163.745 164.17 163.303 
163.649 166.818 165.92 166.387 165.469 165.878 164.925 165.241 169.38 
168.365 168.938 167.859 168.331 167.268 167.648 166.575 166.824 172.233 
171.183 171.957 170.727 171.314 169.998 170.424 169.137 169.417 168.178 
168.337 175.039 174.118 175.017 173.903 174.621 173.261 173.732 172.212 
172.477 170.969 171.116 169.723 169.81 177.499 176.789 177.671 176.818 
177.586 176.501 177.045 175.635 175.899 174.261 174.354 172.716 172.757 
171.243 171.232 179.421 178.97 179.787 179.197 179.936 179.178 179.764 
178.716 179.029 177.621 177.675 176.046 175.991 174.34 174.242 172.648 
172.469 180.732 180.536 181.257 180.959 181.626 181.193 181.763 181.093 
181.437 180.421 180.472 179.134 178.993 177.481 177.273 175.687 175.413 
173.789 173.43 160.178 159.882 160.622 161.907 159.581 160.333 161.66 
162.495 163.938 159.212 160.012 161.362 162.258 163.787 164.632 166.169 
158.727 159.586 160.986 161.962 163.571 164.5 166.13 166.955 168.619 
158.293 159.104 160.559 161.582 163.285 164.297 165.994 166.898 168.615 
169.512 171.322 158.087 158.777 160.209 161.181 162.913 163.994 165.74 
166.728 168.462 169.446 171.302 172.282 174.112 157.997 158.639 159.964 
160.845 162.47 163.567 165.307 166.4 168.143 169.218 171.074 172.175 
174.051 175.009 176.646 157.845 158.505 159.719 160.536 161.991 163.044 
164.712 165.878 167.627 168.799 170.62 171.821 173.664 174.795 176.438 
177.332 178.636 157.649 158.299 159.449 160.21 161.537 162.501 164.07 
165.228 166.966 168.198 169.991 171.241 173.009 174.233 175.838 176.914 
178.222 179.05 180.032 159.135 157.605 158.499 158.803 156.097 156.969 
157.229 158.169 158.497 154.557 155.417 155.635 156.576 156.864 157.845 
158.13 153.117 153.881 153.995 154.889 155.099 156.134 156.387 157.401 
157.625 151.804 152.492 152.498 153.236 153.281 154.251 154.474 155.576 
155.839 156.874 157.166 150.463 151.149 151.128 151.789 151.722 152.475 
152.583 153.613 153.939 155.065 155.443 156.51 156.948 149.169 149.777 
149.774 150.439 150.423 151.045 151.056 151.84 152.082 153.153 153.583 
154.748 155.222 156.355 156.852 148.151 148.586 148.604 149.183 149.276 
149.85 149.882 150.465 150.564 151.397 151.73 152.845 153.324 154.535 
155.037 156.222 156.707 147.435 147.73 147.768 148.206 148.358 148.848 
148.928 149.387 149.401 149.996 150.182 151.084 151.507 152.631 153.153 
154.347 154.871 156.047 156.535 147.098 146.799 147.089 147.463 146.634 
146.881 147.292 147.584 148.041 146.591 146.768 147.122 147.399 147.766 
148.116 148.512 146.636 146.725 146.928 147.149 147.367 147.708 148.002 
148.457 148.888 146.764 146.752 146.859 146.946 147.103 147.303 147.604 
147.963 148.488 148.957 149.657 147.119 146.962 147.13 147.039 147.311 
147.289 147.727 147.843 148.524 148.809 149.672 150.051 150.999 147.821 
147.523 147.816 147.581 148.022 147.844 148.426 148.332 149.084 149.16 
150.076 150.303 151.296 151.614 152.643 148.758 148.406 148.765 148.474 
148.986 148.769 149.397 149.231 149.948 149.895 150.746 150.852 151.817 
152.034 153.052 153.344 154.377 149.747 149.409 149.785 149.494 149.992 
149.775 150.372 150.211 150.882 150.785 151.572 151.587 152.515 152.639 
153.647 153.843 154.865 155.108 156.091 150.419 151.614 150.822 150.526 
153.073 152.157 151.852 151.014 150.77 154.752 153.734 153.419 152.453 
152.179 151.335 151.154 156.688 155.551 155.271 154.158 153.894 152.882 
152.704 151.82 151.71 158.853 157.643 157.428 156.193 155.996 154.809 
154.69 153.597 153.534 152.531 152.49 161.098 159.898 159.761 158.5 
158.364 157.094 157.008 155.79 155.759 154.596 154.578 153.475 153.484 
163.4 162.204 162.16 160.917 160.857 159.565 159.483 158.195 158.131 
156.912 156.883 155.711 155.701 154.577 154.615 165.764 164.578 164.597 
163.375 163.397 162.123 162.097 160.749 160.665 159.334 159.271 158.039 
158.019 156.852 156.855 155.742 155.796 168.067 166.959 167.008 165.832 
165.888 164.675 164.717 163.412 163.374 161.974 161.887 160.515 160.455 
159.191 159.159 157.99 157.982 156.902 156.953 157.91 158.983 158.86 
159.749 160.249 160.08 161.074 160.867 161.894 161.687 161.512 162.681 
162.411 163.586 163.276 164.489 163.24 163.1 164.455 164.21 165.563 
165.209 166.559 166.149 167.468 164.765 164.719 166.196 166.073 167.59 
167.325 168.819 168.407 169.821 169.293 170.583 166.106 166.193 167.752 
167.802 169.469 169.381 171.026 170.729 172.227 171.731 173.044 172.424 
173.601 167.279 167.456 169.09 169.299 171.097 171.217 172.977 172.874 
174.411 174.061 175.34 174.819 175.927 175.328 176.342 168.377 168.592 
170.254 170.576 172.428 172.74 174.514 174.631 176.102 175.984 177.174 
176.879 177.895 177.464 178.37 177.847 178.651 169.366 169.627 171.218 
171.631 173.425 173.9 175.613 175.916 177.266 177.335 178.404 178.361 
179.325 179.154 179.997 179.644 180.33 179.86 180.412 149.414 148.946 
148.963 148.522 148.488 148.412 147.85 147.944 147.524 148.269 148.038 
147.431 147.319 146.868 146.979 146.734 148.166 147.936 147.419 147.145 
146.717 146.552 146.351 146.422 146.417 147.966 147.8 147.386 147.234 
146.903 146.659 146.433 146.289 146.285 146.342 146.446 147.969 147.643 
147.233 147.142 146.921 146.834 146.607 146.45 146.303 146.281 146.311 
146.419 146.492 148.406 147.866 147.416 147.109 146.903 146.806 146.659 
146.547 146.332 146.245 146.128 146.216 146.248 146.416 146.497 149.009 
148.442 147.965 147.479 147.177 146.908 146.771 146.618 146.479 146.305 
146.165 146.075 146.073 146.158 146.278 146.449 146.624 149.57 149.05 
148.576 148.058 147.657 147.261 147.022 146.801 146.699 146.531 146.478 
146.287 146.311 146.187 146.333 146.34 146.559 146.672 146.921 149.505 
148.713 149.244 149.479 147.808 148.419 148.739 149.268 149.619 147.026 
147.555 147.952 148.525 148.964 149.529 150.065 146.633 146.93 147.327 
147.82 148.345 148.916 149.52 150.104 150.726 146.577 146.688 147.009 
147.35 147.906 148.409 149.049 149.59 150.188 150.74 151.278 146.6 
146.657 146.876 147.116 147.633 148.082 148.732 149.198 149.741 150.192 
150.662 151.197 151.701 146.661 146.687 146.881 147.012 147.456 147.837 
148.479 148.926 149.455 149.806 150.212 150.618 151.113 151.661 152.266 
146.859 146.848 147.131 147.137 147.565 147.753 148.367 148.713 149.285 
149.581 149.997 150.278 150.745 151.174 151.808 152.351 153.04 147.17 
147.156 147.54 147.525 148.003 148.037 148.627 148.77 149.374 149.544 
150.035 150.193 150.663 150.935 151.535 151.979 152.681 153.198 153.886 
149.967 149.964 150.192 150.768 150.16 150.295 150.943 151.189 152.04 
150.643 150.648 151.331 151.492 152.39 152.692 153.717 151.301 151.257 
151.911 151.98 152.841 153.09 154.091 154.415 155.38 151.871 151.908 
152.549 152.596 153.395 153.571 154.529 154.799 155.754 156.01 156.872 
152.335 152.424 153.104 153.194 153.972 154.126 155.043 155.269 156.214 
156.428 157.291 157.478 158.281 152.902 152.931 153.628 153.713 154.471 
154.64 155.496 155.744 156.627 156.87 157.674 157.88 158.618 158.832 
159.572 153.648 153.596 154.268 154.272 154.981 155.094 155.886 156.117 
156.942 157.203 157.955 158.182 158.867 159.098 159.805 160.065 160.822 
154.472 154.393 155.043 154.971 155.63 155.636 156.374 156.509 157.319 
157.52 158.294 158.468 159.182 159.354 160.1 160.321 161.14 161.381 
162.217 159.015 158.338 158.291 157.518 157.587 157.593 156.813 156.784 
156.001 156.732 156.775 155.958 155.989 155.155 155.196 154.432 155.917 
155.904 155.066 155.078 154.223 154.27 153.498 153.621 152.982 155.275 
155.17 154.391 154.3 153.524 153.434 152.699 152.716 152.109 152.252 
151.699 154.789 154.618 153.899 153.777 153.125 152.963 152.318 152.143 
151.551 151.5 150.966 151.022 150.441 154.453 154.199 153.447 153.319 
152.686 152.615 152.027 151.894 151.304 151.137 150.574 150.454 149.888 
149.819 149.233 154.28 153.936 153.124 152.889 152.184 152.109 151.51 
151.499 150.918 150.857 150.26 150.145 149.554 149.418 148.846 148.731 
148.231 154.194 153.821 152.995 152.642 151.883 151.66 151.04 150.964 
150.43 150.393 149.83 149.757 149.158 149.07 148.506 148.418 147.929 
147.858 147.482 
POINT_DATA 1002
SCALARS Distance double
LOOKUP_TABLE default
151.116 150.067 150.758 151.931 151.636 152.454 152.952 152.696 153.395 
154.023 154.149 153.829 154.494 155.066 155.798 155.398 155.01 155.742 
156.228 157.014 157.85 156.686 156.322 157.08 157.557 158.338 159.263 
160.049 158.071 157.69 158.515 159.042 159.78 160.698 161.55 162.262 
159.433 158.965 159.987 160.62 161.327 162.147 163.039 163.867 164.573 
160.674 160.151 161.331 162.1 162.872 163.633 164.513 165.474 166.306 
166.925 161.834 161.287 162.532 163.37 164.226 165.036 165.934 166.971 
167.932 168.633 169.122 149.545 150.295 148.98 149.827 148.4 151.248 
149.423 148.152 150.893 152.312 149.313 148.33 150.642 152.007 153.432 
149.429 148.52 150.552 151.862 153.237 154.734 149.582 148.653 150.586 
151.81 153.224 154.678 156.18 149.826 148.989 150.756 151.861 153.217 
154.652 156.078 157.539 150.117 149.431 150.977 152.032 153.28 154.603 
155.939 157.362 158.811 150.345 149.78 151.134 152.195 153.44 154.689 
155.912 157.254 158.702 160.068 150.424 151.137 151.43 152.443 153.006 
152.191 154.238 154.763 153.759 153.53 155.947 156.281 155.535 155.157 
154.89 157.406 157.686 157.107 156.771 156.459 156.153 158.896 159.063 
158.664 158.373 158.103 157.842 157.519 160.353 160.318 160.304 160.122 
159.864 159.646 159.387 159.027 161.726 161.608 161.835 161.835 161.646 
161.373 161.131 160.838 160.448 163.153 163.051 163.286 163.381 163.308 
163.029 162.69 162.401 162.086 161.691 162.8 163.253 164.572 163.635 
165.057 166.542 163.98 165.48 167.069 168.59 164.381 165.919 167.578 
169.232 170.889 164.756 166.32 168.025 169.844 171.76 173.584 164.937 
166.551 168.278 170.237 172.424 174.539 176.226 164.906 166.589 168.361 
170.412 172.748 175.059 176.989 178.448 164.772 166.451 168.238 170.404 
172.898 175.285 177.312 178.997 180.378 164.643 166.232 167.874 170.012 
172.732 175.371 177.47 179.214 180.779 182.071 163.553 165.562 164.449 
167.7 166.59 165.395 169.962 168.873 167.611 166.326 172.593 171.457 
170.165 168.772 167.365 175.397 174.316 173.085 171.666 170.132 168.558 
177.927 177.063 176.004 174.684 173.069 171.351 169.645 180.149 179.544 
178.662 177.488 175.89 174.023 172.189 170.42 182.072 181.696 180.971 
179.933 178.502 176.671 174.705 172.818 170.97 183.598 183.488 184.67 
184.294 185.244 182.945 184.597 185.654 183.539 182.034 184.866 185.73 
183.781 182.538 180.797 184.889 185.034 184.064 182.795 181.28 179.171 
184.284 183.949 183.989 182.832 181.432 179.661 177.205 183.319 183.007 
183.271 182.341 181.051 179.722 177.681 175.102 182.224 182.072 182.153 
181.439 180.281 179.198 177.712 175.4 172.964 180.947 180.898 180.807 
180.301 179.402 178.411 177.2 175.285 172.935 170.822 182.799 184.279 
183.206 184.592 183.181 185.336 184.484 182.767 185.833 186.184 183.919 
182.11 185.833 186.996 186.721 182.931 181.118 184.923 186.801 187.241 
186.18 181.522 179.528 183.309 185.263 186.487 186.029 184.761 179.652 
177.406 181.447 183.172 184.691 185.138 184.414 183.521 177.421 175.125 
179.385 181.089 182.624 183.616 183.698 183.172 182.592 175.094 173.008 
177.068 178.848 180.456 181.705 182.316 182.311 181.97 181.499 164.027 
165.696 165.139 166.759 166.199 167.224 167.831 167.107 168.335 169.103 
168.956 167.936 169.797 170.774 171.953 170.114 168.809 171.515 172.898 
174.264 175.193 171.367 169.795 173.244 175.058 176.546 177.522 177.76 
172.762 170.906 174.932 176.986 178.496 179.443 179.833 179.668 174.099 
172.04 176.405 178.547 180.058 180.955 181.498 181.65 181.358 161.996 
162.945 160.886 161.735 159.881 164.061 160.632 159.022 162.742 165.072 
159.67 158.125 161.49 163.661 165.929 158.656 157.138 160.347 162.312 
164.614 166.823 157.678 156.292 159.228 161.04 163.318 165.705 167.742 
156.958 155.679 158.327 159.886 161.969 164.433 166.637 168.608 156.395 
155.139 157.68 159.013 160.74 163.02 165.336 167.381 169.53 155.779 