# vtk DataFile Version 4.0
vtk output
ASCII
DATASET POLYDATA
POINTS 1002 float
-103.951 -81.1287 75.8693 -103.826 -80.3395 74.7227 -104.578 -80.474 75.4005 
-104.694 -81.2753 76.6082 -105.358 -80.6816 76.2178 -104.019 -81.9179 77.1665 
-105.349 -81.4531 77.5944 -105.83 -80.6857 77.4081 -104.672 -82.0787 78.0639 
-104.245 -82.9061 78.4906 -105.797 -81.4744 78.9557 -106.243 -80.6821 78.725 
-105.266 -82.2784 79.2788 -104.847 -83.1565 79.5969 -104.777 -84.2298 79.8254 
-106.414 -81.6205 80.2232 -107.049 -81.0124 79.674 -105.904 -82.4436 80.6658 
-105.475 -83.4655 80.9725 -105.276 -84.5079 81.1767 -105.266 -85.606 81.4077 
-107.364 -82.0652 81.1089 -108.057 -81.4734 80.4404 -106.785 -82.7988 81.7257 
-106.33 -83.8341 82.1708 -105.907 -84.862 82.5559 -105.674 -85.8665 82.857 
-105.646 -87.0187 83.1102 -108.318 -82.5308 82.0176 -108.865 -81.8395 81.4353 
-107.782 -83.3153 82.5548 -107.368 -84.3574 82.9569 -106.93 -85.3895 83.446 
-106.502 -86.3446 83.9531 -106.324 -87.4979 84.2528 -106.378 -88.7744 84.4357 
-109.122 -82.957 83.036 -109.541 -82.2431 82.4692 -108.721 -83.8151 83.48 
-108.379 -84.9383 83.7299 -108.046 -86.0883 84.0752 -107.709 -87.1255 84.5965 
-107.453 -88.2615 85.0167 -107.362 -89.5112 85.2573 -107.363 -90.6348 85.4632 
-109.907 -83.4807 83.8402 -110.268 -82.7163 83.2867 -109.6 -84.3856 84.2915 
-109.316 -85.544 84.5672 -108.99 -86.8085 84.8597 -108.728 -88.0171 85.2928 
-108.548 -89.2147 85.7287 -108.368 -90.3773 86.0837 -108.23 -91.4033 86.3781 
-108.147 -92.2698 86.6279 -110.7 -84.0709 84.4163 -110.986 -83.1686 83.9687 
-110.425 -85.0749 84.831 -110.157 -86.2386 85.1977 -109.815 -87.5108 85.6142 
-109.499 -88.8042 86.1119 -109.319 -90.0914 86.5814 -109.131 -91.2525 87.0115 
-108.897 -92.2066 87.426 -108.763 -93.0598 87.7458 -108.745 -93.8867 87.937 
-104.121 -79.5939 74.102 -104.972 -79.7826 74.8771 -104.664 -79.0068 73.5121 
-105.49 -79.0796 74.4287 -105.511 -78.5712 72.9058 -105.688 -79.8356 75.9018 
-106.221 -78.4249 73.9004 -106.366 -77.9672 72.3524 -106.089 -78.8721 75.6274 
-106.117 -79.6973 77.2377 -106.962 -77.6752 73.4046 -107.032 -77.0375 71.9683 
-106.752 -78.094 75.1577 -106.612 -78.7153 76.9786 -106.754 -79.839 78.412 
-107.624 -76.7741 73.1324 -107.806 -76.3001 71.6337 -107.51 -77.4165 74.6797 
-107.397 -78.043 76.4728 -107.457 -78.9818 78.0506 -107.768 -80.2838 79.2059 
-108.4 -76.0581 72.8784 -108.804 -76.0504 71.2065 -108.227 -76.5845 74.393 
-108.257 -77.4496 75.906 -108.244 -78.2761 77.5805 -108.374 -79.3232 78.9622 
-108.675 -80.6553 80.1003 -109.266 -75.6231 72.409 -109.757 -75.71 70.7562 
-108.941 -75.8472 74.106 -109.051 -76.6764 75.4961 -109.124 -77.6539 77.002 
-108.98 -78.4996 78.6882 -109.078 -79.6568 80.0289 -109.36 -81.0523 81.1953 
-110.109 -75.1848 71.8401 -110.556 -74.9557 70.3878 -109.694 -75.4787 73.6765 
-109.733 -76.0466 75.2826 -109.985 -76.971 76.6229 -109.85 -77.9148 78.2228 
-109.635 -78.9217 79.8205 -109.799 -80.2365 81.0417 -110.082 -81.5779 82.1651 
-110.928 -74.7402 71.4079 -111.241 -74.2562 70.1598 -110.561 -75.3299 73.2188 
-110.433 -75.791 75.1229 -110.634 -76.3705 76.6109 -110.702 -77.2902 77.9533 
-110.467 -78.3959 79.4287 -110.392 -79.6103 80.7579 -110.605 -80.8745 81.895 
-110.83 -82.0489 82.9957 -111.754 -74.3436 70.7937 -111.6 -75.062 72.4125 
-112.431 -74.9806 71.884 -112.489 -75.4866 73.8279 -113.197 -75.5591 73.277 
-111.393 -75.643 74.531 -113.231 -75.7773 75.2241 -113.733 -76.1663 74.5942 
-112.28 -75.7625 75.9752 -111.292 -75.9544 76.498 -113.589 -76.6544 76.3483 
-113.988 -77.2999 75.8054 -112.89 -76.2164 77.1024 -112.005 -76.1705 77.7856 
-111.327 -76.6062 77.9706 -113.924 -78.0564 77.5154 -114.356 -78.5051 77.0677 
-113.409 -77.5472 78.0854 -112.678 -77.1641 78.788 -111.936 -77.2864 79.2052 
-111.258 -77.8476 79.2805 -114.527 -79.1413 78.8213 -114.953 -79.4498 78.2581 
-114.095 -78.8696 79.346 -113.555 -78.5804 79.9177 -112.783 -78.5167 80.3651 
-111.94 -78.8103 80.5188 -111.142 -79.239 80.5973 -115.128 -80.1854 80.0314 
-115.447 -80.5597 79.3216 -114.698 -79.9145 80.6918 -114.292 -79.7135 81.3025 
-113.684 -79.6827 81.7687 -112.755 -79.8481 81.9432 -111.872 -80.1299 81.9133 
-111.199 -80.4857 81.8806 -115.464 -81.5283 81.1856 -115.645 -81.8634 80.4246 
-115.036 -81.2529 81.9074 -114.627 -80.992 82.5913 -114.215 -80.8284 83.2036 
-113.433 -80.8336 83.5524 -112.475 -80.9516 83.556 -111.817 -81.213 83.3499 
-111.356 -81.6276 83.1252 -115.563 -82.8462 82.3788 -115.646 -83.1116 81.5932 
-115.22 -82.6754 83.0888 -114.816 -82.5028 83.7208 -114.499 -82.2505 84.3715 
-113.949 -82.0248 84.91 -113.034 -81.9517 85.0966 -112.269 -82.0757 84.9151 
-111.874 -82.4061 84.5397 -111.508 -82.8283 84.1817 -111.5 -84.3421 84.8892 
-111.96 -84.0804 85.2601 -111.974 -85.9879 85.7965 -112.258 -83.7302 85.7324 
-112.375 -85.9126 86.2358 -112.264 -87.9337 86.8878 -112.737 -83.419 86.1402 
-112.705 -85.6594 86.6911 -112.671 -88.0851 87.3152 -112.392 -89.969 88.341 
-113.626 -83.3175 86.2678 -113.319 -85.2964 87.0859 -113.12 -87.9731 87.6989 
-112.919 -90.373 88.7069 -112.601 -92.2623 89.9526 -114.434 -83.5267 85.9489 
-114.193 -85.1711 87.1866 -113.781 -87.6861 88.025 -113.525 -90.5135 88.9641 
-113.311 -92.8155 90.2055 -112.938 -94.8108 91.38 -114.815 -83.837 85.3498 
-114.818 -85.3992 86.8325 -114.491 -87.624 88.0076 -114.125 -90.4401 89.0792 
-114.005 -93.0788 90.3325 -113.73 -95.2573 91.5783 -113.238 -97.262 92.5263 
-115.094 -83.9718 84.7683 -115.115 -85.5869 86.3168 -115.005 -87.7722 87.6295 
-114.654 -90.4245 88.8512 -114.465 -93.1021 90.2361 -114.374 -95.5158 91.6589 
-113.997 -97.6822 92.7329 -113.531 -99.7402 93.3573 -115.409 -84.0344 84.1344 
-115.329 -85.6118 85.7878 -115.322 -87.831 87.187 -115.127 -90.4707 88.4466 
-114.801 -93.1108 89.8393 -114.651 -95.6839 91.3948 -114.535 -98.1517 92.7094 
-114.238 -100.425 93.4697 -113.931 -102.575 93.7826 -115.581 -84.2391 83.3093 
-115.485 -85.7405 85.0381 -115.484 -87.8586 86.6019 -115.466 -90.4646 88.0069 
-115.175 -93.1414 89.3847 -114.785 -95.82 90.8488 -114.653 -98.5548 92.2546 
-114.658 -101.12 93.239 -114.553 -103.411 93.6895 -114.367 -105.521 93.8131 
-111.265 -85.549 85.2343 -111.694 -87.386 86.2029 -110.963 -86.8109 85.6334 
-111.886 -89.3448 87.6032 -111.31 -88.7542 86.7735 -110.609 -88.1373 86.1589 
-112.043 -91.5932 89.3584 -111.589 -90.9371 88.3734 -111.033 -90.2637 87.4588 
-110.276 -89.5329 86.8071 -112.32 -94.3665 91.0572 -111.937 -93.7281 90.2125 
-111.577 -92.8705 89.0634 -110.916 -91.8879 88.1553 -110.06 -90.9626 87.4263 
-112.618 -97.1684 92.3941 -112.215 -96.8145 91.9223 -111.95 -95.9559 90.8929 
-111.537 -94.6718 89.7084 -110.743 -93.3645 88.8035 -109.839 -92.2555 87.9752 
-112.953 -99.7517 93.285 -112.505 -99.6248 93.1068 -112.093 -99.0139 92.5327 
-111.747 -97.7727 91.461 -111.284 -96.1667 90.321 -110.432 -94.609 89.4234 
-109.537 -93.3002 88.5139 -113.419 -102.604 93.7549 -112.991 -102.519 93.6618 
-112.454 -102.09 93.4447 -111.887 -101.126 92.8733 -111.576 -99.5976 91.8687 
-111.117 -97.7017 90.8081 -110.216 -95.8321 89.9237 -109.352 -94.2749 88.936 
-113.927 -105.751 93.8706 -113.535 -105.776 93.8069 -113.042 -105.454 93.6743 
-112.357 -104.705 93.4843 -111.891 -103.44 92.983 -111.698 -101.571 92.0469 
-111.158 -99.3251 91.0622 -110.222 -97.146 90.1864 -109.379 -95.311 89.1462 
-114.492 -108.629 93.6524 -114.08 -109.044 93.714 -114.545 -111.634 93.2766 
-114.115 -112.001 93.266 -114.607 -114.224 92.6162 -113.644 -108.975 93.5895 
-114.161 -114.227 92.416 -114.789 -116.643 91.6243 -113.607 -111.6 93.0181 
-113.034 -108.377 93.4346 -114.306 -116.046 91.2624 -114.894 -118.635 90.4315 
-113.667 -113.345 92.0463 -113.035 -110.653 92.855 -112.404 -107.297 93.3184 
-114.25 -117.158 90.1756 -114.625 -118.868 89.2655 -113.807 -114.629 90.9801 
-113.188 -112.054 91.9157 -112.567 -109.176 92.7744 -112.117 -105.549 92.8244 
-113.776 -116.783 89.3778 -114.009 -117.311 88.3797 -113.609 -115.222 90.2639 
-113.218 -112.923 91.0246 -112.624 -110.16 91.9015 -112.217 -106.912 92.3209 
-111.833 -103.124 91.8975 -113.129 -115.493 88.8911 -113.304 -115.499 88.0358 
-113.043 -114.72 89.8642 -112.843 -113.042 90.5443 -112.397 -110.535 91.1804 
-112.009 -107.512 91.7127 -111.712 -104.115 91.6098 -111.088 -100.449 90.9846 
-112.598 -113.977 88.7465 -112.73 -113.815 88.2177 -112.487 -113.448 89.561 
-112.296 -112.158 90.2524 -111.986 -110.144 90.7728 -111.694 -107.52 91.2534 
-111.445 -104.484 91.3297 -110.939 -101.161 90.8178 -110.124 -97.9108 90.031 
-112.211 -111.886 88.8187 -112.335 -111.576 88.5528 -112.081 -111.544 89.3317 
-111.854 -110.502 89.9188 -111.574 -108.915 90.4127 -111.37 -106.827 90.8181 
-111.171 -104.219 90.9481 -110.722 -101.261 90.5368 -109.984 -98.2976 89.737 
-109.245 -95.76 88.8363 -114.831 -106.967 93.5406 -114.904 -109.941 93.2064 
-115.086 -107.902 93.091 -115.13 -110.505 92.6262 -115.202 -108.089 92.6043 
-114.915 -112.722 92.6433 -115.303 -110.396 92.0575 -115.409 -107.67 92.0773 
-115.141 -113.068 91.8899 -115.048 -115.487 91.8227 -115.528 -109.878 91.4978 
-115.461 -106.79 91.4815 -115.33 -112.772 91.1939 -115.298 -115.905 90.9387 
-115.295 -118.367 90.7501 -115.392 -108.787 91.0488 -115.06 -105.245 90.8771 
-115.425 -111.883 90.7017 -115.332 -115.069 90.2377 -115.48 -118.454 89.892 
-115.323 -119.936 89.5187 -114.892 -106.68 90.6341 -114.733 -102.956 90.0362 
-115.126 -110.136 90.5419 -115.087 -113.143 90.0108 -115.228 -116.468 89.4529 
-115.409 -118.912 88.8717 -114.922 -118.836 88.3692 -114.693 -103.708 89.7417 
-114.838 -100.378 88.733 -114.767 -107.316 90.2496 -114.677 -110.446 90.1184 
-114.661 -113.408 89.5894 -115.002 -116.085 88.8772 -114.958 -117.09 88.1048 
-114.181 -116.481 87.7283 -114.771 -100.658 88.3214 -114.913 -98.0911 87.2641 
-114.737 -103.88 89.2512 -114.543 -107.101 89.784 -114.256 -109.986 89.7535 
-114.387 -112.627 89.2439 -114.614 -114.387 88.4891 -114.205 -114.803 87.8797 
-113.382 -114.473 87.8047 -114.623 -98.1732 86.8948 -114.625 -96.331 86.0092 
-114.694 -100.683 87.8259 -114.618 -103.572 88.7007 -114.261 -106.326 89.2637 
[...]
CELL_DATA 2000
SCALARS Distance double
LOOKUP_TABLE default
150.722 151.699 151.399 151.821 152.703 152.413 152.813 152.521 153.026 
153.661 153.402 153.869 153.569 154.097 153.844 154.551 154.762 154.435 
154.996 154.69 155.313 155.019 155.742 155.525 156.367 156.05 155.664 
156.266 155.926 156.63 156.323 157.077 156.79 157.588 157.381 158.248 
157.361 157.002 157.622 157.272 157.992 157.69 158.477 158.171 158.964 
158.669 159.528 159.315 160.269 158.612 158.305 158.966 158.642 159.371 
159.072 159.882 159.589 160.44 160.122 161.025 160.727 161.714 161.471 
162.48 159.808 159.546 160.244 159.971 160.73 160.454 161.28 161.007 
161.901 161.628 162.585 162.3 163.291 163.002 163.981 163.701 164.616 
160.936 160.722 161.432 161.216 161.987 161.774 162.6 162.381 163.268 
163.061 164.021 163.818 164.79 164.547 165.464 165.185 166.053 165.763 
166.604 150.197 149.84 150.388 151.213 149.712 150.12 150.894 151.439 
152.215 149.712 150.036 150.668 151.118 151.836 152.388 153.136 149.619 
149.978 150.546 150.911 151.561 152.035 152.821 153.37 154.223 149.52 
149.838 150.454 150.803 151.472 151.864 152.662 153.145 154.056 154.586 
155.51 149.679 149.826 150.419 150.729 151.446 151.839 152.637 153.068 
153.93 154.435 155.349 155.894 156.793 149.971 150.039 150.502 150.735 
151.419 151.82 152.641 153.065 153.875 154.31 155.15 155.684 156.585 
157.148 158.023 150.125 150.241 150.652 150.844 151.491 151.833 152.681 
153.087 153.935 154.298 155.103 155.521 156.403 156.934 157.856 158.383 
159.234 150.212 150.352 150.861 151.045 151.75 152.005 152.856 153.19 
154.067 154.405 155.224 155.559 156.397 156.824 157.731 158.232 159.111 
159.586 160.375 150.468 151.521 151.04 151.293 152.972 152.365 152.641 
152.051 152.325 154.363 153.827 154.071 153.492 153.713 153.135 153.413 
155.654 155.129 155.339 154.817 155.005 154.479 154.718 154.229 154.549 
157.085 156.48 156.753 156.136 156.402 155.792 156.088 155.539 155.886 
155.385 155.722 158.605 158.008 158.378 157.728 158.123 157.413 157.803 
157.088 157.474 156.821 157.192 156.593 156.933 160.088 159.552 159.968 
159.392 159.843 159.223 159.665 158.954 159.316 158.551 158.867 158.16 
158.498 157.87 158.24 161.502 161.035 161.481 160.95 161.393 160.862 
161.322 160.745 161.111 160.392 160.626 159.865 160.116 159.455 159.794 
159.208 159.578 162.793 162.417 162.897 162.428 162.864 162.361 162.819 
162.312 162.721 162.098 162.336 161.582 161.756 161.05 161.325 160.731 
161.076 160.51 160.832 161.703 161.999 162.305 163.232 162.264 162.593 
163.6 163.934 164.953 162.678 162.911 163.927 164.288 165.408 165.739 
166.82 163.265 163.433 164.409 164.671 165.811 166.188 167.411 167.712 
168.898 163.694 163.998 164.978 165.221 166.307 166.636 167.918 168.316 
169.654 169.935 171.205 163.808 164.273 165.301 165.701 166.769 167.133 
168.36 168.816 170.221 170.661 172.015 172.278 173.479 163.817 164.303 
165.336 165.869 166.976 167.476 168.658 169.178 170.526 171.112 172.527 
172.99 174.246 174.472 175.568 163.799 164.283 165.263 165.831 166.956 
167.57 168.785 169.375 170.652 171.283 172.667 173.324 174.69 175.148 
176.342 176.536 177.622 163.658 164.184 165.104 165.699 166.79 167.48 
168.732 169.424 170.706 171.344 172.642 173.335 174.715 175.412 176.741 
177.213 178.375 178.591 179.649 161.773 163.324 162.465 162.338 165.051 
164.123 164.011 163.085 162.949 166.917 165.934 165.846 164.851 164.733 
163.759 163.622 169.037 167.947 167.948 166.829 166.779 165.678 165.593 
164.512 164.377 171.419 170.287 170.452 169.203 169.28 167.975 167.961 
166.681 166.587 165.364 165.215 173.733 172.745 173.052 171.891 172.074 
170.712 170.71 169.264 169.127 167.731 167.532 166.238 166.016 175.827 
174.984 175.37 174.425 174.682 173.491 173.488 172.069 171.865 170.369 
170.069 168.628 168.304 166.986 166.676 177.91 177.082 177.547 176.676 
177.041 175.99 176.103 174.79 174.675 173.168 172.906 171.303 170.943 
169.385 169.006 167.616 167.27 179.998 179.228 179.765 178.91 179.366 
178.367 178.624 177.41 177.471 176.047 175.948 174.314 174.033 172.266 
171.862 170.16 169.748 168.249 167.872 181.267 183.069 181.88 181.148 
184.566 183.599 182.935 181.673 180.746 185.685 184.869 184.198 183.23 
182.312 181.089 179.966 186.516 185.776 184.937 184.176 183.293 182.397 
181.341 180.133 178.852 186.615 186.279 185.313 184.711 183.771 183.115 
182.169 181.292 180.084 178.853 177.372 185.526 185.83 185.02 184.837 
183.889 183.424 182.423 181.825 180.662 179.799 178.306 177.111 175.407 
183.874 184.453 183.952 184.216 183.439 183.294 182.236 181.83 180.605 
180.035 178.599 177.733 176.012 174.879 173.103 182.408 182.947 182.599 
183.025 182.386 182.536 181.531 181.375 180.14 179.774 178.398 177.792 
176.174 175.259 173.461 172.437 170.784 180.979 181.56 181.139 181.639 
180.963 181.284 180.313 180.409 179.236 179.123 177.804 177.444 175.893 
175.229 173.455 172.602 170.874 170.081 168.668 181.637 182.398 182.513 
183.333 182.599 183.005 183.854 184.068 184.772 182.369 182.965 183.827 
184.312 185.172 185.418 186.028 181.831 182.607 183.462 184.088 185.021 
185.621 186.56 186.72 187.119 180.762 181.876 182.752 183.562 184.366 
185.2 186.193 186.954 187.576 187.58 187.313 179.03 180.478 181.401 
182.561 183.203 184.199 184.896 186.057 186.657 187.416 187.142 187.035 
186.033 176.917 178.463 179.356 180.846 181.464 182.662 183.072 184.311 
184.718 185.902 185.763 186.244 185.301 185.196 184.111 174.764 176.198 
176.935 178.546 179.184 180.612 180.955 182.217 182.457 183.718 183.733 
184.594 184.004 184.231 183.313 183.297 182.521 172.765 173.994 174.53 
176.035 176.625 178.163 178.542 179.905 180.065 181.353 181.389 182.507 
182.222 182.859 182.203 182.431 181.698 181.803 181.109 163.798 164.587 
164.547 165.327 165.642 165.504 166.388 166.25 167.119 166.815 166.678 
167.638 167.485 168.502 168.272 169.197 167.888 167.855 168.916 168.836 
170.001 169.819 170.891 170.498 171.314 168.957 168.976 170.23 170.204 
171.563 171.44 172.683 172.314 173.235 172.627 173.318 170.131 170.186 
171.606 171.632 173.137 173.095 174.488 174.199 175.255 174.658 175.446 
174.712 175.417 171.166 171.369 172.78 172.963 174.44 174.589 176.019 
175.962 177.126 176.709 177.6 176.934 177.702 176.918 177.544 171.825 
172.211 173.55 173.918 175.327 175.667 177.101 177.304 178.569 178.448 
179.43 178.999 179.796 179.165 179.788 178.951 179.31 172.186 172.677 
174.023 174.512 175.97 176.418 177.932 178.274 179.657 179.748 180.808 
180.611 181.397 181.013 181.62 181.026 181.399 180.519 180.642 162.991 
161.958 162.845 163.691 161.017 161.82 162.671 163.655 164.688 160.201 
160.923 161.703 162.648 163.709 164.766 165.856 159.36 160.085 160.779 
161.675 162.668 163.757 164.858 165.901 166.892 158.487 159.204 159.853 
160.704 161.594 162.663 163.714 164.82 165.795 166.825 167.803 157.622 
158.332 158.939 159.742 160.537 161.539 162.51 163.617 164.567 165.64 
166.588 167.72 168.82 156.676 157.424 157.996 158.8 159.516 160.449 
161.329 162.389 163.309 164.382 165.303 166.436 167.484 168.735 169.845 
155.742 156.444 157.019 157.824 158.525 159.412 160.227 161.211 162.088 
163.127 164.028 165.131 166.115 167.336 168.379 169.637 170.573 155.073 
155.609 156.179 156.887 157.598 158.431 159.228 160.136 160.964 161.932 
162.789 163.846 164.773 165.94 166.908 168.127 169.02 170.207 170.97 
154.998 155.277 155.404 156.049 155.619 155.724 156.408 156.605 157.446 
156.115 156.143 156.872 157.03 157.927 158.146 159.095 156.734 156.743 
157.476 157.577 158.488 158.68 159.659 159.855 160.816 157.155 157.319 
158.078 158.225 159.126 159.287 160.26 160.44 161.439 161.618 162.622 
157.439 157.672 158.558 158.799 159.788 159.967 160.974 161.106 162.154 
162.306 163.411 163.548 164.641 158.001 158.118 159.137 159.344 160.469 
160.672 161.786 161.91 163.02 163.131 164.301 164.429 165.603 165.678 
166.778 158.818 158.878 159.917 160.059 161.2 161.403 162.57 162.751 
163.912 164.056 165.242 165.376 166.554 166.653 167.752 167.802 168.825 
159.575 159.692 160.679 160.843 161.919 162.134 163.278 163.512 164.696 
164.915 166.127 166.31 167.499 167.609 168.706 168.751 169.762 169.786 
170.744 160.252 161.767 161.119 161.428 163.665 162.841 163.187 162.421 
162.748 165.864 164.965 165.383 164.428 164.783 163.868 164.184 168.12 
167.268 167.813 166.826 167.237 166.149 166.46 165.41 165.688 170.521 
169.628 170.283 169.319 169.836 168.74 169.094 167.902 168.162 166.999 
167.219 173.245 172.269 173.053 171.959 172.583 171.424 171.887 170.654 
170.962 169.663 169.839 168.558 168.656 176.025 175.159 176.113 174.981 
175.703 174.397 174.93 173.579 173.966 172.582 172.77 171.326 171.32 
169.93 169.871 178.388 177.812 178.825 177.99 178.77 177.612 178.13 
176.752 177.094 175.659 175.847 174.342 174.29 172.712 172.508 171.057 
170.903 180.111 179.815 180.707 180.293 181.056 180.367 180.879 179.799 
180.024 178.698 178.774 177.36 177.286 175.722 175.439 173.804 173.483 
172.035 171.851 159.817 159.649 160.229 161.311 159.544 160.135 161.298 
161.894 163.174 159.331 160.034 161.24 161.912 163.22 163.885 165.274 
158.845 159.697 160.899 161.738 163.035 163.844 165.233 165.998 167.439 
158.249 159.119 160.319 161.246 162.56 163.509 164.964 165.878 167.417 
168.212 169.786 157.783 158.572 159.8 160.677 162.045 163 164.565 
165.579 167.267 168.191 169.877 170.677 172.387 157.451 158.184 159.437 
160.264 161.669 162.572 164.175 165.212 166.981 168.021 169.758 170.69 
172.395 173.293 175.015 157.191 157.891 159.147 159.961 161.361 162.242 
163.787 164.817 166.551 167.678 169.42 170.46 172.118 173.122 174.802 
175.799 177.384 157 157.655 158.893 159.685 161.049 161.912 163.354 
164.349 165.971 167.143 168.877 170.027 171.681 172.734 174.357 175.423 
177.008 177.973 179.275 158.895 157.465 158.329 158.67 156.161 156.916 
157.216 158.106 158.493 155.099 155.699 155.907 156.668 156.954 157.89 
158.237 154.06 154.647 154.729 155.389 155.532 156.337 156.54 157.505 
157.746 152.732 153.436 153.436 154.142 154.187 154.917 155 155.818 
155.964 156.927 157.155 151.286 151.961 151.95 152.722 152.788 153.546 
153.62 154.343 154.441 155.243 155.442 156.392 156.697 150.214 150.632 
150.62 151.262 151.396 152.15 152.281 152.992 153.078 153.803 153.965 
154.801 155.076 156.022 156.375 149.659 149.831 149.783 150.153 150.272 
150.872 151.027 151.682 151.744 152.429 152.536 153.347 153.592 154.484 
154.799 155.744 156.12 149.306 149.424 149.333 149.521 149.545 149.926 
150.029 150.53 150.574 151.132 151.199 151.918 152.158 153.02 153.356 
154.242 154.6 155.532 155.948 149.012 148.473 148.874 149.077 147.917 
148.336 148.653 148.993 149.274 147.569 147.851 148.17 148.554 148.879 
149.259 149.634 147.499 147.574 147.716 148.031 148.308 148.773 149.142 
149.623 150.062 147.645 147.562 147.523 147.601 147.786 148.179 148.642 
149.14 149.68 150.12 150.699 147.913 147.799 147.825 147.631 147.795 
147.873 148.454 148.83 149.602 149.953 150.673 150.978 151.717 148.275 
148.195 148.478 148.222 148.495 148.263 148.822 148.935 149.796 150.087 
150.923 151.159 151.916 152.17 152.946 148.857 148.724 149.199 149.034 
149.468 149.186 149.663 149.531 150.251 150.403 151.247 151.478 152.26 
152.463 153.217 153.446 154.213 149.727 149.47 149.954 149.816 150.331 
150.148 150.621 150.417 151.004 150.969 151.764 151.891 152.745 152.884 
153.691 153.82 154.611 154.774 155.576 150.434 151.532 150.821 150.599 
152.771 151.977 151.752 151.085 150.955 154.354 153.393 153.193 152.346 
152.203 151.479 151.327 156.218 155.18 155.018 153.992 153.862 152.919 
152.8 151.932 151.813 158.131 157.115 156.98 155.922 155.783 154.749 
154.667 153.661 153.602 152.622 152.608 160.177 159.105 159.018 157.91 
157.744 156.675 156.565 155.592 155.57 154.587 154.564 153.566 153.577 
162.377 161.275 161.262 160.077 159.962 158.737 158.6 157.497 157.459 
156.506 156.507 155.549 155.499 154.526 154.5 164.494 163.477 163.493 
162.38 162.354 161.121 161.058 159.761 159.713 158.513 158.524 157.47 
157.471 156.458 156.408 155.424 155.405 166.51 165.547 165.591 164.554 
164.568 163.48 163.514 162.323 162.336 161.021 161.001 159.703 159.706 
158.528 158.533 157.426 157.405 156.368 156.375 157.287 158.414 158.289 
159.24 159.623 159.526 160.572 160.412 161.429 160.913 160.824 161.975 
161.82 162.921 162.691 163.753 162.334 162.242 163.51 163.331 164.555 
164.3 165.522 165.205 166.428 163.668 163.686 165.035 164.951 166.323 
166.106 167.531 167.201 168.62 168.163 169.44 164.753 164.895 166.306 
166.428 167.989 167.968 169.611 169.39 170.974 170.533 171.891 171.254 
172.346 165.785 165.937 167.47 167.698 169.504 169.673 171.546 171.505 
173.205 172.895 174.306 173.742 174.879 174.119 175.078 166.85 167.03 
168.691 168.979 170.957 171.255 173.264 173.386 175.121 174.981 176.387 
176.021 177.197 176.617 177.622 176.841 177.706 167.779 168.076 169.757 
170.193 172.162 172.639 174.595 174.923 176.58 176.656 177.993 177.864 
179.011 178.709 179.69 179.182 179.956 179.261 179.863 149.892 149.84 
149.746 149.51 149.62 149.606 149.231 149.229 148.862 149.17 149.179 
148.678 148.744 148.255 148.376 148.047 148.91 148.707 148.143 148.105 
147.678 147.763 147.55 147.713 147.725 149.026 148.634 148.07 147.782 
147.451 147.385 147.352 147.432 147.572 147.701 147.875 149.122 148.795 
148.248 147.916 147.575 147.399 147.354 147.373 147.463 147.582 147.668 
147.832 147.899 149.042 148.777 148.245 148.044 147.714 147.577 147.448 
147.401 147.341 147.384 147.325 147.491 147.526 147.771 147.921 149.12 
148.731 148.233 148.013 147.775 147.677 147.603 147.511 147.436 147.313 
147.215 147.185 147.233 147.409 147.685 147.95 148.309 149.541 149.012 
148.585 148.195 148.018 147.817 147.793 147.677 147.642 147.493 147.432 
147.277 147.338 147.325 147.623 147.806 148.238 148.474 148.847 149.896 
149.545 149.786 150 149.029 149.43 149.699 150.028 150.426 148.318 
148.813 149.188 149.672 150.092 150.517 151.006 147.955 148.214 148.593 
149.071 149.535 150.071 150.582 151.093 151.669 148.016 148.073 148.326 
148.587 149.007 149.476 150.035 150.605 151.263 151.817 152.48 148.043 
148.116 148.256 148.409 148.721 149.058 149.6 150.107 150.816 151.402 
152.111 152.635 153.188 148.12 148.115 148.251 148.319 148.608 148.858 
149.406 149.811 150.52 151.018 151.725 152.233 152.771 153.203 153.556 
148.534 148.375 148.564 148.445 148.777 148.872 149.495 149.78 150.529 
150.865 151.552 151.915 152.469 152.818 153.207 153.514 153.822 149.056 
148.908 149.115 148.929 149.249 149.215 149.83 150.015 150.771 151.002 
151.642 151.856 152.378 152.627 153.078 153.308 153.681 153.888 154.251 
150.258 150.369 150.516 151.208 150.801 150.772 151.391 151.679 152.6 
151.425 151.312 151.847 151.955 152.778 153.134 154.043 152.142 151.985 
152.492 152.467 153.184 153.387 154.265 154.564 155.409 152.96 152.771 
153.258 153.137 153.78 153.853 154.692 154.901 155.787 155.997 156.846 
153.646 153.572 154.041 153.916 154.479 154.464 155.246 155.4 156.301 
156.479 157.339 157.497 158.333 153.988 154.091 154.603 154.626 155.181 
155.158 155.864 155.966 156.848 157.028 157.888 158.021 158.807 158.961 
159.769 154.212 154.336 154.918 155.083 155.738 155.813 156.503 156.577 
157.386 157.555 158.389 158.542 159.269 159.401 160.123 160.337 161.122 
154.6 154.627 155.233 155.4 156.141 156.315 157.048 157.161 157.889 
158.041 158.794 158.972 159.655 159.797 160.438 160.631 161.348 161.625 
162.382 158.743 157.957 158 157.289 157.166 157.182 156.509 156.573 
155.994 156.708 156.55 155.944 155.886 155.381 155.425 154.991 156.525 
156.31 155.726 155.516 154.983 154.905 154.454 154.497 154.018 156.122 
156.078 155.446 155.309 154.628 154.511 153.891 153.912 153.338 153.402 
152.74 155.505 155.521 154.87 154.839 154.1 154.026 153.302 153.283 
152.638 152.672 152.023 152.027 151.344 155.053 154.967 154.378 154.264 
153.623 153.489 152.881 152.768 152.21 152.099 151.533 151.422 150.864 
150.781 150.304 154.761 154.643 154.132 153.954 153.411 153.194 152.704 
152.525 152.082 151.88 151.354 151.118 150.58 150.437 150.04 149.991 
149.729 154.5 154.389 153.933 153.795 153.312 153.107 152.623 152.438 
151.979 151.801 151.235 150.988 150.34 150.168 149.691 149.707 149.451 
149.523 149.334 
POINT_DATA 1002
SCALARS Distance double
LOOKUP_TABLE default
151.131 150.056 150.98 152.086 152.033 152.249 153.123 152.955 153.231 
153.601 154.13 153.903 154.358 154.704 155.349 155.274 155.111 155.588 
155.998 156.526 157.23 156.609 156.432 156.917 157.387 157.85 158.391 
159.127 157.969 157.685 158.292 158.769 159.277 159.768 160.429 161.255 
159.264 158.889 159.668 160.156 160.722 161.323 161.985 162.731 163.455 
160.486 160.052 160.982 161.541 162.144 162.841 163.595 164.294 164.92 
165.475 161.63 161.129 162.18 162.8 163.461 164.202 165.023 165.756 
166.344 166.895 167.443 149.558 150.628 149.336 150.398 149.404 151.659 
150.31 149.425 151.3 152.552 150.204 149.234 151.13 152.258 153.658 
150.082 149.251 151.082 152.209 153.522 154.99 150.151 149.64 151.029 
152.231 153.475 154.795 156.263 150.331 149.947 151.029 152.203 153.491 
154.662 155.996 157.499 150.452 149.982 151.178 152.271 153.572 154.745 
155.907 157.308 158.763 150.625 150.033 151.51 152.568 153.731 154.902 
156.028 157.259 158.628 159.946 150.749 151.75 152.069 153.281 153.571 
152.9 154.635 154.887 154.303 153.942 155.868 156.21 155.518 155.198 
155.018 157.367 157.682 157.027 156.665 156.405 156.239 158.977 159.159 
158.794 158.551 158.196 157.824 157.516 160.522 160.586 160.41 160.329 
160.12 159.637 159.143 158.836 162.003 161.922 161.924 161.851 161.792 
161.426 160.819 160.387 160.162 163.331 163.131 163.361 163.313 163.298 
163.08 162.506 161.946 161.645 161.423 162.561 162.933 164.207 163.203 
164.668 165.989 163.586 164.998 166.565 167.91 164.212 165.435 167.008 
168.668 170.122 164.708 166.02 167.474 169.28 171.021 172.477 164.818 
166.38 167.913 169.702 171.687 173.342 174.624 164.782 166.413 168.142 
169.93 171.953 173.946 175.455 176.632 164.709 166.301 168.16 170.062 
171.974 174.081 176.051 177.528 178.714 164.516 166.092 167.984 170.06 
172.004 173.959 176.114 178.068 179.538 180.702 163.206 164.961 163.87 
166.856 165.724 164.608 169.082 167.913 166.705 165.471 171.662 170.619 
169.314 167.87 166.424 174.103 173.399 172.21 170.613 168.903 167.272 
176.231 175.781 174.872 173.39 171.598 169.712 167.932 178.392 178.024 
177.326 176.118 174.524 172.605 170.516 168.574 180.589 180.325 179.76 
178.796 177.509 175.821 173.682 171.394 169.279 182.52 182.541 184.158 
184.108 185.439 182.166 185.068 186.556 183.428 181.353 185.712 187.289 
184.04 182.421 180.262 185.844 186.715 184.389 182.892 181.203 178.798 
184.935 184.933 184.286 182.998 181.388 179.406 176.726 183.495 183.196 
183.432 182.604 181.113 179.322 177.079 174.239 182.153 181.878 182.153 
181.58 180.417 178.898 176.984 174.468 171.683 180.655 180.411 180.616 
180.128 179.238 178.062 176.461 174.243 171.661 169.283 181.697 183.33 
182.177 183.515 182.113 184.727 183.273 181.731 184.703 186.095 182.825 
180.946 184.297 186.076 187.519 181.866 179.483 183.574 185.24 187.275 
187.939 180.095 177.522 182.253 183.793 185.666 187.036 186.452 177.784 
175.457 180.2 181.949 183.485 185.012 185.247 184.207 175.367 173.476 
177.666 179.699 181.228 182.667 183.529 183.243 182.492 173.147 171.674 
175.083 177.136 178.802 180.176 181.336 181.811 181.563 181.043 163.752 
165.379 164.634 166.505 165.794 167.287 167.744 166.913 168.673 169.554 
168.914 167.842 170.099 171.24 171.888 170.177 168.859 171.608 172.993 
173.828 174.001 171.529 170.011 173.12 174.696 175.791 176.161 176.19 
172.572 170.922 174.248 175.964 177.41 178.188 178.464 178.463 173.147 
171.412 174.944 176.8 178.55 179.756 180.355 180.578 180.335 162.096 
162.692 161.09 161.683 160.283 163.643 160.807 159.516 162.623 164.868 
159.936 158.634 161.599 163.786 165.927 159.049 157.782 160.581 162.608 
164.753 166.713 158.171 156.916 159.603 161.433 163.495 165.462 167.594 
157.189 155.928 158.632 160.317 162.243 164.195 166.258 168.605 156.219 
155.082 157.653 159.292 161.077 162.949 164.945 167.148 169.386 155.529 