# vtk DataFile Version 4.0
vtk output
ASCII
DATASET POLYDATA
POINTS 1002 float
-103.171 -81.2569 78.8607 -103.21 -80.5994 77.6643 -103.69 -80.5082 78.6007 
-103.677 -81.2586 79.8674 -104.307 -80.553 79.5352 -103.185 -82.0906 80.1508 
-104.358 -81.4166 80.753 -105.061 -80.712 80.3676 -103.701 -82.1812 81.1413 
-103.275 -83.139 81.3983 -105.235 -81.6517 81.4852 -105.875 -80.8138 81.1891 
-104.483 -82.4631 81.8924 -103.886 -83.3482 82.2923 -103.564 -84.4142 82.6429 
-106.11 -81.8645 82.3059 -106.577 -80.8968 82.1259 -105.485 -82.8514 82.6028 
-104.77 -83.7369 83.0531 -104.323 -84.6953 83.5019 -104.014 -85.7557 83.9794 
-106.813 -82.1693 83.2758 -107.239 -81.2033 83.0721 -106.372 -83.2348 83.5472 
-105.681 -84.1425 84.0216 -105.112 -85.0126 84.5048 -104.8 -86.0477 84.8956 
-104.496 -87.0903 85.2787 -107.572 -82.6003 84.1689 -108.061 -81.6837 83.8745 
-107.123 -83.6099 84.5334 -106.469 -84.4945 85.0874 -105.817 -85.2919 85.6682 
-105.478 -86.3469 86.0194 -105.26 -87.5427 86.2317 -105.058 -88.5563 86.4173 
-108.442 -83.0271 84.9325 -108.915 -82.1797 84.5477 -107.966 -83.947 85.3817 
-107.359 -84.8807 85.9261 -106.707 -85.7196 86.5346 -106.319 -86.7453 86.9679 
-106.088 -88.0478 87.1806 -105.855 -89.2229 87.3357 -105.699 -90.1245 87.479 
-109.179 -83.4783 85.6623 -109.619 -82.7013 85.1766 -108.747 -84.2866 86.2083 
-108.291 -85.273 86.7051 -107.767 -86.3094 87.1768 -107.376 -87.3533 87.5847 
-107.124 -88.5817 87.8474 -106.81 -89.8227 88.0624 -106.505 -90.8108 88.2963 
-106.304 -91.6231 88.5047 -109.781 -83.9767 86.3746 -110.23 -83.2154 85.8133 
-109.341 -84.7084 87.0172 -108.987 -85.6393 87.5627 -108.623 -86.7909 87.9585 
-108.255 -87.9435 88.2685 -107.993 -89.0992 88.4869 -107.74 -90.3078 88.6605 
-107.42 -91.3864 88.8955 -107.125 -92.2581 89.1649 -106.887 -93.0275 89.383 
-103.667 -79.9768 77.1353 -104.213 -79.8197 78.1024 -104.396 -79.4129 76.6398 
-104.919 -79.1498 77.6001 -105.259 -78.845 76.0018 -104.862 -79.8318 79.0242 
-105.682 -78.4663 76.9384 -105.963 -78.1077 75.1759 -105.538 -79.0965 78.4719 
-105.655 -79.9604 79.8821 -106.356 -77.6235 76.2081 -106.509 -77.194 74.5011 
-106.311 -78.3116 77.8418 -106.413 -79.1879 79.3216 -106.506 -80.0059 80.8028 
-107.037 -76.7243 75.672 -107.212 -76.4543 74.1145 -107.088 -77.4144 77.2751 
-107.264 -78.3753 78.7386 -107.36 -79.2699 80.2617 -107.246 -80.1016 81.8253 
-107.885 -76.1521 75.2156 -108.168 -76.1087 73.6778 -107.859 -76.6194 76.8061 
-107.995 -77.545 78.2559 -108.134 -78.5509 79.696 -108.08 -79.4134 81.3499 
-107.963 -80.4265 82.8291 -108.862 -75.875 74.6339 -109.206 -75.884 73.0831 
-108.686 -76.095 76.31 -108.695 -76.8045 77.8775 -108.73 -77.7911 79.2845 
-108.705 -78.6818 80.8843 -108.673 -79.62 82.5144 -108.758 -80.8624 83.6919 
-109.824 -75.5546 74.0806 -110.142 -75.5305 72.6022 -109.557 -75.6677 75.8232 
-109.498 -76.1533 77.5852 -109.488 -77.0062 79.0714 -109.354 -77.8976 80.5456 
-109.236 -78.7733 82.1903 -109.324 -79.9404 83.523 -109.518 -81.3727 84.3891 
-110.624 -75.2088 73.759 -110.85 -75.1854 72.4013 -110.387 -75.305 75.449 
-110.304 -75.6632 77.3162 -110.339 -76.3502 78.9389 -110.251 -77.2046 80.3058 
-110.011 -78.0865 81.8033 -109.898 -79.1395 83.256 -110.026 -80.5002 84.2634 
-110.193 -81.9592 85.0027 -111.276 -75.0783 73.2246 -111.159 -75.1392 74.7689 
-111.757 -75.3476 74.2431 -111.868 -75.528 75.8756 -112.505 -75.8241 75.1927 
-111.09 -75.4199 76.6441 -112.716 -76.111 76.7971 -113.354 -76.1849 76.0174 
-111.848 -76.0211 77.7153 -111.078 -75.9876 78.5061 -113.464 -76.6768 77.7603 
-113.952 -76.8352 77.1085 -112.508 -76.7937 78.5697 -111.686 -76.7298 79.4133 
-111.069 -76.7753 80.0029 -114.037 -77.6446 79.0741 -114.305 -78.2209 78.56 
-113.195 -77.5984 79.6415 -112.26 -77.64 80.2714 -111.655 -77.6068 80.901 
-110.944 -77.7177 81.4243 -114.475 -79.0756 80.3362 -114.62 -79.7949 79.8622 
-113.938 -78.6864 80.8709 -113.128 -78.6017 81.3878 -112.407 -78.6567 81.8938 
-111.68 -78.7169 82.4488 -110.744 -78.8167 82.9575 -114.827 -80.508 81.1744 
-114.962 -81.1177 80.755 -114.445 -80.0426 81.7859 -113.922 -79.7871 82.4449 
-113.292 -79.7694 82.9696 -112.512 -79.8841 83.4392 -111.58 -79.9651 83.9047 
-110.69 -80.1206 84.2006 -115.138 -81.8521 81.8156 -115.228 -82.4008 81.4471 
-114.741 -81.4516 82.4732 -114.297 -81.2318 83.2845 -113.834 -81.1326 83.9206 
-113.154 -81.1132 84.3657 -112.309 -81.1391 84.775 -111.498 -81.2662 85.0481 
-110.798 -81.5692 85.0857 -115.282 -83.2144 82.5182 -115.262 -83.7477 82.1497 
-114.951 -82.819 83.2093 -114.505 -82.6782 84.1003 -114.091 -82.6809 84.7977 
-113.517 -82.6152 85.2146 -112.776 -82.4453 85.6076 -112.114 -82.3817 85.9523 
-111.522 -82.5887 86.0432 -110.88 -82.9382 85.9369 -110.598 -84.1948 86.8828 
-111.366 -83.9677 87.0548 -111.007 -85.2143 88.0788 -111.987 -83.7355 87.1387 
-111.803 -85.1413 88.242 -111.4 -86.5176 89.1363 -112.467 -83.7942 86.907 
-112.347 -85.2455 88.2025 -112.149 -86.7552 89.2173 -111.798 -88.4655 89.9366 
-113.118 -84.1041 86.4481 -112.848 -85.6099 87.8071 -112.733 -87.1631 89.0773 
-112.589 -88.9459 89.9679 -112.367 -91.0044 90.5965 -113.867 -84.2617 86.0958 
-113.603 -85.8743 87.3564 -113.4 -87.4991 88.7208 -113.321 -89.3499 89.8967 
-113.217 -91.5046 90.6741 -112.995 -93.5643 91.3299 -114.363 -84.161 85.6787 
-114.256 -85.8351 87.0966 -114.121 -87.6085 88.4235 -113.997 -89.5785 89.7195 
-113.9 -91.8829 90.6993 -113.722 -94.1666 91.4464 -113.441 -95.9576 92.206 
-114.712 -84.1223 84.8492 -114.541 -85.7979 86.6107 -114.521 -87.7924 88.1517 
-114.504 -89.9173 89.4602 -114.379 -92.2444 90.5278 -114.203 -94.7412 91.3953 
-114.025 -96.892 92.2333 -113.818 -98.5439 92.9382 -115.031 -84.3846 83.8881 
-114.7 -85.9989 85.6875 -114.638 -88.1703 87.5257 -114.794 -90.5053 89.0142 
-114.767 -92.7243 90.1186 -114.545 -95.1449 91.0622 -114.396 -97.6293 91.9946 
-114.316 -99.6716 92.769 -114.182 -101.352 93.1504 -115.122 -84.8565 83.2333 
-114.782 -86.3411 84.7713 -114.66 -88.4751 86.6068 -114.927 -90.9463 88.2729 
-115.09 -93.1289 89.5048 -114.867 -95.2923 90.5228 -114.643 -97.8788 91.5364 
-114.597 -100.379 92.3748 -114.523 -102.353 92.7951 -114.359 -104.024 92.8053 
-110.075 -84.996 87.5891 -110.45 -86.177 88.7922 -109.62 -85.8788 88.2799 
-110.881 -87.8673 89.7633 -109.984 -87.3797 89.4267 -109.279 -87.0501 88.7952 
-111.455 -90.3656 90.4902 -110.521 -89.5857 90.2843 -109.638 -88.8624 89.8693 
-108.916 -88.3765 89.13 -112.178 -93.1274 91.1906 -111.344 -92.4634 90.9162 
-110.383 -91.4421 90.5668 -109.346 -90.4026 90.1005 -108.595 -89.6725 89.3285 
-112.74 -95.469 92.0973 -112.08 -95.0538 91.6995 -111.428 -94.3847 91.1129 
-110.388 -93.2175 90.6655 -109.218 -91.9496 90.1945 -108.418 -90.9981 89.4299 
-113.164 -97.894 92.9789 -112.448 -97.3112 92.6874 -111.984 -96.8548 91.9919 
-111.486 -96.1583 91.2514 -110.446 -94.925 90.7806 -109.228 -93.4664 90.2671 
-108.261 -92.2598 89.5621 -113.669 -100.916 93.3134 -112.89 -100.269 93.2846 
-112.163 -99.5225 92.9156 -111.801 -98.7877 92.1972 -111.375 -97.8469 91.4786 
-110.394 -96.401 90.9363 -109.151 -94.7046 90.3814 -108.035 -93.2801 89.7745 
-114.073 -104.025 92.989 -113.516 -103.751 93.1451 -112.664 -102.983 93.2272 
-111.921 -101.829 93.0056 -111.553 -100.6 92.3808 -111.106 -99.2092 91.6416 
-110.16 -97.4349 91.0227 -108.923 -95.576 90.495 -107.773 -94.091 89.9767 
-114.274 -106.758 92.2152 -114.074 -106.998 92.4236 -114.36 -109.679 91.519 
-114.132 -109.746 91.8415 -114.82 -112.399 90.8829 -113.526 -106.702 92.7722 
-114.204 -111.798 91.24 -115.273 -114.583 90.0642 -113.44 -108.966 92.421 
-112.58 -105.547 93.1426 -114.133 -113.277 90.4048 -115.15 -115.971 89.1739 
-113.219 -110.318 91.8448 -112.428 -107.306 92.9253 -111.756 -103.829 93.0548 
-113.96 -114.038 89.7388 -114.599 -116.153 88.7891 -113.071 -111.15 90.9713 
-112.296 -108.286 92.2471 -111.661 -105.208 92.7606 -111.312 -102.004 92.3647 
-113.652 -113.416 89.5944 -113.954 -114.848 88.8297 -112.969 -111.171 90.4029 
-112.211 -108.699 91.4169 -111.622 -105.978 92.1139 -111.144 -102.906 92.0391 
-110.724 -99.9932 91.5447 -112.942 -111.539 89.5608 -113.118 -112.44 88.8527 
-112.461 -110.06 90.2613 -111.783 -108.33 91.0214 -111.289 -106.157 91.6228 
-110.888 -103.313 91.6626 -110.321 -100.356 91.3169 -109.631 -97.7868 90.9274 
-111.924 -109.295 89.4043 -112.084 -109.716 88.8472 -111.567 -108.407 90.1015 
-110.97 -107.294 90.8472 -110.498 -105.707 91.394 -110.254 -103.261 91.4268 
-109.791 -100.422 91.1042 -109.035 -97.9236 90.7827 -108.311 -95.8535 90.4503 
-110.957 -107.184 89.2303 -111.086 -107.214 88.8393 -110.735 -106.725 89.7986 
-110.278 -105.96 90.4862 -109.758 -104.751 91.0267 -109.463 -102.762 91.0935 
-109.124 -100.256 90.8058 -108.431 -97.9607 90.5437 -107.681 -96.0933 90.3165 
-107.182 -94.4625 89.9297 -114.477 -105.507 92.2489 -114.414 -108.409 91.5019 
-114.632 -106.9 91.5723 -114.848 -109.931 90.7715 -114.937 -107.837 90.9258 
-114.888 -111.588 90.8049 -115.426 -110.672 90.1883 -115.182 -107.774 90.4552 
-115.804 -113.157 90.1451 -115.918 -114.59 90.1027 -115.54 -110.184 89.8695 
-115.043 -106.747 90.1921 -116.361 -113.514 89.5797 -116.927 -115.888 89.3162 
-116.414 -116.657 89.0404 -115.06 -108.789 89.7536 -114.566 -105.128 89.9379 
-116.043 -112.654 89.1863 -116.98 -115.744 88.5596 -116.872 -117.286 88.0211 
-115.75 -117.414 88.0874 -114.462 -106.554 89.5626 -114.165 -103.012 89.3247 
-115.312 -110.711 89.0567 -116.333 -114.506 88.1946 -116.581 -116.711 87.3641 
-115.788 -117.409 87.1626 -114.754 -116.845 87.8634 -114.065 -103.616 88.9841 
-113.966 -100.683 88.2908 -114.571 -107.352 89.0026 -115.433 -111.545 88.4396 
-115.972 -114.794 87.6514 -115.636 -116.273 87.0997 -114.777 -116.241 87.2919 
-113.931 -114.833 88.0742 -113.744 -100.844 88.0487 -113.664 -98.6165 87.2071 
-113.901 -103.553 88.5991 -114.309 -106.996 88.7031 -114.832 -110.605 88.4656 
-115.002 -113.181 88.041 -114.604 -114.084 87.7418 -113.854 -113.434 87.8811 
-112.976 -111.733 88.3473 -113.278 -98.7244 87.0525 -113.1 -96.9274 86.3364 
-113.336 -100.652 87.7586 -113.344 -102.91 88.3133 -113.477 -105.607 88.6544 
[...]
CELL_DATA 2000
SCALARS Distance double
LOOKUP_TABLE default
151.814 152.661 152.413 152.846 153.644 153.342 153.77 153.522 154.031 
154.695 154.383 154.824 154.514 155.018 154.783 155.412 155.752 155.469 
155.982 155.65 156.186 155.865 156.507 156.29 157.045 156.836 156.562 
157.169 156.873 157.476 157.122 157.755 157.462 158.205 158.005 158.786 
158.014 157.712 158.358 158.09 158.737 158.42 159.033 158.723 159.423 
159.198 159.989 159.778 160.557 159.222 158.925 159.559 159.294 159.953 
159.664 160.296 159.983 160.682 160.433 161.253 161.034 161.868 161.602 
162.387 160.349 160.096 160.713 160.473 161.142 160.887 161.574 161.273 
162.008 161.731 162.565 162.337 163.191 162.941 163.731 163.444 164.187 
161.392 161.173 161.781 161.573 162.241 162.05 162.77 162.549 163.29 
163.05 163.828 163.621 164.421 164.22 164.979 164.74 165.448 165.183 
165.866 151.406 151.208 151.572 152.227 151.144 151.428 152.012 152.448 
153.184 150.982 151.326 151.851 152.253 152.951 153.447 154.22 150.632 
151.062 151.624 152.068 152.765 153.245 154.022 154.501 155.26 150.387 
150.73 151.364 151.828 152.593 153.085 153.902 154.36 155.137 155.56 
156.326 150.491 150.654 151.279 151.647 152.442 152.925 153.77 154.255 
155.066 155.492 156.271 156.683 157.496 150.793 150.87 151.423 151.669 
152.413 152.818 153.636 154.105 154.908 155.384 156.174 156.635 157.443 
157.891 158.707 151.084 151.162 151.656 151.84 152.526 152.852 153.656 
154.034 154.822 155.228 156.008 156.479 157.29 157.793 158.609 159.074 
159.843 151.34 151.423 151.904 152.06 152.724 153.006 153.825 154.147 
154.958 155.255 156.023 156.371 157.172 157.621 158.453 158.938 159.735 
160.175 160.9 151.64 152.461 152.087 152.269 153.611 153.106 153.348 
152.886 153.186 154.87 154.382 154.669 154.141 154.463 153.97 154.327 
156.125 155.658 155.973 155.472 155.762 155.28 155.603 155.142 155.45 
157.612 157.027 157.388 156.801 157.09 156.552 156.876 156.408 156.737 
156.24 156.515 159.258 158.636 159.008 158.347 158.676 158.006 158.375 
157.782 158.194 157.617 157.956 157.352 157.661 160.715 160.192 160.513 
159.952 160.293 159.679 160.061 159.425 159.843 159.204 159.573 158.903 
159.21 158.572 158.915 161.96 161.504 161.795 161.326 161.677 161.205 
161.605 161.075 161.444 160.847 161.157 160.523 160.798 160.155 160.45 
159.847 160.182 163.084 162.68 162.981 162.551 162.927 162.522 162.971 
162.527 162.908 162.355 162.621 162.02 162.269 161.681 161.965 161.376 
161.673 161.082 161.359 162.162 162.554 162.765 163.561 162.859 163.151 
164.036 164.234 165.048 163.123 163.429 164.363 164.678 165.599 165.771 
166.645 163.476 163.73 164.667 164.995 166.013 166.302 167.308 167.479 
168.516 163.815 164.117 165.061 165.358 166.401 166.729 167.85 168.141 
169.291 169.496 170.647 163.887 164.35 165.319 165.728 166.763 167.14 
168.283 168.666 169.893 170.229 171.447 171.661 172.783 163.771 164.282 
165.249 165.824 166.908 167.439 168.613 169.081 170.319 170.75 172.008 
172.37 173.572 173.77 174.855 163.73 164.145 165.048 165.641 166.778 
167.471 168.762 169.373 170.637 171.117 172.338 172.8 174.036 174.446 
175.618 175.828 176.852 163.774 164.119 164.916 165.43 166.512 167.267 
168.625 169.426 170.745 171.345 172.48 172.994 174.15 174.731 175.937 
176.414 177.465 177.694 178.534 162.169 163.542 162.753 162.584 165.022 
164.189 164.031 163.214 163.079 166.655 165.754 165.642 164.752 164.646 
163.79 163.672 168.61 167.581 167.56 166.521 166.443 165.457 165.346 
164.416 164.256 170.802 169.744 169.839 168.683 168.655 167.454 167.311 
166.188 166.009 165.006 164.819 172.921 171.954 172.091 171.034 171.086 
169.863 169.748 168.397 168.171 166.905 166.692 165.609 165.419 174.985 
174.039 174.159 173.178 173.252 172.217 172.214 170.968 170.797 169.351 
169.077 167.684 167.422 166.241 166.001 177.042 176.148 176.333 175.29 
175.369 174.312 174.363 173.299 173.264 172.007 171.763 170.279 169.891 
168.427 168.05 166.806 166.492 178.791 178.14 178.456 177.541 177.708 
176.578 176.621 175.463 175.444 174.309 174.144 172.855 172.44 170.96 
170.415 168.969 168.49 167.257 166.897 179.69 181.063 180.143 179.558 
182.539 181.563 181.01 179.926 178.989 183.812 182.887 182.167 181.267 
180.335 179.141 177.902 184.486 183.771 182.771 182.093 181.11 180.252 
179.002 177.846 176.546 184.481 184.05 182.925 182.361 181.282 180.709 
179.529 178.679 177.318 176.34 175.074 183.731 183.711 182.612 182.255 
181.088 180.676 179.537 178.961 177.63 176.835 175.422 174.638 173.293 
182.131 182.562 181.507 181.576 180.395 180.262 179.116 178.8 177.505 
176.91 175.409 174.716 173.226 172.587 171.19 180.003 180.669 179.734 
180.142 179.092 179.276 178.191 178.162 176.912 176.57 175.051 174.485 
172.91 172.344 170.916 170.4 169.147 177.866 178.552 177.829 178.346 
177.518 177.857 176.912 177.062 175.897 175.776 174.325 173.943 172.388 
171.92 170.517 170.077 168.885 168.47 167.453 179.936 180.578 180.583 
181.258 181.181 181.281 182.141 182.112 182.896 181.456 181.868 182.988 
183.161 184.22 183.981 184.551 181.016 181.876 183.133 183.834 185.069 
185.281 185.951 185.458 185.436 179.881 181.076 182.302 183.5 184.723 
185.591 186.229 186.376 186.256 185.807 185.288 178.221 179.615 180.734 
182.228 183.401 184.699 185.359 186.02 185.901 185.989 185.434 185.182 
184.394 176.205 177.661 178.543 180.222 181.241 182.927 183.675 184.809 
184.858 185.289 184.805 184.862 184.084 183.867 182.774 174.144 175.484 
176.074 177.675 178.344 180.228 180.847 182.606 182.787 183.904 183.487 
183.957 183.121 183.19 182.053 181.852 180.545 172.248 173.416 173.824 
175.142 175.499 177.097 177.419 179.282 179.419 181.163 180.847 182.053 
181.216 181.814 180.628 180.796 179.485 179.433 178.206 163.994 164.64 
164.582 165.159 165.374 165.327 166.09 165.98 166.818 166.256 166.214 
167.178 167.102 168.186 168.013 169.065 167.204 167.22 168.314 168.315 
169.514 169.462 170.598 170.374 171.253 168.148 168.237 169.425 169.486 
170.683 170.711 171.803 171.742 172.617 172.352 172.979 169.129 169.26 
170.579 170.656 171.947 171.912 173.072 172.933 173.944 173.687 174.528 
174.083 174.741 170.108 170.301 171.733 171.881 173.341 173.33 174.695 
174.472 175.71 175.321 176.412 175.874 176.742 176.052 176.666 170.951 
171.247 172.699 172.994 174.514 174.713 176.183 176.175 177.5 177.258 
178.374 177.916 178.748 178.109 178.65 177.896 178.217 171.57 171.97 
173.374 173.809 175.298 175.709 177.175 177.45 178.761 178.818 179.879 
179.676 180.394 179.922 180.298 179.664 179.843 179.15 179.237 163.407 
162.505 163.313 163.957 161.334 162.266 162.977 163.859 164.589 160.129 
161.042 161.801 162.803 163.641 164.544 165.371 159.034 159.878 160.616 
161.626 162.545 163.558 164.436 165.346 166.214 158.019 158.813 159.49 
160.449 161.332 162.418 163.334 164.339 165.172 166.137 167.038 157.142 
157.847 158.465 159.314 160.087 161.145 162.044 163.147 164.003 165.024 
165.879 166.928 167.909 156.448 157.063 157.639 158.338 158.994 159.895 
160.713 161.804 162.698 163.795 164.674 165.737 166.675 167.796 168.824 
155.82 156.407 156.951 157.568 158.126 158.855 159.53 160.487 161.335 
162.454 163.369 164.491 165.408 166.528 167.491 168.666 169.655 155.209 
155.766 156.273 156.871 157.367 158.005 158.543 159.34 160.054 161.091 
161.984 163.142 164.064 165.209 166.113 167.276 168.2 169.404 170.302 
155.04 155.095 155.399 156.075 155.166 155.458 156.146 156.46 157.154 
155.414 155.599 156.309 156.565 157.295 157.57 158.322 155.943 155.992 
156.731 156.863 157.654 157.83 158.675 158.891 159.827 156.593 156.604 
157.345 157.423 158.293 158.392 159.354 159.46 160.517 160.667 161.787 
157.197 157.235 157.972 158.071 159.011 159.154 160.237 160.337 161.472 
161.545 162.7 162.792 163.911 157.773 157.838 158.635 158.732 159.738 
159.917 161.088 161.264 162.439 162.546 163.672 163.753 164.855 164.922 
165.979 158.332 158.447 159.336 159.46 160.517 160.698 161.883 162.093 
163.268 163.437 164.548 164.676 165.779 165.877 166.985 167.019 168.078 
158.856 159.024 159.969 160.166 161.231 161.459 162.592 162.836 163.968 
164.19 165.313 165.501 166.656 166.806 167.98 168.061 169.185 169.167 
170.187 159.444 160.886 160.305 160.663 162.553 161.901 162.3 161.643 
162.014 164.379 163.689 164.129 163.392 163.78 163.059 163.41 166.382 
165.664 166.236 165.39 165.832 164.96 165.341 164.513 164.827 168.519 
167.81 168.54 167.684 168.259 167.253 167.707 166.668 167.038 166.027 
166.29 170.732 170.037 170.853 170.064 170.741 169.792 170.304 169.225 
169.629 168.481 168.775 167.595 167.772 173.007 172.34 173.283 172.491 
173.311 172.349 172.943 171.847 172.251 171.112 171.396 170.207 170.365 
169.11 169.168 175.167 174.651 175.799 175.098 176.2 175.204 176.05 
174.748 175.247 173.845 174.117 172.807 172.952 171.699 171.72 170.444 
170.38 176.971 176.711 177.997 177.599 178.919 178.219 179.332 178.155 
178.836 177.228 177.495 175.786 175.846 174.322 174.294 172.945 172.83 
171.541 171.366 158.993 158.757 159.342 160.373 158.543 159.129 160.17 
160.83 161.995 158.271 158.9 159.924 160.608 161.773 162.5 163.748 
157.887 158.578 159.596 160.313 161.461 162.237 163.511 164.295 165.644 
157.443 158.161 159.197 159.94 161.115 161.919 163.249 164.065 165.481 
166.276 167.724 157.026 157.737 158.797 159.539 160.755 161.588 162.993 
163.85 165.33 166.145 167.648 168.432 169.921 156.686 157.378 158.491 
159.199 160.442 161.256 162.69 163.593 165.094 165.972 167.473 168.333 
169.856 170.66 172.138 156.442 157.109 158.282 158.971 160.237 160.999 
162.413 163.29 164.77 165.67 167.137 168.061 169.577 170.512 172.011 
172.833 174.217 156.301 156.927 158.115 158.803 160.066 160.81 162.175 
163.017 164.454 165.33 166.76 167.666 169.151 170.138 171.651 172.59 
173.957 174.762 175.972 158.153 156.89 157.633 157.889 155.621 156.368 
156.596 157.373 157.656 154.349 155.078 155.281 156.051 156.26 157.088 
157.345 153.162 153.806 153.931 154.676 154.791 155.605 155.76 156.674 
156.908 152.029 152.602 152.595 153.28 153.313 154.079 154.152 155.02 
155.2 156.174 156.435 150.917 151.431 151.325 151.917 151.895 152.606 
152.687 153.468 153.621 154.486 154.723 155.697 155.994 149.965 150.376 
150.27 150.706 150.644 151.241 151.354 152.09 152.285 153.035 153.222 
154.044 154.29 155.266 155.606 149.262 149.567 149.507 149.798 149.726 
150.137 150.232 150.853 151.084 151.78 151.965 152.656 152.823 153.635 
153.922 154.918 155.332 148.781 148.989 148.945 149.156 149.103 149.383 
149.467 149.907 150.123 150.679 150.87 151.46 151.606 152.278 152.515 
153.347 153.739 154.727 155.213 148.605 148.405 148.542 148.673 148.335 
148.347 148.421 148.61 148.829 148.379 148.342 148.416 148.483 148.754 
148.911 149.271 148.305 148.373 148.506 148.587 148.893 148.994 149.361 
149.481 149.893 148.203 148.283 148.506 148.661 148.972 149.123 149.401 
149.538 149.818 150.053 150.474 148.503 148.384 148.696 148.739 149.081 
149.159 149.375 149.465 149.658 149.874 150.243 150.609 151.151 149.223 
148.948 149.296 149.163 149.557 149.433 149.682 149.546 149.779 149.8 
150.254 150.482 151.131 151.435 152.127 150.067 149.764 150.093 149.899 
150.312 150.103 150.423 150.127 150.428 150.216 150.738 150.754 151.498 
151.647 152.436 152.613 153.392 150.934 150.619 150.93 150.706 151.109 
150.909 151.288 151.011 151.368 151.081 151.58 151.449 152.16 152.192 
152.997 153.091 153.905 154.029 154.861 151.538 152.568 151.859 151.566 
153.774 152.988 152.679 151.966 151.733 155.2 154.314 154.027 153.179 
152.9 152.167 151.922 156.862 155.894 155.658 154.677 154.394 153.465 
153.177 152.367 152.09 158.606 157.642 157.449 156.432 156.183 155.126 
154.827 153.807 153.52 152.613 152.391 160.36 159.401 159.239 158.251 
158.064 157.012 156.773 155.646 155.373 154.268 154.055 153.085 152.986 
162.198 161.216 161.1 160.082 159.958 158.928 158.807 157.704 157.541 
156.337 156.151 154.973 154.859 153.841 153.821 164.052 163.12 163.088 
162.05 161.984 160.91 160.861 159.788 159.748 158.603 158.507 157.258 
157.131 155.909 155.835 154.764 154.754 165.779 164.962 165.018 164.076 
164.075 163.021 162.99 161.904 161.881 160.798 160.751 159.605 159.491 
158.265 158.131 156.923 156.84 155.743 155.727 156.63 157.817 157.623 
158.482 159.143 158.911 159.816 159.582 160.477 160.496 160.282 161.219 
160.985 161.96 161.687 162.641 161.772 161.632 162.628 162.429 163.489 
163.255 164.329 163.99 164.961 162.967 162.905 164.005 163.868 165.017 
164.837 166.024 165.751 166.839 166.389 167.311 164.113 164.113 165.288 
165.241 166.449 166.361 167.628 167.471 168.715 168.356 169.438 168.844 
169.777 165.162 165.231 166.402 166.459 167.68 167.717 169.034 169.034 
170.414 170.252 171.522 171.067 172.12 171.424 172.311 166.036 166.181 
167.317 167.469 168.698 168.852 170.228 170.374 171.847 171.887 173.261 
173.057 174.166 173.683 174.54 173.863 174.57 166.745 166.947 168.069 
168.295 169.55 169.802 171.236 171.509 173.043 173.236 174.639 174.624 
175.732 175.478 176.319 175.864 176.546 175.929 176.525 150.929 150.662 
150.59 150.092 150.386 150.333 149.862 149.694 149.138 150.091 150.063 
149.74 149.592 149.156 148.87 148.495 149.953 149.82 149.587 149.535 
149.315 149.084 148.795 148.492 148.353 150.173 149.837 149.519 149.402 
149.228 149.192 148.993 148.825 148.619 148.45 148.39 150.534 150.154 
149.702 149.403 149.068 149.009 148.826 148.845 148.675 148.616 148.491 
148.434 148.391 150.671 150.404 149.877 149.555 149.038 148.85 148.584 
148.619 148.56 148.598 148.553 148.504 148.465 148.409 148.384 150.68 
150.426 149.89 149.608 149.033 148.785 148.405 148.392 148.344 148.478 
148.524 148.561 148.531 148.483 148.444 148.401 148.397 150.862 150.499 
150.019 149.664 149.17 148.822 148.429 148.26 148.153 148.251 148.323 
148.462 148.451 148.482 148.404 148.414 148.402 148.428 148.495 150.979 
150.115 150.661 150.903 149.119 149.698 150.002 150.66 151.116 148.421 
148.777 149.126 149.772 150.332 151.017 151.628 148.266 148.33 148.609 
149.048 149.649 150.286 150.914 151.571 152.141 148.341 148.313 148.435 
148.667 149.121 149.662 150.267 150.882 151.415 152.019 152.471 148.355 
148.347 148.361 148.477 148.72 149.131 149.658 150.252 150.828 151.377 
151.854 152.345 152.748 148.336 148.324 148.324 148.369 148.539 148.773 
149.238 149.711 150.357 150.879 151.449 151.874 152.318 152.701 153.112 
148.373 148.329 148.356 148.363 148.568 148.699 149.149 149.454 150.079 
150.51 151.125 151.542 152.028 152.379 152.799 153.15 153.601 148.533 
148.443 148.508 148.465 148.698 148.793 149.238 149.462 150.002 150.315 
150.846 151.226 151.71 152.094 152.534 152.887 153.335 153.697 154.186 
151.44 151.456 151.677 152.251 151.744 151.843 152.452 152.639 153.355 
152.312 152.33 152.972 152.996 153.648 153.819 154.564 152.842 152.955 
153.641 153.64 154.206 154.19 154.778 154.98 155.752 153.09 153.338 
154.005 154.195 154.734 154.746 155.215 155.263 155.962 156.25 157.207 
153.243 153.458 154.032 154.332 154.886 155.098 155.623 155.728 156.421 
156.607 157.577 157.889 158.917 153.557 153.64 154.167 154.344 154.92 
155.161 155.821 156.07 156.857 157.103 158.036 158.324 159.31 159.592 
160.455 154.062 154.056 154.616 154.644 155.254 155.353 156.068 156.295 
157.131 157.445 158.321 158.665 159.541 159.897 160.734 161.01 161.726 
154.667 154.64 155.235 155.218 155.843 155.851 156.535 156.653 157.432 
157.684 158.492 158.815 159.609 159.99 160.802 161.189 161.96 162.22 
162.859 158.079 157.576 157.49 156.821 157.072 156.989 156.282 156.199 
155.521 156.553 156.492 155.786 155.658 154.917 154.864 154.234 155.949 
155.947 155.282 155.181 154.463 154.327 153.69 153.651 153.121 155.259 
155.277 154.62 154.627 153.977 153.913 153.303 153.215 152.671 152.615 
152.084 154.721 154.615 153.93 153.916 153.275 153.328 152.741 152.78 
152.191 152.17 151.563 151.532 150.965 154.498 154.238 153.56 153.357 
152.694 152.625 152.044 152.107 151.548 151.594 150.96 150.95 150.342 
150.387 149.928 154.448 154.143 153.51 153.188 152.558 152.267 151.7 
151.546 151.062 151.002 150.472 150.384 149.808 149.775 149.338 149.446 
149.177 154.411 154.123 153.536 153.229 152.674 152.326 151.801 151.466 
150.996 150.746 150.285 150.07 149.564 149.389 148.966 148.948 148.722 
148.843 148.719 
POINT_DATA 1002
SCALARS Distance double
LOOKUP_TABLE default
152.186 151.251 152.008 153.048 152.931 153.306 154.05 153.956 154.215 
154.575 155.145 154.988 155.28 155.561 156.103 156.275 155.996 156.527 
156.755 157.207 157.826 157.416 157.099 157.818 158.086 158.427 158.984 
159.551 158.622 158.325 159.037 159.359 159.658 160.186 160.801 161.319 
159.831 159.513 160.226 160.599 160.934 161.456 162.119 162.688 163.157 
160.947 160.589 161.364 161.838 162.288 162.803 163.437 164.02 164.488 
164.917 161.986 161.602 162.411 162.95 163.525 164.06 164.624 165.205 
165.713 166.146 166.536 150.964 151.747 150.916 151.625 150.896 152.668 
151.464 150.593 152.468 153.719 151.134 150.174 152.278 153.552 154.8 
150.888 150.105 152.076 153.428 154.73 155.887 150.973 150.398 151.982 
153.273 154.611 155.862 157.067 151.244 150.742 152.057 153.203 154.434 
155.684 156.981 158.284 151.505 151.011 152.224 153.301 154.467 155.57 
156.775 158.118 159.429 151.756 151.258 152.456 153.499 154.678 155.732 
156.771 157.973 159.27 160.51 151.908 152.599 152.88 153.842 154.115 
153.608 155.191 155.307 154.977 154.807 156.481 156.59 156.253 156.06 
155.944 158.015 158.235 157.674 157.348 157.224 157.046 159.66 159.882 
159.355 159.001 158.778 158.583 158.243 161.038 161.228 160.844 160.683 
160.5 160.253 159.887 159.504 162.25 162.405 162.1 162.091 162.044 
161.791 161.431 161.078 160.77 163.389 163.462 163.306 163.378 163.449 
163.234 162.843 162.536 162.284 161.967 162.919 163.413 164.354 163.76 
164.939 165.855 163.995 165.338 166.522 167.563 164.356 165.655 167.051 
168.358 169.634 164.766 166.067 167.485 169.019 170.503 171.811 164.84 
166.356 167.872 169.497 171.169 172.674 173.868 164.635 166.279 168.096 
169.879 171.589 173.274 174.775 175.927 164.5 166.016 168.046 170.151 
171.89 173.544 175.298 176.788 177.848 164.474 165.781 167.747 170.09 
172.003 173.555 175.358 177.162 178.451 179.31 163.355 164.861 163.879 
166.549 165.52 164.542 168.637 167.499 166.313 165.185 170.967 169.918 
168.554 167.07 165.775 173.088 172.223 171.123 169.574 167.874 166.43 
175.166 174.229 173.31 172.212 170.611 168.75 167.089 177.359 176.483 
175.405 174.382 173.203 171.48 169.446 167.619 179.224 178.795 177.858 
176.611 175.348 173.886 171.957 169.846 168.009 180.548 180.669 181.985 
182.044 183.599 180.329 183.028 184.819 181.439 179.25 183.475 185.174 
181.823 180.08 177.687 183.512 184.763 181.798 180.235 178.281 175.993 
182.867 183.571 181.466 180.008 178.376 176.24 174.04 181.258 181.574 
180.405 179.322 178.024 176.121 173.874 171.769 179.182 179.262 178.771 
178.108 177.148 175.572 173.467 171.393 169.589 177.219 177.122 177.091 
176.698 175.934 174.614 172.796 170.906 169.254 167.815 179.96 181.252 
180.532 182.069 180.953 183.111 182.59 180.836 184.314 185.243 182.212 
180.01 184.607 186.295 186.321 181.016 178.628 183.692 185.879 186.518 
185.932 179.213 176.832 181.989 184.535 185.668 185.518 184.853 176.948 
174.843 179.479 182.272 184.229 184.681 184.218 183.185 174.67 172.925 
176.613 178.953 181.335 182.811 182.978 182.175 180.805 172.657 171.164 
174.15 175.739 177.577 179.363 180.385 180.303 179.418 178.239 164.049 
165.23 164.645 166.112 165.371 166.935 167.164 166.238 168.265 169.365 
168.264 167.115 169.52 170.763 171.672 169.339 167.997 170.678 171.854 
172.797 173.386 170.448 168.946 171.958 173.213 174.159 174.888 175.319 
171.514 169.87 173.246 174.827 176.056 176.931 177.43 177.489 172.363 
170.626 174.23 176.077 177.655 178.801 179.403 179.423 179.049 162.713 
163.182 161.623 161.997 160.384 163.755 160.748 159.257 162.661 164.511 
159.631 158.219 161.472 163.506 165.295 158.594 157.248 160.248 162.278 
164.22 166.006 157.703 156.481 159.104 160.913 162.945 164.849 166.786 
157.009 155.857 158.211 159.673 161.557 163.595 165.581 167.66 156.359 
155.248 157.489 158.685 160.235 162.215 164.302 166.346 168.471 155.694 