# vtk DataFile Version 4.0
vtk output
ASCII
DATASET POLYDATA
POINTS 1002 float
-103.286 -77.8664 75.0266 -103.355 -77.2101 73.672 -103.783 -77.1691 74.7052 
-103.791 -77.9183 75.9907 -104.455 -77.2825 75.6485 -103.309 -78.7214 76.4006 
-104.511 -78.0768 76.9051 -105.16 -77.363 76.64 -103.859 -78.8278 77.3807 
-103.337 -79.6991 77.9464 -105.218 -78.1791 78.0039 -105.752 -77.3198 77.8145 
-104.567 -79.0131 78.3823 -103.941 -79.8879 78.9616 -103.541 -80.8916 79.4952 
-105.802 -78.228 79.2904 -106.327 -77.3403 79.0249 -105.258 -79.2115 79.566 
-104.693 -80.1906 79.9769 -104.318 -81.2502 80.3924 -104.111 -82.3753 80.7781 
-106.419 -78.4428 80.4404 -107.012 -77.6116 80.0336 -105.909 -79.4963 80.7919 
-105.453 -80.5926 81.1358 -105.147 -81.6989 81.434 -104.979 -82.8783 81.7221 
-104.763 -83.9876 82.1372 -107.229 -78.9428 81.3063 -107.798 -78.0811 80.8709 
-106.681 -79.9764 81.796 -106.224 -81.1044 82.2801 -105.881 -82.1908 82.7058 
-105.678 -83.3586 83.0264 -105.493 -84.5568 83.3569 -105.28 -85.6129 83.7554 
-108.097 -79.5835 82.0916 -108.546 -78.6385 81.6904 -107.575 -80.5752 82.6351 
-107.093 -81.6631 83.2142 -106.662 -82.7396 83.8019 -106.318 -83.8591 84.3218 
-106.111 -85.11 84.6696 -105.972 -86.2905 84.9352 -105.905 -87.3355 85.1827 
-108.773 -80.1647 82.9556 -109.134 -79.2164 82.5263 -108.329 -81.1024 83.527 
-107.917 -82.1462 84.0902 -107.548 -83.306 84.6027 -107.176 -84.5031 85.1531 
-106.902 -85.7826 85.6153 -106.766 -87.0464 85.8874 -106.697 -88.1575 86.0891 
-106.689 -89.2 86.2968 -109.244 -80.6155 83.8592 -109.599 -79.7417 83.3442 
-108.833 -81.5029 84.4708 -108.509 -82.5422 85.0257 -108.304 -83.836 85.4165 
-108.086 -85.2381 85.7935 -107.854 -86.6075 86.2359 -107.694 -87.9004 86.6023 
-107.57 -89.0481 86.866 -107.464 -90.0953 87.1152 -107.422 -91.1397 87.3648 
-103.818 -76.672 72.9206 -104.405 -76.6369 74.0275 -104.591 -76.2679 72.1359 
-105.28 -76.1618 73.281 -105.556 -75.8521 71.4642 -105.111 -76.674 75.0976 
-106.162 -75.571 72.6181 -106.496 -75.3028 71.0175 -105.863 -75.9849 74.4287 
-105.71 -76.5766 76.2102 -106.869 -74.7942 72.1854 -107.315 -74.6684 70.6782 
-106.545 -75.1306 73.7767 -106.357 -75.6835 75.577 -106.304 -76.4622 77.4072 
-107.511 -73.9817 71.826 -108.008 -74.0285 70.1698 -107.159 -74.2122 73.3685 
-107.081 -74.7792 74.9473 -107.078 -75.6517 76.7542 -107.019 -76.612 78.5666 
-108.266 -73.3323 71.2974 -108.653 -73.4494 69.5104 -107.901 -73.4638 73.0877 
-107.838 -74.0278 74.633 -107.941 -74.9645 76.162 -107.871 -75.9705 77.9487 
-107.746 -76.9388 79.625 -109.179 -72.9052 70.7107 -109.401 -73.0019 69.009 
-108.874 -72.985 72.6667 -108.693 -73.4794 74.4679 -108.746 -74.3876 75.8757 
-108.708 -75.3601 77.4026 -108.496 -76.2284 79.1797 -108.429 -77.291 80.6416 
-110.149 -72.6066 70.2859 -110.273 -72.674 68.7695 -109.941 -72.6712 72.1332 
-109.677 -73.0398 74.1289 -109.564 -73.8046 75.7262 -109.515 -74.7343 77.0578 
-109.285 -75.5473 78.708 -109.054 -76.472 80.3833 -109.051 -77.7838 81.59 
-111.026 -72.361 70.0347 -111.14 -72.424 68.6577 -110.88 -72.4237 71.671 
-110.648 -72.6785 73.6338 -110.44 -73.2218 75.4893 -110.331 -74.0482 76.9007 
-110.139 -74.9352 78.3189 -109.815 -75.8408 79.9715 -109.605 -77.0192 81.3895 
-109.591 -78.4358 82.4163 -111.853 -72.2085 69.4347 -111.699 -72.2379 70.9546 
-112.474 -72.269 70.3873 -112.294 -72.4233 72.1403 -113.039 -72.7352 71.5589 
-111.535 -72.42 72.8236 -112.897 -72.9541 73.5362 -113.554 -73.4354 72.8091 
-112.197 -72.6962 74.2412 -111.355 -72.7741 74.9401 -113.447 -73.6771 74.8738 
-113.984 -74.1703 74.0847 -112.841 -73.3229 75.661 -112.069 -73.1548 76.3579 
-111.185 -73.4212 76.7565 -113.92 -74.5251 76.1621 -114.418 -75.0231 75.4927 
-113.319 -74.2233 76.8602 -112.615 -73.9759 77.6097 -111.813 -73.9761 78.1022 
-110.982 -74.3826 78.2244 -114.401 -75.5857 77.5408 -114.803 -76.1173 76.8999 
-113.769 -75.2898 78.0903 -113.076 -75.0851 78.7176 -112.316 -74.9825 79.333 
-111.506 -75.164 79.6326 -110.652 -75.496 79.7744 -114.714 -76.8982 78.8825 
-114.921 -77.427 78.148 -114.225 -76.5478 79.4791 -113.665 -76.3268 79.9869 
-112.992 -76.1977 80.5291 -112.122 -76.2991 80.9123 -111.183 -76.5496 81.1072 
-110.312 -76.7593 81.2815 -114.748 -78.3773 80.115 -114.839 -78.8519 79.3258 
-114.443 -78.0134 80.8216 -114.1 -77.7624 81.3543 -113.652 -77.5786 81.8298 
-112.87 -77.5603 82.1801 -111.858 -77.757 82.3306 -110.907 -77.9831 82.4239 
-110.152 -78.175 82.4819 -114.72 -79.8894 81.2775 -114.796 -80.2806 80.4805 
-114.492 -79.5652 82.0116 -114.227 -79.3367 82.5622 -113.897 -79.1582 83.0351 
-113.299 -79.0206 83.419 -112.438 -79.0121 83.5858 -111.547 -79.1368 83.6173 
-110.764 -79.3086 83.6134 -110.116 -79.5084 83.5264 -109.841 -80.7439 84.5627 
-110.501 -80.5817 84.7862 -110.111 -81.9152 85.9011 -111.232 -80.4777 84.8758 
-110.911 -81.9516 86.0773 -110.478 -83.7082 87.0236 -111.936 -80.4858 84.8471 
-111.661 -82.1169 86.0316 -111.325 -84.0165 87.0975 -110.96 -86.0759 87.9649 
-112.652 -80.611 84.7421 -112.25 -82.3974 85.8724 -112.096 -84.396 86.976 
-111.768 -86.4617 88.1367 -111.517 -88.4546 89.0931 -113.392 -80.7769 84.4552 
-112.872 -82.6456 85.6848 -112.739 -84.7081 86.8765 -112.594 -86.8059 88.2336 
-112.243 -88.8385 89.4639 -112.042 -90.9757 90.2354 -113.977 -80.913 84.0098 
-113.6 -82.7746 85.3463 -113.384 -84.8545 86.7416 -113.306 -87.0161 88.3082 
-113.033 -89.1991 89.695 -112.716 -91.5648 90.5244 -112.524 -94.1377 91.0461 
-114.358 -81.0595 83.5564 -114.189 -82.8785 84.9476 -113.978 -84.9648 86.3906 
-113.842 -87.1638 88.0853 -113.676 -89.4584 89.6582 -113.434 -92.0344 90.6074 
-113.254 -94.8583 91.166 -113.108 -97.5395 91.7964 -114.638 -81.279 82.9669 
-114.552 -83.0233 84.5375 -114.369 -85.1157 86.0052 -114.189 -87.3558 87.6037 
-114.103 -89.661 89.2306 -113.999 -92.2857 90.4229 -113.894 -95.2625 91.1686 
-113.845 -98.1417 91.8898 -113.79 -100.506 92.6342 -114.816 -81.5628 82.1438 
-114.784 -83.1778 83.8643 -114.618 -85.1969 85.5174 -114.413 -87.4619 87.1281 
-114.368 -89.7793 88.6958 -114.389 -92.3577 90.0226 -114.325 -95.3804 91.002 
-114.291 -98.4361 91.8295 -114.341 -100.999 92.6158 -114.385 -102.94 93.1609 
-109.384 -81.6666 85.2403 -109.645 -83.1762 86.5506 -109.011 -82.7902 85.8597 
-110.167 -85.4738 87.5643 -109.456 -84.8402 87.028 -108.883 -84.2814 86.2875 
-110.882 -88.0592 88.5785 -110.2 -87.5222 88.0364 -109.489 -86.7965 87.4421 
-108.83 -86.0028 86.6114 -111.544 -90.6091 89.7826 -110.98 -90.1851 89.1975 
-110.175 -89.5309 88.6639 -109.376 -88.6266 87.9526 -108.68 -87.6119 87.0112 
-111.987 -93.7238 90.8574 -111.518 -93.1323 90.4265 -110.804 -92.311 89.9168 
-109.881 -91.256 89.3545 -109.163 -90.1302 88.4733 -108.526 -89.0052 87.4358 
-112.437 -97.3349 91.7711 -111.9 -96.7568 91.5129 -111.404 -95.7531 91.0185 
-110.599 -94.3471 90.4742 -109.688 -92.8307 89.8293 -109.018 -91.4794 88.879 
-108.373 -90.2395 87.7922 -113.158 -100.564 92.6504 -112.531 -100.264 92.4085 
-112.127 -99.4979 91.901 -111.621 -98.1511 91.2865 -110.679 -96.3167 90.7386 
-109.653 -94.44 90.1273 -108.878 -92.8201 89.2108 -108.197 -91.3936 88.1079 
-113.975 -103.128 93.2096 -113.446 -103.041 92.9234 -113.048 -102.62 92.3876 
-112.706 -101.756 91.8018 -111.968 -100.241 91.3083 -110.792 -98.1662 90.9004 
-109.655 -96.0283 90.3586 -108.802 -94.1571 89.4758 -108.1 -92.5457 88.3872 
-114.723 -105.352 93.1558 -114.4 -105.494 92.9851 -115.019 -107.829 92.42 
-114.733 -107.95 92.0779 -115.239 -110.382 91.4296 -114.037 -105.298 92.453 
-114.844 -110.432 91.1453 -115.505 -112.919 90.5989 -114.406 -107.587 91.5635 
-113.701 -104.8 91.8956 -114.874 -112.621 90.4559 -115.765 -115.038 89.7525 
-114.345 -109.751 90.8467 -113.888 -106.91 91.2912 -113.114 -103.851 91.544 
-114.821 -113.919 89.7408 -115.588 -115.84 88.8832 -114.143 -111.338 90.2717 
-113.614 -108.64 90.7694 -113.021 -105.678 91.2503 -112.044 -102.073 91.2904 
-114.39 -113.795 89.0219 -114.854 -114.928 88.2325 -113.869 -111.875 89.6704 
-113.292 -109.547 90.2117 -112.726 -106.826 90.8049 -111.938 -103.467 91.1283 
-110.758 -99.6264 90.9571 -113.622 -112.576 88.4101 -113.956 -113.091 87.7945 
-113.317 -111.359 89.1327 -112.874 -109.516 89.7459 -112.381 -107.096 90.2983 
-111.8 -104.109 90.7228 -110.797 -100.663 90.7842 -109.614 -97.1613 90.3483 
-112.823 -110.904 87.9814 -113.154 -111.016 87.6046 -112.601 -110.171 88.6615 
-112.294 -108.754 89.3826 -111.877 -106.65 89.9244 -111.441 -104.011 90.2743 
-110.714 -101.055 90.4012 -109.637 -97.9634 90.1305 -108.683 -95.0219 89.3846 
-112.104 -108.821 87.8585 -112.42 -108.637 87.6936 -111.91 -108.434 88.3321 
-111.708 -107.377 89.0008 -111.361 -105.646 89.558 -110.922 -103.384 89.8555 
-110.322 -100.844 89.9487 -109.455 -98.2267 89.7652 -108.556 -95.6289 89.164 
-107.888 -93.2032 88.2641 -114.783 -104.138 92.9619 -115.162 -106.677 92.5519 
-115.11 -105.229 92.2965 -115.702 -107.582 91.5646 -115.572 -105.852 91.4658 
-115.547 -109.146 91.6206 -116.332 -107.782 90.7615 -115.924 -105.645 90.8883 
-116.289 -109.671 90.7364 -115.983 -111.685 90.7159 -116.444 -107.34 90.3822 
-115.669 -104.557 90.527 -116.74 -109.522 90.2477 -116.791 -112.041 90.0405 
-116.508 -114.376 89.8083 -115.836 -106.182 90.0086 -114.974 -102.697 90.0596 
-116.347 -108.983 89.9437 -116.773 -111.695 89.7104 -117.119 -114.681 89.0942 
-116.685 -116.401 88.7496 -115.108 -103.922 89.4391 -114.423 -100.242 89.2745 
-115.645 -107.436 89.3893 -116.02 -110.529 89.3829 -116.639 -113.642 88.8775 
-116.884 -116.099 88.1447 -116.097 -116.438 87.9847 -114.531 -100.835 88.7466 
-114.119 -97.655 88.107 -115.065 -104.391 88.8509 -115.412 -107.871 88.867 
-115.78 -111.121 88.743 -116.238 -113.925 88.1944 -116.078 -115.249 87.7044 
-115.106 -114.657 87.6384 -113.963 -97.8928 87.8242 -113.825 -95.4416 86.7575 
-114.309 -100.802 88.4308 -114.759 -104.071 88.5565 -115.102 -107.363 88.4906 
-115.415 -110.345 88.2659 -115.577 -112.429 87.8893 -115.147 -112.988 87.5986 
-114.175 -112.266 87.5113 -113.431 -95.6431 86.6683 -113.439 -93.7394 85.5339 
-113.462 -97.8221 87.7115 -113.753 -100.415 88.2835 -114.196 -103.305 88.353 
[...]
CELL_DATA 2000
SCALARS Distance double
LOOKUP_TABLE default
148.15 149.034 148.76 149.204 150.058 149.728 150.149 149.9 150.437 
151.097 150.786 151.228 150.922 151.456 151.221 151.871 152.132 151.844 
152.352 152.048 152.613 152.327 153.006 152.785 153.573 153.229 152.926 
153.501 153.215 153.86 153.562 154.291 154.021 154.857 154.63 155.515 
154.431 154.1 154.73 154.433 155.163 154.875 155.667 155.38 156.243 
155.99 156.905 156.658 157.565 155.687 155.369 156.045 155.737 156.502 
156.225 157.047 156.777 157.635 157.387 158.296 158.066 158.986 158.732 
159.64 156.875 156.623 157.308 157.049 157.793 157.554 158.363 158.133 
158.985 158.758 159.664 159.45 160.389 160.155 161.078 160.817 161.737 
157.931 157.744 158.401 158.217 158.924 158.76 159.555 159.397 160.27 
160.089 161.023 160.826 161.797 161.574 162.525 162.262 163.181 162.916 
163.84 147.718 147.533 147.922 148.628 147.565 147.847 148.525 148.917 
149.653 147.673 147.896 148.474 148.822 149.479 149.919 150.635 147.736 
147.923 148.352 148.68 149.233 149.684 150.366 150.878 151.628 147.712 
147.887 148.207 148.485 148.985 149.404 150.112 150.623 151.438 151.931 
152.738 147.641 147.819 148.167 148.381 148.925 149.251 150.023 150.465 
151.351 151.814 152.672 153.103 153.925 147.689 147.826 148.305 148.468 
149.11 149.352 150.165 150.509 151.396 151.797 152.645 153.058 153.868 
154.304 155.129 147.967 148.039 148.609 148.738 149.431 149.639 150.439 
150.722 151.553 151.882 152.675 153.037 153.809 154.226 155.027 155.494 
156.304 148.386 148.423 148.985 149.1 149.767 149.969 150.724 150.987 
151.764 152.047 152.801 153.099 153.844 154.19 154.966 155.385 156.186 
156.637 157.395 148.804 149.668 149.269 149.413 150.739 150.234 150.41 
149.988 150.227 152.026 151.448 151.662 151.129 151.405 150.926 151.221 
153.351 152.803 153.069 152.505 152.794 152.227 152.51 151.983 152.264 
154.704 154.152 154.448 153.913 154.206 153.651 153.911 153.336 153.581 
153.036 153.29 156.18 155.591 155.9 155.309 155.616 155.049 155.34 
154.757 155.021 154.419 154.669 154.085 154.34 157.628 157.106 157.461 
156.844 157.192 156.555 156.923 156.276 156.614 155.942 156.227 155.556 
155.814 155.183 155.462 158.93 158.509 158.933 158.407 158.813 158.215 
158.641 157.986 158.369 157.644 157.936 157.191 157.44 156.734 156.996 
156.356 156.66 160.188 159.803 160.286 159.837 160.282 159.785 160.218 
159.672 160.04 159.392 159.642 158.911 159.107 158.381 158.604 157.925 
158.185 157.561 157.844 158.661 159.067 159.26 160.079 159.518 159.721 
160.627 160.792 161.709 160.01 160.198 161.142 161.368 162.375 162.551 
163.599 160.532 160.705 161.621 161.87 162.937 163.215 164.351 164.558 
165.722 160.952 161.195 162.089 162.343 163.423 163.768 165.012 165.315 
166.555 166.754 167.978 161.157 161.523 162.45 162.773 163.853 164.249 
165.55 165.968 167.305 167.588 168.855 169.045 170.331 161.225 161.666 
162.652 163.07 164.161 164.62 165.899 166.432 167.803 168.259 169.572 
169.884 171.202 171.459 172.854 161.217 161.71 162.727 163.228 164.332 
164.847 166.068 166.66 167.994 168.604 169.946 170.459 171.808 172.239 
173.665 174.023 175.442 161.1 161.645 162.644 163.233 164.322 164.92 
166.091 166.723 167.996 168.674 170.018 170.681 172.061 172.676 174.105 
174.663 176.076 176.496 177.735 158.705 160.087 159.312 159.194 161.714 
160.805 160.698 159.863 159.776 163.673 162.629 162.595 161.573 161.546 
160.584 160.527 165.882 164.791 164.888 163.735 163.793 162.626 162.616 
161.478 161.38 168.193 167.129 167.335 166.184 166.304 165.066 165.064 
163.782 163.671 162.407 162.231 170.619 169.548 169.855 168.706 168.874 
167.622 167.602 166.282 166.135 164.806 164.596 163.286 163.048 173.238 
172.131 172.559 171.353 171.628 170.296 170.328 168.885 168.723 167.292 
167.062 165.694 165.422 164.087 163.785 175.88 174.847 175.341 174.161 
174.522 173.195 173.356 171.821 171.721 170.066 169.819 168.245 167.959 
166.504 166.174 164.792 164.449 178.164 177.364 177.823 176.834 177.156 
176.025 176.241 174.899 174.903 173.26 173.019 171.233 170.894 169.194 
168.845 167.281 166.918 165.469 165.124 179.377 180.838 179.842 179.087 
182.041 181.165 180.469 179.389 178.447 183.22 182.309 181.601 180.639 
179.775 178.664 177.588 184.336 183.436 182.596 181.673 180.797 179.862 
178.857 177.695 176.351 184.816 184.26 183.252 182.489 181.476 180.708 
179.691 178.776 177.445 176.183 174.494 184.131 184.158 183.114 182.764 
181.635 181.111 180.001 179.35 178.041 177.052 175.356 174.06 172.247 
182.543 182.975 182.068 182.18 181.112 180.917 179.749 179.357 178.053 
177.388 175.779 174.735 172.904 171.711 170.009 180.707 181.254 180.515 
180.897 180.003 180.105 178.988 178.827 177.523 177.14 175.627 174.93 
173.19 172.207 170.449 169.443 167.917 178.868 179.46 178.794 179.303 
178.524 178.842 177.824 177.868 176.595 176.411 174.953 174.55 172.929 
172.265 170.563 169.729 168.138 167.331 165.988 179.699 180.392 180.48 
181.155 180.761 181.018 181.764 181.812 182.372 180.817 181.262 182.043 
182.289 183.023 183.059 183.639 180.303 181.113 181.942 182.428 183.254 
183.604 184.447 184.447 184.929 178.973 180.243 181.158 182.048 182.873 
183.594 184.527 185.032 185.696 185.592 185.556 176.978 178.549 179.503 
180.843 181.64 182.781 183.607 184.634 185.308 185.865 185.841 185.635 
184.867 174.678 176.307 177.171 178.797 179.541 181.045 181.704 183.126 
183.671 184.825 184.854 185.311 184.562 184.325 183.157 172.391 173.891 
174.581 176.23 176.871 178.555 179.087 180.732 181.13 182.645 182.732 
183.784 183.269 183.59 182.548 182.352 181.192 170.354 171.624 172.148 
173.605 174.114 175.728 176.173 177.847 178.148 179.785 179.87 181.3 
181.013 181.93 181.167 181.464 180.407 180.329 179.254 161.294 162.115 
162.091 162.896 163 162.979 163.877 163.818 164.656 164.001 163.946 
164.941 164.892 165.887 165.71 166.547 165.199 165.102 166.221 166.114 
167.27 167.092 168.121 167.752 168.569 166.433 166.424 167.659 167.552 
168.808 168.633 169.827 169.492 170.482 169.926 170.698 167.433 167.625 
168.959 169.002 170.32 170.232 171.544 171.313 172.505 172.007 172.942 
172.186 172.888 168.213 168.538 169.981 170.211 171.655 171.72 173.179 
173.088 174.5 174.146 175.299 174.591 175.419 174.47 175.072 168.939 
169.298 170.822 171.182 172.78 173.024 174.651 174.741 176.321 176.171 
177.475 176.958 177.86 177.03 177.647 176.639 177.083 169.601 169.998 
171.516 171.982 173.643 174.081 175.787 176.113 177.729 177.848 179.152 
178.93 179.785 179.233 179.764 179.009 179.379 178.462 178.693 160.461 
159.437 160.364 161.221 158.428 159.334 160.214 161.174 162.088 157.468 
158.317 159.166 160.157 161.098 162.071 163.036 156.552 157.317 158.03 
159.03 159.953 161.03 162.015 163.048 164.109 155.68 156.36 156.925 
157.83 158.68 159.803 160.825 161.959 163.005 164.122 165.22 154.855 
155.483 155.992 156.754 157.524 158.545 159.583 160.74 161.805 162.936 
163.947 165.114 166.136 154.104 154.695 155.203 155.872 156.555 157.446 
158.4 159.515 160.57 161.702 162.657 163.769 164.695 165.893 166.867 
153.5 154.024 154.54 155.127 155.722 156.481 157.277 158.306 159.271 
160.419 161.351 162.456 163.336 164.461 165.404 166.611 167.599 153.083 
153.523 154.038 154.531 155.067 155.671 156.329 157.176 158.022 159.089 
160.004 161.119 162.01 163.123 164.052 165.208 166.186 167.37 168.315 
153.068 153.287 153.461 153.991 153.347 153.633 154.225 154.409 154.992 
153.382 153.683 154.393 154.65 155.34 155.498 156.231 153.624 153.816 
154.588 154.863 155.703 155.923 156.783 156.932 157.876 154.071 154.18 
154.932 155.148 156.062 156.341 157.338 157.56 158.585 158.752 159.814 
154.553 154.681 155.473 155.616 156.564 156.794 157.883 158.148 159.282 
159.497 160.624 160.773 161.855 155.053 155.206 156.119 156.26 157.298 
157.46 158.617 158.81 160.032 160.238 161.479 161.649 162.846 162.904 
163.988 155.681 155.804 156.796 156.958 158.077 158.276 159.5 159.68 
160.936 161.095 162.381 162.558 163.851 163.969 165.162 165.123 166.165 
156.436 156.527 157.525 157.671 158.792 159.034 160.287 160.554 161.837 
162.04 163.312 163.494 164.785 164.965 166.206 166.285 167.382 167.302 
168.267 157.197 158.798 158.097 158.335 160.664 159.864 160.187 159.36 
159.671 162.817 161.947 162.4 161.44 161.82 160.878 161.252 165.088 
164.239 164.803 163.834 164.287 163.233 163.614 162.575 162.894 167.49 
166.603 167.262 166.311 166.872 165.817 166.248 165.1 165.41 164.243 
164.458 170.34 169.289 170.126 168.987 169.703 168.539 169.114 167.878 
168.249 166.929 167.133 165.829 165.974 173.487 172.469 173.547 172.253 
173.111 171.698 172.374 170.952 171.398 169.93 170.117 168.64 168.701 
167.339 167.391 176.218 175.575 176.796 175.783 176.723 175.342 175.98 
174.423 174.814 173.21 173.342 171.718 171.661 170.122 170.03 168.662 
168.574 178.114 177.902 179.118 178.655 179.647 178.726 179.33 177.965 
178.218 176.624 176.638 174.961 174.796 173.122 172.883 171.331 171.104 
169.716 169.49 156.778 156.573 157.227 158.347 156.339 157.015 158.186 
158.864 160.115 156.146 156.803 157.981 158.688 159.99 160.739 162.159 
155.871 156.584 157.74 158.48 159.797 160.601 162.076 162.884 164.392 
155.395 156.195 157.328 158.159 159.47 160.368 161.875 162.778 164.358 
165.163 166.747 154.902 155.679 156.821 157.669 158.99 159.96 161.504 
162.52 164.159 165.094 166.777 167.625 169.419 154.586 155.277 156.448 
157.214 158.558 159.486 161.079 162.126 163.833 164.851 166.589 167.58 
169.433 170.424 172.362 154.424 155.057 156.23 156.93 158.252 159.114 
160.7 161.736 163.485 164.535 166.296 167.333 169.162 170.272 172.168 
173.269 175.036 154.341 154.936 156.08 156.742 157.993 158.804 160.295 
161.329 163.046 164.166 165.923 167.003 168.766 169.888 171.691 172.862 
174.55 175.624 177.019 155.746 154.128 155.102 155.48 152.849 153.539 
153.852 154.82 155.236 152.224 152.528 152.692 153.325 153.673 154.617 
155.062 151.726 152.017 151.992 152.362 152.472 153.149 153.456 154.426 
154.796 150.63 151.209 151.048 151.54 151.396 151.957 151.973 152.794 
153.003 154.036 154.309 149.18 149.828 149.64 150.281 150.076 150.699 
150.564 151.276 151.31 152.215 152.424 153.486 153.793 147.948 148.447 
148.297 148.841 148.692 149.286 149.21 149.865 149.901 150.633 150.792 
151.677 151.985 153.04 153.457 147 147.392 147.276 147.681 147.54 
148.007 147.946 148.556 148.65 149.34 149.51 150.229 150.475 151.345 
151.742 152.799 153.295 146.279 146.585 146.525 146.825 146.691 147.002 
146.878 147.355 147.409 148.094 148.287 149.012 149.228 149.97 150.279 
151.18 151.65 152.708 153.241 146.004 145.882 146.015 146.231 145.896 
145.94 146.011 146.168 146.33 145.872 145.927 145.929 145.969 145.986 
146.189 146.427 145.792 145.849 145.882 145.907 145.905 145.945 146.12 
146.398 146.903 145.747 145.753 145.785 145.856 145.956 145.98 146.168 
146.268 146.732 147.09 147.789 145.781 145.727 145.73 145.782 145.967 
146.07 146.365 146.438 146.866 147.06 147.702 148.073 148.786 145.981 
145.852 145.929 145.86 146.108 146.163 146.586 146.685 147.199 147.307 
147.931 148.13 148.859 149.143 149.894 146.481 146.254 146.477 146.281 
146.611 146.506 147 147.024 147.664 147.74 148.453 148.536 149.305 
149.428 150.249 150.431 151.286 147.264 146.964 147.282 147.023 147.415 
147.199 147.701 147.606 148.28 148.313 149.102 149.166 149.975 150.032 
150.864 150.959 151.839 151.986 152.883 147.877 148.944 148.226 147.932 
150.185 149.387 149.088 148.351 148.094 151.645 150.742 150.471 149.616 
149.373 148.589 148.412 153.376 152.362 152.161 151.173 150.998 150.053 
149.929 149.072 149.035 155.318 154.236 154.097 153.037 152.943 151.892 
151.82 150.802 150.773 149.863 149.896 157.378 156.274 156.172 155.077 
155.031 153.958 153.912 152.824 152.75 151.716 151.683 150.773 150.788 
159.513 158.418 158.395 157.253 157.251 156.125 156.121 154.982 154.905 
153.761 153.674 152.631 152.616 151.684 151.704 161.683 160.636 160.733 
159.587 159.653 158.46 158.502 157.29 157.272 156.026 155.961 154.753 
154.735 153.642 153.681 152.675 152.716 163.848 162.87 163.077 161.987 
162.119 160.931 160.988 159.751 159.756 158.488 158.45 157.167 157.125 
155.901 155.899 154.772 154.791 153.741 153.762 154.667 155.762 155.616 
156.434 156.968 156.811 157.723 157.492 158.389 158.3 158.145 159.203 
158.938 159.982 159.664 160.759 159.693 159.586 160.815 160.587 161.823 
161.483 162.759 162.352 163.605 161.047 161.023 162.398 162.297 163.747 
163.502 164.964 164.562 165.946 165.396 166.594 162.339 162.393 163.876 
163.905 165.527 165.472 167.126 166.865 168.385 167.869 169.166 168.442 
169.534 163.517 163.68 165.245 165.386 167.096 167.209 168.984 168.957 
170.61 170.298 171.705 171.088 172.268 171.437 172.473 164.473 164.782 
166.398 166.699 168.446 168.703 170.494 170.663 172.364 172.338 173.818 
173.497 174.717 174.104 175.122 174.321 175.227 165.187 165.605 167.213 
167.698 169.457 169.905 171.674 172.007 173.664 173.853 175.325 175.318 
176.544 176.265 177.228 176.698 177.486 176.817 177.534 147.954 147.506 
147.53 147.18 147.289 147.178 146.821 146.801 146.53 147.36 147.145 
146.84 146.627 146.347 146.271 146.104 147.463 147.289 146.999 146.765 
146.445 146.24 146.021 145.962 145.873 147.38 147.282 146.927 146.818 
146.42 146.282 145.959 145.904 145.77 145.8 145.759 147.186 147.081 
146.684 146.628 146.25 146.152 145.794 145.741 145.565 145.65 145.629 
145.708 145.674 147.003 146.846 146.461 146.404 146.158 146.059 145.819 
145.652 145.492 145.459 145.48 145.565 145.595 145.625 145.588 146.953 
146.704 146.324 146.237 146.069 146.048 145.939 145.809 145.692 145.543 
145.558 145.529 145.627 145.608 145.627 145.578 145.598 147.164 146.789 
146.405 146.189 145.992 145.959 145.877 145.878 145.802 145.747 145.73 
145.691 145.775 145.74 145.806 145.712 145.744 145.679 145.806 148.128 
147.379 147.902 148.227 146.723 147.192 147.564 148.077 148.476 146.25 
146.61 147.013 147.498 147.976 148.441 148.947 145.954 146.188 146.536 
147.001 147.544 148.032 148.593 149.042 149.658 145.796 145.917 146.141 
146.525 147.038 147.591 148.183 148.697 149.271 149.784 150.388 145.71 
145.781 145.945 146.184 146.638 147.108 147.725 148.247 148.801 149.312 
149.815 150.38 150.849 145.648 145.719 145.943 146.097 146.573 146.876 
147.545 147.924 148.556 148.911 149.42 149.814 150.268 150.738 151.136 
145.693 145.732 146.053 146.191 146.733 146.96 147.648 147.929 148.625 
148.872 149.461 149.653 150.153 150.373 150.839 151.131 151.571 145.946 
145.914 146.295 146.394 146.964 147.164 147.806 148.063 148.699 148.98 
149.568 149.801 150.313 150.471 150.936 151.083 151.549 151.745 152.218 
148.646 148.757 148.951 149.507 149.004 149.134 149.737 149.916 150.582 
149.457 149.479 150.128 150.255 150.968 151.115 151.849 150.169 150.064 
150.692 150.734 151.457 151.562 152.261 152.401 153.125 150.947 150.853 
151.417 151.361 152 152.053 152.707 152.809 153.484 153.66 154.438 
151.429 151.519 152.06 152.052 152.588 152.592 153.186 153.247 153.9 
154.034 154.799 155.026 155.881 151.639 151.821 152.375 152.524 153.061 
153.132 153.707 153.757 154.392 154.473 155.184 155.374 156.182 156.46 
157.281 151.963 152.025 152.572 152.74 153.334 153.505 154.124 154.254 
154.89 154.978 155.626 155.75 156.461 156.701 157.478 157.779 158.547 
152.548 152.466 152.978 153.022 153.623 153.767 154.408 154.594 155.237 
155.404 156.039 156.173 156.838 157.002 157.744 157.979 158.767 159.033 
159.801 155.551 154.799 154.76 153.981 154.232 154.101 153.384 153.303 
152.76 153.851 153.682 153.064 152.896 152.467 152.411 152.195 153.444 
153.351 152.814 152.695 152.309 152.248 152.027 152.029 151.767 152.966 
152.896 152.348 152.359 151.934 152.003 151.668 151.753 151.341 151.353 
150.733 152.708 152.485 151.896 151.83 151.347 151.44 151.009 151.168 
150.657 150.745 150.068 150.043 149.293 152.743 152.406 151.849 151.563 
151.076 150.926 150.477 150.465 149.976 150.009 149.416 149.387 148.718 
148.649 148.037 152.747 152.489 151.977 151.675 151.213 150.902 150.454 
150.179 149.714 149.523 149.028 148.888 148.329 148.189 147.613 147.53 
147.048 152.542 152.395 151.875 151.715 151.241 151.042 150.578 150.301 
149.803 149.49 148.975 148.703 148.17 147.936 147.372 147.189 146.681 
146.624 146.27 
POINT_DATA 1002
SCALARS Distance double
LOOKUP_TABLE default
148.534 147.564 148.355 149.395 149.354 149.688 150.437 150.385 150.619 
151.007 151.537 151.371 151.713 152.039 152.57 152.626 152.401 152.898 
153.232 153.748 154.403 153.755 153.533 154.125 154.559 155.084 155.742 
156.404 155.016 154.747 155.422 155.945 156.501 157.146 157.831 158.463 
156.346 155.97 156.776 157.311 157.888 158.519 159.226 159.904 160.554 
157.555 157.102 158.027 158.579 159.201 159.869 160.607 161.336 161.995 
162.665 158.579 158.113 159.071 159.676 160.414 161.2 162.004 162.782 
163.459 164.09 164.767 147.237 148.177 147.188 148.18 147.333 149.223 
148.18 147.511 149.068 150.151 148.084 147.618 148.798 149.837 151.115 
147.966 147.559 148.578 149.584 150.922 152.282 147.938 147.432 148.604 
149.596 150.894 152.244 153.496 148.115 147.527 148.869 149.861 151.041 
152.257 153.44 154.672 148.481 147.899 149.238 150.192 151.269 152.352 
153.42 154.571 155.842 148.893 148.369 149.587 150.483 151.503 152.525 
153.531 154.585 155.747 156.971 149.155 149.763 150.088 150.853 151.279 
150.618 152.218 152.585 151.921 151.683 153.611 153.862 153.383 153.083 
152.767 154.989 155.266 154.749 154.493 154.16 153.819 156.523 156.757 
156.194 155.909 155.624 155.284 154.909 158.044 158.088 157.82 157.567 
157.298 156.923 156.48 156.059 159.401 159.307 159.36 159.263 159.098 
158.715 158.175 157.668 157.266 160.707 160.556 160.756 160.736 160.658 
160.368 159.847 159.304 158.843 158.449 159.423 159.912 160.906 160.41 
161.563 162.663 160.885 162.135 163.433 164.708 161.388 162.596 164.085 
165.541 166.923 161.835 163.05 164.63 166.326 167.804 169.213 162.081 
163.441 165.074 166.954 168.642 170.125 171.664 162.187 163.694 165.354 
167.276 169.188 170.894 172.597 174.311 162.192 163.808 165.499 167.359 
169.355 171.305 173.237 175.171 176.85 162.043 163.704 165.461 167.319 
169.316 171.392 173.497 175.592 177.472 178.888 159.936 161.577 160.585 
163.652 162.562 161.495 166.02 164.996 163.827 162.53 168.45 167.542 
166.379 164.993 163.494 170.989 170.134 168.953 167.481 165.936 164.363 
173.752 172.949 171.812 170.228 168.465 166.788 165.119 176.488 175.792 
174.835 173.431 171.512 169.487 167.608 165.801 178.76 178.227 177.455 
176.439 174.847 172.708 170.494 168.438 166.519 180.49 180.281 181.751 
181.47 182.912 179.665 182.553 184.203 180.79 178.877 183.558 185.255 
181.683 179.927 177.774 183.972 185.225 182.231 180.521 178.634 175.937 
183.28 183.892 182.093 180.587 178.902 176.595 173.545 181.756 181.985 
181.171 180.076 178.591 176.676 174.074 171.1 180.023 180.116 179.769 
179.074 177.822 176.164 174.049 171.455 168.796 178.244 178.25 178.121 
177.689 176.716 175.256 173.446 171.298 168.94 166.682 179.726 181.231 
180.224 181.606 180.46 182.462 181.724 180.273 182.804 183.811 181.346 
179.296 182.761 184.204 185.337 180.092 177.54 182.041 183.824 185.565 
186.193 178.023 175.383 180.402 182.485 184.522 185.843 185.488 175.525 
173.134 177.975 180.255 182.38 184.118 184.603 183.597 173.022 171.024 
175.203 177.446 179.571 181.449 182.638 182.572 181.477 170.83 169.21 
172.598 174.548 176.536 178.349 179.824 180.587 180.349 179.4 161.287 
162.947 162.115 163.88 163.008 164.81 164.957 164.043 165.993 166.867 
166.313 165.246 167.401 168.426 169.077 167.72 166.34 168.951 170.083 
170.984 171.393 168.821 167.145 170.344 171.676 172.886 173.658 173.787 
169.654 167.847 171.48 173.155 174.72 175.912 176.345 176.142 170.4 
168.576 172.423 174.449 176.362 177.895 178.631 178.618 178.195 159.546 
160.264 158.506 159.236 157.544 161.146 158.174 156.692 160.091 162.063 
157.09 155.881 158.83 160.942 163.045 156.116 155.05 157.574 159.641 
161.896 164.08 155.291 154.232 156.577 158.425 160.686 162.838 164.927 
154.569 153.515 155.757 157.339 159.439 161.588 163.548 165.612 153.994 
152.994 155.064 156.355 158.143 160.234 162.237 164.227 166.376 153.584 