# vtk DataFile Version 4.0
vtk output
ASCII
DATASET POLYDATA
POINTS 1002 float
-102.81 -81.563 78.248 -102.876 -80.9482 76.9331 -103.147 -80.7179 78.0159 
-103.134 -81.511 79.4157 -103.519 -80.604 79.1386 -102.809 -82.3667 79.8071 
-103.595 -81.5834 80.5587 -104.121 -80.748 80.1202 -103.183 -82.4634 81.0449 
-103.008 -83.3745 81.4738 -104.273 -81.7706 81.5451 -104.915 -81.1025 81.002 
-103.763 -82.5846 82.1645 -103.521 -83.5308 82.6492 -103.375 -84.5957 83.0549 
-105.018 -81.9488 82.6016 -105.607 -81.3238 82.1348 -104.519 -82.7056 83.1827 
-104.322 -83.7442 83.6238 -104.124 -84.8729 84.0295 -103.856 -86.039 84.5176 
-105.612 -82.0769 84.0081 -106.116 -81.4119 83.5055 -105.215 -82.8997 84.435 
-105.116 -84.0928 84.6828 -105.03 -85.3534 84.9334 -104.715 -86.4603 85.4148 
-104.557 -87.5758 85.94 -106.197 -82.4308 85.3855 -106.72 -81.7762 84.6796 
-105.847 -83.317 85.8316 -105.736 -84.5872 86.0115 -105.702 -85.9532 86.1649 
-105.516 -87.028 86.4834 -105.346 -88.0392 86.943 -105.441 -89.1885 87.3375 
-106.989 -83.0741 86.3384 -107.514 -82.4052 85.5951 -106.636 -83.9698 86.8455 
-106.471 -85.1794 87.1238 -106.343 -86.5101 87.4484 -106.199 -87.6117 87.8202 
-106.126 -88.6138 88.1219 -106.19 -89.8124 88.4068 -106.306 -91.0444 88.6789 
-107.859 -83.7133 87.0489 -108.277 -82.9711 86.4557 -107.547 -84.6432 87.4997 
-107.391 -85.8018 87.8289 -107.225 -87.0635 88.2944 -107.029 -88.2179 88.8951 
-106.947 -89.3233 89.3213 -107.012 -90.6088 89.5334 -107.121 -91.9459 89.7028 
-107.172 -93.0302 89.8639 -108.575 -84.2434 87.7116 -108.852 -83.4049 87.2576 
-108.353 -85.2524 88.1077 -108.234 -86.4221 88.5 -108.098 -87.6672 88.9964 
-107.907 -88.8868 89.6129 -107.776 -90.1132 90.1879 -107.762 -91.4774 90.5683 
-107.861 -92.8793 90.748 -108.018 -94.0273 90.7917 -108.139 -94.8233 90.7614 
-103.04 -80.1777 76.4237 -103.32 -79.8545 77.5725 -103.221 -79.3242 75.9473 
-103.605 -79.0568 77.0759 -103.72 -78.5863 75.3512 -103.767 -79.7071 78.6982 
-104.326 -78.5209 76.3847 -104.57 -78.075 74.6567 -104.184 -78.9775 78.1859 
-104.514 -79.9295 79.6708 -105.264 -78.034 75.7407 -105.302 -77.4952 74.0819 
-104.98 -78.4407 77.5709 -104.976 -79.1314 79.3117 -105.376 -80.3219 80.6813 
-105.843 -77.2049 75.4205 -105.759 -76.6671 73.6708 -105.79 -77.7674 77.099 
-105.65 -78.3691 78.9014 -105.795 -79.3681 80.5411 -106.062 -80.5146 81.9159 
-106.266 -76.3219 75.2361 -106.358 -76.0242 73.3345 -106.291 -76.8968 76.8646 
-106.377 -77.6879 78.3926 -106.451 -78.6118 80.1587 -106.579 -79.6761 81.7101 
-106.683 -80.7401 83.0955 -107.054 -75.9051 74.9592 -107.243 -75.8162 73.0949 
-106.893 -76.2543 76.6771 -107.048 -77.1173 77.993 -107.297 -78.1755 79.5329 
-107.35 -79.1457 81.2776 -107.36 -80.1602 82.6922 -107.432 -81.2837 84.0829 
-108.028 -75.7839 74.6578 -108.127 -75.7028 72.9921 -107.79 -75.9553 76.4229 
-107.784 -76.6195 77.8384 -108.054 -77.6517 79.1819 -108.142 -78.586 80.8704 
-108.02 -79.5125 82.432 -108.044 -80.6822 83.714 -108.185 -81.8972 85.1018 
-108.804 -75.5769 74.4841 -108.831 -75.4349 73.0154 -108.636 -75.7191 76.1808 
-108.519 -76.1583 77.7811 -108.624 -76.9503 79.1885 -108.692 -77.7399 80.7418 
-108.513 -78.5436 82.3361 -108.415 -79.7371 83.6266 -108.585 -81.1526 84.8449 
-108.777 -82.3724 86.1468 -109.436 -75.2089 74.0283 -109.35 -75.3609 75.6712 
-110.066 -75.0458 75.3489 -109.999 -75.2239 77.1645 -110.905 -74.9982 76.8839 
-109.217 -75.6475 77.4543 -110.851 -75.3511 78.6306 -111.756 -75.2148 78.1818 
-109.859 -75.7408 78.8842 -109.138 -76.2579 79.099 -111.56 -76.0507 79.6196 
-112.159 -76.1297 79.038 -110.541 -76.3211 80.0425 -109.628 -76.5728 80.4246 
-109.091 -76.9678 80.6808 -111.894 -77.3719 80.4553 -112.222 -77.7157 79.9347 
-111.152 -77.4114 80.9586 -110.194 -77.4593 81.4865 -109.428 -77.3503 82.0139 
-108.915 -77.663 82.3126 -112.197 -78.8945 81.6785 -112.454 -79.3151 81.1419 
-111.756 -78.6053 82.17 -111.038 -78.5534 82.6377 -110.19 -78.4623 83.1038 
-109.361 -78.3783 83.5233 -108.763 -78.8495 83.7105 -112.711 -80.3534 82.9883 
-112.969 -80.5952 82.2936 -112.381 -79.941 83.5294 -111.91 -79.6269 83.9705 
-111.273 -79.6983 84.3029 -110.393 -79.8446 84.5622 -109.475 -80.0162 84.8283 
-108.904 -80.512 84.9387 -113.305 -81.6702 83.9615 -113.543 -81.6677 83.1614 
-112.943 -81.5438 84.5595 -112.49 -81.178 85.0355 -112.025 -81.0142 85.4658 
-111.42 -81.2282 85.734 -110.533 -81.4497 85.9413 -109.689 -81.6461 86.1688 
-109.167 -81.9901 86.2396 -113.791 -82.7679 84.7052 -113.97 -82.6864 83.8901 
-113.427 -82.9701 85.3451 -112.907 -82.9586 85.8332 -112.396 -82.7317 86.3537 
-111.972 -82.6185 86.8193 -111.388 -82.667 87.1039 -110.564 -82.7428 87.3154 
-109.818 -82.8959 87.4488 -109.298 -83.15 87.4077 -109.208 -84.4671 88.2301 
-109.721 -84.2683 88.4368 -109.702 -86.0188 89.1958 -110.409 -84.0711 88.5216 
-110.325 -85.9062 89.472 -110.379 -87.8555 90.4124 -111.236 -84.016 88.4063 
-111.094 -85.8067 89.5608 -111.069 -87.8585 90.6971 -111.079 -89.5452 91.7553 
-111.891 -84.1545 88.1214 -111.797 -85.9467 89.3002 -111.707 -88.0126 90.5779 
-111.712 -89.8018 91.9074 -111.719 -91.5066 92.743 -112.318 -84.3761 87.6862 
-112.273 -86.2145 88.8875 -112.174 -88.3452 90.0617 -112.16 -90.2801 91.5547 
-112.308 -92.0986 92.7732 -112.443 -94.413 93.3904 -112.838 -84.505 87.1531 
-112.778 -86.2428 88.5364 -112.647 -88.3986 89.7172 -112.564 -90.6079 91.056 
-112.759 -92.619 92.4542 -113.045 -94.9956 93.3632 -113.2 -97.5881 94.0832 
-113.448 -84.3719 86.6344 -113.408 -85.9895 88.1412 -113.289 -88.0928 89.5584 
-113.13 -90.5133 90.8539 -113.211 -92.7967 92.1308 -113.496 -95.2455 93.0819 
-113.694 -97.9204 93.8457 -113.756 -100.111 94.7574 -113.89 -84.0505 86.0367 
-113.854 -85.6817 87.5784 -113.787 -87.8572 89.152 -113.695 -90.4124 90.5696 
-113.67 -92.8605 91.8234 -113.812 -95.3371 92.7404 -113.975 -98.0694 93.4027 
-114.066 -100.489 94.213 -114.119 -102.184 95.0609 -114.109 -83.8576 85.2368 
-114.027 -85.5075 86.8176 -113.92 -87.8031 88.4816 -113.947 -90.5006 89.9883 
-114.011 -93.0466 91.2773 -114.046 -95.4785 92.2891 -114.115 -98.182 92.986 
-114.224 -100.806 93.64 -114.347 -102.808 94.3636 -114.449 -104.285 94.8711 
-109.048 -85.6328 88.6536 -109.631 -87.4585 89.83 -108.946 -86.9172 89.1929 
-110.259 -89.2459 91.2797 -109.469 -88.7911 90.6962 -108.803 -88.2192 89.8576 
-110.898 -91.0253 92.4647 -109.968 -90.5812 92.1267 -109.215 -90.1013 91.4704 
-108.616 -89.5405 90.4613 -111.69 -93.815 93.2116 -110.756 -93.0353 92.9923 
-109.877 -92.2689 92.6353 -109.171 -91.636 91.8572 -108.515 -90.9535 90.9492 
-112.586 -97.3502 94.0876 -111.811 -96.6407 93.8237 -111.038 -95.5043 93.4027 
-110.223 -94.3291 92.8175 -109.309 -93.3943 92.1341 -108.479 -92.5003 91.4178 
-113.309 -100.127 95.1134 -112.66 -99.8951 94.9872 -112.066 -99.1712 94.3664 
-111.493 -97.8257 93.5684 -110.517 -96.2985 92.9723 -109.357 -95.0777 92.4907 
-108.516 -94.022 91.7499 -113.81 -102.11 95.6313 -113.223 -102.011 95.7658 
-112.586 -101.842 95.2654 -112.211 -101.135 94.3235 -111.665 -99.5859 93.5121 
-110.563 -97.7967 93.0881 -109.482 -96.399 92.6063 -108.738 -95.2371 91.7676 
-114.228 -104.217 95.3742 -113.742 -104.041 95.6141 -113.046 -103.887 95.4182 
-112.556 -103.609 94.7831 -112.296 -102.641 93.9735 -111.657 -100.833 93.3812 
-110.66 -98.8977 92.9575 -109.815 -97.3613 92.352 -109.05 -96.0737 91.5561 
-114.725 -106.757 94.4861 -114.409 -106.808 94.7335 -115.004 -109.784 93.6357 
-114.593 -109.812 93.7412 -115.277 -112.622 92.8712 -113.821 -106.522 94.7796 
-114.749 -112.145 92.898 -115.522 -114.55 92.1872 -114.014 -109.057 93.775 
-113.166 -106.03 94.6133 -114.818 -113.491 91.9535 -115.595 -115.822 91.0417 
-114.183 -110.727 92.835 -113.493 -107.949 93.7825 -112.785 -105.314 94.2111 
-114.813 -114.332 90.8874 -115.419 -116.422 89.8613 -114.17 -111.685 91.8132 
-113.608 -109.232 92.8905 -112.968 -106.801 93.6649 -112.349 -103.911 93.6691 
-114.641 -114.302 90.3662 -114.994 -115.694 89.4439 -114.021 -112.13 91.1567 
-113.375 -109.956 92.0603 -112.723 -107.891 93.0299 -112.142 -105.115 93.3551 
-111.536 -101.783 93.1384 -114.009 -113.207 90.256 -114.264 -113.958 89.4942 
-113.526 -111.79 90.9314 -112.975 -110.009 91.5859 -112.343 -108.237 92.4261 
-111.77 -105.906 92.9499 -111.359 -102.696 92.798 -110.737 -99.6076 92.5178 
-113.028 -111.734 90.0438 -113.343 -112.097 89.4694 -112.589 -110.925 90.6065 
-112.277 -109.552 91.1555 -111.998 -107.849 91.8437 -111.585 -105.831 92.4244 
-111.218 -103.135 92.4052 -110.77 -100.173 92.0344 -109.976 -97.8004 91.7853 
-112.197 -110.149 89.8188 -112.513 -110.291 89.3753 -111.747 -109.703 90.2611 
-111.478 -108.727 90.7228 -111.455 -107.147 91.2853 -111.357 -105.186 91.8111 
-111.059 -102.907 91.9231 -110.589 -100.375 91.6263 -109.842 -98.0652 91.3188 
-108.928 -96.2869 91.0941 -114.769 -105.622 94.2409 -115.148 -108.406 93.6371 
-115.122 -106.807 93.6001 -115.539 -109.709 92.74 -115.352 -107.636 92.9456 
-115.54 -111.548 92.7577 -115.681 -110.583 91.8495 -115.324 -107.977 92.2283 
-116.036 -112.792 91.7759 -116.025 -114.268 92.1164 -115.516 -110.795 91.136 
-115.146 -107.683 91.6238 -116.237 -113.452 90.761 -116.744 -115.295 91.0302 
-116.418 -116.137 91.2581 -115.192 -110.054 90.8412 -114.899 -106.631 91.3221 
-116.016 -113.12 90.0808 -117.016 -115.458 89.8032 -117.082 -116.912 89.8498 
-116.257 -117.342 89.7564 -114.739 -108.362 90.8444 -114.592 -104.753 91.0129 
-115.365 -111.627 90.029 -116.583 -114.398 89.1339 -117.142 -116.499 88.6022 
-116.479 -117.668 88.386 -115.617 -117.375 88.6596 -114.335 -105.856 90.6416 
-114.33 -102.249 90.3108 -114.524 -109.211 90.2919 -115.479 -112.191 89.3426 
-116.49 -114.737 88.3077 -116.326 -116.562 87.7136 -115.482 -117.003 87.8436 
-114.877 -115.855 88.6076 -114.15 -102.902 90.0283 -114.076 -99.6629 89.3547 
-114.051 -106.167 90.2671 -114.356 -109.183 89.8462 -115.247 -111.819 88.877 
-115.735 -113.97 87.9735 -115.279 -115.182 87.7415 -114.604 -114.949 88.1877 
-114.054 -113.63 88.885 -113.948 -100.071 89.2045 -113.666 -97.443 88.425 
-113.959 -102.969 89.7771 -113.862 -105.85 89.929 -114.126 -108.361 89.4941 
[...]
CELL_DATA 2000
SCALARS Distance double
LOOKUP_TABLE default
151.359 152.083 151.94 152.464 152.983 152.774 153.357 153.19 153.851 
154.063 153.774 154.373 154.165 154.859 154.711 155.486 155.231 154.907 
155.48 155.236 155.96 155.791 156.605 156.448 157.3 156.395 156.083 
156.676 156.396 157.162 156.969 157.859 157.664 158.552 158.345 159.264 
157.609 157.294 157.977 157.671 158.493 158.263 159.216 159.005 159.934 
159.676 160.584 160.378 161.371 158.921 158.594 159.341 159.039 159.89 
159.65 160.609 160.406 161.367 161.107 162.025 161.76 162.752 162.568 
163.631 160.221 159.93 160.665 160.402 161.232 161.022 161.953 161.781 
162.759 162.548 163.518 163.255 164.277 164.039 165.141 164.916 165.976 
161.357 161.151 161.857 161.661 162.475 162.309 163.229 163.084 164.063 
163.91 164.914 164.732 165.778 165.586 166.683 166.477 167.543 167.266 
168.203 150.856 150.293 150.872 151.518 149.83 150.335 150.994 151.597 
152.372 149.663 150.017 150.67 151.142 151.945 152.571 153.472 149.656 
149.989 150.635 150.963 151.715 152.226 153.159 153.778 154.694 149.468 
149.929 150.591 150.964 151.645 152.069 152.924 153.504 154.439 155.011 
155.859 149.262 149.685 150.379 150.825 151.532 151.979 152.797 153.319 
154.239 154.781 155.662 156.17 157.021 149.444 149.65 150.369 150.674 
151.454 151.865 152.768 153.252 154.218 154.684 155.595 156.032 156.916 
157.397 158.312 149.916 150.016 150.717 150.863 151.636 151.921 152.85 
153.285 154.277 154.726 155.619 156.022 156.866 157.322 158.229 158.736 
159.635 150.341 150.475 151.121 151.263 151.961 152.188 153.016 153.393 
154.286 154.735 155.534 155.968 156.705 157.199 158.028 158.602 159.485 
160.011 160.802 150.741 151.641 151.285 151.532 152.808 152.294 152.54 
152.134 152.42 154.179 153.591 153.798 153.261 153.553 153.118 153.487 
155.47 154.964 155.169 154.591 154.807 154.305 154.633 154.249 154.671 
156.716 156.235 156.531 155.97 156.197 155.611 155.859 155.382 155.722 
155.395 155.809 158.19 157.623 158.04 157.428 157.796 157.125 157.444 
156.764 157.077 156.512 156.904 156.528 156.988 159.826 159.259 159.754 
159.102 159.551 158.856 159.294 158.552 158.953 158.157 158.553 157.865 
158.365 157.864 158.411 161.34 160.897 161.438 160.862 161.301 160.642 
161.075 160.421 160.882 160.155 160.565 159.759 160.184 159.479 159.991 
159.423 159.924 162.619 162.306 162.873 162.447 162.895 162.325 162.711 
162.119 162.554 161.971 162.391 161.712 162.052 161.33 161.68 161.047 
161.434 160.879 161.231 162.058 162.339 162.611 163.514 162.673 162.944 
163.934 164.232 165.353 163.082 163.352 164.393 164.705 165.894 166.244 
167.455 163.412 163.763 164.803 165.163 166.343 166.762 168.015 168.357 
169.509 163.577 164.014 165.059 165.497 166.625 167.111 168.349 168.832 
170.077 170.412 171.658 163.72 164.151 165.218 165.689 166.813 167.313 
168.528 169.078 170.387 170.903 172.261 172.682 174.102 163.847 164.287 
165.319 165.82 166.96 167.484 168.715 169.261 170.59 171.167 172.56 
173.139 174.55 175.093 176.434 163.766 164.292 165.237 165.824 166.938 
167.573 168.832 169.451 170.775 171.368 172.714 173.329 174.677 175.32 
176.609 177.18 178.282 163.473 164.054 164.936 165.594 166.667 167.425 
168.703 169.475 170.812 171.494 172.78 173.408 174.676 175.332 176.589 
177.223 178.359 178.845 179.76 162.139 163.639 162.816 162.74 165.534 
164.538 164.528 163.552 163.483 167.626 166.596 166.612 165.54 165.498 
164.416 164.327 169.649 168.667 168.677 167.651 167.611 166.529 166.435 
165.315 165.194 171.911 170.803 170.914 169.768 169.801 168.669 168.638 
167.485 167.392 166.223 166.095 174.563 173.395 173.743 172.369 172.571 
171.149 171.239 169.859 169.851 168.537 168.466 167.193 167.058 176.986 
176.106 176.581 175.386 175.663 174.223 174.329 172.767 172.726 171.189 
171.084 169.675 169.552 168.208 168.025 178.782 178.234 178.657 177.884 
178.082 177.056 177.077 175.791 175.633 174.13 173.843 172.334 172.068 
170.696 170.465 169.138 168.862 180.18 179.766 180.136 179.576 179.716 
178.994 178.986 178.094 177.958 176.782 176.442 175.006 174.566 173.138 
172.768 171.467 171.128 169.85 169.467 181.082 182.483 181.537 181.003 
183.946 182.928 182.237 181.26 180.531 185.13 184.242 183.42 182.432 
181.543 180.62 179.795 185.678 185.06 184.117 183.365 182.418 181.584 
180.67 179.806 178.859 185.661 185.275 184.263 183.724 182.773 182.219 
181.331 180.616 179.571 178.679 177.438 185.127 185.042 184.084 183.69 
182.7 182.322 181.469 181.031 179.996 179.25 177.888 176.968 175.534 
183.948 184.237 183.376 183.306 182.292 182.078 181.162 180.931 179.946 
179.449 178.11 177.295 175.798 174.956 173.619 182.333 182.826 182.043 
182.303 181.353 181.41 180.455 180.419 179.443 179.2 177.962 177.368 
175.893 175.136 173.738 173.062 171.872 180.672 181.182 180.496 180.865 
180.049 180.277 179.397 179.517 178.569 178.53 177.378 177.051 175.649 
175.082 173.636 173.047 171.76 171.26 170.134 181.27 181.944 182.003 
182.763 182.424 182.65 183.532 183.586 184.325 182.518 182.991 183.965 
184.28 185.195 185.185 185.695 182.151 182.876 183.92 184.536 185.578 
185.921 186.599 186.382 186.437 181.38 182.305 183.321 184.213 185.257 
186.006 186.744 186.994 187.111 186.77 186.399 180.156 181.299 182.178 
183.276 184.17 185.26 185.952 186.688 186.81 186.984 186.59 186.345 
185.692 178.404 179.771 180.515 181.779 182.457 183.75 184.343 185.456 
185.625 186.244 185.885 186.057 185.383 185.263 184.408 176.323 177.786 
178.479 179.84 180.372 181.723 182.17 183.495 183.693 184.71 184.46 
185.017 184.399 184.593 183.763 183.697 182.746 174.23 175.639 176.317 
177.693 178.189 179.506 179.828 181.139 181.26 182.488 182.3 183.255 
182.731 183.318 182.552 182.802 181.905 181.913 180.992 163.549 164.256 
164.262 165.068 165.23 165.144 166.066 165.984 166.927 166.401 166.301 
167.388 167.238 168.357 168.126 169.146 167.586 167.573 168.822 168.737 
170.005 169.774 170.899 170.501 171.395 168.654 168.764 170.115 170.186 
171.552 171.456 172.635 172.309 173.224 172.709 173.412 169.685 169.847 
171.31 171.468 172.951 172.963 174.259 174.026 175.053 174.577 175.369 
174.719 175.356 170.858 171.002 172.634 172.78 174.441 174.452 175.927 
175.72 176.946 176.511 177.486 176.82 177.554 176.74 177.317 172.112 
172.297 174.04 174.233 176.008 176.068 177.63 177.476 178.767 178.442 
179.495 178.974 179.748 178.995 179.518 178.655 179.061 173.207 173.514 
175.218 175.561 177.282 177.536 179.043 179.076 180.271 180.115 181.072 
180.776 181.498 180.991 181.445 180.725 180.999 180.198 180.41 162.74 
161.732 162.598 163.402 160.799 161.615 162.432 163.353 164.293 159.888 
160.676 161.43 162.371 163.306 164.307 165.344 158.841 159.668 160.335 
161.309 162.22 163.277 164.297 165.364 166.434 157.723 158.54 159.167 
160.134 161.005 162.117 163.141 164.265 165.303 166.405 167.448 156.754 
157.475 158.076 158.951 159.744 160.83 161.818 163.018 164.063 165.226 
166.239 167.359 168.404 155.944 156.593 157.152 157.914 158.615 159.57 
160.466 161.627 162.665 163.902 164.953 166.128 167.166 168.322 169.46 
155.191 155.805 156.345 157.043 157.722 158.532 159.366 160.344 161.331 
162.491 163.57 164.795 165.877 167.073 168.185 169.416 170.63 154.522 
155.072 155.617 156.275 156.985 157.733 158.566 159.388 160.297 161.262 
162.263 163.411 164.479 165.72 166.811 168.081 169.222 170.54 171.717 
154.361 154.562 154.766 155.472 154.91 155.074 155.876 156.069 156.923 
155.427 155.536 156.417 156.592 157.547 157.685 158.579 156.14 156.19 
157.075 157.192 158.144 158.324 159.267 159.384 160.281 156.865 156.964 
157.83 157.89 158.755 158.891 159.829 160.025 161.009 161.148 162.165 
157.439 157.621 158.513 158.624 159.497 159.568 160.534 160.657 161.754 
161.909 163.074 163.191 164.357 158.044 158.182 159.136 159.287 160.303 
160.404 161.513 161.571 162.78 162.839 164.12 164.2 165.495 165.536 
166.75 158.82 158.885 159.9 160.012 161.158 161.298 162.557 162.671 
163.98 164.03 165.359 165.39 166.756 166.782 168.121 168.049 169.251 
159.638 159.721 160.767 160.881 162.057 162.222 163.517 163.712 165.065 
165.219 166.585 166.675 168.08 168.13 169.55 169.516 170.834 170.642 
171.79 160.397 162.048 161.344 161.632 163.914 163.139 163.512 162.709 
163.02 166.097 165.196 165.668 164.759 165.176 164.241 164.572 168.658 
167.66 168.296 167.204 167.748 166.629 167.057 165.936 166.233 171.318 
170.395 171.199 170.096 170.768 169.511 170.033 168.698 169.054 167.71 
167.909 173.852 173.046 173.914 172.988 173.721 172.603 173.178 171.865 
172.279 170.803 171.033 169.483 169.564 176.284 175.552 176.454 175.621 
176.388 175.414 176.014 174.896 175.357 174.052 174.326 172.784 172.844 
171.175 171.111 178.421 177.891 178.846 178.139 178.984 178.065 178.719 
177.642 178.126 176.958 177.263 175.935 175.992 174.444 174.288 172.625 
172.382 180.006 179.777 180.754 180.354 181.254 180.59 181.301 180.349 
180.824 179.678 179.925 178.678 178.701 177.342 177.151 175.646 175.305 
173.705 173.305 159.959 159.771 160.408 161.55 159.602 160.242 161.431 
162.102 163.375 159.394 160.07 161.26 161.981 163.303 164.025 165.464 
159.03 159.787 160.943 161.742 163.062 163.902 165.394 166.234 167.864 
158.54 159.342 160.513 161.358 162.685 163.59 165.125 166.089 167.783 
168.718 170.434 158.097 158.856 160.085 160.939 162.336 163.237 164.818 
165.801 167.568 168.586 170.391 171.305 172.993 157.848 158.497 159.731 
160.561 162.015 162.936 164.536 165.518 167.281 168.348 170.22 171.246 
173.031 173.867 175.456 157.805 158.345 159.531 160.268 161.703 162.62 
164.211 165.206 166.896 167.989 169.82 170.984 172.815 173.836 175.445 
176.23 177.589 157.864 158.356 159.485 160.12 161.473 162.32 163.87 
164.844 166.479 167.536 169.271 170.462 172.262 173.451 175.063 176.037 
177.329 178.096 179.158 158.966 157.47 158.382 158.738 155.982 156.878 
157.193 158.141 158.534 154.498 155.375 155.673 156.596 156.946 157.936 
158.328 153.134 153.912 154.181 155.067 155.377 156.333 156.665 157.669 
157.979 151.986 152.624 152.806 153.586 153.826 154.733 154.995 155.971 
156.222 157.226 157.475 150.922 151.507 151.565 152.226 152.315 153.136 
153.304 154.257 154.476 155.466 155.717 156.722 157.028 149.781 150.373 
150.351 150.958 150.908 151.603 151.648 152.528 152.725 153.72 154.016 
155.022 155.385 156.385 156.806 148.67 149.187 149.152 149.724 149.688 
150.264 150.272 150.96 151.126 152.011 152.338 153.347 153.762 154.793 
155.263 156.275 156.777 147.853 148.175 148.155 148.615 148.683 149.184 
149.282 149.793 149.949 150.594 150.887 151.745 152.161 153.169 153.655 
154.717 155.246 156.293 156.83 147.539 147.241 147.469 147.762 147.04 
147.228 147.517 147.824 148.284 146.848 147.027 147.297 147.599 148.04 
148.418 148.914 146.776 146.843 146.993 147.268 147.624 148.094 148.599 
149.041 149.564 147.074 146.924 146.994 146.996 147.246 147.599 148.147 
148.676 149.323 149.769 150.446 147.787 147.48 147.664 147.329 147.596 
147.512 148.115 148.396 149.224 149.62 150.45 150.83 151.687 148.71 
148.379 148.703 148.295 148.652 148.289 148.884 148.795 149.664 149.812 
150.744 150.986 151.915 152.236 153.196 149.645 149.344 149.682 149.371 
149.753 149.441 149.968 149.774 150.53 150.509 151.4 151.487 152.423 
152.609 153.605 153.871 154.858 150.54 150.25 150.564 150.298 150.678 
150.444 150.944 150.779 151.453 151.397 152.229 152.251 153.173 153.258 
154.252 154.413 155.429 155.608 156.533 151.153 152.226 151.495 151.197 
153.632 152.733 152.426 151.621 151.368 155.316 154.323 154.078 153.08 
152.828 151.922 151.731 157.15 156.128 155.975 154.918 154.732 153.64 
153.445 152.442 152.329 159.146 158.077 157.988 156.908 156.806 155.687 
155.546 154.395 154.269 153.204 153.16 161.324 160.214 160.197 159.04 
158.979 157.825 157.753 156.593 156.514 155.341 155.281 154.165 154.155 
163.596 162.486 162.542 161.363 161.337 160.11 160.052 158.848 158.808 
157.633 157.601 156.423 156.396 155.245 155.256 165.877 164.783 164.849 
163.717 163.738 162.537 162.502 161.244 161.176 159.943 159.885 158.718 
158.675 157.531 157.5 156.376 156.388 168.063 167.029 167.072 165.986 
166.022 164.905 164.921 163.719 163.648 162.362 162.222 160.978 160.861 
159.726 159.647 158.565 158.499 157.446 157.411 158.244 159.388 159.167 
159.917 160.592 160.399 161.284 161.023 161.945 161.888 161.698 162.744 
162.524 163.629 163.312 164.391 163.366 163.149 164.339 164.125 165.421 
165.146 166.393 165.955 167.069 164.882 164.74 166.03 165.846 167.259 
167.048 168.479 168.099 169.37 168.778 169.922 166.17 166.202 167.558 
167.527 168.988 168.904 170.441 170.227 171.66 171.183 172.43 171.761 
172.909 167.257 167.389 168.8 168.936 170.458 170.541 172.112 172.096 
173.585 173.363 174.633 174.175 175.26 174.661 175.628 168.299 168.449 
169.88 170.098 171.669 171.893 173.489 173.625 175.088 175.065 176.281 
176.071 177.052 176.699 177.54 177.068 177.795 169.26 169.453 170.826 
171.103 172.625 172.974 174.55 174.842 176.266 176.377 177.528 177.455 
178.376 178.184 178.976 178.687 179.391 178.973 179.568 149.725 149.237 
149.178 148.53 148.746 148.638 147.968 147.918 147.343 148.578 148.267 
147.642 147.45 146.926 146.869 146.547 148.789 148.321 147.728 147.36 
146.906 146.664 146.384 146.324 146.261 148.982 148.575 147.957 147.578 
147.108 146.805 146.494 146.315 146.239 146.245 146.376 149.026 148.678 
148.042 147.728 147.207 146.966 146.585 146.416 146.26 146.262 146.41 
146.518 146.782 149.247 148.797 148.212 147.806 147.305 147.02 146.666 
146.472 146.288 146.246 146.346 146.508 146.796 146.962 147.197 149.76 
149.218 148.722 148.166 147.721 147.265 146.974 146.659 146.525 146.348 
146.396 146.437 146.66 146.857 147.075 147.249 147.372 150.357 149.84 
149.418 148.841 148.434 147.869 147.552 147.112 146.941 146.668 146.653 
146.559 146.686 146.747 146.922 147.052 147.183 147.329 147.457 149.771 
148.626 149.321 149.583 147.493 148.164 148.496 149.219 149.655 146.713 
147.184 147.568 148.208 148.719 149.443 150.037 146.403 146.633 147.015 
147.479 148.042 148.642 149.291 149.963 150.622 146.473 146.485 146.792 
147.093 147.67 148.155 148.84 149.377 150.061 150.634 151.264 146.845 
146.678 146.866 146.967 147.495 147.896 148.619 149.079 149.75 150.196 
150.793 151.288 151.844 147.28 147.107 147.227 147.153 147.572 147.812 
148.509 148.916 149.575 149.951 150.475 150.873 151.381 151.858 152.383 
147.518 147.477 147.629 147.552 147.886 147.98 148.559 148.849 149.456 
149.777 150.272 150.596 151.075 151.462 151.985 152.429 152.956 147.663 
147.681 147.924 147.913 148.245 148.295 148.771 148.942 149.478 149.703 
150.209 150.457 150.974 151.268 151.819 152.149 152.687 153.05 153.548 
150.404 150.276 150.647 151.34 150.397 150.656 151.411 151.724 152.538 
150.773 150.921 151.676 151.908 152.729 153.047 153.904 151.288 151.364 
152.055 152.218 152.959 153.238 154.038 154.386 155.167 151.843 151.879 
152.499 152.598 153.285 153.482 154.258 154.534 155.33 155.614 156.398 
152.392 152.415 153.006 153.054 153.751 153.882 154.746 154.924 155.828 
155.957 156.805 156.963 157.848 152.939 152.962 153.572 153.593 154.289 
154.398 155.308 155.525 156.533 156.658 157.531 157.549 158.365 158.506 
159.416 153.486 153.516 154.149 154.183 154.857 154.941 155.757 156.015 
156.98 157.281 158.145 158.27 158.965 159.041 159.787 160.02 160.873 
154.019 154.05 154.672 154.742 155.399 155.481 156.186 156.378 157.194 
157.538 158.368 158.673 159.367 159.533 160.178 160.355 161.094 161.378 
162.158 158.776 157.972 158.01 157.288 157.181 157.174 156.419 156.494 
155.781 156.529 156.408 155.57 155.588 154.846 154.963 154.288 155.949 
155.795 154.918 154.815 154.07 154.083 153.447 153.534 152.966 155.295 
155.204 154.42 154.289 153.622 153.507 152.924 152.85 152.306 152.335 
151.864 154.674 154.593 153.945 153.863 153.297 153.188 152.622 152.473 
151.862 151.767 151.211 151.278 150.816 154.234 154.108 153.526 153.444 
152.891 152.826 152.217 152.123 151.43 151.317 150.639 150.627 150.076 
150.197 149.71 153.94 153.777 153.2 153.076 152.477 152.373 151.712 
151.621 150.929 150.833 150.161 150.08 149.502 149.509 149.032 149.112 
148.665 153.766 153.55 152.969 152.783 152.171 151.988 151.343 151.17 
150.553 150.403 149.833 149.688 149.162 149.056 148.615 148.583 148.223 
148.225 147.907 
POINT_DATA 1002
SCALARS Distance double
LOOKUP_TABLE default
151.791 150.838 151.451 152.582 152.219 153.023 153.524 153.21 153.969 
154.563 154.592 154.39 155.007 155.604 156.293 155.74 155.565 156.111 
156.763 157.45 158.161 156.949 156.676 157.341 158.035 158.782 159.426 
160.206 158.259 157.894 158.726 159.416 160.2 160.824 161.505 162.402 
159.631 159.239 160.135 160.81 161.604 162.299 162.953 163.798 164.693 
160.923 160.502 161.441 162.122 162.931 163.742 164.513 165.367 166.259 
166.976 162.031 161.54 162.62 163.365 164.201 165.058 165.943 166.879 
167.807 168.565 169.068 150.282 150.886 149.715 150.409 149.371 151.69 
150.275 149.348 151.331 152.816 150.349 149.274 151.286 152.532 154.13 
150.168 148.968 151.262 152.392 153.851 155.34 149.924 148.899 151.05 
152.287 153.716 155.154 156.497 150.133 149.307 151.053 152.262 153.756 
155.186 156.448 157.804 150.615 149.832 151.409 152.45 153.839 155.239 
156.435 157.718 159.168 150.981 150.215 151.77 152.709 153.891 155.13 
156.237 157.447 158.923 160.366 151.029 151.849 152.049 152.99 153.389 
152.786 154.398 154.754 154.011 153.865 155.744 155.915 155.368 155.044 
154.994 157.05 157.187 156.802 156.425 156.111 156.065 158.637 158.752 
158.437 158.151 157.759 157.364 157.285 160.392 160.338 160.237 159.982 
159.75 159.351 158.948 158.865 161.965 161.719 161.96 161.711 161.534 
161.366 160.98 160.626 160.485 163.237 162.902 163.419 163.309 163.117 
163.016 162.794 162.386 162.031 161.789 162.847 163.198 164.499 163.604 
165.003 166.561 164.07 165.511 167.171 168.635 164.43 165.913 167.61 
169.268 170.628 164.601 166.151 167.817 169.625 171.343 173.009 164.739 
166.319 167.976 169.797 171.745 173.7 175.605 164.815 166.405 168.161 
170.013 171.963 173.978 175.98 177.722 164.644 166.255 168.158 170.184 
172.135 174.052 176.009 177.844 179.282 164.283 165.886 167.868 170.091 
172.17 174.043 175.942 177.823 179.414 180.589 163.572 165.546 164.467 
167.683 166.611 165.419 169.686 168.663 167.562 166.327 172.102 170.96 
169.786 168.568 167.285 175.083 174.055 172.708 171.227 169.762 168.355 
177.637 177.028 175.915 174.373 172.584 170.911 169.394 179.346 178.991 
178.229 177.092 175.44 173.51 171.786 170.217 180.674 180.394 179.767 
178.966 177.82 176.073 174.122 172.4 170.769 181.993 181.953 183.516 
183.33 185.004 181.443 184.402 185.991 182.538 180.661 184.793 186.258 
183.165 181.562 179.796 184.781 185.951 183.223 181.94 180.497 178.426 
184.401 185.035 183.075 181.81 180.663 178.834 176.412 183.283 183.532 
182.45 181.355 180.325 178.856 176.648 174.34 181.669 181.804 181.182 
180.431 179.583 178.426 176.609 174.428 172.448 180.076 180.139 179.747 
179.221 178.543 177.588 176.127 174.216 172.267 170.566 181.234 182.79 
181.816 183.353 182.113 184.463 183.519 181.934 185.036 186.095 183.188 
181.344 185.065 186.64 187.067 182.394 180.416 184.393 186.318 187.281 
186.992 181.099 178.966 183.052 185.074 186.469 186.684 186.096 179.261 
176.995 181.196 183.132 184.83 185.58 185.393 184.662 177.113 174.871 
179.076 180.853 182.534 183.725 184.081 183.728 182.904 174.943 172.88 
176.902 178.6 180.042 181.216 181.97 182.153 181.78 181.034 163.466 
165.041 164.266 166.132 165.297 167.033 167.48 166.432 168.561 169.487 
168.816 167.519 170.179 171.284 171.933 169.966 168.484 171.573 172.912 
173.716 174.031 171.098 169.482 172.875 174.414 175.46 175.994 176.093 
172.434 170.666 174.38 176.079 177.298 178.091 178.384 178.196 173.802 
171.879 175.898 177.759 179.066 179.949 180.457 180.414 179.954 161.854 
162.478 160.867 161.502 160.032 163.319 160.497 159.14 162.294 164.308 
159.374 158.016 161.139 163.23 165.355 158.237 156.922 159.896 161.985 
164.212 166.346 157.271 156.072 158.726 160.614 162.859 165.123 167.251 
156.44 155.324 157.749 159.376 161.412 163.728 166.012 168.237 155.654 
154.597 156.945 158.476 160.25 162.337 164.649 166.973 169.349 154.968 