# vtk DataFile Version 4.0
vtk output
ASCII
DATASET POLYDATA
POINTS 1002 float
-104.813 -77.6169 77.6397 -104.841 -76.9088 76.5034 -105.282 -76.68 77.4721 
-105.333 -77.4741 78.6745 -105.661 -76.3726 78.6381 -104.85 -78.5369 78.9608 
-105.791 -77.2908 79.9273 -106.151 -76.2105 79.9013 -105.47 -78.5174 80.0391 
-104.972 -79.5606 80.4417 -106.352 -77.3023 81.2537 -106.954 -76.4318 81.0073 
-105.989 -78.4495 81.3774 -105.592 -79.6283 81.6308 -105.226 -80.6527 81.9833 
-107.228 -77.6273 82.368 -107.934 -76.8227 81.9813 -106.587 -78.5231 82.7541 
-106.092 -79.6429 83.1014 -105.756 -80.8573 83.3913 -105.62 -82.0198 83.5838 
-108.209 -77.9886 83.4082 -108.741 -77.0555 83.1409 -107.484 -78.8463 83.8384 
-106.796 -79.8315 84.3762 -106.4 -81.1179 84.8024 -106.233 -82.4721 85.0351 
-106.168 -83.7086 85.1998 -108.958 -78.2886 84.6501 -109.377 -77.3165 84.3953 
-108.411 -79.2888 84.9101 -107.779 -80.3192 85.3072 -107.39 -81.6085 85.743 
-107.222 -83.0524 86.0851 -107.037 -84.3519 86.3822 -106.887 -85.5323 86.6786 
-109.602 -78.7804 85.8258 -110.084 -77.8561 85.3975 -109.11 -79.8138 86.1673 
-108.62 -80.9223 86.4523 -108.338 -82.2426 86.6961 -108.264 -83.7447 86.9347 
-108.102 -85.1228 87.2462 -107.826 -86.3118 87.6443 -107.668 -87.4838 88.0013 
-110.346 -79.467 86.6943 -110.849 -78.5453 86.1787 -109.78 -80.4439 87.2365 
-109.255 -81.5063 87.7209 -108.948 -82.8064 88.0242 -108.88 -84.368 88.1954 
-108.837 -85.9164 88.3777 -108.668 -87.2377 88.6404 -108.478 -88.4291 88.9658 
-108.413 -89.6027 89.2374 -111.082 -80.1357 87.4123 -111.502 -79.1892 86.9301 
-110.532 -81.0916 87.9879 -109.955 -82.1048 88.6198 -109.535 -83.3591 89.1196 
-109.329 -84.9278 89.434 -109.26 -86.6132 89.6757 -109.244 -88.1526 89.8572 
-109.209 -89.4774 90.0037 -109.154 -90.6784 90.1878 -109.142 -91.7936 90.3602 
-105.228 -76.1854 75.9502 -105.624 -75.8316 77.0269 -105.689 -75.3918 75.2882 
-106.16 -74.9713 76.4483 -106.238 -74.4786 74.5696 -106.085 -75.4756 78.261 
-106.871 -74.1047 75.8123 -106.926 -73.6469 73.9418 -106.863 -74.7056 77.6906 
-106.814 -75.4077 79.4722 -107.722 -73.4336 75.2437 -107.94 -73.183 73.3969 
-107.708 -73.9873 77.1208 -107.727 -74.7097 78.9179 -107.75 -75.6713 80.5382 
-108.898 -73.0413 74.6866 -109.221 -72.8651 72.9092 -108.557 -73.3537 76.6315 
-108.475 -73.9466 78.5172 -108.538 -74.8305 80.1611 -108.606 -75.93 81.6806 
-110.18 -72.5736 74.1945 -110.257 -72.2844 72.5695 -109.736 -72.8206 76.0746 
-109.313 -73.2285 78.1279 -109.278 -73.9851 79.9337 -109.334 -75.0288 81.471 
-109.316 -76.1474 82.9871 -111.012 -71.8564 73.9122 -110.881 -71.5575 72.3104 
-110.898 -72.2315 75.6068 -110.487 -72.6832 77.5617 -110.264 -73.3627 79.5509 
-110.281 -74.346 81.2127 -110.179 -75.4465 82.7007 -110.052 -76.5795 84.1456 
-111.516 -71.1362 73.7684 -111.502 -70.9748 72.0321 -111.581 -71.5475 75.4459 
-111.458 -72.1514 77.1298 -111.268 -72.8797 79.0163 -111.238 -73.7899 80.8475 
-111.167 -74.869 82.3764 -110.954 -75.9884 83.7643 -110.83 -77.2028 85.0635 
-112.162 -70.5821 73.6679 -112.338 -70.5742 71.8462 -112.103 -70.8803 75.4628 
-112.074 -71.51 77.0206 -111.996 -72.3133 78.6358 -111.948 -73.1618 80.4785 
-111.914 -74.1515 82.1685 -111.767 -75.3001 83.5266 -111.585 -76.5342 84.7573 
-111.509 -77.8551 85.9193 -113.126 -70.2083 73.0251 -112.91 -70.2402 75.0137 
-113.905 -69.9744 74.4243 -113.769 -70.1077 76.3171 -114.605 -70.1419 75.6196 
-112.79 -70.6987 76.7773 -114.637 -70.6059 77.383 -115.129 -71.0404 76.6688 
-113.735 -70.8733 77.9616 -112.739 -71.5652 78.312 -115.217 -71.9641 78.5628 
-115.458 -72.6174 78.0103 -114.688 -71.7903 79.1372 -113.7 -71.9898 79.6671 
-112.673 -72.4958 80.1116 -115.587 -73.7114 80.0353 -115.976 -74.3506 79.5403 
-115.179 -73.3267 80.5268 -114.544 -73.0268 81.1123 -113.528 -72.9733 81.7272 
-112.58 -73.4267 82.0763 -116.301 -75.2836 81.4553 -116.774 -75.8297 80.8707 
-115.572 -74.9047 81.9553 -114.962 -74.4696 82.4661 -114.269 -74.0492 83.1214 
-113.312 -74.0684 83.5955 -112.45 -74.6207 83.6394 -117.067 -76.6535 82.6474 
-117.196 -77.1177 82.0023 -116.332 -76.356 83.2135 -115.454 -76.0186 83.6357 
-114.819 -75.6115 84.1435 -114.086 -75.4046 84.6804 -113.122 -75.585 84.9238 
-112.276 -76.0506 84.858 -117.188 -78.0937 83.7132 -117.025 -78.5294 83.0786 
-116.831 -77.8609 84.3185 -116.043 -77.6614 84.7113 -115.333 -77.3696 85.0663 
-114.753 -77.1354 85.5259 -113.902 -77.0856 85.9308 -112.915 -77.2304 86.0963 
-112.138 -77.5292 86.0364 -116.931 -79.8082 84.7338 -116.795 -80.215 84.125 
-116.773 -79.5623 85.345 -116.239 -79.4236 85.7342 -115.615 -79.2111 86.0156 
-115.149 -78.9231 86.4132 -114.549 -78.7063 86.8686 -113.627 -78.636 87.1948 
-112.732 -78.7349 87.2754 -112.07 -78.9585 87.1338 -111.838 -80.4213 88.004 
-112.448 -80.2478 88.2847 -112.185 -81.8533 89.0676 -113.22 -80.1087 88.4262 
-112.909 -81.7973 89.3486 -112.606 -83.7343 90.045 -114.152 -80.1654 88.2938 
-113.775 -81.8214 89.5026 -113.43 -83.8578 90.3301 -113.026 -86.0683 91.0734 
-114.868 -80.4864 87.8745 -114.56 -82.1579 89.3471 -114.254 -84.1159 90.5157 
-113.844 -86.2769 91.4277 -113.349 -88.3567 92.2553 -115.259 -80.9271 87.3412 
-115.02 -82.7508 88.8035 -114.837 -84.6514 90.2489 -114.571 -86.5921 91.5655 
-114.171 -88.5566 92.6405 -113.705 -90.5931 93.3309 -115.738 -81.2504 86.9981 
-115.463 -83.2098 88.2945 -115.329 -85.1396 89.6392 -115.125 -86.9856 91.147 
-114.888 -88.8577 92.6601 -114.572 -91.0183 93.6608 -114.179 -93.5239 94.033 
-116.366 -81.4354 86.7607 -116.175 -83.4505 88.1276 -116.079 -85.3506 89.3538 
-115.762 -87.2199 90.6455 -115.414 -89.2501 92.2271 -115.228 -91.5725 93.6 
-114.964 -94.2803 94.2417 -114.653 -97.1924 94.3924 -116.791 -81.6575 86.2713 
-116.833 -83.7214 87.8585 -116.861 -85.6036 89.2635 -116.486 -87.4352 90.4609 
-115.888 -89.668 91.8021 -115.584 -92.2482 93.2045 -115.467 -94.9677 94.0745 
-115.258 -97.8581 94.374 -115.1 -100.727 94.5128 -116.893 -81.9685 85.5786 
-117.109 -84.0267 87.2066 -117.214 -85.976 88.7944 -116.893 -87.7957 90.1323 
-116.255 -90.0534 91.3747 -115.824 -92.8229 92.6668 -115.729 -95.5336 93.631 
-115.662 -98.1339 94.0437 -115.571 -100.869 94.231 -115.604 -103.501 94.4396 
-111.406 -81.4935 88.5108 -111.772 -83.2092 89.596 -110.87 -82.6238 89.1255 
-112.223 -85.5429 90.65 -111.371 -84.7786 90.1814 -110.397 -83.9737 89.7195 
-112.624 -88.0772 91.8205 -111.968 -87.4943 91.2576 -111.109 -86.5943 90.6238 
-110.083 -85.6476 90.1429 -112.953 -90.3697 92.9664 -112.432 -90.0253 92.4695 
-111.867 -89.4212 91.6544 -110.913 -88.4973 90.9662 -109.888 -87.4816 90.5261 
-113.422 -93.1568 93.7314 -112.855 -92.6496 93.4256 -112.42 -92.0938 92.8471 
-111.758 -91.3753 91.9943 -110.782 -90.3799 91.4191 -109.862 -89.2548 90.8768 
-114.054 -96.9752 94.1736 -113.507 -96.3624 93.8994 -112.99 -95.5419 93.6371 
-112.393 -94.6284 93.1086 -111.686 -93.5296 92.3979 -110.842 -92.236 91.795 
-109.961 -90.8482 91.0442 -114.701 -100.984 94.499 -114.304 -100.672 94.2218 
-113.808 -99.8743 93.9265 -113.092 -98.7466 93.7222 -112.362 -97.3188 93.3194 
-111.725 -95.6721 92.6711 -110.935 -93.9482 91.9599 -109.997 -92.2469 91.139 
-115.336 -104.233 94.6399 -115.021 -104.352 94.4892 -114.621 -103.854 94.0607 
-113.974 -102.856 93.7786 -113.12 -101.393 93.6951 -112.374 -99.5469 93.3876 
-111.715 -97.5014 92.7804 -110.881 -95.4264 92.0777 -109.948 -93.4819 91.2815 
-116.112 -106.4 94.3802 -115.792 -107.099 94.4941 -116.673 -108.959 93.909 
-116.071 -109.415 93.7823 -116.997 -111.067 92.8964 -115.323 -107.059 94.1407 
-116.085 -111.359 92.6277 -117.025 -113.126 91.7582 -115.356 -109.175 93.2499 
-114.79 -106.365 93.5959 -116.038 -113.243 91.5546 -116.791 -115.234 90.8176 
-115.323 -110.946 92.1492 -114.808 -108.239 92.8007 -114.057 -105.089 93.4349 
-115.832 -114.612 90.6894 -116.185 -116.388 89.8573 -115.319 -112.327 91.2494 
-114.796 -109.675 91.9404 -114.069 -106.718 92.8752 -113.129 -103.316 93.4991 
-115.215 -114.816 89.9051 -115.305 -115.96 88.9117 -114.992 -112.9 90.5866 
-114.552 -110.553 91.2012 -113.884 -107.917 92.1496 -113.032 -104.802 93.056 
-112.277 -101.146 93.2514 -114.329 -114.144 89.3128 -114.433 -114.681 88.3469 
-114.245 -112.772 90.1021 -113.981 -110.772 90.6485 -113.482 -108.468 91.404 
-112.809 -105.74 92.3874 -112.089 -102.334 92.9322 -111.464 -98.672 92.7124 
-113.429 -113.064 88.9509 -113.665 -113.187 88.1986 -113.339 -112.218 89.7305 
-113.279 -110.538 90.2747 -113.062 -108.322 90.846 -112.623 -105.8 91.699 
-111.973 -102.786 92.4284 -111.234 -99.3893 92.514 -110.552 -96.1751 92.0091 
-112.67 -111.458 88.7446 -113 -111.32 88.2582 -112.523 -111.01 89.4245 
-112.577 -109.712 90.0173 -112.61 -107.633 90.5405 -112.397 -105.158 91.2098 
-111.868 -102.438 91.8655 -111.11 -99.4811 92.0779 -110.332 -96.5669 91.7365 
-109.672 -93.9856 91.0846 -116.061 -104.094 94.0524 -116.674 -107.032 93.8376 
-116.38 -104.196 93.5729 -116.942 -107.259 93.1882 -116.478 -104.079 93.0481 
-117.325 -109.738 93.1045 -116.905 -107.297 92.4692 -116.432 -104.001 92.3814 
-117.504 -110.23 92.1505 -117.696 -112.121 91.883 -116.848 -107.087 91.6875 
-116.254 -103.788 91.7004 -117.331 -110.275 91.177 -117.798 -112.926 90.7219 
-117.667 -114.635 90.7428 -116.642 -106.388 91.1583 -115.827 -102.981 91.2115 
-117.156 -109.476 90.4755 -117.528 -112.675 89.7154 -117.739 -115.489 89.5723 
-117.185 -116.805 89.765 -115.973 -105.071 90.9598 -115.305 -101.299 90.7476 
-116.646 -108.075 90.3685 -117.125 -111.009 89.3385 -117.498 -114.398 88.7167 
-117.24 -116.846 88.6088 -116.284 -117.155 88.6607 -115.215 -102.867 90.6335 
-114.977 -98.8568 90.0275 -115.676 -106.3 90.5155 -116.294 -108.963 89.6336 
-116.971 -111.83 88.6297 -117.092 -114.71 87.9981 -116.331 -116.134 87.7025 
-115.299 -115.806 87.815 -114.819 -99.7738 89.836 -114.814 -96.1729 88.9931 
-114.92 -103.545 90.2611 -115.308 -106.664 89.9531 -116.043 -109.24 89.0786 
-116.544 -111.76 88.1774 -116.202 -113.739 87.5656 -115.34 -114.441 87.3673 
-114.474 -114.054 87.643 -114.642 -96.5445 88.649 -114.61 -93.8319 87.773 
-114.635 -99.8901 89.4052 -114.741 -103.302 89.7234 -115.163 -106.257 89.4023 
[...]
CELL_DATA 2000
SCALARS Distance double
LOOKUP_TABLE default
150.396 151.132 150.976 151.447 151.964 151.775 152.334 152.163 152.742 
153.046 152.732 153.327 153.118 153.766 153.561 154.21 154.372 153.96 
154.531 154.211 154.871 154.634 155.346 155.127 155.888 155.73 155.34 
155.9 155.503 156.129 155.817 156.578 156.343 157.202 156.967 157.873 
157.011 156.678 157.285 156.896 157.525 157.155 157.938 157.674 158.623 
158.387 159.368 159.09 160.062 158.289 157.968 158.634 158.283 158.966 
158.596 159.395 159.108 160.09 159.87 160.903 160.637 161.617 161.319 
162.298 159.584 159.273 159.958 159.64 160.354 160.031 160.83 160.565 
161.521 161.334 162.378 162.167 163.169 162.885 163.856 163.567 164.564 
160.806 160.545 161.216 160.939 161.635 161.368 162.142 161.927 162.834 
162.694 163.715 163.587 164.625 164.418 165.419 165.141 166.136 165.848 
166.845 149.963 149.562 150.052 150.642 149.166 149.66 150.271 150.762 
151.441 148.863 149.319 150.029 150.487 151.229 151.693 152.528 148.86 
149.156 149.929 150.347 151.175 151.6 152.456 152.921 153.85 149.242 
149.357 150.069 150.345 151.16 151.572 152.426 152.884 153.767 154.269 
155.181 149.678 149.814 150.451 150.59 151.296 151.59 152.425 152.849 
153.736 154.195 155.083 155.567 156.45 149.82 150.115 150.758 150.957 
151.608 151.808 152.609 152.934 153.872 154.25 155.177 155.551 156.438 
156.854 157.736 149.818 150.14 150.819 151.142 151.828 152.094 152.858 
153.172 154.088 154.463 155.404 155.74 156.607 156.931 157.782 158.171 
159.035 150.005 150.199 150.889 151.187 151.918 152.236 152.989 153.345 
154.189 154.617 155.514 155.926 156.756 157.101 157.882 158.239 159.05 
159.457 160.266 150.447 151.508 151.048 151.296 152.691 152.188 152.411 
151.979 152.302 153.989 153.454 153.739 153.199 153.503 153.038 153.407 
155.516 154.903 155.32 154.691 155.057 154.409 154.764 154.227 154.653 
157.314 156.598 157.06 156.395 156.825 156.116 156.458 155.754 156.121 
155.557 155.989 159.267 158.509 158.905 158.173 158.553 157.87 158.208 
157.506 157.802 157.121 157.453 156.886 157.241 161.01 160.414 160.786 
160.036 160.32 159.569 159.877 159.198 159.52 158.826 159.11 158.418 
158.707 158.097 158.394 162.307 161.946 162.37 161.806 162.075 161.339 
161.581 160.87 161.208 160.537 160.866 160.132 160.396 159.661 159.938 
159.279 159.578 163.454 163.137 163.629 163.223 163.558 162.973 163.195 
162.538 162.825 162.207 162.552 161.882 162.153 161.4 161.631 160.902 
161.169 160.503 160.784 161.65 162.082 162.282 163.129 162.58 162.764 
163.675 163.84 164.769 163.124 163.32 164.283 164.454 165.46 165.61 
166.661 163.529 163.83 164.832 165.089 166.158 166.359 167.463 167.616 
168.708 163.777 164.135 165.149 165.544 166.645 167.002 168.141 168.401 
169.517 169.67 170.725 164.098 164.393 165.409 165.806 166.924 167.367 
168.516 168.933 170.089 170.412 171.549 171.709 172.83 164.445 164.763 
165.822 166.173 167.343 167.696 168.852 169.229 170.406 170.85 172.101 
172.478 173.727 173.919 175.169 164.549 165.029 166.157 166.632 167.873 
168.232 169.381 169.647 170.77 171.153 172.436 172.941 174.286 174.695 
175.964 176.246 177.501 164.406 165.008 166.165 166.834 168.085 168.649 
169.744 170.116 171.107 171.496 172.67 173.228 174.552 175.104 176.327 
176.778 177.908 178.349 179.488 161.666 163.138 162.306 162.117 164.791 
163.871 163.713 162.79 162.585 166.732 165.703 165.627 164.556 164.4 
163.35 163.175 168.816 167.794 167.837 166.698 166.626 165.398 165.253 
164.08 163.954 170.83 169.883 170.01 168.985 169.023 167.802 167.692 
166.371 166.239 164.995 164.896 172.969 171.953 172.147 171.151 171.318 
170.214 170.22 168.918 168.808 167.449 167.337 166.028 165.884 175.446 
174.334 174.677 173.504 173.824 172.632 172.831 171.522 171.541 170.127 
170.047 168.615 168.453 167.031 166.772 177.982 177.004 177.543 176.327 
176.767 175.435 175.754 174.341 174.476 172.984 172.953 171.429 171.265 
169.721 169.424 167.896 167.538 180.144 179.487 180.152 179.186 179.636 
178.434 178.699 177.352 177.452 175.989 175.928 174.384 174.185 172.59 
172.259 170.637 170.219 168.648 168.242 181.415 183.226 182.155 181.55 
184.466 183.704 183.089 182.006 181.059 185.206 184.604 183.945 183.192 
182.295 181.245 180.088 185.857 185.222 184.493 183.819 182.962 182.19 
181.15 180.099 178.81 186.138 185.737 184.91 184.301 183.389 182.724 
181.747 180.945 179.755 178.672 177.252 185.462 185.579 184.733 184.465 
183.46 182.992 181.961 181.38 180.243 179.419 178.034 176.95 175.427 
184.089 184.528 183.844 183.933 182.974 182.768 181.697 181.357 180.239 
179.705 178.376 177.528 175.969 174.951 173.379 182.595 183.109 182.599 
182.895 182.098 182.088 181.067 180.881 179.784 179.482 178.228 177.656 
176.127 175.287 173.64 172.749 171.212 181.072 181.631 181.148 181.602 
180.917 181.117 180.174 180.134 179.035 178.871 177.641 177.3 175.83 
175.228 173.583 172.834 171.244 170.512 169.115 181.44 181.736 182.241 
183.287 181.64 182.384 183.58 183.977 184.679 181.289 182.162 183.424 
184.098 185 185.183 185.573 180.772 181.718 182.93 183.764 184.78 
185.342 186.031 186.078 186.347 179.982 181.072 182.168 183.082 184.011 
184.878 185.757 186.349 186.861 186.81 186.721 178.712 180.045 181.067 
182.101 182.818 183.816 184.596 185.672 186.291 186.887 186.786 186.67 
185.97 176.906 178.461 179.464 180.737 181.349 182.395 182.931 184.133 
184.665 185.746 185.701 186.144 185.4 185.342 184.395 174.737 176.358 
177.276 178.827 179.469 180.719 181.141 182.306 182.685 183.841 183.899 
184.678 184.157 184.436 183.609 183.626 182.806 172.506 173.999 174.723 
176.377 177.014 178.555 178.991 180.327 180.612 181.803 181.891 182.83 
182.567 183.116 182.546 182.761 182.053 182.081 181.312 164.622 165.616 
165.563 166.505 166.464 166.569 167.575 167.564 168.476 167.023 167.27 
168.271 168.471 169.409 169.424 170.129 167.698 167.878 168.996 169.142 
170.182 170.248 171.117 170.982 171.588 168.653 168.794 170.146 170.17 
171.425 171.291 172.39 172.15 173.08 172.653 173.346 169.515 169.791 
171.211 171.425 172.778 172.754 173.918 173.688 174.726 174.358 175.236 
174.652 175.299 170.21 170.55 171.912 172.297 173.639 173.906 175.057 
175.092 176.053 175.916 176.746 176.434 177.089 176.537 177.013 170.931 
171.256 172.69 173.006 174.468 174.716 176.044 176.117 177.2 177.099 
177.977 177.761 178.49 178.129 178.711 178.145 178.59 171.648 172.041 
173.633 173.959 175.609 175.802 177.35 177.344 178.644 178.425 179.465 
179.117 179.996 179.584 180.355 179.842 180.479 179.792 180.248 163.723 
162.652 163.632 164.583 161.487 162.492 163.382 164.493 165.42 160.185 
161.214 162.035 163.198 164.098 165.209 166.006 158.928 159.865 160.615 
161.756 162.657 163.837 164.678 165.736 166.574 157.889 158.679 159.335 
160.335 161.2 162.38 163.302 164.42 165.288 166.384 167.368 156.955 
157.669 158.2 159.077 159.804 160.927 161.844 163.037 163.954 165.087 
166.022 167.208 168.217 156.064 156.701 157.119 157.904 158.494 159.518 
160.345 161.548 162.476 163.689 164.618 165.819 166.781 167.993 168.952 
155.299 155.829 156.193 156.845 157.379 158.243 159.003 160.082 160.99 
162.181 163.126 164.349 165.298 166.528 167.472 168.683 169.617 154.64 
155.114 155.467 156.014 156.517 157.229 157.93 158.841 159.692 160.763 
161.687 162.858 163.802 165.017 165.942 167.166 168.069 169.308 170.231 
154.383 154.337 154.643 155.251 154.435 154.684 155.369 155.631 156.349 
154.703 154.888 155.609 155.841 156.65 156.896 157.766 155.098 155.263 
156.023 156.185 157.028 157.261 158.22 158.478 159.494 155.511 155.719 
156.578 156.718 157.602 157.75 158.76 158.996 160.118 160.357 161.48 
155.904 156.142 157.08 157.308 158.289 158.442 159.507 159.677 160.879 
161.084 162.31 162.466 163.617 156.372 156.566 157.521 157.797 158.865 
159.129 160.281 160.506 161.765 161.967 163.252 163.389 164.587 164.659 
165.768 156.983 157.114 158.095 158.308 159.429 159.71 160.947 161.255 
162.586 162.87 164.205 164.384 165.612 165.677 166.806 166.825 167.902 
157.696 157.804 158.832 158.993 160.158 160.381 161.673 161.958 163.346 
163.666 165.07 165.324 166.624 166.733 167.916 167.924 169.062 169.021 
170.11 158.44 160.134 159.392 159.676 162.163 161.293 161.672 160.797 
161.118 164.522 163.54 164.031 163.033 163.449 162.408 162.74 167.154 
166.092 166.678 165.598 166.121 164.969 165.352 164.162 164.484 170.121 
168.96 169.683 168.462 169.096 167.835 168.301 166.97 167.281 165.984 
166.25 173.41 172.232 173.183 171.794 172.566 171.087 171.665 170.139 
170.494 168.967 169.163 167.743 167.863 176.51 175.608 176.726 175.476 
176.333 174.809 175.432 173.764 174.166 172.421 172.592 170.862 170.868 
169.289 169.233 178.836 178.378 179.455 178.705 179.507 178.385 178.92 
177.492 177.82 176.162 176.277 174.452 174.365 172.511 172.317 170.62 
170.44 180.361 180.208 181.129 180.836 181.545 180.968 181.421 180.497 
180.704 179.456 179.451 177.932 177.755 176.014 175.708 173.866 173.515 
171.789 171.499 158.023 157.896 158.499 159.658 157.756 158.394 159.604 
160.264 161.61 157.524 158.236 159.495 160.225 161.652 162.377 163.912 
157.192 157.972 159.274 160.085 161.575 162.412 164.038 164.813 166.485 
156.837 157.65 158.993 159.837 161.308 162.234 163.883 164.85 166.605 
167.465 169.296 156.461 157.304 158.674 159.55 160.963 161.877 163.443 
164.523 166.332 167.447 169.375 170.365 172.367 156.074 156.903 158.271 
159.198 160.614 161.503 162.992 164.018 165.84 167.073 169.128 170.316 
172.357 173.421 175.364 155.799 156.533 157.886 158.794 160.269 161.162 
162.661 163.602 165.398 166.609 168.751 170.037 172.136 173.271 175.142 
176.173 177.777 155.706 156.328 157.647 158.471 159.967 160.858 162.381 
163.291 165 166.165 168.253 169.628 171.76 172.984 174.806 175.831 
177.35 178.265 179.479 157.03 155.527 156.445 156.836 154.077 154.908 
155.223 156.233 156.655 152.749 153.465 153.671 154.598 154.966 156.013 
156.402 151.499 152.164 152.288 153.079 153.334 154.294 154.607 155.669 
156.01 150.187 150.894 151.005 151.735 151.866 152.674 152.844 153.818 
154.078 155.21 155.577 148.8 149.526 149.648 150.421 150.507 151.223 
151.245 152.058 152.217 153.263 153.608 154.792 155.208 147.554 148.17 
148.284 149.036 149.155 149.854 149.834 150.509 150.576 151.469 151.81 
152.902 153.35 154.473 154.897 146.654 147.092 147.21 147.786 147.921 
148.538 148.565 149.162 149.208 149.946 150.248 151.217 151.7 152.741 
153.2 154.233 154.676 146.095 146.403 146.561 146.93 147.043 147.458 
147.489 147.979 148.062 148.694 148.977 149.793 150.249 151.186 151.669 
152.642 153.107 154.108 154.609 145.934 145.969 146.097 146.416 145.989 
146.117 146.337 146.507 146.764 145.925 146.034 146.122 146.296 146.419 
146.717 147.026 145.886 145.904 145.911 146.02 146.127 146.352 146.693 
147.069 147.615 146.031 145.904 145.919 145.907 146.116 146.227 146.716 
146.956 147.644 147.927 148.657 146.515 146.208 146.286 146.122 146.444 
146.449 147.053 147.207 147.966 148.162 148.92 149.132 149.908 147.372 
146.919 147.067 146.74 147.129 146.997 147.628 147.679 148.419 148.552 
149.269 149.441 150.181 150.437 151.259 148.423 147.935 148.125 147.71 
148.11 147.856 148.468 148.373 149.082 149.079 149.797 149.855 150.619 
150.774 151.631 151.862 152.736 149.466 149.029 149.24 148.824 149.195 
148.896 149.455 149.281 149.957 149.853 150.591 150.538 151.36 151.383 
152.294 152.388 153.317 153.434 154.305 150.098 151.147 150.377 149.957 
152.434 151.555 151.148 150.319 149.974 153.922 152.965 152.589 151.651 
151.331 150.482 150.263 155.643 154.594 154.295 153.248 152.965 151.986 
151.788 150.914 150.781 157.655 156.504 156.305 155.147 154.947 153.813 
153.657 152.611 152.512 151.556 151.469 159.875 158.685 158.576 157.347 
157.236 155.995 155.889 154.685 154.618 153.491 153.444 152.378 152.321 
162.176 161.011 160.997 159.752 159.705 158.418 158.338 157.05 156.955 
155.727 155.661 154.505 154.449 153.331 153.282 164.501 163.383 163.468 
162.247 162.257 160.96 160.902 159.567 159.444 158.12 157.984 156.753 
156.657 155.509 155.428 154.318 154.259 166.811 165.752 165.91 164.744 
164.802 163.535 163.509 162.173 162.076 160.683 160.526 159.151 159.011 
157.749 157.654 156.481 156.386 155.274 155.202 156.091 157.371 157.147 
158.081 158.739 158.55 159.616 159.371 160.433 160.204 160.026 161.231 
161.01 162.179 161.847 162.904 161.817 161.635 162.969 162.743 164.055 
163.711 164.943 164.467 165.652 163.426 163.324 164.775 164.603 166.077 
165.754 167.215 166.746 168.229 167.611 169.046 164.887 164.9 166.449 
166.425 168.069 167.892 169.553 169.198 170.876 170.376 171.973 171.261 
172.6 166.204 166.316 167.935 168.055 169.829 169.867 171.667 171.53 
173.264 172.965 174.549 174.056 175.346 174.6 175.583 167.327 167.564 
169.217 169.478 171.298 171.53 173.365 173.465 175.15 175.087 176.567 
176.328 177.541 177.051 177.967 177.244 177.986 168.207 168.565 170.203 
170.62 172.409 172.827 174.602 174.908 176.475 176.618 177.947 177.961 
179.089 178.909 179.794 179.343 180.012 179.379 179.955 149.486 149.231 
149.092 148.728 149.166 148.898 148.383 148.351 148.071 149.008 148.792 
148.147 148.006 147.584 147.681 147.478 148.601 148.505 147.892 147.75 
147.278 147.253 147.056 147.183 147.124 148.238 148.095 147.625 147.518 
147.178 147.08 146.917 146.918 146.896 146.974 146.935 148.261 147.932 
147.531 147.367 147.15 147.068 146.924 146.872 146.736 146.759 146.583 
146.681 146.451 148.607 148.157 147.708 147.41 147.124 147.027 146.825 
146.803 146.546 146.53 146.211 146.242 145.92 146.032 145.771 149.024 
148.563 148.046 147.64 147.191 146.974 146.651 146.599 146.328 146.296 
146.027 145.958 145.733 145.665 145.52 145.515 145.471 149.411 148.962 
148.412 147.957 147.404 147.045 146.608 146.432 146.16 146.108 145.96 
145.911 145.858 145.749 145.771 145.611 145.679 145.545 145.671 149.621 
148.9 149.399 149.779 148.302 148.754 149.117 149.643 150.117 147.716 
148.15 148.494 149.009 149.461 150.043 150.603 147.272 147.569 147.849 
148.34 148.794 149.4 149.983 150.604 151.203 147.031 147.218 147.416 
147.749 148.197 148.751 149.388 150.015 150.642 151.21 151.732 146.614 
146.94 147.151 147.439 147.861 148.285 148.93 149.479 150.117 150.654 
151.173 151.683 152.157 145.967 146.39 146.691 147.126 147.569 148.015 
148.609 149.099 149.692 150.161 150.639 151.113 151.588 152.12 152.654 
145.594 145.833 146.193 146.627 147.141 147.647 148.231 148.747 149.31 
149.765 150.222 150.628 151.071 151.557 152.096 152.66 153.218 145.711 
145.709 146.059 146.304 146.862 147.264 147.878 148.34 148.923 149.378 
149.889 150.278 150.738 151.126 151.638 152.123 152.685 153.216 153.718 
150.216 150.379 150.596 151.286 150.723 150.851 151.519 151.737 152.463 
151.222 151.269 151.922 152.044 152.727 152.927 153.691 151.782 151.802 
152.42 152.493 153.147 153.259 153.985 154.217 155.128 152.24 152.296 
152.831 152.934 153.539 153.679 154.398 154.591 155.51 155.814 156.919 
152.672 152.705 153.203 153.271 153.833 153.998 154.734 154.994 155.952 
156.274 157.402 157.742 158.895 153.231 153.213 153.775 153.731 154.324 
154.359 155.116 155.327 156.312 156.678 157.795 158.197 159.285 159.643 
160.611 153.804 153.823 154.434 154.404 155.046 155.01 155.756 155.827 
156.737 157.012 158.05 158.467 159.475 159.89 160.763 161.125 161.884 
154.246 154.331 154.908 154.993 155.618 155.701 156.401 156.492 157.265 
157.44 158.313 158.648 159.584 159.992 160.866 161.222 162.002 162.303 
163.043 156.842 156.164 156.13 155.399 155.584 155.506 154.814 154.741 
154.039 155.082 154.956 154.261 154.198 153.524 153.438 152.76 154.657 
154.466 153.676 153.598 152.888 152.878 152.185 152.154 151.478 154.314 
154.079 153.241 153.029 152.224 152.161 151.451 151.486 150.799 150.822 
150.136 154.014 153.789 153.033 152.72 151.902 151.618 150.88 150.775 
150.151 150.14 149.489 149.461 148.786 153.785 153.548 152.885 152.595 
151.87 151.491 150.751 150.423 149.799 149.632 149.061 148.929 148.282 
148.166 147.564 153.716 153.413 152.778 152.486 151.841 151.515 150.844 
150.459 149.811 149.479 148.901 148.651 148.048 147.811 147.191 147.061 
146.613 153.809 153.448 152.825 152.458 151.833 151.508 150.926 150.587 
150.011 149.619 149.043 148.656 148.076 147.717 147.117 146.829 146.328 
146.243 145.976 
POINT_DATA 1002
SCALARS Distance double
LOOKUP_TABLE default
150.783 149.862 150.546 151.601 151.253 151.959 152.473 152.168 152.933 
153.337 153.559 153.412 153.953 154.416 154.88 154.911 154.796 155.125 
155.539 156.087 156.7 156.316 156.081 156.475 156.791 157.407 158.117 
158.806 157.64 157.315 157.901 158.201 158.827 159.639 160.351 161.03 
158.953 158.602 159.313 159.689 160.299 161.148 161.923 162.578 163.287 
160.267 159.884 160.658 161.096 161.711 162.559 163.432 164.156 164.838 
165.569 161.487 161.051 161.896 162.355 162.979 163.816 164.775 165.672 
166.432 167.14 167.828 149.485 150.13 149.075 149.782 148.647 150.906 
149.534 148.414 150.778 152.008 149.526 148.646 150.733 152.019 153.346 
149.904 149.181 150.782 151.97 153.292 154.667 150.365 149.493 151.093 
152.022 153.288 154.63 155.956 150.493 149.479 151.421 152.317 153.495 
154.836 156.07 157.292 150.453 149.528 151.517 152.55 153.711 155.062 
156.319 157.434 158.623 150.622 149.872 151.597 152.644 153.777 155.083 
156.4 157.552 158.664 159.866 150.853 151.674 152.003 152.892 153.184 
152.671 154.29 154.498 154.038 153.805 155.927 156.129 155.748 155.388 
155.105 157.743 158.076 157.517 157.217 156.776 156.488 159.713 160.017 
159.263 158.883 158.531 158.104 157.773 161.515 161.501 161.136 160.566 
160.185 159.849 159.38 158.97 162.828 162.597 162.773 162.32 161.862 
161.582 161.173 160.638 160.208 163.991 163.781 164.075 163.833 163.438 
163.181 162.897 162.394 161.864 161.439 162.463 162.947 163.981 163.485 
164.597 165.733 164.085 165.284 166.506 167.752 164.513 165.904 167.293 
168.598 169.781 164.718 166.223 167.815 169.321 170.638 171.762 165.029 
166.486 168.07 169.67 171.282 172.734 174.002 165.434 167.009 168.538 
169.953 171.603 173.425 175.031 176.487 165.586 167.459 169.154 170.456 
171.911 173.804 175.64 177.233 178.796 165.453 167.464 169.34 170.744 
172.131 173.981 175.88 177.472 179.03 180.647 162.972 164.663 163.506 
166.717 165.504 164.193 168.92 167.879 166.501 165.071 170.953 170.161 
169.032 167.548 166.103 173.15 172.345 171.453 170.179 168.702 167.211 
175.865 175.03 174.108 172.942 171.508 169.938 168.216 178.678 178.104 
177.184 175.988 174.513 172.849 171.016 169.045 180.999 180.79 180.028 
178.9 177.481 175.802 173.914 171.856 169.762 182.605 182.867 184.212 
184.039 185.156 182.367 184.624 185.847 183.179 181.347 185.202 186.528 
183.662 182.053 180.061 185.488 186.402 184.047 182.466 180.731 178.484 
184.85 185.138 183.866 182.471 180.954 179.053 176.574 183.599 183.532 
183.087 181.973 180.654 179.118 176.968 174.374 182.199 182.058 182.003 
181.21 180.024 178.684 176.894 174.528 172.023 180.64 180.523 180.608 
180.145 179.176 177.915 176.334 174.272 171.956 169.756 181.076 183.05 
181.091 183.022 180.818 184.677 182.657 180.403 184.606 185.724 182.106 
179.821 184.042 185.706 186.673 181.301 178.835 183.11 184.896 186.679 
187.238 180.007 177.303 181.902 183.452 185.45 186.75 186.372 178.083 
175.345 180.311 181.843 183.509 185.045 185.312 184.517 175.66 173.216 
178.096 180.01 181.577 182.979 183.682 183.481 182.832 173.133 171.174 
175.388 177.57 179.405 180.864 181.839 182.189 181.974 181.357 164.636 
166.604 165.611 167.497 166.29 168.63 168.03 166.756 169.292 170.311 
168.855 167.492 170.112 171.149 171.901 170.042 168.431 171.55 172.619 
173.411 173.94 170.908 169.213 172.691 174.103 175.042 175.733 176.046 
171.536 169.887 173.302 174.936 176.143 176.982 177.533 177.696 172.353 
170.564 174.194 175.924 177.285 178.182 178.778 179.166 179.279 162.756 
163.508 161.696 162.278 160.492 164.364 160.877 159.19 162.956 164.979 
159.533 158.067 161.44 163.581 165.48 158.441 157.164 160.038 162.125 
164.203 166.188 157.408 156.3 158.756 160.623 162.788 164.875 167.011 
156.402 155.498 157.553 159.18 161.235 163.408 165.577 167.76 155.595 
154.809 156.589 158.002 159.833 161.904 164.068 166.253 168.406 154.945 