# vtk DataFile Version 4.0
vtk output
ASCII
DATASET POLYDATA
POINTS 1002 float
-104.513 -78.5829 73.97 -104.507 -77.9493 72.7663 -105.036 -77.8854 73.5797 
-105.126 -78.654 74.7818 -105.554 -77.7419 74.5482 -104.535 -79.3596 75.1969 
-105.707 -78.71 75.7942 -105.949 -77.637 75.7757 -105.194 -79.5256 76.0402 
-104.719 -80.2976 76.4126 -106.156 -78.7819 77.0949 -106.331 -77.6865 77.0909 
-105.767 -79.6814 77.2036 -105.36 -80.4907 77.4287 -105.166 -81.4376 77.7258 
-106.665 -78.938 78.3637 -106.92 -77.881 78.2067 -106.287 -79.8596 78.6054 
-105.87 -80.7541 78.8723 -105.672 -81.7968 79.115 -105.635 -82.8806 79.3885 
-107.379 -79.2579 79.3561 -107.696 -78.2361 79.1475 -106.967 -80.1965 79.7607 
-106.473 -81.1491 80.2729 -106.133 -82.2895 80.688 -105.982 -83.4553 81.0209 
-105.934 -84.5695 81.336 -108.139 -79.7086 80.2936 -108.456 -78.7243 80.0701 
-107.735 -80.6955 80.6732 -107.254 -81.6937 81.2528 -106.878 -82.85 81.8087 
-106.61 -83.9964 82.2416 -106.427 -85.0915 82.6353 -106.377 -86.2795 82.9797 
-108.759 -80.151 81.3366 -109.068 -79.2287 80.9824 -108.381 -81.1479 81.73 
-107.964 -82.2057 82.2107 -107.715 -83.405 82.6806 -107.545 -84.5638 83.0486 
-107.321 -85.6065 83.3996 -107.179 -86.7768 83.7669 -107.153 -88.0313 84.0807 
-109.225 -80.5953 82.3719 -109.543 -79.7381 81.8484 -108.874 -81.5322 82.9026 
-108.501 -82.5991 83.3825 -108.339 -83.8796 83.7575 -108.32 -85.2054 84.0268 
-108.153 -86.3763 84.2994 -107.972 -87.5745 84.5998 -107.959 -88.8734 84.8464 
-107.985 -90.0268 85.0312 -109.65 -81.1255 83.2715 -109.988 -80.3051 82.6297 
-109.311 -81.9988 83.925 -108.961 -83.0325 84.4751 -108.791 -84.3437 84.861 
-108.809 -85.8292 85.1182 -108.68 -87.2382 85.4038 -108.424 -88.5917 85.757 
-108.395 -89.9926 85.9962 -108.569 -91.2645 86.0525 -108.674 -92.2408 86.0566 
-104.815 -77.317 72.1098 -105.302 -77.0571 73.0668 -105.22 -76.6251 71.5689 
-105.643 -76.2041 72.6466 -105.775 -75.8553 71.1049 -105.689 -76.6944 74.248 
-106.218 -75.4422 72.1865 -106.323 -74.9445 70.6113 -106.004 -75.8138 73.9147 
-106.035 -76.5235 75.6236 -106.909 -74.6929 71.7035 -106.828 -74.0858 70.1722 
-106.752 -75.2444 73.4206 -106.515 -75.7447 75.2799 -106.568 -76.6267 76.9299 
-107.587 -73.9764 71.4222 -107.561 -73.57 69.8993 -107.616 -74.6537 73.0184 
-107.444 -75.2843 74.7827 -107.27 -75.9183 76.5622 -107.355 -76.9108 78.0327 
-108.346 -73.4144 71.2868 -108.489 -73.223 69.7074 -108.288 -73.8995 72.887 
-108.25 -74.6569 74.4745 -108.174 -75.4407 76.1178 -108.127 -76.2812 77.7169 
-108.22 -77.3973 79.0258 -109.153 -72.94 71.077 -109.297 -72.7489 69.52 
-108.963 -73.2361 72.7458 -108.842 -73.8459 74.3386 -108.842 -74.7746 75.8074 
-108.913 -75.7996 77.3195 -108.957 -76.8365 78.7663 -108.991 -77.9879 79.9459 
-109.91 -72.5104 70.8379 -109.987 -72.2532 69.3745 -109.761 -72.8052 72.4832 
-109.606 -73.251 74.1371 -109.512 -74.0438 75.5847 -109.556 -75.1462 76.9835 
-109.682 -76.2915 78.4504 -109.698 -77.3836 79.7422 -109.609 -78.5347 80.8068 
-110.657 -72.2182 70.7026 -110.709 -71.9674 69.3135 -110.576 -72.555 72.2821 
-110.502 -72.9653 73.921 -110.402 -73.5917 75.3789 -110.293 -74.5357 76.7249 
-110.319 -75.6498 78.183 -110.397 -76.7449 79.5712 -110.31 -77.8612 80.6637 
-110.118 -79.0795 81.6195 -111.484 -72.0307 70.2037 -111.424 -72.3265 71.7924 
-112.314 -72.2454 71.2738 -112.24 -72.5893 73.0175 -113.08 -72.6171 72.348 
-111.373 -72.7423 73.5079 -112.989 -73.1077 74.1268 -113.683 -73.3677 73.4011 
-112.188 -73.1287 74.7092 -111.344 -73.3163 75.0817 -113.681 -74.0567 75.2409 
-114.185 -74.5206 74.6627 -112.964 -73.8278 75.7716 -112.142 -73.9323 76.1755 
-111.21 -74.1664 76.4755 -114.313 -75.2967 76.5299 -114.684 -75.7347 75.9705 
-113.718 -74.9021 76.9495 -112.898 -74.8396 77.2969 -111.952 -74.9965 77.6795 
-111.05 -75.2243 77.9987 -114.738 -76.5955 77.6661 -115.108 -76.9199 76.9891 
-114.242 -76.2488 78.1686 -113.551 -76.0466 78.4942 -112.655 -76.0439 78.9071 
-111.772 -76.0882 79.3631 -111.046 -76.3037 79.5753 -114.991 -77.9452 78.5903 
-115.405 -78.2537 77.9266 -114.481 -77.7067 79.1627 -113.942 -77.4878 79.5592 
-113.238 -77.3169 79.9704 -112.43 -77.1735 80.4768 -111.699 -77.1674 80.8037 
-111.009 -77.4422 80.7997 -115.235 -79.361 79.6119 -115.606 -79.7104 79.022 
-114.717 -79.1304 80.102 -114.239 -78.9448 80.497 -113.702 -78.7221 80.9174 
-112.998 -78.488 81.3681 -112.262 -78.3678 81.703 -111.542 -78.4791 81.8056 
-110.798 -78.7677 81.7303 -115.425 -80.8105 80.6997 -115.678 -81.1387 80.1252 
-114.989 -80.5389 81.0982 -114.558 -80.3338 81.4145 -114.116 -80.1305 81.8335 
-113.499 -79.9297 82.2668 -112.767 -79.8243 82.5206 -112.047 -79.8661 82.6302 
-111.308 -80.0084 82.6832 -110.583 -80.1675 82.6833 -110.282 -81.4987 83.785 
-110.957 -81.5329 83.7608 -110.697 -82.8244 84.9772 -111.693 -81.5595 83.6197 
-111.382 -83.0427 84.8741 -111.131 -84.2958 86.0688 -112.4 -81.5506 83.4971 
-111.998 -83.3223 84.6149 -111.676 -84.7337 85.9388 -111.518 -86.2258 86.9926 
-113.133 -81.5231 83.435 -112.612 -83.5018 84.4451 -112.146 -85.2634 85.6154 
-111.949 -86.8699 86.871 -112.007 -88.9038 87.6843 -113.866 -81.5669 83.174 
-113.34 -83.5055 84.3833 -112.796 -85.5457 85.4311 -112.497 -87.4105 86.5485 
-112.522 -89.5503 87.5795 -112.632 -92.0395 88.2637 -114.406 -81.7216 82.6756 
-113.996 -83.5143 84.0722 -113.543 -85.557 85.4015 -113.285 -87.6 86.4415 
-113.189 -89.8891 87.333 -113.206 -92.5398 88.2337 -113.155 -95.0579 89.0682 
-114.81 -81.9359 82.2826 -114.462 -83.6453 83.5479 -114.102 -85.5592 85.0753 
-113.964 -87.601 86.445 -113.873 -90.0077 87.2808 -113.721 -92.8091 88.0524 
-113.632 -95.5222 89.0703 -113.534 -97.782 90.0056 -115.22 -82.1836 82.0004 
-114.891 -83.83 83.1557 -114.567 -85.6107 84.4755 -114.432 -87.5256 85.9946 
-114.35 -89.9695 87.1448 -114.121 -92.9612 87.9021 -113.932 -95.8665 88.8229 
-113.921 -98.2947 89.8567 -113.937 -100.354 90.5782 -115.52 -82.4391 81.5385 
-115.249 -83.9944 82.8093 -115.006 -85.6595 83.9733 -114.877 -87.3842 85.2465 
-114.733 -89.6693 86.5306 -114.449 -92.7932 87.5784 -114.184 -96.0129 88.5278 
-114.151 -98.6382 89.4854 -114.289 -100.804 90.2341 -114.393 -102.797 90.6341 
-109.929 -82.3723 84.5718 -110.342 -83.8132 85.7727 -109.557 -83.4011 85.2426 
-110.847 -85.6165 86.7498 -109.993 -85.2019 86.3198 -109.281 -84.7709 85.7171 
-111.409 -88.1584 87.4952 -110.59 -87.5477 87.1396 -109.797 -87.0229 86.683 
-109.23 -86.436 86.0293 -112.012 -91.4391 88.094 -111.246 -90.6115 87.8102 
-110.455 -89.7595 87.4571 -109.738 -88.938 86.9766 -109.136 -88.1174 86.3359 
-112.533 -94.7731 88.9002 -111.814 -94.1182 88.6042 -111.187 -93.1041 88.2446 
-110.496 -91.8938 87.7484 -109.585 -90.774 87.3247 -108.829 -89.7399 86.78 
-112.964 -97.6991 89.9794 -112.26 -97.4095 89.7274 -111.779 -96.7887 89.3272 
-111.414 -95.5793 88.6317 -110.583 -94.0135 88.0043 -109.443 -92.6503 87.7479 
-108.715 -91.3971 87.1662 -113.466 -100.436 90.7435 -112.791 -100.356 90.6721 
-112.251 -100.185 90.4287 -112.014 -99.5335 89.7922 -111.601 -97.9661 88.8294 
-110.636 -96.0527 88.2686 -109.596 -94.4485 88.0098 -108.975 -92.9145 87.2451 
-114.043 -103.147 90.8675 -113.484 -103.205 90.9033 -112.886 -103.124 90.8271 
-112.44 -102.881 90.5673 -112.084 -101.847 89.84 -111.552 -99.8475 88.9457 
-110.749 -97.7177 88.4374 -109.923 -95.8902 87.9937 -109.266 -94.0728 87.1241 
-114.684 -105.615 90.5759 -114.292 -106.044 90.6639 -114.873 -108.515 90.4067 
-114.494 -108.676 90.2015 -114.9 -110.929 90.067 -113.781 -105.943 90.5229 
-114.599 -110.438 89.4488 -114.834 -112.662 89.1381 -114.111 -108.073 89.7112 
-113.204 -105.609 90.3937 -114.581 -111.526 88.4183 -114.748 -113.757 87.7739 
-114.31 -109.288 88.717 -113.484 -107.279 89.524 -112.551 -104.967 90.2236 
-114.283 -112.275 87.5619 -114.486 -113.899 86.6885 -114.116 -110.212 87.9623 
-113.566 -108.261 88.6187 -112.621 -106.195 89.5508 -111.978 -103.363 89.6404 
-113.596 -112.32 86.9797 -113.859 -113.034 85.9211 -113.392 -110.962 87.5955 
-113.191 -109.094 87.9816 -112.675 -106.91 88.7031 -112.025 -104.232 89.1637 
-111.482 -100.989 88.8887 -112.786 -111.461 86.269 -113.069 -111.696 85.2284 
-112.563 -110.817 87.1574 -112.496 -109.366 87.5363 -112.424 -107.205 87.8898 
-112.075 -104.677 88.4111 -111.505 -101.757 88.5693 -110.783 -98.6825 88.3321 
-112.188 -110.037 85.5456 -112.465 -110.147 84.8369 -112.043 -109.679 86.4385 
-112.001 -108.614 87.0406 -111.974 -106.714 87.3474 -111.762 -104.523 87.7603 
-111.265 -102.114 88.1247 -110.608 -99.3134 88.0635 -109.918 -96.5194 87.6659 
-111.816 -108.288 85.1942 -112.091 -108.268 84.8734 -111.7 -108.05 85.8032 
-111.666 -107.254 86.4838 -111.552 -105.671 86.9974 -111.256 -103.784 87.423 
-110.771 -101.889 87.7869 -110.173 -99.5468 87.7974 -109.595 -96.8231 87.362 
-109.102 -94.3194 86.7166 -114.777 -103.858 90.2832 -115.109 -106.786 90.1882 
-115.065 -104.703 89.8501 -115.406 -107.51 89.6225 -115.239 -105.277 89.3439 
-115.292 -109.736 90.0632 -115.542 -107.717 88.8571 -115.335 -105.273 88.6832 
-115.621 -110.322 89.2415 -115.291 -112.338 89.5128 -115.527 -107.195 88.0822 
-115.31 -104.373 87.9889 -115.695 -110.108 88.17 -115.626 -112.967 88.2448 
-115.175 -114.364 88.1005 -115.292 -105.944 87.5838 -114.956 -102.773 87.5158 
-115.477 -109.019 87.4385 -115.597 -112.292 87.136 -115.429 -114.791 86.7291 
-115.013 -115.17 86.5378 -114.749 -104.117 87.3062 -114.366 -100.726 87.0847 
-115.075 -107.311 87.1051 -115.297 -110.443 86.7147 -115.362 -113.301 86.1071 
-115.137 -114.794 85.5837 -114.642 -114.386 85.5464 -114.2 -101.588 86.7957 
-113.996 -98.2866 86.2166 -114.578 -104.936 86.791 -114.944 -107.992 86.4929 
-115.16 -110.644 86.0283 -115.091 -112.648 85.3916 -114.685 -113.412 84.9064 
-113.959 -112.856 84.8804 -113.963 -98.6251 85.776 -113.94 -95.8136 84.8863 
-114.174 -101.79 86.2054 -114.508 -104.912 86.1822 -114.803 -107.586 85.9145 
-114.901 -109.734 85.4325 -114.677 -111.271 84.8329 -114.087 -111.796 84.456 
-113.25 -111.249 84.5012 -113.869 -95.9881 84.4923 -113.873 -93.7846 83.5299 
-113.916 -98.5747 85.2861 -114.042 -101.384 85.7108 -114.196 -104.097 85.7762 
[...]
CELL_DATA 2000
SCALARS Distance double
LOOKUP_TABLE default
148.86 149.648 149.456 149.863 150.492 150.312 150.784 150.527 150.991 
151.421 151.235 151.783 151.513 152.016 151.75 152.361 152.456 152.244 
152.862 152.587 153.162 152.861 153.531 153.296 154.11 153.602 153.349 
154.019 153.743 154.404 154.099 154.841 154.574 155.44 155.21 156.139 
154.829 154.548 155.236 154.959 155.673 155.394 156.185 155.938 156.806 
156.575 157.471 157.265 158.194 156.024 155.772 156.451 156.195 156.912 
156.667 157.476 157.273 158.15 157.929 158.79 158.562 159.447 159.285 
160.223 157.111 156.912 157.589 157.379 158.092 157.88 158.693 158.534 
159.452 159.27 160.172 159.911 160.81 160.573 161.551 161.362 162.347 
158.131 157.96 158.649 158.477 159.198 159.023 159.83 159.711 160.645 
160.545 161.498 161.307 162.233 161.996 162.994 162.785 163.837 163.586 
164.568 148.408 147.988 148.488 149.132 147.668 148.079 148.637 149.19 
149.887 147.424 147.803 148.305 148.729 149.365 149.97 150.762 147.19 
147.594 148.199 148.532 149.16 149.57 150.342 150.929 151.799 147.144 
147.461 148.201 148.536 149.263 149.555 150.31 150.687 151.542 152.066 
152.975 147.399 147.577 148.284 148.592 149.358 149.695 150.468 150.791 
151.608 151.982 152.867 153.336 154.243 147.713 147.869 148.47 148.708 
149.392 149.734 150.49 150.886 151.704 152.103 152.964 153.354 154.218 
154.638 155.476 147.948 148.123 148.714 148.906 149.559 149.807 150.535 
150.874 151.695 152.128 153.019 153.455 154.311 154.683 155.465 155.838 
156.585 148.253 148.382 149.033 149.191 149.903 150.079 150.832 151.04 
151.84 152.155 153.042 153.472 154.369 154.77 155.552 155.874 156.575 
156.912 157.61 148.716 149.841 149.338 149.527 151.102 150.56 150.763 
150.232 150.451 152.399 151.859 152.099 151.546 151.777 151.213 151.418 
153.841 153.237 153.516 152.918 153.176 152.588 152.807 152.201 152.415 
155.437 154.806 155.124 154.438 154.709 154.045 154.302 153.651 153.899 
153.268 153.58 156.919 156.39 156.724 156.088 156.347 155.653 155.905 
155.217 155.493 154.826 155.14 154.525 154.883 158.25 157.777 158.11 
157.585 157.851 157.249 157.481 156.831 157.079 156.429 156.705 156.083 
156.368 155.782 156.05 159.614 159.107 159.443 158.918 159.218 158.675 
158.948 158.357 158.6 157.972 158.207 157.589 157.82 157.22 157.431 
156.845 157.048 160.979 160.495 160.828 160.284 160.584 160.043 160.355 
159.804 160.09 159.478 159.712 159.068 159.288 158.658 158.874 158.247 
158.456 157.842 158.066 158.884 159.304 159.509 160.381 159.734 159.955 
160.862 161.084 161.995 160.155 160.384 161.295 161.551 162.489 162.711 
163.658 160.597 160.821 161.732 161.977 162.915 163.171 164.162 164.427 
165.531 160.981 161.255 162.176 162.43 163.378 163.619 164.629 164.917 
166.091 166.441 167.751 161.22 161.56 162.477 162.82 163.802 164.107 
165.153 165.435 166.611 166.98 168.34 168.762 170.153 161.434 161.759 
162.649 163.028 164.015 164.446 165.547 165.949 167.123 167.503 168.802 
169.271 170.686 171.146 172.485 161.689 161.996 162.869 163.198 164.135 
164.573 165.649 166.191 167.37 167.9 169.134 169.657 170.994 171.553 
172.916 173.387 174.613 161.827 162.205 163.049 163.406 164.277 164.676 
165.637 166.17 167.264 167.921 169.126 169.812 171.103 171.762 173.085 
173.678 174.92 175.384 176.47 158.933 160.43 159.606 159.494 162.048 
161.185 161.072 160.205 160.082 163.765 162.871 162.815 161.878 161.795 
160.865 160.789 165.745 164.748 164.797 163.758 163.758 162.731 162.726 
161.713 161.688 168.064 166.968 167.125 165.951 166.018 164.863 164.892 
163.782 163.769 162.687 162.598 170.526 169.449 169.706 168.479 168.626 
167.339 167.396 166.104 166.073 164.848 164.758 163.589 163.416 172.899 
171.934 172.289 171.139 171.423 170.137 170.325 168.871 168.865 167.359 
167.267 165.892 165.788 164.481 164.295 175.07 174.258 174.697 173.694 
174.086 172.966 173.324 171.969 172.066 170.416 170.274 168.632 168.5 
167.032 166.892 165.462 165.213 176.972 176.342 176.845 176.011 176.417 
175.495 175.886 174.836 175.018 173.603 173.42 171.741 171.444 169.846 
169.615 168.129 167.835 166.348 165.953 178.142 179.904 178.755 178.088 
181.406 180.405 179.687 178.518 177.68 182.278 181.577 180.78 179.891 
179.045 178.003 177.131 182.502 182.064 181.203 180.62 179.767 179.08 
178.224 177.317 176.254 182.247 182.055 181.229 180.815 179.976 179.51 
178.676 178.076 177.008 176.093 174.673 181.393 181.585 180.898 180.733 
179.926 179.582 178.737 178.297 177.263 176.575 175.205 174.219 172.669 
179.953 180.469 179.94 180.176 179.433 179.346 178.432 178.166 177.121 
176.659 175.376 174.612 173.135 172.178 170.723 178.363 178.927 178.492 
178.988 178.366 178.575 177.651 177.594 176.507 176.298 175.088 174.627 
173.215 172.487 170.993 170.186 168.785 176.907 177.396 176.962 177.492 
176.968 177.345 176.524 176.621 175.561 175.503 174.37 174.161 172.861 
172.375 170.874 170.22 168.722 168.094 166.75 178.338 178.972 179.19 
180.143 179.302 179.71 180.785 181.001 181.763 179.221 179.831 180.894 
181.44 182.366 182.472 182.818 178.604 179.453 180.404 181.236 182.211 
182.795 183.342 183.258 183.157 177.466 178.547 179.41 180.42 181.307 
182.268 182.94 183.431 183.489 183.298 182.835 175.889 177.184 178.032 
179.179 179.938 181.058 181.694 182.616 182.793 183.176 182.743 182.594 
181.813 173.916 175.378 176.192 177.551 178.228 179.467 179.985 181.09 
181.289 182.07 181.764 182.055 181.297 181.204 180.268 171.746 173.212 
173.918 175.436 176.05 177.482 177.915 179.176 179.35 180.356 180.194 
180.822 180.289 180.473 179.662 179.549 178.67 169.708 171.002 171.582 
173.031 173.566 175.066 175.45 176.866 177.03 178.251 178.179 179.115 
178.798 179.345 178.761 178.895 178.123 178.011 177.215 162.053 162.657 
162.712 163.332 163.205 163.332 164.123 164.067 164.655 163.926 164.004 
164.953 164.944 165.71 165.477 166.06 164.855 164.891 165.93 165.914 
166.816 166.62 167.327 167 167.67 165.791 165.875 166.957 166.976 
167.981 167.836 168.712 168.398 169.234 168.831 169.633 166.679 166.813 
167.971 168.03 169.192 169.122 170.286 170.019 171.152 170.679 171.692 
171.045 171.831 167.553 167.745 169.051 169.142 170.508 170.498 171.957 
171.814 173.255 172.859 174.051 173.356 174.201 173.322 173.916 168.327 
168.633 170.08 170.306 171.834 171.946 173.529 173.551 175.081 174.928 
176.156 175.674 176.473 175.695 176.212 175.312 175.722 168.95 169.355 
170.856 171.276 172.869 173.203 174.76 174.975 176.387 176.472 177.609 
177.446 178.21 177.719 178.202 177.473 177.835 176.985 177.269 161.333 
160.327 161.196 161.859 159.246 160.136 160.808 161.662 162.331 158.16 
159.046 159.766 160.637 161.343 162.183 162.979 157.068 157.936 158.664 
159.608 160.401 161.265 162.054 162.928 163.839 156.02 156.832 157.508 
158.473 159.312 160.296 161.111 162.005 162.824 163.784 164.715 155.075 
155.816 156.449 157.33 158.141 159.158 160.013 160.982 161.751 162.7 
163.532 164.588 165.529 154.228 154.909 155.496 156.296 157.033 157.997 
158.851 159.849 160.639 161.572 162.333 163.345 164.226 165.355 166.312 
153.485 154.093 154.618 155.34 155.986 156.879 157.677 158.685 159.5 
160.456 161.199 162.142 162.942 164.014 164.923 166.093 167.028 152.886 
153.404 153.899 154.505 155.084 155.842 156.561 157.503 158.31 159.3 
160.061 161.004 161.75 162.743 163.584 164.691 165.597 166.764 167.659 
152.779 153.047 153.186 153.788 153.315 153.488 154.09 154.252 154.941 
153.401 153.686 154.343 154.573 155.306 155.512 156.373 153.511 153.761 
154.523 154.82 155.675 155.929 156.857 157.094 158.089 153.945 154.047 
154.888 155.113 156.1 156.365 157.392 157.63 158.654 158.876 159.858 
154.55 154.632 155.504 155.657 156.698 156.916 158.022 158.234 159.312 
159.495 160.522 160.663 161.612 155.148 155.271 156.215 156.365 157.449 
157.629 158.786 158.962 160.118 160.256 161.379 161.461 162.52 162.528 
163.507 155.855 155.957 157.011 157.146 158.303 158.456 159.663 159.813 
161.034 161.164 162.383 162.46 163.629 163.606 164.672 164.564 165.547 
156.673 156.77 157.859 157.999 159.165 159.335 160.538 160.713 161.929 
162.1 163.334 163.488 164.71 164.774 165.898 165.819 166.827 166.663 
167.607 157.457 159.031 158.396 158.701 160.724 160.037 160.426 159.726 
160.051 162.758 161.906 162.337 161.544 161.954 161.161 161.479 165.049 
164.146 164.628 163.671 164.121 163.197 163.583 162.659 162.934 167.382 
166.533 167.179 166.177 166.7 165.6 166.007 164.914 165.23 164.175 
164.405 169.984 169.062 169.94 168.906 169.614 168.409 168.867 167.565 
167.865 166.624 166.866 165.702 165.854 172.778 171.901 172.92 171.879 
172.724 171.49 172.037 170.617 170.902 169.453 169.634 168.289 168.398 
167.127 167.107 175.033 174.537 175.543 174.801 175.624 174.586 175.126 
173.81 174.082 172.593 172.699 171.19 171.198 169.752 169.645 168.272 
168.07 176.406 176.306 177.227 176.961 177.723 177.128 177.619 176.656 
176.897 175.64 175.699 174.248 174.162 172.622 172.409 170.879 170.585 
169.15 168.851 156.999 156.739 157.422 158.516 156.4 157.123 158.263 
158.973 160.175 156.05 156.777 157.961 158.724 160.049 160.791 162.191 
155.7 156.443 157.643 158.433 159.809 160.661 162.166 162.954 164.424 
155.286 156.083 157.3 158.117 159.459 160.361 161.866 162.819 164.35 
165.166 166.641 154.86 155.662 156.925 157.767 159.105 159.981 161.456 
162.441 164.059 165.016 166.647 167.456 169.12 154.586 155.304 156.598 
157.417 158.805 159.652 161.15 162.079 163.774 164.77 166.574 167.495 
169.288 170.105 171.845 154.496 155.119 156.386 157.147 158.554 159.392 
160.927 161.839 163.551 164.557 166.401 167.423 169.238 170.183 171.845 
172.691 174.12 154.476 155.047 156.238 156.954 158.312 159.151 160.668 
161.606 163.273 164.306 166.07 167.159 168.896 169.954 171.518 172.464 
173.761 174.571 175.586 155.96 154.39 155.331 155.687 153.039 153.789 
154.056 155.014 155.343 151.943 152.515 152.623 153.416 153.684 154.654 
154.984 150.835 151.402 151.392 152.042 152.188 153.038 153.323 154.299 
154.622 149.577 150.19 150.139 150.773 150.824 151.59 151.803 152.687 
152.946 153.905 154.186 148.344 148.914 148.846 149.457 149.447 150.179 
150.328 151.186 151.398 152.273 152.474 153.428 153.726 147.252 147.751 
147.699 148.224 148.177 148.788 148.849 149.656 149.843 150.726 150.912 
151.784 152.033 153.021 153.438 146.337 146.747 146.735 147.188 147.159 
147.623 147.613 148.228 148.365 149.173 149.402 150.258 150.527 151.43 
151.835 152.854 153.38 145.702 145.969 145.976 146.332 146.333 146.708 
146.689 147.131 147.221 147.84 148.089 148.844 149.179 150.006 150.432 
151.358 151.887 152.89 153.434 145.489 145.351 145.475 145.695 145.322 
145.348 145.451 145.673 145.957 145.328 145.307 145.28 145.396 145.573 
145.911 146.269 145.225 145.262 145.179 145.217 145.318 145.558 145.939 
146.312 146.822 145.052 145.132 145.156 145.165 145.289 145.404 145.823 
146.118 146.727 147.057 147.705 145.195 145.135 145.372 145.312 145.576 
145.544 145.988 146.152 146.824 147.104 147.827 148.099 148.817 145.876 
145.607 145.976 145.8 146.208 146.043 146.509 146.487 147.165 147.338 
148.15 148.36 149.159 149.346 150.132 146.877 146.502 146.854 146.597 
147.035 146.821 147.309 147.163 147.825 147.85 148.708 148.836 149.725 
149.84 150.685 150.791 151.62 147.916 147.532 147.816 147.514 147.904 
147.682 148.184 148.024 148.686 148.633 149.472 149.523 150.419 150.494 
151.342 151.419 152.235 152.329 153.141 148.566 149.54 148.839 148.474 
150.687 149.9 149.554 148.829 148.562 152.123 151.209 150.941 150.074 
149.856 149.07 148.913 153.888 152.836 152.618 151.637 151.479 150.565 
150.464 149.598 149.531 155.934 154.784 154.56 153.447 153.276 152.289 
152.205 151.293 151.258 150.361 150.356 158.104 156.97 156.844 155.585 
155.419 154.224 154.13 153.098 153.067 152.139 152.129 151.244 151.256 
160.215 159.186 159.225 158.015 157.959 156.622 156.556 155.259 155.227 
154.068 154.045 153.035 153.026 152.132 152.142 162.294 161.302 161.403 
160.354 160.389 159.203 159.182 157.871 157.82 156.473 156.398 155.13 
155.065 153.971 153.958 153.022 153.038 164.458 163.425 163.515 162.486 
162.551 161.503 161.521 160.385 160.329 159.075 158.947 157.617 157.462 
156.178 156.078 154.952 154.931 153.953 153.961 154.801 155.872 155.734 
156.599 157.132 156.946 157.945 157.737 158.734 158.593 158.363 159.474 
159.242 160.391 160.091 161.187 160.106 159.908 161.085 160.882 162.156 
161.897 163.157 162.748 163.896 161.512 161.417 162.689 162.556 163.952 
163.755 165.166 164.827 166.121 165.598 166.74 162.739 162.786 164.221 
164.219 165.789 165.656 167.202 166.909 168.315 167.865 169.093 168.489 
169.557 163.804 163.975 165.547 165.746 167.476 167.522 169.142 168.955 
170.383 170.036 171.289 170.796 171.86 171.224 172.127 164.813 165.037 
166.659 166.998 168.785 169.065 170.689 170.72 172.073 171.923 173.124 
172.837 173.857 173.372 174.175 173.566 174.254 165.784 166.048 167.641 
168.028 169.761 170.18 171.777 172.008 173.299 173.333 174.462 174.402 
175.405 175.146 175.887 175.402 175.952 175.414 175.935 147.688 147.387 
147.257 146.75 147.168 147.017 146.469 146.334 145.892 146.812 146.737 
146.226 146.11 145.646 145.564 145.31 146.488 146.334 145.847 145.815 
145.45 145.398 145.143 145.138 145.088 146.572 146.187 145.684 145.498 
145.207 145.191 145.024 145.028 144.949 145.015 145.069 146.908 146.46 
145.944 145.553 145.217 145.057 144.935 144.918 144.874 144.902 144.931 
145.032 145.128 147.16 146.778 146.224 145.837 145.39 145.161 145 
144.935 144.95 144.908 144.963 144.958 145.055 145.124 145.222 147.419 
147.001 146.41 146.015 145.483 145.245 145.016 145 145.06 145.076 
145.18 145.111 145.182 145.131 145.201 145.223 145.288 147.821 147.333 
146.773 146.268 145.746 145.357 145.075 144.972 145.009 145.112 145.248 
145.3 145.343 145.295 145.294 145.251 145.281 145.297 145.381 147.805 
146.862 147.484 147.874 146.044 146.597 147.049 147.703 148.246 145.51 
145.916 146.432 147.011 147.632 148.212 148.8 145.297 145.546 146.055 
146.534 147.183 147.701 148.276 148.795 149.358 145.252 145.407 145.811 
146.209 146.82 147.315 147.877 148.32 148.83 149.349 149.915 145.263 
145.35 145.602 145.908 146.41 146.924 147.532 147.99 148.52 148.915 
149.457 149.937 150.485 145.314 145.351 145.501 145.665 146.021 146.46 
147.084 147.642 148.286 148.705 149.237 149.593 150.099 150.511 150.98 
145.379 145.406 145.569 145.626 145.931 146.161 146.728 147.213 147.934 
148.448 149.044 149.413 149.86 150.189 150.612 150.991 151.42 145.502 
145.509 145.757 145.791 146.172 146.254 146.795 147.039 147.726 148.136 
148.8 149.193 149.693 149.99 150.408 150.7 151.14 151.482 151.943 
148.464 148.567 148.838 149.591 148.879 149.029 149.746 150.038 150.829 
149.367 149.412 150.044 150.228 150.971 151.28 152.093 149.95 149.953 
150.547 150.593 151.254 151.448 152.243 152.578 153.487 150.515 150.541 
151.145 151.148 151.759 151.819 152.555 152.784 153.699 154.067 155.051 
151.002 151.054 151.624 151.69 152.302 152.368 153.084 153.211 154.078 
154.336 155.3 155.646 156.561 151.441 151.489 152.016 152.1 152.723 
152.86 153.622 153.78 154.629 154.799 155.688 155.929 156.825 157.11 
157.94 151.885 151.916 152.464 152.516 153.153 153.276 154.052 154.262 
155.111 155.32 156.149 156.346 157.182 157.419 158.277 158.514 159.331 
152.388 152.39 152.97 153.012 153.662 153.751 154.484 154.661 155.457 
155.697 156.496 156.739 157.534 157.779 158.605 158.865 159.697 159.926 
160.694 155.754 154.97 154.966 154.232 154.366 154.29 153.637 153.583 
152.992 153.846 153.786 153.176 153.103 152.549 152.492 151.968 153.258 
153.241 152.607 152.603 151.979 152 151.415 151.441 150.849 152.85 
152.7 152.051 151.974 151.293 151.302 150.657 150.75 150.146 150.219 
149.591 152.787 152.487 151.862 151.576 150.911 150.703 150.084 150.028 
149.5 149.525 148.985 148.977 148.393 152.716 152.473 151.846 151.536 
150.877 150.538 149.917 149.671 149.17 149.056 148.584 148.488 147.934 
147.847 147.299 152.446 152.288 151.653 151.455 150.815 150.547 149.911 
149.621 149.035 148.831 148.299 148.166 147.6 147.464 146.888 146.811 
146.353 152.194 151.999 151.407 151.219 150.66 150.454 149.904 149.628 
149.024 148.722 148.087 147.868 147.263 147.128 146.577 146.474 146.034 
145.992 145.708 
POINT_DATA 1002
SCALARS Distance double
LOOKUP_TABLE default
149.233 148.308 149.042 150.097 149.808 150.262 151.033 150.64 151.224 
151.488 152.034 151.593 152.285 152.541 153.056 153.109 152.668 153.445 
153.76 154.295 154.982 154.273 153.867 154.677 155.094 155.673 156.357 
157.081 155.508 155.114 155.93 156.415 157.05 157.697 158.361 159.143 
156.698 156.262 157.15 157.659 158.358 159.044 159.629 160.352 161.175 
157.78 157.295 158.292 158.837 159.588 160.412 161.063 161.74 162.562 
163.304 158.809 158.293 159.363 159.944 160.712 161.638 162.449 163.191 
164.056 164.896 165.506 147.876 148.55 147.542 148.148 147.319 149.217 
147.946 147.011 148.827 150.057 147.829 146.733 148.828 149.831 151.141 
147.825 146.878 148.954 150.012 151.093 152.394 148.032 147.293 149.001 
150.124 151.273 152.461 153.749 148.288 147.565 149.095 150.083 151.265 
152.578 153.854 155.054 148.52 147.764 149.34 150.247 151.278 152.545 
153.936 155.144 156.2 148.865 148.132 149.719 150.654 151.599 152.645 
153.938 155.234 156.282 157.245 149.153 149.999 150.374 151.311 151.626 
150.983 152.643 152.93 152.348 152.004 154.142 154.455 153.767 153.417 
153.003 155.825 156.034 155.408 154.955 154.538 154.16 157.316 157.411 
157.037 156.602 156.163 155.783 155.48 158.609 158.733 158.409 158.113 
157.733 157.344 156.99 156.636 159.983 160.131 159.742 159.508 159.228 
158.843 158.436 158.038 157.621 161.376 161.435 161.13 160.881 160.68 
160.366 159.929 159.503 159.086 158.663 159.699 160.168 161.28 160.616 
161.806 162.902 161.038 162.236 163.429 164.647 161.501 162.662 163.853 
165.209 166.744 161.901 163.134 164.347 165.694 167.376 169.14 162.103 
163.432 164.848 166.27 167.875 169.776 171.549 162.296 163.555 165.065 
166.733 168.371 170.17 172.119 173.793 162.567 163.749 165.105 166.781 
168.602 170.442 172.38 174.255 175.797 162.676 163.909 165.179 166.63 
168.387 170.404 172.476 174.408 176.104 177.515 160.314 161.963 160.941 
163.751 162.734 161.714 165.851 164.795 163.749 162.717 168.317 167.216 
166.05 164.884 163.71 170.898 169.913 168.759 167.385 165.956 164.613 
173.363 172.615 171.749 170.477 168.741 167.112 165.645 175.625 175.11 
174.542 173.691 172.041 170.05 168.345 166.692 177.612 177.307 176.841 
176.284 175.088 173.14 171.15 169.356 167.462 179.308 179.355 181.057 
180.812 182.356 178.901 181.567 182.917 179.968 178.275 181.715 182.881 
180.332 179.006 177.399 181.575 182.29 180.402 179.197 177.83 175.801 
180.894 180.998 180.228 179.152 177.868 176.099 173.724 179.518 179.346 
179.409 178.664 177.485 176.016 174.021 171.667 177.92 177.825 178.039 
177.655 176.639 175.402 173.852 171.779 169.539 176.447 176.454 176.522 
176.348 175.575 174.476 173.236 171.5 169.347 167.284 178.197 180.073 
178.655 180.409 178.849 181.882 180.242 178.581 182.039 183.186 179.543 
177.696 181.437 183.169 183.679 178.408 176.303 180.289 182.208 183.453 
183.34 176.848 174.525 178.848 180.688 182.194 182.736 182.154 174.771 
172.461 176.967 178.876 180.397 181.284 181.275 180.461 172.413 170.372 
174.58 176.612 178.265 179.396 179.911 179.685 178.84 170.228 168.529 
172.112 174.016 175.733 177.103 178.047 178.442 178.161 177.371 162.051 
163.415 162.509 164.078 163.032 164.881 164.907 163.846 165.878 166.376 
165.925 164.798 166.963 167.611 167.998 166.906 165.673 168.045 168.941 
169.595 170.121 167.866 166.503 169.148 170.394 171.539 172.342 172.629 
168.874 167.288 170.422 171.967 173.528 174.714 175.112 174.874 169.744 
167.958 171.633 173.461 175.172 176.557 177.207 177.109 176.662 160.518 
161.023 159.445 159.945 158.351 161.459 158.845 157.287 160.511 162.065 
157.68 156.24 159.472 161.224 162.88 156.579 155.244 158.27 160.198 
161.919 163.68 155.628 154.356 157.144 159.011 160.835 162.507 164.415 
154.747 153.585 156.118 157.839 159.706 161.381 163.118 165.15 153.951 
152.921 155.159 156.683 158.513 160.286 161.934 163.778 165.844 153.342 