# vtk DataFile Version 4.0
vtk output
ASCII
DATASET POLYDATA
POINTS 1002 float
-103.437 -83.5875 78.9059 -103.41 -82.7741 77.771 -103.812 -82.7976 78.6612 
-103.921 -83.7057 79.8478 -104.372 -82.9157 79.5468 -103.577 -84.5267 80.1903 
-104.542 -83.8722 80.7447 -104.957 -83.0196 80.4761 -104.08 -84.6833 81.1456 
-103.782 -85.5623 81.5859 -105.153 -84.0284 81.7422 -105.479 -83.1235 81.5611 
-104.698 -84.8793 82.0977 -104.288 -85.7908 82.5514 -104.059 -86.822 83.0155 
-105.727 -84.2522 82.909 -106.104 -83.3674 82.6544 -105.345 -85.1479 83.214 
-104.98 -86.1052 83.5896 -104.738 -87.1904 83.9794 -104.506 -88.2013 84.4384 
-106.455 -84.6269 83.9598 -106.956 -83.8452 83.4966 -106.022 -85.5294 84.3762 
-105.717 -86.5204 84.7454 -105.555 -87.6179 85.0645 -105.35 -88.6368 85.4322 
-105.084 -89.513 85.8843 -107.319 -85.1717 84.7711 -107.786 -84.4347 84.2575 
-106.834 -86.0142 85.3417 -106.444 -86.991 85.8459 -106.223 -88.0692 86.2539 
-106.026 -89.1064 86.6348 -105.775 -90.0362 87.025 -105.634 -91.0171 87.3787 
-108.018 -85.7533 85.6631 -108.364 -84.945 85.2212 -107.615 -86.5722 86.2541 
-107.213 -87.5102 86.8556 -106.846 -88.54 87.4002 -106.504 -89.5862 87.9042 
-106.228 -90.6352 88.3288 -106.115 -91.7169 88.6183 -106.147 -92.8429 88.8246 
-108.489 -86.2065 86.7517 -108.795 -85.3865 86.2609 -108.142 -87.0294 87.3361 
-107.843 -88.007 87.8981 -107.541 -89.0735 88.4176 -107.144 -90.1026 88.9437 
-106.788 -91.2145 89.4238 -106.646 -92.4438 89.7519 -106.663 -93.624 89.9295 
-106.679 -94.6649 90.0677 -108.921 -86.5683 87.7685 -109.253 -85.8543 87.1214 
-108.542 -87.3255 88.4284 -108.279 -88.3504 88.9399 -108.125 -89.5778 89.3249 
-107.88 -90.6952 89.7189 -107.562 -91.7738 90.1331 -107.386 -93.0544 90.4969 
-107.354 -94.3603 90.76 -107.311 -95.4348 90.9287 -107.206 -96.2936 91.058 
-103.711 -82.0753 77.2103 -104.186 -82.0723 78.1069 -104.208 -81.4987 76.5729 
-104.747 -81.421 77.4929 -104.829 -80.8713 75.9443 -104.756 -82.1145 79.0533 
-105.343 -80.6579 76.9304 -105.321 -79.9475 75.43 -105.294 -81.3611 78.5262 
-105.286 -82.1373 80.1301 -105.752 -79.6928 76.5264 -105.777 -79.0542 74.9761 
-105.854 -80.5538 78.0633 -105.817 -81.3345 79.7304 -105.85 -82.2391 81.3005 
-106.28 -78.9874 76.1584 -106.655 -78.6981 74.4926 -106.305 -79.6839 77.758 
-106.448 -80.5648 79.3309 -106.51 -81.5199 80.8655 -106.671 -82.6344 82.2632 
-107.308 -78.7276 75.641 -107.819 -78.5137 74.0286 -107.003 -79.0652 77.4272 
-107.04 -79.7589 79.0536 -107.241 -80.8522 80.4009 -107.437 -82.0762 81.7151 
-107.613 -83.2508 83.0448 -108.403 -78.4017 75.078 -108.672 -77.9495 73.6873 
-108.056 -78.7377 76.8788 -107.802 -79.1255 78.7465 -107.853 -80.0714 80.1391 
-108.104 -81.424 81.3078 -108.255 -82.622 82.6836 -108.304 -83.7406 84.0362 
-109.102 -77.8234 74.7528 -109.168 -77.196 73.5452 -108.961 -78.4315 76.3335 
-108.674 -78.7921 78.2785 -108.477 -79.3918 79.9699 -108.59 -80.5833 81.1943 
-108.737 -81.8137 82.5182 -108.724 -82.8778 83.9698 -108.734 -84.112 85.1819 
-109.595 -77.2745 74.7465 -109.655 -76.65 73.5912 -109.548 -78.0608 76.0839 
-109.378 -78.5835 77.8416 -109.137 -78.9778 79.7316 -109.079 -79.8219 81.2072 
-109.145 -80.9848 82.4685 -109.092 -82.0417 83.87 -109.05 -83.2222 85.1308 
-109.156 -84.6225 86.1276 -110.242 -76.6942 74.5071 -110.146 -77.4745 75.7774 
-110.944 -77.0115 75.4865 -110.83 -77.7507 76.9152 -111.623 -77.5277 76.473 
-110.039 -78.2177 77.2989 -111.587 -78.1471 78.1955 -112.154 -78.3749 77.7421 
-110.725 -78.3093 78.7121 -109.864 -78.6427 79.2555 -112.17 -79.0838 79.642 
-112.529 -79.5586 79.2394 -111.533 -78.762 80.1847 -110.621 -78.8288 80.7794 
-109.737 -79.2369 81.1295 -112.512 -80.4294 80.9061 -112.99 -80.6936 80.3878 
-112.076 -80.0207 81.419 -111.427 -79.6927 82.029 -110.525 -79.8455 82.4466 
-109.7 -80.3483 82.5306 -113.017 -81.4854 81.9053 -113.65 -81.5816 81.1815 
-112.463 -81.4286 82.4506 -111.982 -81.123 82.9713 -111.262 -80.9781 83.4575 
-110.335 -81.1938 83.7355 -109.569 -81.5498 83.8584 -113.704 -82.2683 82.9887 
-114.124 -82.5126 82.1335 -113.105 -82.3673 83.6483 -112.531 -82.3526 84.0987 
-111.915 -82.2169 84.5272 -111.059 -82.3169 84.857 -110.136 -82.5497 85.0468 
-109.461 -82.8033 85.1619 -114.082 -83.3529 84.1416 -114.155 -83.7532 83.2836 
-113.728 -83.3165 84.8849 -113.147 -83.4332 85.3573 -112.515 -83.4136 85.7603 
-111.828 -83.4651 86.1098 -111.001 -83.7545 86.2164 -110.197 -84.055 86.1973 
-109.59 -84.3054 86.1963 -114.066 -84.848 85.1128 -113.984 -85.2208 84.3284 
-113.972 -84.6739 85.8536 -113.564 -84.7562 86.3526 -112.946 -84.8375 86.744 
-112.358 -84.8033 87.1689 -111.779 -84.9163 87.3858 -111.095 -85.2423 87.2893 
-110.392 -85.5351 87.1689 -109.772 -85.7066 87.1586 -109.576 -86.7858 88.308 
-110.248 -86.7708 88.2884 -109.889 -87.8306 89.5486 -110.975 -86.6263 88.3205 
-110.621 -87.8986 89.5677 -110.31 -89.3938 90.6262 -111.658 -86.3729 88.4445 
-111.367 -87.804 89.6231 -111.045 -89.4994 90.7828 -110.904 -91.414 91.5735 
-112.203 -86.2966 88.3678 -112.029 -87.744 89.5924 -111.8 -89.4511 90.8409 
-111.631 -91.5047 91.8421 -111.457 -93.4047 92.5444 -112.728 -86.4074 87.9874 
-112.608 -87.8763 89.3433 -112.471 -89.4835 90.6553 -112.279 -91.5892 91.757 
-112.101 -93.7669 92.6837 -111.847 -95.7579 93.3993 -113.368 -86.3876 87.5843 
-113.267 -87.9426 89.0466 -113.123 -89.5692 90.4363 -112.744 -91.8052 91.3813 
-112.448 -94.3435 92.287 -112.359 -96.6832 93.295 -112.255 -98.975 94.0372 
-113.863 -86.2914 87.1661 -113.856 -87.9284 88.7122 -113.792 -89.6579 90.2877 
-113.255 -92.0436 91.1826 -112.598 -94.9109 91.7852 -112.477 -97.5405 92.8053 
-112.689 -99.9477 93.854 -112.786 -102.28 94.5416 -113.994 -86.3937 86.5157 
-114.049 -88.0872 88.1004 -114.14 -89.9279 89.863 -113.796 -92.3329 91.0563 
-113 -95.2478 91.6108 -112.572 -97.9655 92.4418 -112.826 -100.37 93.5379 
-113.224 -102.75 94.3277 -113.383 -104.892 94.8496 -113.936 -86.6545 85.7015 
-113.985 -88.3344 87.228 -114.098 -90.2329 89.0363 -114.022 -92.5834 90.6014 
-113.535 -95.3527 91.4716 -113.03 -97.9862 92.2576 -113.052 -100.315 93.3097 
-113.465 -102.696 94.1025 -113.821 -105.063 94.5181 -113.948 -106.961 94.8733 
-109.138 -87.4771 89.144 -109.513 -88.854 90.305 -108.792 -88.4808 89.7712 
-110.13 -90.9304 91.1893 -109.334 -90.3272 90.7842 -108.655 -89.9063 90.1432 
-110.737 -93.0821 92.1424 -109.975 -92.573 91.7658 -109.197 -91.9497 91.2413 
-108.527 -91.3234 90.4748 -111.148 -95.1994 93.1547 -110.414 -94.6908 92.8756 
-109.636 -94.0851 92.5125 -108.911 -93.3298 91.722 -108.279 -92.5103 90.8167 
-111.604 -98.2454 93.932 -110.888 -97.4045 93.6773 -110.126 -96.5397 93.5039 
-109.313 -95.6345 92.9892 -108.687 -94.7019 91.9995 -108.117 -93.8331 91.1241 
-112.215 -101.939 94.5793 -111.575 -101.121 94.2692 -110.942 -99.9359 93.9411 
-110.106 -98.5953 93.6965 -109.253 -97.3342 93.0991 -108.667 -96.2595 92.2009 
-108.086 -95.3009 91.4311 -112.873 -104.994 95.1192 -112.261 -104.608 94.9856 
-111.747 -103.647 94.4511 -111.124 -102.126 93.9978 -110.175 -100.388 93.7117 
-109.264 -98.887 93.1981 -108.622 -97.667 92.4462 -107.998 -96.5308 91.6877 
-113.527 -107.172 95.3115 -112.92 -107.067 95.4792 -112.362 -106.616 95.0773 
-111.894 -105.543 94.3968 -111.168 -103.74 93.9747 -110.113 -101.764 93.7436 
-109.158 -100.134 93.3036 -108.464 -98.7517 92.6128 -107.83 -97.4524 91.8438 
-114.267 -109.107 94.9406 -113.793 -109.068 95.3446 -114.55 -111.226 94.6377 
-114.056 -111.023 94.7482 -114.769 -113.348 93.816 -113.148 -108.912 95.3084 
-114.206 -112.983 93.7181 -114.845 -115.233 92.8066 -113.423 -110.888 94.4965 
-112.579 -108.54 94.7469 -114.098 -114.471 92.8835 -114.673 -116.486 91.8915 
-113.565 -112.571 93.6358 -112.816 -110.394 94.0984 -112.009 -107.266 94.1523 
-113.794 -115.328 92.191 -114.31 -116.974 90.9288 -113.374 -113.416 93.0957 
-112.805 -111.477 93.6171 -111.998 -108.645 93.8527 -111.054 -105.046 93.8937 
-113.521 -115.508 91.4495 -113.956 -116.617 90.219 -113.039 -113.614 92.4546 
-112.434 -111.579 93.1524 -111.696 -109.224 93.5906 -110.807 -106.1 93.7697 
-109.866 -102.827 93.6975 -113.196 -114.644 91.068 -113.534 -115.338 90.1524 
-112.731 -113.135 91.8357 -112.037 -111.154 92.4699 -111.26 -109.08 93.1152 
-110.505 -106.666 93.5357 -109.662 -103.784 93.5481 -108.908 -101.002 93.2112 
-112.52 -112.888 90.9759 -112.796 -113.375 90.3405 -112.185 -111.838 91.5311 
-111.656 -110.295 91.945 -110.949 -108.514 92.4746 -110.273 -106.6 93.0241 
-109.564 -104.31 93.2113 -108.77 -101.71 92.9807 -108.168 -99.3388 92.478 
-111.554 -110.85 90.72 -111.81 -111.116 90.3028 -111.314 -110.179 91.2051 
-111.037 -109.12 91.5991 -110.591 -107.69 91.9614 -110.033 -106.029 92.3516 
-109.417 -104.169 92.5939 -108.659 -102.008 92.5455 -107.929 -99.7776 92.2175 
-107.47 -97.8599 91.6795 -114.382 -107.97 94.4847 -114.715 -110.533 94.3395 
-114.661 -108.984 94.0359 -115.004 -111.724 93.6388 -114.809 -109.693 93.5213 
-115.044 -112.99 93.843 -115.254 -112.199 92.8395 -114.833 -109.823 92.9776 
-115.554 -114.226 92.8678 -115.44 -115.321 92.9124 -115.348 -111.997 92.1184 
-114.714 -109.204 92.4549 -116.051 -114.547 91.8167 -116.322 -116.567 91.841 
-115.718 -117.151 91.8398 -115.09 -111.057 91.6455 -114.507 -107.616 91.8192 
-115.984 -114.126 91.1255 -116.81 -116.678 90.9057 -116.66 -118.016 90.8008 
-115.487 -117.883 90.6725 -114.62 -108.973 91.2869 -114.21 -105.25 91.0601 
-115.279 -112.627 90.9421 -116.217 -115.691 90.5095 -116.722 -117.536 90.1032 
-116.068 -117.97 89.5766 -114.861 -117.573 89.5227 -114.057 -106.114 90.9129 
-113.733 -102.799 90.3641 -114.491 -109.777 90.9426 -115.131 -113.31 90.5532 
-115.816 -115.914 89.9552 -115.862 -117.023 89.154 -115.146 -117.086 88.667 
-114.284 -116.573 89.1319 -113.4 -103.361 90.4227 -113.168 -100.703 89.6983 
-113.768 -106.451 90.8005 -114.234 -109.786 90.6864 -114.787 -112.936 90.1837 
-115.141 -115.063 89.4605 -114.96 -115.845 88.8386 -114.383 -115.72 88.865 
-113.645 -114.879 89.5619 -112.806 -101.059 89.6624 -112.728 -98.9592 88.8823 
-113.063 -103.532 90.2798 -113.45 -106.223 90.5448 -113.891 -109.058 90.3993 
[...]
CELL_DATA 2000
SCALARS Distance double
LOOKUP_TABLE default
153.191 154.024 153.826 154.345 154.952 154.735 155.261 155.069 155.672 
155.919 155.702 156.255 156.031 156.632 156.465 157.171 156.984 156.73 
157.347 157.089 157.744 157.511 158.264 158.093 158.908 158.189 157.884 
158.549 158.265 158.989 158.725 159.539 159.311 160.174 159.942 160.775 
159.462 159.147 159.826 159.533 160.282 160.022 160.852 160.633 161.5 
161.268 162.102 161.84 162.681 160.685 160.413 161.102 160.83 161.589 
161.334 162.152 161.93 162.775 162.564 163.399 163.168 164.017 163.792 
164.708 161.804 161.59 162.281 162.064 162.82 162.617 163.431 163.221 
164.043 163.82 164.653 164.444 165.326 165.131 166.06 165.862 166.788 
162.835 162.662 163.331 163.163 163.886 163.759 164.564 164.439 165.255 
165.069 165.869 165.677 166.545 166.405 167.343 167.194 168.101 167.891 
168.706 152.695 152.306 152.801 153.495 152.043 152.472 153.124 153.653 
154.398 151.742 152.214 152.839 153.32 154.016 154.566 155.337 151.341 
151.845 152.513 153.035 153.735 154.235 154.989 155.542 156.378 151.218 
151.517 152.211 152.703 153.487 153.996 154.791 155.284 156.14 156.681 
157.592 151.557 151.628 152.257 152.542 153.337 153.789 154.654 155.146 
156.042 156.542 157.469 157.978 158.89 151.882 152.011 152.572 152.747 
153.448 153.753 154.581 155.029 155.943 156.464 157.392 157.897 158.784 
159.268 160.111 151.914 152.185 152.766 153.024 153.683 153.933 154.663 
155.005 155.852 156.342 157.251 157.781 158.632 159.131 159.932 160.429 
161.216 151.937 152.191 152.839 153.143 153.844 154.126 154.828 155.114 
155.88 156.275 157.128 157.614 158.44 158.929 159.697 160.202 160.979 
161.496 162.257 152.265 153.272 152.874 153.195 154.455 153.981 154.264 
153.876 154.222 155.796 155.241 155.528 155.026 155.337 154.921 155.245 
157.338 156.707 157.032 156.407 156.728 156.16 156.494 155.995 156.343 
158.878 158.292 158.628 158 158.331 157.684 158.016 157.393 157.735 
157.184 157.573 160.268 159.762 160.11 159.563 159.907 159.304 159.624 
158.983 159.277 158.651 158.964 158.436 158.817 161.607 161.137 161.56 
161.039 161.447 160.862 161.224 160.59 160.905 160.233 160.518 159.874 
160.198 159.668 160.059 162.911 162.505 163.017 162.541 163.015 162.441 
162.847 162.215 162.591 161.916 162.263 161.537 161.873 161.177 161.557 
160.968 161.383 164.127 163.799 164.353 163.976 164.475 163.99 164.391 
163.821 164.19 163.592 163.965 163.312 163.658 162.945 163.282 162.59 
162.95 162.332 162.689 163.545 163.894 164.133 164.955 164.275 164.528 
165.416 165.605 166.496 164.648 164.928 165.846 166.081 167.038 167.264 
168.307 164.931 165.268 166.203 166.5 167.494 167.797 168.904 169.187 
170.289 165.139 165.507 166.475 166.834 167.853 168.216 169.333 169.718 
170.881 171.169 172.263 165.333 165.712 166.722 167.118 168.188 168.564 
169.646 170.052 171.203 171.647 172.86 173.187 174.417 165.407 165.863 
166.886 167.365 168.502 168.929 170.023 170.365 171.441 171.875 173.112 
173.653 175.016 175.453 176.812 165.259 165.813 166.807 167.423 168.587 
169.187 170.358 170.769 171.826 172.158 173.312 173.832 175.202 175.846 
177.251 177.78 179.042 164.986 165.564 166.511 167.199 168.329 169.101 
170.323 170.982 172.1 172.535 173.611 174.055 175.305 175.932 177.303 
177.979 179.254 179.789 180.847 163.615 164.987 164.234 164.123 166.554 
165.694 165.608 164.79 164.72 168.435 167.449 167.432 166.45 166.422 
165.51 165.481 170.433 169.459 169.501 168.459 168.45 167.395 167.344 
166.342 166.241 172.403 171.453 171.523 170.545 170.558 169.505 169.407 
168.302 168.131 167.072 166.886 174.659 173.568 173.718 172.621 172.713 
171.627 171.588 170.42 170.239 169.056 168.872 167.761 167.613 177.216 
176.099 176.401 175.109 175.289 173.989 174.05 172.735 172.626 171.299 
171.137 169.894 169.776 168.607 168.478 179.538 178.68 179.095 177.933 
178.14 176.788 176.837 175.4 175.285 173.827 173.617 172.255 172.069 
170.834 170.652 169.466 169.238 181.333 180.771 181.207 180.39 180.592 
179.505 179.508 178.192 178.007 176.537 176.212 174.751 174.419 173.099 
172.802 171.591 171.277 170.111 169.788 182.355 183.713 182.817 182.232 
184.812 184.017 183.384 182.495 181.673 185.628 184.94 184.284 183.524 
182.727 181.765 180.686 186.074 185.564 184.899 184.307 183.565 182.746 
181.677 180.581 179.215 186.018 185.778 185.082 184.713 183.964 183.408 
182.336 181.424 179.969 178.857 177.324 185.487 185.508 184.806 184.619 
183.737 183.45 182.345 181.786 180.331 179.426 177.82 176.829 175.386 
184.555 184.799 184.095 184.08 183.056 182.899 181.729 181.462 180.15 
179.578 178.081 177.226 175.747 174.896 173.632 183.151 183.614 182.845 
183.081 182.025 182.012 180.821 180.694 179.516 179.239 177.964 177.377 
175.955 175.178 173.823 173.128 171.985 181.299 181.918 181.105 181.571 
180.606 180.824 179.733 179.742 178.625 178.526 177.371 177.086 175.771 
175.227 173.837 173.21 171.972 171.443 170.412 182.546 183.219 183.316 
184.022 183.662 183.948 184.794 184.77 185.258 183.698 184.224 185.179 
185.463 186.161 185.979 186.223 183.26 184.035 185.046 185.664 186.611 
186.823 187.289 186.87 186.786 182.238 183.337 184.371 185.306 186.366 
187.052 187.729 187.753 187.666 187.118 186.646 180.546 181.977 182.994 
184.291 185.282 186.423 187.114 187.733 187.637 187.546 186.88 186.529 
185.879 178.453 180.003 180.937 182.496 183.356 184.845 185.47 186.598 
186.584 187.003 186.357 186.325 185.596 185.502 184.865 176.368 177.807 
178.599 180.177 180.905 182.523 183.098 184.556 184.742 185.642 185.273 
185.568 184.946 185.006 184.381 184.334 183.562 174.47 175.717 176.337 
177.779 178.369 179.915 180.392 181.955 182.227 183.555 183.448 184.265 
183.789 184.175 183.519 183.666 182.843 182.785 181.757 165.105 165.85 
165.853 166.682 166.751 166.723 167.658 167.613 168.573 167.782 167.731 
168.758 168.713 169.786 169.69 170.669 168.934 168.858 169.963 169.914 
171.077 170.993 172.062 171.832 172.606 170.145 170.083 171.265 171.221 
172.474 172.378 173.533 173.299 174.189 173.725 174.294 171.279 171.296 
172.542 172.573 173.936 173.882 175.169 174.915 175.966 175.474 176.24 
175.524 176.09 172.259 172.377 173.664 173.813 175.284 175.376 176.846 
176.692 177.937 177.463 178.412 177.68 178.386 177.511 178.097 173.078 
173.297 174.631 174.882 176.424 176.678 178.286 178.362 179.761 179.49 
180.544 179.94 180.697 179.874 180.443 179.54 180.022 173.736 174.062 
175.445 175.796 177.363 177.742 179.373 179.664 181.098 181.118 182.182 
181.879 182.619 182.041 182.557 181.782 182.156 181.299 181.59 164.317 
163.363 164.184 164.968 162.447 163.199 163.915 164.863 165.773 161.541 
162.248 162.856 163.77 164.676 165.73 166.759 160.555 161.301 161.869 
162.717 163.604 164.649 165.748 166.804 167.904 159.492 160.295 160.924 
161.751 162.61 163.615 164.732 165.821 166.97 167.997 169.09 158.518 
159.287 159.976 160.81 161.625 162.598 163.61 164.739 165.856 166.999 
168.089 169.152 170.191 157.764 158.421 159.097 159.884 160.65 161.558 
162.416 163.495 164.492 165.723 166.81 168.033 169.088 170.183 171.155 
157.17 157.733 158.334 159.042 159.755 160.577 161.342 162.274 163.147 
164.286 165.349 166.641 167.758 168.983 169.979 171.056 171.943 156.614 
157.129 157.639 158.281 158.929 159.695 160.421 161.247 162.04 163.009 
163.995 165.196 166.328 167.598 168.635 169.792 170.664 171.737 172.547 
156.438 156.527 156.783 157.469 156.821 156.984 157.731 157.96 158.778 
157.313 157.414 158.197 158.351 159.219 159.416 160.294 157.858 157.968 
158.788 158.917 159.806 159.954 160.88 161.022 161.942 158.454 158.538 
159.403 159.544 160.486 160.62 161.613 161.725 162.771 162.847 163.931 
159.169 159.196 160.077 160.201 161.22 161.364 162.445 162.56 163.706 
163.806 165.013 165.062 166.258 159.91 159.948 160.84 160.942 162.009 
162.163 163.316 163.452 164.63 164.769 165.987 166.131 167.333 167.41 
168.518 160.586 160.683 161.618 161.736 162.822 162.992 164.181 164.35 
165.545 165.689 166.878 167.038 168.215 168.366 169.471 169.545 170.533 
161.228 161.366 162.348 162.503 163.589 163.79 164.979 165.2 166.423 
166.6 167.806 167.94 169.13 169.246 170.398 170.472 171.534 171.522 
172.463 161.915 163.47 162.817 163.112 165.241 164.502 164.852 164.114 
164.436 167.32 166.465 166.913 166.04 166.442 165.576 165.918 169.593 
168.733 169.281 168.315 168.784 167.784 168.171 167.171 167.455 171.765 
171.028 171.64 170.753 171.25 170.246 170.649 169.574 169.868 168.75 
168.923 173.976 173.25 174.023 173.149 173.775 172.762 173.246 172.136 
172.492 171.298 171.493 170.237 170.309 176.436 175.71 176.794 175.83 
176.756 175.573 176.272 174.957 175.438 174.083 174.357 172.961 173.026 
171.63 171.603 178.774 178.285 179.58 178.812 179.937 178.842 179.688 
178.298 178.819 177.273 177.528 175.968 176.009 174.463 174.34 172.877 
172.734 180.567 180.41 181.656 181.315 182.354 181.744 182.523 181.56 
182.009 180.657 180.766 179.185 179.079 177.464 177.228 175.651 175.348 
173.896 173.637 161.456 161.237 161.884 162.995 161.02 161.69 162.863 
163.521 164.734 160.755 161.458 162.655 163.389 164.668 165.355 166.717 
160.41 161.136 162.322 163.137 164.455 165.251 166.654 167.432 168.896 
160.037 160.747 161.912 162.762 164.098 164.976 166.395 167.276 168.76 
169.6 171.036 159.703 160.368 161.528 162.363 163.741 164.626 166.072 
166.963 168.468 169.383 170.889 171.702 173.156 159.441 160.056 161.218 
162.025 163.458 164.338 165.83 166.679 168.192 169.09 170.65 171.535 
173.057 173.866 175.411 159.254 159.831 160.98 161.751 163.182 164.081 
165.577 166.445 167.916 168.813 170.356 171.294 172.826 173.704 175.185 
176.083 177.596 159.123 159.678 160.794 161.519 162.874 163.766 165.195 
166.107 167.493 168.434 169.9 170.925 172.444 173.408 174.819 175.719 
177.079 178.059 179.395 160.487 159.01 159.876 160.198 157.623 158.416 
158.679 159.595 159.963 156.278 157.042 157.287 158.131 158.456 159.373 
159.725 155.023 155.709 155.923 156.737 157.008 157.884 158.177 159.102 
159.405 153.94 154.525 154.657 155.37 155.534 156.359 156.55 157.494 
157.764 158.751 159.047 152.829 153.435 153.519 154.157 154.227 154.891 
154.934 155.769 155.974 157.027 157.379 158.412 158.738 151.667 152.249 
152.302 152.966 153.022 153.645 153.618 154.242 154.32 155.217 155.585 
156.695 157.139 158.148 158.498 150.798 151.174 151.152 151.698 151.721 
152.381 152.409 153.023 153.071 153.742 154.02 154.966 155.466 156.529 
156.984 157.943 158.309 150.313 150.495 150.408 150.689 150.634 151.119 
151.192 151.822 151.989 152.624 152.885 153.61 154.041 154.952 155.449 
156.418 156.842 157.774 158.165 150.106 149.84 150.017 150.136 149.746 
149.809 149.892 150.042 150.258 149.761 149.807 149.897 149.919 150.096 
150.285 150.734 149.581 149.757 149.883 149.978 150.162 150.258 150.666 
150.953 151.579 149.408 149.532 149.705 149.88 150.107 150.294 150.702 
150.978 151.607 151.92 152.592 149.776 149.623 149.876 149.834 150.128 
150.226 150.695 150.984 151.672 152.018 152.756 153.015 153.74 150.587 
150.297 150.625 150.357 150.724 150.537 151.061 151.121 151.876 152.138 
152.952 153.223 153.989 154.246 155.045 151.447 151.178 151.532 151.269 
151.688 151.411 151.949 151.785 152.513 152.545 153.36 153.505 154.291 
154.505 155.304 155.588 156.415 152.309 152.029 152.392 152.164 152.617 
152.404 152.95 152.771 153.433 153.338 154.078 154.068 154.831 154.909 
155.715 155.897 156.748 156.982 157.799 152.951 154.092 153.333 153.053 
155.457 154.601 154.317 153.529 153.32 157.005 156.084 155.843 154.932 
154.71 153.886 153.728 158.719 157.738 157.532 156.559 156.337 155.399 
155.222 154.375 154.258 160.558 159.537 159.354 158.331 158.145 157.125 
156.953 155.987 155.862 154.98 154.894 162.535 161.477 161.383 160.282 
160.181 159.068 158.974 157.879 157.799 156.748 156.668 155.697 155.644 
164.661 163.598 163.652 162.495 162.492 161.28 161.244 160.052 160.021 
158.863 158.814 157.67 157.601 156.546 156.539 166.766 165.794 165.942 
164.863 164.933 163.719 163.683 162.42 162.35 161.142 161.077 159.906 
159.819 158.658 158.585 157.522 157.548 168.661 167.825 167.98 167.069 
167.172 166.115 166.104 164.885 164.78 163.508 163.389 162.165 162.053 
160.877 160.762 159.631 159.555 158.536 158.552 159.394 160.485 160.307 
161.153 161.744 161.542 162.487 162.276 163.272 163.106 162.912 163.951 
163.727 164.783 164.539 165.571 164.558 164.388 165.567 165.323 166.451 
166.134 167.188 166.869 167.879 166.005 165.902 167.183 167.017 168.247 
167.924 169.049 168.631 169.74 169.308 170.388 167.279 167.285 168.537 
168.537 169.807 169.682 170.907 170.598 171.813 171.374 172.556 172.003 
173.034 168.292 168.411 169.618 169.739 171.024 171.092 172.409 172.35 
173.664 173.437 174.658 174.217 175.23 174.601 175.422 169.071 169.279 
170.504 170.723 172.08 172.26 173.665 173.747 175.111 175.088 176.332 
176.13 177.15 176.692 177.516 176.875 177.632 169.716 169.97 171.196 
171.521 172.924 173.263 174.72 174.942 176.279 176.366 177.558 177.547 
178.606 178.411 179.321 178.884 179.704 179.092 179.876 151.416 151.436 
151.191 150.822 151.437 151.262 150.872 150.678 150.384 151.083 151.094 
150.669 150.623 150.25 150.205 149.984 150.682 150.619 150.178 150.219 
149.847 149.924 149.73 149.834 149.797 150.776 150.415 149.989 149.814 
149.559 149.551 149.51 149.612 149.718 149.798 149.864 151.179 150.716 
150.257 149.889 149.658 149.501 149.564 149.581 149.766 149.801 149.883 
149.866 149.828 151.48 151.087 150.564 150.197 149.813 149.641 149.575 
149.654 149.777 149.873 149.883 149.859 149.751 149.738 149.69 151.747 
151.35 150.845 150.452 149.976 149.704 149.443 149.486 149.511 149.724 
149.752 149.816 149.71 149.669 149.625 149.66 149.759 152.152 151.699 
151.274 150.816 150.398 149.95 149.617 149.382 149.325 149.412 149.544 
149.671 149.712 149.687 149.676 149.654 149.756 149.825 149.999 151.394 
150.743 151.09 151.305 150.31 150.524 150.658 151.092 151.473 149.996 
150.144 150.238 150.537 150.881 151.383 151.915 149.84 149.89 149.969 
150.168 150.494 150.907 151.465 151.972 152.573 149.848 149.825 149.861 
149.954 150.274 150.614 151.227 151.665 152.285 152.687 153.198 149.823 
149.845 149.885 149.922 150.224 150.482 151.131 151.536 152.198 152.509 
152.972 153.26 153.684 149.766 149.809 149.926 149.978 150.28 150.488 
151.077 151.463 152.098 152.429 152.848 153.081 153.441 153.756 154.246 
149.866 149.843 149.998 150.037 150.328 150.518 151.009 151.361 151.89 
152.243 152.606 152.882 153.185 153.511 153.965 154.385 154.952 150.108 
150.041 150.179 150.158 150.412 150.542 150.983 151.26 151.75 152.029 
152.388 152.613 152.916 153.212 153.644 154.071 154.624 155.085 155.624 
151.934 151.897 152.222 152.95 152.072 152.283 152.992 153.335 154.13 
152.485 152.551 153.192 153.421 154.186 154.553 155.431 153.091 153.059 
153.636 153.703 154.396 154.651 155.543 155.958 156.952 153.651 153.658 
154.208 154.218 154.839 154.951 155.795 156.133 157.172 157.577 158.549 
154.116 154.145 154.698 154.754 155.365 155.441 156.234 156.477 157.52 
157.876 158.897 159.166 160.001 154.713 154.654 155.219 155.232 155.876 
155.952 156.757 156.964 158.002 158.314 159.366 159.593 160.435 160.574 
161.311 155.446 155.346 155.905 155.836 156.468 156.494 157.29 157.476 
158.469 158.788 159.802 160.068 160.88 161.02 161.688 161.84 162.541 
156.111 156.067 156.611 156.549 157.139 157.128 157.85 157.986 158.859 
159.155 160.048 160.376 161.123 161.36 161.977 162.165 162.799 163.023 
163.721 160.368 159.778 159.697 158.951 159.171 159.135 158.413 158.31 
157.576 158.44 158.48 157.777 157.746 156.979 156.913 156.195 157.686 
157.699 156.981 157.019 156.29 156.281 155.575 155.556 154.952 157.086 
156.998 156.268 156.238 155.59 155.604 155.039 155.019 154.48 154.432 
153.919 156.576 156.459 155.736 155.633 155.014 155.001 154.532 154.556 
154.083 154.026 153.443 153.383 152.798 156.118 155.974 155.256 155.136 
154.479 154.461 153.952 154.038 153.546 153.568 152.915 152.846 152.15 
152.161 151.61 155.863 155.617 154.918 154.701 154.023 153.922 153.375 
153.423 152.939 152.977 152.361 152.277 151.593 151.533 151.019 151.084 
150.765 155.822 155.504 154.845 154.506 153.858 153.593 153.083 152.965 
152.573 152.498 152.034 151.86 151.299 151.116 150.67 150.633 150.395 
150.462 150.312 
POINT_DATA 1002
SCALARS Distance double
LOOKUP_TABLE default
153.636 152.602 153.337 154.506 154.23 154.896 155.472 155.156 155.807 
156.315 156.48 156.123 156.817 157.275 157.928 157.59 157.241 157.973 
158.443 159.078 159.72 158.824 158.504 159.236 159.76 160.415 161.03 
161.577 160.115 159.769 160.54 161.072 161.725 162.362 162.916 163.553 
161.357 160.93 161.836 162.391 162.995 163.609 164.231 164.908 165.664 
162.486 161.998 163.002 163.626 164.278 164.859 165.494 166.256 167.017 
167.683 163.504 163.005 164.006 164.652 165.416 166.073 166.678 167.465 
168.311 168.975 169.462 152.147 152.92 151.856 152.645 151.633 153.81 
152.367 151.23 153.509 154.733 151.941 150.855 153.234 154.466 155.772 
151.757 151.046 152.938 154.292 155.618 157.033 152.084 151.544 152.935 
154.141 155.532 156.977 158.399 152.411 151.695 153.228 154.188 155.417 
156.884 158.318 159.638 152.453 151.597 153.437 154.389 155.415 156.728 
158.143 159.439 160.722 152.524 151.693 153.542 154.558 155.543 156.685 
157.973 159.207 160.447 161.77 152.58 153.521 153.718 154.706 154.944 
154.569 156.077 156.369 155.806 155.641 157.68 157.969 157.344 157.039 
156.806 159.23 159.438 158.98 158.674 158.338 158.064 160.621 160.748 
160.483 160.261 159.941 159.555 159.275 162.046 162.03 162.016 161.843 
161.572 161.207 160.794 160.526 163.446 163.263 163.564 163.467 163.233 
162.972 162.614 162.214 161.933 164.694 164.428 164.922 164.944 164.767 
164.573 164.353 164.009 163.624 163.293 164.34 164.767 165.76 165.193 
166.29 167.442 165.584 166.764 168.065 169.417 165.87 167.156 168.567 
170.084 171.371 166.08 167.479 168.928 170.507 172.058 173.364 166.291 
167.798 169.289 170.727 172.385 174.146 175.749 166.359 168.011 169.702 
171.085 172.525 174.437 176.474 178.221 166.164 167.904 169.852 171.529 
172.879 174.543 176.632 178.653 180.259 165.839 167.536 169.552 171.573 
173.211 174.752 176.625 178.656 180.459 181.828 164.862 166.461 165.504 
168.448 167.389 166.377 170.515 169.544 168.422 167.237 172.478 171.579 
170.554 169.25 167.909 174.872 173.812 172.755 171.46 170.012 168.698 
177.687 176.655 175.41 173.996 172.429 170.975 169.659 180.141 179.466 
178.308 176.803 175.063 173.365 171.87 170.431 181.917 181.567 180.748 
179.473 177.751 175.83 174.066 172.475 170.929 183.324 183.216 184.605 
184.235 185.604 182.707 184.987 186.299 183.636 181.844 185.412 186.518 
184.302 182.763 180.43 185.41 186.13 184.428 183.164 181.087 178.399 
184.99 185.346 184.024 182.763 181.113 178.801 176.266 184.067 184.257 
183.232 181.916 180.515 178.828 176.619 174.359 182.524 182.68 181.951 
180.895 179.656 178.38 176.689 174.56 172.554 180.555 180.667 180.242 
179.629 178.679 177.545 176.192 174.435 172.518 170.848 182.489 184.141 
183.031 184.678 183.282 185.57 184.718 183.1 186.149 186.771 184.295 
182.393 186.134 187.556 187.546 183.332 181 185.496 187.473 188.162 
187.296 181.61 179.038 184.053 186.304 187.567 187.183 186.165 179.373 
176.957 181.838 184.187 185.926 186.262 185.627 184.996 177.1 175.051 
179.333 181.555 183.564 184.742 184.818 184.396 183.753 175.004 173.358 
176.912 178.869 180.761 182.369 183.241 183.315 182.853 181.928 165.05 
166.674 165.829 167.669 166.757 168.636 168.772 167.823 169.841 170.89 
169.987 168.999 171.139 172.259 173.045 171.271 170.171 172.547 173.748 
174.602 174.929 172.453 171.22 173.911 175.363 176.405 176.899 176.898 
173.463 172.1 175.086 176.867 178.321 179.097 179.251 179.016 174.334 
172.806 176.104 178.093 179.909 181.063 181.484 181.367 180.957 163.476 
164.029 162.589 162.984 161.772 164.735 161.994 160.862 163.595 165.699 
161.052 159.755 162.565 164.655 166.894 160.082 158.642 161.642 163.629 
165.916 168.103 159.141 157.774 160.71 162.528 164.676 166.98 169.186 
158.35 157.171 159.805 161.44 163.286 165.517 167.935 170.147 157.68 
156.662 158.974 160.491 162.1 164.059 166.475 168.868 170.925 157.047 