# vtk DataFile Version 4.0
vtk output
ASCII
DATASET POLYDATA
POINTS 1002 float
-103.737 -83.1971 76.3967 -103.61 -82.4785 75.1469 -104.066 -82.3193 75.9901 
-104.287 -83.0933 77.1546 -104.686 -82.2304 76.7684 -104.04 -84.0434 77.5423 
-104.965 -83.052 77.945 -105.332 -82.119 77.7586 -104.716 -84.0162 78.2427 
-104.557 -84.9937 78.6538 -105.588 -83.0185 79.182 -105.859 -82.0513 79.1023 
-105.399 -84.0606 79.3015 -105.212 -85.1025 79.6598 -105.083 -86.1342 80.1881 
-106.126 -83.0928 80.6567 -106.434 -82.2154 80.3675 -105.934 -84.0977 80.87 
-105.717 -85.2149 81.1919 -105.537 -86.3949 81.6588 -105.46 -87.5099 82.1472 
-106.856 -83.3579 81.7804 -107.282 -82.5742 81.3458 -106.486 -84.2307 82.2565 
-106.16 -85.27 82.7549 -105.984 -86.5466 83.1656 -105.967 -87.8362 83.5107 
-106.003 -88.9907 83.8664 -107.738 -83.6665 82.8416 -108.124 -82.9284 82.4697 
-107.266 -84.5305 83.2701 -106.84 -85.532 83.8168 -106.668 -86.7545 84.2665 
-106.732 -88.1331 84.5316 -106.826 -89.4177 84.8292 -106.891 -90.602 85.2225 
-108.344 -83.9523 84.2243 -108.638 -83.2312 83.8172 -107.973 -84.9012 84.5235 
-107.639 -86.0593 84.8598 -107.52 -87.2884 85.2538 -107.589 -88.613 85.5691 
-107.658 -89.9756 85.8797 -107.707 -91.2439 86.2627 -107.79 -92.4143 86.6335 
-108.71 -84.352 85.4651 -109.035 -83.5721 84.9622 -108.415 -85.3621 85.8483 
-108.213 -86.6321 86.166 -108.147 -87.9384 86.5259 -108.179 -89.2041 86.9121 
-108.198 -90.5565 87.2905 -108.22 -91.9206 87.6506 -108.343 -93.1562 87.924 
-108.523 -94.2261 88.1006 -109.219 -84.9266 86.1999 -109.607 -84.0306 85.7087 
-108.903 -85.9754 86.6866 -108.711 -87.1874 87.2085 -108.58 -88.4474 87.7583 
-108.485 -89.6794 88.2567 -108.486 -91.0141 88.6559 -108.591 -92.4521 88.9797 
-108.778 -93.7978 89.207 -109.017 -94.9548 89.3175 -109.226 -95.9217 89.369 
-103.838 -81.7163 74.4571 -104.403 -81.5645 75.3222 -104.264 -81.0044 73.8144 
-104.88 -80.8103 74.7263 -104.836 -80.3025 73.2354 -105.103 -81.4365 76.2184 
-105.307 -79.9143 74.2896 -105.38 -79.5143 72.6514 -105.556 -80.5929 75.7542 
-105.758 -81.2657 77.3814 -105.746 -78.8976 73.9189 -106.024 -78.745 72.0697 
-105.879 -79.5906 75.4575 -106.248 -80.4543 76.9736 -106.316 -81.2292 78.7425 
-106.632 -78.1888 73.4465 -106.97 -78.2288 71.6078 -106.417 -78.6466 75.1385 
-106.734 -79.6536 76.6082 -106.982 -80.5412 78.2558 -107.006 -81.4611 79.9295 
-107.79 -77.9076 72.9412 -107.877 -77.8467 71.3272 -107.497 -78.1724 74.5947 
-107.463 -79.0029 76.1623 -107.677 -79.9001 77.8361 -107.728 -80.7377 79.5144 
-107.845 -81.8452 81.0114 -108.604 -77.4987 72.6418 -108.505 -77.2967 71.1562 
-108.585 -77.8825 74.1185 -108.442 -78.5734 75.6219 -108.381 -79.3054 77.4375 
-108.341 -79.9883 79.2831 -108.346 -81.0346 80.8025 -108.509 -82.2486 82.276 
-109.193 -76.7531 72.5442 -109.181 -76.6558 71.0026 -109.283 -77.2492 74.0234 
-109.276 -78.041 75.352 -109.134 -78.7699 77.0377 -108.945 -79.3485 79.0419 
-108.823 -80.2439 80.6968 -108.873 -81.4863 82.0895 -108.996 -82.6054 83.5848 
-109.94 -76.1533 72.4728 -110.054 -76.2639 70.8871 -109.895 -76.5395 74.0912 
-109.901 -77.3636 75.4147 -109.855 -78.2247 76.82 -109.704 -78.8982 78.6716 
-109.527 -79.7074 80.4522 -109.454 -80.8273 81.8648 -109.505 -81.9485 83.2623 
-109.576 -82.9534 84.6453 -110.861 -76.133 71.8619 -110.692 -76.211 73.6285 
-111.514 -76.6592 73.04 -111.375 -76.9757 74.7083 -112.129 -77.5469 74.1395 
-110.572 -76.8253 75.2252 -112.153 -77.9114 75.6373 -112.962 -78.1318 75.1842 
-111.331 -77.6244 76.2049 -110.559 -77.718 76.5999 -113.048 -78.5697 76.7775 
-113.767 -78.5993 76.4609 -112.214 -78.4698 77.2451 -111.38 -78.3756 77.8093 
-110.548 -78.55 78.2672 -113.776 -79.4131 78.1903 -114.318 -79.586 77.8467 
-113.018 -79.3313 78.5858 -112.199 -79.222 79.1235 -111.392 -79.2748 79.6504 
-110.459 -79.4579 80.1117 -114.333 -80.6244 79.4827 -114.814 -80.8482 79.0431 
-113.663 -80.4834 79.949 -112.874 -80.3008 80.4655 -112.131 -80.2927 80.9087 
-111.335 -80.4447 81.3041 -110.35 -80.583 81.6698 -114.749 -81.8042 80.6224 
-115.203 -82.0059 80.1352 -114.188 -81.7045 81.1497 -113.517 -81.5362 81.691 
-112.749 -81.459 82.0917 -112.016 -81.5426 82.414 -111.218 -81.5856 82.8116 
-110.297 -81.6662 83.1396 -114.975 -82.9979 81.7831 -115.382 -83.2125 81.2384 
-114.498 -82.9027 82.3241 -114.027 -82.7938 82.8445 -113.341 -82.7447 83.2244 
-112.511 -82.8043 83.4891 -111.812 -82.7458 83.8843 -111.121 -82.6076 84.34 
-110.313 -82.677 84.596 -115.178 -84.3466 82.8819 -115.506 -84.5144 82.2536 
-114.726 -84.2606 83.4417 -114.337 -84.1627 83.9153 -113.815 -84.1204 84.2703 
-112.99 -84.226 84.4809 -112.219 -84.2356 84.7664 -111.7 -83.9934 85.2333 
-111.121 -83.796 85.6032 -110.351 -83.8497 85.7233 -110.128 -85.3042 86.5119 
-110.977 -85.2756 86.5554 -110.769 -86.8905 87.365 -111.671 -85.3948 86.4304 
-111.568 -86.9561 87.503 -111.348 -88.4913 88.5536 -112.118 -85.6795 86.0394 
-112.178 -87.1249 87.384 -112.05 -88.6314 88.7143 -111.878 -90.3669 89.7687 
-112.677 -85.824 85.6684 -112.668 -87.3482 87.0412 -112.712 -88.873 88.5477 
-112.617 -90.7374 89.8167 -112.614 -92.8602 90.7201 -113.524 -85.7175 85.4729 
-113.308 -87.4187 86.7823 -113.308 -89.1525 88.2685 -113.352 -91.14 89.6528 
-113.431 -93.3241 90.7958 -113.499 -95.3402 91.8455 -114.251 -85.6738 85.2159 
-114.056 -87.4044 86.5229 -113.88 -89.3109 88.0012 -113.893 -91.4429 89.4595 
-114.068 -93.64 90.7559 -114.224 -95.6572 91.9977 -114.159 -97.5117 93.0858 
-114.719 -85.7538 84.8286 -114.66 -87.4439 86.1419 -114.442 -89.3442 87.5828 
-114.341 -91.5161 89.135 -114.503 -93.7868 90.5924 -114.683 -95.9449 91.9267 
-114.683 -98.0183 93.0325 -114.544 -100.098 93.723 -115.166 -85.7801 84.3249 
-115.138 -87.4175 85.7213 -114.925 -89.2807 87.1373 -114.772 -91.4438 88.6596 
-114.929 -93.7902 90.207 -115.094 -96.1854 91.6568 -115.042 -98.6124 92.8089 
-114.949 -100.968 93.474 -114.95 -103.113 93.7299 -115.545 -85.7902 83.6452 
-115.52 -87.3106 85.1361 -115.288 -89.1549 86.6849 -115.088 -91.3841 88.2354 
-115.261 -93.8168 89.731 -115.501 -96.3128 91.1747 -115.431 -98.9506 92.4402 
-115.29 -101.587 93.2503 -115.355 -103.879 93.5572 -115.534 -105.718 93.5952 
-109.746 -86.4351 87.0198 -110.46 -88.0892 88.0638 -109.477 -87.6151 87.6977 
-111.136 -89.8372 89.3902 -110.228 -89.2913 88.9729 -109.249 -88.8144 88.5387 
-111.825 -92.2053 90.5068 -110.986 -91.3873 90.2394 -109.919 -90.6272 89.9147 
-108.964 -90.0854 89.2942 -112.657 -94.9653 91.5854 -111.802 -94.2088 91.2818 
-110.835 -93.2299 91.0041 -109.719 -92.3035 90.527 -108.88 -91.5709 89.7411 
-113.414 -97.385 92.9719 -112.565 -97.0084 92.5724 -111.834 -96.3088 92.0903 
-111.044 -95.3771 91.488 -110.058 -94.2675 90.7419 -109.16 -93.2335 89.9727 
-113.975 -99.9384 93.9185 -113.193 -99.6843 93.7875 -112.528 -99.2145 93.335 
-112.116 -98.5727 92.661 -111.576 -97.567 91.7496 -110.609 -96.1356 90.8868 
-109.528 -94.7928 90.1648 -114.536 -103.044 93.9868 -113.887 -102.848 94.148 
-113.164 -102.352 94.0061 -112.64 -101.651 93.6165 -112.317 -100.826 92.9508 
-111.806 -99.4767 92.0031 -110.852 -97.6844 91.1178 -109.785 -96.1122 90.3201 
-115.21 -105.952 93.7156 -114.679 -106.048 93.9114 -113.989 -105.743 93.9545 
-113.277 -104.905 93.7897 -112.687 -103.905 93.5324 -112.246 -102.755 93.0185 
-111.702 -101.016 92.1881 -110.861 -98.955 91.3087 -109.948 -97.2157 90.4109 
-116.048 -107.985 93.4857 -115.583 -108.506 93.5696 -116.329 -110.097 93.2178 
-115.676 -110.802 93.2873 -116.225 -112.313 92.5859 -114.926 -108.778 93.6814 
-115.487 -112.904 92.6434 -116.03 -114.676 91.5998 -114.955 -111.045 93.2856 
-114.205 -108.285 93.5681 -115.302 -114.821 91.6549 -115.873 -116.837 90.4612 
-114.874 -112.792 92.5714 -114.377 -110.188 92.9782 -113.471 -107.049 93.3369 
-115.151 -116.234 90.5571 -115.568 -118.161 89.3265 -114.807 -114.078 91.6445 
-114.515 -111.459 92.2029 -113.771 -108.588 92.6472 -112.767 -105.716 93.1594 
-114.943 -116.551 89.6592 -115.191 -118.018 88.536 -114.632 -114.656 90.7986 
-114.362 -112.238 91.4619 -113.907 -109.553 91.8769 -112.989 -106.968 92.5027 
-112.166 -104.126 92.7626 -114.571 -115.683 89.2124 -114.75 -116.623 88.3122 
-114.26 -114.295 90.2544 -113.847 -112.42 90.9503 -113.491 -110.05 91.2969 
-112.959 -107.587 91.8036 -112.181 -104.922 92.2674 -111.497 -101.875 92.0462 
-113.847 -114.299 89.0444 -114.062 -114.782 88.3808 -113.592 -113.369 89.9193 
-113.221 -112.015 90.6011 -112.856 -110.062 90.9419 -112.539 -107.683 91.2966 
-112.033 -105.097 91.7344 -111.345 -102.279 91.7352 -110.651 -99.5191 91.1624 
-112.948 -112.748 88.8807 -113.254 -112.798 88.4528 -112.726 -112.224 89.5603 
-112.563 -111.199 90.2107 -112.379 -109.551 90.6169 -112.15 -107.339 90.9119 
-111.77 -104.843 91.231 -111.159 -102.254 91.2934 -110.463 -99.777 90.8543 
-109.815 -97.6538 90.1195 -116.1 -106.669 93.5446 -116.676 -108.746 93.3598 
-116.627 -107.044 93.3804 -117.103 -109.207 92.9943 -116.941 -106.962 92.7764 
-116.805 -111.025 92.7991 -117.251 -109.407 92.1958 -116.921 -106.825 91.9085 
-116.988 -112.005 92.1132 -116.609 -113.799 91.7929 -117.162 -109.294 91.3323 
-116.581 -106.705 91.2589 -117.032 -112.348 91.1745 -116.831 -115.229 90.8844 
-116.568 -116.653 90.5901 -116.767 -108.856 90.871 -116.078 -106.094 90.7814 
-116.965 -111.616 90.4382 -117.005 -115.158 89.9478 -117.031 -117.997 89.5966 
-116.438 -118.836 89.3384 -116.161 -107.839 90.6098 -115.653 -104.513 90.1244 
-116.487 -110.438 90.3144 -116.794 -113.513 89.5415 -117.186 -117.141 88.8468 
-116.871 -119.456 88.3964 -115.922 -119.519 88.2354 -115.692 -105.724 90.0225 
-115.357 -102.09 89.1803 -115.858 -108.844 90.2923 -116.048 -111.59 89.8477 
-116.614 -114.702 88.9537 -116.842 -117.64 88.1048 -116.189 -119.007 87.6577 
-115.363 -118.387 87.7543 -115.389 -102.677 88.9356 -115.07 -99.4839 87.962 
-115.532 -106.088 89.6302 -115.478 -109.212 89.8738 -115.731 -112.021 89.4952 
-116.201 -114.586 88.6439 -116.114 -116.475 87.8887 -115.492 -117.036 87.6459 
-114.796 -116.232 87.8877 -115.042 -99.7019 87.5567 -114.738 -97.3569 86.5697 
-115.309 -102.594 88.3952 -115.306 -105.751 89.0529 -115.257 -108.761 89.3717 
[...]
CELL_DATA 2000
SCALARS Distance double
LOOKUP_TABLE default
151.844 152.544 152.441 153.004 153.368 153.204 153.778 153.681 154.336 
154.338 154.117 154.738 154.562 155.275 155.146 155.939 155.432 155.18 
155.86 155.638 156.401 156.214 157.066 156.921 157.836 156.633 156.345 
157.035 156.803 157.557 157.378 158.222 158.098 159.026 158.91 159.865 
157.937 157.607 158.278 157.995 158.728 158.523 159.362 159.241 160.19 
160.1 161.094 160.976 161.98 159.211 158.914 159.581 159.275 160.025 
159.761 160.652 160.458 161.481 161.333 162.414 162.265 163.346 163.18 
164.253 160.33 160.112 160.788 160.554 161.335 161.112 162.039 161.843 
162.884 162.715 163.81 163.655 164.759 164.598 165.688 165.509 166.557 
161.36 161.172 161.863 161.698 162.502 162.373 163.292 163.181 164.154 
164.052 165.056 164.982 166.026 165.957 167.013 166.905 167.929 167.761 
168.717 151.28 150.778 151.325 151.992 150.434 150.899 151.563 152.109 
152.824 150.108 150.558 151.188 151.727 152.448 152.999 153.763 149.787 
150.184 150.771 151.324 152.079 152.663 153.448 153.997 154.822 149.778 
149.978 150.551 150.947 151.751 152.329 153.214 153.749 154.596 155.121 
156.019 150.087 150.189 150.785 150.946 151.725 152.134 153.09 153.592 
154.496 154.965 155.856 156.385 157.329 150.297 150.514 151.135 151.302 
152.005 152.266 153.135 153.551 154.444 154.888 155.738 156.238 157.149 
157.711 158.615 150.354 150.618 151.253 151.552 152.24 152.525 153.283 
153.631 154.448 154.847 155.659 156.107 156.964 157.507 158.404 158.95 
159.764 150.578 150.714 151.357 151.632 152.366 152.675 153.431 153.754 
154.548 154.895 155.718 156.084 156.934 157.366 158.254 158.75 159.605 
160.073 160.828 151.031 152.164 151.61 151.8 153.531 152.881 153.033 
152.506 152.798 154.958 154.308 154.463 153.837 154.074 153.561 153.886 
156.407 155.773 155.984 155.324 155.572 154.947 155.256 154.707 155.047 
157.947 157.301 157.59 156.907 157.2 156.524 156.863 156.219 156.569 
155.946 156.27 159.537 158.912 159.251 158.576 158.887 158.194 158.533 
157.877 158.246 157.581 157.901 157.212 157.51 161.01 160.466 160.809 
160.22 160.549 159.891 160.199 159.535 159.873 159.24 159.569 158.895 
159.176 158.479 158.791 162.35 161.862 162.211 161.703 162.072 161.507 
161.834 161.185 161.47 160.823 161.13 160.509 160.815 160.156 160.443 
159.775 160.092 163.656 163.196 163.589 163.092 163.5 162.988 163.365 
162.777 163.059 162.402 162.662 162.037 162.355 161.753 162.072 161.421 
161.7 161.038 161.305 162.162 162.638 162.833 163.741 163.038 163.325 
164.304 164.525 165.519 163.299 163.663 164.686 165.039 166.087 166.347 
167.414 163.591 163.911 164.944 165.356 166.482 166.861 168.02 168.314 
169.543 163.993 164.265 165.284 165.644 166.816 167.244 168.519 168.916 
170.261 170.594 171.972 164.31 164.655 165.661 166.017 167.159 167.598 
168.901 169.395 170.795 171.264 172.679 173.053 174.376 164.459 164.893 
165.909 166.333 167.419 167.889 169.127 169.7 171.085 171.687 173.102 
173.625 174.954 175.331 176.52 164.534 164.996 166.019 166.499 167.552 
168.049 169.209 169.817 171.17 171.864 173.309 173.944 175.328 175.815 
177.071 177.4 178.532 164.534 165.019 165.986 166.524 167.537 168.085 
169.199 169.826 171.153 171.888 173.361 174.087 175.526 176.132 177.452 
177.904 179.091 179.391 180.441 162.178 163.75 162.857 162.731 165.571 
164.584 164.483 163.524 163.46 167.545 166.528 166.497 165.439 165.385 
164.366 164.327 169.754 168.654 168.725 167.583 167.551 166.41 166.333 
165.269 165.207 172.239 171.072 171.238 169.99 170.048 168.751 168.693 
167.416 167.33 166.185 166.136 174.688 173.634 173.866 172.638 172.797 
171.455 171.542 170.077 170.054 168.583 168.534 167.232 167.196 176.88 
176.003 176.323 175.24 175.455 174.239 174.449 173.094 173.213 171.637 
171.578 169.946 169.828 168.379 168.266 178.926 178.152 178.606 177.652 
177.952 176.836 177.06 175.889 176.081 174.759 174.748 173.143 172.9 
171.217 170.937 169.435 169.207 180.836 180.179 180.717 179.917 180.315 
179.302 179.507 178.38 178.495 177.366 177.39 176.093 175.867 174.278 
173.858 172.201 171.797 170.306 169.984 181.967 183.478 182.515 181.923 
184.648 183.923 183.447 182.409 181.602 185.514 184.939 184.538 183.772 
183.014 181.882 180.799 186.208 185.679 185.218 184.652 183.933 183.061 
181.969 180.84 179.664 186.551 186.179 185.583 185.152 184.396 183.744 
182.685 181.783 180.597 179.606 178.462 186.23 186.172 185.489 185.272 
184.438 183.995 182.932 182.276 181.115 180.338 179.148 178.263 176.964 
185.251 185.49 184.8 184.856 183.99 183.788 182.698 182.286 181.12 
180.606 179.398 178.718 177.337 176.469 174.952 183.855 184.28 183.626 
183.906 183.099 183.126 182.088 181.861 180.694 180.365 179.153 178.7 
177.314 176.63 175.078 174.267 172.77 182.245 182.772 182.16 182.589 
181.879 182.109 181.197 181.148 180.036 179.809 178.595 178.267 176.915 
176.414 174.906 174.252 172.767 172.095 170.801 182.264 182.975 183.055 
183.719 183.199 183.589 184.311 184.362 184.847 182.908 183.594 184.487 
184.814 185.429 185.41 185.788 182.343 183.17 184.163 184.795 185.662 
185.968 186.58 186.417 186.673 181.587 182.536 183.453 184.254 185.175 
185.953 186.857 187.178 187.598 187.256 187.163 180.401 181.612 182.479 
183.371 184.094 185.098 186.018 187.001 187.622 187.899 187.777 187.383 
186.829 178.595 180.121 181.041 182.189 182.787 183.8 184.471 185.685 
186.319 187.274 187.273 187.5 186.864 186.588 185.75 176.312 177.986 
178.871 180.401 181.019 182.257 182.738 183.938 184.387 185.553 185.648 
186.412 185.935 186.16 185.326 185.191 184.269 173.977 175.519 176.235 
177.913 178.511 180.087 180.514 181.926 182.222 183.481 183.546 184.545 
184.232 184.858 184.197 184.44 183.567 183.529 182.59 164.76 165.467 
165.488 166.229 166.261 166.259 167.128 167.077 167.847 167.449 167.304 
168.365 168.19 169.178 168.886 169.69 168.918 168.794 170.111 169.827 
171.079 170.605 171.639 171.016 171.853 170.09 170.249 171.696 171.684 
173.06 172.741 173.869 173.241 174.135 173.369 174.142 170.817 171.171 
172.537 172.902 174.221 174.392 175.474 175.271 176.107 175.598 176.337 
175.646 176.304 171.492 171.812 173.154 173.524 174.872 175.203 176.389 
176.488 177.423 177.244 178.064 177.665 178.403 177.733 178.275 172.295 
172.591 174.104 174.347 175.917 176.072 177.541 177.525 178.736 178.534 
179.555 179.264 180.182 179.721 180.396 179.62 179.984 173.077 173.472 
175.162 175.499 177.255 177.431 179.051 179.005 180.331 180.077 181.14 
180.82 181.761 181.414 182.166 181.609 182.028 181.178 181.336 164.012 
163.07 163.907 164.634 162.038 162.906 163.627 164.517 165.352 160.958 
161.84 162.595 163.514 164.384 165.331 166.385 159.936 160.771 161.532 
162.474 163.361 164.352 165.352 166.438 167.626 159.005 159.784 160.48 
161.393 162.227 163.253 164.169 165.278 166.306 167.569 168.703 158.06 
158.836 159.462 160.327 161.076 162.063 162.912 163.992 164.923 166.128 
167.172 168.483 169.515 157.135 157.872 158.486 159.3 160.003 160.914 
161.725 162.736 163.647 164.753 165.762 166.975 168.022 169.252 170.233 
156.441 157.038 157.669 158.38 159.077 159.885 160.66 161.59 162.481 
163.528 164.515 165.643 166.662 167.828 168.809 169.985 170.947 156.036 
156.482 157.078 157.668 158.34 159.037 159.761 160.576 161.398 162.373 
163.315 164.41 165.394 166.518 167.461 168.586 169.497 170.683 171.636 
156.027 156.18 156.407 157.012 156.214 156.527 157.25 157.508 158.246 
156.417 156.645 157.482 157.773 158.634 158.848 159.666 156.957 157.048 
157.943 158.148 159.129 159.323 160.254 160.382 161.3 157.652 157.718 
158.647 158.78 159.82 159.963 160.988 161.084 162.093 162.18 163.22 
158.397 158.463 159.439 159.556 160.603 160.733 161.785 161.897 162.968 
163.067 164.175 164.241 165.32 159.214 159.27 160.27 160.372 161.412 
161.525 162.578 162.708 163.837 163.985 165.173 165.263 166.391 166.382 
167.4 159.998 160.09 161.072 161.196 162.237 162.351 163.437 163.551 
164.754 164.91 166.206 166.321 167.533 167.512 168.565 168.462 169.434 
160.679 160.809 161.765 161.935 162.988 163.166 164.318 164.476 165.747 
165.911 167.268 167.408 168.69 168.701 169.81 169.695 170.718 170.561 
171.577 161.357 162.911 162.223 162.501 164.837 163.98 164.293 163.502 
163.819 167.076 166.122 166.515 165.543 165.926 164.993 165.314 169.516 
168.528 169.023 167.965 168.417 167.35 167.749 166.646 166.92 172.199 
171.159 171.788 170.64 171.164 169.998 170.439 169.256 169.565 168.333 
168.516 175.086 174.065 174.904 173.666 174.334 172.98 173.474 172.099 
172.406 171.056 171.199 169.892 169.926 177.811 177.014 178.033 176.941 
177.77 176.398 176.987 175.416 175.733 174.099 174.199 172.649 172.611 
171.196 171.069 180.003 179.547 180.621 179.903 180.778 179.736 180.357 
178.979 179.307 177.632 177.693 175.895 175.799 174.066 173.877 172.296 
172.06 181.578 181.418 182.465 182.125 182.984 182.355 182.943 181.988 
182.278 180.975 180.982 179.374 179.202 177.425 177.16 175.346 175.017 
173.312 172.986 160.94 160.793 161.386 162.49 160.65 161.281 162.467 
163.083 164.361 160.44 161.129 162.322 163.029 164.347 165.062 166.493 
160.051 160.836 162.004 162.801 164.109 164.946 166.43 167.261 168.832 
159.493 160.345 161.561 162.435 163.776 164.652 166.165 167.105 168.787 
169.683 171.406 158.98 159.781 161.075 162.002 163.457 164.356 165.901 
166.834 168.558 169.571 171.409 172.348 174.16 158.687 159.366 160.661 
161.569 163.104 164.064 165.653 166.591 168.292 169.327 171.19 172.26 
174.113 175.076 176.796 158.577 159.161 160.394 161.216 162.729 163.708 
165.319 166.303 167.973 169.024 170.854 171.985 173.835 174.895 176.575 
177.516 178.987 158.546 159.08 160.248 160.978 162.411 163.339 164.921 
165.921 167.55 168.618 170.376 171.56 173.383 174.528 176.177 177.166 
178.565 179.445 180.623 160.008 158.551 159.417 159.756 157.182 157.935 
158.171 159.128 159.533 155.963 156.609 156.721 157.531 157.846 158.893 
159.321 154.734 155.396 155.443 156.121 156.287 157.204 157.564 158.635 
158.969 153.441 154.118 154.166 154.828 154.868 155.65 155.862 156.861 
157.157 158.195 158.424 152.274 152.848 152.871 153.513 153.491 154.184 
154.233 155.129 155.359 156.389 156.657 157.656 157.923 151.246 151.728 
151.677 152.247 152.19 152.793 152.738 153.486 153.62 154.598 154.923 
155.954 156.312 157.283 157.662 150.233 150.678 150.555 151.072 150.985 
151.533 151.458 152.06 152.122 152.933 153.246 154.258 154.704 155.728 
156.17 157.133 157.576 149.293 149.665 149.514 149.96 149.864 150.373 
150.338 150.876 150.942 151.585 151.848 152.697 153.146 154.141 154.644 
155.648 156.127 157.091 157.559 148.803 148.231 148.632 148.971 147.823 
148.105 148.383 148.848 149.295 147.524 147.741 147.985 148.344 148.781 
149.267 149.802 147.379 147.505 147.771 148.034 148.479 148.867 149.439 
149.887 150.489 147.664 147.581 147.906 147.97 148.429 148.674 149.285 
149.661 150.354 150.733 151.449 148.388 148.157 148.535 148.368 148.815 
148.812 149.431 149.658 150.444 150.763 151.586 151.893 152.741 149.22 
148.993 149.389 149.162 149.597 149.417 150.014 150.032 150.868 151.053 
151.972 152.186 153.087 153.335 154.242 150.058 149.825 150.236 150.026 
150.488 150.285 150.885 150.793 151.626 151.683 152.635 152.74 153.662 
153.796 154.698 154.896 155.776 150.982 150.706 151.138 150.901 151.406 
151.202 151.825 151.71 152.506 152.513 153.415 153.48 154.37 154.448 
155.314 155.43 156.292 156.44 157.259 151.668 152.847 152.107 151.854 
154.192 153.379 153.156 152.37 152.159 155.781 154.843 154.662 153.788 
153.625 152.782 152.651 157.675 156.601 156.425 155.425 155.296 154.37 
154.281 153.405 153.375 159.754 158.637 158.5 157.362 157.23 156.164 
156.071 155.114 155.085 154.222 154.255 161.925 160.81 160.79 159.596 
159.529 158.3 158.208 157.045 156.99 155.988 156.01 155.14 155.19 
164.22 163.092 163.172 161.985 162.018 160.755 160.716 159.398 159.325 
158.08 158.066 156.998 157.045 156.107 156.153 166.537 165.456 165.567 
164.412 164.465 163.258 163.245 161.967 161.886 160.563 160.481 159.229 
159.209 158.093 158.107 157.105 157.128 168.713 167.736 167.868 166.78 
166.815 165.655 165.618 164.415 164.329 163.078 162.964 161.691 161.593 
160.363 160.291 159.152 159.1 158.078 158.061 158.876 160.025 159.817 
160.656 161.347 161.132 162.119 161.85 162.875 162.744 162.57 163.699 
163.464 164.612 164.293 165.41 164.141 164.019 165.245 165.1 166.363 
166.111 167.325 166.943 168.083 165.512 165.437 166.741 166.671 168.061 
167.899 169.268 168.947 170.257 169.775 170.999 166.846 166.826 168.232 
168.221 169.771 169.681 171.245 170.995 172.503 172.086 173.482 172.876 
174.077 168.094 168.161 169.648 169.739 171.405 171.448 173.151 173.038 
174.657 174.372 175.835 175.361 176.572 175.892 176.849 169.16 169.35 
170.856 171.086 172.762 172.99 174.692 174.81 176.393 176.353 177.752 
177.519 178.66 178.188 179.063 178.405 179.13 169.983 170.298 171.787 
172.155 173.787 174.165 175.783 176.083 177.541 177.734 179.014 179.073 
180.144 179.965 180.788 180.359 181.021 180.451 181.063 150.167 149.876 
149.824 149.593 149.725 149.567 149.174 149.251 149.042 149.475 149.331 
148.749 148.751 148.376 148.591 148.325 149.232 149.031 148.387 148.249 
147.744 147.869 147.609 147.85 147.669 149.317 148.961 148.409 148.035 
147.542 147.389 147.212 147.307 147.309 147.43 147.475 149.615 149.22 
148.737 148.281 147.829 147.463 147.311 147.213 147.345 147.345 147.493 
147.502 147.665 149.879 149.51 149.012 148.633 148.15 147.802 147.52 
147.395 147.436 147.484 147.622 147.63 147.729 147.755 147.921 150.212 
149.778 149.3 148.901 148.44 148.067 147.68 147.481 147.34 147.42 
147.479 147.634 147.695 147.782 147.869 147.983 148.198 150.745 150.225 
149.814 149.323 148.961 148.476 148.13 147.706 147.472 147.304 147.295 
147.391 147.494 147.644 147.756 147.895 148.087 148.277 148.591 150.367 
149.826 150.257 150.668 149.313 149.755 150.131 150.614 151.068 148.602 
149.138 149.493 150.044 150.493 151.034 151.542 147.912 148.371 148.741 
149.327 149.839 150.454 151.04 151.587 152.159 147.681 147.88 148.314 
148.717 149.343 149.878 150.579 151.125 151.749 152.235 152.752 147.851 
147.894 148.361 148.583 149.273 149.629 150.382 150.796 151.458 151.865 
152.388 152.789 153.231 148.117 148.136 148.547 148.729 149.348 149.67 
150.369 150.724 151.378 151.698 152.272 152.554 153.06 153.336 153.799 
148.451 148.432 148.807 148.903 149.415 149.678 150.283 150.652 151.274 
151.645 152.259 152.566 153.153 153.365 153.891 154.049 154.523 148.915 
148.853 149.275 149.248 149.744 149.816 150.372 150.577 151.156 151.485 
152.079 152.483 153.08 153.444 153.98 154.215 154.666 154.816 155.24 
150.901 151.206 151.329 152.014 151.606 151.691 152.362 152.562 153.362 
152.079 152.11 152.773 152.941 153.737 153.958 154.777 152.677 152.642 
153.287 153.387 154.178 154.36 155.168 155.364 156.179 153.255 153.256 
153.875 153.94 154.69 154.827 155.608 155.767 156.56 156.777 157.65 
153.697 153.758 154.374 154.489 155.196 155.331 156.069 156.209 156.98 
157.173 158.049 158.31 159.233 154.166 154.169 154.778 154.921 155.644 
155.803 156.537 156.668 157.431 157.603 158.475 158.729 159.664 159.907 
160.756 154.794 154.687 155.239 155.326 156.066 156.24 157.015 157.153 
157.91 158.057 158.885 159.13 160.034 160.313 161.166 161.366 162.109 
155.506 155.353 155.841 155.835 156.531 156.676 157.468 157.633 158.394 
158.533 159.296 159.5 160.327 160.615 161.444 161.715 162.473 162.667 
163.368 159.862 159.167 159.16 158.441 158.367 158.411 157.719 157.756 
157.114 157.564 157.589 156.904 156.99 156.388 156.475 155.896 156.875 
156.853 156.164 156.19 155.56 155.672 155.088 155.225 154.628 156.215 
156.199 155.514 155.501 154.83 154.863 154.261 154.373 153.81 153.928 
153.357 155.694 155.583 154.909 154.857 154.193 154.18 153.609 153.657 
153.192 153.233 152.766 152.771 152.282 155.563 155.271 154.662 154.411 
153.802 153.636 153.107 153.094 152.7 152.749 152.357 152.331 151.86 
151.805 151.315 155.637 155.333 154.825 154.448 153.91 153.515 152.981 
152.738 152.295 152.27 151.853 151.889 151.385 151.38 150.832 150.822 
150.308 155.546 155.382 154.926 154.674 154.179 153.793 153.23 152.813 
152.258 151.983 151.475 151.37 150.846 150.825 150.28 150.292 149.783 
149.81 149.363 
POINT_DATA 1002
SCALARS Distance double
LOOKUP_TABLE default
152.361 151.266 151.907 153.056 152.67 153.598 153.889 153.547 154.39 
155.021 154.919 154.55 155.409 156.028 156.771 156.076 155.673 156.59 
157.208 157.967 158.775 157.287 156.94 157.746 158.34 159.123 159.992 
160.832 158.595 158.277 158.954 159.486 160.262 161.188 162.105 163.004 
159.874 159.484 160.278 160.844 161.629 162.554 163.503 164.431 165.327 
160.98 160.529 161.513 162.217 163.06 163.966 164.912 165.864 166.771 
167.575 162.009 161.545 162.604 163.393 164.27 165.134 166.071 167.098 
168.082 168.938 169.641 150.67 151.401 150.266 151.033 150.005 152.257 
150.641 149.684 151.892 153.197 150.232 149.453 151.443 152.904 154.247 
150.256 149.632 151.17 152.642 154.1 155.445 150.687 149.948 151.417 
152.592 154.038 155.354 156.772 150.914 150.034 151.807 152.793 154.024 
155.275 156.59 158.087 150.911 150.123 151.937 152.98 154.08 155.247 
156.46 157.846 159.282 151.114 150.503 152.052 153.113 154.205 155.363 
156.551 157.793 159.124 160.41 151.482 152.239 152.776 153.632 154.188 
153.231 155.108 155.582 154.652 154.342 156.632 157.01 156.214 155.852 
155.578 158.265 158.57 157.878 157.51 157.231 156.901 159.903 160.142 
159.589 159.198 158.896 158.616 158.188 161.356 161.538 161.172 160.888 
160.515 160.211 159.884 159.459 162.696 162.821 162.585 162.464 162.154 
161.745 161.436 161.127 160.744 164.075 164.076 163.999 163.919 163.717 
163.311 162.934 162.697 162.394 161.963 162.98 163.56 164.688 164.025 
165.33 166.544 164.271 165.766 167.17 168.533 164.533 166.033 167.651 
169.244 170.858 164.955 166.368 168.051 169.859 171.684 173.377 165.298 
166.734 168.38 170.279 172.253 174.103 175.652 165.464 166.97 168.559 
170.447 172.534 174.523 176.242 177.673 165.53 167.068 168.622 170.45 
172.616 174.782 176.687 178.291 179.641 165.455 166.977 168.571 170.411 
172.604 174.868 176.935 178.743 180.248 181.441 163.584 165.482 164.386 
167.56 166.45 165.32 169.875 168.743 167.464 166.218 172.487 171.358 
170.05 168.568 167.207 175.041 174.075 172.962 171.62 169.977 168.421 
177.322 176.611 175.685 174.706 173.318 171.444 169.622 179.472 179.033 
178.219 177.283 176.26 174.673 172.589 170.605 181.433 181.255 180.666 
179.647 178.564 177.355 175.58 173.412 171.377 183.031 183.088 184.32 
184.366 185.265 182.894 185.192 186.094 184.062 182.094 185.76 186.779 
184.708 183.034 180.788 186.005 186.876 184.993 183.495 181.534 179.475 
185.641 186.179 184.825 183.503 181.806 180.012 177.965 184.656 184.924 
184.107 183.042 181.555 180.005 178.183 175.869 183.267 183.381 182.96 
182.235 180.991 179.543 177.919 175.845 173.524 181.673 181.685 181.545 
181.137 180.224 178.901 177.347 175.485 173.391 171.387 182.325 183.811 
182.794 184.168 182.64 184.961 183.98 182.11 185.323 186.013 183.428 
181.497 185.095 186.583 187.156 182.689 180.58 184.251 186.196 187.805 
187.842 181.573 179.058 183.181 184.86 187.012 188.057 187.436 179.738 
176.997 181.819 183.37 185.194 186.76 187.006 186.15 177.232 174.715 
179.654 181.592 183.26 184.716 185.476 185.327 184.506 174.617 172.602 
176.864 179.025 180.935 182.479 183.452 183.779 183.495 182.705 164.753 
166.26 165.391 167.131 166.266 168 168.524 167.564 169.448 170.096 
170.301 168.897 171.518 172.28 172.549 171.553 169.824 173.238 174.432 
174.903 174.961 172.141 170.488 173.92 175.511 176.485 176.94 177.118 
172.81 171.182 174.518 176.189 177.477 178.314 178.945 179.156 173.787 
171.921 175.723 177.525 178.922 179.818 180.538 181.07 180.968 163.211 
163.761 162.241 162.722 161.158 164.402 161.646 160.075 163.423 165.33 
160.596 159.14 162.358 164.306 166.424 159.62 158.258 161.23 163.098 
165.108 167.392 158.634 157.291 160.137 161.866 163.774 165.891 168.238 
157.693 156.424 159.133 160.742 162.572 164.599 166.8 169.033 156.999 
155.902 158.318 159.784 161.459 163.415 165.534 167.655 169.742 156.548 
155.661 157.691 159.014 160.49 162.249 164.284 166.367 168.364 170.389 