# vtk DataFile Version 4.0
vtk output
ASCII
DATASET POLYDATA
POINTS 1002 float
-105.618 -83.4901 79.1365 -105.754 -82.8496 78.005 -105.94 -82.5723 79.1239 
-105.822 -83.2514 80.3617 -106.195 -82.3762 80.3202 -105.529 -84.2557 80.4415 
-106.159 -83.1711 81.5568 -106.701 -82.4176 81.3893 -105.803 -84.1498 81.6759 
-105.544 -85.2687 81.8381 -106.8 -83.4279 82.5967 -107.476 -82.7503 82.3119 
-106.2 -84.225 82.8686 -105.829 -85.2958 83.0882 -105.717 -86.5237 83.2252 
-107.65 -83.9506 83.5455 -108.198 -83.1127 83.3031 -106.865 -84.6132 83.9778 
-106.185 -85.4473 84.3972 -105.992 -86.6778 84.5706 -106.031 -87.9557 84.6573 
-108.319 -84.3441 84.5787 -108.712 -83.3073 84.4364 -107.671 -85.1673 84.9542 
-106.861 -85.8849 85.5242 -106.429 -87.0014 85.8993 -106.412 -88.3754 86.0026 
-106.345 -89.5707 86.1826 -108.798 -84.5734 85.6856 -109.26 -83.583 85.4465 
-108.314 -85.604 85.9484 -107.709 -86.5013 86.3581 -107.239 -87.6029 86.8174 
-107.054 -88.9934 87.119 -106.909 -90.251 87.331 -106.703 -91.2882 87.5982 
-109.408 -85.02 86.5817 -109.946 -84.1339 86.1641 -108.924 -86.0695 86.9645 
-108.454 -87.1341 87.2672 -108.082 -88.2978 87.5634 -107.868 -89.6794 87.9233 
-107.658 -90.9828 88.2852 -107.418 -92.0545 88.5789 -107.302 -93.0592 88.7845 
-110.127 -85.7193 87.1944 -110.603 -84.8022 86.7445 -109.674 -86.7567 87.7057 
-109.211 -87.8518 88.1619 -108.787 -88.9873 88.4946 -108.532 -90.2899 88.7958 
-108.381 -91.6314 89.1603 -108.19 -92.7963 89.5117 -108.028 -93.88 89.7555 
-108.011 -94.9514 89.8841 -110.745 -86.4138 87.7515 -111.128 -85.4463 87.335 
-110.384 -87.4724 88.2233 -109.989 -88.5956 88.7382 -109.527 -89.6927 89.2591 
-109.147 -90.8744 89.6917 -108.99 -92.2215 90.0235 -108.924 -93.5153 90.3204 
-108.787 -94.6767 90.5962 -108.632 -95.8163 90.8165 -108.576 -96.8864 90.94 
-106.062 -82.0558 77.5709 -106.344 -81.8134 78.712 -106.548 -81.3173 77.0731 
-107.007 -81.1488 78.1903 -107.229 -80.6626 76.5402 -106.763 -81.6982 79.8818 
-107.749 -80.4858 77.6676 -107.896 -79.9631 76.0321 -107.61 -81.1145 79.3066 
-107.416 -81.7913 80.9238 -108.319 -79.6461 77.2337 -108.504 -79.1769 75.5488 
-108.341 -80.3707 78.8131 -108.237 -81.1324 80.4062 -108.101 -81.9931 81.964 
-109.024 -78.8424 76.773 -109.339 -78.5126 75.111 -108.895 -79.4249 78.4423 
-108.846 -80.2344 80.0422 -108.69 -81.117 81.6703 -108.632 -82.1429 83.1847 
-110.1 -78.4053 76.2496 -110.341 -78.0388 74.7652 -109.799 -78.8106 77.9797 
-109.521 -79.3773 79.7286 -109.305 -80.222 81.394 -109.203 -81.2616 82.9945 
-109.224 -82.3925 84.3591 -111.079 -78.0822 75.8114 -111.173 -77.5325 74.5013 
-110.905 -78.6216 77.4804 -110.559 -78.9949 79.3377 -110.185 -79.5859 81.0302 
-109.999 -80.6089 82.5918 -109.987 -81.7647 84.0486 -109.98 -82.9068 85.2246 
-111.74 -77.5439 75.5537 -111.857 -76.9257 74.3467 -111.668 -78.3022 77.1433 
-111.503 -78.7567 79.0295 -111.182 -79.1742 80.721 -110.89 -80.0931 82.1417 
-110.79 -81.2776 83.5863 -110.771 -82.3675 84.9094 -110.695 -83.5094 85.916 
-112.361 -76.9809 75.4887 -112.547 -76.4436 74.3678 -112.237 -77.7723 76.9728 
-112.154 -78.3142 78.8352 -112.001 -78.6929 80.5676 -111.739 -79.5427 81.8834 
-111.521 -80.7673 83.2043 -111.442 -81.8096 84.6347 -111.384 -82.8109 85.7761 
-111.26 -84.0742 86.5947 -113.154 -76.5139 75.2369 -113.013 -77.2126 76.5372 
-113.885 -77.0638 76.2782 -113.854 -77.7186 77.7858 -114.641 -77.8554 77.3648 
-112.891 -77.8489 78.317 -114.567 -78.4028 79.1186 -115.069 -78.7276 78.5901 
-113.708 -78.118 79.7277 -112.782 -78.1997 80.2551 -114.934 -79.3681 80.5607 
-115.319 -79.8837 80.1195 -114.345 -78.9248 81.0199 -113.527 -78.6824 81.4507 
-112.604 -78.9622 81.7296 -115.561 -80.648 81.9811 -116.07 -81.2739 81.6606 
-114.86 -80.2522 82.2045 -114.17 -80.0052 82.4394 -113.315 -80.0146 82.7624 
-112.342 -80.3282 83.0202 -116.569 -81.9867 83.0655 -116.947 -82.5702 82.7657 
-115.63 -81.6491 83.2462 -114.749 -81.4771 83.4316 -114.013 -81.3355 83.8561 
-113.088 -81.2712 84.3471 -112.152 -81.4387 84.583 -116.989 -83.3072 83.8546 
-117.062 -83.816 83.5415 -116.191 -82.9794 84.1218 -115.215 -82.7466 84.424 
-114.535 -82.4471 84.9512 -113.83 -82.1232 85.5886 -112.9 -82.0298 85.9508 
-112.049 -82.3253 85.9302 -116.743 -84.7073 84.6753 -116.719 -85.1602 84.367 
-116.188 -84.3694 84.9707 -115.397 -84.0922 85.3242 -114.827 -83.7254 85.8608 
-114.325 -83.3355 86.4517 -113.555 -83.1344 86.8251 -112.66 -83.2559 86.9008 
-111.893 -83.6452 86.7699 -116.642 -86.1263 85.6036 -116.636 -86.4891 85.2926 
-116.182 -85.7866 85.878 -115.546 -85.5131 86.167 -115.101 -85.2318 86.6132 
-114.7 -84.9798 87.1073 -114.022 -84.8852 87.3825 -113.154 -84.9239 87.4807 
-112.349 -85.0415 87.5247 -111.689 -85.2351 87.4688 -111.365 -86.7419 88.2514 
-111.939 -86.727 88.3644 -111.67 -88.1171 89.3323 -112.641 -86.8033 88.2765 
-112.317 -88.2258 89.4188 -112.082 -89.6792 90.4298 -113.515 -86.8198 88.1765 
-113.088 -88.3961 89.2916 -112.823 -89.8372 90.453 -112.5 -91.7688 91.3822 
-114.466 -86.7009 88.1394 -113.997 -88.4208 89.2668 -113.574 -90.0158 90.3851 
-113.224 -92.0519 91.3331 -112.859 -94.2264 92.2704 -115.142 -86.6633 87.8516 
-114.881 -88.3593 89.177 -114.3 -90.1671 90.3814 -113.828 -92.3138 91.3026 
-113.543 -94.5975 92.2356 -113.363 -96.4595 93.1806 -115.503 -86.8184 87.3624 
-115.425 -88.4458 88.7177 -114.919 -90.3734 90.0697 -114.357 -92.5494 91.122 
-114.093 -94.8265 92.0918 -114.036 -96.8431 93.1114 -113.992 -98.5594 93.8376 
-116 -87.0621 87.0103 -115.85 -88.6602 88.2161 -115.42 -90.6259 89.5024 
-114.929 -92.7289 90.6322 -114.62 -94.8699 91.6345 -114.483 -97.0587 92.7023 
-114.465 -99.1429 93.5551 -114.428 -100.998 94.001 -116.634 -87.3496 86.7398 
-116.483 -88.8756 87.8497 -116.006 -90.8 89.0143 -115.555 -92.843 90.1571 
-115.252 -94.819 91.1378 -114.88 -97.0609 92.1107 -114.644 -99.5848 92.9976 
-114.676 -101.873 93.5436 -114.734 -103.628 93.843 -116.922 -87.6268 86.399 
-116.982 -89.0152 87.4342 -116.543 -90.8005 88.4943 -116.04 -92.8274 89.6869 
-115.785 -94.8152 90.7879 -115.362 -97.0318 91.6955 -114.858 -99.7595 92.5085 
-114.795 -102.477 93.0994 -115.042 -104.551 93.4146 -115.184 -105.968 93.6292 
-111.038 -87.8063 88.7354 -111.362 -89.3447 89.867 -110.718 -89.0391 89.1802 
-111.727 -91.2853 91.0595 -111.039 -90.8084 90.3394 -110.333 -90.2905 89.726 
-112.105 -93.6748 92.1983 -111.404 -92.9385 91.7063 -110.722 -92.185 90.9589 
-109.916 -91.4998 90.3533 -112.591 -96.0492 93.1806 -111.848 -95.3293 92.9663 
-111.2 -94.4383 92.3273 -110.474 -93.6443 91.5244 -109.671 -92.9263 90.8046 
-113.285 -98.2765 93.8861 -112.447 -97.8072 93.7777 -111.701 -97.0528 93.404 
-111.064 -96.2257 92.6305 -110.393 -95.411 91.7653 -109.647 -94.4733 91.0438 
-113.931 -100.703 94.2169 -113.157 -100.393 94.1936 -112.294 -99.8617 94.0043 
-111.568 -99.042 93.5133 -111.014 -98.103 92.6648 -110.386 -97.0251 91.8674 
-109.584 -95.8169 91.2683 -114.374 -103.311 94.2131 -113.778 -102.995 94.3747 
-112.996 -102.593 94.2957 -112.188 -101.854 94.0553 -111.558 -100.783 93.4917 
-110.987 -99.5617 92.6978 -110.211 -98.2859 92.0799 -109.349 -97.0186 91.5531 
-114.815 -105.773 94.0142 -114.312 -105.478 94.3223 -113.672 -105.124 94.3494 
-112.914 -104.544 94.2089 -112.203 -103.546 93.9505 -111.587 -102.19 93.4111 
-110.816 -100.757 92.8072 -109.888 -99.4341 92.3574 -109.113 -98.1682 91.7937 
-115.482 -108.044 93.5899 -114.977 -108.023 93.9549 -115.502 -110.413 93.3725 
-114.981 -110.638 93.6353 -115.242 -113.094 92.9524 -114.399 -107.796 94.1332 
-114.77 -113.199 93.1232 -115.098 -115.4 92.4136 -114.34 -110.345 93.6351 
-113.673 -107.342 94.0358 -114.576 -114.806 92.4892 -115.177 -116.791 91.5887 
-114.088 -112.387 93.0626 -113.492 -109.591 93.5404 -112.868 -106.528 93.9221 
-114.471 -115.453 91.5457 -114.997 -117.327 90.5067 -113.927 -113.298 92.3913 
-113.231 -111.085 93.0603 -112.667 -108.376 93.5433 -112.17 -105.161 93.7 
-114.131 -115.542 90.6575 -114.381 -116.868 89.8526 -113.803 -113.617 91.5029 
-113.127 -111.608 92.3867 -112.458 -109.396 93.0586 -111.982 -106.515 93.3393 
-111.405 -103.393 93.2427 -113.49 -114.813 90.3683 -113.696 -115.436 89.8123 
-113.317 -113.544 90.8911 -112.904 -111.724 91.6015 -112.317 -109.606 92.3561 
-111.782 -107.14 92.8233 -111.117 -104.357 92.9892 -110.39 -101.706 92.8368 
-112.846 -113.346 90.284 -113.134 -113.643 89.7665 -112.597 -112.662 90.6621 
-112.341 -111.342 91.1115 -111.999 -109.408 91.7138 -111.573 -107.172 92.2236 
-110.917 -104.815 92.5564 -110.089 -102.458 92.668 -109.461 -100.232 92.39 
-112.293 -111.691 89.9129 -112.571 -111.887 89.4219 -111.982 -111.226 90.3394 
-111.717 -110.303 90.7719 -111.475 -108.782 91.2884 -111.178 -106.88 91.7376 
-110.678 -104.866 92.0295 -109.961 -102.805 92.1889 -109.307 -100.748 92.0642 
-108.883 -98.7558 91.5846 -115.788 -107.212 93.3441 -116.088 -109.285 93.1785 
-116.503 -108.068 93.1096 -116.535 -110.049 92.7157 -117.046 -108.514 92.6296 
-115.782 -111.722 92.7431 -116.668 -110.426 92.0121 -117.094 -108.669 91.7923 
-115.887 -112.475 91.9835 -115.457 -114.456 92.1397 -116.523 -110.485 91.1936 
-116.611 -108.365 91.0677 -115.971 -112.787 91.1753 -115.933 -115.2 91.1779 
-115.823 -116.794 91.4143 -116.134 -109.904 90.6823 -115.828 -107.263 90.7535 
-115.93 -112.553 90.5946 -116.364 -115.33 90.4324 -116.864 -117.531 90.3158 
-116.163 -118.233 90.3616 -115.483 -108.426 90.5011 -115.021 -105.379 90.5066 
-115.516 -111.443 90.3472 -115.99 -114.549 90.1188 -117.02 -117.24 89.6909 
-116.915 -118.658 89.2919 -115.579 -118.359 89.365 -114.756 -106.201 90.2793 
-114.419 -103.096 89.9809 -114.903 -109.429 90.221 -115.126 -112.713 89.9818 
-115.95 -115.657 89.5384 -116.461 -117.591 88.8889 -115.749 -118.018 88.6081 
-114.577 -117.048 89.0718 -114.2 -103.591 89.7438 -114.052 -100.825 89.1659 
-114.393 -106.725 89.9518 -114.576 -110.012 89.7896 -114.984 -113.017 89.4113 
-115.438 -115.233 88.8715 -115.284 -116.313 88.422 -114.57 -116.14 88.5455 
-113.807 -115.046 89.1765 -113.8 -101.034 88.9147 -113.751 -98.8323 88.2335 
-113.975 -103.727 89.3883 -114.245 -106.748 89.4737 -114.582 -109.669 89.2157 
[...]
CELL_DATA 2000
SCALARS Distance double
LOOKUP_TABLE default
154.801 155.421 155.286 155.716 156.22 155.991 156.449 156.309 156.859 
157.286 156.932 157.393 157.138 157.706 157.567 158.241 158.523 158.14 
158.619 158.225 158.759 158.494 159.182 159.067 159.864 159.666 159.384 
159.912 159.53 160.041 159.664 160.33 160.112 160.969 160.836 161.719 
160.702 160.471 161.047 160.771 161.327 160.98 161.645 161.372 162.252 
162.067 163.011 162.797 163.672 161.798 161.532 162.156 161.903 162.555 
162.255 162.966 162.703 163.583 163.405 164.366 164.158 165.052 164.781 
165.639 162.928 162.669 163.336 163.089 163.821 163.54 164.297 164.023 
164.875 164.698 165.647 165.493 166.412 166.18 167.052 166.782 167.676 
163.982 163.781 164.457 164.271 165.018 164.815 165.578 165.341 166.139 
165.947 166.846 166.724 167.666 167.509 168.41 168.186 169.071 168.831 
169.718 154.385 154.029 154.455 155.006 153.829 154.189 154.778 155.168 
155.811 153.702 154.06 154.689 155.046 155.714 156.089 156.851 153.495 
153.894 154.53 154.966 155.652 156.043 156.76 157.194 158.011 153.386 
153.689 154.302 154.744 155.438 155.91 156.604 157.063 157.805 158.319 
159.113 153.594 153.746 154.377 154.63 155.331 155.697 156.428 156.862 
157.626 158.109 158.915 159.405 160.19 153.874 154.048 154.723 154.899 
155.619 155.797 156.532 156.796 157.604 157.999 158.876 159.309 160.155 
160.546 161.324 154.01 154.252 154.928 155.224 155.967 156.185 156.885 
157.053 157.791 158.077 158.941 159.345 160.221 160.598 161.383 161.717 
162.45 154.184 154.363 155.019 155.342 156.106 156.435 157.15 157.38 
158.049 158.291 159.06 159.424 160.27 160.663 161.44 161.782 162.478 
162.812 163.491 154.572 155.669 155.161 155.429 157.08 156.449 156.672 
156.161 156.516 158.515 157.927 158.135 157.512 157.745 157.26 157.565 
159.946 159.358 159.621 158.986 159.175 158.557 158.773 158.266 158.518 
161.708 160.941 161.241 160.509 160.749 160.05 160.282 159.622 159.883 
159.287 159.587 163.62 162.843 163.067 162.233 162.424 161.673 161.934 
161.242 161.526 160.827 161.107 160.463 160.783 165.042 164.541 164.659 
163.962 164.001 163.297 163.465 162.853 163.117 162.482 162.703 162.027 
162.24 161.639 161.903 166.007 165.672 165.802 165.289 165.299 164.708 
164.814 164.274 164.516 163.971 164.186 163.553 163.703 163.066 163.252 
162.689 162.923 167.03 166.648 166.885 166.375 166.488 165.926 166.102 
165.581 165.879 165.353 165.628 165.006 165.186 164.516 164.688 164.06 
164.277 163.702 163.937 164.712 165.096 165.296 166.121 165.53 165.722 
166.599 166.797 167.71 166.04 166.212 167.114 167.309 168.262 168.466 
169.479 166.524 166.756 167.687 167.872 168.83 169.026 170.059 170.31 
171.423 166.794 167.164 168.144 168.435 169.392 169.601 170.606 170.869 
172.006 172.309 173.463 166.94 167.334 168.323 168.762 169.74 170.079 
171.038 171.357 172.442 172.828 174.012 174.343 175.448 167.252 167.527 
168.488 168.89 169.902 170.313 171.288 171.675 172.684 173.133 174.254 
174.746 175.874 176.245 177.256 167.661 167.913 168.849 169.15 170.144 
170.495 171.5 171.882 172.876 173.291 174.322 174.835 175.944 176.492 
177.576 177.969 178.922 167.842 168.235 169.12 169.483 170.361 170.722 
171.633 172.06 173.033 173.467 174.448 174.888 175.947 176.491 177.655 
178.193 179.29 179.625 180.532 164.754 166.174 165.392 165.296 167.775 
166.915 166.84 166.003 165.911 169.602 168.654 168.609 167.656 167.573 
166.665 166.535 171.624 170.634 170.664 169.587 169.512 168.452 168.334 
167.325 167.166 173.689 172.737 172.844 171.76 171.727 170.556 170.451 
169.29 169.17 168.055 167.927 175.687 174.809 174.967 173.954 173.988 
172.844 172.782 171.559 171.465 170.237 170.126 168.931 168.793 177.549 
176.778 177.005 176.072 176.178 175.106 175.103 173.922 173.84 172.606 
172.475 171.223 171.038 169.802 169.577 179.247 178.588 178.893 178.081 
178.255 177.284 177.332 176.222 176.151 174.951 174.782 173.541 173.302 
172.051 171.775 170.536 170.254 180.822 180.241 180.591 179.902 180.126 
179.292 179.379 178.39 178.346 177.217 177.042 175.808 175.527 174.263 
173.947 172.711 172.407 171.189 170.892 181.791 183.148 182.203 181.584 
184.46 183.563 182.946 181.911 181.142 185.611 184.826 184.202 183.218 
182.364 181.323 180.393 186.314 185.747 185.033 184.273 183.356 182.429 
181.419 180.425 179.367 186.339 186.055 185.213 184.759 183.823 183.179 
182.164 181.331 180.212 179.243 178.048 185.716 185.715 184.866 184.648 
183.727 183.355 182.378 181.831 180.711 179.926 178.637 177.728 176.442 
184.616 184.863 184.127 184.13 183.251 183.065 182.089 181.774 180.676 
180.161 178.878 178.139 176.787 175.999 174.769 183.229 183.642 182.983 
183.22 182.395 182.422 181.448 181.301 180.218 179.909 178.705 178.189 
176.896 176.232 174.987 174.312 173.187 181.69 182.187 181.549 181.933 
181.16 181.386 180.472 180.507 179.476 179.334 178.213 177.892 176.696 
176.215 175.007 174.442 173.291 172.711 171.635 182.161 183.061 182.923 
183.497 183.627 183.669 184.18 184.146 184.694 183.635 183.943 184.379 
184.575 185.142 185.294 185.846 183.1 183.676 184.159 184.555 185.23 
185.621 186.399 186.47 186.804 182.101 182.958 183.573 184.199 185.023 
185.658 186.678 187.026 187.571 187.275 187.071 180.624 181.781 182.479 
183.416 184.233 185.215 186.257 187.085 187.708 187.844 187.602 187.124 
186.392 178.755 180.109 180.836 182.05 182.751 183.998 184.818 186.096 
186.627 187.411 187.14 187.195 186.342 186.019 185.094 176.729 178.105 
178.802 180.178 180.816 182.175 182.785 184.182 184.585 185.753 185.574 
186.177 185.429 185.541 184.612 184.489 183.598 174.762 176.021 176.6 
178.004 178.586 180.02 180.525 181.93 182.242 183.5 183.428 184.334 
183.818 184.311 183.539 183.728 182.883 182.875 182.01 168.056 168.643 
168.742 169.414 168.988 169.22 169.963 170.059 170.644 169.399 169.531 
170.279 170.48 171.235 171.302 171.931 170.22 170.158 170.975 170.965 
171.889 171.958 172.881 172.786 173.461 171.199 171.18 172.164 172.022 
173.075 172.953 174.072 173.929 174.839 174.465 175.018 171.997 172.148 
173.286 173.321 174.512 174.409 175.626 175.409 176.489 176.059 176.799 
176.131 176.621 172.727 172.937 174.192 174.391 175.765 175.851 177.237 
177.114 178.382 177.973 178.958 178.215 178.873 177.948 178.438 173.457 
173.718 175.073 175.339 176.852 177.079 178.617 178.688 180.085 179.901 
181.034 180.501 181.274 180.391 180.853 179.827 180.14 174.056 174.434 
175.846 176.225 177.757 178.119 179.631 179.902 181.215 181.326 182.354 
182.245 182.951 182.513 182.881 182.106 182.243 181.304 181.36 167.277 
166.187 167.081 167.761 165.101 165.929 166.565 167.504 168.154 164.074 
164.859 165.45 166.328 167.036 167.923 168.625 162.987 163.809 164.396 
165.251 165.945 166.851 167.636 168.523 169.359 161.899 162.692 163.275 
164.157 164.832 165.765 166.528 167.493 168.332 169.311 170.191 160.949 
161.634 162.144 162.992 163.652 164.61 165.358 166.344 167.143 168.167 
169.022 170.067 170.924 160.056 160.68 161.078 161.857 162.463 163.41 
164.173 165.164 165.954 166.949 167.777 168.827 169.7 170.752 171.616 
159.151 159.735 160.068 160.787 161.338 162.235 162.995 163.987 164.795 
165.772 166.564 167.575 168.413 169.489 170.35 171.425 172.276 158.333 
158.841 159.177 159.819 160.362 161.161 161.893 162.83 163.638 164.611 
165.385 166.361 167.132 168.172 168.977 170.078 170.883 172.005 172.81 
158.023 158.079 158.294 158.94 158.474 158.566 159.257 159.416 160.196 
158.849 159.016 159.701 159.85 160.63 160.817 161.715 158.979 159.28 
159.992 160.245 161.032 161.267 162.176 162.436 163.421 159.189 159.44 
160.302 160.554 161.464 161.689 162.67 162.922 163.96 164.199 165.189 
159.766 159.882 160.892 161.061 162.128 162.279 163.364 163.531 164.633 
164.811 165.857 165.996 166.963 160.517 160.607 161.612 161.781 162.862 
163.039 164.132 164.305 165.409 165.569 166.633 166.743 167.742 167.822 
168.795 161.204 161.325 162.26 162.457 163.465 163.702 164.74 164.993 
166.066 166.31 167.385 167.548 168.57 168.654 169.654 169.715 170.701 
161.839 161.961 162.872 163.049 164.03 164.25 165.277 165.531 166.609 
166.892 168.012 168.262 169.363 169.508 170.569 170.631 171.673 171.683 
172.669 162.501 163.98 163.337 163.585 165.647 164.95 165.241 164.52 
164.788 167.478 166.743 167.147 166.343 166.655 165.821 166.09 169.558 
168.739 169.266 168.41 168.827 167.875 168.159 167.208 167.473 171.961 
171.043 171.692 170.734 171.284 170.233 170.598 169.476 169.732 168.681 
168.937 174.618 173.676 174.511 173.445 174.178 172.975 173.502 172.176 
172.509 171.188 171.425 170.225 170.401 177.252 176.45 177.459 176.46 
177.362 176.145 176.84 175.398 175.842 174.279 174.526 172.993 173.098 
171.707 171.729 179.461 178.961 180.003 179.302 180.228 179.286 180.016 
178.786 179.248 177.745 177.941 176.285 176.275 174.622 174.5 173 
172.881 181.038 180.846 181.825 181.483 182.352 181.797 182.492 181.653 
182.073 180.899 180.995 179.541 179.381 177.773 177.481 175.863 175.563 
174.082 173.859 162.118 161.992 162.548 163.575 161.82 162.429 163.494 
164.083 165.186 161.511 162.206 163.291 163.97 165.114 165.741 166.938 
161.045 161.811 162.918 163.703 164.919 165.652 166.946 167.605 168.964 
160.55 161.31 162.445 163.287 164.58 165.428 166.838 167.623 169.097 
169.779 171.291 160.15 160.86 162.021 162.846 164.184 165.076 166.54 
167.455 169.01 169.866 171.448 172.191 173.802 159.859 160.531 161.725 
162.506 163.873 164.725 166.194 167.117 168.691 169.669 171.313 172.235 
173.875 174.7 176.315 159.667 160.305 161.539 162.288 163.681 164.485 
165.953 166.809 168.375 169.335 171.016 172.017 173.694 174.631 176.211 
177.072 178.509 159.584 160.177 161.415 162.14 163.519 164.312 165.748 
166.585 168.107 169.042 170.7 171.715 173.389 174.367 175.894 176.802 
178.147 178.993 180.138 161.228 159.921 160.708 161.041 158.738 159.419 
159.66 160.496 160.837 157.623 158.248 158.39 159.122 159.359 160.239 
160.525 156.472 157.087 157.139 157.817 157.923 158.734 158.927 159.839 
160.058 155.327 155.905 155.891 156.51 156.506 157.241 157.33 158.206 
158.391 159.331 159.557 154.227 154.772 154.75 155.291 155.243 155.838 
155.84 156.597 156.741 157.66 157.906 158.863 159.146 153.173 153.676 
153.674 154.203 154.194 154.692 154.645 155.198 155.236 156.022 156.243 
157.209 157.51 158.491 158.823 152.32 152.68 152.66 153.15 153.202 
153.716 153.71 154.14 154.062 154.605 154.695 155.547 155.852 156.85 
157.209 158.202 158.6 151.808 151.972 151.902 152.229 152.295 152.777 
152.873 153.292 153.228 153.568 153.525 154.109 154.36 155.25 155.688 
156.648 157.099 158.057 158.532 151.623 151.389 151.507 151.622 151.266 
151.317 151.428 151.615 151.961 151.262 151.289 151.462 151.549 151.88 
152.104 152.535 151.301 151.357 151.582 151.66 151.928 152.062 152.337 
152.585 152.861 151.39 151.424 151.616 151.719 151.874 152.006 152.126 
152.323 152.499 152.788 153.113 151.733 151.619 151.782 151.746 151.832 
151.858 151.953 152.088 152.358 152.572 153.052 153.304 153.967 152.417 
152.156 152.384 152.125 152.28 152.023 152.219 152.121 152.601 152.702 
153.439 153.575 154.388 154.527 155.357 153.26 152.966 153.262 152.941 
153.222 152.82 153.132 152.787 153.352 153.264 154.121 154.195 155.091 
155.147 155.955 156.025 156.806 154.084 153.818 154.119 153.857 154.196 
153.882 154.254 153.906 154.412 154.203 154.938 154.945 155.787 155.859 
156.639 156.678 157.415 157.473 158.241 154.625 155.533 154.926 154.686 
156.671 155.937 155.683 155.039 154.81 158.076 157.214 156.938 156.141 
155.898 155.211 154.969 159.718 158.756 158.476 157.52 157.213 156.388 
156.157 155.425 155.216 161.553 160.523 160.282 159.197 158.862 157.834 
157.56 156.708 156.564 155.803 155.735 163.494 162.452 162.299 161.159 
160.915 159.704 159.45 158.334 158.203 157.285 157.28 156.491 156.536 
165.497 164.461 164.413 163.292 163.192 161.955 161.809 160.516 160.408 
159.211 159.202 158.189 158.234 157.371 157.401 167.597 166.561 166.605 
165.493 165.485 164.305 164.255 162.997 162.923 161.628 161.578 160.349 
160.34 159.238 159.231 158.257 158.232 169.698 168.731 168.847 167.756 
167.784 166.625 166.606 165.417 165.367 164.131 164.048 162.79 162.712 
161.491 161.428 160.27 160.203 159.139 159.09 159.943 161.17 160.958 
161.839 162.482 162.291 163.261 163.022 163.978 163.821 163.655 164.695 
164.493 165.531 165.255 166.233 165.21 165.061 166.192 165.993 167.145 
166.885 168.018 167.642 168.68 166.572 166.498 167.756 167.599 168.893 
168.638 169.945 169.585 170.831 170.301 171.387 167.845 167.861 169.23 
169.2 170.624 170.474 171.883 171.609 172.962 172.543 173.739 173.111 
174.098 169.054 169.134 170.557 170.638 172.124 172.141 173.582 173.474 
174.805 174.568 175.75 175.339 176.319 175.705 176.523 170.113 170.293 
171.695 171.879 173.324 173.489 174.892 174.968 176.245 176.19 177.314 
177.111 178.07 177.688 178.497 177.946 178.662 170.898 171.198 172.515 
172.832 174.172 174.48 175.795 176.042 177.263 177.39 178.482 178.461 
179.42 179.232 180.059 179.706 180.423 179.931 180.56 153.754 153.526 
153.448 153.17 153.332 153.227 152.859 152.881 152.672 153.046 152.959 
152.519 152.525 152.247 152.373 152.232 152.876 152.688 152.232 152.149 
151.822 151.915 151.779 151.971 151.905 152.992 152.676 152.254 151.997 
151.661 151.568 151.441 151.559 151.558 151.712 151.669 153.168 152.857 
152.437 152.15 151.815 151.583 151.418 151.369 151.401 151.473 151.506 
151.549 151.519 153.289 152.985 152.52 152.282 151.908 151.728 151.484 
151.406 151.352 151.397 151.45 151.488 151.505 151.494 151.512 153.528 
153.148 152.681 152.356 151.954 151.743 151.46 151.38 151.244 151.295 
151.283 151.394 151.412 151.486 151.494 151.532 151.575 153.936 153.505 
153.095 152.651 152.267 151.894 151.622 151.398 151.28 151.206 151.193 
151.22 151.232 151.314 151.319 151.425 151.444 151.556 151.617 153.871 
153.321 153.715 154.057 152.864 153.223 153.583 154.022 154.485 152.441 
152.774 153.14 153.589 154.109 154.565 155.081 152.096 152.372 152.689 
153.124 153.662 154.198 154.774 155.202 155.644 151.819 152.054 152.335 
152.695 153.163 153.694 154.297 154.841 155.337 155.713 156.076 151.616 
151.795 152.097 152.402 152.832 153.234 153.753 154.284 154.848 155.358 
155.831 156.173 156.591 151.573 151.651 151.934 152.2 152.651 152.978 
153.424 153.798 154.299 154.818 155.398 155.901 156.403 156.751 157.179 
151.649 151.667 151.867 152.055 152.459 152.788 153.242 153.552 153.985 
154.359 154.891 155.41 155.947 156.437 156.82 157.214 157.51 151.747 
151.761 151.916 152.005 152.308 152.574 153.036 153.375 153.874 154.175 
154.676 155.018 155.51 155.92 156.294 156.704 156.952 157.365 157.601 
154.375 154.567 154.731 155.436 154.959 155.007 155.67 155.935 156.8 
155.503 155.461 156.055 156.216 157.012 157.331 158.199 156.037 156.016 
156.598 156.678 157.418 157.591 158.403 158.692 159.596 156.448 156.479 
157.094 157.234 157.997 158.101 158.872 159.002 159.92 160.225 161.343 
156.942 156.896 157.491 157.657 158.444 158.643 159.419 159.543 160.41 
160.656 161.778 162.158 163.301 157.557 157.479 158.029 158.085 158.815 
159.007 159.784 159.996 160.821 161.11 162.104 162.524 163.561 163.957 
164.777 157.956 158.037 158.579 158.647 159.297 159.408 160.121 160.305 
161.096 161.4 162.289 162.704 163.587 164.024 164.776 165.133 165.733 
158.08 158.289 158.851 159.06 159.68 159.848 160.494 160.656 161.376 
161.632 162.451 162.804 163.604 163.973 164.685 165.051 165.726 166.051 
166.708 161.071 160.433 160.423 159.793 159.712 159.75 159.132 159.185 
158.633 158.941 158.977 158.367 158.483 157.961 158.058 157.539 158.448 
158.316 157.754 157.769 157.3 157.376 156.889 156.955 156.425 158.356 
158.076 157.599 157.409 157.008 156.885 156.423 156.351 155.825 155.833 
155.303 158.237 158.047 157.573 157.406 157.025 156.817 156.33 156.059 
155.442 155.279 154.691 154.706 154.186 157.838 157.769 157.235 157.23 
156.814 156.776 156.274 156.036 155.313 154.99 154.251 154.114 153.544 
153.599 153.137 157.509 157.361 156.862 156.806 156.395 156.408 155.953 
155.857 155.194 154.888 154.106 153.792 153.16 153.048 152.632 152.665 
152.34 157.56 157.262 156.889 156.639 156.292 156.104 155.696 155.532 
155.005 154.763 154.133 153.782 153.184 152.876 152.462 152.33 152.087 
152.065 151.88 
POINT_DATA 1002
SCALARS Distance double
LOOKUP_TABLE default
155.168 154.348 154.891 155.803 155.571 156.182 156.603 156.487 156.944 
157.454 157.71 157.663 157.869 158.307 158.965 159.05 158.856 159.099 
159.31 159.933 160.696 160.247 159.898 160.443 160.586 161.096 161.881 
162.584 161.271 160.942 161.626 161.915 162.437 163.226 163.929 164.507 
162.386 162.068 162.815 163.226 163.759 164.555 165.32 165.91 166.501 
163.556 163.162 164.068 164.582 165.086 165.782 166.608 167.311 167.937 
168.592 164.627 164.161 165.191 165.797 166.356 166.976 167.784 168.61 
169.312 169.966 170.598 153.918 154.558 153.614 154.401 153.477 155.378 
154.307 153.326 155.362 156.407 154.054 153.11 155.234 156.363 157.515 
153.908 153.146 154.948 156.137 157.315 158.588 154.189 153.451 155.038 
156.011 157.14 158.427 159.733 154.508 153.665 155.476 156.347 157.242 
158.434 159.77 160.965 154.587 153.781 155.691 156.738 157.575 158.558 
159.833 161.063 162.122 154.723 154.052 155.75 156.882 157.833 158.742 
159.883 161.097 162.162 163.153 154.945 155.818 156.248 157.283 157.712 
156.919 158.789 159.048 158.338 157.984 160.243 160.552 159.836 159.354 
158.983 162.032 162.543 161.453 160.963 160.531 160.139 163.955 164.362 
163.216 162.605 162.237 161.814 161.372 165.308 165.457 164.718 164.073 
163.72 163.399 162.899 162.452 166.255 166.313 165.847 165.338 165.034 
164.798 164.363 163.851 163.456 167.378 167.402 167.026 166.596 166.376 
166.229 165.86 165.34 164.877 164.5 165.477 165.914 166.974 166.379 
167.507 168.654 166.924 168.044 169.24 170.547 167.488 168.653 169.796 
171.148 172.579 167.779 169.169 170.358 171.67 173.207 174.608 167.851 
169.342 170.716 172.05 173.614 175.217 176.521 168.135 169.482 170.888 
172.267 173.742 175.41 177.001 178.25 168.58 169.836 171.121 172.497 
173.871 175.359 177.07 178.664 179.857 168.748 170.036 171.216 172.568 
174.039 175.442 177.051 178.853 180.361 181.382 166.073 167.701 166.749 
169.61 168.52 167.453 171.752 170.635 169.385 168.167 173.885 172.898 
171.651 170.32 169.025 175.936 175.082 173.988 172.71 171.368 169.988 
177.881 177.202 176.255 175.073 173.743 172.317 170.813 179.64 179.167 
178.402 177.345 176.04 174.567 173.027 171.488 181.234 180.905 180.313 
179.429 178.271 176.821 175.197 173.621 172.115 182.763 182.62 184.068 
184.011 185.31 182.216 185.168 186.364 183.438 181.446 185.716 186.869 
184.224 182.414 180.408 185.585 186.568 184.344 182.906 181.18 179.058 
184.997 185.587 184.022 182.819 181.413 179.549 177.313 184.01 184.253 
183.376 182.359 181.095 179.528 177.562 175.49 182.666 182.773 182.278 
181.535 180.454 179.11 177.481 175.649 173.826 181.124 181.174 180.859 
180.348 179.538 178.443 177.09 175.52 173.855 172.194 182.342 183.667 
183.177 184.169 183.541 184.711 184.126 183.244 184.854 185.87 183.664 
182.397 184.697 186.15 187.183 182.819 181.093 184.245 186.136 187.754 
187.781 181.436 179.35 183.191 185.271 187.371 188.003 187.026 179.549 
177.373 181.53 183.54 185.65 186.862 186.557 185.446 177.4 175.42 
179.464 181.463 183.361 184.75 185.112 184.621 183.771 175.25 173.621 
177.157 179.146 180.978 182.396 183.144 183.204 182.797 182.085 168.018 
169.462 168.452 169.748 168.765 170.684 170.082 169.354 171.013 172.014 
171.045 170.268 171.807 172.855 173.781 172.234 171.099 173.222 174.208 
175.162 175.582 173.116 171.782 174.517 175.811 176.872 177.448 177.382 
173.918 172.488 175.55 177.24 178.674 179.612 179.827 179.422 174.754 
173.135 176.557 178.459 180.161 181.426 182.071 181.931 181.213 166.412 
166.815 165.338 165.636 164.333 167.247 164.611 163.28 166.104 167.759 
163.54 162.145 165.041 166.693 168.459 162.396 161.162 163.895 165.564 
167.332 169.211 161.349 160.339 162.69 164.376 166.14 167.964 169.895 
160.354 159.478 161.535 163.167 164.98 166.748 168.625 170.583 159.376 
158.6 160.476 162.006 163.817 165.592 167.355 169.262 171.208 158.551 