# vtk DataFile Version 4.0
vtk output
ASCII
DATASET POLYDATA
POINTS 1002 float
-103.306 -81.9768 75.4169 -103.448 -81.3076 74.2589 -103.502 -80.8945 75.1851 
-103.517 -81.6947 76.4458 -103.833 -80.7585 76.1004 -103.399 -82.9479 76.7001 
-103.994 -81.7323 77.4745 -104.503 -80.9704 77.0687 -103.747 -82.8968 77.8463 
-103.549 -84.1244 78.1041 -104.729 -82.095 78.4096 -105.251 -81.2837 78.1045 
-104.304 -83.0909 78.8741 -103.993 -84.2123 79.2449 -103.738 -85.2733 79.5687 
-105.461 -82.4744 79.4055 -105.864 -81.5407 79.2348 -105.069 -83.4654 79.7406 
-104.705 -84.4601 80.1484 -104.437 -85.4722 80.5463 -104.285 -86.5476 80.9435 
-106.01 -82.7513 80.7367 -106.431 -81.9043 80.464 -105.782 -83.8266 80.9126 
-105.542 -84.8901 81.1415 -105.308 -85.9214 81.4933 -105.159 -87.0557 81.9379 
-105.029 -88.2102 82.3721 -106.539 -83.158 82.0817 -107.071 -82.468 81.582 
-106.332 -84.2244 82.3733 -106.215 -85.4547 82.5703 -105.967 -86.5794 82.8606 
-105.785 -87.7177 83.2591 -105.672 -88.8922 83.6729 -105.532 -89.959 84.0529 
-107.255 -83.7968 82.9878 -107.791 -83.1036 82.4403 -106.94 -84.8102 83.4432 
-106.811 -86.1033 83.8493 -106.521 -87.302 84.3183 -106.181 -88.3584 84.793 
-106.074 -89.4773 85.1414 -106.069 -90.5969 85.3777 -106.069 -91.6487 85.6042 
-108.073 -84.5064 83.6642 -108.486 -83.706 83.1789 -107.698 -85.5026 84.1502 
-107.48 -86.7321 84.6849 -107.248 -87.9614 85.2992 -106.901 -89.0248 85.8961 
-106.704 -90.11 86.3057 -106.758 -91.318 86.4786 -106.879 -92.5093 86.5587 
-106.979 -93.6254 86.6799 -108.759 -85.1481 84.417 -109.03 -84.2688 83.9275 
-108.437 -86.148 84.9304 -108.156 -87.2852 85.503 -107.987 -88.5163 86.0787 
-107.852 -89.7539 86.5764 -107.724 -91.0083 86.9886 -107.713 -92.3486 87.2584 
-107.827 -93.6857 87.3581 -107.952 -94.8837 87.4102 -108.019 -95.9258 87.5056 
-103.783 -80.5253 73.7734 -103.909 -80.2003 74.6501 -104.296 -79.8929 73.2848 
-104.644 -79.6772 74.0997 -104.943 -79.3059 72.6504 -104.41 -80.1978 75.5557 
-105.514 -79.0511 73.4722 -105.643 -78.6239 71.8341 -105.245 -79.6303 75.1103 
-105.105 -80.3284 76.7062 -106.325 -78.3556 72.783 -106.396 -77.9592 71.0971 
-106.038 -78.8392 74.6731 -105.708 -79.4898 76.513 -105.709 -80.4116 77.968 
-107.132 -77.8067 72.2399 -107.182 -77.3716 70.6545 -106.83 -78.1835 74.1566 
-106.337 -78.6519 76.1939 -106.203 -79.5011 77.8288 -106.371 -80.705 79.0782 
-107.879 -77.2172 72.0035 -107.851 -76.7564 70.4461 -107.726 -77.7041 73.7448 
-107.282 -78.1722 75.6763 -106.996 -78.8745 77.4524 -107.085 -80.0273 78.7844 
-107.149 -81.3308 80.1119 -108.444 -76.5404 72.0223 -108.439 -76.1985 70.3627 
-108.415 -77.0279 73.6209 -108.223 -77.6543 75.2677 -107.998 -78.4006 77.0138 
-107.917 -79.4158 78.501 -107.906 -80.7268 79.7723 -107.836 -81.9912 81.1471 
-109.03 -76.0481 72.1167 -109.156 -75.8364 70.3373 -108.903 -76.3312 73.7028 
-108.774 -76.8709 75.1348 -108.693 -77.6893 76.7262 -108.586 -78.6635 78.3478 
-108.455 -79.8761 79.6845 -108.408 -81.2573 80.8863 -108.432 -82.5376 82.0944 
-109.802 -75.7982 72.1293 -110.002 -75.6727 70.3329 -109.558 -75.9043 73.7782 
-109.315 -76.2037 75.1811 -109.186 -76.9162 76.6056 -109.085 -77.896 78.1834 
-108.909 -79.0072 79.6448 -108.825 -80.3348 80.8271 -108.897 -81.7557 81.8876 
-108.983 -83.067 82.9347 -110.73 -75.7119 71.4722 -110.512 -75.7167 73.2992 
-111.402 -75.8337 72.6022 -111.267 -75.7783 74.4593 -111.987 -76.2049 73.6801 
-110.243 -75.7925 74.979 -111.931 -76.2996 75.6184 -112.47 -76.9215 74.7193 
-111.107 -76.0345 76.2654 -110.002 -76.294 76.4884 -112.328 -77.3432 76.6067 
-112.884 -77.8083 75.808 -111.785 -76.9068 77.3603 -110.867 -76.9295 77.7626 
-109.799 -77.3047 77.972 -112.624 -78.6125 77.5496 -113.322 -78.7678 77.1166 
-112.063 -78.2734 78.0827 -111.467 -78.1012 78.6376 -110.533 -78.2133 79.1083 
-109.558 -78.4854 79.4838 -113.021 -79.8793 78.7448 -113.682 -79.8777 78.4829 
-112.318 -79.7746 78.9874 -111.778 -79.5066 79.4854 -111.175 -79.3923 80.1136 
-110.304 -79.4844 80.6102 -109.419 -79.7722 80.8524 -113.371 -81.0897 79.9977 
-113.837 -81.1651 79.6456 -112.735 -81.1511 80.275 -112.149 -80.9575 80.7657 
-111.669 -80.6505 81.4183 -111.084 -80.6288 81.8541 -110.264 -80.8659 81.9965 
-109.459 -81.2508 81.9789 -113.61 -82.3696 81.1665 -113.894 -82.6675 80.7605 
-113.17 -82.3581 81.5627 -112.648 -82.3226 82.0915 -112.123 -82.0484 82.7202 
-111.598 -81.8869 83.122 -110.944 -82.077 83.1768 -110.163 -82.401 83.1018 
-109.488 -82.7325 83.022 -113.819 -83.9036 82.3855 -113.976 -84.3687 81.9906 
-113.561 -83.6497 82.7843 -113.168 -83.6037 83.2262 -112.631 -83.5077 83.6884 
-112.023 -83.3501 84.0437 -111.373 -83.3972 84.1953 -110.645 -83.6317 84.2097 
-109.963 -83.8662 84.173 -109.453 -84.0751 84.0784 -109.33 -85.438 85.0652 
-109.75 -85.3153 85.2805 -109.705 -86.8349 86.2579 -110.333 -85.1906 85.3779 
-110.271 -86.8055 86.4935 -110.252 -88.5726 87.2764 -111.102 -85.07 85.3085 
-111.042 -86.8092 86.6237 -111 -88.694 87.5815 -110.826 -90.8001 88.2657 
-111.848 -85.01 85.0856 -111.798 -86.9062 86.4583 -111.777 -88.9066 87.7657 
-111.534 -91.0696 88.6592 -111.339 -93.3725 89.4956 -112.521 -85.0646 84.8312 
-112.336 -87.0689 86.0647 -112.241 -89.2519 87.4997 -112.129 -91.4531 88.6971 
-111.971 -93.7069 89.6725 -111.952 -96.0065 90.4896 -113.174 -85.1137 84.6092 
-112.892 -87.1516 85.8078 -112.543 -89.525 87.0515 -112.482 -91.8565 88.3203 
-112.58 -94.0948 89.4505 -112.61 -96.4257 90.3241 -112.563 -98.7997 90.822 
-113.662 -85.1635 84.3292 -113.514 -87.1455 85.6807 -113.084 -89.5552 86.8042 
-112.898 -92.0215 87.9433 -113.11 -94.3391 89.14 -113.243 -96.7589 90.1497 
-113.15 -99.3803 90.7348 -113.042 -101.89 90.9717 -113.914 -85.4394 83.9544 
-113.919 -87.2967 85.4063 -113.665 -89.5126 86.5572 -113.438 -91.9388 87.6219 
-113.57 -94.3474 88.7963 -113.733 -96.8534 89.9154 -113.635 -99.6589 90.7231 
-113.525 -102.504 91.1342 -113.592 -104.965 91.2555 -114.037 -85.9258 83.5332 
-114.093 -87.6688 84.966 -114.021 -89.5943 86.1094 -113.868 -91.7779 87.1484 
-113.86 -94.1896 88.2943 -113.965 -96.7769 89.4097 -113.956 -99.621 90.3289 
-113.915 -102.615 91.0026 -114.039 -105.375 91.3489 -114.262 -107.621 91.354 
-109.122 -86.5 85.6578 -109.544 -88.1274 86.8843 -108.854 -87.6717 86.2992 
-110.112 -90.2848 87.8464 -109.381 -89.6228 87.515 -108.666 -88.995 86.8928 
-110.773 -93.0064 88.9544 -110.156 -92.3574 88.4071 -109.421 -91.4485 87.921 
-108.68 -90.5457 87.2586 -111.449 -95.8106 90.3127 -111.001 -95.4329 89.6063 
-110.363 -94.6391 88.8042 -109.574 -93.5069 88.1654 -108.736 -92.2287 87.558 
-112.036 -98.5656 91.0478 -111.593 -98.2262 90.8899 -111.085 -97.6059 90.1566 
-110.319 -96.6543 89.3652 -109.527 -95.4187 88.685 -108.709 -93.8847 87.9601 
-112.533 -101.642 91.0891 -111.977 -101.156 91.3768 -111.498 -100.397 91.2908 
-110.871 -99.3661 90.7475 -110.069 -98.2934 90.1077 -109.408 -97.065 89.2676 
-108.732 -95.4211 88.2472 -113.177 -104.925 91.1482 -112.569 -104.513 91.3195 
-111.994 -103.761 91.5552 -111.516 -102.553 91.3886 -110.832 -101.111 90.9747 
-110.06 -99.8394 90.4314 -109.482 -98.4935 89.4815 -108.845 -96.7361 88.3359 
-113.974 -107.895 91.2251 -113.444 -107.745 91.1756 -112.784 -107.256 91.3091 
-112.269 -106.301 91.2716 -111.785 -104.698 90.9578 -111.05 -102.856 90.7049 
-110.276 -101.256 90.3252 -109.643 -99.6646 89.4552 -108.927 -97.8029 88.3807 
-114.749 -110.33 90.9434 -114.392 -110.609 90.8031 -114.941 -112.998 89.985 
-114.479 -113.107 89.8449 -114.959 -115.394 88.7582 -113.764 -110.405 90.7555 
-114.407 -115.096 88.6569 -115.205 -117.237 87.4983 -113.774 -112.641 89.8708 
-113.056 -109.815 90.7883 -114.49 -116.515 87.4562 -115.381 -118.472 86.1095 
-113.655 -114.214 88.8832 -113.038 -111.738 89.9995 -112.525 -108.566 90.594 
-114.391 -117.412 86.3757 -114.952 -119.014 85.0712 -113.644 -115.281 87.9548 
-112.921 -112.891 89.2599 -112.489 -110.076 89.9442 -111.967 -106.47 90.365 
-113.87 -117.427 85.8886 -114.266 -118.486 84.9583 -113.426 -115.695 87.2134 
-112.88 -113.47 88.4665 -112.39 -110.821 89.3446 -111.919 -107.604 89.9407 
-111.162 -104.166 90.3547 -113.317 -116.303 85.872 -113.716 -116.805 85.2273 
-112.914 -115.063 86.8502 -112.593 -113.259 87.7871 -112.275 -110.953 88.5997 
-111.797 -108.144 89.4368 -111.096 -105.043 90.0455 -110.318 -102.159 90.0411 
-112.862 -114.367 85.8175 -113.14 -114.384 85.365 -112.441 -113.623 86.6232 
-112.08 -112.253 87.465 -111.878 -110.379 88.1446 -111.549 -108.07 88.8847 
-110.893 -105.417 89.5736 -110.149 -102.712 89.687 -109.517 -100.18 89.153 
-112.322 -112.012 85.8934 -112.456 -111.687 85.6268 -112.029 -111.759 86.4919 
-111.634 -110.839 87.313 -111.333 -109.313 88.0676 -111.076 -107.358 88.663 
-110.563 -105.129 89.1117 -109.845 -102.769 89.1964 -109.198 -100.407 88.7955 
-108.625 -98.0969 88.1384 -114.77 -108.622 91.1093 -115.167 -111.492 90.3309 
-115.164 -109.276 90.4767 -115.424 -112.298 89.396 -115.3 -109.652 89.8563 
-115.292 -114.374 89.0721 -115.462 -112.735 88.5502 -115.194 -109.616 89.4142 
-115.688 -115.355 87.9542 -115.633 -116.95 87.7743 -115.287 -112.401 88.0157 
-115.083 -108.803 88.8677 -115.888 -115.641 86.9808 -116.431 -117.97 86.5964 
-116.213 -118.833 86.3893 -115.062 -110.933 87.8494 -114.909 -107.205 88.4287 
-115.613 -114.59 86.6459 -116.578 -117.778 85.6536 -116.901 -119.624 85.1849 
-116.11 -119.853 84.9027 -114.763 -108.683 88.0384 -114.475 -105.077 88.3104 
-115.157 -112.278 87.0354 -115.911 -115.791 85.63 -116.595 -118.602 84.5443 
-116.326 -119.924 84.1028 -115.299 -119.73 84.2746 -114.326 -105.961 88.0587 
-114.043 -102.535 87.8735 -114.744 -109.478 87.521 -115.202 -112.813 86.2949 
-115.721 -115.718 84.8824 -115.898 -117.79 84.0914 -115.381 -118.662 84.1492 
-114.522 -118.223 84.6464 -113.952 -102.866 87.4143 -113.869 -99.9317 86.7544 
-114.284 -106.272 87.5074 -114.649 -109.643 86.92 -114.953 -112.397 85.7924 
-115.169 -114.368 84.7908 -115.036 -115.707 84.5279 -114.492 -116.224 84.7751 
-113.799 -115.676 85.066 -113.732 -99.973 86.3039 -113.773 -97.7988 85.4147 
-113.839 -102.798 86.9386 -114.041 -106.052 87.1261 -114.233 -109.023 86.7191 
[...]
CELL_DATA 2000
SCALARS Distance double
LOOKUP_TABLE default
150.454 150.917 150.901 151.498 151.76 151.56 152.215 152.168 152.891 
152.9 152.588 153.224 153.051 153.794 153.681 154.4 154.077 153.778 
154.4 154.159 154.871 154.68 155.423 155.257 156.035 155.255 154.955 
155.626 155.371 156.115 155.857 156.65 156.408 157.285 157.078 158.021 
156.514 156.179 156.893 156.64 157.481 157.211 158.08 157.777 158.706 
158.455 159.452 159.223 160.202 157.801 157.466 158.17 157.932 158.82 
158.622 159.551 159.278 160.18 159.91 160.856 160.648 161.605 161.387 
162.317 159.037 158.743 159.439 159.201 160.065 159.923 160.876 160.703 
161.606 161.356 162.253 162.023 162.985 162.775 163.756 163.516 164.502 
160.173 159.954 160.676 160.455 161.285 161.133 162.071 161.957 162.913 
162.735 163.687 163.455 164.478 164.237 165.323 165.052 166.135 165.824 
166.873 150.033 149.698 150.005 150.442 149.555 149.8 150.253 150.588 
151.262 149.402 149.72 150.248 150.536 151.187 151.578 152.388 149.217 
149.58 150.169 150.519 151.14 151.521 152.241 152.717 153.528 149.186 
149.491 150.123 150.438 151.049 151.403 152.081 152.538 153.333 153.848 
154.696 149.262 149.554 150.232 150.496 151.152 151.39 152.093 152.43 
153.274 153.72 154.64 155.102 155.995 149.34 149.637 150.323 150.626 
151.309 151.571 152.291 152.574 153.405 153.769 154.688 155.113 156.026 
156.447 157.3 149.553 149.766 150.431 150.69 151.326 151.642 152.328 
152.714 153.481 153.889 154.695 155.13 155.963 156.433 157.263 157.709 
158.504 149.985 150.093 150.747 150.872 151.461 151.656 152.297 152.652 
153.403 153.846 154.608 155.049 155.808 156.287 157.086 157.591 158.386 
158.852 159.605 150.523 151.589 151.121 151.238 152.703 152.205 152.301 
151.801 151.9 153.911 153.391 153.57 152.977 153.091 152.513 152.715 
155.161 154.653 154.916 154.353 154.555 153.886 154.067 153.475 153.807 
156.494 155.937 156.19 155.677 155.933 155.374 155.585 154.948 155.187 
154.638 154.997 157.965 157.35 157.587 156.983 157.253 156.715 157.031 
156.459 156.749 156.113 156.411 155.842 156.213 159.395 158.838 159.125 
158.489 158.801 158.168 158.571 157.971 158.397 157.747 158.103 157.403 
157.74 157.118 157.513 160.757 160.241 160.605 160.046 160.436 159.827 
160.249 159.625 160.054 159.427 159.801 159.128 159.43 158.743 159.06 
158.452 158.819 162.236 161.673 162.101 161.549 162.003 161.449 161.88 
161.288 161.651 161.042 161.352 160.739 161.005 160.37 160.625 160.002 
160.298 159.724 160.043 160.903 161.196 161.482 162.401 161.538 161.814 
162.799 163.1 164.134 161.922 162.201 163.261 163.584 164.732 164.981 
166.123 162.28 162.584 163.679 164.077 165.327 165.659 166.879 167.094 
168.343 162.619 162.938 163.998 164.435 165.683 166.177 167.445 167.815 
169.052 169.366 170.676 162.905 163.281 164.332 164.731 165.898 166.414 
167.686 168.224 169.508 169.966 171.261 171.657 172.927 163.063 163.535 
164.642 165.064 166.195 166.631 167.864 168.403 169.757 170.324 171.702 
172.181 173.506 173.857 175.09 163.165 163.673 164.828 165.326 166.465 
166.913 168.078 168.593 169.906 170.53 171.935 172.541 173.913 174.4 
175.713 176.053 177.306 163.292 163.791 164.94 165.469 166.585 167.083 
168.162 168.708 169.89 170.572 171.877 172.617 173.941 174.633 175.944 
176.537 177.826 178.256 179.445 160.993 162.534 161.706 161.608 164.275 
163.374 163.341 162.403 162.301 166.258 165.256 165.294 164.279 164.242 
163.202 163.124 168.579 167.464 167.624 166.455 166.528 165.329 165.298 
164.132 164.036 171.061 169.987 170.312 169.064 169.25 167.881 167.924 
166.539 166.469 165.132 164.961 173.328 172.443 172.85 171.793 172.022 
170.726 170.766 169.331 169.276 167.799 167.647 166.147 165.895 175.449 
174.617 175.035 174.152 174.427 173.354 173.391 172.099 172.004 170.615 
170.481 168.989 168.744 167.15 166.818 177.703 176.809 177.275 176.333 
176.708 175.684 175.858 174.638 174.579 173.238 173.102 171.734 171.539 
170.04 169.697 168.069 167.656 179.905 179.113 179.615 178.672 179.075 
178.053 178.333 177.161 177.198 175.836 175.679 174.287 174.086 172.706 
172.416 170.905 170.466 168.845 168.372 181.157 182.71 181.688 180.938 
183.8 183.037 182.393 181.318 180.397 184.539 183.908 183.275 182.524 
181.716 180.665 179.622 184.98 184.47 183.74 183.177 182.422 181.712 
180.748 179.709 178.456 184.928 184.674 183.934 183.51 182.723 182.198 
181.284 180.543 179.322 178.274 176.859 184.346 184.361 183.678 183.504 
182.701 182.342 181.389 180.855 179.687 178.894 177.51 176.522 175.142 
183.291 183.557 182.85 182.954 182.118 182.037 181.041 180.751 179.6 
179.07 177.76 176.992 175.603 174.74 173.394 181.746 182.265 181.552 
181.871 181.023 181.165 180.19 180.147 179.05 178.792 177.553 177.049 
175.673 174.992 173.561 172.825 171.407 179.887 180.559 179.96 180.435 
179.688 179.957 179.074 179.165 178.155 178.083 176.913 176.64 175.285 
174.82 173.352 172.772 171.294 170.665 169.251 181.449 182.04 182.241 
182.973 182.213 182.633 183.464 183.602 184.104 182.073 182.66 183.596 
183.98 184.726 184.711 185.039 181.505 182.328 183.314 183.996 184.977 
185.321 185.915 185.648 185.658 180.431 181.49 182.423 183.426 184.441 
185.311 186.083 186.343 186.417 185.999 185.575 178.989 180.205 181.055 
182.214 183.043 184.268 184.991 185.938 186.106 186.326 185.88 185.548 
184.884 177.168 178.558 179.361 180.641 181.293 182.535 183.03 184.261 
184.445 185.343 185.044 185.361 184.707 184.562 183.759 174.995 176.477 
177.2 178.693 179.312 180.631 180.996 182.15 182.232 183.294 183.094 
183.945 183.426 183.87 183.051 183.083 182.098 172.837 174.175 174.751 
176.292 176.889 178.414 178.826 180.086 180.162 181.151 180.939 181.82 
181.384 182.14 181.428 181.895 180.934 181.104 180.081 163.72 164.884 
164.685 165.406 165.888 165.833 166.604 166.375 167.026 166.689 166.77 
167.637 167.525 168.237 167.967 168.605 167.469 167.591 168.629 168.593 
169.481 169.237 170.01 169.648 170.387 168.422 168.505 169.72 169.722 
170.842 170.637 171.589 171.205 172.067 171.61 172.419 169.576 169.627 
170.959 170.968 172.278 172.149 173.32 172.964 173.96 173.446 174.336 
173.765 174.548 170.712 170.851 172.268 172.324 173.756 173.7 175.084 
174.833 176.051 175.533 176.542 175.858 176.723 175.983 176.687 171.571 
171.893 173.379 173.615 175.128 175.211 176.687 176.615 177.976 177.662 
178.775 178.172 179.054 178.289 179.025 178.164 178.709 172.132 172.598 
174.12 174.581 176.145 176.456 177.909 178.056 179.362 179.352 180.438 
180.173 180.987 180.47 181.11 180.431 180.941 180.081 180.387 162.869 
161.845 162.883 163.932 160.733 161.741 162.724 163.877 164.883 159.716 
160.571 161.4 162.545 163.533 164.719 165.642 158.767 159.514 160.136 
161.168 162.069 163.29 164.256 165.423 166.347 157.724 158.46 158.945 
159.875 160.663 161.826 162.804 164.013 165.003 166.171 167.21 156.746 
157.401 157.907 158.715 159.471 160.489 161.452 162.605 163.639 164.827 
165.915 167.129 168.291 156.083 156.597 157.169 157.824 158.581 159.419 
160.336 161.351 162.368 163.503 164.601 165.824 166.99 168.242 169.389 
155.65 156.098 156.645 157.202 157.855 158.579 159.361 160.28 161.203 
162.277 163.323 164.513 165.642 166.896 168.001 169.241 170.244 155.275 
155.706 156.185 156.676 157.176 157.799 158.414 159.253 160.063 161.094 
162.059 163.214 164.271 165.509 166.57 167.808 168.769 169.964 170.827 
155.232 155.418 155.591 156.112 155.508 155.741 156.258 156.457 157.03 
155.597 155.849 156.49 156.666 157.319 157.484 158.246 155.894 156.067 
156.908 157.078 157.936 158.001 158.883 158.962 159.941 156.474 156.533 
157.406 157.607 158.603 158.761 159.73 159.786 160.792 160.867 161.954 
157.154 157.195 157.992 158.144 159.099 159.356 160.354 160.57 161.585 
161.751 162.869 162.998 164.16 157.751 157.855 158.695 158.792 159.746 
159.901 160.968 161.165 162.313 162.518 163.761 163.947 165.219 165.303 
166.475 158.326 158.453 159.393 159.531 160.594 160.712 161.898 161.999 
163.295 163.413 164.797 164.94 166.311 166.404 167.625 167.613 168.669 
158.983 159.083 160.055 160.238 161.365 161.583 162.825 163.022 164.33 
164.503 165.859 166.035 167.377 167.51 168.72 168.743 169.793 169.731 
170.694 159.676 161.25 160.545 160.823 163.172 162.333 162.677 161.872 
162.231 165.374 164.46 164.86 163.915 164.299 163.419 163.796 167.83 
166.868 167.398 166.304 166.689 165.63 166.008 165.054 165.392 170.525 
169.555 170.323 169.128 169.637 168.292 168.637 167.412 167.766 166.7 
166.994 173.117 172.312 173.226 172.206 172.936 171.561 171.988 170.409 
170.692 169.273 169.562 168.349 168.555 175.296 174.716 175.61 174.923 
175.758 174.789 175.394 173.966 174.256 172.56 172.702 171.124 171.231 
169.876 169.908 177.184 176.727 177.638 177.099 177.945 177.289 177.983 
177.055 177.467 176.093 176.183 174.488 174.397 172.72 172.583 171.127 
170.988 178.897 178.564 179.576 179.108 179.998 179.374 180.049 179.313 
179.768 178.849 179.03 177.737 177.607 175.964 175.655 173.953 173.643 
172.136 171.904 159.328 159.204 159.758 160.811 158.926 159.584 160.697 
161.37 162.647 158.579 159.275 160.469 161.232 162.591 163.332 164.77 
158.3 158.969 160.201 161.004 162.422 163.245 164.729 165.512 167.078 
157.989 158.682 159.856 160.706 162.117 163.029 164.527 165.403 167.001 
167.893 169.615 157.577 158.295 159.41 160.279 161.66 162.648 164.162 
165.128 166.745 167.742 169.516 170.497 172.212 157.214 157.884 159.02 
159.829 161.237 162.199 163.767 164.742 166.371 167.409 169.196 170.307 
172.079 173.003 174.486 156.974 157.589 158.739 159.501 160.935 161.863 
163.473 164.415 166.016 166.997 168.709 169.871 171.67 172.768 174.325 
175.121 176.386 156.812 157.38 158.477 159.222 160.61 161.562 163.155 
164.138 165.678 166.614 168.167 169.281 171.014 172.241 173.886 174.874 
176.196 176.914 178.046 158.437 157.108 157.963 158.3 155.76 156.596 
156.9 157.749 157.994 154.507 155.232 155.455 156.287 156.49 157.349 
157.584 153.367 153.986 154.073 154.817 154.965 155.805 156.032 156.953 
157.278 152.142 152.77 152.759 153.444 153.519 154.295 154.489 155.385 
155.696 156.668 156.997 150.83 151.45 151.41 152.091 152.149 152.892 
153.034 153.855 154.07 155.015 155.29 156.3 156.575 149.671 150.195 
150.162 150.756 150.805 151.516 151.654 152.428 152.569 153.39 153.562 
154.517 154.79 155.838 156.17 148.742 149.181 149.185 149.642 149.638 
150.206 150.295 151.032 151.204 151.967 152.13 152.903 153.149 154.081 
154.476 155.517 155.946 148.006 148.368 148.412 148.79 148.758 149.148 
149.124 149.702 149.864 150.63 150.897 151.634 151.9 152.642 153.016 
153.917 154.403 155.39 155.851 147.703 147.451 147.718 148.064 147.339 
147.487 147.739 148.049 148.365 147.401 147.427 147.581 147.745 147.969 
148.279 148.648 147.485 147.49 147.605 147.671 147.854 147.989 148.351 
148.701 149.338 147.514 147.501 147.616 147.715 147.948 148.021 148.388 
148.583 149.24 149.646 150.439 147.8 147.601 147.728 147.756 148.08 
148.173 148.57 148.712 149.308 149.641 150.422 150.815 151.539 148.502 
148.131 148.286 148.082 148.453 148.424 148.886 148.94 149.495 149.722 
150.464 150.831 151.622 151.937 152.672 149.306 148.981 149.183 148.859 
149.211 149.01 149.507 149.412 150.004 150.032 150.778 150.983 151.857 
152.13 152.996 153.224 154.052 149.967 149.775 150.054 149.787 150.127 
149.875 150.359 150.191 150.83 150.737 151.516 151.528 152.434 152.559 
153.499 153.664 154.543 154.704 155.515 150.425 151.431 150.804 150.625 
152.747 151.957 151.729 151.023 150.792 154.228 153.365 153.132 152.286 
152.067 151.28 151.098 155.875 154.924 154.767 153.838 153.696 152.772 
152.655 151.769 151.669 157.848 156.745 156.644 155.617 155.563 154.571 
154.528 153.537 153.488 152.506 152.444 160.042 158.89 158.817 157.673 
157.642 156.557 156.537 155.5 155.475 154.453 154.415 153.389 153.366 
162.23 161.141 161.168 159.996 160.014 158.804 158.784 157.602 157.559 
156.468 156.434 155.402 155.37 154.361 154.369 164.456 163.384 163.539 
162.412 162.536 161.309 161.335 160.02 159.957 158.677 158.603 157.45 
157.391 156.343 156.299 155.334 155.344 166.81 165.716 165.921 164.817 
164.984 163.829 163.892 162.624 162.567 161.214 161.102 159.77 159.648 
158.421 158.31 157.236 157.177 156.249 156.259 157.057 158.038 157.909 
158.761 159.303 159.09 160.106 159.906 161.011 160.815 160.581 161.765 
161.503 162.752 162.459 163.652 162.374 162.209 163.503 163.293 164.586 
164.307 165.502 165.139 166.183 163.843 163.762 165.084 164.99 166.323 
166.129 167.354 167.006 168.112 167.651 168.7 165.178 165.186 166.535 
166.514 167.954 167.857 169.281 168.972 170.294 169.782 171.044 170.422 
171.622 166.341 166.473 167.92 167.975 169.542 169.542 171.179 171.015 
172.56 172.149 173.544 172.951 174.189 173.481 174.519 167.351 167.604 
169.173 169.358 171.011 171.141 172.83 172.869 174.439 174.295 175.64 
175.301 176.422 175.903 176.798 176.12 176.811 168.26 168.595 170.215 
170.54 172.198 172.484 174.102 174.318 175.773 175.856 177.068 176.997 
177.993 177.758 178.57 178.129 178.772 178.131 178.648 149.367 148.932 
148.854 148.43 148.749 148.554 148.187 148.14 148.008 148.685 148.471 
148.155 148.066 147.984 147.973 147.975 148.614 148.406 148.066 148.03 
147.924 147.968 147.91 147.93 147.869 148.687 148.389 148.032 147.917 
147.759 147.802 147.697 147.763 147.662 147.749 147.759 148.961 148.609 
148.306 148.027 147.882 147.73 147.637 147.562 147.475 147.509 147.521 
147.685 147.786 149.222 148.947 148.684 148.396 148.229 147.995 147.889 
147.684 147.571 147.436 147.378 147.429 147.452 147.645 147.652 149.434 
149.203 148.941 148.698 148.412 148.232 148.004 147.896 147.719 147.599 
147.442 147.356 147.267 147.312 147.283 147.43 147.423 149.762 149.471 
149.205 148.906 148.527 148.275 147.918 147.827 147.622 147.622 147.498 
147.438 147.337 147.252 147.228 147.215 147.289 147.35 147.498 149.542 
148.616 149.215 149.673 148.156 148.474 148.933 149.533 150.157 148.062 
148.207 148.593 149.001 149.641 150.196 150.852 147.963 148.11 148.429 
148.766 149.363 149.83 150.48 150.946 151.541 147.924 148.007 148.291 
148.565 149.112 149.573 150.217 150.657 151.243 151.661 152.268 147.993 
148.057 148.295 148.447 148.887 149.278 149.901 150.38 150.975 151.398 
151.96 152.412 152.993 147.859 148.059 148.266 148.439 148.759 149.056 
149.6 150.054 150.683 151.126 151.673 152.084 152.581 153.038 153.488 
147.606 147.821 148.062 148.308 148.635 148.914 149.416 149.804 150.467 
150.892 151.513 151.852 152.337 152.656 153.088 153.464 153.872 147.651 
147.686 147.987 148.148 148.568 148.809 149.342 149.67 150.328 150.737 
151.418 151.77 152.316 152.546 152.988 153.212 153.663 153.948 154.409 
150.266 150.394 150.66 151.385 150.814 150.911 151.605 151.812 152.514 
151.417 151.419 152.053 152.14 152.805 152.971 153.68 152.039 152.009 
152.592 152.634 153.238 153.322 153.964 154.156 154.895 152.766 152.657 
153.211 153.176 153.738 153.759 154.332 154.454 155.16 155.409 156.232 
153.511 153.428 153.975 153.867 154.425 154.332 154.905 154.885 155.569 
155.723 156.579 156.838 157.715 153.971 154.038 154.549 154.568 155.12 
155.085 155.711 155.623 156.315 156.281 157.092 157.236 158.121 158.34 
159.147 154.288 154.362 154.818 154.938 155.442 155.606 156.243 156.382 
157.086 157.106 157.812 157.832 158.605 158.749 159.56 159.738 160.503 
154.777 154.731 155.173 155.186 155.648 155.785 156.369 156.663 157.363 
157.647 158.315 158.46 159.115 159.24 160.002 160.178 161.013 161.159 
161.978 158.228 157.532 157.534 156.888 156.982 156.89 156.186 156.181 
155.567 156.467 156.399 155.708 155.587 154.946 154.928 154.398 155.79 
155.823 155.182 155.136 154.475 154.406 153.844 153.853 153.344 155.169 
155.124 154.471 154.496 153.822 153.847 153.208 153.276 152.712 152.771 
152.167 154.951 154.696 154.056 153.877 153.217 153.136 152.484 152.532 
151.948 152.062 151.469 151.514 150.869 154.971 154.667 154.101 153.747 
153.155 152.804 152.2 151.96 151.407 151.348 150.817 150.823 150.232 
150.232 149.67 154.887 154.673 154.129 153.864 153.33 152.976 152.417 
151.991 151.413 151.068 150.52 150.327 149.77 149.667 149.114 149.116 
148.679 154.684 154.51 153.951 153.785 153.273 153.084 152.57 152.257 
151.651 151.233 150.59 150.222 149.632 149.372 148.84 148.685 148.25 
148.243 147.944 
POINT_DATA 1002
SCALARS Distance double
LOOKUP_TABLE default
150.921 150.086 150.359 151.426 150.969 152.149 152.288 152.025 152.933 
153.595 153.454 153.225 153.934 154.519 155.091 154.658 154.352 155.092 
155.59 156.163 156.854 155.858 155.558 156.365 156.891 157.472 158.22 
158.992 157.124 156.863 157.7 158.38 158.972 159.677 160.461 161.156 
158.413 158.128 158.975 159.789 160.487 161.085 161.81 162.548 163.251 
159.689 159.296 160.217 161.007 161.836 162.498 163.178 163.969 164.751 
165.504 160.88 160.346 161.46 162.179 163.031 163.874 164.693 165.567 
166.437 167.218 167.9 149.658 150.003 149.437 149.963 149.269 150.796 
149.933 149.008 150.853 151.917 149.805 148.842 150.776 151.798 153.011 
149.831 148.888 150.739 151.641 152.808 154.182 149.947 148.954 150.925 
151.798 152.845 154.173 155.568 150.016 149.054 151.011 151.996 153.083 
154.291 155.602 156.912 150.234 149.378 151.048 151.926 153.068 154.297 
155.5 156.79 158.09 150.672 149.909 151.341 152 152.968 154.177 
155.354 156.574 157.897 159.174 150.992 151.705 152.076 152.84 153.198 
152.362 154.14 154.401 153.734 153.181 155.423 155.665 155.19 154.746 
154.279 156.728 157.093 156.423 156.19 155.822 155.463 158.234 158.573 
157.803 157.536 157.371 157.059 156.713 159.712 159.904 159.433 159.171 
159.011 158.815 158.439 158.071 161.111 161.259 160.996 160.882 160.698 
160.459 160.132 159.723 159.39 162.652 162.802 162.544 162.472 162.288 
161.972 161.628 161.259 160.897 160.61 161.754 162.085 163.366 162.463 
163.852 165.187 162.885 164.439 165.908 167.28 163.245 164.911 166.635 
168.098 169.659 163.6 165.155 166.989 168.717 170.347 172.029 163.959 
165.442 167.103 168.972 170.842 172.601 174.159 164.177 165.796 167.354 
169.141 171.162 173.107 174.819 176.302 164.302 166.011 167.596 169.29 
171.292 173.358 175.283 177.047 178.579 164.425 166.1 167.65 169.247 
171.139 173.207 175.266 177.292 179.149 180.614 162.485 164.274 163.266 
166.312 165.3 164.163 168.805 167.761 166.529 165.205 171.502 170.633 
169.361 167.888 166.32 173.806 173.248 172.191 170.751 169.194 167.431 
175.896 175.412 174.629 173.359 171.905 170.349 168.456 178.239 177.701 
177.021 175.932 174.453 172.951 171.32 169.318 180.531 180.085 179.448 
178.541 177.132 175.462 173.849 172.081 170.002 182.333 182.208 183.601 
183.312 184.498 181.669 183.922 185.206 182.601 180.889 184.29 185.449 
183.018 181.655 179.709 184.288 185.052 183.231 181.929 180.275 177.993 
183.75 184.239 183.003 181.876 180.371 178.427 176.12 182.688 182.953 
182.118 181.24 180.015 178.423 176.439 174.254 181.16 181.131 180.816 
180.143 179.194 177.949 176.295 174.29 172.143 179.39 179.145 179.337 
178.92 178.166 177.115 175.684 173.881 171.889 169.853 181.406 182.994 
181.73 183.188 181.734 184.223 183.07 181.429 184.544 185.421 182.499 
180.603 184.388 186.009 186.323 181.381 179.324 183.404 185.544 186.703 
186.229 179.924 177.73 181.873 183.866 185.571 186.048 185.364 178.032 
175.752 180.14 181.88 183.356 184.414 184.673 184.087 175.658 173.582 
177.92 179.89 181.23 182.122 182.757 182.857 182.215 173.293 171.64 
175.31 177.447 179.154 180.115 180.591 180.816 180.621 179.972 163.936 
165.698 165.022 166.784 165.863 167.333 167.668 166.539 168.462 168.922 
168.57 167.303 169.654 170.333 170.78 169.65 168.321 170.947 171.932 
172.511 172.92 170.919 169.494 172.317 173.579 174.463 174.92 175.181 
172.148 170.503 173.746 175.215 176.473 177.232 177.486 177.513 173.038 
171.182 174.964 176.686 178.172 179.296 179.81 179.877 179.696 161.875 
162.845 160.821 161.562 159.82 163.77 160.336 158.997 162.306 164.528 
159.213 158.098 160.864 163.04 165.205 158.074 157.005 159.554 161.578 
163.798 166.01 157.129 156.109 158.526 160.341 162.444 164.677 167.063 
156.558 155.587 157.825 159.399 161.274 163.393 165.737 168.175 156.154 
155.213 157.229 158.517 160.173 162.169 164.412 166.779 169.052 155.754 
154.861 156.652 157.655 159.074 160.948 163.066 165.339 167.596 169.662 