# vtk DataFile Version 4.0
vtk output
ASCII
DATASET POLYDATA
POINTS 1002 float
-105.476 -82.348 73.0796 -105.304 -81.5338 71.7512 -105.929 -81.4738 72.6814 
-105.992 -82.3359 74.2947 -106.52 -81.4697 73.8929 -105.856 -83.3755 74.474 
-106.478 -82.3426 75.6168 -107.111 -81.6318 75.0491 -106.306 -83.3973 75.81 
-106.504 -84.5547 75.7605 -107.263 -82.6101 76.5702 -107.964 -81.9946 75.9885 
-106.887 -83.4893 76.9816 -107.063 -84.7012 76.9772 -107.202 -85.8806 77.0432 
-108.446 -83.1263 77.4463 -109.003 -82.3916 77.1553 -107.894 -83.9111 77.8411 
-107.751 -85.0011 78.089 -107.869 -86.2329 78.2065 -107.723 -87.3147 78.5609 
-109.36 -83.4764 78.9023 -109.68 -82.6423 78.7183 -109.01 -84.4702 78.9947 
-108.598 -85.5214 79.2987 -108.407 -86.6803 79.6129 -108.299 -87.8057 79.9111 
-108.12 -88.8715 80.3012 -109.693 -83.5017 80.4511 -110.044 -82.7928 80.0485 
-109.656 -84.7209 80.4575 -109.46 -86.0279 80.6243 -109.031 -87.1922 81.0851 
-108.717 -88.3378 81.4859 -108.584 -89.5379 81.7572 -108.596 -90.8314 81.994 
-110.158 -83.5562 81.3405 -110.668 -83.0061 80.8563 -110.112 -84.7518 81.462 
-110.239 -86.3354 81.5726 -109.995 -87.7605 82.0291 -109.492 -88.9978 82.6346 
-109.179 -90.3052 83.0391 -109.176 -91.7509 83.2347 -109.342 -93.1949 83.385 
-111.062 -83.9354 81.8531 -111.533 -83.3461 81.5074 -110.886 -85.0505 82.0127 
-111.005 -86.6673 82.1772 -110.989 -88.3543 82.5522 -110.584 -89.8184 83.1697 
-110.124 -91.1884 83.7941 -109.995 -92.6608 84.1546 -110.155 -94.1581 84.3108 
-110.339 -95.442 84.4638 -111.941 -84.5868 82.4325 -112.248 -83.7755 82.2119 
-111.772 -85.7935 82.5749 -111.761 -87.3451 82.8381 -111.716 -89.0344 83.2438 
-111.435 -90.636 83.7509 -111.029 -92.0628 84.3632 -110.845 -93.4586 84.8724 
-110.998 -94.916 85.0991 -111.242 -96.2436 85.2066 -111.334 -97.2422 85.3676 
-105.575 -80.7949 71.0146 -106.328 -80.7157 71.9504 -105.827 -80.0476 70.408 
-106.692 -80.0134 71.3402 -106.172 -79.2745 69.8586 -107.056 -80.7852 73.1264 
-107.112 -79.2817 70.7831 -106.772 -78.4856 69.1726 -107.49 -80.0672 72.5285 
-107.688 -80.9524 74.3374 -107.716 -78.5021 70.1471 -107.459 -77.6924 68.5127 
-107.932 -79.2374 72.0595 -108.15 -80.0474 73.8717 -108.525 -81.1988 75.4988 
-108.338 -77.6962 69.6671 -108.075 -76.9124 68.2098 -108.54 -78.479 71.538 
-108.693 -79.1449 73.4747 -109.071 -80.2367 75.0986 -109.531 -81.6071 76.8055 
-108.954 -76.8996 69.5135 -108.778 -76.3057 68.1222 -109.241 -77.8147 71.0392 
-109.43 -78.5587 72.8897 -109.709 -79.4567 74.6294 -110.146 -80.8682 76.247 
-110.257 -82.0946 78.192 -109.774 -76.3083 69.3933 -109.644 -75.9881 67.9001 
-110.083 -77.1637 70.6452 -110.317 -78.0974 72.1698 -110.423 -78.8693 74.0792 
-110.701 -80.0538 75.8023 -110.945 -81.5153 77.4722 -110.831 -82.4727 79.3399 
-110.76 -76.0005 69.0997 -110.564 -75.7885 67.5369 -111.068 -76.6771 70.3242 
-111.308 -77.6382 71.5456 -111.273 -78.3716 73.4326 -111.233 -79.1442 75.5327 
-111.431 -80.4947 77.14 -111.588 -81.9047 78.6623 -111.551 -82.7463 80.2812 
-111.687 -75.7835 68.7667 -111.442 -75.5195 67.2309 -111.975 -76.374 70.1105 
-112.203 -77.257 71.2444 -112.173 -78.0223 72.8448 -111.955 -78.5567 75.0537 
-111.899 -79.4646 76.9433 -112.073 -80.9261 78.308 -112.229 -82.22 79.7514 
-112.254 -83.0122 81.1995 -112.43 -75.3935 68.0162 -112.672 -75.916 69.6555 
-113.313 -75.525 69.0516 -113.541 -76.1046 70.8896 -114.172 -75.8639 70.2889 
-112.905 -76.7015 71.0807 -114.503 -76.1392 72.2552 -115.092 -76.2652 71.4525 
-113.737 -76.7888 72.4698 -112.986 -77.5608 72.4676 -115.319 -76.4539 73.3157 
-115.557 -77.149 72.3847 -114.633 -76.7574 73.8105 -113.732 -77.6668 73.9767 
-112.827 -78.2563 74.3941 -115.414 -77.9868 74.1381 -115.482 -79.0096 73.3477 
-115.167 -77.6046 74.7452 -114.477 -78.1162 75.1671 -113.547 -78.7516 75.7452 
-112.622 -79.0187 76.4895 -115.441 -80.3381 75.2412 -115.805 -81.0989 74.5859 
-115.284 -79.6626 75.739 -114.966 -79.4681 76.2078 -114.267 -79.7708 76.8303 
-113.394 -80.0432 77.5525 -112.619 -80.3067 78.1018 -116.18 -82.0719 76.6287 
-116.666 -82.4093 75.8669 -115.745 -81.7029 77.1535 -115.4 -81.2615 77.597 
-114.899 -81.0651 78.223 -114.18 -81.2196 78.8527 -113.407 -81.4445 79.318 
-112.767 -81.7641 79.605 -116.976 -83.0406 77.8284 -117.213 -83.2216 76.9041 
-116.462 -83.0195 78.5658 -115.905 -82.851 79.0692 -115.404 -82.4842 79.6947 
-114.876 -82.3069 80.3868 -114.202 -82.3978 80.84 -113.469 -82.5612 81.0894 
-112.844 -82.7835 81.2011 -117.167 -84.1119 78.7113 -117.174 -84.3124 77.7732 
-116.813 -84.1676 79.6037 -116.222 -84.2816 80.2153 -115.662 -84.1422 80.7666 
-115.278 -83.8025 81.4542 -114.854 -83.5356 82.0441 -114.167 -83.4182 82.3814 
-113.408 -83.4563 82.5107 -112.796 -83.6197 82.4311 -112.624 -84.985 83.0538 
-113.143 -84.8195 83.3764 -113.117 -87.0057 83.8397 -113.882 -84.7504 83.4807 
-113.714 -86.9173 84.2397 -113.899 -89.4627 84.8373 -114.709 -84.9965 83.289 
-114.505 -87.0385 84.4135 -114.519 -89.4813 85.4388 -114.689 -91.5733 86.1641 
-115.223 -85.4625 82.8191 -115.18 -87.4986 84.1903 -115.105 -89.728 85.6534 
-115.093 -91.7277 86.7913 -115.028 -93.4917 87.4371 -115.496 -85.8399 82.1867 
-115.591 -87.87 83.6751 -115.628 -90.0437 85.3001 -115.482 -92.0835 86.6964 
-115.339 -93.9466 87.7 -115.242 -96.0916 88.5191 -115.93 -85.9279 81.6095 
-116.011 -87.8112 83.1131 -116.233 -89.9342 84.7626 -116.108 -92.3048 86.2146 
-115.888 -94.5138 87.4039 -115.818 -96.671 88.5978 -115.819 -99.0768 89.7174 
-116.496 -85.79 81.0402 -116.478 -87.599 82.5343 -116.778 -89.5683 84.1793 
-116.784 -92.1752 85.7972 -116.576 -94.9554 87.2177 -116.55 -97.2426 88.5742 
-116.565 -99.4211 89.8348 -116.496 -101.666 90.7365 -116.893 -85.6964 80.2337 
-116.781 -87.5936 81.8086 -116.994 -89.5207 83.421 -117.071 -92.0504 85.1372 
-116.941 -95.1759 86.9354 -117.028 -97.8001 88.5799 -117.187 -99.849 89.8205 
-117.132 -101.965 90.6111 -116.986 -104.028 91.0353 -116.999 -85.8139 79.2708 
-116.899 -87.7862 80.9446 -117.008 -89.8062 82.596 -117.053 -92.1556 84.2262 
-116.946 -95.1925 86.095 -117.079 -98.1004 88.0494 -117.423 -100.305 89.4751 
-117.559 -102.384 90.1947 -117.486 -104.567 90.5552 -117.427 -106.429 90.7755 
-112.507 -86.4443 83.1976 -113.181 -88.96 84.111 -112.483 -88.136 83.4946 
-114.019 -91.3122 85.2447 -113.169 -90.7066 84.6341 -112.372 -89.8068 84.0411 
-114.631 -93.1989 86.5553 -113.869 -92.8468 85.7827 -112.881 -92.22 85.3465 
-112.07 -91.4256 84.6323 -114.878 -95.6739 87.9449 -114.417 -95.1578 87.0472 
-113.583 -94.5285 86.5019 -112.542 -93.7804 86.0493 -111.718 -92.9543 85.2099 
-115.293 -98.9856 89.4181 -114.909 -98.4882 88.6003 -114.447 -97.5775 87.7385 
-113.562 -96.4524 87.2067 -112.46 -95.3508 86.6133 -111.587 -94.3846 85.7308 
-115.95 -101.915 90.6931 -115.488 -101.822 90.1528 -115.166 -101.14 89.1737 
-114.694 -99.879 88.2242 -113.742 -98.3269 87.5529 -112.649 -96.9373 86.8635 
-111.789 -95.8717 85.9766 -116.518 -104.204 91.2285 -116.007 -104.219 91.0553 
-115.576 -103.932 90.3764 -115.27 -103.163 89.3066 -114.756 -101.791 88.2831 
-113.852 -100.069 87.554 -112.92 -98.5125 86.8537 -112.106 -97.3015 86.0201 
-117.041 -106.452 91.0461 -116.525 -106.285 91.0588 -115.948 -105.999 90.7642 
-115.496 -105.563 90.0971 -115.153 -104.732 89.1182 -114.607 -103.29 88.1945 
-113.831 -101.464 87.5108 -113.046 -99.7513 86.8518 -112.235 -98.3824 86.111 
-117.822 -108.807 90.5798 -117.368 -108.677 90.5956 -118.341 -110.897 90.184 
-117.76 -110.851 89.7563 -118.724 -112.818 89.4104 -116.728 -108.312 90.3648 
-118.067 -112.909 88.716 -118.973 -114.866 88.4832 -117.078 -110.425 89.2791 
-116.058 -107.798 90.0754 -118.285 -114.659 87.9325 -119.159 -116.569 87.7146 
-117.451 -112.296 88.2528 -116.409 -109.61 89.1306 -115.533 -107.1 89.6062 
-118.258 -115.695 87.2942 -118.831 -117.136 86.7419 -117.554 -113.687 87.612 
-116.703 -111.177 88.2545 -115.737 -108.489 88.9224 -115.042 -105.965 88.822 
-117.651 -115.846 86.3468 -117.78 -116.75 85.507 -117.179 -114.43 87.0357 
-116.541 -112.403 87.5835 -115.798 -109.73 88.1127 -114.998 -106.912 88.3368 
-114.374 -104.195 88.0344 -116.632 -115.359 85.4757 -116.616 -115.897 84.7275 
-116.419 -114.347 86.345 -115.988 -112.86 87.0382 -115.51 -110.626 87.4318 
-114.865 -107.716 87.6928 -114.139 -104.745 87.7452 -113.581 -102.086 87.4138 
-115.679 -114.327 85.1276 -115.774 -114.48 84.5832 -115.566 -113.563 85.8161 
-115.314 -112.326 86.5313 -114.979 -110.618 87.0186 -114.486 -108.178 87.2537 
-113.785 -105.193 87.3905 -113.169 -102.404 87.276 -112.735 -100.197 86.7797 
-114.907 -112.699 85.002 -115.107 -112.481 84.5602 -114.785 -112.274 85.4682 
-114.64 -111.229 86.0071 -114.357 -109.804 86.5982 -113.89 -107.953 87.007 
-113.247 -105.454 87.1336 -112.616 -102.709 87.0359 -112.179 -100.436 86.6616 
-111.817 -98.7382 86.0396 -117.921 -107.795 90.2468 -118.506 -110.166 90.1658 
-118.316 -108.833 89.6096 -119.018 -110.917 89.4936 -118.462 -109.252 88.8898 
-119.168 -111.982 89.8112 -119.107 -111.177 88.4625 -118.364 -109.176 88.1267 
-119.797 -112.562 88.7878 -119.667 -113.932 88.859 -118.74 -111.159 87.522 
-118.165 -108.546 87.4065 -119.825 -112.96 87.4065 -120.51 -114.757 87.4993 
-120.075 -116.308 87.788 -118.241 -110.334 86.9572 -117.921 -106.959 86.6597 
-119.098 -112.89 86.6878 -120.446 -114.986 86.2754 -120.906 -116.976 86.4906 
-120.034 -117.799 86.88 -117.918 -108.227 86.2867 -117.559 -104.633 85.7465 
-118.294 -111.6 86.3936 -119.328 -114.134 85.9568 -120.466 -116.257 85.6037 
-120.246 -117.704 85.7045 -118.976 -117.72 85.6952 -117.559 -105.452 85.3667 
-117 -102.391 84.7661 -117.894 -109.014 85.7128 -118.269 -112.128 85.6872 
-119.141 -114.498 85.2948 -119.537 -116.338 84.9241 -118.698 -117.195 84.698 
-117.5 -116.862 84.5725 -116.865 -102.936 84.5348 -116.302 -100.61 83.8291 
-117.392 -105.938 84.9666 -117.624 -109.155 85.164 -118.015 -111.964 85.0356 
-118.547 -114.221 84.6137 -118.328 -115.704 84.195 -117.386 -116.038 84.0099 
-116.469 -115.455 84.1632 -116.015 -100.942 83.7143 -115.65 -99.1059 82.8469 
-116.506 -103.217 84.3696 -116.828 -105.887 84.7806 -117.085 -108.649 84.8808 
[...]
CELL_DATA 2000
SCALARS Distance double
LOOKUP_TABLE default
150.956 151.88 151.665 152.277 152.89 152.635 153.24 153.097 153.851 
154.041 153.699 154.293 154.09 154.869 154.773 155.627 155.464 155.005 
155.632 155.262 156.05 155.86 156.778 156.64 157.523 156.934 156.525 
157.196 156.761 157.527 157.185 158.091 157.874 158.805 158.593 159.476 
158.063 157.834 158.482 158.254 159.014 158.723 159.562 159.272 160.171 
159.922 160.839 160.606 161.574 158.978 158.772 159.366 159.307 160.118 
160.055 160.936 160.735 161.613 161.34 162.266 162.015 163.037 162.829 
163.946 160.021 159.713 160.314 160.173 161.052 161.058 162.079 162.021 
162.992 162.786 163.734 163.488 164.527 164.327 165.47 165.297 166.448 
161.158 160.853 161.512 161.281 162.203 162.116 163.217 163.175 164.248 
164.123 165.109 164.926 165.938 165.785 166.888 166.773 167.893 167.741 
168.757 150.373 149.861 150.497 151.294 149.415 150.035 150.882 151.506 
152.346 149.054 149.642 150.511 151.132 152.007 152.598 153.484 148.785 
149.33 150.187 150.781 151.648 152.254 153.171 153.81 154.826 148.612 
149.098 149.962 150.505 151.373 151.922 152.85 153.492 154.561 155.255 
156.302 148.621 148.989 149.861 150.347 151.261 151.743 152.68 153.237 
154.323 155.005 156.108 156.712 157.573 148.877 149.111 149.96 150.342 
151.287 151.719 152.662 153.14 154.163 154.789 155.894 156.531 157.475 
157.913 158.61 149.281 149.457 150.291 150.56 151.489 151.834 152.761 
153.156 154.088 154.617 155.626 156.278 157.27 157.83 158.647 158.989 
159.664 149.683 149.878 150.712 150.949 151.84 152.111 152.996 153.301 
154.165 154.556 155.454 155.995 156.948 157.571 158.482 158.997 159.764 
160.089 160.751 150.149 151.284 150.883 151.252 152.569 152.111 152.515 
152.056 152.409 153.947 153.452 153.834 153.353 153.703 153.217 153.534 
155.237 154.793 155.127 154.662 154.994 154.516 154.841 154.345 154.671 
156.48 156.014 156.362 155.919 156.278 155.818 156.191 155.693 156.052 
155.527 155.919 158.11 157.425 157.861 157.263 157.727 157.185 157.659 
157.124 157.569 156.995 157.417 156.865 157.354 160.05 159.307 159.799 
159.038 159.557 158.845 159.385 158.741 159.274 158.636 159.118 158.472 
158.952 158.384 158.889 161.656 161.17 161.653 161.025 161.481 160.775 
161.236 160.559 161.064 160.424 160.913 160.246 160.675 160.027 160.435 
159.865 160.224 162.771 162.515 163.011 162.634 163.05 162.525 162.884 
162.3 162.704 162.146 162.583 161.991 162.345 161.697 161.971 161.358 
161.607 161.044 161.246 161.982 162.391 162.565 163.462 162.842 163.013 
163.971 164.247 165.479 163.314 163.537 164.579 164.843 166.143 166.503 
167.874 163.604 163.982 165.097 165.472 166.784 167.192 168.556 168.877 
170.047 163.708 164.172 165.314 165.862 167.17 167.717 169.018 169.448 
170.602 170.88 171.997 163.83 164.251 165.352 165.953 167.265 167.934 
169.261 169.798 171.012 171.386 172.615 172.949 174.34 163.932 164.353 
165.365 165.943 167.198 167.92 169.313 169.986 171.373 171.863 173.256 
173.634 175.097 175.47 176.911 163.83 164.336 165.276 165.884 167.04 
167.775 169.125 169.942 171.44 172.2 173.743 174.309 175.784 176.194 
177.546 177.891 179.055 163.539 164.103 165.034 165.702 166.83 167.56 
168.825 169.656 171.103 172.071 173.66 174.571 176.051 176.696 177.941 
178.38 179.461 179.791 180.738 161.953 163.569 162.641 162.506 165.696 
164.571 164.568 163.431 163.36 168.055 166.902 166.926 165.717 165.675 
164.454 164.399 170.169 169.18 169.162 168.061 167.988 166.81 166.694 
165.503 165.394 172.251 171.256 171.358 170.253 170.255 169.09 169.011 
167.792 167.646 166.438 166.278 174.793 173.655 174.041 172.738 172.962 
171.582 171.661 170.254 170.178 168.788 168.636 167.333 167.177 177.392 
176.403 176.922 175.697 176.035 174.602 174.754 173.192 173.148 171.54 
171.374 169.859 169.702 168.323 168.186 179.452 178.769 179.204 178.346 
178.599 177.512 177.58 176.255 176.142 174.597 174.338 172.723 172.462 
170.956 170.765 169.375 169.196 181.088 180.539 180.88 180.229 180.376 
179.604 179.595 178.657 178.512 177.322 177.019 175.581 175.19 173.687 
173.335 171.919 171.622 170.289 170.001 182.12 183.528 182.517 181.826 
184.708 183.786 182.96 182.011 181.212 185.682 184.817 183.966 183.03 
182.115 181.246 180.401 186.551 185.73 184.849 183.95 183.002 182.103 
181.169 180.337 179.385 186.826 186.385 185.438 184.724 183.732 182.909 
181.89 181.049 179.987 179.156 177.98 185.99 186.147 185.285 185.018 
184.026 183.456 182.363 181.62 180.42 179.628 178.346 177.53 176.178 
184.508 184.963 184.307 184.472 183.615 183.437 182.371 181.867 180.586 
179.881 178.479 177.737 176.338 175.595 174.256 183.003 183.503 182.965 
183.314 182.575 182.711 181.751 181.589 180.358 179.858 178.401 177.727 
176.252 175.605 174.262 173.654 172.437 181.431 182.021 181.494 181.938 
181.218 181.507 180.607 180.715 179.604 179.408 178.025 177.516 176.002 
175.411 174.02 173.517 172.315 171.842 170.739 182.439 183.256 183.303 
183.995 183.588 183.985 184.825 184.788 185.242 183.333 184.038 184.968 
185.357 185.999 185.921 186.251 182.66 183.554 184.511 185.219 186.089 
186.479 187.143 186.992 187.245 181.53 182.678 183.636 184.575 185.52 
186.328 187.237 187.661 188.09 187.825 187.572 179.769 181.235 182.199 
183.452 184.298 185.429 186.243 187.245 187.676 188.097 187.721 187.462 
186.559 177.607 179.189 180.12 181.664 182.429 183.81 184.412 185.714 
186.055 187.015 186.696 186.982 186.054 185.891 184.866 175.475 176.932 
177.741 179.345 180.061 181.601 182.116 183.546 183.869 185.075 184.984 
185.645 184.989 185.112 184.198 184.115 183.256 173.538 174.811 175.445 
176.916 177.524 179.063 179.521 181.034 181.344 182.748 182.812 183.841 
183.451 183.936 183.158 183.296 182.419 182.461 181.618 163.6 164.424 
164.381 165.251 165.622 165.486 166.489 166.297 167.208 166.804 166.779 
167.857 167.703 168.681 168.377 169.265 167.745 167.851 169.001 169.032 
170.139 169.941 170.948 170.574 171.582 168.837 168.84 170.115 170.17 
171.513 171.45 172.709 172.405 173.583 173.134 174.243 170.227 170.155 
171.54 171.496 173.02 172.982 174.481 174.272 175.58 175.197 176.329 
175.825 176.721 171.437 171.546 172.943 173.009 174.554 174.61 176.189 
176.098 177.456 177.146 178.23 177.795 178.644 178.073 178.647 172.224 
172.54 173.92 174.214 175.74 176.016 177.607 177.724 179.12 178.941 
180.029 179.626 180.48 179.931 180.549 179.836 180.21 172.796 173.19 
174.595 175.01 176.563 177 178.623 178.955 180.396 180.442 181.558 
181.323 182.203 181.763 182.442 181.777 182.193 181.34 181.536 162.839 
161.901 162.681 163.484 160.948 161.743 162.494 163.456 164.532 159.831 
160.754 161.524 162.469 163.467 164.568 165.683 158.562 159.582 160.434 
161.452 162.402 163.472 164.504 165.614 166.63 157.367 158.333 159.212 
160.292 161.248 162.339 163.305 164.401 165.408 166.528 167.64 156.343 
157.194 157.99 159.043 159.998 161.122 162.085 163.177 164.166 165.301 
166.449 167.668 168.936 155.428 156.189 156.878 157.828 158.725 159.841 
160.838 161.958 162.951 164.067 165.159 166.405 167.637 168.949 170.13 
154.628 155.308 155.957 156.766 157.572 158.58 159.551 160.693 161.714 
162.852 163.874 165.065 166.171 167.497 168.622 169.944 170.935 153.979 
154.585 155.235 155.926 156.656 157.493 158.357 159.407 160.405 161.57 
162.582 163.747 164.743 165.975 167.003 168.324 169.321 170.61 171.505 
153.862 154.136 154.372 155.139 154.405 154.677 155.49 155.716 156.542 
154.708 154.969 155.838 156.088 156.982 157.211 158.19 155.2 155.368 
156.306 156.515 157.524 157.741 158.838 159.057 160.223 155.908 155.988 
156.975 157.125 158.246 158.436 159.66 159.844 161.095 161.254 162.448 
156.748 156.785 157.795 157.905 159.069 159.26 160.54 160.749 162.031 
162.192 163.4 163.497 164.626 157.647 157.685 158.746 158.818 159.996 
160.138 161.397 161.608 162.879 163.092 164.312 164.46 165.629 165.7 
166.844 158.52 158.608 159.729 159.829 161.043 161.139 162.383 162.501 
163.758 163.924 165.192 165.367 166.626 166.74 167.962 167.995 169.15 
159.32 159.46 160.594 160.775 162.005 162.174 163.432 163.546 164.812 
164.906 166.213 166.333 167.678 167.797 169.111 169.162 170.37 170.325 
171.391 160.117 161.888 161.124 161.461 163.937 163.048 163.414 162.591 
162.954 166.319 165.286 165.693 164.71 165.121 164.188 164.498 168.991 
167.877 168.343 167.191 167.631 166.545 166.924 165.81 166.01 171.659 
170.633 171.139 169.962 170.399 169.22 169.647 168.438 168.712 167.398 
167.507 174.133 173.267 173.905 172.803 173.322 172.094 172.567 171.299 
171.655 170.276 170.425 168.969 169.02 176.503 175.765 176.688 175.693 
176.487 175.216 175.826 174.404 174.82 173.338 173.535 172.001 172.027 
170.502 170.474 178.721 178.162 179.276 178.54 179.572 178.513 179.265 
177.848 178.247 176.641 176.784 175.161 175.139 173.54 173.41 171.87 
171.715 180.521 180.209 181.262 180.889 181.907 181.327 182.092 181.089 
181.417 179.992 179.982 178.381 178.228 176.61 176.363 174.762 174.451 
172.944 172.664 159.638 159.476 160.156 161.398 159.291 160.034 161.373 
162.058 163.436 159.014 159.836 161.23 162.023 163.468 164.196 165.729 
158.643 159.507 160.896 161.797 163.261 164.138 165.737 166.6 168.303 
158.274 159.103 160.472 161.402 162.895 163.853 165.514 166.52 168.34 
169.26 170.975 158.037 158.769 160.132 161.006 162.565 163.525 165.286 
166.317 168.232 169.25 171.067 171.872 173.422 157.958 158.609 159.971 
160.762 162.359 163.289 165.115 166.152 168.109 169.158 171.012 171.904 
173.495 174.209 175.657 157.937 158.564 159.903 160.66 162.225 163.134 
164.912 165.963 167.864 168.973 170.802 171.792 173.393 174.205 175.654 
176.392 177.797 157.909 158.521 159.797 160.552 162.029 162.945 164.602 
165.66 167.43 168.582 170.342 171.452 173.054 174.005 175.448 176.286 
177.65 178.423 179.66 158.562 156.909 157.914 158.311 155.247 156.232 
156.548 157.622 158.044 153.577 154.541 154.835 155.857 156.2 157.313 
157.737 152.039 152.89 153.167 154.147 154.456 155.486 155.825 156.963 
157.376 150.752 151.444 151.623 152.495 152.726 153.707 153.95 155.039 
155.382 156.582 157.019 149.566 150.191 150.245 150.986 151.062 151.931 
152.04 153.078 153.345 154.561 155.014 156.274 156.796 148.364 148.951 
148.908 149.577 149.542 150.286 150.298 151.183 151.397 152.52 153.005 
154.284 154.891 156.143 156.733 147.27 147.753 147.636 148.204 148.118 
148.786 148.809 149.576 149.803 150.738 151.23 152.373 153.033 154.272 
154.93 156.139 156.738 146.422 146.771 146.651 147.033 146.935 147.452 
147.516 148.205 148.493 149.323 149.809 150.781 151.404 152.513 153.183 
154.362 155.004 156.171 156.758 146.063 145.77 146.004 146.243 145.598 
145.764 145.914 146.159 146.469 145.327 145.587 145.793 145.954 146.246 
146.514 147.045 145.071 145.325 145.719 145.927 146.323 146.48 147.036 
147.331 148.091 145.432 145.348 145.869 145.986 146.55 146.68 147.291 
147.489 148.276 148.582 149.47 146.527 146.114 146.586 146.424 147.052 
147.061 147.757 147.857 148.657 148.878 149.8 150.086 151.048 147.77 
147.326 147.675 147.347 147.889 147.755 148.483 148.475 149.308 149.389 
150.317 150.507 151.51 151.766 152.791 148.845 148.464 148.767 148.421 
148.877 148.672 149.363 149.308 150.158 150.165 151.089 151.159 152.164 
152.325 153.38 153.591 154.625 149.901 149.515 149.862 149.495 149.961 
149.688 150.355 150.235 151.073 151.052 151.967 151.996 152.976 153.074 
154.116 154.262 155.296 155.449 156.415 150.654 151.997 151.083 150.677 
153.634 152.599 152.214 151.206 150.857 155.433 154.361 154.045 152.932 
152.604 151.535 151.307 157.303 156.226 155.974 154.865 154.61 153.461 
153.232 152.145 152.032 159.269 158.165 157.976 156.862 156.701 155.557 
155.383 154.206 154.057 152.97 152.927 161.453 160.277 160.193 158.996 
158.912 157.731 157.633 156.429 156.305 155.111 155.047 153.949 153.969 
163.914 162.675 162.721 161.415 161.389 160.084 160.011 158.742 158.647 
157.414 157.355 156.182 156.196 155.081 155.13 166.449 165.265 165.391 
164.085 164.101 162.711 162.631 161.237 161.124 159.803 159.727 158.512 
158.498 157.356 157.369 156.259 156.279 168.742 167.728 167.856 166.703 
166.726 165.43 165.355 163.947 163.817 162.389 162.273 160.931 160.866 
159.649 159.618 158.481 158.451 157.36 157.343 158.272 159.442 159.279 
160.193 160.696 160.55 161.597 161.404 162.485 162.069 161.929 163.137 
162.951 164.196 163.923 165.125 163.599 163.46 164.836 164.652 166.052 
165.781 167.127 166.743 167.99 165.196 165.094 166.575 166.456 167.975 
167.755 169.211 168.853 170.191 169.712 170.911 166.702 166.672 168.144 
168.149 169.714 169.66 171.195 170.965 172.362 171.945 173.169 172.614 
173.647 168.013 168.063 169.457 169.567 171.108 171.25 172.843 172.841 
174.291 174.042 175.282 174.826 175.872 175.248 176.099 169.098 169.232 
170.547 170.722 172.194 172.471 174.086 174.317 175.832 175.809 177.07 
176.794 177.853 177.387 178.278 177.613 178.327 169.952 170.18 171.44 
171.673 173.05 173.397 174.957 175.37 176.923 177.155 178.452 178.391 
179.435 179.173 180.057 179.626 180.345 179.709 180.269 148.963 148.575 
148.453 147.795 148.182 148.057 147.397 147.257 146.581 147.883 147.678 
146.993 146.837 146.125 146.01 145.451 147.826 147.465 146.732 146.465 
145.747 145.563 145.006 145.01 144.786 147.994 147.521 146.783 146.355 
145.662 145.321 144.84 144.708 144.556 144.63 144.67 148.277 147.761 
147.054 146.548 145.872 145.414 144.953 144.719 144.644 144.613 144.714 
144.696 144.741 148.675 148.123 147.471 146.917 146.24 145.701 145.133 
144.842 144.692 144.727 144.88 144.898 144.989 144.85 144.891 149.182 
148.616 148.047 147.454 146.832 146.173 145.519 145.019 144.691 144.655 
144.787 144.977 145.184 145.178 145.262 145.114 145.265 149.736 149.181 
148.677 148.109 147.583 146.899 146.287 145.566 145.124 144.749 144.78 
144.855 145.148 145.287 145.478 145.459 145.586 145.54 145.783 148.986 
147.81 148.491 148.757 146.604 147.294 147.597 148.378 148.875 145.579 
146.159 146.512 147.259 147.846 148.68 149.337 145.047 145.399 145.85 
146.383 147.028 147.744 148.476 149.235 149.871 144.895 145.116 145.622 
146.004 146.684 147.175 147.923 148.507 149.197 149.802 150.386 144.794 
144.974 145.399 145.825 146.494 146.971 147.686 148.147 148.834 149.299 
149.92 150.402 150.976 144.86 144.871 145.194 145.541 146.174 146.701 
147.397 147.905 148.554 149.022 149.631 150.063 150.617 151.049 151.582 
145.293 145.112 145.415 145.486 146.081 146.423 147.123 147.571 148.213 
148.688 149.285 149.76 150.308 150.733 151.233 151.651 152.163 145.928 
145.713 146.042 145.926 146.465 146.55 147.217 147.449 148.087 148.404 
148.992 149.399 149.968 150.402 150.934 151.339 151.864 152.27 152.825 
149.711 149.51 149.969 150.807 149.643 149.9 150.7 151.149 152.083 
150.088 150.199 150.938 151.182 152.076 152.528 153.508 150.576 150.692 
151.409 151.544 152.354 152.642 153.581 153.995 154.878 151.028 151.149 
151.889 152.034 152.805 152.991 153.834 154.136 155.01 155.337 156.161 
151.563 151.63 152.38 152.518 153.295 153.438 154.222 154.433 155.306 
155.581 156.527 156.78 157.782 152.139 152.191 152.922 153.044 153.816 
153.929 154.68 154.83 155.701 155.966 157.015 157.3 158.402 158.631 
159.702 152.702 152.746 153.451 153.575 154.334 154.453 155.189 155.303 
156.133 156.382 157.423 157.791 158.886 159.212 160.18 160.44 161.275 
153.344 153.327 154.004 154.084 154.828 154.953 155.707 155.824 156.633 
156.828 157.791 158.137 159.156 159.537 160.406 160.722 161.423 161.715 
162.352 158.375 157.576 157.571 156.753 156.733 156.75 155.923 155.931 
155.103 155.861 155.885 155.053 155.074 154.225 154.246 153.426 155.006 
154.997 154.141 154.173 153.351 153.383 152.6 152.622 151.922 154.282 
154.169 153.269 153.25 152.463 152.532 151.867 151.904 151.277 151.272 
150.697 153.816 153.558 152.649 152.473 151.689 151.697 151.121 151.223 
150.693 150.71 150.119 150.11 149.541 153.556 153.227 152.353 152.034 
151.243 151.075 150.484 150.523 150.035 150.105 149.523 149.52 148.889 
148.919 148.357 153.341 153.032 152.223 151.874 151.112 150.802 150.157 
150.007 149.475 149.463 148.901 148.89 148.254 148.255 147.676 147.748 
147.272 153.138 152.853 152.135 151.814 151.137 150.786 150.147 149.829 
149.243 149.038 148.471 148.345 147.729 147.649 147.051 147.077 146.607 
146.729 146.379 
POINT_DATA 1002
SCALARS Distance double
LOOKUP_TABLE default
151.47 150.278 151.124 152.406 152.114 152.959 153.389 153.172 153.93 
154.668 154.54 154.414 154.954 155.724 156.491 156.062 155.917 156.294 
156.903 157.708 158.374 157.599 157.291 157.93 158.361 159.012 159.7 
160.358 158.617 158.286 159.236 159.881 160.447 161.059 161.763 162.605 
159.414 159.235 160.07 161.051 161.88 162.517 163.227 164.123 165.115 
160.493 160.337 161.035 162.054 163.134 163.965 164.723 165.634 166.655 
167.577 161.729 161.409 162.316 163.262 164.34 165.274 166.093 167.002 
168.031 168.994 169.701 149.722 150.65 149.214 150.244 148.79 151.757 
149.893 148.483 151.398 152.87 149.619 148.257 151.054 152.496 154.148 
149.424 148.159 150.847 152.221 153.836 155.703 149.389 148.318 150.774 
152.165 153.658 155.478 157.146 149.628 148.688 150.866 152.224 153.601 
155.235 156.973 158.311 150.059 149.099 151.188 152.415 153.649 155.019 
156.629 158.211 159.423 150.48 149.474 151.601 152.734 153.844 155.007 
156.341 157.876 159.361 160.51 150.496 151.677 151.683 152.977 153.049 
152.894 154.335 154.461 154.192 154.027 155.585 155.669 155.463 155.333 
155.169 156.794 156.983 156.712 156.663 156.582 156.412 158.506 158.847 
158.289 158.186 158.133 157.996 157.846 160.573 160.735 160.323 160.065 
159.911 159.784 159.579 159.433 162.207 162.031 162.182 161.942 161.705 
161.582 161.378 161.071 160.804 163.312 162.973 163.518 163.455 163.259 
163.154 163.015 162.644 162.2 161.819 162.721 163.156 164.513 163.684 
165.078 166.851 164.287 165.772 167.586 169.187 164.648 166.363 168.224 
169.86 171.097 164.718 166.583 168.57 170.266 171.686 173.213 164.781 
166.562 168.656 170.564 172.212 173.954 175.86 164.828 166.489 168.546 
170.744 172.82 174.743 176.602 178.278 164.666 166.341 168.295 170.544 
173.045 175.371 177.243 178.798 180.094 164.338 166.104 168.051 170.138 
172.639 175.306 177.48 179.105 180.487 181.638 163.476 165.729 164.505 
168.13 166.923 165.601 170.226 169.134 167.911 166.574 172.45 171.405 
170.229 168.897 167.47 175.313 174.368 173.119 171.64 170 168.44 
178.043 177.418 176.326 174.824 172.986 171.139 169.529 179.991 179.584 
178.799 177.621 175.987 174.048 172.203 170.566 181.538 181.117 180.433 
179.556 178.363 176.713 174.814 172.991 171.311 183.19 182.831 184.569 
183.964 185.595 182.093 184.9 186.558 183.043 181.219 185.736 187.364 
183.915 182.057 180.239 186.058 187.058 184.525 182.763 180.858 178.869 
185.327 185.586 184.473 183.085 181.246 179.162 177.012 183.978 183.96 
183.619 182.756 181.277 179.241 177.041 174.964 182.573 182.477 182.348 
181.763 180.738 179.063 176.904 174.815 173.01 181.017 180.802 180.895 
180.415 179.648 178.43 176.589 174.519 172.729 171.207 182.493 184.23 
183.047 184.68 183.04 185.567 184.398 182.565 185.829 186.608 183.704 
181.716 185.435 187.011 187.818 182.62 180.261 184.589 186.544 188.162 
188.296 180.833 178.223 183.152 185.157 187.032 187.835 187.035 178.521 
176.083 181.016 183.127 184.956 186.179 186.077 185.053 176.199 174.145 
178.508 180.668 182.561 184.093 184.682 184.208 183.332 174.091 172.38 
176.047 178.022 179.882 181.595 182.754 182.92 182.349 181.577 163.494 
165.317 164.467 166.68 165.725 167.476 167.938 166.753 168.961 169.613 
168.866 167.621 170.206 171.258 171.982 170.039 168.856 171.447 172.896 
173.985 174.793 171.578 170.253 173.011 174.612 175.943 176.819 177.382 
172.814 171.249 174.444 176.216 177.748 178.684 179.193 179.365 173.561 
171.866 175.39 177.395 179.22 180.401 181.012 181.246 181.048 162.055 
162.498 161.155 161.581 160.112 163.409 160.574 158.81 162.421 164.574 
159.366 157.512 161.365 163.425 165.518 158.124 156.47 160.151 162.232 
164.263 166.449 156.991 155.571 158.858 160.987 163.043 165.198 167.704 
156.007 154.709 157.639 159.679 161.851 163.966 166.318 168.893 155.212 
153.966 156.655 158.424 160.552 162.743 164.917 167.282 169.694 154.582 