# vtk DataFile Version 4.0
vtk output
ASCII
DATASET POLYDATA
POINTS 1002 float
-103.6 -76.3799 74.1055 -109.39 -89.4942 87.3952 -111.441 -78.9024 68.1427 
-114.383 -92.2197 85.3966 -111.371 -78.6089 83.1682 -116.468 -78.8944 79.6129 
-103.323 -86.2708 75.6681 -107.565 -86.9109 73.5963 -116.759 -101.931 92.8742 
-111.019 -70.4437 68.8356 -113.734 -107.524 88.0242 -105.27 -79.8973 62.2631 
-103.761 -77.1858 75.1608 -103.981 -78.0375 76.3895 -104.088 -78.8697 77.9988 
-104.289 -79.7943 79.7529 -105.003 -81.0564 81.0936 -105.928 -82.7086 82.2912 
-106.552 -84.4314 83.9544 -107.19 -86.0238 85.6447 -108.217 -87.6707 86.7277 
-104.256 -76.3569 74.8896 -104.894 -76.2942 75.7954 -105.6 -76.2838 76.7595 
-106.552 -76.5238 77.6273 -107.63 -76.9011 78.4363 -108.532 -77.1416 79.3861 
-109.276 -77.3436 80.438 -110.037 -77.7056 81.412 -110.769 -78.1668 82.304 
-103.055 -76.9506 73.9898 -102.625 -77.6923 73.8648 -102.307 -78.6016 73.7609 
-102.155 -79.7335 73.7098 -102.179 -81.0426 73.8066 -102.191 -82.3477 74.1192 
-102.195 -83.5719 74.5113 -102.436 -84.6616 74.8507 -102.889 -85.539 75.207 
-104.041 -75.6614 73.4844 -104.643 -74.999 72.826 -105.174 -74.242 72.2104 
-105.711 -73.4112 71.5609 -106.697 -72.8222 70.8153 -108.042 -72.4657 70.0974 
-109.027 -71.9536 69.5151 -109.503 -71.2573 69.1173 -110.066 -70.6996 68.92 
-103.169 -75.9646 72.9041 -102.897 -75.764 71.4321 -102.894 -75.9296 69.7891 
-103.045 -76.3295 68.2202 -103.23 -76.7533 66.7848 -103.517 -77.2464 65.4624 
-103.941 -77.9334 64.4074 -104.43 -78.7043 63.6298 -104.895 -79.3616 62.9347 
-109.257 -88.5869 87.3156 -109.128 -87.4574 87.1491 -109.145 -86.1682 86.8431 
-109.327 -84.8949 86.4199 -109.569 -83.6801 85.9798 -109.854 -82.4716 85.5303 
-110.225 -81.3363 84.9985 -110.635 -80.3353 84.4138 -111.022 -79.4328 83.8135 
-108.721 -89.1239 86.999 -107.961 -88.7428 86.4015 -107.224 -88.3633 85.5309 
-106.493 -88.0182 84.4204 -105.695 -87.7646 83.1764 -104.962 -87.4801 81.8423 
-104.411 -87.0775 80.3324 -103.957 -86.7214 78.6726 -103.576 -86.484 77.0761 
-110.428 -90.994 88.085 -111.421 -92.6769 88.9852 -112.478 -94.6011 89.9285 
-113.536 -96.924 90.7957 -114.299 -99.279 91.5952 -114.83 -101.007 92.115 
-115.375 -102.04 92.3215 -115.881 -102.533 92.5259 -116.319 -102.445 92.7707 
-110.095 -91.3251 87.9368 -110.712 -93.5211 88.8057 -111.429 -96.0921 89.7561 
-112.268 -98.8872 90.2253 -112.909 -101.631 90.0723 -113.359 -104.04 89.6345 
-113.788 -105.83 89.131 -113.958 -106.918 88.6327 -113.824 -107.461 88.2428 
-111.477 -79.3864 69.4233 -111.538 -80.0034 70.9272 -111.661 -80.9279 72.5915 
-111.976 -82.1158 74.188 -112.335 -83.3397 75.8123 -112.512 -84.6071 77.7788 
-112.778 -86.0495 79.8188 -113.355 -87.7448 81.6178 -113.956 -89.8086 83.4377 
-111.809 -78.3539 69.052 -112.461 -78.0471 69.9199 -113.226 -77.9947 70.7145 
-113.937 -77.9857 71.6263 -114.54 -77.9099 72.8154 -114.924 -77.9603 74.207 
-115.151 -78.2094 75.7295 -115.504 -78.4622 77.2644 -116.018 -78.6566 78.5758 
-111.219 -79.8731 68.0933 -110.763 -80.7276 68.3212 -109.929 -81.2015 68.7515 
-109.151 -81.643 69.205 -108.84 -82.5957 69.6892 -108.665 -83.7989 70.3484 
-108.262 -84.6655 71.188 -107.845 -85.2869 72.064 -107.633 -86.0306 72.8691 
-111.638 -78.0631 67.5429 -112.069 -77.2686 66.9387 -112.697 -76.3641 66.2805 
-113.183 -75.1583 65.8391 -113.248 -73.8301 65.9073 -112.974 -72.6463 66.2734 
-112.624 -71.6644 66.6058 -112.242 -70.9491 67.0481 -111.69 -70.5568 67.8378 
-111.375 -79.0094 66.7419 -111.341 -79.1414 65.2104 -110.986 -79.2865 63.8286 
-110.306 -79.2975 62.67 -109.689 -79.1777 61.5682 -108.965 -79.2358 60.7423 
-107.837 -79.4822 60.58 -106.721 -79.6643 60.9897 -105.928 -79.7777 61.6277 
-114.397 -91.1123 84.9936 -114.343 -89.6971 84.5176 -114.367 -88.25 83.9049 
-114.487 -86.8173 83.1437 -114.709 -85.343 82.3461 -115.077 -83.9404 81.5821 
-115.391 -82.567 80.8479 -115.578 -81.1321 80.2205 -115.928 -79.8428 79.8115 
-113.964 -91.4686 84.5681 -113.343 -90.6549 83.674 -112.653 -89.9816 82.5723 
-112.003 -89.4796 81.2658 -111.266 -88.9499 79.9651 -110.386 -88.3452 78.7043 
-109.576 -87.8625 77.3274 -108.912 -87.5592 75.8997 -108.252 -87.2687 74.6372 
-114.805 -94.4571 87.1771 -115.279 -97.0348 88.7919 -115.903 -99.5643 89.728 
-116.641 -101.762 89.9523 -117.192 -103.468 90.0203 -117.388 -104.468 90.3341 
-117.444 -104.57 90.8535 -117.433 -103.897 91.5307 -117.198 -102.899 92.2889 
-114.571 -94.4043 86.7844 -114.92 -96.8732 87.8454 -115.394 -99.9692 88.4088 
-115.717 -103.611 88.6252 -115.98 -106.926 88.4737 -116.259 -109.101 87.9133 
-116 -109.996 87.448 -115.092 -109.826 87.475 -114.21 -108.896 87.767 
-111.931 -78.3827 83.2577 -112.585 -78.1558 83.2947 -113.362 -77.9503 83.1899 
-114.117 -77.8934 82.8057 -114.734 -78.0987 82.2687 -115.453 -78.3996 81.8667 
-116.389 -78.5514 81.4834 -117.023 -78.5785 80.8817 -116.959 -78.66 80.191 
-111.705 -79.5629 84.4668 -112.081 -80.7701 85.7027 -112.585 -82.6112 86.8253 
-113.16 -85.0277 88.0747 -113.604 -87.4606 89.4189 -114.023 -90.1629 90.5247 
-114.744 -93.6448 91.5549 -115.64 -97.129 92.6303 -116.333 -99.788 93.1909 
-111.377 -77.5158 81.9065 -111.413 -76.3644 80.6536 -111.416 -75.1578 79.5733 
-111.294 -73.9081 78.4341 -111.182 -72.9111 76.794 -111.205 -72.2293 74.8465 
-111.189 -71.4586 73.2147 -111.084 -70.7007 71.8765 -111.029 -70.3904 70.4164 
-116.293 -79.7842 80.7192 -115.884 -81.0195 82.1609 -115.609 -82.8333 83.9964 
-115.482 -85.5686 86.1077 -115.442 -89.1405 88.3631 -115.871 -92.7135 90.3998 
-116.665 -95.6103 91.8627 -117.1 -97.919 92.7483 -117.006 -99.9716 93.0822 
-116.57 -77.9339 78.8021 -116.229 -76.7862 77.6159 -115.84 -75.3348 76.0673 
-115.709 -73.9467 74.6024 -115.347 -72.9399 73.5026 -114.585 -71.9708 72.5334 
-113.94 -70.9339 71.5464 -113.288 -70.3296 70.6301 -112.224 -70.2781 69.741 
-103.402 -86.6239 75.1613 -103.447 -87.1273 74.5658 -103.573 -87.7209 73.8978 
-103.923 -88.1737 73.3686 -104.615 -88.3192 73.0939 -105.48 -88.1895 73.0303 
-106.172 -87.9034 73.1411 -106.656 -87.569 73.3189 -107.109 -87.2369 73.4592 
-103.903 -87.2013 77.1295 -104.628 -88.4089 78.887 -105.494 -89.9405 80.8901 
-106.586 -91.5917 82.9088 -107.977 -93.2835 84.7128 -109.588 -95.4544 86.2328 
-111.183 -98.3608 87.3422 -112.449 -101.596 87.9249 -113.233 -104.71 88.1062 
-102.975 -85.5735 73.9468 -102.67 -84.8676 72.0904 -102.272 -84.3141 70.2402 
-102.016 -83.8526 68.4893 -102.192 -83.2741 66.8023 -102.563 -82.6445 65.255 
-102.963 -82.0505 64.009 -103.598 -81.3754 63.1375 -104.452 -80.6222 62.612 
-107.998 -88.0595 74.9485 -108.483 -89.0866 76.5938 -109.019 -90.1297 78.678 
-109.66 -91.6062 80.9776 -110.399 -93.2764 83.2168 -111.325 -95.1173 85.304 
-112.399 -98.0423 86.9246 -113.194 -101.884 87.765 -113.527 -105.249 88.0024 
-106.977 -86.0742 72.0559 -106.643 -85.6646 70.1678 -106.599 -85.6373 68.0969 
-106.575 -85.4296 66.1295 -106.29 -84.9595 64.3911 -105.776 -84.4585 62.9728 
-105.296 -83.619 62.0475 -105.08 -82.3149 61.7126 -105.128 -80.9767 61.8697 
-116.918 -104.878 91.8846 -117.34 -108.864 90.7388 -117.819 -113.046 89.9987 
-117.865 -115.768 89.1974 -117.494 -116.661 87.7229 -117.03 -116.523 86.4921 
-116.32 -115.377 86.4947 -115.281 -113.101 87.1939 -114.332 -110.314 87.7655 
-110.347 -70.5466 67.3039 -109.792 -70.5212 65.866 -109.301 -70.9179 64.7811 
-108.676 -72.2307 64.0813 -107.895 -73.8671 63.4165 -107.176 -75.1341 62.6423 
-106.661 -76.3144 62.1664 -106.253 -77.6272 62.1602 -105.798 -78.8401 62.2731 
-104.382 -77.1319 76.0835 -105.04 -77.0803 77.1168 -104.579 -77.9846 77.4953 
-105.9 -77.2671 78.0667 -105.319 -78.036 78.6052 -104.744 -78.9021 79.1908 
-106.973 -77.7004 78.8827 -106.3 -78.3992 79.5108 -105.608 -79.1207 80.2483 
-105.145 -80.0036 80.8091 -107.974 -77.9901 79.8197 -107.355 -78.8173 80.391 
-106.658 -79.586 81.1203 -106.136 -80.4394 81.7663 -105.975 -81.504 82.0966 
-108.772 -78.1373 80.9356 -108.255 -79.0361 81.5049 -107.694 -80.0049 82.1092 
-107.207 -81.0238 82.6682 -106.929 -82.1171 83.1269 -106.747 -83.2877 83.53 
-109.546 -78.49 81.9913 -109.053 -79.3631 82.6383 -108.572 -80.3695 83.2654 
-108.186 -81.5233 83.7194 -107.893 -82.7234 84.1074 -107.587 -83.8896 84.6261 
-107.309 -85.0089 85.2047 -110.34 -78.9943 82.927 -109.873 -79.8812 83.5776 
-109.393 -80.8548 84.2444 -109.013 -81.98 84.7652 -108.749 -83.1993 85.1277 
-108.471 -84.4113 85.5569 -108.21 -85.5998 86.0854 -108.128 -86.7113 86.5145 
-104.771 -75.6245 74.301 -105.369 -74.8425 73.7224 -105.444 -75.5091 75.2601 
-105.864 -73.9369 73.211 -106.067 -74.6118 74.7782 -106.221 -75.4387 76.2873 
-106.547 -73.162 72.5881 -106.665 -73.7284 74.3206 -106.919 -74.4938 75.8755 
-107.25 -75.6355 77.2069 -107.757 -72.7024 71.7713 -107.535 -73.139 73.6593 
-107.585 -73.674 75.4549 -107.923 -74.6565 76.8594 -108.294 -75.9966 78.0852 
-108.965 -72.2287 71.0126 -108.748 -72.6986 72.8076 -108.48 -73.096 74.8538 
-108.533 -73.7557 76.5609 -108.891 -75.0216 77.8321 -109.153 -76.3172 79.0944 
-109.611 -71.5259 70.5766 -109.725 -72.0736 72.1357 -109.6 -72.5937 74.099 
-109.399 -73.0582 76.1293 -109.54 -74.0841 77.6509 -109.826 -75.4658 78.8593 
-109.957 -76.6412 80.1209 -110.125 -70.8323 70.455 -110.335 -71.3196 71.8856 
-110.493 -72.0335 73.4943 -110.405 -72.5946 75.481 -110.375 -73.3667 77.3354 
-110.571 -74.6304 78.6667 -110.711 -75.9142 79.8011 -110.733 -77.0473 81.0349 
-112.189 -70.2815 71.4197 -113.156 -70.661 72.3298 -112.078 -70.8738 72.873 
-113.842 -71.6118 73.2032 -112.943 -71.536 73.7918 -111.977 -71.8064 74.2636 
-114.508 -72.6811 74.1808 -113.758 -72.4843 74.8334 -112.85 -72.3952 75.4591 
-111.943 -72.5766 76.1278 -114.963 -73.6498 75.3475 -114.42 -73.4586 76.1039 
-113.852 -73.1391 76.8856 -112.938 -73.0412 77.6382 -112.029 -73.3771 78.1617 
-115.287 -74.902 76.7544 -114.764 -74.6436 77.4503 -114.531 -74.2327 78.2066 
-113.98 -73.8344 79.0256 -112.995 -73.9685 79.5309 -112.111 -74.5409 79.6057 
-116.028 -76.3981 78.2175 -115.399 -76.1311 78.7635 -114.922 -75.7616 79.2666 
-114.589 -75.2358 79.9286 -113.847 -75.0209 80.5488 -112.861 -75.3487 80.7354 
[...]
POINT_DATA 1002
FIELD FieldData 2
Theta 1 1002 float
2.58802 2.58802 0.553574 0.553574 2.12437 1.01722 2.12437 1.01722 1.5708 
1.5708 1.5708 1.5708 2.68241 2.78649 2.89924 3.01861 3.14159 3.01861 
2.89924 2.78649 2.68241 2.61035 2.61791 2.60515 2.56958 2.51327 2.44184 
2.36202 2.27983 2.1997 2.61035 2.61791 2.60515 2.56958 2.51327 2.44184 
2.36202 2.27983 2.1997 2.50947 2.41899 2.31794 2.20864 2.0944 1.97902 
1.86631 1.75944 1.66056 2.50947 2.41899 2.31794 2.20864 2.0944 1.97902 
1.86631 1.75944 1.66056 2.61035 2.61791 2.60515 2.56958 2.51327 2.44184 
2.36202 2.27983 2.1997 2.61035 2.61791 2.60515 2.56958 2.51327 2.44184 
2.36202 2.27983 2.1997 2.50947 2.41899 2.31794 2.20864 2.0944 1.97902 
1.86631 1.75944 1.66056 2.50947 2.41899 2.31794 2.20864 2.0944 1.97902 
1.86631 1.75944 1.66056 0.459179 0.355101 0.242354 0.122983 0 0.122983 
0.242354 0.355101 0.459179 0.531246 0.523681 0.536438 0.57201 0.628319 0.699757 
0.779574 0.86176 0.941896 0.531246 0.523681 0.536438 0.57201 0.628319 0.699757 
0.779574 0.86176 0.941896 0.632123 0.7226 0.823657 0.932948 1.0472 1.16257 
1.27528 1.38216 1.48103 0.632123 0.7226 0.823657 0.932948 1.0472 1.16257 
1.27528 1.38216 1.48103 0.531246 0.523681 0.536438 0.57201 0.628319 0.699757 
0.779574 0.86176 0.941896 0.531246 0.523681 0.536438 0.57201 0.628319 0.699757 
0.779574 0.86176 0.941896 0.632123 0.7226 0.823657 0.932948 1.0472 1.16257 
1.27528 1.38216 1.48103 0.632123 0.7226 0.823657 0.932948 1.0472 1.16257 
1.27528 1.38216 1.48103 2.02998 1.9259 1.81315 1.69378 1.5708 1.44781 
1.32844 1.2157 1.11162 2.0928 2.05283 2.00422 1.94767 1.88496 1.81867 
1.75177 1.68695 1.62623 2.0928 2.05283 2.00422 1.94767 1.88496 1.81867 
1.75177 1.68695 1.62623 1.0488 1.08876 1.13737 1.19392 1.25664 1.32292 
1.38982 1.45464 1.51537 1.0488 1.08876 1.13737 1.19392 1.25664 1.32292 
1.38982 1.45464 1.51537 2.02998 1.9259 1.81315 1.69378 1.5708 1.44781 
1.32844 1.2157 1.11162 2.0928 2.05283 2.00422 1.94767 1.88496 1.81867 
1.75177 1.68695 1.62623 2.0928 2.05283 2.00422 1.94767 1.88496 1.81867 
1.75177 1.68695 1.62623 1.0488 1.08876 1.13737 1.19392 1.25664 1.32292 
1.38982 1.45464 1.51537 1.0488 1.08876 1.13737 1.19392 1.25664 1.32292 
1.38982 1.45464 1.51537 1.5708 1.5708 1.5708 1.5708 1.5708 1.5708 
1.5708 1.5708 1.5708 1.5708 1.5708 1.5708 1.5708 1.5708 1.5708 
1.5708 1.5708 1.5708 2.70908 2.71362 2.81592 2.68886 2.81002 2.92597 
2.6349 2.76254 2.89233 3.01997 2.55881 2.68262 2.80854 2.92834 3.01997 
2.47007 2.58462 2.70048 2.80854 2.89233 2.92597 2.37702 2.48017 2.58462 
2.68262 2.76254 2.81002 2.81592 2.28567 2.37702 2.47007 2.55881 2.6349 
2.68886 2.71362 2.70908 2.52097 2.4195 2.51718 2.30791 2.40503 2.49426 
2.18928 2.28408 2.3734 2.45144 2.06758 2.15805 2.24572 2.32523 2.39165 
1.94707 2.03138 2.11543 2.19453 2.26401 2.32035 1.83164 1.90847 1.98711 
2.06376 2.13422 2.1949 2.24359 1.72413 1.79288 1.86489 1.93728 2.00658 
2.06938 2.12312 2.16654 1.5708 1.50988 1.63171 1.44492 1.5708 1.69667 
1.37826 1.5059 1.63569 1.76333 1.31281 1.43962 1.5708 1.70197 1.82878 
1.25155 1.37501 1.50478 1.63681 1.76659 1.89004 1.19686 1.31493 1.44074 
1.5708 1.70086 1.82666 1.94473 1.15011 1.26149 1.38136 1.50697 1.63462 
1.76024 1.88011 1.99148 1.99148 1.88011 1.94473 1.76024 1.82666 1.89004 
1.63462 1.70086 1.76659 1.82878 1.50697 1.5708 1.63681 1.70197 1.76333 
1.38136 1.44074 1.50478 1.5708 1.63569 1.69667 1.26149 1.31493 1.37501 
1.43962 1.5059 1.5708 1.63171 1.15011 1.19686 1.25155 1.31281 1.37826 
1.44492 1.50988 1.5708 2.16654 2.12312 2.24359 2.06938 2.1949 2.32035 
2.00658 2.13422 2.26401 2.39165 1.93728 2.06376 2.19453 2.32523 2.45144 
1.86489 1.98711 2.11543 2.24572 2.3734 2.49426 1.79288 1.90847 2.03138 
2.15805 2.28408 2.40503 2.51718 1.72413 1.83164 1.94707 2.06758 2.18928 
2.30791 2.4195 2.52097 1.66533 1.66946 1.76911 1.67254 1.777 1.88041 
1.67418 1.78222 1.89102 1.99634 1.67418 1.78405 1.89674 2.00785 2.11299 
1.67254 1.78222 1.89674 2.01191 2.12307 2.22608 1.66946 1.777 1.89102 
2.00785 2.12307 2.23222 2.33166 1.66533 1.76911 1.88041 1.99634 2.11299 
2.22608 2.33166 2.42672 1.47626 1.37249 1.47213 1.26118 1.36459 1.46906 
1.14526 1.25058 1.35938 1.46741 1.0286 1.13374 1.24485 1.35755 1.46741 
0.915514 1.01852 1.12969 1.24485 1.35938 1.46906 0.809937 0.909371 1.01852 
1.13374 1.25058 1.36459 1.47213 0.714871 0.809937 0.915514 1.0286 1.14526 
1.26118 1.37249 1.47626 0.975055 0.898002 1.01847 0.821245 0.946693 1.07221 
0.749941 0.877585 1.00737 1.13501 0.690152 0.816367 0.94706 1.07784 1.20431 
0.647337 0.768195 0.895868 1.02616 1.15448 1.2767 0.624416 0.736561 0.857515 
0.983547 1.11021 1.23313 1.34871 0.620619 0.722093 0.833684 0.952313 1.07402 
1.19452 1.30996 1.41746 0.855925 0.764569 0.764569 0.671524 0.661425 0.671524 
0.582786 0.556971 0.556971 0.582786 0.506696 0.458968 0.441109 0.458968 0.506696 
0.45273 0.379052 0.333054 0.333054 0.379052 0.45273 0.427969 0.331576 0.249267 
0.21325 0.249267 0.331576 0.427969 0.432512 0.325669 0.215619 0.121622 0.121622 
0.215619 0.325669 0.432512 0.432512 0.427969 0.325669 0.45273 0.331576 0.215619 
0.506696 0.379052 0.249267 0.121622 0.582786 0.458968 0.333054 0.21325 0.121622 
0.671524 0.556971 0.441109 0.333054 0.249267 0.215619 0.764569 0.661425 0.556971 
0.458968 0.379052 0.331576 0.325669 0.855925 0.764569 0.671524 0.582786 0.506696 
0.45273 0.427969 0.432512 0.975055 1.01847 0.898002 1.07221 0.946693 0.821245 
1.13501 1.00737 0.877585 0.749941 1.20431 1.07784 0.94706 0.816367 0.690152 
1.2767 1.15448 1.02616 0.895868 0.768195 0.647337 1.34871 1.23313 1.11021 
0.983547 0.857515 0.736561 0.624416 1.41746 1.30996 1.19452 1.07402 0.952313 
0.833684 0.722093 0.620619 1.15011 1.26149 1.19686 1.38136 1.31493 1.25155 
1.50697 1.44074 1.37501 1.31281 1.63462 1.5708 1.50478 1.43962 1.37826 
1.76024 1.70086 1.63681 1.5708 1.5059 1.44492 1.88011 1.82666 1.76659 
1.70197 1.63569 1.5708 1.50988 1.99148 1.94473 1.89004 1.82878 1.76333 
1.69667 1.63171 1.5708 1.15011 1.19686 1.26149 1.25155 1.31493 1.38136 
1.31281 1.37501 1.44074 1.50697 1.37826 1.43962 1.50478 1.5708 1.63462 
1.44492 1.5059 1.5708 1.63681 1.70086 1.76024 1.50988 1.5708 1.63569 
1.70197 1.76659 1.82666 1.88011 1.5708 1.63171 1.69667 1.76333 1.82878 
1.89004 1.94473 1.99148 1.72413 1.83164 1.79288 1.94707 1.90847 1.86489 
2.06758 2.03138 1.98711 1.93728 2.18928 2.15805 2.11543 2.06376 2.00658 
2.30791 2.28408 2.24572 2.19453 2.13422 2.06938 2.4195 2.40503 2.3734 
2.32523 2.26401 2.1949 2.12312 2.52097 2.51718 2.49426 2.45144 2.39165 
2.32035 2.24359 2.16654 2.70908 2.81592 2.71362 2.92597 2.81002 2.68886 
3.01997 2.89233 2.76254 2.6349 3.01997 2.92834 2.80854 2.68262 2.55881 
2.92597 2.89233 2.80854 2.70048 2.58462 2.47007 2.81592 2.81002 2.76254 
2.68262 2.58462 2.48017 2.37702 2.70908 2.71362 2.68886 2.6349 2.55881 
2.47007 2.37702 2.28567 2.16654 2.24359 2.12312 2.32035 2.1949 2.06938 
2.39165 2.26401 2.13422 2.00658 2.45144 2.32523 2.19453 2.06376 1.93728 
2.49426 2.3734 2.24572 2.11543 1.98711 1.86489 2.51718 2.40503 2.28408 
2.15805 2.03138 1.90847 1.79288 2.52097 2.4195 2.30791 2.18928 2.06758 
1.94707 1.83164 1.72413 1.66533 1.76911 1.66946 1.88041 1.777 1.67254 
1.99634 1.89102 1.78222 1.67418 2.11299 2.00785 1.89674 1.78405 1.67418 
2.22608 2.12307 2.01191 1.89674 1.78222 1.67254 2.33166 2.23222 2.12307 
2.00785 1.89102 1.777 1.66946 2.42672 2.33166 2.22608 2.11299 1.99634 
1.88041 1.76911 1.66533 1.47626 1.47213 1.37249 1.46906 1.36459 1.26118 
1.46741 1.35938 1.25058 1.14526 1.46741 1.35755 1.24485 1.13374 1.0286 
1.46906 1.35938 1.24485 1.12969 1.01852 0.915514 1.47213 1.36459 1.25058 
1.13374 1.01852 0.909371 0.809937 1.47626 1.37249 1.26118 1.14526 1.0286 
0.915514 0.809937 0.714871 1.41746 1.30996 1.34871 1.19452 1.23313 1.2767 
1.07402 1.11021 1.15448 1.20431 0.952313 0.983547 1.02616 1.07784 1.13501 
0.833684 0.857515 0.895868 0.94706 1.00737 1.07221 0.722093 0.736561 0.768195 
0.816367 0.877585 0.946693 1.01847 0.620619 0.624416 0.647337 0.690152 0.749941 
0.821245 0.898002 0.975055 0.975055 0.898002 1.01847 0.821245 0.946693 1.07221 
0.749941 0.877585 1.00737 1.13501 0.690152 0.816367 0.94706 1.07784 1.20431 
0.647337 0.768195 0.895868 1.02616 1.15448 1.2767 0.624416 0.736561 0.857515 
0.983547 1.11021 1.23313 1.34871 0.620619 0.722093 0.833684 0.952313 1.07402 
1.19452 1.30996 1.41746 
Phi 1 1002 float
6.28319 3.14159 6.28319 3.14159 4.71239 4.71239 1.5708 1.5708 3.69517 
5.72961 2.58802 0.553574 6.28319 6.28319 6.28319 6.28319 3.14159 3.14159 
3.14159 3.14159 3.14159 6.1053 5.8988 5.67687 5.45995 5.26596 5.10322 
4.97131 4.86569 4.78095 0.177881 0.384387 0.606312 0.823235 1.01722 1.17997 
1.31187 1.4175 1.50223 6.18928 6.10703 6.03531 5.97283 5.91832 5.87061 
5.82869 5.79168 5.75886 0.0939024 0.176153 0.247873 0.310351 0.364864 0.412573 
0.454497 0.491504 0.524326 3.31947 3.52598 3.7479 3.96483 4.15881 4.32156 
4.45346 4.55909 4.64383 2.96371 2.75721 2.53528 2.31836 2.12437 1.96162 
1.82972 1.72409 1.63936 3.2355 3.31775 3.38947 3.45194 3.50646 3.55417 
3.59609 3.6331 3.66592 3.04769 2.96544 2.89372 2.83124 2.77673 2.72902 
2.6871 2.65009 2.61727 6.28319 6.28319 6.28319 6.28319 3.14159 3.14159 
3.14159 3.14159 3.14159 6.1053 5.8988 5.67687 5.45995 5.26596 5.10322 
4.97131 4.86569 4.78095 0.177881 0.384387 0.606312 0.823235 1.01722 1.17997 
1.31187 1.4175 1.50223 6.18928 6.10703 6.03531 5.97283 5.91832 5.87061 
5.82869 5.79168 5.75886 0.0939024 0.176153 0.247873 0.310351 0.364864 0.412573 
0.454497 0.491504 0.524326 3.31947 3.52598 3.7479 3.96483 4.15881 4.32156 
4.45346 4.55909 4.64383 2.96371 2.75721 2.53528 2.31836 2.12437 1.96162 
1.82972 1.72409 1.63936 3.2355 3.31775 3.38947 3.45194 3.50646 3.55417 
3.59609 3.6331 3.66592 3.04769 2.96544 2.89372 2.83124 2.77673 2.72902 
2.6871 2.65009 2.61727 4.71239 4.71239 4.71239 4.71239 4.71239 4.71239 
4.71239 4.71239 4.71239 4.60879 4.49914 4.3857 4.27128 4.15881 4.05096 
3.94976 3.85646 3.77161 4.81599 4.92564 5.03907 5.1535 5.26596 5.37381 
5.47502 5.56831 5.65317 4.60879 4.49914 4.3857 4.27128 4.15881 4.05096 
3.94976 3.85646 3.77161 4.81599 4.92564 5.03907 5.1535 5.26596 5.37381 
5.47502 5.56831 5.65317 1.5708 1.5708 1.5708 1.5708 1.5708 1.5708 
1.5708 1.5708 1.5708 1.6744 1.78405 1.89748 2.01191 2.12437 2.23222 
2.33343 2.42672 2.51157 1.4672 1.35755 1.24411 1.12969 1.01722 0.909371 
0.808166 0.714871 0.63002 1.6744 1.78405 1.89748 2.01191 2.12437 2.23222 
2.33343 2.42672 2.51157 1.4672 1.35755 1.24411 1.12969 1.01722 0.909371 
0.808166 0.714871 0.63002 3.60077 3.49669 3.38395 3.26458 3.14159 3.01861 
2.89924 2.78649 2.68241 5.82401 5.92808 6.04083 6.1602 6.28319 0.122983 
0.242354 0.355101 0.459179 6.05603 5.78856 5.97021 5.51259 5.60297 5.78856 
5.26596 5.26596 5.26596 5.26596 5.06749 5.0121 4.91556 4.71239 4.15881 
4.91556 4.83537 4.71239 4.50922 4.15881 3.63622 4.80045 4.71239 4.58941 
4.41268 4.15881 3.82181 3.45456 4.71239 4.62433 4.50922 4.35729 4.15881 
3.91219 3.63622 3.36875 6.01742 5.94343 5.82633 5.88092 5.76745 5.62798 
5.8278 5.71897 5.58911 5.43724 5.78235 5.67854 5.55757 5.41926 5.26596 
5.74316 5.64441 5.5315 5.40467 5.26596 5.11955 5.70914 5.61528 5.50962 
5.3926 5.26596 5.13292 4.99789 5.67937 5.59016 5.49102 5.38246 5.26596 
5.14407 5.02016 4.89798 5.56831 5.47502 5.47502 5.37381 5.37381 5.37381 
5.26596 5.26596 5.26596 5.26596 5.1535 5.1535 5.1535 5.1535 5.1535 
5.03907 5.03907 5.03907 5.03907 5.03907 5.03907 4.92564 4.92564 4.92564 
4.92564 4.92564 4.92564 4.92564 4.81599 4.81599 4.81599 4.81599 4.81599 
4.81599 4.81599 4.81599 4.60879 4.60879 4.49914 4.60879 4.49914 4.3857 
4.60879 4.49914 4.3857 4.27128 4.60879 4.49914 4.3857 4.27128 4.15881 
4.60879 4.49914 4.3857 4.27128 4.15881 4.05096 4.60879 4.49914 4.3857 
4.27128 4.15881 4.05096 3.94976 4.60879 4.49914 4.3857 4.27128 4.15881 
4.05096 3.94976 3.85646 4.5268 4.40462 4.42689 4.28071 4.29185 4.30523 
4.15881 4.15881 4.15881 4.15881 4.04232 4.03217 4.02011 4.00552 3.98753 
3.93376 3.91515 3.89328 3.86721 3.83566 3.7968 3.83461 3.8095 3.78037 
3.74624 3.70581 3.65733 3.59845 3.7454 3.71564 3.68161 3.64243 3.59698 
3.54386 3.48135 3.40735 3.56428 3.45246 3.52338 3.33203 3.40312 3.47739 
3.20576 3.27463 3.34802 3.42551 3.07742 3.14159 3.21128 3.28647 3.36688 
2.95116 3.00855 3.0719 3.14159 3.21784 3.3006 2.83072 2.88006 2.93517 
2.99672 3.06535 3.14159 3.22575 2.7189 2.7598 2.8058 2.85768 2.9163 
2.98259 3.05743 3.14159 3.56428 3.52338 3.45246 3.47739 3.40312 3.33203 
3.42551 3.34802 3.27463 3.20576 3.36688 3.28647 3.21128 3.14159 3.07742 
3.3006 3.21784 3.14159 3.0719 3.00855 2.95116 3.22575 3.14159 3.06535 
2.99672 2.93517 2.88006 2.83072 3.14159 3.05743 2.98259 2.9163 2.85768 
2.8058 2.7598 2.7189 4.5268 4.42689 4.40462 4.30523 4.29185 4.28071 
4.15881 4.15881 4.15881 4.15881 3.98753 4.00552 4.02011 4.03217 4.04232 
3.7968 3.83566 3.86721 3.89328 3.91515 3.93376 3.59845 3.65733 3.70581 
3.74624 3.78037 3.8095 3.83461 3.40735 3.48135 3.54386 3.59698 3.64243 
3.68161 3.71564 3.7454 4.71239 4.80045 4.62433 4.91556 4.71239 4.50922 
5.06749 4.83537 4.58941 4.35729 5.26596 5.0121 4.71239 4.41268 4.15881 
5.51259 5.26596 4.91556 4.50922 4.15881 3.91219 5.78856 5.60297 5.26596 
4.71239 4.15881 3.82181 3.63622 6.05603 5.97021 5.78856 5.26596 4.15881 
3.63622 3.45456 3.36875 0.227158 0.494626 0.312971 0.770593 0.680215 0.494626 
1.01722 1.01722 1.01722 1.01722 1.2157 1.27109 1.36763 1.5708 2.12437 
1.36763 1.44781 1.5708 1.77397 2.12437 2.64697 1.48273 1.5708 1.69378 
1.8705 2.12437 2.46138 2.82862 1.5708 1.65886 1.77397 1.9259 2.12437 
2.371 2.64697 2.91443 1.75639 1.87857 1.8563 2.00248 1.99133 1.97796 
2.12437 2.12437 2.12437 2.12437 2.24087 2.25101 2.26308 2.27767 2.29565 
2.34943 2.36803 2.38991 2.41597 2.44752 2.48639 2.44857 2.47368 2.50281 
2.53694 2.57738 2.62586 2.68474 2.53778 2.56754 2.60157 2.64076 2.68621 
2.73933 2.80184 2.87583 1.6744 1.6744 1.78405 1.6744 1.78405 1.89748 
1.6744 1.78405 1.89748 2.01191 1.6744 1.78405 1.89748 2.01191 2.12437 
1.6744 1.78405 1.89748 2.01191 2.12437 2.23222 1.6744 1.78405 1.89748 
2.01191 2.12437 2.23222 2.33343 1.6744 1.78405 1.89748 2.01191 2.12437 
2.23222 2.33343 2.42672 1.4672 1.35755 1.4672 1.24411 1.35755 1.4672 
1.12969 1.24411 1.35755 1.4672 1.01722 1.12969 1.24411 1.35755 1.4672 
0.909371 1.01722 1.12969 1.24411 1.35755 1.4672 0.808166 0.909371 1.01722 
1.12969 1.24411 1.35755 1.4672 0.714871 0.808166 0.909371 1.01722 1.12969 
1.24411 1.35755 1.4672 0.603812 0.57405 0.693022 0.540021 0.667908 0.792164 
0.500837 0.638778 0.773562 0.900726 0.455383 0.604649 0.751687 0.890581 1.01722 
0.402264 0.564217 0.725619 0.878514 1.01722 1.13912 0.339753 0.515737 0.694072 
0.863926 1.01722 1.15026 1.26302 0.265762 0.456853 0.655207 0.845941 1.01722 
1.16363 1.28529 1.38521 0.227158 0.312971 0.494626 0.494626 0.680215 0.770593 
1.01722 1.01722 1.01722 1.01722 2.12437 1.5708 1.36763 1.27109 1.2157 
2.64697 2.12437 1.77397 1.5708 1.44781 1.36763 2.82862 2.46138 2.12437 
1.8705 1.69378 1.5708 1.48273 2.91443 2.64697 2.371 2.12437 1.9259 
1.77397 1.65886 1.5708 1.75639 1.8563 1.87857 1.97796 1.99133 2.00248 
2.12437 2.12437 2.12437 2.12437 2.29565 2.27767 2.26308 2.25101 2.24087 
2.48639 2.44752 2.41597 2.38991 2.36803 2.34943 2.68474 2.62586 2.57738 
2.53694 2.50281 2.47368 2.44857 2.87583 2.80184 2.73933 2.68621 2.64076 
2.60157 2.56754 2.53778 5.86049 5.90139 5.97231 5.94739 6.02165 6.09275 
5.99927 6.07676 6.15015 6.21902 6.0579 6.13831 6.2135 0 0.0641696 
6.12418 6.20694 6.28319 0.069689 0.13304 0.190437 6.19903 0 0.0762451 
0.144876 0.206423 0.261531 0.310872 0 0.0841597 0.159004 0.225289 0.283913 
0.335793 0.381792 0.422692 5.86049 5.97231 5.90139 6.09275 6.02165 5.94739 
6.21902 6.15015 6.07676 5.99927 0.0641696 0 6.2135 6.13831 6.0579 
0.190437 0.13304 0.069689 6.28319 6.20694 6.12418 0.310872 0.261531 0.206423 
0.144876 0.0762451 6.28319 6.19903 0.422692 0.381792 0.335793 0.283913 0.225289 
0.159004 0.0841597 0 5.67937 5.70914 5.59016 5.74316 5.61528 5.49102 
5.78235 5.64441 5.50962 5.38246 5.8278 5.67854 5.5315 5.3926 5.26596 
5.88092 5.71897 5.55757 5.40467 5.26596 5.14407 5.94343 5.76745 5.58911 
5.41926 5.26596 5.13292 5.02016 6.01742 5.82633 5.62798 5.43724 5.26596 
5.11955 4.99789 4.89798 1.38521 1.28529 1.26302 1.16363 1.15026 1.13912 
1.01722 1.01722 1.01722 1.01722 0.845941 0.863926 0.878514 0.890581 0.900726 
0.655207 0.694072 0.725619 0.751687 0.773562 0.792164 0.456853 0.515737 0.564217 
0.604649 0.638778 0.667908 0.693022 0.265762 0.339753 0.402264 0.455383 0.500837 
0.540021 0.57405 0.603812 
