# vtk DataFile Version 4.0
vtk output
ASCII
DATASET POLYDATA
POINTS 1002 float
-105.066 -80.6889 75.7044 -105.04 -80.0527 74.5274 -105.425 -79.7623 75.5646 
-105.468 -80.4525 76.8788 -105.765 -79.482 76.8223 -105.158 -81.3428 77.0464 
-105.963 -80.3662 78.2347 -106.309 -79.4138 78.1111 -105.645 -81.2589 78.3932 
-105.375 -82.1918 78.7092 -106.709 -80.5196 79.4555 -107.18 -79.6258 79.1219 
-106.258 -81.4034 79.8207 -105.862 -82.3246 80.264 -105.67 -83.4512 80.6675 
-107.616 -80.8111 80.4531 -108.074 -79.9507 80.0671 -107.054 -81.692 81.0162 
-106.512 -82.6345 81.6286 -106.188 -83.7439 82.1388 -106.171 -85.0327 82.4511 
-108.37 -81.091 81.6883 -108.705 -80.1973 81.4083 -107.893 -82.0244 82.1607 
-107.377 -83.0521 82.7153 -107.057 -84.2022 83.1668 -106.974 -85.4721 83.5671 
-107.071 -86.8091 83.9324 -108.931 -81.3581 83.2165 -109.266 -80.4509 82.8603 
-108.572 -82.421 83.5619 -108.2 -83.5759 83.9379 -108.013 -84.8359 84.2327 
-107.974 -86.1766 84.5747 -107.952 -87.5188 85.0888 -107.959 -88.7812 85.5408 
-109.531 -81.768 84.457 -109.952 -80.8911 83.9118 -109.146 -82.9173 84.9132 
-108.796 -84.1751 85.3153 -108.639 -85.4758 85.6654 -108.644 -86.931 86.0177 
-108.583 -88.4128 86.5222 -108.462 -89.6727 87.014 -108.41 -90.6959 87.2126 
-110.197 -82.359 85.2628 -110.629 -81.4576 84.668 -109.776 -83.5062 85.884 
-109.364 -84.7813 86.4689 -109.087 -86.0365 87.0258 -109.018 -87.4561 87.5385 
-108.964 -89.0978 88.0211 -108.817 -90.5398 88.4532 -108.717 -91.5624 88.6402 
-108.763 -92.3754 88.538 -110.794 -82.995 85.9361 -111.169 -82.004 85.3984 
-110.434 -84.1228 86.6111 -110.068 -85.3587 87.313 -109.737 -86.6039 87.9808 
-109.559 -87.9462 88.5945 -109.501 -89.5669 89.0715 -109.412 -91.2001 89.419 
-109.3 -92.4267 89.6493 -109.296 -93.2961 89.6748 -109.43 -94.0907 89.5396 
-105.331 -79.2298 73.9947 -105.701 -78.8406 75.0801 -105.676 -78.3405 73.4832 
-106.058 -77.9071 74.5606 -106.017 -77.3906 73.0261 -106.049 -78.5155 76.3893 
-106.561 -77.0552 74.0665 -106.478 -76.4547 72.5223 -106.579 -77.6683 75.8299 
-106.725 -78.4873 77.6731 -107.294 -76.2842 73.55 -107.347 -75.7922 71.8507 
-107.349 -76.9796 75.2614 -107.439 -77.7203 77.093 -107.697 -78.7476 78.6915 
-108.268 -75.6552 72.9328 -108.542 -75.424 71.1436 -108.137 -76.2524 74.7586 
-108.214 -77.027 76.5611 -108.36 -77.9152 78.2506 -108.523 -79.0596 79.8084 
-109.332 -75.1938 72.2783 -109.54 -74.9326 70.5975 -108.972 -75.5522 74.2091 
-108.871 -76.2629 76.137 -109.022 -77.1307 77.8883 -109.119 -78.1796 79.5453 
-109.155 -79.3521 81.2422 -110.215 -74.7385 71.7504 -110.122 -74.169 70.2667 
-109.985 -75.0932 73.5626 -109.728 -75.6242 75.5972 -109.751 -76.4462 77.523 
-109.868 -77.4544 79.2246 -109.874 -78.6265 80.8961 -109.876 -79.7802 82.5285 
-110.838 -74.173 71.5135 -110.588 -73.4453 70.1759 -110.9 -74.7263 73.0731 
-110.768 -75.2136 74.9614 -110.658 -75.9128 77.0104 -110.654 -76.8576 78.8531 
-110.663 -78.005 80.4795 -110.654 -79.2052 82.0636 -110.643 -80.3195 83.4999 
-111.412 -73.5717 71.5704 -111.216 -72.9979 70.2973 -111.546 -74.2022 72.9476 
-111.556 -74.7864 74.5609 -111.472 -75.4444 76.4971 -111.348 -76.2875 78.4579 
-111.271 -77.3491 80.1434 -111.288 -78.5434 81.6846 -111.312 -79.6891 83.1611 
-111.259 -80.8002 84.4065 -112.111 -72.9561 71.3385 -112.172 -73.4105 72.7263 
-113.001 -72.9197 72.4459 -112.903 -73.3648 73.9233 -113.741 -73.2602 73.4471 
-112.144 -74.0634 74.2092 -113.65 -73.8987 75.022 -114.327 -74.2329 74.3988 
-112.771 -74.1919 75.5757 -112.087 -74.8388 75.9963 -114.382 -75.0147 76.1951 
-114.78 -75.4943 75.5947 -113.618 -74.8715 76.9614 -112.709 -75.1614 77.6245 
-111.974 -75.7037 78.0721 -114.857 -76.2758 77.7369 -115.1 -76.7492 77.228 
-114.453 -75.8836 78.4825 -113.643 -75.812 79.2856 -112.623 -76.1467 79.7787 
-111.826 -76.7237 79.9901 -115.08 -77.7455 79.5225 -115.369 -78.1906 79.0739 
-114.845 -77.2034 80.1242 -114.453 -76.8036 80.861 -113.586 -76.8804 81.3883 
-112.538 -77.3212 81.5949 -111.803 -77.9335 81.6434 -115.382 -79.5083 81.08 
-115.754 -79.7939 80.6329 -114.997 -79.0898 81.5542 -114.732 -78.4883 82.1581 
-114.296 -78.1713 82.7074 -113.442 -78.2684 83.0597 -112.528 -78.6158 83.2422 
-111.87 -79.1561 83.2357 -115.939 -81.0694 82.1887 -116.315 -81.2166 81.668 
-115.389 -81.0103 82.6311 -114.903 -80.6419 83.1198 -114.536 -80.1098 83.6712 
-114.025 -79.7758 84.173 -113.261 -79.6783 84.5852 -112.485 -79.8842 84.755 
-111.844 -80.3541 84.6132 -116.581 -82.2078 83.0193 -116.875 -82.3812 82.3756 
-116.028 -82.346 83.5465 -115.381 -82.3926 83.9762 -114.819 -82.0851 84.4615 
-114.353 -81.6379 84.997 -113.811 -81.2715 85.4906 -113.109 -81.1175 85.8313 
-112.373 -81.3022 85.8582 -111.727 -81.6826 85.6294 -111.451 -83.2765 86.4622 
-112.1 -83.0742 86.6687 -111.904 -84.8609 87.6284 -112.901 -82.9056 86.7664 
-112.71 -84.8916 87.7262 -112.546 -86.5996 88.8846 -113.699 -82.9438 86.6341 
-113.628 -84.9614 87.7036 -113.434 -86.8133 88.9501 -113.22 -88.5272 90.0515 
-114.303 -83.1861 86.2895 -114.352 -85.0901 87.5486 -114.268 -87.046 88.8708 
-114.033 -88.8785 90.0867 -113.899 -91.0645 90.852 -114.812 -83.5018 85.7913 
-114.839 -85.2523 87.1729 -114.796 -87.3036 88.5721 -114.665 -89.3372 89.8534 
-114.598 -91.6257 90.7496 -114.633 -94.2061 91.4508 -115.432 -83.7272 85.2941 
-115.385 -85.385 86.6552 -115.228 -87.5196 88.0216 -115.103 -89.8069 89.3843 
-115.132 -92.2111 90.4627 -115.221 -94.8174 91.3128 -115.241 -97.1674 92.2638 
-116.136 -83.6451 84.8965 -116.062 -85.3396 86.2894 -115.822 -87.55 87.5515 
-115.63 -89.9814 88.8674 -115.654 -92.5061 90.1708 -115.748 -95.1827 91.209 
-115.745 -97.6595 92.1842 -115.685 -99.6852 93.1323 -116.755 -83.3922 84.3725 
-116.677 -85.104 85.92 -116.433 -87.3836 87.2925 -116.253 -89.8146 88.5166 
-116.258 -92.3133 89.8661 -116.312 -95.1255 91.1211 -116.271 -97.9167 92.139 
-116.209 -100.26 93.0319 -116.196 -102.313 93.6611 -117.136 -83.3918 83.5947 
-117.087 -84.9526 85.1745 -116.854 -87.1747 86.7861 -116.72 -89.5775 88.1381 
-116.756 -91.957 89.45 -116.786 -94.7831 90.7982 -116.724 -97.9348 91.9376 
-116.679 -100.714 92.8516 -116.737 -103.04 93.5301 -116.809 -105.218 93.8507 
-111.146 -84.4738 87.1365 -111.689 -86.141 88.4669 -110.89 -85.7322 87.9165 
-112.372 -88.0561 89.7002 -111.556 -87.5955 89.1897 -110.644 -87.1108 88.6224 
-113.091 -90.553 90.6415 -112.285 -90.0281 90.2047 -111.426 -89.4019 89.7371 
-110.432 -88.6332 89.2493 -113.906 -93.7001 91.4346 -113.025 -93.0661 91.1414 
-112.164 -92.325 90.7459 -111.298 -91.3772 90.2993 -110.341 -90.343 89.7607 
-114.691 -96.8406 92.3993 -113.86 -96.212 92.2749 -112.866 -95.3808 91.9642 
-112.023 -94.4284 91.4878 -111.26 -93.2794 90.7745 -110.315 -92.1212 90.0791 
-115.236 -99.5465 93.3559 -114.605 -99.1329 93.3694 -113.686 -98.3736 93.1506 
-112.705 -97.4163 92.7875 -111.978 -96.3214 92.0754 -111.256 -94.9951 91.1054 
-110.249 -93.6134 90.3294 -115.725 -102.311 93.8469 -115.153 -102.13 93.9336 
-114.445 -101.599 93.8256 -113.55 -100.647 93.6011 -112.654 -99.4769 93.2255 
-111.966 -98.1261 92.4386 -111.211 -96.463 91.4184 -110.206 -94.7303 90.5259 
-116.346 -105.457 93.9064 -115.696 -105.453 93.9584 -115.014 -105.089 93.9749 
-114.339 -104.179 93.8576 -113.512 -102.824 93.6689 -112.643 -101.372 93.3439 
-111.954 -99.7347 92.6293 -111.222 -97.7192 91.6101 -110.29 -95.691 90.5608 
-117.16 -108.567 93.8599 -116.531 -108.918 93.8107 -117.295 -111.786 93.6814 
-116.491 -111.859 93.6746 -117.212 -113.924 93.2369 -115.677 -108.725 93.8712 
-116.344 -113.479 93.2087 -117.085 -115.094 92.1758 -115.563 -111.204 93.7509 
-114.963 -107.896 93.9 -116.239 -114.432 91.9507 -116.823 -116.175 90.6551 
-115.53 -112.582 93.0539 -114.97 -109.847 93.5839 -114.358 -106.355 93.6945 
-116.023 -115.21 90.5512 -116.287 -116.847 89.5048 -115.557 -113.462 91.7358 
-115.042 -111.021 92.6701 -114.397 -107.826 93.1617 -113.495 -104.538 93.4515 
-115.585 -115.063 89.8632 -115.66 -116.217 88.954 -115.372 -113.615 90.8124 
-114.972 -111.619 91.6827 -114.356 -108.794 92.3412 -113.481 -105.799 92.9056 
-112.606 -102.817 93.1416 -114.928 -114.009 89.507 -114.993 -114.65 88.5764 
-114.819 -112.878 90.418 -114.566 -111.387 91.1396 -114.116 -109.203 91.6805 
-113.449 -106.595 92.2284 -112.676 -103.844 92.6369 -111.94 -100.764 92.4106 
-114.065 -112.769 89.076 -114.21 -112.893 88.3179 -113.954 -111.988 89.9423 
-113.852 -110.753 90.6415 -113.641 -109.005 91.1314 -113.243 -106.776 91.6145 
-112.685 -104.268 92.0316 -111.985 -101.376 91.9507 -111.149 -98.3004 91.3115 
-113.218 -111.307 88.8059 -113.459 -111.007 88.3388 -113.05 -110.981 89.4748 
-113.038 -110.007 90.1119 -113.032 -108.451 90.5912 -112.801 -106.427 91.0608 
-112.356 -104.115 91.5073 -111.772 -101.511 91.5121 -111.018 -98.6706 90.9153 
-110.167 -96.0631 90.1314 -117.334 -106.71 93.7956 -117.659 -110.058 93.7383 
-117.643 -107.726 93.4341 -117.843 -110.672 93.0959 -117.761 -108.115 92.5979 
-117.708 -113.024 93.2967 -117.853 -110.598 91.9078 -117.745 -108.093 91.6757 
-117.79 -113.426 92.1996 -117.645 -115.09 92.3261 -117.69 -110.205 91.0154 
-117.488 -107.509 91.0835 -117.713 -113.176 90.8603 -117.796 -115.778 90.8657 
-117.564 -116.642 90.8458 -117.229 -109.127 90.7181 -117.045 -105.92 90.4981 
-117.41 -112.107 90.2944 -117.747 -115.256 89.7107 -117.789 -117.503 89.4483 
-117.135 -117.866 89.4083 -116.735 -107.1 90.2729 -116.649 -103.614 89.6622 
-116.898 -110.097 90.1932 -117.412 -113.087 89.4079 -117.802 -116.16 88.618 
-117.328 -117.998 88.3522 -116.387 -117.796 88.5154 -116.402 -104.635 89.5302 
-116.287 -101.282 88.8282 -116.483 -107.688 89.7909 -116.84 -110.36 89.3698 
-117.4 -113.178 88.5179 -117.342 -115.697 87.8639 -116.524 -116.745 87.7261 
-115.659 -116.116 88.0313 -116.042 -102.108 88.7745 -115.86 -99.1389 87.9928 
-116.162 -105.14 89.235 -116.271 -107.831 89.2347 -116.57 -110.314 88.7994 
-116.778 -112.568 88.1525 -116.412 -114.028 87.6277 -115.659 -114.357 87.5086 
-114.915 -113.816 87.8118 -115.579 -99.5899 87.8497 -115.422 -97.1474 86.9449 
-115.762 -102.331 88.5452 -115.812 -105.03 88.9185 -115.775 -107.525 88.9807 
[...]
CELL_DATA 2000
SCALARS Distance double
LOOKUP_TABLE default
151.164 151.858 151.722 152.185 152.754 152.533 153.079 152.867 153.459 
153.897 153.595 154.217 153.923 154.587 154.336 155.115 155.155 154.835 
155.486 155.17 155.865 155.577 156.37 156.159 157.083 156.426 156.117 
156.791 156.479 157.202 156.904 157.715 157.469 158.408 158.234 159.286 
157.704 157.405 158.126 157.822 158.601 158.294 159.17 158.889 159.895 
159.66 160.781 160.582 161.736 158.964 158.688 159.439 159.176 159.996 
159.726 160.639 160.39 161.441 161.226 162.387 162.176 163.336 163.094 
164.139 160.153 159.919 160.668 160.464 161.297 161.092 161.991 161.809 
162.824 162.706 163.834 163.73 164.842 164.659 165.63 165.351 166.176 
161.24 161.055 161.805 161.653 162.499 162.347 163.246 163.094 164.068 
163.98 165.058 165.031 166.119 166.036 166.998 166.776 167.598 167.277 
168.053 150.688 150.19 150.721 151.332 149.711 150.223 150.819 151.398 
152.144 149.312 149.793 150.432 150.946 151.719 152.337 153.25 149.124 
149.51 150.252 150.693 151.512 152.025 152.948 153.555 154.522 149.249 
149.482 150.218 150.602 151.44 151.909 152.802 153.329 154.266 154.852 
155.794 149.509 149.694 150.31 150.602 151.371 151.824 152.699 153.208 
154.115 154.646 155.581 156.144 157.074 149.602 149.896 150.502 150.731 
151.435 151.783 152.663 153.126 154.075 154.555 155.513 156.008 156.963 
157.467 158.372 149.569 149.937 150.661 150.931 151.658 151.932 152.792 
153.174 154.139 154.577 155.548 156.004 156.963 157.427 158.336 158.777 
159.604 149.703 149.992 150.786 151.087 151.848 152.148 152.959 153.328 
154.22 154.648 155.555 156.016 156.924 157.414 158.304 158.763 159.574 
159.975 160.709 150.18 151.288 150.864 151.181 152.434 151.958 152.212 
151.859 152.225 153.724 153.161 153.414 152.942 153.315 152.952 153.385 
155.225 154.602 154.945 154.321 154.72 154.186 154.649 154.211 154.676 
156.841 156.22 156.674 156.022 156.48 155.802 156.236 155.617 156.055 
155.552 156.002 158.569 157.917 158.405 157.783 158.29 157.639 158.079 
157.354 157.725 157.046 157.459 156.918 157.378 160.399 159.72 160.19 
159.528 160.007 159.392 159.854 159.192 159.564 158.821 159.171 158.489 
158.914 158.345 158.781 162.125 161.525 161.973 161.318 161.734 161.086 
161.503 160.887 161.275 160.614 160.94 160.24 160.575 159.931 160.297 
159.716 160.05 163.587 163.118 163.552 163.008 163.398 162.779 163.135 
162.507 162.865 162.249 162.586 161.938 162.234 161.571 161.856 161.225 
161.502 160.908 161.166 161.986 162.375 162.602 163.531 162.805 163.047 
164.056 164.313 165.405 163.233 163.519 164.609 164.904 166.073 166.317 
167.468 163.581 163.932 165.054 165.445 166.662 166.994 168.177 168.407 
169.586 163.856 164.236 165.33 165.797 167.006 167.478 168.682 169.049 
170.25 170.559 171.874 164.142 164.506 165.568 166.013 167.176 167.702 
168.93 169.438 170.7 171.146 172.497 172.916 174.321 164.394 164.783 
165.831 166.252 167.378 167.858 169.088 169.634 170.975 171.534 172.95 
173.468 174.886 175.32 176.63 164.497 164.949 165.965 166.458 167.568 
168.069 169.264 169.803 171.133 171.759 173.215 173.848 175.302 175.824 
177.172 177.544 178.762 164.464 164.939 165.879 166.453 167.524 168.148 
169.304 169.92 171.161 171.834 173.226 173.982 175.455 176.143 177.548 
178.055 179.35 179.685 180.891 162.049 163.636 162.769 162.709 165.521 
164.533 164.506 163.549 163.491 167.578 166.543 166.549 165.5 165.463 
164.411 164.317 169.769 168.699 168.783 167.667 167.7 166.545 166.489 
165.313 165.216 172.212 171.079 171.295 170.067 170.198 168.946 168.987 
167.685 167.619 166.325 166.255 174.763 173.697 174.037 172.768 172.94 
171.598 171.688 170.329 170.31 168.901 168.783 167.43 167.322 177.071 
176.204 176.622 175.521 175.719 174.407 174.47 173.094 173.095 171.67 
171.541 170.062 169.826 168.439 168.199 179.183 178.406 178.889 177.972 
178.269 177.116 177.214 175.88 175.879 174.469 174.382 172.879 172.625 
171.052 170.675 169.211 168.832 181.332 180.547 181.09 180.207 180.608 
179.586 179.791 178.571 178.579 177.221 177.121 175.691 175.487 173.924 
173.544 171.869 171.378 169.806 169.348 182.771 184.823 183.422 182.526 
186.346 185.302 184.39 183.014 181.978 186.938 186.41 185.607 184.631 
183.566 182.29 181.123 186.859 186.628 185.941 185.449 184.499 183.592 
182.375 181.183 179.858 186.511 186.399 185.758 185.532 184.713 184.173 
183.008 182.118 180.748 179.68 178.301 185.776 185.899 185.255 185.226 
184.462 184.176 183.09 182.462 181.145 180.321 178.97 178.017 176.633 
184.495 184.909 184.284 184.507 183.754 183.738 182.731 182.368 181.143 
180.546 179.276 178.523 177.144 176.206 174.681 182.904 183.474 182.933 
183.33 182.629 182.831 181.922 181.838 180.722 180.389 179.179 178.662 
177.296 176.531 174.921 174.009 172.382 181.282 181.887 181.444 181.92 
181.315 181.627 180.829 180.923 179.91 179.793 178.624 178.342 176.992 
176.462 174.846 174.069 172.364 171.589 170.127 183.203 184.17 184.304 
185.272 184.385 184.935 185.971 186.175 186.77 183.975 184.739 185.731 
186.414 187.133 187.284 187.389 183.288 184.11 184.978 185.837 186.7 
187.312 187.701 187.626 187.407 182.159 183.224 183.989 184.923 185.742 
186.661 187.336 187.765 187.827 187.544 187.108 180.412 181.785 182.525 
183.666 184.284 185.427 186.067 187.059 187.325 187.665 187.289 187.015 
186.295 178.407 179.864 180.643 181.93 182.45 183.663 184.12 185.38 
185.655 186.608 186.324 186.664 185.875 185.78 184.847 176.42 177.84 
178.621 179.966 180.515 181.711 182.09 183.285 183.522 184.631 184.456 
185.196 184.511 184.851 183.922 184.014 183.093 174.408 175.782 176.458 
177.876 178.414 179.707 180.05 181.237 181.423 182.512 182.409 183.243 
182.724 183.253 182.472 182.803 181.979 182.176 181.383 164.694 165.418 
165.395 166.106 166.081 166.133 166.963 166.959 167.805 166.861 166.873 
167.852 167.891 168.914 168.833 169.708 168.138 167.943 169.073 168.971 
170.165 170.07 171.144 170.863 171.699 169.807 169.542 170.775 170.502 
171.809 171.574 172.841 172.504 173.564 173.039 173.892 171.223 171.191 
172.447 172.297 173.656 173.441 174.865 174.498 175.779 175.179 176.214 
175.45 176.259 172.145 172.358 173.639 173.76 175.181 175.228 176.787 
176.639 178.085 177.591 178.733 177.954 178.804 177.873 178.473 172.867 
173.172 174.55 174.805 176.327 176.583 178.245 178.403 179.928 179.758 
180.912 180.381 181.218 180.422 181.019 180.003 180.372 173.558 173.928 
175.414 175.732 177.303 177.645 179.295 179.64 181.132 181.261 182.354 
182.173 182.974 182.55 183.197 182.463 182.887 181.812 181.994 163.973 
163.028 163.925 164.669 161.802 162.877 163.681 164.575 165.272 160.38 
161.526 162.383 163.464 164.217 165.132 165.928 159.09 160.106 160.951 
162.083 162.943 163.997 164.884 165.901 167.029 158.091 158.935 159.749 
160.748 161.67 162.733 163.725 164.822 166.008 167.199 168.573 157.283 
158.023 158.799 159.681 160.578 161.568 162.564 163.658 164.816 166.069 
167.394 168.708 169.974 156.575 157.237 157.915 158.737 159.537 160.496 
161.405 162.483 163.535 164.774 165.979 167.346 168.551 169.865 170.901 
155.896 156.504 157.055 157.804 158.484 159.395 160.213 161.264 162.23 
163.422 164.524 165.842 166.971 168.313 169.345 170.619 171.558 155.205 
155.776 156.248 156.919 157.523 158.339 159.106 160.07 160.989 162.098 
163.143 164.376 165.447 166.724 167.717 168.995 169.927 171.216 172.155 
154.973 155.052 155.319 156.023 155.356 155.521 156.267 156.503 157.332 
155.811 155.947 156.757 156.912 157.818 158.002 158.961 156.3 156.466 
157.359 157.513 158.488 158.638 159.671 159.81 160.875 156.854 157.017 
157.983 158.159 159.19 159.364 160.459 160.616 161.758 161.878 163.037 
157.524 157.655 158.672 158.838 159.919 160.095 161.238 161.428 162.631 
162.804 164.016 164.13 165.306 158.28 158.392 159.435 159.585 160.694 
160.863 162.035 162.234 163.473 163.679 164.918 165.082 166.268 166.379 
167.511 159.06 159.178 160.231 160.377 161.483 161.651 162.831 163.047 
164.32 164.546 165.825 165.99 167.209 167.322 168.502 168.58 169.717 
159.8 159.947 160.995 161.162 162.256 162.433 163.607 163.838 165.142 
165.408 166.759 166.949 168.244 168.338 169.601 169.651 170.896 170.883 
172.032 160.525 162.104 161.46 161.784 163.909 163.175 163.557 162.809 
163.116 166.047 165.183 165.676 164.784 165.185 164.264 164.579 168.619 
167.607 168.266 167.199 167.744 166.622 167.034 165.912 166.244 171.571 
170.477 171.289 170.089 170.745 169.466 169.948 168.638 168.985 167.713 
167.961 174.521 173.545 174.438 173.274 173.982 172.651 173.16 171.735 
172.083 170.643 170.853 169.443 169.536 176.994 176.301 177.177 176.288 
177.027 175.883 176.438 175.043 175.421 173.885 174.116 172.524 172.596 
171.017 170.989 178.893 178.441 179.254 178.682 179.432 178.664 179.291 
178.207 178.619 177.226 177.444 175.87 175.93 174.249 174.159 172.478 
172.335 180.395 180.093 180.882 180.494 181.259 180.767 181.452 180.742 
181.179 180.139 180.279 178.976 178.933 177.463 177.285 175.665 175.374 
173.726 173.435 160.041 159.784 160.455 161.583 159.523 160.222 161.41 
162.101 163.355 159.215 159.965 161.214 161.96 163.291 163.995 165.413 
158.813 159.621 160.9 161.743 163.139 163.94 165.425 166.193 167.839 
158.357 159.18 160.454 161.366 162.803 163.734 165.286 166.175 167.88 
168.776 170.649 157.941 158.721 159.982 160.892 162.361 163.359 164.985 
165.981 167.741 168.751 170.664 171.667 173.563 157.65 158.349 159.589 
160.443 161.924 162.933 164.619 165.672 167.472 168.544 170.453 171.564 
173.472 174.469 176.12 157.497 158.12 159.323 160.094 161.533 162.511 
164.194 165.294 167.101 168.226 170.097 171.253 173.132 174.241 175.922 
176.804 178.131 157.403 157.994 159.151 159.858 161.213 162.118 163.715 
164.814 166.579 167.767 169.607 170.813 172.657 173.821 175.515 176.509 
177.892 178.632 179.696 159.04 157.487 158.413 158.743 155.966 156.844 
157.116 158.089 158.433 154.48 155.305 155.5 156.434 156.713 157.739 
158.079 153.077 153.822 153.955 154.808 155.004 155.976 156.248 157.326 
157.653 151.779 152.45 152.531 153.29 153.398 154.258 154.421 155.44 
155.715 156.851 157.188 150.497 151.139 151.143 151.864 151.885 152.659 
152.696 153.597 153.768 154.867 155.203 156.388 156.777 149.279 149.852 
149.808 150.457 150.422 151.13 151.101 151.893 151.972 152.945 153.24 
154.399 154.848 156.04 156.507 148.331 148.764 148.77 149.241 149.211 
149.744 149.71 150.36 150.427 151.248 151.508 152.528 152.986 154.148 
154.694 155.86 156.381 147.731 148.029 148.124 148.432 148.445 148.752 
148.703 149.129 149.181 149.83 150.083 150.941 151.379 152.404 152.966 
154.093 154.677 155.799 156.325 147.563 147.559 147.676 147.939 147.618 
147.676 147.843 147.99 148.187 147.675 147.696 147.725 147.815 147.879 
148.105 148.314 147.584 147.662 147.594 147.636 147.6 147.753 147.934 
148.268 148.71 147.277 147.431 147.405 147.49 147.505 147.573 147.817 
148.023 148.567 148.919 149.643 147.193 147.171 147.293 147.374 147.636 
147.682 148.113 148.18 148.841 149.022 149.845 150.114 150.991 147.847 
147.469 147.733 147.58 148.088 148.063 148.724 148.727 149.5 149.548 
150.412 150.528 151.44 151.634 152.583 149.053 148.513 148.846 148.443 
149.008 148.806 149.537 149.478 150.298 150.316 151.184 151.232 152.124 
152.216 153.15 153.323 154.289 150.256 149.808 150.14 149.717 150.193 
149.886 150.501 150.353 151.095 151.098 151.944 152.012 152.887 152.952 
153.838 153.944 154.864 155.036 155.95 150.927 151.954 151.254 150.914 
153.199 152.375 152.079 151.317 151.019 154.864 153.825 153.525 152.602 
152.342 151.52 151.309 156.904 155.728 155.462 154.298 154.036 153.003 
152.827 151.954 151.889 159.165 157.932 157.76 156.465 156.232 154.967 
154.797 153.69 153.654 152.725 152.777 161.616 160.341 160.257 158.909 
158.74 157.358 157.192 155.896 155.831 154.696 154.717 153.728 153.77 
163.994 162.829 162.791 161.493 161.377 159.971 159.809 158.412 158.29 
157.004 156.939 155.788 155.759 154.731 154.734 166.028 165.058 165.06 
163.958 163.902 162.619 162.479 161.075 160.905 159.517 159.371 158.079 
157.974 156.806 156.764 155.719 155.744 167.937 167.013 167.106 166.123 
166.182 165.064 165.018 163.717 163.561 162.153 161.961 160.567 160.399 
159.099 158.996 157.828 157.803 156.762 156.797 157.698 158.782 158.643 
159.506 160.065 159.876 160.872 160.641 161.642 161.559 161.328 162.463 
162.195 163.35 163.027 164.195 163.205 162.97 164.244 163.967 165.286 
164.937 166.26 165.842 167.127 164.861 164.697 166.103 165.884 167.379 
167.057 168.571 168.122 169.566 168.988 170.281 166.323 166.322 167.835 
167.78 169.427 169.245 170.932 170.579 172.178 171.613 173.004 172.249 
173.419 167.47 167.657 169.256 169.436 171.194 171.241 172.999 172.873 
174.518 174.177 175.582 174.973 176.097 175.296 176.229 168.382 168.687 
170.36 170.743 172.593 172.865 174.623 174.711 176.275 176.209 177.535 
177.249 178.281 177.737 178.535 177.827 178.495 169.2 169.551 171.252 
171.757 173.644 174.098 175.829 176.083 177.527 177.632 178.845 178.815 
179.786 179.54 180.271 179.811 180.378 179.771 180.231 148.953 148.787 
148.46 147.821 148.924 148.477 147.768 147.439 147.014 148.925 148.634 
147.977 147.557 147.012 146.798 146.613 148.607 148.468 147.848 147.648 
147.091 146.874 146.581 146.535 146.555 148.437 148.151 147.52 147.356 
146.856 146.791 146.531 146.539 146.552 146.614 146.783 148.721 148.231 
147.661 147.234 146.811 146.596 146.455 146.456 146.555 146.645 146.833 
146.909 147.061 149.193 148.683 148.17 147.637 147.244 146.844 146.755 
146.58 146.746 146.72 146.931 146.954 147.076 147.107 147.139 149.644 
149.158 148.592 148.114 147.632 147.296 147.139 146.998 147.14 147.062 
147.252 147.146 147.248 147.155 147.183 147.137 147.151 150.12 149.606 
148.987 148.458 147.859 147.512 147.224 147.188 147.264 147.358 147.524 
147.497 147.569 147.426 147.454 147.305 147.352 147.245 147.339 149.024 
147.924 148.633 149.112 147.173 147.7 148.251 148.953 149.574 146.812 
147.154 147.721 148.29 148.969 149.551 150.152 146.725 146.903 147.39 
147.864 148.531 149.066 149.677 150.181 150.792 146.893 146.894 147.234 
147.552 148.157 148.661 149.289 149.77 150.368 150.887 151.56 147.136 
147.094 147.313 147.453 147.96 148.347 149.007 149.445 150.052 150.496 
151.108 151.654 152.306 147.192 147.236 147.397 147.517 147.916 148.22 
148.848 149.249 149.87 150.235 150.769 151.2 151.772 152.333 152.938 
147.175 147.215 147.375 147.513 147.858 148.14 148.695 149.099 149.714 
150.084 150.595 150.915 151.402 151.83 152.403 152.952 153.545 147.353 
147.283 147.481 147.533 147.904 148.091 148.616 148.938 149.541 149.913 
150.473 150.785 151.28 151.577 152.108 152.507 153.096 153.586 154.146 
149.81 149.904 150.21 151.005 150.251 150.422 151.173 151.449 152.209 
150.723 150.799 151.479 151.682 152.435 152.685 153.474 151.371 151.331 
151.997 152.068 152.816 152.98 153.774 154.018 154.891 152.18 152.086 
152.774 152.724 153.477 153.498 154.285 154.398 155.25 155.499 156.453 
152.925 152.893 153.549 153.523 154.238 154.241 154.999 155.022 155.825 
155.94 156.869 157.133 158.173 153.55 153.564 154.168 154.185 154.82 
154.899 155.614 155.71 156.468 156.559 157.425 157.619 158.651 158.941 
160.017 154.146 154.164 154.766 154.756 155.346 155.394 156.069 156.21 
156.961 157.123 157.955 158.164 159.155 159.446 160.52 160.799 161.783 
154.706 154.746 155.366 155.367 155.968 155.958 156.61 156.674 157.414 
157.561 158.392 158.624 159.596 159.917 160.978 161.288 162.264 162.479 
163.291 158.894 158.148 158.128 157.349 157.38 157.365 156.6 156.603 
155.864 156.629 156.597 155.834 155.852 155.129 155.137 154.415 155.956 
155.862 155.053 155.059 154.325 154.377 153.669 153.698 153.018 155.442 
155.26 154.405 154.293 153.506 153.533 152.856 152.939 152.309 152.359 
151.747 155.046 154.843 154.032 153.777 152.959 152.802 152.122 152.15 
151.598 151.674 151.105 151.127 150.517 154.671 154.496 153.784 153.523 
152.754 152.446 151.729 151.562 150.998 151.006 150.471 150.494 149.88 
149.88 149.287 154.392 154.175 153.512 153.295 152.608 152.329 151.631 
151.339 150.706 150.531 149.961 149.893 149.296 149.26 148.673 148.7 
148.26 154.318 154.004 153.342 153.067 152.421 152.18 151.569 151.3 
150.698 150.396 149.799 149.539 148.96 148.785 148.254 148.179 147.777 
147.831 147.604 
POINT_DATA 1002
SCALARS Distance double
LOOKUP_TABLE default
151.58 150.645 151.271 152.318 151.988 152.659 153.297 152.979 153.627 
154.095 154.51 154.203 154.848 155.29 155.964 155.794 155.47 156.155 
156.596 157.227 158.063 157.091 156.72 157.491 157.963 158.587 159.413 
160.384 158.406 157.988 158.887 159.43 160.118 160.981 161.952 162.874 
159.674 159.231 160.24 160.866 161.626 162.584 163.6 164.459 165.086 
160.853 160.378 161.481 162.172 162.938 163.914 165.01 165.921 166.512 
166.934 161.937 161.408 162.627 163.392 164.176 165.092 166.172 167.179 
167.897 168.386 168.84 150.153 150.742 149.68 150.252 149.206 151.468 
149.926 148.808 151.124 152.57 149.801 148.768 151.033 152.385 153.894 
149.881 149.105 150.977 152.314 153.712 155.196 150.102 149.326 150.955 
152.186 153.601 155.034 156.518 150.266 149.218 151.142 152.213 153.594 
155.035 156.476 157.898 150.33 149.162 151.39 152.447 153.721 155.107 
156.506 157.91 159.204 150.485 149.464 151.545 152.614 153.822 155.121 
156.44 157.829 159.177 160.344 150.594 151.515 151.758 152.604 152.944 
152.521 153.938 154.295 153.704 153.725 155.576 155.807 155.326 155.135 
155.091 157.282 157.438 157.169 156.951 156.629 156.449 159.036 159.239 
158.905 158.802 158.488 158.064 157.869 160.891 161.074 160.65 160.474 
160.291 159.916 159.538 159.34 162.613 162.692 162.418 162.141 161.902 
161.638 161.27 160.919 160.634 164.05 164.022 163.995 163.783 163.485 
163.213 162.911 162.526 162.124 161.75 162.805 163.254 164.538 163.768 
165.151 166.531 164.266 165.799 167.274 168.603 164.623 166.277 167.915 
169.348 170.813 164.875 166.497 168.249 169.888 171.521 173.295 165.162 
166.671 168.367 170.183 172.037 173.941 175.734 165.408 166.926 168.544 
170.361 172.39 174.432 176.292 177.868 165.447 167.043 168.743 170.513 
172.533 174.729 176.754 178.476 179.947 165.322 166.872 168.665 170.511 
172.463 174.691 176.956 178.941 180.639 182.093 163.566 165.497 164.457 
167.605 166.549 165.386 169.896 168.853 167.705 166.381 172.536 171.461 
170.288 168.974 167.505 175.267 174.316 173.051 171.731 170.231 168.617 
177.618 176.988 175.859 174.505 173.054 171.344 169.522 179.74 179.317 
178.509 177.283 175.855 174.243 172.293 170.214 181.965 181.576 180.943 
179.931 178.532 176.983 175.241 173.103 170.82 184.265 184.049 186.165 
185.702 187.177 183.429 186.354 187.287 184.77 182.508 186.247 187.05 
185.229 183.506 181.12 185.907 186.582 185.125 183.793 181.736 179.396 
185.212 185.538 184.651 183.617 181.867 179.839 177.681 183.981 183.97 
183.663 182.954 181.629 179.94 178.056 175.702 182.473 182.273 182.348 
181.879 180.938 179.606 177.996 175.841 173.227 180.918 180.657 180.942 
180.658 179.955 178.841 177.431 175.556 173.145 170.723 183.26 185.396 
183.864 185.554 183.746 186.974 184.926 183.262 186.726 187.707 184.149 
182.461 185.871 187.513 187.891 183.068 180.957 184.759 186.607 187.897 
187.698 181.337 178.95 183.178 184.925 186.68 187.403 186.768 179.315 
176.964 181.284 182.897 184.546 185.749 185.824 185.036 177.249 175.054 
179.308 180.96 182.421 183.607 184.021 183.695 183.039 175.052 173.125 
177.081 178.862 180.337 181.517 182.11 182.048 181.68 181.221 164.74 
166.127 165.391 166.884 165.971 167.886 167.769 166.849 168.91 169.956 
169.216 168.356 170.241 171.353 172.13 171.06 170.012 172.056 173.141 
174.042 174.532 172.507 171.155 173.784 175.141 176.331 176.983 177.143 
173.419 171.868 174.999 176.775 178.464 179.478 179.754 179.533 174.235 
172.503 176.006 177.989 179.986 181.344 181.921 181.99 181.545 163.161 
163.878 162.047 162.708 160.655 164.458 161.218 159.272 163.228 164.969 
159.832 158.171 161.809 163.798 165.888 158.809 157.3 160.61 162.598 
164.785 167.358 157.965 156.588 159.628 161.502 163.598 166.071 168.76 
157.162 155.979 158.623 160.363 162.354 164.658 167.213 169.685 156.375 
155.337 157.632 159.201 161.079 163.26 165.659 168.046 170.308 155.62 