# vtk DataFile Version 4.0
vtk output
ASCII
DATASET POLYDATA
POINTS 1002 float
-104.952 -80.1195 74.6941 -104.904 -79.4485 73.5 -105.487 -79.3817 74.2886 
-105.495 -80.0803 75.709 -106.064 -79.2984 75.269 -105.057 -80.9574 76.1162 
-106.114 -80.0786 76.7925 -106.801 -79.3416 76.2307 -105.595 -81.0049 77.2074 
-105.307 -82.1265 77.5189 -106.983 -80.2647 77.7162 -107.691 -79.5686 77.0976 
-106.384 -81.2314 78.1536 -106.009 -82.4093 78.476 -105.756 -83.5528 78.8693 
-107.949 -80.666 78.6113 -108.59 -79.9645 78.0307 -107.393 -81.6786 79.0006 
-107.015 -82.9203 79.2955 -106.674 -84.0286 79.7965 -106.314 -84.978 80.3835 
-108.891 -81.2219 79.5928 -109.561 -80.533 79.0057 -108.338 -82.2326 79.9854 
-108.002 -83.5119 80.2628 -107.692 -84.6484 80.764 -107.298 -85.5913 81.4059 
-107.029 -86.6114 81.8568 -109.911 -81.899 80.427 -110.58 -81.1523 79.8757 
-109.306 -82.9202 80.8717 -108.898 -84.1656 81.3008 -108.572 -85.327 81.8625 
-108.209 -86.3792 82.4478 -107.965 -87.509 82.8402 -107.958 -88.7001 83.0727 
-110.883 -82.686 81.0739 -111.432 -81.7717 80.6453 -110.372 -83.8225 81.471 
-109.956 -85.0676 82.0247 -109.557 -86.2039 82.7677 -109.149 -87.323 83.4019 
-108.855 -88.5746 83.7733 -108.759 -89.8062 84.0456 -108.795 -90.9007 84.3286 
-111.688 -83.6041 81.6809 -112.136 -82.5467 81.3021 -111.308 -84.8122 82.0738 
-110.994 -86.0638 82.6329 -110.633 -87.2218 83.3957 -110.224 -88.3799 84.0938 
-109.88 -89.6701 84.549 -109.625 -90.9087 84.9301 -109.448 -91.971 85.3368 
-109.372 -92.9663 85.66 -112.422 -84.5773 82.2561 -112.825 -83.4895 81.8206 
-112.066 -85.7059 82.7918 -111.774 -86.842 83.4332 -111.472 -88.0232 84.0927 
-111.144 -89.3137 84.657 -110.856 -90.6774 85.1209 -110.578 -91.9115 85.5981 
-110.272 -92.9531 86.1047 -110.028 -93.9708 86.5026 -109.933 -95.0263 86.7049 
-105.293 -78.7423 72.8711 -105.872 -78.5232 73.6716 -105.681 -77.8271 72.2288 
-106.283 -77.4737 73.0655 -106.068 -76.8498 71.4713 -106.557 -78.4418 74.5955 
-106.831 -76.6134 72.3471 -106.653 -76.2244 70.5923 -107.14 -77.5266 73.9484 
-107.424 -78.6017 75.5117 -107.651 -76.162 71.4929 -107.599 -75.9339 69.7291 
-107.888 -76.8242 73.2662 -108.11 -77.776 74.9415 -108.318 -78.846 76.4678 
-108.645 -75.7257 70.6792 -108.655 -75.5422 68.9633 -108.775 -76.2879 72.5214 
-108.912 -76.978 74.4614 -108.996 -77.921 76.0768 -109.239 -79.2458 77.4902 
-109.597 -75.2115 70.037 -109.531 -75.1425 68.3133 -109.682 -75.7377 71.8714 
-109.802 -76.3435 73.8999 -109.836 -77.0464 75.7244 -109.974 -78.377 77.0768 
-110.318 -79.914 78.4522 -110.546 -74.9911 69.5311 -110.39 -75.0517 67.8195 
-110.644 -75.3409 71.4017 -110.739 -75.8906 73.3617 -110.799 -76.5131 75.1948 
-110.847 -77.6771 76.6247 -111.076 -79.2454 77.9281 -111.334 -80.5575 79.3921 
-111.598 -74.9939 69.0834 -111.415 -75.1095 67.4539 -111.722 -75.1431 70.9935 
-111.772 -75.5204 72.9481 -111.802 -76.1399 74.6556 -111.805 -77.2627 76.0729 
-111.87 -78.7281 77.4188 -112.028 -79.9847 78.9096 -112.12 -81.1214 80.3089 
-112.603 -74.9713 68.6659 -112.438 -75.1212 67.1447 -112.746 -75.0086 70.5593 
-112.806 -75.239 72.5568 -112.797 -75.7931 74.217 -112.765 -76.9177 75.5395 
-112.735 -78.3681 76.8827 -112.757 -79.5651 78.4088 -112.804 -80.5761 79.8997 
-112.818 -81.8817 81.0353 -113.373 -75.0554 67.7773 -113.529 -74.9843 69.6258 
-114.071 -75.3147 68.7683 -114.295 -75.4482 70.8818 -114.724 -76.0539 70.0968 
-113.677 -75.1584 71.768 -115.083 -76.4855 72.0225 -115.519 -77.0502 71.2515 
-114.487 -75.9617 72.8911 -113.721 -75.6495 73.638 -115.921 -77.599 72.8347 
-116.282 -78.0833 72.1627 -115.256 -77.2947 73.703 -114.507 -76.8803 74.4474 
-113.682 -76.6993 75.0278 -116.678 -78.6047 73.9095 -116.818 -79.2895 73.4099 
-116.053 -78.3944 74.7026 -115.236 -78.2903 75.3764 -114.467 -78.1375 75.886 
-113.636 -78.1719 76.3981 -117.247 -79.9898 75.3721 -117.152 -80.8129 74.9023 
-116.847 -79.4832 76.1424 -116.02 -79.3655 76.7629 -115.188 -79.3686 77.1068 
-114.436 -79.3747 77.5188 -113.596 -79.4314 78.0254 -117.5 -81.7986 76.604 
-117.331 -82.5379 76.1202 -117.331 -81.1254 77.3631 -116.682 -80.7775 78.0308 
-115.819 -80.7015 78.3506 -115.081 -80.6349 78.6603 -114.373 -80.5082 79.1861 
-113.572 -80.4576 79.6559 -117.464 -83.6089 77.6235 -117.36 -84.2057 77.1826 
-117.34 -82.9655 78.2799 -116.917 -82.5559 78.9289 -116.232 -82.4582 79.3261 
-115.532 -82.3839 79.6464 -114.941 -82.1337 80.1473 -114.304 -81.8709 80.6559 
-113.556 -81.7877 80.9421 -117.34 -85.2413 78.8125 -117.259 -85.6408 78.3881 
-117.184 -84.6987 79.3995 -116.875 -84.2546 79.9959 -116.446 -84.1177 80.4119 
-115.899 -84.112 80.7409 -115.339 -83.9331 81.1845 -114.822 -83.6454 81.6109 
-114.235 -83.4774 81.8133 -113.534 -83.4545 81.8445 -113.278 -85.1519 82.6475 
-113.978 -85.1423 82.7768 -113.646 -86.7013 83.8355 -114.586 -85.1193 82.9248 
-114.259 -86.7285 84.0639 -113.83 -88.3719 85.2638 -115.132 -85.2426 82.861 
-114.824 -86.7745 84.2449 -114.444 -88.6927 85.3982 -114 -90.6453 86.5323 
-115.745 -85.505 82.4992 -115.484 -87.012 84.111 -115.067 -89.0362 85.3163 
-114.659 -91.1828 86.4832 -114.211 -93.0573 87.6651 -116.317 -85.6865 82.1392 
-116.222 -87.382 83.8084 -115.756 -89.424 85.0414 -115.141 -91.5698 86.2276 
-114.686 -93.4809 87.604 -114.305 -95.4331 88.8464 -116.686 -85.8409 81.8391 
-116.751 -87.7386 83.625 -116.465 -89.8082 84.9235 -115.627 -91.8461 86.0408 
-114.866 -93.8087 87.382 -114.564 -95.9877 88.7666 -114.489 -98.3466 89.8085 
-116.973 -86.1919 81.3241 -117.057 -88.1146 83.2709 -117.041 -90.1534 84.7984 
-116.343 -92.0514 86.0075 -115.296 -94.0566 87.2005 -114.73 -96.4432 88.4402 
-114.775 -98.9617 89.5963 -114.932 -101.015 90.3853 -117.218 -86.6286 80.6285 
-117.302 -88.4377 82.5269 -117.431 -90.3664 84.1696 -117.015 -92.1048 85.6187 
-116.013 -94.0754 86.9494 -115.196 -96.6001 88.0861 -115.048 -99.1728 89.159 
-115.228 -101.181 90.1277 -115.276 -102.478 90.707 -117.234 -86.8985 80.0178 
-117.356 -88.5293 81.7097 -117.58 -90.3338 83.2061 -117.365 -91.946 84.6809 
-116.473 -93.7675 86.2706 -115.583 -96.3199 87.6639 -115.324 -99.003 88.7732 
-115.45 -101.027 89.7509 -115.455 -102.369 90.4647 -115.271 -103.314 90.7788 
-112.868 -86.2416 83.3421 -113.161 -87.7803 84.8169 -112.463 -87.2836 84.2055 
-113.286 -89.7954 86.2721 -112.664 -89.0113 85.7587 -112.1 -88.4843 84.9472 
-113.461 -92.4244 87.4877 -112.808 -91.5644 87.0413 -112.329 -90.7189 86.2818 
-111.814 -90.0315 85.3803 -113.661 -95.0206 88.7212 -112.979 -94.45 88.3207 
-112.571 -93.65 87.5778 -112.166 -92.6929 86.5925 -111.596 -91.6971 85.7338 
-113.921 -97.9095 89.8045 -113.153 -97.2731 89.5826 -112.674 -96.4942 89.097 
-112.384 -95.5086 88.1567 -111.953 -94.3148 87.0626 -111.357 -93.076 86.2387 
-114.465 -100.893 90.4201 -113.679 -100.342 90.2474 -112.958 -99.4441 90.066 
-112.511 -98.3347 89.5793 -112.129 -97.0306 88.5626 -111.683 -95.585 87.523 
-111.062 -94.1903 86.7826 -115.015 -102.715 90.7367 -114.515 -102.683 90.471 
-113.852 -102.266 90.2295 -113.171 -101.408 90.0919 -112.541 -100.16 89.5651 
-112.05 -98.6179 88.6033 -111.547 -96.938 87.7654 -110.815 -95.3516 87.1681 
-115.169 -103.57 90.8719 -115.054 -103.767 90.6796 -114.811 -103.885 90.3242 
-114.277 -103.699 90.1369 -113.427 -102.984 89.9949 -112.649 -101.759 89.4294 
-112.146 -100.145 88.5663 -111.544 -98.3338 87.875 -110.703 -96.58 87.3501 
-115.054 -104.485 90.6575 -115.123 -104.587 90.7972 -115.145 -105.72 90.4016 
-115.308 -105.591 90.7396 -115.633 -106.235 90.3239 -115.254 -104.641 90.6601 
-115.377 -106.069 90.6737 -115.78 -106.589 90.2197 -115.307 -105.292 90.6673 
-115.121 -104.7 90.3456 -114.892 -107.142 90.2058 -115.326 -109.148 89.4869 
-114.826 -105.835 90.371 -114.804 -105.036 90.3124 -114.35 -104.503 90.2008 
-114.579 -110.526 89.1407 -115.267 -113.587 88.1457 -114.369 -107.981 89.5789 
-114.122 -105.978 89.7986 -113.713 -104.822 90.1389 -113.247 -103.842 90.0225 
-114.984 -114.311 87.7788 -115.768 -116.306 86.859 -114.702 -111.956 88.5127 
-114.26 -109.179 88.8561 -113.316 -106.259 89.4917 -112.757 -104.335 89.8849 
-112.554 -102.663 89.3596 -115.086 -115.412 86.6558 -115.707 -115.993 86.0813 
-114.906 -114.443 87.4804 -114.829 -112.743 87.9475 -113.835 -109.291 88.4542 
-112.704 -105.556 89.1751 -112.355 -103.144 89.1577 -112.101 -100.984 88.4786 
-114.277 -114.176 86.1286 -114.733 -114.293 85.7741 -114.096 -113.817 86.8434 
-114.369 -113.321 87.4233 -114.065 -111.171 87.7326 -112.978 -107.175 88.2564 
-112.224 -103.671 88.6125 -111.878 -101.356 88.3115 -111.334 -99.0487 87.8006 
-113.177 -112.404 86.0305 -113.499 -112.437 85.6677 -112.943 -111.883 86.664 
-113.142 -111.41 87.3006 -113.288 -110.353 87.5838 -112.758 -107.632 87.784 
-112.01 -104.173 88.0683 -111.534 -101.517 88.024 -111.039 -99.3941 87.6406 
-110.422 -97.1551 87.2082 -115.292 -103.73 90.5096 -115.088 -105.137 90.1315 
-115.557 -104.098 90.0733 -115.469 -105.08 89.4849 -116.189 -104.007 89.4421 
-115.422 -105.962 89.7374 -116.062 -104.364 88.8372 -116.772 -103.636 88.5891 
-115.856 -105.238 89.1349 -116.153 -105.971 89.7086 -116.336 -104.459 88.1334 
-116.57 -103.443 87.833 -116.085 -105.466 88.5958 -116.465 -106.458 89.0946 
-116.329 -107.702 89.4508 -115.943 -105.28 87.5581 -115.644 -102.957 87.4312 
-115.98 -107.799 87.8494 -116.338 -109.688 88.2595 -116.579 -111.024 88.456 
-116.031 -112.485 88.3658 -115.262 -104.727 87.2351 -114.902 -101.633 86.9818 
-115.661 -108.979 87.1563 -116.055 -112.766 87.1191 -116.331 -114.629 87.228 
-116.379 -115.669 87.2628 -116.198 -116.443 87.0859 -114.81 -102.586 86.7771 
-114.685 -99.9317 86.0776 -115.245 -106.76 86.7985 -115.757 -111.406 86.3281 
-115.876 -114.159 86.0166 -115.868 -115.223 86.2053 -116.232 -116.211 86.4263 
-116.381 -116.684 86.2871 -114.553 -100.356 85.8685 -114.562 -98.3951 84.8666 
-114.798 -103.32 86.3723 -115.299 -107.098 86.1435 -115.465 -110.013 85.5307 
-115.117 -111.39 85.3145 -115.158 -112.67 85.6682 -115.704 -114.217 85.946 
-115.67 -114.872 85.8543 -114.27 -98.6436 84.6538 -114.27 -97.066 83.6504 
-114.364 -100.669 85.4876 -114.681 -103.251 85.8803 -114.95 -105.732 85.7032 
[...]
CELL_DATA 2000
SCALARS Distance double
LOOKUP_TABLE default
150.304 151.122 150.914 151.392 152.062 151.802 152.313 152.112 152.731 
153.176 152.849 153.402 153.127 153.793 153.599 154.365 154.44 154.067 
154.682 154.344 155.08 154.804 155.64 155.396 156.244 155.836 155.42 
156.081 155.716 156.502 156.204 157.092 156.804 157.699 157.384 158.275 
157.302 156.876 157.542 157.164 157.966 157.669 158.583 158.304 159.23 
158.913 159.839 159.517 160.508 158.691 158.324 159.004 158.649 159.48 
159.175 160.13 159.835 160.808 160.482 161.452 161.126 162.139 161.844 
162.899 159.975 159.671 160.407 160.107 160.983 160.712 161.694 161.417 
162.417 162.103 163.1 162.775 163.79 163.481 164.498 164.211 165.203 
161.223 160.956 161.737 161.491 162.371 162.163 163.107 162.91 163.865 
163.649 164.613 164.377 165.352 165.089 166.041 165.76 166.681 166.411 
167.317 149.845 149.378 149.937 150.604 148.824 149.422 150.117 150.741 
151.519 148.385 148.907 149.675 150.288 151.149 151.755 152.626 148.301 
148.648 149.471 149.977 150.897 151.456 152.371 152.934 153.857 148.45 
148.708 149.491 149.907 150.822 151.307 152.213 152.717 153.652 154.228 
155.228 148.611 148.859 149.595 149.968 150.862 151.301 152.199 152.626 
153.542 154.062 155.103 155.692 156.727 148.894 149.067 149.849 150.128 
151.042 151.402 152.333 152.691 153.606 154.029 155.053 155.607 156.678 
157.209 158.151 149.412 149.494 150.322 150.505 151.425 151.682 152.612 
152.902 153.823 154.169 155.155 155.617 156.659 157.167 158.124 158.577 
159.421 150.01 150.072 150.855 151.023 151.897 152.116 152.994 153.231 
154.116 154.418 155.37 155.762 156.754 157.189 158.129 158.557 159.416 
159.828 160.648 150.534 151.59 151.154 151.413 152.894 152.352 152.687 
152.183 152.5 154.453 153.831 154.187 153.586 153.907 153.325 153.599 
155.999 155.42 155.774 155.162 155.465 154.811 155.073 154.443 154.722 
157.536 156.948 157.336 156.741 157.085 156.42 156.712 156.019 156.332 
155.665 156.012 159.219 158.583 159.048 158.389 158.804 158.095 158.429 
157.711 158.041 157.356 157.708 157.031 157.381 160.866 160.301 160.783 
160.167 160.582 159.879 160.186 159.445 159.737 159.051 159.384 158.726 
159.051 158.383 158.696 162.305 161.839 162.254 161.763 162.12 161.556 
161.831 161.165 161.422 160.734 161.059 160.394 160.746 160.06 160.373 
159.677 159.97 163.614 163.193 163.587 163.114 163.464 162.961 163.288 
162.723 163.04 162.405 162.748 162.09 162.46 161.78 162.119 161.397 
161.684 160.952 161.219 162.155 162.66 162.866 163.787 163.115 163.37 
164.313 164.524 165.472 163.483 163.8 164.779 165.036 166.041 166.266 
167.315 163.799 164.164 165.213 165.512 166.568 166.84 167.957 168.207 
169.319 164.069 164.485 165.629 165.993 167.1 167.378 168.458 168.765 
169.861 170.164 171.257 164.265 164.729 165.951 166.435 167.648 167.95 
168.974 169.206 170.184 170.532 171.636 172.057 173.284 164.418 164.893 
166.135 166.73 168.051 168.486 169.549 169.736 170.615 170.832 171.872 
172.329 173.635 174.169 175.464 164.528 165.009 166.19 166.842 168.144 
168.759 169.842 170.198 171.026 171.256 172.175 172.576 173.797 174.4 
175.682 176.211 177.174 164.499 165.019 166.059 166.749 167.902 168.644 
169.632 170.215 170.953 171.408 172.193 172.731 173.795 174.46 175.626 
176.244 177.157 177.557 178.083 162.16 163.818 162.902 162.745 165.533 
164.616 164.511 163.556 163.428 167.398 166.41 166.344 165.363 165.27 
164.29 164.178 169.446 168.416 168.402 167.317 167.271 166.204 166.131 
165.085 164.969 171.502 170.536 170.63 169.525 169.567 168.396 168.382 
167.184 167.105 165.937 165.796 173.676 172.695 172.91 171.81 171.932 
170.792 170.829 169.589 169.488 168.202 168.034 166.796 166.587 175.9 
174.998 175.273 174.167 174.292 173.156 173.216 172.028 171.919 170.618 
170.372 169.074 168.808 167.56 167.276 177.523 176.998 177.241 176.419 
176.517 175.497 175.565 174.42 174.38 173.067 172.855 171.46 171.18 
169.827 169.534 168.232 167.918 178.321 178.144 178.339 177.961 178.073 
177.451 177.54 176.674 176.682 175.534 175.378 174.012 173.755 172.318 
172.032 170.601 170.281 168.9 168.569 178.651 179.2 178.868 178.733 
179.833 179.483 179.339 178.922 178.64 180.205 179.996 179.8 179.494 
179.215 178.779 178.3 180.604 180.205 179.88 179.683 179.3 179.138 
178.702 178.301 177.549 181.992 180.955 180.535 179.861 179.401 179.037 
178.564 178.392 177.781 177.338 176.315 183.77 182.696 182.304 181.183 
180.798 179.692 179.114 178.352 177.755 177.357 176.56 175.961 174.766 
184.112 183.877 183.409 182.909 182.581 181.593 180.861 179.492 178.495 
177.525 176.655 176.09 175.063 174.34 173.042 182.799 183.244 182.575 
182.974 182.513 182.619 181.812 181.043 179.578 178.402 176.974 176.199 
175.06 174.49 173.253 172.529 171.199 180.923 181.518 180.787 181.399 
180.777 181.491 180.73 180.943 179.506 178.909 177.131 176.37 174.915 
174.379 173.135 172.58 171.277 170.621 169.372 178.647 178.786 178.851 
179.188 178.816 178.914 179.192 179.4 179.763 178.624 178.771 178.888 
179.211 179.568 179.912 180.19 178.295 178.528 178.736 178.948 179.485 
179.782 180.417 180.482 180.895 177.71 178.265 178.991 179.227 180.277 
180.319 181.503 181.299 182.291 181.817 182.569 176.551 177.579 178.718 
179.579 181.027 181.489 182.847 182.816 183.886 183.565 184.381 183.859 
184.356 174.952 176.192 177.235 178.738 180.03 181.465 182.387 183.311 
183.636 184.249 184.432 184.892 184.952 184.942 184.59 173.28 174.449 
175.174 176.719 177.608 179.414 179.913 181.449 181.152 182.413 181.901 
183.305 183.022 184.208 183.723 184.114 183.192 171.663 172.711 173.203 
174.496 175.086 176.648 177.048 178.503 178.296 179.409 178.845 180.077 
179.762 181.303 181.079 182.314 181.681 182.168 181.181 164.671 165.237 
165.385 166.254 165.719 165.953 166.965 167.118 168.075 166.383 166.546 
167.619 167.805 168.789 168.907 169.721 167.252 167.358 168.42 168.518 
169.421 169.507 170.258 170.354 171.004 168.08 168.228 169.261 169.345 
170.215 170.192 170.941 170.92 171.708 171.694 172.429 168.885 169.026 
170.101 170.187 171.227 171.17 172.181 171.975 173.03 172.784 173.832 
173.491 174.318 169.755 169.889 171.058 171.131 172.377 172.388 173.742 
173.594 174.934 174.577 175.75 175.253 176.153 175.561 176.202 170.515 
170.752 171.954 172.127 173.387 173.565 174.936 175.103 176.424 176.404 
177.422 177.126 177.775 177.301 177.71 177.204 177.541 171.049 171.399 
172.581 172.9 174.102 174.416 175.626 175.967 177.025 177.315 178.03 
178.157 178.519 178.434 178.584 178.335 178.439 178.151 178.293 163.876 
162.794 163.696 164.342 161.553 162.538 163.184 164.086 164.746 160.212 
161.253 161.986 162.932 163.604 164.516 165.326 158.937 159.923 160.717 
161.74 162.498 163.415 164.191 165.19 166.141 157.847 158.708 159.45 
160.474 161.287 162.287 163.064 164.051 164.929 166.02 166.983 156.862 
157.644 158.282 159.227 160.001 161.037 161.84 162.867 163.707 164.782 
165.72 166.831 167.787 155.907 156.645 157.214 158.068 158.761 159.749 
160.549 161.604 162.465 163.541 164.457 165.562 166.526 167.642 168.606 
155.05 155.717 156.266 157.025 157.657 158.539 159.284 160.306 161.174 
162.278 163.204 164.307 165.236 166.351 167.293 168.433 169.346 154.337 
154.921 155.449 156.127 156.724 157.495 158.172 159.078 159.89 160.964 
161.893 163.028 163.953 165.057 165.948 167.07 167.957 169.093 169.913 
154.129 154.145 154.487 155.224 154.241 154.55 155.362 155.693 156.515 
154.533 154.758 155.633 155.929 156.838 157.094 157.98 154.949 155.143 
156.071 156.337 157.35 157.556 158.53 158.698 159.702 155.425 155.602 
156.593 156.867 157.986 158.203 159.275 159.396 160.466 160.604 161.721 
156.107 156.195 157.229 157.449 158.609 158.872 160.01 160.196 161.305 
161.454 162.595 162.724 163.82 156.974 157.018 158.041 158.163 159.278 
159.504 160.665 160.909 162.08 162.29 163.473 163.629 164.761 164.823 
165.847 157.805 157.897 158.893 158.992 160.071 160.234 161.439 161.645 
162.922 163.114 164.391 164.54 165.744 165.81 166.893 166.868 167.857 
158.548 158.677 159.684 159.808 160.918 161.081 162.363 162.558 163.926 
164.084 165.405 165.52 166.747 166.823 167.94 167.944 168.95 168.888 
169.808 159.303 161.002 160.254 160.506 162.987 162.141 162.474 161.588 
161.875 165.162 164.278 164.743 163.785 164.185 163.162 163.486 167.539 
166.579 167.08 166.129 166.582 165.596 165.966 164.878 165.123 170.108 
169.094 169.622 168.569 169.021 167.985 168.348 167.314 167.549 166.446 
166.568 172.672 171.711 172.363 171.287 171.856 170.643 171.045 169.786 
170.035 168.833 168.972 167.811 167.875 175.24 174.298 174.979 174.003 
174.603 173.531 173.964 172.691 172.917 171.521 171.626 170.28 170.325 
169.081 169.07 177.803 176.935 177.566 176.552 176.938 175.966 176.229 
175.301 175.492 174.382 174.429 173.071 172.998 171.599 171.486 170.201 
170.077 179.953 179.412 180.152 179.175 179.47 178.247 178.316 177.271 
177.487 176.635 176.882 175.786 175.744 174.316 174.054 172.623 172.36 
171.099 170.893 158.834 158.587 159.307 160.524 158.238 159.055 160.347 
161.097 162.421 157.777 158.669 160.002 160.863 162.251 163.06 164.51 
157.317 158.215 159.622 160.515 162.001 162.875 164.474 165.3 166.913 
157.02 157.851 159.371 160.243 161.868 162.732 164.479 165.347 167.141 
167.881 169.521 156.914 157.669 159.224 160.095 161.817 162.718 164.541 
165.439 167.299 168.133 169.871 170.518 172.065 156.872 157.593 159.08 
159.955 161.66 162.651 164.484 165.473 167.31 168.239 170.019 170.817 
172.474 173.075 174.624 156.793 157.501 158.899 159.757 161.382 162.411 
164.222 165.304 167.136 168.154 169.953 170.89 172.638 173.425 175.044 
175.642 177.128 156.685 157.362 158.689 159.518 161.06 162.067 163.818 
164.945 166.776 167.885 169.692 170.742 172.496 173.455 175.044 175.846 
177.207 177.89 179.107 157.763 156.04 157.063 157.414 154.412 155.323 
155.598 156.667 157.023 152.97 153.753 153.944 154.88 155.145 156.22 
156.542 151.598 152.306 152.385 153.241 153.394 154.364 154.572 155.676 
156.012 150.331 150.936 150.885 151.626 151.661 152.574 152.683 153.712 
153.961 155.157 155.631 149.199 149.763 149.685 150.203 150.102 150.818 
150.865 151.817 152.037 153.152 153.601 154.884 155.518 148.069 148.69 
148.722 149.153 148.975 149.405 149.338 150.08 150.306 151.311 151.757 
152.932 153.555 154.857 155.532 147.077 147.633 147.777 148.244 148.112 
148.412 148.234 148.729 148.895 149.73 150.182 151.205 151.786 152.961 
153.622 154.89 155.522 146.438 146.796 146.943 147.368 147.329 147.606 
147.423 147.751 147.821 148.47 148.88 149.757 150.291 151.297 151.903 
153.052 153.701 154.902 155.496 146.238 145.946 146.252 146.599 145.586 
145.886 146.174 146.581 146.885 145.351 145.523 145.751 146.102 146.374 
146.752 147.012 145.342 145.339 145.493 145.733 146.052 146.343 146.712 
147.003 147.485 145.621 145.419 145.529 145.606 145.978 146.184 146.659 
146.895 147.495 147.794 148.539 146.282 145.881 146.023 145.874 146.306 
146.333 146.857 146.976 147.601 147.883 148.683 149.041 149.916 147.229 
146.735 146.926 146.616 147.104 146.944 147.514 147.399 148.026 148.108 
148.962 149.255 150.247 150.55 151.531 148.275 147.787 148.006 147.64 
148.129 147.904 148.509 148.279 148.917 148.778 149.648 149.75 150.84 
151.044 152.13 152.314 153.335 149.326 148.88 149.135 148.749 149.209 
148.954 149.554 149.334 149.976 149.79 150.601 150.598 151.644 151.784 
152.871 153.013 154.02 154.158 155.117 149.984 151.105 150.307 149.904 
152.501 151.595 151.254 150.362 150.052 154.146 153.15 152.869 151.879 
151.581 150.646 150.402 155.972 154.905 154.649 153.609 153.332 152.293 
152.016 151.06 150.855 157.993 156.83 156.591 155.476 155.246 154.14 
153.89 152.805 152.626 151.632 151.564 160.304 159.031 158.869 157.592 
157.433 156.2 156.033 154.828 154.693 153.577 153.574 152.556 152.638 
162.773 161.515 161.467 160.094 159.998 158.613 158.52 157.172 157.091 
155.816 155.806 154.68 154.766 153.742 153.835 165.128 164.012 164.066 
162.779 162.736 161.327 161.251 159.829 159.78 158.39 158.368 157.058 
157.084 155.917 155.976 154.917 154.96 167.299 166.319 166.476 165.34 
165.393 164.076 164.032 162.616 162.564 161.15 161.128 159.736 159.717 
158.375 158.365 157.132 157.139 156.025 156.045 157.016 158.216 158.074 
159.07 159.59 159.435 160.59 160.368 161.529 161.06 160.943 162.255 
162.057 163.384 163.078 164.36 162.535 162.485 163.935 163.821 165.312 
165.072 166.512 166.106 167.396 164.027 164.02 165.615 165.58 167.245 
167.092 168.704 168.364 169.796 169.232 170.42 165.512 165.559 167.237 
167.301 169.064 169.045 170.743 170.556 172.07 171.649 172.91 172.244 
173.27 166.816 166.979 168.603 168.814 170.502 170.689 172.331 172.405 
173.893 173.745 174.977 174.563 175.551 174.924 175.739 167.822 168.109 
169.628 169.959 171.499 171.831 173.376 173.689 175.237 175.366 176.684 
176.441 177.395 176.918 177.679 177.126 177.791 168.575 168.941 170.393 
170.795 172.234 172.607 174.044 174.481 176.111 176.554 178.169 178.169 
179.293 178.761 179.483 178.877 179.559 179.026 179.659 149.421 148.75 
148.822 148.3 148.253 148.191 147.661 147.698 147.258 148.032 147.847 
147.353 147.228 146.856 146.849 146.653 147.836 147.668 147.149 147.019 
146.655 146.616 146.485 146.529 146.545 147.623 147.417 146.827 146.728 
146.308 146.366 146.221 146.379 146.402 146.524 146.56 147.767 147.352 
146.816 146.496 146.095 146.006 145.868 146.026 146.04 146.258 146.264 
146.443 146.448 148.295 147.76 147.334 146.805 146.456 146.065 145.906 
145.797 145.774 145.858 145.809 145.997 145.964 146.235 146.26 148.839 
148.354 147.904 147.419 146.986 146.552 146.219 145.963 145.774 145.693 
145.551 145.583 145.502 145.696 145.74 146.033 146.093 149.259 148.812 
148.275 147.852 147.295 146.914 146.396 146.136 145.762 145.657 145.439 
145.414 145.329 145.385 145.469 145.63 145.806 145.976 146.101 149.637 
148.557 149.294 149.68 147.46 148.156 148.551 149.338 149.786 146.777 
147.174 147.504 148.185 148.661 149.476 150.036 146.624 146.731 146.983 
147.359 147.838 148.458 149.075 149.838 150.478 146.612 146.656 146.783 
147.004 147.414 147.872 148.486 149.069 149.713 150.36 150.939 146.563 
146.611 146.606 146.735 146.937 147.395 147.923 148.555 149.164 149.739 
150.279 150.833 151.347 146.491 146.581 146.614 146.59 146.63 146.848 
147.237 147.853 148.512 149.19 149.804 150.319 150.859 151.334 151.898 
146.32 146.49 146.647 146.679 146.797 146.771 147.093 147.341 148.021 
148.575 149.371 149.922 150.595 151.017 151.61 152.016 152.605 146.212 
146.313 146.513 146.676 146.973 147.061 147.476 147.533 148.137 148.377 
149.153 149.592 150.347 150.799 151.421 151.81 152.36 152.749 153.283 
150.297 150.349 150.624 151.297 150.531 150.752 151.426 151.696 152.531 
150.852 151.037 151.767 151.935 152.748 153.075 154.059 151.257 151.434 
152.195 152.343 153.135 153.372 154.312 154.671 155.644 151.631 151.831 
152.573 152.76 153.536 153.762 154.675 154.986 155.962 156.26 157.203 
151.996 152.173 152.931 153.131 153.924 154.142 155.049 155.354 156.349 
156.646 157.609 157.869 158.838 152.499 152.583 153.371 153.54 154.381 
154.565 155.441 155.706 156.652 156.99 157.94 158.263 159.205 159.52 
160.467 153.143 153.155 153.903 154.035 154.871 155.048 155.874 156.083 
156.913 157.217 158.102 158.487 159.419 159.813 160.752 161.09 161.955 
153.791 153.794 154.469 154.566 155.337 155.511 156.297 156.484 157.251 
157.472 158.298 158.623 159.553 159.963 160.922 161.317 162.204 162.504 
163.275 157.619 156.873 156.815 155.937 156.054 156.044 155.187 155.137 
154.33 155.25 155.24 154.476 154.431 153.686 153.635 152.934 154.662 
154.576 153.92 153.829 153.16 153.062 152.384 152.308 151.636 154.222 
154.114 153.475 153.368 152.682 152.565 151.854 151.772 151.076 151.016 
150.374 153.788 153.671 152.98 152.892 152.139 152.036 151.273 151.208 
150.493 150.443 149.741 149.731 149.125 153.51 153.281 152.594 152.41 
151.682 151.499 150.78 150.658 150.023 149.923 149.244 149.111 148.395 
148.418 147.87 153.466 153.141 152.514 152.196 151.551 151.222 150.559 
150.3 149.716 149.56 148.98 148.762 148.072 147.837 147.227 147.238 
146.879 153.491 153.171 152.574 152.244 151.64 151.265 150.595 150.218 
149.531 149.286 148.669 148.517 147.928 147.7 147.16 146.922 146.572 
146.518 146.358 
POINT_DATA 1002
SCALARS Distance double
LOOKUP_TABLE default
150.701 149.729 150.485 151.558 151.326 151.921 152.525 152.338 152.861 
153.414 153.686 153.507 153.997 154.524 155.16 155.012 154.804 155.352 
155.894 156.505 157.068 156.446 156.261 156.788 157.369 158.015 158.58 
159.179 157.923 157.725 158.26 158.852 159.531 160.147 160.793 161.554 
159.328 159.023 159.766 160.416 161.125 161.772 162.441 163.187 163.957 
160.665 160.24 161.231 161.957 162.714 163.415 164.115 164.817 165.493 
166.161 161.967 161.464 162.581 163.305 164.063 164.822 165.605 166.339 
166.971 167.581 168.213 149.324 150.004 148.809 149.456 148.213 150.895 
149.055 147.89 150.518 152.037 149.002 148.016 150.36 151.817 153.262 
149.112 148.226 150.365 151.748 153.076 154.621 149.245 148.366 150.433 
151.794 153.06 154.493 156.198 149.594 148.727 150.712 151.985 153.224 
154.538 156.132 157.707 150.165 149.349 151.212 152.355 153.501 154.747 
156.184 157.665 159.003 150.708 149.977 151.698 152.788 153.842 155.008 
156.359 157.722 159.004 160.243 150.923 151.838 152.015 153.208 153.465 
153.019 154.825 155.071 154.533 154.171 156.367 156.563 156.132 155.732 
155.319 157.919 158.13 157.728 157.399 157.009 156.673 159.705 159.828 
159.526 159.163 158.728 158.39 158.064 161.374 161.399 161.274 160.952 
160.449 160.038 159.727 159.366 162.749 162.772 162.645 162.447 162.101 
161.722 161.422 161.091 160.666 164.064 164.011 163.955 163.797 163.626 
163.397 163.13 162.832 162.437 161.951 163.053 163.597 164.714 164.081 
165.264 166.442 164.492 165.768 167.098 168.412 164.874 166.279 167.662 
169.119 170.433 165.189 166.83 168.199 169.522 170.948 172.398 165.379 
167.292 168.828 169.905 171.134 172.834 174.628 165.509 167.525 169.344 
170.484 171.464 173.029 175.052 176.716 165.57 167.498 169.413 170.775 
171.828 173.244 175.127 176.871 177.936 165.427 167.186 169.025 170.463 
171.63 173.132 175.017 176.737 177.866 178.449 163.69 165.448 164.4 
167.345 166.245 165.169 169.499 168.369 167.203 166.027 171.683 170.714 
169.624 168.327 166.966 174.012 173.042 172.046 170.825 169.319 167.822 
176.362 175.454 174.387 173.221 171.717 170.084 168.522 177.919 177.445 
176.657 175.657 174.27 172.584 170.879 169.206 178.578 178.521 178.254 
177.71 176.681 175.188 173.499 171.724 169.918 178.926 179.1 179.576 
179.774 180.15 179.146 180.064 180.4 179.562 178.937 180.154 181.268 
179.425 178.914 178.257 181.457 183.278 180.01 178.775 178.007 177.079 
183.373 184.671 182.099 180.304 178.278 176.987 175.616 183.591 184.074 
183.265 182.389 179.907 177.316 175.668 173.908 182.067 182.259 182.068 
182.207 180.843 177.997 175.619 173.896 171.959 180.232 180.282 180.065 
180.204 179.784 177.9 175.506 173.625 171.886 169.989 178.567 179.063 
178.73 178.951 178.77 179.563 178.595 178.511 179.119 180.022 178.481 
177.896 179.134 180.205 181.027 178.425 176.814 180.079 181.636 182.689 
183.187 177.503 175.345 180.247 182.779 184.153 184.845 185.132 175.736 
173.781 178.481 181.383 183.007 183.752 184.7 185.025 173.835 172.229 
175.957 178.401 179.971 180.489 181.469 182.901 183.245 172.074 170.688 
173.704 175.601 177.152 177.778 178.279 179.544 180.798 181.003 164.578 
166.153 164.983 166.727 165.452 168.019 167.463 166.239 168.672 169.68 
168.378 167.144 169.423 170.174 170.927 169.168 167.934 170.242 170.99 
171.673 172.538 169.981 168.747 171.162 172.29 173.277 174.155 174.815 
170.945 169.579 172.258 173.722 175.224 176.307 176.794 176.855 171.738 
170.235 173.186 174.723 176.367 177.684 178.279 178.255 178.023 163.045 
163.471 161.871 162.277 160.514 163.809 160.97 159.156 162.716 164.292 
159.645 158.015 161.539 163.244 165.044 158.467 157.064 160.242 162.084 
163.871 165.877 157.407 156.119 158.976 160.788 162.653 164.603 166.686 
156.414 155.191 157.824 159.488 161.376 163.372 165.4 167.497 155.549 
154.412 156.84 158.31 160.058 162.091 164.153 166.159 168.228 154.805 