# vtk DataFile Version 4.0
vtk output
ASCII
DATASET POLYDATA
POINTS 1002 float
-104.907 -86.1902 78.5015 -104.847 -85.6613 77.5461 -105.234 -85.4879 78.3229 
-105.3 -86.052 79.3574 -105.667 -85.2953 79.2435 -105.033 -86.8743 79.5154 
-105.761 -85.9825 80.3802 -106.225 -85.2837 80.193 -105.42 -86.7878 80.5337 
-105.161 -87.7537 80.6922 -106.306 -86.1165 81.4194 -106.829 -85.435 81.0562 
-105.846 -86.8149 81.7442 -105.531 -87.7544 81.9281 -105.41 -88.8462 81.9787 
-106.899 -86.3217 82.336 -107.397 -85.5093 81.9431 -106.407 -87.1048 82.7962 
-105.981 -87.9364 83.1759 -105.812 -89.0673 83.2648 -105.832 -90.2374 83.253 
-107.556 -86.467 83.2372 -108.004 -85.6313 82.9396 -107.172 -87.5276 83.5394 
-106.722 -88.4581 83.9712 -106.38 -89.4485 84.2968 -106.26 -90.6511 84.4381 
-106.127 -91.7325 84.6551 -108.207 -86.7685 84.1571 -108.671 -86.099 83.8092 
-107.942 -87.8929 84.314 -107.659 -89.0689 84.5427 -107.229 -90.0037 84.9466 
-106.898 -91.0302 85.3154 -106.658 -92.1165 85.6393 -106.396 -93.0343 85.9891 
-108.79 -87.3044 84.9317 -109.347 -86.7452 84.4341 -108.463 -88.2491 85.2478 
-108.353 -89.4928 85.4288 -108.082 -90.5395 85.7038 -107.682 -91.4604 86.0787 
-107.42 -92.5051 86.3973 -107.244 -93.5025 86.6265 -107.142 -94.4201 86.8129 
-109.42 -87.8717 85.5601 -110.003 -87.2869 84.9959 -108.94 -88.6797 86.0834 
-108.789 -89.8432 86.4451 -108.71 -91.0396 86.6871 -108.424 -92.057 86.9349 
-108.164 -93.0928 87.1823 -108.094 -94.1733 87.3142 -108.11 -95.1988 87.3437 
-108.179 -96.2148 87.3982 -110.121 -88.4091 86.1242 -110.592 -87.7496 85.5753 
-109.623 -89.2053 86.688 -109.349 -90.3031 87.1507 -109.288 -91.6045 87.4575 
-109.128 -92.8288 87.6817 -108.854 -93.9199 87.9279 -108.719 -94.9865 88.1422 
-108.749 -96.0623 88.2129 -108.843 -97.1422 88.2029 -108.946 -98.1805 88.2447 
-105.171 -85.0567 77.028 -105.568 -84.7648 77.896 -105.586 -84.3102 76.5473 
-105.922 -83.8809 77.4805 -105.877 -83.4195 76.1525 -106.036 -84.5013 78.8848 
-106.194 -82.9891 77.0929 -106.123 -82.5631 75.7211 -106.426 -83.6502 78.474 
-106.689 -84.5397 79.7967 -106.684 -82.3122 76.6442 -106.764 -82.0048 75.1292 
-106.861 -82.9345 78.0451 -107.207 -83.8279 79.3521 -107.375 -84.729 80.6082 
-107.586 -81.8793 76.086 -107.735 -81.7666 74.4825 -107.549 -82.339 77.6015 
-107.782 -83.1682 78.983 -107.984 -84.0465 80.2259 -107.984 -84.8203 81.5669 
-108.449 -81.5892 75.512 -108.509 -81.5034 73.9094 -108.376 -81.8169 77.0985 
-108.43 -82.4574 78.647 -108.564 -83.2752 80.0265 -108.608 -84.1331 81.289 
-108.626 -85.0887 82.6117 -109.062 -81.3171 74.995 -109.066 -80.9986 73.3867 
-109.103 -81.4953 76.6039 -109.138 -81.912 78.1902 -109.158 -82.5614 79.7821 
-109.169 -83.3427 81.1553 -109.238 -84.4415 82.323 -109.341 -85.6796 83.4237 
-109.726 -81.027 74.533 -109.708 -80.5057 72.9248 -109.852 -81.2981 76.2323 
-109.958 -81.6141 77.7673 -109.929 -82.1804 79.3263 -109.826 -82.8088 80.8861 
-109.818 -83.6969 82.1357 -109.943 -84.9955 83.119 -110.042 -86.2782 84.0527 
-110.508 -80.8512 74.1561 -110.443 -80.3439 72.6244 -110.667 -81.113 75.9495 
-110.825 -81.3259 77.5329 -110.824 -81.8852 78.9128 -110.668 -82.599 80.391 
-110.537 -83.2799 81.8108 -110.54 -84.2681 82.9084 -110.614 -85.5557 83.8059 
-110.641 -86.7528 84.6914 -111.23 -80.7965 73.3929 -111.384 -81.0344 75.2047 
-112.01 -81.2115 74.4612 -112.139 -81.1905 76.3555 -112.704 -81.5443 75.5656 
-111.561 -81.0667 77.0667 -112.771 -81.6864 77.2687 -113.386 -82.0221 76.4898 
-112.236 -81.3255 78.0283 -111.635 -81.4502 78.5299 -113.478 -82.556 77.9649 
-114.078 -82.6252 77.2828 -112.811 -82.2813 78.7038 -112.218 -82.1057 79.3439 
-111.527 -82.3424 79.8614 -114.163 -83.2979 78.7233 -114.62 -83.3555 78.0456 
-113.448 -83.3804 79.4188 -112.74 -83.224 80.0837 -112.116 -83.1337 80.7288 
-111.37 -83.1882 81.3421 -114.585 -84.0768 79.6325 -114.851 -84.492 78.9019 
-114 -84.1111 80.3748 -113.292 -84.1771 80.9953 -112.68 -84.0766 81.6061 
-112.056 -83.9852 82.2326 -111.284 -84.0071 82.7017 -114.758 -85.3251 80.6903 
-114.826 -85.8986 79.9628 -114.388 -85.01 81.4416 -113.817 -84.9838 82.018 
-113.244 -85.0153 82.5434 -112.671 -84.9942 83.1197 -111.969 -84.9859 83.5859 
-111.233 -85.1551 83.7877 -114.822 -86.7556 81.8054 -114.751 -87.1652 81.0751 
-114.64 -86.3501 82.5149 -114.239 -86.1016 83.015 -113.765 -86.0544 83.4707 
-113.238 -86.1116 84.0121 -112.554 -86.1608 84.4731 -111.81 -86.2303 84.705 
-111.185 -86.4425 84.7321 -114.842 -88.0329 82.771 -114.746 -88.2634 82.01 
-114.741 -87.7819 83.4847 -114.439 -87.5278 83.9441 -114.08 -87.3372 84.3428 
-113.698 -87.2771 84.8716 -113.119 -87.3294 85.3237 -112.357 -87.4055 85.5457 
-111.676 -87.4903 85.6192 -111.137 -87.6177 85.612 -110.91 -88.7754 86.4529 
-111.466 -88.7899 86.4505 -111.275 -90.16 87.2581 -112.069 -88.7581 86.4098 
-111.826 -90.2681 87.2493 -111.619 -91.7937 88.083 -112.847 -88.6819 86.3858 
-112.516 -90.2807 87.2782 -112.182 -91.942 88.2303 -111.946 -93.5245 89.1432 
-113.551 -88.6539 86.2177 -113.301 -90.3108 87.3721 -112.929 -92.087 88.4089 
-112.579 -93.7606 89.4143 -112.376 -95.4529 90.1907 -113.918 -88.7789 85.7079 
-113.797 -90.5037 87.1646 -113.628 -92.3382 88.4915 -113.339 -94.0621 89.5711 
-113.076 -95.8273 90.3332 -112.878 -97.809 90.8086 -114.175 -88.9883 85.1591 
-114.002 -90.7553 86.5589 -114.03 -92.6011 88.1364 -113.994 -94.3313 89.5375 
-113.807 -96.1811 90.4124 -113.56 -98.3831 90.8634 -113.31 -100.745 91.1732 
-114.515 -89.1422 84.7584 -114.269 -90.8499 86.0292 -114.301 -92.683 87.5206 
-114.447 -94.4468 89.149 -114.404 -96.422 90.4048 -114.216 -98.888 91.0197 
-113.95 -101.583 91.2997 -113.723 -104.167 91.5016 -114.776 -89.2411 84.1673 
-114.592 -90.8159 85.5563 -114.562 -92.6143 87.0137 -114.72 -94.4756 88.5776 
-114.747 -96.6266 90.0444 -114.644 -99.3151 91.0264 -114.52 -102.263 91.4469 
-114.341 -105.066 91.5811 -114.204 -107.593 91.6148 -114.834 -89.3718 83.3196 
-114.784 -90.8416 84.7948 -114.726 -92.5827 86.4123 -114.807 -94.5016 87.9976 
-114.836 -96.8025 89.4102 -114.753 -99.6534 90.5685 -114.773 -102.726 91.2944 
-114.828 -105.602 91.5461 -114.769 -108.188 91.5316 -114.677 -110.475 91.446 
-110.523 -89.6436 87.0176 -111.009 -91.2866 87.7846 -110.178 -90.7347 87.5011 
-111.418 -93.1412 88.6454 -110.804 -92.6641 88.1713 -110.018 -92.1283 87.8575 
-111.786 -95.1085 89.7679 -111.263 -94.7415 89.101 -110.654 -94.2784 88.5483 
-109.891 -93.6271 88.1707 -112.265 -97.4029 90.6756 -111.682 -96.945 90.2271 
-111.104 -96.4356 89.617 -110.414 -95.807 89.0696 -109.605 -94.9304 88.548 
-112.773 -100.275 91.1266 -112.227 -99.6352 90.9296 -111.615 -98.8237 90.5811 
-110.897 -97.9399 90.1662 -110.075 -97.033 89.6449 -109.317 -96.03 88.9582 
-113.256 -103.791 91.4524 -112.801 -103.118 91.3082 -112.246 -102.094 91.0724 
-111.544 -100.761 90.8401 -110.679 -99.3906 90.575 -109.812 -98.2056 90.0866 
-109.205 -97.1377 89.2338 -113.804 -107.564 91.6333 -113.394 -107.134 91.5981 
-112.844 -106.215 91.481 -112.198 -104.749 91.2758 -111.483 -102.875 91.033 
-110.578 -101.025 90.8012 -109.738 -99.5491 90.3062 -109.245 -98.3378 89.3197 
-114.356 -110.871 91.5064 -114.005 -110.835 91.5664 -113.432 -110.236 91.6628 
-112.707 -109.014 91.6944 -112.141 -107.162 91.45 -111.545 -104.854 91.102 
-110.633 -102.616 90.8669 -109.802 -100.875 90.3573 -109.345 -99.4944 89.3371 
-114.873 -113.26 91.1849 -114.59 -113.701 91.2172 -114.932 -115.63 90.8614 
-114.622 -115.717 90.7397 -114.838 -117.418 90.2766 -114.138 -113.518 91.2898 
-114.513 -116.875 89.9177 -114.755 -118.937 89.1213 -114.038 -115.12 90.7027 
-113.319 -112.673 91.5504 -114.431 -117.772 88.8386 -114.676 -120.098 87.7949 
-113.896 -115.867 89.8212 -113.117 -114.075 91.0322 -112.564 -111.188 91.6807 
-114.158 -118.349 88.1118 -114.275 -120.125 87.1721 -113.72 -116.395 89.106 
-112.964 -114.747 90.2848 -112.494 -112.476 91.2018 -112.196 -108.943 91.3314 
-113.43 -118.046 87.9468 -113.46 -118.98 87.2453 -113.235 -116.509 88.8461 
-112.7 -114.951 89.8138 -112.332 -112.918 90.5893 -112.173 -109.838 90.9218 
-111.578 -106.108 90.9752 -112.542 -116.946 87.9253 -112.615 -117.283 87.4289 
-112.524 -115.883 88.6736 -112.304 -114.488 89.5345 -112.014 -112.578 90.2007 
-111.825 -109.785 90.5587 -111.356 -106.546 90.7764 -110.53 -103.489 90.7756 
-111.958 -115.169 87.9581 -112.096 -115.099 87.6231 -111.943 -114.537 88.4839 
-111.92 -113.367 89.1981 -111.737 -111.635 89.8875 -111.388 -109.128 90.3295 
-110.874 -106.299 90.5928 -110.258 -103.786 90.6004 -109.729 -101.569 90.1309 
-111.737 -112.644 88.17 -111.876 -112.336 87.9178 -111.627 -112.406 88.5031 
-111.55 -111.612 88.9828 -111.418 -110.253 89.5843 -111.047 -108.211 90.0779 
-110.438 -105.793 90.3335 -109.88 -103.661 90.2974 -109.548 -101.862 89.8254 
-109.293 -100.038 89.0216 -115.14 -111.478 91.1936 -115.258 -114.167 90.8693 
-115.497 -112.015 90.8363 -115.568 -114.545 90.3819 -115.563 -112.093 90.4023 
-115.231 -116.607 90.4518 -115.559 -114.262 89.8313 -115.339 -111.812 89.9381 
-115.557 -117.044 89.6651 -115.159 -118.874 89.4993 -115.219 -113.443 89.4705 
-115.181 -111.213 89.4218 -115.527 -116.396 89.026 -115.586 -119.544 88.3184 
-115.141 -120.886 87.8759 -115.018 -112.414 89.1464 -115.181 -109.861 88.9098 
-115.067 -114.95 89.0016 -115.534 -118.451 87.9196 -115.565 -121.271 86.7902 
-114.976 -121.612 86.6201 -114.966 -110.676 88.718 -114.901 -107.238 88.5694 
-114.753 -113.392 88.9142 -114.962 -116.345 88.3765 -115.414 -119.447 87.0398 
-115.212 -120.98 86.2426 -114.38 -120.479 86.5304 -114.576 -107.594 88.4224 
-114.244 -103.908 88.2384 -114.609 -111.029 88.5207 -114.566 -113.992 88.4369 
-114.819 -116.731 87.7741 -114.959 -118.638 86.9252 -114.436 -119.091 86.6562 
-113.478 -118.463 86.9546 -113.906 -104 88.1005 -113.602 -101.078 87.5557 
-114.211 -107.39 88.2711 -114.355 -110.647 88.1787 -114.405 -113.498 87.9219 
-114.425 -115.668 87.5608 -114.18 -116.748 87.2461 -113.507 -116.814 87.1286 
-112.688 -116.211 87.2689 -113.334 -101.163 87.3543 -113.172 -99.2399 86.5086 
-113.622 -103.681 87.9093 -113.931 -106.512 88.031 -114.077 -109.329 87.8826 
[...]
CELL_DATA 2000
SCALARS Distance double
LOOKUP_TABLE default
155.479 156.085 155.954 156.362 156.847 156.638 157.072 156.927 157.433 
157.76 157.506 157.962 157.736 158.271 158.112 158.734 158.686 158.462 
158.966 158.721 159.279 159.056 159.72 159.557 160.307 159.633 159.406 
159.992 159.776 160.405 160.154 160.834 160.624 161.401 161.248 162.049 
160.701 160.419 161.046 160.846 161.563 161.338 162.043 161.79 162.533 
162.353 163.139 162.988 163.73 161.815 161.517 162.103 161.914 162.656 
162.505 163.257 163.02 163.729 163.494 164.249 164.072 164.834 164.642 
165.381 162.878 162.6 163.14 162.942 163.66 163.564 164.374 164.217 
164.963 164.711 165.455 165.228 166.035 165.817 166.633 166.389 167.233 
163.88 163.639 164.19 163.97 164.667 164.557 165.402 165.315 166.149 
165.954 166.731 166.485 167.302 167.08 167.94 167.711 168.584 168.351 
169.25 155.086 154.715 155.143 155.667 154.286 154.746 155.271 155.762 
156.389 153.797 154.277 154.828 155.361 156.04 156.576 157.288 153.499 
153.865 154.484 154.966 155.723 156.263 157.028 157.518 158.214 153.568 
153.774 154.42 154.763 155.554 156.031 156.849 157.306 158.032 158.451 
159.15 153.745 153.948 154.531 154.797 155.516 155.929 156.731 157.173 
157.919 158.321 159.055 159.466 160.231 153.759 154.059 154.631 154.901 
155.556 155.905 156.661 157.074 157.819 158.223 158.97 159.401 160.203 
160.622 161.39 153.743 154.061 154.754 155.024 155.737 155.998 156.758 
157.072 157.837 158.172 158.918 159.313 160.112 160.571 161.371 161.771 
162.474 153.929 154.179 154.993 155.249 156.044 156.261 157.029 157.264 
158.035 158.294 159.041 159.332 160.091 160.477 161.267 161.702 162.438 
162.81 163.456 154.414 155.631 155.164 155.493 156.843 156.385 156.672 
156.246 156.541 158.013 157.554 157.803 157.379 157.66 157.247 157.518 
159.227 158.755 159.022 158.53 158.811 158.365 158.675 158.241 158.522 
160.409 159.989 160.316 159.821 160.11 159.591 159.91 159.44 159.762 
159.278 159.539 161.553 161.157 161.52 161.099 161.419 160.925 161.229 
160.732 161.064 160.564 160.856 160.314 160.576 162.779 162.354 162.75 
162.312 162.683 162.211 162.552 162.064 162.418 161.914 162.243 161.683 
161.962 161.397 161.702 164.022 163.639 164.094 163.63 164.03 163.52 
163.896 163.4 163.797 163.304 163.671 163.114 163.402 162.81 163.082 
162.54 162.841 165.141 164.86 165.364 164.98 165.383 164.896 165.246 
164.755 165.149 164.687 165.077 164.554 164.842 164.247 164.478 163.905 
164.154 163.632 163.874 164.596 164.927 165.127 165.895 165.274 165.475 
166.282 166.502 167.357 165.677 165.879 166.721 166.924 167.833 168.046 
168.989 165.968 166.281 167.199 167.438 168.412 168.604 169.615 169.788 
170.81 166.039 166.469 167.451 167.868 168.932 169.236 170.3 170.486 
171.533 171.685 172.737 166.097 166.496 167.458 167.983 169.104 169.635 
170.776 171.135 172.205 172.416 173.484 173.653 174.767 166.219 166.583 
167.484 167.959 169.048 169.668 170.875 171.452 172.619 173.014 174.157 
174.417 175.61 175.792 177.036 166.182 166.635 167.485 167.97 168.981 
169.584 170.772 171.443 172.691 173.291 174.554 175.025 176.323 176.649 
177.949 178.155 179.427 165.92 166.457 167.279 167.854 168.817 169.46 
170.586 171.295 172.527 173.253 174.556 175.258 176.621 177.215 178.543 
178.951 180.169 180.44 181.556 164.599 165.936 165.171 165.004 167.453 
166.639 166.543 165.673 165.557 169.112 168.264 168.259 167.351 167.3 
166.375 166.331 170.946 170.046 170.113 169.174 169.199 168.233 168.211 
167.234 167.139 172.914 171.997 172.13 171.146 171.219 170.211 170.22 
169.186 169.081 168.01 167.798 175 174.061 174.286 173.271 173.382 
172.314 172.322 171.236 171.133 170.011 169.799 168.657 168.406 177.338 
176.327 176.696 175.593 175.819 174.623 174.677 173.444 173.352 172.126 
171.932 170.726 170.489 169.312 169.067 179.812 178.841 179.369 178.234 
178.625 177.313 177.497 176.057 176.04 174.567 174.407 172.997 172.782 
171.479 171.251 170.016 169.762 182 181.269 181.866 180.936 181.396 
180.22 180.467 179.057 179.092 177.516 177.37 175.735 175.478 173.936 
173.667 172.286 172.025 170.736 170.457 183.205 184.787 183.803 183.194 
185.834 185.167 184.64 183.651 182.783 186.295 185.854 185.282 184.734 
183.974 183.011 181.872 186.433 186.056 185.35 185.016 184.331 183.837 
182.891 181.888 180.519 186.234 186.028 185.259 184.957 184.259 183.966 
183.205 182.624 181.441 180.338 178.766 185.424 185.568 184.855 184.75 
184.013 183.823 183.059 182.734 181.672 180.96 179.452 178.36 176.709 
184.106 184.515 183.896 184.092 183.37 183.396 182.55 182.403 181.286 
180.88 179.423 178.706 177.081 176.174 174.676 182.58 183.108 182.562 
182.941 182.271 182.504 181.66 181.68 180.525 180.277 178.839 178.39 
176.88 176.285 174.861 174.157 172.888 180.934 181.547 181.032 181.519 
180.863 181.234 180.423 180.615 179.528 179.417 178.047 177.715 176.31 
175.922 174.644 174.175 172.974 172.389 171.248 183.439 184.032 184.213 
184.963 184.177 184.612 185.436 185.606 186.097 183.808 184.484 185.38 
185.897 186.572 186.6 186.779 183.094 183.86 184.692 185.537 186.402 
186.921 187.365 187.193 187.087 182.196 183.022 183.693 184.599 185.456 
186.416 187.104 187.535 187.59 187.313 186.865 180.768 181.928 182.556 
183.497 184.172 185.226 185.931 186.85 187.064 187.374 186.922 186.691 
185.916 178.533 180.107 180.798 182.088 182.636 183.78 184.304 185.4 
185.655 186.399 186.064 186.278 185.496 185.365 184.466 175.984 177.606 
178.291 179.907 180.434 181.873 182.24 183.526 183.706 184.737 184.527 
185.109 184.458 184.632 183.761 183.725 182.838 173.772 175.11 175.677 
177.232 177.721 179.304 179.602 181.096 181.196 182.518 182.368 183.344 
182.841 183.373 182.579 182.793 181.899 181.98 181.108 165.987 166.698 
166.667 167.422 167.74 167.572 168.386 168.268 169.087 168.853 168.724 
169.578 169.409 170.31 170.107 170.963 169.702 169.752 170.671 170.627 
171.598 171.449 172.408 172.124 172.979 170.406 170.522 171.554 171.654 
172.784 172.772 173.902 173.685 174.702 174.278 175.131 171.208 171.315 
172.507 172.63 174.016 174.07 175.484 175.326 176.581 176.172 177.204 
176.586 177.374 171.986 172.195 173.569 173.774 175.413 175.532 177.196 
177.092 178.523 178.168 179.303 178.748 179.607 178.852 179.426 172.589 
172.947 174.46 174.875 176.669 177.004 178.751 178.824 180.23 180.032 
181.094 180.72 181.537 180.98 181.557 180.759 181.093 173.077 173.518 
175.084 175.67 177.492 178.08 179.78 180.117 181.373 181.413 182.309 
182.188 182.922 182.645 183.224 182.694 183.067 182.264 182.455 165.24 
164.342 165.117 165.894 163.513 164.256 165.056 165.919 166.891 162.689 
163.435 164.214 165.092 166.056 166.991 167.97 161.836 162.582 163.322 
164.209 165.103 166.072 166.986 167.948 168.782 161.01 161.711 162.394 
163.259 164.075 165.031 165.864 166.85 167.673 168.643 169.447 160.262 
160.888 161.47 162.276 163.01 163.943 164.722 165.687 166.497 167.497 
168.36 169.34 170.192 159.613 160.16 160.643 161.328 161.955 162.831 
163.581 164.539 165.331 166.324 167.183 168.219 169.086 170.08 170.887 
159.051 159.544 159.986 160.538 161.065 161.797 162.496 163.404 164.195 
165.163 165.975 167.001 167.834 168.883 169.663 170.673 171.414 158.527 
158.998 159.427 159.922 160.394 160.984 161.598 162.378 163.134 164.042 
164.817 165.781 166.553 167.58 168.349 169.382 170.106 171.129 171.863 
158.354 158.381 158.669 159.271 158.537 158.772 159.447 159.658 160.285 
158.857 159.037 159.748 159.923 160.62 160.771 161.494 159.191 159.379 
160.076 160.265 160.982 161.162 161.947 162.128 162.987 159.561 159.702 
160.401 160.587 161.328 161.534 162.364 162.597 163.511 163.721 164.643 
160.134 160.164 160.904 161.001 161.827 161.968 162.877 163.067 164.047 
164.259 165.245 165.419 166.365 160.796 160.813 161.56 161.622 162.504 
162.612 163.592 163.716 164.738 164.88 165.916 166.069 167.081 167.204 
168.161 161.339 161.425 162.144 162.262 163.127 163.307 164.308 164.486 
165.515 165.645 166.67 166.8 167.842 167.971 168.976 169.043 169.956 
161.785 161.908 162.635 162.785 163.645 163.869 164.89 165.149 166.214 
166.403 167.424 167.562 168.598 168.748 169.8 169.9 170.88 170.869 
171.753 162.272 163.495 162.967 163.207 165.07 164.407 164.719 164.047 
164.335 166.883 166.176 166.608 165.815 166.17 165.362 165.692 168.795 
168.085 168.602 167.833 168.263 167.393 167.719 166.825 167.088 170.935 
170.134 170.712 169.891 170.384 169.526 169.882 168.944 169.159 168.196 
168.343 173.417 172.531 173.283 172.266 172.871 171.81 172.268 171.197 
171.485 170.384 170.54 169.462 169.577 175.977 175.189 176.168 175.146 
175.95 174.69 175.275 173.913 174.317 172.96 173.202 171.883 172.009 
170.782 170.854 178.239 177.684 178.758 178.027 178.987 177.927 178.622 
177.227 177.663 176.114 176.375 174.821 174.93 173.437 173.42 172.064 
171.99 180.012 179.7 180.714 180.327 181.297 180.686 181.436 180.431 
180.86 179.486 179.672 178.11 178.138 176.513 176.39 174.79 174.563 
173.119 172.893 161.919 161.723 162.218 163.099 161.535 162.046 162.962 
163.519 164.579 161.286 161.852 162.79 163.388 164.481 165.114 166.313 
160.902 161.538 162.515 163.201 164.347 165.029 166.277 166.927 168.207 
160.528 161.123 162.11 162.866 164.074 164.869 166.168 166.894 168.227 
168.89 170.279 160.37 160.836 161.787 162.467 163.688 164.538 165.886 
166.72 168.087 168.868 170.313 171.061 172.603 160.347 160.762 161.68 
162.239 163.431 164.199 165.579 166.414 167.826 168.664 170.155 171.022 
172.622 173.454 175.055 160.285 160.726 161.622 162.162 163.315 164.026 
165.405 166.19 167.616 168.416 169.906 170.806 172.432 173.38 175.011 
175.855 177.331 160.189 160.63 161.501 162.053 163.159 163.882 165.219 
166.032 167.416 168.215 169.604 170.495 172.028 173.065 174.677 175.676 
177.141 177.954 179.175 161.203 160.041 160.724 160.944 158.831 159.51 
159.704 160.457 160.724 157.641 158.283 158.429 159.171 159.414 160.214 
160.459 156.525 157.119 157.199 157.866 158.016 158.823 159.036 159.872 
160.062 155.467 156.034 156.07 156.641 156.655 157.363 157.493 158.36 
158.585 159.452 159.696 154.396 154.961 154.968 155.51 155.45 156.023 
156.036 156.797 157.011 157.932 158.279 159.176 159.543 153.373 153.885 
153.877 154.396 154.354 154.867 154.853 155.448 155.592 156.393 156.746 
157.711 158.161 159.095 159.508 152.597 152.981 153.021 153.405 153.408 
153.838 153.878 154.381 154.506 155.121 155.387 156.21 156.645 157.631 
158.113 159.056 159.454 152.134 152.411 152.534 152.761 152.775 153.038 
153.066 153.476 153.602 154.129 154.333 154.976 155.315 156.161 156.651 
157.617 158.11 159.004 159.395 152.043 152.026 152.183 152.399 151.711 
151.988 152.124 152.377 152.528 151.258 151.499 151.585 151.933 152.095 
152.436 152.712 151.165 151.161 151.266 151.447 151.692 151.991 152.359 
152.739 153.218 151.523 151.351 151.564 151.483 151.798 151.825 152.232 
152.466 153.008 153.381 153.968 152.088 151.877 152.193 152.052 152.409 
152.236 152.569 152.537 153.034 153.271 153.938 154.263 154.966 152.842 
152.548 152.872 152.728 153.106 152.929 153.217 153.03 153.444 153.48 
154.188 154.409 155.247 155.479 156.318 153.779 153.409 153.693 153.449 
153.819 153.621 153.964 153.738 154.173 154.066 154.787 154.873 155.78 
155.933 156.825 156.977 157.803 154.713 154.37 154.634 154.326 154.671 
154.407 154.806 154.562 155.068 154.905 155.615 155.604 156.471 156.561 
157.419 157.53 158.303 158.423 159.12 155.271 156.177 155.561 155.267 
157.251 156.56 156.291 155.613 155.325 158.543 157.741 157.487 156.729 
156.467 155.741 155.486 160.116 159.175 158.923 158.037 157.81 156.998 
156.809 156.022 155.848 161.892 160.899 160.677 159.642 159.414 158.468 
158.323 157.475 157.385 156.544 156.474 163.616 162.717 162.603 161.556 
161.379 160.273 160.117 159.113 159.037 158.156 158.13 157.288 157.296 
165.297 164.445 164.471 163.529 163.499 162.397 162.292 161.118 161.011 
159.934 159.883 158.96 158.961 158.138 158.171 167.193 166.265 166.406 
165.464 165.566 164.543 164.534 163.385 163.283 162.083 161.969 160.846 
160.774 159.811 159.793 158.976 158.996 169.269 168.329 168.541 167.545 
167.681 166.643 166.649 165.562 165.458 164.327 164.173 163.016 162.848 
161.73 161.593 160.62 160.556 159.75 159.754 160.402 161.274 161.116 
161.774 162.432 162.176 162.952 162.707 163.54 163.784 163.505 164.379 
164.081 165.024 164.727 165.683 165.13 164.909 165.837 165.587 166.573 
166.308 167.316 166.988 167.909 166.43 166.257 167.246 167.048 168.104 
167.88 168.944 168.645 169.639 169.23 170.128 167.725 167.611 168.716 
168.524 169.719 169.496 170.724 170.395 171.544 171.086 172.162 171.612 
172.622 168.901 168.939 170.173 170.065 171.349 171.195 172.577 172.329 
173.667 173.21 174.433 173.842 174.992 174.322 175.34 169.829 170.053 
171.362 171.445 172.723 172.736 174.118 174.115 175.551 175.352 176.637 
176.174 177.299 176.706 177.7 177.002 177.806 170.515 170.863 172.179 
172.454 173.717 173.902 175.217 175.42 176.844 176.979 178.292 178.149 
179.194 178.805 179.663 179.149 179.862 179.216 179.772 153.245 153.108 
152.862 152.435 153.205 152.873 152.424 152.233 152.004 153.185 152.944 
152.424 152.236 151.913 151.873 151.695 152.957 152.776 152.151 152.039 
151.604 151.666 151.48 151.55 151.389 152.955 152.619 152.033 151.747 
151.299 151.268 151.158 151.309 151.319 151.329 151.233 153.369 152.892 
152.47 151.947 151.601 151.239 151.191 151.141 151.308 151.335 151.386 
151.274 151.179 153.867 153.429 153.04 152.557 152.212 151.779 151.628 
151.402 151.468 151.425 151.516 151.449 151.406 151.248 151.161 154.251 
153.864 153.391 153.006 152.541 152.23 151.888 151.719 151.535 151.511 
151.457 151.506 151.518 151.485 151.485 151.319 151.335 154.614 154.206 
153.715 153.287 152.784 152.423 152.021 151.796 151.509 151.417 151.245 
151.31 151.327 151.486 151.63 151.662 151.782 151.621 151.725 153.301 
152.486 152.968 153.337 152.063 152.342 152.682 153.195 153.718 151.737 
151.973 152.244 152.673 153.171 153.702 154.251 151.357 151.56 151.731 
152.179 152.642 153.204 153.744 154.259 154.766 151.144 151.207 151.319 
151.64 152.093 152.647 153.253 153.787 154.31 154.774 155.257 151.1 
151.105 151.263 151.414 151.876 152.234 152.883 153.349 153.96 154.387 
154.892 155.297 155.781 151.085 151.093 151.309 151.475 151.952 152.202 
152.772 153.095 153.678 154.077 154.637 155.025 155.536 155.887 156.384 
151.227 151.134 151.338 151.504 151.992 152.274 152.781 153.03 153.478 
153.804 154.323 154.757 155.311 155.703 156.206 156.537 157.026 151.613 
151.401 151.563 151.592 152.058 152.291 152.83 153.039 153.461 153.653 
154.096 154.441 154.988 155.424 155.943 156.334 156.793 157.154 157.611 
154.026 154.045 154.4 155.255 154.353 154.537 155.332 155.695 156.529 
154.82 154.907 155.616 155.857 156.655 156.965 157.739 155.321 155.383 
156.054 156.2 156.941 157.156 157.902 158.175 158.922 155.811 155.882 
156.572 156.681 157.399 157.513 158.214 158.389 159.108 159.367 160.092 
156.287 156.356 157.045 157.189 157.907 158.007 158.68 158.774 159.473 
159.632 160.359 160.559 161.272 156.822 156.83 157.464 157.609 158.306 
158.459 159.108 159.229 159.894 160.044 160.755 160.911 161.609 161.77 
162.477 157.445 157.394 157.964 158.025 158.669 158.805 159.429 159.579 
160.197 160.391 161.055 161.268 161.922 162.107 162.746 162.955 163.64 
158.051 158.014 158.543 158.544 159.12 159.185 159.78 159.888 160.493 
160.652 161.294 161.503 162.152 162.357 162.973 163.176 163.802 164.058 
164.721 161.143 160.705 160.632 160.01 160.158 160.153 159.527 159.457 
158.809 159.486 159.527 158.911 158.916 158.26 158.224 157.602 158.903 
158.857 158.237 158.25 157.607 157.612 156.967 156.993 156.438 158.505 
158.358 157.717 157.642 157.028 156.98 156.354 156.335 155.761 155.837 
155.358 158.14 157.976 157.311 157.199 156.612 156.516 155.947 155.832 
155.271 155.218 154.721 154.784 154.329 157.841 157.624 156.966 156.816 
156.238 156.145 155.61 155.507 154.97 154.849 154.315 154.24 153.735 
153.761 153.317 157.756 157.451 156.851 156.583 156.018 155.823 155.272 
155.152 154.626 154.546 154.02 153.909 153.347 153.248 152.741 152.786 
152.457 157.791 157.481 156.94 156.614 156.077 155.748 155.179 154.897 
154.361 154.21 153.753 153.643 153.143 152.957 152.412 152.295 151.911 
152.03 151.893 
POINT_DATA 1002
SCALARS Distance double
LOOKUP_TABLE default
155.834 155.026 155.579 156.451 156.227 156.803 157.239 157.076 157.529 
157.968 158.205 158.002 158.444 158.843 159.392 159.182 158.877 159.515 
159.882 160.438 161.094 160.163 159.862 160.635 161.067 161.554 162.214 
162.843 161.234 161.008 161.744 162.313 162.752 163.294 163.911 164.438 
162.312 162.128 162.766 163.461 163.998 164.439 165.015 165.578 166.126 
163.362 163.146 163.75 164.468 165.195 165.697 166.232 166.86 167.463 
168.111 164.409 164.087 164.8 165.455 166.284 166.971 167.528 168.149 
168.812 169.48 170.161 154.656 155.197 154.294 154.752 153.816 155.866 
154.266 153.313 155.467 156.788 154.02 153.168 155.168 156.535 157.764 
154.139 153.403 155.104 156.392 157.621 158.713 154.306 153.531 155.152 
156.295 157.509 158.631 159.824 154.343 153.408 155.247 156.272 157.421 
158.531 159.75 161.037 154.436 153.387 155.487 156.478 157.527 158.567 
159.66 160.928 162.151 154.718 153.684 155.828 156.821 157.791 158.79 
159.77 160.846 162.03 163.135 154.842 155.936 156.118 157.106 157.31 
156.978 158.25 158.483 158.058 157.945 159.535 159.666 159.284 159.093 
158.989 160.769 160.794 160.648 160.4 160.24 160.06 161.911 161.958 
161.883 161.73 161.559 161.396 161.114 163.197 163.188 163.147 163.023 
162.906 162.792 162.543 162.232 164.538 164.344 164.552 164.395 164.273 
164.215 164.009 163.658 163.359 165.702 165.381 165.856 165.745 165.601 
165.577 165.441 165.078 164.701 164.402 165.302 165.68 166.705 166.046 
167.125 168.244 166.516 167.606 168.773 169.954 166.89 168.196 169.438 
170.639 171.841 166.943 168.524 170.08 171.385 172.578 173.798 166.949 
168.486 170.307 171.945 173.291 174.589 175.922 167.06 168.447 170.216 
172.107 173.81 175.377 176.875 178.322 166.993 168.407 170.095 172.01 
173.962 175.897 177.705 179.277 180.692 166.679 168.168 169.882 171.786 
173.792 175.923 178.054 179.881 181.359 182.624 165.804 167.411 166.417 
169.139 168.229 167.257 171.047 170.156 169.216 168.163 173.106 172.24 
171.265 170.183 168.9 175.287 174.472 173.44 172.264 170.954 169.545 
177.782 177.03 175.965 174.633 173.162 171.681 170.244 180.433 179.904 
178.956 177.584 175.915 174.153 172.516 170.997 182.693 182.483 181.814 
180.645 179.062 177.147 175.144 173.347 171.733 184.306 184.417 185.643 
185.447 186.416 184.061 185.704 186.77 184.7 183.168 185.701 186.836 
184.649 183.65 181.863 185.554 186.318 184.527 183.606 182.367 180.102 
184.839 185.122 184.177 183.341 182.236 180.422 177.844 183.589 183.612 
183.265 182.674 181.639 179.993 177.865 175.542 182.127 182.006 181.974 
181.578 180.734 179.21 177.324 175.456 173.586 180.516 180.288 180.462 
180.159 179.541 178.318 176.62 174.991 173.486 171.851 183.393 184.946 
183.765 185.133 183.641 186.235 184.686 183.103 186.331 187.157 183.797 
182.388 185.602 187.285 187.662 182.884 181.322 184.406 186.373 187.665 
187.446 181.585 179.407 183.206 184.912 186.521 187.01 186.311 179.341 
176.862 181.479 183.23 184.78 185.673 185.515 184.666 176.63 174.466 
178.913 180.921 182.578 183.768 184.147 183.719 182.901 174.241 172.61 
176.166 178.094 179.803 181.221 182.126 182.26 181.765 181.037 165.902 
167.423 166.773 168.524 167.927 169.217 169.726 168.912 170.491 171.227 
170.621 169.578 171.672 172.638 173.365 171.373 170.272 172.674 174.014 
175.062 175.689 172.306 171.051 173.85 175.534 176.917 177.778 178.159 
173.233 171.679 175.176 177.228 178.843 179.824 180.319 180.356 173.933 
172.16 176.224 178.624 180.418 181.441 182.028 182.274 182.051 164.439 
165.011 163.578 164.182 162.782 165.977 163.344 161.945 165.12 167.074 
162.459 161.106 164.166 166.026 167.861 161.57 160.358 163.157 164.904 
166.666 168.495 160.74 159.693 162.104 163.771 165.495 167.334 169.256 
160.05 159.098 161.143 162.62 164.354 166.148 168.07 169.935 159.486 
158.572 160.425 161.63 163.241 164.992 166.787 168.648 170.407 158.939 