# vtk DataFile Version 4.0
vtk output
ASCII
DATASET POLYDATA
POINTS 1002 float
-102.019 -78.3798 73.2366 -102.114 -77.7808 72.0459 -102.422 -77.4875 72.941 
-102.492 -78.2534 74.1496 -102.902 -77.3809 73.9221 -102.068 -79.2244 74.4648 
-103.077 -78.3168 75.2143 -103.668 -77.502 74.9413 -102.595 -79.2308 75.5307 
-102.228 -80.2569 75.8532 -103.825 -78.5614 76.3138 -104.536 -77.763 75.9376 
-103.157 -79.3636 76.7583 -102.7 -80.3594 77.1963 -102.45 -81.4298 77.5523 
-104.654 -78.9374 77.3053 -105.294 -78.1005 76.8909 -103.957 -79.7265 77.826 
-103.383 -80.6642 78.4302 -103.029 -81.7606 78.9518 -102.782 -82.7993 79.3304 
-105.548 -79.4255 78.1898 -106.128 -78.5787 77.7383 -104.994 -80.3107 78.688 
-104.478 -81.3303 79.2587 -104.03 -82.407 79.9152 -103.627 -83.397 80.481 
-103.339 -84.3932 80.9006 -106.558 -80.0567 78.9998 -107.147 -79.2303 78.47 
-106.055 -80.9618 79.583 -105.636 -82.0873 80.0907 -105.194 -83.2283 80.6546 
-104.727 -84.176 81.3253 -104.34 -85.1093 81.9098 -104.153 -86.2149 82.3483 
-107.509 -80.767 79.8062 -108.044 -79.9146 79.2411 -106.984 -81.6439 80.5023 
-106.548 -82.6987 81.1622 -106.098 -83.8368 81.7057 -105.647 -84.8575 82.2875 
-105.327 -85.8753 82.8794 -105.148 -87.0236 83.3497 -105.054 -88.1815 83.6966 
-108.233 -81.3737 80.6987 -108.639 -80.4766 80.1292 -107.783 -82.306 81.3563 
-107.337 -83.299 82.1155 -106.865 -84.3396 82.8194 -106.418 -85.4069 83.3968 
-106.155 -86.6038 83.8885 -106.056 -87.9125 84.2764 -105.971 -89.1178 84.5855 
-105.863 -90.1115 84.8474 -108.802 -81.8269 81.6217 -109.089 -80.9195 81.0228 
-108.506 -82.8404 82.1885 -108.147 -83.9023 82.8448 -107.694 -84.9652 83.5893 
-107.262 -86.0853 84.2488 -107.013 -87.4042 84.7402 -106.921 -88.8578 85.0818 
-106.839 -90.1526 85.3401 -106.717 -91.1647 85.6066 -106.609 -92.0171 85.8736 
-102.446 -77.0734 71.423 -102.757 -76.7341 72.4286 -102.964 -76.426 70.7762 
-103.495 -76.136 71.8327 -103.901 -75.947 70.0085 -103.373 -76.5975 73.4715 
-104.626 -75.6921 71.088 -104.953 -75.4619 69.2014 -104.262 -75.9808 72.888 
-104.305 -76.6717 74.484 -105.525 -75.0018 70.3364 -105.613 -74.6136 68.5129 
-105.308 -75.4449 72.1882 -105.159 -75.9489 73.9222 -105.193 -76.8641 75.5037 
-106.045 -73.9522 69.6673 -106.112 -73.6527 67.8911 -106.078 -74.6082 71.5138 
-106.052 -75.2905 73.2955 -105.946 -76.0235 75.0226 -105.929 -77.1775 76.5276 
-106.75 -73.2269 69.0424 -106.866 -73.1785 67.3246 -106.796 -73.666 70.9126 
-106.901 -74.4822 72.6892 -106.823 -75.2975 74.4581 -106.691 -76.2779 76.125 
-106.839 -77.7031 77.405 -107.722 -73.0775 68.543 -107.811 -73.1024 66.9029 
-107.694 -73.1699 70.4415 -107.745 -73.7038 72.2458 -107.736 -74.5764 73.9247 
-107.573 -75.5202 75.6172 -107.59 -76.8005 77.0424 -107.859 -78.4114 78.1464 
-108.756 -72.9817 68.201 -108.854 -73 66.588 -108.65 -72.9496 70.1225 
-108.549 -73.1578 72.0157 -108.538 -73.868 73.6369 -108.463 -74.8563 75.1695 
-108.356 -76.0431 76.6109 -108.461 -77.5602 77.8053 -108.621 -79.1375 78.9343 
-109.813 -72.7546 67.953 -109.917 -72.8583 66.3508 -109.668 -72.6894 69.851 
-109.438 -72.7812 71.7929 -109.308 -73.3073 73.4552 -109.302 -74.2519 74.8746 
-109.206 -75.4284 76.2239 -109.107 -76.8471 77.4446 -109.125 -78.3821 78.588 
-109.127 -79.7555 79.8057 -110.813 -72.7441 67.2517 -110.756 -72.5668 69.1162 
-111.506 -72.9208 68.4649 -111.569 -72.8224 70.388 -112.007 -73.5003 69.6986 
-110.57 -72.5895 71.1262 -112.234 -73.6505 71.5246 -112.669 -74.2451 70.7391 
-111.434 -73.1796 72.2456 -110.298 -73.0148 72.9542 -112.935 -74.5818 72.5539 
-113.613 -74.9779 71.6809 -112.118 -74.3353 73.1985 -111.183 -73.9731 73.8214 
-110.193 -73.8759 74.4692 -113.648 -75.4389 73.596 -114.263 -75.9952 72.6829 
-112.665 -75.396 74.2341 -111.821 -75.2561 74.6531 -111.056 -74.9628 75.2891 
-110.145 -75.0278 75.888 -114.001 -76.6602 74.6621 -114.229 -77.4421 73.8314 
-113.178 -76.4344 75.3756 -112.305 -76.4653 75.7465 -111.673 -76.2802 76.262 
-110.934 -76.199 76.9001 -109.97 -76.4563 77.2643 -113.985 -78.2228 75.812 
-113.932 -78.9549 75.1231 -113.569 -77.8107 76.5595 -112.847 -77.7926 77.0252 
-112.208 -77.7112 77.5097 -111.605 -77.5735 78.1246 -110.746 -77.712 78.4607 
-109.814 -78.0334 78.5282 -113.965 -79.7302 77.0431 -113.813 -80.3093 76.4189 
-113.847 -79.284 77.8413 -113.375 -79.1984 78.4105 -112.738 -79.1943 78.8502 
-112.16 -79.0268 79.4129 -111.469 -78.9761 79.792 -110.555 -79.1732 79.8333 
-109.712 -79.4537 79.8062 -114.033 -81.1704 78.2247 -113.848 -81.625 77.5961 
-114.064 -80.7266 79.1315 -113.799 -80.5474 79.8481 -113.209 -80.5864 80.2151 
-112.556 -80.5067 80.5859 -111.971 -80.3192 80.99 -111.239 -80.2964 81.1514 
-110.364 -80.4468 81.1437 -109.618 -80.6643 81.1139 -109.438 -81.9606 82.2995 
-110.061 -81.8057 82.4498 -109.931 -83.3493 83.5813 -110.863 -81.7229 82.4865 
-110.595 -83.3837 83.7936 -110.356 -85.1258 84.8163 -111.642 -81.7618 82.3967 
-111.351 -83.49 83.8423 -111.069 -85.3148 85.0696 -110.636 -87.1752 85.9654 
-112.251 -81.9682 82.0884 -111.979 -83.7238 83.6163 -111.79 -85.5525 85.107 
-111.459 -87.4626 86.2083 -111.027 -89.698 87.0678 -112.922 -82.145 81.7698 
-112.547 -84.026 83.1984 -112.29 -85.9295 84.753 -112.097 -87.8658 86.208 
-111.803 -90.2645 87.298 -111.58 -92.9589 88.2358 -113.665 -82.1313 81.6106 
-113.291 -84.1715 83.0396 -112.812 -86.3106 84.3372 -112.448 -88.3862 85.8361 
-112.239 -90.931 87.2563 -112.134 -93.8764 88.3684 -112.15 -96.4683 89.2526 
-114.093 -82.2021 81.1227 -113.9 -84.243 82.9406 -113.477 -86.5558 84.3092 
-112.957 -88.8014 85.5685 -112.58 -91.4145 86.9642 -112.492 -94.5674 88.2146 
-112.616 -97.4262 89.1496 -112.788 -99.5849 89.8356 -114.138 -82.5341 80.0992 
-114.082 -84.4548 82.1977 -113.883 -86.7585 84.105 -113.574 -89.0745 85.5819 
-113.191 -91.6023 86.8313 -112.959 -94.7204 87.9785 -113.037 -97.8579 88.9163 
-113.284 -100.348 89.611 -113.481 -102.386 90.1313 -114.016 -82.9245 79.1105 
-114.052 -84.6986 81.0069 -113.988 -86.8771 83.1728 -113.909 -89.1935 85.1814 
-113.75 -91.6435 86.7069 -113.533 -94.5452 87.8138 -113.494 -97.7221 88.7021 
-113.692 -100.564 89.4246 -113.932 -102.952 89.9548 -114.053 -105.142 90.3212 
-109.238 -83.0545 82.92 -109.71 -84.6611 84.2207 -108.996 -84.2773 83.4916 
-109.94 -86.6723 85.5154 -109.345 -86.1173 84.8594 -108.588 -85.5587 84.1618 
-110.199 -89.1725 86.75 -109.55 -88.5278 86.2485 -108.939 -87.7755 85.5262 
-108.153 -86.9298 84.8556 -110.871 -92.3335 87.9903 -110.153 -91.6233 87.5608 
-109.485 -90.7259 86.8791 -108.768 -89.6652 86.0981 -107.923 -88.4956 85.421 
-111.65 -95.8419 89.206 -111.053 -95.1187 88.834 -110.353 -94.1586 88.1889 
-109.557 -92.931 87.424 -108.73 -91.5628 86.6304 -107.833 -90.1533 85.8499 
-112.331 -99.15 90.0401 -111.755 -98.5389 89.9107 -111.063 -97.6469 89.4033 
-110.247 -96.3397 88.7756 -109.417 -94.7773 88.0593 -108.594 -93.1603 87.1272 
-107.711 -91.5823 86.165 -113.057 -102.288 90.4231 -112.443 -101.909 90.5511 
-111.677 -101.16 90.3159 -110.825 -99.9123 89.8777 -110.002 -98.2445 89.3863 
-109.246 -96.3715 88.5907 -108.439 -94.4655 87.4895 -107.561 -92.6883 86.452 
-113.721 -105.444 90.579 -113.201 -105.384 90.8111 -112.498 -104.817 90.8094 
-111.652 -103.676 90.561 -110.773 -102.079 90.2432 -109.986 -100.156 89.7453 
-109.23 -97.9631 88.8618 -108.376 -95.6981 87.7786 -107.463 -93.6632 86.769 
-114.311 -108.427 90.445 -113.922 -108.847 90.6932 -114.499 -111.738 90.1239 
-113.992 -111.892 90.2963 -114.789 -114.146 89.3122 -113.381 -108.638 90.8511 
-113.992 -113.765 89.3184 -115.07 -115.64 88.3583 -113.405 -111.246 90.3275 
-112.694 -107.657 90.7844 -113.878 -114.876 88.2327 -114.744 -116.838 87.5595 
-113.267 -112.709 89.3067 -112.74 -109.805 90.3023 -111.812 -106.074 90.5989 
-113.45 -115.665 87.5171 -113.643 -117.356 86.8932 -113.123 -113.383 88.4078 
-112.585 -110.838 89.5434 -111.785 -107.866 90.2877 -110.845 -104.161 90.3169 
-112.724 -115.495 87.172 -112.544 -116.419 86.4761 -112.867 -113.394 87.9599 
-112.454 -110.855 88.8841 -111.566 -108.49 89.7036 -110.733 -105.692 90.0391 
-109.983 -101.87 89.7301 -112.02 -114.032 87.0713 -112.014 -114.311 86.4684 
-112.164 -112.606 87.729 -112.033 -110.339 88.3667 -111.324 -108.186 88.9917 
-110.514 -106.155 89.483 -109.868 -103.1 89.4923 -109.132 -99.155 88.8354 
-111.52 -111.799 87.1 -111.799 -111.788 86.6638 -111.215 -111.151 87.5361 
-111.009 -109.652 87.9327 -110.701 -107.743 88.3517 -110.216 -105.899 88.8382 
-109.685 -103.489 89.0904 -108.988 -100.001 88.717 -108.154 -96.3951 87.8009 
-111.127 -109.36 87.0767 -111.502 -109.264 86.7521 -110.508 -109.223 87.3369 
-109.987 -108.547 87.5859 -109.758 -107.166 87.9148 -109.635 -105.354 88.3363 
-109.358 -103.162 88.6128 -108.766 -100.23 88.397 -107.922 -96.8924 87.6635 
-107.139 -94.0507 86.7271 -114.453 -106.49 90.2245 -114.712 -110.043 90.0523 
-114.745 -107.593 89.9312 -114.948 -111.236 89.3945 -114.879 -108.223 89.3243 
-115.098 -113.347 89.33 -114.832 -111.714 88.6433 -114.855 -108.117 88.6053 
-115.435 -114.532 88.4368 -115.819 -115.746 88.4071 -114.581 -111.169 88.0527 
-114.732 -107.161 88.0485 -115.112 -114.808 87.7232 -116.298 -117.094 87.5696 
-116.22 -117.472 87.6635 -114.545 -109.588 87.6318 -114.341 -105.366 87.663 
-114.689 -113.59 87.2215 -115.752 -116.994 86.7853 -116.45 -118.612 86.7992 
-115.309 -118.407 86.9007 -114.261 -107.107 87.398 -113.536 -102.761 87.2911 
-114.539 -111.152 86.998 -114.973 -114.822 86.2947 -115.648 -117.458 85.8749 
-115.147 -118.286 85.938 -113.607 -117.743 86.1279 -113.409 -103.799 87.2051 
-112.703 -99.6774 86.618 -113.967 -107.971 87.1559 -114.229 -111.642 86.5561 
-114.59 -114.453 85.7823 -114.516 -115.996 85.3827 -113.493 -116.299 85.4535 
-112.464 -115.685 85.8481 -112.586 -100.135 86.4867 -112.219 -96.7719 85.3896 
-113.024 -104.103 87.0775 -113.266 -107.981 87.0734 -113.531 -111.034 86.5468 
-113.762 -112.932 85.8482 -113.324 -113.819 85.4501 -112.513 -113.9 85.5521 
-112.059 -113.166 86.0567 -112.129 -96.9288 85.0527 -111.951 -94.5238 83.7906 
-112.372 -100.083 86.1043 -112.511 -103.701 86.765 -112.671 -107.074 86.907 
[...]
CELL_DATA 2000
SCALARS Distance double
LOOKUP_TABLE default
146.644 147.303 147.161 147.637 148.248 147.976 148.497 148.301 148.879 
149.427 149.065 149.577 149.281 149.888 149.682 150.381 150.655 150.299 
150.826 150.465 151.092 150.811 151.579 151.355 152.172 151.905 151.555 
152.172 151.799 152.509 152.162 153.007 152.705 153.597 153.288 154.164 
153.271 152.889 153.597 153.23 154.038 153.689 154.583 154.249 155.164 
154.815 155.711 155.369 156.316 154.673 154.315 155.039 154.702 155.529 
155.23 156.108 155.81 156.681 156.37 157.256 156.946 157.903 157.614 
158.638 155.934 155.669 156.381 156.109 156.905 156.661 157.505 157.25 
158.086 157.814 158.699 158.451 159.436 159.197 160.223 159.953 160.934 
157.015 156.841 157.569 157.374 158.162 157.965 158.795 158.579 159.424 
159.185 160.097 159.883 160.907 160.708 161.755 161.509 162.48 162.175 
163.072 146.216 145.833 146.245 146.815 145.722 145.982 146.547 146.968 
147.728 145.845 146.037 146.593 146.844 147.561 148.025 148.906 145.765 
146.121 146.68 146.96 147.591 147.942 148.744 149.244 150.121 145.373 
145.843 146.43 146.91 147.562 147.963 148.677 149.107 149.929 150.443 
151.328 145.201 145.497 146.141 146.602 147.381 147.86 148.633 149.048 
149.833 150.284 151.175 151.705 152.664 145.506 145.598 146.285 146.532 
147.361 147.748 148.612 149.017 149.831 150.231 151.093 151.586 152.558 
153.106 154.071 146.036 146.071 146.749 146.871 147.634 147.877 148.71 
149.057 149.896 150.265 151.099 151.527 152.442 152.98 153.932 154.475 
155.342 146.617 146.632 147.282 147.365 148.063 148.209 148.961 149.218 
150.043 150.374 151.215 151.572 152.432 152.874 153.776 154.297 155.159 
155.661 156.427 147.161 148.266 147.741 147.848 149.496 148.946 149.074 
148.5 148.632 150.823 150.267 150.472 149.83 149.956 149.331 149.513 
152.25 151.672 151.937 151.294 151.455 150.759 150.928 150.306 150.579 
153.707 153.131 153.37 152.755 152.928 152.271 152.452 151.805 152.063 
151.458 151.764 155.051 154.544 154.779 154.18 154.367 153.73 153.963 
153.343 153.651 153.019 153.33 152.679 152.991 156.279 155.844 156.18 
155.622 155.911 155.254 155.579 154.924 155.33 154.677 155.056 154.341 
154.65 153.95 154.294 157.513 157.108 157.58 157.089 157.526 156.907 
157.314 156.641 157.077 156.42 156.834 156.123 156.428 155.67 155.945 
155.268 155.613 158.788 158.407 158.977 158.555 159.111 158.574 159.032 
158.39 158.776 158.135 158.501 157.857 158.146 157.428 157.645 156.921 
157.172 156.541 156.852 157.725 158.101 158.344 159.298 158.597 158.802 
159.81 160.063 161.11 159.094 159.329 160.356 160.632 161.74 161.965 
163.009 159.465 159.77 160.795 161.146 162.295 162.612 163.734 163.907 
165.016 159.802 160.126 161.161 161.525 162.668 163.085 164.277 164.608 
165.819 166.054 167.416 160.122 160.506 161.606 161.938 163.062 163.428 
164.615 165.046 166.348 166.79 168.25 168.641 170.188 160.198 160.752 
161.917 162.387 163.556 163.9 165.06 165.409 166.709 167.218 168.749 
169.34 170.94 171.395 172.853 159.989 160.654 161.798 162.507 163.739 
164.319 165.533 165.93 167.188 167.619 169.099 169.722 171.34 171.968 
173.46 173.889 175.183 159.716 160.346 161.408 162.195 163.418 164.254 
165.543 166.242 167.518 168.067 169.423 170.025 171.534 172.228 173.727 
174.332 175.669 176.092 177.3 157.823 159.406 158.549 158.469 161.204 
160.265 160.199 159.259 159.147 163.07 162.12 162.074 161.092 160.987 
159.981 159.826 165.133 164.084 164.132 163.072 163.047 161.943 161.822 
160.71 160.523 167.705 166.46 166.701 165.421 165.566 164.252 164.258 
162.931 162.818 161.522 161.335 170.589 169.332 169.718 168.332 168.589 
167.103 167.189 165.658 165.603 164.09 163.931 162.472 162.259 173.269 
172.213 172.63 171.392 171.637 170.22 170.264 168.718 168.609 167.024 
166.806 165.227 164.928 163.42 163.115 175.644 174.765 175.257 174.177 
174.468 173.165 173.223 171.738 171.622 170.037 169.797 168.151 167.784 
166.141 165.713 164.196 163.807 177.843 177.096 177.733 176.772 177.21 
175.985 176.162 174.701 174.676 173.08 172.927 171.228 170.92 169.122 
168.669 166.903 166.419 164.84 164.409 179.253 181.361 180.019 179.246 
182.996 181.967 181.23 179.852 178.776 183.855 183.174 182.46 181.545 
180.505 179.115 177.725 184.159 183.645 182.82 182.316 181.411 180.515 
179.193 177.793 176.204 183.957 183.697 182.778 182.415 181.529 181.029 
179.904 178.962 177.448 176.089 174.406 183.009 183.199 182.379 182.219 
181.239 180.913 179.807 179.296 177.961 177.053 175.4 174.112 172.324 
181.499 182.005 181.328 181.511 180.494 180.382 179.168 178.917 177.668 
177.221 175.761 174.847 173.03 171.795 169.938 179.845 180.422 179.773 
180.173 179.201 179.338 178.145 178.087 176.892 176.724 175.463 174.946 
173.288 172.285 170.34 169.228 167.475 178.156 178.736 178.051 178.512 
177.607 177.896 176.845 176.955 175.87 175.864 174.714 174.482 172.987 
172.31 170.417 169.449 167.581 166.719 165.233 179.554 180.459 180.618 
181.66 180.924 181.372 182.507 182.634 183.365 180.784 181.559 182.81 
183.31 184.259 184.185 184.497 180.074 181.107 182.379 183.308 184.554 
185.003 185.656 185.222 185.094 178.871 180.146 181.305 182.507 183.754 
184.872 185.801 186.135 186.102 185.495 184.82 177.032 178.654 179.748 
181.124 182.074 183.503 184.3 185.48 185.496 185.785 184.912 184.554 
183.501 174.538 176.45 177.549 179.224 179.998 181.472 181.972 183.371 
183.38 184.326 183.57 183.868 182.752 182.742 181.745 171.785 173.693 
174.696 176.638 177.417 179.1 179.532 180.928 180.985 182.038 181.59 
182.177 181.35 181.626 180.768 180.896 180.074 169.23 170.877 171.66 
173.57 174.293 176.195 176.683 178.335 178.512 179.765 179.566 180.339 
179.784 180.208 179.514 179.798 179.081 179.23 178.422 159.9 160.781 
160.725 161.603 161.83 161.742 162.703 162.62 163.649 162.934 162.891 
163.944 163.844 164.955 164.843 165.902 163.943 164.005 165.132 165.114 
166.283 166.224 167.395 167.183 168.101 164.853 164.99 166.185 166.265 
167.505 167.541 168.82 168.732 169.85 169.429 170.203 165.769 165.937 
167.262 167.373 168.784 168.836 170.303 170.251 171.61 171.296 172.336 
171.663 172.393 166.691 166.925 168.438 168.606 170.278 170.343 172.081 
171.988 173.6 173.273 174.565 173.941 174.852 173.978 174.617 167.555 
167.896 169.595 169.903 171.811 172.016 173.963 173.961 175.707 175.437 
176.836 176.289 177.308 176.493 177.175 176.174 176.62 168.31 168.77 
170.595 171.08 173.113 173.536 175.541 175.763 177.47 177.415 178.745 
178.434 179.442 178.86 179.568 178.696 179.138 178.063 178.319 159.072 
158.058 158.986 159.869 156.917 157.905 158.773 159.809 160.809 155.721 
156.709 157.557 158.634 159.611 160.75 161.814 154.661 155.533 156.349 
157.386 158.327 159.475 160.514 161.714 162.771 153.858 154.546 155.242 
156.174 157.051 158.167 159.16 160.359 161.405 162.618 163.653 153.197 
153.779 154.281 155.059 155.79 156.85 157.789 158.984 159.991 161.213 
162.247 163.473 164.506 152.41 153.039 153.425 154.086 154.633 155.56 
156.405 157.574 158.559 159.781 160.782 162.025 163.051 164.305 165.336 
151.462 152.146 152.54 153.189 153.635 154.418 155.125 156.186 157.137 
158.342 159.344 160.563 161.565 162.81 163.819 165.091 166.106 150.6 
151.213 151.65 152.293 152.75 153.443 154.048 154.947 155.812 156.941 
157.96 159.158 160.171 161.359 162.338 163.552 164.518 165.8 166.791 
150.366 150.474 150.713 151.385 150.814 150.933 151.599 151.813 152.535 
151.316 151.395 152.092 152.177 152.917 153.061 153.881 151.755 151.925 
152.692 152.78 153.566 153.618 154.501 154.619 155.65 152.074 152.319 
153.166 153.369 154.258 154.366 155.344 155.426 156.55 156.655 157.835 
152.507 152.693 153.61 153.839 154.839 155.056 156.159 156.339 157.551 
157.679 158.907 158.957 160.095 153.162 153.268 154.246 154.403 155.48 
155.687 156.88 157.135 158.418 158.654 159.914 160.038 161.184 161.19 
162.245 153.923 154.01 155.035 155.165 156.307 156.465 157.715 157.922 
159.246 159.487 160.789 160.98 162.173 162.253 163.351 163.338 164.396 
154.729 154.808 155.868 156.007 157.205 157.375 158.675 158.857 160.203 
160.385 161.711 161.874 163.136 163.244 164.442 164.471 165.629 165.568 
166.681 155.55 157.403 156.544 156.783 159.498 158.587 158.878 157.933 
158.217 161.625 160.771 161.179 160.197 160.54 159.505 159.793 163.977 
163.042 163.616 162.606 163.053 161.968 162.299 161.159 161.388 166.922 
165.763 166.518 165.305 165.884 164.641 165.044 163.787 164.03 162.771 
162.912 170.234 169.043 169.974 168.607 169.36 167.85 168.369 166.807 
167.111 165.591 165.728 164.308 164.369 173.28 172.343 173.38 172.198 
173.123 171.649 172.335 170.563 170.945 169.054 169.208 167.402 167.415 
165.803 165.768 175.671 175.093 176.099 175.323 176.259 175.24 176.016 
174.584 175.025 173.156 173.277 171.219 171.152 169.155 168.995 167.22 
167.053 177.375 177.101 177.998 177.575 178.376 177.835 178.55 177.75 
178.212 176.919 177.02 175.246 175.086 173.05 172.742 170.685 170.323 
168.467 168.155 155.172 155.12 155.732 156.97 154.925 155.655 156.953 
157.654 158.999 154.54 155.381 156.72 157.561 158.935 159.67 161.024 
154.064 154.95 156.327 157.256 158.683 159.52 160.93 161.698 163.234 
153.575 154.482 155.906 156.866 158.37 159.259 160.767 161.6 163.272 
164.138 166.04 153.105 154.013 155.489 156.476 158.05 158.985 160.571 
161.464 163.217 164.192 166.207 167.19 169.261 152.733 153.585 155.088 
156.084 157.713 158.692 160.318 161.261 163.011 164.073 166.082 167.242 
169.335 170.373 172.28 152.498 153.26 154.725 155.701 157.352 158.368 
160.022 160.992 162.705 163.78 165.712 166.953 168.993 170.216 172.097 
173.124 174.703 152.366 153.037 154.401 155.327 156.934 157.984 159.636 
160.658 162.32 163.396 165.226 166.468 168.417 169.703 171.522 172.694 
174.24 175.223 176.467 154.148 152.75 153.632 154.043 151.494 152.266 
152.568 153.464 153.81 150.309 151.003 151.189 151.983 152.186 153.119 
153.393 149.126 149.759 149.794 150.53 150.603 151.467 151.62 152.615 
152.876 147.899 148.51 148.438 149.088 149.061 149.84 149.913 150.83 
150.997 152.049 152.331 146.596 147.232 147.194 147.789 147.772 148.393 
148.429 149.169 149.272 150.183 150.384 151.481 151.817 145.34 145.946 
145.996 146.609 146.68 147.247 147.288 147.847 147.885 148.569 148.713 
149.617 149.923 151.027 151.463 144.379 144.834 144.92 145.477 145.576 
146.167 146.205 146.758 146.744 147.311 147.395 148.113 148.408 149.313 
149.762 150.808 151.316 143.804 144.072 144.137 144.53 144.589 145.078 
145.082 145.618 145.59 146.161 146.23 146.897 147.176 147.968 148.417 
149.304 149.811 150.777 151.288 143.619 143.385 143.602 143.852 143.208 
143.364 143.58 143.851 144.194 143.312 143.322 143.519 143.621 143.863 
144.166 144.564 143.539 143.541 143.702 143.67 143.795 143.887 144.153 
144.528 145.017 143.578 143.666 143.756 143.79 143.825 143.863 144.039 
144.237 144.704 145.108 145.75 143.713 143.661 143.705 143.711 143.75 
143.83 144.054 144.225 144.734 145.014 145.742 146.074 146.833 144.309 
144.009 144.081 143.828 143.958 143.874 144.248 144.348 144.971 145.186 
145.974 146.25 147.09 147.342 148.133 145.15 144.791 144.924 144.512 
144.726 144.424 144.896 144.804 145.506 145.573 146.388 146.574 147.444 
147.685 148.538 148.734 149.525 145.949 145.655 145.854 145.481 145.737 
145.393 145.851 145.656 146.325 146.267 147.051 147.104 147.968 148.122 
149.017 149.192 150.035 150.172 150.97 146.47 147.41 146.758 146.437 
148.623 147.817 147.477 146.749 146.422 150.126 149.172 148.827 147.939 
147.635 146.846 146.62 151.905 150.833 150.514 149.463 149.16 148.22 
148.033 147.22 147.121 153.906 152.762 152.532 151.356 151.108 149.963 
149.794 148.803 148.752 147.882 147.87 156.136 154.931 154.847 153.592 
153.474 152.168 152.039 150.81 150.776 149.709 149.74 148.77 148.815 
158.518 157.314 157.339 156.077 156.067 154.72 154.628 153.254 153.172 
151.923 151.924 150.808 150.831 149.807 149.855 160.813 159.713 159.756 
158.586 158.601 157.344 157.285 155.916 155.796 154.426 154.344 153.091 
153.053 151.909 151.875 150.845 150.851 162.968 161.951 162.019 160.925 
160.949 159.795 159.787 158.534 158.475 157.106 157.017 155.625 155.546 
154.227 154.15 152.942 152.877 151.816 151.799 152.695 153.902 153.737 
154.772 155.311 155.128 156.309 156.117 157.354 156.848 156.69 158 
157.802 159.127 158.87 160.103 158.399 158.31 159.721 159.57 160.958 
160.714 162.028 161.675 162.869 159.831 159.844 161.326 161.294 162.786 
162.602 164.061 163.732 165.141 164.632 165.912 161.099 161.202 162.769 
162.88 164.578 164.516 166.208 165.936 167.573 167.107 168.585 167.898 
169.162 162.28 162.438 164.136 164.364 166.316 166.419 168.352 168.202 
169.955 169.597 171.108 170.56 171.809 171.097 172.172 163.376 163.612 
165.409 165.775 167.886 168.199 170.245 170.296 172.001 171.811 173.187 
172.841 173.976 173.491 174.479 173.872 174.768 164.302 164.641 166.433 
166.965 169.079 169.635 171.649 171.947 173.517 173.523 174.725 174.58 
175.614 175.356 176.298 175.906 176.756 176.225 176.941 146.15 145.529 
145.657 145.387 144.999 145.056 144.744 144.948 144.799 144.753 144.643 
144.344 144.389 144.196 144.403 144.307 144.937 144.613 144.331 144.172 
143.973 143.952 143.826 143.974 143.953 145.231 144.875 144.459 144.24 
143.982 143.874 143.716 143.689 143.667 143.783 143.877 145.25 144.993 
144.375 144.198 143.767 143.77 143.555 143.609 143.519 143.604 143.651 
143.808 143.884 145.201 144.92 144.302 144.014 143.498 143.427 143.197 
143.322 143.228 143.372 143.319 143.514 143.526 143.739 143.714 145.406 
145.032 144.575 144.126 143.691 143.351 143.175 143.092 143.109 143.121 
143.096 143.151 143.127 143.308 143.332 143.525 143.51 145.809 145.41 
145.045 144.584 144.206 143.763 143.569 143.321 143.381 143.252 143.321 
143.153 143.142 143.061 143.117 143.207 143.318 143.429 143.512 146.417 
145.718 146.254 146.706 145.168 145.647 146.101 146.623 147.124 144.661 
145.127 145.562 146.056 146.522 147.068 147.616 144.24 144.616 145.026 
145.507 145.965 146.485 147.02 147.605 148.192 144.07 144.262 144.588 
144.976 145.443 145.95 146.531 147.08 147.681 148.208 148.681 144.013 
144.13 144.318 144.583 144.969 145.44 146.029 146.613 147.246 147.766 
148.22 148.608 148.864 143.823 143.977 144.083 144.307 144.599 144.994 
145.509 146.072 146.685 147.276 147.763 148.186 148.437 148.727 148.931 
143.605 143.728 143.846 144.048 144.361 144.688 145.198 145.623 146.199 
146.699 147.229 147.702 148.064 148.376 148.606 148.871 149.181 143.592 
143.603 143.769 143.889 144.275 144.545 145.134 145.46 146.061 146.377 
146.913 147.266 147.734 148.059 148.405 148.64 148.942 149.217 149.614 
147.023 147.275 147.431 148.092 147.677 147.745 148.339 148.531 149.254 
148.218 148.222 148.794 148.842 149.482 149.702 150.501 148.813 148.828 
149.447 149.407 150.002 150.028 150.765 151.016 151.918 149.2 149.348 
149.969 150.054 150.635 150.623 151.258 151.374 152.219 152.511 153.419 
149.281 149.541 150.12 150.4 150.965 151.116 151.64 151.793 152.478 
152.787 153.628 153.967 154.762 149.358 149.57 150.194 150.483 151.119 
151.322 151.832 151.998 152.563 152.888 153.641 154.071 154.868 155.219 
155.944 149.661 149.778 150.495 150.698 151.459 151.591 152.193 152.232 
152.783 152.947 153.668 154.036 154.881 155.283 156.088 156.398 157.139 
150.115 150.199 150.934 151.113 151.905 152.048 152.71 152.724 153.291 
153.311 153.995 154.188 155.043 155.368 156.255 156.574 157.39 157.644 
158.4 153.897 153.094 153.147 152.516 152.322 152.34 151.679 151.802 
151.265 151.679 151.599 150.899 150.961 150.42 150.601 150.137 151.287 
151.078 150.368 150.269 149.696 149.786 149.361 149.531 149.07 151.016 
150.794 150.105 149.888 149.274 149.181 148.702 148.791 148.361 148.469 
147.914 150.638 150.508 149.863 149.683 149.069 148.877 148.318 148.236 
147.739 147.774 147.215 147.247 146.597 150.204 150.108 149.535 149.421 
148.863 148.692 148.133 147.952 147.407 147.275 146.683 146.587 145.921 
145.899 145.292 149.903 149.753 149.257 149.136 148.651 148.493 147.974 
147.786 147.255 147.057 146.464 146.221 145.543 145.339 144.733 144.709 
144.302 149.788 149.564 149.115 148.959 148.55 148.364 147.893 147.662 
147.149 146.93 146.379 146.11 145.468 145.143 144.539 144.332 143.949 
143.942 143.752 
POINT_DATA 1002
SCALARS Distance double
LOOKUP_TABLE default
147.037 146.2 146.699 147.749 147.462 148.129 148.718 148.565 149.027 
149.484 149.915 149.802 150.102 150.54 151.123 151.183 150.983 151.382 
151.794 152.405 152.991 152.501 152.235 152.836 153.312 153.918 154.47 
155.033 153.934 153.646 154.358 154.923 155.518 156.058 156.606 157.311 
155.367 155.01 155.818 156.413 156.991 157.535 158.177 158.927 159.679 
156.634 156.161 157.147 157.754 158.35 158.919 159.644 160.49 161.255 
161.869 157.731 157.155 158.346 158.996 159.637 160.288 161.087 161.994 
162.784 163.403 163.946 145.754 146.286 145.465 146.2 145.508 147.159 
146.409 145.624 147.177 148.352 146.337 145.34 147.3 148.302 149.58 
145.861 144.924 147.099 148.292 149.441 150.769 145.713 144.973 146.854 
148.195 149.416 150.646 152.114 146.114 145.435 147.034 148.2 149.445 
150.636 152.002 153.56 146.668 146.011 147.471 148.403 149.531 150.718 
151.947 153.38 154.859 147.222 146.623 147.963 148.76 149.725 150.877 
152.054 153.297 154.654 155.967 147.641 148.365 148.795 149.683 150.016 
149.18 151.107 151.351 150.632 150.06 152.561 152.844 152.148 151.589 
151.138 153.995 154.287 153.56 153.08 152.692 152.363 155.357 155.514 
154.99 154.554 154.26 154.005 153.625 156.667 156.664 156.524 156.223 
155.964 155.77 155.397 154.933 157.999 157.88 158.08 157.98 157.742 
157.53 157.207 156.684 156.222 159.348 159.141 159.59 159.667 159.452 
159.138 158.838 158.396 157.859 157.437 158.585 159.011 160.3 159.541 
160.881 162.152 160.053 161.478 162.865 164.015 160.424 161.913 163.498 
164.846 166.193 160.819 162.246 163.852 165.487 167.133 168.933 161.252 
162.754 164.193 165.807 167.76 169.868 171.771 161.343 163.162 164.762 
166.233 168.097 170.404 172.557 174.239 161.035 163.024 165.042 166.802 
168.538 170.674 172.953 174.878 176.439 160.662 162.535 164.706 166.889 
168.87 170.872 173.065 175.17 176.965 178.502 159.333 161.163 160.101 
163.048 162.014 160.848 165.196 164.158 162.973 161.648 167.998 166.915 
165.632 164.177 162.633 171.073 170.091 168.768 167.173 165.466 163.7 
173.803 173.02 171.809 170.222 168.438 166.52 164.57 176.26 175.716 
174.676 173.192 171.46 169.501 167.337 165.237 178.598 178.351 177.574 
176.246 174.598 172.731 170.536 168.141 165.883 180.67 180.8 182.624 
182.487 183.885 180.415 183.159 184.529 181.744 179.366 183.254 184.699 
182.053 180.445 177.779 183.143 184.034 181.944 180.6 178.675 175.899 
182.425 182.569 181.576 180.205 178.622 176.594 173.715 181.025 180.909 
180.541 179.374 177.933 176.453 174.241 171.143 179.339 179.295 178.961 
178.106 176.959 175.79 174.151 171.48 168.406 177.581 177.598 177.24 
176.626 175.806 174.849 173.51 171.308 168.47 165.871 179.5 181.696 
180.191 182.243 180.351 183.594 182.096 179.92 184.105 185.083 181.32 
178.999 183.735 185.828 186.061 180.134 177.496 182.477 185.059 186.519 
185.73 178.349 175.267 180.776 182.983 184.864 185.107 183.9 175.75 
172.609 178.562 180.671 182.273 183.009 182.599 181.76 172.731 170.024 
175.619 178.084 179.854 180.839 180.931 180.526 180.024 169.886 167.786 
172.373 174.9 177.08 178.614 179.256 179.173 178.849 178.378 159.899 
161.619 160.829 162.782 161.882 163.713 164.013 162.913 165.042 166.118 
165.094 163.826 166.295 167.523 168.552 166.056 164.685 167.415 168.817 
170.133 170.876 167.079 165.551 168.659 170.288 171.817 172.893 173.252 
168.153 166.379 170.091 172.095 173.872 175.122 175.69 175.626 169.165 
167.13 171.478 173.878 175.932 177.331 178.07 178.176 177.735 158.18 
158.882 157.116 157.72 155.921 159.721 156.492 154.757 158.466 160.651 
155.356 153.877 157.206 159.315 161.581 154.411 153.296 155.967 157.985 
160.186 162.453 153.638 152.665 154.805 156.602 158.785 161.006 163.286 
152.822 151.748 153.824 155.278 157.339 159.558 161.788 164.084 151.873 
150.768 152.93 154.16 155.944 158.132 160.348 162.562 164.815 151 
150.036 152.081 153.246 154.743 156.752 158.999 161.17 163.283 165.461 