# vtk DataFile Version 4.0
vtk output
ASCII
DATASET POLYDATA
POINTS 1002 float
-103.869 -82.1874 76.9576 -103.731 -81.4196 75.9379 -104.163 -81.3892 76.6426 
-104.36 -82.1889 77.7778 -104.772 -81.43 77.4184 -104.025 -83.0202 78.2063 
-104.921 -82.2211 78.7009 -105.272 -81.4528 78.4558 -104.526 -83.0531 79.1165 
-104.186 -83.935 79.646 -105.303 -82.2383 79.8952 -105.588 -81.4435 79.7878 
-105.037 -83.1309 80.1276 -104.779 -84.0875 80.5241 -104.487 -84.9225 81.0494 
-105.635 -82.3346 81.3167 -105.987 -81.5531 81.1575 -105.419 -83.2525 81.4771 
-105.353 -84.3501 81.6815 -105.206 -85.3061 82.0397 -104.963 -86.0495 82.4799 
-106.177 -82.6676 82.6489 -106.576 -81.9358 82.287 -105.843 -83.5025 83.0032 
-105.756 -84.6084 83.2506 -105.74 -85.7645 83.5089 -105.549 -86.6541 83.8649 
-105.375 -87.504 84.2238 -106.87 -83.2047 83.7052 -107.261 -82.4879 83.2133 
-106.438 -83.9486 84.2782 -106.155 -84.9056 84.7301 -106.085 -86.1008 85.0489 
-105.977 -87.2296 85.3827 -105.808 -88.2268 85.7188 -105.791 -89.2769 85.9973 
-107.589 -83.7387 84.6014 -107.941 -82.9728 84.1284 -107.159 -84.4942 85.2129 
-106.751 -85.3575 85.7906 -106.563 -86.4848 86.1836 -106.511 -87.7297 86.5172 
-106.416 -88.9066 86.854 -106.392 -90.0137 87.1227 -106.521 -91.0459 87.3137 
-108.241 -84.1933 85.4344 -108.493 -83.3424 85.029 -107.925 -85.0481 85.9613 
-107.541 -85.9191 86.5671 -107.285 -87.0168 87.0376 -107.244 -88.3079 87.3762 
-107.226 -89.5676 87.7085 -107.189 -90.7181 87.9865 -107.273 -91.7357 88.1632 
-107.462 -92.6026 88.2682 -108.769 -84.6507 86.1662 -108.917 -83.7056 85.7862 
-108.614 -85.6393 86.6077 -108.357 -86.5482 87.1786 -108.092 -87.5858 87.7285 
-107.998 -88.8779 88.1407 -108.005 -90.184 88.5007 -107.971 -91.3512 88.8171 
-107.984 -92.3978 89.0186 -108.134 -93.312 89.1188 -108.343 -94.1057 89.1589 
-103.857 -80.6152 75.412 -104.395 -80.5941 76.1229 -104.183 -79.8682 74.8541 
-104.792 -79.8174 75.6317 -104.861 -79.3018 74.2275 -105.03 -80.6295 76.9712 
-105.458 -79.1901 75.0805 -105.7 -78.7761 73.4744 -105.37 -79.8033 76.5872 
-105.499 -80.6269 78.1691 -106.185 -78.6193 74.4334 -106.237 -77.9982 72.7911 
-105.938 -79.1166 76.1301 -105.82 -79.7631 77.9012 -105.876 -80.5999 79.6405 
-106.707 -77.8943 73.9637 -106.589 -77.1428 72.4702 -106.615 -78.5256 75.6136 
-106.386 -79.0816 77.4889 -106.283 -79.7874 79.4252 -106.37 -80.7679 81.0047 
-107.249 -77.1659 73.8203 -107.262 -76.6436 72.384 -107.24 -77.8634 75.2807 
-107.112 -78.5793 76.9705 -106.917 -79.2525 78.9697 -106.852 -80.1007 80.7364 
-107.012 -81.2561 82.0399 -107.98 -76.6755 73.7506 -108.152 -76.4424 72.2365 
-107.86 -77.2134 75.1507 -107.818 -78.0712 76.5713 -107.716 -78.8907 78.3686 
-107.548 -79.6426 80.2507 -107.56 -80.6497 81.7286 -107.752 -81.8452 82.9556 
-108.672 -76.356 73.62 -108.888 -76.2391 72.0412 -108.449 -76.6985 75.0767 
-108.387 -77.5244 76.3747 -108.423 -78.4556 77.909 -108.315 -79.1797 79.734 
-108.208 -80.0621 81.3535 -108.291 -81.2138 82.6891 -108.413 -82.3191 83.9371 
-109.246 -76.098 73.5356 -109.455 -75.9955 71.9497 -109.012 -76.3037 75.0546 
-108.885 -76.9933 76.3421 -108.923 -77.9408 77.685 -108.894 -78.6561 79.374 
-108.761 -79.4118 81.0574 -108.769 -80.5622 82.4345 -108.867 -81.7357 83.6892 
-108.892 -82.703 84.8548 -109.907 -75.8989 73.0153 -109.739 -75.9655 74.7167 
-110.551 -75.8763 74.2445 -110.512 -76.0345 75.9414 -111.328 -76.084 75.343 
-109.573 -76.3905 76.2043 -111.283 -76.5257 76.9914 -111.839 -76.7687 76.2491 
-110.361 -76.7603 77.3632 -109.48 -77.3242 77.5046 -111.655 -77.5097 78.052 
-111.997 -77.9044 77.3885 -111.037 -77.5057 78.4912 -110.145 -77.7957 78.7903 
-109.4 -78.1859 79.0881 -111.937 -78.7091 79.4428 -112.302 -79.1406 78.9746 
-111.526 -78.544 79.7773 -110.831 -78.5514 80.1331 -109.928 -78.623 80.5928 
-109.239 -78.8978 80.9114 -112.544 -79.9332 80.8692 -112.934 -80.3201 80.504 
-112.068 -79.7391 81.1396 -111.568 -79.6007 81.4642 -110.772 -79.5122 81.9607 
-109.853 -79.6559 82.343 -109.212 -80.0639 82.4349 -113.263 -81.1815 81.8835 
-113.555 -81.4678 81.533 -112.622 -81.1066 82.2171 -112.07 -80.9361 82.5996 
-111.596 -80.6884 83.1092 -110.849 -80.7466 83.5248 -109.986 -81.0857 83.6718 
-109.34 -81.4302 83.6885 -113.797 -82.297 82.602 -113.937 -82.5457 82.2062 
-113.145 -82.38 83.0542 -112.384 -82.4021 83.5243 -111.947 -82.0887 84.068 
-111.599 -81.8794 84.5312 -110.916 -82.0538 84.7377 -110.059 -82.298 84.8191 
-109.372 -82.4739 84.8806 -114.079 -83.258 83.3144 -114.094 -83.5824 82.8266 
-113.633 -83.3043 83.911 -112.907 -83.5331 84.4439 -112.291 -83.4959 84.9417 
-111.951 -83.2294 85.4109 -111.555 -83.1308 85.6865 -110.825 -83.2046 85.7932 
-109.984 -83.2944 85.8767 -109.34 -83.4504 85.8973 -109.301 -84.8367 86.689 
-109.827 -84.6418 86.8281 -109.919 -86.375 87.6921 -110.575 -84.5548 86.8296 
-110.54 -86.3055 87.883 -110.638 -87.9851 88.8667 -111.366 -84.5906 86.7492 
-111.223 -86.343 87.8763 -111.233 -88.0383 89.0183 -111.224 -89.5189 89.8772 
-111.963 -84.662 86.5818 -111.844 -86.4555 87.724 -111.761 -88.1873 88.885 
-111.758 -89.7515 89.8341 -111.751 -91.6009 90.3919 -112.472 -84.7164 86.2533 
-112.519 -86.3973 87.4821 -112.361 -88.2639 88.6738 -112.323 -90.0532 89.6532 
-112.377 -92.1264 90.2714 -112.447 -94.5441 90.7819 -113.061 -84.6257 85.8571 
-113.264 -86.1136 87.1915 -113.154 -88.0739 88.463 -113.016 -90.2092 89.586 
-113.085 -92.5936 90.2975 -113.157 -95.2332 90.8379 -113.242 -97.6477 91.5384 
-113.626 -84.3659 85.3863 -113.744 -85.8235 86.868 -113.751 -87.8704 88.1813 
-113.653 -90.2587 89.4134 -113.696 -92.8755 90.359 -113.77 -95.7131 90.9817 
-113.801 -98.3392 91.6614 -113.918 -100.506 92.4283 -114.01 -84.256 84.6889 
-113.912 -85.7509 86.3038 -113.885 -87.911 87.763 -113.943 -90.4347 89.0046 
-114.071 -93.0747 90.0818 -114.15 -95.9509 90.9022 -114.147 -98.7973 91.5894 
-114.214 -101.216 92.3011 -114.379 -103.329 92.9046 -114.143 -84.5038 83.9232 
-113.999 -85.9301 85.4429 -113.877 -88.057 87.0787 -113.988 -90.609 88.4761 
-114.255 -93.1937 89.5847 -114.404 -95.9564 90.5127 -114.382 -98.9439 91.3053 
-114.39 -101.675 91.9566 -114.515 -103.972 92.4576 -114.651 -106.071 92.7942 
-109.254 -86.036 87.1371 -109.901 -87.6458 88.2692 -109.152 -87.118 87.6627 
-110.556 -89.2077 89.4529 -109.766 -88.7372 88.7894 -108.925 -88.1267 88.2379 
-111.165 -91.1359 90.2931 -110.452 -90.6337 89.7924 -109.594 -90.0118 89.2168 
-108.75 -89.4081 88.7368 -111.862 -93.984 90.8189 -111.267 -93.3206 90.6144 
-110.473 -92.4948 90.132 -109.539 -91.6012 89.6591 -108.718 -90.8451 89.1799 
-112.685 -97.1986 91.5182 -112.102 -96.5368 91.4646 -111.438 -95.6105 91.1883 
-110.559 -94.3716 90.6525 -109.571 -93.1113 90.132 -108.71 -92.1358 89.5799 
-113.53 -100.217 92.4455 -112.909 -99.6675 92.3525 -112.191 -98.8672 92.2405 
-111.512 -97.6941 91.8125 -110.689 -96.1012 91.0834 -109.658 -94.5243 90.4763 
-108.725 -93.3245 89.8521 -114.218 -103.304 93.1197 -113.729 -102.95 93.0351 
-112.894 -102.256 92.9315 -112.142 -101.3 92.7832 -111.647 -99.8713 92.1425 
-110.896 -97.9114 91.3074 -109.806 -95.9591 90.6954 -108.853 -94.4392 90.0015 
-114.602 -106.434 93.1871 -114.358 -106.439 93.2662 -113.689 -105.892 93.1615 
-112.784 -104.964 93.1974 -112.214 -103.761 93.0048 -111.854 -101.953 92.2502 
-111.065 -99.5681 91.469 -109.973 -97.2401 90.8527 -109.063 -95.4178 90.069 
-114.781 -109.095 92.5436 -114.678 -109.65 92.9115 -114.837 -112.03 91.9973 
-114.65 -112.32 92.2375 -115.022 -114.307 91.3202 -114.395 -109.51 92.9415 
-114.668 -113.861 91.2946 -115.36 -115.923 90.5883 -114.336 -111.615 92.1991 
-113.678 -108.583 92.9674 -114.635 -114.881 90.3806 -115.472 -117.068 89.8314 
-114.174 -112.617 91.2373 -113.618 -110.261 92.4292 -112.82 -107.307 93.1882 
-114.336 -115.789 89.8252 -115.078 -117.365 89.1434 -113.788 -113.51 90.5609 
-113.387 -111.152 91.6883 -112.849 -108.734 92.7724 -112.365 -105.683 92.9312 
-113.783 -115.84 89.5342 -114.248 -116.563 88.6747 -113.263 -114.185 90.3532 
-112.979 -111.858 91.154 -112.749 -109.4 92.0355 -112.423 -106.699 92.4849 
-111.914 -103.285 92.1566 -113.094 -114.696 89.3061 -113.25 -115.019 88.5623 
-112.778 -113.667 90.1643 -112.577 -111.835 90.8427 -112.534 -109.501 91.3994 
-112.341 -106.933 91.8511 -111.813 -103.876 91.8888 -110.964 -100.398 91.4636 
-112.446 -112.81 89.2276 -112.446 -112.986 88.7322 -112.37 -112.058 89.8738 
-112.261 -110.703 90.4804 -112.214 -108.818 90.9857 -112.063 -106.567 91.405 
-111.575 -103.891 91.5638 -110.786 -100.783 91.2977 -109.89 -97.7739 90.7264 
-111.987 -110.507 89.2819 -111.982 -110.507 88.908 -112.016 -109.977 89.7192 
-111.973 -108.975 90.162 -111.828 -107.535 90.648 -111.567 -105.687 91.1283 
-111.123 -103.434 91.3221 -110.484 -100.789 91.0381 -109.744 -98.0729 90.4311 
-109.011 -95.789 89.7621 -114.818 -107.324 92.2091 -115.007 -110.338 91.7119 
-115.061 -108.334 91.7128 -115.364 -111.266 91.0427 -115.253 -108.934 91.4262 
-115.293 -113.263 91.0832 -115.554 -111.716 90.6121 -115.277 -108.903 91.0196 
-115.921 -114.222 90.3234 -115.881 -115.822 90.5473 -115.444 -111.333 90.1608 
-115.132 -108.102 90.5227 -116.13 -114.394 89.6855 -116.721 -116.868 89.7482 
-116.433 -117.742 89.9658 -115.127 -110.032 89.9333 -114.729 -106.541 90.3274 
-115.82 -113.31 89.1801 -116.735 -116.415 88.8808 -117.048 -118.406 89.0849 
-116.313 -118.467 89.139 -114.595 -107.953 90.0495 -114.225 -104.332 90.0599 
-115.264 -111.308 89.2237 -116.088 -114.489 88.3825 -116.643 -117.188 88.1969 
-116.401 -118.308 88.2843 -115.427 -117.784 88.3407 -114.128 -105.195 89.798 
-113.994 -101.748 89.1865 -114.598 -108.634 89.5534 -115.274 -111.87 88.6437 
-115.772 -114.801 87.9556 -115.756 -116.706 87.7994 -115.128 -117.021 87.8251 
-114.159 -116.261 88.0372 -113.95 -102.112 88.8819 -113.9 -99.1787 88.0176 
-114.099 -105.31 89.3499 -114.496 -108.561 89.0727 -114.903 -111.653 88.4092 
-114.995 -114.083 87.9928 -114.602 -115.214 87.8923 -113.826 -115.106 87.9543 
-113.018 -114.274 88.2424 -113.731 -99.2533 87.7829 -113.535 -96.9208 87.0436 
-113.796 -101.883 88.5186 -113.923 -104.724 88.9143 -114.135 -107.648 88.8157 
[...]
CELL_DATA 2000
SCALARS Distance double
LOOKUP_TABLE default
151.719 152.454 152.306 152.829 153.31 153.119 153.639 153.496 154.085 
154.192 153.993 154.521 154.357 154.969 154.84 155.497 155.17 154.918 
155.488 155.29 155.982 155.824 156.579 156.38 157.111 156.321 156.011 
156.64 156.369 157.133 156.944 157.815 157.608 158.443 158.144 158.958 
157.562 157.251 157.919 157.619 158.372 158.157 159.029 158.876 159.767 
159.541 160.387 160.102 161.004 158.781 158.507 159.184 158.908 159.626 
159.391 160.203 160.057 160.954 160.818 161.713 161.509 162.41 162.191 
163.141 159.895 159.686 160.366 160.138 160.857 160.621 161.417 161.234 
162.148 162.014 162.982 162.818 163.766 163.563 164.496 164.293 165.201 
160.859 160.73 161.434 161.28 162.026 161.83 162.628 162.45 163.355 
163.236 164.221 164.101 165.064 164.894 165.806 165.61 166.49 166.283 
167.126 151.179 150.653 151.214 151.902 150.329 150.763 151.443 152.02 
152.763 150.216 150.542 151.137 151.605 152.333 152.914 153.66 150.041 
150.439 150.989 151.363 152.016 152.52 153.29 153.85 154.634 149.727 
150.204 150.844 151.231 151.865 152.277 153.027 153.538 154.367 154.903 
155.75 149.652 149.989 150.723 151.1 151.808 152.185 152.942 153.373 
154.208 154.692 155.562 156.084 156.966 149.945 150.109 150.796 151.073 
151.812 152.17 152.971 153.366 154.203 154.615 155.475 155.937 156.826 
157.332 158.202 150.301 150.432 151.005 151.206 151.876 152.205 153.005 
153.412 154.248 154.644 155.465 155.885 156.743 157.222 158.085 158.56 
159.347 150.573 150.713 151.24 151.401 152.004 152.277 153.03 153.428 
154.239 154.652 155.427 155.844 156.647 157.127 157.967 158.447 159.217 
159.643 160.32 150.916 151.815 151.424 151.607 152.959 152.457 152.628 
152.17 152.404 154.179 153.69 153.903 153.343 153.57 153.09 153.441 
155.399 154.936 155.237 154.692 154.932 154.369 154.669 154.221 154.621 
156.847 156.27 156.663 156.092 156.419 155.804 156.084 155.511 155.844 
155.401 155.794 158.573 157.893 158.301 157.647 158.05 157.393 157.748 
157.055 157.39 156.752 157.144 156.63 157.065 160.233 159.628 159.975 
159.329 159.68 159.055 159.44 158.791 159.17 158.463 158.841 158.161 
158.576 157.994 158.417 161.56 161.119 161.434 160.895 161.176 160.606 
160.932 160.391 160.773 160.201 160.557 159.904 160.211 159.563 159.87 
159.306 159.626 162.609 162.284 162.63 162.221 162.538 162.031 162.348 
161.818 162.184 161.681 162.049 161.497 161.765 161.132 161.33 160.717 
160.941 160.413 160.682 161.464 161.758 162.013 162.966 162.186 162.389 
163.387 163.708 164.832 162.65 162.873 163.867 164.178 165.317 165.649 
166.717 162.962 163.295 164.287 164.637 165.725 166.094 167.155 167.447 
168.435 163.13 163.539 164.571 164.986 166.065 166.454 167.53 167.863 
168.941 169.222 170.4 163.283 163.698 164.757 165.221 166.34 166.77 
167.915 168.288 169.5 169.821 171.143 171.442 172.86 163.385 163.813 
164.813 165.342 166.46 166.994 168.191 168.683 169.984 170.429 171.828 
172.222 173.666 174.006 175.426 163.366 163.803 164.694 165.277 166.355 
167.011 168.229 168.876 170.198 170.814 172.206 172.776 174.172 174.669 
176.019 176.435 177.715 163.279 163.69 164.489 165.057 166.091 166.808 
168.047 168.813 170.147 170.884 172.241 172.947 174.302 174.958 176.26 
176.823 178.031 178.507 179.616 161.591 163.135 162.309 162.282 164.993 
164.039 163.994 163.063 162.962 166.851 165.944 165.871 164.876 164.74 
163.758 163.619 168.633 167.778 167.793 166.793 166.683 165.627 165.515 
164.49 164.404 170.72 169.739 169.983 168.891 168.957 167.749 167.701 
166.524 166.477 165.382 165.318 173.239 172.141 172.553 171.376 171.648 
170.321 170.367 168.955 168.873 167.572 167.477 166.317 166.183 175.856 
174.815 175.263 174.099 174.431 173.156 173.306 171.844 171.756 170.197 
170.001 168.581 168.389 167.151 166.944 178.254 177.404 177.932 176.832 
177.168 175.93 176.151 174.801 174.858 173.274 173.095 171.38 171.097 
169.526 169.254 167.91 167.652 180.234 179.665 180.323 179.44 179.836 
178.663 178.881 177.606 177.765 176.366 176.338 174.65 174.352 172.514 
172.113 170.424 170.055 168.627 168.307 181.38 183.069 182.109 181.621 
184.385 183.637 183.198 182.142 181.238 185.22 184.606 184.063 183.402 
182.574 181.467 180.282 185.696 185.105 184.288 183.859 183.101 182.477 
181.472 180.383 179.141 185.743 185.335 184.371 183.915 183.111 182.727 
181.929 181.297 180.216 179.148 177.744 185.053 185.093 184.256 183.941 
183.071 182.697 181.895 181.511 180.557 179.894 178.524 177.442 175.739 
183.68 184.116 183.453 183.552 182.693 182.526 181.595 181.337 180.335 
179.938 178.628 177.878 176.174 175.117 173.33 182.04 182.62 182.04 
182.437 181.638 181.795 180.828 180.795 179.725 179.522 178.241 177.743 
176.126 175.307 173.533 172.612 171.027 180.347 180.967 180.424 180.917 
180.192 180.516 179.618 179.774 178.735 178.719 177.486 177.21 175.692 
175.105 173.407 172.654 171.066 170.359 169.069 181.435 181.937 182.169 
183.074 182.365 182.641 183.574 183.776 184.519 182.467 182.962 183.986 
184.322 185.278 185.272 185.751 181.952 182.778 183.847 184.56 185.718 
186.099 186.875 186.533 186.592 180.89 181.967 182.939 183.994 185.097 
186.108 187.034 187.419 187.572 187.087 186.599 179.374 180.669 181.55 
182.744 183.601 184.9 185.716 186.839 187.071 187.419 186.837 186.503 
185.607 177.412 178.894 179.736 181.097 181.797 183.107 183.725 185.035 
185.334 186.247 185.841 186.084 185.154 185.011 184.022 175.224 176.727 
177.467 178.994 179.617 181.058 181.545 182.901 183.192 184.315 184.148 
184.761 184.053 184.203 183.262 183.223 182.301 173.074 174.456 175.033 
176.54 177.047 178.595 178.977 180.483 180.698 182.05 181.978 182.953 
182.453 182.94 182.114 182.286 181.377 181.432 180.551 163.449 164.148 
164.066 164.695 164.982 164.893 165.656 165.541 166.37 165.905 165.835 
166.764 166.674 167.694 167.504 168.465 166.981 166.896 167.972 167.91 
169.113 168.986 170.114 169.783 170.699 168.212 168.153 169.375 169.279 
170.6 170.496 171.767 171.511 172.545 172.063 172.869 169.403 169.483 
170.883 170.834 172.262 172.123 173.51 173.256 174.46 174.003 174.945 
174.291 175.019 170.469 170.685 172.236 172.355 173.917 173.873 175.369 
175.143 176.501 176.07 177.182 176.512 177.321 176.481 177.065 171.438 
171.742 173.356 173.635 175.289 175.452 177.024 176.984 178.385 178.128 
179.289 178.773 179.595 178.813 179.345 178.436 178.839 172.235 172.643 
174.247 174.658 176.318 176.671 178.243 178.434 179.785 179.776 180.867 
180.636 181.411 180.886 181.345 180.586 180.902 180.063 180.363 162.862 
162.074 162.813 163.483 161.038 161.933 162.651 163.462 164.216 159.838 
160.806 161.569 162.521 163.314 164.199 165.034 158.714 159.613 160.356 
161.345 162.171 163.189 164.071 165.032 165.988 157.727 158.544 159.223 
160.136 160.935 161.981 162.906 163.979 164.946 165.995 167.047 156.825 
157.58 158.22 159.047 159.807 160.782 161.711 162.789 163.755 164.839 
165.816 166.975 168.06 156.094 156.743 157.381 158.104 158.828 159.706 
160.607 161.638 162.591 163.63 164.531 165.631 166.623 167.893 169.02 
155.542 156.108 156.734 157.358 158.015 158.764 159.557 160.524 161.432 
162.47 163.325 164.346 165.232 166.407 167.474 168.818 169.963 155.007 
155.557 156.129 156.74 157.327 157.978 158.613 159.444 160.23 161.253 
162.097 163.132 163.958 165.036 165.987 167.249 168.337 169.708 170.777 
154.829 154.88 155.21 155.961 155.062 155.328 156.127 156.43 157.184 
155.443 155.61 156.391 156.643 157.433 157.672 158.449 155.963 156.063 
156.836 156.998 157.813 157.997 158.852 159.064 160.015 156.612 156.651 
157.455 157.54 158.422 158.534 159.494 159.627 160.669 160.843 161.903 
157.364 157.378 158.209 158.246 159.184 159.274 160.342 160.45 161.576 
161.661 162.76 162.827 163.847 158.085 158.148 159.009 159.055 160.002 
160.093 161.195 161.353 162.54 162.655 163.789 163.808 164.882 164.854 
165.915 158.724 158.839 159.744 159.851 160.825 160.931 162.023 162.196 
163.408 163.593 164.792 164.873 166.011 166.002 167.153 167.094 168.254 
159.334 159.459 160.38 160.55 161.569 161.737 162.845 163.026 164.236 
164.446 165.702 165.863 167.085 167.153 168.365 168.375 169.592 169.53 
170.682 159.955 161.336 160.758 161.058 163.037 162.323 162.713 162.026 
162.366 165.114 164.26 164.737 163.904 164.33 163.479 163.789 167.434 
166.531 167.08 166.14 166.627 165.65 166.021 165.011 165.278 169.904 
169 169.681 168.664 169.218 168.122 168.544 167.42 167.729 166.597 
166.812 172.568 171.665 172.572 171.491 172.196 170.939 171.431 170.132 
170.499 169.221 169.461 168.185 168.297 175.28 174.476 175.584 174.581 
175.494 174.188 174.799 173.297 173.709 172.209 172.487 171.017 171.132 
169.688 169.688 177.659 177.097 178.241 177.529 178.561 177.527 178.261 
176.837 177.26 175.632 175.867 174.221 174.303 172.684 172.637 171.084 
170.978 179.455 179.165 180.205 179.843 180.843 180.272 181.056 180.078 
180.5 179.106 179.231 177.621 177.579 175.909 175.755 174.103 173.885 
172.314 172.078 159.589 159.462 159.966 160.909 159.294 159.839 160.824 
161.39 162.53 159.1 159.664 160.72 161.336 162.568 163.196 164.556 
158.953 159.503 160.598 161.25 162.582 163.285 164.727 165.37 166.831 
158.778 159.372 160.436 161.111 162.432 163.251 164.752 165.526 167.008 
167.67 169.178 158.476 159.141 160.168 160.868 162.076 162.964 164.44 
165.408 166.945 167.772 169.295 170.039 171.668 158.17 158.821 159.861 
160.542 161.689 162.523 163.935 164.963 166.566 167.58 169.2 170.088 
171.745 172.582 174.283 157.989 158.575 159.634 160.269 161.429 162.168 
163.546 164.479 166.098 167.156 168.878 169.907 171.634 172.584 174.276 
175.14 176.697 157.896 158.437 159.479 160.09 161.246 161.95 163.29 
164.147 165.711 166.727 168.452 169.544 171.309 172.37 174.057 175.015 
176.519 177.338 178.591 158.745 157.419 158.25 158.589 156.116 156.881 
157.189 158.068 158.396 154.991 155.589 155.78 156.616 156.939 157.841 
158.175 153.977 154.484 154.51 155.207 155.444 156.34 156.685 157.618 
157.992 152.853 153.408 153.347 153.941 154.023 154.828 155.083 156.044 
156.378 157.393 157.76 151.656 152.241 152.204 152.754 152.739 153.412 
153.531 154.398 154.627 155.648 155.963 157.06 157.413 150.557 151.109 
151.123 151.632 151.592 152.148 152.184 152.894 153.054 153.922 154.196 
155.217 155.597 156.696 157.108 149.597 150.098 150.132 150.605 150.546 
151.024 150.997 151.601 151.731 152.474 152.746 153.599 153.989 154.967 
155.443 156.485 156.962 148.819 149.229 149.284 149.686 149.637 150.024 
149.957 150.453 150.542 151.216 151.49 152.276 152.664 153.523 153.993 
154.935 155.448 156.432 156.919 148.533 148.416 148.609 148.949 148.542 
148.568 148.766 148.955 149.241 148.706 148.735 148.84 148.846 148.985 
149.191 149.521 148.475 148.734 148.846 148.923 148.986 149.043 149.294 
149.565 150.092 148.011 148.319 148.511 148.78 148.937 149.068 149.318 
149.488 150.016 150.348 151.072 148.102 148.079 148.391 148.516 148.883 
149.036 149.473 149.624 150.222 150.444 151.212 151.509 152.314 148.926 
148.621 149.028 148.821 149.316 149.254 149.891 149.956 150.723 150.838 
151.668 151.821 152.665 152.862 153.681 149.96 149.645 150.069 149.757 
150.235 150.001 150.64 150.592 151.427 151.494 152.373 152.433 153.267 
153.346 154.169 154.307 155.131 150.905 150.642 151.05 150.793 151.232 
150.987 151.53 151.417 152.161 152.22 153.074 153.162 153.97 154.017 
154.792 154.865 155.665 155.793 156.597 151.549 152.639 151.947 151.711 
153.91 153.131 152.887 152.16 151.938 155.317 154.484 154.272 153.454 
153.241 152.453 152.29 156.867 155.957 155.782 154.93 154.772 153.901 
153.77 152.947 152.931 158.706 157.649 157.51 156.553 156.486 155.558 
155.49 154.573 154.565 153.747 153.832 160.855 159.701 159.64 158.505 
158.503 157.442 157.45 156.426 156.424 155.479 155.519 154.688 154.74 
163.079 161.979 162.005 160.819 160.824 159.643 159.652 158.521 158.518 
157.445 157.439 156.457 156.464 155.577 155.583 165.158 164.188 164.257 
163.173 163.165 162.002 161.961 160.792 160.758 159.615 159.578 158.475 
158.436 157.407 157.386 156.449 156.458 167.097 166.211 166.316 165.331 
165.343 164.261 164.215 163.078 163.031 161.879 161.827 160.668 160.589 
159.46 159.385 158.34 158.306 157.361 157.372 158.177 159.17 159.031 
159.792 160.323 160.142 160.999 160.788 161.632 161.623 161.432 162.409 
162.157 163.142 162.827 163.782 162.954 162.829 163.95 163.721 164.856 
164.529 165.659 165.227 166.299 164.203 164.179 165.441 165.337 166.643 
166.391 167.707 167.303 168.566 167.994 169.131 165.39 165.426 166.793 
166.833 168.323 168.238 169.754 169.476 170.931 170.425 171.711 170.988 
172.075 166.521 166.613 168.053 168.197 169.838 169.925 171.608 171.522 
173.097 172.783 174.145 173.578 174.694 173.913 174.835 167.505 167.698 
169.182 169.445 171.172 171.421 173.187 173.287 174.874 174.77 176.096 
175.784 176.858 176.335 177.207 176.487 177.214 168.282 168.586 170.078 
170.482 172.221 172.649 174.421 174.71 176.256 176.321 177.567 177.446 
178.459 178.182 179.018 178.566 179.247 178.615 179.172 150.054 149.77 
149.663 149.146 149.345 149.301 148.817 148.769 148.375 148.958 148.815 
148.342 148.389 148.141 148.175 148.032 149.045 148.614 148.107 147.977 
147.821 147.937 147.942 148.003 147.967 149.476 148.957 148.459 148.039 
147.831 147.742 147.771 147.855 147.838 147.889 147.781 149.697 149.355 
148.871 148.493 148.181 147.939 147.854 147.776 147.732 147.71 147.599 
147.619 147.523 149.767 149.461 148.94 148.692 148.284 148.151 147.977 
147.923 147.882 147.769 147.716 147.568 147.527 147.462 147.49 150.084 
149.632 149.115 148.73 148.267 148.069 147.858 147.899 147.964 148.001 
148.098 147.926 147.956 147.705 147.758 147.609 147.746 150.663 150.13 
149.69 149.127 148.679 148.204 147.932 147.783 147.886 148.024 148.306 
148.343 148.483 148.269 148.298 148.038 148.131 147.987 148.198 150.056 
149.129 149.648 149.848 148.359 148.736 148.94 149.532 149.934 148.008 
148.136 148.318 148.746 149.227 149.823 150.368 147.965 147.977 148.138 
148.352 148.873 149.321 149.944 150.396 150.897 147.853 147.958 148.147 
148.314 148.823 149.167 149.835 150.165 150.673 150.954 151.382 147.631 
147.8 148.034 148.276 148.724 149.104 149.716 150.104 150.629 150.87 
151.284 151.516 151.991 147.565 147.644 147.907 148.128 148.536 148.891 
149.376 149.823 150.299 150.718 151.159 151.485 151.955 152.23 152.748 
147.788 147.725 148.005 148.107 148.551 148.759 149.22 149.483 149.906 
150.275 150.741 151.206 151.72 152.143 152.638 152.969 153.444 148.254 
148.086 148.368 148.349 148.831 148.931 149.468 149.55 150.005 150.098 
150.568 150.842 151.399 151.812 152.339 152.742 153.191 153.564 154.013 
150.617 150.495 150.856 151.546 150.591 150.837 151.553 151.902 152.673 
150.945 151.057 151.715 151.966 152.711 153.069 153.844 151.4 151.476 
152.116 152.243 152.932 153.149 153.893 154.229 155.026 151.845 151.921 
152.62 152.739 153.444 153.509 154.199 154.365 155.182 155.507 156.456 
152.393 152.381 153.067 153.23 153.98 154.075 154.724 154.782 155.538 
155.772 156.769 157.127 158.2 153.097 152.98 153.55 153.649 154.373 
154.541 155.216 155.304 155.997 156.173 157.11 157.471 158.558 158.927 
159.906 153.822 153.695 154.189 154.161 154.818 154.931 155.666 155.782 
156.517 156.643 157.507 157.798 158.822 159.22 160.191 160.507 161.275 
154.473 154.402 154.92 154.835 155.443 155.454 156.187 156.286 157.072 
157.186 158.012 158.206 159.134 159.459 160.397 160.73 161.513 161.742 
162.351 158.58 157.938 157.918 157.253 157.312 157.28 156.616 156.609 
156.011 156.615 156.627 155.987 156.008 155.471 155.482 154.987 155.871 
155.889 155.226 155.313 154.774 154.911 154.452 154.518 154.014 155.249 
155.195 154.524 154.537 153.938 154.088 153.587 153.814 153.299 153.432 
152.841 154.751 154.658 154.045 153.965 153.376 153.335 152.794 152.896 
152.393 152.568 152.009 152.147 151.575 154.352 154.209 153.63 153.561 
153.029 152.924 152.383 152.294 151.8 151.796 151.296 151.333 150.799 
150.903 150.432 154.177 153.916 153.335 153.194 152.666 152.57 152.011 
151.928 151.4 151.361 150.869 150.808 150.271 150.225 149.723 149.826 
149.45 154.195 153.874 153.319 153.042 152.511 152.276 151.691 151.521 
150.956 150.918 150.437 150.428 149.915 149.819 149.272 149.222 148.799 
148.924 148.66 
POINT_DATA 1002
SCALARS Distance double
LOOKUP_TABLE default
152.186 151.171 151.802 152.933 152.628 153.369 153.799 153.506 154.187 
154.703 154.676 154.396 155.09 155.632 156.157 155.685 155.431 156.107 
156.753 157.354 157.823 156.919 156.617 157.319 157.977 158.719 159.259 
159.794 158.219 157.851 158.622 159.178 159.937 160.649 161.256 161.966 
159.452 159.042 159.884 160.375 161.059 161.869 162.623 163.354 164.106 
160.566 160.08 161.081 161.607 162.272 163.117 163.963 164.714 165.421 
166.077 161.546 160.953 162.193 162.805 163.473 164.323 165.225 166.007 
166.697 167.352 167.949 150.566 151.278 150.116 150.896 149.978 152.157 
150.755 149.919 151.765 153.082 150.646 149.561 151.572 152.716 154.076 
150.409 149.214 151.481 152.546 153.824 155.204 150.349 149.396 151.415 
152.532 153.753 155.051 156.432 150.585 149.859 151.458 152.568 153.817 
155.044 156.331 157.716 150.855 150.192 151.579 152.593 153.857 155.074 
156.281 157.62 158.923 151.096 150.435 151.772 152.662 153.836 155.029 
156.18 157.482 158.802 159.927 151.222 151.958 152.268 153.148 153.465 
152.782 154.461 154.613 154.103 153.829 155.738 155.849 155.516 155.18 
155.002 157.229 157.468 157.025 156.719 156.357 156.178 158.986 159.27 
158.692 158.437 158.092 157.724 157.534 160.629 160.801 160.313 160.038 
159.847 159.574 159.228 158.969 161.929 161.952 161.746 161.471 161.291 
161.186 160.913 160.494 160.149 162.974 162.902 162.992 162.88 162.695 
162.57 162.394 161.99 161.509 161.165 162.276 162.601 164.023 163.06 
164.503 165.971 163.57 164.976 166.475 167.708 163.924 165.371 166.833 
168.161 169.44 164.126 165.668 167.162 168.599 170.07 171.697 164.275 
165.873 167.483 169.106 170.801 172.567 174.324 164.286 165.882 167.631 
169.465 171.387 173.306 175.135 176.826 164.135 165.666 167.524 169.538 
171.597 173.643 175.577 177.352 178.975 163.963 165.374 167.24 169.386 
171.525 173.61 175.664 177.547 179.201 180.678 163.108 164.986 163.889 
166.876 165.753 164.581 168.754 167.751 166.549 165.417 171.03 170.173 
168.951 167.607 166.409 173.704 172.932 171.845 170.311 168.704 167.32 
176.423 175.667 174.699 173.382 171.58 169.722 168.128 178.969 178.412 
177.432 176.331 174.869 172.845 170.731 168.907 181.06 180.95 180.156 
179.065 177.909 176.246 173.974 171.639 169.623 182.414 182.866 183.938 
184.117 185.107 182.622 184.602 185.956 183.476 181.636 184.763 186.373 
183.507 182.33 180.459 184.873 185.987 183.482 182.353 181.112 179.086 
184.424 184.75 183.474 182.264 181.075 179.491 177.004 183.177 183.115 
182.763 181.848 180.682 179.255 177.146 174.381 181.571 181.438 181.377 
180.782 179.864 178.637 176.838 174.403 171.821 179.899 179.711 179.81 
179.396 178.684 177.666 176.163 174.081 171.743 169.636 181.22 182.881 
181.72 183.331 182.054 184.519 183.51 181.848 185.126 186.196 182.988 
181.032 185.053 186.981 187.451 181.892 179.756 183.95 186.295 187.829 
187.438 180.369 178.007 182.402 184.461 186.397 186.99 186.085 178.318 
175.923 180.532 182.469 184.253 185.356 185.177 184.202 175.951 173.805 
178.143 180.187 181.99 183.341 183.752 183.233 182.354 173.619 171.802 
175.537 177.469 179.286 180.832 181.774 181.84 181.275 180.508 163.485 
164.753 164.21 165.718 165.02 166.502 166.77 165.929 167.809 168.778 
167.995 167.024 169.157 170.38 171.192 169.445 168.17 170.691 171.959 
172.97 173.48 170.839 169.206 172.374 173.731 174.851 175.571 175.795 
172.016 170.192 173.861 175.527 176.862 177.805 178.184 177.996 173.025 
171.105 175.039 176.98 178.577 179.73 180.342 180.272 179.777 162.201 
162.756 161.267 161.777 160.074 163.422 160.569 158.876 162.366 164.157 
159.398 157.872 161.104 163.049 165.013 158.365 156.949 159.909 161.796 
163.88 165.949 157.429 156.101 158.872 160.644 162.696 164.694 166.808 
156.705 155.481 158.015 159.603 161.575 163.506 165.397 167.667 156.142 
155.005 157.36 158.678 160.394 162.33 164.141 166.161 168.597 155.525 