# vtk DataFile Version 4.0
vtk output
ASCII
DATASET POLYDATA
POINTS 1002 float
-103.841 -83.7638 79.5589 -103.94 -83.1767 78.5025 -104.447 -83.1582 79.2557 
-104.366 -83.7676 80.3416 -105.045 -83.1619 80.0668 -103.755 -84.4276 80.7205 
-104.984 -83.8278 81.1535 -105.729 -83.1781 80.9045 -104.344 -84.5603 81.512 
-103.776 -85.4337 81.8582 -105.704 -83.9475 82.0179 -106.501 -83.2812 81.7216 
-105.008 -84.7822 82.3228 -104.486 -85.7413 82.6211 -103.926 -86.6315 82.9535 
-106.563 -84.2779 82.8687 -107.342 -83.5948 82.4649 -105.761 -85.0584 83.2351 
-105.255 -86.0782 83.408 -104.785 -86.985 83.6625 -104.201 -87.7165 84.0734 
-107.499 -84.8655 83.611 -108.056 -83.9976 83.2852 -106.661 -85.4935 84.1209 
-106 -86.3243 84.3956 -105.58 -87.3437 84.5125 -105.057 -88.1843 84.8356 
-104.566 -89.0049 85.2045 -108.222 -85.3093 84.5005 -108.499 -84.2484 84.3746 
-107.597 -86.0348 84.8686 -106.781 -86.6253 85.3448 -106.178 -87.559 85.6507 
-105.714 -88.6695 85.8634 -105.282 -89.6646 86.0886 -105.004 -90.6002 86.2317 
-108.663 -85.4225 85.6541 -108.903 -84.423 85.489 -108.279 -86.3731 85.7964 
-107.589 -87.1229 86.1127 -106.856 -87.9482 86.5868 -106.345 -89.0509 86.9432 
-106.009 -90.2244 87.0534 -105.77 -91.2399 87.0634 -105.59 -92.0918 87.0818 
-109.103 -85.618 86.6162 -109.481 -84.7414 86.264 -108.735 -86.6316 86.8553 
-108.252 -87.6616 87.0211 -107.686 -88.6685 87.2855 -107.241 -89.6886 87.625 
-106.986 -90.7767 87.7619 -106.786 -91.8475 87.7282 -106.541 -92.7496 87.7502 
-106.279 -93.5043 87.817 -109.665 -86.1556 87.1367 -110.105 -85.2234 86.7317 
-109.221 -87.1777 87.5829 -108.794 -88.2347 87.9412 -108.411 -89.359 88.1323 
-108.13 -90.4751 88.2535 -107.98 -91.5289 88.2956 -107.85 -92.5934 88.2434 
-107.601 -93.5879 88.2782 -107.249 -94.3921 88.4228 -106.932 -95.0694 88.5033 
-104.363 -82.5035 78.0183 -104.98 -82.4567 78.8362 -105 -81.8191 77.5713 
-105.709 -81.6852 78.406 -105.908 -81.2867 77.0115 -105.658 -82.4434 79.7213 
-106.641 -81.0835 77.8025 -106.842 -80.8329 76.3573 -106.393 -81.6607 79.2967 
-106.368 -82.4805 80.5958 -107.567 -80.5226 77.202 -107.581 -80.1356 75.8562 
-107.289 -80.9706 78.6907 -107.067 -81.7361 80.1779 -107.148 -82.5805 81.4076 
-108.278 -79.6661 76.8767 -108.308 -79.2849 75.5165 -108.153 -80.1388 78.2266 
-107.94 -80.937 79.663 -107.847 -81.7859 81.082 -107.922 -82.7256 82.2472 
-108.943 -78.8369 76.5994 -109.182 -78.6544 75.17 -108.777 -79.1478 78.0263 
-108.736 -79.9467 79.3444 -108.688 -80.9367 80.7412 -108.547 -81.7908 82.1084 
-108.445 -82.9191 83.2832 -109.783 -78.2837 76.1899 -110.022 -78.0769 74.8927 
-109.466 -78.4733 77.7085 -109.328 -79.0273 79.1645 -109.374 -80.0359 80.505 
-109.278 -81.0176 81.8615 -108.995 -82.0276 83.1797 -108.843 -83.2516 84.4036 
-110.628 -77.6178 75.8811 -110.665 -77.2946 74.7561 -110.403 -77.9792 77.2728 
-110.095 -78.4318 78.8515 -109.939 -79.2168 80.3445 -109.896 -80.2509 81.6362 
-109.728 -81.3935 82.853 -109.512 -82.6025 84.1183 -109.447 -83.7111 85.3188 
-111.237 -76.8405 75.7498 -111.166 -76.5957 74.6278 -111.228 -77.3336 77.0173 
-111.012 -77.9217 78.5133 -110.689 -78.5918 80.1223 -110.492 -79.4526 81.5243 
-110.418 -80.6373 82.619 -110.327 -82.0255 83.7078 -110.231 -83.2167 84.9184 
-110.167 -84.1707 85.9811 -111.665 -76.3552 75.1989 -111.737 -76.6727 76.5809 
-112.169 -76.7147 75.9572 -112.233 -77.0891 77.5664 -112.824 -77.4878 76.8194 
-111.759 -77.3122 78.0501 -112.859 -77.8436 78.4749 -113.55 -78.1686 77.6346 
-112.254 -77.7812 79.138 -111.56 -78.0729 79.6718 -113.479 -78.6341 79.3082 
-113.941 -78.9892 78.5496 -112.836 -78.586 80.0327 -112.108 -78.6003 80.7597 
-111.265 -78.8455 81.3014 -113.887 -79.8191 80.3503 -114.05 -80.5119 79.7039 
-113.439 -79.6471 80.9125 -112.748 -79.5644 81.6028 -111.927 -79.5107 82.2822 
-111.116 -79.9033 82.575 -114.257 -81.4121 81.4241 -114.219 -82.229 80.7793 
-114.019 -80.9677 81.9495 -113.424 -80.8369 82.4618 -112.61 -80.7339 83.0626 
-111.809 -80.8765 83.48 -111.075 -81.4362 83.6019 -114.498 -82.8392 82.16 
-114.272 -83.5306 81.5798 -114.466 -82.2507 82.8203 -114.038 -82.0361 83.4212 
-113.232 -82.0895 83.9222 -112.361 -82.2095 84.3527 -111.66 -82.4799 84.6369 
-110.997 -82.8907 84.7765 -114.351 -84.1558 82.7451 -114.055 -84.7085 82.3195 
-114.476 -83.5613 83.4482 -114.325 -83.198 84.2836 -113.753 -83.2438 84.8963 
-112.857 -83.4624 85.2652 -112.035 -83.5634 85.6238 -111.447 -83.6815 85.8767 
-110.865 -83.9253 85.945 -114.049 -85.6648 83.4605 -113.823 -86.0685 83.1176 
-114.179 -85.2001 84.1185 -114.215 -84.7785 85.0571 -114.009 -84.5988 85.842 
-113.388 -84.6964 86.1817 -112.515 -84.7437 86.4296 -111.779 -84.6548 86.7598 
-111.256 -84.7285 86.8745 -110.724 -84.9865 86.7848 -110.407 -86.5225 87.3753 
-111.009 -86.2904 87.5529 -110.756 -88.1673 88.2126 -111.567 -86.0654 87.6875 
-111.423 -88.0053 88.4859 -111.192 -89.6776 89.317 -112.238 -86.1262 87.4652 
-112.064 -87.9611 88.4722 -111.873 -89.7954 89.4711 -111.547 -91.2453 90.2391 
-113.06 -86.3118 87.176 -112.697 -88.2111 88.0805 -112.334 -90.2283 89.1202 
-112.062 -92.0066 90.0802 -111.839 -93.8456 90.6409 -113.733 -86.4059 87.0849 
-113.287 -88.4965 87.9015 -112.637 -90.7573 88.6426 -112.269 -92.9734 89.5876 
-112.329 -95.085 90.4116 -112.429 -97.1974 90.9169 -114.014 -86.6042 86.6477 
-113.749 -88.7752 87.8485 -113.113 -91.0914 88.5316 -112.564 -93.5272 89.2733 
-112.725 -95.95 90.1868 -113.151 -98.2181 90.873 -113.275 -100.136 91.2325 
-114.018 -86.9163 85.6886 -113.978 -89.0518 87.2732 -113.717 -91.3403 88.3508 
-113.263 -93.7134 89.1276 -113.301 -96.1509 90.0384 -113.804 -98.6122 90.8152 
-114.07 -100.909 91.159 -113.993 -102.801 91.2203 -113.963 -87.1862 84.7507 
-114.013 -89.1249 86.2966 -114.032 -91.3735 87.7084 -113.866 -93.8146 88.7667 
-113.867 -96.2434 89.7127 -114.247 -98.697 90.5516 -114.587 -101.285 90.9499 
-114.621 -103.694 90.968 -114.55 -105.657 90.9027 -113.876 -87.4368 84.15 
-113.984 -89.0991 85.3991 -114.049 -91.1327 86.797 -113.997 -93.6285 88.1056 
-114.016 -96.2952 89.1811 -114.303 -98.873 90.0336 -114.692 -101.554 90.5352 
-114.934 -104.243 90.6409 -115.028 -106.509 90.6052 -115.074 -108.279 90.6012 
-109.956 -87.7331 87.8602 -110.326 -89.362 88.8409 -109.477 -88.7954 88.4911 
-110.731 -90.7344 89.9354 -109.832 -90.3097 89.5268 -109.065 -89.8323 88.9793 
-111.101 -92.822 90.6159 -110.203 -92.0902 90.3768 -109.4 -91.5232 89.9579 
-108.787 -91.0626 89.1498 -111.666 -96.1535 90.9177 -110.754 -95.084 90.8055 
-109.8 -94.0029 90.6369 -109.1 -93.0959 90.0949 -108.64 -92.3579 89.1122 
-112.509 -99.3978 91.2246 -111.683 -98.4455 91.0719 -110.665 -97.2121 90.9514 
-109.578 -95.8083 90.7827 -108.929 -94.6442 90.0489 -108.548 -93.6231 88.9882 
-113.331 -102.155 91.326 -112.655 -101.245 91.2285 -111.871 -100.127 91.0104 
-110.702 -98.6986 90.9502 -109.504 -97.2696 90.7284 -108.839 -96.0595 89.9229 
-108.368 -94.8182 88.9577 -114.054 -105.211 91.0639 -113.461 -104.364 91.0933 
-112.825 -103.239 90.9309 -111.971 -101.797 90.7914 -110.754 -100.118 90.7786 
-109.565 -98.5955 90.5254 -108.753 -97.2212 89.859 -108.063 -95.7632 89.0844 
-114.735 -108.296 90.7328 -114.231 -107.9 90.797 -113.55 -107.024 90.7917 
-112.789 -105.636 90.7476 -111.938 -103.696 90.6869 -110.865 -101.537 90.5752 
-109.687 -99.6542 90.3079 -108.645 -98.0245 89.8159 -107.751 -96.4569 89.1706 
-115.375 -110.685 90.4254 -115.013 -111.03 90.4661 -115.399 -113.151 89.9783 
-114.954 -113.566 89.9359 -115.166 -115.813 89.0143 -114.387 -110.789 90.5098 
-114.621 -115.544 89.0784 -115.115 -118.195 87.8918 -114.169 -112.995 90.1443 
-113.473 -109.774 90.6982 -114.341 -116.767 88.331 -115.059 -119.22 87.2876 
-113.743 -114.128 89.5981 -113.143 -111.587 90.6279 -112.622 -107.938 90.8221 
-113.909 -117.031 88.066 -114.294 -118.666 87.2382 -113.352 -114.663 89.0419 
-112.793 -112.399 90.1918 -112.42 -109.41 90.7466 -111.908 -105.301 90.63 
-113.108 -116.228 88.0388 -113.142 -117.198 87.357 -112.874 -114.531 88.7186 
-112.473 -112.62 89.5722 -112.184 -110.049 90.2854 -111.822 -106.288 90.3987 
-110.887 -102.466 90.3286 -112.296 -114.505 88.0224 -112.343 -115.028 87.545 
-112.26 -113.303 88.5882 -112.061 -111.811 89.2378 -111.777 -109.755 89.9079 
-111.436 -106.577 90.1754 -110.666 -102.993 90.0955 -109.529 -100.13 90.0295 
-111.632 -112.133 88.0756 -111.793 -112.188 87.7767 -111.607 -111.321 88.5472 
-111.543 -110.052 89.1218 -111.246 -108.4 89.7608 -110.767 -106.006 90.1373 
-110.082 -103.079 90.0168 -109.135 -100.402 89.7574 -108.254 -98.2558 89.5415 
-110.965 -109.475 88.114 -111.14 -109.189 87.8653 -110.92 -109.09 88.511 
-110.923 -108.096 88.9783 -110.675 -106.703 89.4906 -110.076 -104.883 89.9116 
-109.341 -102.687 89.8978 -108.57 -100.473 89.5142 -107.809 -98.4489 89.1597 
-107.243 -96.6303 88.8722 -115.552 -109.403 90.3192 -115.783 -111.615 90.0441 
-116.019 -110.14 89.8826 -116.116 -112.3 89.3377 -116.268 -110.502 89.2693 
-115.645 -114.291 89.2694 -116.094 -112.814 88.5372 -115.992 -110.282 88.712 
-115.942 -115.405 88.2281 -115.627 -117.651 87.9433 -115.565 -112.611 88.0958 
-115.42 -109.259 88.3749 -115.884 -115.992 87.4329 -116.3 -118.876 86.8089 
-116.026 -120.109 86.7502 -115.153 -111.237 87.9145 -114.963 -107.508 88.1531 
-115.345 -115.229 87.2584 -116.249 -118.585 86.257 -116.672 -120.316 85.7673 
-115.71 -120.196 86.2788 -114.964 -108.873 87.7545 -114.301 -105.182 87.9682 
-115.017 -112.982 87.3246 -115.408 -116.642 86.4606 -116.034 -118.775 85.5593 
-115.567 -119.377 85.5506 -114.245 -118.802 86.4199 -114.171 -105.901 87.7106 
-113.19 -102.519 87.7043 -114.67 -109.736 87.4889 -114.707 -113.381 87.0226 
-114.793 -115.953 86.2612 -114.582 -117.296 85.7832 -113.803 -117.617 86.1204 
-112.972 -116.799 86.8868 -112.852 -102.783 87.5291 -112.141 -99.99 87.1136 
-113.636 -106.098 87.6688 -114.003 -109.401 87.593 -113.939 -112.062 87.2426 
-113.688 -113.977 86.7583 -113.324 -115.118 86.637 -112.897 -115.078 86.9797 
-112.394 -113.895 87.4205 -111.841 -100.044 86.8133 -111.553 -97.9693 86.1531 
-112.407 -102.675 87.3285 -112.981 -105.503 87.6529 -113.219 -107.928 87.7305 
[...]
CELL_DATA 2000
SCALARS Distance double
LOOKUP_TABLE default
154.047 154.81 154.562 154.886 155.671 155.375 155.717 155.476 155.907 
156.635 156.294 156.663 156.383 156.869 156.634 157.166 157.737 157.355 
157.766 157.416 157.938 157.672 158.253 157.982 158.532 158.923 158.566 
159.037 158.619 159.124 158.794 159.387 159.112 159.7 159.39 159.981 
160.023 159.775 160.307 159.926 160.382 159.998 160.529 160.249 160.867 
160.593 161.228 160.925 161.603 160.992 160.822 161.394 161.128 161.591 
161.226 161.706 161.394 162.017 161.771 162.466 162.197 162.892 162.601 
163.29 161.931 161.759 162.349 162.154 162.699 162.403 162.943 162.612 
163.264 162.981 163.73 163.46 164.206 163.906 164.609 164.285 164.947 
162.868 162.693 163.293 163.121 163.748 163.521 164.161 163.88 164.577 
164.292 165.053 164.773 165.545 165.247 165.988 165.65 166.344 165.965 
166.615 153.677 153.441 153.839 154.458 153.364 153.666 154.289 154.683 
155.332 153.416 153.648 154.208 154.547 155.209 155.6 156.28 153.427 
153.697 154.212 154.493 155.105 155.482 156.175 156.582 157.318 153.325 
153.643 154.17 154.468 155.039 155.395 156.07 156.473 157.193 157.632 
158.408 153.302 153.543 154.044 154.352 154.919 155.307 155.992 156.399 
157.103 157.495 158.206 158.681 159.445 153.436 153.589 154.043 154.257 
154.807 155.161 155.868 156.312 157.048 157.432 158.108 158.491 159.207 
159.687 160.436 153.531 153.72 154.183 154.353 154.894 155.133 155.812 
156.194 156.952 157.363 158.077 158.439 159.153 159.54 160.305 160.721 
161.449 153.509 153.753 154.263 154.503 155.08 155.3 155.946 156.219 
156.936 157.287 158.026 158.405 159.162 159.548 160.332 160.702 161.445 
161.775 162.433 153.665 154.368 154.132 154.486 155.445 155.012 155.356 
155.066 155.419 156.712 156.209 156.504 156.085 156.437 156.062 156.369 
157.925 157.466 157.763 157.304 157.633 157.186 157.494 157.052 157.346 
159.238 158.726 159.109 158.604 158.97 158.458 158.779 158.262 158.556 
158.083 158.411 160.746 160.193 160.637 160.065 160.481 159.891 160.242 
159.642 159.963 159.394 159.746 159.236 159.608 162.038 161.651 162.054 
161.593 161.983 161.443 161.782 161.171 161.478 160.87 161.216 160.66 
161.038 160.495 160.834 162.967 162.724 163.09 162.807 163.186 162.824 
163.179 162.678 162.962 162.373 162.641 162.092 162.398 161.899 162.193 
161.67 161.912 163.866 163.596 164.011 163.748 164.214 163.936 164.413 
164.019 164.384 163.828 164.065 163.467 163.685 163.165 163.407 162.933 
163.152 162.654 162.845 163.551 163.875 164.083 164.896 164.161 164.409 
165.298 165.577 166.524 164.492 164.726 165.662 165.987 167.022 167.28 
168.191 164.93 165.139 166.067 166.357 167.387 167.727 168.726 168.932 
169.857 165.296 165.605 166.537 166.791 167.73 168.037 169.053 169.402 
170.503 170.752 171.927 165.328 165.846 166.855 167.237 168.17 168.411 
169.387 169.723 170.953 171.385 172.764 173.058 174.346 165.065 165.701 
166.767 167.403 168.461 168.847 169.842 170.141 171.362 171.838 173.312 
173.807 175.192 175.437 176.544 164.783 165.37 166.386 167.147 168.281 
168.961 170.044 170.539 171.697 172.22 173.599 174.214 175.609 176.091 
177.257 177.465 178.437 164.605 165.107 166.02 166.712 167.776 168.585 
169.696 170.476 171.618 172.344 173.59 174.321 175.634 176.306 177.523 
177.991 179.036 179.273 180.204 163.58 164.969 164.185 164.073 166.584 
165.711 165.589 164.737 164.584 168.19 167.339 167.191 166.315 166.148 
165.269 165.073 169.889 168.963 168.847 167.926 167.782 166.881 166.722 
165.794 165.578 172.069 170.926 170.948 169.794 169.733 168.641 168.537 
167.519 167.357 166.344 166.104 174.49 173.345 173.445 172.192 172.18 
170.876 170.755 169.507 169.335 168.203 167.986 166.9 166.62 176.653 
175.689 175.767 174.669 174.634 173.4 173.218 171.878 171.603 170.309 
170.047 168.857 168.578 167.427 167.094 178.627 177.763 177.931 176.897 
176.931 175.766 175.652 174.337 174.059 172.665 172.33 171.008 170.688 
169.448 169.08 167.877 167.465 180.515 179.774 180.13 179.15 179.354 
178.167 178.216 176.864 176.725 175.233 174.912 173.404 173.009 171.615 
171.189 169.894 169.417 168.192 167.72 181.606 183.112 182.12 181.386 
184.302 183.528 182.925 181.774 180.722 185.158 184.49 183.885 183.096 
182.145 180.921 179.601 185.659 185.079 184.221 183.696 182.831 182.068 
180.838 179.594 178.069 185.414 185.194 184.165 183.771 182.849 182.433 
181.387 180.555 179.04 177.798 176.134 184.268 184.501 183.576 183.46 
182.491 182.274 181.291 180.821 179.422 178.475 176.712 175.613 173.997 
182.621 183.107 182.308 182.544 181.606 181.669 180.658 180.496 179.159 
178.555 176.806 175.909 174.165 173.351 171.937 180.744 181.368 180.609 
181.063 180.169 180.476 179.459 179.576 178.286 178.03 176.368 175.746 
173.986 173.3 171.784 171.235 170.01 178.666 179.405 178.71 179.291 
178.469 178.894 177.922 178.18 176.971 176.96 175.454 175.118 173.469 
172.957 171.437 170.949 169.674 169.285 168.22 181.93 182.592 182.655 
183.322 182.885 183.133 183.795 183.922 184.487 182.688 183.222 183.985 
184.31 185.09 185.139 185.626 181.89 182.778 183.717 184.392 185.421 
185.794 186.571 186.351 186.465 180.632 181.778 182.8 183.855 184.951 
185.844 186.663 187.016 187.094 186.762 186.175 178.977 180.358 181.341 
182.639 183.579 184.837 185.463 186.395 186.315 186.66 185.938 185.786 
184.791 176.78 178.418 179.325 180.867 181.613 183.026 183.43 184.607 
184.469 185.244 184.625 184.973 184.101 184.07 183.061 174.245 175.928 
176.72 178.476 179.121 180.713 180.995 182.296 182.166 183.161 182.741 
183.43 182.804 183.125 182.258 182.224 181.161 171.894 173.329 173.942 
175.647 176.23 177.944 178.232 179.687 179.582 180.758 180.422 181.41 
180.92 181.625 180.855 181.166 180.105 180.133 178.979 164.78 165.522 
165.488 166.226 166.288 166.299 167.099 167.06 167.918 167.054 167.108 
167.997 167.976 168.896 168.877 169.847 167.879 167.95 168.979 168.971 
170.017 169.963 171.05 170.953 171.945 168.742 168.855 170.009 170.061 
171.251 171.215 172.418 172.308 173.446 173.18 174.099 169.532 169.738 
170.998 171.156 172.487 172.53 173.869 173.793 175.075 174.837 175.918 
175.444 176.249 170.188 170.507 171.905 172.19 173.705 173.845 175.356 
175.337 176.796 176.61 177.877 177.422 178.339 177.639 178.241 170.732 
171.151 172.687 173.123 174.814 175.112 176.743 176.847 178.361 178.33 
179.668 179.401 180.376 179.769 180.35 179.523 179.848 171.191 171.691 
173.309 173.887 175.673 176.165 177.83 178.11 179.532 179.679 180.893 
180.913 181.822 181.553 182.081 181.486 181.749 180.94 181.057 164.068 
163.081 163.935 164.68 161.961 162.829 163.543 164.54 165.37 160.912 
161.697 162.352 163.331 164.172 165.214 166.077 159.952 160.695 161.313 
162.186 162.985 163.993 164.883 165.926 166.831 159.009 159.737 160.341 
161.174 161.906 162.844 163.689 164.72 165.641 166.709 167.644 158.239 
158.839 159.392 160.166 160.842 161.748 162.518 163.521 164.394 165.483 
166.413 167.506 168.398 157.7 158.165 158.608 159.234 159.824 160.657 
161.38 162.333 163.133 164.191 165.073 166.206 167.08 168.179 168.996 
157.195 157.633 157.962 158.472 158.92 159.646 160.303 161.203 161.952 
162.928 163.724 164.812 165.663 166.798 167.604 168.702 169.476 156.616 
157.067 157.341 157.797 158.122 158.734 159.277 160.12 160.829 161.76 
162.493 163.481 164.269 165.363 166.179 167.284 168.039 169.133 169.89 
156.372 156.289 156.587 157.105 156.354 156.57 157.096 157.332 157.893 
156.606 156.738 157.297 157.439 158.057 158.274 159.046 157.035 157.094 
157.72 157.791 158.482 158.605 159.446 159.67 160.61 157.603 157.62 
158.307 158.348 159.132 159.194 160.083 160.212 161.178 161.353 162.304 
158.135 158.21 158.919 158.999 159.835 159.927 160.863 160.957 161.94 
162.032 163.016 163.113 164.09 158.487 158.666 159.396 159.574 160.417 
160.598 161.547 161.721 162.718 162.843 163.84 163.921 164.924 164.995 
165.991 158.775 158.976 159.762 160.002 160.891 161.128 162.086 162.325 
163.328 163.547 164.552 164.72 165.717 165.839 166.826 166.906 167.849 
159.188 159.332 160.175 160.404 161.368 161.615 162.627 162.861 163.898 
164.126 165.175 165.381 166.423 166.59 167.617 167.731 168.726 168.765 
169.712 159.756 161.166 160.537 160.812 162.823 162.119 162.424 161.746 
162.073 164.589 163.882 164.256 163.503 163.855 163.103 163.409 166.546 
165.798 166.316 165.481 165.931 165.058 165.408 164.512 164.765 168.769 
167.986 168.686 167.764 168.36 167.361 167.835 166.755 167.037 165.944 
166.125 171.103 170.378 171.244 170.335 171.065 170.011 170.616 169.438 
169.819 168.497 168.638 167.359 167.45 173.433 172.801 173.866 173.033 
173.93 172.87 173.578 172.379 172.887 171.504 171.698 170.152 170.135 
168.711 168.712 175.684 175.183 176.439 175.751 176.832 175.84 176.62 
175.417 175.983 174.651 174.968 173.396 173.383 171.667 171.509 169.977 
169.879 177.648 177.358 178.66 178.24 179.374 178.65 179.428 178.386 
178.892 177.691 178.045 176.653 176.734 175.036 174.817 173.007 172.712 
171.115 170.909 159.444 159.413 159.857 160.798 159.269 159.815 160.793 
161.332 162.405 158.911 159.58 160.604 161.271 162.362 162.957 164.083 
158.489 159.168 160.212 160.979 162.094 162.811 163.942 164.619 165.873 
158.18 158.787 159.817 160.562 161.704 162.469 163.626 164.382 165.673 
166.487 167.943 158.02 158.556 159.579 160.232 161.401 162.127 163.346 
164.08 165.417 166.254 167.778 168.653 170.205 157.988 158.478 159.511 
160.075 161.248 161.921 163.192 163.891 165.251 166.043 167.583 168.48 
170.077 170.926 172.456 157.995 158.49 159.51 160.04 161.166 161.81 
163.064 163.774 165.097 165.875 167.342 168.258 169.846 170.768 172.305 
173.144 174.621 157.944 158.47 159.457 160.001 161.052 161.687 162.865 
163.598 164.855 165.644 166.997 167.917 169.433 170.446 171.987 172.924 
174.36 175.219 176.571 158.705 157.725 158.342 158.636 156.739 157.344 
157.537 158.214 158.444 155.604 156.239 156.328 157.022 157.138 157.884 
158.04 154.443 155.019 154.994 155.668 155.701 156.478 156.594 157.41 
157.601 153.394 153.892 153.805 154.331 154.267 154.964 155.05 155.904 
156.111 156.993 157.273 152.33 152.847 152.779 153.239 153.124 153.626 
153.602 154.329 154.48 155.409 155.692 156.675 157.045 151.252 151.743 
151.689 152.209 152.151 152.606 152.525 153.018 153.023 153.757 153.964 
154.97 155.372 156.464 156.948 150.437 150.75 150.684 151.133 151.145 
151.643 151.646 152.072 152.028 152.485 152.569 153.313 153.683 154.735 
155.29 156.411 156.955 150.037 150.149 150.089 150.311 150.334 150.719 
150.805 151.233 151.263 151.631 151.662 152.143 152.407 153.202 153.732 
154.767 155.364 156.43 156.944 149.947 149.879 149.906 149.936 149.78 
149.817 149.822 149.914 150.09 149.727 149.731 149.792 149.846 150.01 
150.162 150.492 149.91 149.801 149.935 149.922 150.1 150.133 150.368 
150.575 150.917 150.286 150.109 150.266 150.2 150.379 150.291 150.411 
150.454 150.703 150.96 151.337 150.756 150.543 150.721 150.622 150.839 
150.663 150.745 150.58 150.777 150.857 151.321 151.543 152.132 151.408 
151.114 151.351 151.172 151.476 151.243 151.419 151.097 151.322 151.167 
151.696 151.769 152.502 152.644 153.448 152.269 151.911 152.18 151.913 
152.248 151.99 152.269 151.931 152.228 151.942 152.46 152.369 153.107 
153.168 153.999 154.139 155.019 153.191 152.836 153.076 152.777 153.061 
152.798 153.094 152.822 153.172 152.915 153.411 153.242 153.902 153.857 
154.627 154.709 155.551 155.722 156.581 153.762 154.6 153.99 153.66 
155.611 154.894 154.542 153.917 153.618 156.86 156.031 155.665 154.892 
154.566 153.916 153.654 158.229 157.372 157.055 156.176 155.869 155.032 
154.78 154.053 153.841 159.714 158.819 158.592 157.684 157.463 156.528 
156.315 155.405 155.222 154.385 154.212 161.39 160.445 160.296 159.336 
159.194 158.229 158.086 157.108 156.957 155.981 155.821 154.888 154.747 
163.106 162.204 162.109 161.146 161.031 160.039 159.938 158.95 158.875 
157.859 157.751 156.688 156.551 155.542 155.466 164.755 163.908 163.861 
162.964 162.89 161.921 161.838 160.848 160.819 159.834 159.815 158.747 
158.652 157.518 157.42 156.377 156.38 166.411 165.57 165.568 164.706 
164.702 163.783 163.751 162.776 162.748 161.782 161.777 160.795 160.731 
159.654 159.521 158.42 158.343 157.345 157.375 158.214 159.209 159.051 
159.768 160.385 160.151 160.892 160.668 161.408 161.602 161.39 162.161 
161.898 162.7 162.435 163.257 162.709 162.599 163.469 163.243 164.129 
163.85 164.761 164.434 165.298 163.75 163.716 164.735 164.598 165.628 
165.385 166.424 166.079 167.066 166.612 167.521 164.771 164.797 165.928 
165.9 167.077 166.942 168.149 167.873 169.046 168.583 169.663 169.054 
170.046 165.706 165.807 166.994 167.089 168.372 168.389 169.737 169.633 
170.991 170.68 171.93 171.375 172.464 171.742 172.67 166.558 166.7 
167.919 168.111 169.477 169.643 171.104 171.182 172.664 172.578 173.939 
173.602 174.738 174.155 175.076 174.312 175.066 167.39 167.539 168.758 
168.996 170.401 170.689 172.236 172.486 174.054 174.155 175.565 175.436 
176.584 176.223 177.137 176.573 177.325 176.581 177.228 153.075 153.1 
152.89 152.472 153.007 152.861 152.421 152.243 151.775 152.785 152.643 
152.148 152.072 151.593 151.475 151.007 152.712 152.412 151.775 151.653 
151.149 151.166 150.766 150.726 150.404 152.867 152.47 151.818 151.422 
150.882 150.731 150.431 150.449 150.255 150.25 150.104 152.943 152.663 
152.178 151.729 151.264 150.813 150.534 150.303 150.214 150.149 150.091 
150.05 149.968 152.853 152.663 152.247 152.041 151.664 151.336 150.99 
150.64 150.42 150.225 150.148 150.079 150.031 149.961 149.898 152.871 
152.585 152.1 151.951 151.543 151.462 151.062 150.919 150.516 150.367 
150.102 150.078 149.991 150.014 149.976 149.929 149.898 153.132 152.724 
152.216 151.878 151.428 151.241 150.864 150.766 150.402 150.295 149.98 
149.936 149.792 149.872 149.856 149.938 149.923 149.93 149.927 152.975 
152.383 152.701 152.855 151.683 152.062 152.232 152.707 153.08 150.91 
151.286 151.426 151.994 152.391 153.001 153.44 150.36 150.585 150.691 
151.157 151.55 152.216 152.705 153.319 153.71 150.121 150.224 150.364 
150.607 150.984 151.46 152.016 152.595 153.104 153.606 154.001 149.961 
150.061 150.22 150.421 150.774 151.094 151.64 152.084 152.709 153.15 
153.672 154.022 154.438 149.841 149.898 150.01 150.234 150.542 150.882 
151.348 151.786 152.393 152.871 153.457 153.817 154.25 154.521 154.905 
149.861 149.836 149.93 150.048 150.342 150.613 151.041 151.436 151.972 
152.491 153.057 153.545 153.966 154.31 154.628 154.952 155.329 149.966 
149.931 150.072 150.095 150.421 150.549 151.004 151.225 151.737 152.089 
152.62 153.07 153.505 153.914 154.223 154.593 154.923 155.335 155.741 
153.341 153.278 153.491 154.05 153.569 153.621 154.188 154.405 155.156 
153.966 154.016 154.574 154.694 155.42 155.664 156.456 154.231 154.365 
154.922 155.08 155.745 155.964 156.685 156.932 157.646 154.459 154.584 
155.142 155.345 155.985 156.227 156.906 157.143 157.839 158.094 158.885 
154.805 154.847 155.362 155.532 156.156 156.406 157.099 157.356 158.093 
158.337 159.163 159.455 160.362 155.269 155.251 155.721 155.789 156.353 
156.55 157.225 157.523 158.282 158.595 159.404 159.728 160.57 160.911 
161.682 155.774 155.76 156.247 156.225 156.733 156.793 157.393 157.628 
158.352 158.708 159.461 159.845 160.577 160.979 161.676 162.037 162.636 
156.23 156.268 156.782 156.775 157.255 157.235 157.754 157.853 158.507 
158.772 159.488 159.822 160.502 160.874 161.549 161.949 162.613 162.938 
163.539 158.56 158.15 158.078 157.608 157.867 157.731 157.204 157.152 
156.665 157.529 157.441 156.871 156.77 156.208 156.155 155.594 157.011 
157.013 156.456 156.403 155.798 155.704 155.092 155.035 154.469 156.446 
156.44 155.908 155.923 155.365 155.293 154.659 154.552 153.952 153.925 
153.4 156.015 155.915 155.357 155.357 154.86 154.854 154.295 154.173 
153.555 153.441 152.879 152.865 152.342 155.772 155.565 154.969 154.861 
154.358 154.358 153.884 153.828 153.271 153.121 152.54 152.412 151.872 
151.817 151.314 155.729 155.428 154.855 154.602 154.104 153.967 153.525 
153.442 152.948 152.834 152.277 152.132 151.581 151.448 150.964 150.886 
150.511 155.837 155.493 154.984 154.647 154.216 153.925 153.524 153.26 
152.792 152.563 152.04 151.868 151.345 151.202 150.732 150.628 150.292 
150.253 150.067 
POINT_DATA 1002
SCALARS Distance double
LOOKUP_TABLE default
154.336 153.547 154.262 155.091 155.081 155.234 155.955 155.981 156.107 
156.383 156.948 156.977 157.088 157.415 157.704 158.141 158.094 158.213 
158.515 158.831 159.064 159.465 159.213 159.506 159.657 159.992 160.278 
160.604 160.648 160.211 160.809 160.833 161.1 161.513 161.897 162.31 
161.608 161.159 161.929 162.038 162.25 162.703 163.185 163.597 163.965 
162.513 162.122 162.928 163.244 163.552 163.994 164.495 164.938 165.294 
165.584 163.445 163.039 163.925 164.395 164.848 165.333 165.833 166.308 
166.719 167.02 167.242 153.226 154.033 153.068 153.902 153.126 154.936 
153.92 153.207 154.808 155.885 153.967 153.109 154.755 155.757 156.885 
153.858 153.012 154.688 155.678 156.779 157.919 153.762 153.136 154.515 
155.558 156.743 157.789 158.913 153.873 153.304 154.498 155.413 156.637 
157.767 158.773 159.94 153.987 153.304 154.694 155.493 156.535 157.688 
158.78 159.91 161.067 153.972 153.253 154.833 155.716 156.634 157.642 
158.751 159.957 161.133 162.139 153.771 154.655 154.681 155.702 155.955 
155.713 156.972 157.212 156.841 156.761 158.219 158.348 158.101 157.96 
157.765 159.616 159.755 159.496 159.317 159.062 158.843 161.211 161.274 
161.086 160.863 160.55 160.28 160.117 162.47 162.373 162.484 162.382 
162.105 161.784 161.586 161.414 163.332 163.197 163.472 163.608 163.55 
163.234 162.909 162.701 162.466 164.261 164.143 164.444 164.732 164.903 
164.703 164.261 163.889 163.633 163.36 164.259 164.634 165.799 164.963 
166.302 167.474 165.329 166.699 168.068 169.034 165.829 167.048 168.419 
169.698 170.845 166.287 167.5 168.652 170.098 171.723 173.223 166.354 
167.93 169.089 170.429 172.341 174.237 175.584 166.024 167.932 169.531 
170.914 172.75 174.85 176.495 177.56 165.649 167.492 169.427 171.181 
173.003 175.049 176.935 178.348 179.412 165.416 167.001 168.842 170.827 
172.856 174.918 176.944 178.701 180.067 181.14 164.853 166.482 165.435 
168.064 167.03 165.981 169.794 168.686 167.634 166.555 172.15 170.91 
169.61 168.372 167.148 174.671 173.524 172.116 170.546 169.094 167.721 
176.82 175.817 174.566 172.978 171.291 169.762 168.256 178.918 178.062 
176.922 175.475 173.731 171.975 170.33 168.659 181.002 180.481 179.53 
178.208 176.503 174.513 172.545 170.696 168.899 182.683 182.684 183.976 
183.933 185.009 182.168 184.536 185.94 183.197 181.079 184.771 186.273 
183.365 181.939 179.508 184.546 185.428 183.187 182.004 180.229 177.398 
183.535 183.845 182.655 181.638 180.239 177.811 174.939 181.948 182.076 
181.45 180.722 179.621 177.629 174.988 172.574 180.088 180.076 179.801 
179.267 178.397 176.853 174.632 172.342 170.438 178.059 177.871 177.992 
177.622 176.885 175.639 173.877 171.902 170.069 168.519 181.972 183.314 
182.494 183.595 182.57 184.487 183.509 181.992 184.863 185.937 182.841 
180.85 184.817 186.598 187.186 181.655 179.404 183.922 186.127 187.267 
186.83 180.027 177.512 182.356 184.472 185.794 185.884 185.103 177.727 
175.109 180.233 182.265 183.563 184.058 183.937 183.266 174.959 172.673 
177.482 179.659 181.075 181.874 182.305 182.178 181.337 172.361 170.652 
174.51 176.704 178.342 179.343 180.066 180.405 179.994 178.996 164.785 
166.266 165.516 167.118 166.233 167.917 167.978 166.955 168.9 169.879 
168.922 167.765 170.041 171.119 172.162 169.884 168.584 171.227 172.493 
173.653 174.531 170.754 169.264 172.363 173.879 175.244 176.339 176.895 
171.51 169.798 173.459 175.302 176.897 178.258 179.043 179.09 172.151 
170.253 174.407 176.584 178.353 179.844 180.911 181.183 180.787 163.28 
163.743 162.223 162.525 161.141 164.364 161.428 160.171 163.108 165.048 
160.491 159.198 162.025 163.826 165.779 159.526 158.307 161.011 162.686 
164.56 166.589 158.688 157.724 159.965 161.552 163.32 165.305 167.349 
158.088 157.294 159.053 160.457 162.133 163.951 165.966 167.929 157.523 
156.771 158.28 159.431 161.023 162.703 164.522 166.503 168.381 156.91 