# vtk DataFile Version 4.0
vtk output
ASCII
DATASET POLYDATA
POINTS 1002 float
-104.204 -84.155 78.4318 -104.281 -83.5331 77.2263 -104.803 -83.4066 78.0827 
-104.855 -84.105 79.2706 -105.33 -83.1665 79.0753 -104.155 -84.7897 79.7532 
-105.46 -83.93 80.301 -105.765 -82.8903 80.2703 -104.966 -84.8569 80.5571 
-104.382 -85.5404 81.0799 -105.854 -83.7118 81.6182 -106.277 -82.815 81.4603 
-105.584 -84.784 81.7282 -105.208 -85.7412 82.0201 -104.851 -86.6531 82.3702 
-106.45 -83.7992 82.8107 -107.122 -83.0531 82.3617 -106.028 -84.7476 83.1508 
-105.794 -85.87 83.3801 -105.589 -87.0217 83.5343 -105.399 -88.1343 83.6832 
-107.509 -84.2934 83.6407 -108.122 -83.4994 83.1326 -106.898 -85.1205 84.1834 
-106.495 -86.1834 84.5796 -106.323 -87.4268 84.7746 -106.217 -88.6133 84.8771 
-106.088 -89.6578 85.0925 -108.538 -84.8951 84.4472 -108.959 -84.0142 84.0159 
-108.052 -85.7409 84.9215 -107.604 -86.7749 85.3021 -107.323 -88.0071 85.6137 
-107.171 -89.1495 85.8941 -107.016 -90.1618 86.1701 -106.853 -91.1782 86.5071 
-109.294 -85.3973 85.3242 -109.666 -84.4881 84.9146 -108.922 -86.2822 85.771 
-108.61 -87.3167 86.1287 -108.364 -88.5802 86.4462 -108.126 -89.7483 86.8494 
-107.887 -90.7266 87.2142 -107.68 -91.7662 87.4743 -107.524 -92.8863 87.7193 
-110 -85.8221 86.137 -110.344 -84.8926 85.7177 -109.63 -86.7799 86.6183 
-109.348 -87.8135 87.109 -109.168 -89.034 87.5345 -108.926 -90.2704 87.9573 
-108.596 -91.3496 88.3358 -108.364 -92.4356 88.5246 -108.273 -93.6095 88.599 
-108.218 -94.6921 88.7128 -110.682 -86.2435 86.9285 -110.938 -85.3211 86.4387 
-110.358 -87.2693 87.4357 -110.055 -88.3769 87.9754 -109.875 -89.5795 88.4688 
-109.693 -90.8158 88.8572 -109.36 -92.0053 89.1792 -109.065 -93.1998 89.4054 
-109.012 -94.4255 89.4967 -109.084 -95.552 89.5443 -109.102 -96.4586 89.6365 
-104.58 -82.8454 76.643 -105.103 -82.6118 77.5748 -104.985 -82.1948 76.0937 
-105.535 -81.8491 77.0351 -105.67 -81.5246 75.5637 -105.611 -82.279 78.6715 
-106.211 -81.0298 76.5177 -106.36 -80.6332 75.0482 -106.161 -81.524 78.0937 
-106.201 -82.0952 79.8902 -106.86 -80.0974 76.0994 -106.841 -79.7476 74.4411 
-106.93 -80.7599 77.5136 -106.987 -81.5004 79.2431 -106.99 -82.1654 80.9913 
-107.549 -79.4246 75.6035 -107.58 -79.2915 73.746 -107.662 -79.9475 77.0866 
-107.816 -80.8588 78.5975 -107.848 -81.5918 80.3765 -107.887 -82.3444 81.8981 
-108.63 -79.141 74.9666 -108.728 -79.0761 73.2255 -108.55 -79.3541 76.6168 
-108.581 -80.1235 78.1021 -108.611 -80.9518 79.7909 -108.596 -81.6122 81.4661 
-108.717 -82.656 82.821 -109.819 -78.8766 74.4254 -109.781 -78.7481 72.9962 
-109.658 -78.98 76.0262 -109.501 -79.4889 77.6507 -109.435 -80.2682 79.3026 
-109.348 -80.9518 80.9995 -109.332 -81.8613 82.5211 -109.477 -83.1639 83.8036 
-110.744 -78.4438 74.1127 -110.58 -78.3322 72.9317 -110.642 -78.5997 75.4762 
-110.431 -79.0092 77.1756 -110.322 -79.6314 78.9391 -110.22 -80.3205 80.5596 
-110.09 -81.2329 82.0902 -110.086 -82.4353 83.5069 -110.202 -83.6996 84.7145 
-111.496 -77.8913 73.9859 -111.331 -77.9169 72.9265 -111.436 -78.0861 75.0914 
-111.215 -78.5717 76.6774 -111.064 -79.1241 78.5783 -110.987 -79.6965 80.2432 
-110.871 -80.6076 81.6581 -110.785 -81.8382 83.0705 -110.789 -83.0455 84.393 
-110.849 -84.1748 85.4921 -112.222 -77.311 73.64 -112.23 -77.3195 74.6294 
-112.966 -76.6616 74.2689 -112.894 -77.0443 75.3877 -113.542 -76.6813 74.8705 
-112.044 -77.8831 75.9415 -113.578 -77.5074 76.3894 -114.09 -77.6773 75.7082 
-112.737 -78.0216 77.0769 -111.809 -78.6332 77.8836 -114.257 -78.5959 77.6303 
-114.578 -79.0809 76.9257 -113.536 -78.6003 78.3143 -112.524 -78.8511 79.1175 
-111.66 -79.1922 79.8346 -114.682 -79.9163 78.904 -114.913 -80.4748 78.2123 
-114.187 -79.6222 79.4594 -113.337 -79.5156 80.1112 -112.377 -79.6101 80.8605 
-111.581 -80.0249 81.3645 -114.88 -81.364 79.996 -115.216 -81.9093 79.2429 
-114.445 -81.0146 80.5457 -113.955 -80.7694 81.0694 -113.279 -80.6561 81.8121 
-112.412 -80.8816 82.458 -111.549 -81.3731 82.815 -115.149 -82.7898 80.9698 
-115.487 -83.2437 80.1488 -114.61 -82.5272 81.6612 -114.2 -82.325 82.2122 
-113.923 -82.0797 82.9346 -113.357 -82.033 83.6531 -112.429 -82.321 84.0482 
-111.51 -82.7093 84.2472 -115.449 -84.0333 81.991 -115.572 -84.404 81.1405 
-115.008 -83.8801 82.807 -114.479 -83.8408 83.4151 -114.148 -83.6474 84.0695 
-113.835 -83.3972 84.7587 -113.146 -83.411 85.1568 -112.222 -83.6404 85.3256 
-111.439 -83.8954 85.4479 -115.578 -85.2593 83.0267 -115.512 -85.596 82.168 
-115.413 -85.1284 83.8963 -114.984 -85.2078 84.514 -114.455 -85.2271 85.0499 
-113.995 -85.0553 85.6446 -113.457 -84.9396 86.038 -112.713 -84.9889 86.2051 
-111.977 -85.0572 86.3671 -111.413 -85.1396 86.4828 -111.319 -86.4692 87.5421 
-111.771 -86.5179 87.5578 -111.667 -87.7957 88.8437 -112.322 -86.6954 87.3352 
-112.17 -88.0575 88.7402 -112.017 -89.2449 89.9549 -113.016 -86.7866 87.1235 
-112.8 -88.4028 88.4159 -112.667 -89.646 89.6578 -112.56 -91.4487 90.4545 
-113.706 -86.7758 86.9262 -113.495 -88.5448 88.2069 -113.371 -90.0772 89.3672 
-113.299 -92.0873 90.177 -113.461 -94.7967 90.8118 -114.346 -86.8127 86.4727 
-114.138 -88.5568 87.9195 -113.977 -90.3525 89.2316 -113.944 -92.6643 90.1469 
-114.17 -95.5495 90.9325 -114.564 -98.0447 91.8333 -114.974 -86.7842 85.9364 
-114.734 -88.5903 87.3781 -114.448 -90.5833 88.8668 -114.457 -93.1045 90.0836 
-114.815 -96.0842 91.0917 -115.275 -98.6246 92.1895 -115.562 -100.407 93.168 
-115.424 -86.6423 85.453 -115.212 -88.5619 86.8971 -114.857 -90.7617 88.3543 
-114.856 -93.3875 89.7333 -115.383 -96.4026 90.9231 -115.97 -99.0649 92.1259 
-116.263 -101.042 93.2365 -116.331 -102.92 93.8895 -115.57 -86.6299 84.712 
-115.442 -88.5201 86.3542 -115.194 -90.8103 87.902 -115.2 -93.45 89.3303 
-115.758 -96.4297 90.5719 -116.458 -99.3032 91.7485 -116.793 -101.639 92.863 
-116.855 -103.749 93.5999 -116.889 -106.043 93.8236 -115.528 -86.8468 83.7292 
-115.497 -88.5873 85.4469 -115.398 -90.7797 87.2016 -115.46 -93.3479 88.8238 
-115.956 -96.2395 90.1682 -116.651 -99.2301 91.3346 -117.041 -101.945 92.4191 
-117.109 -104.339 93.1845 -117.164 -106.683 93.4449 -117.275 -109.003 93.3583 
-111.086 -87.4743 88.2173 -111.407 -88.87 89.6326 -110.78 -88.6806 88.8008 
-111.78 -90.7854 90.5807 -111.144 -90.4396 90.0844 -110.554 -90.091 89.2412 
-112.585 -93.8771 90.9213 -111.716 -93.027 90.8198 -111.091 -92.3163 90.1917 
-110.462 -91.5414 89.4878 -113.784 -97.3689 91.5575 -112.774 -96.3495 91.3957 
-111.892 -95.2186 90.9284 -111.182 -94.0634 90.1645 -110.29 -92.9275 89.646 
-114.869 -100.008 92.8522 -113.932 -99.2861 92.4877 -112.942 -98.2626 92.0634 
-112.13 -97.0603 91.2022 -111.192 -95.691 90.3298 -110.03 -94.3291 89.892 
-115.713 -102.632 93.8809 -114.855 -102.085 93.6333 -113.918 -101.245 93.3436 
-113.143 -100.211 92.7219 -112.344 -98.8988 91.6433 -111.203 -97.2985 90.7523 
-109.969 -95.7251 90.1831 -116.46 -106.085 94.0099 -115.729 -105.75 94.0257 
-114.852 -104.909 93.9558 -114.102 -103.737 93.7325 -113.436 -102.348 93.0373 
-112.523 -100.622 92.0486 -111.32 -98.6996 91.1932 -110.104 -96.9507 90.4024 
-117.049 -109.478 93.5349 -116.517 -109.528 93.6839 -115.759 -108.871 93.7838 
-115.016 -107.566 93.8279 -114.353 -105.937 93.6268 -113.58 -104.083 93.057 
-112.582 -101.966 92.3044 -111.415 -99.8034 91.474 -110.199 -97.9235 90.5466 
-117.487 -111.973 92.8316 -117.15 -112.477 92.9955 -117.485 -114.691 92.2681 
-116.92 -114.805 92.4209 -117.242 -117.241 91.666 -116.519 -112.283 93.1606 
-116.495 -116.844 91.7257 -116.919 -119.513 90.7336 -116.204 -114.146 92.5537 
-115.79 -111.197 93.3319 -116.149 -118.709 90.8142 -116.457 -120.721 89.5576 
-115.797 -115.764 91.8426 -115.543 -112.66 92.7737 -115.096 -109.441 93.4505 
-115.818 -119.426 90.0728 -115.796 -120.542 88.8338 -115.565 -117.02 91.1323 
-115.23 -113.749 92.1287 -114.876 -110.567 92.9651 -114.328 -107.402 93.3248 
-115.402 -118.602 89.8321 -115.22 -119.365 88.7748 -115.363 -116.861 90.7065 
-115.067 -114.072 91.4645 -114.65 -111.118 92.3274 -114.099 -108.293 92.9283 
-113.415 -105.154 92.9186 -114.924 -116.85 89.7865 -114.825 -117.34 88.9428 
-114.914 -115.508 90.5182 -114.771 -113.307 90.997 -114.497 -110.891 91.6249 
-113.965 -108.597 92.3544 -113.199 -105.828 92.6402 -112.35 -102.656 92.2683 
-114.339 -114.602 89.7428 -114.42 -114.628 89.178 -114.184 -113.814 90.3462 
-114.068 -112.178 90.7697 -114.005 -110.151 91.1977 -113.711 -108.22 91.7933 
-112.982 -105.928 92.1932 -112.031 -103.016 92.0232 -111.09 -100.191 91.3591 
-113.692 -112.058 89.8329 -113.931 -111.742 89.5169 -113.395 -111.867 90.242 
-113.208 -110.904 90.6557 -113.171 -109.254 91.0582 -113.041 -107.405 91.4789 
-112.503 -105.381 91.7579 -111.588 -102.894 91.641 -110.612 -100.31 91.0973 
-109.773 -98.1683 90.3462 -117.472 -110.115 92.9028 -117.711 -113.141 92.2412 
-117.626 -110.89 92.3627 -117.851 -114.161 91.4897 -117.772 -111.303 91.643 
-117.773 -116.338 91.5644 -117.793 -114.698 90.6654 -117.769 -111.292 90.9446 
-117.922 -117.82 90.615 -117.658 -119.434 90.7452 -117.512 -114.325 90.1863 
-117.562 -110.779 90.5969 -117.724 -118.019 89.7606 -117.856 -120.685 89.5438 
-117.317 -121.331 89.4436 -117.243 -113.075 90.1471 -117.204 -109.443 90.4847 
-117.327 -116.595 89.4879 -117.657 -119.828 88.7385 -117.455 -121.58 88.1803 
-116.549 -121.536 88.1571 -116.932 -110.851 90.2064 -116.623 -106.944 90.2588 
-116.952 -114.281 89.6519 -117.2 -117.379 88.7509 -117.342 -119.959 87.8362 
-116.603 -121.12 87.3782 -115.633 -120.754 87.7635 -116.347 -107.588 90.1012 
-115.891 -103.794 89.6641 -116.446 -111.274 89.9283 -116.54 -114.356 89.2222 
-116.894 -117.028 88.3455 -116.657 -119.097 87.6943 -115.686 -119.834 87.5554 
-115.022 -119.072 88.07 -115.653 -104.089 89.532 -115.23 -100.997 88.6056 
-115.83 -107.644 89.9928 -115.825 -110.91 89.7694 -116.116 -113.488 89.0655 
-116.342 -115.574 88.4094 -115.772 -117.031 88.0546 -114.983 -117.282 88.0703 
-114.647 -116.268 88.5145 -115.03 -101.243 88.4029 -114.655 -98.9776 87.3142 
-115.284 -104.124 89.383 -115.315 -107.199 89.8675 -115.435 -109.782 89.6187 
[...]
CELL_DATA 2000
SCALARS Distance double
LOOKUP_TABLE default
153.86 154.62 154.436 154.822 155.395 155.237 155.71 155.479 155.942 
156.228 156.043 156.589 156.414 156.977 156.735 157.346 157.278 156.98 
157.559 157.353 158.029 157.829 158.545 158.304 159.067 158.57 158.191 
158.821 158.486 159.227 158.976 159.804 159.573 160.422 160.158 161.018 
159.914 159.572 160.26 159.888 160.638 160.312 161.171 160.914 161.826 
161.565 162.457 162.174 163.066 161.153 160.889 161.584 161.297 162.034 
161.747 162.588 162.338 163.258 163.003 163.899 163.614 164.479 164.214 
165.096 162.288 162.071 162.762 162.538 163.288 163.071 163.923 163.727 
164.647 164.427 165.311 165.037 165.873 165.6 166.456 166.217 167.092 
163.349 163.173 163.892 163.697 164.481 164.296 165.172 165.017 165.937 
165.764 166.632 166.398 167.217 166.965 167.825 167.588 168.499 168.242 
169.132 153.41 152.982 153.489 154.123 152.689 153.087 153.674 154.204 
154.859 152.481 152.834 153.366 153.809 154.485 155.005 155.726 152.174 
152.593 153.154 153.575 154.291 154.758 155.551 155.999 156.799 151.976 
152.331 152.992 153.396 154.164 154.639 155.477 155.921 156.726 157.156 
158.013 152.208 152.375 153.082 153.343 154.117 154.535 155.38 155.847 
156.643 157.077 157.878 158.384 159.283 152.664 152.774 153.43 153.569 
154.274 154.56 155.369 155.771 156.579 156.983 157.77 158.231 159.102 
159.647 160.542 153.028 153.177 153.754 153.896 154.511 154.749 155.497 
155.831 156.627 156.973 157.762 158.155 159.008 159.494 160.387 160.89 
161.717 153.314 153.45 153.958 154.112 154.66 154.916 155.614 155.956 
156.713 157.051 157.802 158.168 158.984 159.432 160.297 160.767 161.583 
162.031 162.778 153.649 154.232 154.036 154.208 154.879 154.629 154.877 
154.652 154.95 155.951 155.506 155.889 155.51 155.921 155.585 155.993 
157.469 156.882 157.324 156.775 157.193 156.717 157.113 156.725 157.103 
159.062 158.499 158.909 158.321 158.663 158.084 158.402 157.907 158.259 
157.844 158.206 160.53 160.015 160.377 159.834 160.162 159.579 159.93 
159.332 159.738 159.161 159.596 159.056 159.469 161.912 161.427 161.787 
161.253 161.623 161.076 161.532 160.97 161.479 160.846 161.309 160.636 
161.044 160.416 160.798 163.181 162.779 163.215 162.708 163.139 162.588 
163.075 162.567 163.096 162.57 162.995 162.367 162.666 162.015 162.299 
161.709 162.025 164.333 164.021 164.566 164.162 164.678 164.161 164.642 
164.108 164.583 164.079 164.478 163.92 164.184 163.557 163.782 163.174 
163.449 162.89 163.195 164.056 164.344 164.646 165.579 164.679 164.967 
165.946 166.256 167.21 165.073 165.344 166.34 166.655 167.656 167.9 
168.887 165.4 165.73 166.739 167.078 168.124 168.387 169.457 169.713 
171.011 165.581 165.999 167.029 167.438 168.524 168.872 170.038 170.362 
171.792 172.187 173.837 165.688 166.152 167.195 167.654 168.749 169.21 
170.461 170.942 172.479 173.007 174.739 175.174 176.761 165.693 166.222 
167.258 167.768 168.851 169.373 170.656 171.284 172.892 173.607 175.38 
175.984 177.586 177.928 179.252 165.495 166.105 167.113 167.737 168.83 
169.434 170.715 171.415 173.016 173.866 175.645 176.444 178.054 178.592 
179.914 180.233 181.415 165.172 165.789 166.752 167.466 168.574 169.314 
170.595 171.392 172.926 173.85 175.569 176.513 178.132 178.874 180.206 
180.709 181.848 182.236 183.298 164.161 165.709 164.882 164.788 167.342 
166.518 166.469 165.567 165.455 169.057 168.201 168.244 167.335 167.295 
166.317 166.219 171.308 170.178 170.342 169.262 169.318 168.258 168.202 
167.14 167.015 174.196 172.843 173.081 171.71 171.806 170.494 170.451 
169.219 169.06 167.917 167.707 177.046 175.818 176.027 174.643 174.716 
173.251 173.21 171.723 171.554 170.124 169.876 168.603 168.346 179.545 
178.505 178.75 177.498 177.613 176.214 176.26 174.72 174.638 172.959 
172.727 171.074 170.793 169.338 169.068 181.848 180.956 181.392 180.223 
180.488 179.127 179.3 177.83 177.884 176.231 176.06 174.235 173.901 
172.111 171.751 170.162 169.829 183.833 183.203 183.78 182.859 183.216 
182.013 182.182 180.829 180.867 179.391 179.232 177.553 177.173 175.346 
174.856 173.05 172.553 170.921 170.481 184.956 186.482 185.558 185.012 
187.637 186.867 186.327 185.396 184.521 188.484 187.785 187.081 186.395 
185.583 184.641 183.506 188.885 188.427 187.597 186.951 186.072 185.393 
184.369 183.424 182.139 188.539 188.537 187.829 187.347 186.348 185.721 
184.663 183.991 182.786 181.877 180.446 187.579 187.919 187.355 187.265 
186.225 185.789 184.592 184.093 182.9 182.263 180.884 179.976 178.382 
186.25 186.774 186.183 186.423 185.385 185.275 184.028 183.779 182.598 
182.215 180.919 180.224 178.646 177.712 176.014 184.566 185.229 184.591 
185.022 184.044 184.167 183 182.97 181.859 181.734 180.53 180.095 
178.542 177.787 176.036 175.196 173.542 182.677 183.385 182.779 183.324 
182.484 182.773 181.756 181.86 180.807 180.836 179.672 179.49 177.976 
177.463 175.69 175.018 173.324 172.688 171.26 185.066 185.53 185.794 
186.608 185.732 186.185 187.185 187.343 187.988 185.571 186.255 187.444 
187.92 188.846 188.754 189.104 185.04 185.89 187.06 187.932 189.009 
189.446 189.873 189.622 189.459 184.162 185.159 186.112 187.165 188.106 
189.079 189.526 189.884 189.581 189.408 188.835 182.646 183.98 184.765 
185.901 186.553 187.705 188.153 189.002 188.848 189.07 188.457 188.394 
187.758 180.337 182.034 182.802 184.198 184.668 185.886 186.233 187.347 
187.43 188.083 187.672 187.825 187.173 187.169 186.466 177.692 179.454 
180.246 181.896 182.393 183.766 184.007 185.254 185.335 186.395 186.117 
186.742 186.074 186.353 185.539 185.656 184.779 175.247 176.807 177.548 
179.224 179.815 181.332 181.613 182.913 182.918 184.092 183.809 184.774 
184.141 184.817 183.976 184.419 183.53 183.771 182.852 165.279 166.069 
166.043 166.9 167.076 166.986 167.914 167.854 168.815 168.088 168.054 
169.048 168.999 170.102 169.977 171.018 169.007 169.064 170.198 170.216 
171.517 171.452 172.762 172.452 173.563 170.035 170.104 171.496 171.533 
173.114 173.08 174.684 174.429 175.799 175.243 176.324 171.263 171.35 
173.001 173.078 174.918 174.918 176.737 176.537 178.07 177.586 178.739 
178.033 178.897 172.487 172.686 174.466 174.694 176.658 176.805 178.678 
178.61 180.141 179.801 180.922 180.344 181.137 180.395 180.963 173.508 
173.854 175.673 176.087 178.087 178.431 180.274 180.373 181.799 181.633 
182.653 182.281 183.011 182.444 182.97 182.231 182.613 174.314 174.768 
176.584 177.144 179.133 179.664 181.478 181.745 183.095 183.049 183.998 
183.767 184.493 184.108 184.664 184.093 184.504 183.763 184.06 164.493 
163.572 164.379 165.191 162.641 163.432 164.205 165.157 166.126 161.676 
162.458 163.156 164.112 165.06 166.122 167.107 160.707 161.484 162.141 
163.031 163.908 164.981 165.964 167.028 167.951 159.745 160.514 161.176 
162.026 162.835 163.827 164.758 165.821 166.744 167.811 168.797 158.893 
159.565 160.163 161.005 161.755 162.735 163.59 164.62 165.505 166.566 
167.54 168.705 169.856 158.278 158.795 159.278 159.973 160.621 161.561 
162.366 163.414 164.267 165.328 166.275 167.427 168.542 169.806 171.015 
157.814 158.264 158.708 159.205 159.755 160.476 161.233 162.183 163.054 
164.09 165.024 166.148 167.215 168.457 169.6 170.894 172.021 157.362 
157.825 158.292 158.725 159.219 159.753 160.419 161.178 162.023 162.949 
163.867 164.907 165.905 167.089 168.159 169.427 170.482 171.782 172.815 
157.269 157.429 157.651 158.212 157.482 157.764 158.362 158.588 159.162 
157.533 157.79 158.435 158.725 159.438 159.648 160.373 157.861 157.974 
158.675 158.879 159.713 159.981 160.89 161.072 161.963 158.461 158.498 
159.263 159.326 160.196 160.377 161.392 161.637 162.673 162.818 163.797 
159.088 159.164 159.989 160.051 160.947 161.028 162.052 162.235 163.37 
163.564 164.682 164.77 165.838 159.697 159.789 160.665 160.789 161.784 
161.879 162.971 163.062 164.256 164.382 165.616 165.722 166.917 166.945 
168.082 160.355 160.436 161.361 161.498 162.597 162.759 163.97 164.087 
165.336 165.414 166.681 166.757 168.022 168.076 169.293 169.271 170.402 
161.02 161.128 162.088 162.239 163.363 163.583 164.828 165.054 166.308 
166.474 167.713 167.843 169.12 169.223 170.511 170.528 171.747 171.644 
172.757 161.681 163.22 162.564 162.863 165.01 164.268 164.638 163.889 
164.238 167.01 166.2 166.625 165.806 166.216 165.397 165.767 169.369 
168.431 169.004 168.009 168.485 167.511 167.915 166.991 167.306 172.215 
171.15 172.001 170.792 171.457 170.145 170.615 169.359 169.713 168.584 
168.825 175.218 174.215 175.198 174.047 174.887 173.504 174.099 172.521 
172.919 171.367 171.654 170.241 170.406 177.867 177.091 177.973 177.08 
177.876 176.831 177.493 176.142 176.591 174.946 175.213 173.474 173.592 
171.937 171.94 180 179.456 180.282 179.573 180.313 179.506 180.19 
179.221 179.742 178.463 178.734 177.13 177.151 175.354 175.192 173.434 
173.224 181.712 181.366 182.263 181.723 182.546 181.843 182.598 181.75 
182.329 181.29 181.596 180.319 180.34 178.778 178.531 176.744 176.35 
174.589 174.225 161.248 161.02 161.64 162.729 160.835 161.441 162.584 
163.252 164.485 160.643 161.267 162.402 163.113 164.41 165.113 166.449 
160.262 160.99 162.092 162.88 164.195 165.014 166.424 167.155 168.655 
159.731 160.514 161.646 162.496 163.842 164.753 166.244 167.096 168.676 
169.503 171.282 159.32 160.03 161.233 162.066 163.487 164.412 165.979 
166.899 168.552 169.476 171.312 172.291 174.226 159.127 159.738 160.948 
161.734 163.187 164.107 165.697 166.644 168.297 169.285 171.105 172.208 
174.16 175.2 176.967 159.055 159.601 160.74 161.476 162.865 163.79 
165.338 166.325 167.922 168.947 170.677 171.847 173.738 174.948 176.732 
177.711 179.155 159.035 159.53 160.581 161.246 162.524 163.408 164.884 
165.889 167.441 168.486 170.138 171.304 173.113 174.377 176.145 177.291 
178.779 179.665 180.856 160.339 158.928 159.757 160.046 157.559 158.315 
158.56 159.462 159.83 156.351 156.981 157.154 157.977 158.32 159.272 
159.652 155.27 155.831 155.922 156.615 156.835 157.717 158.021 159.005 
159.267 154.109 154.702 154.725 155.384 155.457 156.216 156.35 157.273 
157.471 158.482 158.693 152.883 153.448 153.369 154.053 154.056 154.801 
154.855 155.645 155.79 156.692 156.95 157.94 158.268 151.83 152.254 
152.081 152.631 152.588 153.328 153.46 154.242 154.445 155.203 155.482 
156.326 156.71 157.662 158.103 151.073 151.346 151.178 151.489 151.411 
151.958 152.156 152.917 153.237 153.983 154.251 154.991 155.309 156.183 
156.62 157.589 158.067 150.577 150.745 150.626 150.784 150.709 151.024 
151.204 151.789 152.138 152.825 153.084 153.764 153.977 154.781 155.146 
156.111 156.608 157.596 158.09 150.348 149.973 150.228 150.337 149.654 
149.849 150.009 150.241 150.454 149.634 149.68 149.917 150.051 150.386 
150.557 150.992 149.8 149.808 150.052 150.115 150.474 150.611 151.063 
151.272 151.834 149.877 149.955 150.198 150.287 150.585 150.709 151.063 
151.279 151.719 152.064 152.627 150.102 150.072 150.403 150.451 150.806 
150.85 151.208 151.296 151.71 151.917 152.453 152.819 153.489 150.827 
150.561 150.981 150.854 151.34 151.244 151.742 151.662 152.214 152.173 
152.81 152.883 153.647 153.887 154.739 151.885 151.504 151.903 151.646 
152.151 151.972 152.536 152.402 153.043 152.935 153.648 153.563 154.353 
154.365 155.251 155.386 156.289 152.94 152.568 152.877 152.593 153.016 
152.83 153.361 153.245 153.866 153.797 154.484 154.442 155.183 155.18 
155.991 156.051 156.905 157.007 157.82 153.581 154.507 153.841 153.509 
155.616 154.838 154.518 153.855 153.645 157.058 156.121 155.85 155.024 
154.863 154.148 154.049 158.807 157.755 157.541 156.572 156.456 155.572 
155.489 154.68 154.613 160.77 159.649 159.454 158.398 158.289 157.316 
157.219 156.274 156.157 155.304 155.244 162.878 161.738 161.577 160.414 
160.274 159.205 159.095 158.081 157.936 156.957 156.852 155.992 155.973 
164.994 163.924 163.871 162.665 162.529 161.302 161.158 160.02 159.888 
158.818 158.705 157.718 157.691 156.806 156.828 167.023 166.046 166.099 
164.994 164.941 163.683 163.534 162.237 162.084 160.873 160.76 159.662 
159.607 158.623 158.627 157.717 157.735 169.038 168.079 168.173 167.171 
167.202 166.078 166.006 164.721 164.572 163.233 163.089 161.829 161.727 
160.604 160.544 159.552 159.52 158.613 158.596 159.343 160.332 160.171 
160.915 161.476 161.295 162.178 161.958 162.904 162.812 162.621 163.691 
163.429 164.521 164.216 165.313 164.31 164.134 165.389 165.137 166.384 
166.03 167.222 166.81 167.932 165.847 165.728 167.09 166.927 168.304 
168.013 169.335 168.898 170.143 169.59 170.75 167.237 167.227 168.613 
168.596 170.073 169.944 171.437 171.119 172.563 172.024 173.349 172.627 
173.824 168.388 168.495 169.91 170.039 171.643 171.694 173.37 173.242 
174.861 174.5 175.941 175.328 176.542 175.758 176.817 169.387 169.57 
171.074 171.309 173.069 173.275 175.101 175.145 176.812 176.657 178.076 
177.721 178.875 178.308 179.25 178.541 179.359 170.308 170.562 172.15 
172.479 174.326 174.682 176.559 176.773 178.372 178.368 179.638 179.503 
180.568 180.296 181.196 180.717 181.461 180.812 181.423 152.731 152.379 
152.219 151.517 151.993 151.857 151.204 151.024 150.5 151.522 151.418 
150.861 150.784 150.448 150.345 150.225 151.331 151.045 150.519 150.439 
150.224 150.311 150.323 150.341 150.397 151.657 151.169 150.669 150.305 
150.036 150.035 150.025 150.227 150.255 150.407 150.41 152.028 151.622 
151.141 150.675 150.284 150.008 149.833 149.851 149.785 149.988 149.967 
150.237 150.261 152.17 151.861 151.312 150.998 150.495 150.246 149.932 
149.794 149.617 149.59 149.522 149.697 149.775 150.069 150.158 152.392 
151.977 151.368 151.012 150.448 150.245 149.911 149.846 149.686 149.595 
149.479 149.433 149.461 149.628 149.796 150.032 150.151 152.828 152.317 
151.746 151.211 150.673 150.266 149.96 149.809 149.755 149.698 149.666 
149.539 149.499 149.468 149.578 149.738 149.938 150.115 150.27 152.781 
151.54 152.29 152.591 150.461 151.008 151.337 152.169 152.619 150.115 
150.197 150.418 151.012 151.579 152.355 152.876 150.3 150.135 150.167 
150.369 150.876 151.493 152.146 152.753 153.244 150.464 150.364 150.305 
150.272 150.562 150.963 151.624 152.189 152.78 153.228 153.701 150.456 
150.486 150.5 150.418 150.55 150.726 151.269 151.765 152.454 152.904 
153.434 153.783 154.276 150.341 150.447 150.53 150.552 150.679 150.758 
151.183 151.517 152.22 152.662 153.296 153.618 154.094 154.405 154.912 
150.261 150.325 150.399 150.498 150.676 150.833 151.23 151.501 152.124 
152.509 153.169 153.513 154.022 154.281 154.737 155.058 155.594 150.374 
150.329 150.417 150.424 150.649 150.801 151.238 151.51 152.069 152.413 
152.994 153.364 153.886 154.198 154.659 154.938 155.442 155.778 156.337 
153.386 153.297 153.603 154.061 153.341 153.598 154.091 154.25 154.671 
153.529 153.73 154.292 154.396 154.852 154.969 155.621 153.818 153.98 
154.652 154.762 155.352 155.337 155.971 156.14 157.055 154.215 154.316 
155.045 155.219 155.95 155.972 156.599 156.613 157.396 157.671 158.648 
154.757 154.777 155.457 155.624 156.362 156.514 157.149 157.211 157.879 
158.05 158.93 159.254 160.183 155.398 155.371 155.995 156.061 156.719 
156.854 157.496 157.639 158.323 158.5 159.334 159.592 160.506 160.773 
161.606 156.086 156.035 156.638 156.625 157.224 157.252 157.878 157.987 
158.718 158.911 159.75 159.995 160.856 161.108 161.893 162.124 162.832 
156.793 156.725 157.284 157.247 157.791 157.781 158.366 158.435 159.143 
159.318 160.113 160.353 161.139 161.396 162.116 162.361 163.026 163.266 
163.927 160.217 159.594 159.564 158.857 158.977 158.955 158.302 158.234 
157.549 158.379 158.36 157.767 157.731 157.125 157.01 156.391 157.761 
157.756 157.179 157.211 156.696 156.646 156.06 155.919 155.318 157.203 
157.141 156.528 156.573 156.064 156.155 155.619 155.573 154.921 154.807 
154.165 156.923 156.706 156.052 155.937 155.327 155.409 154.875 154.992 
154.372 154.346 153.657 153.591 152.97 156.879 156.576 155.914 155.607 
154.911 154.747 154.153 154.199 153.65 153.705 153.058 153.036 152.403 
152.403 151.893 156.809 156.54 155.885 155.562 154.885 154.541 153.921 
153.697 153.179 153.085 152.528 152.445 151.832 151.812 151.324 151.405 
151.068 156.645 156.406 155.763 155.511 154.911 154.608 154.043 153.7 
153.172 152.874 152.352 152.099 151.545 151.36 150.901 150.885 150.625 
150.728 150.564 
POINT_DATA 1002
SCALARS Distance double
LOOKUP_TABLE default
154.217 153.326 154.04 155.052 154.77 155.2 155.89 155.527 156.189 
156.439 156.716 156.445 157.165 157.581 158.02 157.782 157.608 158.18 
158.745 159.312 159.871 159.186 158.918 159.498 160.005 160.663 161.292 
161.893 160.614 160.212 160.983 161.435 162.075 162.741 163.338 163.968 
161.844 161.405 162.296 162.825 163.506 164.194 164.763 165.337 165.985 
162.967 162.494 163.476 164.095 164.853 165.584 166.156 166.702 167.332 
167.961 164.061 163.495 164.65 165.32 166.104 166.857 167.457 168.041 
168.734 169.434 170.004 152.866 153.562 152.52 153.181 152.371 154.284 
152.954 152.123 153.968 155.208 152.708 151.697 153.806 155.103 156.346 
152.594 151.641 153.678 155.013 156.318 157.517 152.896 152.092 153.759 
154.916 156.214 157.4 158.721 153.341 152.564 154.057 155.009 156.188 
157.339 158.576 160.011 153.63 152.893 154.294 155.185 156.301 157.397 
158.554 159.897 161.255 153.831 153.221 154.416 155.275 156.386 157.457 
158.556 159.846 161.151 162.346 153.899 154.382 154.417 155.091 155.133 
155.163 156.298 156.423 156.283 156.322 157.929 158.058 157.75 157.552 
157.471 159.513 159.619 159.288 158.956 158.702 158.607 160.916 161.06 
160.706 160.498 160.341 160.176 160.007 162.308 162.373 162.141 162.028 
162.076 162.025 161.73 161.397 163.659 163.514 163.681 163.599 163.604 
163.613 163.351 162.921 162.58 164.895 164.594 165.15 165.206 165.124 
165.025 164.801 164.405 164.024 163.745 164.929 165.267 166.544 165.613 
166.962 168.128 166.018 167.394 168.614 169.923 166.378 167.825 169.157 
170.607 172.513 166.598 168.115 169.636 171.327 173.452 175.553 166.737 
168.255 169.884 171.87 174.25 176.522 178.211 166.726 168.317 169.987 
172.105 174.71 177.186 179.055 180.496 166.444 168.174 170.006 172.159 
174.79 177.442 179.54 181.153 182.606 166.033 167.786 169.769 172.017 
174.608 177.315 179.645 181.44 182.958 184.34 165.656 167.355 166.398 
169.123 168.256 167.234 171.497 170.414 169.289 168.086 174.529 173.225 
171.784 170.287 168.812 177.376 176.179 174.747 173.103 171.279 169.544 
179.932 178.945 177.72 176.316 174.501 172.404 170.434 182.453 181.803 
180.727 179.462 177.882 175.803 173.499 171.322 184.566 184.336 183.522 
182.311 180.839 178.981 176.741 174.333 172.007 185.973 186.146 187.335 
187.128 188.457 185.717 187.778 189.226 186.347 184.696 188.287 189.149 
186.737 185.144 183.276 188.181 188.29 187.027 185.291 183.565 181.526 
187.292 187.161 186.597 185.061 183.435 181.707 179.428 185.877 185.72 
185.389 184.179 182.852 181.513 179.543 176.973 184.097 183.89 183.808 
182.942 181.887 180.846 179.237 176.853 174.288 182.174 181.975 182.075 
181.577 180.758 179.783 178.392 176.305 173.917 171.77 184.893 186.524 
185.181 186.862 185.165 188.18 186.753 184.813 188.732 189.637 186.117 
184.205 188.326 189.979 190.01 185.168 183.126 187.064 188.938 189.665 
189.07 183.658 181.167 185.482 187.124 188.406 188.477 187.826 181.291 
178.565 183.469 185.063 186.523 187.37 187.174 186.522 178.517 176.001 
180.941 182.78 184.19 185.304 185.69 185.367 184.734 175.91 173.832 
178.225 180.288 181.781 182.795 183.342 183.406 183.167 182.698 165.214 
166.887 166.111 167.964 167.158 168.896 169.044 168.066 170.145 171.274 
170.09 168.872 171.468 172.948 174.072 171.358 169.882 173.051 174.834 
176.276 177.056 172.819 171.096 174.834 176.878 178.508 179.434 179.737 
174.15 172.222 176.437 178.712 180.452 181.47 181.871 181.812 175.195 
173.113 177.682 180.155 181.967 182.988 183.513 183.659 183.45 163.676 
164.251 162.793 163.255 161.878 165.111 162.245 160.908 163.972 166.1 
161.302 159.913 162.88 164.875 166.921 160.33 158.996 161.9 163.731 
165.672 167.643 159.374 158.315 160.788 162.58 164.463 166.385 168.596 
158.702 157.822 159.762 161.318 163.204 165.138 167.303 169.731 158.272 
157.35 159.155 160.351 162.033 163.932 166.006 168.339 170.732 157.855 