# vtk DataFile Version 4.0
vtk output
ASCII
DATASET POLYDATA
POINTS 1002 float
-104.744 -85.7366 78.5644 -104.707 -85.0773 77.5239 -105.227 -85.0432 78.2523 
-105.359 -85.7904 79.341 -105.803 -84.958 79.1337 -105.01 -86.6792 79.6247 
-105.988 -85.8025 80.2738 -106.438 -84.9759 80.0246 -105.621 -86.7512 80.4838 
-105.394 -87.7017 80.7513 -106.647 -85.9474 81.227 -107.173 -85.2261 80.8158 
-106.164 -86.7859 81.5532 -105.885 -87.7836 81.7895 -105.725 -88.7766 82.0745 
-107.417 -86.2816 82.0938 -107.927 -85.5108 81.6766 -106.851 -87.0192 82.5691 
-106.409 -87.9294 82.9464 -106.197 -89.0166 83.2441 -106.069 -90.0801 83.5651 
-108.193 -86.5855 82.9981 -108.587 -85.7114 82.712 -107.758 -87.4756 83.3727 
-107.289 -88.3822 83.8266 -106.937 -89.4284 84.2433 -106.764 -90.5599 84.5977 
-106.695 -91.6379 84.9034 -108.888 -86.9172 83.9586 -109.241 -86.0866 83.6771 
-108.613 -87.983 84.1819 -108.306 -89.0802 84.5253 -107.946 -90.1062 84.9816 
-107.698 -91.1913 85.3752 -107.606 -92.3484 85.6958 -107.585 -93.4532 85.9955 
-109.615 -87.5253 84.7659 -109.976 -86.7456 84.3915 -109.363 -88.5904 85.0545 
-109.157 -89.8133 85.354 -108.85 -90.8885 85.7903 -108.583 -91.9218 86.195 
-108.509 -93.1258 86.4493 -108.481 -94.36 86.7272 -108.41 -95.4257 87.0754 
-110.396 -88.3114 85.3868 -110.708 -87.4881 84.981 -110.141 -89.3199 85.8097 
-109.953 -90.504 86.1906 -109.665 -91.5977 86.6181 -109.339 -92.6173 87.0706 
-109.255 -93.8488 87.3446 -109.303 -95.1929 87.513 -109.215 -96.3387 87.7953 
-109.044 -97.2119 88.1446 -111.104 -89.0396 85.9962 -111.331 -88.1568 85.6082 
-110.882 -90.0212 86.4599 -110.715 -91.1231 86.8961 -110.49 -92.2087 87.2828 
-110.155 -93.2561 87.7084 -109.972 -94.4934 88.0947 -110.041 -95.8881 88.3158 
-110.051 -97.1079 88.4918 -109.858 -98.0167 88.7506 -109.627 -98.7103 89.0309 
-105.143 -84.6014 76.8549 -105.615 -84.3863 77.7095 -105.622 -83.9895 76.1483 
-105.991 -83.6041 77.134 -105.948 -83.0572 75.5338 -106.123 -84.1681 78.6937 
-106.29 -82.6972 76.5714 -106.128 -82.0507 75.0463 -106.47 -83.3714 78.16 
-106.804 -84.1937 79.5676 -106.649 -81.8828 76.0386 -106.551 -81.3738 74.5187 
-106.92 -82.6135 77.5818 -107.285 -83.4319 79.0707 -107.651 -84.4353 80.3735 
-107.341 -81.3283 75.4649 -107.497 -81.0561 73.8728 -107.503 -81.9092 77.0403 
-107.878 -82.7059 78.6352 -108.21 -83.6088 80.0378 -108.417 -84.6555 81.375 
-108.397 -81.0555 74.8006 -108.578 -80.8379 73.2532 -108.291 -81.3695 76.4373 
-108.448 -82.0276 78.2182 -108.739 -82.8718 79.7933 -108.938 -83.8414 81.1263 
-109.073 -84.9463 82.4736 -109.41 -80.8943 74.154 -109.311 -80.4663 72.7434 
-109.313 -81.1509 75.692 -109.155 -81.575 77.6035 -109.228 -82.2808 79.4918 
-109.446 -83.1439 80.9161 -109.628 -84.2324 82.1775 -109.792 -85.4809 83.3993 
-110.096 -80.571 73.7029 -109.813 -79.9235 72.3357 -110.254 -81.0273 75.0656 
-110.097 -81.3859 76.8556 -109.933 -81.8767 79.0067 -110.034 -82.5322 80.7524 
-110.221 -83.4689 82.0055 -110.373 -84.7557 83.1456 -110.535 -86.1577 84.152 
-110.611 -80.0878 73.5192 -110.402 -79.4423 72.0783 -110.873 -80.6919 74.8303 
-110.913 -81.1654 76.3539 -110.771 -81.5905 78.434 -110.753 -82.0676 80.4917 
-110.852 -82.7835 81.9437 -110.919 -83.9349 83.0391 -111.014 -85.3897 84.0162 
-111.172 -86.843 84.8523 -111.16 -79.5035 73.0396 -111.294 -80.0569 74.5977 
-111.832 -79.6378 74.3382 -111.889 -80.1031 75.876 -112.423 -79.9372 75.5194 
-111.439 -80.6561 76.0067 -112.564 -80.5632 76.9367 -113.138 -80.6855 76.2591 
-111.982 -80.8225 77.3756 -111.46 -81.236 77.7977 -113.366 -81.5533 77.7691 
-113.81 -81.8143 76.9568 -112.719 -81.5371 78.557 -112.087 -81.6076 79.2851 
-111.467 -81.7704 79.9851 -113.903 -82.6463 78.8497 -114.112 -83.0082 78.1023 
-113.476 -82.5745 79.6515 -112.833 -82.5139 80.4294 -112.158 -82.4012 81.2161 
-111.508 -82.4364 81.7811 -114.162 -83.8111 80.1877 -114.286 -84.3796 79.4883 
-113.96 -83.5644 80.9256 -113.513 -83.5719 81.5123 -112.81 -83.5767 82.0705 
-112.089 -83.4665 82.6738 -111.474 -83.5185 83.0273 -114.532 -85.383 81.3866 
-114.605 -85.9735 80.7613 -114.353 -84.8822 82.1193 -114.051 -84.6757 82.7223 
-113.495 -84.795 83.0774 -112.725 -84.9031 83.4431 -112.009 -84.858 83.8787 
-111.473 -84.9859 84.0775 -114.933 -87.0652 82.4145 -114.886 -87.4357 81.9023 
-114.77 -86.6453 83.0553 -114.484 -86.2581 83.7608 -114.115 -86.1248 84.2583 
-113.535 -86.2461 84.4982 -112.778 -86.3249 84.7604 -112.106 -86.3502 85.0077 
-111.614 -86.5391 85.0086 -115.127 -88.4499 83.3935 -114.998 -88.6532 82.9411 
-115.052 -88.2932 83.9228 -114.804 -88.0981 84.6002 -114.529 -87.8633 85.2731 
-114.194 -87.7253 85.664 -113.619 -87.7035 85.8433 -112.893 -87.7137 86.0031 
-112.271 -87.7949 86.0293 -111.787 -87.9755 85.8431 -111.758 -89.3812 86.5972 
-112.242 -89.2732 86.9401 -112.133 -90.765 87.7852 -112.805 -89.1804 87.1601 
-112.639 -90.7724 88.1693 -112.445 -92.3915 89.0029 -113.509 -89.189 87.1421 
-113.253 -90.8237 88.3319 -113.027 -92.5895 89.314 -112.794 -94.4118 90.1584 
-114.188 -89.3334 87.0028 -113.957 -90.9946 88.2542 -113.685 -92.834 89.3565 
-113.496 -94.8667 90.3864 -113.216 -96.8214 91.2922 -114.617 -89.5703 86.724 
-114.581 -91.2654 88.0812 -114.331 -93.0925 89.224 -114.126 -95.2883 90.3501 
-113.933 -97.4821 91.5101 -113.595 -99.2656 92.3103 -114.879 -89.7483 86.1268 
-115.013 -91.4553 87.7228 -114.908 -93.2675 89.0695 -114.603 -95.5469 90.1825 
-114.422 -97.9892 91.4 -114.206 -99.892 92.5129 -113.864 -101.46 93.1023 
-115.109 -89.7517 85.3682 -115.288 -91.4235 87.0398 -115.372 -93.3025 88.7145 
-115.066 -95.6483 90.0374 -114.739 -98.2879 91.1466 -114.592 -100.351 92.3124 
-114.362 -101.859 93.2432 -114.09 -103.643 93.7217 -115.225 -89.7079 84.7213 
-115.404 -91.3082 86.2266 -115.613 -93.272 87.9711 -115.486 -95.6703 89.6581 
-115.122 -98.4145 90.9248 -114.904 -100.711 91.9728 -114.718 -102.232 93.003 
-114.481 -103.861 93.7718 -114.355 -106.109 94.1585 -115.168 -89.806 84.1978 
-115.373 -91.3451 85.5145 -115.616 -93.3123 87.0605 -115.657 -95.6462 88.8526 
-115.449 -98.3028 90.4541 -115.265 -100.81 91.605 -115.076 -102.599 92.5933 
-114.794 -104.147 93.501 -114.642 -106.237 94.0872 -114.696 -108.694 94.296 
-111.556 -90.4106 87.0668 -111.908 -91.9517 88.3056 -111.37 -91.5324 87.5508 
-112.165 -93.8231 89.5919 -111.7 -93.2599 88.7867 -111.206 -92.7188 87.9463 
-112.49 -96.1359 90.8446 -111.963 -95.4503 90.1433 -111.568 -94.71 89.1721 
-110.975 -93.942 88.295 -112.922 -98.6663 91.8969 -112.378 -98.0136 91.3652 
-111.977 -97.269 90.559 -111.484 -96.3171 89.5149 -110.762 -95.3224 88.6991 
-113.315 -101.176 92.7116 -112.854 -100.684 92.2373 -112.468 -100.053 91.7324 
-112.001 -99.1574 90.9022 -111.43 -97.9736 89.892 -110.762 -96.8258 89.0591 
-113.651 -103.809 93.4648 -113.232 -103.605 93.0572 -112.846 -103.027 92.6892 
-112.355 -102.145 92.183 -111.861 -100.874 91.2879 -111.423 -99.4101 90.2205 
-110.822 -98.1351 89.2851 -114.036 -106.669 94.0805 -113.642 -106.815 93.85 
-113.219 -106.355 93.5771 -112.667 -105.424 93.2612 -112.084 -104.073 92.6584 
-111.729 -102.325 91.6131 -111.369 -100.554 90.4278 -110.688 -99.1225 89.4725 
-114.491 -109.462 94.3114 -114.149 -109.827 94.1959 -113.754 -109.562 93.9829 
-113.241 -108.741 93.769 -112.541 -107.485 93.5288 -111.975 -105.737 92.9156 
-111.674 -103.599 91.7791 -111.213 -101.527 90.5697 -110.43 -99.9008 89.6849 
-115.037 -111.766 94.0967 -114.743 -112.358 94.0251 -115.251 -114.477 93.434 
-114.792 -114.657 93.1835 -115.097 -116.772 92.4494 -114.365 -112.339 93.7578 
-114.645 -116.621 92.0454 -114.861 -118.984 91.3216 -114.503 -114.258 92.6482 
-114.016 -111.743 93.4296 -114.571 -118.362 90.9554 -114.85 -120.499 90.0832 
-114.518 -115.908 91.4637 -114.234 -113.464 92.3372 -113.401 -110.711 93.3788 
-114.37 -119.149 90.0084 -114.583 -120.55 88.9778 -114.272 -117.122 90.7018 
-114.08 -114.821 91.4827 -113.416 -112.272 92.7382 -112.536 -109.181 93.4326 
-113.658 -119.011 89.3159 -113.753 -119.739 88.3515 -113.64 -117.576 90.2193 
-113.543 -115.636 91.0286 -113.111 -113.293 92.2031 -112.468 -110.434 93.1149 
-111.958 -106.979 92.8466 -112.863 -118.479 88.9542 -112.965 -118.604 88.1969 
-112.919 -117.474 89.8767 -113.014 -115.805 90.6758 -112.837 -113.62 91.6424 
-112.387 -110.957 92.5569 -111.928 -107.731 92.5285 -111.546 -104.326 91.6159 
-112.53 -117.145 88.8943 -112.655 -116.765 88.4003 -112.518 -116.564 89.7147 
-112.639 -115.151 90.487 -112.652 -113.149 91.1995 -112.33 -110.668 91.9038 
-111.826 -107.742 92.04 -111.313 -104.624 91.3847 -110.827 -101.896 90.4745 
-112.464 -114.727 89.1192 -112.555 -114.176 88.8563 -112.353 -114.506 89.7439 
-112.286 -113.48 90.482 -112.227 -111.86 91.083 -111.956 -109.752 91.5319 
-111.45 -107.202 91.6352 -110.901 -104.478 91.1701 -110.386 -102.027 90.4057 
-109.941 -100.131 89.6831 -114.977 -109.698 94.1018 -115.41 -112.885 93.6295 
-115.173 -110.502 93.6482 -115.595 -113.569 92.8713 -115.252 -110.812 93.0278 
-115.632 -115.704 92.6802 -115.538 -113.571 92.0596 -115.265 -110.558 92.4454 
-115.763 -116.362 91.6347 -115.423 -118.321 91.5119 -115.449 -112.994 91.489 
-115.285 -109.806 91.9071 -115.62 -116.157 90.7244 -115.563 -119.041 90.3284 
-115.228 -120.694 90.2266 -115.389 -111.885 91.1768 -115.151 -108.383 91.2799 
-115.473 -115.22 90.3493 -115.453 -118.387 89.5329 -115.42 -120.953 89.1148 
-115.19 -121.622 88.92 -115.023 -109.946 91.0245 -114.744 -106.297 90.5664 
-115.232 -113.593 90.5558 -115.234 -116.653 89.5072 -115.279 -119.317 88.6361 
-115.245 -120.92 88.1508 -114.683 -120.765 88.0331 -114.435 -107.29 90.6748 
-114.346 -104.065 89.6393 -114.674 -111.037 90.9523 -114.833 -114.246 90.1595 
-114.942 -116.64 88.9272 -115.009 -118.469 88.0806 -114.615 -119.308 87.7348 
-113.747 -119.173 87.7847 -114.091 -104.581 89.6204 -114.155 -102.116 88.3619 
-114.184 -107.823 90.6093 -114.372 -111.147 90.6734 -114.559 -113.676 89.7212 
-114.703 -115.419 88.6152 -114.506 -116.598 88.0373 -113.817 -117.17 87.894 
-113.07 -117.231 88.0157 -113.972 -102.294 88.0373 -113.992 -100.503 86.9749 
-114.003 -104.713 89.2005 -114.139 -107.653 90.0438 -114.307 -110.399 90.0574 
[...]
CELL_DATA 2000
SCALARS Distance double
LOOKUP_TABLE default
155.134 155.905 155.713 156.193 156.762 156.552 157.064 156.896 157.491 
157.736 157.483 158.007 157.798 158.393 158.253 158.918 158.826 158.541 
159.09 158.81 159.409 159.201 159.905 159.76 160.527 159.935 159.669 
160.273 159.979 160.626 160.337 161.082 160.858 161.701 161.515 162.393 
161.053 160.791 161.454 161.202 161.939 161.657 162.452 162.167 163.037 
162.796 163.731 163.514 164.471 162.246 161.958 162.669 162.427 163.247 
163.011 163.867 163.59 164.458 164.191 165.123 164.904 165.895 165.678 
166.665 163.468 163.193 163.933 163.696 164.552 164.345 165.226 164.985 
165.833 165.584 166.486 166.292 167.283 167.105 168.091 167.868 168.771 
164.623 164.404 165.149 164.953 165.789 165.625 166.48 166.287 167.097 
166.884 167.739 167.591 168.565 168.451 169.431 169.249 170.114 169.859 
170.61 154.733 154.393 154.843 155.435 153.929 154.451 155.018 155.553 
156.232 153.331 153.92 154.528 155.105 155.801 156.394 157.177 152.856 
153.366 154.064 154.638 155.411 155.997 156.825 157.413 158.257 152.775 
153.076 153.803 154.281 155.138 155.694 156.574 157.12 157.981 158.531 
159.366 153.041 153.194 153.85 154.158 154.989 155.491 156.402 156.929 
157.789 158.296 159.14 159.66 160.492 153.291 153.506 154.124 154.315 
155.039 155.405 156.287 156.781 157.657 158.138 158.982 159.477 160.345 
160.84 161.689 153.313 153.674 154.363 154.598 155.28 155.53 156.345 
156.735 157.629 158.057 158.915 159.359 160.23 160.721 161.601 162.074 
162.906 153.301 153.679 154.457 154.781 155.501 155.765 156.531 156.86 
157.733 158.112 158.974 159.349 160.183 160.619 161.476 161.967 162.805 
163.271 164.053 153.66 154.719 154.376 154.795 155.842 155.446 155.794 
155.486 155.868 157.047 156.59 156.936 156.535 156.938 156.579 156.978 
158.419 157.908 158.326 157.811 158.26 157.789 158.26 157.809 158.234 
159.831 159.352 159.841 159.326 159.801 159.251 159.708 159.189 159.614 
159.11 159.472 161.271 160.78 161.301 160.841 161.348 160.823 161.242 
160.678 161.046 160.501 160.842 160.316 160.652 162.887 162.315 162.851 
162.329 162.872 162.352 162.815 162.23 162.602 161.982 162.325 161.729 
162.089 161.538 161.926 164.509 163.984 164.518 163.957 164.493 163.931 
164.45 163.855 164.307 163.639 164.025 163.331 163.708 163.062 163.459 
162.874 163.263 165.879 165.498 166.021 165.567 166.082 165.57 166.1 
165.541 166.052 165.413 165.844 165.124 165.492 164.77 165.13 164.465 
164.822 164.205 164.529 165.41 165.777 166.041 166.949 166.154 166.445 
167.424 167.665 168.626 166.567 166.87 167.901 168.166 169.197 169.416 
170.452 166.959 167.315 168.385 168.669 169.74 170.003 171.142 171.372 
172.53 167.187 167.663 168.787 169.154 170.238 170.54 171.713 172.052 
173.328 173.576 174.745 167.2 167.776 168.936 169.472 170.597 170.996 
172.134 172.549 173.84 174.28 175.524 175.742 176.748 167.092 167.68 
168.79 169.47 170.654 171.247 172.41 172.9 174.137 174.663 175.919 
176.34 177.372 177.562 178.458 166.937 167.492 168.492 169.202 170.384 
171.156 172.411 173.074 174.332 174.906 176.144 176.63 177.687 178.007 
178.901 179.161 180.133 166.742 167.276 168.199 168.86 169.985 170.799 
172.083 172.923 174.229 174.976 176.215 176.808 177.872 178.264 179.156 
179.474 180.412 180.812 181.886 165.472 167.022 166.176 166.072 168.7 
167.812 167.741 166.847 166.761 170.536 169.573 169.53 168.586 168.509 
167.577 167.461 172.624 171.55 171.557 170.5 170.46 169.413 169.295 
168.274 168.102 174.815 173.741 173.795 172.686 172.736 171.567 171.515 
170.29 170.147 168.98 168.83 176.834 175.898 175.995 174.965 175.101 
173.98 174.034 172.738 172.637 171.272 171.133 169.858 169.742 178.717 
177.908 178.176 177.198 177.448 176.38 176.543 175.318 175.268 173.883 
173.691 172.306 172.101 170.813 170.616 180.634 179.923 180.465 179.526 
179.949 178.848 179.117 177.881 177.918 176.53 176.335 174.88 174.566 
173.173 172.834 171.565 171.245 182.524 181.952 182.647 181.87 182.365 
181.382 181.665 180.501 180.574 179.228 179.085 177.58 177.251 175.692 
175.25 173.785 173.333 172.062 171.682 183.771 185.48 184.464 183.911 
186.573 185.862 185.301 184.366 183.596 187.266 186.661 186.055 185.407 
184.698 183.822 182.873 187.787 187.248 186.56 185.973 185.288 184.662 
183.839 182.927 181.791 187.663 187.512 186.783 186.37 185.62 185.126 
184.366 183.707 182.679 181.676 180.317 186.722 186.984 186.362 186.311 
185.572 185.294 184.512 184.079 183.128 182.388 181.047 179.979 178.419 
185.527 185.93 185.525 185.694 185.109 185.038 184.285 184.038 183.097 
182.621 181.313 180.479 178.823 177.83 176.221 184.322 184.815 184.536 
184.841 184.344 184.442 183.704 183.618 182.627 182.353 181.025 180.459 
178.779 177.975 176.252 175.489 174.068 182.929 183.551 183.233 183.724 
183.167 183.481 182.672 182.797 181.726 181.641 180.267 179.924 178.272 
177.692 175.992 175.354 173.903 173.378 172.265 183.883 184.453 184.753 
185.657 184.6 185.149 186.134 186.341 186.876 184.282 185.028 186.03 
186.587 187.307 187.388 187.691 183.672 184.507 185.435 186.213 187.068 
187.605 188.176 188.181 188.295 182.734 183.754 184.633 185.481 186.278 
187.089 187.798 188.35 188.6 188.54 188.182 181.212 182.56 183.505 
184.558 185.233 186.107 186.65 187.532 187.809 188.326 187.968 187.883 
187.101 179.213 180.745 181.736 183.148 183.838 184.87 185.178 186.083 
186.192 187.036 186.758 187.172 186.438 186.451 185.669 177.128 178.581 
179.446 181.068 181.825 183.182 183.494 184.457 184.425 185.253 185.014 
185.674 185.127 185.476 184.766 184.944 184.31 175.19 176.438 177.049 
178.602 179.287 180.886 181.336 182.585 182.638 183.513 183.309 183.981 
183.587 184.073 183.504 183.848 183.238 183.521 182.911 166.889 167.728 
167.654 168.43 168.833 168.7 169.591 169.396 170.29 169.894 169.891 
170.878 170.711 171.668 171.443 172.422 170.64 170.839 171.904 171.946 
172.951 172.84 173.859 173.665 174.633 171.341 171.548 172.736 172.893 
174.026 174.042 175.135 175.062 176.118 175.883 176.718 172.277 172.405 
173.728 173.853 175.181 175.197 176.43 176.352 177.489 177.329 178.238 
177.862 178.423 173.241 173.42 174.779 174.96 176.398 176.495 177.861 
177.78 178.967 178.754 179.705 179.348 179.968 179.417 179.759 173.99 
174.29 175.622 175.933 177.384 177.669 179.122 179.217 180.456 180.286 
181.257 180.889 181.616 181.05 181.54 180.798 181.135 174.528 174.922 
176.272 176.674 178.16 178.561 180.081 180.357 181.662 181.665 182.656 
182.416 183.209 182.776 183.422 182.75 183.231 182.357 182.708 166.095 
165.021 165.956 166.823 163.902 164.843 165.717 166.762 167.801 162.846 
163.749 164.595 165.623 166.633 167.766 168.801 161.811 162.711 163.532 
164.512 165.466 166.559 167.546 168.655 169.548 160.771 161.662 162.448 
163.417 164.31 165.377 166.329 167.403 168.292 169.327 170.212 159.813 
160.633 161.351 162.276 163.087 164.151 165.078 166.187 167.094 168.124 
169.014 170.066 171.068 158.978 159.708 160.356 161.18 161.912 162.894 
163.784 164.904 165.838 166.918 167.794 168.86 169.811 170.967 171.997 
158.254 158.899 159.498 160.225 160.911 161.773 162.627 163.656 164.604 
165.666 166.542 167.589 168.467 169.623 170.6 171.818 172.763 157.654 
158.212 158.774 159.415 160.066 160.834 161.64 162.57 163.489 164.493 
165.371 166.358 167.192 168.255 169.166 170.355 171.287 172.477 173.311 
157.535 157.726 157.954 158.635 157.995 158.202 158.942 159.148 159.937 
158.368 158.549 159.354 159.541 160.41 160.601 161.535 158.844 158.989 
159.822 160.007 160.909 161.124 162.119 162.338 163.362 159.474 159.544 
160.407 160.541 161.466 161.648 162.661 162.917 163.993 164.218 165.223 
160.264 160.277 161.204 161.265 162.273 162.34 163.401 163.541 164.686 
164.882 165.989 166.104 167.086 161.061 161.106 162.065 162.151 163.232 
163.293 164.413 164.455 165.631 165.723 166.916 166.986 168.079 168.065 
169.081 161.762 161.862 162.806 162.964 164.038 164.219 165.355 165.487 
166.634 166.737 167.894 167.981 169.093 169.121 170.166 170.141 171.157 
162.429 162.542 163.484 163.647 164.692 164.925 166.056 166.304 167.448 
167.646 168.757 168.903 169.974 170.076 171.112 171.173 172.184 172.193 
173.158 163.126 164.721 164.012 164.256 166.602 165.79 166.07 165.245 
165.518 168.716 167.847 168.222 167.257 167.537 166.623 166.929 171.111 
170.16 170.672 169.604 169.949 168.847 169.127 168.122 168.394 173.792 
172.79 173.455 172.288 172.759 171.488 171.795 170.536 170.742 169.605 
169.77 176.426 175.565 176.368 175.259 175.877 174.544 174.957 173.479 
173.669 172.192 172.248 170.963 171.022 178.634 178.031 178.871 178.067 
178.765 177.683 178.198 176.804 177.055 175.398 175.384 173.711 173.625 
172.22 172.208 180.424 179.987 180.761 180.245 180.922 180.244 180.779 
179.814 180.132 178.766 178.784 177.058 176.851 175.091 174.898 173.42 
173.335 181.941 181.587 182.273 181.883 182.504 182.058 182.572 181.971 
182.314 181.44 181.56 180.269 180.096 178.405 178.044 176.298 175.986 
174.502 174.315 162.714 162.517 163.146 164.267 162.254 162.931 164.089 
164.796 166.062 161.931 162.637 163.789 164.564 165.872 166.663 168.073 
161.565 162.288 163.453 164.248 165.594 166.444 167.944 168.782 170.376 
161.208 161.914 163.099 163.915 165.318 166.202 167.775 168.667 170.357 
171.228 172.964 160.929 161.58 162.741 163.555 164.977 165.923 167.533 
168.5 170.2 171.164 172.92 173.849 175.537 160.742 161.337 162.469 
163.222 164.615 165.556 167.156 168.185 169.861 170.908 172.621 173.668 
175.353 176.294 177.784 160.632 161.184 162.31 162.999 164.355 165.218 
166.77 167.767 169.414 170.478 172.159 173.255 174.931 175.982 177.533 
178.395 179.681 160.594 161.103 162.2 162.854 164.152 164.963 166.432 
167.376 168.961 170.002 171.651 172.744 174.395 175.487 177.065 178.06 
179.446 180.206 181.303 161.764 160.304 161.183 161.504 158.865 159.699 
159.969 160.895 161.231 157.484 158.276 158.499 159.357 159.64 160.588 
160.905 156.185 156.93 157.119 157.896 158.068 158.954 159.198 160.202 
160.504 155 155.667 155.816 156.524 156.59 157.358 157.471 158.425 
158.708 159.785 160.14 153.922 154.491 154.543 155.201 155.23 155.911 
155.947 156.739 156.964 157.979 158.397 159.482 159.9 152.943 153.411 
153.343 153.906 153.898 154.563 154.631 155.333 155.509 156.347 156.731 
157.765 158.252 159.302 159.736 152.117 152.49 152.396 152.782 152.71 
153.263 153.358 154.06 154.262 155.009 155.307 156.19 156.644 157.671 
158.17 159.185 159.638 151.489 151.791 151.785 152.017 151.94 152.248 
152.302 152.858 153.102 153.804 154.11 154.866 155.26 156.154 156.673 
157.662 158.195 159.157 159.642 151.255 151.178 151.335 151.562 151.205 
151.287 151.436 151.553 151.7 151.177 151.271 151.367 151.449 151.558 
151.691 151.985 151.01 151.13 151.206 151.349 151.503 151.629 151.947 
152.171 152.731 151.012 150.972 151.063 151.177 151.439 151.622 152.049 
152.248 152.827 153.086 153.763 151.556 151.233 151.365 151.235 151.59 
151.68 152.256 152.442 153.117 153.302 154.007 154.208 154.948 152.479 
152.036 152.208 151.861 152.252 152.111 152.748 152.803 153.572 153.7 
154.486 154.607 155.402 155.541 156.372 153.409 153.011 153.214 152.855 
153.255 152.999 153.6 153.489 154.229 154.257 155.071 155.173 156.017 
156.124 156.972 157.081 157.915 154.278 153.925 154.172 153.858 154.274 
154.03 154.589 154.415 155.064 154.989 155.732 155.787 156.623 156.751 
157.605 157.719 158.53 158.618 159.382 154.856 155.932 155.174 154.842 
157.268 156.411 156.093 155.281 155.026 158.725 157.837 157.54 156.652 
156.385 155.57 155.377 160.339 159.38 159.12 158.168 157.905 157.009 
156.805 155.987 155.848 162.201 161.135 160.918 159.862 159.649 158.643 
158.479 157.535 157.423 156.554 156.513 164.301 163.153 162.977 161.809 
161.628 160.525 160.413 159.373 159.309 158.302 158.283 157.362 157.417 
166.543 165.386 165.286 164.025 163.852 162.623 162.501 161.394 161.344 
160.299 160.27 159.26 159.274 158.35 158.411 168.68 167.655 167.659 
166.446 166.334 165.001 164.853 163.582 163.495 162.363 162.316 161.268 
161.229 160.245 160.232 159.321 159.327 170.522 169.681 169.757 168.76 
168.747 167.534 167.422 166.075 165.942 164.633 164.533 163.348 163.274 
162.203 162.143 161.156 161.108 160.19 160.157 160.911 161.945 161.78 
162.56 163.066 162.915 163.821 163.63 164.567 164.292 164.144 165.174 
165.002 166.082 165.839 166.892 165.696 165.529 166.713 166.506 167.741 
167.49 168.712 168.357 169.483 167.231 167.085 168.418 168.212 169.589 
169.325 170.712 170.35 171.637 171.124 172.252 168.7 168.642 170.007 
169.928 171.363 171.23 172.71 172.455 173.855 173.398 174.612 173.977 
175.028 169.91 169.974 171.266 171.357 172.785 172.87 174.412 174.385 
175.874 175.599 176.884 176.353 177.438 176.747 177.693 170.819 170.985 
172.229 172.446 173.903 174.152 175.788 175.962 177.57 177.509 178.886 
178.535 179.663 179.096 180.032 179.318 180.077 171.535 171.756 173.01 
173.317 174.847 175.216 176.94 177.263 178.938 179.07 180.483 180.36 
181.477 181.131 182.012 181.48 182.144 181.454 181.92 152.547 152.588 
152.2 151.64 152.656 152.315 151.75 151.463 151.185 152.454 152.285 
151.745 151.551 151.218 151.138 151.025 152.161 151.993 151.455 151.376 
151.031 151.067 150.955 150.993 150.905 152.233 151.839 151.294 151.077 
150.753 150.786 150.751 150.885 150.921 150.903 150.825 152.771 152.183 
151.654 151.158 150.822 150.633 150.638 150.724 150.866 150.93 150.93 
150.843 150.727 153.436 152.866 152.368 151.744 151.328 150.901 150.802 
150.727 150.86 150.913 150.953 150.906 150.784 150.692 150.573 153.91 
153.475 152.997 152.46 151.962 151.454 151.148 150.922 150.921 150.933 
151.002 150.969 150.919 150.781 150.705 150.589 150.611 154.225 153.852 
153.389 152.97 152.458 151.988 151.53 151.2 151.005 150.952 150.998 
151.035 151.094 151.011 151.027 150.859 150.928 150.795 150.965 152.445 
151.546 152.004 152.276 151.16 151.345 151.596 152.07 152.547 151.038 
151.127 151.335 151.62 152.072 152.526 153.06 150.832 150.933 151.039 
151.352 151.754 152.19 152.713 153.13 153.655 150.668 150.674 150.644 
150.909 151.251 151.784 152.344 152.838 153.338 153.739 154.223 150.63 
150.587 150.547 150.598 150.864 151.252 151.836 152.396 152.942 153.391 
153.792 154.224 154.658 150.567 150.588 150.668 150.668 150.923 151.067 
151.568 151.948 152.507 152.941 153.362 153.765 154.163 154.625 155.117 
150.624 150.597 150.78 150.83 151.164 151.256 151.702 151.872 152.355 
152.612 153.056 153.374 153.825 154.212 154.752 155.195 155.788 150.99 
150.834 151.054 151.029 151.423 151.508 151.991 152.094 152.547 152.641 
153.055 153.215 153.684 153.977 154.553 154.941 155.568 155.973 156.571 
153.153 153.007 153.443 154.293 153.198 153.452 154.265 154.671 155.492 
153.591 153.708 154.42 154.723 155.52 155.883 156.69 154.139 154.145 
154.796 154.954 155.731 155.993 156.816 157.15 158.019 154.749 154.748 
155.417 155.46 156.245 156.357 157.206 157.402 158.275 158.557 159.436 
155.23 155.322 156.004 156.1 156.851 156.952 157.768 157.909 158.766 
158.936 159.794 160.012 160.898 155.683 155.763 156.431 156.58 157.276 
157.45 158.193 158.409 159.229 159.446 160.288 160.466 161.335 161.549 
162.495 156.317 156.29 156.948 157.009 157.705 157.823 158.559 158.754 
159.574 159.834 160.694 160.932 161.782 162.008 162.901 163.173 164.09 
157.058 156.988 157.626 157.613 158.32 158.352 159.115 159.204 160.041 
160.217 161.096 161.314 162.164 162.394 163.23 163.51 164.361 164.668 
165.469 161.614 160.961 160.927 160.198 160.274 160.275 159.547 159.504 
158.775 159.496 159.55 158.842 158.838 158.074 158.054 157.351 158.717 
158.752 158.061 158.097 157.33 157.311 156.539 156.599 155.986 158.068 
158.011 157.299 157.314 156.585 156.565 155.801 155.795 155.161 155.293 
154.824 157.58 157.425 156.669 156.6 155.904 155.874 155.207 155.155 
154.564 154.577 154.133 154.247 153.854 157.248 157.014 156.249 156.059 
155.363 155.277 154.696 154.657 154.146 154.106 153.645 153.659 153.247 
153.327 152.927 157.037 156.766 156.028 155.745 155.03 154.838 154.259 
154.203 153.746 153.728 153.27 153.227 152.74 152.746 152.304 152.405 
152.048 156.875 156.606 155.897 155.59 154.873 154.597 153.983 153.837 
153.377 153.342 152.926 152.872 152.391 152.302 151.817 151.813 151.444 
151.578 151.344 
POINT_DATA 1002
SCALARS Distance double
LOOKUP_TABLE default
155.507 154.601 155.296 156.339 156.081 156.735 157.239 156.968 157.617 
158.123 158.243 157.999 158.542 159.022 159.609 159.382 159.098 159.646 
160.042 160.652 161.321 160.529 160.18 160.91 161.325 161.88 162.574 
163.286 161.666 161.316 162.17 162.738 163.297 163.935 164.684 165.443 
162.895 162.529 163.447 164.127 164.738 165.342 166.093 166.91 167.645 
164.158 163.719 164.748 165.462 166.091 166.673 167.444 168.315 169.051 
169.618 165.336 164.816 165.955 166.667 167.312 167.889 168.657 169.597 
170.383 170.91 171.304 154.303 154.931 153.948 154.478 153.366 155.65 
153.918 152.713 155.191 156.565 153.47 152.388 154.807 156.236 157.676 
153.374 152.567 154.568 156.04 157.449 158.821 153.645 152.916 154.534 
155.869 157.301 158.62 159.981 153.962 152.998 154.77 155.818 157.177 
158.496 159.831 161.225 154.064 152.88 155.065 156.009 157.213 158.5 
159.751 161.108 162.471 154.093 152.932 155.217 156.224 157.364 158.626 
159.799 161 162.323 163.624 153.959 155.078 155.124 156.14 156.265 
156.166 157.368 157.512 157.301 157.352 158.847 158.902 158.766 158.717 
158.716 160.312 160.282 160.369 160.273 160.139 159.992 161.75 161.787 
161.847 161.831 161.625 161.376 161.159 163.413 163.464 163.394 163.38 
163.236 162.947 162.655 162.457 165.079 164.988 165.066 165.022 164.95 
164.737 164.395 164.078 163.843 166.428 166.222 166.559 166.626 166.656 
166.555 166.244 165.839 165.475 165.148 166.266 166.71 167.874 167.152 
168.414 169.592 167.621 168.935 170.245 171.524 168.083 169.456 170.834 
172.352 173.719 168.355 169.929 171.333 172.976 174.663 175.858 168.322 
170.136 171.731 173.345 175.205 176.708 177.682 168.096 169.955 171.877 
173.63 175.446 177.111 178.3 179.395 167.826 169.559 171.641 173.724 
175.652 177.339 178.614 179.794 181.215 167.577 169.199 171.203 173.412 
175.561 177.438 178.841 180.016 181.433 183.015 166.927 168.636 167.661 
170.495 169.462 168.405 172.634 171.547 170.374 169.108 174.874 173.881 
172.785 171.391 169.945 176.968 176.147 175.28 174.042 172.483 170.974 
179.08 178.486 177.718 176.638 175.131 173.463 171.87 181.302 181.022 
180.348 179.294 177.829 176.051 174.19 172.444 183.35 183.296 182.785 
181.869 180.567 178.868 176.841 174.725 172.835 184.956 185.094 186.397 
186.101 187.229 184.715 186.66 187.918 185.413 183.974 187.173 188.276 
185.855 184.606 182.947 187.092 187.623 186.09 184.923 183.577 181.523 
186.241 186.305 185.756 184.876 183.745 182.072 179.554 185.248 185.029 
185.088 184.486 183.5 182.055 179.819 177.102 184.171 183.77 184.193 
183.757 182.877 181.515 179.513 177.012 174.645 182.719 182.304 182.818 
182.502 181.767 180.543 178.752 176.559 174.408 172.656 183.686 185.626 
184.056 185.776 183.978 187.01 185.34 183.541 186.985 187.936 184.652 
182.835 186.327 187.904 188.698 183.787 181.59 185.475 187.046 188.454 
188.651 182.314 179.742 184.425 185.811 187.102 187.875 187.378 180.187 
177.718 182.717 184.385 185.346 186.137 186.266 185.673 177.847 175.825 
180.312 182.457 183.651 184.287 184.627 184.495 184.134 175.648 174.099 
177.658 179.901 181.66 182.612 183.039 183.104 182.921 182.665 166.869 
168.519 167.8 169.784 168.919 170.474 170.975 169.792 171.879 172.658 
171.755 170.377 172.989 173.991 174.935 172.518 171.133 173.943 175.153 
176.267 177.16 173.569 172.135 175.105 176.503 177.641 178.565 178.993 
174.563 173.031 176.214 177.884 179.204 180.062 180.494 180.423 175.282 
173.664 177.029 178.919 180.571 181.6 182.118 182.243 181.962 165.198 
165.803 164.065 164.664 162.981 166.687 163.604 161.956 165.52 167.696 
162.578 160.902 164.416 166.465 168.48 161.507 159.905 163.261 165.255 
167.269 169.129 160.488 159.049 162.061 163.94 166.041 167.976 169.939 
159.589 158.299 160.994 162.682 164.733 166.742 168.666 170.829 158.811 
157.654 160.096 161.646 163.555 165.526 167.361 169.378 171.597 158.172 