# vtk DataFile Version 4.0
vtk output
ASCII
DATASET POLYDATA
POINTS 1002 float
-102.792 -75.6904 72.5988 -102.856 -75.1063 71.4128 -103.156 -74.7758 72.3322 
-103.23 -75.4951 73.6466 -103.726 -74.6826 73.2876 -102.758 -76.3488 74.0042 
-103.925 -75.5511 74.6401 -104.551 -74.8182 74.1519 -103.304 -76.2915 75.1884 
-102.881 -77.1983 75.5825 -104.818 -75.8256 75.4547 -105.439 -75.0181 74.9811 
-104.136 -76.5631 76.1005 -103.552 -77.3437 76.7436 -103.24 -78.3429 77.1991 
-105.761 -76.1557 76.2993 -106.34 -75.3147 75.8453 -105.144 -77.0412 76.8322 
-104.55 -77.8689 77.4888 -104.098 -78.7284 78.1727 -103.78 -79.6856 78.7752 
-106.753 -76.5962 77.2145 -107.27 -75.7965 76.6816 -106.164 -77.4636 77.7736 
-105.61 -78.4117 78.3304 -105.156 -79.336 78.9633 -104.748 -80.1873 79.6627 
-104.438 -81.0739 80.2638 -107.685 -77.118 78.1029 -108.085 -76.2344 77.5884 
-107.136 -77.9214 78.7721 -106.54 -78.7645 79.485 -106.086 -79.7626 80.1159 
-105.701 -80.7478 80.7072 -105.362 -81.6497 81.2628 -105.208 -82.6079 81.6693 
-108.377 -77.4811 79.1214 -108.709 -76.5003 78.64 -107.952 -78.4267 79.7177 
-107.388 -79.2464 80.5025 -106.909 -80.1567 81.2965 -106.589 -81.2512 81.8901 
-106.285 -82.3278 82.3535 -106.058 -83.3368 82.7602 -105.982 -84.3291 83.0701 
-108.925 -77.7844 80.1994 -109.254 -76.8281 79.6121 -108.623 -78.8517 80.7607 
-108.215 -79.8459 81.4116 -107.768 -80.7957 82.1658 -107.495 -81.897 82.7946 
-107.303 -83.0829 83.2351 -107.04 -84.1632 83.6605 -106.795 -85.122 84.0942 
-106.623 -85.9814 84.4455 -109.506 -78.2831 81.0435 -109.807 -77.3549 80.3523 
-109.288 -79.3342 81.697 -109.041 -80.3971 82.334 -108.661 -81.4413 82.9961 
-108.345 -82.587 83.576 -108.213 -83.8272 83.9931 -108.041 -84.9641 84.3887 
-107.731 -85.91 84.866 -107.416 -86.7164 85.3325 -107.172 -87.4282 85.6883 
-102.994 -74.2037 70.8465 -103.393 -73.8867 71.8163 -103.266 -73.305 70.2495 
-103.93 -73.1195 71.2602 -104.057 -72.7378 69.5872 -104.149 -73.8824 72.7562 
-104.825 -72.5536 70.6349 -105.102 -72.3256 68.9161 -104.811 -73.1575 72.1984 
-105.091 -74.0345 73.6313 -105.547 -71.7899 70.0535 -105.702 -71.5215 68.2957 
-105.532 -72.3849 71.6279 -105.764 -73.253 73.1068 -106.038 -74.2121 74.5155 
-105.981 -70.7458 69.5668 -106.023 -70.5035 67.7166 -106.079 -71.3615 71.1697 
-106.443 -72.356 72.6042 -106.775 -73.4108 74.0231 -106.974 -74.5383 75.3906 
-106.67 -69.9855 69.0825 -106.652 -69.8784 67.2073 -106.775 -70.4445 70.7878 
-107.113 -71.3881 72.2021 -107.521 -72.517 73.5613 -107.696 -73.6922 74.9545 
-107.839 -74.9788 76.2948 -107.567 -69.6099 68.6118 -107.505 -69.5985 66.8198 
-107.691 -69.9019 70.3822 -107.869 -70.6304 71.875 -108.146 -71.6228 73.2068 
-108.337 -72.7541 74.6055 -108.43 -74.0517 76.0072 -108.576 -75.3405 77.3395 
-108.339 -69.2759 68.2442 -108.345 -69.3311 66.5558 -108.454 -69.4477 70.0193 
-108.582 -70.0004 71.6305 -108.708 -70.8232 73.0061 -108.832 -71.838 74.3685 
-108.951 -73.1235 75.7803 -109.107 -74.4829 77.1083 -109.223 -75.6885 78.3747 
-109.083 -68.9653 67.9951 -109.195 -69.0679 66.4007 -109.11 -69.0193 69.7536 
-109.239 -69.3985 71.4793 -109.36 -70.0795 72.9553 -109.417 -70.9938 74.2578 
-109.471 -72.2326 75.5842 -109.611 -73.6728 76.8679 -109.769 -74.9934 78.0461 
-109.815 -76.1673 79.2117 -110.005 -68.8725 67.3175 -109.933 -68.8087 69.0959 
-110.894 -68.9759 68.4695 -111.006 -69.0035 70.412 -111.854 -69.4056 69.8009 
-110.025 -68.9666 71.0255 -112.129 -69.5638 71.6384 -112.871 -70.0771 70.9556 
-111.172 -69.2969 72.3505 -110.194 -69.4617 72.7849 -113.002 -70.4613 72.3652 
-113.729 -70.9844 71.6742 -112.098 -70.11 73.256 -111.231 -69.9673 73.9196 
-110.269 -70.2867 74.1874 -113.553 -71.6228 72.9153 -114.046 -72.1006 72.4321 
-112.626 -71.3183 73.7879 -111.909 -71.0593 74.6619 -111.164 -71.035 75.23 
-110.23 -71.4968 75.4809 -113.831 -72.8212 73.9996 -113.836 -73.3257 73.7055 
-113.157 -72.5151 74.7179 -112.446 -72.3389 75.5632 -111.854 -72.226 76.2326 
-111.058 -72.4403 76.6277 -110.231 -73.0266 76.7972 -113.899 -74.0082 75.4307 
-113.554 -74.5943 75.14 -113.723 -73.5347 76.1436 -113.192 -73.3539 76.9883 
-112.573 -73.3704 77.5889 -111.805 -73.5332 77.8919 -110.991 -73.971 77.9841 
-110.329 -74.5336 78.0003 -113.892 -75.3139 76.6165 -113.475 -75.8677 76.2957 
-114.048 -74.7365 77.4037 -113.823 -74.407 78.3919 -113.283 -74.4544 79.0514 
-112.493 -74.6717 79.2836 -111.646 -74.9878 79.2867 -110.965 -75.4476 79.1908 
-110.392 -75.8729 79.1523 -113.886 -76.731 77.5421 -113.532 -77.1407 77.2288 
-114.121 -76.2696 78.3352 -114.084 -75.8995 79.4262 -113.704 -75.8437 80.2243 
-113.013 -76.0239 80.5135 -112.198 -76.214 80.5875 -111.507 -76.484 80.547 
-110.948 -76.868 80.4042 -110.382 -77.1738 80.3306 -110.232 -78.6249 81.4755 
-110.824 -78.4288 81.6281 -110.772 -80.0626 82.7398 -111.375 -78.0619 81.9 
-111.302 -79.7517 83.2019 -111.216 -81.4873 84.2502 -111.916 -77.7951 81.9931 
-111.781 -79.3998 83.5969 -111.662 -81.1734 84.9379 -111.472 -83.0901 85.9529 
-112.584 -77.7655 81.8118 -112.275 -79.4209 83.4509 -112.107 -81.1352 85.1837 
-111.952 -83.1234 86.5131 -111.776 -85.2253 87.4784 -113.326 -77.7181 81.6393 
-112.892 -79.6371 83.0965 -112.619 -81.4924 84.8119 -112.469 -83.545 86.4473 
-112.315 -85.7466 87.6659 -112.136 -87.9801 88.5998 -113.884 -77.6606 81.2225 
-113.525 -79.6821 82.9153 -113.232 -81.7097 84.5209 -113.059 -83.9347 86.1203 
-112.856 -86.3593 87.4934 -112.584 -88.8205 88.582 -112.366 -91.2827 89.6148 
-114.106 -77.8069 80.1977 -113.926 -79.6946 82.3116 -113.749 -81.6785 84.2624 
-113.652 -83.9251 85.9465 -113.454 -86.5717 87.4118 -113.083 -89.3912 88.5818 
-112.793 -92.1762 89.6599 -112.717 -94.6858 90.7883 -114.035 -78.0764 79.056 
-114.03 -79.7824 81.1122 -113.981 -81.6542 83.3657 -113.995 -83.8024 85.4133 
-113.933 -86.49 87.2038 -113.637 -89.5403 88.6562 -113.333 -92.5894 89.8035 
-113.286 -95.3326 90.897 -113.392 -97.4968 91.8708 -113.801 -78.3509 78.38 
-113.955 -79.8929 80.0156 -114.018 -81.6496 82.082 -114.066 -83.6887 84.2684 
-114.08 -86.3285 86.3959 -113.967 -89.4835 88.3053 -113.815 -92.647 89.7877 
-113.826 -95.4835 90.9311 -113.984 -97.8271 91.8632 -114.097 -99.602 92.4505 
-110.043 -79.7363 82.2184 -110.639 -81.3392 83.4926 -109.893 -80.8547 82.9865 
-110.985 -82.994 85.0598 -110.391 -82.5529 84.4049 -109.583 -81.9513 83.7893 
-111.208 -84.9484 86.8066 -110.616 -84.5119 86.0386 -109.937 -83.7986 85.3579 
-109.151 -83.1631 84.4943 -111.616 -87.4639 88.3095 -110.967 -86.9343 87.6363 
-110.242 -86.1031 86.9285 -109.533 -85.2133 86.0973 -108.902 -84.5279 84.9923 
-111.982 -90.6732 89.565 -111.477 -89.9567 89.0583 -110.789 -88.9645 88.3469 
-109.985 -87.708 87.6725 -109.316 -86.6394 86.6771 -108.768 -85.8148 85.4084 
-112.288 -94.2927 90.8543 -111.83 -93.5471 90.5179 -111.299 -92.417 89.7955 
-110.549 -90.8332 89.1181 -109.702 -89.1776 88.3832 -109.067 -87.8865 87.1846 
-108.494 -86.8701 85.8639 -112.893 -97.4667 91.9916 -112.311 -97.0283 91.8156 
-111.764 -96.1142 91.2241 -111.153 -94.5676 90.4744 -110.298 -92.5432 89.7835 
-109.442 -90.5799 88.841 -108.802 -88.9964 87.5425 -108.161 -87.7509 86.3118 
-113.675 -99.8057 92.5591 -113.083 -99.7254 92.4393 -112.488 -99.3111 92.0474 
-111.95 -98.2991 91.447 -111.23 -96.5083 90.7922 -110.282 -94.2305 90.0414 
-109.419 -91.9508 88.9992 -108.684 -90.0049 87.7836 -107.916 -88.5265 86.6756 
-114.413 -101.839 92.4402 -113.988 -102.027 92.3421 -114.671 -104.663 91.6703 
-114.282 -104.862 91.434 -115.221 -108.037 90.672 -113.438 -102.034 92.0557 
-114.691 -108.089 90.5222 -115.945 -110.862 89.9627 -113.815 -104.842 91.1833 
-112.944 -101.7 91.6938 -114.947 -110.434 89.881 -116.005 -112.148 89.193 
-114.038 -107.584 90.435 -113.34 -104.265 91.0572 -112.37 -100.546 91.2817 
-114.729 -111.155 89.0633 -115.24 -112.133 87.9891 -113.959 -109.108 89.8267 
-113.288 -106.276 90.5235 -112.556 -102.677 90.9712 -111.444 -98.4122 90.7738 
-114.255 -110.693 88.0991 -114.419 -111.329 86.9191 -113.744 -109.202 89.106 
-112.956 -107.077 90.0103 -112.24 -104.086 90.7193 -111.453 -100.047 90.7212 
-110.381 -95.65 90.0136 -113.698 -109.518 87.5312 -113.807 -109.856 86.6121 
-113.395 -108.385 88.5055 -112.685 -106.778 89.4595 -111.832 -104.467 90.3556 
-111.151 -100.959 90.6439 -110.368 -96.6922 90.0114 -109.41 -92.8131 88.9229 
-112.953 -107.77 87.4884 -113.119 -107.799 86.9632 -112.7 -106.961 88.2287 
-112.244 -105.679 89.0572 -111.547 -103.878 89.8766 -110.829 -101.012 90.2955 
-110.11 -97.1676 89.8799 -109.238 -93.3712 88.8569 -108.42 -90.4785 87.7317 
-112.089 -105.529 87.6905 -112.291 -105.309 87.4709 -111.798 -105.046 88.1477 
-111.486 -104.015 88.7941 -111.092 -102.526 89.446 -110.525 -100.266 89.776 
-109.773 -97.1014 89.4815 -108.873 -93.6791 88.6398 -108.023 -90.8483 87.6141 
-107.46 -88.859 86.6203 -114.563 -100.546 92.3041 -114.784 -103.349 91.8849 
-114.788 -101.462 91.7053 -114.976 -104.799 90.8768 -114.836 -102.109 90.81 
-115.234 -106.861 90.8531 -115.057 -105.45 89.843 -114.788 -102.07 90.1271 
-115.774 -108.399 89.7506 -116.32 -110.214 89.9178 -114.956 -104.882 89.3986 
-114.62 -101.072 89.7515 -115.937 -108.39 88.8547 -117.121 -110.87 88.932 
-117.157 -112.07 89.2039 -114.667 -103.216 89.3264 -114.317 -99.0905 89.1303 
-115.531 -107.13 88.594 -116.866 -110.019 88.0792 -117.457 -111.7 88.0671 
-116.569 -112.425 88.032 -114.274 -100.568 88.9173 -113.889 -96.4982 88.0809 
-114.922 -104.971 88.637 -115.883 -108.519 87.7856 -116.637 -110.605 87.1303 
-116.324 -111.664 86.6906 -115.273 -111.971 86.5583 -113.723 -97.3568 88.0587 
-113.328 -93.9788 86.9006 -114.291 -101.666 88.4731 -114.932 -105.937 88.0081 
-115.547 -108.925 87.1014 -115.694 -110.382 86.1547 -115.135 -110.897 85.5977 
-114.396 -110.75 85.8318 -113.033 -94.3883 86.8791 -112.721 -91.9371 85.6221 
-113.525 -97.7888 87.8316 -114.039 -101.855 88.164 -114.546 -105.597 87.7789 
-114.967 -108.018 86.841 -114.904 -108.996 85.8956 -114.372 -109.124 85.6526 
-113.75 -108.739 86.1876 -112.388 -92.0974 85.3876 -112.194 -90.3429 84.1612 
-112.75 -94.4611 86.5741 -113.148 -97.5213 87.5379 -113.525 -100.962 88.0188 
[...]
CELL_DATA 2000
SCALARS Distance double
LOOKUP_TABLE default
145.458 146.14 145.98 146.433 147.114 146.835 147.328 147.086 147.622 
148.245 147.924 148.449 148.132 148.706 148.438 149.117 149.449 149.113 
149.696 149.354 149.984 149.653 150.368 150.1 150.904 150.754 150.397 
151.041 150.678 151.369 151.017 151.776 151.457 152.274 151.989 152.834 
152.066 151.751 152.429 152.077 152.78 152.436 153.21 152.901 153.732 
153.423 154.267 153.962 154.836 153.246 153.018 153.714 153.44 154.139 
153.831 154.592 154.315 155.167 154.893 155.769 155.452 156.34 156.029 
156.952 154.323 154.143 154.877 154.676 155.428 155.166 155.947 155.681 
156.556 156.318 157.249 156.974 157.891 157.573 158.481 158.172 159.059 
155.376 155.215 155.998 155.839 156.672 156.462 157.295 157.043 157.916 
157.695 158.636 158.427 159.362 159.1 159.976 159.675 160.502 160.196 
160.969 144.964 144.386 144.949 145.603 144.095 144.492 145.208 145.756 
146.572 144.175 144.404 145.077 145.485 146.302 146.841 147.705 144.119 
144.451 145.001 145.398 146.141 146.639 147.487 148.015 148.892 143.711 
144.176 144.701 145.193 145.915 146.466 147.325 147.849 148.727 149.242 
150.158 143.474 143.822 144.485 144.898 145.703 146.227 147.153 147.7 
148.605 149.108 149.997 150.531 151.442 143.64 143.85 144.611 144.897 
145.742 146.134 147.049 147.544 148.454 148.969 149.841 150.366 151.243 
151.786 152.637 143.952 144.122 144.835 145.113 145.906 146.249 147.069 
147.477 148.312 148.794 149.654 150.186 151.067 151.599 152.453 152.948 
153.737 144.321 144.425 145.064 145.303 146.058 146.383 147.179 147.521 
148.311 148.693 149.526 150.006 150.903 151.432 152.309 152.798 153.595 
154.04 154.787 144.781 145.869 145.341 145.521 147.305 146.622 146.806 
146.233 146.532 148.92 148.202 148.42 147.707 147.958 147.356 147.678 
150.399 149.774 149.953 149.317 149.525 148.879 149.109 148.51 148.801 
151.644 151.119 151.234 150.693 150.887 150.355 150.592 149.992 150.244 
149.651 149.995 152.789 152.326 152.536 151.97 152.238 151.695 152.048 
151.477 151.811 151.177 151.526 150.936 151.364 153.93 153.533 153.932 
153.399 153.813 153.218 153.683 153.055 153.474 152.801 153.162 152.519 
152.908 152.343 152.759 155.066 154.731 155.242 154.841 155.372 154.877 
155.397 154.798 155.221 154.525 154.845 154.154 154.479 153.875 154.236 
153.685 154.033 156.191 155.882 156.436 156.133 156.736 156.377 156.94 
156.455 156.875 156.24 156.521 155.822 156.093 155.44 155.768 155.168 
155.506 154.921 155.231 156.12 156.448 156.753 157.736 156.752 157.095 
158.133 158.469 159.522 157.072 157.403 158.468 158.856 159.963 160.294 
161.372 157.47 157.75 158.781 159.169 160.316 160.723 161.893 162.211 
163.368 157.845 158.159 159.158 159.501 160.64 161.067 162.321 162.74 
164.002 164.313 165.556 157.95 158.435 159.472 159.881 161.009 161.426 
162.705 163.173 164.52 164.931 166.24 166.554 167.878 157.707 158.357 
159.421 160.05 161.197 161.747 163.006 163.548 164.924 165.429 166.805 
167.207 168.595 168.952 170.419 157.319 157.985 158.998 159.783 160.923 
161.707 162.939 163.688 165.052 165.748 167.183 167.738 169.187 169.644 
171.16 171.577 173.065 157.015 157.588 158.531 159.275 160.367 161.23 
162.426 163.351 164.684 165.638 167.11 167.961 169.466 170.138 171.643 
172.207 173.664 174.104 175.34 156.221 157.874 156.992 156.93 159.685 
158.77 158.743 157.785 157.685 161.545 160.631 160.649 159.677 159.591 
158.558 158.377 163.563 162.578 162.643 161.628 161.58 160.515 160.354 
159.25 159.041 165.81 164.761 164.904 163.769 163.774 162.6 162.489 
161.308 161.138 159.975 159.791 168.245 167.175 167.458 166.235 166.323 
164.996 164.92 163.587 163.431 162.162 161.976 160.768 160.546 170.9 
169.801 170.25 168.977 169.181 167.749 167.713 166.21 166.015 164.569 
164.312 162.988 162.703 161.47 161.162 173.564 172.558 173.081 171.873 
172.159 170.741 170.773 169.177 168.981 167.322 166.986 165.423 165.045 
163.65 163.273 162.018 161.659 175.764 175.027 175.476 174.536 174.804 
173.635 173.73 172.287 172.17 170.459 170.134 168.319 167.883 166.172 
165.717 164.213 163.782 162.484 162.099 176.895 178.294 177.31 176.627 
179.818 178.674 177.973 176.911 176.027 181.594 180.301 179.463 178.281 
177.432 176.242 175.113 182.758 181.885 180.908 179.778 178.833 177.671 
176.555 175.189 173.688 182.516 182.416 181.478 180.842 179.773 178.892 
177.711 176.536 174.965 173.484 171.639 181.303 181.677 180.951 180.851 
179.818 179.375 178.17 177.387 175.826 174.579 172.619 171.162 169.22 
179.871 180.374 179.82 180.022 179.13 179.025 177.893 177.481 176.014 
175.142 173.21 171.933 169.832 168.575 166.784 178.374 178.934 178.381 
178.763 177.94 178.104 177.051 176.944 175.567 175.048 173.2 172.233 
170.088 168.962 166.999 166.076 164.579 176.684 177.318 176.685 177.187 
176.348 176.719 175.709 175.878 174.582 174.378 172.633 171.973 169.886 
168.967 166.953 166.11 164.509 163.901 162.72 177.18 177.82 177.938 
178.638 178.067 178.476 179.468 179.511 180.313 177.885 178.577 179.824 
180.306 181.499 181.463 182.261 177.256 178.209 179.475 180.399 181.763 
182.381 183.32 183.237 183.443 176.024 177.316 178.494 179.701 180.909 
182.047 182.907 183.561 183.614 183.579 182.994 174.064 175.713 176.888 
178.378 179.426 180.75 181.444 182.463 182.459 182.956 182.31 182.384 
181.531 171.652 173.428 174.556 176.367 177.397 178.967 179.634 180.787 
180.861 181.515 181.013 181.311 180.582 180.729 179.997 169.241 170.87 
171.778 173.685 174.625 176.524 177.228 178.768 178.999 179.94 179.625 
180.045 179.43 179.669 179.031 179.213 178.527 167.051 168.432 169.062 
170.775 171.495 173.433 174.067 175.961 176.306 177.804 177.684 178.564 
178.022 178.468 177.794 178.118 177.439 177.666 176.88 157.186 158.055 
157.948 158.72 159.119 158.968 159.787 159.647 160.551 160.182 160.101 
160.986 160.824 161.745 161.612 162.625 161.134 161.142 162.112 162.038 
163.038 162.907 164.014 163.863 164.999 162.203 162.167 163.283 163.221 
164.426 164.319 165.64 165.466 166.822 166.504 167.663 163.537 163.452 
164.769 164.636 166.112 165.965 167.588 167.37 168.979 168.604 169.966 
169.342 170.294 164.828 164.884 166.336 166.307 167.955 167.895 169.711 
169.552 171.292 170.936 172.378 171.782 172.827 171.963 172.638 165.752 
166.044 167.535 167.772 169.457 169.672 171.509 171.611 173.309 173.15 
174.484 174.067 175.05 174.405 175.099 174.197 174.657 166.334 166.791 
168.314 168.767 170.473 170.928 172.741 173.109 174.743 174.842 176.065 
175.864 176.734 176.335 176.977 176.385 176.819 175.994 176.235 156.446 
155.545 156.394 157.24 154.551 155.444 156.289 157.237 158.203 153.541 
154.41 155.211 156.198 157.138 158.195 159.192 152.562 153.38 154.093 
155.056 155.944 157.04 158.039 159.135 160.117 151.561 152.355 152.983 
153.905 154.736 155.813 156.802 157.933 158.957 160.046 161.099 150.575 
151.324 151.918 152.783 153.575 154.606 155.567 156.686 157.697 158.838 
159.916 161.09 162.278 149.734 150.397 150.997 151.769 152.532 153.473 
154.392 155.456 156.424 157.545 158.573 159.803 160.972 162.274 163.477 
149.076 149.65 150.24 150.925 151.637 152.472 153.314 154.294 155.218 
156.283 157.265 158.433 159.53 160.839 161.997 163.333 164.392 148.557 
149.05 149.589 150.206 150.845 151.591 152.328 153.217 154.069 155.09 
156.055 157.164 158.208 159.406 160.482 161.764 162.78 164.073 164.976 
148.455 148.628 148.822 149.463 148.951 149.065 149.744 149.947 150.713 
149.461 149.499 150.179 150.309 151.102 151.302 152.172 149.975 150.06 
150.776 150.856 151.68 151.796 152.73 152.906 153.915 150.403 150.566 
151.409 151.533 152.468 152.536 153.567 153.645 154.776 154.869 155.989 
150.962 151.081 152.045 152.21 153.275 153.409 154.54 154.63 155.834 
155.9 157.103 157.097 158.208 151.763 151.81 152.814 152.931 154.035 
154.215 155.395 155.586 156.812 156.968 158.179 158.247 159.377 159.344 
160.42 152.618 152.688 153.707 153.787 154.886 155.018 156.222 156.42 
157.699 157.899 159.153 159.275 160.432 160.465 161.554 161.542 162.62 
153.381 153.515 154.567 154.689 155.81 155.928 157.154 157.316 158.656 
158.841 160.185 160.296 161.527 161.54 162.67 162.651 163.749 163.73 
164.793 154.13 155.825 155.109 155.412 157.753 156.958 157.324 156.494 
156.771 159.906 159.033 159.491 158.576 158.949 157.973 158.238 162.379 
161.389 161.93 160.904 161.369 160.328 160.702 159.588 159.844 165.21 
164.129 164.791 163.582 164.093 162.906 163.351 162.189 162.507 161.276 
161.432 168.257 167.193 168.074 166.753 167.379 165.928 166.391 165.002 
165.348 164.015 164.159 162.807 162.791 171.237 170.321 171.383 170.198 
171.033 169.533 170.09 168.397 168.72 167.059 167.188 165.62 165.555 
164.078 163.944 173.802 173.147 174.201 173.351 174.285 173.149 173.856 
172.294 172.641 170.759 170.813 168.904 168.783 167.004 166.793 165.212 
165.036 175.734 175.366 176.283 175.774 176.606 175.965 176.708 175.733 
176.168 174.637 174.654 172.714 172.47 170.45 170.106 168.23 167.903 
166.291 166.067 153.653 153.475 154.123 155.317 153.32 153.984 155.205 
155.89 157.193 153.022 153.777 154.983 155.747 157.071 157.833 159.265 
152.527 153.363 154.556 155.42 156.766 157.653 159.165 160.015 161.646 
152.051 152.859 154.091 154.952 156.365 157.314 158.92 159.882 161.613 
162.526 164.34 151.724 152.483 153.775 154.577 156.053 156.981 158.674 
159.664 161.454 162.44 164.313 165.299 167.233 151.467 152.216 153.514 
154.315 155.775 156.711 158.417 159.452 161.275 162.287 164.16 165.2 
167.176 168.223 170.161 151.237 151.959 153.217 154.022 155.414 156.365 
158.006 159.122 160.958 162.076 163.953 165.026 166.96 168.071 170.016 
171.061 172.791 151.066 151.73 152.944 153.708 155.045 155.944 157.489 
158.6 160.387 161.628 163.517 164.724 166.599 167.762 169.601 170.746 
172.438 173.439 174.819 152.628 151.138 152.02 152.396 149.904 150.606 
150.887 151.797 152.211 148.907 149.487 149.635 150.334 150.587 151.556 
151.909 147.828 148.469 148.507 149.093 149.096 149.894 150.07 151.118 
151.394 146.465 147.214 147.193 147.845 147.7 148.365 148.318 149.227 
149.407 150.527 150.853 144.986 145.725 145.695 146.414 146.324 146.957 
146.867 147.562 147.628 148.564 148.855 150.024 150.464 143.658 144.281 
144.297 144.972 145.006 145.639 145.663 146.257 146.311 146.985 147.179 
148.111 148.517 149.701 150.212 142.665 143.114 143.186 143.745 143.847 
144.434 144.505 145.101 145.166 145.782 145.901 146.623 146.912 147.873 
148.356 149.511 150.044 142.077 142.331 142.411 142.817 142.936 143.407 
143.451 143.963 143.969 144.576 144.657 145.366 145.594 146.418 146.825 
147.802 148.329 149.415 149.945 141.901 141.759 141.906 142.162 141.688 
141.792 142.018 142.241 142.609 141.747 141.802 142.018 142.13 142.394 
142.65 143.021 141.877 141.938 142.167 142.192 142.349 142.438 142.649 
142.975 143.412 142.051 142.088 142.296 142.314 142.413 142.422 142.537 
142.674 143.044 143.455 144.093 142.485 142.354 142.481 142.386 142.448 
142.456 142.648 142.719 143.149 143.337 144.035 144.38 145.172 143.234 
142.951 143.021 142.682 142.692 142.552 142.875 142.962 143.597 143.713 
144.496 144.63 145.473 145.669 146.499 144.049 143.765 143.865 143.403 
143.409 143.036 143.383 143.36 144.127 144.275 145.142 145.245 146.065 
146.159 146.98 147.124 147.977 144.792 144.554 144.734 144.329 144.421 
143.963 144.28 144.073 144.778 144.855 145.715 145.853 146.653 146.762 
147.544 147.67 148.508 148.672 149.553 145.308 146.188 145.585 145.25 
147.345 146.564 146.205 145.493 145.071 148.857 147.901 147.575 146.66 
146.299 145.421 145.089 150.658 149.594 149.309 148.248 147.929 146.897 
146.621 145.691 145.588 152.601 151.51 151.283 150.146 149.875 148.72 
148.456 147.39 147.261 146.388 146.439 154.641 153.535 153.395 152.233 
152.058 150.835 150.644 149.419 149.282 148.189 148.174 147.296 147.372 
156.801 155.683 155.628 154.445 154.349 153.122 153.013 151.756 151.664 
150.414 150.366 149.219 149.236 148.269 148.332 158.932 157.893 157.901 
156.754 156.699 155.477 155.385 154.148 154.071 152.843 152.791 151.563 
151.529 150.35 150.356 149.306 149.357 160.856 159.955 160.009 158.993 
158.994 157.847 157.786 156.547 156.46 155.221 155.164 153.961 153.924 
152.719 152.676 151.492 151.476 150.39 150.423 151.366 152.506 152.363 
153.277 153.784 153.63 154.642 154.432 155.435 155.073 154.976 156.111 
155.931 157.072 156.786 157.942 156.357 156.304 157.569 157.474 158.794 
158.573 159.912 159.567 160.901 157.719 157.673 159.073 159.022 160.527 
160.395 161.95 161.688 163.222 162.78 164.155 159.059 159.079 160.566 
160.606 162.268 162.24 163.993 163.836 165.566 165.214 166.746 166.128 
167.365 160.2 160.326 161.802 162.022 163.777 163.983 165.901 165.94 
167.811 167.594 169.219 168.722 170.032 169.291 170.364 161.14 161.33 
162.754 163.1 164.893 165.35 167.407 167.753 169.746 169.766 171.42 
171.09 172.386 171.824 172.896 172.176 173.105 161.937 162.167 163.558 
163.955 165.749 166.342 168.464 169.073 171.153 171.481 173.164 173.083 
174.333 173.965 174.972 174.465 175.339 174.699 175.411 143.854 143.413 
143.419 143.076 143.018 142.962 142.583 142.691 142.52 142.877 142.632 
142.201 142.208 142.057 142.26 142.238 143.239 142.753 142.299 141.992 
141.761 141.818 141.801 142.018 141.958 143.654 143.239 142.739 142.285 
141.896 141.678 141.553 141.619 141.591 141.712 141.62 143.589 143.4 
142.787 142.542 141.996 141.805 141.527 141.494 141.45 141.481 141.494 
141.512 141.549 143.495 143.218 142.621 142.38 141.837 141.699 141.392 
141.412 141.357 141.428 141.473 141.509 141.585 141.608 141.71 143.901 
143.407 143.003 142.495 142.123 141.706 141.5 141.324 141.332 141.345 
141.422 141.479 141.538 141.609 141.664 141.743 141.794 144.564 144.063 
143.786 143.22 142.951 142.362 142.179 141.733 141.737 141.512 141.616 
141.512 141.583 141.552 141.602 141.644 141.697 141.768 141.826 144.03 
143.263 143.782 144.16 142.705 143.064 143.387 143.965 144.485 142.418 
142.625 142.851 143.255 143.766 144.419 145.095 142.119 142.359 142.541 
142.825 143.249 143.786 144.487 145.143 145.767 141.725 141.979 142.195 
142.517 142.915 143.363 143.976 144.564 145.151 145.698 146.033 141.608 
141.676 141.912 142.177 142.637 143.052 143.636 144.113 144.629 145.08 
145.404 145.81 146.031 141.784 141.741 141.961 142.064 142.536 142.844 
143.458 143.836 144.366 144.684 145.059 145.33 145.655 145.951 146.338 
141.903 141.925 142.145 142.223 142.665 142.875 143.475 143.752 144.305 
144.542 144.979 145.178 145.589 145.796 146.251 146.498 146.995 141.943 
141.993 142.246 142.374 142.835 143.047 143.651 143.87 144.427 144.587 
145.034 145.19 145.619 145.819 146.272 146.497 146.957 147.208 147.669 
144.608 144.792 144.993 145.693 145.142 145.253 145.949 146.188 147.047 
145.703 145.683 146.301 146.455 147.282 147.635 148.611 146.282 146.266 
146.772 146.827 147.561 147.861 148.849 149.245 150.179 146.492 146.672 
147.14 147.256 147.882 148.132 149.028 149.444 150.387 150.725 151.471 
146.472 146.71 147.241 147.49 148.114 148.389 149.152 149.541 150.364 
150.793 151.521 151.861 152.498 146.751 146.805 147.401 147.599 148.312 
148.578 149.337 149.636 150.374 150.713 151.408 151.788 152.474 152.844 
153.533 147.375 147.29 147.872 147.928 148.66 148.846 149.653 149.878 
150.65 150.847 151.566 151.789 152.534 152.84 153.615 153.939 154.671 
148.046 147.966 148.502 148.493 149.151 149.262 150.024 150.228 151.017 
151.214 151.966 152.122 152.879 153.068 153.871 154.113 154.894 155.13 
155.833 152.473 151.733 151.722 150.996 150.899 150.939 150.23 150.298 
149.739 150.129 150.112 149.404 149.483 148.922 149.111 148.696 149.669 
149.513 148.841 148.749 148.156 148.25 147.804 148.06 147.631 149.355 
149.212 148.629 148.414 147.826 147.66 147.153 147.202 146.764 146.936 
146.384 148.876 148.856 148.314 148.23 147.671 147.483 146.936 146.772 
146.282 146.224 145.68 145.668 145.01 148.364 148.328 147.783 147.789 
147.246 147.213 146.671 146.583 146.06 145.923 145.335 145.15 144.461 
144.333 143.685 148.064 147.915 147.394 147.298 146.784 146.726 146.218 
146.196 145.711 145.662 145.103 144.912 144.215 143.949 143.275 143.139 
142.663 147.918 147.722 147.222 147.044 146.554 146.39 145.908 145.794 
145.349 145.287 144.813 144.676 144.072 143.8 143.168 142.909 142.448 
142.338 142.086 
POINT_DATA 1002
SCALARS Distance double
LOOKUP_TABLE default
145.854 145.015 145.508 146.58 146.335 146.869 147.592 147.416 147.814 
148.188 148.766 148.557 148.992 149.316 149.851 150.019 149.775 150.307 
150.654 151.137 151.728 151.399 151.092 151.71 152.094 152.582 153.105 
153.67 152.764 152.343 153.127 153.508 154.032 154.585 155.114 155.725 
153.949 153.448 154.433 154.862 155.409 156.064 156.66 157.249 157.885 
155.036 154.49 155.649 156.206 156.776 157.485 158.201 158.813 159.384 
159.911 156.124 155.518 156.836 157.533 158.149 158.826 159.599 160.287 
160.83 161.295 161.702 144.373 144.969 143.819 144.691 143.78 145.967 
144.745 144.007 145.799 147.145 144.607 143.75 145.653 146.975 148.346 
144.178 143.212 145.323 146.773 148.23 149.609 144.082 143.134 145.199 
146.59 148.1 149.49 150.895 144.34 143.451 145.415 146.616 147.945 
149.32 150.716 152.122 144.581 143.828 145.588 146.719 147.873 149.119 
150.526 151.963 153.276 144.872 144.269 145.745 146.847 147.974 149.088 
150.375 151.81 153.157 154.355 145.206 145.95 146.456 147.464 147.999 
147.009 149.147 149.617 148.653 148.216 150.562 151.021 150.155 149.771 
149.344 151.777 152.139 151.367 151.143 150.865 150.525 153.066 153.168 
152.772 152.58 152.426 152.145 151.91 154.371 154.257 154.365 154.308 
154.164 153.838 153.506 153.311 155.569 155.376 155.793 155.963 155.926 
155.577 155.123 154.81 154.59 156.704 156.495 157.041 157.381 157.483 
157.221 156.77 156.389 156.108 155.822 157.023 157.418 158.77 157.763 
159.222 160.578 158.06 159.586 161.086 162.456 158.423 159.865 161.503 
163.095 164.559 158.837 160.22 161.841 163.628 165.291 166.825 158.993 
160.593 162.223 164.058 165.882 167.556 169.263 158.705 160.572 162.433 
164.37 166.354 168.191 170.049 171.954 158.216 160.082 162.123 164.267 
166.529 168.679 170.703 172.736 174.51 157.849 159.534 161.494 163.67 
166.126 168.687 171.044 173.189 175.072 176.442 157.831 159.711 158.69 
161.607 160.634 159.453 163.678 162.649 161.464 160.15 166.053 164.987 
163.693 162.315 160.952 168.657 167.674 166.315 164.759 163.224 161.756 
171.494 170.612 169.269 167.564 165.73 163.988 162.371 174.234 173.523 
172.352 170.708 168.679 166.556 164.596 162.856 176.343 175.856 175.037 
173.809 172.001 169.731 167.37 165.19 163.303 177.904 177.689 179.298 
179.047 181.125 177.195 180.746 182.921 178.611 176.502 181.995 183.363 
179.991 177.91 175.264 181.895 182.293 180.549 178.787 176.447 173.197 
180.848 180.771 180.115 178.796 176.938 174.105 170.567 179.508 179.339 
179.108 178.172 176.719 174.396 171.141 167.796 177.961 177.827 177.679 
177.039 175.95 174.043 171.175 167.958 165.247 176.172 176.061 175.928 
175.445 174.652 173.152 170.714 167.778 165.128 163.154 177.197 178.72 
177.552 179.17 177.494 180.528 179.083 177.094 181.234 182.746 178.464 
176.225 180.893 183.17 184.048 177.274 174.589 179.758 182.084 183.469 
183.33 175.292 172.323 178.116 180.416 181.837 182.072 181.531 172.683 
169.959 175.709 178.381 180.114 180.637 180.332 179.884 169.978 167.789 
172.681 175.5 177.821 179.074 179.17 178.793 178.42 167.535 165.831 
169.677 172.135 174.581 176.534 177.459 177.45 177.15 176.757 157.216 
158.781 158.17 159.955 159.235 160.631 161.116 160.198 161.891 162.719 
162.115 161.094 163.111 164.12 165.212 163.297 162.222 164.443 165.734 
167.08 168.189 164.841 163.552 166.175 167.731 169.314 170.56 171.165 
166.262 164.673 167.911 169.792 171.627 172.95 173.634 173.692 167.201 
165.386 169.148 171.323 173.428 174.886 175.627 175.897 175.717 155.631 
156.338 154.67 155.327 153.66 157.208 154.247 152.72 156.063 158.148 
153.176 151.796 154.861 156.913 159.063 152.096 150.797 153.68 155.67 
157.829 159.987 151.084 149.848 152.578 154.47 156.565 158.704 161.064 
150.262 149.096 151.65 153.373 155.336 157.373 159.649 162.209 149.595 
148.541 150.87 152.397 154.177 156.143 158.282 160.665 163.122 149.019 