# vtk DataFile Version 4.0
vtk output
ASCII
DATASET POLYDATA
POINTS 1002 float
-102.213 -77.0046 68.119 -101.981 -76.4355 66.8798 -102.542 -76.1608 67.8819 
-102.725 -76.7231 69.2969 -103.045 -75.9198 68.9765 -102.511 -77.6829 69.6301 
-103.179 -76.522 70.5134 -103.656 -75.8203 70.0607 -102.928 -77.4164 70.9371 
-102.754 -78.4488 71.3942 -103.905 -76.5629 71.6505 -104.479 -75.8172 71.2029 
-103.467 -77.3571 72.1511 -103.22 -78.3491 72.7109 -103.134 -79.451 73.2179 
-104.85 -76.6798 72.8006 -105.287 -75.8326 72.3911 -104.368 -77.5479 73.2235 
-103.979 -78.4958 73.8332 -103.802 -79.5946 74.4403 -103.712 -80.6645 74.9786 
-105.662 -76.76 73.9791 -106.048 -75.9356 73.487 -105.28 -77.6989 74.3686 
-104.897 -78.6994 74.9022 -104.666 -79.8337 75.5475 -104.538 -80.9235 76.0943 
-104.346 -81.8734 76.6837 -106.468 -76.9706 75.0757 -106.931 -76.1853 74.5217 
-106.042 -77.8558 75.5856 -105.671 -78.8124 76.1177 -105.462 -79.9751 76.7144 
-105.39 -81.1944 77.2328 -105.27 -82.2079 77.7021 -105.111 -83.1464 78.2683 
-107.362 -77.3319 76.1013 -107.776 -76.53 75.5998 -106.901 -78.1841 76.6808 
-106.488 -79.0633 77.307 -106.249 -80.1464 77.889 -106.186 -81.4324 78.385 
-106.131 -82.623 78.8126 -106.038 -83.6637 79.2543 -106.005 -84.6983 79.7185 
-108.096 -77.685 77.135 -108.413 -76.8826 76.6735 -107.716 -78.5348 77.6842 
-107.364 -79.4297 78.3417 -107.135 -80.5118 78.9335 -107.025 -81.7884 79.4156 
-106.925 -83.0603 79.8919 -106.817 -84.2515 80.3572 -106.8 -85.4139 80.7664 
-106.87 -86.506 81.1197 -108.653 -77.9836 78.1362 -108.959 -77.2114 77.6188 
-108.314 -78.8196 78.6916 -108.03 -79.7465 79.3386 -107.869 -80.9132 79.9322 
-107.771 -82.2685 80.3879 -107.647 -83.5736 80.8613 -107.516 -84.8196 81.3923 
-107.489 -86.1113 81.8342 -107.592 -87.3606 82.1554 -107.719 -88.4258 82.4261 
-102.344 -75.8296 66.2451 -102.924 -75.514 67.2281 -102.923 -75.2516 65.4285 
-103.546 -74.9274 66.3701 -103.469 -74.5991 64.4596 -103.539 -75.302 68.2462 
-104.15 -74.3278 65.4777 -103.909 -73.9195 63.5424 -104.239 -74.7011 67.4094 
-104.264 -75.158 69.3467 -104.726 -73.7362 64.7624 -104.63 -73.4332 62.8074 
-104.854 -74.035 66.7471 -104.91 -74.4373 68.668 -105.02 -75.0603 70.6049 
-105.585 -73.2077 64.18 -105.709 -73.1022 62.2901 -105.471 -73.2991 66.252 
-105.453 -73.6228 68.1999 -105.566 -74.3222 70.0154 -105.762 -75.1166 71.8235 
-106.561 -72.7178 63.6893 -106.704 -72.7383 61.9622 -106.305 -72.631 65.6693 
-106.126 -72.7963 67.7133 -106.227 -73.5536 69.5172 -106.439 -74.5113 71.1967 
-106.656 -75.3151 72.928 -107.356 -72.333 63.2968 -107.525 -72.4216 61.6551 
-107.151 -72.2086 65.0945 -106.98 -72.2602 67.0919 -107.061 -72.8637 68.9991 
-107.28 -73.8706 70.6507 -107.423 -74.7697 72.3438 -107.573 -75.576 74.0964 
-108.178 -72.1311 62.915 -108.417 -72.2574 61.2948 -107.996 -72.0216 64.6743 
-107.888 -72.0675 66.6072 -107.94 -72.481 68.5398 -108.091 -73.2853 70.2066 
-108.149 -74.2007 71.8093 -108.166 -75.0365 73.6044 -108.275 -75.9117 75.3185 
-109.186 -72.0395 62.5603 -109.392 -72.1658 61.0174 -109.034 -71.9296 64.3366 
-108.95 -71.9503 66.2944 -108.921 -72.2463 68.2342 -108.914 -72.8462 69.8902 
-108.847 -73.6665 71.3659 -108.75 -74.5513 73.0364 -108.758 -75.4111 74.848 
-108.865 -76.2929 76.415 -110.301 -72.0073 61.8355 -110.219 -71.9109 63.5825 
-111.276 -71.9898 62.9296 -111.282 -71.9482 64.9125 -112.107 -72.2909 64.1913 
-110.183 -71.839 65.6427 -112.029 -72.2988 66.2989 -112.712 -72.7919 65.4473 
-111.274 -71.9258 67.0829 -110.123 -71.9671 67.7527 -112.495 -72.8791 67.5745 
-113.232 -73.2263 66.7527 -111.929 -72.4488 68.3277 -111.122 -72.2066 69.0301 
-109.965 -72.4366 69.5669 -113.073 -73.5057 68.9516 -113.748 -73.7866 68.283 
-112.377 -73.381 69.531 -111.733 -73.0429 70.1221 -110.828 -72.9212 70.7099 
-109.737 -73.2289 71.099 -113.738 -74.3126 70.545 -114.11 -74.8322 69.9368 
-112.992 -74.3341 71.0077 -112.211 -74.2558 71.456 -111.499 -73.9592 72.0106 
-110.575 -73.9441 72.4548 -109.54 -74.2207 72.7489 -114.066 -75.5087 72.1104 
-114.201 -76.2051 71.4676 -113.526 -75.3065 72.5857 -112.692 -75.341 72.9757 
-111.985 -75.1841 73.5058 -111.354 -75.0088 74.0252 -110.445 -75.0455 74.3567 
-109.463 -75.2012 74.6223 -114.065 -76.9254 73.4739 -114.18 -77.523 72.8229 
-113.716 -76.5478 74.001 -113.061 -76.445 74.3801 -112.327 -76.3839 74.8295 
-111.79 -76.2429 75.3833 -111.215 -76.1016 75.8299 -110.364 -76.0368 76.1388 
-109.498 -76.0993 76.3565 -114.129 -78.2509 74.659 -114.288 -78.6624 74.045 
-113.837 -77.9114 75.2313 -113.391 -77.7315 75.674 -112.752 -77.6739 76.0499 
-112.093 -77.6213 76.4708 -111.576 -77.4429 76.9153 -111.024 -77.158 77.3084 
-110.299 -76.9736 77.6043 -109.555 -77.0136 77.7208 -109.371 -78.0886 78.8391 
-110.095 -78.0437 78.9149 -109.882 -79.3138 80.1239 -110.799 -78.2431 78.7207 
-110.677 -79.5528 80.1239 -110.5 -80.9881 81.365 -111.335 -78.665 78.3566 
-111.272 -79.9879 79.8658 -111.278 -81.4438 81.3288 -111.086 -82.9521 82.5069 
-111.893 -78.9983 78.0056 -111.756 -80.4113 79.5406 -111.799 -81.9112 81.0819 
-111.765 -83.5331 82.5719 -111.514 -85.2329 83.7974 -112.673 -79.0589 77.7194 
-112.511 -80.5462 79.3571 -112.306 -82.1814 80.822 -112.226 -84.0892 82.3663 
-112.09 -86.0949 84.0233 -111.884 -88.072 85.3473 -113.414 -79.0367 77.3693 
-113.408 -80.4983 79.1598 -113.044 -82.2478 80.6949 -112.656 -84.4436 82.112 
-112.532 -86.8377 83.8504 -112.458 -89.0295 85.5801 -112.346 -90.982 86.722 
-113.88 -79.0978 76.8509 -113.984 -80.4726 78.6357 -113.72 -82.2613 80.3785 
-113.198 -84.5967 81.9473 -112.947 -87.1645 83.6436 -112.979 -89.5167 85.4451 
-112.994 -91.4975 86.8041 -112.917 -93.2556 87.5295 -114.214 -79.2763 76.2136 
-114.304 -80.4974 77.8521 -114.091 -82.1876 79.6254 -113.652 -84.5423 81.4936 
-113.425 -87.1544 83.422 -113.465 -89.528 85.2768 -113.555 -91.6014 86.6816 
-113.591 -93.455 87.4622 -113.547 -95.2288 87.833 -114.488 -79.5687 75.5588 
-114.62 -80.6464 77.0642 -114.378 -82.1025 78.6932 -113.908 -84.27 80.6303 
-113.752 -86.9268 82.8147 -113.896 -89.4304 84.8908 -113.99 -91.6377 86.4406 
-114.055 -93.7116 87.2992 -114.142 -95.6818 87.6718 -114.16 -97.6171 87.8503 
-108.993 -78.9649 79.5191 -109.486 -80.3656 80.9576 -108.64 -79.9491 80.2332 
-110.138 -82.2663 82.1902 -109.16 -81.648 81.7074 -108.443 -81.2067 80.9082 
-110.795 -84.5004 83.2973 -109.909 -83.8713 82.8483 -109.029 -83.2867 82.32 
-108.363 -82.7638 81.4217 -111.362 -87.2391 84.7148 -110.775 -86.485 83.9653 
-109.918 -85.7729 83.4587 -108.982 -85.0332 82.8397 -108.268 -84.279 81.8824 
-111.865 -90.4926 86.3059 -111.526 -89.754 85.4462 -110.983 -88.8006 84.6398 
-110.008 -87.7334 84.0487 -108.993 -86.6695 83.3435 -108.197 -85.672 82.4153 
-112.368 -93.3962 87.4463 -112.021 -93.25 86.9132 -111.757 -92.5108 86.0541 
-111.158 -91.2302 85.2152 -110.213 -89.7957 84.4969 -109.197 -88.4112 83.7632 
-108.265 -87.1631 82.8785 -112.976 -95.641 87.943 -112.479 -96.0787 87.8002 
-112.177 -96.0323 87.2824 -111.86 -95.1194 86.4846 -111.339 -93.6114 85.5972 
-110.557 -91.904 84.7834 -109.516 -90.1908 84.0382 -108.451 -88.6546 83.1826 
-113.689 -98.0052 88.0205 -113.153 -98.5417 88.0667 -112.704 -98.8895 87.8667 
-112.314 -98.5202 87.421 -111.933 -97.343 86.7332 -111.507 -95.6444 85.8511 
-110.787 -93.6599 85.0011 -109.72 -91.6646 84.2567 -108.623 -89.9052 83.4269 
-114.524 -100.962 87.8218 -114.116 -101.509 87.9663 -114.943 -105.05 87.6521 
-114.71 -105.677 87.7008 -115.517 -108.83 87.3697 -113.651 -101.912 87.9092 
-115.356 -109.208 87.2983 -116.269 -111.184 86.9274 -114.274 -105.565 87.4773 
-113.112 -101.773 87.6851 -115.73 -111.135 86.727 -116.75 -112.466 86.0612 
-114.7 -108.409 86.9545 -113.514 -104.61 87.2742 -112.494 -100.848 87.3939 
-115.604 -112.055 85.797 -116.479 -113.553 84.8879 -114.777 -109.869 86.3739 
-113.765 -106.767 86.7901 -112.648 -103.007 87.1501 -111.971 -99.2382 86.8188 
-115.143 -112.384 84.852 -115.705 -113.641 84.1606 -114.653 -110.254 85.6655 
-113.939 -107.714 86.2509 -112.808 -104.541 86.6752 -111.914 -100.81 86.6441 
-111.447 -97.0798 85.9269 -114.534 -111.334 84.4708 -114.872 -111.717 84.1332 
-114.246 -109.696 85.1047 -113.81 -107.476 85.7045 -112.873 -104.942 86.0847 
-111.828 -101.756 86.2004 -111.18 -98.1062 85.8414 -110.599 -94.6469 85.0822 
-113.74 -108.859 84.4842 -113.997 -108.577 84.2684 -113.391 -108.154 84.8431 
-112.992 -106.553 85.2802 -112.402 -104.452 85.5823 -111.631 -101.879 85.7032 
-110.915 -98.6859 85.5987 -110.256 -95.3155 85.1111 -109.48 -92.3517 84.3128 
-112.82 -105.972 84.419 -113.039 -105.54 84.1858 -112.358 -105.986 84.6382 
-111.814 -105.248 84.9281 -111.405 -103.656 85.1916 -111.113 -101.434 85.2979 
-110.679 -98.7142 85.2521 -109.98 -95.6666 84.9557 -109.162 -92.7824 84.2818 
-108.387 -90.3873 83.3642 -114.688 -99.2891 87.6526 -115.06 -103.047 87.502 
-115.105 -100.997 87.3907 -115.494 -104.381 87.1261 -115.568 -102.028 87.0769 
-115.405 -106.869 87.2068 -116.004 -104.495 86.7853 -116.05 -102.193 86.6248 
-115.791 -107.143 86.6674 -116.038 -109.71 86.7879 -116.372 -104.029 86.3833 
-116.033 -101.654 85.9314 -116.221 -106.431 86.2604 -116.49 -109.178 86.029 
-117.075 -111.464 86.0981 -115.991 -103.142 85.7838 -115.279 -100.137 85.138 
-116.328 -105.696 85.9419 -116.721 -108.424 85.5541 -117.552 -111.176 85.2082 
-117.635 -113.101 85.0368 -114.997 -101.121 85.0772 -114.395 -97.5849 84.3518 
-115.704 -104.264 85.4516 -116.389 -107.32 85.3114 -117.253 -110.403 84.8916 
-117.767 -112.944 84.4749 -117.045 -114.162 84.1662 -114.176 -98.1965 84.2533 
-113.836 -94.7901 83.365 -114.76 -101.551 84.746 -115.499 -104.832 84.8695 
-116.243 -108.115 84.784 -116.865 -110.965 84.5633 -116.799 -112.758 84.2012 
-115.912 -112.994 83.9865 -113.686 -95.3576 83.1772 -113.393 -92.4988 82.0825 
-114.046 -98.4079 83.8989 -114.503 -101.466 84.2556 -114.984 -104.561 84.4258 
-115.475 -107.35 84.5134 -115.784 -109.347 84.3854 -115.532 -110.25 84.136 
-114.815 -109.893 84.0908 -113.201 -93.067 81.891 -112.876 -90.8335 80.6802 
-113.503 -95.6 82.8963 -113.697 -98.2318 83.6028 -113.852 -100.959 84.0059 
[...]
CELL_DATA 2000
SCALARS Distance double
LOOKUP_TABLE default
143.516 144.262 144.121 144.658 145.076 144.892 145.439 145.345 145.991 
146.112 145.817 146.376 146.181 146.866 146.769 147.545 147.304 146.983 
147.584 147.272 147.981 147.77 148.615 148.487 149.382 148.462 148.195 
148.836 148.545 149.25 148.998 149.848 149.676 150.605 150.439 151.339 
149.664 149.373 150.045 149.774 150.482 150.249 151.074 150.926 151.863 
151.714 152.631 152.421 153.31 150.96 150.64 151.33 151.024 151.758 
151.486 152.314 152.136 153.089 152.966 153.935 153.749 154.673 154.443 
155.393 152.187 151.92 152.591 152.321 153.053 152.795 153.627 153.417 
154.368 154.218 155.22 155.061 156.035 155.833 156.811 156.6 157.612 
153.264 153.06 153.7 153.499 154.204 154.028 154.85 154.706 155.636 
155.507 156.484 156.346 157.327 157.173 158.172 158.011 159.047 158.859 
159.889 143.049 142.717 143.164 143.772 142.413 142.865 143.456 143.916 
144.589 142.041 142.555 143.209 143.658 144.333 144.805 145.586 141.805 
142.242 142.976 143.428 144.122 144.578 145.33 145.866 146.712 141.954 
142.187 142.886 143.238 143.922 144.353 145.085 145.604 146.426 146.997 
147.856 142.308 142.437 143.005 143.221 143.821 144.17 144.904 145.386 
146.247 146.766 147.662 148.18 149.077 142.627 142.733 143.215 143.359 
143.898 144.144 144.882 145.292 146.212 146.684 147.626 148.084 149.002 
149.477 150.384 142.994 143.03 143.521 143.6 144.182 144.336 145.102 
145.401 146.327 146.728 147.658 148.083 148.964 149.426 150.304 150.788 
151.631 143.515 143.476 144.015 144.024 144.687 144.765 145.57 145.752 
146.64 146.915 147.776 148.117 148.936 149.359 150.197 150.682 151.519 
151.984 152.744 144.024 145.128 144.557 144.587 146.435 145.809 145.905 
145.254 145.345 147.74 147.165 147.324 146.689 146.828 146.134 146.281 
148.951 148.432 148.61 148.077 148.249 147.634 147.773 147.113 147.289 
150.245 149.679 149.91 149.359 149.585 149.008 149.18 148.559 148.707 
148.097 148.308 151.741 151.119 151.436 150.792 151.087 150.43 150.693 
150.02 150.25 149.556 149.778 149.139 149.426 153.249 152.684 153.027 
152.4 152.689 152.019 152.303 151.635 151.956 151.243 151.54 150.767 
151.054 150.352 150.701 154.596 154.127 154.46 153.924 154.189 153.58 
153.821 153.214 153.529 152.939 153.279 152.592 152.867 152.102 152.377 
151.678 152.012 155.847 155.415 155.776 155.29 155.609 155.045 155.325 
154.711 155.009 154.434 154.767 154.202 154.485 153.837 154.055 153.36 
153.592 152.942 153.21 154.033 154.483 154.657 155.522 154.952 155.147 
156.088 156.289 157.292 155.354 155.602 156.558 156.849 157.937 158.18 
159.255 155.677 155.981 156.954 157.283 158.394 158.758 159.931 160.186 
161.311 156.004 156.339 157.401 157.712 158.814 159.167 160.377 160.778 
162.063 162.342 163.633 156.32 156.7 157.835 158.2 159.316 159.618 
160.776 161.182 162.548 163.029 164.492 164.818 166.203 156.526 156.956 
158.034 158.532 159.64 160.058 161.169 161.584 162.906 163.464 164.991 
165.538 166.974 167.312 168.509 156.636 157.067 158.031 158.568 159.589 
160.162 161.247 161.836 163.119 163.774 165.261 165.919 167.36 167.867 
169.056 169.359 170.336 156.692 157.121 158.022 158.502 159.416 159.966 
160.968 161.676 162.942 163.797 165.278 166.086 167.52 168.135 169.363 
169.777 170.818 171.075 172.033 154.053 155.521 154.675 154.527 157.295 
156.29 156.128 155.21 155.089 159.279 158.206 158.069 156.995 156.89 
155.902 155.838 161.38 160.279 160.227 159.09 159.035 157.909 157.871 
156.788 156.73 163.787 162.565 162.645 161.408 161.46 160.224 160.215 
158.989 158.915 157.738 157.622 166.456 165.225 165.461 164.104 164.283 
162.876 162.939 161.514 161.446 160.073 159.936 158.662 158.505 168.824 
167.881 168.253 167.064 167.363 165.939 166.085 164.492 164.475 162.854 
162.746 161.201 161.047 159.625 159.446 170.683 170.022 170.492 169.666 
170.083 168.968 169.205 167.745 167.778 166.101 166.018 164.284 164.123 
162.431 162.21 160.647 160.41 172.425 171.814 172.385 171.724 172.261 
171.445 171.804 170.678 170.779 169.339 169.253 167.61 167.397 165.645 
165.327 163.586 163.232 161.62 161.287 173.711 176.019 174.458 173.742 
178.594 176.953 176.108 174.459 173.638 180.759 179.45 178.553 176.852 
175.745 174.183 173.164 181.927 181.167 180.279 178.974 177.664 176.137 
174.823 173.414 172.154 182.151 181.785 180.888 180.142 178.856 177.682 
176.208 174.875 173.427 172.116 170.654 181.7 181.606 180.665 180.313 
179.152 178.442 177.007 175.946 174.357 173.17 171.568 170.364 168.75 
180.461 180.767 179.795 179.787 178.641 178.358 176.981 176.34 174.703 
173.78 172.043 171.017 169.299 168.235 166.566 178.405 179.113 178.184 
178.559 177.39 177.48 176.112 175.895 174.321 173.769 172.049 171.245 
169.49 168.57 166.861 165.92 164.329 175.982 176.848 176.035 176.664 
175.598 175.95 174.683 174.756 173.344 173.126 171.581 171.055 169.381 
168.618 166.902 166.064 164.443 163.649 162.22 174.109 175.341 175.279 
176.443 176.251 176.408 177.584 177.682 178.898 176.639 177.024 178.004 
178.41 179.528 179.919 180.924 176.407 177.089 177.892 178.424 179.334 
180.033 181.084 181.584 182.18 175.251 176.441 177.292 178.062 178.871 
179.612 180.681 181.455 182.34 182.565 182.678 173.136 174.783 175.724 
177.043 177.874 178.933 179.905 180.913 181.885 182.538 182.882 182.797 
182.364 170.647 172.38 173.282 174.98 175.778 177.353 178.126 179.619 
180.338 181.595 181.872 182.505 182.046 181.991 181.02 168.288 169.88 
170.694 172.363 173.062 174.779 175.364 177.135 177.573 179.281 179.369 
180.7 180.204 180.915 179.889 180.049 178.782 166.163 167.586 168.32 
169.835 170.449 172.007 172.471 174.111 174.427 176.118 176.171 177.713 
177.332 178.491 177.645 178.332 177.181 177.472 176.23 156.962 157.811 
157.727 158.36 158.634 158.627 159.33 159.146 159.723 159.439 159.467 
160.257 160.127 160.766 160.545 161.24 160.364 160.337 161.247 161.139 
161.998 161.755 162.678 162.383 163.378 161.452 161.387 162.468 162.354 
163.559 163.311 164.59 164.199 165.455 164.927 165.972 162.546 162.57 
163.863 163.826 165.364 165.211 166.83 166.455 167.889 167.278 168.36 
167.581 168.321 163.512 163.695 165.19 165.335 167.096 167.162 169.009 
168.829 170.395 169.828 170.898 170.04 170.693 169.752 170.179 164.382 
164.682 166.307 166.634 168.49 168.808 170.752 170.887 172.564 172.252 
173.379 172.592 173.227 172.187 172.542 171.476 171.7 165.211 165.572 
167.224 167.661 169.491 169.994 171.906 172.346 174.044 174.127 175.3 
174.864 175.522 174.673 175.019 173.927 174.094 172.933 173.009 156.233 
155.249 156.134 156.946 154.154 155.044 155.768 156.785 157.657 153.053 
153.92 154.587 155.546 156.392 157.486 158.435 152.033 152.851 153.544 
154.414 155.234 156.253 157.273 158.361 159.391 151.19 151.909 152.588 
153.406 154.184 155.142 156.144 157.256 158.384 159.432 160.468 150.439 
151.115 151.72 152.475 153.158 154.05 154.943 156.078 157.198 158.392 
159.467 160.496 161.456 149.623 150.314 150.918 151.647 152.296 153.054 
153.815 154.812 155.845 157.095 158.2 159.378 160.315 161.363 162.271 
148.869 149.491 150.137 150.871 151.584 152.278 152.965 153.745 154.611 
155.714 156.79 158.026 159.011 160.122 160.98 162.081 163.024 148.324 
148.823 149.438 150.13 150.862 151.581 152.233 152.922 153.591 154.5 
155.413 156.6 157.605 158.781 159.666 160.756 161.641 162.808 163.807 
148.213 148.346 148.602 149.328 148.494 148.772 149.584 149.884 150.727 
148.857 149.014 149.834 150.126 150.985 151.286 152.073 149.521 149.554 
150.364 150.487 151.329 151.536 152.359 152.595 153.424 150.194 150.279 
151.115 151.168 152.014 152.054 152.913 153.011 153.977 154.153 155.233 
150.738 150.889 151.739 151.88 152.766 152.848 153.772 153.796 154.833 
154.916 156.104 156.245 157.43 151.362 151.465 152.342 152.466 153.416 
153.576 154.633 154.746 155.875 155.938 157.143 157.226 158.425 158.488 
159.549 152.111 152.187 153.141 153.193 154.231 154.331 155.526 155.668 
156.943 157.037 158.298 158.342 159.563 159.564 160.688 160.611 161.613 
152.858 152.975 153.996 154.087 155.195 155.287 156.533 156.67 158.006 
158.135 159.446 159.515 160.778 160.782 161.996 161.901 163.025 162.814 
163.841 153.59 155.267 154.546 154.836 157.261 156.412 156.767 155.912 
156.181 159.484 158.567 158.969 158.018 158.363 157.382 157.641 161.904 
160.936 161.424 160.374 160.765 159.706 160.03 158.948 159.174 164.633 
163.583 164.271 163.08 163.584 162.318 162.688 161.459 161.724 160.522 
160.664 167.554 166.527 167.416 166.209 166.906 165.472 165.91 164.392 
164.671 163.232 163.401 162.035 162.08 170.299 169.459 170.426 169.409 
170.22 168.923 169.419 167.84 168.07 166.419 166.545 164.966 164.997 
163.478 163.388 172.695 172.074 173.103 172.295 173.153 172.094 172.629 
171.25 171.432 169.831 169.833 168.198 168.135 166.514 166.341 164.736 
164.466 174.778 174.362 175.523 174.884 175.856 174.932 175.563 174.318 
174.546 173.038 172.973 171.369 171.183 169.584 169.314 167.692 167.311 
165.691 165.276 153.134 152.943 153.579 154.756 152.732 153.406 154.629 
155.343 156.703 152.389 153.16 154.419 155.213 156.633 157.409 158.884 
151.921 152.772 154.095 154.971 156.429 157.296 158.836 159.648 161.216 
151.463 152.32 153.723 154.646 156.157 157.063 158.65 159.555 161.238 
162.087 163.825 151.089 151.906 153.324 154.283 155.835 156.784 158.401 
159.361 161.14 162.113 163.994 164.857 166.691 150.821 151.561 152.924 
153.869 155.419 156.425 158.052 159.08 160.885 161.986 163.952 164.987 
166.878 167.719 169.422 150.655 151.316 152.603 153.469 154.978 155.981 
157.609 158.674 160.454 161.637 163.593 164.807 166.71 167.746 169.418 
170.254 171.752 150.541 151.156 152.371 153.156 154.583 155.538 157.117 
158.185 159.903 161.106 162.991 164.295 166.175 167.377 169.032 170.038 
171.488 172.367 173.726 152.135 150.644 151.552 151.916 149.302 150.095 
150.423 151.336 151.69 148.187 148.818 149.036 149.849 150.117 151.045 
151.316 147.142 147.694 147.722 148.434 148.578 149.45 149.633 150.571 
150.793 145.974 146.532 146.402 147.041 147.057 147.884 148.04 148.918 
149.088 150.025 150.295 144.722 145.28 145.111 145.676 145.595 146.338 
146.456 147.331 147.508 148.387 148.603 149.573 149.925 143.493 144.028 
143.899 144.425 144.308 144.912 144.909 145.709 145.834 146.759 146.965 
147.93 148.245 149.269 149.693 142.412 142.855 142.764 143.273 143.193 
143.701 143.612 144.214 144.238 145.058 145.274 146.256 146.613 147.636 
148.068 149.1 149.567 141.675 141.927 141.855 142.25 142.228 142.662 
142.593 143.034 143.021 143.622 143.854 144.686 145.125 146.07 146.556 
147.53 148.006 149.011 149.484 141.406 141.18 141.322 141.519 140.996 
141.124 141.237 141.491 141.805 140.7 140.87 140.907 141.146 141.331 
141.737 142.09 140.56 140.592 140.586 140.731 140.851 141.211 141.575 
142.049 142.538 140.886 140.694 140.709 140.569 140.712 140.847 141.358 
141.725 142.44 142.779 143.495 141.332 141.165 141.245 140.98 141.171 
141.042 141.637 141.816 142.722 142.979 143.848 144.025 144.823 141.55 
141.503 141.632 141.54 141.804 141.7 142.258 142.323 143.174 143.393 
144.263 144.461 145.229 145.415 146.202 141.87 141.722 141.907 141.864 
142.23 142.263 142.84 142.94 143.685 143.854 144.638 144.827 145.569 
145.773 146.542 146.785 147.614 142.601 142.277 142.544 142.323 142.759 
142.71 143.341 143.44 144.203 144.349 145.138 145.257 146.031 146.154 
146.965 147.149 148.017 148.239 149.104 143.238 144.419 143.605 143.236 
145.812 144.928 144.576 143.699 143.444 147.4 146.445 146.167 145.183 
144.918 144.057 144.004 149.235 148.194 147.995 146.923 146.714 145.694 
145.62 144.792 144.893 151.191 150.144 150.016 148.908 148.76 147.637 
147.562 146.565 146.623 145.778 145.877 153.193 152.157 152.126 151.033 
150.963 149.798 149.716 148.603 148.615 147.632 147.687 146.777 146.811 
155.325 154.259 154.327 153.231 153.277 152.103 152.078 150.857 150.835 
149.707 149.745 148.709 148.733 147.746 147.776 157.583 156.503 156.619 
155.508 155.605 154.47 154.533 153.315 153.323 152.063 152.075 150.885 
150.916 149.801 149.821 148.784 148.84 159.892 158.833 158.983 157.848 
157.926 156.793 156.864 155.739 155.791 154.593 154.59 153.33 153.309 
152.085 152.073 150.924 150.925 149.878 149.92 150.834 151.937 151.804 
152.726 153.173 153.037 154.078 153.901 154.972 154.493 154.369 155.506 
155.353 156.544 156.341 157.531 155.82 155.745 156.956 156.842 158.146 
158.001 159.37 159.102 160.407 157.026 157.058 158.377 158.35 159.821 
159.731 161.337 161.121 162.685 162.239 163.62 158.143 158.252 159.755 
159.848 161.584 161.585 163.448 163.291 165.076 164.686 166.205 165.585 
166.837 159.302 159.448 161.135 161.333 163.302 163.462 165.493 165.479 
167.324 167.078 168.604 168.119 169.33 168.667 169.661 160.417 160.659 
162.411 162.741 164.75 165.115 167.139 167.36 169.129 169.109 170.565 
170.306 171.497 171.005 171.988 171.307 172.128 161.316 161.691 163.389 
163.868 165.758 166.311 168.215 168.68 170.371 170.6 172.029 172.014 
173.257 172.998 174.074 173.555 174.452 173.706 174.425 143.124 142.589 
142.68 142.404 142.18 142.178 141.851 141.986 141.814 141.791 141.769 
141.421 141.505 141.359 141.532 141.526 141.338 141.304 140.978 141.117 
141.086 141.243 141.311 141.421 141.479 141.127 140.894 140.538 140.657 
140.728 141.018 141.209 141.345 141.402 141.426 141.432 141.426 140.949 
140.551 140.374 140.363 140.598 140.804 141.125 141.212 141.353 141.322 
141.377 141.394 141.911 141.438 141.085 140.676 140.532 140.396 140.438 
140.611 140.691 140.971 140.999 141.209 141.232 141.362 141.421 142.239 
141.885 141.582 141.255 141.099 140.785 140.691 140.48 140.454 140.493 
140.583 140.81 140.933 141.145 141.214 141.361 141.408 142.521 142.158 
141.832 141.61 141.476 141.292 141.195 140.907 140.764 140.522 140.51 
140.533 140.691 140.865 141 141.137 141.189 141.314 141.389 143.375 
142.669 143.195 143.587 142.098 142.535 142.924 143.45 143.918 141.784 
142.075 142.454 142.868 143.353 143.877 144.46 141.659 141.859 142.219 
142.524 143.019 143.434 144.079 144.58 145.236 141.548 141.722 142.042 
142.339 142.825 143.2 143.866 144.331 145.084 145.488 146.085 141.496 
141.595 141.84 142.114 142.551 142.966 143.583 144.108 144.863 145.374 
146.035 146.341 146.769 141.548 141.591 141.788 141.939 142.314 142.653 
143.207 143.722 144.391 145.006 145.652 146.169 146.607 146.9 147.155 
141.583 141.662 141.896 141.979 142.36 142.544 143.104 143.428 144.053 
144.501 145.077 145.613 146.069 146.546 146.83 147.145 147.338 141.611 
141.711 142.03 142.135 142.577 142.717 143.321 143.524 144.183 144.388 
144.925 145.167 145.585 145.953 146.305 146.705 146.985 147.302 147.57 
143.938 144.164 144.335 144.993 144.508 144.618 145.287 145.49 146.251 
145.036 145.045 145.723 145.855 146.625 146.817 147.576 145.695 145.616 
146.242 146.34 147.118 147.27 148.034 148.147 148.83 146.371 146.233 
146.717 146.804 147.524 147.739 148.511 148.652 149.326 149.391 150.077 
146.979 146.837 147.208 147.225 147.827 148.038 148.766 149.023 149.719 
149.879 150.56 150.692 151.482 147.392 147.347 147.713 147.714 148.249 
148.345 148.976 149.186 149.881 150.157 150.899 151.141 151.934 152.142 
152.966 147.622 147.666 148.072 148.162 148.721 148.806 149.394 149.469 
150.109 150.311 151.093 151.406 152.252 152.537 153.352 153.572 154.325 
147.91 147.927 148.387 148.488 149.102 149.244 149.889 149.955 150.58 
150.659 151.393 151.625 152.468 152.781 153.6 153.885 154.645 154.864 
155.568 151.975 151.234 151.214 150.466 150.508 150.456 149.689 149.719 
149.104 149.897 149.77 148.975 148.946 148.342 148.47 148.037 149.382 
149.237 148.437 148.302 147.645 147.715 147.306 147.5 147.097 148.79 
148.737 148.046 147.892 147.23 147.119 146.616 146.734 146.347 146.517 
146.003 148.17 148.136 147.589 147.553 147.055 146.887 146.366 146.205 
145.729 145.752 145.276 145.356 144.77 147.8 147.634 147.107 147.097 
146.733 146.729 146.351 146.156 145.644 145.377 144.833 144.708 144.163 
144.144 143.561 147.707 147.44 146.9 146.734 146.337 146.347 146.046 
146.054 145.622 145.407 144.79 144.482 143.865 143.67 143.116 143.025 
142.514 147.706 147.457 147.003 146.714 146.295 146.084 145.728 145.678 
145.295 145.23 144.656 144.43 143.755 143.497 142.922 142.736 142.284 
142.153 141.798 
POINT_DATA 1002
SCALARS Distance double
LOOKUP_TABLE default
143.974 142.929 143.649 144.743 144.396 145.259 145.54 145.294 146.036 
146.682 146.621 146.425 146.971 147.593 148.366 147.907 147.582 148.225 
148.749 149.505 150.277 149.099 148.709 149.505 150.022 150.776 151.536 
152.205 150.315 149.97 150.723 151.223 151.982 152.833 153.524 154.202 
151.638 151.276 152.038 152.516 153.205 154.084 154.891 155.605 156.372 
152.849 152.438 153.29 153.834 154.534 155.367 156.21 157.005 157.824 
158.64 153.894 153.462 154.361 154.964 155.754 156.623 157.465 158.308 
159.206 160.113 160.915 142.572 143.276 142.307 143.018 141.92 144.081 
142.734 141.474 143.88 145.044 142.523 141.425 143.675 144.817 146.134 
142.62 141.823 143.521 144.575 145.868 147.279 142.874 142.234 143.529 
144.421 145.721 147.156 148.554 143.097 142.555 143.682 144.491 145.738 
147.18 148.546 149.911 143.443 142.988 144.028 144.843 145.977 147.268 
148.528 149.824 151.181 144.001 143.561 144.608 145.431 146.442 147.504 
148.558 149.728 151.044 152.335 144.517 145.158 145.714 146.56 147.036 
146.004 147.907 148.285 147.51 146.976 149.109 149.465 148.819 148.422 
147.926 150.469 150.808 150.155 149.787 149.334 148.866 152.086 152.337 
151.758 151.352 150.946 150.474 149.997 153.637 153.78 153.363 152.952 
152.611 152.316 151.836 151.335 154.971 155.045 154.779 154.432 154.085 
153.896 153.63 153.139 152.66 156.234 156.265 156.127 155.928 155.62 
155.326 155.085 154.744 154.284 153.835 154.806 155.331 156.431 155.829 
157.107 158.341 156.237 157.613 159.095 160.334 156.625 158.004 159.57 
161.134 162.469 157.069 158.512 159.931 161.635 163.428 165.009 157.416 
159.024 160.417 161.987 164.031 166.024 167.583 157.528 159.162 160.74 
162.358 164.382 166.566 168.335 169.612 157.55 159.019 160.592 162.418 
164.592 166.815 168.704 170.133 171.268 157.581 158.939 160.294 162.027 
164.391 166.859 168.892 170.498 171.829 173.009 155.327 157.114 155.946 
159.167 157.929 156.799 161.34 160.178 159.002 157.814 163.891 162.711 
161.495 160.153 158.781 166.784 165.718 164.429 162.9 161.288 159.744 
169.283 168.7 167.681 166.155 164.378 162.575 160.826 171.177 171.022 
170.535 169.411 167.779 165.905 163.896 161.913 173.005 172.982 172.787 
172.099 170.835 169.153 167.14 164.952 162.835 175.13 175.252 177.691 
177.935 180.168 175.155 180.258 181.857 177.48 174.616 181.39 182.537 
179.194 176.329 173.537 181.433 182.487 179.847 177.534 174.771 171.983 
180.901 181.715 179.665 177.952 175.543 172.766 169.963 179.689 179.983 
178.801 177.463 175.533 173.042 170.332 167.609 177.675 177.565 177.194 
176.182 174.696 172.741 170.372 167.776 165.203 175.31 175.079 175.128 
174.478 173.395 171.948 170.062 167.716 165.218 162.912 174.199 176.522 
175.314 177.397 176.054 178.846 177.628 176.243 178.996 180.751 177.401 
175.583 178.655 180.358 182.149 176.345 173.829 178.137 179.829 181.864 
183.014 174.18 171.407 176.653 178.839 181.054 182.743 182.892 171.561 
168.981 174.113 176.575 178.972 180.994 181.883 181.365 169.106 166.784 
171.423 173.658 175.868 177.889 179.232 179.504 178.806 166.875 164.834 
168.983 170.948 172.816 174.605 176.027 176.746 176.693 176.051 157.042 
158.562 157.83 159.491 158.584 159.941 160.331 159.407 160.956 161.409 
161.28 160.409 162.139 162.912 163.726 162.481 161.473 163.657 164.898 
165.974 166.675 163.766 162.406 165.357 167.096 168.51 169.197 169.217 
164.921 163.216 166.895 169.05 170.897 171.792 171.719 171.156 165.916 
164.022 168.096 170.491 172.726 174.079 174.277 173.699 172.783 155.396 
155.968 154.388 154.78 153.298 156.561 153.686 152.179 155.301 157.317 
152.691 151.233 154.262 156.144 158.362 151.81 150.535 153.27 155.026 
157.267 159.528 151.008 149.781 152.351 153.862 155.946 158.384 160.493 
150.16 148.932 151.59 152.956 154.635 156.958 159.261 161.194 149.384 
148.294 150.87 152.297 153.651 155.552 157.864 159.913 161.838 148.794 