# vtk DataFile Version 4.0
vtk output
ASCII
DATASET POLYDATA
POINTS 1002 float
-104.388 -83.8241 78.5211 -104.244 -83.1301 77.426 -104.777 -83.1302 78.1899 
-104.919 -83.8038 79.3451 -105.263 -83.0506 79.1459 -104.601 -84.638 79.6886 
-105.429 -83.7809 80.3307 -105.755 -82.9361 80.1699 -105.148 -84.6616 80.589 
-104.91 -85.622 80.9164 -106.009 -83.8522 81.3898 -106.429 -83.0154 81.1332 
-105.665 -84.7394 81.6974 -105.415 -85.76 82.0544 -105.262 -86.8027 82.363 
-106.728 -84.1143 82.41 -107.15 -83.2453 82.0866 -106.271 -84.9494 82.8269 
-105.891 -85.9015 83.3467 -105.7 -86.9958 83.7212 -105.569 -88.0052 84.0278 
-107.428 -84.3956 83.3964 -107.735 -83.459 83.0763 -107.023 -85.2779 83.8043 
-106.552 -86.1573 84.3931 -106.258 -87.2018 84.9072 -106.109 -88.2384 85.2404 
-105.936 -89.1949 85.5983 -108.074 -84.6332 84.3959 -108.337 -83.7382 84.0488 
-107.8 -85.5867 84.7596 -107.413 -86.5317 85.2372 -107.096 -87.5927 85.7275 
-106.894 -88.6716 86.1352 -106.7 -89.6667 86.5365 -106.551 -90.6827 86.9098 
-108.717 -84.9403 85.4055 -109.011 -84.1212 84.9827 -108.501 -85.912 85.7956 
-108.231 -86.9527 86.2099 -107.981 -88.0756 86.5855 -107.79 -89.228 86.9379 
-107.543 -90.3178 87.3774 -107.341 -91.3926 87.8044 -107.331 -92.4412 88.0419 
-109.284 -85.3111 86.3578 -109.617 -84.527 85.8472 -109.069 -86.2974 86.7913 
-108.882 -87.4175 87.2174 -108.676 -88.5702 87.6034 -108.503 -89.7011 87.9019 
-108.294 -90.836 88.2397 -108.051 -92.0084 88.6478 -107.972 -93.1397 88.9334 
-108.104 -94.1087 89.0146 -109.797 -85.7252 87.1558 -110.153 -84.9591 86.5687 
-109.558 -86.6987 87.6346 -109.431 -87.8582 88.0487 -109.278 -89.0616 88.4697 
-109.064 -90.1721 88.8454 -108.882 -91.2682 89.1122 -108.741 -92.4792 89.3524 
-108.657 -93.716 89.5999 -108.707 -94.8006 89.7649 -108.872 -95.6844 89.8168 
-104.525 -82.5312 76.8256 -105.11 -82.4751 77.6924 -104.993 -81.9176 76.2565 
-105.558 -81.671 77.1753 -105.528 -81.1439 75.6755 -105.575 -82.245 78.7414 
-106.033 -80.8102 76.5825 -105.963 -80.3115 75.0648 -106.042 -81.4057 78.1687 
-106.146 -82.107 79.7321 -106.564 -80.1322 76.0136 -106.457 -79.6218 74.5006 
-106.67 -80.7717 77.5149 -106.79 -81.468 79.0615 -106.95 -82.2507 80.6453 
-107.288 -79.5548 75.5632 -107.225 -79.0825 74.0465 -107.406 -80.1953 77.045 
-107.577 -80.9664 78.4841 -107.677 -81.6778 80.0419 -107.656 -82.448 81.6702 
-108.068 -78.9665 75.1983 -108.062 -78.6794 73.7103 -108.108 -79.4186 76.7015 
-108.222 -80.1552 78.1879 -108.37 -81.0236 79.6559 -108.327 -81.8021 81.2176 
-108.222 -82.6798 82.7471 -108.778 -78.5159 74.9066 -108.825 -78.3891 73.4478 
-108.746 -78.7704 76.3466 -108.723 -79.278 77.8854 -108.834 -80.119 79.4342 
-108.961 -81.1045 80.8878 -108.929 -82.0784 82.3295 -108.907 -83.0882 83.7284 
-109.591 -78.1787 74.6525 -109.67 -78.0955 73.2007 -109.525 -78.4157 76.0371 
-109.41 -78.8421 77.5084 -109.362 -79.4492 79.1317 -109.488 -80.332 80.6259 
-109.619 -81.4465 81.9303 -109.638 -82.5619 83.2632 -109.623 -83.5673 84.6224 
-110.517 -77.8249 74.3946 -110.579 -77.7757 72.9955 -110.453 -78.0673 75.7584 
-110.331 -78.5739 77.1673 -110.182 -79.1223 78.7828 -110.138 -79.7292 80.3728 
-110.209 -80.7169 81.6432 -110.271 -81.9697 82.809 -110.269 -83.0871 84.1162 
-110.216 -84.0263 85.4338 -111.385 -77.4871 73.738 -111.348 -77.5616 75.1259 
-112.042 -77.2756 74.5176 -111.977 -77.5235 75.8719 -112.607 -77.4275 75.2489 
-111.253 -78.0359 76.5555 -112.496 -78.0502 76.7126 -113.234 -78.1478 76.0612 
-111.857 -78.268 77.4851 -111.108 -78.7292 78.2259 -113.081 -79.0394 77.7886 
-113.707 -79.1364 77.1684 -112.4 -78.9743 78.5725 -111.757 -78.9966 79.4335 
-110.969 -79.2873 80.0435 -113.58 -79.9495 79.0371 -113.867 -80.1502 78.4682 
-113.039 -79.9154 79.7189 -112.383 -79.6987 80.544 -111.657 -79.6777 81.2189 
-110.882 -80.0936 81.5153 -113.969 -80.9164 80.3013 -114.049 -81.4726 79.7407 
-113.669 -80.7804 80.9069 -113.115 -80.7153 81.5585 -112.368 -80.6782 82.18 
-111.549 -80.9388 82.5363 -110.848 -81.4499 82.6621 -114.423 -82.3357 81.5045 
-114.399 -83.0274 80.9097 -114.222 -81.919 82.184 -113.819 -81.7998 82.777 
-113.204 -81.8723 83.2695 -112.35 -82.1207 83.6317 -111.498 -82.4705 83.8027 
-110.843 -82.8059 83.9257 -114.818 -83.8278 82.5278 -114.689 -84.3515 81.9238 
-114.647 -83.3963 83.3207 -114.288 -83.1308 84.0336 -113.866 -83.0376 84.5297 
-113.21 -83.1565 84.8868 -112.316 -83.4262 85.0919 -111.49 -83.6779 85.1819 
-110.823 -83.8598 85.2981 -114.958 -85.0735 83.3658 -114.787 -85.4471 82.8019 
-114.836 -84.7943 84.1634 -114.499 -84.6138 84.9552 -114.167 -84.4502 85.53 
-113.749 -84.3373 85.9441 -113.053 -84.4049 86.2303 -112.23 -84.5995 86.3473 
-111.469 -84.7565 86.4153 -110.773 -84.8516 86.5164 -110.521 -85.987 87.584 
-111.262 -86.0021 87.5258 -111.068 -87.3028 88.5877 -112.024 -86.0118 87.419 
-111.857 -87.4827 88.5233 -111.686 -88.8215 89.589 -112.745 -85.9492 87.3384 
-112.528 -87.6665 88.4276 -112.392 -89.1298 89.5533 -112.218 -90.7453 90.4284 
-113.456 -85.9184 87.1396 -113.127 -87.7955 88.351 -112.963 -89.4592 89.521 
-112.897 -91.1613 90.4093 -112.84 -93.5069 90.9833 -114.01 -86.0136 86.7524 
-113.797 -87.8875 88.1053 -113.58 -89.7034 89.4776 -113.513 -91.5591 90.4035 
-113.589 -94.0472 90.9856 -113.67 -96.7667 91.6196 -114.326 -86.1158 86.2732 
-114.295 -87.9417 87.6947 -114.261 -89.8368 89.2124 -114.125 -91.8659 90.2977 
-114.139 -94.5149 90.9294 -114.284 -97.4224 91.6696 -114.322 -99.7212 92.5569 
-114.608 -86.1577 85.6217 -114.498 -87.9885 87.2167 -114.632 -90.0305 88.8095 
-114.632 -92.1834 89.9635 -114.501 -94.9039 90.6854 -114.551 -98.0057 91.5252 
-114.656 -100.567 92.5245 -114.66 -102.436 93.2858 -114.844 -86.268 84.7954 
-114.634 -88.0873 86.5433 -114.698 -90.3365 88.3312 -114.875 -92.6341 89.5809 
-114.794 -95.2454 90.3054 -114.68 -98.3694 91.1679 -114.777 -101.266 92.2507 
-114.949 -103.451 93.0578 -115.119 -105.29 93.4308 -114.855 -86.5285 84.0564 
-114.741 -88.2464 85.7138 -114.745 -90.5276 87.6149 -114.987 -92.9244 89.1201 
-115.076 -95.4218 89.9669 -114.902 -98.3954 90.753 -114.877 -101.508 91.8042 
-115.147 -104.09 92.6819 -115.536 -106.152 93.1031 -115.909 -108.012 93.2363 
-110.201 -86.9163 88.2213 -110.814 -88.3651 89.2744 -110.039 -88.0701 88.7076 
-111.458 -90.1867 90.2263 -110.7 -89.7405 89.7302 -109.96 -89.4098 89.116 
-112.054 -92.8372 90.8818 -111.341 -92.0554 90.5722 -110.583 -91.342 90.1191 
-109.746 -90.7252 89.5761 -112.873 -96.1788 91.4722 -112.052 -95.2227 91.2088 
-111.238 -94.0477 90.9515 -110.32 -92.9353 90.5968 -109.486 -91.9765 89.952 
-113.763 -99.2409 92.4511 -112.99 -98.4701 92.0863 -112.1 -97.3047 91.7405 
-111.138 -95.9595 91.4614 -110.223 -94.5809 90.892 -109.434 -93.3416 90.0956 
-114.316 -101.97 93.4108 -113.796 -101.386 93.2092 -113.056 -100.51 92.7668 
-112.158 -99.3389 92.3551 -111.3 -97.923 91.7787 -110.457 -96.2685 90.9265 
-109.519 -94.7613 90.1831 -114.8 -105.026 93.6934 -114.397 -104.619 93.8034 
-113.86 -103.924 93.5998 -113.115 -102.839 93.2226 -112.332 -101.464 92.7329 
-111.601 -99.7421 91.9197 -110.674 -97.7512 91.0154 -109.592 -96.0144 90.3509 
-115.604 -108.164 93.4565 -115.172 -108.068 93.6601 -114.676 -107.571 93.6975 
-114.035 -106.5 93.5412 -113.23 -104.997 93.3269 -112.465 -103.268 92.8905 
-111.695 -101.202 92.0807 -110.704 -98.9506 91.2187 -109.672 -97.0395 90.5092 
-116.72 -110.681 93.1005 -116.317 -111.02 93.2178 -117.336 -113.008 92.8407 
-116.774 -113.108 92.7352 -117.434 -114.747 92.1399 -115.744 -110.861 93.2604 
-116.729 -114.317 91.8722 -117.254 -116.252 91.0034 -116.101 -112.527 92.5322 
-115.118 -109.999 93.1879 -116.466 -115.404 90.9626 -117.011 -117.401 90.0429 
-116.088 -113.302 91.6722 -115.413 -111.229 92.4189 -114.289 -108.425 93.1608 
-116.078 -116.206 90.4215 -116.379 -117.458 89.5001 -115.824 -114.045 91.0918 
-115.363 -111.722 91.7606 -114.367 -109.398 92.6427 -113.269 -106.538 93.1976 
-115.425 -115.87 90.0893 -115.475 -116.405 89.1626 -115.3 -114.362 90.79 
-114.946 -112.011 91.3751 -114.154 -109.722 92.1634 -113.148 -107.417 92.884 
-112.357 -104.464 92.8516 -114.82 -114.426 89.8321 -114.877 -114.708 89.063 
-114.659 -113.577 90.5111 -114.311 -111.753 91.0602 -113.74 -109.554 91.6932 
-112.972 -107.578 92.3557 -112.187 -105.125 92.5553 -111.469 -101.979 92.0424 
-114.433 -112.378 89.7134 -114.531 -112.55 89.1749 -114.151 -111.898 90.2492 
-113.706 -110.743 90.7186 -113.239 -108.922 91.2227 -112.736 -107.091 91.7381 
-112.066 -105.08 92.0047 -111.27 -102.351 91.7736 -110.457 -99.4281 91.1575 
-113.954 -110.089 89.6284 -114.007 -110.122 89.2457 -113.654 -109.826 90.0187 
-113.149 -109.195 90.389 -112.671 -107.94 90.8045 -112.295 -106.3 91.2175 
-111.793 -104.508 91.446 -111.06 -102.264 91.3411 -110.262 -99.6841 90.9027 
-109.525 -97.4075 90.3285 -116.56 -109.174 92.9454 -117.387 -111.674 92.8174 
-116.99 -109.784 92.5409 -117.602 -112.087 92.2811 -117.148 -109.866 91.9441 
-117.782 -113.979 92.4116 -117.541 -111.992 91.4009 -117.238 -109.523 91.3201 
-117.76 -114.599 91.5401 -117.807 -116.164 91.3265 -117.532 -111.406 90.5751 
-117.187 -108.669 90.8329 -117.601 -114.52 90.4299 -117.946 -117.073 90.1903 
-117.865 -117.94 89.9343 -117.263 -110.279 90.217 -116.664 -107.205 90.4001 
-117.439 -113.516 89.779 -117.831 -116.51 89.305 -118.205 -118.299 88.9072 
-117.558 -118.416 88.9716 -116.406 -108.483 90.1909 -115.848 -105.164 89.8704 
-116.849 -111.767 89.9071 -117.324 -114.621 89.2224 -117.887 -116.795 88.4669 
-117.621 -117.863 88.1161 -116.471 -117.584 88.4459 -115.475 -105.892 89.8913 
-115.195 -102.7 89.0981 -115.864 -109.236 90.1917 -116.392 -112.099 89.7517 
-117.04 -114.292 88.8044 -117.155 -115.977 87.9712 -116.353 -116.707 87.7925 
-115.4 -116.132 88.2939 -114.939 -102.872 88.9645 -114.726 -100.228 88.1204 
-115.127 -105.95 89.7312 -115.446 -108.972 89.9541 -116.021 -111.384 89.41 
-116.451 -113.29 88.5351 -116.163 -114.705 87.9879 -115.422 -115.025 88.044 
-114.857 -114.109 88.5548 -114.582 -100.184 87.7795 -114.209 -98.2167 87.2105 
-114.777 -102.627 88.5384 -114.866 -105.428 89.248 -115.138 -108.038 89.4468 
[...]
CELL_DATA 2000
SCALARS Distance double
LOOKUP_TABLE default
153.772 154.531 154.368 154.852 155.331 155.157 155.665 155.524 156.117 
156.25 156.024 156.586 156.4 157.047 156.904 157.621 157.331 157.062 
157.66 157.411 158.088 157.91 158.673 158.527 159.309 158.415 158.189 
158.816 158.557 159.225 159.006 159.769 159.615 160.414 160.255 161.034 
159.469 159.266 159.947 159.724 160.419 160.18 160.945 160.753 161.585 
161.401 162.229 162.022 162.856 160.577 160.354 161.076 160.872 161.634 
161.405 162.207 161.987 162.852 162.642 163.522 163.294 164.18 163.95 
164.86 161.675 161.468 162.178 162.01 162.801 162.629 163.457 163.265 
164.114 163.921 164.779 164.589 165.453 165.272 166.156 165.974 166.852 
162.682 162.512 163.192 163.066 163.844 163.747 164.579 164.461 165.281 
165.126 165.923 165.769 166.581 166.454 167.3 167.183 168.036 167.887 
168.708 153.286 152.919 153.409 154.058 152.583 153.059 153.665 154.174 
154.821 152.185 152.68 153.259 153.768 154.41 154.953 155.69 151.85 
152.302 152.951 153.412 154.116 154.604 155.379 155.921 156.751 151.758 
152.108 152.846 153.238 154.028 154.445 155.259 155.705 156.517 157.021 
157.828 151.865 152.135 152.834 153.195 153.951 154.392 155.195 155.644 
156.424 156.851 157.612 158.086 158.876 152.069 152.272 152.878 153.169 
153.819 154.24 154.985 155.499 156.288 156.763 157.529 157.951 158.738 
159.189 160.006 152.363 152.498 153.087 153.265 153.896 154.16 154.883 
155.288 156.106 156.593 157.425 157.886 158.699 159.128 159.939 160.366 
161.145 152.725 152.822 153.416 153.547 154.199 154.371 155.099 155.347 
156.148 156.502 157.339 157.775 158.607 159.069 159.875 160.315 161.076 
161.479 162.179 153.118 153.901 153.607 153.807 154.692 154.392 154.66 
154.369 154.63 155.719 155.284 155.608 155.283 155.664 155.301 155.599 
157.056 156.512 156.861 156.392 156.823 156.419 156.806 156.348 156.649 
158.406 157.923 158.313 157.794 158.196 157.694 158.08 157.596 157.926 
157.437 157.773 159.762 159.28 159.742 159.259 159.697 159.154 159.539 
158.967 159.318 158.762 159.118 158.618 159.016 161.319 160.762 161.284 
160.747 161.275 160.709 161.182 160.555 160.966 160.301 160.679 160.053 
160.446 159.909 160.306 162.836 162.361 162.884 162.365 162.894 162.341 
162.845 162.252 162.7 162.041 162.412 161.716 162.051 161.407 161.75 
161.186 161.515 164.04 163.724 164.209 163.844 164.314 163.883 164.328 
163.842 164.25 163.701 164.039 163.409 163.684 163.022 163.288 162.659 
162.931 162.351 162.612 163.398 163.79 163.995 164.851 164.2 164.429 
165.358 165.575 166.526 164.604 164.854 165.814 166.089 167.09 167.31 
168.3 164.956 165.246 166.215 166.534 167.576 167.857 168.903 169.126 
170.255 165.172 165.539 166.534 166.921 168.015 168.352 169.459 169.73 
170.942 171.245 172.64 165.228 165.664 166.666 167.17 168.318 168.776 
169.931 170.279 171.513 171.907 173.359 173.789 175.266 165.167 165.636 
166.604 167.198 168.386 169.002 170.217 170.689 171.902 172.381 173.801 
174.386 175.893 176.342 177.642 165.015 165.502 166.429 167.062 168.275 
169.006 170.318 170.913 172.141 172.659 174.003 174.668 176.177 176.817 
178.192 178.567 179.721 164.81 165.299 166.194 166.837 168.039 168.845 
170.222 170.965 172.242 172.824 174.081 174.744 176.183 176.952 178.393 
178.993 180.236 180.589 181.705 163.443 164.897 164.086 164.005 166.582 
165.677 165.605 164.744 164.709 168.4 167.466 167.436 166.481 166.45 
165.539 165.506 170.454 169.424 169.492 168.438 168.434 167.402 167.342 
166.357 166.25 172.959 171.762 171.943 170.703 170.758 169.543 169.485 
168.317 168.164 167.082 166.911 175.627 174.469 174.72 173.391 173.48 
172.088 172.071 170.684 170.553 169.201 168.996 167.787 167.612 177.988 
177.05 177.364 176.193 176.336 174.952 174.984 173.496 173.447 171.892 
171.709 170.165 169.923 168.578 168.393 180.101 179.293 179.744 178.752 
179.062 177.815 177.95 176.502 176.524 174.957 174.839 173.147 172.848 
171.168 170.835 169.405 169.165 182.171 181.435 182.025 181.142 181.611 
180.521 180.765 179.439 179.467 177.999 177.888 176.294 175.996 174.242 
173.78 172.053 171.618 170.161 169.852 183.507 185.405 184.184 183.438 
186.646 185.842 185.15 183.967 183.024 187.082 186.625 185.964 185.293 
184.401 183.314 182.145 187.221 186.824 186.088 185.685 184.879 184.265 
183.175 182.141 180.789 187.047 186.874 186.107 185.718 184.871 184.435 
183.455 182.808 181.564 180.578 179.145 186.126 186.41 185.755 185.624 
184.688 184.324 183.282 182.849 181.719 181.08 179.728 178.777 177.223 
184.711 185.229 184.695 184.936 184.021 183.903 182.756 182.498 181.367 
181.02 179.77 179.116 177.561 176.618 174.931 183.204 183.754 183.221 
183.643 182.806 182.943 181.825 181.755 180.609 180.477 179.297 178.935 
177.459 176.739 175.036 174.171 172.586 181.539 182.161 181.564 182.073 
181.274 181.585 180.573 180.676 179.579 179.582 178.446 178.292 176.93 
176.458 174.847 174.145 172.583 171.889 170.613 183.821 184.571 184.785 
185.693 184.703 185.258 186.24 186.461 186.979 184.325 185.071 186.081 
186.697 187.409 187.469 187.594 183.659 184.488 185.421 186.27 187.192 
187.716 188.167 187.984 187.869 182.589 183.634 184.484 185.444 186.341 
187.241 187.905 188.307 188.314 188.059 187.582 180.916 182.281 183.145 
184.304 185.034 186.111 186.669 187.563 187.614 187.962 187.381 187.256 
186.437 178.754 180.321 181.178 182.637 183.286 184.523 184.899 185.968 
186.014 186.766 186.323 186.589 185.796 185.768 184.938 176.419 177.965 
178.686 180.332 180.944 182.438 182.774 183.997 184.056 185.004 184.776 
185.343 184.797 184.983 184.254 184.238 183.46 174.249 175.585 176.125 
177.678 178.206 179.825 180.192 181.647 181.758 182.943 182.814 183.698 
183.31 183.841 183.191 183.418 182.607 182.664 181.786 164.94 165.746 
165.661 166.426 166.783 166.661 167.579 167.429 168.4 167.771 167.759 
168.773 168.715 169.822 169.657 170.674 168.628 168.713 169.809 169.882 
171.081 171.079 172.193 171.953 172.78 169.652 169.692 170.974 171.006 
172.378 172.379 173.681 173.496 174.506 174.029 174.751 170.902 170.942 
172.436 172.428 174.03 173.947 175.502 175.233 176.511 175.966 176.921 
176.181 176.952 172.055 172.245 173.822 173.973 175.679 175.746 177.447 
177.287 178.721 178.213 179.284 178.537 179.375 178.529 179.201 172.917 
173.272 174.844 175.205 176.89 177.215 178.903 179.071 180.512 180.322 
181.366 180.837 181.626 180.912 181.547 180.682 181.116 173.524 173.982 
175.539 176.047 177.715 178.197 179.831 180.213 181.606 181.737 182.746 
182.564 183.315 182.906 183.55 182.904 183.371 182.448 182.683 164.24 
163.34 164.145 164.93 162.34 163.196 163.986 164.916 165.853 161.25 
162.141 162.911 163.901 164.831 165.855 166.796 160.17 161.037 161.793 
162.775 163.689 164.755 165.69 166.708 167.598 159.242 160.022 160.777 
161.681 162.574 163.6 164.551 165.576 166.481 167.485 168.475 158.477 
159.171 159.867 160.693 161.521 162.499 163.454 164.481 165.431 166.407 
167.379 168.443 169.579 157.81 158.436 159.048 159.785 160.498 161.408 
162.297 163.366 164.351 165.389 166.346 167.36 168.387 169.542 170.676 
157.247 157.795 158.38 159.007 159.649 160.403 161.178 162.162 163.112 
164.232 165.211 166.287 167.237 168.325 169.33 170.526 171.552 156.821 
157.287 157.859 158.404 159.02 159.638 160.311 161.098 161.92 162.95 
163.91 165.051 166.021 167.132 168.081 169.192 170.138 171.301 172.209 
156.793 157.034 157.208 157.809 157.173 157.414 158.062 158.282 158.948 
157.305 157.527 158.197 158.491 159.236 159.473 160.218 157.654 157.763 
158.466 158.679 159.515 159.778 160.66 160.862 161.778 158.233 158.279 
159.09 159.169 160.102 160.235 161.255 161.416 162.484 162.643 163.744 
158.893 158.95 159.856 159.95 160.968 161.041 162.124 162.205 163.374 
163.492 164.702 164.796 165.932 159.599 159.651 160.571 160.719 161.771 
161.926 163.013 163.137 164.308 164.464 165.732 165.853 167.055 167.04 
168.078 160.351 160.398 161.323 161.446 162.51 162.688 163.796 163.967 
165.124 165.341 166.616 166.852 168.105 168.188 169.263 169.168 170.116 
161.076 161.163 162.11 162.224 163.285 163.449 164.586 164.756 165.93 
166.128 167.391 167.661 168.948 169.157 170.29 170.313 171.287 171.184 
172.113 161.762 163.252 162.626 162.886 164.858 164.205 164.54 163.847 
164.133 166.675 165.929 166.352 165.616 166.013 165.222 165.512 168.853 
167.976 168.494 167.616 168.124 167.256 167.661 166.707 166.957 171.255 
170.367 171.007 170.01 170.593 169.585 170.102 169.045 169.39 168.256 
168.491 173.725 172.892 173.72 172.722 173.439 172.308 172.912 171.714 
172.144 170.876 171.119 169.869 170.055 176.291 175.501 176.554 175.604 
176.542 175.374 176.103 174.771 175.257 173.826 174.05 172.611 172.675 
171.37 171.397 178.731 178.115 179.28 178.506 179.562 178.545 179.34 
178.065 178.558 177.081 177.276 175.675 175.634 174.074 173.947 172.575 
172.442 180.643 180.326 181.411 180.98 181.948 181.301 182.014 181.068 
181.48 180.245 180.392 178.9 178.81 177.145 176.907 175.27 175.013 
173.559 173.332 161.323 161.069 161.724 162.79 160.83 161.493 162.63 
163.272 164.387 160.603 161.276 162.428 163.12 164.306 164.932 166.149 
160.259 161.002 162.149 162.902 164.115 164.827 166.114 166.81 168.214 
159.819 160.59 161.778 162.594 163.836 164.603 165.921 166.72 168.194 
168.991 170.517 159.494 160.176 161.399 162.23 163.546 164.335 165.69 
166.509 168.045 168.931 170.556 171.345 172.915 159.358 159.929 161.114 
161.903 163.272 164.084 165.49 166.306 167.88 168.801 170.528 171.397 
173.057 173.787 175.385 159.304 159.815 160.927 161.656 163.016 163.844 
165.284 166.118 167.678 168.625 170.365 171.347 173.055 173.897 175.477 
176.236 177.757 159.268 159.746 160.795 161.465 162.767 163.59 165.022 
165.889 167.402 168.358 170.01 171.07 172.738 173.741 175.269 176.164 
177.577 178.412 179.702 160.388 158.959 159.779 160.058 157.667 158.371 
158.575 159.443 159.79 156.466 157.118 157.283 158.037 158.338 159.224 
159.59 155.248 155.896 156.016 156.752 156.98 157.813 158.093 158.985 
159.255 154.116 154.689 154.732 155.412 155.513 156.347 156.529 157.443 
157.645 158.565 158.798 153.146 153.639 153.646 154.167 154.138 154.805 
154.876 155.768 155.997 156.961 157.256 158.174 158.513 152.188 152.679 
152.663 153.137 153.047 153.527 153.474 154.156 154.355 155.305 155.727 
156.715 157.157 158.037 158.449 151.233 151.675 151.587 152.084 151.973 
152.461 152.366 152.898 152.975 153.748 154.126 155.155 155.686 156.7 
157.165 158.033 158.431 150.483 150.767 150.62 150.998 150.88 151.357 
151.329 151.849 151.918 152.511 152.756 153.597 154.078 155.138 155.686 
156.698 157.151 158.015 158.41 150.164 149.797 150.013 150.184 149.596 
149.688 149.768 150.049 150.366 149.509 149.56 149.66 149.776 150.067 
150.376 150.861 149.509 149.544 149.732 149.796 150.111 150.266 150.728 
151.014 151.55 149.762 149.698 149.947 149.946 150.259 150.359 150.78 
150.993 151.505 151.775 152.388 150.331 150.169 150.484 150.327 150.61 
150.543 150.931 151.066 151.626 151.851 152.537 152.803 153.652 151.07 
150.876 151.289 151.06 151.395 151.102 151.486 151.38 152.039 152.149 
152.992 153.155 154.078 154.308 155.282 151.915 151.679 152.151 151.954 
152.417 152.087 152.516 152.207 152.866 152.803 153.72 153.799 154.758 
154.874 155.798 155.976 156.832 152.863 152.572 153.027 152.842 153.371 
153.142 153.629 153.333 153.904 153.745 154.542 154.579 155.473 155.572 
156.419 156.528 157.312 157.437 158.15 153.538 154.655 153.937 153.717 
155.924 155.134 154.914 154.216 154.054 157.412 156.503 156.253 155.454 
155.266 154.565 154.369 159.119 158.128 157.876 156.91 156.688 155.844 
155.671 154.897 154.729 160.879 159.91 159.731 158.687 158.477 157.445 
157.268 156.338 156.236 155.4 155.372 162.716 161.726 161.632 160.605 
160.474 159.39 159.237 158.148 158.038 157.055 157.049 156.201 156.266 
164.754 163.704 163.67 162.587 162.525 161.439 161.367 160.25 160.168 
159.046 159.001 157.987 158.013 157.14 157.193 166.813 165.83 165.865 
164.755 164.734 163.587 163.57 162.436 162.424 161.273 161.227 160.077 
160.024 158.973 158.95 158.043 158.051 168.713 167.853 167.974 166.969 
167.004 165.879 165.877 164.715 164.709 163.551 163.506 162.333 162.227 
161.068 160.944 159.877 159.79 158.871 158.845 159.555 160.608 160.4 
161.163 161.871 161.622 162.499 162.248 163.183 163.234 163.001 163.966 
163.713 164.746 164.467 165.483 164.596 164.43 165.491 165.261 166.393 
166.132 167.281 166.912 167.964 165.9 165.832 167.036 166.862 168.121 
167.883 169.182 168.842 170.061 169.553 170.643 167.125 167.155 168.502 
168.453 169.857 169.7 171.126 170.846 172.185 171.74 172.917 172.329 
173.364 168.233 168.356 169.775 169.892 171.419 171.434 172.957 172.806 
174.202 173.861 175.066 174.567 175.613 174.998 175.9 169.153 169.378 
170.813 171.088 172.695 172.91 174.499 174.53 175.935 175.758 176.957 
176.606 177.654 177.159 178.087 177.442 178.225 169.863 170.183 171.627 
172.033 173.691 174.08 175.708 175.912 177.288 177.28 178.435 178.29 
179.332 179.047 179.978 179.512 180.3 179.657 180.299 152.204 151.826 
151.765 151.289 151.502 151.393 150.905 150.862 150.454 151.214 151.054 
150.517 150.476 150.105 150.126 149.887 151.076 150.802 150.243 150.118 
149.792 149.82 149.704 149.75 149.719 151.261 150.836 150.358 150.039 
149.792 149.669 149.664 149.67 149.754 149.757 149.82 151.662 151.19 
150.758 150.351 150.106 149.866 149.848 149.768 149.853 149.833 149.89 
149.874 149.895 152.014 151.588 151.074 150.716 150.326 150.124 149.93 
149.895 149.848 149.886 149.869 149.893 149.867 149.884 149.888 152.304 
151.875 151.308 150.934 150.452 150.202 149.866 149.797 149.627 149.713 
149.652 149.77 149.736 149.809 149.801 149.862 149.924 152.704 152.212 
151.714 151.24 150.831 150.418 150.112 149.81 149.623 149.51 149.46 
149.516 149.53 149.632 149.646 149.743 149.801 149.921 150.068 152.293 
151.361 151.926 152.166 150.508 150.989 151.215 151.828 152.17 149.923 
150.216 150.406 150.925 151.321 151.952 152.438 149.718 149.784 149.911 
150.239 150.661 151.224 151.797 152.379 152.936 149.802 149.738 149.803 
149.909 150.284 150.708 151.345 151.872 152.46 152.943 153.451 149.917 
149.879 149.961 149.95 150.262 150.491 151.119 151.55 152.206 152.59 
153.086 153.465 153.935 149.963 149.982 150.143 150.161 150.49 150.602 
151.173 151.461 152.141 152.455 153.011 153.258 153.723 154.022 154.516 
150.051 150.065 150.293 150.352 150.747 150.866 151.413 151.607 152.213 
152.46 153.013 153.25 153.73 153.956 154.437 154.699 155.204 150.263 
150.244 150.518 150.553 150.985 151.119 151.679 151.852 152.385 152.553 
153.001 153.215 153.653 153.931 154.403 154.683 155.173 155.431 155.917 
152.859 152.776 153.102 153.655 152.81 153.078 153.67 153.92 154.466 
153.072 153.228 153.879 154.053 154.671 154.834 155.495 153.546 153.623 
154.325 154.424 155.124 155.196 155.882 156.018 156.786 154.035 154.135 
154.858 154.969 155.696 155.751 156.42 156.48 157.161 157.331 158.084 
154.462 154.575 155.261 155.443 156.121 156.262 156.884 156.987 157.62 
157.733 158.436 158.616 159.421 154.959 154.991 155.603 155.76 156.368 
156.548 157.126 157.322 157.977 158.171 158.916 159.067 159.885 160.059 
160.958 155.581 155.519 156.069 156.119 156.705 156.797 157.378 157.528 
158.21 158.464 159.272 159.53 160.364 160.568 161.407 161.623 162.459 
156.269 156.16 156.672 156.643 157.232 157.244 157.863 157.905 158.59 
158.745 159.545 159.819 160.656 160.944 161.737 161.995 162.742 162.99 
163.683 160.258 159.596 159.59 158.901 158.885 158.928 158.31 158.288 
157.644 158.169 158.213 157.62 157.674 157.07 157.061 156.432 157.535 
157.529 156.919 156.967 156.391 156.44 155.83 155.832 155.217 157.033 
156.96 156.35 156.315 155.746 155.773 155.227 155.234 154.651 154.632 
154.09 156.711 156.547 155.927 155.804 155.208 155.185 154.691 154.705 
154.2 154.139 153.593 153.563 153.097 156.56 156.32 155.674 155.445 
154.8 154.687 154.195 154.222 153.808 153.772 153.25 153.132 152.593 
152.588 152.146 156.437 156.205 155.575 155.284 154.637 154.382 153.866 
153.792 153.433 153.422 152.983 152.847 152.276 152.14 151.635 151.647 
151.247 156.236 156.056 155.478 155.23 154.644 154.343 153.824 153.603 
153.218 153.122 152.738 152.609 152.083 151.885 151.346 151.232 150.836 
150.839 150.541 
POINT_DATA 1002
SCALARS Distance double
LOOKUP_TABLE default
154.206 153.183 153.928 154.971 154.698 155.382 155.804 155.492 156.221 
156.749 156.777 156.484 157.179 157.746 158.37 157.926 157.585 158.281 
158.809 159.469 160.092 159.058 158.606 159.467 159.931 160.568 161.207 
161.805 160.138 159.665 160.649 161.145 161.762 162.427 163.054 163.712 
161.261 160.808 161.832 162.423 163.056 163.738 164.402 165.086 165.784 
162.336 161.882 162.94 163.633 164.317 164.97 165.629 166.329 167.054 
167.72 163.318 162.848 163.923 164.671 165.435 166.092 166.709 167.407 
168.166 168.889 169.516 152.75 153.552 152.457 153.171 152.125 154.276 
152.747 151.685 153.862 155.095 152.477 151.391 153.632 154.858 156.185 
152.459 151.428 153.607 154.846 156.074 157.296 152.523 151.647 153.524 
154.725 156.016 157.185 158.358 152.651 151.913 153.465 154.473 155.76 
157.093 158.313 159.546 152.933 152.248 153.682 154.545 155.634 156.929 
158.256 159.53 160.746 153.29 152.64 154.029 154.89 155.867 156.946 
158.144 159.425 160.673 161.81 153.429 154.107 154.171 154.902 155.006 
154.974 155.946 156.208 155.978 156.044 157.385 157.578 157.255 157.24 
157.138 158.81 158.835 158.748 158.591 158.413 158.231 160.198 160.256 
160.221 160.127 159.901 159.644 159.482 161.834 161.871 161.824 161.782 
161.641 161.36 161.037 160.823 163.381 163.257 163.442 163.421 163.335 
163.126 162.754 162.365 162.065 164.538 164.328 164.713 164.792 164.775 
164.644 164.351 163.95 163.55 163.182 164.166 164.64 165.751 165.101 
166.337 167.491 165.514 166.832 168.104 169.309 165.876 167.261 168.64 
169.968 171.495 166.101 167.632 169.157 170.585 172.28 174.154 166.121 
167.782 169.544 171.098 172.865 174.941 176.709 166.001 167.697 169.685 
171.429 173.188 175.363 177.383 178.84 165.798 167.494 169.642 171.633 
173.369 175.464 177.714 179.486 180.845 165.566 167.225 169.406 171.625 
173.477 175.41 177.686 179.786 181.442 182.833 164.776 166.506 165.536 
168.403 167.403 166.413 170.565 169.513 168.392 167.224 173.235 172.038 
170.73 169.339 167.933 176.025 174.906 173.502 171.989 170.336 168.723 
178.42 177.652 176.453 175.003 173.356 171.441 169.608 180.626 180.193 
179.348 178.057 176.518 174.649 172.459 170.442 182.842 182.618 182.034 
180.924 179.431 177.721 175.625 173.263 171.153 184.854 184.862 186.505 
186.162 187.275 184.431 186.443 187.533 185.291 183.489 186.501 187.633 
185.327 184.023 182.022 186.494 187.018 185.331 183.961 182.386 180.29 
185.722 185.641 185.053 183.685 182.206 180.572 178.327 184.329 184.168 
184.037 182.978 181.611 180.288 178.454 175.909 182.773 182.677 182.567 
181.82 180.683 179.538 178.068 175.859 173.346 181.04 180.905 180.886 
180.374 179.531 178.529 177.275 175.452 173.235 171.172 183.781 185.725 
184.211 185.842 184.062 187.159 185.313 183.607 187.096 187.98 184.551 
182.827 186.41 188.081 188.447 183.53 181.416 185.382 187.24 188.398 
188.099 181.903 179.436 184.011 185.718 187.056 187.39 186.655 179.633 
177.201 182.008 183.848 185.138 185.855 185.725 185.01 177.069 174.992 
179.365 181.468 183.015 184.024 184.454 184.216 183.54 174.702 173.057 
176.61 178.651 180.466 181.8 182.625 182.861 182.505 181.782 164.929 
166.492 165.821 167.674 166.857 168.576 168.75 167.711 169.899 170.995 
169.682 168.494 171 172.346 173.244 170.903 169.562 172.343 173.798 
174.908 175.376 172.366 170.781 174.046 175.715 177.011 177.629 177.771 
173.593 171.797 175.516 177.489 179.152 180.013 180.222 180.14 174.432 
172.528 176.515 178.649 180.581 181.809 182.281 182.38 182.127 163.465 
164.043 162.514 163.034 161.476 164.886 161.916 160.36 163.785 165.826 
160.839 159.314 162.627 164.657 166.592 159.917 158.498 161.579 163.518 
165.482 167.373 159.103 157.835 160.586 162.401 164.445 166.369 168.397 
158.374 157.224 159.671 161.241 163.253 165.357 167.316 169.451 157.79 
156.73 158.98 160.302 161.996 164.09 166.19 168.209 170.333 157.344 