# vtk DataFile Version 4.0
vtk output
ASCII
DATASET POLYDATA
POINTS 1002 float
-102.656 -86.1752 81.4335 -102.695 -85.4859 80.4018 -102.971 -85.3848 81.3603 
-102.967 -86.1706 82.4966 -103.339 -85.3987 82.3699 -102.731 -87.1321 82.5353 
-103.415 -86.3084 83.4984 -103.868 -85.5536 83.2686 -103.089 -87.2629 83.6298 
-102.863 -88.2882 83.706 -104.09 -86.6227 84.2661 -104.609 -85.8577 84.0022 
-103.657 -87.5486 84.5537 -103.251 -88.5168 84.835 -102.999 -89.5118 85.0193 
-104.92 -87.0667 84.9823 -105.396 -86.2356 84.7872 -104.475 -87.9959 85.2457 
-103.993 -88.9156 85.6491 -103.532 -89.7895 86.0692 -103.311 -90.7945 86.3125 
-105.693 -87.5372 85.9053 -106.078 -86.6449 85.6936 -105.335 -88.5145 86.0689 
-104.959 -89.4742 86.2902 -104.524 -90.3543 86.687 -104.14 -91.2125 87.113 
-103.988 -92.2418 87.3496 -106.437 -88.068 86.7673 -106.81 -87.2025 86.4536 
-106.121 -89.0531 87.0176 -105.806 -90.0498 87.1928 -105.487 -91.0732 87.4062 
-105.15 -92.0299 87.7795 -104.919 -92.9625 88.1401 -104.895 -93.9948 88.3225 
-107.282 -88.7179 87.3893 -107.668 -87.9354 87.0527 -106.93 -89.6496 87.698 
-106.551 -90.6241 88.0598 -106.162 -91.6859 88.4403 -105.817 -92.8172 88.8139 
-105.606 -93.8913 89.1619 -105.62 -94.9489 89.3599 -105.776 -95.9884 89.4046 
-108.075 -89.3605 88.0845 -108.417 -88.6257 87.7584 -107.706 -90.2397 88.2979 
-107.295 -91.2305 88.6249 -106.848 -92.2941 89.1894 -106.422 -93.4222 89.7701 
-106.133 -94.5737 90.1928 -106.112 -95.7535 90.4259 -106.319 -96.9173 90.4465 
-106.553 -97.9216 90.3546 -108.619 -89.8724 88.9278 -108.883 -89.105 88.5802 
-108.299 -90.7491 89.0882 -107.943 -91.792 89.2327 -107.599 -92.9651 89.6419 
-107.283 -94.1327 90.2212 -106.996 -95.2273 90.6924 -106.833 -96.3684 91.0213 
-106.892 -97.6073 91.186 -107.096 -98.7522 91.1342 -107.27 -99.641 90.9765 
-102.985 -84.8148 79.9507 -103.356 -84.7381 80.8633 -103.405 -84.1049 79.4305 
-103.922 -84.1002 80.2489 -103.936 -83.356 78.918 -103.824 -84.7768 81.8466 
-104.547 -83.3938 79.6856 -104.559 -82.6939 78.4712 -104.502 -84.1681 81.2068 
-104.441 -84.9257 82.7943 -105.107 -82.6321 79.3114 -105.311 -82.153 78.0005 
-105.126 -83.4074 80.703 -105.153 -84.2892 82.2539 -105.213 -85.1922 83.649 
-105.732 -81.928 78.9971 -106.184 -81.6265 77.4418 -105.581 -82.526 80.4728 
-105.729 -83.5034 81.8426 -105.887 -84.5563 83.2263 -105.957 -85.5357 84.541 
-106.584 -81.4199 78.5408 -107.007 -81.1169 76.9123 -106.198 -81.8171 80.2576 
-106.203 -82.6614 81.6244 -106.488 -83.8522 82.8297 -106.638 -84.9449 84.1761 
-106.653 -85.9766 85.4455 -107.483 -81.0558 78.0312 -107.63 -80.6575 76.5881 
-107.146 -81.4184 79.782 -106.909 -82.0335 81.3709 -107.063 -83.0853 82.5688 
-107.335 -84.2959 83.7969 -107.415 -85.4401 85.079 -107.47 -86.6481 86.1516 
-108.176 -80.6123 77.7523 -108.144 -80.1826 76.5374 -108.052 -81.0843 79.2258 
-107.797 -81.6663 80.9045 -107.719 -82.4702 82.3566 -107.91 -83.5335 83.573 
-108.1 -84.7902 84.7445 -108.19 -86.1388 85.793 -108.295 -87.4539 86.7741 
-108.716 -80.062 77.7714 -108.719 -79.7012 76.6517 -108.669 -80.6338 78.9166 
-108.535 -81.3628 80.3955 -108.413 -82.1061 82.0341 -108.431 -82.911 83.4416 
-108.56 -84.026 84.574 -108.699 -85.4524 85.5416 -108.811 -86.8775 86.4973 
-108.879 -88.0834 87.5587 -109.354 -79.4707 77.5393 -109.229 -80.0003 78.6124 
-109.979 -79.642 78.2876 -109.858 -80.4619 79.427 -110.683 -80.3782 78.8892 
-109.147 -80.8797 79.8182 -110.759 -81.1961 80.3936 -111.401 -81.2036 79.6937 
-109.913 -81.432 80.9277 -109.125 -81.777 81.4739 -111.517 -81.8521 81.6671 
-111.76 -82.0567 80.9111 -110.894 -81.9015 82.284 -109.997 -82.1595 82.7859 
-109.106 -82.4975 83.2005 -111.801 -82.9625 82.9499 -111.897 -83.4012 82.1902 
-111.493 -82.6689 83.6146 -110.831 -82.6498 84.0778 -109.897 -82.9572 84.3897 
-109.077 -83.4337 84.5402 -112.143 -84.502 83.8778 -112.263 -84.8689 83.1566 
-111.821 -84.1973 84.5835 -111.321 -83.9291 85.086 -110.595 -83.9497 85.4153 
-109.747 -84.3088 85.5821 -109.117 -84.8632 85.5705 -112.625 -85.7945 84.6466 
-112.607 -86.1324 83.9736 -112.3 -85.6888 85.341 -111.743 -85.6041 85.8627 
-111.152 -85.4937 86.2958 -110.45 -85.5396 86.6582 -109.725 -85.8725 86.7334 
-109.217 -86.4058 86.5859 -112.718 -87.24 85.5915 -112.597 -87.6741 84.9346 
-112.55 -87.0253 86.2508 -112.067 -87.0082 86.6884 -111.547 -86.9871 87.0809 
-111.044 -86.8633 87.6411 -110.376 -86.8496 88.0284 -109.717 -87.1794 87.9671 
-109.264 -87.6944 87.7234 -112.519 -89.2616 86.6054 -112.481 -89.587 85.9721 
-112.409 -88.9238 87.2339 -112.093 -88.6631 87.5978 -111.706 -88.4972 87.8329 
-111.384 -88.2983 88.3315 -110.922 -88.0454 88.9457 -110.235 -88.018 89.1806 
-109.622 -88.3531 89.0365 -109.22 -88.7982 88.8066 -109.044 -90.0479 89.5696 
-109.41 -89.8122 89.7381 -109.29 -91.4432 90.1956 -109.968 -89.5582 89.845 
-109.828 -91.5159 90.1803 -109.829 -93.3984 90.6469 -110.719 -89.5323 89.8434 
-110.574 -91.6175 90.217 -110.568 -93.8021 90.6565 -110.589 -95.5289 91.574 
-111.326 -89.81 89.4751 -111.318 -91.8374 90.2433 -111.322 -94.1379 90.8028 
-111.347 -96.0977 91.7178 -111.318 -97.6652 92.7418 -111.623 -90.1839 88.8866 
-111.78 -92.1675 89.9386 -111.875 -94.4265 90.8244 -111.876 -96.576 91.6844 
-111.924 -98.351 92.6425 -111.923 -100.147 93.2279 -111.863 -90.5907 88.5438 
-112.06 -92.6043 89.4557 -112.296 -94.7155 90.4917 -112.254 -96.9451 91.3946 
-112.255 -98.9344 92.1676 -112.397 -100.813 92.8545 -112.439 -102.975 93.1864 
-112.147 -91.0438 88.3407 -112.322 -93.1301 89.1222 -112.727 -95.0375 90.0337 
-112.791 -97.1177 91.0438 -112.647 -99.2567 91.7568 -112.737 -101.266 92.3605 
-112.927 -103.464 92.9451 -112.959 -105.81 93.2705 -112.383 -91.378 87.8926 
-112.563 -93.4621 88.783 -113.049 -95.2345 89.6099 -113.36 -97.0743 90.6936 
-113.273 -99.1859 91.5782 -113.174 -101.386 92.1137 -113.332 -103.767 92.6758 
-113.534 -106.276 93.1723 -113.55 -108.474 93.3678 -112.551 -91.5014 87.2564 
-112.82 -93.4249 88.257 -113.277 -95.1157 89.0978 -113.684 -96.8505 90.1898 
-113.796 -98.8875 91.2851 -113.665 -101.175 91.9251 -113.629 -103.773 92.397 
-113.853 -106.565 92.9164 -114.093 -109.025 93.2032 -114.1 -110.822 93.173 
-108.808 -91.0411 89.8369 -109.125 -92.6889 90.5048 -108.537 -92.1625 89.9723 
-109.719 -94.7248 91.3095 -108.956 -94.0169 90.8832 -108.299 -93.4925 90.2063 
-110.449 -96.8723 92.4784 -109.569 -96.1065 92.0133 -108.879 -95.5394 91.3259 
-108.174 -94.9195 90.6243 -111.187 -99.4248 93.2206 -110.257 -98.4909 92.9572 
-109.496 -97.7387 92.4581 -108.921 -97.1123 91.64 -108.076 -96.1975 90.9894 
-111.884 -102.604 93.2064 -111.086 -101.66 93.1049 -110.165 -100.443 93.0486 
-109.478 -99.504 92.6251 -108.879 -98.5609 91.8002 -107.905 -97.3771 91.2828 
-112.458 -105.823 93.207 -111.92 -105.283 93.0056 -111.115 -103.96 93.0067 
-110.1 -102.474 93.1213 -109.35 -101.276 92.732 -108.699 -100 92.0245 
-107.782 -98.6663 91.5739 -112.993 -108.585 93.3872 -112.515 -108.439 93.252 
-112.02 -107.593 93.0701 -111.083 -106.026 93.1049 -109.974 -104.409 93.1637 
-109.24 -102.948 92.7984 -108.62 -101.394 92.1887 -107.833 -99.9291 91.6674 
-113.555 -110.904 93.2781 -112.959 -110.883 93.3902 -112.519 -110.561 93.3473 
-111.925 -109.491 93.1547 -110.931 -107.774 93.0679 -109.994 -105.992 93.0008 
-109.369 -104.252 92.6333 -108.728 -102.481 92.0565 -107.967 -100.91 91.5094 
-114.224 -112.984 92.7486 -113.582 -113.032 92.9304 -114.155 -115.122 92.1695 
-113.461 -115.169 92.3781 -114.032 -117.245 91.524 -112.905 -112.994 93.2129 
-113.312 -116.983 91.5804 -113.937 -118.721 90.6334 -112.693 -115.017 92.7008 
-112.36 -112.565 93.2475 -113.147 -117.897 90.544 -113.583 -119.195 89.5445 
-112.487 -116.377 91.8211 -112.061 -114.196 92.7643 -111.702 -111.166 92.9869 
-112.815 -118.127 89.6902 -112.899 -119.17 88.7885 -112.385 -116.811 90.8398 
-111.908 -114.939 91.9606 -111.559 -112.235 92.5272 -110.905 -109.063 92.7797 
-112.338 -117.841 89.3152 -112.254 -118.48 88.5066 -112.219 -116.661 90.1985 
-111.868 -114.939 91.1196 -111.561 -112.602 91.8543 -111.084 -109.8 92.2779 
-110.224 -106.932 92.5749 -111.716 -116.516 89.0888 -111.688 -116.614 88.382 
-111.731 -115.818 89.899 -111.557 -114.462 90.606 -111.34 -112.551 91.2379 
-111.065 -110.148 91.7156 -110.421 -107.448 92.0006 -109.526 -104.832 92.1326 
-110.93 -114.472 88.8826 -111.045 -114.247 88.4248 -110.915 -114.299 89.6589 
-110.864 -113.481 90.4133 -110.751 -112.044 90.9824 -110.581 -110.093 91.3794 
-110.158 -107.66 91.5769 -109.432 -105.099 91.6268 -108.653 -102.834 91.6054 
-110.251 -112.589 88.9521 -110.477 -112.285 88.7608 -110.143 -112.669 89.5225 
-110.115 -112.214 90.2776 -110.074 -111.083 90.9003 -109.92 -109.444 91.2627 
-109.548 -107.421 91.3966 -108.964 -105.152 91.3704 -108.339 -103.005 91.2718 
-107.784 -101.199 91.1444 -114.505 -111.965 92.8607 -114.582 -114.181 92.3112 
-114.582 -112.658 92.4349 -114.652 -114.829 91.8061 -114.604 -112.718 91.8002 
-114.474 -116.514 91.687 -114.781 -114.908 90.9907 -114.771 -112.408 91.1102 
-114.632 -117.412 91.0366 -114.428 -118.862 90.9698 -114.893 -114.591 90.2585 
-114.669 -111.655 90.7275 -114.846 -117.562 89.9812 -114.715 -119.875 90.0671 
-114.329 -120.164 89.8692 -114.512 -113.414 90.1666 -114.2 -110.045 90.4505 
-114.778 -116.647 89.3673 -114.89 -119.496 88.932 -114.548 -120.725 88.8254 
-113.705 -120.206 88.6577 -113.964 -111.181 90.1851 -113.888 -107.947 89.8658 
-114.26 -114.489 89.6171 -114.696 -117.456 88.5892 -114.635 -119.51 87.9985 
-113.796 -120.153 87.8489 -112.828 -119.657 88.0134 -113.644 -108.735 89.8045 
-113.683 -106.065 89.2103 -113.746 -111.793 89.8672 -114.222 -114.612 89.0172 
-114.49 -116.842 88.0282 -113.949 -118.41 87.6054 -112.982 -118.916 87.639 
-112.223 -118.143 87.9372 -113.22 -106.605 89.3239 -113.185 -104.414 88.7647 
-113.252 -109.284 89.7445 -113.636 -111.921 89.4331 -114.053 -113.969 88.5707 
-113.88 -115.62 87.9709 -113.185 -116.775 87.8597 -112.419 -116.733 87.9528 
-111.715 -115.597 88.1289 -112.569 -104.6 88.8523 -112.488 -102.732 88.3331 
-112.601 -106.895 89.4009 -112.899 -109.349 89.54 -113.341 -111.337 89.079 
[...]
CELL_DATA 2000
SCALARS Distance double
LOOKUP_TABLE default
155.447 156.164 155.994 156.465 157.022 156.802 157.307 157.141 157.718 
158.008 157.74 158.282 158.069 158.673 158.488 159.128 159.119 158.812 
159.388 159.126 159.767 159.527 160.179 159.965 160.661 160.296 159.993 
160.617 160.32 160.997 160.707 161.405 161.118 161.834 161.591 162.371 
161.482 161.202 161.879 161.597 162.306 162.003 162.742 162.433 163.21 
162.897 163.723 163.44 164.335 162.712 162.417 163.104 162.847 163.565 
163.305 164.048 163.787 164.587 164.318 165.179 164.897 165.823 165.544 
166.519 163.961 163.664 164.308 164.043 164.721 164.499 165.23 165.038 
165.831 165.641 166.484 166.291 167.19 167.005 167.954 167.747 168.683 
165.066 164.848 165.44 165.196 165.812 165.601 166.315 166.165 166.981 
166.839 167.683 167.518 168.379 168.245 169.153 169.048 169.949 169.791 
170.603 155.015 154.636 155.104 155.706 154.312 154.765 155.395 155.868 
156.546 154.071 154.483 155.146 155.605 156.309 156.777 157.521 153.938 
154.272 154.906 155.369 156.106 156.586 157.352 157.818 158.612 153.908 
154.156 154.703 155.119 155.847 156.371 157.181 157.681 158.48 158.945 
159.754 153.96 154.16 154.672 154.968 155.653 156.116 156.96 157.502 
158.365 158.844 159.654 160.1 160.922 154.039 154.256 154.823 155.038 
155.702 156.021 156.836 157.312 158.229 158.741 159.62 160.054 160.887 
161.309 162.165 154.116 154.361 154.973 155.216 155.88 156.15 156.904 
157.272 158.14 158.622 159.531 160.018 160.882 161.317 162.166 162.592 
163.436 154.249 154.461 155.056 155.322 155.979 156.293 157.031 157.373 
158.169 158.569 159.414 159.894 160.749 161.25 162.083 162.563 163.371 
163.818 164.56 154.575 155.379 155.07 155.339 156.43 155.98 156.254 
155.922 156.296 157.758 157.228 157.571 157.047 157.45 157.03 157.451 
159.134 158.668 159.107 158.539 158.935 158.37 158.757 158.257 158.634 
160.516 160.075 160.578 160.075 160.466 159.894 160.21 159.639 159.953 
159.449 159.829 161.995 161.527 162.054 161.547 161.97 161.392 161.719 
161.108 161.409 160.825 161.185 160.693 161.134 163.398 162.993 163.517 
163.047 163.489 162.919 163.288 162.666 163.022 162.376 162.745 162.138 
162.561 162.049 162.497 164.7 164.329 164.862 164.454 164.891 164.395 
164.753 164.216 164.588 164.017 164.384 163.757 164.111 163.522 163.914 
163.401 163.795 166.106 165.68 166.253 165.805 166.262 165.755 166.099 
165.593 165.954 165.486 165.861 165.33 165.625 165.034 165.31 164.781 
165.107 164.634 164.953 165.696 165.873 166.144 166.88 166.12 166.356 
167.169 167.423 168.323 166.495 166.712 167.611 167.831 168.871 169.109 
170.254 166.765 167.104 168.093 168.383 169.513 169.78 171.03 171.265 
172.507 166.85 167.287 168.345 168.813 170.002 170.412 171.652 172.003 
173.235 173.505 174.649 167.009 167.4 168.495 169.004 170.25 170.781 
172.012 172.473 173.625 174.036 175.145 175.489 176.568 167.244 167.647 
168.763 169.219 170.473 170.995 172.257 172.744 173.883 174.303 175.386 
175.818 176.956 177.363 178.514 167.308 167.843 168.96 169.476 170.656 
171.196 172.418 172.958 174.113 174.552 175.621 176.036 177.198 177.687 
178.96 179.381 180.562 167.175 167.804 168.904 169.524 170.609 171.223 
172.333 172.987 174.115 174.701 175.748 176.23 177.318 177.873 179.152 
179.751 181.029 181.418 182.436 165.779 166.988 166.334 166.213 168.442 
167.65 167.579 166.796 166.639 170.357 169.332 169.3 168.34 168.257 
167.339 167.226 172.594 171.455 171.423 170.293 170.268 169.193 169.148 
168.099 168.005 174.797 173.739 173.707 172.53 172.487 171.355 171.34 
170.208 170.101 168.946 168.767 176.863 175.93 176.021 174.854 174.802 
173.612 173.581 172.441 172.351 171.142 170.915 169.695 169.472 178.919 
178.062 178.37 177.26 177.327 176.035 175.989 174.726 174.66 173.424 
173.25 171.95 171.7 170.443 170.258 180.94 180.165 180.587 179.649 
179.883 178.671 178.66 177.271 177.15 175.803 175.66 174.343 174.119 
172.777 172.521 171.259 171.055 182.712 182.074 182.437 181.726 182.017 
181.112 181.184 179.945 179.757 178.351 178.103 176.76 176.512 175.189 
174.862 173.537 173.189 171.969 171.675 183.651 184.746 183.951 183.374 
185.703 184.976 184.459 183.653 183.006 186.374 185.821 185.281 184.647 
184.035 183.2 182.282 186.364 186.172 185.581 185.243 184.608 184.035 
183.094 182.177 180.89 185.799 185.861 185.325 185.238 184.602 184.311 
183.386 182.743 181.467 180.531 179.15 184.998 185.225 184.783 184.822 
184.195 184.062 183.19 182.805 181.64 180.945 179.613 178.753 177.459 
183.704 184.244 183.801 184.112 183.456 183.499 182.639 182.463 181.416 
180.978 179.728 179.057 177.723 176.984 175.711 181.932 182.652 182.216 
182.825 182.235 182.554 181.751 181.792 180.826 180.625 179.45 178.99 
177.63 177.034 175.691 175.107 173.911 180.325 180.892 180.559 181.165 
180.76 181.221 180.592 180.803 179.925 179.907 178.794 178.536 177.213 
176.766 175.418 174.938 173.751 173.307 172.292 183.991 184.581 184.626 
185.083 184.641 185.019 185.664 185.683 186.074 184.319 184.904 185.75 
186.133 186.79 186.712 186.894 183.779 184.51 185.403 186.06 186.935 
187.281 187.613 187.303 186.974 182.739 183.777 184.603 185.501 186.312 
187.09 187.515 187.691 187.335 186.928 186.257 181.125 182.408 183.189 
184.348 184.971 186.038 186.396 187.096 186.844 186.907 186.204 185.961 
185.276 179.398 180.639 181.385 182.651 183.217 184.378 184.661 185.612 
185.506 186.038 185.519 185.622 184.889 184.786 183.968 177.777 178.901 
179.54 180.781 181.363 182.531 182.832 183.8 183.772 184.527 184.219 
184.679 184.068 184.175 183.293 183.188 182.206 176.114 177.194 177.666 
178.888 179.405 180.638 180.963 181.987 181.971 182.787 182.539 183.216 
182.763 183.155 182.401 182.433 181.503 181.381 180.541 167.421 168.41 
168.346 169.2 169.447 169.386 170.255 170.132 170.92 170.511 170.471 
171.393 171.237 172.071 171.877 172.675 171.504 171.561 172.592 172.463 
173.376 173.14 174.012 173.741 174.527 172.334 172.504 173.602 173.633 
174.612 174.486 175.379 175.141 175.945 175.601 176.237 173.168 173.325 
174.432 174.538 175.568 175.612 176.594 176.487 177.366 177.061 177.807 
177.326 177.927 174.121 174.239 175.376 175.412 176.526 176.576 177.774 
177.747 178.881 178.605 179.574 179.078 179.915 179.243 179.915 174.966 
175.182 176.352 176.429 177.614 177.676 179.034 179.082 180.433 180.258 
181.366 180.957 181.884 181.338 182.107 181.356 181.871 175.512 175.884 
177.069 177.322 178.526 178.743 180.099 180.33 181.687 181.741 182.797 
182.596 183.389 183.086 183.755 183.322 183.771 183.07 183.245 166.465 
165.326 166.365 167.384 164.211 165.186 166.136 167.296 168.382 163.101 
164.027 164.855 165.989 167.056 168.289 169.393 162.016 162.895 163.668 
164.702 165.701 166.921 168.029 169.269 170.329 161.091 161.873 162.618 
163.534 164.454 165.587 166.638 167.86 168.893 170.122 171.126 160.312 
161.024 161.659 162.472 163.226 164.292 165.235 166.448 167.406 168.628 
169.609 170.878 171.929 159.476 160.201 160.712 161.457 162.012 162.969 
163.766 164.965 165.889 167.116 168.051 169.322 170.395 171.733 172.855 
158.584 159.284 159.765 160.467 160.958 161.757 162.448 163.5 164.418 
165.607 166.567 167.784 168.812 170.152 171.294 172.658 173.709 157.874 
158.443 158.952 159.575 160.116 160.797 161.463 162.315 163.182 164.233 
165.204 166.35 167.347 168.592 169.656 171.018 172.071 173.398 174.282 
157.775 158.058 158.193 158.802 158.343 158.497 159.114 159.284 159.977 
158.605 158.776 159.472 159.655 160.422 160.573 161.379 159.088 159.146 
159.916 160.07 160.935 161.103 162.009 162.133 163.085 159.806 159.791 
160.576 160.643 161.555 161.692 162.679 162.827 163.863 163.995 165.065 
160.412 160.489 161.249 161.351 162.269 162.405 163.449 163.585 164.706 
164.836 165.995 166.092 167.229 160.871 160.999 161.778 161.951 162.91 
163.127 164.254 164.44 165.64 165.77 166.996 167.091 168.31 168.35 
169.533 161.461 161.526 162.402 162.526 163.585 163.797 165.029 165.27 
166.546 166.731 167.971 168.107 169.329 169.437 170.648 170.703 171.879 
162.229 162.264 163.243 163.316 164.459 164.605 165.886 166.098 167.406 
167.613 168.855 169.029 170.23 170.395 171.598 171.743 172.917 172.997 
174.074 162.993 164.726 163.934 164.149 166.676 165.846 166.153 165.248 
165.485 168.643 167.863 168.251 167.371 167.69 166.709 166.964 170.7 
169.912 170.428 169.548 169.977 168.999 169.306 168.252 168.482 173.081 
172.195 172.896 171.917 172.486 171.426 171.831 170.688 170.924 169.771 
169.937 175.624 174.767 175.551 174.566 175.217 174.115 174.619 173.394 
173.707 172.38 172.536 171.247 171.366 177.714 177.153 177.892 177.147 
177.781 176.836 177.368 176.251 176.664 175.343 175.559 174.078 174.153 
172.73 172.797 179.02 178.821 179.552 179.183 179.859 179.202 179.74 
178.85 179.299 178.228 178.523 177.174 177.218 175.678 175.61 174.153 
174.127 179.844 179.826 180.645 180.569 181.395 181.053 181.668 181.011 
181.429 180.606 180.9 179.888 179.934 178.614 178.409 176.946 176.719 
175.358 175.224 162.638 162.545 163.12 164.267 162.404 163.015 164.205 
164.881 166.17 162.207 162.858 164.078 164.813 166.153 166.833 168.119 
161.899 162.608 163.821 164.639 165.991 166.769 168.072 168.741 170.053 
161.466 162.208 163.381 164.284 165.643 166.531 167.85 168.612 169.957 
170.728 172.261 161.071 161.743 162.886 163.782 165.204 166.161 167.575 
168.375 169.773 170.593 172.218 173.114 174.792 160.907 161.448 162.581 
163.348 164.825 165.785 167.342 168.174 169.625 170.422 172.052 173.028 
174.76 175.628 177.02 160.934 161.409 162.512 163.144 164.562 165.476 
167.089 167.995 169.465 170.261 171.767 172.76 174.435 175.459 176.842 
177.536 178.429 160.978 161.464 162.502 163.076 164.341 165.195 166.733 
167.713 169.183 170.028 171.387 172.329 173.849 174.961 176.368 177.224 
178.135 178.646 179.255 161.698 160.42 161.233 161.597 159.205 159.984 
160.309 161.109 161.445 158.003 158.76 159.051 159.821 160.078 160.903 
161.21 156.837 157.54 157.738 158.492 158.655 159.471 159.69 160.605 
160.892 155.67 156.335 156.425 157.125 157.19 157.966 158.113 159.021 
159.285 160.241 160.507 154.518 155.119 155.15 155.791 155.819 156.518 
156.635 157.454 157.701 158.624 158.918 159.845 160.133 153.559 154.021 
154.021 154.549 154.569 155.198 155.334 156.072 156.302 157.111 157.369 
158.254 158.565 159.518 159.915 152.802 153.163 153.14 153.536 153.534 
154.039 154.167 154.833 155.07 155.8 156.006 156.765 157 157.915 
158.319 159.367 159.885 152.093 152.429 152.395 152.745 152.755 153.147 
153.251 153.766 153.974 154.611 154.816 155.48 155.655 156.415 156.736 
157.725 158.251 159.362 159.926 151.687 151.237 151.613 151.985 151.026 
151.257 151.648 152 152.419 151.058 151.176 151.57 151.811 152.272 
152.528 152.967 151.235 151.284 151.646 151.815 152.225 152.44 152.838 
153.109 153.6 151.654 151.565 151.865 151.898 152.169 152.326 152.611 
152.907 153.336 153.758 154.336 152.366 152.14 152.387 152.202 152.345 
152.279 152.479 152.654 153.094 153.48 154.102 154.537 155.191 153.163 
152.911 153.136 152.837 152.963 152.656 152.863 152.752 153.271 153.438 
154.19 154.468 155.244 155.533 156.317 153.916 153.672 153.911 153.627 
153.843 153.477 153.767 153.461 154.019 153.939 154.75 154.832 155.702 
155.836 156.724 156.917 157.862 154.68 154.417 154.697 154.436 154.765 
154.455 154.849 154.527 155.072 154.871 155.617 155.575 156.436 156.481 
157.397 157.507 158.479 158.641 159.594 155.234 156.247 155.563 155.289 
157.506 156.711 156.438 155.7 155.436 158.935 158.083 157.845 156.994 
156.738 155.918 155.64 160.513 159.624 159.468 158.54 158.321 157.37 
157.108 156.198 155.952 162.24 161.311 161.259 160.304 160.183 159.128 
158.908 157.839 157.626 156.65 156.515 164.17 163.144 163.111 162.154 
162.116 161.099 160.979 159.842 159.688 158.541 158.439 157.391 157.353 
166.366 165.226 165.164 164.075 164.011 163.009 162.954 161.941 161.882 
160.766 160.705 159.525 159.486 158.362 158.361 168.602 167.513 167.497 
166.288 166.199 165.011 164.938 163.883 163.877 162.889 162.877 161.809 
161.744 160.6 160.547 159.432 159.44 170.56 169.666 169.729 168.649 
168.613 167.372 167.291 166.044 166.015 164.902 164.904 163.867 163.794 
162.739 162.615 161.567 161.493 160.481 160.473 161.313 162.325 162.153 
162.856 163.458 163.242 164.053 163.839 164.75 164.729 164.517 165.486 
165.237 166.337 166.064 167.193 166.004 165.902 167.064 166.859 168.082 
167.809 168.984 168.64 169.65 167.262 167.249 168.559 168.475 169.751 
169.564 170.72 170.413 171.409 170.989 171.881 168.583 168.585 169.935 
169.922 171.207 171.121 172.308 172.096 173.195 172.814 173.856 173.342 
174.369 169.832 169.884 171.177 171.227 172.504 172.497 173.762 173.66 
174.916 174.663 175.838 175.41 176.443 175.914 176.801 170.832 170.971 
172.175 172.331 173.61 173.734 175.076 175.111 176.445 176.352 177.544 
177.283 178.197 177.784 178.424 177.969 178.446 171.586 171.795 172.943 
173.185 174.471 174.741 176.133 176.344 177.681 177.746 178.877 178.768 
179.605 179.296 179.822 179.362 179.695 179.233 179.531 153.67 153.519 
153.286 152.712 153.505 153.23 152.704 152.418 151.999 153.524 153.287 
152.839 152.53 152.121 151.876 151.632 153.492 153.309 152.885 152.652 
152.181 151.958 151.567 151.486 151.218 153.431 153.233 152.757 152.592 
152.066 151.887 151.387 151.29 150.924 150.933 150.647 153.478 153.172 
152.621 152.405 151.88 151.706 151.261 151.121 150.83 150.73 150.555 
150.463 150.349 153.733 153.31 152.757 152.374 151.864 151.586 151.221 
151.069 150.894 150.795 150.724 150.584 150.551 150.408 150.483 154.125 
153.676 153.212 152.716 152.266 151.797 151.444 151.146 150.982 150.882 
150.835 150.777 150.737 150.652 150.688 150.664 150.877 154.549 154.127 
153.757 153.292 152.942 152.412 152.088 151.59 151.382 151.072 151.015 
150.878 150.873 150.79 150.825 150.809 150.99 151.083 151.404 153.661 
152.642 153.207 153.414 151.877 152.226 152.388 153.011 153.366 151.563 
151.685 151.789 152.143 152.528 153.128 153.653 151.262 151.461 151.564 
151.77 152.109 152.512 153.09 153.63 154.248 150.675 151.005 151.117 
151.476 151.749 152.175 152.68 153.192 153.797 154.313 154.862 150.289 
150.432 150.522 150.877 151.153 151.664 152.125 152.715 153.26 153.832 
154.333 154.848 155.28 150.477 150.342 150.472 150.51 150.853 151.141 
151.665 152.137 152.709 153.243 153.761 154.281 154.732 155.217 155.647 
151.018 150.798 151.028 150.837 151.234 151.212 151.783 151.949 152.561 
152.85 153.423 153.801 154.344 154.756 155.27 155.676 156.179 151.625 
151.444 151.732 151.536 151.916 151.804 152.334 152.335 152.916 152.977 
153.53 153.687 154.272 154.55 155.161 155.469 156.036 156.34 156.868 
154.248 154.105 154.485 155.121 154.085 154.421 155.12 155.44 156.148 
154.295 154.489 155.176 155.471 156.182 156.539 157.351 154.788 154.812 
155.413 155.581 156.24 156.544 157.295 157.744 158.616 155.354 155.345 
155.86 155.904 156.478 156.645 157.338 157.683 158.541 159.025 159.984 
155.779 155.839 156.33 156.36 156.877 156.951 157.616 157.836 158.725 
159.086 160.107 160.52 161.522 156.17 156.239 156.802 156.833 157.388 
157.401 158.071 158.212 159.135 159.429 160.489 160.806 161.796 162.098 
162.977 156.69 156.71 157.382 157.406 158.092 158.043 158.753 158.768 
159.657 159.884 160.917 161.229 162.177 162.427 163.24 163.487 164.279 
157.317 157.3 157.999 158.061 158.838 158.846 159.594 159.551 160.334 
160.425 161.325 161.59 162.487 162.762 163.561 163.789 164.58 164.823 
165.67 161.468 160.743 160.784 160.201 160.185 160.121 159.484 159.523 
158.962 159.736 159.637 158.946 158.857 158.209 158.275 157.761 159.129 
159.136 158.472 158.381 157.707 157.625 157.057 157.127 156.666 158.424 
158.45 157.854 157.869 157.29 157.219 156.642 156.563 156.031 156.065 
155.571 157.981 157.858 157.283 157.254 156.743 156.764 156.248 156.196 
155.594 155.508 154.911 154.941 154.438 157.764 157.573 156.974 156.807 
156.227 156.193 155.678 155.713 155.14 155.073 154.418 154.343 153.801 
153.867 153.485 157.493 157.353 156.73 156.542 155.862 155.714 155.099 
155.097 154.56 154.567 153.976 153.894 153.332 153.315 152.928 153.033 
152.746 157.183 157.036 156.416 156.251 155.563 155.363 154.682 154.566 
153.999 153.994 153.464 153.439 152.89 152.866 152.422 152.502 152.192 
152.332 152.052 
POINT_DATA 1002
SCALARS Distance double
LOOKUP_TABLE default
155.831 154.944 155.567 156.586 156.343 156.98 157.48 157.246 157.859 
158.318 158.496 158.283 158.871 159.29 159.778 159.657 159.418 160.013 
160.42 160.83 161.378 160.906 160.565 161.29 161.69 162.107 162.565 
163.171 162.136 161.748 162.598 163.032 163.504 164.019 164.586 165.25 
163.369 163.022 163.809 164.289 164.826 165.434 166.087 166.798 167.51 
164.603 164.258 164.953 165.402 166.001 166.667 167.355 168.132 168.934 
169.606 165.683 165.258 166.035 166.451 167.095 167.851 168.534 169.25 
170.079 170.835 171.372 154.537 155.211 154.163 154.925 153.852 156.052 
154.675 153.689 155.843 157.036 154.454 153.673 155.593 156.885 158.137 
154.345 153.71 155.314 156.638 158.024 159.282 154.429 153.745 155.248 
156.4 157.845 159.228 160.455 154.601 153.776 155.443 156.418 157.693 
159.152 160.482 161.726 154.711 153.862 155.61 156.592 157.706 159.022 
160.421 161.744 163.03 154.813 154.073 155.648 156.681 157.822 158.982 
160.241 161.589 162.919 164.166 154.841 155.56 155.74 156.644 156.908 
156.562 158.134 158.234 157.939 157.852 159.641 159.531 159.549 159.322 
159.101 161.059 160.963 161.038 160.814 160.496 160.265 162.561 162.465 
162.547 162.329 162.018 161.717 161.575 163.955 163.775 164.037 163.885 
163.655 163.396 163.123 162.986 165.26 165.069 165.374 165.266 165.111 
165.003 164.755 164.458 164.301 166.716 166.539 166.789 166.629 166.406 
166.349 166.234 165.89 165.586 165.435 166.398 166.6 167.646 166.886 
168.026 169.301 167.364 168.586 170.005 171.457 167.716 169.205 170.755 
172.335 173.732 167.801 169.524 171.283 172.923 174.45 175.77 167.997 
169.691 171.54 173.219 174.739 176.252 177.69 168.322 169.974 171.759 
173.478 174.957 176.468 178.154 179.707 168.426 170.138 171.857 173.641 
175.225 176.687 178.445 180.289 181.696 168.275 170.014 171.677 173.466 
175.242 176.782 178.493 180.527 182.277 183.341 166.924 168.383 167.432 
170.314 169.207 168.135 172.596 171.361 170.239 169.071 174.892 173.637 
172.467 171.315 169.92 177.138 176.041 174.736 173.545 172.194 170.635 
179.369 178.613 177.338 175.903 174.538 173.023 171.447 181.426 180.974 
180.071 178.581 176.975 175.475 173.865 172.254 183.107 182.784 182.298 
181.19 179.507 177.836 176.232 174.495 172.821 184.513 184.238 185.494 
185.202 186.421 183.943 185.847 186.859 184.802 183.366 185.816 186.422 
185.087 183.943 181.981 185.348 185.631 184.815 183.909 182.313 180.115 
184.698 184.666 184.307 183.468 182.201 180.414 178.315 183.373 183.078 
183.336 182.729 181.726 180.328 178.449 176.41 181.509 181.216 181.771 
181.602 180.928 179.829 178.198 176.247 174.419 179.954 179.809 180.219 
180.294 179.883 178.971 177.587 175.858 174.151 172.684 184.124 185.247 
184.378 185.439 184.113 186.314 185.167 183.687 186.654 187.408 184.683 
182.977 186.369 187.79 187.645 183.678 181.573 185.46 187.117 187.642 
186.72 181.982 179.828 183.918 185.546 186.53 186.36 185.533 180.116 
178.254 182.063 183.681 184.766 185.226 184.975 184.162 178.338 176.742 
180.172 181.86 182.962 183.596 183.842 183.392 182.33 176.504 175.097 
178.159 179.889 181.146 181.811 182.218 182.236 181.583 180.602 167.453 
169.313 168.465 170.382 169.497 171.071 171.539 170.501 172.26 172.885 
172.648 171.366 173.595 174.28 174.875 173.503 172.135 174.66 175.588 
176.276 176.692 174.342 173.032 175.455 176.595 177.606 178.225 178.514 
175.347 173.988 176.443 177.685 179.051 179.998 180.51 180.735 176.214 
174.7 177.501 178.906 180.522 181.736 182.373 182.78 182.817 165.407 
166.238 164.338 164.985 163.314 167.188 163.785 162.208 165.799 168.186 
162.696 161.147 164.527 166.783 169.123 161.778 160.351 163.384 165.455 
167.68 169.88 160.947 159.641 162.256 164.041 166.212 168.329 170.624 
160.02 158.771 161.173 162.613 164.646 166.811 169.017 171.547 159.064 
157.918 160.215 161.491 163.244 165.365 167.527 169.896 172.443 158.347 