# vtk DataFile Version 4.0
vtk output
ASCII
DATASET POLYDATA
POINTS 1002 float
-102.668 -75.7424 68.3618 -102.812 -75.2901 67.0069 -103.101 -74.9275 68.0686 
-103.053 -75.4788 69.4821 -103.527 -74.7154 69.0722 -102.68 -76.3889 69.7642 
-103.644 -75.4504 70.4931 -104.247 -74.7026 69.9486 -103.171 -76.2809 70.9511 
-102.846 -77.334 71.2915 -104.509 -75.6349 71.3647 -105.123 -74.819 70.8798 
-103.882 -76.4409 71.9602 -103.439 -77.4213 72.4974 -103.081 -78.4168 73.0227 
-105.397 -75.8816 72.3627 -105.826 -74.9689 72.035 -104.796 -76.7706 72.8711 
-104.268 -77.7203 73.4651 -103.858 -78.6581 74.0736 -103.498 -79.5161 74.6658 
-106.075 -76.1276 73.6205 -106.444 -75.218 73.2348 -105.639 -77.0891 74.0435 
-105.185 -78.0836 74.5227 -104.81 -79.0583 75.0415 -104.467 -79.9596 75.5705 
-104.214 -80.9301 76.0467 -106.76 -76.4956 74.8527 -107.239 -75.6913 74.2586 
-106.322 -77.4081 75.4108 -105.951 -78.4177 75.8915 -105.646 -79.4807 76.3334 
-105.355 -80.5387 76.77 -105.112 -81.5948 77.1854 -104.97 -82.6343 77.5759 
-107.593 -77.0182 75.8676 -108.082 -76.2842 75.1733 -107.077 -77.8635 76.5535 
-106.665 -78.8755 77.1446 -106.361 -79.9903 77.6753 -106.057 -81.1252 78.1858 
-105.793 -82.2581 78.639 -105.649 -83.3091 79.034 -105.579 -84.2167 79.4125 
-108.396 -77.5512 76.7522 -108.789 -76.7987 76.0713 -107.915 -78.4106 77.4284 
-107.488 -79.4881 78.0342 -107.175 -80.7097 78.6287 -106.84 -81.8571 79.2885 
-106.489 -82.9179 79.9152 -106.281 -83.9574 80.4056 -106.221 -84.9237 80.8051 
-106.212 -85.8147 81.1598 -109.069 -78.0413 77.5351 -109.392 -77.2231 76.8934 
-108.666 -78.9596 78.1837 -108.285 -80.0871 78.791 -108.016 -81.4218 79.3822 
-107.731 -82.6846 80.073 -107.349 -83.719 80.8396 -107.045 -84.7118 81.4841 
-106.932 -85.7669 81.9358 -106.938 -86.8088 82.2773 -106.979 -87.7915 82.5494 
-103.195 -74.6006 66.3424 -103.473 -74.1617 67.4398 -103.644 -73.8586 65.7537 
-103.96 -73.333 66.8692 -104.256 -73.2397 65.1842 -103.95 -73.8698 68.4245 
-104.723 -72.7537 66.2763 -105.09 -72.8197 64.4368 -104.545 -73.0075 67.8557 
-104.747 -73.8084 69.3651 -105.767 -72.408 65.5227 -106.044 -72.3414 63.5899 
-105.487 -72.4967 67.296 -105.405 -72.9946 68.9059 -105.567 -73.9096 70.5076 
-106.82 -71.8516 64.7835 -107.004 -71.7258 62.9721 -106.651 -72.0899 66.668 
-106.434 -72.4928 68.4283 -106.235 -73.1476 70.1671 -106.239 -74.0801 71.7829 
-107.661 -71.1346 64.2719 -107.856 -71.157 62.5829 -107.607 -71.3741 66.1243 
-107.549 -71.9095 67.8947 -107.293 -72.5595 69.6836 -107.025 -73.3434 71.4136 
-107.03 -74.4352 72.886 -108.311 -70.5475 63.8847 -108.518 -70.6078 62.196 
-108.258 -70.6382 65.7546 -108.302 -71.0925 67.4921 -108.229 -71.8268 69.1842 
-108.007 -72.6681 70.9311 -107.861 -73.7425 72.4669 -107.922 -75.042 73.8141 
-108.969 -70.0627 63.5287 -109.157 -70.0876 61.8296 -108.908 -70.0954 65.474 
-108.918 -70.3559 67.2781 -108.86 -70.9787 68.8828 -108.725 -71.8805 70.5174 
-108.616 -73.0277 72.068 -108.597 -74.3708 73.4178 -108.674 -75.6758 74.7471 
-109.797 -69.7282 63.2776 -109.961 -69.7986 61.65 -109.743 -69.7055 65.2191 
-109.745 -69.8159 67.1099 -109.64 -70.2568 68.7206 -109.42 -71.0912 70.2162 
-109.263 -72.2638 71.6915 -109.217 -73.6452 73.0515 -109.234 -74.9939 74.3677 
-109.305 -76.1662 75.6928 -110.837 -69.7162 62.6592 -110.741 -69.6017 64.4976 
-111.768 -69.8866 63.8824 -111.659 -69.8187 65.7166 -112.475 -70.3914 64.9658 
-110.725 -69.5539 66.518 -112.275 -70.548 66.6758 -113.055 -71.1833 65.8433 
-111.594 -69.9122 67.6346 -110.682 -69.7931 68.3403 -112.817 -71.4652 67.5726 
-113.754 -71.8934 66.8379 -112.165 -70.9201 68.5094 -111.515 -70.4444 69.3367 
-110.453 -70.5166 69.8834 -113.528 -72.1147 68.7501 -114.288 -72.5453 68.1644 
-112.718 -71.9703 69.4866 -112.116 -71.6919 70.2071 -111.278 -71.4685 70.8413 
-110.156 -71.6916 71.3449 -114.053 -72.9732 70.2284 -114.265 -73.6945 69.7366 
-113.409 -72.7853 70.8223 -112.653 -72.8458 71.3615 -111.923 -72.7859 71.8657 
-110.998 -72.8099 72.3745 -109.991 -73.1403 72.7951 -114.183 -74.4811 71.7518 
-113.987 -75.2636 71.2822 -113.978 -73.9574 72.3513 -113.286 -73.8852 72.8715 
-112.442 -73.9877 73.2701 -111.673 -74.0624 73.649 -110.817 -74.2302 74.0077 
-109.932 -74.5736 74.2526 -114.237 -76.0893 72.9884 -113.935 -76.6726 72.5124 
-114.305 -75.4769 73.6826 -113.886 -75.1634 74.3343 -113.033 -75.1914 74.7697 
-112.189 -75.3034 75.0993 -111.481 -75.3764 75.408 -110.706 -75.5251 75.6207 
-109.929 -75.8194 75.6975 -114.366 -77.3893 73.8556 -114.079 -77.8151 73.4142 
-114.464 -76.8614 74.619 -114.239 -76.5087 75.4429 -113.581 -76.4905 75.9904 
-112.706 -76.6158 76.3193 -111.962 -76.6432 76.6503 -111.327 -76.6249 76.9203 
-110.643 -76.7319 77.01 -109.969 -76.9698 76.9709 -109.797 -78.2788 78.0192 
-110.438 -78.1272 78.1367 -110.167 -79.7291 79.1355 -111.096 -77.989 78.2076 
-110.84 -79.6777 79.3206 -110.509 -81.4966 80.4206 -111.702 -77.9899 78.0667 
-111.474 -79.582 79.4354 -111.234 -81.5089 80.7151 -110.964 -83.4861 81.9306 
-112.359 -78.0969 77.7036 -112.069 -79.6588 79.226 -111.888 -81.5227 80.8185 
-111.722 -83.7063 82.2337 -111.539 -85.8362 83.4149 -113.169 -78.0687 77.3823 
-112.741 -79.8572 78.8577 -112.466 -81.7838 80.5336 -112.312 -84.0319 82.1836 
-112.173 -86.3977 83.5919 -112.04 -88.5162 84.7422 -113.908 -77.9054 77.0018 
-113.424 -79.8436 78.6173 -113.058 -82.0516 80.2722 -112.815 -84.3818 81.8874 
-112.633 -86.8798 83.4394 -112.545 -89.2527 84.8505 -112.495 -91.3419 85.9771 
-114.331 -77.9556 76.192 -113.912 -79.6979 78.0749 -113.583 -82.0173 80.0512 
-113.398 -84.452 81.7574 -113.159 -86.9751 83.26 -113.028 -89.6303 84.7679 
-113.066 -92.1517 86.1029 -113.053 -94.4136 87.0461 -114.457 -78.344 75.1848 
-114.169 -79.7979 77.0115 -113.883 -81.8964 79.2701 -113.871 -84.2909 81.399 
-113.773 -86.7928 83.1029 -113.563 -89.5845 84.633 -113.585 -92.5465 86.0629 
-113.687 -95.3109 87.1627 -113.617 -97.6758 87.825 -114.337 -78.8119 74.4979 
-114.223 -80.1477 76.0211 -113.955 -81.9391 78.1187 -113.99 -84.0936 80.4119 
-114.118 -86.5532 82.4614 -113.973 -89.4369 84.2416 -113.894 -92.6435 85.8001 
-114.06 -95.7734 87.0307 -114.145 -98.4914 87.8558 -114.03 -100.681 88.2811 
-109.422 -79.3227 78.6996 -109.743 -81.0165 79.959 -109.023 -80.4957 79.4376 
-110.122 -82.9994 81.4499 -109.388 -82.394 80.9204 -108.745 -81.889 80.1731 
-110.714 -85.2812 83.0193 -109.874 -84.6123 82.54 -109.19 -83.9518 81.8355 
-108.533 -83.3767 80.9094 -111.411 -87.9414 84.4683 -110.603 -87.2876 84.0178 
-109.745 -86.4388 83.4418 -108.971 -85.5469 82.6628 -108.203 -84.6577 81.7369 
-111.988 -90.8167 85.8264 -111.39 -90.2665 85.4044 -110.57 -89.4532 84.7978 
-109.586 -88.2802 84.2061 -108.685 -87.033 83.5112 -107.864 -85.8156 82.5439 
-112.504 -93.9432 87 -111.997 -93.362 86.7412 -111.415 -92.6009 86.1318 
-110.51 -91.4163 85.4451 -109.436 -90.0061 84.9579 -108.515 -88.5707 84.2372 
-107.708 -87.0907 83.1093 -113.058 -97.3944 87.8067 -112.499 -96.7948 87.7133 
-112.007 -95.9145 87.3534 -111.366 -94.6243 86.6293 -110.4 -93.1068 86.019 
-109.359 -91.6775 85.5479 -108.494 -90.142 84.6528 -107.711 -88.3989 83.4361 
-113.578 -100.732 88.2487 -113.033 -100.383 88.1575 -112.489 -99.6015 88.045 
-111.946 -98.245 87.6216 -111.236 -96.4109 86.9525 -110.285 -94.6708 86.4494 
-109.343 -93.1853 85.8494 -108.554 -91.507 84.8124 -107.78 -89.5704 83.6374 
-114.157 -103.581 88.4437 -113.746 -103.755 88.2776 -114.438 -106.468 88.1949 
-114.028 -106.756 87.8944 -114.815 -109.346 87.5404 -113.186 -103.489 88.134 
-114.23 -109.482 87.2191 -114.93 -111.838 86.5916 -113.356 -106.557 87.7532 
-112.549 -102.559 88.0555 -114.16 -111.283 86.379 -114.656 -113.139 85.3703 
-113.441 -108.963 87.1283 -112.641 -105.395 87.7509 -111.917 -100.65 87.6889 
-113.93 -111.805 85.3768 -114.2 -113.151 84.1 -113.423 -110.018 86.3256 
-112.754 -107.292 87.1704 -111.966 -102.864 87.536 -111.126 -98.1668 87.1564 
-113.524 -111.616 84.5502 -113.558 -112.524 83.4383 -113.235 -109.999 85.5365 
-112.71 -107.818 86.4535 -111.984 -104.228 87.1402 -111.078 -99.7337 87.1613 
-110.154 -96.0137 86.6274 -112.81 -110.89 84.3199 -112.738 -111.286 83.5926 
-112.731 -109.471 85.1267 -112.381 -107.439 85.9242 -111.8 -104.539 86.6259 
-111.009 -100.697 86.8611 -110.114 -97.0814 86.4868 -109.277 -94.1833 85.7401 
-112.046 -109.028 84.4312 -112.041 -109.008 83.9879 -112.045 -108.056 85.014 
-111.882 -106.342 85.6304 -111.499 -103.982 86.1521 -110.883 -100.863 86.3384 
-110.097 -97.6178 86.0382 -109.267 -94.7982 85.3851 -108.478 -92.141 84.5568 
-111.512 -106.089 84.3959 -111.605 -105.922 84.109 -111.441 -105.551 84.8003 
-111.32 -104.389 85.2726 -111.081 -102.676 85.6533 -110.623 -100.277 85.7398 
-109.936 -97.5148 85.4488 -109.139 -94.9292 84.8943 -108.331 -92.4508 84.2097 
-107.586 -89.971 83.4222 -114.399 -102.087 88.2744 -114.587 -105.058 88.2746 
-114.631 -103.139 87.8302 -114.934 -106.185 87.5334 -114.755 -103.703 87.0589 
-114.98 -108.128 87.8108 -115.074 -106.772 86.5393 -114.749 -103.514 86.3793 
-115.349 -109.483 86.8192 -115.382 -111.274 86.8769 -114.877 -106.352 85.9579 
-114.623 -102.345 85.8015 -115.294 -109.955 85.7854 -115.598 -112.598 85.6169 
-115.352 -113.641 85.4601 -114.574 -104.608 85.6093 -114.422 -100.286 84.9709 
-114.903 -108.937 85.415 -115.362 -112.462 84.5844 -115.413 -114.296 83.8509 
-114.881 -114.254 83.7434 -114.3 -101.782 84.9214 -114.023 -97.7259 83.9731 
-114.596 -106.366 85.2441 -115.022 -110.664 84.4627 -115.252 -113.384 83.0568 
-114.911 -114.034 82.266 -114.218 -113.47 82.5816 -113.752 -98.5482 84.0352 
-113.356 -95.1316 83.0258 -114.202 -102.722 84.707 -114.675 -107.313 84.6101 
-115.006 -111.013 83.5738 -114.883 -112.602 82.343 -114.225 -112.572 81.9912 
-113.405 -112.106 82.634 -112.939 -95.5223 83.0966 -112.645 -92.8101 81.9579 
-113.413 -98.8727 83.9445 -113.948 -102.897 84.3749 -114.373 -106.956 84.2439 
-114.545 -109.727 83.5476 -114.22 -110.639 82.8379 -113.427 -110.544 82.7884 
-112.605 -110.083 83.3447 -112.249 -92.961 81.8613 -112.109 -90.8547 80.616 
-112.568 -95.5285 82.9012 -112.995 -98.6004 83.6482 -113.356 -102.004 84.1311 
[...]
CELL_DATA 2000
SCALARS Distance double
LOOKUP_TABLE default
143.402 144.019 143.881 144.304 144.847 144.623 145.11 144.929 145.493 
145.909 145.605 146.14 145.87 146.487 146.292 146.98 147.079 146.771 
147.349 147.023 147.667 147.402 148.128 147.901 148.639 148.248 147.97 
148.613 148.3 148.981 148.674 149.43 149.149 149.933 149.649 150.458 
149.494 149.187 149.886 149.59 150.327 150.031 150.823 150.529 151.368 
151.054 151.925 151.613 152.535 150.83 150.501 151.208 150.901 151.664 
151.386 152.217 151.95 152.828 152.54 153.447 153.146 154.082 153.784 
154.731 152.106 151.827 152.52 152.231 152.987 152.729 153.587 153.353 
154.27 154.012 154.93 154.653 155.579 155.309 156.246 155.966 156.902 
153.228 153.025 153.711 153.485 154.231 154.022 154.889 154.713 155.666 
155.457 156.396 156.129 157.051 156.779 157.729 157.466 158.443 158.158 
159.142 143.014 142.631 143.044 143.57 142.362 142.678 143.169 143.647 
144.321 142.331 142.515 142.958 143.295 143.957 144.504 145.336 142.459 
142.61 143.089 143.253 143.869 144.235 145.052 145.606 146.487 142.585 
142.774 143.345 143.509 144.134 144.33 145.071 145.427 146.268 146.775 
147.644 142.704 142.886 143.448 143.717 144.381 144.633 145.337 145.579 
146.336 146.669 147.512 147.98 148.89 142.794 142.97 143.456 143.751 
144.391 144.751 145.45 145.784 146.498 146.808 147.585 147.956 148.841 
149.308 150.24 142.872 143.033 143.531 143.778 144.41 144.727 145.412 
145.775 146.48 146.868 147.616 148.023 148.845 149.292 150.177 150.659 
151.528 143.146 143.209 143.792 143.952 144.644 144.854 145.56 145.8 
146.499 146.816 147.567 147.978 148.79 149.25 150.094 150.573 151.411 
151.884 152.666 143.632 144.824 144.211 144.308 146.131 145.497 145.571 
144.995 145.171 147.365 146.777 146.877 146.306 146.454 145.895 146.073 
148.621 148.009 148.144 147.6 147.799 147.224 147.382 146.79 146.976 
149.953 149.322 149.475 148.907 149.172 148.607 148.835 148.185 148.362 
147.745 148.018 151.298 150.712 150.936 150.329 150.631 150.04 150.345 
149.704 149.948 149.256 149.52 148.899 149.259 152.644 152.13 152.505 
151.897 152.265 151.605 151.944 151.274 151.592 150.906 151.212 150.516 
150.846 150.209 150.584 153.942 153.528 154.015 153.507 153.951 153.316 
153.667 152.955 153.273 152.58 152.916 152.233 152.557 151.865 152.187 
151.542 151.89 155.097 154.785 155.275 154.921 155.379 154.917 155.274 
154.659 154.929 154.255 154.539 153.893 154.199 153.547 153.831 153.164 
153.449 152.82 153.122 153.976 154.356 154.58 155.449 154.757 154.997 
155.918 156.146 157.114 155.118 155.391 156.334 156.622 157.665 157.929 
159.047 155.462 155.736 156.686 157.011 158.106 158.472 159.701 160.011 
161.284 155.855 156.105 157.066 157.373 158.485 158.893 160.187 160.629 
162.003 162.348 163.688 156.155 156.466 157.409 157.759 158.875 159.294 
160.584 161.07 162.476 162.967 164.386 164.762 166.119 156.189 156.608 
157.479 157.97 159.078 159.634 160.93 161.462 162.834 163.363 164.818 
165.35 166.839 167.233 168.653 156.046 156.502 157.298 157.857 158.907 
159.639 160.954 161.69 163.064 163.677 165.096 165.708 167.271 167.87 
169.453 169.843 171.274 155.86 156.318 157.085 157.609 158.562 159.302 
160.543 161.464 162.847 163.712 165.109 165.881 167.403 168.181 169.82 
170.493 172.017 172.409 173.68 154.037 155.507 154.698 154.575 157.193 
156.282 156.197 155.299 155.18 159.17 158.132 158.112 157.089 157.045 
156.035 155.953 161.461 160.311 160.362 159.201 159.219 158.086 158.06 
156.936 156.826 163.936 162.773 162.92 161.658 161.715 160.436 160.418 
159.174 159.057 157.833 157.613 166.441 165.333 165.613 164.364 164.502 
163.115 163.097 161.678 161.558 160.181 159.96 158.616 158.322 169.007 
167.909 168.297 167.109 167.359 166.001 166.022 164.505 164.381 162.853 
162.673 161.157 160.881 159.39 159.069 171.632 170.556 170.989 169.828 
170.145 168.862 168.938 167.455 167.306 165.749 165.561 164.013 163.778 
162.162 161.816 160.213 159.849 174.047 173.134 173.576 172.507 172.842 
171.64 171.778 170.358 170.216 168.647 168.389 166.862 166.616 165.081 
164.748 163.098 162.663 161.016 160.593 175.395 177.217 175.926 175.02 
178.937 177.722 176.86 175.449 174.339 180.342 179.337 178.504 177.242 
176.129 174.638 173.277 180.957 180.412 179.601 178.698 177.631 176.324 
174.85 173.295 171.652 180.585 180.548 179.8 179.397 178.419 177.556 
176.097 174.699 172.873 171.382 169.688 179.674 179.905 179.278 179.21 
178.312 177.925 176.591 175.626 173.784 172.428 170.575 169.324 167.781 
178.566 178.948 178.409 178.508 177.633 177.505 176.278 175.751 174.05 
173.045 171.155 170.037 168.357 167.35 165.852 177.081 177.682 177.097 
177.442 176.529 176.621 175.422 175.207 173.654 173.023 171.217 170.35 
168.602 167.725 166.115 165.249 163.71 175.112 175.887 175.188 175.798 
174.843 175.229 174.053 174.153 172.706 172.421 170.713 170.138 168.385 
167.714 166.049 165.326 163.728 162.978 161.507 175.836 176.716 176.801 
177.651 177.079 177.507 178.559 178.618 179.398 176.924 177.676 178.909 
179.364 180.374 180.349 180.894 176.206 177.293 178.594 179.459 180.601 
181.061 181.697 181.553 181.547 174.816 176.259 177.56 178.812 179.934 
180.86 181.477 181.854 181.758 181.593 181.039 172.781 174.494 175.764 
177.389 178.517 179.814 180.433 181.172 181.05 181.258 180.64 180.587 
179.901 170.369 172.149 173.268 175.168 176.29 178.014 178.78 179.903 
179.948 180.356 179.808 179.885 179.221 179.292 178.682 167.911 169.571 
170.44 172.355 173.293 175.325 176.127 177.855 178.151 179.119 178.762 
179.043 178.377 178.477 177.828 177.961 177.245 165.614 167.069 167.713 
169.422 170.108 172.061 172.685 174.715 175.075 176.78 176.652 177.666 
177.07 177.501 176.727 176.953 176.141 176.299 175.361 155.967 156.597 
156.615 157.275 157.35 157.368 158.164 158.052 158.816 158.224 158.246 
159.171 159.071 159.962 159.819 160.806 159.207 159.228 160.265 160.186 
161.196 161.072 162.186 162.063 163.183 160.335 160.339 161.549 161.453 
162.656 162.478 163.762 163.594 164.907 164.618 165.68 161.634 161.638 
163.084 162.99 164.486 164.248 165.787 165.479 167.028 166.622 167.95 
167.294 168.246 162.949 163.052 164.675 164.702 166.432 166.311 168.069 
167.784 169.484 169.036 170.521 169.839 170.969 170.031 170.826 164.03 
164.318 165.997 166.25 168.055 168.21 170.04 170.021 171.73 171.479 
172.928 172.417 173.536 172.769 173.572 172.566 173.084 164.784 165.24 
166.91 167.379 169.176 169.6 171.422 171.708 173.389 173.429 174.806 
174.554 175.588 175.079 175.819 175.079 175.546 174.558 174.761 155.245 
154.195 155.053 155.756 153.111 153.935 154.586 155.551 156.372 152.151 
152.888 153.476 154.352 155.146 156.202 157.158 151.285 151.991 152.581 
153.33 154.066 155.007 155.962 157.057 158.101 150.469 151.16 151.759 
152.474 153.151 153.994 154.881 155.907 156.951 158.05 159.151 149.748 
150.38 150.94 151.629 152.242 153.05 153.849 154.837 155.83 156.917 
158.002 159.137 160.316 149.133 149.678 150.166 150.798 151.355 152.111 
152.842 153.773 154.702 155.771 156.814 157.957 159.081 160.305 161.52 
148.617 149.061 149.443 150.005 150.497 151.216 151.899 152.769 153.62 
154.622 155.588 156.71 157.759 158.987 160.105 161.414 162.556 148.145 
148.518 148.781 149.262 149.665 150.338 150.966 151.807 152.583 153.526 
154.387 155.447 156.403 157.592 158.618 159.903 160.95 162.293 163.312 
147.91 147.662 148.021 148.518 147.683 147.904 148.525 148.78 149.446 
148.116 148.19 148.894 149.009 149.774 149.955 150.802 148.562 148.697 
149.399 149.522 150.286 150.423 151.29 151.487 152.427 148.865 149.048 
149.764 149.979 150.773 150.957 151.839 152.034 153.025 153.221 154.238 
149.375 149.436 150.251 150.396 151.34 151.503 152.533 152.685 153.795 
153.94 155.082 155.184 156.289 150.119 150.134 151.049 151.104 152.171 
152.263 153.427 153.535 154.749 154.857 156.081 156.161 157.351 157.377 
158.516 150.818 150.916 151.873 151.99 153.08 153.206 154.377 154.506 
155.719 155.853 157.083 157.202 158.422 158.49 159.681 159.681 160.829 
151.44 151.58 152.556 152.75 153.846 154.059 155.237 155.43 156.66 
156.819 158.084 158.213 159.494 159.583 160.844 160.874 162.087 162.043 
163.182 152.117 153.726 153.013 153.312 155.721 154.838 155.17 154.357 
154.697 158.116 157.085 157.511 156.479 156.867 155.898 156.226 160.83 
159.727 160.288 159.103 159.593 158.388 158.762 157.569 157.81 163.732 
162.635 163.319 162.075 162.644 161.347 161.796 160.417 160.659 159.246 
159.36 166.739 165.706 166.568 165.277 165.891 164.502 164.974 163.565 
163.856 162.329 162.395 160.84 160.843 169.637 168.795 169.902 168.706 
169.496 167.97 168.469 166.861 167.188 165.591 165.705 164.035 163.959 
162.322 162.233 172.115 171.565 172.793 171.969 172.982 171.702 172.362 
170.652 170.998 169.141 169.275 167.436 167.359 165.552 165.349 163.668 
163.491 174.067 173.763 174.898 174.477 175.493 174.821 175.625 174.444 
174.877 173.14 173.209 171.202 171.035 169.033 168.726 166.852 166.522 
164.844 164.578 151.721 151.643 152.183 153.292 151.537 152.119 153.261 
153.895 155.212 151.247 151.936 153.081 153.824 155.201 155.955 157.495 
150.741 151.538 152.711 153.565 154.999 155.892 157.524 158.372 160.096 
150.166 150.993 152.237 153.158 154.665 155.652 157.353 158.331 160.124 
161.04 162.871 149.707 150.482 151.765 152.694 154.245 155.294 157.033 
158.104 159.926 160.967 162.84 163.828 165.721 149.405 150.118 151.386 
152.259 153.775 154.832 156.575 157.726 159.585 160.714 162.613 163.697 
165.608 166.644 168.502 149.165 149.856 151.091 151.908 153.345 154.339 
156.026 157.204 159.097 160.327 162.268 163.424 165.312 166.411 168.228 
169.284 170.967 148.948 149.613 150.812 151.601 152.962 153.889 155.468 
156.611 158.457 159.765 161.725 162.998 164.852 166.009 167.728 168.848 
170.474 171.537 172.99 150.812 149.536 150.314 150.683 148.395 149.059 
149.336 150.183 150.561 147.327 147.914 148.046 148.805 149.077 149.987 
150.273 146.23 146.797 146.778 147.439 147.52 148.4 148.592 149.555 
149.732 145.056 145.627 145.531 146.115 146.023 146.768 146.823 147.768 
147.913 148.914 149.097 143.835 144.378 144.258 144.841 144.719 145.318 
145.262 146.022 146.124 147.069 147.282 148.308 148.603 142.707 143.14 
142.985 143.56 143.496 144.073 144.002 144.591 144.611 145.383 145.59 
146.544 146.873 147.906 148.297 141.837 142.109 141.938 142.381 142.349 
142.889 142.843 143.379 143.336 143.978 144.131 144.971 145.312 146.259 
146.654 147.658 148.076 141.274 141.412 141.277 141.532 141.501 141.875 
141.823 142.251 142.177 142.727 142.848 143.61 143.978 144.84 145.269 
146.135 146.543 147.478 147.903 141.015 140.8 140.92 141.044 140.699 
140.771 140.855 141.008 141.21 140.598 140.671 140.691 140.804 140.877 
141.131 141.37 140.494 140.569 140.569 140.619 140.592 140.738 140.862 
141.241 141.62 140.479 140.518 140.576 140.553 140.533 140.522 140.654 
140.847 141.312 141.706 142.383 140.703 140.632 140.774 140.678 140.738 
140.616 140.82 140.868 141.459 141.709 142.547 142.828 143.661 141.245 
141.039 141.252 141.056 141.224 141.001 141.262 141.202 141.827 142.036 
142.934 143.196 144.051 144.236 144.982 141.978 141.712 141.967 141.713 
141.987 141.693 142.011 141.803 142.372 142.456 143.309 143.578 144.428 
144.639 145.349 145.508 146.201 142.727 142.471 142.74 142.502 142.835 
142.574 142.947 142.678 143.176 143.079 143.812 143.959 144.799 144.999 
145.753 145.893 146.6 146.75 147.516 143.227 144.109 143.511 143.281 
145.28 144.521 144.283 143.641 143.434 146.745 145.843 145.573 144.772 
144.55 143.853 143.628 148.392 147.419 147.145 146.201 145.944 145.094 
144.878 144.109 143.926 150.233 149.178 148.989 147.929 147.711 146.67 
146.468 145.526 145.403 144.571 144.555 152.339 151.192 151.106 149.957 
149.859 148.672 148.528 147.366 147.271 146.25 146.26 145.396 145.494 
154.563 153.421 153.377 152.208 152.176 150.974 150.898 149.638 149.54 
148.336 148.31 147.255 147.287 146.389 146.448 156.785 155.682 155.688 
154.524 154.511 153.331 153.3 152.069 151.988 150.718 150.642 149.438 
149.406 148.311 148.294 147.33 147.343 159.082 157.982 158.093 156.901 
156.943 155.717 155.73 154.494 154.466 153.191 153.11 151.83 151.751 
150.531 150.473 149.332 149.299 148.274 148.297 149.206 150.294 150.177 
151.119 151.542 151.396 152.428 152.269 153.323 152.907 152.756 153.904 
153.722 154.925 154.685 155.902 154.353 154.229 155.524 155.35 156.738 
156.495 157.94 157.587 159 155.77 155.737 157.167 157.077 158.632 
158.467 160.114 159.83 161.436 160.957 162.375 157.101 157.169 158.723 
158.754 160.444 160.412 162.202 162.07 163.802 163.452 164.934 164.335 
165.539 158.385 158.53 160.211 160.337 162.147 162.224 164.122 164.133 
165.972 165.773 167.319 166.829 168.057 167.366 168.398 159.562 159.812 
161.564 161.818 163.684 163.887 165.816 165.974 167.878 167.865 169.505 
169.157 170.453 169.842 170.932 170.178 171.134 160.528 160.897 162.626 
163.043 164.867 165.254 167.106 167.465 169.319 169.574 171.251 171.196 
172.55 172.154 173.272 172.659 173.622 172.85 173.642 142.762 142.541 
142.494 142.324 142.487 142.395 142.205 142.181 142.08 142.301 142.26 
141.99 142.027 141.833 141.91 141.789 142.061 141.959 141.54 141.612 
141.329 141.513 141.349 141.548 141.472 141.957 141.748 141.241 141.134 
140.794 140.917 140.81 141.057 141.075 141.291 141.316 141.927 141.704 
141.231 140.977 140.606 140.531 140.461 140.617 140.748 140.959 141.069 
141.21 141.229 141.984 141.732 141.314 141.035 140.648 140.473 140.336 
140.399 140.511 140.705 140.833 140.988 141.005 141.105 141.084 142.225 
141.894 141.503 141.174 140.795 140.548 140.346 140.308 140.34 140.481 
140.585 140.745 140.771 140.876 140.847 140.955 140.982 142.6 142.224 
141.858 141.468 141.122 140.778 140.565 140.38 140.364 140.361 140.453 
140.536 140.607 140.682 140.701 140.762 140.789 140.903 141.009 142.987 
142.489 142.884 143.367 142.212 142.478 142.893 143.386 143.988 141.951 
142.205 142.552 142.975 143.563 144.082 144.683 141.662 141.9 142.185 
142.583 143.102 143.658 144.285 144.79 145.315 141.467 141.633 141.86 
142.173 142.61 143.14 143.759 144.348 144.897 145.359 145.731 141.337 
141.47 141.659 141.883 142.277 142.689 143.318 143.858 144.491 144.941 
145.357 145.684 145.955 141.218 141.348 141.55 141.728 142.112 142.436 
143.066 143.536 144.247 144.663 145.195 145.439 145.794 145.984 146.339 
141.188 141.295 141.58 141.705 142.113 142.341 142.935 143.337 144.03 
144.471 145.033 145.341 145.726 145.935 146.307 146.521 146.955 141.268 
141.367 141.752 141.858 142.325 142.454 143.012 143.266 143.893 144.257 
144.782 145.117 145.452 145.754 146.044 146.388 146.739 147.092 147.458 
143.543 143.967 144.041 144.742 144.534 144.533 145.184 145.319 146.036 
145.119 145.065 145.609 145.729 146.422 146.592 147.276 145.717 145.628 
146.093 146.129 146.817 146.989 147.766 147.882 148.582 146.145 146.174 
146.649 146.656 147.305 147.43 148.266 148.43 149.219 149.256 149.925 
146.31 146.453 146.942 147.108 147.68 147.868 148.581 148.853 149.626 
149.829 150.483 150.542 151.158 146.626 146.626 147.086 147.26 147.796 
148.049 148.625 148.967 149.632 150.019 150.673 150.934 151.523 151.687 
152.343 147.262 147.115 147.546 147.518 148.053 148.158 148.737 148.951 
149.591 149.929 150.621 150.979 151.634 151.917 152.571 152.833 153.55 
147.831 147.773 148.186 148.107 148.611 148.586 149.18 149.226 149.885 
150.035 150.744 150.992 151.692 151.977 152.659 152.97 153.682 154 
154.705 150.652 150.047 150.022 149.405 149.393 149.419 148.828 148.839 
148.307 148.717 148.75 148.192 148.244 147.721 147.773 147.274 148.269 
148.181 147.658 147.636 147.107 147.141 146.628 146.709 146.195 147.957 
147.848 147.357 147.255 146.762 146.636 146.105 146.063 145.565 145.616 
145.08 147.465 147.443 146.935 146.96 146.547 146.451 145.962 145.742 
145.236 145.1 144.624 144.553 143.986 147.079 146.935 146.417 146.441 
146.09 146.171 145.802 145.69 145.186 144.952 144.452 144.258 143.747 
143.545 142.961 147.181 146.818 146.367 146.111 145.786 145.741 145.481 
145.46 145.044 144.882 144.338 144.14 143.605 143.404 142.854 142.612 
142.087 147.501 147.131 146.734 146.333 145.994 145.703 145.452 145.274 
144.941 144.731 144.21 143.977 143.409 143.233 142.707 142.529 142.04 
141.84 141.452 
POINT_DATA 1002
SCALARS Distance double
LOOKUP_TABLE default
143.745 142.975 143.49 144.412 144.159 144.758 145.301 145.085 145.619 
146.107 146.43 146.217 146.692 147.154 147.685 147.67 147.353 147.95 
148.363 148.868 149.365 148.891 148.504 149.282 149.714 150.217 150.716 
151.294 150.17 149.81 150.602 151.1 151.66 152.231 152.831 153.484 
151.525 151.158 151.934 152.46 153.093 153.734 154.379 155.04 155.671 
152.801 152.362 153.237 153.795 154.509 155.212 155.849 156.511 157.191 
157.846 153.914 153.411 154.421 155.037 155.839 156.653 157.328 157.979 
158.699 159.44 160.141 142.582 143.065 142.251 142.725 142.117 143.722 
142.71 142.174 143.444 144.709 142.954 142.256 143.61 144.556 145.896 
143.118 142.387 143.969 144.828 145.833 147.079 143.16 142.572 144.072 
145.108 146.08 147.1 148.36 143.186 142.631 144.029 145.078 146.17 
147.248 148.411 149.755 143.288 142.703 144.125 145.081 146.083 147.192 
148.414 149.714 151.066 143.643 143.097 144.451 145.363 146.24 147.18 
148.333 149.628 150.943 152.226 144.16 144.836 145.483 146.177 146.737 
145.706 147.42 147.943 147.039 146.622 148.67 149.253 148.346 148.016 
147.514 150.049 150.562 149.71 149.462 149.031 148.547 151.53 151.809 
151.234 150.953 150.623 150.196 149.821 153.057 153.074 152.934 152.633 
152.252 151.907 151.538 151.184 154.458 154.3 154.537 154.388 153.987 
153.587 153.26 152.878 152.503 155.599 155.393 155.773 155.831 155.608 
155.197 154.837 154.505 154.114 153.732 154.788 155.224 156.34 155.656 
156.879 158.127 156.017 157.334 158.786 160.232 156.358 157.688 159.301 
161.022 162.606 156.766 158.079 159.695 161.572 163.423 165.04 157.031 
158.439 160.116 161.951 163.914 165.829 167.495 156.968 158.447 160.357 
162.327 164.233 166.316 168.38 170.091 156.769 158.164 160.121 162.393 
164.48 166.585 168.921 171.065 172.674 156.589 157.902 159.631 161.885 
164.27 166.587 169.048 171.501 173.495 174.878 155.394 157.116 156.086 
159.156 158.068 156.985 161.551 160.383 159.211 157.989 164.17 163.046 
161.721 160.326 158.862 166.795 165.882 164.585 162.991 161.362 159.663 
169.445 168.658 167.544 165.944 164.213 162.451 160.533 172.141 171.392 
170.394 168.885 167.096 165.381 163.507 161.412 174.598 174 173.144 
171.805 169.966 168.112 166.361 164.381 162.201 176.716 176.472 178.471 
178.234 180.115 175.886 179.671 181.25 177.619 174.896 180.323 181.304 
178.815 176.472 173.199 180.024 180.432 179.059 177.392 174.442 170.994 
179.263 179.331 178.551 177.333 175.061 171.865 168.873 178.256 178.115 
177.715 176.639 174.874 172.227 169.382 166.82 176.68 176.454 176.363 
175.519 174.119 171.982 169.45 166.978 164.552 174.535 174.356 174.361 
173.816 172.833 171.175 168.99 166.72 164.451 162.183 175.922 177.773 
176.46 178.296 176.489 179.618 178.252 176.042 180.189 181.326 177.595 
174.997 179.948 181.679 182.095 176.198 173.269 178.905 180.964 181.797 
181.386 174.031 171.056 177.08 179.584 180.762 180.593 179.945 171.375 
168.685 174.412 177.397 179.375 179.715 179.118 178.602 168.661 166.391 
171.293 174.189 176.814 178.279 178.303 177.717 177.17 166.162 164.294 
168.322 170.718 173.162 175.266 176.429 176.492 175.982 175.281 155.92 
157.338 156.536 158.237 157.284 158.923 159.223 158.172 160.06 160.911 
160.297 159.16 161.281 162.252 163.402 161.569 160.284 162.787 163.907 
165.138 166.194 163.07 161.555 164.622 166.061 167.411 168.555 169.119 
164.539 162.76 166.423 168.263 169.899 171.162 171.862 171.942 165.662 
163.674 167.798 169.956 171.914 173.393 174.242 174.518 174.269 154.422 
154.817 153.348 153.643 152.347 155.303 152.678 151.433 154.114 156.025 
151.868 150.558 153.203 154.886 156.979 151.059 149.795 152.357 153.899 
155.862 158.017 150.289 149.166 151.477 152.899 154.755 156.878 159.117 
149.583 148.657 150.632 151.962 153.669 155.686 157.882 160.251 148.948 
148.253 149.804 151.06 152.68 154.515 156.567 158.832 161.238 148.359 