# vtk DataFile Version 4.0
vtk output
ASCII
DATASET POLYDATA
POINTS 1002 float
-106.138 -79.4219 79.1967 -106.01 -78.5546 78.216 -106.593 -78.4931 79.0136 
-106.781 -79.4554 80.0411 -107.384 -78.5858 79.7514 -106.319 -80.4443 80.3246 
-107.605 -79.6143 80.797 -108.205 -78.6986 80.5374 -106.969 -80.5916 81.2046 
-106.387 -81.5346 81.6219 -108.395 -79.8012 81.7061 -108.949 -78.8702 81.4923 
-107.804 -80.8501 82.0485 -107.112 -81.8088 82.5282 -106.488 -82.6554 83.0403 
-109.092 -80.0918 82.8559 -109.748 -79.2441 82.4838 -108.561 -81.0952 83.1908 
-108.003 -82.1423 83.5027 -107.377 -83.0252 83.9262 -106.886 -83.9479 84.4125 
-109.936 -80.5368 83.8991 -110.614 -79.691 83.425 -109.293 -81.4216 84.3897 
-108.759 -82.4466 84.7337 -108.24 -83.4566 85.0064 -107.796 -84.4677 85.3255 
-107.555 -85.6162 85.6173 -110.855 -81.0011 84.7936 -111.316 -80.034 84.4468 
-110.269 -81.9769 85.2231 -109.62 -82.9885 85.7281 -109.014 -84.0102 86.2006 
-108.528 -85.0831 86.5658 -108.307 -86.2961 86.7445 -108.291 -87.4973 86.7911 
-111.519 -81.466 85.7878 -111.843 -80.429 85.474 -111.169 -82.628 86.069 
-110.614 -83.798 86.5279 -109.979 -84.8372 87.1433 -109.404 -85.8089 87.7032 
-109.007 -86.9555 88.045 -108.903 -88.1909 88.1172 -108.929 -89.2772 88.0867 
-112.015 -82.0253 86.7583 -112.407 -81.0286 86.2868 -111.724 -83.1823 87.1505 
-111.3 -84.4274 87.6209 -110.804 -85.5924 88.1703 -110.393 -86.5832 88.607 
-109.987 -87.6342 88.9279 -109.659 -88.8651 89.1841 -109.534 -90.0438 89.3117 
-109.489 -91.0528 89.3528 -112.616 -82.6386 87.4931 -113.08 -81.7203 86.8715 
-112.243 -83.6525 88.0955 -111.795 -84.7772 88.7085 -111.33 -86.0055 89.2635 
-111.078 -87.2126 89.5563 -110.902 -88.3977 89.6353 -110.608 -89.6887 89.7934 
-110.351 -90.9838 90.0538 -110.232 -92.1104 90.2403 -110.145 -93.0747 90.3166 
-106.389 -77.7219 77.7558 -107.07 -77.6703 78.5224 -107.017 -76.9737 77.1633 
-107.746 -76.8577 77.9172 -107.792 -76.297 76.4391 -107.904 -77.7406 79.3144 
-108.589 -76.1108 77.2347 -108.72 -75.7269 75.7059 -108.59 -76.8859 78.8252 
-108.736 -77.8085 80.2569 -109.636 -75.5664 76.5898 -109.84 -75.2236 75.0533 
-109.522 -76.1757 78.2376 -109.495 -76.9434 79.9201 -109.598 -77.9718 81.249 
-110.728 -75.0352 76.0443 -110.856 -74.5666 74.466 -110.629 -75.6454 77.6081 
-110.5 -76.2433 79.3725 -110.443 -77.071 80.9279 -110.514 -78.3549 82.1474 
-111.57 -74.2583 75.5971 -111.552 -73.8103 73.9504 -111.628 -74.9319 77.1077 
-111.561 -75.5992 78.7282 -111.365 -76.3044 80.4472 -111.283 -77.4245 81.8476 
-111.29 -78.7803 83.1337 -112.292 -73.5394 75.2234 -112.275 -73.3196 73.5403 
-112.417 -74.0472 76.8098 -112.507 -74.7841 78.2882 -112.338 -75.6039 79.9449 
-112.095 -76.6418 81.5374 -111.987 -77.9009 82.8966 -111.9 -79.1525 84.2415 
-113.253 -73.1772 74.8796 -113.316 -73.1622 73.2576 -113.235 -73.4465 76.5524 
-113.33 -74.0682 78.0419 -113.327 -74.927 79.5485 -113.084 -75.9633 81.1621 
-112.862 -77.1755 82.6066 -112.724 -78.4134 83.9161 -112.541 -79.673 85.1832 
-114.412 -73.0097 74.5669 -114.464 -73.1142 73.1116 -114.243 -73.1605 76.1886 
-114.152 -73.6876 77.7251 -114.21 -74.4823 79.1523 -114.124 -75.4175 80.6622 
-113.86 -76.5471 82.1536 -113.675 -77.8097 83.4729 -113.508 -79.0826 84.7061 
-113.262 -80.3967 85.8596 -115.507 -72.9144 73.869 -115.426 -72.897 75.3634 
-116.383 -72.8323 74.6069 -116.328 -73.0911 76.1147 -117.146 -73.294 75.3568 
-115.171 -73.3432 76.9764 -117.152 -73.8411 76.9512 -117.806 -74.3786 76.2613 
-116.111 -73.8804 77.737 -115.071 -74.169 78.513 -117.706 -75.0304 77.9424 
-118.151 -75.7372 77.2361 -116.964 -74.7777 78.6819 -116.046 -74.9067 79.3534 
-115.098 -75.101 80.0298 -117.92 -76.4295 78.8987 -118.258 -77.1631 78.1732 
-117.465 -75.9653 79.7756 -116.83 -75.9112 80.4431 -115.916 -75.9993 80.9841 
-114.877 -76.1662 81.6047 -118.177 -77.9812 79.8979 -118.371 -78.6326 79.3205 
-117.801 -77.3838 80.8131 -117.331 -77.1513 81.6329 -116.54 -77.2142 82.1291 
-115.526 -77.3033 82.5824 -114.58 -77.4843 83.0821 -118.49 -79.5833 81.1732 
-118.398 -80.0344 80.7119 -118.212 -79.0063 81.9363 -117.749 -78.5522 82.7568 
-117.068 -78.5019 83.3071 -116.135 -78.6515 83.685 -115.246 -78.7622 84.0667 
-114.421 -78.888 84.4201 -118.534 -81.0521 82.468 -118.254 -81.3215 81.9545 
-118.442 -80.6944 83.1803 -118.042 -80.2158 83.9184 -117.471 -79.9117 84.4427 
-116.701 -79.9468 84.8027 -115.86 -80.0882 85.1402 -115.071 -80.1784 85.4257 
-114.201 -80.2662 85.6573 -118.337 -82.384 83.4677 -118.072 -82.5974 82.8708 
-118.38 -82.2301 84.2593 -118.146 -81.9818 85.0386 -117.708 -81.652 85.5665 
-117.087 -81.4581 85.8849 -116.33 -81.4464 86.1784 -115.572 -81.4831 86.4433 
-114.793 -81.5347 86.6215 -113.922 -81.6175 86.7609 -113.515 -82.9729 87.8241 
-114.335 -82.9375 87.7502 -114.051 -84.3707 88.8588 -115.108 -82.9518 87.6315 
-114.782 -84.5423 88.77 -114.537 -86.237 89.8419 -115.835 -83.0474 87.4489 
-115.417 -84.8012 88.5948 -115.18 -86.6735 89.6932 -114.849 -88.6588 90.7192 
-116.638 -83.1723 87.2137 -116.119 -85.0434 88.415 -115.772 -87.0502 89.4929 
-115.527 -89.1444 90.5828 -115.148 -91.1777 91.6191 -117.44 -83.3277 86.9625 
-117.042 -85.1471 88.2293 -116.51 -87.1538 89.3744 -116.18 -89.4374 90.4996 
-115.949 -91.7217 91.5836 -115.629 -93.8031 92.4521 -117.985 -83.5361 86.5835 
-117.886 -85.2354 87.9368 -117.422 -87.1185 89.1262 -116.816 -89.4922 90.3677 
-116.577 -92.1727 91.592 -116.421 -94.6826 92.4625 -116.138 -96.9987 92.9377 
-118.193 -83.6861 85.8832 -118.191 -85.3977 87.4398 -118.006 -87.3209 88.703 
-117.363 -89.678 89.8696 -116.927 -92.5116 91.2309 -116.917 -95.3657 92.3808 
-116.804 -98.0045 92.9262 -116.541 -100.478 93.1387 -118.177 -83.7658 84.9407 
-118.069 -85.55 86.6341 -117.981 -87.6923 88.1863 -117.563 -90.1297 89.3216 
-117.071 -92.8807 90.4602 -117.067 -95.7793 91.7913 -117.243 -98.5879 92.7457 
-117.164 -101.238 93.1193 -116.969 -103.598 93.2923 -118.046 -83.9136 84.0855 
-117.916 -85.6843 85.6564 -117.777 -87.9348 87.4211 -117.539 -90.4595 88.8306 
-117.163 -93.0986 89.8357 -117.057 -95.8938 90.9607 -117.354 -98.7956 92.1573 
-117.61 -101.614 92.9263 -117.608 -104.144 93.2402 -117.483 -106.184 93.3888 
-113.089 -83.9435 88.5841 -113.639 -85.5318 89.6636 -112.603 -85.0121 89.3273 
-114.091 -87.8703 90.5715 -113.103 -86.9938 90.2731 -112.047 -86.3202 89.9461 
-114.408 -90.6349 91.4771 -113.673 -89.8898 90.9992 -112.685 -88.8271 90.6339 
-111.715 -87.8595 90.3042 -114.831 -93.2047 92.4382 -114.192 -92.7323 91.9859 
-113.472 -91.9899 91.349 -112.476 -90.7432 90.9605 -111.606 -89.4335 90.415 
-115.432 -96.2041 93.0403 -114.74 -95.3814 92.896 -114.044 -94.714 92.3862 
-113.148 -93.8519 91.9224 -112.203 -92.5205 91.3628 -111.417 -90.997 90.5167 
-115.984 -99.9953 93.2471 -115.361 -99.0076 93.2751 -114.578 -97.7974 93.0133 
-113.657 -96.7079 92.7351 -112.766 -95.6281 92.4105 -112.003 -94.207 91.618 
-111.217 -92.5109 90.7099 -116.463 -103.598 93.4141 -115.943 -103.102 93.5145 
-115.24 -101.96 93.3327 -114.333 -100.374 93.018 -113.491 -98.8196 92.8367 
-112.819 -97.397 92.3949 -112.084 -95.7352 91.584 -111.151 -93.8242 90.8658 
-116.982 -106.367 93.541 -116.459 -106.276 93.7322 -115.857 -105.745 93.7209 
-115.087 -104.501 93.3933 -114.29 -102.616 93.0309 -113.66 -100.689 92.6624 
-113.054 -98.9348 92.0644 -112.179 -97.0021 91.4319 -111.098 -94.9079 90.927 
-117.697 -108.654 93.3542 -117.106 -108.652 93.5284 -117.752 -110.969 92.8877 
-117.007 -110.687 92.9284 -117.623 -113.237 92.0069 -116.446 -108.433 93.715 
-116.758 -112.69 91.8904 -117.478 -115.4 91.2331 -116.23 -110.208 93.0592 
-115.747 -107.867 93.7025 -116.522 -114.563 91.1573 -117.134 -117.035 90.8266 
-115.976 -111.753 92.0382 -115.498 -109.311 93.2179 -114.964 -106.412 93.4286 
-116.068 -115.736 90.8854 -116.282 -117.616 90.3415 -115.755 -112.921 91.354 
-115.214 -110.098 92.4304 -114.632 -107.406 93.2008 -114.207 -104.161 92.9906 
-115.333 -115.571 90.5266 -115.357 -116.713 89.653 -115.327 -113.275 91.021 
-114.964 -110.385 91.7101 -114.246 -107.674 92.6297 -113.817 -104.973 92.7852 
-113.605 -101.949 92.3586 -114.738 -113.917 90.0621 -114.856 -114.439 89.2219 
-114.685 -112.476 90.6748 -114.55 -110.184 91.1256 -114.04 -107.647 91.8442 
-113.478 -105.255 92.3222 -113.229 -102.704 92.0931 -112.882 -99.8474 91.7048 
-114.319 -111.452 89.7832 -114.502 -111.607 89.1534 -114.046 -110.731 90.3586 
-113.85 -109.338 90.708 -113.653 -107.349 91.1346 -113.283 -105.133 91.6565 
-112.858 -102.841 91.7797 -112.404 -100.274 91.5272 -111.786 -97.5017 91.2453 
-113.736 -109.007 89.5834 -113.897 -108.939 89.1259 -113.388 -108.679 90.087 
-113.04 -107.923 90.4604 -112.874 -106.566 90.7498 -112.74 -104.596 91.0917 
-112.397 -102.356 91.3294 -111.836 -100.052 91.2989 -111.194 -97.6154 91.0914 
-110.605 -95.1865 90.7672 -118.066 -107.434 93.2451 -118.261 -110.113 92.9546 
-118.433 -108.421 92.7868 -118.507 -111.086 92.2127 -118.511 -108.761 91.9026 
-118.254 -112.703 92.2531 -118.429 -111.225 91.1831 -118.462 -108.454 90.9878 
-118.399 -113.73 91.413 -118.212 -115.223 91.4192 -118.217 -110.714 90.477 
-118.222 -107.564 90.5781 -118.178 -113.775 90.4881 -118.428 -116.245 90.6531 
-118.17 -117.303 90.7855 -117.841 -109.369 90.3431 -117.67 -105.835 90.3701 
-117.821 -112.794 89.9886 -118.149 -115.922 89.7712 -118.367 -117.945 89.8874 
-117.552 -118.426 90.1231 -117.327 -107.017 90.1142 -117.128 -103.458 89.757 
-117.458 -110.478 89.8225 -117.737 -113.917 89.2411 -118.04 -116.855 88.9638 
-117.536 -118.374 89.0254 -116.324 -118.217 89.2537 -116.887 -104.286 89.5009 
-116.772 -101.003 88.8556 -117.055 -107.412 89.5519 -117.365 -110.565 89.0425 
-117.653 -113.887 88.5818 -117.321 -116.482 88.4337 -116.299 -117.33 88.4198 
-115.361 -116.412 88.6623 -116.492 -101.592 88.7575 -116.39 -98.6902 87.9545 
-116.57 -104.399 89.1874 -116.796 -107.065 89.0235 -117.129 -109.987 88.6308 
-117.065 -112.906 88.4561 -116.319 -114.708 88.3742 -115.423 -114.746 88.3413 
-114.877 -113.433 88.6224 -116.033 -98.9716 87.8672 -115.902 -96.5964 86.9977 
-116.052 -101.448 88.6073 -116.085 -103.815 88.913 -116.275 -106.195 88.7908 
[...]
CELL_DATA 2000
SCALARS Distance double
LOOKUP_TABLE default
152.988 153.87 153.631 154.126 154.884 154.599 155.095 154.862 155.402 
155.962 155.658 156.192 155.913 156.477 156.199 156.766 157.154 156.801 
157.382 157.076 157.698 157.377 157.982 157.649 158.3 158.46 158.078 
158.672 158.329 158.981 158.657 159.307 158.954 159.63 159.309 160.099 
159.74 159.411 160.029 159.673 160.337 159.989 160.688 160.33 161.057 
160.71 161.527 161.237 162.139 160.908 160.657 161.342 161.043 161.766 
161.416 162.178 161.797 162.585 162.202 163.04 162.713 163.617 163.333 
164.237 162.024 161.805 162.534 162.321 163.094 162.838 163.633 163.323 
164.122 163.765 164.571 164.229 165.086 164.802 165.691 165.41 166.269 
163.137 162.924 163.645 163.473 164.233 164.068 164.835 164.658 165.432 
165.207 165.978 165.698 166.502 166.231 167.106 166.849 167.743 167.444 
168.303 152.511 152.186 152.658 153.375 151.972 152.384 153.084 153.603 
154.383 151.881 152.209 152.896 153.359 154.147 154.652 155.457 152.011 
152.222 152.908 153.255 154.059 154.489 155.319 155.782 156.639 152.213 
152.433 153.113 153.378 154.16 154.496 155.317 155.711 156.564 157.029 
157.926 152.221 152.562 153.24 153.571 154.309 154.632 155.393 155.743 
156.542 156.97 157.829 158.319 159.182 152.215 152.527 153.242 153.614 
154.369 154.732 155.486 155.823 156.595 156.966 157.792 158.227 159.069 
159.533 160.341 152.553 152.679 153.422 153.673 154.473 154.797 155.613 
155.939 156.75 157.07 157.901 158.253 159.099 159.479 160.295 160.694 
161.478 153.199 153.193 153.893 153.996 154.762 154.988 155.819 156.12 
156.964 157.269 158.096 158.41 159.242 159.579 160.403 160.739 161.527 
161.868 162.626 153.798 154.827 154.361 154.461 155.904 155.417 155.58 
155.09 155.288 157.216 156.627 156.847 156.287 156.54 156.03 156.335 
158.629 158.041 158.289 157.684 157.974 157.39 157.715 157.17 157.499 
159.915 159.405 159.687 159.159 159.495 158.914 159.235 158.62 158.915 
158.338 158.631 161.239 160.709 161.065 160.553 160.976 160.447 160.814 
160.183 160.45 159.797 160.071 159.481 159.779 162.691 162.173 162.625 
162.047 162.51 161.952 162.372 161.764 162.065 161.383 161.653 160.995 
161.304 160.678 160.965 163.995 163.64 164.166 163.669 164.122 163.541 
163.932 163.321 163.644 162.996 163.279 162.618 162.915 162.258 162.533 
161.865 162.092 165.033 164.822 165.384 165.085 165.576 165.11 165.496 
164.899 165.211 164.566 164.845 164.206 164.475 163.844 164.089 163.434 
163.636 162.962 163.155 163.985 164.474 164.63 165.488 164.937 165.12 
165.994 166.206 167.175 165.354 165.572 166.462 166.702 167.705 167.968 
169.027 165.773 166.013 166.949 167.18 168.195 168.481 169.595 169.879 
170.99 166.193 166.476 167.48 167.712 168.726 168.978 170.105 170.436 
171.651 171.921 173.091 166.479 166.864 167.904 168.237 169.241 169.498 
170.557 170.913 172.183 172.591 173.911 174.142 175.364 166.464 166.981 
167.966 168.504 169.507 169.911 170.879 171.269 172.456 173.015 174.423 
174.912 176.241 176.463 177.665 166.161 166.749 167.629 168.33 169.347 
169.986 170.971 171.461 172.517 173.121 174.467 175.209 176.636 177.179 
178.437 178.702 179.843 165.767 166.332 167.151 167.86 168.891 169.678 
170.771 171.427 172.466 173.066 174.258 175.054 176.478 177.317 178.703 
179.28 180.482 180.78 181.833 163.985 165.52 164.661 164.534 167.242 
166.304 166.168 165.257 165.128 169.142 168.149 168.033 166.99 166.818 
165.867 165.741 171.158 170.162 170.164 169.028 168.892 167.725 167.572 
166.538 166.408 173.257 172.255 172.384 171.288 171.299 170.038 169.918 
168.618 168.448 167.271 167.066 175.523 174.466 174.634 173.553 173.643 
172.484 172.446 171.14 170.96 169.567 169.301 167.978 167.693 177.91 
176.866 177.125 175.949 176.05 174.825 174.804 173.583 173.477 172.159 
171.921 170.456 170.124 168.686 168.369 180.187 179.29 179.72 178.598 
178.821 177.45 177.439 176.018 175.943 174.622 174.51 173.126 172.853 
171.317 170.93 169.421 169.052 182.176 181.468 181.947 181.096 181.431 
180.278 180.343 178.875 178.745 177.235 177.089 175.685 175.478 174.03 
173.651 172.087 171.607 170.081 169.63 183.316 184.691 183.738 183.078 
185.641 184.875 184.239 183.396 182.6 186.382 185.612 184.889 184.283 
183.594 182.754 181.65 187.075 186.283 185.362 184.739 184.022 183.484 
182.535 181.541 180.104 187.244 186.796 185.753 185.112 184.149 183.683 
182.735 182.126 180.812 179.784 178.28 186.38 186.522 185.541 185.22 
184.04 183.61 182.46 182.051 180.812 180.181 178.766 177.892 176.495 
184.709 185.251 184.407 184.553 183.393 183.2 181.941 181.63 180.411 
180 178.729 178.125 176.761 176.004 174.609 182.766 183.434 182.695 
183.125 182.119 182.24 181.074 180.967 179.792 179.546 178.35 177.943 
176.622 176.044 174.605 173.927 172.489 180.785 181.488 180.818 181.358 
180.494 180.825 179.814 179.941 178.836 178.793 177.588 177.391 176.046 
175.684 174.219 173.719 172.251 171.699 170.367 183.703 184.575 184.559 
185.127 184.826 185.213 185.933 185.862 186.194 184.383 185.113 185.996 
186.429 187.069 186.904 187.122 183.607 184.472 185.39 186.185 187.113 
187.565 188.145 187.867 187.92 182.456 183.549 184.405 185.383 186.307 
187.244 188.042 188.492 188.677 188.382 187.986 180.682 182.081 182.859 
184.091 184.804 186.044 186.756 187.819 188.081 188.489 188.023 187.814 
186.931 178.586 180.07 180.788 182.176 182.712 184.106 184.636 186.047 
186.358 187.331 186.983 187.267 186.351 186.223 185.13 176.5 177.926 
178.587 179.963 180.406 181.764 182.141 183.617 183.932 185.263 185.119 
185.866 185.097 185.297 184.227 184.187 183.099 174.434 175.792 176.346 
177.714 178.078 179.392 179.613 181.002 181.175 182.628 182.554 183.713 
183.124 183.76 182.774 183.041 181.967 182.064 181.03 165.811 166.501 
166.481 167.256 167.389 167.343 168.214 168.148 169.074 168.253 168.295 
169.299 169.264 170.286 170.161 171.073 169.172 169.225 170.382 170.415 
171.571 171.477 172.454 172.175 172.913 170.279 170.311 171.604 171.621 
172.933 172.849 173.968 173.667 174.528 174.053 174.798 171.303 171.472 
172.854 172.954 174.393 174.353 175.665 175.363 176.438 175.902 176.844 
176.213 177.098 172.088 172.402 173.847 174.13 175.672 175.835 177.332 
177.201 178.487 178.025 179.137 178.49 179.476 178.714 179.48 172.839 
173.179 174.695 175.05 176.678 177.018 178.655 178.806 180.222 180.035 
181.194 180.758 181.75 181.114 181.858 180.985 181.41 173.587 173.972 
175.526 175.909 177.542 177.956 179.612 179.97 181.415 181.516 182.616 
182.481 183.383 183.088 183.801 183.206 183.593 182.67 182.794 165.073 
164.1 164.933 165.691 163.108 163.944 164.721 165.636 166.492 162.157 
162.951 163.672 164.607 165.441 166.412 167.266 161.158 161.96 162.579 
163.498 164.273 165.281 166.13 167.145 168.078 160.061 160.886 161.45 
162.342 163.044 164.056 164.909 165.974 166.927 168.017 169.078 159.045 
159.808 160.382 161.199 161.848 162.801 163.624 164.72 165.676 166.819 
167.829 168.999 170.032 158.21 158.886 159.464 160.197 160.802 161.636 
162.381 163.417 164.342 165.506 166.477 167.658 168.61 169.813 170.771 
157.461 158.076 158.598 159.31 159.884 160.644 161.303 162.207 163.052 
164.152 165.11 166.271 167.199 168.356 169.278 170.489 171.466 156.747 
157.292 157.729 158.42 158.991 159.744 160.385 161.185 161.929 162.892 
163.787 164.906 165.838 166.97 167.859 169.01 169.936 171.181 172.169 
156.469 156.436 156.74 157.455 156.679 156.876 157.657 157.932 158.777 
156.983 157.207 158.024 158.276 159.165 159.391 160.247 157.223 157.463 
158.288 158.624 159.536 159.825 160.711 160.907 161.789 157.729 157.794 
158.619 158.873 159.824 160.151 161.108 161.379 162.354 162.568 163.603 
158.467 158.474 159.303 159.383 160.364 160.552 161.611 161.841 162.95 
163.192 164.351 164.549 165.665 158.972 159.157 160.007 160.145 161.129 
161.268 162.379 162.535 163.732 163.917 165.16 165.352 166.544 166.66 
167.722 159.264 159.548 160.469 160.743 161.76 162.008 163.143 163.375 
164.609 164.81 166.066 166.23 167.447 167.569 168.714 168.752 169.815 
159.679 159.907 160.917 161.195 162.282 162.574 163.743 164.065 165.334 
165.646 166.927 167.145 168.366 168.504 169.703 169.792 170.977 170.963 
172.071 160.321 161.901 161.263 161.631 163.695 163.002 163.426 162.692 
163.066 165.668 164.926 165.449 164.641 165.062 164.22 164.606 167.875 
167.059 167.676 166.808 167.334 166.396 166.84 165.892 166.299 170.283 
169.425 170.124 169.192 169.795 168.806 169.318 168.291 168.714 167.67 
167.986 172.825 171.969 172.789 171.802 172.481 171.407 171.98 170.88 
171.347 170.209 170.518 169.339 169.5 175.424 174.626 175.621 174.639 
175.488 174.316 175.001 173.737 174.291 173 173.385 172.04 172.228 
170.866 170.931 177.839 177.223 178.35 177.545 178.585 177.508 178.338 
177.001 177.588 176.141 176.538 175.073 175.295 173.794 173.852 172.351 
172.308 179.792 179.446 180.585 180.105 181.22 180.504 181.423 180.333 
180.875 179.468 179.693 178.212 178.304 176.852 176.846 175.347 175.21 
173.672 173.449 159.865 159.684 160.269 161.364 159.455 160.069 161.129 
161.837 163.068 159.049 159.762 160.824 161.577 162.838 163.62 164.989 
158.515 159.299 160.434 161.246 162.575 163.415 164.873 165.665 167.16 
158.065 158.827 160.032 160.854 162.234 163.143 164.675 165.565 167.134 
167.936 169.508 157.782 158.497 159.739 160.512 161.89 162.79 164.355 
165.332 166.973 167.885 169.517 170.338 171.969 157.582 158.272 159.525 
160.277 161.651 162.491 164.048 165.012 166.709 167.693 169.398 170.311 
171.996 172.833 174.488 157.425 158.074 159.304 160.065 161.44 162.273 
163.795 164.73 166.398 167.413 169.136 170.138 171.841 172.787 174.446 
175.31 176.862 157.337 157.921 159.107 159.841 161.188 162.026 163.487 
164.422 165.999 167.039 168.702 169.785 171.453 172.509 174.125 175.116 
176.62 177.502 178.826 158.946 157.655 158.435 158.768 156.418 157.147 
157.424 158.266 158.567 155.147 155.827 155.97 156.839 157.063 157.95 
158.125 153.939 154.502 154.46 155.248 155.337 156.283 156.383 157.338 
157.477 152.796 153.308 153.151 153.74 153.686 154.495 154.534 155.476 
155.589 156.635 156.911 151.564 152.129 151.972 152.482 152.353 152.967 
152.948 153.706 153.788 154.729 155.002 156.138 156.577 150.464 150.935 
150.839 151.312 151.193 151.724 151.671 152.279 152.299 153.05 153.263 
154.275 154.727 155.894 156.41 149.821 150.06 150.009 150.317 150.268 
150.671 150.657 151.125 151.112 151.678 151.806 152.641 153.064 154.139 
154.708 155.813 156.336 149.534 149.616 149.554 149.708 149.731 149.981 
150.08 150.352 150.378 150.671 150.719 151.289 151.643 152.583 153.192 
154.242 154.836 155.826 156.331 149.393 149.133 149.279 149.358 149.025 
149.095 149.262 149.379 149.598 149.022 149.105 149.377 149.464 149.779 
149.796 150.026 148.919 149.082 149.376 149.588 149.9 150.005 150.137 
150.142 150.221 149.018 149.022 149.263 149.454 149.667 149.902 149.946 
150.077 150.051 150.191 150.395 149.65 149.387 149.592 149.463 149.612 
149.625 149.714 149.801 149.941 150.06 150.443 150.638 151.316 150.497 
150.188 150.408 150.075 150.253 149.918 150.122 149.905 150.313 150.262 
150.943 151.004 151.884 151.999 152.935 151.273 151.013 151.29 150.994 
151.264 150.856 151.143 150.743 151.245 151.031 151.818 151.78 152.706 
152.747 153.658 153.73 154.581 152.094 151.808 152.149 151.891 152.256 
151.926 152.269 151.894 152.353 152.103 152.792 152.722 153.542 153.563 
154.373 154.427 155.199 155.281 156.04 152.73 153.862 153.108 152.813 
155.119 154.314 153.986 153.239 152.94 156.45 155.599 155.255 154.446 
154.1 153.34 152.999 158.004 157.037 156.727 155.796 155.467 154.58 
154.257 153.436 153.164 159.872 158.786 158.567 157.474 157.221 156.145 
155.876 154.875 154.666 153.775 153.654 161.951 160.823 160.681 159.511 
159.323 158.124 157.895 156.723 156.516 155.46 155.339 154.423 154.382 
164.069 162.978 162.894 161.727 161.589 160.355 160.152 158.891 158.673 
157.471 157.301 156.226 156.13 155.201 155.172 166.127 165.099 165.088 
163.975 163.919 162.7 162.561 161.246 161.045 159.733 159.556 158.327 
158.197 157.076 156.991 156.016 155.99 168.173 167.172 167.224 166.167 
166.184 165.049 164.99 163.72 163.551 162.19 161.996 160.674 160.53 
159.283 159.165 157.995 157.905 156.875 156.844 157.663 158.841 158.63 
159.49 160.199 159.965 160.916 160.652 161.617 161.626 161.412 162.446 
162.184 163.22 162.916 163.949 163.151 162.924 164.059 163.795 164.941 
164.628 165.776 165.401 166.515 164.744 164.538 165.757 165.505 166.786 
166.486 167.803 167.406 168.67 168.154 169.301 166.183 166.106 167.354 
167.212 168.563 168.39 169.863 169.576 170.997 170.488 171.727 171.055 
172.126 167.384 167.442 168.754 168.744 170.155 170.118 171.678 171.596 
173.14 172.827 174.129 173.537 174.616 173.876 174.82 168.452 168.596 
170.027 170.127 171.659 171.699 173.308 173.325 174.9 174.797 176.134 
175.778 176.845 176.274 177.194 176.48 177.288 169.418 169.646 171.146 
171.382 172.986 173.164 174.758 174.863 176.348 176.368 177.651 177.519 
178.577 178.258 179.164 178.67 179.462 178.793 179.449 152.637 151.931 
152.01 151.558 151.587 151.428 150.951 151.001 150.688 151.617 151.294 
150.79 150.604 150.279 150.313 150.155 151.622 151.366 150.824 150.569 
150.152 150.047 149.82 149.894 149.778 151.436 151.267 150.698 150.511 
149.998 149.893 149.575 149.607 149.448 149.545 149.442 151.328 151.093 
150.537 150.311 149.753 149.628 149.288 149.341 149.237 149.313 149.264 
149.297 149.274 151.422 151.107 150.593 150.257 149.693 149.415 149.031 
149.03 148.984 149.138 149.183 149.233 149.234 149.242 149.288 151.629 
151.278 150.819 150.45 149.946 149.524 149.077 148.862 148.743 148.866 
148.95 149.112 149.118 149.19 149.19 149.28 149.35 151.961 151.551 
151.149 150.768 150.376 149.922 149.506 149.083 148.858 148.734 148.791 
148.884 148.952 149.024 149.013 149.107 149.158 149.311 149.401 152.932 
151.885 152.631 153.085 150.967 151.606 152.095 152.827 153.319 150.364 
150.801 151.205 151.86 152.399 153.127 153.688 149.961 150.287 150.595 
151.077 151.554 152.222 152.813 153.551 154.125 149.586 149.873 150.142 
150.539 150.965 151.498 152.087 152.733 153.345 153.998 154.486 149.347 
149.515 149.731 150.072 150.46 150.956 151.534 152.131 152.794 153.362 
153.931 154.403 154.821 149.341 149.369 149.499 149.693 150 150.427 
150.935 151.546 152.178 152.83 153.437 153.971 154.457 154.837 155.232 
149.43 149.412 149.468 149.526 149.749 150.029 150.501 150.98 151.561 
152.149 152.714 153.351 153.852 154.424 154.834 155.263 155.62 149.498 
149.488 149.504 149.501 149.663 149.852 150.358 150.726 151.392 151.748 
152.317 152.696 153.187 153.706 154.162 154.718 155.099 155.573 155.91 
153.638 153.753 154.005 154.631 153.94 154.115 154.696 154.96 155.643 
154.331 154.39 154.934 155.064 155.755 156.069 156.919 154.824 154.892 
155.479 155.461 156.107 156.271 157.148 157.483 158.368 155.114 155.325 
155.989 156.074 156.693 156.744 157.524 157.765 158.657 158.926 159.696 
155.262 155.471 156.097 156.404 157.06 157.263 157.948 158.158 158.963 
159.221 160.009 160.215 160.964 155.579 155.625 156.129 156.392 157.061 
157.421 158.147 158.471 159.23 159.512 160.265 160.504 161.239 161.492 
162.286 156.023 156.012 156.476 156.547 157.173 157.424 158.203 158.566 
159.386 159.725 160.476 160.734 161.421 161.687 162.411 162.756 163.517 
156.39 156.456 156.981 157.012 157.625 157.716 158.46 158.696 159.534 
159.861 160.66 160.936 161.631 161.858 162.542 162.828 163.551 163.894 
164.584 158.844 158.452 158.259 157.583 158.217 157.98 157.269 157.064 
156.409 157.756 157.691 156.974 156.789 156.061 155.886 155.215 157.04 
157.074 156.377 156.342 155.578 155.483 154.771 154.679 154.048 156.548 
156.43 155.793 155.707 155.014 154.92 154.222 154.168 153.528 153.499 
152.878 156.297 156.102 155.51 155.319 154.763 154.544 153.96 153.732 
153.076 152.924 152.234 152.217 151.57 155.994 155.837 155.215 155.084 
154.556 154.425 153.944 153.698 153.053 152.658 151.841 151.569 150.866 
150.885 150.408 155.814 155.569 154.963 154.767 154.191 154.111 153.622 
153.585 153.004 152.717 151.86 151.379 150.566 150.327 149.902 149.964 
149.782 155.936 155.586 155.085 154.707 154.166 153.845 153.323 153.179 
152.665 152.526 151.822 151.443 150.644 150.249 149.773 149.665 149.558 
149.612 149.569 
POINT_DATA 1002
SCALARS Distance double
LOOKUP_TABLE default
153.419 152.384 153.164 154.312 154.137 154.651 155.35 155.167 155.626 
155.934 156.46 156.262 156.767 157.04 157.327 157.685 157.518 158.005 
158.326 158.583 158.992 159.035 158.831 159.3 159.642 159.957 160.354 
160.952 160.369 160.022 160.687 161.028 161.396 161.822 162.408 163.059 
161.582 161.122 162.076 162.538 162.972 163.391 163.911 164.536 165.118 
162.715 162.238 163.307 163.904 164.462 164.935 165.388 165.961 166.577 
167.114 163.823 163.354 164.4 164.996 165.611 166.227 166.773 167.348 
168.012 168.643 169.153 151.988 152.826 151.748 152.582 151.589 153.847 
152.459 151.598 153.65 154.945 152.611 151.828 153.658 154.874 156.14 
152.863 151.953 153.868 154.96 156.121 157.433 152.874 151.842 153.988 
155.075 156.151 157.359 158.697 152.871 151.937 153.985 155.14 156.248 
157.391 158.63 159.883 153.234 152.493 154.167 155.27 156.433 157.574 
158.743 159.927 161.079 153.857 153.25 154.591 155.53 156.66 157.803 
158.915 160.072 161.214 162.291 154.29 154.939 155.256 156.061 156.397 
155.745 157.425 157.828 157.061 156.818 158.873 159.191 158.572 158.294 
158.036 160.157 160.401 160.037 159.882 159.533 159.179 161.575 161.747 
161.469 161.428 161.138 160.685 160.354 163.203 163.128 163.103 162.963 
162.73 162.33 161.949 161.611 164.592 164.269 164.708 164.562 164.276 
163.931 163.58 163.218 162.774 165.607 165.226 165.959 166.067 165.865 
165.497 165.111 164.738 164.314 163.825 164.781 165.287 166.398 165.764 
166.936 168.196 166.219 167.409 168.776 170.116 166.715 167.918 169.264 
170.751 172.108 167.221 168.509 169.758 171.3 172.91 174.261 167.51 
168.986 170.234 171.688 173.571 175.261 176.579 167.372 169.023 170.519 
171.895 173.795 175.914 177.559 178.868 166.921 168.601 170.424 171.982 
173.687 175.93 178.074 179.687 180.983 166.472 168.065 170.016 171.885 
173.542 175.556 177.957 180.088 181.678 182.844 165.382 167.135 165.991 
169.121 167.848 166.619 171.255 170.122 168.714 167.388 173.408 172.495 
171.287 169.76 168.201 175.738 174.763 173.677 172.379 170.746 168.963 
178.294 177.357 176.043 174.699 173.358 171.666 169.751 180.721 180.157 
178.964 177.324 175.817 174.36 172.539 170.506 182.708 182.42 181.725 
180.35 178.575 176.886 175.197 173.222 171.099 184.4 184.113 185.569 
184.952 186.412 183.662 185.482 187.26 184.244 182.883 186.114 187.857 
184.5 183.332 181.398 186.421 187.459 184.731 183.226 181.655 179.389 
185.691 185.994 184.517 182.882 181.28 179.507 177.409 184.076 184.064 
183.46 182.211 180.737 179.22 177.466 175.413 182.171 182.072 181.846 
181.057 179.96 178.686 177.148 175.258 173.151 180.228 180.063 180.063 
179.579 178.812 177.741 176.344 174.651 172.754 170.851 183.868 185.417 
184.448 185.781 184.256 186.608 185.309 183.592 186.908 187.701 184.524 
182.714 186.347 188.093 188.647 183.418 181.247 185.286 187.298 188.741 
188.645 181.589 179.219 183.581 185.556 187.423 188.084 187.342 179.412 
177.137 181.37 183.195 185.17 186.491 186.376 185.336 177.239 175.132 
179.117 180.74 182.499 184.139 184.737 184.185 183.168 175.011 173.163 
176.795 178.329 179.779 181.259 182.279 182.37 181.78 180.961 165.737 
167.237 166.534 168.262 167.376 169.149 169.253 168.137 170.39 171.328 
170.29 169.094 171.609 172.721 173.322 171.556 170.195 172.974 174.224 
174.968 175.304 172.672 171.048 174.342 175.873 176.909 177.448 177.791 
173.493 171.731 175.384 177.303 178.834 179.734 180.244 180.404 174.32 
172.472 176.282 178.38 180.293 181.551 182.309 182.707 182.473 164.26 
164.805 163.239 163.791 162.299 165.572 162.768 161.41 164.463 166.292 
161.708 160.361 163.268 165.092 167.01 160.592 159.234 162.055 163.814 
165.826 167.952 159.603 158.301 160.957 162.539 164.524 166.684 168.857 
158.757 157.574 160.037 161.419 163.192 165.315 167.437 169.539 157.902 
156.911 159.139 160.481 162.015 163.954 166.068 168.097 170.2 157.067 