# vtk DataFile Version 4.0
vtk output
ASCII
DATASET POLYDATA
POINTS 1002 float
-101.211 -76.7759 77.0526 -101.132 -76.0844 76.0183 -101.699 -76.0475 76.764 
-101.762 -76.7836 77.88 -102.27 -76.0082 77.7019 -101.493 -77.7207 78.1686 
-102.269 -76.8145 78.9934 -102.737 -75.9853 78.8983 -102.014 -77.7949 79.1494 
-101.874 -78.7938 79.3391 -102.753 -76.8862 80.3109 -103.293 -76.1288 80.0825 
-102.43 -77.8757 80.4674 -102.349 -79.0004 80.5398 -102.248 -80.0554 80.7079 
-103.465 -77.1651 81.3865 -104.071 -76.4586 80.9948 -102.982 -78.0685 81.7252 
-102.816 -79.2501 81.9228 -102.739 -80.4331 82.0886 -102.628 -81.5365 82.391 
-104.373 -77.6562 82.186 -104.871 -76.8574 81.8198 -103.875 -78.5595 82.5664 
-103.583 -79.6855 82.9481 -103.419 -80.8511 83.3407 -103.256 -81.944 83.7126 
-103.205 -83.0402 84.0237 -105.213 -78.1911 83.0786 -105.581 -77.3396 82.7304 
-104.824 -79.1479 83.4119 -104.542 -80.2707 83.7624 -104.329 -81.3854 84.2436 
-104.085 -82.4187 84.7644 -104 -83.5459 85.1104 -104.107 -84.7183 85.2954 
-105.946 -78.751 84.0338 -106.292 -77.9516 83.5924 -105.573 -79.6235 84.4838 
-105.305 -80.7208 84.8624 -105.174 -81.9359 85.2183 -104.976 -83.0687 85.6492 
-104.818 -84.2616 86.0553 -104.911 -85.5621 86.3058 -105.067 -86.7417 86.4914 
-106.654 -79.3907 84.8524 -107.004 -78.6122 84.3273 -106.249 -80.1761 85.4258 
-105.915 -81.1767 85.9527 -105.83 -82.4818 86.3063 -105.821 -83.8451 86.5527 
-105.691 -85.1559 86.871 -105.646 -86.4906 87.2336 -105.748 -87.7275 87.5377 
-105.798 -88.748 87.8067 -107.331 -80.0596 85.5533 -107.638 -79.2322 84.9939 
-106.983 -80.9046 86.1214 -106.652 -81.9078 86.6693 -106.521 -83.2188 87.0972 
-106.59 -84.6865 87.3527 -106.591 -86.0645 87.5989 -106.485 -87.349 87.9679 
-106.447 -88.5518 88.3673 -106.451 -89.6005 88.7101 -106.405 -90.5155 88.998 
-101.63 -75.588 75.4704 -102.282 -75.485 76.3216 -102.304 -75.0653 74.9315 
-102.837 -74.7576 75.9361 -102.757 -74.18 74.4334 -102.76 -75.2619 77.4204 
-103.136 -73.7242 75.5321 -103.072 -73.1373 74.0248 -103.109 -74.3113 77.1701 
-103.139 -75.1377 78.6752 -103.627 -72.795 75.1148 -103.825 -72.4182 73.7189 
-103.482 -73.3186 76.7992 -103.501 -74.1555 78.4181 -103.777 -75.3238 79.7641 
-104.529 -72.1798 74.7974 -104.838 -71.851 73.4435 -104.264 -72.6481 76.3847 
-104.129 -73.3162 78.0581 -104.318 -74.4022 79.4555 -104.625 -75.6566 80.652 
-105.286 -71.5576 74.5438 -105.492 -71.1646 73.1433 -105.124 -72.1096 76.0824 
-104.976 -72.7189 77.6973 -105.015 -73.5886 79.1663 -105.201 -74.7544 80.4155 
-105.371 -76.0287 81.5911 -105.86 -70.9284 74.2491 -105.987 -70.5946 72.8494 
-105.82 -71.4529 75.8077 -105.738 -72.0742 77.3746 -105.694 -72.8787 78.855 
-105.789 -73.9474 80.2214 -105.91 -75.1934 81.4458 -106.066 -76.5732 82.5514 
-106.648 -70.4831 73.97 -106.736 -70.2617 72.6162 -106.649 -70.867 75.513 
-106.59 -71.4204 77.0633 -106.439 -72.2021 78.5115 -106.387 -73.2496 79.9402 
-106.485 -74.471 81.2703 -106.64 -75.8286 82.3777 -106.828 -77.2704 83.3562 
-107.552 -70.1811 73.8118 -107.623 -70.0364 72.4883 -107.53 -70.4683 75.2928 
-107.489 -70.9752 76.8046 -107.34 -71.7195 78.2197 -107.157 -72.6845 79.625 
-107.119 -73.8418 81.0044 -107.243 -75.16 82.1529 -107.415 -76.5804 83.0956 
-107.554 -77.9734 84.0283 -108.385 -69.9305 73.3437 -108.281 -70.1301 74.8148 
-109.015 -70.0004 74.3811 -108.798 -70.4053 75.8247 -109.698 -70.3879 75.2256 
-108.177 -70.6183 76.3398 -109.428 -71.088 76.5593 -110.469 -71.0442 75.801 
-108.649 -71.2134 77.2716 -108.116 -71.401 77.8244 -110.195 -71.9515 77.3157 
-110.829 -72.031 76.652 -109.356 -72.0203 78.0881 -108.721 -72.1102 78.8288 
-108.028 -72.3067 79.3118 -110.696 -73.0002 78.5433 -110.863 -73.4298 77.9673 
-110.222 -72.8398 79.1821 -109.537 -72.7942 79.9104 -108.765 -72.9655 80.494 
-107.906 -73.3576 80.8032 -111.082 -74.2861 79.9127 -111.195 -74.8994 79.2255 
-110.891 -73.9514 80.568 -110.379 -73.7614 81.165 -109.542 -73.8187 81.671 
-108.662 -74.2063 81.9393 -107.901 -74.7064 82.053 -111.505 -75.6903 81.0013 
-111.647 -76.2829 80.235 -111.345 -75.3683 81.8059 -111.026 -75.2231 82.4295 
-110.289 -75.1908 82.8524 -109.372 -75.4282 83.0303 -108.637 -75.8456 83.0211 
-108.03 -76.2351 83.031 -111.715 -77.3061 81.9776 -111.801 -77.8187 81.2605 
-111.565 -76.9741 82.8206 -111.394 -76.8362 83.5229 -110.92 -76.7336 83.9952 
-110.09 -76.7793 84.2115 -109.302 -77.0743 84.1505 -108.711 -77.4202 84.0213 
-108.148 -77.7091 83.9994 -111.784 -79.1031 83.01 -111.8 -79.477 82.3738 
-111.661 -78.772 83.7838 -111.542 -78.55 84.4702 -111.299 -78.3013 84.9628 
-110.714 -78.0847 85.2923 -109.949 -78.1777 85.3773 -109.293 -78.512 85.2427 
-108.739 -78.824 85.1075 -108.187 -79.0564 85.0462 -108.045 -80.4303 86.053 
-108.592 -80.3263 86.1986 -108.526 -81.9047 87.1268 -109.157 -80.1335 86.3278 
-109.053 -81.9364 87.3292 -109.093 -83.6461 88.0561 -109.772 -79.8386 86.4416 
-109.635 -81.9198 87.4476 -109.615 -83.8683 88.2957 -109.677 -85.6018 88.9565 
-110.469 -79.6509 86.3997 -110.27 -81.8526 87.4242 -110.246 -84.0983 88.4131 
-110.307 -85.98 89.2804 -110.322 -88.0683 90.0382 -111.132 -79.8596 86.1382 
-110.906 -81.9443 87.2134 -110.856 -84.2507 88.3479 -111.007 -86.2727 89.4602 
-111.067 -88.5106 90.3621 -111.012 -91.1772 91.1316 -111.553 -80.2525 85.789 
-111.482 -82.2373 86.9615 -111.397 -84.3981 88.1785 -111.518 -86.4302 89.4503 
-111.662 -88.7682 90.4577 -111.616 -91.6388 91.215 -111.533 -94.2248 91.9006 
-111.773 -80.5108 85.2916 -111.935 -82.4306 86.6557 -111.935 -84.507 87.9643 
-111.919 -86.6123 89.2803 -111.992 -89.0336 90.3267 -111.984 -92.0308 91.0241 
-111.945 -94.8045 91.6853 -111.988 -96.7373 92.3538 -111.92 -80.7285 84.5793 
-112.214 -82.5046 86.0809 -112.361 -84.5325 87.5016 -112.299 -86.8521 88.8645 
-112.26 -89.4499 89.9507 -112.236 -92.4502 90.6578 -112.257 -95.3683 91.294 
-112.449 -97.5002 92.0426 -112.683 -99.0572 92.7036 -111.948 -80.9816 83.8646 
-112.264 -82.6153 85.3528 -112.506 -84.5656 86.7937 -112.506 -87.0424 88.2017 
-112.466 -89.8388 89.3734 -112.479 -92.747 90.1594 -112.529 -95.6125 90.8379 
-112.789 -97.9833 91.6641 -113.224 -99.7603 92.4716 -113.543 -101.378 92.999 
-107.812 -81.4523 86.6236 -108.461 -83.1901 87.5971 -107.596 -82.6112 87.1166 
-109.137 -85.1443 88.4866 -108.432 -84.7001 87.9963 -107.443 -84.0182 87.5652 
-109.705 -87.4985 89.5588 -109.144 -86.9538 89.0237 -108.353 -86.3729 88.5023 
-107.415 -85.5768 87.9747 -110.368 -90.6774 90.8018 -109.742 -89.8275 90.2886 
-109.02 -88.8498 89.766 -108.198 -87.9324 89.1403 -107.408 -87.0224 88.3656 
-111.088 -94.0014 91.8271 -110.563 -93.3668 91.3654 -109.809 -92.1202 90.8835 
-108.863 -90.6262 90.462 -108.056 -89.3589 89.7226 -107.321 -88.329 88.7817 
-111.627 -96.5772 92.4848 -111.311 -96.3978 92.1091 -110.844 -95.7391 91.4975 
-109.919 -94.3069 91.185 -108.869 -92.4893 90.8485 -108.054 -90.853 90.0586 
-107.262 -89.5914 89.1609 -112.214 -98.919 92.9117 -111.792 -98.8598 92.7364 
-111.532 -98.719 92.1352 -111.018 -98.0437 91.6272 -110.047 -96.5491 91.4022 
-109.056 -94.4382 90.9332 -108.169 -92.3463 90.1794 -107.254 -90.7647 89.4643 
-113.052 -101.581 93.1645 -112.396 -101.645 93.1709 -111.929 -101.511 92.877 
-111.617 -101.092 92.3991 -111.028 -100.225 92.0123 -110.162 -98.5634 91.5668 
-109.25 -96.1196 90.9087 -108.235 -93.659 90.2954 -107.207 -91.8226 89.7435 
-114.104 -104.086 93.1835 -113.462 -104.685 93.2164 -114.389 -106.953 92.8878 
-113.68 -107.562 92.8223 -114.365 -109.158 92.1722 -112.655 -104.731 93.2091 
-113.623 -109.226 92.031 -114.123 -110.694 91.343 -112.826 -107.162 92.8201 
-112.077 -104.126 93.0542 -113.268 -110.181 91.1573 -113.667 -112.022 90.4966 
-112.788 -108.37 91.9156 -112.173 -105.992 92.7294 -111.622 -103.205 92.726 
-112.774 -111.033 90.3745 -113.063 -112.575 89.4704 -112.558 -109.122 90.9658 
-112.18 -106.995 91.7423 -111.606 -104.676 92.4127 -110.975 -101.991 92.216 
-112.335 -111.075 89.5881 -112.486 -111.791 88.5121 -112.297 -109.54 90.3546 
-112.091 -107.465 90.8252 -111.566 -105.343 91.4983 -110.914 -103.04 91.8628 
-110.162 -99.8735 91.4998 -111.829 -110.048 88.9638 -111.931 -110.244 88.1252 
-111.871 -109.092 89.8992 -111.755 -107.307 90.3879 -111.308 -105.265 90.7621 
-110.7 -103.222 91.2406 -109.998 -100.489 91.2908 -109.128 -96.9663 90.8569 
-111.138 -108.495 88.7253 -111.323 -108.451 88.2536 -111.103 -107.951 89.4999 
-111.015 -106.592 90.0973 -110.692 -104.728 90.3989 -110.212 -102.807 90.7436 
-109.602 -100.494 91.0192 -108.777 -97.435 90.88 -107.9 -94.2874 90.3928 
-110.452 -106.589 88.6964 -110.726 -106.363 88.4395 -110.262 -106.346 89.1997 
-110.112 -105.437 89.7458 -109.903 -103.919 90.1094 -109.603 -102.119 90.365 
-109.143 -100.077 90.615 -108.404 -97.5531 90.6777 -107.529 -94.776 90.3817 
-106.836 -92.3524 89.7708 -114.143 -102.407 92.9905 -114.638 -105.032 93.0331 
-114.41 -102.909 92.7777 -114.747 -105.391 92.5432 -114.498 -102.956 92.1381 
-114.732 -107.685 92.4639 -114.806 -105.393 91.6122 -114.588 -102.654 91.2508 
-114.738 -108.095 91.6879 -114.616 -110.097 91.5572 -114.868 -104.855 90.7472 
-114.357 -101.838 90.5592 -114.833 -108.064 90.6725 -114.711 -111.013 90.6393 
-114.463 -112.337 90.6147 -114.405 -103.582 90.3931 -113.631 -100.476 90.1083 
-114.834 -106.9 90.0708 -114.822 -110.621 89.6956 -114.694 -113.288 89.5799 
-114.058 -113.638 89.5039 -113.505 -101.861 90.17 -112.936 -98.6946 89.5991 
-114.288 -104.966 90.0071 -114.717 -108.374 89.327 -114.75 -111.774 88.7971 
-114.316 -113.503 88.5016 -113.377 -113.107 88.34 -112.814 -99.711 89.5858 
-112.582 -96.5372 88.8266 -113.439 -102.874 89.8465 -114.186 -105.735 89.3891 
-114.553 -108.631 88.6916 -114.354 -111.127 88.1994 -113.639 -112.041 87.8601 
-112.709 -111.422 87.7783 -112.407 -97.0646 88.6313 -112.272 -94.2354 87.7901 
-112.728 -100.266 89.2372 -113.372 -103.155 89.2856 -113.971 -105.6 88.8626 
-114.081 -107.963 88.4302 -113.686 -109.752 88.1437 -112.957 -110.165 87.937 
-112.099 -109.49 87.9497 -111.959 -94.3861 87.5123 -111.762 -92.1852 86.6566 
-112.171 -97.1595 88.2869 -112.573 -100.04 88.7533 -113.094 -102.52 88.7861 
[...]
CELL_DATA 2000
SCALARS Distance double
LOOKUP_TABLE default
147.199 148.006 147.783 148.267 148.917 148.654 149.153 148.989 149.616 
149.941 149.633 150.161 149.944 150.609 150.444 151.162 151.093 150.745 
151.293 151.018 151.721 151.529 152.326 152.124 152.955 152.312 151.968 
152.557 152.231 152.964 152.73 153.594 153.382 154.266 154.042 154.946 
153.55 153.232 153.89 153.559 154.322 154.053 154.939 154.713 155.623 
155.388 156.303 156.086 157.045 154.801 154.505 155.199 154.902 155.671 
155.421 156.3 156.086 157.004 156.766 157.7 157.473 158.483 158.272 
159.32 156.034 155.766 156.458 156.187 156.936 156.716 157.589 157.422 
158.38 158.175 159.147 158.91 159.944 159.744 160.829 160.615 161.647 
157.194 156.973 157.674 157.428 158.18 157.958 158.839 158.69 159.697 
159.553 160.578 160.376 161.393 161.197 162.235 162.066 163.063 162.858 
163.765 146.819 146.69 147.032 147.634 146.475 146.907 147.472 147.857 
148.493 146.004 146.545 147.116 147.611 148.218 148.715 149.448 145.731 
146.092 146.691 147.174 147.829 148.378 149.153 149.727 150.569 145.896 
146.046 146.639 146.923 147.632 148.055 148.89 149.439 150.339 150.895 
151.764 146.028 146.241 146.796 147.045 147.734 148.038 148.85 149.279 
150.176 150.687 151.574 152.095 152.961 145.987 146.257 146.83 147.155 
147.828 148.158 148.895 149.282 150.112 150.576 151.447 151.933 152.809 
153.316 154.201 146.126 146.293 146.941 147.208 147.938 148.233 148.964 
149.297 150.084 150.512 151.378 151.848 152.732 153.207 154.098 154.585 
155.453 146.518 146.598 147.268 147.444 148.203 148.43 149.193 149.432 
150.211 150.53 151.389 151.808 152.706 153.16 154.041 154.505 155.361 
155.822 156.624 146.986 147.966 147.545 147.747 149.006 148.554 148.777 
148.391 148.67 150.141 149.641 149.862 149.45 149.782 149.388 149.683 
151.359 150.857 151.127 150.633 151.011 150.573 150.948 150.453 150.741 
152.685 152.182 152.592 152.039 152.458 151.925 152.349 151.811 152.16 
151.585 151.913 154.191 153.654 154.187 153.628 154.124 153.506 153.931 
153.307 153.68 153.07 153.42 152.837 153.21 155.731 155.222 155.774 
155.277 155.848 155.254 155.706 155.002 155.358 154.66 155.011 154.38 
154.754 154.167 154.544 157.171 156.712 157.249 156.82 157.416 156.94 
157.442 156.803 157.148 156.407 156.711 156.013 156.359 155.73 156.095 
155.496 155.849 158.583 158.139 158.698 158.266 158.862 158.44 158.969 
158.447 158.803 158.144 158.399 157.706 157.989 157.339 157.667 157.052 
157.385 156.781 157.095 157.977 158.312 158.591 159.518 158.628 158.94 
159.928 160.227 161.234 158.958 159.269 160.307 160.655 161.74 162.021 
163.078 159.343 159.62 160.666 161.042 162.217 162.568 163.739 163.968 
165.163 159.74 160.025 161.047 161.411 162.617 163.047 164.329 164.67 
165.963 166.228 167.626 159.961 160.376 161.421 161.807 162.99 163.436 
164.735 165.198 166.534 166.959 168.347 168.752 170.149 159.921 160.491 
161.608 162.124 163.308 163.789 165.043 165.543 166.859 167.386 168.752 
169.29 170.65 171.104 172.315 159.759 160.386 161.535 162.186 163.384 
163.991 165.215 165.787 167.066 167.638 168.979 169.567 170.933 171.478 
172.758 173.139 174.264 159.588 160.205 161.308 162.01 163.176 163.899 
165.11 165.821 167.093 167.767 169.076 169.717 171.042 171.669 172.98 
173.523 174.753 175.112 176.24 158.042 159.608 158.746 158.6 161.362 
160.446 160.357 159.373 159.199 163.225 162.296 162.32 161.296 161.207 
160.094 159.956 165.345 164.296 164.426 163.378 163.421 162.274 162.198 
160.994 160.884 167.936 166.718 166.947 165.703 165.828 164.595 164.581 
163.332 163.215 161.971 161.809 170.57 169.482 169.821 168.504 168.657 
167.225 167.209 165.799 165.672 164.338 164.154 162.868 162.654 172.714 
171.926 172.314 171.298 171.506 170.182 170.184 168.642 168.5 166.942 
166.736 165.282 165.052 163.709 163.485 174.631 173.906 174.327 173.523 
173.841 172.839 172.998 171.666 171.63 170.005 169.801 168.09 167.794 
166.21 165.916 164.534 164.281 176.667 175.907 176.416 175.561 175.984 
175.067 175.393 174.326 174.482 173.118 173.024 171.33 170.994 169.169 
168.737 167.069 166.69 165.284 164.973 178.006 179.929 178.659 177.829 
181.344 180.455 179.714 178.358 177.368 181.957 181.49 180.884 179.997 
179.031 177.758 176.7 182.082 181.765 181.118 180.705 179.882 179.095 
178.056 176.934 175.784 181.877 181.711 180.973 180.698 179.934 179.532 
178.643 177.954 176.838 175.79 174.393 181.051 181.26 180.631 180.51 
179.726 179.426 178.559 178.178 177.161 176.509 175.121 174.055 172.348 
179.704 180.197 179.748 179.972 179.225 179.099 178.11 177.869 176.815 
176.487 175.18 174.467 172.756 171.704 169.918 178.243 178.789 178.38 
178.846 178.17 178.325 177.294 177.204 176.057 175.907 174.666 174.268 
172.691 171.892 170.123 169.199 167.64 176.73 177.292 176.805 177.348 
176.692 177.048 176.1 176.191 175.062 175.017 173.825 173.624 172.224 
171.69 170.06 169.29 167.736 167.008 165.747 178.364 179.07 179.301 
180.212 179.112 179.694 180.633 180.921 181.528 178.694 179.475 180.448 
181.025 181.759 181.973 182.259 177.945 178.903 179.91 180.675 181.605 
182.112 182.729 182.659 182.676 176.726 177.939 178.939 179.953 180.909 
181.798 182.643 183.066 183.281 182.959 182.532 175.101 176.482 177.469 
178.714 179.542 180.724 181.474 182.505 182.794 183.147 182.637 182.344 
181.479 173.257 174.691 175.638 177.035 177.8 179.062 179.626 180.854 
181.149 182.059 181.732 181.957 181.08 180.895 179.974 171.225 172.672 
173.476 175.008 175.738 177.132 177.613 178.842 179.104 180.181 180.136 
180.777 180.247 180.325 179.499 179.333 178.518 169.087 170.466 171.071 
172.634 173.253 174.823 175.259 176.652 176.841 178.062 178.074 179.07 
178.813 179.35 178.719 178.791 177.957 177.849 177.014 159.81 160.685 
160.674 161.555 161.637 161.622 162.59 162.533 163.453 162.765 162.712 
163.815 163.707 164.77 164.571 165.507 164.064 164.037 165.369 165.2 
166.465 166.142 167.229 166.791 167.668 165.344 165.455 166.984 166.926 
168.322 168.032 169.172 168.693 169.601 169.014 169.748 166.421 166.695 
168.231 168.409 169.77 169.742 170.825 170.546 171.401 170.936 171.681 
171.08 171.732 167.247 167.634 169.083 169.404 170.699 170.886 171.999 
171.965 172.906 172.62 173.469 172.994 173.772 173.111 173.731 167.866 
168.325 169.758 170.128 171.466 171.714 172.993 173.09 174.29 174.139 
175.202 174.816 175.758 175.189 175.946 175.149 175.628 168.352 168.865 
170.358 170.793 172.244 172.548 173.97 174.168 175.542 175.568 176.758 
176.542 177.521 177.122 177.933 177.326 177.882 176.98 177.232 158.914 
157.768 158.781 159.688 156.515 157.548 158.453 159.579 160.591 155.263 
156.248 157.162 158.332 159.42 160.552 161.65 154.178 155.032 155.919 
157.063 158.205 159.39 160.489 161.617 162.759 153.329 154.045 154.839 
155.859 156.935 158.136 159.202 160.37 161.38 162.642 163.836 152.605 
153.264 153.958 154.818 155.717 156.814 157.793 158.98 159.928 161.161 
162.227 163.641 164.875 151.891 152.536 153.167 153.93 154.66 155.588 
156.44 157.549 158.506 159.699 160.73 162.025 163.175 164.611 165.77 
151.245 151.819 152.388 153.091 153.721 154.526 155.247 156.233 157.151 
158.315 159.36 160.581 161.646 162.945 164.023 165.412 166.431 150.754 
151.207 151.689 152.297 152.863 153.584 154.218 155.075 155.874 156.965 
157.957 159.188 160.205 161.441 162.411 163.693 164.65 165.999 166.922 
150.662 150.712 150.948 151.523 150.735 151.003 151.649 151.932 152.664 
150.874 151.112 151.87 152.139 152.956 153.199 154.031 151.287 151.431 
152.311 152.513 153.438 153.613 154.524 154.701 155.686 151.973 152.039 
153.006 153.134 154.153 154.255 155.244 155.339 156.405 156.577 157.758 
152.723 152.796 153.751 153.894 154.937 155.067 156.12 156.194 157.304 
157.42 158.647 158.812 160.028 153.387 153.489 154.371 154.559 155.556 
155.791 156.876 157.075 158.229 158.383 159.612 159.758 160.991 161.095 
162.241 154.043 154.124 154.998 155.143 156.139 156.364 157.485 157.762 
158.984 159.252 160.525 160.731 161.984 162.098 163.282 163.32 164.447 
154.773 154.831 155.772 155.858 156.927 157.062 158.256 158.454 159.749 
160.002 161.354 161.609 162.941 163.11 164.361 164.418 165.598 165.588 
166.714 155.517 157.205 156.432 156.629 159.159 158.312 158.606 157.696 
157.907 161.343 160.44 160.881 159.893 160.211 159.136 159.349 163.822 
162.832 163.399 162.352 162.814 161.662 161.945 160.708 160.91 166.536 
165.513 166.169 165.045 165.596 164.413 164.814 163.499 163.716 162.365 
162.556 169.354 168.374 169.18 167.997 168.627 167.349 167.857 166.505 
166.825 165.352 165.507 164.062 164.193 172.113 171.284 172.319 171.192 
171.992 170.607 171.206 169.733 170.17 168.614 168.821 167.186 167.225 
165.677 165.675 174.436 173.929 175.09 174.308 175.25 174.059 174.686 
173.216 173.642 172.069 172.306 170.613 170.61 168.857 168.721 167.089 
166.953 176.046 175.88 176.955 176.673 177.603 176.963 177.543 176.457 
176.731 175.386 175.508 174.002 173.941 172.243 171.989 170.222 169.922 
168.286 168.056 155.15 155.034 155.637 156.778 154.849 155.516 156.716 
157.375 158.648 154.588 155.303 156.527 157.273 158.596 159.312 160.727 
154.242 154.998 156.213 157.027 158.38 159.202 160.684 161.493 163.1 
153.834 154.619 155.854 156.692 158.074 158.947 160.482 161.397 163.092 
163.986 165.731 153.473 154.233 155.524 156.359 157.803 158.679 160.275 
161.204 162.966 163.938 165.773 166.673 168.456 153.248 153.944 155.246 
156.065 157.551 158.454 160.106 161.051 162.85 163.835 165.711 166.677 
168.503 169.384 171.109 153.126 153.766 155.022 155.806 157.273 158.199 
159.865 160.87 162.655 163.689 165.523 166.56 168.354 169.332 171.005 
171.903 173.413 153.044 153.642 154.839 155.579 156.993 157.903 159.537 
160.573 162.318 163.394 165.139 166.233 167.937 169.023 170.625 171.631 
173.058 173.943 175.133 154.195 152.822 153.654 154.005 151.586 152.277 
152.51 153.407 153.769 150.516 151.062 151.167 151.924 152.198 153.146 
153.511 149.495 149.987 149.971 150.603 150.774 151.612 151.912 152.864 
153.184 148.362 148.906 148.844 149.416 149.492 150.217 150.419 151.277 
151.503 152.459 152.732 147.162 147.734 147.723 148.289 148.326 148.956 
149.047 149.785 149.891 150.752 150.936 151.961 152.302 146.097 146.607 
146.646 147.19 147.221 147.791 147.801 148.426 148.441 149.168 149.285 
150.192 150.517 151.602 152.077 145.246 145.669 145.73 146.197 146.223 
146.704 146.672 147.199 147.19 147.807 147.924 148.676 148.991 149.925 
150.413 151.479 152.011 144.564 144.919 145.017 145.404 145.474 145.826 
145.803 146.168 146.168 146.663 146.826 147.471 147.806 148.575 149.038 
149.942 150.472 151.474 151.992 144.266 144.092 144.351 144.747 144.065 
144.263 144.65 144.875 145.215 144.027 144.232 144.57 144.79 145.049 
145.249 145.485 143.854 144.067 144.293 144.591 144.801 145.039 145.222 
145.468 145.786 143.746 143.835 143.966 144.211 144.421 144.711 144.976 
145.248 145.647 145.938 146.483 144.007 143.887 144.079 144.069 144.354 
144.461 144.871 145.095 145.667 145.947 146.621 146.866 147.545 144.64 
144.389 144.717 144.527 144.948 144.786 145.296 145.275 145.959 146.127 
146.92 147.135 147.895 148.06 148.784 145.453 145.163 145.551 145.356 
145.871 145.654 146.197 146.002 146.663 146.641 147.45 147.561 148.376 
148.497 149.265 149.388 150.171 146.328 146.025 146.408 146.224 146.749 
146.591 147.126 146.95 147.54 147.449 148.19 148.213 149.028 149.08 
149.874 149.939 150.734 150.843 151.662 146.938 148.059 147.314 147.088 
149.398 148.563 148.313 147.582 147.426 150.919 149.983 149.698 148.862 
148.65 147.944 147.802 152.737 151.663 151.425 150.395 150.188 149.278 
149.143 148.372 148.287 154.781 153.659 153.521 152.362 152.222 151.077 
150.961 149.937 149.892 149.013 149.008 156.909 155.785 155.705 154.563 
154.466 153.284 153.153 151.975 151.877 150.818 150.79 149.859 149.856 
159.201 158.018 157.979 156.789 156.728 155.547 155.442 154.231 154.09 
152.914 152.818 151.753 151.701 150.735 150.701 161.565 160.415 160.447 
159.194 159.197 157.921 157.902 156.603 156.519 155.216 155.108 153.885 
153.804 152.685 152.621 151.602 151.571 163.74 162.751 162.875 161.721 
161.795 160.524 160.556 159.21 159.164 157.771 157.659 156.297 156.183 
154.912 154.814 153.642 153.569 152.517 152.499 153.365 154.521 154.335 
155.212 155.875 155.655 156.667 156.41 157.451 157.355 157.145 158.31 
158.052 159.262 158.918 160.095 158.918 158.729 160.006 159.796 161.154 
160.877 162.197 161.758 162.945 160.509 160.376 161.736 161.555 163.012 
162.82 164.283 163.937 165.221 164.668 165.785 161.981 161.979 163.448 
163.338 164.877 164.731 166.32 166.064 167.481 166.984 168.162 167.516 
168.574 163.218 163.372 164.931 165.008 166.627 166.605 168.246 168.107 
169.61 169.24 170.478 169.897 170.966 170.288 171.255 164.21 164.479 
166.042 166.341 168.011 168.219 169.85 169.899 171.367 171.218 172.463 
172.093 173.146 172.6 173.523 172.854 173.651 164.971 165.317 166.82 
167.277 168.961 169.396 171.028 171.273 172.67 172.716 173.915 173.812 
174.867 174.572 175.448 174.946 175.647 175.021 175.617 146.004 145.637 
145.595 145.214 145.562 145.38 145.037 144.914 144.566 145.636 145.441 
145.114 144.894 144.523 144.319 143.963 145.453 145.406 145.06 144.964 
144.545 144.326 143.889 143.73 143.485 145.203 145.075 144.679 144.711 
144.335 144.266 143.822 143.665 143.391 143.369 143.354 145.422 144.982 
144.505 144.33 144.037 144.01 143.742 143.624 143.387 143.312 143.288 
143.351 143.437 145.878 145.365 144.796 144.376 144.026 143.862 143.733 
143.639 143.524 143.389 143.321 143.294 143.339 143.417 143.487 146.107 
145.727 145.13 144.711 144.246 143.981 143.79 143.707 143.667 143.578 
143.537 143.414 143.416 143.367 143.443 143.485 143.617 146.273 145.903 
145.387 144.995 144.537 144.207 143.927 143.776 143.714 143.689 143.74 
143.677 143.751 143.613 143.722 143.601 143.772 143.746 143.981 146.141 
145.289 145.806 146.038 144.547 144.97 145.144 145.694 145.973 143.92 
144.257 144.417 144.881 145.209 145.75 146.197 143.504 143.707 143.888 
144.261 144.683 145.168 145.73 146.219 146.828 143.413 143.447 143.6 
143.837 144.288 144.76 145.421 145.906 146.529 146.963 147.538 143.502 
143.476 143.563 143.652 144.025 144.423 145.11 145.635 146.288 146.698 
147.191 147.598 148.08 143.591 143.586 143.695 143.699 144.008 144.246 
144.884 145.35 146.045 146.459 146.975 147.299 147.762 148.137 148.64 
143.758 143.729 143.945 143.916 144.25 144.339 144.892 145.2 145.856 
146.236 146.802 147.128 147.644 147.955 148.5 148.811 149.33 144.115 
144.021 144.311 144.263 144.639 144.655 145.126 145.275 145.814 146.088 
146.631 146.965 147.519 147.871 148.446 148.763 149.285 149.541 149.981 
146.739 146.676 147.044 147.711 146.631 146.992 147.738 148.09 148.798 
146.804 147.016 147.789 148.15 148.949 149.244 149.954 147.366 147.364 
148.066 148.278 149.072 149.381 150.107 150.384 151.073 148.087 148.05 
148.724 148.742 149.47 149.587 150.29 150.501 151.198 151.493 152.282 
148.64 148.706 149.419 149.473 150.202 150.181 150.87 150.862 151.596 
151.721 152.581 152.846 153.787 149.115 149.171 149.837 150.017 150.741 
150.871 151.543 151.564 152.258 152.3 153.139 153.295 154.233 154.46 
155.374 149.696 149.651 150.204 150.333 150.984 151.211 151.845 152.047 
152.652 152.844 153.54 153.793 154.61 154.894 155.741 155.994 156.81 
150.305 150.23 150.719 150.736 151.335 151.454 152.078 152.243 152.835 
153.043 153.67 153.975 154.714 155.095 155.911 156.273 157.096 157.38 
158.185 153.994 153.312 153.32 152.691 152.651 152.656 152.051 152.077 
151.518 151.925 151.956 151.333 151.423 150.93 150.999 150.521 151.165 
151.192 150.564 150.675 150.221 150.386 149.998 150.065 149.566 150.567 
150.511 149.953 149.98 149.543 149.673 149.3 149.46 148.991 149.03 
148.415 150.266 150.103 149.623 149.528 149.079 149.067 148.605 148.708 
148.2 148.322 147.711 147.764 147.139 150.213 149.983 149.529 149.332 
148.83 148.671 148.091 148.037 147.458 147.518 146.952 147.023 146.459 
146.522 146.035 150.241 150.012 149.556 149.304 148.75 148.472 147.827 
147.605 146.994 146.9 146.383 146.375 145.902 145.915 145.474 145.531 
145.169 150.199 150.016 149.542 149.311 148.737 148.428 147.784 147.461 
146.862 146.617 146.112 145.972 145.525 145.464 145.049 145.047 144.684 
144.749 144.471 
POINT_DATA 1002
SCALARS Distance double
LOOKUP_TABLE default
147.578 146.633 147.387 148.387 148.245 148.839 149.331 149.179 149.743 
150.266 150.392 150.256 150.762 151.326 151.896 151.589 151.437 151.902 
152.503 153.154 153.819 152.879 152.622 153.204 153.789 154.493 155.155 
155.866 154.196 153.833 154.596 155.169 155.86 156.517 157.239 158.031 
155.487 155.084 155.918 156.501 157.232 157.922 158.663 159.549 160.382 
156.728 156.293 157.16 157.731 158.537 159.373 160.148 161.023 161.916 
162.645 157.899 157.391 158.399 158.985 159.804 160.752 161.611 162.424 
163.26 164.014 164.638 146.439 147.273 146.363 147.09 145.977 148.057 
146.572 145.467 147.691 148.911 146.241 145.487 147.264 148.536 150.016 
146.414 145.791 147.268 148.37 149.769 151.234 146.521 145.775 147.457 
148.482 149.701 151.06 152.43 146.479 145.71 147.493 148.539 149.667 
150.971 152.312 153.688 146.693 145.978 147.655 148.67 149.687 150.902 
152.264 153.623 154.985 147.125 146.453 147.988 148.968 149.943 151.006 
152.261 153.594 154.909 156.19 147.381 148.132 148.389 149.144 149.489 
149.057 150.292 150.646 150.152 150.142 151.636 151.798 151.458 151.427 
151.278 153.116 153.148 153.027 152.893 152.731 152.474 154.704 154.727 
154.746 154.602 154.302 154.01 153.779 156.237 156.232 156.386 156.416 
156.105 155.671 155.356 155.13 157.672 157.614 157.843 158.024 157.892 
157.45 157.015 156.708 156.451 159.137 159.004 159.29 159.459 159.429 
159.093 158.656 158.297 158 157.705 158.837 159.234 160.485 159.591 
160.965 162.254 159.924 161.413 162.846 164.136 160.285 161.796 163.45 
164.925 166.433 160.703 162.16 163.902 165.639 167.331 169.123 161.001 
162.566 164.251 166.056 167.911 169.81 171.522 161.019 162.81 164.556 
166.328 168.198 170.159 171.991 173.439 160.855 162.735 164.612 166.485 
168.395 170.356 172.296 173.995 175.363 160.629 162.443 164.355 166.372 
168.432 170.413 172.367 174.284 175.983 177.377 159.504 161.351 160.217 
163.287 162.325 161.083 165.469 164.525 163.418 162.098 168.259 167.12 
165.846 164.484 163.067 171.073 170.141 168.718 167.071 165.467 163.93 
173.188 172.686 171.697 170.146 168.294 166.453 164.775 175.096 174.701 
174.14 173.165 171.588 169.531 167.407 165.57 177.267 176.892 176.366 
175.68 174.609 172.882 170.578 168.234 166.269 179.38 179.338 181.077 
180.958 182.005 178.855 181.511 182.36 180.188 178.06 181.426 182.464 
180.422 179.044 177.07 181.247 181.925 180.251 179.136 177.754 175.696 
180.613 180.618 180.035 178.896 177.651 176.082 173.593 179.364 179.135 
179.273 178.371 177.068 175.732 173.733 170.949 177.872 177.727 177.907 
177.336 176.18 174.927 173.345 171.004 168.422 176.28 176.186 176.268 
175.907 175.061 173.949 172.605 170.728 168.452 166.338 178.341 180.187 
178.688 180.214 178.441 181.508 179.779 177.871 181.363 182.415 179.067 
176.903 180.896 182.571 183.208 177.854 175.428 179.907 181.939 183.428 
183.212 176.171 173.709 178.39 180.34 182.156 182.804 181.898 174.2 
171.871 176.55 178.468 180.079 181.224 181.172 180.172 171.952 169.858 
174.283 176.387 177.99 179.251 179.941 179.635 178.693 169.593 167.814 
171.676 173.808 175.589 176.953 178.026 178.479 178.05 177.132 159.802 
161.595 160.661 162.613 161.64 163.566 163.888 162.771 164.95 165.802 
165.457 163.97 166.768 167.685 168.211 166.943 165.125 168.556 169.649 
170.191 170.411 168.023 166.119 169.733 171.028 171.804 172.213 172.426 
168.766 166.861 170.464 171.906 173.071 173.851 174.349 174.547 169.353 
167.39 171.162 172.78 174.303 175.506 176.255 176.675 176.62 157.942 
158.604 156.761 157.284 155.502 159.475 155.961 154.329 158.243 160.545 
154.81 153.399 156.99 159.385 161.542 153.93 152.664 155.781 158.037 
160.186 162.419 153.203 151.954 154.748 156.627 158.718 160.883 163.385 
152.457 151.267 153.846 155.394 157.303 159.499 161.812 164.333 151.736 
150.736 152.975 154.346 156.007 158.146 160.436 162.693 165.045 151.152 