# vtk DataFile Version 4.0
vtk output
ASCII
DATASET POLYDATA
POINTS 1002 float
-105.291 -78.9477 73.4186 -105.279 -78.2051 72.0962 -105.691 -78.0472 73.0248 
-105.735 -78.8761 74.5085 -106.154 -78.0004 74.1481 -105.245 -79.7518 74.9668 
-106.171 -78.8007 75.765 -106.727 -78.0272 75.378 -105.655 -79.6776 76.204 
-105.304 -80.66 76.5972 -106.728 -78.7817 77.0717 -107.373 -78.1182 76.5944 
-106.107 -79.6182 77.5767 -105.749 -80.7188 77.9729 -105.649 -81.8739 78.2811 
-107.437 -79.0103 78.3361 -108.004 -78.2877 77.8463 -106.789 -79.8293 78.9246 
-106.332 -80.9668 79.4242 -106.167 -82.2423 79.7844 -106.044 -83.4203 80.1502 
-108.172 -79.4436 79.6264 -108.596 -78.5164 79.2479 -107.62 -80.3886 80.1359 
-107.12 -81.5008 80.6939 -106.85 -82.7682 81.17 -106.627 -83.9613 81.6379 
-106.372 -85.0767 82.106 -108.835 -79.8859 80.9985 -109.16 -78.86 80.6565 
-108.375 -80.9612 81.3561 -107.902 -82.0578 81.8183 -107.626 -83.2919 82.2942 
-107.43 -84.563 82.8013 -107.178 -85.7297 83.3552 -106.979 -86.826 83.7708 
-109.424 -80.3551 82.2922 -109.72 -79.367 81.8476 -109.012 -81.4416 82.6595 
-108.565 -82.5159 83.0827 -108.334 -83.7491 83.4989 -108.251 -85.2199 83.8697 
-108.104 -86.6178 84.3516 -107.928 -87.7804 84.8429 -107.803 -88.8172 85.1531 
-109.986 -80.8816 83.3739 -110.301 -79.937 82.8356 -109.61 -81.9854 83.8209 
-109.196 -83.1201 84.3193 -108.981 -84.4073 84.8208 -108.979 -86.0427 85.139 
-108.905 -87.7085 85.4448 -108.71 -88.9968 85.9019 -108.543 -90.0158 86.3262 
-108.446 -91.0159 86.6157 -110.55 -81.4103 84.276 -110.876 -80.4846 83.7105 
-110.224 -82.5795 84.7216 -109.882 -83.8813 85.2036 -109.653 -85.314 85.7804 
-109.635 -87.0206 86.2375 -109.608 -88.8037 86.5606 -109.382 -90.2076 86.9883 
-109.109 -91.2321 87.4879 -108.959 -92.2259 87.8856 -108.935 -93.3165 88.1791 
-105.482 -77.3208 71.4858 -105.88 -77.0761 72.4568 -105.797 -76.3956 70.9724 
-106.342 -76.1314 71.9384 -106.538 -75.6826 70.3836 -106.502 -77.0667 73.6219 
-107.268 -75.4856 71.3009 -107.565 -75.1933 69.5716 -107.163 -76.1813 73.0995 
-107.269 -77.2184 74.8661 -108.157 -74.911 70.6158 -108.363 -74.5126 68.7821 
-108.017 -75.4853 72.5455 -107.992 -76.3748 74.3692 -107.973 -77.3685 76.0998 
-108.75 -74.0075 70.2145 -109.038 -73.6536 68.3342 -108.624 -74.6801 72.1543 
-108.695 -75.5491 73.9361 -108.68 -76.502 75.6622 -108.554 -77.4548 77.4691 
-109.631 -73.2514 70.0483 -109.991 -73.2051 68.1065 -109.347 -73.779 71.9471 
-109.356 -74.7086 73.5914 -109.442 -75.6686 75.2689 -109.26 -76.5785 77.1356 
-109.075 -77.6157 79.0053 -110.833 -73.112 69.8081 -111.07 -73.1644 67.8701 
-110.579 -73.35 71.6618 -110.393 -74.1006 73.1968 -110.319 -75.0104 74.8348 
-110.102 -75.8356 76.7937 -109.743 -76.8109 78.7106 -109.606 -78.0392 80.3933 
-111.873 -73.0877 69.5137 -112.062 -72.9969 67.6614 -111.758 -73.2548 71.3275 
-111.595 -73.7793 72.836 -111.33 -74.5424 74.4111 -110.972 -75.2617 76.4026 
-110.549 -76.143 78.3783 -110.255 -77.3596 80.0169 -110.217 -78.6819 81.4885 
-112.741 -72.7559 69.3235 -112.99 -72.5952 67.5883 -112.593 -72.9424 71.1165 
-112.472 -73.3409 72.7077 -112.2 -74.0119 74.2328 -111.765 -74.746 76.0455 
-111.325 -75.5962 77.9653 -111.017 -76.7841 79.5941 -110.889 -78.128 81.0242 
-110.872 -79.3545 82.4364 -113.72 -72.3011 68.6869 -113.459 -72.4145 70.5203 
-114.384 -72.2434 69.8381 -114.113 -72.3034 71.7382 -114.759 -72.6841 70.9149 
-113.23 -72.6485 72.3823 -114.48 -72.9012 72.9222 -114.783 -73.7225 72.1557 
-113.762 -72.656 73.7456 -112.947 -73.2228 74.1174 -114.647 -74.2908 74.2067 
-114.981 -75.1108 73.7071 -114.16 -73.5856 74.9829 -113.354 -73.5503 75.5668 
-112.517 -74.1236 75.8166 -115.092 -75.8603 75.5313 -115.728 -76.4235 75.147 
-114.593 -75.2267 76.1352 -113.909 -74.8157 76.6967 -112.955 -74.872 77.138 
-112.065 -75.2003 77.5762 -115.725 -77.183 76.6705 -116.482 -77.5991 76.3036 
-115.101 -76.7552 77.3415 -114.567 -76.4068 77.9082 -113.685 -76.2993 78.2694 
-112.641 -76.3625 78.7318 -111.768 -76.5163 79.2512 -116.064 -78.4772 77.7502 
-116.757 -78.8187 77.4679 -115.374 -78.1175 78.493 -114.962 -77.7902 79.3206 
-114.336 -77.6909 79.7701 -113.348 -77.7834 80.0501 -112.419 -77.8701 80.4444 
-111.632 -77.961 80.8061 -116.178 -79.8011 78.9096 -116.754 -80.0076 78.616 
-115.444 -79.5805 79.5638 -115.009 -79.2848 80.4748 -114.6 -79.0748 81.1875 
-113.822 -79.1029 81.5496 -112.964 -79.2042 81.8362 -112.254 -79.2259 82.1399 
-111.558 -79.2476 82.3465 -116.275 -80.9709 80.0135 -116.669 -81.0509 79.5598 
-115.593 -80.9591 80.6448 -115.056 -80.8815 81.4299 -114.683 -80.7141 82.1718 
-114.101 -80.6132 82.6927 -113.347 -80.6055 83.063 -112.7 -80.5405 83.4114 
-112.109 -80.4197 83.6798 -111.476 -80.3837 83.7724 -111.224 -81.6747 84.9053 
-111.83 -81.6927 85.0182 -111.622 -83.3479 85.9705 -112.457 -81.9059 84.8862 
-112.236 -83.5663 86.1019 -112.082 -85.6044 86.9541 -113.072 -82.1746 84.5636 
-112.928 -83.9174 86.0317 -112.725 -85.964 87.179 -112.515 -88.2695 88.1367 
-113.741 -82.324 84.1871 -113.62 -84.1835 85.8765 -113.498 -86.2768 87.3448 
-113.216 -88.685 88.4908 -112.899 -91.1566 89.6527 -114.403 -82.4004 83.7508 
-114.238 -84.2953 85.6163 -114.159 -86.4421 87.3993 -113.992 -88.9814 88.7529 
-113.68 -91.6916 90.032 -113.307 -94.1716 91.2684 -114.883 -82.4647 83.1759 
-114.743 -84.3663 85.1639 -114.62 -86.5933 87.1298 -114.506 -89.218 88.6884 
-114.358 -92.0867 90.1387 -114.074 -94.8158 91.5948 -113.688 -97.2856 92.5636 
-115.327 -82.4068 82.4507 -115.138 -84.3344 84.5383 -115.002 -86.7598 86.615 
-114.879 -89.521 88.3104 -114.75 -92.4036 89.8826 -114.587 -95.2232 91.5612 
-114.303 -97.9473 92.8059 -114.006 -100.652 93.2917 -115.896 -82.2394 81.6359 
-115.504 -84.1105 83.7049 -115.268 -86.7082 85.9412 -115.231 -89.7167 87.8754 
-115.138 -92.7052 89.563 -114.924 -95.5412 91.2998 -114.706 -98.3644 92.741 
-114.516 -101.305 93.4441 -114.427 -104.235 93.5633 -116.337 -82.1473 80.8639 
-115.819 -83.8677 82.7284 -115.391 -86.4334 85.0316 -115.367 -89.5598 87.2684 
-115.471 -92.743 89.2043 -115.295 -95.7803 91.0015 -115.029 -98.7379 92.5129 
-114.931 -101.738 93.3864 -114.965 -104.759 93.6523 -115.052 -107.541 93.5957 
-110.933 -82.8959 85.3979 -111.44 -84.9562 86.4175 -110.685 -84.423 85.7978 
-111.971 -87.572 87.5589 -111.325 -86.8673 86.8659 -110.466 -86.1326 86.3102 
-112.356 -90.4985 89.0948 -111.907 -89.7241 88.2701 -111.198 -88.8954 87.4448 
-110.352 -88.0016 86.8929 -112.657 -93.5685 90.8279 -112.257 -92.7857 90.086 
-111.791 -91.8433 89.0286 -111.068 -90.8749 88.1 -110.302 -89.8985 87.4195 
-113.033 -96.8193 92.2341 -112.535 -96.1242 91.7326 -112.157 -95.1453 90.9014 
-111.631 -93.8774 89.8017 -110.901 -92.6172 88.8545 -110.096 -91.449 88.0099 
-113.491 -100.447 93.048 -112.98 -99.9289 92.7364 -112.517 -99.1143 92.3134 
-112.062 -97.7566 91.5332 -111.497 -95.9158 90.5333 -110.672 -94.1289 89.6135 
-109.773 -92.6219 88.642 -114.044 -104.401 93.3842 -113.645 -104.129 93.176 
-113.148 -103.489 92.9853 -112.589 -102.368 92.5951 -112.115 -100.456 91.8373 
-111.499 -97.9843 90.9614 -110.522 -95.6572 90.1264 -109.568 -93.7908 89.1243 
-114.714 -108.086 93.4433 -114.393 -108.13 93.2525 -113.983 -107.629 93.0903 
-113.386 -106.676 92.889 -112.82 -105.126 92.4425 -112.369 -102.762 91.7547 
-111.62 -99.9075 91.0811 -110.512 -97.2481 90.4085 -109.547 -95.0957 89.4513 
-115.597 -110.865 93.3526 -115.197 -111.443 93.1218 -116.014 -113.703 92.7422 
-115.441 -114.121 92.3833 -116.089 -116.181 91.7643 -114.808 -111.295 92.8405 
-115.357 -116.361 91.383 -116.012 -118.81 90.756 -114.94 -113.645 91.9684 
-114.313 -110.446 92.5988 -115.257 -118.546 90.4846 -115.93 -120.963 89.8289 
-114.852 -115.538 90.9818 -114.446 -112.433 91.7222 -113.677 -109.079 92.378 
-115.094 -119.717 89.6175 -115.479 -121.117 88.8339 -114.744 -117.119 90.2 
-114.38 -113.991 90.899 -113.83 -110.726 91.6832 -113.128 -107.086 92.0013 
-114.448 -118.959 88.7629 -114.547 -119.418 88.0244 -114.388 -117.46 89.5371 
-114.099 -115.021 90.2822 -113.622 -111.887 91.0721 -113.156 -108.354 91.546 
-112.525 -104.277 91.5018 -113.521 -117.264 88.2258 -113.67 -117.401 87.6841 
-113.635 -116.446 89.0545 -113.587 -114.876 89.842 -113.166 -112.321 90.5372 
-112.745 -108.966 91.1085 -112.306 -105.166 91.3142 -111.494 -101.066 91.0603 
-112.859 -115.567 88.0524 -113.187 -115.444 87.7454 -112.837 -115.014 88.7845 
-112.933 -113.812 89.6044 -112.714 -111.77 90.2053 -112.263 -108.81 90.6922 
-111.829 -105.358 91.0847 -111.183 -101.732 91.0516 -110.295 -98.1515 90.4392 
-112.507 -113.417 88.1472 -112.893 -112.923 88.0501 -112.268 -113.219 88.6465 
-112.259 -112.278 89.4167 -112.196 -110.545 90.0632 -111.853 -107.987 90.4568 
-111.388 -104.938 90.7737 -110.829 -101.804 90.8545 -110.094 -98.6838 90.3437 
-109.39 -95.7503 89.3221 -115.749 -108.766 93.564 -116.397 -111.87 93.1368 
-116.395 -109.515 93.2871 -117.015 -112.212 92.5689 -116.678 -109.637 92.6385 
-116.767 -114.576 92.2252 -117.128 -111.996 91.7102 -116.518 -109.176 91.8337 
-117.217 -114.863 91.3809 -116.803 -117.437 91.0141 -116.82 -111.472 91.0208 
-116.07 -108.254 91.3269 -117.079 -114.532 90.6071 -117.122 -117.896 90.1316 
-116.755 -120.419 89.9094 -116.272 -110.475 90.7771 -115.423 -106.518 91.0483 
-116.583 -113.637 90.3433 -116.735 -116.976 89.733 -116.934 -120.288 89.1434 
-116.485 -121.843 88.9139 -115.506 -108.186 90.6347 -114.819 -103.657 90.426 
-115.942 -111.938 90.4008 -116.024 -114.999 89.8938 -116.357 -118.119 89.0681 
-116.461 -120.441 88.3599 -115.677 -120.731 88.0498 -114.825 -104.571 90.1123 
-114.584 -100.41 89.202 -115.201 -108.855 90.3671 -115.35 -112.306 90.099 
-115.601 -115.126 89.3939 -115.976 -117.531 88.5181 -115.679 -118.749 87.8858 
-114.672 -118.485 87.6181 -114.506 -100.867 88.9715 -114.61 -97.7516 87.5772 
-114.619 -104.78 89.8899 -114.787 -108.608 90.0718 -115.011 -111.699 89.617 
-115.414 -114.18 88.8887 -115.506 -115.944 88.243 -114.888 -116.598 87.8205 
-113.961 -116.291 87.6479 -114.374 -97.9893 87.3179 -114.561 -95.8339 85.8792 
-114.312 -100.946 88.6727 -114.407 -104.371 89.4763 -114.574 -107.528 89.5225 
[...]
CELL_DATA 2000
SCALARS Distance double
LOOKUP_TABLE default
149.223 149.993 149.837 150.347 150.912 150.684 151.197 151.016 151.573 
151.964 151.664 152.159 151.921 152.526 152.359 153.09 153.134 152.791 
153.34 153.009 153.692 153.447 154.292 154.101 155.012 154.394 154.055 
154.711 154.339 155.096 154.779 155.686 155.444 156.414 156.172 157.117 
155.699 155.393 156.116 155.775 156.536 156.229 157.103 156.877 157.844 
157.624 158.597 158.332 159.288 156.984 156.721 157.468 157.169 157.916 
157.624 158.466 158.252 159.237 159.055 160.104 159.866 160.903 160.59 
161.594 158.209 157.983 158.741 158.49 159.261 158.986 159.866 159.637 
160.702 160.515 161.678 161.449 162.576 162.268 163.319 162.957 163.965 
159.36 159.164 159.92 159.723 160.53 160.319 161.244 161.066 162.179 
162.043 163.262 163.083 164.238 163.96 164.996 164.663 165.65 165.314 
166.326 148.673 148.088 148.677 149.383 147.747 148.16 148.868 149.502 
150.34 147.753 147.995 148.663 149.123 150.002 150.586 151.459 147.755 
148.049 148.678 149.051 149.868 150.359 151.242 151.758 152.607 147.594 
147.944 148.566 149.005 149.773 150.263 151.098 151.586 152.412 152.917 
153.784 147.737 147.892 148.554 148.877 149.679 150.134 150.999 151.473 
152.304 152.756 153.593 154.117 155.033 148.322 148.317 149.038 149.12 
149.944 150.179 151.081 151.446 152.334 152.719 153.552 153.974 154.848 
155.384 156.312 148.942 148.984 149.702 149.761 150.533 150.634 151.45 
151.663 152.513 152.82 153.646 153.993 154.822 155.254 156.148 156.671 
157.568 149.418 149.512 150.165 150.312 151 151.161 151.853 152.041 
152.757 153.016 153.771 154.094 154.887 155.268 156.122 156.571 157.459 
157.935 158.771 149.875 150.817 150.41 150.606 151.813 151.385 151.558 
151.185 151.432 152.876 152.42 152.613 152.178 152.414 152.039 152.3 
154.218 153.619 153.892 153.342 153.592 153.097 153.36 152.936 153.206 
155.927 155.17 155.482 154.803 155.108 154.447 154.71 154.117 154.399 
153.912 154.217 157.659 156.916 157.169 156.492 156.838 156.133 156.435 
155.673 155.952 155.271 155.604 155.038 155.384 159.136 158.491 158.66 
158.082 158.429 157.861 158.229 157.507 157.794 157 157.318 156.602 
156.974 156.321 156.679 160.399 159.842 159.992 159.455 159.781 159.333 
159.751 159.214 159.529 158.831 159.101 158.381 158.714 158.022 158.371 
157.68 158.012 161.481 161.051 161.263 160.761 161.088 160.645 161.086 
160.64 161.018 160.444 160.72 160.075 160.367 159.726 160.044 159.381 
159.674 158.996 159.279 160.176 160.606 160.825 161.74 161.01 161.28 
162.258 162.499 163.559 161.353 161.678 162.75 163.061 164.21 164.467 
165.696 161.684 162.025 163.172 163.573 164.849 165.176 166.491 166.755 
168.135 161.955 162.346 163.495 163.98 165.328 165.798 167.207 167.574 
169.031 169.33 170.813 162.037 162.528 163.662 164.238 165.579 166.185 
167.624 168.178 169.687 170.174 171.727 172.069 173.528 162.01 162.517 
163.638 164.292 165.635 166.346 167.806 168.478 170.002 170.656 172.245 
172.829 174.346 174.704 176.063 162.049 162.468 163.486 164.149 165.456 
166.288 167.808 168.615 170.196 170.911 172.514 173.193 174.764 175.333 
176.771 177.143 178.486 162.104 162.46 163.286 163.893 165.056 165.956 
167.469 168.489 170.153 171.053 172.69 173.437 175.022 175.67 177.182 
177.714 179.134 179.533 180.871 160.223 161.805 160.937 160.83 163.672 
162.676 162.617 161.639 161.536 165.873 164.756 164.789 163.646 163.613 
162.48 162.4 168.37 167.165 167.31 166.051 166.092 164.796 164.784 
163.519 163.477 171.066 169.816 170.044 168.742 168.847 167.456 167.446 
166.07 166.046 164.718 164.638 173.781 172.574 172.845 171.563 171.755 
170.34 170.352 168.85 168.765 167.338 167.213 165.842 165.62 176.397 
175.29 175.661 174.421 174.752 173.365 173.531 171.932 171.868 170.203 
170.008 168.446 168.165 166.71 166.365 178.964 177.956 178.522 177.332 
177.828 176.486 176.842 175.272 175.357 173.551 173.374 171.496 171.168 
169.399 169.013 167.433 167.051 181.428 180.57 181.268 180.228 180.793 
179.583 179.975 178.576 178.731 177.081 176.966 175.064 174.724 172.706 
172.261 170.337 169.906 168.2 167.811 182.936 184.934 183.659 182.849 
186.319 185.396 184.677 183.405 182.389 187.326 186.505 185.782 184.877 
183.938 182.722 181.518 188.273 187.441 186.559 185.722 184.785 183.906 
182.794 181.621 180.233 188.425 188.097 187.105 186.4 185.343 184.566 
183.489 182.597 181.301 180.109 178.492 187.106 187.531 186.647 186.548 
185.47 184.968 183.802 183.101 181.816 180.908 179.328 178.103 176.238 
185.137 185.795 185.145 185.571 184.713 184.709 183.557 183.151 181.776 
181.142 179.567 178.662 176.808 175.608 173.651 183.458 183.985 183.488 
183.991 183.371 183.667 182.698 182.591 181.221 180.81 179.229 178.62 
176.864 175.955 174.032 172.925 171.106 181.916 182.459 181.952 182.454 
181.869 182.283 181.44 181.559 180.292 180.06 178.511 178.09 176.441 
175.821 174.04 173.157 171.343 170.396 168.808 183.307 184.255 184.367 
185.271 184.569 185.038 185.952 186.074 186.659 184.124 184.955 185.908 
186.438 187.205 187.305 187.786 183.222 184.252 185.243 186.07 187.017 
187.623 188.446 188.508 188.882 181.981 183.254 184.278 185.238 186.134 
187.088 188.021 188.774 189.284 189.329 189.05 180.028 181.734 182.814 
184.087 184.808 185.896 186.571 187.742 188.197 188.987 188.654 188.671 
187.621 177.423 179.365 180.454 182.198 182.903 184.241 184.658 185.899 
186.196 187.322 187.13 187.672 186.775 186.708 185.535 174.807 176.576 
177.539 179.474 180.253 181.938 182.347 183.728 183.929 185.155 185.122 
185.97 185.441 185.705 184.797 184.695 183.771 172.539 173.988 174.711 
176.49 177.228 179.055 179.524 181.13 181.296 182.712 182.694 183.876 
183.564 184.28 183.597 183.851 182.995 183.017 182.16 162.27 162.764 
162.802 163.462 163.619 163.523 164.428 164.328 165.316 165.217 164.89 
166.082 165.715 166.949 166.648 167.902 167.151 166.905 168.341 167.846 
169.191 168.662 170.023 169.564 170.795 168.612 168.75 170.29 170.129 
171.456 171.014 172.283 171.821 173.087 172.519 173.515 169.519 169.878 
171.394 171.668 173.029 172.977 174.205 173.95 175.228 174.825 175.95 
175.205 175.967 170.319 170.641 172.13 172.525 174.063 174.292 175.742 
175.705 177.136 176.912 178.246 177.684 178.623 177.649 178.216 171.117 
171.43 172.951 173.332 175.082 175.419 177.196 177.29 178.923 178.806 
180.28 179.943 181.084 180.325 181.004 179.869 180.254 171.767 172.181 
173.769 174.228 176.11 176.584 178.559 178.834 180.551 180.545 181.945 
181.797 182.947 182.571 183.364 182.556 182.979 181.813 182.029 161.755 
160.994 161.621 162.097 159.972 160.734 161.202 161.939 162.7 158.79 
159.654 160.235 161.022 161.778 162.721 163.964 157.669 158.516 159.23 
160.086 160.906 161.813 162.925 164.135 165.634 156.779 157.494 158.177 
159.067 159.926 160.909 161.927 163.036 164.281 165.669 167.048 156.124 
156.693 157.219 157.989 158.75 159.797 160.782 161.928 163.009 164.253 
165.457 166.864 168.07 155.533 156.049 156.45 157.053 157.639 158.566 
159.482 160.65 161.687 162.9 163.987 165.3 166.487 167.849 168.978 
154.866 155.387 155.715 156.262 156.711 157.486 158.268 159.337 160.326 
161.507 162.53 163.797 164.916 166.293 167.449 168.772 169.801 154.151 
154.645 154.917 155.465 155.849 156.547 157.206 158.152 159.05 160.155 
161.13 162.323 163.364 164.69 165.797 167.178 168.207 169.507 170.41 
153.824 153.61 153.979 154.577 153.772 153.945 154.621 154.884 155.608 
154.291 154.352 155.074 155.17 155.966 156.141 157.041 154.696 154.893 
155.634 155.754 156.554 156.671 157.615 157.808 158.872 154.854 155.181 
156.02 156.275 157.157 157.316 158.312 158.493 159.632 159.816 160.969 
155.182 155.429 156.448 156.712 157.782 157.971 159.107 159.288 160.545 
160.707 161.971 162.048 163.25 155.879 156.004 157.136 157.333 158.524 
158.709 159.934 160.142 161.461 161.682 163.009 163.135 164.387 164.426 
165.646 156.751 156.841 157.966 158.136 159.332 159.524 160.756 160.981 
162.29 162.561 163.892 164.119 165.379 165.522 166.737 166.824 168.003 
157.608 157.709 158.79 158.956 160.131 160.337 161.598 161.825 163.176 
163.415 164.798 165.004 166.329 166.479 167.742 167.858 169.073 169.131 
170.239 158.412 160.131 159.376 159.654 162.177 161.293 161.641 160.758 
161.068 164.574 163.586 164.074 163.013 163.409 162.348 162.672 167.191 
166.181 166.804 165.684 166.207 164.992 165.385 164.126 164.402 169.951 
168.932 169.646 168.527 169.132 167.931 168.412 167.081 167.36 165.941 
166.097 172.978 171.894 172.771 171.541 172.233 170.942 171.51 170.18 
170.558 169.07 169.181 167.628 167.654 176.187 175.144 176.248 174.956 
175.823 174.328 174.98 173.452 173.954 172.389 172.614 170.894 170.843 
169.157 169.096 179.043 178.299 179.489 178.477 179.461 178.095 178.782 
177.16 177.637 175.958 176.244 174.464 174.433 172.532 172.312 170.563 
170.424 181.066 180.734 181.805 181.304 182.238 181.407 182.05 180.79 
181.121 179.59 179.745 178.079 178.022 176.157 175.831 173.888 173.503 
171.79 171.545 157.98 157.805 158.462 159.649 157.546 158.268 159.508 
160.231 161.598 157.197 157.976 159.243 160.053 161.481 162.303 163.87 
156.764 157.592 158.882 159.755 161.237 162.153 163.805 164.7 166.414 
156.289 157.139 158.472 159.388 160.933 161.909 163.638 164.618 166.421 
167.322 169.118 155.873 156.697 158.072 158.998 160.594 161.613 163.396 
164.444 166.307 167.304 169.189 170.101 172.018 155.546 156.334 157.713 
158.628 160.22 161.26 163.044 164.16 166.045 167.144 169.074 170.121 
172.112 173.097 175.097 155.271 156.025 157.363 158.264 159.803 160.844 
162.581 163.74 165.62 166.809 168.754 169.92 171.921 173.067 175.074 
176.122 177.954 155.065 155.755 157.034 157.889 159.359 160.373 162.042 
163.208 165.064 166.317 168.268 169.516 171.491 172.731 174.688 175.888 
177.673 178.692 180.113 156.942 155.427 156.345 156.725 154.156 154.866 
155.129 156.071 156.428 153.148 153.671 153.736 154.484 154.709 155.713 
156.052 152.067 152.612 152.511 153.11 153.122 153.974 154.2 155.276 
155.593 150.725 151.352 151.203 151.817 151.686 152.389 152.434 153.393 
153.638 154.764 155.084 149.39 149.944 149.797 150.429 150.302 150.944 
150.872 151.657 151.782 152.805 153.105 154.26 154.641 148.271 148.697 
148.53 149.075 148.979 149.574 149.484 150.141 150.169 151.024 151.272 
152.331 152.722 153.878 154.323 147.292 147.657 147.469 147.915 147.798 
148.316 148.216 148.79 148.769 149.492 149.688 150.612 150.999 152.05 
152.506 153.622 154.093 146.457 146.751 146.59 146.943 146.818 147.227 
147.116 147.586 147.552 148.161 148.335 149.139 149.521 150.456 150.921 
151.919 152.399 153.456 153.945 146.051 145.712 145.935 146.179 145.679 
145.716 145.849 146.089 146.375 145.784 145.77 145.811 145.853 145.998 
146.281 146.612 145.774 145.836 145.869 145.858 145.898 145.997 146.242 
146.575 147.044 145.748 145.768 145.795 145.832 145.862 145.939 146.163 
146.368 146.869 147.212 147.894 146.058 145.858 145.835 145.751 145.803 
145.876 146.164 146.373 146.939 147.23 147.984 148.305 149.128 146.706 
146.361 146.356 146.029 146.143 146.001 146.398 146.489 147.16 147.401 
148.227 148.52 149.387 149.675 150.532 147.485 147.132 147.251 146.821 
147.049 146.698 147.196 147.038 147.789 147.821 148.707 148.873 149.793 
150.015 150.908 151.138 152.007 148.352 148.01 148.26 147.855 148.181 
147.805 148.336 148.077 148.805 148.675 149.52 149.52 150.43 150.537 
151.459 151.609 152.507 152.675 153.556 148.99 150.075 149.332 148.945 
151.326 150.497 150.133 149.323 148.965 152.867 151.889 151.57 150.643 
150.341 149.474 149.219 154.779 153.646 153.354 152.256 151.967 150.978 
150.771 149.879 149.724 156.895 155.717 155.496 154.266 153.992 152.791 
152.557 151.525 151.403 150.493 150.419 159.08 157.901 157.775 156.547 
156.371 155.046 154.805 153.517 153.363 152.281 152.253 151.301 151.311 
161.373 160.161 160.072 158.864 158.773 157.508 157.342 155.965 155.777 
154.463 154.407 153.279 153.313 152.296 152.338 163.792 162.564 162.525 
161.245 161.191 159.926 159.856 158.537 158.411 157.028 156.929 155.622 
155.614 154.433 154.447 153.367 153.387 166.284 165.099 165.216 163.871 
163.901 162.5 162.498 161.117 161.086 159.698 159.63 158.244 158.183 
156.861 156.814 155.581 155.54 154.424 154.425 155.372 156.574 156.405 
157.378 157.965 157.767 158.843 158.623 159.75 159.466 159.294 160.525 
160.272 161.538 161.235 162.514 161.006 160.903 162.322 162.117 163.58 
163.254 164.721 164.283 165.667 162.542 162.529 164.146 164.042 165.74 
165.483 167.177 166.74 168.304 167.668 169.017 164.079 164.154 165.983 
165.988 167.907 167.763 169.668 169.338 171.089 170.49 171.957 171.118 
172.344 165.577 165.758 167.745 167.895 169.951 169.959 171.964 171.818 
173.689 173.289 174.864 174.128 175.402 174.454 175.56 166.87 167.201 
169.207 169.57 171.631 171.863 173.82 173.914 175.761 175.683 177.293 
176.875 178.135 177.397 178.427 177.536 178.449 167.834 168.304 170.223 
170.795 172.796 173.271 175.133 175.451 177.178 177.395 178.959 178.936 
180.15 179.768 180.644 180.042 180.764 180.064 180.708 148.891 148.354 
148.398 147.958 147.738 147.813 147.348 147.449 147.072 147.225 147.221 
146.825 146.876 146.511 146.606 146.345 147.119 146.905 146.561 146.484 
146.215 146.191 145.966 146.025 145.97 147.259 146.973 146.556 146.358 
146.068 146.002 145.832 145.82 145.766 145.856 145.973 147.273 147.073 
146.602 146.371 145.937 145.832 145.6 145.666 145.62 145.731 145.778 
145.93 146.025 147.303 147.071 146.694 146.425 145.987 145.73 145.422 
145.397 145.364 145.521 145.584 145.731 145.748 145.892 145.898 147.628 
147.256 146.965 146.634 146.312 145.933 145.643 145.388 145.353 145.353 
145.487 145.562 145.617 145.657 145.64 145.736 145.789 148.162 147.706 
147.371 147.002 146.691 146.331 146.044 145.734 145.638 145.511 145.626 
145.602 145.698 145.637 145.633 145.594 145.636 145.734 145.926 149.045 
148.164 148.757 149.1 147.336 147.918 148.311 148.899 149.35 146.645 
147.169 147.655 148.214 148.738 149.285 149.892 146.275 146.63 147.192 
147.692 148.316 148.803 149.425 149.968 150.664 146.262 146.45 146.988 
147.374 148.039 148.48 149.108 149.566 150.175 150.73 151.299 146.27 
146.464 146.889 147.224 147.813 148.242 148.874 149.299 149.9 150.317 
150.855 151.281 151.709 146.11 146.349 146.679 147.024 147.507 147.96 
148.584 149.069 149.755 150.161 150.787 151.063 151.568 151.788 152.238 
146.028 146.188 146.537 146.788 147.253 147.627 148.248 148.753 149.507 
150.025 150.743 151.1 151.64 151.832 152.254 152.44 152.885 146.226 
146.273 146.716 146.819 147.351 147.533 148.165 148.507 149.256 149.752 
150.486 150.959 151.483 151.807 152.127 152.382 152.668 152.985 153.337 
149.646 149.719 149.977 150.613 149.952 150.12 150.756 150.991 151.623 
150.49 150.484 151.093 151.197 151.806 151.997 152.643 151.312 151.213 
151.831 151.717 152.292 152.277 152.933 153.108 153.941 151.92 151.999 
152.646 152.577 153.122 152.952 153.571 153.569 154.469 154.667 155.701 
152.163 152.355 152.96 153.171 153.714 153.734 154.266 154.274 155.101 
155.299 156.373 156.578 157.548 152.575 152.578 153.13 153.319 153.916 
154.099 154.639 154.785 155.48 155.786 156.771 157.16 158.152 158.335 
159.092 153.264 153.155 153.712 153.683 154.33 154.374 154.999 155.082 
155.74 155.992 156.857 157.329 158.308 158.742 159.56 159.727 160.329 
153.805 153.832 154.398 154.387 155 154.973 155.581 155.565 156.194 
156.288 157.048 157.365 158.261 158.731 159.579 159.974 160.627 160.816 
161.317 156.718 155.845 155.912 155.219 154.982 155.037 154.42 154.535 
154.033 154.367 154.292 153.771 153.844 153.483 153.557 153.156 154.169 
153.929 153.495 153.413 153.126 153.123 152.765 152.723 152.171 154.056 
153.857 153.425 153.304 152.989 152.893 152.478 152.353 151.751 151.609 
150.879 153.625 153.588 153.072 153.109 152.707 152.708 152.208 152.074 
151.416 151.217 150.495 150.298 149.589 153.152 153.067 152.548 152.591 
152.184 152.262 151.773 151.717 151.053 150.885 150.174 149.983 149.303 
149.106 148.479 153.096 152.811 152.411 152.234 151.931 151.838 151.459 
151.315 150.716 150.509 149.799 149.632 148.951 148.814 148.172 148.034 
147.46 153.355 152.996 152.661 152.361 152.113 151.86 151.549 151.242 
150.702 150.32 149.607 149.294 148.6 148.425 147.806 147.691 147.131 
147.039 146.575 
POINT_DATA 1002
SCALARS Distance double
LOOKUP_TABLE default
149.696 148.659 149.315 150.502 150.165 150.846 151.389 151.187 151.705 
152.174 152.42 152.291 152.675 153.202 153.897 153.667 153.447 153.938 
154.469 155.208 155.935 155.054 154.686 155.417 155.936 156.659 157.378 
158.043 156.441 155.972 156.857 157.337 158.039 158.838 159.577 160.248 
157.753 157.23 158.214 158.681 159.382 160.292 161.186 161.949 162.588 
158.969 158.43 159.505 160.067 160.852 161.876 162.872 163.674 164.338 
164.972 160.095 159.558 160.699 161.388 162.281 163.406 164.508 165.34 
165.98 166.635 167.376 148.048 148.671 147.548 148.264 147.432 149.673 
148.293 147.541 149.436 150.902 148.319 147.41 149.428 150.744 152.086 
148.11 147.269 149.275 150.621 151.934 153.223 148.303 147.646 149.255 
150.512 151.868 153.117 154.446 149.008 148.318 149.809 150.774 151.961 
153.178 154.367 155.738 149.631 148.882 150.472 151.322 152.258 153.326 
154.441 155.663 157.048 150.029 149.35 150.84 151.693 152.549 153.471 
154.521 155.703 157.004 158.328 150.253 150.954 151.251 151.958 152.237 
151.768 153.071 153.326 152.815 152.662 154.466 154.869 154.145 153.82 
153.605 156.181 156.736 155.803 155.381 154.933 154.666 157.833 158.411 
157.497 157.219 156.709 156.219 155.932 159.233 159.767 158.921 158.873 
158.599 158.079 157.66 157.333 160.531 160.905 160.217 160.212 160.175 
159.82 159.41 159.077 158.707 161.722 161.821 161.541 161.513 161.54 
161.344 161.001 160.696 160.363 159.954 161.02 161.505 162.699 161.975 
163.298 164.685 162.368 163.913 165.424 166.986 162.713 164.443 166.197 
167.86 169.568 162.988 164.79 166.76 168.674 170.57 172.311 163.063 
164.942 167.012 169.11 171.287 173.335 174.947 162.98 164.879 167.092 
169.324 171.583 173.875 175.838 177.414 162.889 164.597 166.902 169.439 
171.837 174.132 176.296 178.188 179.867 162.773 164.202 166.381 169.137 
171.894 174.351 176.594 178.669 180.555 182.201 161.698 163.635 162.523 
165.953 164.786 163.533 168.564 167.42 166.075 164.748 171.326 170.249 
168.878 167.392 166.005 174.093 173.123 171.901 170.286 168.623 167.017 
176.842 176.06 175.084 173.621 171.707 169.702 167.779 179.628 179.111 
178.329 177.128 175.339 173.089 170.721 168.544 182.231 181.959 181.324 
180.286 178.794 176.78 174.318 171.754 169.427 184.387 184.369 186.053 
185.775 187.137 183.897 186.611 188.239 184.969 182.958 187.48 189.108 
185.595 183.803 181.632 187.707 188.463 186.134 184.309 182.367 179.914 
186.426 186.43 185.811 184.47 182.638 180.454 177.629 184.531 184.452 
184.481 183.852 182.356 180.345 177.916 174.89 182.973 182.951 182.965 
182.674 181.576 179.742 177.613 175.073 172.142 181.459 181.344 181.43 
181.219 180.437 178.874 176.931 174.789 172.266 169.625 183.343 185.381 
184.051 185.69 183.976 186.797 185.207 183.199 186.84 187.992 184.359 
182.117 186.176 188.052 189.306 183.295 180.545 185.191 187.049 188.972 
189.579 181.375 178.179 183.784 185.46 187.213 188.412 187.971 178.556 
175.547 181.447 183.489 185.035 186.349 186.635 185.723 175.64 173.243 
178.435 180.892 182.672 184.091 184.934 184.76 183.913 173.091 171.289 
175.409 177.853 179.842 181.387 182.615 183.153 182.887 182.192 162.22 
163.418 162.659 164.5 163.705 165.377 166.477 165.48 167.283 168.201 
168.769 167.217 169.791 170.514 171.365 170.274 168.353 171.837 172.75 
173.597 174.311 171.015 169.199 172.903 174.359 175.52 176.585 176.969 
171.718 170.051 173.672 175.631 177.254 178.652 179.516 179.399 172.531 
170.778 174.62 176.97 179.003 180.527 181.674 182.073 181.554 161.227 
161.418 160.341 160.447 159.132 161.745 159.386 157.857 160.878 162.719 
158.31 156.846 160 161.847 164.216 157.332 156.167 158.896 160.887 
163.054 165.583 156.586 155.628 157.745 159.615 161.851 164.131 166.664 
155.94 155.038 156.834 158.345 160.49 162.725 165.113 167.69 155.191 
154.373 156.022 157.284 159.18 161.312 163.559 166.082 168.579 154.377 