# vtk DataFile Version 4.0
vtk output
ASCII
DATASET POLYDATA
POINTS 1002 float
-103.831 -83.2059 78.4212 -103.745 -82.4732 77.2934 -104.273 -82.4628 78.0239 
-104.458 -83.2432 79.1501 -105.007 -82.5486 78.7326 -104.076 -84.0879 79.5462 
-105.229 -83.3456 79.9596 -105.642 -82.539 79.7513 -104.819 -84.1725 80.2635 
-104.486 -85.0749 80.6456 -105.782 -83.3824 81.2016 -106.082 -82.4945 81.0629 
-105.556 -84.3324 81.3064 -105.268 -85.2737 81.5433 -104.974 -86.2012 81.9263 
-106.287 -83.5193 82.5211 -106.776 -82.7454 82.133 -106.058 -84.5227 82.7416 
-105.882 -85.5805 82.9387 -105.632 -86.5914 83.2231 -105.456 -87.5719 83.5663 
-107.24 -83.9804 83.3919 -107.812 -83.26 82.9183 -106.756 -84.8868 83.8761 
-106.432 -85.9267 84.3127 -106.164 -87.0157 84.6924 -105.99 -88.0822 85.0098 
-105.961 -89.137 85.2879 -108.273 -84.5333 84.1952 -108.644 -83.6894 83.8794 
-107.787 -85.4337 84.6421 -107.31 -86.3706 85.176 -106.927 -87.4133 85.694 
-106.669 -88.5316 86.128 -106.573 -89.6325 86.4481 -106.557 -90.7159 86.6999 
-108.863 -84.9378 85.2869 -109.159 -84.0444 84.9689 -108.54 -85.9038 85.6542 
-108.192 -86.8562 86.0783 -107.878 -87.8751 86.5111 -107.619 -89.028 86.9333 
-107.411 -90.1722 87.3369 -107.272 -91.2444 87.655 -107.201 -92.2939 87.879 
-109.296 -85.3307 86.34 -109.696 -84.5276 85.8487 -108.976 -86.2582 86.8274 
-108.737 -87.2697 87.2654 -108.549 -88.3615 87.6409 -108.411 -89.5974 87.9453 
-108.261 -90.8584 88.2544 -108.046 -91.9673 88.6161 -107.861 -92.9772 88.9125 
-107.811 -93.9681 89.0732 -109.887 -85.8101 87.1251 -110.329 -85.0966 86.4949 
-109.514 -86.6431 87.7627 -109.258 -87.6704 88.2867 -109.051 -88.8439 88.7205 
-108.895 -90.1236 89.0581 -108.834 -91.4779 89.2614 -108.741 -92.7298 89.5024 
-108.543 -93.7928 89.8567 -108.393 -94.774 90.131 -108.403 -95.7197 90.2202 
-104.052 -81.7972 76.65 -104.694 -81.8049 77.3623 -104.517 -81.1515 76.0103 
-105.144 -81.0243 76.8109 -105.02 -80.3772 75.4807 -105.417 -81.7931 78.1976 
-105.516 -80.0524 76.4444 -105.482 -79.4645 74.9731 -105.769 -80.8523 77.8086 
-105.989 -81.6806 79.3885 -106.029 -79.2214 76.0093 -106.134 -78.7473 74.3475 
-106.17 -79.9336 77.503 -106.448 -80.8334 78.9949 -106.584 -81.7603 80.6355 
-106.973 -78.8108 75.3365 -107.146 -78.3617 73.7476 -106.908 -79.3551 77.0331 
-107.098 -80.1462 78.5794 -107.304 -81.1676 80.0789 -107.476 -82.1997 81.5968 
-108.059 -78.4807 74.7149 -108.113 -77.9435 73.3953 -107.904 -78.9742 76.4047 
-107.864 -79.5259 78.1827 -107.995 -80.4661 79.6848 -108.142 -81.6057 81.1325 
-108.37 -82.6407 82.5963 -108.798 -77.886 74.4414 -108.699 -77.2955 73.2612 
-108.754 -78.4842 75.9094 -108.593 -78.9273 77.7902 -108.549 -79.6017 79.5113 
-108.636 -80.7299 80.9224 -108.801 -81.8853 82.3882 -109.02 -82.9347 83.7923 
-109.311 -77.2092 74.4487 -109.2 -76.6775 73.2132 -109.391 -77.9106 75.7022 
-109.304 -78.4851 77.394 -109.179 -78.9972 79.2711 -109.177 -79.8972 80.7843 
-109.292 -81.0873 82.1699 -109.482 -82.2225 83.6071 -109.646 -83.3622 84.8292 
-109.962 -76.75 74.5274 -109.92 -76.3473 73.2029 -110.05 -77.4247 75.6787 
-110.07 -78.1571 77.0677 -110.002 -78.7387 78.8591 -109.947 -79.4519 80.5031 
-109.974 -80.5177 81.8447 -110.096 -81.6689 83.2325 -110.259 -82.8004 84.5376 
-110.347 -83.9813 85.5678 -110.81 -76.4665 74.1432 -110.836 -76.9605 75.4148 
-111.682 -76.8291 75.0298 -111.694 -77.4648 76.244 -112.401 -77.5009 75.7986 
-110.89 -77.7342 76.6174 -112.448 -78.2379 77.2222 -113.096 -78.3956 76.7065 
-111.766 -78.2369 77.7042 -110.924 -78.4797 78.2517 -113.21 -79.0818 78.4812 
-113.826 -79.2137 77.8824 -112.594 -78.8965 79.0472 -111.84 -78.9307 79.5831 
-110.896 -79.1883 80.0814 -113.975 -79.9125 79.745 -114.451 -80.0879 79.1249 
-113.397 -79.7562 80.3552 -112.675 -79.677 80.8686 -111.78 -79.8937 81.2426 
-110.831 -80.2162 81.5527 -114.633 -80.9881 80.89 -114.926 -81.3461 80.3037 
-114.134 -80.836 81.496 -113.459 -80.8068 81.9867 -112.578 -80.9347 82.3434 
-111.654 -81.1936 82.6437 -110.831 -81.4304 82.9515 -115.162 -82.2771 82.0145 
-115.265 -82.7126 81.422 -114.742 -82.024 82.691 -114.165 -82.0028 83.2254 
-113.404 -82.0843 83.596 -112.468 -82.1949 83.9298 -111.631 -82.3706 84.2063 
-110.936 -82.581 84.402 -115.522 -83.5162 83.088 -115.448 -83.9055 82.4895 
-115.2 -83.2125 83.8412 -114.673 -83.112 84.4936 -114.1 -83.1324 84.9357 
-113.311 -83.1207 85.303 -112.408 -83.2018 85.5554 -111.675 -83.4795 85.5949 
-111.029 -83.7782 85.5618 -115.679 -84.7682 84.0856 -115.511 -85.0956 83.51 
-115.476 -84.4847 84.8031 -114.983 -84.3334 85.4658 -114.486 -84.2906 85.9592 
-113.926 -84.2066 86.3874 -113.124 -84.1494 86.7143 -112.303 -84.3465 86.7567 
-111.644 -84.7119 86.6073 -111.006 -84.9785 86.5066 -110.698 -86.0995 87.5413 
-111.362 -86.021 87.5903 -111.068 -87.2093 88.7583 -112.008 -85.8095 87.7095 
-111.681 -87.2663 88.8186 -111.433 -88.6689 89.9015 -112.765 -85.5846 87.803 
-112.372 -87.3155 88.838 -112.033 -88.9681 89.898 -111.808 -90.5867 90.8068 
-113.607 -85.5642 87.6217 -113.183 -87.3557 88.7778 -112.749 -89.2748 89.8053 
-112.407 -91.0797 90.7414 -112.212 -92.7938 91.6972 -114.256 -85.6946 87.1745 
-113.935 -87.4176 88.479 -113.505 -89.392 89.6951 -113.057 -91.4445 90.645 
-112.798 -93.3795 91.6701 -112.702 -95.2254 92.7367 -114.734 -85.7824 86.7143 
-114.475 -87.487 88.0222 -114.165 -89.3843 89.4311 -113.73 -91.5569 90.5787 
-113.408 -93.7605 91.6292 -113.353 -95.8049 92.7832 -113.317 -97.8183 93.6231 
-115.25 -85.8732 86.2197 -114.932 -87.5614 87.5928 -114.647 -89.4058 89.0248 
-114.326 -91.6022 90.3573 -114.023 -94.0086 91.5485 -113.96 -96.192 92.7489 
-114.003 -98.2704 93.6532 -113.89 -100.377 94.0336 -115.63 -86.0753 85.5655 
-115.35 -87.7088 87.0585 -114.994 -89.4888 88.5079 -114.699 -91.6213 89.8964 
-114.481 -94.1602 91.2294 -114.406 -96.5315 92.5313 -114.455 -98.6315 93.523 
-114.435 -100.798 93.9417 -114.273 -102.918 94.0198 -115.649 -86.349 84.878 
-115.562 -87.9259 86.342 -115.248 -89.6269 87.7926 -114.906 -91.5908 89.2091 
-114.711 -94.0748 90.6208 -114.653 -96.6602 91.9918 -114.652 -98.9513 93.0959 
-114.653 -101.206 93.6654 -114.633 -103.486 93.7957 -114.58 -105.484 93.8221 
-110.303 -86.8966 88.3228 -110.785 -88.259 89.5186 -110.005 -87.9455 88.9624 
-111.227 -90.069 90.5407 -110.561 -89.6902 90.0072 -109.748 -89.2754 89.4339 
-111.631 -92.2007 91.5143 -111.024 -91.7459 91.0177 -110.269 -91.2638 90.4471 
-109.461 -90.6702 89.8863 -112.08 -94.6187 92.5991 -111.457 -93.9837 92.173 
-110.792 -93.388 91.5476 -110.009 -92.7222 90.9003 -109.318 -92.0811 90.1777 
-112.629 -97.441 93.5398 -111.946 -96.7401 93.2363 -111.345 -95.915 92.696 
-110.727 -95.0449 91.9296 -110.022 -94.2252 91.0849 -109.345 -93.5107 90.3082 
-113.23 -100.341 94.0407 -112.514 -99.9037 93.8931 -111.883 -99.096 93.5631 
-111.361 -98.0295 92.9574 -110.824 -96.8322 92.0546 -110.105 -95.7573 91.2271 
-109.278 -94.7989 90.6019 -113.75 -103.032 94.1437 -113.12 -102.862 94.1694 
-112.487 -102.326 94.0226 -111.874 -101.4 93.692 -111.36 -100.04 93.0449 
-110.824 -98.4989 92.204 -110.02 -97.1377 91.5622 -109.114 -95.9334 90.9843 
-114.192 -105.622 94.024 -113.68 -105.543 94.1746 -113.143 -105.188 94.1319 
-112.501 -104.509 93.9431 -111.819 -103.353 93.6241 -111.311 -101.695 93.0173 
-110.758 -99.9247 92.3284 -109.92 -98.371 91.799 -109.055 -96.9897 91.1597 
-114.864 -108.205 93.7086 -114.403 -108.305 93.9117 -115.36 -110.885 93.4525 
-114.743 -111.035 93.4686 -115.832 -113.331 92.8694 -113.876 -108.099 93.9389 
-115.061 -113.33 92.6734 -116.012 -115.338 92.0807 -114.127 -110.602 93.2634 
-113.303 -107.518 93.7667 -115.23 -114.724 91.8626 -115.828 -116.691 91.2207 
-114.334 -112.364 92.4693 -113.407 -109.582 93.1499 -112.517 -106.52 93.6273 
-115.121 -115.42 91.1146 -115.365 -117.212 90.313 -114.39 -113.235 91.8542 
-113.414 -110.88 92.651 -112.521 -108.145 93.2137 -111.801 -104.961 93.3502 
-114.726 -115.504 90.4953 -114.833 -116.695 89.682 -114.191 -113.654 91.2281 
-113.306 -111.5 92.0814 -112.529 -109.094 92.7081 -111.914 -106.185 92.861 
-111.326 -102.938 92.7254 -114.211 -114.559 90.1599 -114.339 -115.245 89.4094 
-113.809 -113.29 90.6906 -113.117 -111.477 91.2598 -112.472 -109.291 91.884 
-111.975 -106.752 92.1828 -111.384 -103.848 92.22 -110.643 -100.914 92.1393 
-113.569 -112.856 89.8121 -113.726 -113.341 89.1327 -113.255 -111.961 90.3054 
-112.798 -110.615 90.6168 -112.292 -108.802 91.0539 -111.776 -106.633 91.5233 
-111.188 -104.192 91.7651 -110.475 -101.601 91.8073 -109.709 -99.1254 91.6303 
-112.73 -111.051 89.2864 -112.911 -111.303 88.7788 -112.454 -110.396 89.8354 
-112.17 -109.385 90.2291 -111.856 -107.982 90.6033 -111.362 -106.187 91.1003 
-110.724 -104.102 91.4855 -110.11 -101.856 91.5389 -109.512 -99.6066 91.2955 
-108.908 -97.5227 90.8325 -114.934 -106.946 93.5357 -115.52 -109.778 93.3608 
-115.227 -108.224 93.1716 -116.044 -110.849 92.9147 -115.449 -108.888 92.6705 
-116.306 -112.251 92.9544 -116.219 -111.254 92.2432 -115.584 -108.842 92.044 
-116.925 -112.998 92.2147 -116.806 -114.537 92.1893 -116.091 -111.12 91.4262 
-115.563 -108.226 91.4273 -116.928 -113.312 91.2144 -117.319 -115.305 91.1269 
-116.7 -116.74 91.2517 -115.774 -110.302 90.8163 -115.329 -106.956 90.8824 
-116.484 -113.027 90.4242 -117.222 -115.49 90.0366 -117.047 -117.568 90.0142 
-116.113 -118.163 90.1775 -115.282 -108.53 90.4938 -114.97 -104.971 90.314 
-115.749 -111.625 90.2404 -116.559 -114.415 89.6975 -117.009 -117.021 89.1478 
-116.364 -118.451 88.9293 -115.406 -118.115 89.1591 -114.813 -106.007 90.0928 
-114.646 -102.583 89.556 -114.981 -109.214 90.2242 -115.484 -112.086 89.9592 
-116.311 -114.863 89.2568 -116.439 -117.001 88.4374 -115.633 -117.628 88.1834 
-114.838 -116.822 88.6776 -114.538 -103.22 89.3027 -114.397 -100.236 88.5175 
-114.568 -106.3 89.7762 -114.655 -109.173 89.8997 -115.219 -111.89 89.5695 
-115.868 -114.288 88.7925 -115.709 -115.741 88.1161 -114.957 -115.865 88.1076 
-114.292 -114.885 88.6139 -114.323 -100.615 88.194 -114.152 -98.2382 87.3219 
-114.406 -103.284 88.8786 -114.367 -106.007 89.2712 -114.495 -108.623 89.3285 
[...]
CELL_DATA 2000
SCALARS Distance double
LOOKUP_TABLE default
153.005 153.817 153.617 154.122 154.761 154.518 155.026 154.83 155.42 
155.735 155.504 156.069 155.834 156.459 156.241 156.926 156.801 156.529 
157.172 156.942 157.656 157.407 158.16 157.897 158.703 158.091 157.725 
158.4 158.119 158.889 158.656 159.464 159.217 160.053 159.802 160.696 
159.447 159.098 159.773 159.441 160.19 159.92 160.726 160.504 161.342 
161.138 162.009 161.818 162.718 160.637 160.388 161.062 160.796 161.517 
161.243 162.024 161.778 162.63 162.417 163.31 163.107 164 163.803 
164.678 161.713 161.499 162.171 161.982 162.712 162.512 163.3 163.085 
163.952 163.744 164.673 164.452 165.376 165.127 166.016 165.765 166.633 
162.779 162.562 163.227 163.05 163.796 163.647 164.456 164.309 165.17 
165.028 165.938 165.791 166.707 166.512 167.394 167.146 168.007 167.744 
168.601 152.505 152.098 152.612 153.312 151.745 152.236 152.92 153.482 
154.23 151.352 151.853 152.496 153.072 153.814 154.41 155.172 151.041 
151.471 152.132 152.657 153.435 154.016 154.84 155.4 156.235 151.075 
151.334 152.062 152.431 153.267 153.747 154.656 155.168 156.084 156.591 
157.523 151.345 151.54 152.258 152.521 153.324 153.702 154.591 155.065 
155.989 156.497 157.426 157.945 158.863 151.481 151.766 152.417 152.714 
153.422 153.769 154.547 154.99 155.838 156.363 157.254 157.809 158.697 
159.231 160.064 151.505 151.811 152.474 152.796 153.501 153.831 154.577 
154.946 155.752 156.201 157.079 157.606 158.517 159.053 159.922 160.399 
161.186 151.719 151.918 152.645 152.895 153.663 153.947 154.753 155.054 
155.89 156.219 157.098 157.509 158.441 158.922 159.845 160.31 161.149 
161.548 162.292 152.219 153.404 152.897 153.124 154.648 154.121 154.341 
153.85 154.139 155.986 155.421 155.703 155.149 155.466 154.946 155.276 
157.477 156.878 157.226 156.615 156.977 156.381 156.731 156.146 156.459 
159.004 158.436 158.833 158.222 158.592 157.959 158.302 157.671 157.983 
157.357 157.666 160.543 159.986 160.43 159.844 160.247 159.606 159.946 
159.275 159.592 158.931 159.262 158.623 158.987 162.081 161.555 162.024 
161.455 161.907 161.285 161.679 160.981 161.315 160.597 160.939 160.265 
160.638 159.999 160.376 163.471 163.05 163.524 163.024 163.469 162.921 
163.34 162.72 163.066 162.359 162.656 161.954 162.278 161.636 161.974 
161.352 161.661 164.697 164.361 164.855 164.439 164.856 164.385 164.764 
164.267 164.606 164.025 164.281 163.619 163.85 163.211 163.478 162.883 
163.148 162.548 162.78 163.571 163.964 164.156 164.953 164.322 164.544 
165.383 165.601 166.487 164.729 164.935 165.826 166.053 166.994 167.211 
168.175 165.166 165.384 166.307 166.545 167.533 167.756 168.762 168.964 
170.002 165.462 165.766 166.681 167.005 168.007 168.299 169.317 169.557 
170.628 170.871 172.035 165.612 165.971 166.872 167.278 168.288 168.694 
169.742 170.073 171.169 171.484 172.712 173.02 174.287 165.723 166.101 
167.006 167.418 168.425 168.889 169.983 170.43 171.591 171.999 173.266 
173.664 174.973 175.287 176.468 165.733 166.186 167.093 167.537 168.498 
168.974 170.032 170.577 171.769 172.336 173.623 174.145 175.43 175.86 
177.023 177.317 178.31 165.562 166.104 167.002 167.539 168.448 168.963 
169.914 170.507 171.625 172.342 173.606 174.32 175.559 176.147 177.265 
177.711 178.709 179.014 179.916 163.574 164.999 164.204 164.075 166.587 
165.746 165.676 164.8 164.699 168.306 167.441 167.449 166.524 166.461 
165.512 165.419 170.17 169.263 169.337 168.387 168.375 167.373 167.287 
166.282 166.181 172.268 171.273 171.409 170.38 170.419 169.363 169.299 
168.225 168.119 167.08 166.979 174.565 173.532 173.736 172.608 172.705 
171.544 171.538 170.349 170.254 169.098 168.995 167.914 167.788 176.756 
175.854 176.12 175.034 175.188 173.986 174.051 172.764 172.709 171.388 
171.263 170.024 169.885 168.73 168.53 178.622 177.918 178.249 177.352 
177.568 176.488 176.601 175.365 175.341 173.972 173.813 172.425 172.224 
170.923 170.702 169.465 169.188 180.273 179.683 180.09 179.36 179.645 
178.751 178.898 177.828 177.816 176.565 176.385 175.003 174.728 173.339 
173.052 171.717 171.414 170.123 169.797 181.367 183.077 181.896 181.209 
184.696 183.572 182.794 181.612 180.779 185.9 184.996 184.161 183.083 
182.137 181.016 180.03 186.502 185.894 185.006 184.177 183.161 182.2 
181.12 180.072 178.928 186.468 186.178 185.276 184.713 183.69 182.967 
181.874 180.988 179.779 178.767 177.475 185.853 185.879 185.052 184.74 
183.725 183.239 182.163 181.521 180.313 179.456 178.105 177.136 175.771 
184.733 185.041 184.291 184.275 183.246 183.008 181.879 181.521 180.314 
179.748 178.393 177.606 176.194 175.328 174 183.183 183.701 182.948 
183.23 182.208 182.239 181.077 180.954 179.75 179.467 178.172 177.663 
176.282 175.599 174.238 173.505 172.255 181.348 181.97 181.221 181.682 
180.756 181.001 179.957 180.003 178.9 178.77 177.587 177.272 175.994 
175.512 174.195 173.604 172.327 171.711 170.545 181.696 182.644 182.655 
183.507 183.234 183.541 184.53 184.485 185.178 183.246 183.887 184.94 
185.275 186.056 186.004 186.426 182.742 183.618 184.656 185.338 186.203 
186.585 187.145 187.036 187.12 181.792 182.869 183.858 184.771 185.667 
186.418 187.122 187.466 187.656 187.417 187.09 180.333 181.638 182.55 
183.694 184.508 185.57 186.293 187.096 187.357 187.573 187.215 186.97 
186.322 178.453 179.906 180.73 182.069 182.737 184.033 184.651 185.85 
186.159 186.864 186.555 186.689 185.994 185.872 185.094 176.388 177.853 
178.596 180.019 180.581 181.959 182.441 183.836 184.177 185.301 185.176 
185.725 185.13 185.264 184.484 184.435 183.558 174.35 175.714 176.36 
177.776 178.278 179.658 180.029 181.433 181.717 183.065 183.083 184.069 
183.652 184.164 183.429 183.615 182.719 182.71 181.715 165.691 166.434 
166.438 167.207 167.241 167.253 168.056 168.006 168.71 167.965 168.051 
168.891 168.884 169.654 169.529 170.218 168.691 168.787 169.779 169.797 
170.748 170.61 171.484 171.216 172.031 169.672 169.685 170.883 170.881 
172.116 171.963 173.082 172.739 173.723 173.282 174.14 170.81 170.842 
172.157 172.185 173.603 173.535 174.835 174.533 175.581 175.112 175.978 
175.447 176.153 171.817 171.987 173.369 173.507 174.99 175.058 176.456 
176.3 177.407 176.989 177.837 177.294 177.986 177.375 177.899 172.679 
172.955 174.44 174.685 176.247 176.414 177.909 177.882 179.124 178.805 
179.762 179.212 179.968 179.284 179.848 179.073 179.436 173.469 173.816 
175.37 175.719 177.335 177.619 179.163 179.286 180.609 180.475 181.531 
181.138 181.978 181.359 181.974 181.148 181.51 180.573 180.747 164.872 
163.84 164.729 165.544 162.825 163.699 164.504 165.459 166.337 161.788 
162.676 163.445 164.399 165.247 166.23 167.048 160.719 161.608 162.336 
163.284 164.064 165.074 165.882 166.874 167.695 159.71 160.546 161.239 
162.14 162.877 163.853 164.666 165.686 166.575 167.593 168.577 158.778 
159.56 160.221 161.065 161.793 162.703 163.537 164.523 165.473 166.505 
167.532 168.586 169.65 157.916 158.637 159.265 160.068 160.784 161.665 
162.494 163.455 164.39 165.422 166.413 167.491 168.487 169.592 170.583 
157.206 157.821 158.423 159.147 159.845 160.679 161.476 162.41 163.283 
164.302 165.215 166.295 167.214 168.328 169.25 170.4 171.36 156.687 
157.19 157.758 158.377 159.046 159.79 160.55 161.402 162.212 163.159 
164.014 165.052 165.945 167.027 167.931 169.039 169.968 171.138 172.111 
156.61 156.791 157.01 157.655 156.955 157.213 157.949 158.172 158.944 
157.197 157.439 158.273 158.524 159.394 159.591 160.452 157.625 157.803 
158.698 158.927 159.876 160.092 161.018 161.181 162.089 158.217 158.347 
159.277 159.451 160.442 160.639 161.645 161.808 162.794 162.912 163.89 
158.915 159.012 159.97 160.104 161.121 161.286 162.375 162.538 163.659 
163.753 164.836 164.855 165.873 159.712 159.772 160.748 160.849 161.887 
162.024 163.153 163.34 164.558 164.715 165.904 165.932 167.002 166.924 
167.9 160.556 160.608 161.594 161.674 162.724 162.836 163.967 164.148 
165.373 165.597 166.829 166.979 168.106 168.101 169.113 168.991 169.95 
161.346 161.434 162.406 162.513 163.552 163.682 164.804 164.978 166.182 
166.397 167.625 167.832 169.012 169.135 170.241 170.223 171.265 171.114 
172.104 162.062 163.549 162.923 163.179 165.227 164.522 164.844 164.128 
164.394 167.201 166.381 166.788 165.956 166.317 165.47 165.751 169.38 
168.533 169.024 168.099 168.544 167.593 167.956 166.961 167.219 171.595 
170.801 171.396 170.466 170.981 169.984 170.424 169.348 169.635 168.502 
168.693 173.956 173.158 173.96 172.992 173.659 172.578 173.137 171.981 
172.361 171.092 171.271 170.005 170.117 176.482 175.734 176.804 175.827 
176.73 175.529 176.23 174.918 175.41 174.009 174.248 172.778 172.841 
171.445 171.446 178.79 178.284 179.495 178.762 179.814 178.758 179.519 
178.192 178.659 177.188 177.406 175.866 175.889 174.333 174.235 172.744 
172.581 180.559 180.352 181.515 181.165 182.183 181.565 182.3 181.31 
181.676 180.353 180.411 178.935 178.837 177.331 177.142 175.603 175.321 
173.791 173.465 161.635 161.385 162.04 163.093 161.035 161.771 162.903 
163.57 164.732 160.591 161.394 162.59 163.363 164.617 165.318 166.633 
160.105 160.932 162.173 163.029 164.357 165.171 166.562 167.323 168.738 
159.662 160.459 161.737 162.624 164.01 164.887 166.32 167.181 168.646 
169.442 170.878 159.317 160.054 161.338 162.223 163.653 164.552 166.013 
166.905 168.416 169.297 170.818 171.604 173.119 159.075 159.74 160.982 
161.844 163.28 164.204 165.679 166.589 168.133 169.069 170.686 171.556 
173.144 173.922 175.505 158.922 159.516 160.695 161.496 162.911 163.834 
165.316 166.238 167.774 168.76 170.428 171.42 173.063 173.92 175.451 
176.26 177.742 158.839 159.377 160.5 161.224 162.595 163.482 164.963 
165.875 167.373 168.351 169.977 171.069 172.731 173.735 175.215 176.076 
177.412 178.27 179.526 160.676 159.166 160.064 160.369 157.718 158.529 
158.743 159.684 159.964 156.35 157.08 157.19 158.042 158.248 159.228 
159.497 155.029 155.697 155.741 156.504 156.638 157.529 157.754 158.741 
159.009 153.815 154.401 154.408 155.08 155.153 155.948 156.115 157.03 
157.271 158.264 158.562 152.668 153.224 153.191 153.789 153.789 154.481 
154.552 155.39 155.582 156.549 156.85 157.871 158.234 151.486 152.046 
151.985 152.575 152.536 153.152 153.147 153.854 153.967 154.857 155.152 
156.179 156.585 157.619 158.037 150.402 150.867 150.799 151.357 151.354 
151.943 151.978 152.566 152.654 153.347 153.594 154.509 154.935 155.984 
156.463 157.483 157.926 149.623 149.905 149.827 150.257 150.301 150.841 
150.974 151.523 151.672 152.216 152.418 153.102 153.463 154.38 154.881 
155.914 156.423 157.416 157.873 149.273 148.832 149.131 149.403 148.509 
148.737 149.024 149.39 149.859 148.319 148.475 148.758 149.078 149.57 
149.984 150.559 148.314 148.361 148.598 148.839 149.296 149.706 150.293 
150.732 151.296 148.67 148.537 148.781 148.796 149.188 149.447 150.025 
150.46 151.089 151.486 152.064 149.411 149.142 149.463 149.235 149.613 
149.552 150.122 150.336 151.067 151.385 152.098 152.38 153.095 150.308 
150.023 150.377 150.087 150.462 150.217 150.767 150.733 151.526 151.646 
152.487 152.621 153.436 153.628 154.496 151.209 150.931 151.28 151.012 
151.376 151.118 151.626 151.521 152.298 152.338 153.218 153.247 154.087 
154.14 155.006 155.17 156.064 152.126 151.832 152.197 151.922 152.317 
152.04 152.532 152.377 153.101 153.127 153.991 154.043 154.866 154.881 
155.687 155.759 156.603 156.744 157.561 152.778 153.901 153.168 152.881 
155.209 154.397 154.12 153.337 153.047 156.689 155.793 155.555 154.694 
154.432 153.569 153.331 158.442 157.399 157.178 156.231 156.045 155.107 
154.925 154.012 153.938 160.496 159.341 159.141 158.022 157.875 156.845 
156.731 155.749 155.684 154.786 154.814 162.613 161.513 161.406 160.189 
160.061 158.867 158.778 157.672 157.611 156.605 156.581 155.687 155.688 
164.61 163.63 163.639 162.515 162.45 161.212 161.13 159.89 159.824 
158.65 158.593 157.53 157.494 156.547 156.531 166.572 165.635 165.731 
164.715 164.746 163.605 163.567 162.331 162.265 160.998 160.913 159.682 
159.598 158.473 158.424 157.429 157.429 168.569 167.652 167.814 166.83 
166.935 165.867 165.887 164.729 164.681 163.453 163.358 162.085 161.954 
160.698 160.571 159.422 159.346 158.347 158.338 159.136 160.247 160.047 
160.873 161.596 161.347 162.313 162.04 163.039 163.069 162.837 163.918 
163.643 164.736 164.405 165.443 164.51 164.352 165.494 165.293 166.452 
166.17 167.27 166.874 167.892 165.855 165.778 166.985 166.86 168.114 
167.908 169.154 168.798 169.975 169.465 170.572 167.094 167.11 168.417 
168.369 169.759 169.629 171.062 170.792 172.157 171.694 172.919 172.306 
173.374 168.174 168.313 169.702 169.79 171.266 171.283 172.802 172.71 
174.145 173.861 175.084 174.604 175.613 174.996 175.834 169.061 169.317 
170.73 170.977 172.448 172.65 174.118 174.254 175.622 175.606 176.757 
176.519 177.455 177.03 177.835 177.257 177.975 169.777 170.107 171.49 
171.858 173.285 173.629 175.02 175.308 176.596 176.775 177.896 177.894 
178.853 178.651 179.511 179.121 179.905 179.337 180.031 151.063 150.891 
150.649 150.134 150.897 150.614 150.128 149.89 149.564 150.713 150.551 
150.045 149.906 149.574 149.472 149.315 150.42 150.254 149.702 149.656 
149.291 149.349 149.164 149.233 149.159 150.465 150.103 149.589 149.354 
149.009 148.992 148.844 148.957 148.902 149.035 149.046 150.822 150.366 
149.89 149.476 149.129 148.896 148.768 148.732 148.718 148.775 148.804 
148.942 149.045 151.172 150.75 150.226 149.823 149.365 149.085 148.826 
148.741 148.652 148.666 148.634 148.715 148.766 148.958 149.091 151.506 
151.071 150.539 150.116 149.601 149.252 148.855 148.708 148.501 148.529 
148.426 148.517 148.483 148.651 148.732 148.979 149.119 151.955 151.471 
151.018 150.522 150.089 149.592 149.199 148.811 148.55 148.387 148.283 
148.294 148.282 148.381 148.451 148.633 148.786 149.023 149.211 151.144 
150.119 150.714 151.066 149.481 149.792 150.042 150.721 151.214 149.266 
149.34 149.466 149.859 150.338 151.015 151.615 149.22 149.245 149.326 
149.474 149.861 150.333 150.992 151.598 152.257 149.206 149.256 149.404 
149.448 149.773 150.037 150.665 151.148 151.862 152.367 152.992 149.26 
149.317 149.549 149.585 149.931 150.073 150.659 150.986 151.702 152.096 
152.729 153.12 153.657 149.329 149.41 149.648 149.729 150.068 150.232 
150.78 151.065 151.747 152.058 152.684 152.961 153.487 153.792 154.299 
149.365 149.464 149.675 149.778 150.05 150.258 150.725 151.083 151.702 
152.083 152.676 152.967 153.475 153.719 154.215 154.49 155.012 149.469 
149.528 149.771 149.821 150.082 150.208 150.608 150.916 151.468 151.898 
152.464 152.862 153.361 153.684 154.163 154.45 154.95 155.235 155.74 
151.893 151.894 152.293 153.125 152.015 152.351 153.186 153.562 154.367 
152.304 152.505 153.285 153.629 154.456 154.817 155.663 152.846 152.876 
153.596 153.804 154.657 154.964 155.859 156.198 157.118 153.524 153.488 
154.181 154.259 155.108 155.297 156.207 156.462 157.376 157.694 158.621 
154.14 154.135 154.801 154.882 155.678 155.825 156.67 156.863 157.724 
157.981 158.889 159.21 160.15 154.738 154.713 155.348 155.441 156.186 
156.342 157.118 157.3 158.104 158.335 159.215 159.511 160.45 160.768 
161.687 155.42 155.337 155.943 155.978 156.704 156.818 157.585 157.728 
158.525 158.718 159.585 159.85 160.757 161.061 161.938 162.246 163.062 
156.134 156.037 156.607 156.596 157.291 157.364 158.13 158.237 159.035 
159.179 160.027 160.239 161.11 161.363 162.189 162.461 163.238 163.53 
164.276 160.503 159.713 159.749 159.023 158.871 158.925 158.235 158.298 
157.631 158.059 158.075 157.379 157.486 156.875 156.957 156.315 157.359 
157.299 156.558 156.624 156.019 156.164 155.586 155.656 155.022 156.801 
156.665 155.905 155.859 155.22 155.315 154.782 154.908 154.355 154.4 
153.82 156.43 156.212 155.476 155.305 154.632 154.592 154.036 154.129 
153.622 153.722 153.178 153.23 152.67 156.261 155.979 155.296 155.012 
154.336 154.127 153.513 153.461 152.915 152.982 152.434 152.529 151.959 
152.047 151.485 156.171 155.9 155.277 154.956 154.325 153.989 153.375 
153.108 152.525 152.384 151.816 151.798 151.253 151.319 150.818 150.897 
150.432 156.035 155.815 155.235 154.969 154.396 154.074 153.518 153.155 
152.6 152.237 151.673 151.393 150.88 150.759 150.36 150.353 150.026 
150.027 149.714 
POINT_DATA 1002
SCALARS Distance double
LOOKUP_TABLE default
153.448 152.425 153.146 154.26 154.047 154.661 155.247 154.991 155.571 
156.032 156.277 155.939 156.686 157.121 157.626 157.373 157.094 157.867 
158.417 158.945 159.541 158.71 158.471 159.118 159.686 160.293 160.923 
161.627 160.114 159.758 160.497 160.958 161.536 162.2 162.906 163.623 
161.294 160.861 161.779 162.276 162.841 163.516 164.215 164.881 165.533 
162.345 161.936 162.876 163.484 164.141 164.877 165.627 166.287 166.882 
167.486 163.406 162.998 163.932 164.584 165.303 166.068 166.871 167.625 
168.272 168.867 169.45 151.948 152.746 151.601 152.363 151.273 153.654 
151.925 150.862 153.203 154.589 151.629 150.635 152.845 154.259 155.675 
151.742 150.854 152.82 154.139 155.573 157.006 152.03 151.153 153.006 
154.15 155.485 156.914 158.36 152.117 151.175 153.109 154.156 155.338 
156.695 158.156 159.576 152.143 151.198 153.166 154.233 155.348 156.573 
157.971 159.428 160.764 152.416 151.545 153.379 154.446 155.586 156.74 
157.984 159.37 160.739 161.945 152.698 153.58 153.936 154.851 155.16 
154.594 156.255 156.545 156.005 155.801 157.839 158.05 157.589 157.341 
157.056 159.423 159.542 159.24 158.95 158.619 158.277 160.997 161.092 
160.872 160.631 160.26 159.901 159.61 162.579 162.576 162.498 162.354 
162.054 161.633 161.287 161.019 163.997 163.842 163.999 163.915 163.754 
163.393 162.945 162.605 162.301 165.246 165.006 165.325 165.246 165.136 
164.93 164.522 164.085 163.746 163.399 164.32 164.75 165.792 165.139 
166.263 167.41 165.583 166.761 167.963 169.156 166.049 167.294 168.55 
169.777 171.078 166.324 167.676 169.057 170.349 171.762 173.27 166.457 
167.838 169.356 170.819 172.345 174.033 175.563 166.603 167.964 169.478 
171.122 172.839 174.62 176.271 177.575 166.633 168.049 169.486 171.139 
173.055 174.981 176.693 178.111 179.25 166.437 167.94 169.36 170.903 
172.842 174.93 176.774 178.336 179.687 180.819 164.888 166.561 165.583 
168.356 167.432 166.372 170.282 169.376 168.32 167.174 172.463 171.486 
170.398 169.183 168.001 174.869 173.882 172.753 171.468 170.114 168.871 
177.138 176.359 175.329 174.078 172.588 171.091 169.697 179.049 178.568 
177.786 176.696 175.257 173.602 171.985 170.428 180.759 180.47 179.905 
179.011 177.748 176.156 174.433 172.742 171.076 182.53 182.405 184.302 
184.017 185.778 181.969 185.202 186.725 183.271 181.181 185.758 187.027 
184.064 182.157 180.032 185.753 186.628 184.323 182.689 180.783 178.529 
185.26 185.674 184.148 182.711 181.097 179.065 176.729 184.194 184.335 
183.424 182.17 180.762 179.089 177.032 174.827 182.578 182.642 182.077 
181.128 179.937 178.558 176.875 174.944 172.949 180.694 180.712 180.394 
179.8 178.947 177.82 176.389 174.722 172.923 171.111 181.746 183.695 
182.496 184.437 182.774 185.462 184.454 182.517 185.932 186.78 183.888 
181.83 185.633 187.051 187.611 182.896 180.659 184.797 186.578 187.745 
187.618 181.367 178.982 183.395 185.34 186.969 187.361 186.668 179.378 
177.009 181.452 183.371 185.249 186.266 186.039 185.276 177.181 174.981 
179.237 181.062 182.896 184.395 184.874 184.48 183.699 174.987 173.088 
176.921 178.685 180.35 181.914 182.947 183.144 182.67 181.792 165.632 
167.248 166.424 168.09 167.212 168.834 168.854 167.833 169.735 170.398 
169.679 168.567 170.81 171.707 172.355 170.815 169.64 172.165 173.383 
174.166 174.657 172.078 170.718 173.587 175.07 176.061 176.525 176.763 
173.171 171.57 174.866 176.529 177.779 178.392 178.606 178.599 174.131 
172.344 176.027 177.861 179.35 180.256 180.652 180.66 180.298 163.981 
164.579 162.964 163.559 161.956 165.378 162.518 160.893 164.264 166.104 
161.419 159.848 163.076 164.858 166.688 160.373 158.911 161.929 163.629 
165.515 167.528 159.399 158.029 160.896 162.556 164.43 166.478 168.596 
158.487 157.236 159.914 161.547 163.382 165.362 167.405 169.465 157.742 
156.642 159.044 160.58 162.306 164.165 166.122 168.117 170.17 157.189 