# vtk DataFile Version 4.0
vtk output
ASCII
DATASET POLYDATA
POINTS 1002 float
-104.229 -81.4076 73.6255 -104.207 -80.7904 72.5347 -104.819 -80.6897 73.2279 
-104.938 -81.3925 74.349 -105.407 -80.5335 74.0995 -104.344 -82.164 74.7393 
-105.606 -81.3752 75.2804 -106.049 -80.5061 75.0726 -105.159 -82.2589 75.5227 
-104.61 -83.0736 75.8151 -106.285 -81.4938 76.2756 -106.896 -80.7161 75.9425 
-105.882 -82.3988 76.5379 -105.464 -83.3408 76.7357 -105.12 -84.3318 76.8708 
-107.086 -81.727 77.1787 -107.817 -81.0259 76.774 -106.571 -82.6344 77.5587 
-106.214 -83.7165 77.8409 -105.864 -84.794 78.0047 -105.672 -85.8879 78.0833 
-107.89 -82.0393 78.1463 -108.585 -81.3659 77.7393 -107.301 -82.9285 78.5473 
-106.968 -84.1485 78.8462 -106.617 -85.3408 79.1091 -106.241 -86.3225 79.3511 
-106.022 -87.3199 79.5276 -108.646 -82.5427 79.1305 -109.275 -81.8087 78.6599 
-108.03 -83.3806 79.6146 -107.723 -84.5827 79.8658 -107.498 -85.9073 80.005 
-107.086 -86.9205 80.3032 -106.694 -87.777 80.6386 -106.495 -88.7903 80.8414 
-109.481 -83.209 79.8759 -110.004 -82.3639 79.3747 -108.862 -84.0616 80.4737 
-108.486 -85.1328 80.865 -108.355 -86.4615 80.9473 -108.102 -87.6909 81.0834 
-107.718 -88.6703 81.4188 -107.442 -89.6483 81.6781 -107.324 -90.7319 81.7646 
-110.317 -83.8887 80.5235 -110.696 -82.9812 80.0388 -109.799 -84.8126 81.061 
-109.365 -85.8517 81.5305 -109.183 -87.1255 81.7849 -109.016 -88.5026 81.9211 
-108.699 -89.7244 82.177 -108.401 -90.788 82.4641 -108.23 -91.8329 82.572 
-108.145 -92.8531 82.5546 -110.973 -84.5232 81.2761 -111.263 -83.613 80.7495 
-110.594 -85.4969 81.7072 -110.214 -86.6175 82.0457 -109.999 -87.9413 82.3616 
-109.848 -89.3651 82.634 -109.532 -90.6621 82.8995 -109.144 -91.7495 83.2185 
-108.896 -92.7637 83.4441 -108.79 -93.7873 83.4749 -108.741 -94.7482 83.4217 
-104.655 -80.2159 71.8862 -105.239 -79.988 72.7057 -105.215 -79.6238 71.2969 
-105.756 -79.2366 72.2171 -105.786 -78.8253 70.7439 -105.806 -79.7097 73.6892 
-106.235 -78.2703 71.6965 -106.249 -77.7489 70.185 -106.326 -78.8608 73.2014 
-106.578 -79.6801 74.642 -106.686 -77.2166 71.1791 -106.771 -76.8704 69.6704 
-106.834 -77.9442 72.637 -107.183 -78.8576 74.0671 -107.577 -79.961 75.4616 
-107.433 -76.5322 70.7378 -107.594 -76.4969 69.1784 -107.492 -77.1273 72.1829 
-107.78 -78.0849 73.4902 -108.163 -79.1702 74.9064 -108.472 -80.3102 76.3848 
-108.486 -76.1695 70.225 -108.58 -76.1839 68.6358 -108.488 -76.5555 71.8199 
-108.626 -77.4337 73.1063 -108.804 -78.448 74.3869 -108.989 -79.5025 75.9726 
-109.168 -80.636 77.4718 -109.494 -75.761 69.5959 -109.491 -75.674 68.1748 
-109.501 -76.0947 71.2794 -109.605 -76.8582 72.7796 -109.723 -77.8386 73.9797 
-109.722 -78.795 75.4757 -109.727 -79.8318 77.1558 -109.847 -81.0475 78.4224 
-110.357 -75.3486 69.0876 -110.314 -75.2524 67.9081 -110.334 -75.681 70.6385 
-110.374 -76.325 72.3433 -110.544 -77.2435 73.6783 -110.627 -78.2341 74.9729 
-110.52 -79.2094 76.6506 -110.45 -80.306 78.1395 -110.546 -81.6105 79.1443 
-111.136 -75.1255 68.7843 -111.09 -75.1085 67.7143 -111.118 -75.3887 70.1698 
-111.092 -75.8861 71.9201 -111.17 -76.6376 73.4771 -111.31 -77.6446 74.6677 
-111.323 -78.7294 76.0922 -111.21 -79.7716 77.687 -111.151 -80.9269 78.8856 
-111.199 -82.2689 79.7987 -111.869 -75.1139 68.1521 -111.9 -75.2018 69.4931 
-112.601 -75.2959 68.7757 -112.771 -75.4374 70.5643 -113.35 -75.7031 69.7522 
-111.965 -75.5165 71.2708 -113.719 -75.9057 71.7764 -114.066 -76.3751 70.8552 
-113.033 -75.7444 72.6037 -111.997 -76.0429 73.1573 -114.382 -76.7305 72.677 
-114.568 -77.2743 71.7368 -113.975 -76.3302 73.6059 -113.005 -76.3904 74.2753 
-111.981 -76.9525 74.5394 -114.694 -77.8777 73.3959 -114.989 -78.3666 72.5317 
-114.404 -77.4839 74.2158 -113.737 -77.3215 74.97 -112.766 -77.6313 75.4975 
-111.978 -78.2268 75.7844 -115.071 -79.2088 74.345 -115.442 -79.6169 73.4818 
-114.655 -78.9707 75.0461 -114.177 -78.7906 75.6762 -113.485 -78.778 76.3984 
-112.716 -79.0717 76.988 -111.976 -79.4613 77.3707 -115.461 -80.6149 75.3918 
-115.654 -80.9728 74.4743 -115.041 -80.4608 76.1627 -114.588 -80.359 76.7158 
-114.122 -80.158 77.4267 -113.54 -80.0807 78.1887 -112.785 -80.2939 78.6137 
-111.928 -80.6157 78.7833 -115.566 -82.0675 76.3082 -115.595 -82.4258 75.3888 
-115.299 -81.8747 77.1859 -114.91 -81.8117 77.7853 -114.517 -81.6392 78.4255 
-114.102 -81.3726 79.2216 -113.508 -81.3494 79.7151 -112.688 -81.6265 79.813 
-111.855 -81.9686 79.8088 -115.524 -83.5882 77.1657 -115.546 -83.9388 76.2815 
-115.363 -83.3187 78.0778 -115.08 -83.2163 78.7283 -114.714 -83.1695 79.2754 
-114.313 -83.0216 79.9785 -113.847 -82.8939 80.5514 -113.21 -82.9833 80.7432 
-112.457 -83.2176 80.7802 -111.786 -83.4378 80.8046 -111.565 -84.8766 81.862 
-112.095 -84.855 81.8716 -111.837 -86.3697 82.895 -112.745 -84.8406 81.7089 
-112.421 -86.5528 82.7924 -112.243 -88.3124 83.6651 -113.419 -84.8412 81.5404 
-113.083 -86.7983 82.539 -112.932 -88.6695 83.5788 -112.869 -90.9196 84.483 
-114.002 -84.8748 81.2377 -113.724 -86.9853 82.3263 -113.588 -89.0084 83.4545 
-113.577 -91.3403 84.5744 -113.547 -94.005 85.4907 -114.515 -84.8805 80.6672 
-114.305 -86.9954 81.9867 -114.13 -89.1529 83.256 -114.101 -91.5467 84.4983 
-114.17 -94.3848 85.519 -114.079 -96.9918 86.1968 -114.96 -84.83 80.1085 
-114.833 -86.8884 81.4932 -114.604 -89.1269 82.8429 -114.462 -91.5349 84.1228 
-114.558 -94.4419 85.1642 -114.607 -97.3632 85.9131 -114.393 -99.5373 86.4467 
-115.273 -84.8557 79.5781 -115.242 -86.8377 81.0101 -115.072 -89.1139 82.3314 
-114.832 -91.5012 83.6045 -114.828 -94.3218 84.6602 -114.909 -97.4906 85.3905 
-114.793 -100.116 86.0055 -114.591 -101.895 86.4999 -115.461 -85.0558 78.7841 
-115.469 -86.9038 80.3864 -115.431 -89.1114 81.7598 -115.267 -91.4791 83.0296 
-115.164 -94.161 84.2145 -115.146 -97.396 85.0253 -115.039 -100.536 85.5423 
-114.92 -102.816 86.0033 -114.962 -104.408 86.2849 -115.564 -85.3498 77.8138 
-115.549 -87.0292 79.5139 -115.527 -89.0262 81.0389 -115.509 -91.2934 82.3334 
-115.484 -93.9012 83.604 -115.426 -97.0989 84.6631 -115.315 -100.57 85.2456 
-115.265 -103.455 85.5299 -115.397 -105.457 85.6943 -115.654 -106.975 85.6883 
-111.258 -85.9042 82.4064 -111.551 -87.6981 83.3685 -110.931 -87.1606 82.6951 
-112.041 -90.187 84.2193 -111.329 -89.4549 83.677 -110.715 -88.7098 82.9452 
-112.728 -93.2924 85.238 -111.908 -92.3541 84.8063 -111.27 -91.3538 84.0846 
-110.626 -90.3319 83.2898 -113.348 -96.4645 86.1425 -112.54 -95.4633 85.8503 
-111.87 -94.1732 85.2609 -111.21 -92.8761 84.3822 -110.376 -91.6965 83.5747 
-113.776 -99.1939 86.5734 -113.032 -98.4586 86.3727 -112.404 -97.1393 85.9347 
-111.776 -95.4838 85.214 -110.863 -93.9431 84.45 -109.886 -92.744 83.8553 
-114.149 -101.555 86.7096 -113.529 -101.175 86.5143 -112.944 -100.34 86.0957 
-112.404 -98.7642 85.5852 -111.542 -96.7709 85.0424 -110.396 -94.9917 84.6353 
-109.485 -93.7511 84.1781 -114.672 -104.05 86.5596 -114.239 -103.792 86.4359 
-113.713 -103.409 86.0358 -113.185 -102.416 85.6662 -112.461 -100.64 85.3595 
-111.344 -98.3839 85.1214 -110.165 -96.3328 84.8856 -109.342 -94.899 84.34 
-115.409 -106.81 85.9732 -115.092 -106.623 85.9821 -114.648 -106.335 85.7155 
-114.082 -105.652 85.4811 -113.389 -104.422 85.3842 -112.469 -102.533 85.2819 
-111.305 -100.077 85.1794 -110.169 -97.7495 84.9416 -109.335 -96.0476 84.3148 
-116.362 -109.571 84.9899 -116.027 -109.674 85.1593 -116.878 -112.333 84.1286 
-116.376 -112.551 84.2544 -117.067 -114.751 83.2468 -115.601 -109.526 85.1074 
-116.372 -114.721 83.3798 -117.206 -116.524 82.0996 -115.752 -112.18 84.2815 
-115.011 -108.866 84.9936 -116.26 -116 82.3164 -117.177 -117.697 80.8084 
-115.577 -113.958 83.5464 -114.963 -110.96 84.4239 -114.223 -107.673 85.0607 
-115.97 -116.54 81.3966 -116.521 -118.056 80.1454 -115.391 -114.757 82.75 
-114.725 -112.271 83.9001 -114.02 -109.248 84.6782 -113.329 -106.13 85.128 
-115.345 -116.25 81.1419 -115.533 -117.353 80.198 -115.088 -114.684 82.2055 
-114.524 -112.697 83.3361 -113.753 -110.127 84.2316 -113.092 -107.274 84.7673 
-112.325 -103.895 85.0908 -114.572 -115.199 81.2415 -114.758 -115.86 80.4416 
-114.41 -113.947 82.0748 -114.035 -112.366 82.9566 -113.376 -110.245 83.8176 
-112.738 -107.614 84.4483 -112.064 -104.533 84.8564 -111.124 -101.021 85.0562 
-113.792 -113.581 81.3838 -114.114 -113.83 80.8249 -113.512 -112.736 82.0839 
-113.196 -111.488 82.813 -112.716 -109.724 83.5626 -112.18 -107.313 84.2546 
-111.6 -104.456 84.7441 -110.814 -101.379 84.921 -109.964 -98.4386 84.7453 
-112.987 -111.357 81.6532 -113.36 -111.259 81.3919 -112.671 -110.938 82.1354 
-112.42 -110.011 82.7478 -112.084 -108.547 83.3978 -111.618 -106.485 84.0359 
-111.066 -103.973 84.5469 -110.396 -101.307 84.7257 -109.685 -98.7663 84.4815 
-109.118 -96.5659 83.9677 -116.398 -108.455 84.9675 -117.157 -111.069 84.1621 
-117.21 -109.449 84.3007 -117.747 -111.943 83.4501 -117.675 -109.808 83.8173 
-117.504 -113.77 83.2625 -117.802 -112.127 82.8775 -117.527 -109.705 83.4351 
-117.771 -114.723 82.3823 -117.728 -116.272 82.1322 -117.482 -111.729 82.3867 
-116.979 -109.195 83.1285 -117.576 -114.831 81.5874 -118.058 -117.478 80.9171 
-118.149 -118.242 80.6153 -117.052 -110.804 82.239 -116.266 -107.918 83.0198 
-117.258 -113.805 81.2089 -117.783 -117.165 80.1989 -118.507 -119.172 79.4373 
-117.944 -119.172 79.426 -116.337 -109.051 82.5312 -115.5 -105.521 82.9021 
-116.837 -112.062 81.5457 -117.163 -115.17 80.4106 -117.838 -117.825 79.2966 
-117.845 -118.97 78.7297 -116.718 -118.66 79.1793 -115.464 -106.125 82.6204 
-114.943 -102.34 82.3051 -116.059 -109.605 82.1546 -116.445 -112.693 81.2158 
-116.801 -115.203 80.0784 -116.917 -116.756 79.0365 -116.354 -117.404 78.785 
-115.5 -117.109 79.4577 -114.872 -102.547 81.9796 -114.646 -99.2417 81.2043 
-115.226 -106.086 82.2158 -115.65 -109.561 81.8394 -115.996 -112.427 81.0662 
-116.043 -114.146 80.0605 -115.724 -115.047 79.2866 -115.279 -115.469 79.3095 
-114.791 -115.068 79.9964 -114.502 -99.3262 80.8885 -114.323 -96.8164 80.0305 
-114.651 -102.212 81.56 -114.902 -105.44 81.8086 -115.269 -108.669 81.6431 
[...]
CELL_DATA 2000
SCALARS Distance double
LOOKUP_TABLE default
150.017 150.779 150.587 150.987 151.634 151.416 151.898 151.661 152.128 
152.652 152.362 152.899 152.653 153.21 152.922 153.509 153.806 153.452 
153.982 153.719 154.356 154.094 154.762 154.465 155.196 155.007 154.631 
155.14 154.845 155.524 155.299 156.051 155.777 156.505 156.221 156.97 
156.218 155.854 156.391 156.053 156.751 156.517 157.336 157.095 157.865 
157.548 158.264 157.97 158.728 157.424 157.101 157.703 157.357 158.068 
157.799 158.644 158.415 159.264 158.954 159.742 159.369 160.178 159.832 
160.705 158.604 158.336 158.999 158.688 159.405 159.13 159.968 159.751 
160.653 160.394 161.27 160.927 161.792 161.416 162.307 161.942 162.84 
159.727 159.52 160.215 159.961 160.674 160.428 161.248 161.063 161.988 
161.795 162.703 162.436 163.278 162.977 163.796 163.502 164.316 164.019 
164.821 149.623 149.34 149.746 150.334 149.088 149.477 150.013 150.464 
151.127 148.688 149.153 149.678 150.149 150.81 151.337 152.134 148.256 
148.69 149.251 149.774 150.48 151.045 151.895 152.458 153.329 148.196 
148.415 149.028 149.43 150.208 150.735 151.625 152.221 153.151 153.697 
154.55 148.465 148.574 149.213 149.447 150.261 150.62 151.511 151.988 
152.919 153.486 154.394 154.912 155.733 148.708 148.864 149.482 149.721 
150.509 150.816 151.672 152.009 152.882 153.314 154.219 154.732 155.601 
156.084 156.892 148.927 149.07 149.655 149.912 150.649 151.007 151.831 
152.19 153.017 153.373 154.226 154.641 155.506 155.954 156.779 157.233 
158.032 149.263 149.331 149.896 150.077 150.785 151.1 151.909 152.282 
153.098 153.474 154.299 154.695 155.535 155.932 156.74 157.139 157.925 
158.364 159.142 149.659 150.531 150.144 150.312 151.653 151.174 151.436 
150.962 151.254 153.005 152.488 152.857 152.285 152.6 152.043 152.384 
154.305 153.878 154.275 153.772 154.07 153.47 153.721 153.191 153.532 
155.496 155.099 155.48 155.083 155.384 154.874 155.097 154.543 154.842 
154.361 154.751 156.829 156.344 156.756 156.288 156.674 156.167 156.507 
155.947 156.317 155.766 156.186 155.652 156.04 158.222 157.765 158.23 
157.706 158.158 157.593 158.045 157.465 157.934 157.346 157.795 157.186 
157.554 156.942 157.246 159.447 159.108 159.603 159.182 159.634 159.133 
159.57 159.046 159.507 158.975 159.404 158.812 159.139 158.49 158.753 
158.121 158.401 160.596 160.284 160.807 160.465 160.932 160.521 160.939 
160.489 160.91 160.452 160.856 160.34 160.655 160.046 160.296 159.651 
159.917 159.298 159.601 160.481 160.814 161.076 161.949 161.175 161.429 
162.336 162.595 163.538 161.533 161.805 162.735 163.014 164.042 164.308 
165.47 161.762 162.124 163.098 163.437 164.527 164.853 166.114 166.467 
167.889 161.829 162.278 163.294 163.752 164.866 165.301 166.561 167.048 
168.495 168.985 170.407 161.844 162.313 163.346 163.879 165.002 165.531 
166.728 167.323 168.692 169.379 170.796 171.335 172.502 161.82 162.314 
163.348 163.911 165.051 165.609 166.776 167.366 168.656 169.388 170.793 
171.516 172.77 173.217 174.173 161.69 162.236 163.253 163.873 165.009 
165.625 166.785 167.379 168.621 169.307 170.695 171.45 172.807 173.405 
174.524 174.844 175.757 161.475 162.046 163.024 163.686 164.762 165.466 
166.572 167.276 168.453 169.205 170.539 171.344 172.747 173.456 174.724 
175.194 176.253 176.496 177.421 160.562 162.032 161.239 161.099 163.64 
162.778 162.679 161.793 161.621 165.649 164.588 164.589 163.54 163.462 
162.428 162.302 168.167 166.922 167.023 165.751 165.768 164.527 164.464 
163.272 163.144 170.715 169.57 169.678 168.376 168.353 167.018 166.888 
165.575 165.354 164.115 163.866 172.775 171.916 171.993 170.899 170.785 
169.541 169.27 167.953 167.553 166.267 165.862 164.701 164.379 174.424 
173.742 173.879 172.988 172.948 171.837 171.628 170.305 169.898 168.464 
167.973 166.657 166.273 165.156 164.873 176.034 175.373 175.655 174.843 
174.998 173.993 174.02 172.764 172.597 171.053 170.673 169.028 168.619 
167.18 166.884 165.694 165.431 177.735 177.087 177.503 176.731 177.041 
176.119 176.298 175.203 175.228 173.876 173.682 172.023 171.635 169.876 
169.471 167.917 167.588 166.291 165.979 178.856 180.534 179.393 178.688 
181.998 181.029 180.337 179.136 178.26 182.947 182.27 181.617 180.653 
179.726 178.535 177.494 183.313 182.899 182.235 181.631 180.715 179.776 
178.656 177.566 176.394 183.123 182.951 182.242 181.94 181.079 180.458 
179.336 178.473 177.261 176.272 174.911 182.384 182.478 181.767 181.702 
180.883 180.562 179.486 178.879 177.65 176.893 175.524 174.531 172.914 
181.217 181.527 180.848 180.993 180.175 180.13 179.095 178.77 177.525 
177.01 175.622 174.892 173.278 172.293 170.609 179.78 180.228 179.553 
179.864 179.036 179.202 178.197 178.134 176.908 176.622 175.222 174.735 
173.16 172.431 170.771 169.932 168.466 178.066 178.642 177.932 178.396 
177.572 177.901 176.936 177.067 175.9 175.805 174.449 174.151 172.651 
172.145 170.577 169.929 168.475 167.85 166.66 179.239 180.196 180.146 
180.904 180.76 180.957 181.742 181.74 182.339 180.709 181.213 182.022 
182.355 183.049 183.035 183.373 180.104 180.84 181.621 182.301 183.179 
183.594 184.155 183.946 183.936 179.103 180.043 180.756 181.602 182.474 
183.373 184.177 184.544 184.666 184.267 183.814 177.546 178.844 179.585 
180.559 181.214 182.284 182.976 183.971 184.159 184.488 183.962 183.689 
182.902 175.276 176.95 177.777 179.114 179.684 180.81 181.24 182.335 
182.419 183.248 182.769 183.155 182.365 182.385 181.557 172.658 174.407 
175.196 176.891 177.504 178.96 179.362 180.515 180.561 181.369 180.992 
181.563 180.982 181.398 180.746 180.885 180.099 170.221 171.753 172.387 
174.079 174.631 176.36 176.803 178.347 178.505 179.566 179.297 179.915 
179.448 179.944 179.468 179.854 179.217 179.322 178.429 161.644 162.466 
162.432 163.242 163.267 163.285 164.122 164.113 164.972 163.976 164.052 
164.917 164.969 165.887 165.898 166.795 164.824 164.859 165.875 165.856 
166.903 166.882 167.956 167.858 168.813 165.922 165.946 167.207 167.101 
168.358 168.178 169.458 169.256 170.469 170.122 171.099 166.975 167.152 
168.6 168.63 170.1 169.933 171.401 171.103 172.51 172.076 173.244 
172.612 173.456 167.817 168.156 169.739 170.006 171.68 171.745 173.402 
173.223 174.758 174.341 175.6 174.936 175.811 174.964 175.521 168.587 
168.989 170.715 171.127 172.994 173.282 175.089 175.144 176.719 176.511 
177.749 177.255 178.097 177.318 177.801 176.853 177.114 169.328 169.785 
171.579 172.108 174.053 174.528 176.345 176.618 178.079 178.123 179.211 
179.045 179.808 179.355 179.803 179.029 179.225 178.258 178.322 160.817 
159.781 160.71 161.57 158.742 159.641 160.505 161.506 162.383 157.795 
158.605 159.415 160.415 161.314 162.282 163.089 156.909 157.661 158.38 
159.324 160.204 161.194 162.016 162.944 163.795 155.971 156.719 157.352 
158.26 159.091 160.091 160.935 161.87 162.698 163.696 164.701 155.045 
155.748 156.323 157.178 157.943 158.948 159.817 160.804 161.638 162.596 
163.503 164.609 165.652 154.267 154.882 155.45 156.188 156.89 157.791 
158.63 159.652 160.52 161.519 162.354 163.379 164.281 165.447 166.431 
153.659 154.193 154.77 155.412 156.069 156.809 157.541 158.462 159.297 
160.333 161.158 162.18 162.974 164.049 164.924 166.139 167.124 153.214 
153.657 154.197 154.777 155.378 156.028 156.637 157.41 158.125 159.091 
159.895 160.925 161.696 162.722 163.516 164.643 165.56 166.826 167.834 
153.165 153.314 153.517 154.106 153.328 153.622 154.257 154.536 155.229 
153.395 153.653 154.347 154.655 155.398 155.692 156.45 153.718 153.855 
154.6 154.834 155.661 155.916 156.783 157.023 157.925 154.14 154.255 
155.005 155.213 156.127 156.341 157.319 157.505 158.506 158.686 159.691 
154.538 154.669 155.443 155.664 156.646 156.902 157.965 158.168 159.216 
159.369 160.388 160.529 161.504 155.054 155.154 156.028 156.186 157.227 
157.466 158.595 158.839 159.945 160.12 161.177 161.291 162.316 162.387 
163.372 155.701 155.806 156.764 156.887 157.945 158.126 159.274 159.503 
160.679 160.878 162.035 162.16 163.302 163.344 164.457 164.415 165.476 
156.332 156.486 157.443 157.616 158.636 158.842 159.959 160.209 161.413 
161.653 162.883 163.067 164.297 164.408 165.622 165.629 166.79 166.679 
167.77 156.965 158.361 157.798 158.121 160.039 159.327 159.676 159.033 
159.375 162.093 161.229 161.632 160.792 161.205 160.431 160.808 164.371 
163.48 163.993 163.009 163.482 162.518 162.966 162.03 162.384 166.875 
165.95 166.641 165.575 166.129 165.02 165.488 164.397 164.768 163.691 
163.949 169.814 168.801 169.784 168.547 169.302 167.95 168.503 167.15 
167.537 166.246 166.512 165.292 165.456 172.89 172.007 173.23 172.017 
172.982 171.501 172.228 170.581 171.047 169.356 169.619 168.066 168.225 
166.836 166.891 175.463 174.937 176.139 175.312 176.235 175.114 175.862 
174.454 174.983 173.222 173.436 171.523 171.569 169.825 169.812 168.267 
168.158 177.292 177.089 178.12 177.696 178.406 177.77 178.337 177.549 
178.042 176.885 177.079 175.392 175.272 173.363 173.162 171.356 171.13 
169.478 169.2 156.504 156.246 156.862 157.887 155.986 156.621 157.711 
158.361 159.548 155.696 156.353 157.46 158.183 159.452 160.168 161.523 
155.391 156.05 157.133 157.886 159.166 160.009 161.433 162.231 163.691 
155.1 155.754 156.824 157.543 158.805 159.674 161.149 162.063 163.603 
164.433 166.037 154.826 155.483 156.581 157.268 158.535 159.353 160.87 
161.796 163.421 164.314 165.986 166.88 168.729 154.599 155.24 156.38 
157.064 158.351 159.135 160.648 161.564 163.22 164.151 165.835 166.778 
168.595 169.654 171.621 154.453 155.054 156.204 156.888 158.181 158.96 
160.42 161.323 162.923 163.903 165.559 166.56 168.291 169.384 171.239 
172.419 174.213 154.375 154.929 156.036 156.709 157.975 158.763 160.176 
161.055 162.57 163.535 165.135 166.18 167.862 168.973 170.713 171.887 
173.586 174.733 176.186 155.608 154.26 155.047 155.327 153.083 153.761 
153.991 154.771 155.054 151.949 152.611 152.763 153.466 153.653 154.463 
154.738 150.681 151.377 151.448 152.172 152.228 153.007 153.165 154.086 
154.385 149.405 150.033 150.018 150.738 150.717 151.482 151.534 152.437 
152.68 153.707 154.058 148.166 148.741 148.646 149.296 149.257 149.959 
150.011 150.821 151.035 151.991 152.338 153.379 153.763 146.883 147.447 
147.338 147.964 147.956 148.599 148.707 149.417 149.651 150.459 150.774 
151.696 152.073 153.099 153.521 145.782 146.211 146.173 146.737 146.843 
147.436 147.618 148.245 148.488 149.184 149.45 150.231 150.544 151.463 
151.882 152.914 153.39 145.146 145.348 145.385 145.782 146.013 146.51 
146.786 147.301 147.535 148.097 148.299 148.957 149.196 150.001 150.375 
151.336 151.835 152.857 153.366 144.962 144.933 144.97 145.191 145.053 
145.033 145.271 145.392 145.817 145.246 145.178 145.398 145.512 145.924 
146.108 146.579 145.567 145.422 145.583 145.627 145.973 146.156 146.553 
146.792 147.234 146.026 145.843 146.019 145.903 146.156 146.182 146.476 
146.663 147.032 147.362 147.867 146.584 146.392 146.652 146.463 146.69 
146.499 146.706 146.658 146.987 147.174 147.703 148.066 148.736 147.29 
147.031 147.311 147.125 147.387 147.142 147.354 147.109 147.442 147.369 
147.95 148.097 148.869 149.146 149.979 148.165 147.815 148.046 147.801 
148.091 147.864 148.17 147.906 148.312 148.093 148.706 148.636 149.448 
149.534 150.437 150.606 151.501 149.112 148.728 148.929 148.597 148.886 
148.624 149.016 148.79 149.298 149.084 149.719 149.56 150.332 150.29 
151.16 151.222 152.108 152.218 153.061 149.716 150.66 149.959 149.557 
151.773 150.98 150.572 149.85 149.511 153.17 152.229 151.863 150.999 
150.697 149.931 149.698 154.927 153.858 153.567 152.514 152.269 151.316 
151.128 150.276 150.102 156.787 155.77 155.581 154.448 154.222 153.096 
152.899 151.884 151.719 150.788 150.62 158.579 157.637 157.561 156.522 
156.349 155.181 154.951 153.795 153.604 152.543 152.39 151.396 151.267 
160.539 159.517 159.516 158.503 158.436 157.322 157.143 155.941 155.744 
154.564 154.41 153.296 153.181 152.145 152.08 162.685 161.622 161.654 
160.572 160.567 159.445 159.343 158.155 157.987 156.779 156.606 155.418 
155.263 154.139 154.036 153.012 152.978 164.735 163.779 163.853 162.793 
162.811 161.668 161.59 160.386 160.229 159.017 158.832 157.63 157.431 
156.252 156.076 154.984 154.884 153.902 153.874 154.684 155.738 155.566 
156.364 156.993 156.755 157.658 157.439 158.378 158.419 158.157 159.179 
158.919 159.997 159.675 160.686 159.88 159.666 160.802 160.577 161.788 
161.469 162.593 162.133 163.138 161.34 161.176 162.416 162.257 163.603 
163.36 164.636 164.19 165.308 164.717 165.749 162.78 162.688 164.03 
163.923 165.389 165.229 166.692 166.342 167.664 167.076 168.254 167.517 
168.586 164.057 164.105 165.517 165.535 167.073 167.033 168.614 168.432 
169.932 169.513 170.844 170.171 171.321 170.47 171.489 165.081 165.266 
166.693 166.897 168.459 168.616 170.224 170.262 171.806 171.658 173.041 
172.645 173.809 173.156 174.15 173.33 174.254 165.886 166.158 167.556 
167.907 169.473 169.821 171.429 171.675 173.193 173.287 174.638 174.54 
175.672 175.338 176.273 175.738 176.572 175.907 176.691 148.82 148.455 
148.417 148.029 148.231 148.121 147.727 147.674 147.404 148.006 147.928 
147.553 147.462 147.191 147.186 147.053 147.768 147.688 147.357 147.299 
147.007 146.989 146.776 146.844 146.621 147.832 147.564 147.253 147.125 
146.864 146.803 146.546 146.537 146.251 146.267 145.903 148.224 147.803 
147.405 147.123 146.845 146.714 146.501 146.394 146.138 146.003 145.7 
145.585 145.332 148.577 148.179 147.643 147.291 146.859 146.696 146.451 
146.388 146.17 146.026 145.75 145.558 145.33 145.219 145.142 148.804 
148.43 147.85 147.462 146.919 146.668 146.319 146.266 146.035 146.003 
145.726 145.617 145.341 145.247 145.083 145.089 145.059 149.076 148.663 
148.137 147.698 147.202 146.811 146.452 146.211 145.978 145.855 145.628 
145.531 145.294 145.214 145.041 145.006 144.918 144.965 144.972 148.966 
148.151 148.684 148.985 147.486 147.877 148.122 148.696 149.059 147.141 
147.356 147.511 147.887 148.193 148.791 149.259 146.717 147.028 147.171 
147.44 147.694 148.071 148.526 149.116 149.755 145.932 146.391 146.576 
147.045 147.385 147.764 148.233 148.617 149.247 149.796 150.533 145.32 
145.601 145.814 146.329 146.832 147.419 148.038 148.473 149.062 149.454 
150.093 150.625 151.257 145.209 145.274 145.535 145.793 146.368 146.891 
147.655 148.215 148.872 149.285 149.818 150.235 150.77 151.261 151.713 
145.226 145.323 145.658 145.804 146.372 146.677 147.413 147.867 148.563 
149.008 149.567 149.964 150.479 150.867 151.34 151.695 152.058 145.175 
145.335 145.739 145.965 146.559 146.819 147.491 147.78 148.402 148.732 
149.289 149.679 150.236 150.639 151.165 151.478 151.902 152.128 152.484 
149.491 149.557 149.781 150.337 149.705 149.914 150.485 150.684 151.357 
149.976 150.154 150.8 150.922 151.564 151.801 152.614 150.458 150.537 
151.223 151.308 151.942 152.076 152.797 153.098 153.917 151.165 151.131 
151.74 151.754 152.328 152.432 153.08 153.311 154.067 154.371 155.156 
151.825 151.824 152.338 152.288 152.755 152.782 153.383 153.577 154.338 
154.596 155.404 155.66 156.486 152.181 152.297 152.767 152.808 153.239 
153.236 153.804 153.923 154.696 154.916 155.738 155.968 156.767 157.028 
157.829 152.402 152.506 152.949 153.093 153.569 153.675 154.251 154.383 
155.111 155.306 156.071 156.284 157.005 157.258 157.981 158.29 159.023 
152.776 152.763 153.203 153.285 153.814 153.956 154.571 154.761 155.458 
155.676 156.379 156.579 157.244 157.457 158.145 158.416 159.153 159.45 
160.186 155.501 154.875 154.829 154.15 154.333 154.258 153.627 153.565 
152.998 153.968 153.862 153.342 153.182 152.61 152.487 151.911 153.606 
153.565 153.126 153.009 152.459 152.219 151.549 151.363 150.706 153.101 
153.104 152.607 152.669 152.153 152.059 151.385 151.113 150.384 150.162 
149.51 152.76 152.603 152.019 152.02 151.495 151.566 151.007 150.92 
150.243 149.978 149.266 149.02 148.341 152.765 152.455 151.9 151.62 
151.066 150.94 150.446 150.442 149.924 149.813 149.145 148.863 148.093 
147.817 147.079 152.816 152.563 152.08 151.728 151.173 150.791 150.234 
150.014 149.54 149.453 148.919 148.721 148.005 147.658 146.889 146.586 
145.96 152.703 152.556 152.112 151.89 151.367 151.002 150.398 150.011 
149.459 149.206 148.707 148.506 147.913 147.608 146.926 146.553 145.959 
145.669 145.289 
POINT_DATA 1002
SCALARS Distance double
LOOKUP_TABLE default
150.366 149.491 150.196 151.199 150.945 151.396 152.107 151.852 152.391 
152.599 153.129 152.978 153.463 153.78 154.149 154.253 154.19 154.567 
155.042 155.467 155.973 155.453 155.38 155.717 156.289 156.824 157.226 
157.714 156.731 156.547 156.992 157.547 158.175 158.597 158.972 159.5 
158.028 157.698 158.353 158.862 159.527 160.091 160.539 161.025 161.592 
159.285 158.831 159.686 160.178 160.866 161.568 162.154 162.688 163.211 
163.719 160.447 159.907 160.916 161.423 162.147 162.955 163.588 164.093 
164.609 165.131 165.616 149.183 149.863 148.978 149.593 148.696 150.587 
149.175 148.197 150.27 151.576 148.702 147.873 149.881 151.291 152.822 
148.676 148.043 149.71 151.035 152.552 154.083 149.009 148.347 149.959 
151.119 152.381 153.826 155.275 149.241 148.542 150.201 151.372 152.528 
153.739 155.097 156.433 149.43 148.812 150.298 151.452 152.672 153.854 
155.09 156.334 157.571 149.753 149.225 150.508 151.554 152.724 153.9 
155.145 156.374 157.514 158.692 150.002 150.679 150.917 151.93 152.117 
151.704 153.421 153.482 153.224 152.876 154.733 154.703 154.674 154.314 
153.976 155.865 155.923 155.844 155.638 155.342 155.211 157.249 157.32 
157.159 157.023 156.866 156.748 156.604 158.731 158.621 158.716 158.604 
158.512 158.43 158.21 157.851 159.977 159.747 160.106 160.084 160.027 
159.987 159.799 159.411 159 161.134 160.912 161.317 161.378 161.361 
161.347 161.238 160.933 160.547 160.206 161.334 161.692 162.826 162.052 
163.27 164.522 162.435 163.725 165.137 166.759 162.707 164.158 165.702 
167.51 169.407 162.785 164.396 166.049 167.937 170.047 171.775 162.797 
164.461 166.155 167.988 170.16 172.192 173.546 162.771 164.482 166.217 
167.964 170.025 172.205 173.922 175.057 162.624 164.371 166.183 167.964 
169.942 172.13 174.097 175.563 176.658 162.385 164.07 165.852 167.688 
169.716 171.972 174.153 175.93 177.273 178.338 161.938 163.575 162.527 
165.673 164.524 163.339 168.342 167.062 165.724 164.334 170.97 169.73 
168.272 166.673 165.06 173.01 172.005 170.626 168.919 167.071 165.458 
174.676 173.957 172.888 171.377 169.407 167.445 165.92 176.394 175.903 
175.143 174.039 172.384 170.238 168.18 166.555 178.218 177.907 177.322 
176.438 175.215 173.457 171.22 169.021 167.191 180.023 179.95 181.639 
181.51 182.855 179.563 182.455 183.541 180.896 178.732 182.707 183.697 
181.55 179.71 177.538 182.456 183.222 181.57 180.124 178.182 176.071 
181.764 182.17 181.086 180.001 178.34 176.435 174.076 180.653 180.835 
180.135 179.311 177.979 176.263 174.175 171.593 179.202 179.311 178.811 
178.167 177.121 175.634 173.778 171.537 169.188 177.42 177.476 177.18 
176.73 175.92 174.67 173.053 171.131 169.067 167.173 179.363 181.059 
180.174 181.646 180.468 182.531 181.534 180.134 182.897 183.729 180.86 
179.328 182.485 184.166 184.578 179.948 178.044 181.472 183.479 184.893 
184.53 178.549 176.053 180.269 181.913 183.544 184.04 183.317 176.259 
173.527 178.534 180.26 181.556 182.162 182.11 181.67 173.448 171.008 
175.892 178.099 179.739 180.397 180.423 180.418 180.155 170.812 168.847 
172.909 175.105 177.218 178.572 178.934 178.997 178.997 178.508 161.639 
163.277 162.486 164.097 163.224 164.998 164.842 163.869 165.819 166.851 
165.875 164.737 166.915 167.982 169.041 167.232 165.801 168.52 169.647 
170.757 171.621 168.43 166.699 170.146 171.648 172.924 173.869 174.26 
169.347 167.413 171.454 173.459 175.118 176.25 176.697 176.493 170.217 
168.14 172.595 174.951 176.872 178.177 178.829 178.774 178.147 159.904 
160.59 158.854 159.483 157.892 161.445 158.445 157.054 160.319 162.182 
157.488 156.189 159.211 161.085 162.788 156.485 155.242 158.086 159.98 
161.743 163.57 155.52 154.375 156.968 158.78 160.694 162.484 164.461 
154.753 153.675 156.079 157.628 159.486 161.384 163.199 165.185 154.153 
153.153 155.407 156.725 158.275 160.132 161.96 163.767 165.823 153.667 