# vtk DataFile Version 4.0
vtk output
ASCII
DATASET POLYDATA
POINTS 1002 float
-102.543 -82.5354 78.8895 -102.532 -81.8801 77.8841 -102.867 -81.7015 78.7292 
-102.853 -82.4319 79.7932 -103.273 -81.683 79.6256 -102.667 -83.4654 79.8862 
-103.259 -82.5371 80.7578 -103.851 -81.9076 80.4848 -102.964 -83.482 80.8846 
-102.768 -84.557 81.0837 -103.926 -82.8961 81.6227 -104.585 -82.273 81.266 
-103.411 -83.6542 81.9476 -103.096 -84.643 82.2137 -102.87 -85.693 82.5272 
-104.753 -83.3454 82.3899 -105.257 -82.5724 82.1188 -104.179 -84.0474 82.8373 
-103.648 -84.8344 83.2865 -103.344 -85.8505 83.6034 -103.198 -86.9202 83.8652 
-105.448 -83.7057 83.3286 -105.846 -82.8707 83.0814 -105.03 -84.5387 83.6778 
-104.481 -85.2751 84.1555 -104.008 -86.1246 84.5497 -103.837 -87.1949 84.7772 
-103.774 -88.2546 84.9629 -106.084 -84.0618 84.3636 -106.532 -83.3159 83.9621 
-105.701 -84.9395 84.7164 -105.285 -85.8013 85.0811 -104.803 -86.6353 85.4652 
-104.515 -87.6339 85.7442 -104.455 -88.7514 85.8982 -104.425 -89.7922 86.0228 
-106.805 -84.471 85.2215 -107.256 -83.7812 84.7429 -106.353 -85.2975 85.6808 
-105.948 -86.2353 86.0622 -105.561 -87.2147 86.4055 -105.257 -88.2885 86.7272 
-105.117 -89.464 86.9437 -105.068 -90.5848 87.0311 -105.043 -91.6023 87.0914 
-107.481 -84.865 85.9371 -107.873 -84.1777 85.4805 -107.06 -85.7075 86.3869 
-106.649 -86.7148 86.7923 -106.304 -87.8331 87.1361 -106.064 -89.0323 87.4477 
-105.891 -90.2812 87.7467 -105.744 -91.4413 87.9586 -105.646 -92.4447 88.0365 
-105.597 -93.3897 88.0883 -108.05 -85.3058 86.5434 -108.409 -84.6236 86.0689 
-107.707 -86.193 86.9606 -107.379 -87.2981 87.3205 -107.08 -88.5347 87.6436 
-106.885 -89.8009 87.9147 -106.747 -91.0484 88.1849 -106.541 -92.199 88.5171 
-106.324 -93.17 88.7911 -106.2 -94.0276 88.9043 -106.124 -94.8941 88.9552 
-102.895 -81.2522 77.3038 -103.357 -81.1631 78.1384 -103.415 -80.677 76.6817 
-104.044 -80.714 77.4383 -103.929 -79.9881 76.1983 -103.916 -81.1999 79.0204 
-104.659 -80.0452 76.9165 -104.413 -79.1395 75.8798 -104.698 -80.7258 78.3161 
-104.567 -81.3655 79.9351 -105.166 -79.1452 76.6244 -105.101 -78.4046 75.4631 
-105.284 -79.9661 77.8423 -105.236 -80.6786 79.4131 -105.183 -81.5419 80.9174 
-105.918 -78.4841 76.207 -106.072 -77.9713 74.8176 -105.814 -79.1362 77.5671 
-105.719 -79.8256 79.0772 -105.68 -80.68 80.6299 -105.727 -81.7449 81.9377 
-106.946 -78.1834 75.5851 -107.036 -77.6287 74.2461 -106.673 -78.6625 77.1642 
-106.387 -79.1601 78.8008 -106.253 -79.9083 80.3262 -106.27 -80.979 81.6555 
-106.377 -82.1743 82.8335 -107.84 -77.8519 75.1398 -107.813 -77.205 74.0371 
-107.615 -78.3548 76.6738 -107.305 -78.7532 78.4668 -107.116 -79.3602 80.0217 
-107.025 -80.3537 81.2739 -107.021 -81.561 82.4577 -107.129 -82.7424 83.6337 
-108.5 -77.3941 75.0368 -108.537 -76.8044 74.0914 -108.309 -77.9374 76.3387 
-108.076 -78.3566 78.1219 -107.974 -78.8946 79.7916 -107.891 -79.7881 80.9886 
-107.755 -80.9474 82.0887 -107.73 -82.1465 83.2992 -107.819 -83.2323 84.4653 
-109.132 -77.0443 75.0794 -109.29 -76.5571 74.1616 -108.934 -77.5829 76.1662 
-108.746 -78.0339 77.7715 -108.672 -78.5265 79.5264 -108.638 -79.3043 80.8078 
-108.492 -80.3693 81.8086 -108.357 -81.5455 82.9649 -108.37 -82.6833 84.1672 
-108.42 -83.6982 85.2069 -109.88 -76.7696 74.7791 -109.71 -77.3284 75.7772 
-110.446 -77.303 75.3891 -110.456 -77.8945 76.583 -111.057 -78.0478 76.1454 
-109.592 -77.8702 77.1317 -111.099 -78.6005 77.586 -111.57 -78.8883 77.1862 
-110.425 -78.4407 78.1808 -109.488 -78.3639 78.9272 -111.456 -79.5098 78.7018 
-112.13 -80.0012 78.3883 -110.92 -79.2216 79.1724 -110.232 -79.0638 79.8689 
-109.38 -79.0457 80.4894 -112.058 -80.6729 79.7635 -112.913 -81.1676 79.4575 
-111.243 -80.24 80.0915 -110.704 -80.0191 80.6053 -110.032 -79.9432 81.1895 
-109.229 -80.0382 81.5932 -112.814 -81.7067 80.7046 -113.366 -81.9961 80.2875 
-111.904 -81.3636 81.0873 -111.28 -81.0851 81.5264 -110.739 -80.9874 82.0286 
-109.933 -81.0337 82.4575 -109.073 -81.2151 82.764 -113.113 -82.6685 81.5522 
-113.335 -82.8743 81.0474 -112.462 -82.5087 82.0884 -111.919 -82.2559 82.6458 
-111.51 -82.048 83.2065 -110.81 -82.0729 83.6015 -109.877 -82.2377 83.8421 
-109.031 -82.4323 84.0425 -113.343 -83.8873 82.3562 -113.473 -84.1119 81.8451 
-112.828 -83.7865 82.9285 -112.334 -83.5938 83.5313 -112.024 -83.2574 84.2176 
-111.524 -83.1001 84.7461 -110.706 -83.2593 84.9135 -109.825 -83.4611 84.9837 
-109.05 -83.5723 85.1229 -113.866 -85.1109 83.0829 -113.888 -85.327 82.5804 
-113.416 -84.983 83.6186 -112.818 -84.8404 84.1283 -112.389 -84.5422 84.7702 
-111.971 -84.2357 85.4804 -111.328 -84.2398 85.8227 -110.547 -84.4758 85.8002 
-109.754 -84.6114 85.8352 -109.02 -84.6068 85.9905 -108.752 -85.6784 86.814 
-109.471 -85.7861 86.6781 -109.206 -87.1337 87.5232 -110.279 -85.7968 86.5743 
-109.985 -87.2853 87.4539 -109.701 -88.867 88.3131 -111.062 -85.6 86.6605 
-110.78 -87.2471 87.5109 -110.436 -89.0151 88.3984 -110.123 -90.684 89.2454 
-111.769 -85.4424 86.5617 -111.489 -87.1287 87.5897 -111.137 -89.0672 88.4931 
-110.807 -90.9326 89.3424 -110.616 -92.7507 90.1334 -112.332 -85.5492 85.9226 
-112.059 -87.1358 87.2293 -111.729 -89.2269 88.3914 -111.456 -91.243 89.2586 
-111.283 -93.2083 90.0754 -111.195 -95.3973 90.7377 -112.833 -85.7361 85.1613 
-112.504 -87.1074 86.4679 -112.124 -89.3192 87.9449 -111.986 -91.6296 89.0843 
-111.857 -93.7378 89.8932 -111.66 -96.113 90.6065 -111.564 -98.6279 91.0939 
-113.474 -85.8565 84.6241 -113.015 -86.9701 85.7601 -112.393 -89.0648 87.2459 
-112.282 -91.7065 88.7608 -112.318 -94.1772 89.8178 -112.033 -96.84 90.4795 
-111.803 -99.6895 90.9829 -111.902 -102.131 91.3388 -114.055 -85.9878 84.1116 
-113.57 -86.945 85.1601 -112.691 -88.7516 86.4513 -112.383 -91.435 88.0515 
-112.556 -94.2639 89.5125 -112.404 -97.3013 90.3874 -112.127 -100.575 90.8243 
-112.252 -103.349 91.1656 -112.651 -105.358 91.4571 -114.204 -86.1659 83.5337 
-113.828 -87.0551 84.5356 -112.91 -88.6266 85.6966 -112.402 -91.1403 87.153 
-112.546 -94.0902 88.7512 -112.591 -97.3574 89.9857 -112.479 -100.949 90.5924 
-112.711 -104.065 90.8783 -113.226 -106.225 91.1544 -113.653 -107.823 91.3863 
-108.41 -86.5833 87.3404 -108.896 -88.3034 88.0977 -108.127 -87.7545 87.7572 
-109.375 -90.1859 88.9577 -108.62 -89.6399 88.5894 -107.867 -89.1167 88.117 
-109.844 -92.2171 89.9207 -109.066 -91.6032 89.5544 -108.379 -91.0753 89.0529 
-107.672 -90.5145 88.432 -110.504 -94.8619 90.6702 -109.635 -94.1131 90.4225 
-108.898 -93.2942 90.061 -108.291 -92.5748 89.4049 -107.578 -91.8471 88.6675 
-111.158 -98.1101 91.0683 -110.409 -97.4525 90.9003 -109.592 -96.4598 90.7592 
-108.929 -95.2225 90.3935 -108.232 -94.0472 89.6491 -107.391 -93.067 88.9738 
-111.648 -101.54 91.3437 -111.113 -100.911 91.1747 -110.376 -100.096 91.0712 
-109.661 -98.7666 90.9922 -108.887 -97.0094 90.5936 -107.979 -95.347 89.9633 
-107.087 -94.109 89.3789 -112.333 -104.911 91.5666 -111.824 -104.214 91.4579 
-111.152 -103.368 91.2898 -110.471 -102.246 91.1919 -109.695 -100.568 91.0328 
-108.714 -98.4179 90.7128 -107.721 -96.4041 90.2505 -106.883 -94.9884 89.638 
-113.283 -107.872 91.5866 -112.715 -107.456 91.5979 -112.02 -106.543 91.4542 
-111.368 -105.323 91.2548 -110.675 -103.866 91.0516 -109.71 -101.907 90.8967 
-108.607 -99.4785 90.7198 -107.62 -97.2835 90.3233 -106.795 -95.8299 89.6873 
-114.278 -110.083 91.262 -113.769 -110.457 91.4122 -114.483 -112.55 90.8264 
-113.851 -112.889 90.9705 -114.396 -114.773 90.106 -113.033 -110.022 91.4171 
-113.545 -114.573 90.3817 -114.037 -116.208 89.1691 -113.065 -112.186 91.055 
-112.333 -108.754 91.2669 -112.97 -115.581 89.6557 -113.228 -117.07 88.1142 
-112.804 -113.609 90.6265 -112.519 -110.641 90.9515 -111.728 -107.113 91.0002 
-112.47 -116.112 88.889 -112.472 -117.317 87.4381 -112.438 -114.357 90.0962 
-112.344 -111.925 90.6834 -111.829 -108.699 90.7842 -110.813 -105.243 90.8102 
-112.304 -115.44 88.554 -112.232 -116.245 87.5429 -112.159 -114.051 89.6184 
-111.81 -112.184 90.4366 -111.321 -109.588 90.7907 -110.555 -106.286 90.7822 
-109.557 -102.752 90.7705 -112.005 -113.563 88.6611 -111.927 -114.096 87.9807 
-111.747 -112.594 89.4421 -111.135 -111.3 90.1934 -110.5 -109.397 90.7363 
-109.899 -106.589 90.8568 -109.172 -103.202 90.7308 -108.352 -99.9242 90.592 
-111.2 -111.509 88.6957 -111.136 -111.755 88.1888 -110.966 -110.892 89.321 
-110.421 -109.983 89.9262 -109.873 -108.51 90.413 -109.366 -106.172 90.6445 
-108.709 -103.209 90.598 -107.967 -100.237 90.4117 -107.31 -97.7303 90.1195 
-110.26 -109.567 88.5267 -110.239 -109.483 88.1588 -110.089 -109.288 89.0256 
-109.733 -108.642 89.5346 -109.416 -107.389 89.9244 -109.09 -105.353 90.153 
-108.428 -102.851 90.2538 -107.555 -100.403 90.2111 -106.869 -98.2523 89.9513 
-106.437 -96.4247 89.4896 -114.364 -108.661 91.0449 -114.745 -110.831 90.7888 
-114.745 -109.028 90.6399 -114.704 -111.344 90.2723 -114.644 -109.235 90.2476 
-114.726 -113.585 90.159 -114.368 -111.781 89.7812 -114.317 -109.229 89.782 
-114.563 -114.601 89.5087 -114.772 -116.163 89.1354 -114.2 -111.563 89.2423 
-113.956 -108.549 89.2567 -114.311 -114.953 88.9976 -114.816 -117.242 88.2903 
-114.466 -117.564 87.7879 -114.03 -110.327 88.8052 -113.327 -107.004 88.9267 
-114.251 -113.82 88.5975 -114.595 -116.794 87.8829 -114.488 -118.03 86.8045 
-113.359 -118.015 86.5879 -113.32 -108.226 88.672 -112.47 -104.682 88.6451 
-113.95 -111.627 88.4485 -114.3 -114.767 87.9123 -114.281 -116.912 86.7605 
-113.43 -117.804 85.9086 -112.478 -117.634 86.357 -112.361 -105.32 88.4053 
-111.875 -101.88 87.8928 -113.051 -108.728 88.4957 -113.625 -111.935 88.231 
-113.928 -114.657 87.453 -113.623 -116.378 86.4716 -112.797 -116.842 86.2802 
-112.205 -115.957 87.0311 -111.794 -102.083 87.5345 -111.652 -99.1862 86.6932 
-112.154 -105.216 88.1279 -112.593 -108.321 88.3485 -113.045 -111.288 88.1392 
-113.343 -113.659 87.5749 -113.062 -114.814 87.1364 -112.326 -114.593 87.2366 
-111.661 -113.358 87.7018 -111.563 -99.2819 86.3364 -111.469 -97.0477 85.5388 
-111.732 -101.863 87.1228 -111.879 -104.488 87.7345 -112.023 -107.093 88.063 
[...]
CELL_DATA 2000
SCALARS Distance double
LOOKUP_TABLE default
152.067 152.702 152.564 153.034 153.537 153.287 153.757 153.641 154.227 
154.581 154.243 154.71 154.473 155.067 154.938 155.602 155.693 155.367 
155.865 155.546 156.121 155.88 156.551 156.403 157.128 156.778 156.498 
157.067 156.761 157.354 157.034 157.67 157.428 158.159 158.006 158.777 
157.902 157.618 158.237 157.967 158.612 158.305 158.945 158.631 159.344 
159.114 159.926 159.742 160.564 159.05 158.772 159.384 159.133 159.788 
159.537 160.211 159.927 160.661 160.392 161.236 161 161.887 161.635 
162.498 160.113 159.881 160.466 160.247 160.888 160.679 161.379 161.162 
161.936 161.719 162.585 162.37 163.27 163.022 163.879 163.605 164.426 
161.061 160.874 161.452 161.276 161.928 161.758 162.489 162.318 163.123 
162.958 163.823 163.667 164.539 164.356 165.167 164.937 165.682 165.445 
166.167 151.646 151.341 151.747 152.305 151.123 151.528 152.131 152.502 
153.147 150.882 151.335 151.997 152.387 153.046 153.435 154.162 150.663 
151.09 151.763 152.217 152.882 153.32 154.019 154.471 155.216 150.659 
150.952 151.595 151.98 152.639 153.088 153.778 154.271 155.004 155.497 
156.254 150.861 151.07 151.718 151.951 152.612 152.916 153.619 154.033 
154.802 155.279 156.079 156.561 157.369 151.092 151.308 151.968 152.169 
152.831 153.042 153.748 154.021 154.796 155.163 155.991 156.429 157.273 
157.731 158.542 151.344 151.527 152.145 152.37 153.006 153.266 153.967 
154.238 154.98 155.265 156.038 156.397 157.217 157.654 158.474 158.904 
159.644 151.704 151.799 152.363 152.526 153.144 153.399 154.118 154.426 
155.173 155.456 156.171 156.468 157.216 157.606 158.405 158.836 159.594 
159.972 160.628 152.13 153.028 152.622 152.76 154.148 153.647 153.826 
153.345 153.566 155.409 154.88 155.131 154.578 154.818 154.288 154.585 
156.78 156.169 156.4 155.892 156.147 155.627 155.874 155.362 155.643 
158.368 157.621 157.736 157.127 157.356 156.885 157.14 156.65 156.875 
156.38 156.625 159.818 159.201 159.27 158.553 158.738 158.151 158.488 
157.949 158.258 157.675 157.941 157.386 157.679 160.845 160.468 160.646 
160.065 160.278 159.668 160.053 159.461 159.875 159.212 159.539 158.851 
159.158 158.542 158.878 161.887 161.507 161.861 161.377 161.69 161.171 
161.561 161.053 161.467 160.881 161.199 160.519 160.773 160.099 160.365 
159.76 160.044 163.145 162.734 163.169 162.676 163.019 162.517 162.861 
162.423 162.785 162.337 162.625 162.072 162.27 161.649 161.828 161.217 
161.41 160.843 161.048 161.75 162.162 162.297 163.05 162.612 162.753 
163.555 163.718 164.6 163.058 163.222 164.055 164.249 165.17 165.359 
166.31 163.398 163.633 164.477 164.736 165.681 165.922 166.904 167.103 
168.119 163.543 163.867 164.692 165.067 166.039 166.395 167.409 167.677 
168.731 168.974 170.116 163.622 163.942 164.704 165.13 166.093 166.627 
167.731 168.157 169.258 169.564 170.732 171.041 172.282 163.812 164.071 
164.764 165.077 165.918 166.509 167.672 168.36 169.603 170.076 171.281 
171.632 172.916 173.257 174.572 163.991 164.29 164.926 165.141 165.781 
166.246 167.29 168.126 169.49 170.28 171.612 172.142 173.468 173.891 
175.293 175.632 176.987 163.952 164.362 164.935 165.2 165.669 166.037 
166.858 167.646 168.971 169.979 171.442 172.288 173.705 174.357 175.796 
176.308 177.692 178.031 179.239 161.754 163.072 162.322 162.208 164.655 
163.794 163.708 162.872 162.768 166.386 165.489 165.44 164.52 164.444 
163.529 163.42 168.244 167.303 167.295 166.328 166.289 165.325 165.25 
164.259 164.134 170.356 169.338 169.427 168.324 168.342 167.274 167.258 
166.198 166.098 165.025 164.879 172.628 171.625 171.868 170.686 170.804 
169.561 169.611 168.375 168.299 167.082 166.904 165.774 165.59 174.955 
173.985 174.337 173.222 173.434 172.196 172.302 170.959 170.883 169.46 
169.205 167.866 167.586 166.44 166.199 177.376 176.405 176.813 175.715 
175.955 174.789 174.915 173.665 173.606 172.168 171.853 170.315 169.894 
168.505 168.149 166.99 166.703 179.649 178.83 179.281 178.234 178.471 
177.289 177.377 176.168 176.125 174.812 174.536 173.016 172.524 170.942 
170.428 169.025 168.622 167.459 167.161 180.893 182.509 181.447 180.653 
183.734 182.94 182.226 181.003 179.865 184.314 183.883 183.234 182.372 
181.271 179.989 178.682 184.208 184.117 183.562 183.111 182.189 181.213 
179.906 178.657 177.309 183.733 183.824 183.415 183.245 182.531 181.927 
180.754 179.71 178.254 177.102 175.642 183.037 183.272 182.874 182.925 
182.229 182.003 180.914 180.268 178.78 177.81 176.158 175.143 173.546 
181.899 182.349 181.796 182.084 181.257 181.349 180.241 180.03 178.577 
177.971 176.245 175.402 173.667 172.826 171.292 180.26 180.889 180.249 
180.706 179.854 180.116 179.061 179.093 177.77 177.464 175.837 175.224 
173.5 172.786 171.235 170.581 169.316 178.373 179.074 178.491 179.038 
178.29 178.65 177.721 177.87 176.702 176.569 175.117 174.69 173.107 
172.529 171.073 170.492 169.281 168.758 167.766 181.185 181.697 181.914 
182.684 181.748 182.178 183.015 183.304 183.925 181.494 182.081 183.032 
183.535 184.355 184.453 184.695 180.882 181.706 182.741 183.482 184.464 
184.832 185.157 184.92 184.632 179.732 180.883 181.907 182.944 183.888 
184.668 185.003 185.124 184.722 184.466 183.952 177.957 179.438 180.421 
181.74 182.562 183.674 184.034 184.584 184.25 184.268 183.703 183.643 
183.188 175.647 177.333 178.236 179.843 180.586 181.986 182.446 183.382 
183.353 183.671 183.277 183.291 182.825 182.782 182.181 173.18 174.81 
175.562 177.301 177.94 179.616 180.076 181.505 181.697 182.607 182.412 
182.763 182.242 182.29 181.552 181.485 180.577 170.982 172.352 172.957 
174.537 175.06 176.722 177.058 178.734 178.889 180.421 180.287 181.366 
180.788 181.314 180.387 180.576 179.528 179.594 178.578 164.059 164.317 
164.497 164.962 164.458 164.633 165.128 165.277 165.719 165.048 164.984 
165.68 165.649 166.396 166.317 167.089 166.259 166.027 167.024 166.742 
167.826 167.511 168.619 168.275 169.369 167.529 167.45 168.614 168.42 
169.669 169.356 170.616 170.192 171.394 170.912 171.979 168.458 168.611 
169.816 169.899 171.21 171.173 172.542 172.295 173.608 173.128 174.279 
173.609 174.491 169.153 169.432 170.74 170.972 172.426 172.582 174.15 
174.147 175.677 175.384 176.689 176.064 177.048 176.145 176.797 169.736 
170.111 171.576 171.927 173.569 173.838 175.553 175.71 177.326 177.296 
178.612 178.299 179.244 178.619 179.245 178.328 178.709 170.245 170.696 
172.259 172.766 174.523 174.976 176.724 177.032 178.56 178.696 179.868 
179.813 180.618 180.361 180.905 180.415 180.777 179.989 180.181 163.337 
162.296 163.166 163.708 161.189 162.106 162.759 163.491 163.924 160.074 
160.976 161.66 162.526 163.098 163.764 164.362 158.995 159.826 160.441 
161.374 162.033 162.892 163.582 164.386 165.304 157.972 158.728 159.261 
160.144 160.826 161.783 162.571 163.511 164.415 165.404 166.438 156.996 
157.701 158.212 159.017 159.704 160.631 161.469 162.452 163.356 164.378 
165.329 166.4 167.339 156.149 156.773 157.285 158.021 158.687 159.566 
160.378 161.354 162.221 163.24 164.119 165.186 166.062 167.144 167.985 
155.5 156.027 156.522 157.156 157.76 158.555 159.285 160.229 161.04 
162.055 162.886 163.931 164.759 165.823 166.624 167.703 168.497 154.997 
155.455 155.917 156.457 156.988 157.656 158.296 159.13 159.888 160.854 
161.676 162.693 163.507 164.528 165.3 166.332 167.085 168.171 168.962 
154.888 155.013 155.222 155.793 155.181 155.379 155.991 156.196 156.852 
155.47 155.629 156.303 156.467 157.184 157.364 158.14 155.87 156.009 
156.732 156.868 157.643 157.795 158.644 158.809 159.723 156.277 156.426 
157.146 157.314 158.119 158.312 159.236 159.415 160.4 160.543 161.53 
156.681 156.808 157.522 157.711 158.569 158.809 159.811 160.045 161.094 
161.27 162.285 162.402 163.362 157.183 157.25 158.01 158.155 159.117 
159.341 160.442 160.672 161.769 161.956 162.987 163.139 164.11 164.215 
165.133 157.804 157.846 158.685 158.782 159.815 160.005 161.164 161.377 
162.508 162.67 163.732 163.861 164.893 164.989 165.975 166.013 166.934 
158.454 158.538 159.444 159.549 160.584 160.753 161.877 162.098 163.233 
163.43 164.55 164.69 165.822 165.895 166.999 166.982 167.999 167.913 
168.855 159.094 160.585 159.952 160.22 162.242 161.577 161.902 161.177 
161.437 164.035 163.334 163.736 162.969 163.278 162.471 162.742 166.094 
165.305 165.869 165 165.438 164.483 164.805 163.871 164.141 168.401 
167.559 168.261 167.358 167.955 166.903 167.32 166.177 166.477 165.376 
165.587 170.821 169.976 170.717 169.843 170.504 169.518 169.99 168.844 
169.161 167.938 168.151 166.903 166.998 173.254 172.459 173.31 172.41 
173.196 172.162 172.73 171.543 171.893 170.658 170.886 169.604 169.669 
168.312 168.239 175.514 174.894 175.939 175.148 176.198 175.143 175.958 
174.577 175.038 173.54 173.797 172.378 172.469 171.042 170.908 169.463 
169.24 177.379 177.024 178.156 177.691 178.874 178.17 179.158 178 
178.552 176.97 177.171 175.496 175.536 173.928 173.786 172.193 171.887 
170.379 170.079 158.688 158.488 159.063 160.101 158.328 158.884 159.942 
160.583 161.732 158.12 158.722 159.774 160.438 161.621 162.273 163.484 
157.691 158.407 159.448 160.213 161.415 162.159 163.43 164.103 165.442 
157.164 157.894 158.941 159.779 161.022 161.893 163.244 164.036 165.458 
166.191 167.684 156.802 157.445 158.537 159.303 160.624 161.505 162.963 
163.831 165.341 166.176 167.761 168.537 170.098 156.625 157.212 158.35 
159.033 160.402 161.227 162.77 163.625 165.181 166.029 167.642 168.538 
170.184 170.968 172.485 156.56 157.109 158.241 158.896 160.215 161.039 
162.575 163.481 165.045 165.89 167.435 168.338 169.972 170.922 172.496 
173.276 174.665 156.591 157.084 158.161 158.769 159.981 160.772 162.211 
163.19 164.741 165.69 167.174 168.073 169.593 170.589 172.155 173.113 
174.516 175.288 176.492 157.851 156.695 157.375 157.636 155.604 156.254 
156.466 157.169 157.465 154.435 155.124 155.309 155.999 156.209 156.972 
157.233 153.228 153.909 154.051 154.76 154.871 155.629 155.772 156.615 
156.784 152.021 152.682 152.782 153.471 153.525 154.216 154.264 155.062 
155.186 156.067 156.242 150.773 151.418 151.519 152.223 152.326 152.94 
152.974 153.607 153.705 154.485 154.683 155.56 155.839 149.673 150.181 
150.289 150.982 151.189 151.829 151.935 152.467 152.541 153.146 153.313 
154.07 154.339 155.231 155.608 148.965 149.242 149.325 149.864 150.133 
150.765 150.965 151.495 151.565 152.08 152.196 152.823 153.058 153.816 
154.176 155.075 155.544 148.644 148.729 148.759 149.079 149.328 149.843 
150.099 150.589 150.67 151.116 151.188 151.752 151.995 152.673 153.053 
153.798 154.273 155.119 155.642 148.551 148.475 148.504 148.628 148.423 
148.459 148.605 148.744 149.124 148.355 148.415 148.585 148.739 149.102 
149.348 149.808 148.379 148.411 148.605 148.718 149.013 149.243 149.58 
149.899 150.271 148.626 148.59 148.833 148.816 149.02 149.103 149.318 
149.564 149.893 150.28 150.75 149.096 148.998 149.313 149.185 149.366 
149.219 149.379 149.394 149.793 150.045 150.692 151.011 151.691 149.741 
149.575 149.935 149.771 150.031 149.755 149.96 149.731 150.212 150.258 
151.088 151.27 152.119 152.221 152.906 150.516 150.285 150.647 150.464 
150.824 150.555 150.867 150.548 151.03 150.924 151.742 151.861 152.754 
152.831 153.544 153.517 154.139 151.336 151.083 151.438 151.234 151.646 
151.42 151.815 151.531 151.978 151.797 152.452 152.504 153.291 153.423 
154.125 154.17 154.789 154.784 155.441 151.898 152.895 152.257 152.05 
154.083 153.359 153.146 152.476 152.276 155.433 154.625 154.383 153.63 
153.395 152.712 152.477 156.962 156.067 155.819 154.944 154.689 153.895 
153.661 152.927 152.712 158.631 157.694 157.503 156.522 156.315 155.358 
155.169 154.267 154.099 153.279 153.2 160.413 159.445 159.325 158.32 
158.204 157.179 157.082 156.028 155.89 154.863 154.76 153.917 153.955 
162.361 161.349 161.305 160.25 160.192 159.151 159.114 158.068 157.976 
156.852 156.686 155.622 155.545 154.722 154.759 164.357 163.4 163.473 
162.39 162.394 161.25 161.201 160.106 160.028 158.942 158.788 157.656 
157.491 156.445 156.382 155.52 155.504 166.162 165.371 165.554 164.613 
164.711 163.575 163.526 162.296 162.173 161 160.864 159.737 159.578 
158.465 158.333 157.296 157.222 156.292 156.233 156.957 158.034 157.828 
158.539 159.226 159.002 159.796 159.539 160.373 160.53 160.311 161.244 
160.954 161.927 161.604 162.65 161.886 161.712 162.812 162.564 163.707 
163.36 164.517 164.13 165.243 163.312 163.161 164.383 164.209 165.468 
165.214 166.43 166.08 167.21 166.76 167.742 164.754 164.663 165.925 
165.795 167.067 166.915 168.174 167.943 169.142 168.759 169.843 169.276 
170.228 165.917 166.008 167.237 167.244 168.481 168.434 169.746 169.639 
170.99 170.724 171.984 171.485 172.577 171.885 172.818 166.656 166.92 
168.087 168.312 169.536 169.698 171.066 171.161 172.629 172.565 173.938 
173.623 174.767 174.218 175.136 174.426 175.166 167.159 167.47 168.6 
168.953 170.214 170.573 172.009 172.341 173.864 174.058 175.443 175.388 
176.498 176.192 177.056 176.55 177.237 176.564 177.117 151.177 150.715 
150.644 150.069 150.416 150.222 149.584 149.502 149.047 150.239 150.011 
149.441 149.209 148.812 148.732 148.635 150.084 149.874 149.412 149.209 
148.886 148.722 148.639 148.631 148.759 150.036 149.75 149.269 149.143 
148.826 148.774 148.603 148.632 148.64 148.775 148.856 150.203 149.784 
149.196 148.968 148.585 148.571 148.366 148.45 148.382 148.542 148.584 
148.763 148.797 150.494 150.027 149.406 148.995 148.542 148.36 148.166 
148.186 148.175 148.286 148.378 148.515 148.613 148.716 148.761 150.809 
150.367 149.83 149.336 148.888 148.505 148.284 148.126 148.124 148.153 
148.26 148.374 148.481 148.584 148.627 148.701 148.712 151.188 150.758 
150.339 149.853 149.488 149.015 148.79 148.441 148.375 148.216 148.255 
148.271 148.338 148.435 148.459 148.549 148.528 148.617 148.611 151.315 
150.255 150.966 151.287 149.24 149.881 150.286 150.98 151.331 148.757 
149.048 149.415 150.012 150.462 151.086 151.481 148.836 148.831 149.008 
149.301 149.707 150.27 150.758 151.346 151.835 148.964 148.96 148.994 
149.047 149.254 149.62 150.105 150.68 151.243 151.81 152.336 148.909 
148.984 149.037 149.051 149.156 149.305 149.691 150.124 150.712 151.255 
151.799 152.313 152.763 148.851 148.92 149.049 149.092 149.274 149.325 
149.673 149.889 150.433 150.822 151.376 151.81 152.266 152.704 153.109 
148.823 148.902 149.083 149.16 149.432 149.503 149.88 150 150.496 
150.712 151.248 151.523 152.006 152.315 152.76 153.115 153.558 148.751 
148.868 149.087 149.221 149.535 149.668 150.06 150.202 150.668 150.843 
151.358 151.546 152.043 152.227 152.689 152.913 153.376 153.666 154.126 
151.925 151.915 152.204 152.815 151.932 152.209 152.836 153.153 153.866 
152.07 152.275 152.929 153.212 153.961 154.298 155.109 152.43 152.529 
153.216 153.41 154.193 154.461 155.334 155.646 156.556 152.909 152.978 
153.649 153.788 154.529 154.74 155.576 155.903 156.89 157.232 158.203 
153.292 153.415 154.036 154.202 154.862 155.05 155.75 156.065 156.945 
157.443 158.417 158.834 159.617 153.594 153.718 154.306 154.501 155.146 
155.342 155.991 156.211 156.944 157.362 158.219 158.775 159.545 159.968 
160.547 153.993 154.035 154.594 154.74 155.388 155.6 156.295 156.491 
157.199 157.432 158.196 158.565 159.346 159.769 160.478 160.832 161.51 
154.521 154.495 155.016 155.072 155.679 155.849 156.543 156.778 157.503 
157.728 158.464 158.699 159.478 159.756 160.564 160.864 161.679 161.971 
162.759 157.725 157.144 157.148 156.595 156.567 156.57 156.011 156.032 
155.482 156.033 155.985 155.354 155.377 154.765 154.849 154.281 155.549 
155.432 154.698 154.667 154.016 154.091 153.54 153.646 153.119 155.123 
154.951 154.191 154.056 153.429 153.421 152.964 153.008 152.55 152.554 
152.004 154.808 154.599 153.947 153.711 153.164 153.018 152.634 152.588 
152.203 152.12 151.569 151.448 150.82 154.614 154.4 153.878 153.634 
153.169 152.935 152.529 152.374 151.969 151.843 151.317 151.127 150.503 
150.318 149.762 154.476 154.275 153.787 153.605 153.158 152.967 152.508 
152.304 151.816 151.635 151.125 150.932 150.397 150.158 149.662 149.45 
149.085 154.353 154.151 153.633 153.471 152.989 152.859 152.374 152.215 
151.694 151.499 150.988 150.794 150.333 150.128 149.722 149.494 149.172 
148.975 148.771 
POINT_DATA 1002
SCALARS Distance double
LOOKUP_TABLE default
152.463 151.588 152.151 153.08 152.876 153.56 153.909 153.828 154.284 
154.839 154.996 154.92 155.228 155.692 156.278 156.187 155.974 156.414 
156.723 157.24 157.866 157.334 157.03 157.682 157.967 158.323 158.914 
159.552 158.491 158.186 158.889 159.268 159.604 160.107 160.76 161.38 
159.641 159.326 160.021 160.457 160.912 161.468 162.135 162.767 163.347 
160.677 160.336 161.081 161.562 162.12 162.779 163.509 164.167 164.704 
165.229 161.609 161.239 162.071 162.634 163.274 163.978 164.715 165.394 
165.941 166.403 166.87 151.201 151.891 150.933 151.764 150.676 152.741 
151.568 150.404 152.661 153.739 151.3 150.289 152.424 153.564 154.757 
151.27 150.422 152.219 153.279 154.495 155.762 151.523 150.643 152.367 
153.254 154.33 155.584 156.893 151.763 150.874 152.621 153.511 154.485 
155.578 156.813 158.115 151.947 151.213 152.729 153.672 154.723 155.735 
156.804 158.036 159.271 152.24 151.661 152.906 153.801 154.886 155.912 
156.868 157.978 159.202 160.309 152.49 153.137 153.459 154.348 154.638 
153.995 155.654 155.936 155.393 155.071 156.919 157.487 156.631 156.421 
156.133 158.46 159.159 157.834 157.606 157.398 157.097 159.985 160.311 
159.368 159.015 158.846 158.534 158.194 161.11 161.116 160.846 160.624 
160.523 160.258 159.828 159.456 162.299 162.247 162.18 162.047 162.015 
161.866 161.475 161.017 160.623 163.658 163.532 163.552 163.327 163.209 
163.134 162.877 162.458 162.011 161.598 162.415 162.879 163.859 163.371 
164.42 165.526 163.84 164.959 166.135 167.272 164.184 165.413 166.677 
167.906 169.185 164.287 165.61 167.101 168.455 169.838 171.333 164.331 
165.498 167.179 168.92 170.405 171.961 173.563 164.557 165.406 166.859 
168.988 170.907 172.54 174.259 175.906 164.763 165.463 166.481 168.539 
170.951 172.989 174.889 176.743 178.318 164.666 165.378 166.175 167.928 
170.454 172.933 175.208 177.304 179.036 180.368 162.944 164.581 163.602 
166.362 165.379 164.354 168.28 167.246 166.246 165.152 170.555 169.451 
168.333 167.198 165.946 172.998 172.061 170.908 169.599 168.104 166.663 
175.407 174.619 173.631 172.378 170.681 168.835 167.264 177.912 177.128 
176.126 174.994 173.453 171.435 169.419 167.766 180.267 179.67 178.621 
177.391 175.996 174.167 171.978 169.893 168.211 182.048 182.031 183.454 
183.341 184.414 181.314 183.901 184.634 182.468 180.041 183.822 184.176 
182.97 181.138 178.548 183.48 183.55 182.949 181.68 179.453 176.77 
182.794 182.774 182.354 181.388 179.679 177.215 174.499 181.49 181.445 
181.112 180.311 179.031 177.028 174.503 172.008 179.739 179.604 179.524 
178.933 177.944 176.341 174.151 171.854 169.846 177.883 177.637 177.855 
177.496 176.738 175.43 173.587 171.589 169.78 168.219 181.142 182.556 
181.399 182.586 181.265 183.912 182.401 180.825 184.121 185.042 181.9 
179.93 183.937 185.343 185.093 180.828 178.446 183.005 184.732 184.94 
184.136 179.048 176.386 181.396 183.295 184.084 183.728 183.246 176.575 
173.988 179.094 181.277 182.777 183.205 182.901 182.332 173.875 171.684 
176.244 178.489 180.474 181.851 182.189 181.644 180.686 171.503 169.765 
173.501 175.443 177.251 178.953 180.07 180.121 179.406 178.498 163.98 
164.846 164.126 164.931 164.321 165.612 165.705 165.125 166.411 167.174 
167.257 166.401 168.118 168.958 169.735 168.697 167.496 169.894 171.006 
171.898 172.562 169.645 168.239 171.115 172.635 174.002 174.943 175.35 
170.419 168.807 172.167 174.01 175.821 177.222 177.914 177.892 171.116 
169.295 173.206 175.349 177.311 178.853 179.767 180.055 179.793 162.499 
163.019 161.372 161.928 160.268 163.33 160.733 159.224 162.322 163.645 
159.524 158.24 161.069 162.71 164.393 158.423 157.256 159.84 161.573 
163.433 165.423 157.426 156.31 158.792 160.484 162.354 164.283 166.286 
156.585 155.556 157.847 159.425 161.226 163.085 164.992 166.911 155.942 
155.004 157.041 158.395 160.039 161.857 163.72 165.568 167.394 155.422 