# vtk DataFile Version 4.0
vtk output
ASCII
DATASET POLYDATA
POINTS 1002 float
-102.722 -79.1457 75.6077 -102.687 -78.4683 74.5221 -103.03 -78.1851 75.4632 
-103.13 -79.0261 76.6843 -103.55 -78.1385 76.4244 -102.846 -79.9815 76.9023 
-103.729 -79.1355 77.713 -104.327 -78.2761 77.3262 -103.288 -80.0197 78.0764 
-103.066 -81.0334 78.367 -104.62 -79.3869 78.5745 -105.233 -78.5127 78.1702 
-104.007 -80.2583 79.064 -103.637 -81.2233 79.5034 -103.416 -82.2735 79.8865 
-105.636 -79.7982 79.3259 -106.171 -78.9879 78.8801 -105.037 -80.6686 79.8501 
-104.584 -81.6503 80.394 -104.263 -82.6894 80.9173 -103.985 -83.6609 81.392 
-106.649 -80.4458 80.0369 -107.184 -79.7004 79.4534 -106.116 -81.279 80.6452 
-105.721 -82.2913 81.209 -105.383 -83.3628 81.7951 -105.015 -84.3282 82.3923 
-104.779 -85.24 82.8738 -107.654 -81.1046 80.8009 -108.146 -80.3451 80.1572 
-107.153 -81.9592 81.5236 -106.794 -83.0123 82.141 -106.476 -84.0996 82.7043 
-106.077 -85.1003 83.3116 -105.782 -86.0658 83.8756 -105.68 -87.0587 84.2969 
-108.523 -81.611 81.7057 -108.898 -80.8238 81.1039 -108.12 -82.5302 82.4195 
-107.796 -83.6684 83.0894 -107.47 -84.7688 83.6851 -107.061 -85.7672 84.2561 
-106.76 -86.866 84.7575 -106.648 -88.0147 85.1964 -106.57 -89.0516 85.5855 
-109.22 -82.121 82.6174 -109.538 -81.2938 82.0482 -108.901 -83.0974 83.2645 
-108.652 -84.3036 83.9152 -108.361 -85.4594 84.5528 -107.972 -86.4513 85.1916 
-107.699 -87.6156 85.6726 -107.619 -88.9593 85.9762 -107.535 -90.1455 86.312 
-107.37 -91.097 86.7022 -109.879 -82.7316 83.3434 -110.191 -81.8382 82.7812 
-109.567 -83.7646 83.9752 -109.344 -84.9905 84.6261 -109.113 -86.2069 85.248 
-108.773 -87.2718 85.9094 -108.526 -88.4712 86.5113 -108.487 -89.9067 86.8361 
-108.442 -91.2262 87.0174 -108.268 -92.2603 87.309 -108.082 -93.1591 87.6741 
-102.864 -77.5551 74.0635 -103.263 -77.2674 75.0083 -103.121 -76.6336 73.5575 
-103.726 -76.4563 74.4926 -103.746 -75.9694 72.9415 -103.951 -77.2531 75.9205 
-104.558 -75.8639 73.8781 -104.696 -75.4946 72.2228 -104.566 -76.4621 75.3902 
-104.805 -77.3628 76.8653 -105.406 -75.1391 73.2285 -105.479 -74.7744 71.5131 
-105.369 -75.7087 74.8214 -105.381 -76.4921 76.409 -105.67 -77.5991 77.7994 
-105.975 -74.1316 72.6683 -106.081 -73.8906 70.8886 -106.066 -74.7428 74.2871 
-106.147 -75.6558 75.8603 -106.27 -76.7436 77.3568 -106.68 -78.166 78.471 
-106.675 -73.4116 72.1957 -106.894 -73.344 70.3428 -106.688 -73.8399 73.8803 
-106.932 -74.8118 75.3154 -107.16 -75.9938 76.7717 -107.404 -77.3195 78.024 
-107.788 -78.9071 79.0208 -107.706 -73.1562 71.7421 -107.835 -73.0861 69.8905 
-107.591 -73.3951 73.5247 -107.69 -74.1165 74.9259 -108.004 -75.269 76.2599 
-108.25 -76.5063 77.6027 -108.431 -77.9535 78.7233 -108.673 -79.524 79.836 
-108.742 -72.9309 71.3221 -108.707 -72.8113 69.5539 -108.707 -73.1648 73.1254 
-108.636 -73.6235 74.5978 -108.748 -74.5328 75.9184 -108.967 -75.7286 77.2924 
-109.064 -77.0507 78.5086 -109.153 -78.5623 79.6262 -109.347 -80.0425 80.8475 
-109.649 -72.6387 70.9661 -109.571 -72.5698 69.3094 -109.729 -72.9105 72.7176 
-109.71 -73.2923 74.2313 -109.662 -73.9422 75.5855 -109.704 -75.0264 76.986 
-109.742 -76.3615 78.2497 -109.737 -77.7725 79.3497 -109.832 -79.2163 80.5367 
-110.027 -80.5855 81.7501 -110.53 -72.4989 70.1062 -110.595 -72.6807 71.9029 
-111.417 -72.8006 71.031 -111.477 -73.1555 72.8565 -112.124 -73.4912 71.9973 
-110.696 -73.0975 73.5988 -112.289 -73.9834 73.798 -112.876 -74.3779 72.9387 
-111.621 -73.7292 74.5055 -110.718 -73.6405 75.0733 -113.186 -74.8871 74.7512 
-113.746 -75.3434 73.9125 -112.454 -74.6655 75.4886 -111.646 -74.4789 76.0392 
-110.656 -74.5528 76.5541 -114.07 -75.8602 75.7209 -114.303 -76.4491 75.0015 
-113.308 -75.6348 76.4807 -112.429 -75.6048 77.0465 -111.56 -75.6922 77.5063 
-110.601 -75.9493 77.9389 -114.53 -77.1183 76.6742 -114.325 -77.7898 76.1549 
-114.127 -76.7267 77.3805 -113.282 -76.6952 78.0248 -112.43 -76.9401 78.453 
-111.539 -77.2346 78.7768 -110.558 -77.4601 79.1036 -114.539 -78.6835 77.6516 
-114.187 -79.3126 77.2974 -114.563 -78.1615 78.2577 -114.095 -77.9173 79.0078 
-113.348 -78.0516 79.5836 -112.501 -78.4017 79.8678 -111.526 -78.6674 80.0866 
-110.565 -78.8736 80.3544 -114.514 -80.3301 78.7021 -114.209 -80.8091 78.4072 
-114.668 -79.8306 79.2539 -114.536 -79.4654 80.0547 -114.048 -79.3844 80.7887 
-113.274 -79.5771 81.182 -112.37 -79.828 81.3509 -111.47 -80.0247 81.5188 
-110.671 -80.2649 81.6861 -114.622 -81.8729 79.7526 -114.321 -82.1654 79.4534 
-114.781 -81.4816 80.3088 -114.762 -81.124 81.1385 -114.466 -80.9668 81.9169 
-113.803 -81.0382 82.3421 -112.935 -81.1963 82.5201 -112.139 -81.3246 82.652 
-111.46 -81.461 82.7576 -110.808 -81.6472 82.8027 -110.693 -83.0986 83.7323 
-111.362 -83.0243 83.7925 -111.225 -84.6391 84.8187 -111.967 -82.9541 83.8116 
-111.91 -84.6504 85.0022 -111.767 -86.3788 86.1706 -112.598 -82.9008 83.711 
-112.534 -84.6458 85.0908 -112.47 -86.4723 86.4862 -112.249 -88.4947 87.4534 
-113.442 -82.7985 83.5726 -113.241 -84.5994 84.9508 -113.168 -86.5244 86.5595 
-112.967 -88.7954 87.7341 -112.692 -91.2503 88.4159 -114.322 -82.6549 83.4431 
-114.096 -84.5007 84.8109 -113.852 -86.5679 86.3279 -113.619 -89.0591 87.6917 
-113.425 -91.7923 88.6355 -113.211 -94.3405 89.5676 -114.851 -82.6443 82.9609 
-114.803 -84.4451 84.6204 -114.483 -86.6547 86.089 -114.078 -89.3594 87.4109 
-113.931 -92.2643 88.5869 -113.91 -94.9646 89.7996 -113.704 -97.391 90.9075 
-114.984 -82.8778 82.0303 -115.086 -84.5549 83.8767 -114.909 -86.7336 85.6003 
-114.482 -89.5714 87.069 -114.217 -92.6738 88.3752 -114.277 -95.5065 89.7295 
-114.277 -98.0812 90.9139 -114.084 -100.558 91.4769 -114.875 -83.2205 81.1638 
-115.001 -84.8066 82.8014 -114.971 -86.7695 84.5879 -114.785 -89.4465 86.3617 
-114.546 -92.7404 87.9834 -114.483 -95.9208 89.4628 -114.57 -98.6876 90.6351 
-114.589 -101.305 91.1557 -114.582 -103.782 91.0725 -114.592 -83.4612 80.6638 
-114.717 -85.0206 82.0287 -114.734 -86.8009 83.5922 -114.776 -89.088 85.3592 
-114.784 -92.278 87.2091 -114.697 -95.9109 88.9354 -114.718 -99.1182 90.2323 
-114.911 -101.829 90.7966 -115.127 -104.333 90.7227 -115.325 -106.555 90.4566 
-110.362 -84.2152 84.4062 -110.938 -85.9661 85.6536 -110.087 -85.4985 85.1675 
-111.526 -87.9625 86.9858 -110.735 -87.4256 86.4734 -109.888 -86.8512 85.8663 
-112.007 -90.5512 88.0734 -111.374 -89.7481 87.6636 -110.548 -88.962 87.094 
-109.601 -88.1432 86.4789 -112.46 -93.7311 89.2299 -111.867 -92.8254 88.7931 
-111.229 -91.7638 88.2169 -110.289 -90.6816 87.6163 -109.326 -89.5623 87.1243 
-112.978 -96.9929 90.7161 -112.316 -96.2837 90.2383 -111.799 -95.2282 89.5123 
-111.083 -93.936 88.7409 -110.139 -92.5652 88.1978 -109.27 -91.1865 87.643 
-113.502 -100.319 91.58 -112.876 -99.7676 91.3844 -112.351 -98.841 90.8139 
-111.793 -97.4828 89.9869 -110.981 -95.8494 89.2771 -110.061 -94.1991 88.6843 
-109.236 -92.6415 87.896 -114.14 -103.785 91.2693 -113.632 -103.379 91.3891 
-113.078 -102.539 91.2915 -112.481 -101.202 90.8775 -111.744 -99.3795 90.2988 
-110.811 -97.3699 89.7188 -109.875 -95.4747 88.986 -109.054 -93.7758 88.1033 
-114.994 -106.886 90.5801 -114.591 -106.756 90.7634 -114.023 -106.124 90.9332 
-113.279 -104.976 90.9734 -112.486 -103.262 90.8151 -111.613 -101.102 90.498 
-110.632 -98.8185 89.9769 -109.697 -96.6876 89.2175 -108.869 -94.8053 88.4041 
-116.005 -109.188 90.1663 -115.691 -109.527 90.3235 -116.509 -111.524 90.1531 
-116.106 -111.697 90.2801 -116.58 -113.63 89.757 -115.179 -109.304 90.4653 
-116.01 -113.455 89.7005 -116.435 -115.508 88.544 -115.357 -111.284 90.1915 
-114.317 -108.512 90.5743 -115.709 -114.78 88.5494 -116.17 -116.676 87.3009 
-115.177 -112.636 89.4351 -114.289 -110.28 90.0797 -113.308 -107.115 90.6542 
-115.288 -115.272 87.7082 -115.522 -116.578 86.6877 -114.982 -113.341 88.5465 
-114.231 -111.225 89.3131 -113.259 -108.659 90.1478 -112.395 -105.095 90.6642 
-114.58 -114.718 87.2835 -114.671 -115.344 86.361 -114.537 -113.354 88.014 
-114.088 -111.453 88.6545 -113.206 -109.27 89.511 -112.314 -106.411 90.3112 
-111.443 -102.592 90.4826 -113.781 -113.506 86.9465 -113.985 -113.674 86.154 
-113.672 -112.739 87.6462 -113.466 -111.198 88.2142 -112.86 -109.097 88.9558 
-112.095 -106.739 89.8281 -111.299 -103.644 90.2659 -110.416 -99.9355 89.9775 
-113.042 -112.037 86.8319 -113.356 -111.955 86.2579 -112.719 -111.624 87.4292 
-112.562 -110.461 87.9283 -112.266 -108.489 88.5212 -111.693 -106.268 89.3107 
-111.039 -103.84 89.8868 -110.259 -100.743 89.8423 -109.442 -97.4588 89.2418 
-112.26 -110.244 86.9616 -112.585 -110.007 86.5824 -111.851 -110.024 87.4306 
-111.707 -109.148 87.8469 -111.679 -107.483 88.2644 -111.323 -105.433 88.8418 
-110.7 -103.386 89.3902 -110.007 -100.969 89.5188 -109.229 -98.0526 89.1437 
-108.529 -95.2943 88.4564 -116.031 -107.534 90.1582 -116.692 -110.11 89.9147 
-116.659 -108.043 89.8613 -117.188 -110.607 89.3368 -117.026 -108.073 89.3073 
-116.954 -112.647 89.596 -117.391 -110.635 88.4288 -117.009 -107.688 88.5736 
-117.288 -113.441 88.4337 -116.987 -115.136 88.5432 -117.181 -110.111 87.8036 
-116.514 -106.907 88.1017 -117.433 -113.366 87.4025 -117.524 -115.905 87.0833 
-117.105 -117.022 87.0346 -116.524 -109.038 87.7171 -115.618 -105.471 87.921 
-117.094 -112.276 87.2087 -117.67 -115.055 86.4613 -117.769 -117.039 85.9236 
-116.783 -117.579 86.0631 -115.652 -107.131 87.666 -114.665 -103.093 87.6114 
-116.363 -110.653 87.3458 -116.999 -113.224 86.6094 -117.542 -115.264 85.7033 
-117.057 -116.686 85.305 -115.743 -116.639 85.67 -114.734 -104.101 87.3761 
-113.847 -100.156 87.0123 -115.537 -108.218 87.307 -116.035 -111.302 86.7986 
-116.508 -113.138 85.929 -116.519 -114.485 85.1585 -115.672 -115.199 85.0117 
-114.693 -114.778 85.47 -113.736 -100.586 86.886 -113.106 -97.479 86.2036 
-114.513 -104.55 87.1813 -115.057 -108.418 87.0228 -115.443 -110.97 86.4236 
-115.656 -112.211 85.6034 -115.254 -112.896 85.0457 -114.507 -113.125 85.0775 
-113.93 -112.751 85.5852 -112.799 -97.6046 86.0867 -112.46 -95.4506 85.2085 
-113.347 -100.576 86.759 -113.883 -104.201 87.0886 -114.357 -107.506 86.9889 
[...]
CELL_DATA 2000
SCALARS Distance double
LOOKUP_TABLE default
148.677 149.39 149.239 149.754 150.349 150.096 150.645 150.455 151.079 
151.489 151.175 151.743 151.465 152.117 151.921 152.659 152.731 152.392 
153.008 152.673 153.372 153.093 153.898 153.659 154.495 154.066 153.706 
154.391 154.031 154.807 154.483 155.369 155.062 155.978 155.65 156.559 
155.443 155.097 155.833 155.487 156.328 156.008 156.938 156.624 157.564 
157.225 158.157 157.819 158.787 156.751 156.462 157.22 156.938 157.809 
157.545 158.482 158.195 159.107 158.791 159.704 159.408 160.385 160.102 
161.113 157.96 157.723 158.486 158.272 159.149 158.968 159.904 159.681 
160.576 160.289 161.192 160.923 161.918 161.676 162.71 162.43 163.412 
159.097 158.895 159.658 159.486 160.358 160.235 161.17 161.019 161.916 
161.696 162.61 162.392 163.413 163.208 164.259 164.003 164.98 164.668 
165.579 148.173 147.612 148.178 148.833 147.239 147.694 148.387 148.961 
149.771 147.184 147.496 148.178 148.615 149.419 150.001 150.893 147.127 
147.48 148.103 148.489 149.21 149.703 150.559 151.167 152.102 146.844 
147.273 147.861 148.337 149.035 149.522 150.333 150.877 151.811 152.428 
153.416 146.728 147.013 147.637 148.056 148.833 149.336 150.217 150.726 
151.664 152.204 153.204 153.799 154.795 146.993 147.135 147.825 148.042 
148.849 149.221 150.164 150.657 151.632 152.129 153.083 153.617 154.591 
155.174 156.11 147.368 147.528 148.271 148.424 149.19 149.397 150.255 
150.65 151.612 152.101 153.023 153.508 154.404 154.953 155.878 156.453 
157.331 147.735 147.907 148.675 148.878 149.641 149.799 150.559 150.807 
151.687 152.097 153.023 153.46 154.326 154.785 155.67 156.214 157.12 
157.661 158.492 148.217 149.365 148.895 149.179 150.658 150.138 150.418 
149.93 150.189 152.053 151.501 151.818 151.255 151.508 150.929 151.141 
153.57 152.976 153.329 152.723 153.01 152.358 152.593 151.954 152.252 
155.11 154.545 154.899 154.277 154.583 153.923 154.206 153.528 153.832 
153.194 153.555 156.477 156.031 156.418 155.851 156.172 155.527 155.853 
155.192 155.532 154.849 155.168 154.511 154.845 157.706 157.327 157.786 
157.323 157.731 157.146 157.54 156.891 157.291 156.593 156.937 156.195 
156.502 155.81 156.175 158.983 158.585 159.105 158.685 159.208 158.717 
159.214 158.621 159.063 158.381 158.74 157.994 158.301 157.551 157.89 
157.206 157.607 160.302 159.916 160.476 160.063 160.656 160.221 160.805 
160.289 160.761 160.126 160.458 159.754 160.03 159.322 159.624 158.941 
159.281 158.63 158.973 159.894 160.268 160.538 161.493 160.625 160.93 
161.962 162.255 163.336 161 161.294 162.367 162.731 163.911 164.224 
165.394 161.441 161.707 162.769 163.136 164.377 164.789 166.065 166.357 
167.584 161.817 162.165 163.236 163.574 164.784 165.221 166.551 166.984 
168.328 168.636 170.001 161.894 162.435 163.555 164.008 165.177 165.616 
166.898 167.398 168.808 169.306 170.794 171.18 172.656 161.7 162.354 
163.467 164.127 165.283 165.881 167.112 167.691 169.085 169.702 171.25 
171.843 173.383 173.809 175.174 161.452 162.084 163.112 163.842 164.933 
165.715 166.914 167.714 169.098 169.89 171.443 172.186 173.754 174.357 
175.75 176.141 177.312 161.211 161.801 162.735 163.415 164.402 165.19 
166.312 167.254 168.627 169.671 171.253 172.234 173.827 174.605 176.03 
176.572 177.779 178.129 179.181 159.96 161.576 160.687 160.588 163.457 
162.459 162.412 161.429 161.373 165.53 164.48 164.485 163.415 163.372 
162.312 162.233 167.741 166.65 166.714 165.599 165.577 164.421 164.297 
163.168 163.003 170.242 169.034 169.202 167.973 168.045 166.764 166.684 
165.373 165.217 163.974 163.802 172.984 171.75 172.029 170.689 170.868 
169.453 169.476 167.988 167.892 166.432 166.305 164.917 164.745 175.541 
174.504 174.854 173.612 173.839 172.436 172.503 170.958 170.856 169.278 
169.096 167.583 167.348 165.899 165.617 177.71 176.905 177.332 176.316 
176.599 175.364 175.465 174.007 173.89 172.284 172.006 170.396 170.038 
168.503 168.107 166.67 166.288 179.626 178.972 179.501 178.666 179.04 
177.989 178.154 176.865 176.798 175.281 175.013 173.344 172.945 171.25 
170.796 169.188 168.746 167.283 166.884 180.837 182.652 181.48 180.799 
184.115 183.195 182.522 181.298 180.374 184.895 184.329 183.668 182.782 
181.817 180.633 179.463 185.074 184.757 184.048 183.527 182.586 181.763 
180.577 179.461 178.085 184.697 184.655 183.915 183.626 182.714 182.196 
181.109 180.314 178.984 177.87 176.315 183.632 183.956 183.292 183.292 
182.409 182.119 181.079 180.587 179.386 178.579 177.059 175.908 174.208 
182.153 182.672 182.128 182.423 181.616 181.601 180.537 180.304 179.133 
178.707 177.319 176.478 174.761 173.641 171.926 180.686 181.204 180.72 
181.126 180.404 180.599 179.582 179.535 178.352 178.183 176.913 176.474 
174.917 174.045 172.288 171.288 169.717 179.197 179.748 179.227 179.681 
178.976 179.294 178.372 178.465 177.346 177.28 176.083 175.885 174.528 
173.998 172.372 171.533 169.891 169.073 167.705 181.115 181.88 182.018 
182.913 182.169 182.601 183.541 183.714 184.375 181.865 182.607 183.598 
184.098 184.849 184.95 185.259 181.08 182.061 183.102 183.899 184.788 
185.237 185.718 185.637 185.592 179.871 181.106 182.161 183.177 184.076 
184.891 185.491 185.87 185.906 185.71 185.233 178.074 179.66 180.757 
182.023 182.795 183.831 184.304 185.149 185.181 185.56 185.014 184.884 
184.023 175.675 177.527 178.672 180.317 181.096 182.308 182.622 183.582 
183.515 184.269 183.756 184.122 183.255 183.285 182.376 173.056 174.871 
175.892 177.841 178.706 180.318 180.711 181.804 181.721 182.472 182.02 
182.55 181.833 182.172 181.388 181.561 180.821 170.661 172.189 172.923 
174.809 175.575 177.522 178.043 179.621 179.695 180.702 180.335 180.901 
180.267 180.669 180.002 180.382 179.756 180.021 179.335 161.332 161.961 
162.052 162.865 162.73 162.773 163.68 163.679 164.537 163.814 163.745 
164.768 164.659 165.62 165.499 166.485 165.097 165.014 166.169 165.991 
167.11 166.848 168.002 167.76 168.96 166.337 166.342 167.636 167.545 
168.874 168.616 169.978 169.623 171.025 170.602 171.852 167.48 167.571 
168.98 169.04 170.582 170.506 172.093 171.82 173.37 172.927 174.283 
173.629 174.625 168.483 168.685 170.167 170.373 172.056 172.206 173.954 
173.918 175.545 175.27 176.632 176.088 177.065 176.256 176.883 169.266 
169.611 171.167 171.522 173.297 173.626 175.449 175.628 177.257 177.21 
178.528 178.225 179.181 178.565 179.159 178.286 178.639 169.869 170.329 
171.986 172.48 174.351 174.814 176.685 176.991 178.592 178.678 179.933 
179.828 180.781 180.437 181.083 180.421 180.785 179.877 180.067 160.5 
159.409 160.314 161.054 158.311 159.206 159.925 160.868 161.731 157.187 
158.111 158.852 159.771 160.633 161.65 162.718 156.025 156.957 157.727 
158.698 159.563 160.58 161.618 162.739 163.918 155.02 155.823 156.53 
157.502 158.336 159.426 160.403 161.579 162.7 163.918 165.091 154.188 
154.88 155.451 156.299 157.028 158.093 159.014 160.234 161.306 162.597 
163.762 165.038 166.194 153.305 153.994 154.459 155.224 155.84 156.796 
157.666 158.819 159.869 161.136 162.284 163.619 164.789 166.087 167.172 
152.447 153.073 153.52 154.216 154.784 155.643 156.466 157.533 158.549 
159.732 160.804 162.089 163.199 164.565 165.638 166.947 167.913 151.822 
152.323 152.801 153.371 153.931 154.648 155.406 156.365 157.312 158.428 
159.402 160.594 161.575 162.895 163.915 165.293 166.259 167.57 168.462 
151.707 151.907 152.1 152.692 152.123 152.332 152.984 153.152 153.821 
152.427 152.581 153.289 153.483 154.244 154.413 155.282 152.912 152.978 
153.701 153.858 154.721 154.912 155.884 156.083 157.154 153.463 153.541 
154.321 154.416 155.356 155.504 156.551 156.739 157.848 158.064 159.194 
154.008 154.133 155.039 155.151 156.17 156.281 157.383 157.505 158.642 
158.797 159.968 160.15 161.337 154.615 154.744 155.731 155.902 156.989 
157.146 158.304 158.43 159.642 159.732 160.983 161.063 162.338 162.43 
163.688 155.263 155.391 156.388 156.599 157.733 157.952 159.173 159.367 
160.676 160.824 162.175 162.243 163.569 163.584 164.857 164.869 166.063 
155.922 156.043 157.053 157.269 158.456 158.709 160.003 160.248 161.613 
161.846 163.236 163.416 164.744 164.829 166.064 166.078 167.245 167.217 
168.306 156.636 158.409 157.585 157.88 160.615 159.633 159.97 159.04 
159.399 163 162.01 162.433 161.374 161.765 160.72 161.071 165.551 
164.535 165.093 163.981 164.429 163.272 163.628 162.472 162.77 168.455 
167.355 168.1 166.854 167.391 166.078 166.428 165.135 165.392 164.183 
164.416 171.507 170.475 171.416 170.142 170.855 169.35 169.763 168.155 
168.362 166.892 167.068 165.801 165.949 174.281 173.465 174.46 173.443 
174.315 173.001 173.627 171.894 172.169 170.245 170.352 168.645 168.738 
167.309 167.34 176.577 175.987 176.869 176.156 176.983 176.159 176.941 
175.722 176.199 174.378 174.484 172.382 172.337 170.403 170.324 168.692 
168.582 178.322 177.96 178.706 178.204 178.874 178.365 179.092 178.491 
179.1 178.026 178.253 176.531 176.395 174.304 174.002 171.959 171.642 
169.899 169.65 156.263 156.216 156.776 157.973 156.09 156.746 158.022 
158.688 160.106 155.755 156.542 157.851 158.673 160.126 160.891 162.39 
155.265 156.112 157.417 158.368 159.859 160.794 162.35 163.18 164.806 
154.828 155.632 156.975 157.912 159.492 160.488 162.164 163.09 164.817 
165.701 167.547 154.572 155.301 156.694 157.565 159.231 160.222 162.038 
162.984 164.791 165.697 167.574 168.54 170.48 154.438 155.128 156.492 
157.33 158.963 159.994 161.871 162.924 164.785 165.705 167.512 168.476 
170.378 171.418 173.259 154.317 154.997 156.297 157.103 158.626 159.649 
161.469 162.66 164.574 165.645 167.409 168.356 170.115 171.174 172.999 
174.046 175.657 154.201 154.853 156.122 156.888 158.341 159.273 160.981 
162.154 164.054 165.284 167.097 168.151 169.813 170.831 172.52 173.631 
175.254 176.233 177.517 155.359 154.125 154.882 155.226 152.902 153.614 
153.814 154.67 155.003 151.598 152.293 152.351 153.161 153.35 154.337 
154.637 150.293 150.934 150.879 151.602 151.667 152.607 152.839 153.883 
154.154 148.966 149.617 149.532 150.152 150.121 150.913 151.065 152.052 
152.294 153.353 153.66 147.543 148.233 148.197 148.845 148.799 149.453 
149.496 150.315 150.489 151.481 151.776 152.897 153.336 146.36 146.874 
146.903 147.537 147.566 148.18 148.17 148.832 148.921 149.759 150.037 
151.062 151.519 152.672 153.218 145.78 145.975 146.025 146.439 146.545 
147.038 147.057 147.576 147.63 148.313 148.588 149.475 149.942 150.961 
151.505 152.609 153.15 145.633 145.64 145.635 145.826 145.934 146.239 
146.296 146.621 146.654 147.144 147.388 148.149 148.613 149.518 150.033 
151 151.511 152.557 153.072 145.538 145.273 145.425 145.515 145.086 
145.203 145.384 145.544 145.773 145.117 145.132 145.306 145.441 145.662 
145.833 146.051 145.173 145.18 145.235 145.347 145.487 145.666 145.834 
146.047 146.325 145.198 145.173 145.145 145.201 145.271 145.445 145.642 
145.851 146.211 146.471 147.045 145.535 145.328 145.356 145.198 145.314 
145.331 145.646 145.784 146.286 146.504 147.202 147.482 148.288 146.268 
145.931 146.066 145.697 145.909 145.683 146.122 146.068 146.681 146.761 
147.51 147.732 148.575 148.85 149.689 147.113 146.796 147 146.606 
146.862 146.534 146.998 146.812 147.448 147.371 148.111 148.17 149.006 
149.189 150.058 150.283 151.137 147.927 147.652 147.908 147.574 147.859 
147.542 147.97 147.755 148.34 148.22 148.927 148.896 149.722 149.774 
150.669 150.771 151.67 151.812 152.701 148.497 149.525 148.829 148.516 
150.849 149.995 149.663 148.879 148.558 152.431 151.463 151.143 150.198 
149.856 148.999 148.729 154.219 153.154 152.853 151.809 151.453 150.445 
150.134 149.274 149.101 156.263 155.078 154.821 153.66 153.369 152.206 
151.909 150.846 150.683 149.798 149.744 158.553 157.289 157.122 155.839 
155.676 154.366 154.176 152.882 152.765 151.629 151.632 150.633 150.642 
160.937 159.693 159.604 158.297 158.217 156.878 156.78 155.387 155.278 
153.949 153.926 152.745 152.751 151.647 151.623 163.266 162.109 162.079 
160.819 160.769 159.474 159.421 158.066 157.952 156.557 156.442 155.14 
155.078 153.87 153.796 152.652 152.597 165.497 164.441 164.519 163.314 
163.331 162.046 162.041 160.711 160.644 159.24 159.1 157.697 157.572 
156.255 156.153 154.901 154.798 153.638 153.6 154.544 155.821 155.605 
156.532 157.275 157.046 158.099 157.802 158.845 158.809 158.614 159.837 
159.551 160.758 160.35 161.553 160.422 160.256 161.624 161.4 162.778 
162.422 163.77 163.309 164.638 162.032 161.949 163.443 163.284 164.801 
164.519 166.002 165.609 167.017 166.506 167.736 163.5 163.558 165.205 
165.173 166.847 166.635 168.244 167.894 169.397 168.914 170.197 169.53 
170.553 164.816 164.991 166.76 166.918 168.737 168.7 170.394 170.151 
171.696 171.293 172.632 172.019 173.112 172.312 173.263 165.952 166.232 
168.01 168.364 170.228 170.445 172.131 172.118 173.594 173.416 174.717 
174.336 175.432 174.821 175.773 175.015 175.895 166.831 167.208 168.898 
169.42 171.251 171.705 173.355 173.565 174.935 174.978 176.192 176.11 
177.17 176.874 177.758 177.269 178.034 177.419 178.061 147.147 146.77 
146.722 146.367 146.444 146.382 146.049 146.082 145.919 146.252 146.11 
145.812 145.814 145.671 145.743 145.647 146.372 146.064 145.732 145.622 
145.452 145.499 145.387 145.462 145.349 146.56 146.234 145.762 145.567 
145.288 145.283 145.159 145.215 145.119 145.177 145.141 146.551 146.281 
145.69 145.498 145.108 145.093 144.973 145.045 145.026 145.044 145.056 
145.096 145.217 146.657 146.28 145.743 145.423 145.046 144.923 144.85 
144.915 144.99 145.029 145.06 145.069 145.156 145.264 145.459 147.122 
146.622 146.224 145.722 145.414 145.057 144.99 144.905 145.025 145.045 
145.088 145.064 145.045 145.129 145.235 145.458 145.62 147.725 147.24 
146.903 146.388 146.069 145.597 145.399 145.148 145.154 145.116 145.16 
145.112 145.062 145.019 145.027 145.159 145.288 145.526 145.624 147.289 
146.528 147.025 147.437 146.044 146.368 146.694 147.266 147.777 145.742 
145.962 146.17 146.578 147.017 147.644 148.207 145.48 145.688 145.9 
146.161 146.553 147.001 147.628 148.205 148.868 145.289 145.455 145.738 
145.975 146.395 146.712 147.337 147.805 148.569 149.054 149.701 145.332 
145.358 145.577 145.791 146.166 146.533 147.056 147.543 148.202 148.761 
149.383 149.838 150.244 145.59 145.51 145.585 145.625 145.825 146.152 
146.561 147.098 147.635 148.253 148.789 149.36 149.736 150.165 150.392 
145.796 145.765 145.792 145.693 145.768 145.86 146.237 146.612 147.217 
147.704 148.289 148.757 149.194 149.602 149.899 150.261 150.536 145.784 
145.861 145.923 145.884 145.98 145.963 146.375 146.557 147.29 147.576 
148.293 148.52 149.023 149.23 149.599 149.861 150.217 150.532 150.928 
147.935 148.096 148.33 149.082 148.455 148.603 149.3 149.546 150.348 
148.849 148.965 149.625 149.812 150.544 150.834 151.696 149.373 149.354 
149.959 150.114 150.846 151.088 151.936 152.254 153.204 150.068 149.927 
150.403 150.455 151.177 151.412 152.289 152.571 153.494 153.81 154.74 
150.585 150.545 150.921 150.92 151.518 151.723 152.553 152.883 153.75 
154.079 154.915 155.259 156.075 150.784 150.897 151.324 151.387 151.915 
152.047 152.743 153.043 153.845 154.222 155.016 155.379 156.164 156.515 
157.296 150.963 151.08 151.63 151.761 152.378 152.469 153.113 153.255 
153.992 154.282 155.11 155.467 156.306 156.639 157.467 157.773 158.58 
151.349 151.38 151.976 152.11 152.812 152.949 153.636 153.709 154.402 
154.543 155.363 155.641 156.532 156.841 157.695 157.988 158.807 159.093 
159.882 155.17 154.509 154.537 153.969 153.81 153.832 153.23 153.339 
152.783 153.199 153.13 152.433 152.512 151.939 152.101 151.526 152.763 
152.623 151.896 151.775 151.105 151.189 150.652 150.826 150.257 152.305 
152.234 151.603 151.405 150.713 150.533 149.946 149.979 149.476 149.58 
148.964 151.796 151.74 151.195 151.131 150.602 150.383 149.836 149.579 
149.052 148.915 148.319 148.265 147.578 151.461 151.288 150.734 150.697 
150.324 150.294 149.929 149.691 149.155 148.773 148.106 147.79 147.118 
146.96 146.412 151.286 151.049 150.476 150.334 149.954 149.98 149.696 
149.675 149.165 148.883 148.109 147.713 146.989 146.71 146.241 146.101 
145.854 151.149 150.921 150.385 150.177 149.747 149.666 149.311 149.314 
148.8 148.671 147.88 147.598 146.827 146.613 146.177 146.085 145.926 
145.835 145.754 
POINT_DATA 1002
SCALARS Distance double
LOOKUP_TABLE default
149.108 148.183 148.743 149.869 149.562 150.289 150.86 150.627 151.209 
151.743 152.041 151.803 152.33 152.814 153.421 153.335 153.057 153.649 
154.138 154.744 155.323 154.729 154.414 155.111 155.665 156.307 156.886 
157.47 156.15 155.768 156.624 157.251 157.903 158.485 159.101 159.791 
157.472 157.016 158.042 158.763 159.433 159.989 160.64 161.416 162.133 
158.683 158.183 159.305 160.103 160.848 161.449 162.143 162.975 163.742 
164.361 159.823 159.288 160.472 161.3 162.109 162.794 163.589 164.509 
165.295 165.904 166.473 147.598 148.197 147.045 147.842 146.835 149.126 
147.814 146.908 148.881 150.253 147.724 146.754 148.776 149.979 151.448 
147.347 146.439 148.516 149.817 151.207 152.78 147.26 146.492 148.308 
149.678 151.159 152.628 154.206 147.659 146.833 148.561 149.68 151.138 
152.602 154.021 155.549 148.099 147.177 149.059 149.954 151.135 152.567 
153.905 155.291 156.797 148.451 147.58 149.48 150.388 151.337 152.593 
153.911 155.164 156.558 158.006 148.626 149.612 149.861 150.944 151.172 
150.703 152.39 152.601 152.122 151.701 153.942 154.171 153.659 153.253 
152.829 155.526 155.636 155.233 154.861 154.506 154.163 156.935 156.864 
156.797 156.489 156.211 155.882 155.463 158.186 158.072 158.243 158.157 
157.976 157.689 157.242 156.805 159.501 159.379 159.633 159.755 159.735 
159.481 159.055 158.608 158.258 160.87 160.658 161.06 161.28 161.384 
161.168 160.73 160.308 159.96 159.627 160.77 161.221 162.49 161.611 
163.058 164.465 161.967 163.527 165.153 166.569 162.429 163.916 165.692 
167.356 168.834 162.903 164.382 166.059 167.911 169.727 171.451 163.022 
164.745 166.412 168.233 170.292 172.372 174.151 162.765 164.619 166.494 
168.441 170.594 172.874 174.911 176.469 162.431 164.147 166.04 168.218 
170.647 173.1 175.296 177.053 178.427 162.107 163.673 165.391 167.513 
170.161 172.965 175.427 177.375 178.917 180.208 161.47 163.42 162.349 
165.56 164.479 163.291 167.826 166.762 165.495 164.107 170.45 169.339 
168.041 166.522 165.025 173.359 172.287 170.988 169.407 167.754 166.142 
176.013 175.198 174.041 172.489 170.681 168.858 167.05 178.247 177.75 
176.862 175.501 173.691 171.654 169.606 167.668 180.254 180.014 179.368 
178.244 176.661 174.696 172.495 170.294 168.28 182.056 182.137 183.769 
183.682 184.901 181.751 184.409 185.385 182.918 180.789 184.483 185.361 
183.259 181.587 179.363 184.126 184.609 183.14 181.748 180.001 177.599 
183.139 183.152 182.615 181.476 180.019 178.148 175.442 181.728 181.584 
181.519 180.718 179.424 177.963 175.855 172.996 180.302 180.174 180.134 
179.564 178.471 177.171 175.613 173.292 170.581 178.773 178.648 178.611 
178.19 177.369 176.206 174.88 173.097 170.732 168.364 181.086 182.919 
181.641 183.25 181.622 184.459 182.958 181.025 184.596 185.5 182.209 
180.016 184.153 185.627 186.037 181.103 178.504 183.18 184.902 185.951 
185.735 179.383 176.347 181.795 183.417 184.599 184.997 184.312 176.864 
173.824 179.784 181.719 182.734 183.216 183.059 182.395 173.936 171.413 
176.889 179.46 180.963 181.471 181.378 181.064 180.708 171.224 169.348 
173.615 176.234 178.45 179.681 179.861 179.57 179.379 179.185 161.235 
162.819 161.832 163.674 162.688 164.551 164.878 163.88 165.756 166.559 
166.29 165.125 167.345 168.237 169.216 167.617 166.273 169.009 170.278 
171.431 172.444 168.828 167.346 170.505 172.247 173.772 174.928 175.495 
169.887 168.222 171.796 173.881 175.751 177.125 177.854 177.857 170.73 
168.85 172.893 175.213 177.265 178.763 179.702 179.993 179.636 159.611 
160.099 158.52 159.002 157.415 160.678 157.921 156.229 159.637 161.59 
156.725 155.125 158.54 160.516 162.753 155.624 154.317 157.247 159.226 
161.472 163.88 154.703 153.548 156.03 157.81 160.01 162.444 164.966 
153.735 152.636 154.944 156.552 158.641 160.961 163.452 165.953 152.854 
151.855 153.976 155.438 157.411 159.598 161.858 164.293 166.671 152.265 