# vtk DataFile Version 4.0
vtk output
ASCII
DATASET POLYDATA
POINTS 1002 float
-106.961 -88.7551 75.9677 -106.985 -88.1051 74.7211 -107.506 -88.0696 75.5671 
-107.476 -88.7239 76.9396 -108.05 -88.0727 76.5855 -107.071 -89.6163 77.3078 
-108.041 -88.7849 78.0155 -108.607 -88.0797 77.7157 -107.659 -89.6918 78.2981 
-107.46 -90.7773 78.536 -108.67 -88.9582 79.2079 -109.217 -88.1621 78.9037 
-108.295 -89.9769 79.4007 -108.135 -91.1021 79.5367 -108.018 -92.1838 79.7189 
-109.351 -89.3032 80.4614 -109.877 -88.4797 80.071 -108.982 -90.425 80.6661 
-108.731 -91.6433 80.7737 -108.546 -92.7701 80.9636 -108.387 -93.8497 81.2654 
-110.057 -89.874 81.5287 -110.582 -88.9868 81.1283 -109.686 -90.9743 81.8425 
-109.359 -92.1837 82.0793 -108.998 -93.3839 82.3885 -108.72 -94.5663 82.773 
-108.627 -95.7652 83.1078 -110.817 -90.5244 82.4089 -111.273 -89.489 82.1357 
-110.415 -91.6541 82.72 -110.07 -92.761 83.0914 -109.662 -93.9005 83.5776 
-109.289 -95.1639 84.0774 -109.15 -96.4913 84.3923 -109.204 -97.7489 84.545 
-111.528 -91.1469 83.3298 -111.843 -90.0458 83.0995 -111.174 -92.3633 83.6231 
-110.822 -93.5023 84.016 -110.452 -94.5931 84.5092 -110.092 -95.8097 85.045 
-109.937 -97.1785 85.3533 -109.993 -98.5469 85.4125 -110.091 -99.7869 85.4508 
-112.104 -91.8392 84.2134 -112.352 -90.78 83.8905 -111.825 -93.0184 84.6408 
-111.508 -94.1925 85.1486 -111.18 -95.3804 85.5655 -110.839 -96.6511 85.9421 
-110.645 -98.0181 86.2293 -110.695 -99.4326 86.2777 -110.815 -100.784 86.253 
-110.882 -101.983 86.3185 -112.666 -92.5726 84.9233 -112.948 -91.5672 84.5018 
-112.365 -93.6434 85.4771 -112.059 -94.7289 86.1284 -111.801 -95.9478 86.5722 
-111.537 -97.3706 86.7805 -111.296 -98.8765 86.9937 -111.259 -100.373 87.1519 
-111.385 -101.821 87.1692 -111.479 -103.128 87.1864 -111.513 -104.226 87.2477 
-107.362 -87.421 74.0619 -107.95 -87.4037 74.9652 -107.762 -86.5852 73.519 
-108.331 -86.4826 74.5571 -108.215 -85.6609 73.125 -108.518 -87.387 76.0904 
-108.721 -85.4218 74.2888 -108.869 -84.8912 72.677 -108.912 -86.443 75.7519 
-109.135 -87.3867 77.2586 -109.37 -84.6227 73.8825 -109.709 -84.3013 72.0729 
-109.396 -85.4581 75.4455 -109.72 -86.6117 76.8283 -109.855 -87.5339 78.404 
-110.271 -84.1268 73.3252 -110.539 -83.7296 71.5922 -110.165 -84.7514 75.0085 
-110.43 -85.8334 76.4397 -110.629 -86.9349 77.9122 -110.585 -87.8769 79.5865 
-111.192 -83.6426 72.8872 -111.281 -83.1485 71.4213 -111.099 -84.2343 74.4842 
-111.208 -85.11 76.0885 -111.371 -86.1936 77.6041 -111.351 -87.2413 79.1707 
-111.255 -88.2659 80.7955 -112.046 -83.0593 72.6783 -112.007 -82.5791 71.4208 
-112.051 -83.7309 73.9757 -112.028 -84.5425 75.6245 -112.036 -85.4404 77.3847 
-112.041 -86.4799 78.895 -111.945 -87.5661 80.4215 -111.829 -88.6931 81.9483 
-112.881 -82.4839 72.6581 -112.788 -82.0865 71.4676 -112.974 -83.2291 73.6321 
-112.933 -84.1735 75.0265 -112.81 -84.9873 76.9756 -112.789 -85.8303 78.6588 
-112.744 -86.9256 79.9952 -112.521 -88.0881 81.5044 -112.331 -89.334 82.914 
-113.719 -82.0709 72.7307 -113.617 -81.7977 71.5241 -113.829 -82.782 73.5546 
-113.817 -83.8364 74.5906 -113.67 -84.7229 76.4235 -113.614 -85.3891 78.3733 
-113.646 -86.3376 79.7044 -113.452 -87.5746 80.948 -113.086 -88.8284 82.4124 
-112.897 -90.1553 83.6424 -114.535 -81.797 72.3696 -114.621 -82.2615 73.4137 
-115.398 -82.0478 72.9843 -115.383 -82.8131 74.0684 -116.069 -82.713 73.5242 
-114.632 -83.2669 74.2787 -116.053 -83.63 74.9999 -116.677 -83.7589 74.3947 
-115.318 -83.8493 75.3933 -114.514 -84.3104 75.8031 -116.764 -84.571 76.2041 
-117.288 -84.8337 75.5154 -116.03 -84.4729 76.7898 -115.192 -84.5975 77.3998 
-114.404 -84.9753 77.9677 -117.276 -85.6257 77.3272 -117.706 -85.8997 76.5052 
-116.647 -85.5001 77.982 -115.823 -85.2872 78.7227 -115.088 -85.3296 79.3985 
-114.442 -85.7935 79.6478 -117.483 -86.9144 78.3613 -117.879 -87.3134 77.4626 
-116.966 -86.8802 78.995 -116.283 -86.7642 79.5931 -115.569 -86.504 80.3511 
-115.021 -86.6385 80.7662 -114.356 -87.1383 80.8046 -117.64 -88.4794 79.4657 
-117.877 -88.9994 78.6028 -117.239 -88.2535 80.1316 -116.737 -88.2597 80.5627 
-116.081 -88.1493 81.1576 -115.44 -88.0586 81.7509 -114.818 -88.2814 81.994 
-113.986 -88.6121 82.1482 -117.769 -90.2143 80.5502 -117.745 -90.6197 79.8045 
-117.544 -89.8045 81.2438 -117.195 -89.6084 81.7055 -116.696 -89.6149 82.1486 
-116.021 -89.6436 82.6876 -115.32 -89.7081 83.0843 -114.554 -89.866 83.3091 
-113.676 -90.0298 83.5053 -117.801 -91.9875 81.5303 -117.632 -92.144 80.8913 
-117.692 -91.6979 82.1782 -117.395 -91.3772 82.7076 -117.021 -91.2473 83.1597 
-116.492 -91.3129 83.6064 -115.842 -91.3495 83.9929 -115.178 -91.3129 84.2818 
-114.433 -91.3403 84.4738 -113.631 -91.4479 84.5454 -113.458 -92.9143 85.4061 
-114.221 -92.7959 85.5364 -113.921 -94.2901 86.5193 -114.938 -92.7967 85.4885 
-114.636 -94.2953 86.6816 -114.241 -96.0396 87.5729 -115.516 -93.0211 85.2328 
-115.183 -94.5558 86.5428 -114.848 -96.3671 87.6289 -114.566 -98.5796 88.3076 
-116.089 -93.2353 84.9174 -115.693 -94.9783 86.2268 -115.387 -96.8334 87.4079 
-115.154 -99.1833 88.2802 -114.975 -101.448 89.0849 -116.64 -93.2604 84.548 
-116.297 -95.1956 85.9375 -116.076 -97.1154 87.2078 -115.816 -99.6136 88.2316 
-115.611 -102.082 89.1463 -115.46 -104.03 90.0688 -117.059 -93.3501 84.0619 
-116.781 -95.3053 85.5118 -116.746 -97.1656 86.9371 -116.556 -99.7127 88.2044 
-116.258 -102.533 89.271 -116.181 -104.71 90.1398 -116.16 -106.797 90.7104 
-117.455 -93.6084 83.5278 -117.141 -95.5609 84.9474 -117.079 -97.3513 86.3829 
-117.029 -99.7731 87.7905 -116.767 -102.832 89.0987 -116.723 -105.365 90.0904 
-116.909 -107.552 90.6589 -116.968 -110.098 90.8505 -117.774 -93.7979 82.9401 
-117.555 -95.7747 84.3839 -117.292 -97.6257 85.7892 -117.134 -99.9154 87.1305 
-116.988 -103.01 88.4702 -117.007 -105.879 89.6158 -117.301 -108.179 90.3357 
-117.544 -110.671 90.6821 -117.562 -113.251 90.7375 -117.8 -93.8183 82.2833 
-117.857 -95.7865 83.7377 -117.6 -97.7384 85.1853 -117.214 -99.9269 86.5282 
-117.031 -102.863 87.7998 -117.14 -105.971 88.9327 -117.432 -108.534 89.7229 
-117.728 -110.965 90.178 -117.9 -113.504 90.3977 -117.942 -115.626 90.3627 
-113.067 -93.9973 85.9917 -113.437 -95.5443 87.1154 -112.66 -95.1019 86.6612 
-113.857 -97.7641 87.9828 -113.083 -96.9746 87.5251 -112.403 -96.3488 87.1645 
-114.348 -100.696 88.8465 -113.71 -99.7545 88.2295 -113.043 -98.7188 87.6694 
-112.29 -97.9388 87.3262 -114.773 -103.567 90.0131 -114.238 -102.997 89.4804 
-113.803 -102.017 88.4987 -113.11 -100.783 87.8057 -112.141 -99.7566 87.4806 
-115.351 -106.486 90.7974 -114.652 -106.195 90.6984 -114.277 -105.632 89.9658 
-113.903 -104.408 88.8869 -113.081 -102.877 88.2066 -112.038 -101.544 87.7929 
-116.256 -110.005 90.8432 -115.467 -109.674 90.8497 -114.835 -109.165 90.71 
-114.428 -108.186 90.0695 -113.967 -106.554 89.1939 -113.114 -104.771 88.5665 
-112.119 -103.214 87.9829 -117.098 -113.443 90.6604 -116.533 -113.097 90.4327 
-115.876 -112.375 90.34 -115.144 -111.473 90.2607 -114.608 -110.118 89.7851 
-114.118 -108.267 89.1058 -113.242 -106.386 88.583 -112.229 -104.689 88.0016 
-117.637 -115.954 90.3654 -117.285 -115.687 90.0577 -116.873 -114.882 89.7317 
-116.135 -113.965 89.7025 -115.286 -112.97 89.6581 -114.796 -111.479 89.2113 
-114.271 -109.563 88.7182 -113.28 -107.652 88.4275 -112.24 -105.88 87.9907 
-118.227 -117.646 89.6924 -117.84 -117.709 89.5779 -118.588 -119.401 88.6299 
-117.971 -119.407 88.4466 -118.763 -121.454 87.6026 -117.492 -117.127 89.1844 
-117.973 -121.393 87.4201 -118.682 -123.222 86.7664 -117.497 -118.742 88.099 
-117.013 -116.187 88.9286 -117.984 -122.471 86.5068 -118.55 -123.666 85.4932 
-117.45 -120.414 87.1334 -116.865 -117.775 88.0587 -116.105 -115.315 89.0358 
-117.874 -122.353 85.2839 -118.184 -123.451 83.9335 -117.427 -121.032 86.2363 
-116.704 -119.14 87.2463 -115.929 -116.748 88.313 -115.313 -114.187 88.9534 
-117.289 -122.254 84.2576 -117.333 -123.134 83.2238 -117.114 -121.027 85.2948 
-116.508 -119.608 86.4171 -115.757 -117.682 87.5636 -115.273 -115.165 88.2365 
-114.879 -112.371 88.5294 -116.407 -121.795 83.9386 -116.344 -121.974 83.2482 
-116.464 -120.845 84.6846 -116.131 -119.483 85.6179 -115.497 -117.813 86.7648 
-115.029 -115.592 87.6167 -114.671 -112.932 88.0338 -114.079 -110.228 88.3247 
-115.605 -120.358 83.7433 -115.589 -120.139 83.1047 -115.729 -119.84 84.3891 
-115.648 -118.732 85.095 -115.195 -117.295 86.0511 -114.656 -115.44 87.0348 
-114.202 -113.104 87.6954 -113.63 -110.602 88.0907 -112.91 -108.183 88.2287 
-114.945 -118.742 83.3894 -115.048 -118.524 82.8289 -114.988 -118.369 84.0959 
-115.042 -117.484 84.82 -114.837 -116.319 85.6161 -114.335 -114.836 86.5176 
-113.771 -112.897 87.2941 -113.204 -110.681 87.7792 -112.575 -108.451 87.947 
-111.977 -106.282 87.7428 -118.269 -116.404 89.7444 -118.856 -118.431 88.836 
-118.511 -116.981 88.8735 -119.414 -118.935 87.8533 -118.657 -117.214 87.9841 
-119.511 -120.347 87.7161 -119.624 -119.001 86.9622 -118.707 -116.926 87.1764 
-120.193 -120.795 86.7852 -119.687 -122.494 86.7883 -119.443 -118.579 86.1576 
-118.498 -116.146 86.6027 -120.188 -120.705 85.8972 -120.205 -122.792 85.712 
-119.435 -124.053 85.6302 -118.918 -117.691 85.6645 -117.949 -114.833 86.4024 
-119.601 -120.142 85.2211 -119.93 -122.432 84.7824 -119.826 -124.234 84.1691 
-119.121 -124.455 83.8211 -118.212 -116.122 85.6085 -117.393 -112.797 86.247 
-118.802 -119.012 85.0179 -119.078 -121.333 84.5647 -119.452 -123.436 83.6605 
-119.38 -124.543 82.6786 -118.44 -124.152 82.5718 -117.593 -113.71 85.6011 
-117.028 -110.251 85.7763 -118.115 -117.097 85.0772 -118.255 -119.573 84.6521 
-118.545 -121.489 84.0357 -118.944 -123.057 82.955 -118.478 -123.507 82.2669 
-117.307 -122.918 82.5531 -117.029 -110.81 85.3362 -116.65 -107.769 85.0601 
-117.524 -114.318 85.1143 -117.734 -117.243 84.6332 -117.812 -119.133 84.1265 
-118.141 -120.523 83.4125 -118.126 -121.36 82.6389 -117.296 -121.322 82.3941 
-116.273 -120.805 82.6929 -116.397 -108.057 84.7939 -116.153 -105.734 84.2577 
-116.808 -111.068 85.0073 -117.16 -114.188 84.7531 -117.295 -116.542 84.1954 
[...]
CELL_DATA 2000
SCALARS Distance double
LOOKUP_TABLE default
157.013 157.811 157.593 158.062 158.72 158.458 158.947 158.77 159.408 
159.743 159.448 160.002 159.763 160.463 160.285 161.064 160.91 160.584 
161.237 160.95 161.719 161.471 162.305 162.076 162.932 162.173 161.844 
162.551 162.27 163.071 162.807 163.647 163.393 164.271 164.039 164.98 
163.448 163.144 163.859 163.595 164.391 164.148 164.976 164.74 165.617 
165.402 166.358 166.167 167.175 164.677 164.419 165.17 164.914 165.732 
165.473 166.326 166.072 166.975 166.757 167.734 167.55 168.571 168.388 
169.401 165.849 165.638 166.434 166.225 167.086 166.849 167.737 167.473 
168.39 168.146 169.125 168.931 169.959 169.783 170.817 170.618 171.626 
166.985 166.798 167.59 167.438 168.282 168.139 169.003 168.837 169.714 
169.531 170.458 170.295 171.3 171.158 172.207 172.041 173.079 172.862 
173.85 156.553 156.141 156.68 157.358 155.719 156.267 156.994 157.546 
158.26 155.387 155.847 156.565 157.163 157.943 158.489 159.244 155.266 
155.585 156.245 156.765 157.615 158.195 159.036 159.539 160.364 155.316 
155.557 156.203 156.573 157.441 157.964 158.909 159.401 160.274 160.734 
161.609 155.444 155.672 156.343 156.632 157.461 157.901 158.853 159.338 
160.243 160.687 161.54 162.002 162.87 155.629 155.848 156.528 156.792 
157.577 157.956 158.849 159.306 160.194 160.645 161.48 161.931 162.757 
163.234 164.071 155.904 156.082 156.767 156.992 157.763 158.082 158.955 
159.342 160.233 160.627 161.477 161.878 162.702 163.13 163.947 164.411 
165.229 156.309 156.425 157.116 157.278 158.036 158.295 159.158 159.498 
160.403 160.75 161.622 161.954 162.789 163.135 163.95 164.334 165.145 
165.577 166.384 156.817 157.867 157.428 157.61 158.949 158.506 158.732 
158.275 158.538 160.213 159.689 159.993 159.479 159.801 159.316 159.677 
161.697 161.113 161.454 160.858 161.196 160.653 161.039 160.547 160.933 
163.119 162.617 162.965 162.385 162.683 162.091 162.433 161.924 162.317 
161.818 162.16 164.429 163.971 164.357 163.853 164.176 163.587 163.888 
163.327 163.705 163.204 163.578 163.034 163.33 165.826 165.329 165.765 
165.251 165.663 165.092 165.455 164.84 165.221 164.646 165.053 164.485 
164.821 164.211 164.484 167.258 166.8 167.283 166.746 167.2 166.63 
167.07 166.465 166.889 166.259 166.675 166.043 166.417 165.763 166.063 
165.395 165.673 168.606 168.237 168.797 168.301 168.769 168.205 168.651 
168.086 168.537 167.944 168.36 167.72 168.089 167.417 167.738 167.039 
167.32 166.622 166.902 167.823 168.281 168.504 169.417 168.715 168.977 
169.928 170.146 171.087 169.083 169.389 170.354 170.632 171.624 171.861 
172.913 169.386 169.742 170.736 171.044 172.076 172.379 173.521 173.818 
175.044 169.569 170.003 171.047 171.425 172.513 172.857 174.078 174.441 
175.768 176.075 177.365 169.672 170.139 171.205 171.678 172.812 173.269 
174.539 175.006 176.408 176.808 178.178 178.427 179.717 169.799 170.257 
171.322 171.803 172.922 173.457 174.716 175.342 176.77 177.37 178.799 
179.206 180.548 180.809 182.15 169.825 170.36 171.426 171.93 173 
173.511 174.676 175.347 176.735 177.533 178.997 179.662 181.018 181.496 
182.811 183.204 184.489 169.591 170.25 171.309 171.949 172.998 173.544 
174.589 175.211 176.47 177.324 178.781 179.657 181.033 181.73 182.978 
183.582 184.781 185.296 186.329 167.875 169.457 168.596 168.499 171.125 
170.223 170.119 169.255 169.192 173.015 172.002 171.914 170.933 170.865 
169.987 169.941 175.25 174.126 174.149 172.95 172.9 171.795 171.771 
170.794 170.733 177.615 176.531 176.736 175.478 175.555 174.176 174.172 
172.871 172.842 171.68 171.588 179.994 178.954 179.309 178.173 178.461 
177.1 177.204 175.654 175.617 174.106 174.021 172.664 172.539 182.526 
181.462 181.907 180.792 181.198 180.001 180.243 178.805 178.793 177.155 
177.005 175.382 175.206 173.719 173.529 184.948 184.039 184.483 183.414 
183.728 182.628 182.825 181.637 181.628 180.222 180.014 178.435 178.148 
176.542 176.245 174.719 174.434 186.768 186.195 186.524 185.722 185.819 
184.895 184.871 183.902 183.789 182.704 182.461 181.177 180.821 179.37 
178.96 177.441 177.032 175.55 175.183 187.64 188.562 187.923 187.381 
189.35 188.68 188.066 187.406 186.646 190.155 189.456 188.698 187.978 
187.184 186.512 185.661 190.359 190.045 189.248 188.601 187.707 187.012 
186.157 185.479 184.576 189.652 189.784 189.099 188.878 188.019 187.495 
186.593 185.952 185.028 184.331 183.301 188.656 188.904 188.364 188.428 
187.732 187.544 186.694 186.267 185.295 184.697 183.61 182.912 181.715 
187.527 187.932 187.476 187.66 187.032 187.04 186.248 186.09 185.127 
184.758 183.621 183.072 181.826 181.168 179.864 185.999 186.648 186.232 
186.655 186.017 186.209 185.401 185.431 184.494 184.347 183.245 182.887 
181.646 181.134 179.834 179.221 177.908 184.391 185.036 184.681 185.228 
184.661 185.027 184.283 184.463 183.591 183.591 182.574 182.374 181.21 
180.839 179.593 179.099 177.826 177.248 176.005 187.766 188.086 188.294 
188.807 188.128 188.555 189.285 189.33 189.755 187.814 188.485 189.371 
189.745 190.389 190.354 190.648 187.097 187.983 188.89 189.607 190.34 
190.748 191.111 191.045 190.867 186.013 187.069 187.926 188.861 189.571 
190.333 190.754 191.123 190.977 190.786 190.147 184.551 185.795 186.634 
187.71 188.347 189.273 189.713 190.433 190.466 190.641 190.103 189.801 
189.057 182.694 184.121 184.982 186.251 186.84 187.859 188.184 189.112 
189.217 189.852 189.462 189.539 188.738 188.559 187.752 180.582 182.07 
182.902 184.387 185.002 186.185 186.407 187.387 187.38 188.282 187.962 
188.507 187.708 187.862 186.882 186.951 186.077 178.479 179.852 180.542 
182.103 182.732 184.146 184.42 185.498 185.437 186.339 186.051 186.771 
186.131 186.523 185.607 185.813 184.94 185.135 184.412 169.678 170.467 
170.544 171.515 171.465 171.481 172.523 172.481 173.323 172.459 172.52 
173.55 173.536 174.429 174.258 174.979 173.29 173.444 174.54 174.583 
175.597 175.456 176.37 176.062 176.933 174.228 174.347 175.682 175.719 
177.024 176.857 178.055 177.708 178.815 178.348 179.342 175.398 175.499 
177.051 177.114 178.691 178.562 179.974 179.632 180.849 180.38 181.406 
180.835 181.651 176.446 176.693 178.255 178.513 180.129 180.244 181.677 
181.535 182.702 182.358 183.312 182.829 183.609 183 183.631 177.171 
177.567 179.055 179.497 181.041 181.415 182.813 182.959 184.093 183.978 
184.897 184.576 185.352 184.868 185.532 184.903 185.449 177.719 178.171 
179.661 180.15 181.694 182.143 183.574 183.869 185.065 185.143 186.12 
185.99 186.798 186.482 187.141 186.675 187.193 186.596 186.96 168.717 
167.553 168.491 169.375 166.579 167.383 168.195 169.249 170.324 165.664 
166.446 167.184 168.129 169.134 170.276 171.355 164.625 165.458 166.127 
167.069 167.957 169.077 170.094 171.23 172.18 163.552 164.364 164.968 
165.898 166.698 167.814 168.788 169.948 170.908 172.004 172.994 162.566 
163.315 163.893 164.736 165.497 166.528 167.502 168.646 169.663 170.765 
171.78 172.913 174.045 161.682 162.366 162.934 163.712 164.443 165.384 
166.313 167.399 168.405 169.525 170.529 171.682 172.749 173.979 175.086 
160.949 161.537 162.057 162.77 163.434 164.328 165.163 166.207 167.108 
168.22 169.138 170.328 171.32 172.588 173.617 174.884 175.85 160.36 
160.861 161.307 161.915 162.475 163.281 164.018 165.006 165.831 166.889 
167.733 168.871 169.807 171.066 172.07 173.352 174.295 175.526 176.396 
160.187 160.184 160.48 161.099 160.263 160.508 161.178 161.473 162.24 
160.58 160.716 161.458 161.674 162.547 162.818 163.79 161.086 161.185 
162.029 162.165 163.148 163.314 164.358 164.563 165.616 161.623 161.762 
162.692 162.859 163.917 164.07 165.157 165.28 166.347 166.478 167.537 
162.231 162.359 163.328 163.522 164.588 164.815 165.926 166.115 167.233 
167.342 168.461 168.524 169.656 162.967 163.065 164.073 164.207 165.28 
165.466 166.6 166.833 168.031 168.243 169.461 169.57 170.76 170.783 
171.937 163.713 163.844 164.895 165.025 166.145 166.266 167.445 167.593 
168.841 169.047 170.332 170.535 171.769 171.887 173.036 173.064 174.14 
164.4 164.569 165.635 165.829 166.978 167.164 168.379 168.539 169.799 
169.953 171.232 171.406 172.665 172.826 174.022 174.114 175.228 175.225 
176.25 165.137 166.842 166.102 166.431 168.842 167.962 168.288 167.497 
167.849 171.066 170.107 170.443 169.504 169.886 169.023 169.366 173.553 
172.534 173.011 171.879 172.302 171.248 171.66 170.642 170.914 176.359 
175.308 176.061 174.782 175.339 173.991 174.454 173.177 173.499 172.254 
172.419 179.094 178.213 179.095 177.992 178.689 177.315 177.824 176.311 
176.643 175.107 175.246 173.802 173.875 181.151 180.612 181.342 180.705 
181.388 180.473 180.999 179.724 180.054 178.486 178.598 176.894 176.861 
175.287 175.272 182.499 182.193 182.777 182.466 183.123 182.682 183.255 
182.487 182.86 181.701 181.856 180.32 180.243 178.488 178.299 176.658 
176.52 183.582 183.333 183.968 183.718 184.485 184.2 184.93 184.427 
184.908 184.109 184.351 183.257 183.265 181.789 181.529 179.795 179.435 
177.802 177.534 164.66 164.505 165.149 166.366 164.362 165.04 166.341 
167.022 168.378 164.1 164.859 166.18 166.984 168.414 169.127 170.55 
163.672 164.495 165.805 166.731 168.191 169.069 170.531 171.299 172.834 
163.25 164.034 165.36 166.308 167.822 168.779 170.29 171.164 172.748 
173.649 175.418 163.027 163.704 165.057 165.929 167.507 168.452 170.042 
170.924 172.569 173.519 175.382 176.381 178.201 162.983 163.591 164.938 
165.728 167.313 168.221 169.847 170.724 172.39 173.354 175.254 176.333 
178.228 179.099 180.531 162.976 163.572 164.874 165.633 167.17 168.061 
169.669 170.547 172.173 173.139 174.978 176.13 178.025 179.046 180.512 
181.127 182.054 162.946 163.533 164.771 165.516 166.982 167.879 169.451 
170.351 171.92 172.864 174.583 175.732 177.551 178.693 180.183 180.981 
181.952 182.41 183.105 163.63 162.064 163.007 163.393 160.575 161.439 
161.765 162.776 163.21 159.194 159.966 160.2 161.136 161.506 162.569 
162.963 157.882 158.587 158.693 159.534 159.769 160.806 161.146 162.24 
162.554 156.58 157.25 157.263 158.001 158.062 158.99 159.209 160.328 
160.645 161.777 162.11 155.269 155.915 155.899 156.578 156.56 157.307 
157.37 158.345 158.609 159.79 160.199 161.387 161.85 154.023 154.607 
154.6 155.246 155.253 155.888 155.879 156.614 156.753 157.774 158.185 
159.429 159.992 161.225 161.795 153.005 153.464 153.498 154.05 154.101 
154.657 154.649 155.235 155.296 156.079 156.399 157.485 158.071 159.335 
159.995 161.222 161.814 152.311 152.627 152.717 153.13 153.22 153.639 
153.629 154.083 154.118 154.746 155.019 155.89 156.421 157.517 158.196 
159.41 160.08 161.257 161.832 152.062 151.96 152.138 152.476 151.901 
152.074 152.353 152.578 152.909 151.774 151.971 152.176 152.385 152.58 
152.879 153.179 151.773 151.869 152.062 152.172 152.307 152.506 152.774 
153.148 153.633 152.226 152.083 152.324 152.207 152.386 152.375 152.736 
152.936 153.572 153.894 154.653 153.132 152.805 153.084 152.746 152.98 
152.737 153.189 153.199 153.968 154.14 155.026 155.217 156.115 154.176 
153.819 154.118 153.71 153.992 153.6 154.072 153.905 154.685 154.737 
155.65 155.767 156.69 156.849 157.834 155.168 154.832 155.151 154.793 
155.149 154.755 155.247 154.956 155.679 155.575 156.442 156.464 157.382 
157.491 158.477 158.662 159.693 156.12 155.79 156.12 155.816 156.233 
155.923 156.448 156.165 156.836 156.64 157.438 157.343 158.232 158.248 
159.224 159.343 160.356 160.521 161.482 156.75 157.829 157.096 156.797 
159.191 158.319 158.033 157.244 156.984 160.812 159.817 159.515 158.603 
158.351 157.522 157.295 162.674 161.566 161.258 160.202 159.944 159.005 
158.822 157.942 157.765 164.798 163.6 163.379 162.146 161.927 160.781 
160.646 159.626 159.524 158.543 158.41 167.065 165.875 165.775 164.477 
164.332 163.015 162.904 161.681 161.627 160.49 160.419 159.321 159.236 
169.327 168.204 168.192 166.954 166.867 165.544 165.43 164.108 164.022 
162.765 162.703 161.493 161.428 160.268 160.239 171.587 170.505 170.586 
169.396 169.39 168.099 168.027 166.681 166.586 165.249 165.154 163.864 
163.773 162.545 162.48 161.332 161.33 173.834 172.807 172.978 171.838 
171.923 170.664 170.666 169.32 169.269 167.88 167.79 166.4 166.276 
164.938 164.815 163.584 163.505 162.398 162.385 163.29 164.487 164.285 
165.179 165.908 165.66 166.698 166.419 167.478 167.496 167.252 168.425 
168.119 169.281 168.919 169.996 169.102 168.932 170.196 169.932 171.149 
170.803 171.94 171.496 172.52 170.63 170.554 171.891 171.703 172.976 
172.686 173.937 173.538 174.741 174.168 175.287 172.056 172.071 173.492 
173.387 174.752 174.528 175.907 175.606 176.984 176.518 177.769 177.111 
178.227 173.316 173.447 174.928 174.958 176.396 176.294 177.714 177.55 
178.939 178.673 179.87 179.432 180.394 179.847 180.66 174.342 174.595 
176.072 176.275 177.717 177.809 179.181 179.189 180.466 180.38 181.443 
181.2 181.999 181.632 182.251 181.827 182.32 175.151 175.488 176.919 
177.25 178.65 178.915 180.228 180.403 181.585 181.64 182.629 182.519 
183.3 183.023 183.641 183.236 183.71 183.218 183.545 155.669 155.255 
155.137 154.533 154.97 154.774 154.131 154.008 153.485 154.778 154.524 
153.817 153.62 153.032 153.02 152.676 154.718 154.41 153.688 153.349 
152.686 152.566 152.194 152.316 152.171 154.745 154.437 153.797 153.356 
152.666 152.334 151.937 151.918 151.832 151.962 151.959 154.822 154.498 
153.898 153.504 152.802 152.405 151.914 151.778 151.672 151.745 151.783 
151.865 151.884 155.076 154.639 154.018 153.6 152.898 152.494 151.897 
151.715 151.485 151.579 151.585 151.715 151.708 151.794 151.787 155.511 
154.994 154.411 153.871 153.258 152.702 152.135 151.735 151.441 151.374 
151.378 151.495 151.547 151.629 151.626 151.698 151.736 155.992 155.489 
154.995 154.433 153.95 153.313 152.853 152.23 151.93 151.541 151.528 
151.431 151.582 151.58 151.702 151.667 151.751 151.749 151.883 155.794 
154.62 155.347 155.708 153.584 154.194 154.548 155.334 155.833 152.863 
153.306 153.649 154.281 154.834 155.6 156.183 152.398 152.73 153.082 
153.558 154.103 154.747 155.398 156.068 156.624 152.118 152.349 152.678 
153.079 153.611 154.16 154.821 155.414 156.021 156.562 157.05 152.006 
152.146 152.43 152.73 153.25 153.73 154.411 154.954 155.606 156.08 
156.607 157.037 157.512 151.956 152.085 152.385 152.589 153.09 153.449 
154.13 154.612 155.299 155.752 156.309 156.69 157.177 157.568 158.078 
151.932 152.062 152.429 152.622 153.133 153.396 154.026 154.401 155.057 
155.474 156.021 156.404 156.873 157.264 157.769 158.191 158.734 152.05 
152.112 152.52 152.707 153.258 153.491 154.088 154.361 154.948 155.271 
155.784 156.118 156.563 156.935 157.421 157.863 158.411 158.86 159.389 
156.527 156.503 156.876 157.605 156.608 156.904 157.617 157.945 158.649 
156.873 157.066 157.73 157.986 158.688 159.024 159.847 157.234 157.367 
158.022 158.193 158.923 159.162 160.024 160.373 161.322 157.605 157.726 
158.411 158.573 159.362 159.541 160.418 160.661 161.585 161.896 162.773 
158.022 158.101 158.787 158.975 159.786 160.009 160.864 161.094 161.952 
162.199 163.031 163.294 164.099 158.569 158.569 159.226 159.364 160.152 
160.386 161.214 161.469 162.294 162.546 163.366 163.603 164.418 164.651 
165.479 159.225 159.174 159.797 159.849 160.597 160.763 161.578 161.796 
162.626 162.869 163.708 163.951 164.761 164.99 165.777 166.032 166.839 
159.867 159.829 160.411 160.429 161.113 161.229 161.998 162.181 162.988 
163.215 164.042 164.292 165.08 165.307 166.023 166.264 166.99 167.309 
168.098 163.485 162.792 162.733 161.936 162.066 162.023 161.221 161.193 
160.458 161.371 161.305 160.516 160.475 159.74 159.751 159.096 160.832 
160.708 159.958 159.833 159.086 159.035 158.365 158.415 157.808 160.388 
160.273 159.602 159.411 158.667 158.468 157.748 157.697 157.084 157.145 
156.549 159.944 159.852 159.233 159.098 158.389 158.149 157.39 157.188 
156.541 156.489 155.916 155.915 155.3 159.638 159.456 158.817 158.686 
158.005 157.843 157.119 156.905 156.243 156.08 155.511 155.399 154.799 
154.701 154.085 159.564 159.264 158.598 158.333 157.662 157.465 156.833 
156.648 156.052 155.86 155.305 155.118 154.541 154.334 153.716 153.565 
153.044 159.59 159.264 158.614 158.248 157.603 157.282 156.728 156.476 
155.977 155.738 155.223 154.981 154.434 154.18 153.6 153.343 152.813 
152.665 152.31 
POINT_DATA 1002
SCALARS Distance double
LOOKUP_TABLE default
157.396 156.454 157.191 158.194 158.05 158.599 159.132 158.979 159.518 
160.109 160.235 160.018 160.643 161.231 161.853 161.502 161.213 161.976 
162.54 163.145 163.802 162.82 162.49 163.334 163.907 164.496 165.175 
165.966 164.126 163.731 164.634 165.206 165.818 166.539 167.364 168.199 
165.404 164.9 165.984 166.58 167.195 167.916 168.75 169.603 170.404 
166.612 166.038 167.29 167.987 168.647 169.332 170.13 171 171.85 
172.627 167.747 167.174 168.415 169.144 169.881 170.617 171.428 172.346 
173.277 174.113 174.814 156.017 156.837 155.572 156.396 155.191 157.753 
155.959 155.016 157.343 158.737 155.785 155.004 156.996 158.508 159.865 
155.887 155.061 156.941 158.39 159.832 161.128 156.074 155.199 157.071 
158.375 159.796 161.105 162.391 156.275 155.416 157.236 158.427 159.75 
161.038 162.301 163.584 156.56 155.739 157.468 158.587 159.855 161.097 
162.299 163.51 164.752 156.98 156.212 157.809 158.833 160.057 161.302 
162.47 163.6 164.743 165.943 157.261 158.043 158.297 159.18 159.373 
158.973 160.516 160.753 160.286 160.146 162.075 162.267 161.774 161.532 
161.444 163.515 163.58 163.311 162.97 162.8 162.711 164.822 164.891 
164.739 164.484 164.213 164.104 163.924 166.28 166.315 166.197 166.056 
165.828 165.625 165.433 165.112 167.809 167.655 167.766 167.642 167.515 
167.327 167.075 166.747 166.334 169.253 168.915 169.333 169.212 169.105 
168.996 168.762 168.433 168.038 167.591 168.706 169.218 170.331 169.676 
170.892 172.043 170.06 171.33 172.654 174.048 170.408 171.746 173.159 
174.759 176.333 170.613 172.126 173.672 175.412 177.14 178.626 170.708 
172.301 174.012 175.941 177.881 179.52 181.009 170.858 172.408 174.063 
176.081 178.297 180.225 181.905 183.545 170.895 172.53 174.066 175.905 
178.232 180.472 182.365 184.17 185.762 170.608 172.429 174.041 175.669 
177.846 180.275 182.358 184.217 185.964 187.269 169.336 171.006 170.017 
172.961 171.779 170.8 175.377 174.115 172.811 171.705 177.889 176.948 
175.609 174.103 172.724 180.354 179.689 178.753 177.258 175.498 173.847 
183.036 182.343 181.572 180.413 178.716 176.808 174.968 185.549 184.874 
183.978 182.933 181.544 179.789 177.854 175.916 187.281 186.749 185.84 
184.801 183.64 182.206 180.474 178.557 176.625 188.375 188.119 189.197 
188.732 190.128 187.353 189.516 190.827 187.856 186.349 189.795 190.459 
188.437 186.837 185.294 189.1 189.401 188.406 187.218 185.732 184.064 
188.215 188.355 187.782 187.011 185.859 184.301 182.472 187.23 187 
186.987 186.332 185.407 184.121 182.448 180.564 185.718 185.281 185.752 
185.314 184.561 183.52 182.099 180.396 178.546 184.11 183.783 184.218 
184.018 183.521 182.699 181.51 180.027 178.359 176.577 187.657 188.854 
187.754 189.062 187.573 189.946 188.825 187.05 190.232 190.995 188.079 
186.168 189.77 191.025 191.319 186.966 184.914 188.74 190.209 191.033 
190.585 185.513 183.236 187.43 188.875 190.061 190.307 189.42 183.623 
181.232 185.818 187.276 188.406 189.19 188.892 187.904 181.365 179.157 
183.729 185.467 186.483 187.257 187.444 186.793 185.953 179.041 177.243 
181.226 183.251 184.551 185.283 185.617 185.335 184.696 184.174 169.513 
171.513 170.379 172.555 171.464 173.506 173.547 172.371 174.554 175.234 
174.422 173.084 175.657 176.59 177.294 175.544 174.062 177.089 178.335 
179.249 179.913 176.9 175.24 178.722 180.275 181.322 181.987 182.326 
177.948 176.158 179.928 181.747 183.019 183.776 184.185 184.325 178.602 
176.761 180.625 182.58 184.121 185.149 185.779 186.103 186.177 167.726 
168.239 166.698 167.218 165.827 169.134 166.3 164.87 168.04 170.235 
165.211 163.799 166.875 168.961 171.091 164.085 162.778 165.614 167.61 
169.797 171.842 163.085 161.839 164.515 166.366 168.535 170.662 172.839 
162.178 161.031 163.542 165.276 167.302 169.382 171.548 173.863 161.403 
160.414 162.593 164.17 166.047 167.981 170.058 172.357 174.634 160.769 
159.9 161.751 163.083 164.805 166.643 168.579 170.788 173.067 175.187 