# vtk DataFile Version 4.0
vtk output
ASCII
DATASET POLYDATA
POINTS 1002 float
-102.216 -79.95 74.0717 -102.482 -79.4117 72.7852 -102.655 -79.0745 73.8201 
-102.446 -79.6654 75.1782 -102.887 -78.7724 74.9371 -102.131 -80.6834 75.3326 
-102.804 -79.4544 76.3274 -103.319 -78.5727 76.0653 -102.495 -80.5518 76.5007 
-102.281 -81.6135 76.6335 -103.355 -79.4404 77.5018 -103.95 -78.687 77.1384 
-102.978 -80.5239 77.7371 -102.669 -81.6268 77.9593 -102.389 -82.5808 78.2643 
-104.013 -79.6891 78.6344 -104.655 -79.0206 78.1846 -103.532 -80.6241 79.0248 
-103.136 -81.7061 79.3172 -102.759 -82.7325 79.6855 -102.519 -83.7609 80.0763 
-104.721 -79.9391 79.719 -105.338 -79.2044 79.3261 -104.179 -80.8403 80.1714 
-103.723 -81.8588 80.559 -103.371 -82.9559 80.9102 -103.163 -84.1605 81.2792 
-103.077 -85.3399 81.6006 -105.409 -80.1163 80.8586 -105.963 -79.3665 80.4783 
-104.949 -81.117 81.1945 -104.538 -82.2128 81.5416 -104.196 -83.3122 81.9011 
-104.044 -84.5781 82.2509 -103.982 -85.8704 82.5838 -103.859 -86.9252 82.9178 
-106.035 -80.5485 81.943 -106.577 -79.8362 81.4337 -105.641 -81.5257 82.2982 
-105.366 -82.6988 82.5658 -105.077 -83.8529 82.8758 -104.857 -85.0432 83.2427 
-104.775 -86.3114 83.5981 -104.671 -87.4244 83.9409 -104.495 -88.3372 84.2838 
-106.682 -81.2112 82.8183 -107.201 -80.4496 82.2346 -106.241 -82.0941 83.3349 
-105.942 -83.1421 83.7422 -105.708 -84.3116 84.0824 -105.493 -85.5375 84.4284 
-105.361 -86.7794 84.7649 -105.293 -87.9379 85.0571 -105.222 -88.9606 85.3295 
-105.16 -89.8994 85.5687 -107.33 -81.7641 83.5709 -107.748 -80.9234 83.0309 
-106.904 -82.6489 84.1344 -106.507 -83.5665 84.704 -106.175 -84.6337 85.203 
-105.985 -85.9409 85.5987 -105.942 -87.3344 85.9172 -105.935 -88.5994 86.1568 
-105.928 -89.7264 86.3445 -105.966 -90.7794 86.5174 -106.034 -91.7263 86.6488 
-102.845 -78.6416 72.1404 -103.076 -78.3399 73.2328 -103.17 -77.7768 71.5762 
-103.57 -77.5367 72.7178 -103.603 -76.8934 71.0807 -103.442 -78.0666 74.4108 
-104.203 -76.7083 72.2244 -104.317 -76.1845 70.5125 -104.154 -77.3319 73.9142 
-104.005 -77.9108 75.5754 -105.056 -76.0903 71.6247 -105.338 -75.7492 69.92 
-104.895 -76.5723 73.4249 -104.769 -77.1924 75.1459 -104.671 -78.0672 76.7002 
-106.111 -75.6451 71.0761 -106.452 -75.3035 69.5436 -105.688 -75.9667 72.9127 
-105.384 -76.3692 74.8274 -105.322 -77.2338 76.4615 -105.349 -78.3332 77.8853 
-107.056 -74.9863 70.8025 -107.268 -74.592 69.3697 -106.631 -75.4052 72.502 
-106.098 -75.6928 74.4927 -105.88 -76.297 76.3287 -105.97 -77.4208 77.7557 
-106.024 -78.4949 79.0997 -107.659 -74.2033 70.6981 -107.794 -73.8982 69.2029 
-107.504 -74.7212 72.2632 -107.123 -75.2002 74.0609 -106.753 -75.6999 75.9734 
-106.681 -76.6073 77.5461 -106.734 -77.7645 78.8256 -106.685 -78.8063 80.1384 
-108.255 -73.6964 70.6283 -108.482 -73.5285 69.065 -108.187 -74.1361 72.1592 
-108.091 -74.7511 73.6771 -107.851 -75.387 75.3999 -107.633 -76.1538 77.1236 
-107.533 -77.1664 78.5118 -107.448 -78.2573 79.7409 -107.322 -79.339 81.0184 
-109.177 -73.4381 70.6209 -109.481 -73.3788 69.0898 -108.957 -73.7425 72.1606 
-108.837 -74.3043 73.5249 -108.699 -75.0105 74.9548 -108.505 -75.7735 76.6576 
-108.326 -76.6456 78.271 -108.176 -77.6534 79.5365 -108.026 -78.7416 80.7004 
-107.876 -79.8506 81.9095 -110.414 -73.2073 70.1992 -110.062 -73.3079 71.8142 
-111.198 -73.044 71.3527 -110.782 -73.2378 72.9673 -111.629 -73.2944 72.3723 
-109.704 -73.7236 73.3281 -111.306 -73.6708 74.0046 -111.912 -74.2103 73.4188 
-110.362 -73.8312 74.4862 -109.42 -74.4137 74.6829 -111.787 -74.7632 75.0933 
-112.239 -75.4016 74.6572 -111.048 -74.4739 75.6626 -110.017 -74.6647 76.0472 
-109.185 -75.2195 76.306 -112.099 -76.0554 76.249 -112.624 -76.5296 75.8493 
-111.622 -75.6496 76.8755 -110.761 -75.3625 77.5273 -109.748 -75.5031 77.978 
-108.995 -76.0729 78.1816 -112.335 -77.1941 77.2852 -113.137 -77.6032 76.819 
-111.815 -76.8385 78.0092 -111.323 -76.4148 78.8375 -110.459 -76.1508 79.501 
-109.54 -76.43 79.7916 -108.827 -77.0717 79.7042 -112.733 -78.1557 78.205 
-113.578 -78.5062 77.6966 -111.99 -77.8508 79.0016 -111.574 -77.5265 79.8924 
-111.006 -77.2418 80.5704 -110.124 -77.2785 80.9508 -109.296 -77.6987 81.0272 
-108.64 -78.2606 80.8577 -113.004 -79.0482 79.1233 -113.596 -79.2744 78.5625 
-112.315 -78.9013 79.9373 -111.852 -78.7627 80.83 -111.376 -78.6487 81.4613 
-110.598 -78.6985 81.7806 -109.726 -78.8963 82.0111 -109.021 -79.1589 82.124 
-108.446 -79.5 82.0357 -112.905 -80.1035 80.0909 -113.254 -80.2257 79.4371 
-112.463 -80.1449 80.915 -112.114 -80.2075 81.768 -111.704 -80.2083 82.4063 
-111.016 -80.2805 82.716 -110.172 -80.4163 82.9361 -109.402 -80.4358 83.2233 
-108.79 -80.4488 83.3556 -108.273 -80.6435 83.2287 -107.989 -81.8545 84.2025 
-108.484 -81.6398 84.5006 -108.267 -83.0302 85.3718 -109.08 -81.6588 84.5872 
-108.799 -82.9903 85.6844 -108.619 -84.7199 86.5084 -109.838 -81.8406 84.3675 
-109.583 -83.1524 85.7419 -109.282 -84.8819 86.7826 -109.041 -86.7999 87.7512 
-110.638 -81.8662 84.0887 -110.424 -83.297 85.5921 -110.191 -85.0787 86.8658 
-109.827 -87.141 87.9788 -109.506 -88.8951 89.038 -111.392 -81.8131 83.8389 
-111.068 -83.3147 85.3618 -110.877 -85.174 86.8042 -110.641 -87.4889 88.0618 
-110.313 -89.5029 89.1599 -110.051 -91.3522 89.9907 -111.96 -81.8699 83.4056 
-111.654 -83.4756 84.999 -111.319 -85.2889 86.5061 -111.099 -87.7604 87.9393 
-110.947 -90.1439 89.1892 -110.79 -92.199 90.0577 -110.711 -94.7437 90.6224 
-112.245 -81.8319 82.7171 -112.118 -83.6937 84.5193 -111.854 -85.5537 86.0634 
-111.477 -87.9655 87.4993 -111.297 -90.6571 88.986 -111.313 -92.9874 90.1441 
-111.346 -95.5369 90.7805 -111.436 -98.6435 91.2325 -112.456 -81.6467 81.8557 
-112.316 -83.6766 83.894 -112.275 -85.755 85.6724 -111.935 -88.101 87.0325 
-111.569 -90.9228 88.4729 -111.601 -93.6395 89.9885 -111.817 -96.262 90.9535 
-111.992 -99.2409 91.3692 -112.17 -102.2 91.685 -112.726 -81.5614 80.9618 
-112.444 -83.5353 83.0272 -112.435 -85.7749 85.1413 -112.239 -88.1536 86.697 
-111.793 -90.9492 87.951 -111.707 -93.9532 89.4692 -112.07 -96.8252 90.8333 
-112.431 -99.7617 91.4509 -112.676 -102.681 91.5919 -112.87 -105.071 91.7119 
-107.67 -82.8737 84.7185 -108.069 -84.3245 85.894 -107.32 -83.9277 85.3023 
-108.474 -86.2901 87.1749 -107.808 -85.6554 86.4964 -106.895 -85.0157 85.9252 
-108.846 -88.3763 88.6239 -108.273 -87.8098 87.8278 -107.462 -87.0766 87.062 
-106.588 -86.3927 86.4481 -109.318 -90.696 89.8524 -108.713 -90.0951 89.2338 
-108.137 -89.5425 88.2829 -107.406 -88.8603 87.5215 -106.622 -88.0709 86.8511 
-110.062 -94.2417 90.5845 -109.401 -93.3666 90.2734 -108.855 -92.4452 89.5386 
-108.344 -91.6683 88.7006 -107.656 -90.7604 87.9733 -106.767 -89.6439 87.1598 
-110.968 -98.7037 91.2091 -110.427 -98.0789 90.9886 -109.829 -96.6631 90.4936 
-109.188 -95.0741 89.9008 -108.504 -93.7081 89.2358 -107.703 -92.3606 88.3716 
-106.777 -90.9601 87.3681 -111.81 -102.605 91.8162 -111.411 -102.568 91.6868 
-110.949 -101.517 91.2025 -110.225 -99.4922 90.7265 -109.235 -97.2873 90.3585 
-108.344 -95.4154 89.6795 -107.612 -93.7521 88.623 -106.811 -92.1705 87.5215 
-112.536 -105.438 91.9993 -112.117 -105.624 92.0775 -111.752 -105.268 91.6787 
-111.283 -103.848 91.1241 -110.321 -101.514 90.8709 -109.132 -99.062 90.6186 
-108.32 -96.9316 89.8636 -107.731 -95.0225 88.7468 -106.953 -93.2543 87.6379 
-113.364 -107.728 91.5466 -112.867 -107.885 91.8205 -113.753 -110.225 91.0636 
-113.035 -110.307 91.0956 -113.981 -112.811 90.2486 -112.305 -107.911 91.7201 
-113.174 -112.848 90.0544 -114.027 -115.09 89.0712 -112.417 -110.223 90.8152 
-111.976 -107.402 91.1948 -113.253 -114.723 89.0146 -113.742 -116.448 87.6951 
-112.602 -112.321 89.885 -112.141 -109.353 90.4354 -111.467 -105.724 90.8139 
-112.967 -115.47 88.1291 -113.103 -116.826 86.7104 -112.6 -113.352 89.2144 
-112.143 -110.652 89.8185 -111.495 -107.241 90.3657 -110.323 -103.134 90.791 
-112.381 -115.245 87.5781 -112.468 -116.027 86.5279 -112.22 -113.328 88.6455 
-111.815 -110.89 89.3341 -111.245 -108.022 89.9096 -110.335 -104.387 90.4746 
-109.192 -100.416 90.529 -111.83 -113.852 87.4586 -112.053 -113.871 86.8711 
-111.695 -112.511 88.198 -111.403 -110.379 88.8424 -110.875 -107.961 89.4589 
-110.197 -104.91 90.0519 -109.37 -101.299 90.2065 -108.503 -97.8788 89.6705 
-111.31 -111.449 87.6036 -111.662 -110.995 87.2963 -111.076 -110.852 88.0233 
-110.934 -109.291 88.4941 -110.585 -107.267 89.0722 -109.948 -104.67 89.6418 
-109.245 -101.44 89.7947 -108.542 -98.2641 89.3278 -107.761 -95.5616 88.4967 
-110.715 -108.719 87.7699 -111.115 -108.148 87.5947 -110.339 -108.62 88.0246 
-110.193 -107.64 88.3574 -110.081 -106.022 88.8064 -109.612 -103.834 89.2482 
-108.866 -101.012 89.3237 -108.163 -98.1082 88.8626 -107.487 -95.6588 88.1078 
-106.739 -93.5769 87.3457 -113.428 -106.316 91.3779 -113.989 -109.129 91.0078 
-113.902 -107.022 91.0452 -114.381 -109.807 90.6167 -114.284 -106.732 90.7323 
-114.438 -111.874 90.5016 -114.566 -109.374 90.2444 -114.488 -105.979 90.3446 
-114.721 -112.662 90.0565 -114.654 -114.543 89.5767 -114.582 -108.49 89.7549 
-114.188 -105.439 90.022 -114.719 -112.221 89.4492 -114.854 -115.318 88.774 
-114.518 -116.55 87.9411 -114.246 -107.547 89.4719 -113.407 -104.438 89.7989 
-114.607 -110.916 88.8786 -114.809 -114.641 87.9862 -114.702 -117.028 86.8536 
-113.967 -117.465 86.2824 -113.604 -105.863 89.3808 -112.674 -102.13 89.2564 
-114.264 -109.062 88.8133 -114.601 -112.532 87.8318 -114.739 -115.805 86.6148 
-114.212 -117.278 85.6888 -113.232 -117.082 85.7121 -112.904 -102.996 88.9299 
-112.203 -98.9993 88.1653 -113.662 -106.559 88.8994 -114.099 -109.675 88.2373 
-114.391 -112.926 87.3145 -114.285 -115.292 86.4046 -113.529 -115.813 85.911 
-112.677 -115.13 86.1611 -112.229 -99.4879 87.8684 -111.837 -96.0702 86.7246 
-112.891 -103.179 88.4837 -113.39 -106.382 88.42 -113.661 -109.315 88.0051 
-113.775 -111.903 87.5106 -113.48 -113.156 86.9582 -112.874 -112.972 86.639 
-112.275 -112.118 86.8268 -111.674 -96.2848 86.3554 -111.538 -93.8703 85.1677 
[...]
CELL_DATA 2000
SCALARS Distance double
LOOKUP_TABLE default
148.078 148.598 148.51 148.927 149.274 149.118 149.605 149.503 150.058 
150.195 149.93 150.478 150.309 150.94 150.79 151.428 151.324 150.984 
151.549 151.308 151.968 151.769 152.446 152.256 152.968 152.495 152.158 
152.708 152.439 153.085 152.856 153.558 153.348 154.131 153.943 154.814 
153.631 153.315 153.881 153.61 154.281 154.026 154.766 154.527 155.376 
155.191 156.14 155.952 156.891 154.79 154.473 155.089 154.812 155.548 
155.289 156.091 155.823 156.692 156.484 157.445 157.286 158.233 158.025 
158.883 155.975 155.677 156.322 156.051 156.795 156.569 157.385 157.165 
158.022 157.817 158.733 158.569 159.504 159.326 160.208 159.973 160.817 
157.078 156.849 157.493 157.264 157.964 157.766 158.525 158.368 159.199 
159.072 159.986 159.852 160.804 160.621 161.557 161.323 162.245 161.974 
162.89 147.673 147.218 147.694 148.187 146.806 147.286 147.864 148.289 
148.856 146.551 146.966 147.633 148.05 148.689 149.07 149.752 146.575 
146.842 147.516 147.891 148.587 148.967 149.679 150.083 150.865 146.866 
146.999 147.599 147.85 148.498 148.861 149.578 150.016 150.807 151.252 
152.047 147.118 147.287 147.818 147.998 148.558 148.808 149.475 149.883 
150.69 151.176 152 152.428 153.19 147.15 147.406 147.943 148.186 
148.764 148.956 149.606 149.875 150.677 151.084 151.953 152.384 153.191 
153.57 154.328 147.269 147.438 148.041 148.29 148.964 149.194 149.901 
150.12 150.909 151.197 152.053 152.401 153.231 153.589 154.367 154.727 
155.488 147.758 147.752 148.392 148.512 149.217 149.419 150.141 150.391 
151.151 151.449 152.251 152.567 153.352 153.668 154.421 154.762 155.503 
155.87 156.586 148.355 149.459 148.913 148.956 150.462 149.992 150.053 
149.563 149.704 151.517 151.012 151.131 150.641 150.781 150.334 150.568 
152.841 152.23 152.426 151.832 152.016 151.454 151.697 151.259 151.591 
154.256 153.644 153.897 153.291 153.543 152.861 153.103 152.5 152.845 
152.374 152.736 155.596 155 155.211 154.721 155.023 154.451 154.696 
154.029 154.297 153.715 154.049 153.541 153.842 156.855 156.275 156.402 
155.934 156.243 155.822 156.128 155.574 155.792 155.182 155.424 154.873 
155.149 154.625 154.889 157.89 157.441 157.577 157.119 157.45 157.042 
157.444 156.952 157.238 156.632 156.854 156.256 156.514 155.958 156.237 
155.691 155.965 158.698 158.391 158.66 158.295 158.723 158.336 158.829 
158.346 158.726 158.11 158.379 157.728 157.992 157.376 157.655 157.072 
157.343 156.781 157.036 157.804 158.145 158.35 159.134 158.52 158.739 
159.582 159.772 160.686 158.922 159.171 160.114 160.307 161.292 161.482 
162.563 159.318 159.597 160.605 160.874 161.947 162.173 163.313 163.514 
164.669 159.666 159.989 160.973 161.309 162.403 162.772 163.98 164.296 
165.505 165.676 166.831 159.812 160.27 161.256 161.636 162.676 163.107 
164.334 164.838 166.146 166.496 167.721 167.884 169.176 159.667 160.263 
161.323 161.859 162.923 163.36 164.532 165.076 166.449 167.015 168.383 
168.739 170.084 170.359 171.892 159.423 160.003 161.071 161.795 162.98 
163.572 164.729 165.253 166.554 167.208 168.687 169.297 170.775 171.207 
172.724 173.135 174.724 159.274 159.73 160.697 161.459 162.72 163.517 
164.758 165.379 166.581 167.233 168.657 169.458 171.057 171.764 173.334 
173.862 175.368 175.818 177.183 157.842 159.2 158.455 158.336 160.79 
159.943 159.874 159.013 158.871 162.699 161.722 161.704 160.703 160.569 
159.598 159.45 164.786 163.768 163.791 162.704 162.6 161.466 161.319 
160.274 160.18 166.951 165.913 165.989 164.885 164.879 163.68 163.625 
162.398 162.355 161.181 161.114 169.484 168.31 168.586 167.302 167.464 
166.144 166.255 164.934 164.995 163.643 163.582 162.227 162.05 172.477 
171.249 171.874 170.382 170.766 169.13 169.335 167.778 167.882 166.42 
166.351 164.866 164.606 163.146 162.836 175.404 174.401 175.223 173.923 
174.455 172.789 172.969 171.15 171.118 169.407 169.252 167.658 167.368 
165.8 165.424 163.92 163.562 177.757 177.074 177.796 176.949 177.431 
176.237 176.363 174.76 174.57 172.748 172.417 170.633 170.286 168.614 
168.247 166.624 166.218 164.661 164.259 179.064 180.682 179.636 179.052 
182.015 181.053 180.4 179.444 178.671 183.113 182.261 181.506 180.607 
179.822 178.844 177.728 183.642 183.157 182.426 181.626 180.766 179.862 
178.764 177.611 176.055 183.397 183.353 182.718 182.275 181.341 180.631 
179.455 178.493 176.941 175.658 173.842 182.609 182.847 182.243 182.157 
181.169 180.796 179.545 178.914 177.395 176.384 174.594 173.335 171.563 
181.374 181.842 181.215 181.377 180.375 180.251 179.013 178.679 177.262 
176.609 174.943 173.937 172.156 171.04 169.396 179.701 180.353 179.713 
180.108 179.152 179.256 178.103 177.981 176.665 176.279 174.707 174.022 
172.261 171.398 169.667 168.78 167.225 177.793 178.509 177.869 178.421 
177.537 177.873 176.818 176.943 175.701 175.545 173.993 173.54 171.757 
171.16 169.391 168.759 167.145 166.498 165.089 179.318 180.123 180.234 
181.027 180.428 180.888 181.881 181.908 182.525 180.119 180.901 182.068 
182.589 183.438 183.347 183.689 179.473 180.367 181.515 182.435 183.466 
183.95 184.372 184.202 184.111 178.547 179.586 180.576 181.611 182.62 
183.558 184.137 184.468 184.344 184.156 183.731 176.969 178.4 179.332 
180.47 181.282 182.399 183.073 183.874 183.944 184.083 183.615 183.45 
182.877 174.604 176.436 177.452 178.918 179.595 180.821 181.391 182.525 
182.806 183.423 183.065 183.118 182.422 182.346 181.61 171.846 173.768 
174.773 176.625 177.309 178.811 179.216 180.567 180.836 181.938 181.74 
182.249 181.51 181.63 180.745 180.8 179.913 169.253 170.913 171.706 
173.642 174.31 176.122 176.465 178.054 178.185 179.613 179.47 180.494 
179.868 180.377 179.453 179.703 178.77 178.925 177.997 159.438 160.187 
160.11 160.912 161.218 161.11 162.115 161.995 163.042 162.384 162.325 
163.499 163.397 164.543 164.307 165.228 163.615 163.587 164.91 164.881 
166.152 165.915 166.888 166.435 167.17 165.007 164.939 166.395 166.396 
167.895 167.68 168.869 168.312 169.225 168.534 169.37 166.349 166.368 
167.856 167.952 169.653 169.595 171.113 170.6 171.778 170.959 171.989 
171.091 171.977 167.289 167.534 169.004 169.308 171.088 171.336 173.083 
172.916 174.283 173.658 174.749 173.899 174.817 173.792 174.442 167.892 
168.304 169.875 170.331 172.201 172.654 174.515 174.694 176.136 175.892 
176.931 176.414 177.263 176.516 177.152 176.101 176.499 168.423 168.921 
170.681 171.225 173.225 173.745 175.658 175.974 177.433 177.415 178.416 
178.176 178.984 178.588 179.251 178.561 178.973 177.961 178.194 158.942 
158.38 158.899 159.472 157.601 158.22 158.728 159.461 160.285 156.7 
157.357 157.908 158.661 159.435 160.326 161.317 155.951 156.535 157.109 
157.825 158.599 159.456 160.388 161.357 162.453 155.29 155.867 156.397 
157.054 157.747 158.576 159.451 160.406 161.459 162.536 163.767 154.57 
155.169 155.658 156.309 156.909 157.69 158.462 159.394 160.372 161.483 
162.679 163.887 165.109 153.904 154.438 154.892 155.513 156.087 156.833 
157.55 158.398 159.251 160.293 161.373 162.65 163.818 165.069 166.066 
153.332 153.807 154.207 154.757 155.281 155.989 156.676 157.492 158.245 
159.156 160.042 161.217 162.277 163.601 164.573 165.786 166.598 152.736 
153.216 153.575 154.09 154.533 155.173 155.772 156.567 157.253 158.115 
158.855 159.871 160.779 162.01 162.971 164.209 165.027 166.203 167 
152.469 152.347 152.717 153.343 152.371 152.669 153.367 153.671 154.346 
152.655 152.823 153.558 153.804 154.565 154.803 155.59 153.105 153.211 
153.955 154.134 154.952 155.138 155.973 156.187 157.055 153.562 153.69 
154.468 154.626 155.501 155.647 156.528 156.668 157.579 157.751 158.688 
154.101 154.217 155.085 155.208 156.141 156.275 157.235 157.341 158.334 
158.43 159.48 159.565 160.64 154.798 154.885 155.825 155.908 156.869 
156.978 158 158.123 159.215 159.318 160.456 160.521 161.654 161.687 
162.786 155.507 155.621 156.541 156.657 157.611 157.739 158.79 158.942 
160.096 160.245 161.425 161.532 162.656 162.713 163.76 163.801 164.803 
156.108 156.256 157.126 157.297 158.246 158.443 159.53 159.749 160.95 
161.144 162.346 162.477 163.599 163.671 164.725 164.759 165.794 165.797 
166.819 156.697 158.056 157.475 157.755 159.813 159.044 159.367 158.66 
158.979 161.936 161.046 161.46 160.55 160.941 160.078 160.431 164.319 
163.364 163.884 162.87 163.331 162.312 162.716 161.698 161.999 167.028 
165.98 166.622 165.481 166.007 164.871 165.302 164.165 164.444 163.295 
163.448 169.984 168.94 169.763 168.492 169.123 167.779 168.276 166.934 
167.238 165.885 165.981 164.693 164.713 172.767 171.942 172.93 171.794 
172.576 171.175 171.783 170.227 170.636 168.988 169.142 167.488 167.457 
165.97 165.91 175.048 174.518 175.565 174.801 175.722 174.631 175.366 
173.918 174.408 172.68 172.92 171.029 171.028 169.11 168.956 167.243 
167.093 176.823 176.519 177.538 177.113 178.096 177.468 178.319 177.307 
177.833 176.382 176.59 174.856 174.86 172.924 172.715 170.666 170.322 
168.463 168.184 156.29 156.104 156.65 157.638 155.995 156.522 157.575 
158.145 159.332 155.944 156.464 157.521 158.106 159.327 159.983 161.353 
155.725 156.354 157.373 158.02 159.219 159.94 161.341 162.098 163.635 
155.188 155.956 156.958 157.746 158.935 159.76 161.162 162.021 163.613 
164.47 166.202 154.59 155.337 156.361 157.214 158.442 159.375 160.791 
161.753 163.337 164.338 166.114 167.121 168.991 154.177 154.828 155.869 
156.657 157.911 158.844 160.279 161.293 162.86 163.941 165.694 166.866 
168.773 169.891 171.709 153.838 154.471 155.503 156.25 157.491 158.365 
159.782 160.763 162.315 163.398 165.129 166.344 168.248 169.505 171.37 
172.457 174.044 153.491 154.117 155.142 155.894 157.127 157.977 159.356 
160.287 161.786 162.834 164.515 165.727 167.588 168.895 170.752 171.971 
173.598 174.585 175.893 155.442 154.062 154.895 155.197 152.804 153.529 
153.821 154.658 155.037 151.921 152.419 152.635 153.313 153.64 154.529 
154.967 151.202 151.613 151.672 152.196 152.361 153.129 153.478 154.428 
154.776 150.19 150.693 150.58 151.148 151.137 151.828 151.99 152.874 
153.131 154.083 154.264 148.992 149.465 149.252 149.864 149.801 150.507 
150.559 151.352 151.487 152.382 152.552 153.483 153.66 148.046 148.346 
148.146 148.578 148.548 149.16 149.253 149.947 150.058 150.805 150.966 
151.817 152.061 152.973 153.252 147.417 147.618 147.493 147.721 147.694 
148.089 148.211 148.763 148.931 149.532 149.708 150.394 150.656 151.471 
151.786 152.656 152.946 146.93 147.126 147.059 147.224 147.164 147.406 
147.46 147.869 148.035 148.544 148.733 149.296 149.528 150.202 150.497 
151.266 151.552 152.363 152.628 146.685 146.374 146.628 146.805 146.001 
146.262 146.414 146.703 146.897 145.696 145.902 146.075 146.325 146.569 
146.851 147.171 145.614 145.732 145.978 146.114 146.387 146.591 146.952 
147.251 147.704 145.715 145.796 146.068 146.132 146.329 146.448 146.712 
147.013 147.456 147.848 148.368 145.901 145.96 146.196 146.224 146.283 
146.324 146.405 146.675 147.049 147.53 148.114 148.559 149.156 146.233 
146.198 146.417 146.356 146.384 146.283 146.316 146.398 146.782 147.165 
147.87 148.338 149.073 149.446 150.113 146.779 146.623 146.844 146.672 
146.783 146.554 146.715 146.578 147.078 147.201 148.034 148.32 149.181 
149.465 150.196 150.471 151.141 147.451 147.236 147.461 147.225 147.426 
147.155 147.454 147.243 147.825 147.797 148.655 148.77 149.657 149.781 
150.528 150.659 151.326 151.533 152.21 147.931 148.759 148.195 147.94 
149.864 149.142 148.863 148.225 147.947 151.221 150.39 150.128 149.323 
149.068 148.329 148.108 152.781 151.861 151.651 150.749 150.542 149.666 
149.52 148.7 148.629 154.654 153.595 153.454 152.431 152.272 151.286 
151.161 150.27 150.26 149.439 149.493 156.738 155.639 155.559 154.434 
154.333 153.196 153.062 152.013 151.966 151.104 151.156 150.367 150.417 
158.751 157.74 157.721 156.638 156.609 155.429 155.323 154.094 153.992 
152.913 152.913 152.019 152.029 151.215 151.203 160.72 159.744 159.803 
158.79 158.847 157.748 157.718 156.472 156.36 155.108 155.052 153.935 
153.913 152.9 152.841 151.957 151.95 162.815 161.803 161.921 160.897 
161.008 159.971 160.018 158.864 158.785 157.527 157.432 156.208 156.155 
154.976 154.889 153.767 153.693 152.761 152.813 153.625 154.606 154.485 
155.376 155.913 155.703 156.685 156.479 157.479 157.275 157.119 158.187 
157.963 159.027 158.749 159.776 158.594 158.49 159.633 159.485 160.619 
160.385 161.498 161.168 162.247 159.953 159.857 161.064 160.944 162.192 
162.015 163.297 163.014 164.3 163.863 165.083 161.202 161.216 162.494 
162.439 163.835 163.708 165.222 164.988 166.543 166.137 167.603 166.985 
168.278 162.238 162.385 163.762 163.858 165.415 165.447 167.196 167.097 
168.876 168.555 170.175 169.628 171.013 170.28 171.449 163.213 163.419 
164.921 165.117 166.814 167.017 168.929 169.076 170.989 170.888 172.528 
172.135 173.473 172.897 174.012 173.296 174.226 164.148 164.428 166.017 
166.304 168.064 168.379 170.301 170.649 172.556 172.75 174.343 174.223 
175.456 175.099 176.125 175.613 176.474 175.803 176.482 147.307 146.829 
146.861 146.635 146.735 146.582 146.353 146.374 146.317 146.673 146.545 
146.277 146.238 146.153 146.211 146.226 146.358 146.334 146.007 146.078 
145.953 146.067 146.047 146.147 146.132 146.032 145.947 145.621 145.705 
145.602 145.779 145.802 145.956 145.968 146.044 146.006 145.991 145.739 
145.432 145.399 145.345 145.464 145.545 145.705 145.803 145.912 145.941 
145.959 145.936 146.269 145.87 145.531 145.345 145.257 145.289 145.338 
145.474 145.561 145.729 145.815 145.918 145.951 145.95 145.969 146.76 
146.292 145.949 145.588 145.435 145.29 145.284 145.299 145.333 145.459 
145.538 145.726 145.829 145.951 146.031 146.051 146.157 147.29 146.853 
146.558 146.122 145.953 145.628 145.611 145.412 145.458 145.364 145.439 
145.487 145.625 145.779 145.948 146.079 146.244 146.302 146.489 147.638 
146.927 147.482 148.007 146.538 146.886 147.364 147.928 148.489 146.404 
146.61 147.021 147.427 147.983 148.48 149.041 146.273 146.466 146.819 
147.167 147.697 148.106 148.652 149.089 149.645 146.082 146.26 146.531 
146.896 147.371 147.823 148.347 148.766 149.277 149.719 150.245 145.958 
146.057 146.252 146.548 146.963 147.419 147.952 148.426 148.952 149.384 
149.89 150.309 150.768 145.989 145.991 146.17 146.333 146.731 147.066 
147.645 148.073 148.708 149.113 149.667 150.013 150.459 150.796 151.18 
146.216 146.129 146.337 146.375 146.787 146.981 147.578 147.908 148.611 
148.983 149.602 149.881 150.294 150.527 150.847 151.163 151.517 146.6 
146.472 146.722 146.674 147.098 147.173 147.735 147.947 148.589 148.923 
149.517 149.823 150.191 150.382 150.588 150.821 151.091 151.472 151.85 
148.287 148.645 148.77 149.384 149.077 149.155 149.728 149.832 150.376 
149.604 149.631 150.246 150.265 150.83 150.838 151.428 150.207 150.215 
150.923 150.927 151.616 151.5 152.117 152.037 152.739 150.75 150.786 
151.453 151.583 152.329 152.358 153.007 152.883 153.513 153.449 154.165 
151.174 151.219 151.712 151.91 152.526 152.815 153.442 153.605 154.191 
154.223 154.882 154.887 155.575 151.558 151.58 151.988 152.073 152.567 
152.821 153.421 153.752 154.369 154.644 155.311 155.516 156.224 156.278 
156.88 151.954 151.978 152.433 152.42 152.92 152.981 153.594 153.779 
154.436 154.694 155.361 155.701 156.409 156.727 157.337 157.436 157.861 
152.343 152.401 152.91 152.917 153.436 153.451 154.051 154.133 154.772 
154.89 155.491 155.704 156.329 156.693 157.309 157.635 158.088 158.215 
158.551 155.334 154.657 154.632 153.908 153.894 153.867 153.095 153.16 
152.59 153.278 153.16 152.414 152.377 151.862 152.01 151.727 152.912 
152.744 152.15 151.94 151.492 151.451 151.253 151.38 151.163 152.527 
152.463 152.002 151.858 151.46 151.304 151.061 151.049 150.843 150.829 
150.366 152.035 152.014 151.547 151.601 151.206 151.21 150.856 150.863 
150.549 150.54 150.08 149.919 149.269 151.725 151.557 151.065 151.077 
150.717 150.793 150.427 150.486 150.089 150.145 149.673 149.616 149.012 
148.827 148.25 151.732 151.408 150.943 150.768 150.495 150.432 150.175 
150.093 149.711 149.646 149.174 149.144 148.592 148.516 147.962 147.881 
147.475 151.911 151.544 151.102 150.826 150.582 150.427 150.242 150.053 
149.695 149.434 148.922 148.725 148.181 148.077 147.555 147.516 147.106 
147.147 146.89 
POINT_DATA 1002
SCALARS Distance double
LOOKUP_TABLE default
148.422 147.683 148.132 148.979 148.688 149.385 149.69 149.448 150.15 
150.641 150.656 150.485 151.091 151.583 152.064 151.815 151.675 152.18 
152.637 153.123 153.721 152.987 152.825 153.324 153.755 154.286 154.987 
155.737 154.138 153.932 154.521 155.001 155.543 156.302 157.134 157.803 
155.353 155.09 155.779 156.348 156.927 157.609 158.425 159.142 159.707 
156.592 156.247 157.023 157.585 158.225 158.918 159.676 160.414 161.071 
161.674 157.711 157.279 158.179 158.693 159.298 160.077 160.966 161.774 
162.484 163.18 163.818 147.209 147.745 146.704 147.414 146.305 148.438 
147.185 146.167 148.304 149.329 147.178 146.387 148.19 149.274 150.438 
147.437 146.78 148.188 149.124 150.341 151.645 147.65 146.928 148.374 
149.118 150.188 151.544 152.816 147.643 146.884 148.541 149.384 150.323 
151.522 152.795 153.965 147.791 147.138 148.692 149.664 150.658 151.749 
152.89 154.009 155.13 148.333 147.809 149.056 149.906 150.856 151.943 
153.063 154.107 155.149 156.234 148.929 149.483 149.969 150.528 150.891 
150.153 151.621 152.042 151.247 150.947 153.029 153.457 152.633 152.173 
151.977 154.45 154.866 154.217 153.784 153.357 153.206 155.688 156.237 
155.5 155.357 154.951 154.587 154.358 156.902 157.43 156.619 156.614 
156.418 156.011 155.679 155.414 157.994 158.25 157.84 157.896 157.828 
157.472 157.083 156.785 156.514 158.933 158.915 159.058 159.277 159.318 
159.036 158.634 158.263 157.92 157.598 158.536 158.919 159.948 159.38 
160.451 161.663 159.873 161.094 162.336 163.695 160.288 161.659 163.092 
164.517 165.798 160.649 161.985 163.57 165.285 166.718 167.982 160.846 
162.278 163.771 165.668 167.493 168.958 170.598 160.671 162.458 164.038 
165.797 167.892 169.773 171.53 173.562 160.285 162.263 164.225 165.931 
167.944 170.235 172.327 174.326 176.294 159.979 161.835 164.07 165.988 
167.834 170.203 172.74 174.945 176.844 178.418 159.119 160.763 159.742 
162.744 161.607 160.361 164.868 163.765 162.433 161.167 167.077 166.028 
164.848 163.597 162.303 169.883 168.81 167.561 166.36 165.032 163.415 
173.286 172.472 171.033 169.421 167.871 166.153 164.253 176.368 176.029 
174.879 173.01 170.935 168.956 167 165.025 178.57 178.458 177.815 
176.403 174.309 172.017 169.893 167.853 165.781 180.212 180.133 181.708 
181.327 183.019 179.748 182.447 183.883 180.754 178.974 183.15 183.9 
181.687 179.866 177.465 183.015 183.281 181.994 180.349 178.159 175.213 
182.251 182.299 181.468 180.052 178.243 175.794 172.787 180.982 180.849 
180.421 179.242 177.751 175.802 173.243 170.447 179.237 179.025 178.928 
178.115 176.959 175.296 173.034 170.513 168.045 177.273 177.089 177.105 
176.584 175.763 174.39 172.303 169.942 167.722 165.671 179.33 181.168 
179.878 181.626 179.79 182.855 181.297 179.281 183.293 184.175 180.536 
178.612 182.726 184.393 184.558 179.621 177.416 181.584 183.568 184.461 
184.017 178.17 175.331 180.215 182.061 183.602 183.773 183.055 175.817 
172.677 178.38 180.2 181.925 182.9 182.527 181.688 172.822 170.05 
175.691 177.865 179.593 181.004 181.329 180.685 179.873 169.878 167.837 
172.426 174.823 176.718 178.257 179.163 179.126 178.561 177.885 159.426 
160.931 160.21 162.195 161.256 163.228 163.533 162.369 164.779 165.632 
164.866 163.618 166.342 167.346 167.697 166.341 165.07 167.991 169.365 
169.908 170.083 167.701 166.283 169.539 171.445 172.54 172.897 172.996 
168.625 166.965 170.7 173.041 174.773 175.545 175.814 175.651 169.33 
167.39 171.683 174.237 176.279 177.364 177.891 178.094 177.722 158.49 
158.784 157.87 158.009 156.928 159.396 157.139 156.039 158.582 160.331 
156.434 155.385 157.76 159.46 161.377 155.788 154.7 156.974 158.513 
160.385 162.619 155.022 153.992 156.169 157.589 159.29 161.448 163.976 
154.305 153.42 155.353 156.745 158.322 160.147 162.529 164.951 153.701 
152.877 154.619 155.875 157.413 159.005 160.98 163.326 165.444 153.074 