# vtk DataFile Version 4.0
vtk output
ASCII
DATASET POLYDATA
POINTS 1002 float
-118.394 -97.8195 45.7023 -118.519 -97.711 44.9269 -117.84 -97.7777 45.1301 
-117.709 -97.8702 45.956 -117.161 -97.8803 45.3975 -118.246 -97.92 46.6024 
-117.075 -98.0579 46.2317 -116.627 -98.1784 45.6241 -117.579 -98.0483 46.8755 
-118.151 -98.1955 47.4496 -116.523 -98.4455 46.5284 -116.039 -98.5221 45.9278 
-116.989 -98.3829 47.1309 -117.525 -98.4639 47.6951 -118.073 -98.5884 48.2523 
-115.87 -98.7841 46.9194 -115.255 -98.6641 46.4328 -116.445 -98.8639 47.4048 
-116.98 -98.8987 47.896 -117.495 -98.9285 48.5052 -117.963 -98.9277 49.1545 
-115.146 -99.0132 47.2735 -114.514 -98.7749 46.9191 -115.84 -99.2921 47.65 
-116.48 -99.4315 48.071 -117.003 -99.3829 48.6909 -117.456 -99.2991 49.4571 
-117.925 -99.2862 50.0748 -114.472 -99.3726 47.4606 -113.883 -99.0829 47.2156 
-115.168 -99.6553 47.813 -115.886 -99.8733 48.258 -116.511 -99.8823 48.8701 
-116.998 -99.7527 49.6638 -117.472 -99.683 50.3798 -118.052 -99.7505 50.8535 
-113.735 -99.7672 47.7095 -113.197 -99.4127 47.4997 -114.388 -99.947 48.1062 
-115.087 -100.063 48.6228 -115.804 -100.136 49.2235 -116.429 -100.107 49.9339 
-116.945 -100.046 50.6301 -117.536 -100.052 51.161 -118.22 -100.149 51.5728 
-112.956 -99.9332 48.1819 -112.526 -99.6001 47.8886 -113.546 -100.037 48.6698 
-114.198 -100.051 49.2171 -114.901 -100.124 49.7603 -115.631 -100.191 50.3698 
-116.256 -100.219 50.9922 -116.851 -100.242 51.5147 -117.548 -100.27 51.9534 
-118.218 -100.303 52.3804 -112.347 -99.9523 48.6988 -112.039 -99.7311 48.2866 
-112.845 -99.9898 49.2772 -113.467 -100.012 49.8142 -114.131 -100.158 50.2449 
-114.831 -100.278 50.7628 -115.491 -100.283 51.3938 -116.091 -100.3 51.9548 
-116.754 -100.332 52.4168 -117.457 -100.306 52.8549 -118.019 -100.236 53.2793 
-118.11 -97.51 44.4315 -117.33 -97.5833 44.6929 -117.456 -97.1056 44.1198 
-116.692 -97.2362 44.3483 -116.798 -96.6917 43.7594 -116.692 -97.7811 44.9209 
-116.185 -96.9583 43.7966 -116.417 -96.4645 43.1679 -116.164 -97.567 44.448 
-116.194 -98.1709 45.0512 -115.841 -96.8408 43.0971 -116.097 -96.2625 42.6548 
-115.67 -97.3553 43.8661 -115.621 -98.0018 44.5487 -115.484 -98.4747 45.3708 
-115.332 -96.616 42.7299 -115.491 -95.8861 42.522 -115.148 -97.1263 43.4151 
-114.964 -97.7006 44.1765 -114.793 -98.2923 44.9331 -114.615 -98.5443 45.9896 
-114.652 -96.1371 42.7656 -114.783 -95.389 42.5912 -114.552 -96.717 43.3174 
-114.348 -97.2983 44.0145 -114.109 -98.0067 44.6135 -113.97 -98.4228 45.5416 
-113.911 -98.6131 46.6016 -114.167 -95.5324 42.9341 -114.299 -94.8191 42.6822 
-114.075 -96.1543 43.4227 -113.874 -96.8083 44.0284 -113.544 -97.6507 44.4315 
-113.336 -98.2797 45.0794 -113.312 -98.4627 46.2012 -113.283 -98.7812 47.0649 
-113.972 -94.925 43.1792 -114.049 -94.2242 42.8465 -113.844 -95.5822 43.6191 
-113.563 -96.2821 44.1455 -113.105 -97.1991 44.4543 -112.72 -98.0444 44.7878 
-112.644 -98.3376 45.7369 -112.69 -98.4587 46.8499 -112.631 -98.9649 47.4764 
-113.866 -94.3992 43.5048 -113.894 -93.7365 43.1149 -113.715 -95.0729 43.8944 
-113.347 -95.7764 44.3211 -112.783 -96.6554 44.6196 -112.235 -97.6094 44.7943 
-112.006 -98.1472 45.4034 -112.081 -98.2574 46.5112 -112.15 -98.5502 47.3997 
-112.094 -99.1783 47.8551 -113.702 -93.7778 43.7249 -113.561 -94.4502 44.1021 
-113.273 -93.8769 44.2822 -112.883 -94.5443 44.5358 -112.578 -93.9724 44.667 
-113.174 -95.1632 44.4391 -112.041 -94.6364 44.8789 -111.961 -94.0937 45.1447 
-112.298 -95.2916 44.8041 -112.564 -95.983 44.757 -111.488 -94.7653 45.5274 
-111.645 -94.2771 45.9725 -111.529 -95.4194 45.2548 -111.728 -96.1803 45.1227 
-111.937 -96.9564 44.9671 -111.222 -94.9426 46.4812 -111.421 -94.4761 46.9356 
-111.116 -95.5575 46.0706 -111.214 -96.2855 45.7549 -111.356 -97.0604 45.5122 
-111.566 -97.7385 45.3678 -110.967 -95.1339 47.3702 -111.174 -94.6823 47.7838 
-110.829 -95.7114 46.9891 -110.886 -96.3332 46.6901 -111.05 -96.9908 46.4264 
-111.229 -97.6348 46.2723 -111.561 -98.0609 46.3274 -110.784 -95.3325 48.1882 
-111.065 -94.9249 48.5762 -110.606 -95.8877 47.8125 -110.6 -96.4483 47.6034 
-110.72 -96.9795 47.4863 -110.924 -97.5739 47.3484 -111.254 -98.0856 47.2951 
-111.688 -98.3599 47.355 -110.783 -95.524 49.1056 -111.101 -95.1757 49.4006 
-110.585 -96.0449 48.7426 -110.538 -96.6436 48.4805 -110.521 -97.1855 48.4032 
-110.549 -97.7375 48.331 -110.822 -98.331 48.1647 -111.286 -98.7597 48.0204 
-111.715 -98.9827 47.9373 -110.841 -95.6905 50.0744 -111.128 -95.3837 50.2402 
-110.669 -96.1455 49.8131 -110.657 -96.7776 49.4953 -110.616 -97.4526 49.2671 
-110.442 -98.0421 49.1402 -110.445 -98.616 48.9439 -110.828 -99.1593 48.6555 
-111.319 -99.4966 48.4315 -111.695 -99.6353 48.3313 -111.857 -100.008 48.9371 
-111.512 -100.031 48.9243 -111.793 -100.215 49.7384 -111.085 -99.854 49.0728 
-111.429 -100.24 49.7878 -111.779 -100.42 50.6737 -110.6 -99.388 49.4199 
-111.017 -99.9054 50.0818 -111.427 -100.285 50.9542 -111.792 -100.522 51.8066 
-110.409 -98.8415 49.7756 -110.647 -99.3709 50.5287 -111.098 -99.7975 51.4225 
-111.492 -100.242 52.2669 -111.932 -100.458 52.9985 -110.604 -98.2726 50.04 
-110.566 -98.9139 50.9113 -110.78 -99.3129 51.9012 -111.206 -99.7667 52.7595 
-111.666 -100.187 53.4436 -112.226 -100.356 54.0624 -110.753 -97.5065 50.3497 
-110.683 -98.283 51.2584 -110.627 -98.8761 52.2665 -110.889 -99.3246 53.1727 
-111.392 -99.7705 53.8524 -111.956 -100.073 54.4846 -112.551 -100.212 55.0682 
-110.705 -96.7007 50.7035 -110.704 -97.3921 51.6161 -110.657 -98.1338 52.5464 
-110.778 -98.748 53.4402 -111.18 -99.2376 54.1569 -111.723 -99.6153 54.8063 
-112.292 -99.8243 55.4446 -112.862 -99.9479 55.9387 -110.727 -96.1225 50.9461 
-110.684 -96.6485 51.8474 -110.743 -97.2968 52.6955 -110.917 -97.9517 53.5279 
-111.207 -98.51 54.3037 -111.601 -98.9831 54.9956 -112.093 -99.3241 55.6359 
-112.656 -99.5148 56.1415 -113.227 -99.6513 56.4961 -110.927 -95.7408 51.0603 
-110.798 -96.1661 51.9313 -110.871 -96.6963 52.7187 -111.121 -97.2649 53.465 
-111.383 -97.7695 54.2765 -111.61 -98.2395 55.0857 -111.941 -98.6892 55.7644 
-112.456 -99.0215 56.2527 -113.059 -99.2325 56.5826 -113.622 -99.4123 56.8786 
-112.228 -100.029 49.5765 -112.245 -100.231 50.4157 -112.814 -100.046 50.1849 
-112.299 -100.534 51.316 -112.954 -100.432 50.902 -113.535 -100.297 50.5744 
-112.401 -100.588 52.4879 -113.133 -100.732 51.8693 -113.789 -100.804 51.3216 
-114.255 -100.571 51.0121 -112.65 -100.476 53.6718 -113.315 -100.619 53.1771 
-114.008 -100.859 52.5654 -114.471 -100.844 52.0523 -114.888 -100.516 51.7316 
-112.964 -100.45 54.712 -113.535 -100.567 54.3392 -114.147 -100.627 53.944 
-114.607 -100.628 53.4503 -114.976 -100.491 52.9465 -115.464 -100.349 52.467 
-113.231 -100.325 55.7125 -113.739 -100.644 55.3874 -114.298 -100.7 55.0765 
-114.755 -100.491 54.7188 -115.123 -100.294 54.2258 -115.554 -100.274 53.6537 
-116.119 -100.327 53.0369 -113.533 -100.023 56.4923 -113.947 -100.466 56.3915 
-114.475 -100.778 56.1737 -114.982 -100.696 55.8321 -115.387 -100.37 55.3707 
-115.787 -100.21 54.8374 -116.271 -100.255 54.2331 -116.847 -100.301 53.5412 
-113.907 -99.7393 56.9895 -114.238 -100.127 57.1195 -114.687 -100.553 57.1311 
-115.207 -100.798 56.8888 -115.67 -100.674 56.4311 -116.069 -100.389 55.9254 
-116.483 -100.229 55.4029 -116.946 -100.182 54.7578 -117.469 -100.18 54.0013 
-114.155 -99.4309 57.4446 -114.477 -99.785 57.6302 -114.576 -99.5123 58.2881 
-114.977 -99.8915 58.4371 -114.916 -99.5842 59.1539 -114.867 -100.166 57.8157 
-115.479 -99.9931 59.1568 -115.438 -99.5484 59.6835 -115.493 -100.277 58.4867 
-115.372 -100.591 57.7862 -116.228 -100.025 59.6316 -116.299 -99.4002 59.9094 
-116.203 -100.398 59.0658 -116.089 -100.692 58.3086 -115.9 -100.839 57.4263 
-117.248 -99.9698 59.9001 -117.305 -99.1629 60.0244 -117.142 -100.445 59.5559 
-116.94 -100.743 58.8288 -116.66 -100.895 57.8786 -116.366 -100.716 56.9083 
-118.255 -99.7247 59.9595 -118.202 -98.7905 59.9993 -118.164 -100.373 59.7805 
-117.955 -100.713 59.2195 -117.633 -100.9 58.2706 -117.201 -100.764 57.3013 
-116.799 -100.419 56.3857 -119.003 -99.2065 59.8365 -118.856 -98.3249 59.7856 
-118.976 -100.033 59.6981 -118.849 -100.587 59.227 -118.677 -100.904 58.3656 
-118.247 -100.846 57.4348 -117.638 -100.448 56.6301 -117.199 -100.168 55.761 
-119.431 -98.5957 59.5464 -119.22 -97.9288 59.3822 -119.479 -99.4046 59.4731 
-119.399 -100.165 59.0344 -119.354 -100.716 58.2301 -119.122 -100.837 57.3335 
-118.487 -100.474 56.5826 -117.868 -100.082 55.854 -117.593 -100.028 54.9701 
-119.606 -98.1435 59.0076 -119.371 -97.689 58.7804 -119.736 -98.7645 59.0578 
-119.701 -99.4924 58.7643 -119.622 -100.142 58.0917 -119.482 -100.433 57.2574 
-119.017 -100.244 56.4997 -118.392 -99.9141 55.8052 -118.074 -99.8565 55.0297 
-118.058 -100.047 54.1487 -113.643 -99.0453 57.1403 -114.119 -99.0393 57.8865 
-113.591 -98.5681 57.5199 -114.008 -98.5081 58.3257 -113.556 -98.0421 57.7824 
-114.438 -99.0735 58.8466 -113.998 -97.9168 58.4353 -113.636 -97.4648 57.7886 
-114.364 -98.4457 59.1211 -114.824 -99.0377 59.5645 -114.135 -97.2099 58.361 
-113.776 -96.7359 57.7246 -114.505 -97.7019 58.9967 -114.986 -98.2793 59.5183 
-115.556 -98.8433 59.8271 -114.31 -96.4016 58.3223 -113.931 -96.0401 57.5705 
-114.716 -96.8417 58.898 -115.28 -97.4324 59.2623 -115.89 -98.0145 59.643 
-116.512 -98.5457 59.9491 -114.541 -95.814 57.997 -114.151 -95.5905 57.1576 
-114.922 -96.0841 58.7403 -115.438 -96.5877 59.1092 -116.119 -97.234 59.3808 
-116.76 -97.7324 59.7824 -117.426 -98.2101 60.0195 -114.82 -95.4402 57.3771 
-114.407 -95.2123 56.6697 -115.233 -95.6441 58.159 -115.631 -95.9339 58.7654 
-116.193 -96.4613 59.1149 -116.89 -97.0282 59.4466 -117.543 -97.4405 59.752 
-118.205 -97.8595 59.8475 -115.03 -95.0057 56.8507 -114.642 -94.7828 56.2604 
-115.521 -95.2838 57.4653 -115.966 -95.5128 58.1348 -116.398 -95.7716 58.7154 
-116.991 -96.233 59.0706 -117.647 -96.7622 59.2769 -118.22 -97.1921 59.4045 
-118.751 -97.5716 59.4405 -115.184 -94.552 56.4107 -114.87 -94.4106 55.8184 
[...]
CELL_DATA 2000
SCALARS Distance double
LOOKUP_TABLE default
158.344 157.949 158.264 158.518 157.713 157.912 158.159 158.45 158.742 
157.673 157.794 158.02 158.185 158.48 158.746 159.077 157.527 157.756 
158.025 158.167 158.463 158.611 158.958 159.159 159.487 157.213 157.537 
157.922 158.181 158.562 158.702 159.054 159.162 159.515 159.64 159.98 
156.98 157.27 157.722 158.049 158.526 158.78 159.179 159.313 159.648 
159.743 160.087 160.199 160.587 156.81 157.096 157.498 157.833 158.248 
158.613 158.99 159.302 159.61 159.823 160.103 160.273 160.606 160.808 
161.225 156.553 156.864 157.176 157.524 157.81 158.199 158.477 158.903 
159.176 159.571 159.813 160.132 160.388 160.692 161.03 161.36 161.728 
156.303 156.557 156.813 157.121 157.376 157.717 157.995 158.367 158.67 
159.053 159.325 159.689 159.933 160.312 160.61 161.023 161.358 161.733 
161.98 158.095 157.399 157.75 157.685 156.517 156.964 157.021 157.391 
157.457 155.785 156.139 156.285 156.72 156.928 157.295 157.429 155.307 
155.565 155.682 156.047 156.277 156.723 156.903 157.243 157.258 154.722 
155.082 155.135 155.476 155.582 156.018 156.162 156.602 156.622 156.939 
156.884 153.885 154.35 154.412 154.837 154.876 155.279 155.345 155.792 
155.854 156.245 156.24 156.563 156.602 153.104 153.511 153.632 154.068 
154.184 154.567 154.632 155.006 155.081 155.482 155.549 155.916 155.97 
156.334 156.426 152.575 152.888 153.073 153.41 153.6 153.938 154.049 
154.36 154.416 154.763 154.834 155.218 155.291 155.676 155.751 156.138 
156.212 152.216 152.502 152.74 152.999 153.178 153.442 153.539 153.808 
153.834 154.131 154.165 154.52 154.598 154.984 155.087 155.469 155.577 
155.933 156.021 152.135 152.152 152.345 152.664 151.877 152.216 152.512 
152.767 153.023 151.45 151.791 152.062 152.445 152.705 153.028 153.28 
151.281 151.43 151.695 151.986 152.306 152.642 152.944 153.259 153.543 
151.409 151.422 151.683 151.808 152.181 152.388 152.765 152.985 153.318 
153.562 153.886 151.597 151.583 151.797 151.884 152.228 152.4 152.791 
152.949 153.298 153.448 153.79 153.985 154.342 151.857 151.769 151.917 
151.959 152.236 152.417 152.784 152.985 153.338 153.492 153.84 153.988 
154.355 154.515 154.874 152.257 152.089 152.212 152.128 152.387 152.453 
152.837 152.987 153.378 153.527 153.905 154.063 154.459 154.604 154.972 
155.083 155.404 152.679 152.522 152.665 152.523 152.8 152.748 153.169 
153.193 153.625 153.66 154.044 154.139 154.546 154.708 155.109 155.228 
155.544 155.61 155.871 156.073 155.804 156.071 156.32 155.388 155.767 
156.06 156.346 156.618 154.819 155.261 155.578 155.998 156.318 156.651 
156.952 154.365 154.733 155.068 155.472 155.845 156.271 156.648 156.996 
157.336 154.047 154.404 154.794 155.09 155.474 155.826 156.263 156.659 
157.081 157.41 157.792 153.637 154.082 154.522 154.877 155.245 155.546 
155.937 156.3 156.74 157.124 157.537 157.876 158.259 153.216 153.632 
154.058 154.503 154.864 155.253 155.587 155.97 156.357 156.763 157.169 
157.559 157.932 158.293 158.627 152.991 153.265 153.637 154.014 154.378 
154.783 155.128 155.544 155.914 156.344 156.735 157.153 157.524 157.913 
158.244 158.597 158.885 152.922 153.091 153.391 153.663 154.017 154.354 
154.735 155.103 155.493 155.889 156.272 156.688 157.049 157.466 157.803 
158.192 158.499 158.839 159.117 156.312 156.516 156.506 156.755 156.835 
156.759 156.988 156.993 157.306 157.227 157.144 157.447 157.366 157.716 
157.651 157.999 157.631 157.566 157.954 157.918 158.378 158.256 158.613 
158.421 158.721 158.099 158.012 158.404 158.411 158.911 158.914 159.283 
159.103 159.271 159.08 159.302 158.613 158.537 158.927 158.881 159.322 
159.345 159.685 159.619 159.723 159.554 159.638 159.575 159.843 159.003 
159.023 159.443 159.424 159.84 159.785 160.095 159.972 160.106 159.923 
160.027 159.91 160.179 160.174 160.561 159.241 159.329 159.756 159.85 
160.303 160.313 160.67 160.507 160.704 160.426 160.593 160.377 160.676 
160.595 160.997 160.969 161.352 159.46 159.537 159.949 160.08 160.559 
160.688 161.137 161.109 161.401 161.158 161.344 161.057 161.299 161.134 
161.45 161.394 161.693 161.679 161.932 159.734 160.376 160.101 160.24 
161.071 160.807 160.969 160.677 160.866 161.678 161.505 161.721 161.449 
161.638 161.347 161.49 162.208 162.106 162.398 162.186 162.393 162.118 
162.231 161.894 161.833 162.771 162.706 163.102 162.896 163.154 162.863 
162.974 162.617 162.534 162.087 161.842 163.273 163.316 163.817 163.668 
163.986 163.678 163.823 163.409 163.335 162.817 162.567 162.039 161.784 
163.522 163.724 164.237 164.287 164.612 164.46 164.626 164.297 164.244 
163.696 163.387 162.776 162.452 161.989 161.82 163.48 163.788 164.211 
164.458 164.707 164.81 164.917 164.885 164.829 164.517 164.131 163.549 
163.031 162.545 162.256 161.994 161.923 163.226 163.57 163.888 164.22 
164.385 164.624 164.627 164.817 164.698 164.742 164.34 164.041 163.388 
162.96 162.487 162.269 162.157 162.073 162.096 159.551 159.412 159.713 
160.171 159.159 159.526 159.999 160.342 160.811 158.827 159.219 159.659 
160.072 160.525 160.921 161.355 158.403 158.822 159.201 159.647 160.072 
160.537 160.971 161.392 161.817 157.891 158.318 158.656 159.121 159.532 
160.037 160.498 160.966 161.395 161.825 162.28 157.478 157.825 158.169 
158.573 158.984 159.478 159.976 160.491 160.95 161.386 161.784 162.249 
162.697 157.235 157.515 157.895 158.202 158.613 158.991 159.467 159.958 
160.457 160.935 161.333 161.747 162.103 162.588 162.964 156.996 157.291 
157.675 157.998 158.411 158.719 159.121 159.492 159.938 160.412 160.851 
161.295 161.638 162.032 162.327 162.773 163.023 156.702 156.996 157.329 
157.712 158.115 158.49 158.855 159.178 159.515 159.905 160.292 160.764 
161.127 161.556 161.812 162.187 162.366 162.755 162.868 152.983 153.165 
153.168 153.407 153.435 153.39 153.671 153.685 154.024 153.856 153.754 
154.072 154.033 154.419 154.396 154.769 154.277 154.21 154.529 154.493 
154.887 154.851 155.227 155.168 155.524 154.593 154.575 154.886 154.908 
155.274 155.289 155.632 155.605 155.917 155.894 156.247 154.987 154.901 
155.217 155.22 155.587 155.619 155.958 155.956 156.251 156.239 156.569 
156.6 156.986 155.546 155.387 155.687 155.603 155.968 155.949 156.332 
156.309 156.661 156.605 156.96 156.936 157.341 157.361 157.76 156.071 
155.954 156.218 156.11 156.425 156.366 156.75 156.735 157.156 157.105 
157.509 157.42 157.831 157.775 158.188 158.153 158.502 156.438 156.401 
156.665 156.599 156.873 156.807 157.132 157.133 157.546 157.584 158.014 
157.99 158.385 158.314 158.697 158.626 158.974 158.885 159.16 152.812 
152.662 152.825 152.993 152.462 152.677 152.863 153.015 153.232 152.146 
152.429 152.649 152.868 153.098 153.309 153.614 151.865 152.097 152.314 
152.584 152.846 153.14 153.462 153.725 154.034 151.837 151.927 152.14 
152.296 152.589 152.869 153.261 153.56 153.901 154.113 154.375 151.981 
152.023 152.274 152.301 152.599 152.732 153.158 153.407 153.834 154.03 
154.345 154.479 154.783 152.07 152.177 152.46 152.513 152.781 152.84 
153.173 153.359 153.775 154.002 154.38 154.528 154.866 154.988 155.35 
152.042 152.209 152.491 152.634 152.871 152.964 153.178 153.328 153.622 
153.884 154.247 154.516 154.872 155.073 155.407 155.562 155.874 151.978 
152.143 152.401 152.582 152.812 152.957 153.156 153.283 153.516 153.705 
154.016 154.296 154.653 154.959 155.29 155.536 155.806 155.988 156.221 
152.056 152.324 152.252 152.432 152.672 152.508 152.626 152.621 152.819 
153.215 152.912 152.996 152.873 153.099 153.05 153.24 153.951 153.571 
153.675 153.403 153.676 153.496 153.742 153.535 153.684 154.701 154.356 
154.464 154.163 154.398 154.184 154.422 154.161 154.276 154.005 154.148 
155.412 155.087 155.154 154.875 155.007 154.83 155.008 154.814 154.905 
154.628 154.714 154.505 154.73 156.173 155.814 155.854 155.519 155.608 
155.374 155.564 155.375 155.559 155.283 155.409 155.118 155.302 155.123 
155.378 156.931 156.593 156.643 156.263 156.349 156.028 156.248 156.018 
156.319 156.049 156.277 155.913 156.066 155.747 155.917 155.727 155.909 
157.557 157.304 157.372 157.049 157.113 156.792 156.946 156.723 156.994 
156.82 157.072 156.798 156.918 156.549 156.606 156.293 156.388 156.194 
156.324 157.88 158.291 157.979 157.725 158.68 158.37 158.126 157.792 
157.503 159.164 158.791 158.555 158.199 157.945 157.582 157.346 159.811 
159.367 159.153 158.715 158.468 158.054 157.849 157.504 157.374 160.453 
160.034 159.828 159.391 159.16 158.675 158.432 158.02 157.877 157.576 
157.448 160.978 160.614 160.395 160.027 159.825 159.395 159.142 158.664 
158.428 158.053 157.872 157.567 157.311 161.488 161.137 160.96 160.582 
160.4 160.011 159.791 159.351 159.085 158.64 158.376 157.983 157.692 
157.325 156.989 162.034 161.698 161.592 161.205 161.041 160.614 160.38 
159.945 159.675 159.254 158.98 158.547 158.238 157.776 157.435 157.015 
156.728 162.585 162.264 162.158 161.822 161.654 161.26 160.988 160.534 
160.201 159.776 159.478 159.104 158.817 158.385 158.047 157.559 157.244 
156.833 156.623 158.029 158.418 158.312 158.474 158.872 158.75 158.934 
158.765 158.891 159.294 159.198 159.39 159.248 159.391 159.203 159.365 
159.714 159.583 159.758 159.66 159.838 159.711 159.919 159.761 160.004 
160.371 160.114 160.297 160.071 160.273 160.138 160.41 160.318 160.618 
160.461 160.687 161.108 160.906 161.151 160.8 160.971 160.67 160.908 
160.783 161.105 161.032 161.28 161.092 161.221 161.485 161.516 161.765 
161.603 161.693 161.412 161.502 161.299 161.511 161.442 161.683 161.594 
161.736 161.552 161.659 161.598 161.686 161.822 161.87 161.858 161.843 
161.846 161.784 161.908 161.837 162.046 161.961 162.147 162.011 162.157 
161.99 162.154 161.8 161.761 161.759 161.732 161.627 161.705 161.737 
161.892 162.107 162.185 162.455 162.388 162.622 162.467 162.669 162.494 
162.698 162.524 162.725 157.794 157.492 157.807 158.149 157.162 157.489 
157.846 158.191 158.583 156.848 157.171 157.556 157.903 158.337 158.671 
159.056 156.552 156.879 157.299 157.653 158.142 158.479 158.933 159.176 
159.544 156.245 156.592 157.028 157.408 157.928 158.308 158.813 159.102 
159.519 159.719 160.146 155.909 156.278 156.723 157.125 157.619 158.041 
158.524 158.916 159.314 159.628 159.99 160.307 160.735 155.584 155.941 
156.385 156.797 157.258 157.678 158.109 158.533 158.906 159.296 159.589 
159.969 160.279 160.727 161.069 155.336 155.639 156.054 156.443 156.884 
157.288 157.704 158.105 158.512 158.89 159.236 159.546 159.83 160.182 
160.518 160.956 161.283 155.186 155.429 155.81 156.133 156.553 156.917 
157.327 157.71 158.154 158.555 159.021 159.324 159.69 159.885 160.216 
160.496 160.903 161.252 161.606 155.243 155.579 155.552 155.876 155.997 
155.958 156.299 156.244 156.599 156.425 156.422 156.787 156.702 157.016 
156.967 157.332 156.81 156.854 157.243 157.179 157.458 157.38 157.733 
157.733 158.172 157.166 157.215 157.603 157.587 157.868 157.803 158.176 
158.183 158.705 158.694 159.141 157.534 157.534 157.87 157.89 158.208 
158.202 158.614 158.652 159.216 159.262 159.75 159.639 159.885 157.948 
157.88 158.139 158.13 158.467 158.526 158.964 159.058 159.555 159.675 
160.116 160.144 160.393 160.244 160.38 158.328 158.27 158.49 158.426 
158.74 158.791 159.218 159.332 159.71 159.84 160.135 160.292 160.561 
160.634 160.877 160.772 161.015 158.52 158.571 158.801 158.777 159.062 
159.088 159.468 159.547 159.85 159.899 160.074 160.181 160.432 160.656 
161.042 161.191 161.548 161.478 161.72 158.6 158.816 158.818 158.968 
159.067 159.074 159.327 159.22 159.337 159.352 159.347 159.631 159.605 
159.813 159.652 159.756 159.66 159.606 159.827 159.858 160.09 160.07 
160.186 160.033 160.048 160.094 159.927 160.075 160.028 160.262 160.293 
160.481 160.392 160.399 160.208 160.185 160.754 160.48 160.625 160.387 
160.594 160.515 160.784 160.718 160.861 160.631 160.677 160.423 160.562 
161.514 161.264 161.492 161.128 161.279 160.983 161.157 161.036 161.215 
161.106 161.258 161.059 161.276 161.033 161.289 162.065 161.986 162.269 
162.025 162.145 161.764 161.75 161.439 161.426 161.323 161.408 161.451 
161.662 161.685 161.927 161.774 161.885 162.238 162.328 162.534 162.554 
162.628 162.463 162.359 162.027 161.842 161.553 161.463 161.421 161.511 
161.709 161.883 162.078 162.154 162.113 162.019 162.006 162.014 161.961 
161.753 161.743 161.799 161.571 161.579 161.48 161.517 161.574 161.578 
161.519 161.564 161.518 161.696 161.622 161.587 161.862 161.796 162.108 
161.936 162.248 162.055 162.311 162.016 161.886 162.153 162.165 162.533 
162.543 162.883 162.761 162.991 162.734 162.801 162.426 162.268 162.294 
162.31 162.465 162.676 162.919 163.115 163.306 163.303 163.343 163.097 
162.986 162.597 162.5 162.342 162.294 162.3 162.455 162.687 162.94 
163.221 163.391 163.558 163.513 163.485 163.204 163.042 162.5 162.49 
162.317 162.267 162.32 162.401 162.8 162.932 163.406 163.443 163.78 
163.725 163.876 163.681 163.626 163.268 163.1 162.273 162.33 162.237 
162.235 162.373 162.509 163.051 163.261 163.897 163.91 164.309 164.142 
164.341 164.13 164.177 163.869 163.744 163.333 163.133 151.887 152.365 
151.963 151.691 153.004 152.577 152.445 151.96 151.838 153.815 153.342 
153.278 152.807 152.743 152.258 152.26 154.656 154.215 154.137 153.674 
153.611 153.15 153.108 152.702 152.744 155.261 154.969 154.908 154.517 
154.443 154 153.941 153.51 153.493 153.134 153.159 155.772 155.506 
155.516 155.209 155.166 154.79 154.728 154.322 154.293 153.896 153.902 
153.525 153.545 156.563 156.172 156.258 155.867 155.877 155.483 155.43 
155.051 155.014 154.662 154.67 154.307 154.334 153.948 153.997 157.502 
157.112 157.223 156.76 156.782 156.29 156.256 155.79 155.772 155.374 
155.412 155.059 155.112 154.749 154.792 154.426 154.488 158.209 157.967 
158.035 157.681 157.651 157.216 157.167 156.699 156.698 156.237 156.3 
155.872 155.953 155.545 155.592 155.201 155.227 154.881 154.923 151.565 
151.266 151.216 150.983 151.359 151.056 150.777 150.754 150.727 151.844 
151.363 151.038 150.755 150.709 150.705 150.814 152.433 151.975 151.645 
151.189 150.954 150.758 150.723 150.784 150.83 152.859 152.522 152.212 
151.792 151.373 150.99 150.623 150.552 150.427 150.643 150.706 153.197 
152.878 152.572 152.242 151.833 151.383 150.867 150.49 150.173 150.182 
150.238 150.546 150.772 153.656 153.259 152.963 152.595 152.296 151.863 
151.489 150.942 150.621 150.23 150.23 150.23 150.508 150.742 151.019 
154.2 153.796 153.544 153.108 152.873 152.429 152.203 151.696 151.483 
150.955 150.891 150.558 150.738 150.688 150.975 151.073 151.305 154.676 
154.345 154.146 153.75 153.547 153.105 152.912 152.453 152.285 151.822 
151.727 151.325 151.381 151.127 151.321 151.218 151.449 151.439 151.65 
151.729 151.162 151.559 151.772 150.84 151.045 151.204 151.533 151.574 
150.833 150.837 150.839 151 151.018 151.262 151.224 150.887 150.86 
150.736 150.711 150.635 150.78 150.814 151.014 151.091 150.923 150.918 
150.837 150.682 150.52 150.498 150.517 150.689 150.844 151.047 151.224 
151.059 151.051 151.104 150.896 150.748 150.528 150.469 150.48 150.624 
150.818 151.043 151.247 151.446 151.235 151.246 151.368 151.235 151.174 
150.896 150.809 150.603 150.69 150.701 150.961 151.11 151.408 151.54 
151.779 151.43 151.413 151.545 151.49 151.524 151.341 151.313 151.06 
151.121 150.957 151.204 151.198 151.559 151.62 151.951 151.977 152.224 
151.728 151.642 151.79 151.711 151.824 151.692 151.741 151.546 151.599 
151.426 151.603 151.544 151.856 151.877 152.201 152.213 152.459 152.443 
152.633 157.502 156.899 157.218 157.195 156.147 156.535 156.53 156.871 
156.842 155.346 155.722 155.689 156.108 156.107 156.499 156.496 154.618 
154.938 154.852 155.226 155.229 155.691 155.755 156.168 156.193 153.937 
154.258 154.192 154.465 154.438 154.828 154.936 155.402 155.495 155.873 
155.885 153.262 153.604 153.602 153.868 153.798 154.095 154.13 154.582 
154.7 155.147 155.18 155.539 155.529 152.669 152.957 152.943 153.245 
153.134 153.42 153.325 153.739 153.788 154.298 154.369 154.804 154.813 
155.18 155.202 152.204 152.387 152.278 152.546 152.399 152.684 152.537 
152.892 152.873 153.355 153.453 153.956 154.047 154.47 154.535 154.901 
154.979 151.857 151.934 151.737 151.899 151.713 151.945 151.806 152.113 
152.09 152.495 152.595 153.071 153.219 153.692 153.826 154.247 154.364 
154.73 154.844 
POINT_DATA 1002
SCALARS Distance double
LOOKUP_TABLE default
158.599 158.417 158.017 158.177 157.656 158.779 157.906 157.579 158.396 
159.052 157.901 157.542 158.255 158.792 159.389 157.828 157.216 158.348 
158.788 159.296 159.777 157.57 156.856 158.368 158.973 159.402 159.849 
160.316 157.386 156.7 158.21 159 159.565 159.98 160.434 161.013 
157.203 156.529 157.906 158.629 159.342 159.926 160.406 160.979 161.683 
156.861 156.271 157.465 158.064 158.74 159.449 160.067 160.693 161.42 
162.083 156.54 156.101 157.041 157.624 158.298 158.973 159.555 160.179 
160.959 161.697 162.161 157.852 157.383 156.964 156.546 156.042 157.136 
155.83 155.483 156.48 157.17 155.385 155.055 155.833 156.521 157.02 
154.807 154.306 155.213 155.702 156.265 156.583 153.939 153.41 154.492 
154.924 155.41 155.89 156.251 153.185 152.718 153.773 154.287 154.687 
155.15 155.611 156.051 152.761 152.248 153.274 153.754 154.109 154.455 
154.898 155.367 155.836 152.5 151.902 152.962 153.3 153.564 153.832 
154.209 154.692 155.206 155.691 152.005 152.532 151.92 152.198 151.516 
152.808 151.66 151.175 152.33 152.98 151.455 151.214 151.971 152.62 
153.235 151.598 151.418 151.999 152.575 153.102 153.62 151.735 151.64 
152.059 152.628 153.171 153.624 154.13 151.934 151.998 152.084 152.566 
153.16 153.685 154.212 154.726 152.335 152.439 152.369 152.711 153.238 
153.738 154.293 154.874 155.318 152.794 152.806 152.866 153.167 153.632 
154.007 154.388 154.96 155.494 155.823 156.295 156.096 156.569 155.711 
156.373 156.912 155.112 155.912 156.67 157.276 154.701 155.393 156.234 
157.045 157.69 154.505 155.178 155.854 156.703 157.499 158.191 154.113 
154.952 155.611 156.348 157.173 157.941 158.648 153.618 154.447 155.199 
155.954 156.77 157.566 158.291 158.943 153.314 153.981 154.708 155.481 
156.31 157.125 157.882 158.559 159.154 153.167 153.695 154.376 155.122 
155.877 156.631 157.392 158.135 158.804 159.395 156.686 157.025 157.254 
157.495 157.821 158.075 157.93 158.441 158.873 158.891 158.42 158.865 
159.431 159.547 159.378 159.002 159.361 159.744 159.885 159.742 159.796 
159.419 159.91 160.251 160.291 160.147 160.195 160.548 159.626 160.223 
160.779 160.981 160.841 160.792 161.044 161.402 159.831 160.392 161.065 
161.57 161.655 161.539 161.569 161.739 161.941 159.976 160.498 160.656 
161.268 161.291 161.142 161.958 161.787 161.938 161.837 162.575 162.263 
162.663 162.581 162.276 163.281 162.77 163.452 163.347 162.994 162.333 
163.899 163.152 164.272 164.237 163.887 163.124 162.246 164.121 163.295 
164.692 164.873 164.769 164.078 162.958 162.153 163.95 163.195 164.564 
164.866 165.015 164.705 163.611 162.525 162.091 163.567 162.919 164.147 
164.446 164.573 164.509 163.808 162.746 162.193 162.189 159.283 159.883 
159.071 159.627 158.782 160.488 159.249 158.452 160.102 160.987 158.766 
157.992 159.591 160.523 161.403 158.198 157.484 159.007 159.998 160.974 
161.81 157.795 157.158 158.514 159.431 160.501 161.376 162.169 157.595 
156.953 158.297 159.028 159.944 160.928 161.697 162.446 157.326 156.708 
158.104 158.833 159.505 160.365 161.262 161.956 162.58 156.955 156.444 
157.707 158.535 159.198 159.845 160.667 161.452 162.027 162.492 152.978 
153.36 153.158 153.653 153.495 154.001 154.115 153.959 154.448 154.811 
154.556 154.317 154.918 155.296 155.574 154.852 154.613 155.251 155.656 
155.946 156.233 155.24 155.11 155.56 155.953 156.268 156.54 156.937 
155.812 155.717 156.01 156.335 156.709 157.009 157.332 157.756 156.334 
156.162 156.51 156.755 157.162 157.598 157.921 158.24 158.568 152.654 
152.846 152.486 152.702 152.2 153.044 152.386 151.854 152.862 153.389 
152.053 151.692 152.506 153.173 153.827 152.039 151.781 152.332 152.929 
153.681 154.197 152.252 151.911 152.533 152.935 153.61 154.213 154.629 
152.371 151.929 152.758 153.055 153.533 154.183 154.745 155.226 152.328 
151.87 152.775 153.082 153.398 153.938 154.621 155.25 155.745 152.231 