# vtk DataFile Version 4.0
vtk output
ASCII
DATASET POLYDATA
POINTS 1002 float
-117.698 -100.6 69.5578 -112.96 -92.8687 69.5682 -112.781 -103.38 69.9979 
-107.233 -96.5779 70.2787 -114.213 -97.1622 65.5269 -110.258 -99.6076 65.8746 
-114.457 -97.1746 74.4817 -111.627 -99.0441 74.4802 -107.197 -90.7651 66.9229 
-117.225 -106.413 66.5263 -109.016 -91.5691 73.0491 -116.998 -105.811 72.9347 
-117.387 -99.8407 69.6206 -117.089 -98.8793 69.681 -116.903 -97.838 69.7618 
-116.482 -97.0725 69.776 -115.684 -96.5254 69.7128 -114.991 -95.7429 69.663 
-114.551 -94.7581 69.6136 -114.051 -93.9507 69.5523 -113.465 -93.3733 69.5398 
-117.798 -100.321 69.2066 -117.776 -100.064 68.7416 -117.569 -99.7749 68.1509 
-117.288 -99.3375 67.5362 -117.006 -98.864 66.9858 -116.614 -98.5279 66.555 
-116.014 -98.2323 66.2656 -115.333 -97.8599 66.0305 -114.736 -97.4744 65.7726 
-117.477 -100.376 69.9952 -117.301 -100.016 70.5657 -117.055 -99.6192 71.1866 
-116.679 -99.3291 71.6777 -116.217 -99.0969 72.0332 -115.692 -98.8074 72.4298 
-115.187 -98.479 72.9044 -114.847 -98.0976 73.4123 -114.648 -97.6326 73.9611 
-117.98 -101.143 69.2419 -118.179 -101.768 68.8792 -118.321 -102.501 68.5353 
-118.43 -103.322 68.198 -118.455 -104.263 67.7371 -118.464 -105.225 67.2355 
-118.481 -105.95 66.9213 -118.298 -106.333 66.7729 -117.828 -106.452 66.6506 
-117.708 -101.243 69.696 -117.669 -101.958 69.8782 -117.706 -102.727 70.2048 
-117.762 -103.519 70.6297 -117.709 -104.193 71.0067 -117.634 -104.687 71.4173 
-117.664 -105.151 71.9846 -117.674 -105.583 72.512 -117.458 -105.81 72.8064 
-113.103 -93.0302 69.1137 -113.173 -93.3975 68.7193 -113.326 -93.7734 68.244 
-113.688 -93.9682 67.5593 -114.01 -94.2683 66.9409 -114.037 -94.9634 66.6618 
-113.968 -95.7344 66.4725 -114.014 -96.2749 66.1349 -114.115 -96.7071 65.7758 
-113.028 -93.1755 70.0559 -113.154 -93.4916 70.5817 -113.408 -93.7175 71.1633 
-113.673 -93.9976 71.8071 -113.866 -94.4445 72.42 -114.04 -94.9438 72.9215 
-114.171 -95.494 73.3598 -114.246 -96.1294 73.7902 -114.342 -96.711 74.179 
-112.605 -92.3876 69.2608 -112.168 -91.8775 68.8901 -111.657 -91.371 68.5408 
-111.128 -90.9169 68.2227 -110.594 -90.5195 67.8452 -109.963 -90.225 67.4796 
-109.149 -90.1634 67.2608 -108.278 -90.2992 67.1348 -107.602 -90.4914 67.0178 
-112.564 -92.5177 69.9068 -112.149 -92.1265 70.2501 -111.775 -91.6194 70.5862 
-111.528 -91.0567 71.039 -111.307 -90.6938 71.6317 -110.899 -90.6388 72.149 
-110.31 -90.7627 72.4842 -109.731 -90.9758 72.732 -109.296 -91.2533 72.9296 
-112.291 -102.774 70.0164 -111.711 -102.113 69.9843 -111.04 -101.463 69.9569 
-110.374 -100.876 70.011 -109.698 -100.332 70.1176 -109.025 -99.6423 70.1997 
-108.545 -98.7007 70.2436 -108.2 -97.7562 70.2511 -107.756 -97.0638 70.2461 
-112.601 -103.194 69.5573 -112.319 -103.017 69.0763 -111.934 -102.824 68.5992 
-111.6 -102.465 68.1652 -111.367 -101.979 67.7123 -111.082 -101.574 67.2081 
-110.759 -101.166 66.776 -110.548 -100.616 66.4645 -110.418 -100.062 66.1762 
-112.605 -103.203 70.4688 -112.414 -102.978 70.9805 -112.304 -102.632 71.4944 
-112.203 -102.208 71.9977 -112.06 -101.739 72.4958 -112.021 -101.158 72.9384 
-112.037 -100.528 73.3002 -111.921 -99.9839 73.6684 -111.737 -99.5136 74.0905 
-113.156 -103.868 69.6728 -113.561 -104.396 69.3041 -114.01 -104.941 68.9225 
-114.491 -105.461 68.5476 -115.009 -105.876 68.155 -115.508 -106.219 67.714 
-115.905 -106.538 67.2516 -116.283 -106.706 66.8687 -116.742 -106.639 66.6403 
-113.225 -103.812 70.2322 -113.755 -104.235 70.4895 -114.233 -104.709 70.7806 
-114.613 -105.2 71.1115 -115.032 -105.638 71.4776 -115.48 -106.001 71.8158 
-115.84 -106.206 72.1048 -116.187 -106.203 72.4053 -116.605 -106.056 72.708 
-107.264 -96.7675 69.8374 -107.229 -97.1121 69.3786 -107.192 -97.5875 68.8599 
-107.423 -97.9658 68.3405 -107.96 -98.2029 67.8907 -108.444 -98.528 67.3953 
-108.761 -98.949 66.8337 -109.172 -99.2619 66.3918 -109.737 -99.4424 66.1104 
-107.553 -96.7222 70.6893 -107.97 -96.8856 71.1152 -108.404 -97.0923 71.5775 
-108.843 -97.3935 72.0562 -109.374 -97.7006 72.5045 -109.9 -97.9494 72.9468 
-110.316 -98.2092 73.4027 -110.744 -98.4829 73.8174 -111.215 -98.7495 74.1684 
-106.769 -96.2403 70.0448 -106.366 -95.8689 69.7941 -106.03 -95.2657 69.5156 
-105.777 -94.337 69.1467 -105.737 -93.4247 68.699 -106.029 -92.7623 68.2359 
-106.447 -92.101 67.7869 -106.7 -91.4069 67.4063 -106.87 -90.9458 67.1279 
-106.939 -96.144 70.6349 -106.821 -95.5154 70.996 -106.866 -94.8019 71.252 
-106.908 -94.1549 71.5344 -106.987 -93.4739 71.9506 -107.309 -92.7862 72.2149 
-107.84 -92.3216 72.2361 -108.347 -92.0248 72.3704 -108.712 -91.755 72.7195 
-113.934 -97.2549 65.2484 -113.508 -97.2786 64.8764 -112.822 -97.3733 64.4359 
-112.099 -97.6726 64.2251 -111.665 -97.996 64.482 -111.347 -98.2548 64.896 
-110.895 -98.662 65.1077 -110.523 -99.1448 65.2549 -110.374 -99.4488 65.5328 
-113.544 -96.6869 65.5014 -112.796 -96.2665 65.6039 -112.178 -95.6228 65.6778 
-111.589 -94.8089 65.7281 -110.756 -94.2183 66.0576 -109.875 -93.6437 66.5673 
-109.184 -92.6663 66.7511 -108.491 -91.6508 66.6348 -107.75 -91.0486 66.6479 
-114.618 -97.9097 65.5343 -115.031 -98.8225 65.5691 -115.542 -99.7198 65.4636 
-116.159 -100.622 65.3305 -116.756 -101.732 65.3762 -117.161 -103.02 65.4729 
-117.313 -104.217 65.5702 -117.328 -105.147 65.8409 -117.306 -105.842 66.2191 
-109.777 -99.0044 65.7512 -109.272 -98.2659 65.7191 -108.845 -97.4035 65.8135 
-108.615 -96.4074 65.997 -108.395 -95.3831 66.2058 -107.896 -94.5013 66.4053 
-107.366 -93.5922 66.5519 -107.158 -92.474 66.6185 -107.163 -91.433 66.7021 
-110.838 -100.098 65.805 -111.456 -100.719 65.7122 -112.196 -101.454 65.6693 
-113.11 -102.188 65.7388 -114.05 -102.893 65.8451 -114.822 -103.682 65.8874 
-115.427 -104.569 65.8962 -116.013 -105.376 65.9942 -116.637 -105.969 66.2341 
-114.355 -97.2333 74.9106 -114.186 -97.4087 75.289 -113.92 -97.6152 75.6365 
-113.494 -97.763 75.9818 -112.934 -98.0012 76.2075 -112.42 -98.4176 76.1031 
-112.114 -98.7585 75.7111 -111.959 -98.8877 75.2714 -111.809 -98.9515 74.8722 
-114.112 -96.4858 74.7397 -113.608 -95.8465 74.8468 -112.99 -95.3011 74.8041 
-112.412 -94.6682 74.7943 -111.94 -93.7809 74.9146 -111.406 -92.9151 74.8943 
-110.682 -92.3824 74.5319 -109.932 -92.0589 74.0213 -109.372 -91.7752 73.5353 
-114.669 -97.9104 74.4238 -114.829 -98.8071 74.2933 -115.039 -99.8281 74.1095 
-115.438 -100.748 74.0058 -115.986 -101.536 74.1117 -116.499 -102.463 74.2543 
-116.826 -103.548 74.1379 -116.956 -104.504 73.7676 -116.989 -105.223 73.3322 
-111.346 -98.3261 74.5869 -111.005 -97.5931 74.633 -110.503 -96.928 74.7395 
-109.952 -96.215 74.8719 -109.554 -95.3424 74.8545 -109.298 -94.409 74.6997 
-109.107 -93.4976 74.4389 -109.002 -92.6724 74.0058 -108.987 -92.037 73.4915 
-112.043 -99.6885 74.5498 -112.518 -100.366 74.6028 -113.081 -101.1 74.6695 
-113.742 -101.906 74.665 -114.431 -102.692 74.5255 -114.999 -103.472 74.4042 
-115.429 -104.263 74.2741 -115.88 -104.911 73.8921 -116.431 -105.387 73.3513 
-107.048 -90.3399 67.4451 -107.065 -89.7784 68.0409 -107.214 -89.1804 68.5286 
-107.405 -89.0745 69.0061 -107.607 -89.5846 69.6197 -107.875 -90.1694 70.3339 
-108.219 -90.5453 71.1031 -108.561 -90.8644 71.8508 -108.828 -91.214 72.488 
-117.426 -107.077 66.8343 -117.5 -107.909 67.1575 -117.547 -108.63 67.6851 
-117.652 -108.773 68.4848 -117.661 -108.422 69.4202 -117.528 -108.105 70.4292 
-117.469 -107.816 71.4115 -117.467 -107.25 72.1227 -117.306 -106.494 72.551 
-117.348 -99.5397 69.18 -117.252 -99.2157 68.6125 -117.009 -98.4886 69.1532 
-117.128 -98.7784 68.0038 -116.941 -98.0731 68.5131 -116.775 -97.4345 69.1679 
-116.907 -98.2817 67.4764 -116.799 -97.6607 67.9476 -116.556 -97.1264 68.5165 
-116.185 -96.7743 69.1732 -116.492 -97.9582 67.0001 -116.382 -97.3794 67.5003 
-116.136 -96.9006 67.9927 -115.731 -96.5451 68.5739 -115.336 -96.172 69.1589 
-115.948 -97.7326 66.5735 -115.811 -97.1957 67.0187 -115.608 -96.6251 67.472 
-115.256 -96.1607 67.9947 -114.934 -95.7154 68.6013 -114.741 -95.2021 69.1362 
-115.349 -97.3741 66.2565 -115.273 -96.8917 66.5907 -115.182 -96.2313 66.9128 
-114.992 -95.5527 67.3086 -114.674 -95.0777 67.947 -114.439 -94.6508 68.6096 
-114.28 -94.2252 69.1042 -114.724 -96.9729 66.0027 -114.676 -96.5184 66.3304 
-114.67 -95.8889 66.5927 -114.691 -95.0742 66.7954 -114.494 -94.4973 67.2814 
-114.126 -94.2194 68.0371 -113.867 -93.9025 68.6597 -113.691 -93.5577 69.0973 
-118.208 -100.81 68.8908 -118.453 -101.373 68.4839 -118.18 -100.526 68.3764 
-118.525 -102.093 68.0176 -118.387 -101.029 67.8873 -117.842 -100.238 67.7136 
-118.521 -102.962 67.5088 -118.434 -101.716 67.3437 -118.008 -100.757 67.1914 
-117.465 -99.8611 67.0541 -118.486 -103.892 66.996 -118.406 -102.562 66.8323 
-118.057 -101.466 66.7295 -117.602 -100.494 66.6252 -117.144 -99.464 66.5552 
-118.442 -104.726 66.6357 -118.315 -103.407 66.4081 -117.976 -102.229 66.3517 
-117.55 -101.198 66.3301 -117.125 -100.138 66.2838 -116.599 -99.1098 66.2655 
-118.286 -105.347 66.4572 -118.153 -104.176 66.1149 -117.851 -102.936 65.9963 
-117.408 -101.788 66.0192 -116.925 -100.723 66.0184 -116.376 -99.7198 66.0502 
-115.811 -98.7602 66.0657 -117.887 -105.717 66.3341 -117.832 -104.802 65.936 
-117.67 -103.642 65.7135 -117.332 -102.366 65.6832 -116.82 -101.184 65.6491 
-116.201 -100.206 65.6927 -115.594 -99.3125 65.8141 -115.12 -98.3616 65.8217 
-116.686 -105.358 65.8949 -116.042 -104.672 65.7016 -116.741 -104.619 65.5846 
-115.349 -103.865 65.6088 -116.055 -103.902 65.4532 -116.734 -103.643 65.4128 
-114.541 -103.074 65.5148 -115.204 -103.088 65.3039 -115.897 -102.889 65.2714 
-116.464 -102.387 65.2873 -113.598 -102.305 65.4251 -114.25 -102.217 65.1746 
-114.855 -101.954 65.1477 -115.405 -101.572 65.188 -115.91 -101.069 65.1854 
-112.58 -101.526 65.3682 -113.223 -101.346 65.1648 -113.815 -100.938 65.1758 
-114.213 -100.541 65.2731 -114.772 -100.198 65.2523 -115.318 -99.9254 65.251 
-111.661 -100.752 65.3664 -112.156 -100.544 65.1848 -112.78 -100.056 65.2236 
-113.127 -99.5585 65.3078 -113.549 -99.1804 65.2754 -114.289 -98.9679 65.223 
[...]
POINT_DATA 1002
FIELD FieldData 2
Theta 1 1002 float
2.58802 2.58802 0.553574 0.553574 2.12437 1.01722 2.12437 1.01722 1.5708 
1.5708 1.5708 1.5708 2.68241 2.78649 2.89924 3.01861 3.14159 3.01861 
2.89924 2.78649 2.68241 2.61035 2.61791 2.60515 2.56958 2.51327 2.44184 
2.36202 2.27983 2.1997 2.61035 2.61791 2.60515 2.56958 2.51327 2.44184 
2.36202 2.27983 2.1997 2.50947 2.41899 2.31794 2.20864 2.0944 1.97902 
1.86631 1.75944 1.66056 2.50947 2.41899 2.31794 2.20864 2.0944 1.97902 
1.86631 1.75944 1.66056 2.61035 2.61791 2.60515 2.56958 2.51327 2.44184 
2.36202 2.27983 2.1997 2.61035 2.61791 2.60515 2.56958 2.51327 2.44184 
2.36202 2.27983 2.1997 2.50947 2.41899 2.31794 2.20864 2.0944 1.97902 
1.86631 1.75944 1.66056 2.50947 2.41899 2.31794 2.20864 2.0944 1.97902 
1.86631 1.75944 1.66056 0.459179 0.355101 0.242354 0.122983 0 0.122983 
0.242354 0.355101 0.459179 0.531246 0.523681 0.536438 0.57201 0.628319 0.699757 
0.779574 0.86176 0.941896 0.531246 0.523681 0.536438 0.57201 0.628319 0.699757 
0.779574 0.86176 0.941896 0.632123 0.7226 0.823657 0.932948 1.0472 1.16257 
1.27528 1.38216 1.48103 0.632123 0.7226 0.823657 0.932948 1.0472 1.16257 
1.27528 1.38216 1.48103 0.531246 0.523681 0.536438 0.57201 0.628319 0.699757 
0.779574 0.86176 0.941896 0.531246 0.523681 0.536438 0.57201 0.628319 0.699757 
0.779574 0.86176 0.941896 0.632123 0.7226 0.823657 0.932948 1.0472 1.16257 
1.27528 1.38216 1.48103 0.632123 0.7226 0.823657 0.932948 1.0472 1.16257 
1.27528 1.38216 1.48103 2.02998 1.9259 1.81315 1.69378 1.5708 1.44781 
1.32844 1.2157 1.11162 2.0928 2.05283 2.00422 1.94767 1.88496 1.81867 
1.75177 1.68695 1.62623 2.0928 2.05283 2.00422 1.94767 1.88496 1.81867 
1.75177 1.68695 1.62623 1.0488 1.08876 1.13737 1.19392 1.25664 1.32292 
1.38982 1.45464 1.51537 1.0488 1.08876 1.13737 1.19392 1.25664 1.32292 
1.38982 1.45464 1.51537 2.02998 1.9259 1.81315 1.69378 1.5708 1.44781 
1.32844 1.2157 1.11162 2.0928 2.05283 2.00422 1.94767 1.88496 1.81867 
1.75177 1.68695 1.62623 2.0928 2.05283 2.00422 1.94767 1.88496 1.81867 
1.75177 1.68695 1.62623 1.0488 1.08876 1.13737 1.19392 1.25664 1.32292 
1.38982 1.45464 1.51537 1.0488 1.08876 1.13737 1.19392 1.25664 1.32292 
1.38982 1.45464 1.51537 1.5708 1.5708 1.5708 1.5708 1.5708 1.5708 
1.5708 1.5708 1.5708 1.5708 1.5708 1.5708 1.5708 1.5708 1.5708 
1.5708 1.5708 1.5708 2.70908 2.71362 2.81592 2.68886 2.81002 2.92597 
2.6349 2.76254 2.89233 3.01997 2.55881 2.68262 2.80854 2.92834 3.01997 
2.47007 2.58462 2.70048 2.80854 2.89233 2.92597 2.37702 2.48017 2.58462 
2.68262 2.76254 2.81002 2.81592 2.28567 2.37702 2.47007 2.55881 2.6349 
2.68886 2.71362 2.70908 2.52097 2.4195 2.51718 2.30791 2.40503 2.49426 
2.18928 2.28408 2.3734 2.45144 2.06758 2.15805 2.24572 2.32523 2.39165 
1.94707 2.03138 2.11543 2.19453 2.26401 2.32035 1.83164 1.90847 1.98711 
2.06376 2.13422 2.1949 2.24359 1.72413 1.79288 1.86489 1.93728 2.00658 
2.06938 2.12312 2.16654 1.5708 1.50988 1.63171 1.44492 1.5708 1.69667 
1.37826 1.5059 1.63569 1.76333 1.31281 1.43962 1.5708 1.70197 1.82878 
1.25155 1.37501 1.50478 1.63681 1.76659 1.89004 1.19686 1.31493 1.44074 
1.5708 1.70086 1.82666 1.94473 1.15011 1.26149 1.38136 1.50697 1.63462 
1.76024 1.88011 1.99148 1.99148 1.88011 1.94473 1.76024 1.82666 1.89004 
1.63462 1.70086 1.76659 1.82878 1.50697 1.5708 1.63681 1.70197 1.76333 
1.38136 1.44074 1.50478 1.5708 1.63569 1.69667 1.26149 1.31493 1.37501 
1.43962 1.5059 1.5708 1.63171 1.15011 1.19686 1.25155 1.31281 1.37826 
1.44492 1.50988 1.5708 2.16654 2.12312 2.24359 2.06938 2.1949 2.32035 
2.00658 2.13422 2.26401 2.39165 1.93728 2.06376 2.19453 2.32523 2.45144 
1.86489 1.98711 2.11543 2.24572 2.3734 2.49426 1.79288 1.90847 2.03138 
2.15805 2.28408 2.40503 2.51718 1.72413 1.83164 1.94707 2.06758 2.18928 
2.30791 2.4195 2.52097 1.66533 1.66946 1.76911 1.67254 1.777 1.88041 
1.67418 1.78222 1.89102 1.99634 1.67418 1.78405 1.89674 2.00785 2.11299 
1.67254 1.78222 1.89674 2.01191 2.12307 2.22608 1.66946 1.777 1.89102 
2.00785 2.12307 2.23222 2.33166 1.66533 1.76911 1.88041 1.99634 2.11299 
2.22608 2.33166 2.42672 1.47626 1.37249 1.47213 1.26118 1.36459 1.46906 
1.14526 1.25058 1.35938 1.46741 1.0286 1.13374 1.24485 1.35755 1.46741 
0.915514 1.01852 1.12969 1.24485 1.35938 1.46906 0.809937 0.909371 1.01852 
1.13374 1.25058 1.36459 1.47213 0.714871 0.809937 0.915514 1.0286 1.14526 
1.26118 1.37249 1.47626 0.975055 0.898002 1.01847 0.821245 0.946693 1.07221 
0.749941 0.877585 1.00737 1.13501 0.690152 0.816367 0.94706 1.07784 1.20431 
0.647337 0.768195 0.895868 1.02616 1.15448 1.2767 0.624416 0.736561 0.857515 
0.983547 1.11021 1.23313 1.34871 0.620619 0.722093 0.833684 0.952313 1.07402 
1.19452 1.30996 1.41746 0.855925 0.764569 0.764569 0.671524 0.661425 0.671524 
0.582786 0.556971 0.556971 0.582786 0.506696 0.458968 0.441109 0.458968 0.506696 
0.45273 0.379052 0.333054 0.333054 0.379052 0.45273 0.427969 0.331576 0.249267 
0.21325 0.249267 0.331576 0.427969 0.432512 0.325669 0.215619 0.121622 0.121622 
0.215619 0.325669 0.432512 0.432512 0.427969 0.325669 0.45273 0.331576 0.215619 
0.506696 0.379052 0.249267 0.121622 0.582786 0.458968 0.333054 0.21325 0.121622 
0.671524 0.556971 0.441109 0.333054 0.249267 0.215619 0.764569 0.661425 0.556971 
0.458968 0.379052 0.331576 0.325669 0.855925 0.764569 0.671524 0.582786 0.506696 
0.45273 0.427969 0.432512 0.975055 1.01847 0.898002 1.07221 0.946693 0.821245 
1.13501 1.00737 0.877585 0.749941 1.20431 1.07784 0.94706 0.816367 0.690152 
1.2767 1.15448 1.02616 0.895868 0.768195 0.647337 1.34871 1.23313 1.11021 
0.983547 0.857515 0.736561 0.624416 1.41746 1.30996 1.19452 1.07402 0.952313 
0.833684 0.722093 0.620619 1.15011 1.26149 1.19686 1.38136 1.31493 1.25155 
1.50697 1.44074 1.37501 1.31281 1.63462 1.5708 1.50478 1.43962 1.37826 
1.76024 1.70086 1.63681 1.5708 1.5059 1.44492 1.88011 1.82666 1.76659 
1.70197 1.63569 1.5708 1.50988 1.99148 1.94473 1.89004 1.82878 1.76333 
1.69667 1.63171 1.5708 1.15011 1.19686 1.26149 1.25155 1.31493 1.38136 
1.31281 1.37501 1.44074 1.50697 1.37826 1.43962 1.50478 1.5708 1.63462 
1.44492 1.5059 1.5708 1.63681 1.70086 1.76024 1.50988 1.5708 1.63569 
1.70197 1.76659 1.82666 1.88011 1.5708 1.63171 1.69667 1.76333 1.82878 
1.89004 1.94473 1.99148 1.72413 1.83164 1.79288 1.94707 1.90847 1.86489 
2.06758 2.03138 1.98711 1.93728 2.18928 2.15805 2.11543 2.06376 2.00658 
2.30791 2.28408 2.24572 2.19453 2.13422 2.06938 2.4195 2.40503 2.3734 
2.32523 2.26401 2.1949 2.12312 2.52097 2.51718 2.49426 2.45144 2.39165 
2.32035 2.24359 2.16654 2.70908 2.81592 2.71362 2.92597 2.81002 2.68886 
3.01997 2.89233 2.76254 2.6349 3.01997 2.92834 2.80854 2.68262 2.55881 
2.92597 2.89233 2.80854 2.70048 2.58462 2.47007 2.81592 2.81002 2.76254 
2.68262 2.58462 2.48017 2.37702 2.70908 2.71362 2.68886 2.6349 2.55881 
2.47007 2.37702 2.28567 2.16654 2.24359 2.12312 2.32035 2.1949 2.06938 
2.39165 2.26401 2.13422 2.00658 2.45144 2.32523 2.19453 2.06376 1.93728 
2.49426 2.3734 2.24572 2.11543 1.98711 1.86489 2.51718 2.40503 2.28408 
2.15805 2.03138 1.90847 1.79288 2.52097 2.4195 2.30791 2.18928 2.06758 
1.94707 1.83164 1.72413 1.66533 1.76911 1.66946 1.88041 1.777 1.67254 
1.99634 1.89102 1.78222 1.67418 2.11299 2.00785 1.89674 1.78405 1.67418 
2.22608 2.12307 2.01191 1.89674 1.78222 1.67254 2.33166 2.23222 2.12307 
2.00785 1.89102 1.777 1.66946 2.42672 2.33166 2.22608 2.11299 1.99634 
1.88041 1.76911 1.66533 1.47626 1.47213 1.37249 1.46906 1.36459 1.26118 
1.46741 1.35938 1.25058 1.14526 1.46741 1.35755 1.24485 1.13374 1.0286 
1.46906 1.35938 1.24485 1.12969 1.01852 0.915514 1.47213 1.36459 1.25058 
1.13374 1.01852 0.909371 0.809937 1.47626 1.37249 1.26118 1.14526 1.0286 
0.915514 0.809937 0.714871 1.41746 1.30996 1.34871 1.19452 1.23313 1.2767 
1.07402 1.11021 1.15448 1.20431 0.952313 0.983547 1.02616 1.07784 1.13501 
0.833684 0.857515 0.895868 0.94706 1.00737 1.07221 0.722093 0.736561 0.768195 
0.816367 0.877585 0.946693 1.01847 0.620619 0.624416 0.647337 0.690152 0.749941 
0.821245 0.898002 0.975055 0.975055 0.898002 1.01847 0.821245 0.946693 1.07221 
0.749941 0.877585 1.00737 1.13501 0.690152 0.816367 0.94706 1.07784 1.20431 
0.647337 0.768195 0.895868 1.02616 1.15448 1.2767 0.624416 0.736561 0.857515 
0.983547 1.11021 1.23313 1.34871 0.620619 0.722093 0.833684 0.952313 1.07402 
1.19452 1.30996 1.41746 
Phi 1 1002 float
6.28319 3.14159 6.28319 3.14159 4.71239 4.71239 1.5708 1.5708 3.69517 
5.72961 2.58802 0.553574 6.28319 6.28319 6.28319 6.28319 3.14159 3.14159 
3.14159 3.14159 3.14159 6.1053 5.8988 5.67687 5.45995 5.26596 5.10322 
4.97131 4.86569 4.78095 0.177881 0.384387 0.606312 0.823235 1.01722 1.17997 
1.31187 1.4175 1.50223 6.18928 6.10703 6.03531 5.97283 5.91832 5.87061 
5.82869 5.79168 5.75886 0.0939024 0.176153 0.247873 0.310351 0.364864 0.412573 
0.454497 0.491504 0.524326 3.31947 3.52598 3.7479 3.96483 4.15881 4.32156 
4.45346 4.55909 4.64383 2.96371 2.75721 2.53528 2.31836 2.12437 1.96162 
1.82972 1.72409 1.63936 3.2355 3.31775 3.38947 3.45194 3.50646 3.55417 
3.59609 3.6331 3.66592 3.04769 2.96544 2.89372 2.83124 2.77673 2.72902 
2.6871 2.65009 2.61727 6.28319 6.28319 6.28319 6.28319 3.14159 3.14159 
3.14159 3.14159 3.14159 6.1053 5.8988 5.67687 5.45995 5.26596 5.10322 
4.97131 4.86569 4.78095 0.177881 0.384387 0.606312 0.823235 1.01722 1.17997 
1.31187 1.4175 1.50223 6.18928 6.10703 6.03531 5.97283 5.91832 5.87061 
5.82869 5.79168 5.75886 0.0939024 0.176153 0.247873 0.310351 0.364864 0.412573 
0.454497 0.491504 0.524326 3.31947 3.52598 3.7479 3.96483 4.15881 4.32156 
4.45346 4.55909 4.64383 2.96371 2.75721 2.53528 2.31836 2.12437 1.96162 
1.82972 1.72409 1.63936 3.2355 3.31775 3.38947 3.45194 3.50646 3.55417 
3.59609 3.6331 3.66592 3.04769 2.96544 2.89372 2.83124 2.77673 2.72902 
2.6871 2.65009 2.61727 4.71239 4.71239 4.71239 4.71239 4.71239 4.71239 
4.71239 4.71239 4.71239 4.60879 4.49914 4.3857 4.27128 4.15881 4.05096 
3.94976 3.85646 3.77161 4.81599 4.92564 5.03907 5.1535 5.26596 5.37381 
5.47502 5.56831 5.65317 4.60879 4.49914 4.3857 4.27128 4.15881 4.05096 
3.94976 3.85646 3.77161 4.81599 4.92564 5.03907 5.1535 5.26596 5.37381 
5.47502 5.56831 5.65317 1.5708 1.5708 1.5708 1.5708 1.5708 1.5708 
1.5708 1.5708 1.5708 1.6744 1.78405 1.89748 2.01191 2.12437 2.23222 
2.33343 2.42672 2.51157 1.4672 1.35755 1.24411 1.12969 1.01722 0.909371 
0.808166 0.714871 0.63002 1.6744 1.78405 1.89748 2.01191 2.12437 2.23222 
2.33343 2.42672 2.51157 1.4672 1.35755 1.24411 1.12969 1.01722 0.909371 
0.808166 0.714871 0.63002 3.60077 3.49669 3.38395 3.26458 3.14159 3.01861 
2.89924 2.78649 2.68241 5.82401 5.92808 6.04083 6.1602 6.28319 0.122983 
0.242354 0.355101 0.459179 6.05603 5.78856 5.97021 5.51259 5.60297 5.78856 
5.26596 5.26596 5.26596 5.26596 5.06749 5.0121 4.91556 4.71239 4.15881 
4.91556 4.83537 4.71239 4.50922 4.15881 3.63622 4.80045 4.71239 4.58941 
4.41268 4.15881 3.82181 3.45456 4.71239 4.62433 4.50922 4.35729 4.15881 
3.91219 3.63622 3.36875 6.01742 5.94343 5.82633 5.88092 5.76745 5.62798 
5.8278 5.71897 5.58911 5.43724 5.78235 5.67854 5.55757 5.41926 5.26596 
5.74316 5.64441 5.5315 5.40467 5.26596 5.11955 5.70914 5.61528 5.50962 
5.3926 5.26596 5.13292 4.99789 5.67937 5.59016 5.49102 5.38246 5.26596 
5.14407 5.02016 4.89798 5.56831 5.47502 5.47502 5.37381 5.37381 5.37381 
5.26596 5.26596 5.26596 5.26596 5.1535 5.1535 5.1535 5.1535 5.1535 
5.03907 5.03907 5.03907 5.03907 5.03907 5.03907 4.92564 4.92564 4.92564 
4.92564 4.92564 4.92564 4.92564 4.81599 4.81599 4.81599 4.81599 4.81599 
4.81599 4.81599 4.81599 4.60879 4.60879 4.49914 4.60879 4.49914 4.3857 
4.60879 4.49914 4.3857 4.27128 4.60879 4.49914 4.3857 4.27128 4.15881 
4.60879 4.49914 4.3857 4.27128 4.15881 4.05096 4.60879 4.49914 4.3857 
4.27128 4.15881 4.05096 3.94976 4.60879 4.49914 4.3857 4.27128 4.15881 
4.05096 3.94976 3.85646 4.5268 4.40462 4.42689 4.28071 4.29185 4.30523 
4.15881 4.15881 4.15881 4.15881 4.04232 4.03217 4.02011 4.00552 3.98753 
3.93376 3.91515 3.89328 3.86721 3.83566 3.7968 3.83461 3.8095 3.78037 
3.74624 3.70581 3.65733 3.59845 3.7454 3.71564 3.68161 3.64243 3.59698 
3.54386 3.48135 3.40735 3.56428 3.45246 3.52338 3.33203 3.40312 3.47739 
3.20576 3.27463 3.34802 3.42551 3.07742 3.14159 3.21128 3.28647 3.36688 
2.95116 3.00855 3.0719 3.14159 3.21784 3.3006 2.83072 2.88006 2.93517 
2.99672 3.06535 3.14159 3.22575 2.7189 2.7598 2.8058 2.85768 2.9163 
2.98259 3.05743 3.14159 3.56428 3.52338 3.45246 3.47739 3.40312 3.33203 
3.42551 3.34802 3.27463 3.20576 3.36688 3.28647 3.21128 3.14159 3.07742 
3.3006 3.21784 3.14159 3.0719 3.00855 2.95116 3.22575 3.14159 3.06535 
2.99672 2.93517 2.88006 2.83072 3.14159 3.05743 2.98259 2.9163 2.85768 
2.8058 2.7598 2.7189 4.5268 4.42689 4.40462 4.30523 4.29185 4.28071 
4.15881 4.15881 4.15881 4.15881 3.98753 4.00552 4.02011 4.03217 4.04232 
3.7968 3.83566 3.86721 3.89328 3.91515 3.93376 3.59845 3.65733 3.70581 
3.74624 3.78037 3.8095 3.83461 3.40735 3.48135 3.54386 3.59698 3.64243 
3.68161 3.71564 3.7454 4.71239 4.80045 4.62433 4.91556 4.71239 4.50922 
5.06749 4.83537 4.58941 4.35729 5.26596 5.0121 4.71239 4.41268 4.15881 
5.51259 5.26596 4.91556 4.50922 4.15881 3.91219 5.78856 5.60297 5.26596 
4.71239 4.15881 3.82181 3.63622 6.05603 5.97021 5.78856 5.26596 4.15881 
3.63622 3.45456 3.36875 0.227158 0.494626 0.312971 0.770593 0.680215 0.494626 
1.01722 1.01722 1.01722 1.01722 1.2157 1.27109 1.36763 1.5708 2.12437 
1.36763 1.44781 1.5708 1.77397 2.12437 2.64697 1.48273 1.5708 1.69378 
1.8705 2.12437 2.46138 2.82862 1.5708 1.65886 1.77397 1.9259 2.12437 
2.371 2.64697 2.91443 1.75639 1.87857 1.8563 2.00248 1.99133 1.97796 
2.12437 2.12437 2.12437 2.12437 2.24087 2.25101 2.26308 2.27767 2.29565 
2.34943 2.36803 2.38991 2.41597 2.44752 2.48639 2.44857 2.47368 2.50281 
2.53694 2.57738 2.62586 2.68474 2.53778 2.56754 2.60157 2.64076 2.68621 
2.73933 2.80184 2.87583 1.6744 1.6744 1.78405 1.6744 1.78405 1.89748 
1.6744 1.78405 1.89748 2.01191 1.6744 1.78405 1.89748 2.01191 2.12437 
1.6744 1.78405 1.89748 2.01191 2.12437 2.23222 1.6744 1.78405 1.89748 
2.01191 2.12437 2.23222 2.33343 1.6744 1.78405 1.89748 2.01191 2.12437 
2.23222 2.33343 2.42672 1.4672 1.35755 1.4672 1.24411 1.35755 1.4672 
1.12969 1.24411 1.35755 1.4672 1.01722 1.12969 1.24411 1.35755 1.4672 
0.909371 1.01722 1.12969 1.24411 1.35755 1.4672 0.808166 0.909371 1.01722 
1.12969 1.24411 1.35755 1.4672 0.714871 0.808166 0.909371 1.01722 1.12969 
1.24411 1.35755 1.4672 0.603812 0.57405 0.693022 0.540021 0.667908 0.792164 
0.500837 0.638778 0.773562 0.900726 0.455383 0.604649 0.751687 0.890581 1.01722 
0.402264 0.564217 0.725619 0.878514 1.01722 1.13912 0.339753 0.515737 0.694072 
0.863926 1.01722 1.15026 1.26302 0.265762 0.456853 0.655207 0.845941 1.01722 
1.16363 1.28529 1.38521 0.227158 0.312971 0.494626 0.494626 0.680215 0.770593 
1.01722 1.01722 1.01722 1.01722 2.12437 1.5708 1.36763 1.27109 1.2157 
2.64697 2.12437 1.77397 1.5708 1.44781 1.36763 2.82862 2.46138 2.12437 
1.8705 1.69378 1.5708 1.48273 2.91443 2.64697 2.371 2.12437 1.9259 
1.77397 1.65886 1.5708 1.75639 1.8563 1.87857 1.97796 1.99133 2.00248 
2.12437 2.12437 2.12437 2.12437 2.29565 2.27767 2.26308 2.25101 2.24087 
2.48639 2.44752 2.41597 2.38991 2.36803 2.34943 2.68474 2.62586 2.57738 
2.53694 2.50281 2.47368 2.44857 2.87583 2.80184 2.73933 2.68621 2.64076 
2.60157 2.56754 2.53778 5.86049 5.90139 5.97231 5.94739 6.02165 6.09275 
5.99927 6.07676 6.15015 6.21902 6.0579 6.13831 6.2135 0 0.0641696 
6.12418 6.20694 6.28319 0.069689 0.13304 0.190437 6.19903 0 0.0762451 
0.144876 0.206423 0.261531 0.310872 0 0.0841597 0.159004 0.225289 0.283913 
0.335793 0.381792 0.422692 5.86049 5.97231 5.90139 6.09275 6.02165 5.94739 
6.21902 6.15015 6.07676 5.99927 0.0641696 0 6.2135 6.13831 6.0579 
0.190437 0.13304 0.069689 6.28319 6.20694 6.12418 0.310872 0.261531 0.206423 
0.144876 0.0762451 6.28319 6.19903 0.422692 0.381792 0.335793 0.283913 0.225289 
0.159004 0.0841597 0 5.67937 5.70914 5.59016 5.74316 5.61528 5.49102 
5.78235 5.64441 5.50962 5.38246 5.8278 5.67854 5.5315 5.3926 5.26596 
5.88092 5.71897 5.55757 5.40467 5.26596 5.14407 5.94343 5.76745 5.58911 
5.41926 5.26596 5.13292 5.02016 6.01742 5.82633 5.62798 5.43724 5.26596 
5.11955 4.99789 4.89798 1.38521 1.28529 1.26302 1.16363 1.15026 1.13912 
1.01722 1.01722 1.01722 1.01722 0.845941 0.863926 0.878514 0.890581 0.900726 
0.655207 0.694072 0.725619 0.751687 0.773562 0.792164 0.456853 0.515737 0.564217 
0.604649 0.638778 0.667908 0.693022 0.265762 0.339753 0.402264 0.455383 0.500837 
0.540021 0.57405 0.603812 
