# vtk DataFile Version 4.0
vtk output
ASCII
DATASET POLYDATA
POINTS 1002 float
-104.088 -82.7566 77.3449 -103.999 -81.942 76.1912 -104.584 -81.9922 76.8877 
-104.772 -82.9102 78.038 -105.226 -82.0402 77.6514 -104.207 -83.6273 78.6054 
-105.437 -82.9769 78.8786 -105.8 -82.029 78.6442 -104.949 -83.8112 79.3296 
-104.422 -84.5498 79.9041 -106.002 -82.9711 80.0475 -106.445 -82.1534 79.7332 
-105.621 -83.8918 80.3558 -105.191 -84.7736 80.7609 -104.84 -85.6832 81.2185 
-106.683 -83.1862 81.2516 -107.275 -82.5066 80.7284 -106.231 -84.0268 81.6883 
-105.884 -85.0227 82.0042 -105.568 -86.0519 82.3241 -105.356 -87.0738 82.6758 
-107.539 -83.6364 82.2684 -108.08 -82.8733 81.7732 -106.998 -84.4598 82.8149 
-106.592 -85.4551 83.2683 -106.264 -86.5317 83.6437 -106.003 -87.5721 83.9794 
-105.877 -88.5946 84.2674 -108.374 -84.1109 83.2692 -108.759 -83.2363 82.8804 
-107.912 -85.036 83.6884 -107.479 -86.0723 84.1463 -107.1 -87.1512 84.6669 
-106.773 -88.171 85.1579 -106.582 -89.213 85.4987 -106.536 -90.3007 85.7275 
-109.172 -84.6644 84.1866 -109.479 -83.7574 83.785 -108.808 -85.616 84.5727 
-108.434 -86.6587 84.9765 -108.076 -87.7958 85.4595 -107.735 -88.8795 86.0088 
-107.477 -89.9535 86.4627 -107.352 -91.12 86.7474 -107.318 -92.2425 86.945 
-109.981 -85.3014 84.8827 -110.258 -84.343 84.4791 -109.633 -86.2719 85.3409 
-109.258 -87.2292 85.8875 -108.93 -88.346 86.408 -108.651 -89.5883 86.8512 
-108.4 -90.7804 87.2739 -108.203 -91.9813 87.6331 -108.087 -93.1764 87.8706 
-108.045 -94.2043 88.0205 -110.698 -85.8445 85.5161 -110.933 -84.833 85.1465 
-110.36 -86.9126 85.9568 -109.94 -87.8681 86.606 -109.565 -88.886 87.304 
-109.317 -90.1922 87.7685 -109.136 -91.5655 88.0807 -108.945 -92.8041 88.4372 
-108.774 -93.9982 88.7549 -108.694 -95.1189 88.9195 -108.704 -96.0601 88.974 
-104.29 -81.177 75.5255 -104.892 -81.144 76.2864 -104.757 -80.4732 74.8156 
-105.359 -80.3499 75.672 -105.412 -79.8109 74.0951 -105.514 -81.1032 77.211 
-106.021 -79.6238 75.0119 -106.089 -79.0186 73.4673 -106.006 -80.2849 76.6969 
-106.171 -81.1551 78.2727 -106.763 -78.8755 74.395 -106.777 -78.2459 72.9379 
-106.745 -79.6083 76.0184 -106.801 -80.4471 77.7378 -107.012 -81.4523 79.266 
-107.589 -78.2281 73.9074 -107.66 -77.7973 72.379 -107.574 -78.9304 75.3734 
-107.594 -79.8097 77.0653 -107.699 -80.7725 78.7675 -107.887 -81.8076 80.2896 
-108.503 -77.7232 73.5228 -108.604 -77.4654 71.8237 -108.407 -78.2313 74.9944 
-108.371 -79.0978 76.4994 -108.376 -80.053 78.2739 -108.435 -81.003 79.9776 
-108.562 -82.0605 81.5022 -109.332 -77.1966 73.217 -109.378 -77.0092 71.4364 
-109.212 -77.5379 74.8282 -109.114 -78.3474 76.1891 -109.069 -79.3696 77.7855 
-109.028 -80.2715 79.6028 -109.043 -81.2473 81.236 -109.198 -82.4464 82.6328 
-110.061 -76.7583 72.9781 -110.073 -76.6358 71.245 -109.983 -76.9689 74.6698 
-109.879 -77.6725 76.0156 -109.831 -78.776 77.366 -109.795 -79.7439 79.0805 
-109.736 -80.626 80.8127 -109.77 -81.7513 82.2711 -109.974 -83.044 83.4937 
-110.815 -76.6105 72.7861 -110.823 -76.5248 71.1733 -110.774 -76.7207 74.4287 
-110.688 -77.2357 75.7909 -110.628 -78.2766 77.0147 -110.624 -79.3338 78.5478 
-110.595 -80.1856 80.2897 -110.545 -81.1995 81.8251 -110.59 -82.4292 83.1139 
-110.751 -83.6501 84.232 -111.641 -76.6704 72.1215 -111.644 -76.7516 73.7674 
-112.518 -76.9072 73.0843 -112.522 -77.0948 74.6456 -113.346 -77.2155 73.957 
-111.588 -77.0242 75.2622 -113.304 -77.6475 75.4645 -114.031 -77.7635 74.7685 
-112.417 -77.6655 76.0232 -111.484 -77.8472 76.5404 -113.928 -78.5137 76.3777 
-114.526 -78.7602 75.6606 -113.121 -78.5501 76.9366 -112.257 -78.6911 77.4537 
-111.43 -78.9627 78.0159 -114.412 -79.6672 77.5117 -114.812 -80.0915 76.7993 
-113.714 -79.6007 78.1078 -112.915 -79.6452 78.6299 -112.18 -79.7063 79.2501 
-111.433 -79.8933 79.8352 -114.75 -80.9638 78.861 -114.897 -81.5219 78.2012 
-114.242 -80.7355 79.4576 -113.516 -80.7239 79.9309 -112.83 -80.6833 80.5048 
-112.178 -80.6991 81.1177 -111.401 -80.8991 81.5447 -114.987 -82.4326 80.2285 
-114.943 -83.0051 79.6295 -114.687 -82.0526 80.7926 -114.093 -81.9517 81.2257 
-113.441 -81.9377 81.6961 -112.825 -81.9195 82.2539 -112.134 -81.9939 82.7014 
-111.35 -82.1804 82.958 -115.221 -84.0092 81.4111 -115.118 -84.4588 80.8309 
-115.04 -83.6238 81.9493 -114.587 -83.3945 82.3944 -114.028 -83.2893 82.8774 
-113.438 -83.2675 83.3943 -112.763 -83.2894 83.8168 -112.038 -83.3218 84.0947 
-111.358 -83.4282 84.2193 -115.427 -85.461 82.3921 -115.346 -85.7685 81.7872 
-115.275 -85.1989 82.9398 -114.919 -84.9622 83.3938 -114.491 -84.7055 83.9361 
-114.014 -84.5392 84.5275 -113.376 -84.5265 84.9373 -112.625 -84.5041 85.1912 
-111.957 -84.4609 85.3398 -111.421 -84.5691 85.3083 -111.341 -85.9383 86.1255 
-111.803 -85.725 86.3738 -111.684 -87.3575 87.1714 -112.372 -85.7409 86.3766 
-112.202 -87.3337 87.3481 -112.096 -89.1535 88.1763 -113.147 -85.8566 86.2181 
-112.893 -87.5073 87.247 -112.736 -89.3651 88.2153 -112.639 -91.1987 89.1511 
-113.927 -85.8817 86.0045 -113.712 -87.6572 87.1293 -113.498 -89.6631 88.1292 
-113.35 -91.5605 89.2372 -113.199 -93.476 90.1687 -114.442 -86.0206 85.5088 
-114.33 -87.759 86.9246 -114.174 -89.9241 88.0963 -114.055 -91.9807 89.3083 
-113.904 -93.9717 90.4053 -113.682 -96.2103 91.0496 -114.784 -86.3613 84.8206 
-114.654 -88.0463 86.3463 -114.567 -90.2077 87.7929 -114.541 -92.4299 89.194 
-114.491 -94.5116 90.4477 -114.302 -96.8786 91.237 -114.088 -99.4848 91.5823 
-115.136 -86.6196 84.2913 -114.938 -88.3466 85.7305 -114.849 -90.4941 87.1961 
-114.845 -92.7979 88.6822 -114.833 -94.9942 90.0687 -114.719 -97.4362 91.05 
-114.541 -100.271 91.5813 -114.48 -103.045 91.859 -115.421 -86.7555 83.7846 
-115.235 -88.4489 85.2623 -115.146 -90.603 86.7016 -115.157 -92.939 88.0942 
-115.082 -95.2291 89.4597 -114.958 -97.7748 90.564 -114.861 -100.766 91.2689 
-114.855 -103.793 91.7154 -114.999 -106.421 91.9902 -115.509 -86.9442 83.1173 
-115.413 -88.5295 84.6484 -115.338 -90.6176 86.196 -115.41 -92.9027 87.5913 
-115.339 -95.1647 88.8994 -115.138 -97.7753 90.0684 -115.109 -100.932 90.891 
-115.246 -104.143 91.404 -115.438 -106.923 91.7503 -115.674 -109.187 91.9348 
-111.079 -87.1692 86.5262 -111.417 -88.7662 87.6814 -110.675 -88.368 87.0902 
-111.887 -90.6832 88.8289 -111.041 -90.0974 88.3424 -110.222 -89.4509 87.8771 
-112.475 -92.9436 89.8754 -111.631 -92.2641 89.4919 -110.691 -91.4898 89.0603 
-109.906 -90.7827 88.5329 -113.01 -95.6568 90.7686 -112.274 -94.9232 90.4568 
-111.408 -94.0676 90.0681 -110.497 -93.2077 89.5479 -109.752 -92.3852 88.8762 
-113.51 -98.9358 91.3965 -112.811 -98.0899 91.1704 -112.072 -97.0816 90.9125 
-111.254 -96.0088 90.468 -110.382 -94.9001 89.8747 -109.609 -93.8164 89.2043 
-114.079 -102.674 91.7953 -113.438 -101.84 91.6215 -112.676 -100.673 91.4606 
-111.947 -99.3082 91.1862 -111.139 -97.8002 90.7368 -110.233 -96.3265 90.2271 
-109.429 -95.0728 89.5848 -114.739 -106.414 92.0389 -114.254 -105.895 91.9154 
-113.5 -104.856 91.76 -112.711 -103.37 91.5781 -111.955 -101.521 91.2649 
-111.066 -99.5377 90.8981 -110.122 -97.7631 90.469 -109.332 -96.3315 89.7962 
-115.462 -109.576 92.0542 -115.103 -109.525 92.0092 -114.463 -108.904 91.8876 
-113.663 -107.653 91.7656 -112.869 -105.806 91.5551 -112.018 -103.575 91.2485 
-111.069 -101.279 90.9361 -110.154 -99.2042 90.5033 -109.373 -97.4811 89.8142 
-116.286 -111.873 91.7491 -115.997 -112.382 91.8022 -116.797 -114.438 91.2532 
-116.312 -114.83 91.2409 -117.044 -116.809 90.4655 -115.457 -112.321 91.7488 
-116.285 -116.759 90.4307 -117.007 -118.705 89.3818 -115.543 -114.497 91.2294 
-114.691 -111.536 91.7078 -116.061 -118.124 89.4855 -116.703 -119.673 88.1827 
-115.384 -115.944 90.507 -114.718 -113.334 91.3062 -113.853 -109.938 91.655 
-115.754 -118.633 88.727 -116.123 -119.57 87.4066 -115.181 -116.744 89.7952 
-114.55 -114.275 90.6898 -113.823 -111.366 91.3466 -112.943 -107.702 91.4567 
-115.208 -118.07 88.3963 -115.322 -118.698 87.2784 -114.855 -116.631 89.3882 
-114.261 -114.512 90.1143 -113.553 -111.999 90.8329 -112.804 -108.933 91.237 
-111.961 -105.13 91.1699 -114.374 -116.746 88.2663 -114.467 -117.204 87.4494 
-114.158 -115.646 89.1736 -113.729 -114.026 89.7857 -113.124 -111.994 90.3429 
-112.494 -109.435 90.8878 -111.821 -106.124 91.0288 -110.992 -102.435 90.8292 
-113.517 -114.911 88.1447 -113.7 -115.005 87.6486 -113.274 -114.209 88.8807 
-112.965 -113.02 89.5106 -112.548 -111.401 90.0044 -112.051 -109.249 90.5243 
-111.522 -106.4 90.8071 -110.859 -103.072 90.6581 -110.067 -99.9443 90.2838 
-112.827 -112.574 88.1018 -113.035 -112.283 87.8308 -112.554 -112.352 88.5834 
-112.278 -111.582 89.1442 -111.972 -110.264 89.6666 -111.552 -108.422 90.1667 
-111.053 -106.04 90.4949 -110.507 -103.198 90.4165 -109.869 -100.333 90.0181 
-109.219 -97.9269 89.5137 -116.284 -110.136 91.6343 -116.887 -112.737 91.2906 
-116.854 -110.636 91.2158 -117.265 -113.091 90.6869 -117.09 -110.683 90.7398 
-117.314 -115.468 90.6247 -117.296 -112.968 90.0264 -116.939 -110.383 90.2122 
-117.498 -116.031 89.8318 -117.562 -118.198 89.5858 -117.161 -112.456 89.4291 
-116.59 -109.642 89.6811 -117.412 -115.827 89.0583 -117.724 -118.867 88.5525 
-117.552 -119.982 88.1264 -116.816 -111.344 89.0656 -116.051 -108.029 89.2439 
-117.184 -114.744 88.6537 -117.541 -118.17 87.9055 -117.687 -120.048 87.0195 
-117.066 -120.209 86.7758 -116.048 -109.176 88.905 -115.387 -105.467 88.781 
-116.528 -112.748 88.7259 -116.976 -116.208 88.08 -117.373 -118.666 86.9186 
-117.064 -119.574 86.0957 -116.174 -119.523 86.3339 -115.235 -106.126 88.5504 
-114.903 -102.637 87.9951 -115.534 -109.772 88.8142 -115.964 -113.304 88.6138 
-116.617 -116.217 87.704 -116.775 -117.942 86.625 -116.099 -118.613 86.264 
-115.212 -118.374 86.7018 -114.775 -103.044 87.7048 -114.617 -100.228 86.8572 
-114.848 -106.271 88.3694 -115.004 -109.636 88.6848 -115.569 -112.8 88.3485 
-116.125 -115.241 87.5388 -115.915 -116.656 86.9654 -115.137 -117.021 86.9281 
-114.366 -116.362 87.2242 -114.461 -100.526 86.5478 -114.272 -98.3877 85.6559 
-114.543 -103.046 87.375 -114.515 -105.82 88.0335 -114.688 -108.709 88.2716 
[...]
CELL_DATA 2000
SCALARS Distance double
LOOKUP_TABLE default
151.7 152.556 152.37 152.853 153.438 153.268 153.795 153.566 154.068 
154.409 154.187 154.767 154.545 155.109 154.86 155.493 155.607 155.271 
155.89 155.607 156.276 155.999 156.716 156.458 157.256 156.952 156.58 
157.218 156.864 157.594 157.289 158.095 157.8 158.634 158.348 159.202 
158.269 157.947 158.615 158.259 158.989 158.678 159.509 159.231 160.085 
159.783 160.633 160.339 161.241 159.54 159.26 159.976 159.653 160.393 
160.085 160.918 160.653 161.529 161.239 162.103 161.799 162.715 162.452 
163.444 160.782 160.533 161.273 160.995 161.744 161.465 162.291 162.051 
162.947 162.691 163.587 163.289 164.213 163.944 164.94 164.704 165.708 
161.93 161.736 162.46 162.246 162.974 162.75 163.529 163.349 164.22 
164.058 164.967 164.752 165.665 165.425 166.383 166.168 167.152 166.928 
167.867 151.15 150.655 151.224 151.959 150.367 150.798 151.468 152.061 
152.828 150.175 150.577 151.201 151.662 152.411 152.985 153.817 149.921 
150.366 151.041 151.473 152.221 152.698 153.554 154.1 155.028 149.862 
150.185 150.911 151.321 152.104 152.571 153.426 153.932 154.85 155.4 
156.352 150.133 150.319 151.006 151.275 152.034 152.453 153.306 153.811 
154.69 155.223 156.124 156.702 157.624 150.397 150.624 151.267 151.463 
152.141 152.443 153.263 153.707 154.592 155.071 155.941 156.461 157.366 
157.951 158.875 150.586 150.829 151.498 151.708 152.367 152.604 153.385 
153.742 154.647 155.053 155.954 156.362 157.264 157.748 158.691 159.234 
160.147 150.965 151.101 151.816 151.97 152.663 152.85 153.617 153.915 
154.816 155.19 156.124 156.481 157.387 157.762 158.685 159.131 160.044 
160.518 161.347 151.547 152.791 152.224 152.358 154.047 153.489 153.59 
153.026 153.177 155.243 154.734 154.885 154.299 154.451 153.893 154.146 
156.474 155.967 156.204 155.631 155.853 155.259 155.556 155.001 155.373 
157.823 157.298 157.622 157.036 157.335 156.725 157.07 156.495 156.895 
156.328 156.704 159.252 158.745 159.167 158.568 158.929 158.282 158.647 
158.044 158.466 157.891 158.292 157.672 157.998 160.758 160.265 160.791 
160.201 160.618 159.946 160.314 159.663 160.082 159.486 159.918 159.298 
159.659 158.979 159.292 162.323 161.847 162.422 161.859 162.299 161.648 
162.015 161.353 161.753 161.133 161.556 160.937 161.306 160.648 160.957 
160.28 160.587 163.784 163.383 163.922 163.437 163.843 163.267 163.61 
163.008 163.389 162.796 163.195 162.576 162.909 162.259 162.53 161.885 
162.149 161.528 161.814 162.676 163.011 163.251 164.123 163.402 163.62 
164.518 164.781 165.768 163.848 164.07 165.001 165.232 166.269 166.542 
167.633 164.208 164.528 165.527 165.779 166.847 167.107 168.266 168.519 
169.673 164.392 164.813 165.865 166.26 167.38 167.716 168.921 169.211 
170.447 170.655 171.845 164.542 164.943 165.975 166.476 167.647 168.156 
169.414 169.842 171.114 171.428 172.673 172.882 174.136 164.742 165.098 
166.069 166.545 167.721 168.322 169.63 170.212 171.491 171.964 173.188 
173.584 174.861 175.206 176.611 164.835 165.249 166.165 166.63 167.753 
168.37 169.677 170.336 171.612 172.184 173.38 173.913 175.191 175.746 
177.197 177.718 179.253 164.713 165.225 166.107 166.634 167.69 168.345 
169.601 170.318 171.56 172.196 173.365 173.979 175.276 175.958 177.459 
178.144 179.701 180.29 181.729 162.755 164.23 163.437 163.338 165.897 
165.018 164.932 164.045 163.896 167.774 166.812 166.744 165.744 165.594 
164.634 164.491 169.814 168.802 168.8 167.705 167.59 166.479 166.361 
165.333 165.243 171.986 170.937 171.029 169.904 169.904 168.684 168.613 
167.4 167.325 166.195 166.081 174.364 173.251 173.433 172.259 172.38 
171.149 171.164 169.847 169.754 168.446 168.299 167.064 166.863 177.06 
175.883 176.242 174.904 175.128 173.777 173.888 172.505 172.428 170.994 
170.788 169.402 169.17 167.866 167.625 179.905 178.82 179.432 178.03 
178.403 176.839 177.049 175.448 175.457 173.82 173.626 172.029 171.77 
170.297 170.043 168.675 168.416 182.435 181.649 182.405 181.273 181.761 
180.293 180.56 178.879 178.942 177.121 176.964 175.107 174.834 173.095 
172.807 171.229 170.922 169.477 169.152 183.876 185.844 184.665 183.981 
187.36 186.436 185.825 184.549 183.462 188.254 187.624 186.961 186.087 
185.127 183.778 182.344 188.374 188.128 187.386 186.85 185.96 185.113 
183.846 182.426 180.704 187.797 187.931 187.291 186.993 186.071 185.576 
184.437 183.555 181.945 180.513 178.595 186.781 187.173 186.677 186.66 
185.695 185.403 184.232 183.762 182.333 181.398 179.566 178.194 176.291 
185.424 185.977 185.431 185.739 184.774 184.746 183.528 183.305 181.984 
181.482 179.883 178.901 177.041 175.801 174.058 183.692 184.362 183.7 
184.216 183.308 183.558 182.43 182.427 181.183 180.962 179.538 178.96 
177.241 176.302 174.502 173.496 171.94 181.675 182.425 181.762 182.367 
181.553 181.977 180.996 181.198 180.041 180.029 178.686 178.415 176.825 
176.227 174.476 173.689 172.057 171.313 169.971 184.028 184.586 184.902 
185.928 184.703 185.227 186.309 186.694 187.535 184.344 185.074 186.174 
186.886 187.946 188.209 188.665 183.567 184.498 185.57 186.519 187.665 
188.38 188.951 188.971 188.807 182.276 183.521 184.57 185.691 186.733 
187.76 188.301 188.776 188.503 188.513 187.946 180.235 181.876 182.887 
184.338 185.251 186.526 187.043 187.792 187.546 187.782 187.191 187.346 
186.804 177.668 179.462 180.352 182.136 182.947 184.609 185.206 186.364 
186.374 186.807 186.374 186.522 186.067 186.194 185.618 175.167 176.784 
177.52 179.293 179.967 181.835 182.43 184.138 184.41 185.488 185.263 
185.717 185.236 185.438 184.818 184.87 184.007 173.043 174.385 174.996 
176.513 177.044 178.723 179.166 181.003 181.303 183.001 182.924 184.108 
183.583 184.258 183.454 183.812 182.838 182.98 181.916 164.855 165.614 
165.592 166.333 166.636 166.524 167.404 167.234 168.065 167.902 167.783 
168.833 168.566 169.54 169.208 170.09 169.056 169.133 170.306 170.126 
171.095 170.776 171.626 171.272 172.026 169.843 170.143 171.329 171.415 
172.314 172.174 172.95 172.722 173.508 173.166 173.87 170.441 170.792 
171.983 172.22 173.227 173.234 174.213 174.068 175.186 174.852 175.913 
175.269 176.064 171.052 171.384 172.701 172.948 174.298 174.339 175.782 
175.647 177.257 176.939 178.464 177.768 178.867 177.803 178.517 171.667 
172.031 173.518 173.856 175.544 175.74 177.542 177.546 179.354 179.201 
180.82 180.402 181.57 180.732 181.445 180.295 180.792 172.258 172.667 
174.232 174.72 176.537 177.024 178.927 179.251 180.961 181.06 182.422 
182.336 183.327 182.981 183.628 182.931 183.366 182.378 182.724 163.994 
162.782 163.833 164.715 161.534 162.605 163.576 164.635 165.645 160.404 
161.403 162.38 163.483 164.512 165.616 166.726 159.372 160.301 161.206 
162.288 163.273 164.395 165.381 166.608 167.707 158.396 159.255 160.064 
161.086 161.986 163.091 163.966 165.133 166.086 167.432 168.481 157.553 
158.291 158.984 159.898 160.692 161.756 162.587 163.691 164.568 165.795 
166.821 168.16 169.171 156.825 157.464 158.017 158.8 159.476 160.454 
161.264 162.332 163.212 164.344 165.335 166.584 167.629 168.877 169.815 
156.12 156.702 157.156 157.834 158.422 159.282 160.054 161.058 161.931 
163.016 163.96 165.146 166.141 167.375 168.322 169.514 170.388 155.483 
155.992 156.425 157.008 157.563 158.299 159.022 159.916 160.735 161.745 
162.621 163.75 164.679 165.885 166.809 168.011 168.892 170.076 170.947 
155.325 155.501 155.679 156.27 155.785 155.946 156.585 156.732 157.442 
156.014 156.248 156.951 157.128 157.878 158.046 158.889 156.206 156.453 
157.195 157.459 158.247 158.489 159.359 159.591 160.543 156.591 156.722 
157.505 157.731 158.619 158.871 159.843 160.088 161.13 161.353 162.42 
157.221 157.254 158.098 158.218 159.245 159.42 160.567 160.738 161.927 
162.074 163.25 163.373 164.504 157.943 157.978 158.884 158.97 160.072 
160.226 161.47 161.635 162.912 163.033 164.265 164.335 165.5 165.545 
166.644 158.653 158.735 159.699 159.812 160.928 161.101 162.325 162.54 
163.794 164 165.234 165.377 166.563 166.615 167.736 167.719 168.765 
159.326 159.454 160.452 160.614 161.726 161.925 163.107 163.334 164.535 
164.781 166.005 166.252 167.497 167.665 168.868 168.887 169.99 169.884 
170.882 160.008 161.555 160.911 161.226 163.289 162.587 162.965 162.248 
162.585 165.225 164.451 164.902 164.118 164.524 163.708 164.03 167.465 
166.59 167.155 166.24 166.733 165.801 166.176 165.221 165.499 170.005 
169.068 169.778 168.74 169.326 168.233 168.682 167.556 167.869 166.768 
167.028 172.748 171.795 172.654 171.573 172.264 171.055 171.565 170.283 
170.651 169.363 169.647 168.413 168.636 175.619 174.689 175.717 174.633 
175.512 174.222 174.842 173.393 173.793 172.333 172.626 171.228 171.423 
170.065 170.129 178.352 177.597 178.78 177.827 178.922 177.687 178.5 
176.942 177.387 175.686 175.908 174.309 174.425 172.938 172.905 171.455 
171.297 180.565 180.136 181.344 180.741 181.877 181.009 181.911 180.636 
181.124 179.433 179.533 177.71 177.641 175.956 175.799 174.237 173.963 
172.474 172.164 159.561 159.338 159.972 161.064 159.085 159.762 160.909 
161.576 162.769 158.749 159.49 160.674 161.416 162.668 163.354 164.647 
158.344 159.122 160.341 161.152 162.457 163.232 164.588 165.318 166.77 
157.986 158.732 159.998 160.828 162.218 163.036 164.468 165.245 166.762 
167.557 169.189 157.768 158.433 159.707 160.526 162.015 162.877 164.422 
165.195 166.763 167.553 169.256 170.097 171.865 157.667 158.261 159.465 
160.246 161.74 162.691 164.335 165.204 166.804 167.591 169.291 170.167 
172.012 172.87 174.682 157.615 158.168 159.287 159.99 161.391 162.361 
164.025 165.047 166.679 167.567 169.198 170.136 171.951 172.953 174.794 
175.667 177.357 157.581 158.108 159.175 159.801 161.093 161.981 163.591 
164.665 166.333 167.324 168.905 169.891 171.6 172.724 174.531 175.601 
177.245 178.13 179.554 158.624 157.21 158.046 158.349 155.88 156.64 
156.871 157.744 158.056 154.635 155.338 155.506 156.279 156.493 157.398 
157.686 153.4 154.093 154.214 154.924 155.021 155.819 155.99 156.954 
157.237 152.119 152.805 152.871 153.588 153.605 154.328 154.367 155.232 
155.442 156.484 156.845 150.852 151.48 151.476 152.182 152.182 152.888 
152.882 153.638 153.768 154.707 155.063 156.16 156.635 149.703 150.24 
150.192 150.8 150.792 151.468 151.507 152.214 152.328 153.125 153.417 
154.415 154.906 156.029 156.567 148.705 149.162 149.114 149.607 149.571 
150.148 150.205 150.887 151.047 151.78 152.028 152.867 153.279 154.318 
154.874 156 156.547 147.889 148.254 148.221 148.624 148.583 149.038 
149.067 149.658 149.833 150.54 150.815 151.57 151.931 152.8 153.302 
154.336 154.918 156.004 156.545 147.513 147.099 147.445 147.787 146.756 
147.033 147.318 147.727 148.118 146.481 146.699 146.955 147.297 147.69 
148.103 148.597 146.396 146.492 146.788 147.033 147.471 147.787 148.325 
148.723 149.368 146.806 146.653 147.03 147.069 147.566 147.724 148.296 
148.582 149.271 149.659 150.399 147.738 147.396 147.831 147.619 148.126 
148.035 148.601 148.706 149.431 149.71 150.525 150.824 151.601 148.787 
148.459 148.893 148.608 149.077 148.807 149.317 149.203 149.928 150.052 
150.943 151.136 151.998 152.162 152.993 149.74 149.453 149.851 149.62 
150.06 149.803 150.275 150.06 150.727 150.708 151.593 151.703 152.605 
152.706 153.563 153.686 154.577 150.714 150.385 150.743 150.496 150.926 
150.721 151.223 151.035 151.666 151.574 152.371 152.408 153.272 153.358 
154.212 154.315 155.189 155.328 156.21 151.422 152.528 151.766 151.417 
153.759 152.931 152.581 151.829 151.585 155.251 154.309 154.051 153.151 
152.945 152.131 151.974 157.035 155.996 155.821 154.818 154.677 153.702 
153.565 152.65 152.531 158.972 157.897 157.73 156.694 156.563 155.549 
155.403 154.393 154.248 153.301 153.233 161.059 159.926 159.787 158.666 
158.541 157.474 157.359 156.302 156.172 155.127 155.039 154.091 154.092 
163.337 162.163 162.124 160.88 160.805 159.586 159.539 158.379 158.352 
157.202 157.168 156.048 156.039 155.031 155.064 165.646 164.535 164.598 
163.362 163.358 162.045 162.018 160.73 160.727 159.509 159.509 158.317 
158.293 157.135 157.121 156.058 156.08 167.832 166.83 166.967 165.846 
165.924 164.673 164.671 163.329 163.264 161.949 161.87 160.648 160.561 
159.397 159.297 158.18 158.112 157.075 157.067 157.903 158.993 158.793 
159.537 160.243 160.007 160.869 160.6 161.53 161.598 161.379 162.42 
162.146 163.287 162.941 164.114 163.054 162.869 164.112 163.883 165.238 
164.917 166.223 165.766 166.911 164.612 164.48 165.907 165.724 167.229 
166.973 168.384 167.954 169.129 168.542 169.545 166.095 166.102 167.645 
167.582 169.164 168.993 170.491 170.137 171.443 170.863 172.007 171.276 
172.346 167.317 167.49 169.076 169.225 170.877 170.878 172.471 172.254 
173.723 173.265 174.592 173.913 175.112 174.276 175.338 168.306 168.578 
170.176 170.501 172.243 172.471 174.18 174.178 175.748 175.51 176.912 
176.451 177.654 176.992 178.004 177.184 178.022 169.128 169.465 171.051 
171.49 173.282 173.711 175.501 175.743 177.337 177.344 178.706 178.512 
179.646 179.248 180.174 179.591 180.365 179.615 180.262 150.294 149.898 
149.741 149.153 149.718 149.463 148.821 148.668 148.191 149.446 149.258 
148.594 148.412 147.877 147.809 147.471 149.151 148.921 148.246 148.107 
147.551 147.503 147.125 147.162 146.978 149.257 148.812 148.158 147.822 
147.294 147.162 146.822 146.832 146.663 146.772 146.795 149.606 149.134 
148.546 148.016 147.495 147.109 146.803 146.648 146.538 146.542 146.573 
146.718 146.878 149.818 149.459 148.91 148.47 147.895 147.45 147.025 
146.764 146.6 146.529 146.529 146.57 146.659 146.823 146.969 150.063 
149.656 149.132 148.745 148.165 147.755 147.194 146.909 146.581 146.533 
146.455 146.523 146.552 146.647 146.737 146.895 147.044 150.542 150.024 
149.551 149.065 148.588 148.075 147.554 147.083 146.679 146.462 146.332 
146.374 146.426 146.537 146.649 146.754 146.928 147.06 147.3 150.459 
149.289 150.042 150.457 148.31 148.924 149.319 150.099 150.586 147.592 
148.049 148.401 149.058 149.569 150.318 150.889 147.139 147.444 147.765 
148.266 148.789 149.436 150.05 150.755 151.387 147.03 147.168 147.502 
147.795 148.337 148.831 149.504 150.077 150.713 151.32 151.874 147.162 
147.237 147.598 147.726 148.241 148.559 149.267 149.718 150.395 150.818 
151.35 151.8 152.287 147.244 147.381 147.739 147.882 148.318 148.551 
149.169 149.567 150.268 150.645 151.202 151.485 151.974 152.327 152.902 
147.286 147.412 147.758 147.948 148.354 148.583 149.089 149.442 150.08 
150.508 151.119 151.437 151.947 152.202 152.753 153.1 153.732 147.52 
147.521 147.876 147.986 148.439 148.617 149.134 149.378 149.963 150.312 
150.934 151.314 151.886 152.201 152.737 153.034 153.595 153.947 154.501 
151.267 151.305 151.699 152.545 151.397 151.759 152.602 152.995 153.798 
151.667 151.907 152.721 153.055 153.866 154.216 154.974 152.138 152.283 
153.078 153.275 154.076 154.332 155.122 155.413 156.189 152.525 152.721 
153.45 153.661 154.408 154.625 155.407 155.647 156.445 156.696 157.507 
152.834 152.998 153.63 153.885 154.554 154.864 155.627 155.951 156.759 
157.013 157.792 158.035 158.858 153.43 153.402 154.027 154.092 154.74 
154.947 155.72 156.089 156.951 157.296 158.074 158.316 159.075 159.375 
160.263 154.26 154.156 154.821 154.72 155.393 155.348 156.108 156.273 
157.161 157.47 158.307 158.567 159.323 159.589 160.45 160.824 161.795 
154.976 154.95 155.584 155.558 156.217 156.152 156.849 156.849 157.658 
157.804 158.659 158.854 159.67 159.879 160.746 161.05 162.015 162.386 
163.315 158.491 157.849 157.815 157.112 157.2 157.188 156.504 156.462 
155.799 156.538 156.551 155.907 155.871 155.195 155.165 154.542 155.926 
155.905 155.298 155.286 154.643 154.587 153.934 153.918 153.319 155.508 
155.358 154.726 154.687 154.104 154.072 153.47 153.387 152.764 152.711 
152.107 155.297 155.038 154.334 154.171 153.569 153.541 153.013 152.974 
152.386 152.259 151.609 151.509 150.893 155.125 154.871 154.159 153.881 
153.204 153.054 152.492 152.478 151.922 151.868 151.195 151.062 150.367 
150.298 149.72 154.914 154.699 154.055 153.769 153.092 152.806 152.167 
152.002 151.411 151.343 150.7 150.604 149.895 149.791 149.161 149.159 
148.684 154.751 154.519 153.917 153.669 153.049 152.759 152.131 151.825 
151.2 150.95 150.335 150.152 149.536 149.375 148.795 148.685 148.218 
148.22 147.876 
POINT_DATA 1002
SCALARS Distance double
LOOKUP_TABLE default
152.163 151.074 151.864 153.085 152.72 153.314 154.001 153.598 154.302 
154.59 154.966 154.666 155.336 155.69 156.2 156.184 155.973 156.523 
156.973 157.488 158.083 157.585 157.301 157.889 158.373 158.942 159.475 
160.051 158.959 158.549 159.305 159.775 160.383 160.934 161.492 162.182 
160.275 159.797 160.698 161.178 161.803 162.404 162.974 163.682 164.468 
161.531 161.021 162.015 162.523 163.174 163.868 164.491 165.177 165.964 
166.695 162.658 162.114 163.195 163.716 164.353 165.136 165.898 166.608 
167.366 168.127 168.782 150.515 151.296 150.157 150.943 150.006 152.17 
150.786 149.737 151.878 153.189 150.579 149.449 151.761 153.029 154.446 
150.531 149.608 151.627 152.93 154.323 155.783 150.821 149.975 151.669 
152.809 154.185 155.567 157.024 151.082 150.14 151.903 152.855 154.13 
155.464 156.796 158.281 151.273 150.351 152.144 153.057 154.245 155.571 
156.831 158.169 159.626 151.683 150.867 152.496 153.351 154.446 155.759 
157.045 158.29 159.6 160.908 152.095 152.899 153.383 154.189 154.571 
153.686 155.444 155.716 155.025 154.645 156.743 156.968 156.428 156.11 
155.916 158.187 158.318 157.939 157.641 157.462 157.312 159.736 159.709 
159.585 159.269 159.035 158.905 158.663 161.356 161.216 161.286 160.988 
160.69 160.524 160.329 159.988 162.974 162.782 162.94 162.674 162.386 
162.187 161.962 161.632 161.254 164.394 164.177 164.402 164.192 163.966 
163.818 163.582 163.187 162.773 162.423 163.494 163.84 165.038 164.249 
165.47 166.801 164.777 165.982 167.36 168.744 165.228 166.581 167.984 
169.459 170.819 165.397 166.976 168.589 170.195 171.691 173.031 165.471 
167.062 168.912 170.747 172.403 173.932 175.457 165.635 167.108 169 
170.984 172.746 174.424 176.243 178.148 165.713 167.152 169.007 171.031 
172.827 174.576 176.587 178.778 180.846 165.571 167.043 168.881 170.921 
172.735 174.541 176.725 179.081 181.256 183.091 164.162 165.857 164.78 
167.781 166.598 165.408 169.884 168.739 167.436 166.242 172.115 171.095 
169.882 168.526 167.212 174.618 173.577 172.478 171.139 169.604 168.087 
177.593 176.532 175.29 173.908 172.247 170.519 168.906 180.737 179.982 
178.713 177.162 175.317 173.327 171.47 169.758 183.377 183.114 182.201 
180.78 178.9 176.69 174.497 172.464 170.55 185.166 185.461 186.911 
186.942 188.235 185.081 187.703 188.831 186.245 184.065 187.856 188.441 
186.607 185.036 182.446 187.501 187.452 186.522 185.091 183.194 180.208 
186.571 186.325 185.965 184.604 183.009 180.804 177.698 185.042 184.91 
184.687 183.676 182.31 180.642 178.214 175.222 183.138 183.034 182.924 
182.317 181.302 179.944 178.036 175.482 172.811 181.11 180.889 181.044 
180.697 179.981 178.85 177.274 175.172 172.781 170.583 183.834 185.713 
184.22 185.757 184.141 187.467 185.331 183.568 187.446 188.937 184.603 
182.538 186.792 188.77 189.153 183.429 180.871 185.692 187.729 188.411 
187.948 181.337 178.511 183.906 186.168 187.241 186.987 186.639 178.551 
175.953 181.181 183.769 185.693 186.197 185.943 185.622 175.858 173.697 
178.162 180.571 182.966 184.584 185.018 184.754 184.082 173.608 171.828 
175.529 177.451 179.489 181.469 182.733 183.011 182.608 181.833 164.821 
166.389 165.635 167.553 166.726 168.277 169.075 167.911 169.876 170.473 
170.416 168.845 171.43 171.983 172.429 171.172 169.516 172.402 173.114 
173.762 174.343 171.692 170.119 173.09 174.197 175.344 176.47 176.94 
172.345 170.696 174.073 175.749 177.424 179.026 179.913 179.764 173.057 
171.254 175.161 177.414 179.483 181.169 182.278 182.53 182.053 162.988 
163.691 161.669 162.458 160.48 164.58 161.274 159.467 163.413 165.548 
160.169 158.485 162.183 164.23 166.37 159.115 157.592 160.913 162.866 
164.806 167.086 158.171 156.9 159.672 161.494 163.405 165.498 167.882 
157.325 156.255 158.561 160.2 162.101 164.133 166.376 168.633 156.53 
155.578 157.62 159.088 160.876 162.819 164.931 167.12 169.216 155.872 