# vtk DataFile Version 4.0
vtk output
ASCII
DATASET POLYDATA
POINTS 1002 float
-106.086 -120.97 76.8941 -106.883 -121.803 76.452 -106.365 -121.482 75.7026 
-105.578 -120.525 76.1229 -105.862 -120.983 74.7929 -105.355 -119.911 77.2984 
-105.113 -119.802 75.2187 -105.483 -120.184 73.9028 -104.853 -119.213 76.5478 
-104.681 -118.479 77.7275 -104.726 -118.754 74.3379 -105.24 -119.059 73.1631 
-104.342 -118.26 75.7007 -104.114 -117.59 77.0016 -103.938 -116.923 78.2358 
-104.307 -117.567 73.5284 -104.89 -117.844 72.4555 -103.79 -117.194 74.8164 
-103.451 -116.676 76.199 -103.212 -116.1 77.535 -102.986 -115.617 78.8252 
-103.702 -116.507 72.7064 -104.331 -116.763 71.6991 -103.146 -116.181 73.9081 
-102.702 -115.809 75.3107 -102.363 -115.361 76.7746 -102.103 -114.892 78.1564 
-101.968 -114.418 79.3769 -103.046 -115.553 71.9173 -103.81 -115.731 71.0516 
-102.437 -115.244 73.0169 -101.933 -114.905 74.364 -101.466 -114.58 75.9049 
-101.161 -114.163 77.3977 -101.088 -113.631 78.686 -101.176 -113.05 79.7736 
-102.548 -114.521 71.2725 -103.414 -114.636 70.5678 -101.819 -114.279 72.2413 
-101.235 -113.958 73.4488 -100.692 -113.68 74.9349 -100.299 -113.35 76.5085 
-100.256 -112.827 77.8733 -100.416 -112.202 79.0473 -100.611 -111.63 80.0982 
-102.165 -113.419 70.7424 -103.008 -113.561 70.1262 -101.391 -113.221 71.6269 
-100.721 -112.968 72.6694 -100.178 -112.71 73.9608 -99.7795 -112.394 75.527 
-99.6613 -111.916 76.9978 -99.7937 -111.317 78.2272 -99.9596 -110.754 79.3895 
-100.152 -110.313 80.4457 -101.828 -112.369 70.2659 -102.584 -112.585 69.695 
-101.138 -112.117 71.1299 -100.457 -111.865 72.0757 -99.926 -111.611 73.1289 
-99.6285 -111.253 74.5504 -99.491 -110.753 76.1236 -99.475 -110.218 77.4344 
-99.5218 -109.747 78.5917 -99.6099 -109.364 79.7534 -99.8377 -109.054 80.7515 
-107.422 -122.475 75.4741 -106.885 -122.073 74.6091 -108.04 -123.179 74.3546 
-107.572 -122.61 73.4898 -108.737 -123.735 73.2624 -106.371 -121.464 73.6848 
-108.454 -122.96 72.4741 -109.537 -124.006 72.2749 -107.133 -121.8 72.6723 
-106.043 -120.549 72.8899 -109.392 -123.064 71.5099 -110.457 -123.959 71.3455 
-108.131 -121.937 71.6913 -106.823 -120.744 71.9408 -105.839 -119.335 72.204 
-110.279 -122.867 70.5612 -111.519 -123.518 70.492 -109.101 -121.902 70.662 
-107.761 -120.786 70.9148 -106.53 -119.502 71.201 -105.476 -118.056 71.454 
-111.278 -122.334 69.7087 -112.663 -122.78 69.7452 -109.991 -121.658 69.7202 
-108.696 -120.725 69.9239 -107.346 -119.579 70.1927 -106.148 -118.217 70.4546 
-105.01 -116.859 70.7598 -112.411 -121.671 68.9651 -113.697 -122.087 69.0128 
-111.021 -121.188 68.9349 -109.655 -120.499 69.077 -108.277 -119.537 69.3049 
-106.981 -118.315 69.5543 -105.842 -116.933 69.9413 -104.655 -115.666 70.3207 
-113.429 -121.061 68.2874 -114.529 -121.529 68.2505 -112.112 -120.602 68.2605 
-110.682 -120.075 68.2948 -109.253 -119.308 68.4419 -107.907 -118.275 68.6772 
-106.754 -117.001 69.1445 -105.618 -115.647 69.7027 -104.301 -114.486 69.9996 
-114.224 -120.42 67.7013 -115.22 -120.918 67.5789 -113.029 -119.945 67.6961 
-111.633 -119.512 67.6067 -110.185 -118.923 67.6131 -108.808 -118.069 67.7979 
-107.629 -116.974 68.2693 -106.57 -115.686 68.9855 -105.304 -114.429 69.5056 
-103.85 -113.408 69.6341 -115.246 -119.796 67.195 -114.097 -119.274 67.2421 
-115.139 -118.525 66.8733 -113.762 -118.129 66.6008 -114.829 -117.401 66.2524 
-112.706 -118.879 67.057 -113.256 -117.098 65.6472 -114.329 -116.31 65.3507 
-112.217 -117.83 66.24 -111.198 -118.457 66.8963 -112.703 -115.822 64.8651 
-113.725 -114.968 64.8752 -111.741 -116.62 65.504 -110.755 -117.262 66.319 
-109.74 -117.735 67.0275 -112.173 -114.236 64.9516 -113.105 -113.582 65.3179 
-111.308 -114.965 65.3001 -110.416 -115.672 66.1249 -109.396 -116.268 66.8437 
-108.438 -116.704 67.4866 -111.664 -112.744 65.8285 -112.525 -112.299 66.2527 
-110.792 -113.218 65.7671 -109.969 -113.784 66.2435 -109.081 -114.444 66.9423 
-108.168 -115.044 67.575 -107.333 -115.454 68.259 -111.173 -111.322 66.8128 
-111.978 -110.913 67.1161 -110.237 -111.698 66.5824 -109.326 -112.085 66.6255 
-108.54 -112.599 67.0903 -107.807 -113.201 67.7601 -106.98 -113.738 68.4016 
-106.094 -114.133 68.9931 -110.667 -109.818 67.5972 -111.411 -109.49 67.8606 
-109.752 -110.184 67.3744 -108.739 -110.563 67.2443 -107.859 -110.99 67.4389 
-107.196 -111.474 67.9916 -106.441 -111.993 68.5561 -105.442 -112.519 68.9411 
-104.503 -112.996 69.2661 -110.127 -108.428 68.3002 -110.828 -108.272 68.59 
-109.301 -108.667 68.0764 -108.323 -109.001 67.9295 -107.316 -109.421 67.9789 
-106.493 -109.865 68.33 -105.725 -110.322 68.7518 -104.729 -110.881 68.9487 
-103.686 -111.519 69.0317 -102.963 -112.1 69.2653 -101.755 -111.424 69.618 
-102.077 -110.776 69.1265 -101.172 -109.956 69.7294 -102.789 -109.969 68.9448 
-101.45 -109.078 69.1461 -100.774 -108.134 69.9212 -103.843 -109.16 68.9771 
-102.083 -108.041 68.8853 -101.032 -107.039 69.2559 -100.428 -106.124 70.1624 
-104.908 -108.555 68.8916 -103.103 -107.118 68.872 -101.677 -105.88 68.9037 
-100.813 -104.934 69.583 -100.259 -104.138 70.6119 -105.923 -108.089 68.6525 
-104.321 -106.495 68.8788 -102.799 -104.95 68.8506 -101.677 -103.816 69.2857 
-100.904 -103.001 70.1959 -100.375 -102.279 71.1658 -107.029 -107.663 68.5374 
-105.609 -106.075 68.913 -104.168 -104.364 68.9558 -102.928 -102.965 69.1993 
-101.947 -102.045 69.9147 -101.191 -101.324 70.7721 -100.611 -100.666 71.6313 
-108.103 -107.364 68.6287 -106.826 -105.842 69.0683 -105.52 -104.097 69.1815 
-104.276 -102.463 69.2501 -103.16 -101.328 69.7177 -102.231 -100.578 70.468 
-101.499 -99.9278 71.2639 -100.893 -99.3831 72.1605 -109.009 -107.229 68.8354 
-107.842 -105.82 69.3083 -106.691 -104.132 69.5058 -105.569 -102.366 69.4883 
-104.447 -100.961 69.7035 -103.391 -100.052 70.3203 -102.537 -99.3787 71.0913 
-101.856 -98.7948 71.9135 -101.284 -98.3786 72.8555 -109.798 -107.187 69.111 
-108.717 -105.898 69.5777 -107.679 -104.322 69.8512 -106.719 -102.582 69.8905 
-105.752 -101.023 69.9766 -104.716 -99.8877 70.422 -103.741 -99.0837 71.1338 
-102.943 -98.4253 71.8864 -102.282 -97.8962 72.6766 -101.752 -97.5731 73.5691 
-101.137 -111.061 70.4286 -100.664 -109.408 70.6957 -100.516 -110.664 71.4237 
-100.279 -107.458 70.9193 -100.093 -108.851 71.692 -99.9216 -110.304 72.3807 
-99.9708 -105.419 71.2295 -99.8197 -106.812 71.9995 -99.7003 -108.311 72.7944 
-99.6368 -109.867 73.6334 -99.9013 -103.402 71.7392 -99.6917 -104.779 72.5224 
-99.6299 -106.197 73.4568 -99.631 -107.67 74.4199 -99.5691 -109.268 75.3199 
-99.9965 -101.493 72.2485 -99.6607 -102.751 73.0958 -99.5231 -104.215 74.149 
-99.5006 -105.601 75.2403 -99.5102 -107.063 76.1526 -99.455 -108.712 76.8449 
-100.15 -99.936 72.7727 -99.6528 -100.866 73.6133 -99.3999 -102.221 74.6496 
-99.2564 -103.735 75.7554 -99.2201 -105.192 76.7167 -99.2581 -106.736 77.4465 
-99.3264 -108.352 78.0429 -100.492 -98.8075 73.46 -99.8521 -99.4748 74.2583 
-99.4596 -100.467 75.1932 -99.2075 -101.837 76.1933 -99.0442 -103.415 77.1309 
-99.0367 -105.003 77.9236 -99.1338 -106.588 78.6204 -99.3044 -108.096 79.2469 
-101.031 -97.9441 74.1945 -100.392 -98.5493 74.9893 -99.8938 -99.3188 75.8756 
-99.5036 -100.309 76.8028 -99.1899 -101.653 77.7069 -99.0538 -103.251 78.5025 
-99.1148 -104.875 79.2035 -99.2621 -106.431 79.8526 -99.4856 -107.853 80.3901 
-101.835 -97.0468 74.6527 -101.246 -97.5837 75.4689 -102.055 -96.6468 75.9346 
-101.607 -97.3851 76.8726 -102.361 -96.4379 77.4483 -100.73 -98.3903 76.3992 
-101.934 -97.3302 78.4011 -102.722 -96.4581 79.0933 -101.129 -98.3809 77.8553 
-100.205 -99.2676 77.3731 -102.257 -97.389 79.9875 -103.212 -96.6804 80.6537 
-101.436 -98.3995 79.3403 -100.51 -99.34 78.868 -99.6727 -100.278 78.3599 
-102.722 -97.5935 81.5043 -103.816 -97.0723 82.0492 -101.844 -98.4424 80.843 
-100.913 -99.4339 80.2858 -99.9553 -100.415 79.856 -99.3277 -101.665 79.2504 
-103.257 -98.0034 82.884 -104.425 -97.6444 83.3122 -102.356 -98.6822 82.2997 
-101.548 -99.6578 81.6537 -100.579 -100.73 81.1305 -99.7617 -101.892 80.6332 
-99.3176 -103.332 79.9543 -103.85 -98.6105 84.0559 -105.053 -98.3763 84.3844 
-102.845 -99.1761 83.5808 -102.114 -100.13 82.9667 -101.352 -101.268 82.3032 
-100.534 -102.367 81.7029 -99.9219 -103.579 81.1443 -99.5036 -105.012 80.5335 
-104.578 -99.3724 84.956 -105.704 -99.1961 85.2099 -103.504 -99.8439 84.5693 
-102.661 -100.737 84.057 -101.974 -101.886 83.427 -101.308 -102.958 82.7117 
-100.728 -103.983 82.0431 -100.206 -105.221 81.5232 -99.7354 -106.596 81.0231 
-105.319 -100.242 85.6465 -106.293 -100.041 85.8538 -104.338 -100.652 85.3136 
-103.463 -101.41 84.8557 -102.702 -102.46 84.3173 -102.014 -103.496 83.6962 
-101.468 -104.424 82.9755 -101.009 -105.495 82.3194 -100.494 -106.772 81.841 
-100.039 -108.011 81.3696 -102.581 -97.0508 73.6937 -102.683 -96.4642 74.7881 
-103.67 -96.7393 73.9155 -103.9 -96.1595 75.0784 -105.098 -96.6425 74.2916 
-102.92 -96.034 76.2047 -105.526 -96.1183 75.5433 -106.576 -96.7754 74.8143 
-104.286 -95.7885 76.631 -103.307 -95.8773 77.9233 -107.079 -96.3835 76.0868 
-107.76 -97.2512 75.3892 -106.043 -95.8716 77.1028 -104.809 -95.7628 78.4208 
-103.846 -96.0243 79.6676 -108.265 -96.9922 76.6403 -108.819 -97.9491 75.9203 
-107.621 -96.2582 77.5694 -106.577 -95.9987 78.8495 -105.416 -96.0372 80.1609 
-104.513 -96.3802 81.2107 -109.368 -97.7293 77.1775 -109.924 -98.6641 76.3835 
-108.891 -96.8465 78.0929 -108.182 -96.4278 79.2976 -107.105 -96.3755 80.6073 
-106.052 -96.478 81.697 -105.191 -96.9193 82.5771 -110.434 -98.5444 77.641 
-110.868 -99.4624 76.8012 -110.042 -97.5691 78.5908 -109.557 -96.9544 79.7498 
-108.696 -96.8476 81.0122 -107.617 -96.9017 82.0986 -106.656 -97.1299 83.0015 
-105.816 -97.6768 83.7903 -111.288 -99.4984 78.0031 -111.593 -100.344 77.1739 
-111.009 -98.532 78.9389 -110.679 -97.7317 80.0463 -110.052 -97.4425 81.2678 
-109.102 -97.4889 82.3509 -108.105 -97.6427 83.2579 -107.214 -98.0027 84.0992 
-106.412 -98.5582 84.7825 -112.011 -100.415 78.2763 -112.27 -101.143 77.4737 
-111.799 -99.5847 79.1671 -111.566 -98.7683 80.1922 -111.109 -98.2829 81.3651 
[...]
CELL_DATA 2000
SCALARS Distance double
LOOKUP_TABLE default
179.035 178.122 178.452 178.124 177.02 177.433 177.084 177.445 177.033 
175.773 176.217 175.808 176.262 175.814 176.224 175.77 174.44 174.884 
174.405 174.884 174.429 174.905 174.461 174.916 174.521 173.03 173.486 
172.972 173.447 172.99 173.492 173.089 173.581 173.203 173.688 173.332 
171.611 172.049 171.533 172 171.52 172.035 171.623 172.175 171.799 
172.335 171.957 172.469 172.086 170.29 170.67 170.152 170.577 170.074 
170.55 170.102 170.66 170.284 170.872 170.512 171.061 170.684 171.197 
170.834 169.077 169.404 168.886 169.254 168.755 169.15 168.701 169.177 
168.836 169.385 169.096 169.635 169.323 169.824 169.507 170.004 169.731 
167.961 168.239 167.742 168.062 167.585 167.911 167.472 167.868 167.556 
168.048 167.82 168.319 168.064 168.53 168.246 168.722 168.476 168.987 
168.8 179.445 179.796 179.255 178.516 180.171 179.59 178.763 178.231 
177.424 180.503 179.95 179.086 178.481 177.612 177.088 176.24 180.69 
180.23 179.381 178.791 177.867 177.294 176.406 175.876 174.965 180.683 
180.314 179.468 178.995 178.051 177.513 176.565 176.031 175.072 174.535 
173.555 180.56 180.218 179.359 178.978 178.076 177.621 176.677 176.16 
175.18 174.626 173.615 173.081 172.118 180.425 180.082 179.255 178.874 
178.038 177.621 176.743 176.255 175.317 174.76 173.788 173.197 172.235 
171.69 170.803 180.276 179.973 179.208 178.833 178.031 177.618 176.758 
176.301 175.385 174.889 173.976 173.432 172.522 171.915 171.003 170.435 
169.595 180.049 179.814 179.074 178.771 177.961 177.596 176.708 176.283 
175.337 174.896 173.998 173.574 172.746 172.239 171.369 170.74 169.838 
169.26 168.464 179.648 178.583 178.976 178.637 177.272 177.751 177.372 
177.865 177.492 175.805 176.313 175.891 176.471 176.108 176.636 176.217 
174.351 174.82 174.442 175.005 174.699 175.222 174.824 175.29 174.835 
173.111 173.461 173.135 173.647 173.417 173.906 173.54 173.935 173.484 
173.917 173.521 172.117 172.355 171.94 172.37 172.058 172.592 172.211 
172.669 172.211 172.63 172.24 172.697 172.346 171.157 171.383 170.82 
171.14 170.609 171.099 170.627 171.206 170.783 171.331 170.947 171.437 
171.042 171.494 171.024 170.143 170.367 169.748 169.976 169.326 169.641 
169.097 169.595 169.243 169.853 169.552 170.1 169.668 170.12 169.564 
170.016 169.459 169.212 169.37 168.777 168.931 168.308 168.475 167.926 
168.234 167.883 168.394 168.13 168.678 168.249 168.692 168.087 168.507 
167.933 168.433 168.015 167.194 166.956 166.635 165.911 166.993 166.436 
165.473 165.27 164.561 167.171 166.519 165.312 164.824 163.847 163.787 
163.079 167.196 166.666 165.402 164.699 163.444 163.08 162.21 162.269 
161.685 167.092 166.669 165.572 164.835 163.508 162.819 161.791 161.546 
160.954 161.033 160.629 167.19 166.706 165.813 165.102 163.902 163.045 
161.935 161.371 160.707 160.535 160.153 160.166 159.838 167.575 167.006 
166.227 165.517 164.476 163.572 162.444 161.665 160.856 160.463 160.012 
159.874 159.552 159.502 159.226 168.066 167.488 166.768 166.077 165.165 
164.273 163.204 162.278 161.362 160.718 160.156 159.843 159.512 159.359 
159.112 159.028 158.866 168.555 168.003 167.342 166.686 165.886 165.056 
164.118 163.156 162.27 161.401 160.789 160.188 159.852 159.49 159.287 
159.062 158.919 158.807 158.756 167.196 165.994 166.719 166.987 164.713 
165.505 165.77 166.527 166.806 163.296 164.156 164.422 165.244 165.527 
166.332 166.673 161.941 162.742 163.058 163.877 164.222 165.049 165.491 
166.309 166.796 160.841 161.502 161.875 162.631 163.076 163.847 164.371 
165.186 165.769 166.56 167.092 159.929 160.469 160.789 161.533 162.019 
162.807 163.329 164.122 164.667 165.499 166.034 166.836 167.308 159.228 
159.595 159.781 160.434 160.856 161.696 162.194 163.04 163.51 164.345 
164.827 165.685 166.185 167.006 167.477 158.872 159.036 159.177 159.554 
159.909 160.557 161.059 161.856 162.364 163.173 163.673 164.493 165.045 
165.878 166.45 167.228 167.749 158.808 158.865 159.076 159.224 159.602 
159.91 160.425 160.926 161.502 162.144 162.732 163.453 164.074 164.846 
165.501 166.271 166.894 167.595 168.133 158.879 159.301 159.123 159.264 
159.998 159.738 159.976 159.679 159.87 160.861 160.546 160.844 160.534 
160.752 160.384 160.631 161.875 161.451 161.712 161.42 161.672 161.314 
161.509 161.193 161.563 163.098 162.523 162.707 162.32 162.599 162.244 
162.481 162.104 162.415 162.19 162.717 164.444 163.786 163.908 163.403 
163.702 163.285 163.621 163.173 163.518 163.137 163.626 163.432 164.068 
165.808 165.124 165.187 164.629 164.906 164.484 164.896 164.45 164.845 
164.361 164.808 164.455 165.046 164.853 165.514 167.182 166.487 166.522 
165.907 166.134 165.692 166.112 165.738 166.16 165.712 166.094 165.673 
166.16 165.886 166.487 166.308 166.917 168.508 167.86 167.915 167.272 
167.47 166.948 167.328 166.934 167.356 166.956 167.306 166.892 167.278 
166.967 167.481 167.275 167.833 167.654 168.17 158.835 159.029 158.926 
159.148 159.713 159.29 159.391 159.353 159.766 160.911 160.235 160.269 
159.85 160.169 160.124 160.671 162.311 161.595 161.668 161.019 161.289 
160.859 161.346 161.202 161.816 163.682 163.018 163.149 162.516 162.807 
162.23 162.658 162.204 162.751 162.507 163.141 165.043 164.395 164.534 
163.954 164.275 163.762 164.187 163.661 164.111 163.655 164.193 163.922 
164.538 166.405 165.777 165.915 165.321 165.621 165.155 165.605 165.15 
165.574 165.061 165.488 165.075 165.619 165.351 165.942 167.693 167.134 
167.3 166.71 166.97 166.476 166.903 166.498 166.955 166.486 166.881 
166.396 166.86 166.495 167.058 166.773 167.333 168.84 168.374 168.575 
168.06 168.307 167.807 168.173 167.763 168.219 167.815 168.239 167.773 
168.19 167.762 168.256 167.917 168.442 168.143 168.639 168.652 168.441 
168.182 167.425 168.155 167.899 167.031 166.817 165.934 167.831 167.546 
166.621 166.363 165.41 165.195 164.208 167.7 167.293 166.397 166.011 
165.087 164.743 163.785 163.465 162.488 167.812 167.319 166.47 165.955 
165.077 164.595 163.721 163.255 162.356 161.91 161.08 167.966 167.491 
166.659 166.131 165.257 164.718 163.871 163.356 162.532 161.998 161.193 
160.721 160.095 168.128 167.652 166.86 166.342 165.507 164.949 164.113 
163.573 162.786 162.259 161.488 160.956 160.267 159.878 159.433 168.407 
167.894 167.184 166.626 165.881 165.279 164.506 163.898 163.144 162.571 
161.835 161.278 160.564 160.085 159.536 159.273 158.984 168.791 168.276 
167.643 167.065 166.385 165.759 165.045 164.394 163.68 163.039 162.335 
161.703 160.996 160.413 159.807 159.409 159.054 158.892 158.777 169.347 
170.375 169.647 169.21 171.483 170.724 170.319 169.534 169.021 172.699 
171.884 171.493 170.688 170.201 169.319 168.739 174.003 173.15 172.758 
171.915 171.451 170.542 169.981 169.059 168.559 175.254 174.445 174.047 
173.213 172.765 171.845 171.303 170.348 169.851 168.984 168.618 176.347 
175.62 175.23 174.466 174.042 173.175 172.653 171.701 171.195 170.3 
169.914 169.098 168.768 177.343 176.667 176.306 175.595 175.211 174.422 
173.942 173.04 172.53 171.637 171.229 170.4 170.056 169.239 168.913 
178.311 177.671 177.342 176.653 176.292 175.562 175.136 174.305 173.82 
172.947 172.525 171.7 171.354 170.538 170.207 169.398 169.127 179.22 
178.638 178.322 177.666 177.297 176.612 176.217 175.47 175.034 174.215 
173.794 172.977 172.62 171.822 171.487 170.687 170.387 169.635 169.43 
179.612 179.871 179.411 178.705 180.086 179.62 178.866 178.41 177.659 
180.293 179.823 179.051 178.561 177.776 177.33 176.573 180.439 180.008 
179.245 178.757 177.948 177.457 176.654 176.215 175.422 180.529 180.118 
179.349 178.907 178.069 177.599 176.742 176.288 175.454 175.027 174.218 
180.613 180.203 179.414 178.97 178.105 177.646 176.757 176.322 175.463 
175.048 174.222 173.819 173.038 180.635 180.271 179.502 179.055 178.205 
177.699 176.817 176.333 175.48 175.045 174.215 173.806 172.998 172.632 
171.88 180.579 180.261 179.538 179.143 178.347 177.856 177.005 176.472 
175.626 175.119 174.289 173.82 173.001 172.587 171.821 171.479 170.786 
180.523 180.212 179.52 179.165 178.411 177.988 177.17 176.679 175.834 
175.314 174.473 173.955 173.133 172.648 171.887 171.474 170.801 170.455 
169.851 180.282 179.497 179.694 179.244 178.502 178.802 178.326 178.572 
178.094 177.333 177.716 177.241 177.552 177.042 177.339 176.837 176.036 
176.49 176.035 176.402 175.874 176.203 175.675 176.013 175.5 174.611 
175.129 174.692 175.143 174.63 174.993 174.441 174.795 174.269 174.637 
174.129 173.141 173.659 173.23 173.745 173.274 173.708 173.173 173.543 
173.007 173.38 172.877 173.259 172.781 171.769 172.218 171.79 172.283 
171.847 172.323 171.835 172.251 171.73 172.116 171.619 172.007 171.55 
171.943 171.534 170.541 170.915 170.468 170.892 170.449 170.91 170.455 
170.903 170.416 170.827 170.337 170.744 170.304 170.723 170.346 170.764 
170.445 169.415 169.739 169.262 169.617 169.136 169.544 169.093 169.543 
169.106 169.531 169.068 169.463 169.025 169.46 169.107 169.575 169.289 
169.741 169.493 180.785 181.271 180.709 180.01 181.658 181.119 180.359 
179.811 178.999 182.038 181.454 180.629 180.072 179.195 178.67 177.79 
182.489 181.86 180.979 180.332 179.387 178.807 177.863 177.371 176.46 
182.728 182.25 181.317 180.675 179.627 178.985 177.95 177.407 176.425 
175.97 175.028 182.461 182.252 181.3 180.843 179.698 179.125 177.971 
177.438 176.376 175.907 174.907 174.484 173.548 181.848 181.791 180.902 
180.62 179.496 179.031 177.833 177.347 176.238 175.8 174.778 174.355 
173.392 173.009 172.152 181.186 181.158 180.381 180.182 179.199 178.795 
177.684 177.187 176.096 175.633 174.625 174.208 173.26 172.867 171.996 
171.664 170.906 180.579 180.549 179.855 179.716 178.88 178.563 177.596 
177.12 176.095 175.568 174.575 174.095 173.174 172.756 171.901 171.534 
170.757 170.462 169.773 181.339 182.394 181.875 181.882 183.544 182.987 
183.007 182.421 182.348 184.721 184.166 184.2 183.598 183.56 182.897 
182.791 185.879 185.34 185.384 184.797 184.782 184.147 184.073 183.38 
183.257 186.984 186.488 186.509 185.943 185.897 185.323 185.23 184.616 
184.435 183.769 183.479 187.8 187.475 187.437 186.968 186.831 186.327 
186.153 185.631 185.35 184.768 184.337 183.714 183.172 188.141 188.027 
187.929 187.665 187.438 187.075 186.794 186.377 186.002 185.497 184.955 
184.376 183.728 183.147 182.493 188.194 188.166 188.04 187.916 187.651 
187.437 187.077 186.797 186.353 185.975 185.397 184.882 184.193 183.618 
182.934 182.39 181.772 188.164 188.156 188.027 187.939 187.671 187.506 
187.108 186.892 186.398 186.138 185.568 185.205 184.552 184.055 183.373 
182.827 182.198 181.687 181.131 188.069 187.7 187.941 187.906 187.042 
187.431 187.43 187.665 187.517 186.202 186.649 186.652 187.045 186.896 
187.134 186.889 185.255 185.713 185.658 186.15 186.013 186.366 186.081 
186.366 186.091 184.198 184.671 184.563 185.092 184.967 185.395 185.11 
185.443 185.132 185.496 185.232 183.121 183.574 183.453 183.97 183.85 
184.318 184.059 184.423 184.101 184.478 184.204 184.594 184.277 182.089 
182.518 182.376 182.859 182.719 183.194 182.951 183.348 183.029 183.418 
183.128 183.537 183.227 183.577 183.169 181.043 181.479 181.298 181.765 
181.591 182.062 181.827 182.241 181.935 182.326 182.023 182.436 182.127 
182.509 182.129 182.44 182.015 180.004 180.423 180.225 180.665 180.473 
180.932 180.716 181.14 180.864 181.245 180.945 181.331 181.026 181.408 
181.063 181.401 181.018 181.32 180.948 179.381 178.481 179.155 179.58 
177.43 178.199 178.64 179.347 179.8 176.232 177.083 177.575 178.363 
178.841 179.57 180.028 175.02 175.877 176.412 177.258 177.768 178.563 
179.031 179.766 180.179 173.824 174.679 175.194 176.07 176.571 177.423 
177.884 178.698 179.122 179.869 180.254 172.555 173.431 173.894 174.803 
175.264 176.157 176.596 177.471 177.912 178.749 179.171 179.929 180.315 
171.282 172.114 172.543 173.446 173.899 174.807 175.257 176.152 176.626 
177.51 177.984 178.808 179.227 179.977 180.342 170.174 170.895 171.313 
172.129 172.602 173.468 173.962 174.842 175.355 176.243 176.757 177.614 
178.07 178.859 179.244 179.978 180.315 169.246 169.877 170.278 170.994 
171.464 172.257 172.772 173.611 174.144 175.008 175.531 176.392 176.867 
177.688 178.101 178.869 179.239 179.952 180.282 180.05 178.973 179.454 
179.289 177.787 178.288 178.072 178.592 178.322 176.522 177.029 176.751 
177.293 176.999 177.509 177.099 175.188 175.705 175.373 175.913 175.576 
176.12 175.703 176.172 175.643 173.795 174.317 173.937 174.477 174.079 
174.639 174.193 174.713 174.18 174.642 174.101 172.396 172.887 172.437 
172.965 172.492 173.066 172.586 173.153 172.636 173.144 172.622 173.118 
172.671 171.077 171.495 170.981 171.433 170.886 171.418 170.912 171.506 
171.027 171.591 171.108 171.631 171.196 171.739 171.388 169.9 170.228 
169.697 170.033 169.46 169.861 169.352 169.871 169.444 170.006 169.573 
170.111 169.678 170.239 169.885 170.491 170.227 168.872 169.123 168.599 
168.845 168.284 168.562 168.07 168.458 168.08 168.547 168.173 168.637 
168.214 168.717 168.353 168.961 168.721 169.382 169.224 180.707 180.974 
181.17 181.814 181.209 181.455 182.156 182.319 182.982 181.39 181.697 
182.475 182.689 183.385 183.516 184.17 181.45 181.815 182.609 182.963 
183.739 183.948 184.62 184.711 185.301 181.382 181.772 182.498 182.969 
183.835 184.25 185.022 185.183 185.739 185.765 186.193 181.214 181.633 
182.301 182.775 183.644 184.231 185.138 185.513 186.085 186.149 186.472 
186.49 186.777 180.913 181.403 182.05 182.529 183.275 183.915 184.783 
185.418 186.026 186.317 186.558 186.65 186.863 186.973 187.25 180.497 
181.033 181.647 182.174 182.768 183.391 184.047 184.798 185.359 185.951 
186.217 186.534 186.712 186.951 187.241 187.43 187.706 180.061 180.571 
181.136 181.675 182.192 182.758 183.257 183.923 184.411 185.095 185.466 
185.996 186.274 186.673 186.995 187.324 187.64 187.834 188.023 180.733 
181.865 181.247 181.122 183.05 182.437 182.361 181.664 181.431 184.225 
183.639 183.576 182.911 182.673 181.891 181.454 185.31 184.777 184.659 
184.044 183.755 183.049 182.592 181.779 181.216 186.177 185.759 185.591 
185.024 184.684 184.03 183.604 182.873 182.378 181.534 181.001 186.79 
186.487 186.332 185.853 185.546 184.943 184.627 183.942 183.6 182.766 
182.288 181.366 180.847 187.3 187.036 186.905 186.503 186.237 185.758 
185.528 185 184.769 184.053 183.611 182.678 182.067 181.157 180.617 
187.758 187.532 187.405 187.042 186.759 186.356 186.083 185.735 185.473 
185.036 184.561 183.852 183.144 182.291 181.616 180.852 180.365 188.064 
187.927 187.811 187.515 187.222 186.83 186.464 186.12 185.742 185.442 
184.928 184.485 183.771 183.14 182.413 181.742 181.179 180.566 180.149 
180.067 180.398 179.857 179.044 180.637 180.146 179.325 178.765 177.826 
180.596 180.239 179.418 178.997 178.106 177.495 176.433 180.331 180.035 
179.186 178.926 178.12 177.721 176.736 176.059 174.962 180.127 179.775 
178.924 178.631 177.874 177.624 176.825 176.337 175.323 174.625 173.664 
180.021 179.666 178.897 178.508 177.792 177.452 176.774 176.398 175.58 
174.993 174.059 173.428 172.637 179.88 179.593 178.917 178.575 177.917 
177.523 176.844 176.435 175.681 175.201 174.323 173.769 172.902 172.401 
171.655 179.712 179.461 178.815 178.557 177.912 177.614 176.906 176.531 
175.724 175.281 174.391 173.913 173.016 172.56 171.747 171.343 170.621 
179.548 179.313 178.659 178.413 177.737 177.495 176.78 176.491 175.691 
175.298 174.421 173.956 173.087 172.625 171.837 171.415 170.713 170.323 
169.686 181.175 181.265 181.548 182.231 181.363 181.674 182.403 182.677 
183.396 181.369 181.754 182.522 182.859 183.609 183.872 184.574 181.279 
181.709 182.493 182.92 183.683 184.035 184.75 185.026 185.711 181.174 
181.603 182.373 182.832 183.592 184.016 184.722 185.104 185.813 186.144 
186.808 181.018 181.467 182.189 182.666 183.378 183.845 184.511 184.964 
185.647 186.114 186.799 187.163 187.665 180.782 181.243 181.896 182.391 
183.031 183.54 184.155 184.658 185.281 185.816 186.462 186.978 187.497 
187.82 188.07 180.512 180.957 181.556 182.033 182.651 183.152 183.784 
184.277 184.89 185.39 185.981 186.518 187.03 187.494 187.81 188.062 
188.161 180.197 180.638 181.203 181.677 182.324 182.821 183.541 184.003 
184.677 185.071 185.622 186.032 186.495 186.957 187.319 187.708 187.906 
188.108 188.15 
POINT_DATA 1002
SCALARS Distance double
LOOKUP_TABLE default
178.746 179.594 178.767 177.845 177.759 177.782 176.698 176.605 176.711 
176.61 175.352 175.366 175.379 175.356 175.348 173.939 174.018 173.927 
173.984 174.047 174.17 172.502 172.571 172.477 172.569 172.717 172.849 
172.98 171.077 171.189 171.024 171.064 171.242 171.443 171.583 171.697 
169.748 169.937 169.634 169.568 169.68 169.936 170.159 170.314 170.493 
168.529 168.766 168.385 168.251 168.289 168.543 168.812 169.002 169.207 
169.495 167.425 167.695 167.274 167.1 167.069 167.315 167.606 167.779 
167.961 168.261 168.644 179.976 179.025 180.39 179.357 180.767 177.912 
179.728 181.016 178.177 176.751 179.947 181.108 178.471 176.956 175.513 
179.888 181.057 178.57 177.116 175.628 174.078 179.712 180.913 178.479 
177.181 175.739 174.175 172.596 179.625 180.74 178.432 177.205 175.847 
174.368 172.824 171.287 179.557 180.534 178.444 177.218 175.854 174.456 
173.107 171.639 170.085 179.354 180.261 178.313 177.129 175.779 174.38 
173.161 171.973 170.499 168.933 179.331 178.247 178.174 176.835 176.811 
177.037 175.297 175.311 175.546 175.745 173.855 173.89 174.176 174.379 
174.35 172.64 172.807 172.912 173.166 173.079 173.025 171.623 171.925 
171.564 171.705 171.769 171.791 171.908 170.606 170.944 170.237 170.033 
170.149 170.438 170.618 170.604 169.554 169.933 169.09 168.656 168.607 
168.977 169.247 169.142 168.948 168.627 169.079 168.154 167.684 167.444 
167.603 167.815 167.69 167.434 167.42 166.47 166.016 165.25 165.86 
164.547 163.888 166.012 164.068 162.931 162.423 166.175 164.023 162.246 
161.458 161.179 166.234 164.313 162.192 160.942 160.469 160.244 166.447 
164.765 162.635 160.985 160.203 159.793 159.484 166.894 165.346 163.321 
161.381 160.207 159.632 159.236 158.962 167.421 165.995 164.157 162.137 
160.571 159.694 159.215 158.891 158.749 167.964 166.645 165.021 163.178 
161.498 160.303 159.566 159.086 158.785 158.737 166.264 165.004 166.047 
163.581 164.685 165.853 162.228 163.372 164.614 166.01 161.105 162.299 
163.564 164.943 166.363 160.066 161.202 162.564 163.867 165.2 166.548 
159.242 160.042 161.331 162.696 163.973 165.314 166.697 158.909 159.386 
160.306 161.547 162.855 164.197 165.627 167.03 158.942 159.383 160.042 
160.93 162.036 163.312 164.718 166.161 167.496 158.961 159.471 159.477 
160.272 160.251 160.19 161.121 161.215 161.145 160.924 162.021 162.393 
162 161.878 161.73 163.159 163.746 162.945 162.859 162.71 162.81 
164.457 165.132 164.11 164.055 163.953 163.896 164.179 165.784 166.512 
165.322 165.291 165.346 165.238 165.295 165.667 167.168 167.867 166.616 
166.468 166.581 166.556 166.489 166.699 167.099 168.546 169.112 168.032 
167.765 167.756 167.734 167.632 167.715 168.031 168.371 158.812 159.011 
159.27 159.594 160.28 159.575 160.836 161.622 160.386 160.552 162.333 
162.982 161.842 161.647 161.845 163.742 164.327 163.377 163.209 163.126 
163.287 165.119 165.688 164.746 164.705 164.655 164.557 164.738 166.528 
167.002 166.102 166.019 166.097 165.976 165.934 166.186 167.874 168.205 
167.502 167.309 167.383 167.389 167.281 167.367 167.623 169.046 169.272 
168.807 168.613 168.601 168.677 168.653 168.64 168.763 168.941 168.916 
167.668 168.742 167.29 168.437 166.14 166.913 168.146 165.665 164.429 
166.823 168.135 165.46 164.139 162.791 167.004 168.302 165.587 164.189 
162.838 161.443 167.17 168.431 165.806 164.381 163.045 161.718 160.423 
167.359 168.598 166.054 164.664 163.297 162.018 160.732 159.652 167.727 
168.9 166.469 165.123 163.735 162.403 161.088 159.876 159.085 170.051 
169.976 171.103 171.096 172.255 169.888 172.304 173.54 171.083 169.636 
173.61 174.864 172.363 170.912 169.399 174.863 176.04 173.671 172.267 
170.736 169.421 175.963 177.042 174.867 173.592 172.104 170.748 169.576 
177.002 177.99 175.959 174.811 173.427 172.063 170.881 169.714 178.027 
178.922 177.002 175.92 174.68 173.356 172.161 171.023 169.886 178.969 