# vtk DataFile Version 4.0
vtk output
ASCII
DATASET POLYDATA
POINTS 1002 float
-119.135 -114.353 54.8269 -118.817 -113.378 54.0193 -118.406 -113.44 54.4619 
-118.739 -114.533 55.36 -118.044 -113.581 55.0499 -119.471 -115.454 55.8416 
-118.375 -114.89 55.9797 -117.709 -113.945 55.6525 -119.068 -115.872 56.4052 
-119.753 -116.808 56.9666 -118.003 -115.478 56.6057 -117.339 -114.533 56.2501 
-118.678 -116.419 57.0787 -119.311 -117.364 57.6227 -119.917 -118.241 58.2486 
-117.607 -116.154 57.3354 -116.939 -115.257 56.9373 -118.29 -117.015 57.8894 
-118.894 -117.901 58.497 -119.427 -118.793 59.0989 -119.998 -119.53 59.7956 
-117.213 -116.802 58.2451 -116.552 -116.046 57.7117 -117.905 -117.56 58.886 
-118.513 -118.384 59.5787 -118.992 -119.303 60.171 -119.482 -120.139 60.7609 
-120.05 -120.769 61.4357 -116.799 -117.429 59.238 -116.19 -116.771 58.5585 
-117.459 -118.144 59.9351 -118.078 -118.938 60.6736 -118.559 -119.835 61.3174 
-118.996 -120.735 61.8335 -119.492 -121.495 62.3511 -120.017 -122.124 62.8443 
-116.374 -118.064 60.2434 -115.875 -117.396 59.5279 -116.902 -118.869 60.8958 
-117.461 -119.722 61.5668 -117.966 -120.561 62.26 -118.417 -121.398 62.8384 
-118.886 -122.188 63.2964 -119.369 -122.894 63.6753 -119.835 -123.521 63.962 
-115.967 -118.777 61.2068 -115.572 -118.072 60.538 -116.333 -119.685 61.7666 
-116.744 -120.643 62.3069 -117.212 -121.455 62.9633 -117.683 -122.189 63.624 
-118.161 -122.939 64.1341 -118.653 -123.635 64.5029 -119.122 -124.25 64.7628 
-119.564 -124.779 64.9497 -115.503 -119.575 62.0118 -115.169 -118.867 61.4041 
-115.794 -120.472 62.5289 -116.089 -121.454 63.0058 -116.481 -122.279 63.6028 
-116.94 -122.952 64.285 -117.407 -123.67 64.8456 -117.902 -124.378 65.243 
-118.408 -124.944 65.5396 -118.874 -125.406 65.7495 -119.304 -125.809 65.8963 
-118.213 -112.356 53.5862 -117.78 -112.451 54.0377 -117.518 -111.246 53.1674 
-117.057 -111.437 53.6121 -116.737 -110.13 52.7417 -117.409 -112.617 54.6337 
-116.234 -110.394 53.2275 -115.93 -109.021 52.3985 -116.64 -111.696 54.1884 
-117.052 -112.965 55.2581 -115.379 -109.347 52.9674 -115.154 -108.018 52.1891 
-115.711 -110.823 53.791 -116.196 -112.07 54.8335 -116.641 -113.525 55.9104 
-114.564 -108.436 52.8156 -114.433 -107.206 52.1308 -114.756 -109.989 53.5364 
-115.147 -111.321 54.4488 -115.723 -112.609 55.537 -116.213 -114.346 56.5778 
-113.803 -107.679 52.7839 -113.808 -106.518 52.302 -113.922 -109.153 53.4174 
-114.182 -110.595 54.2218 -114.69 -111.865 55.2027 -115.315 -113.502 56.1729 
-115.825 -115.347 57.2196 -113.119 -107.013 52.9868 -113.278 -105.915 52.7091 
-113.185 -108.33 53.4677 -113.441 -109.775 54.1814 -113.838 -111.158 55.0669 
-114.387 -112.752 55.9029 -114.988 -114.631 56.7606 -115.508 -116.226 57.9991 
-112.586 -106.447 53.4637 -112.815 -105.412 53.2824 -112.555 -107.653 53.8024 
-112.787 -109.031 54.3698 -113.166 -110.475 55.1559 -113.61 -112.041 55.9099 
-114.16 -113.856 56.576 -114.767 -115.594 57.5695 -115.275 -116.937 59.0325 
-112.263 -106.003 54.1506 -112.442 -105.019 54.0037 -112.168 -107.169 54.4164 
-112.27 -108.509 54.8362 -112.571 -109.941 55.4567 -112.978 -111.408 56.1156 
-113.485 -113.039 56.6665 -114.099 -114.801 57.416 -114.671 -116.385 58.6605 
-115.034 -117.692 60.1352 -112.125 -105.377 54.9945 -112.056 -106.527 55.1892 
-112.038 -106.1 56.2121 -112.043 -107.377 56.3892 -112.037 -107.125 57.4871 
-112.028 -107.894 55.491 -112.097 -108.398 57.6127 -112.087 -108.214 58.7213 
-112.074 -108.832 56.6695 -112.156 -109.386 55.9422 -112.327 -109.458 58.7985 
-112.514 -109.379 59.7661 -112.332 -109.738 57.8143 -112.318 -110.245 57.0373 
-112.503 -110.83 56.477 -113.046 -110.741 59.6875 -113.573 -110.794 60.2459 
-112.906 -110.76 58.8311 -112.882 -111.035 57.9831 -112.857 -111.611 57.3494 
-113.043 -112.329 56.9376 -114.246 -112.315 60.0702 -114.946 -112.344 60.2396 
-113.81 -112.278 59.6043 -113.68 -112.361 58.902 -113.623 -112.715 58.2466 
-113.58 -113.354 57.8264 -113.716 -114.115 57.58 -115.377 -113.923 60.4671 
-115.987 -113.834 60.5032 -114.788 -114.058 60.3555 -114.407 -114.276 60.0358 
-114.27 -114.559 59.5781 -114.208 -114.936 59.1851 -114.168 -115.454 58.9353 
-114.307 -115.987 58.7643 -115.901 -115.381 61.4259 -116.374 -115.246 61.4124 
-115.368 -115.603 61.4912 -114.831 -115.958 61.4949 -114.455 -116.347 61.3388 
-114.295 -116.667 61.0333 -114.238 -117.012 60.6885 -114.303 -117.382 60.4094 
-114.593 -117.616 60.2281 -115.882 -116.727 62.6897 -116.322 -116.602 62.5952 
-115.414 -116.882 62.8491 -114.874 -117.132 63.0111 -114.314 -117.451 63.0533 
-113.912 -117.76 62.8455 -113.739 -118.139 62.3973 -113.784 -118.613 61.9239 
-114.099 -118.937 61.6205 -114.623 -118.975 61.4822 -114.783 -120.172 62.4541 
-114.072 -120.303 62.5086 -114.286 -121.482 63.4242 -113.428 -120.141 62.6645 
-113.56 -121.579 63.4894 -113.981 -122.699 64.6448 -113.098 -119.56 63.1148 
-112.997 -121.305 63.7179 -113.437 -122.872 64.8538 -113.868 -123.969 66.2278 
-113.159 -118.907 63.7805 -112.795 -120.628 64.2921 -113.03 -122.681 65.2263 
-113.375 -124.204 66.6293 -113.564 -125.228 67.8465 -113.573 -118.548 64.273 
-113.042 -120.044 64.9648 -112.937 -122.139 65.7969 -112.93 -123.988 67.114 
-112.892 -125.267 68.3474 -113.029 -126.288 69.2982 -114.213 -118.387 64.3742 
-113.666 -119.848 65.2981 -113.352 -121.745 66.2137 -112.93 -123.504 67.5634 
-112.453 -124.846 68.8782 -112.36 -126.13 69.8418 -112.601 -127.275 70.7341 
-114.841 -118.265 64.2171 -114.364 -119.8 65.2632 -114.065 -121.593 66.2707 
-113.53 -123.212 67.7088 -112.705 -124.385 69.247 -112.215 -125.616 70.4094 
-112.212 -127.022 71.3596 -112.292 -128.14 72.2575 -115.368 -118.174 63.9877 
-114.933 -119.727 65.0791 -114.669 -121.404 66.156 -114.255 -122.967 67.6289 
-113.453 -124.14 69.3012 -112.702 -125.192 70.7228 -112.373 -126.433 71.921 
-112.205 -127.649 72.99 -111.988 -128.577 73.7755 -115.871 -118.065 63.7849 
-115.46 -119.619 64.8611 -115.152 -121.171 65.9807 -114.783 -122.587 67.4852 
-114.173 -123.806 69.1914 -113.461 -124.921 70.6759 -112.926 -125.991 72.0418 
-112.54 -126.957 73.4298 -112.156 -127.816 74.5403 -111.843 -128.603 75.1204 
-115.107 -120.984 63.0534 -114.668 -122.292 64.1882 -115.408 -121.924 63.6227 
-114.387 -123.526 65.6481 -115.041 -123.206 64.9569 -115.766 -122.85 64.2456 
-114.156 -124.888 67.2692 -114.762 -124.542 66.5181 -115.49 -124.161 65.7192 
-116.234 -123.616 64.9686 -113.77 -126.157 68.8247 -114.453 -125.931 68.1161 
-115.18 -125.598 67.2552 -115.98 -125.023 66.4167 -116.718 -124.359 65.6042 
-113.307 -127.213 70.3606 -114.078 -127.008 69.7547 -114.796 -126.828 68.8392 
-115.605 -126.404 67.8711 -116.465 -125.773 66.9484 -117.221 -125.12 66.0505 
-112.793 -128.228 71.8761 -113.612 -127.957 71.3349 -114.428 -127.734 70.4345 
-115.215 -127.47 69.3666 -116.148 -126.946 68.3663 -117.066 -126.35 67.3687 
-117.793 -125.704 66.3979 -112.204 -128.999 73.2915 -112.953 -128.934 72.6776 
-113.979 -128.673 71.7861 -114.91 -128.414 70.6867 -115.844 -127.955 69.6762 
-116.867 -127.34 68.7166 -117.722 -126.749 67.6727 -118.34 -126.116 66.6527 
-111.807 -129.304 74.5705 -112.327 -129.607 73.8481 -113.399 -129.513 72.9215 
-114.57 -129.279 71.772 -115.581 -128.911 70.6719 -116.595 -128.336 69.7545 
-117.557 -127.71 68.8113 -118.274 -127.114 67.7802 -118.808 -126.486 66.7876 
-111.919 -129.039 75.908 -112.028 -129.756 75.1741 -112.565 -129.508 76.2974 
-112.911 -130.052 75.4978 -113.715 -129.794 76.2342 -112.805 -129.991 74.2518 
-114.317 -130.111 75.4406 -115.128 -129.807 75.7582 -113.882 -130.075 74.462 
-114.082 -129.844 73.0508 -115.963 -130.152 74.9134 -116.711 -129.8 75.1025 
-115.385 -130.058 74.2919 -115.178 -129.854 73.0292 -115.325 -129.578 71.6793 
-117.584 -130.272 74.1693 -118.286 -129.866 74.5049 -117.029 -130.255 73.6854 
-116.598 -129.923 72.7357 -116.372 -129.66 71.4775 -116.407 -129.19 70.4984 
-119.021 -130.246 73.465 -119.705 -129.843 73.8939 -118.515 -130.419 72.9596 
-118.114 -130.181 72.242 -117.704 -129.819 71.1783 -117.435 -129.405 70.1845 
-117.439 -128.645 69.5084 -120.438 -130.091 72.7613 -121.056 -129.693 73.1879 
-119.894 -130.349 72.2697 -119.493 -130.304 71.6906 -119.099 -129.989 70.8251 
-118.658 -129.585 69.834 -118.365 -128.942 69.0958 -118.291 -128.023 68.507 
-121.83 -129.894 72.0764 -122.25 -129.42 72.5161 -121.328 -130.202 71.5922 
-120.824 -130.244 71.0739 -120.359 -130.002 70.3487 -119.884 -129.62 69.4363 
-119.416 -129.082 68.6631 -119.087 -128.278 68.1014 -118.914 -127.35 67.505 
-122.881 -129.525 71.4853 -123.095 -128.989 71.942 -122.548 -129.905 70.9787 
-122.059 -130.005 70.4591 -121.492 -129.817 69.7961 -120.956 -129.48 68.962 
-120.457 -129.021 68.2165 -120.005 -128.336 67.6948 -119.665 -127.482 67.194 
-119.447 -126.62 66.5665 -112.146 -127.988 76.0469 -112.476 -128.43 76.8153 
-112.687 -127.462 76.5255 -113.223 -127.838 77.1779 -113.401 -127.164 76.2229 
-113.346 -128.938 76.9544 -114.07 -127.327 76.7066 -114.422 -126.897 75.2347 
-114.182 -128.202 77.056 -114.52 -129.164 76.5019 -115.292 -126.886 75.567 
-115.773 -126.561 74.0097 -115.181 -127.471 76.4928 -115.408 -128.307 76.3882 
-115.939 -129.116 75.795 -116.786 -126.51 74.2953 -117.088 -126.192 72.9018 
-116.624 -126.889 75.5018 -116.677 -127.561 75.9224 -117.027 -128.366 75.6718 
-117.644 -129.186 75.197 -117.943 -126.007 73.2491 -118.049 -125.644 71.9568 
-117.99 -126.251 74.5191 -118.151 -126.824 75.2563 -118.394 -127.698 75.3191 
-118.807 -128.599 75.1015 -119.279 -129.356 74.6717 -118.666 -125.288 72.2953 
-118.748 -124.855 71.06 -118.77 -125.451 73.5891 -119.1 -125.857 74.5074 
-119.456 -126.749 74.7621 -119.823 -127.797 74.6711 -120.257 -128.7 74.4822 
-120.664 -129.323 73.9997 -119.329 -124.526 71.2391 -119.371 -123.972 70.1711 
-119.363 -124.776 72.4366 -119.624 -125.055 73.4598 -120.006 -125.735 73.9561 
-120.405 -126.683 74.0119 -120.912 -127.64 73.9514 -121.45 -128.467 73.7608 
-121.885 -129.05 73.2631 -120.04 -123.773 70.1925 -119.954 -123.103 69.3613 
-120.114 -124.244 71.1467 -120.282 -124.616 72.0929 -120.554 -125.134 72.7902 
[...]
CELL_DATA 2000
SCALARS Distance double
LOOKUP_TABLE default
172.58 172.547 172.95 173.784 172.698 173.022 173.917 174.276 175.192 
173.045 173.3 174.228 174.52 175.47 175.783 176.706 173.501 173.731 
174.674 174.916 175.852 176.115 177.024 177.302 178.166 174.002 174.217 
175.158 175.385 176.302 176.528 177.417 177.65 178.515 178.752 179.58 
174.514 174.711 175.614 175.846 176.751 176.979 177.862 178.073 178.936 
179.144 179.98 180.178 180.962 175.041 175.204 176.067 176.28 177.169 
177.408 178.282 178.508 179.346 179.562 180.363 180.573 181.321 181.512 
182.191 175.627 175.741 176.582 176.745 177.608 177.819 178.667 178.892 
179.691 179.92 180.675 180.902 181.607 181.816 182.457 182.64 183.214 
176.212 176.319 177.1 177.249 178.039 178.235 179.015 179.236 179.98 
180.21 180.926 181.162 181.85 182.067 182.698 182.878 183.441 183.593 
184.095 171.798 170.526 171.352 171.731 169.155 170.059 170.497 171.343 
171.835 167.726 168.676 169.183 170.101 170.632 171.52 172.128 166.377 
167.274 167.821 168.781 169.348 170.281 170.881 171.84 172.527 165.238 
166.01 166.542 167.456 168.027 168.958 169.532 170.522 171.22 172.266 
173.024 164.278 164.93 165.387 166.226 166.77 167.656 168.207 169.152 
169.855 170.933 171.786 172.831 173.612 163.482 163.994 164.342 165.082 
165.603 166.45 167.041 167.911 168.63 169.63 170.538 171.617 172.519 
173.469 174.208 162.911 163.272 163.561 164.118 164.641 165.386 166.077 
166.884 167.659 168.534 169.425 170.429 171.377 172.388 173.239 174.11 
174.83 162.58 162.838 163.177 163.538 164.095 164.641 165.406 166.097 
166.935 167.689 168.535 169.396 170.304 171.28 172.211 173.159 173.999 
174.799 175.491 162.614 163.303 163.015 163.319 164.443 163.948 164.214 
163.872 164.288 165.684 165.16 165.394 164.943 165.328 165.014 165.587 
167.019 166.41 166.639 166.148 166.5 166.131 166.64 166.41 167.067 
168.743 167.92 168.147 167.476 167.803 167.318 167.777 167.468 168.067 
167.896 168.61 170.744 169.846 170.094 169.219 169.585 168.84 169.369 
168.79 169.454 169.039 169.802 169.544 170.377 172.597 171.844 172.167 
171.317 171.771 170.914 171.568 170.766 171.56 170.825 171.662 171.052 
171.906 171.489 172.346 174.122 173.558 173.935 173.297 173.762 173.085 
173.677 173.015 173.7 173.045 173.734 173.084 173.76 173.19 173.89 
173.462 174.167 175.396 174.946 175.289 174.841 175.202 174.759 175.109 
174.703 175.025 174.684 174.986 174.691 175.019 174.738 175.149 174.871 
175.367 175.091 175.614 176.358 176.069 176.536 177.155 175.726 176.149 
176.708 177.246 177.917 175.433 175.727 176.19 176.748 177.551 178.182 
179.096 175.344 175.461 175.829 176.263 177.159 177.889 179.001 179.577 
180.485 175.501 175.516 175.898 176.093 176.98 177.612 178.78 179.44 
180.324 180.794 181.432 175.752 175.821 176.337 176.399 177.258 177.645 
178.731 179.235 180.03 180.459 181.032 181.535 182.197 175.931 176.13 
176.769 176.906 177.753 178.043 179.044 179.346 180.075 180.256 180.802 
181.149 181.898 182.444 183.28 176.04 176.321 177.021 177.269 178.08 
178.427 179.355 179.683 180.416 180.507 181.034 181.148 181.864 182.267 
183.15 183.618 184.307 176.153 176.455 177.194 177.479 178.252 178.605 
179.442 179.845 180.592 180.834 181.392 181.501 182.101 182.35 183.102 
183.499 184.16 184.501 184.918 176.716 177.573 177.313 177.59 178.387 
178.134 178.499 178.215 178.515 179.514 179.069 179.44 179.122 179.5 
179.176 179.48 180.842 180.352 180.675 180.207 180.597 180.207 180.572 
180.17 180.449 181.881 181.601 181.965 181.53 181.89 181.425 181.787 
181.325 181.629 181.157 181.404 182.761 182.549 183.014 182.711 183.073 
182.688 182.996 182.56 182.837 182.369 182.615 182.122 182.332 183.785 
183.513 183.977 183.69 184.05 183.736 184.02 183.664 183.914 183.522 
183.764 183.325 183.525 183.025 183.174 184.659 184.475 184.825 184.599 
184.909 184.647 184.931 184.617 184.871 184.523 184.769 184.401 184.612 
184.176 184.308 183.805 183.892 185.176 185.111 185.378 185.276 185.548 
185.407 185.69 185.475 185.723 185.432 185.649 185.333 185.534 185.181 
185.319 184.882 184.95 184.462 184.513 185.505 186.19 185.779 185.717 
187.041 186.553 186.429 186.004 185.937 187.81 187.413 187.279 186.783 
186.656 186.235 186.129 188.504 188.175 188.132 187.634 187.432 186.95 
186.778 186.377 186.186 189.258 188.928 188.971 188.504 188.306 187.733 
187.469 186.995 186.783 186.374 186.127 189.926 189.636 189.642 189.306 
189.18 188.647 188.366 187.761 187.492 186.987 186.752 186.301 186.023 
190.488 190.201 190.153 189.884 189.819 189.45 189.242 188.691 188.372 
187.777 187.466 186.945 186.634 186.163 185.812 190.993 190.744 190.725 
190.421 190.369 190.037 189.866 189.44 189.107 188.59 188.184 187.654 
187.25 186.751 186.34 185.872 185.447 191.224 191.162 191.162 190.974 
190.877 190.577 190.323 189.945 189.55 189.138 188.685 188.248 187.783 
187.315 186.843 186.367 185.898 185.446 185 185.466 185.658 185.771 
186.221 185.825 186.01 186.537 186.635 187.092 185.833 186.103 186.605 
186.853 187.261 187.401 187.748 185.814 186.038 186.484 186.78 187.158 
187.39 187.699 187.916 188.307 185.971 186.08 186.529 186.709 187.179 
187.332 187.757 187.891 188.388 188.587 189.113 186.086 186.244 186.643 
186.819 187.322 187.503 188.051 188.153 188.737 188.838 189.44 189.516 
189.95 185.871 186.182 186.452 186.756 187.108 187.498 187.97 188.343 
188.842 189.135 189.641 189.845 190.265 190.294 190.556 185.422 185.807 
186.042 186.376 186.619 187.047 187.401 187.934 188.317 188.852 189.227 
189.724 190.095 190.433 190.709 190.803 190.984 184.945 185.34 185.651 
185.967 186.256 186.573 186.929 187.329 187.714 188.169 188.531 189.054 
189.448 189.992 190.352 190.731 190.935 191.093 191.164 176.484 177.437 
177.164 177.573 178.481 178.193 178.631 178.284 178.679 179.559 179.285 
179.771 179.405 179.795 179.415 179.826 180.678 180.404 180.926 180.567 
180.941 180.535 180.873 180.544 180.906 181.742 181.51 182.005 181.695 
182.062 181.668 181.97 181.582 181.895 181.548 181.791 182.609 182.463 
182.907 182.682 183.047 182.738 183.071 182.698 183.016 182.601 182.873 
182.41 182.612 183.312 183.226 183.697 183.524 183.918 183.667 184.021 
183.735 184.054 183.708 183.95 183.53 183.735 183.278 183.52 183.944 
183.897 184.435 184.321 184.775 184.546 184.874 184.6 184.851 184.591 
184.786 184.491 184.641 184.304 184.483 184.154 184.397 184.503 184.494 
185.016 185.005 185.474 185.359 185.659 185.404 185.557 185.279 185.426 
185.194 185.376 185.119 185.297 184.997 185.173 184.901 185.081 175.927 
175.33 176.045 176.874 174.686 175.468 176.361 177.052 177.903 173.957 
174.839 175.834 176.573 177.453 178.092 178.944 173.126 174.092 175.216 
176.076 177.046 177.684 178.531 179.152 180.041 172.285 173.253 174.439 
175.437 176.561 177.31 178.206 178.789 179.662 180.293 181.162 171.488 
172.419 173.59 174.643 175.884 176.804 177.843 178.494 179.371 179.956 
180.811 181.387 182.113 170.773 171.63 172.77 173.798 175.074 176.107 
177.293 178.108 179.081 179.692 180.533 181.067 181.787 182.258 182.839 
170.297 170.992 172.091 173.011 174.265 175.299 176.549 177.51 178.605 
179.362 180.255 180.815 181.527 181.965 182.544 182.947 183.467 170.161 
170.659 171.695 172.431 173.624 174.538 175.763 176.74 177.885 178.789 
179.762 180.471 181.218 181.714 182.287 182.679 183.189 183.574 184.061 
170.507 171.613 171.328 172.018 172.872 172.547 173.257 173.013 173.882 
174.172 173.86 174.589 174.31 175.15 174.966 175.933 175.49 175.188 
175.953 175.665 176.489 176.253 177.167 177.032 178.007 176.884 176.559 
177.357 177.053 177.875 177.599 178.455 178.259 179.162 179.045 179.896 
178.325 177.997 178.785 178.471 179.27 178.98 179.771 179.523 180.307 
180.142 180.891 180.762 181.375 179.663 179.39 180.113 179.836 180.567 
180.315 181.046 180.792 181.467 181.23 181.847 181.674 182.216 182.046 
182.462 180.809 180.604 181.248 181.029 181.675 181.489 182.168 181.976 
182.591 182.334 182.848 182.598 183.074 182.866 183.287 183.053 183.389 
181.806 181.643 182.244 182.053 182.646 182.487 183.122 182.989 183.577 
183.369 183.825 183.56 183.971 183.736 184.148 183.907 184.258 183.973 
184.261 182.544 183.859 183.131 182.993 185.276 184.499 184.345 183.568 
183.411 186.639 185.903 185.749 184.968 184.798 184.018 183.889 187.832 
187.168 187 186.316 186.132 185.395 185.196 184.47 184.291 188.886 
188.285 188.111 187.489 187.312 186.638 186.39 185.685 185.41 184.742 
184.484 189.73 189.276 189.136 188.571 188.403 187.765 187.525 186.823 
186.527 185.82 185.542 184.874 184.627 190.301 190.023 189.925 189.492 
189.262 188.737 188.442 187.866 187.553 186.915 186.615 185.95 185.687 
185.032 184.788 190.732 190.539 190.47 190.133 189.82 189.382 188.955 
188.539 188.141 187.731 187.356 186.877 186.524 185.999 185.687 185.131 
184.841 191.073 190.935 190.868 190.595 190.283 189.844 189.369 188.918 
188.473 188.113 187.715 187.369 186.968 186.601 186.245 185.856 185.55 
185.091 184.795 182.452 182.653 182.976 183.796 182.749 183.17 184.104 
184.408 185.247 182.816 183.282 184.324 184.726 185.713 185.931 186.695 
182.98 183.435 184.566 184.99 186.113 186.434 187.362 187.405 188.012 
183.201 183.676 184.826 185.261 186.391 186.819 187.88 188.102 188.83 
188.696 189.117 183.272 183.831 184.902 185.421 186.409 186.944 187.96 
188.469 189.293 189.433 189.829 189.647 189.87 183.1 183.717 184.674 
185.299 186.159 186.75 187.612 188.287 189.116 189.614 190.051 190.127 
190.231 190.157 190.295 182.804 183.39 184.258 184.924 185.77 186.38 
187.165 187.806 188.577 189.212 189.73 190.071 190.219 190.303 190.391 
190.457 190.656 182.534 183.037 183.832 184.467 185.324 185.96 186.756 
187.351 188.058 188.643 189.176 189.628 189.895 190.145 190.31 190.471 
190.7 190.819 191.033 181.628 180.317 181.257 181.759 178.866 179.864 
180.377 181.332 181.805 177.372 178.376 178.876 179.88 180.34 181.311 
181.79 175.828 176.847 177.312 178.337 178.777 179.776 180.215 181.258 
181.83 174.218 175.248 175.716 176.76 177.225 178.216 178.66 179.659 
180.201 181.328 182.002 172.678 173.633 174.106 175.158 175.687 176.71 
177.239 178.198 178.776 179.779 180.448 181.544 182.183 171.38 172.185 
172.617 173.583 174.125 175.177 175.773 176.812 177.466 178.471 179.169 
180.143 180.778 181.723 182.194 170.29 170.994 171.396 172.214 172.744 
173.689 174.301 175.333 176.01 177.104 177.833 178.892 179.541 180.452 
180.919 181.716 182.036 169.277 169.949 170.352 171.095 171.63 172.46 
173.097 173.993 174.666 175.652 176.353 177.441 178.11 179.15 179.66 
180.516 180.859 181.581 181.846 168.827 168.555 169.093 169.946 168.441 
168.905 169.858 170.36 171.301 168.605 168.921 169.919 170.392 171.479 
171.886 172.852 169.012 169.221 170.197 170.58 171.748 172.174 173.249 
173.52 174.439 169.497 169.7 170.683 170.972 172.122 172.516 173.64 
173.947 174.88 175.101 176.03 170.071 170.251 171.303 171.532 172.643 
172.945 174.02 174.321 175.242 175.493 176.382 176.697 177.689 170.831 
170.935 171.992 172.18 173.234 173.468 174.453 174.703 175.597 175.834 
176.709 177.005 177.96 178.329 179.259 171.643 171.722 172.659 172.826 
173.749 173.969 174.853 175.103 175.985 176.228 177.134 177.378 178.317 
178.604 179.502 179.789 180.531 172.322 172.424 173.222 173.379 174.164 
174.368 175.164 175.429 176.307 176.613 177.562 177.839 178.773 179.007 
179.852 180.06 180.77 180.954 181.547 172.906 174.081 173.572 173.787 
175.448 174.828 175.007 174.473 174.693 176.963 176.296 176.482 175.812 
176.018 175.432 175.699 178.433 177.827 178.077 177.4 177.644 176.932 
177.219 176.573 176.915 179.825 179.264 179.552 178.971 179.266 178.616 
178.919 178.235 178.583 177.91 178.251 181.196 180.658 180.95 180.405 
180.719 180.161 180.469 179.876 180.184 179.575 179.88 179.229 179.473 
182.434 181.988 182.286 181.786 182.098 181.577 181.892 181.342 181.622 
181.056 181.306 180.74 180.945 180.33 180.475 183.454 183.122 183.42 
183.028 183.315 182.885 183.185 182.714 182.989 182.448 182.662 182.087 
182.255 181.681 181.799 181.208 181.295 184.319 184.057 184.355 184.049 
184.316 183.974 184.241 183.882 184.152 183.73 183.948 183.421 183.571 
182.981 183.088 182.481 182.553 181.957 182.025 182.642 183.216 183.237 
183.925 183.797 183.852 184.591 184.643 185.407 184.296 184.413 185.173 
185.295 186.087 186.147 186.859 184.643 184.84 185.571 185.787 186.561 
186.739 187.449 187.51 188.114 184.807 185.08 185.783 186.076 186.806 
187.075 187.733 187.93 188.478 188.601 189.079 184.874 185.17 185.87 
186.209 186.931 187.234 187.849 188.08 188.588 188.789 189.241 189.406 
189.771 184.93 185.221 185.905 186.258 186.975 187.309 187.921 188.158 
188.676 188.875 189.403 189.567 190.032 190.07 190.359 184.942 185.25 
185.884 186.249 186.917 187.29 187.89 188.187 188.711 188.963 189.528 
189.769 190.325 190.424 190.796 190.693 190.871 184.877 185.202 185.778 
186.152 186.749 187.149 187.712 188.079 188.587 188.922 189.432 189.786 
190.282 190.581 190.922 191.038 191.181 191.118 191.161 162.34 162.734 
162.422 162.269 163.256 162.869 162.634 162.346 162.161 163.956 163.446 
163.11 162.685 162.313 162.077 161.913 164.867 164.237 163.916 163.299 
162.892 162.331 162.054 161.871 162.071 165.997 165.26 165.028 164.314 
164.056 163.25 163.026 162.391 162.575 162.438 163.091 167.345 166.513 
166.31 165.562 165.454 164.662 164.589 163.759 163.91 163.362 163.908 
163.773 164.497 168.809 167.948 167.723 166.917 166.833 166.118 166.175 
165.439 165.595 164.897 165.242 164.802 165.338 165.167 165.734 170.264 
169.45 169.262 168.396 168.285 167.529 167.617 166.979 167.177 166.53 
166.749 166.16 166.483 166.101 166.557 166.361 166.88 171.624 170.915 
170.834 169.993 169.912 169.07 169.125 168.428 168.62 168.008 168.196 
167.585 167.785 167.272 167.613 167.279 167.757 167.555 168.087 162.117 
162.01 161.94 161.826 162.051 161.977 161.874 161.793 161.955 162.052 
162.107 162.265 162.107 162.297 162.226 162.734 162.361 162.301 162.739 
162.649 163.011 162.819 163.266 163.251 163.91 163.346 162.983 163.468 
163.282 163.735 163.553 163.951 163.856 164.386 164.455 165.069 164.618 
164.151 164.503 164.182 164.559 164.296 164.612 164.448 164.864 164.897 
165.46 165.563 166.117 165.758 165.313 165.544 165.201 165.514 165.192 
165.483 165.165 165.512 165.375 165.91 165.962 166.553 166.604 167.121 
166.887 166.392 166.602 166.198 166.531 166.189 166.566 166.182 166.552 
166.2 166.679 166.527 167.127 167.101 167.659 167.628 168.128 168.099 
167.574 167.803 167.326 167.67 167.278 167.71 167.34 167.764 167.36 
167.783 167.454 167.97 167.794 168.357 168.247 168.77 168.682 169.209 
162.308 162.081 162.385 162.979 162.254 162.347 163.043 163.371 164.189 
163.016 162.809 163.494 163.635 164.498 164.724 165.503 164.123 163.747 
164.281 164.235 165.013 165.134 165.913 166.056 166.847 165.221 164.82 
165.187 165.023 165.662 165.697 166.476 166.57 167.45 167.584 168.579 
166.248 165.847 166.167 165.908 166.503 166.42 167.243 167.264 168.24 
168.333 169.414 169.526 170.589 167.245 166.859 167.222 166.931 167.566 
167.397 168.255 168.184 169.175 169.211 170.274 170.383 171.405 171.498 
172.407 168.25 167.874 168.283 168.016 168.683 168.525 169.37 169.27 
170.191 170.168 171.134 171.204 172.15 172.241 173.087 173.16 173.914 
169.348 168.943 169.394 169.109 169.793 169.634 170.471 170.367 171.249 
171.174 172.083 172.067 172.976 172.988 173.817 173.824 174.555 174.573 
175.231 181.247 180.197 180.472 179.912 178.981 179.31 178.69 179.017 
178.424 177.593 177.975 177.324 177.71 177.109 177.496 176.935 176.137 
176.517 175.856 176.281 175.689 176.131 175.57 175.986 175.404 174.756 
175.078 174.4 174.798 174.188 174.654 174.076 174.549 173.947 174.387 
173.78 173.457 173.74 173.039 173.377 172.732 173.145 172.546 173.011 
172.43 172.893 172.325 172.773 172.256 172.181 172.455 171.747 172.049 
171.396 171.741 171.155 171.547 171.023 171.441 170.962 171.383 170.945 
171.37 170.988 170.964 171.207 170.528 170.795 170.163 170.462 169.907 
170.255 169.783 170.16 169.729 170.114 169.704 170.114 169.744 170.192 
169.88 169.912 170.084 169.47 169.671 169.081 169.306 168.757 169.059 
168.601 168.977 168.563 168.939 168.51 168.89 168.482 168.926 168.591 
169.098 168.835 
POINT_DATA 1002
SCALARS Distance double
LOOKUP_TABLE default
173.358 172.252 172.131 173.362 172.149 174.634 173.556 172.39 174.833 
176.111 173.957 172.791 175.173 176.407 177.603 174.449 173.265 175.619 
176.767 177.9 178.998 174.938 173.804 176.088 177.201 178.287 179.362 
180.383 175.392 174.348 176.516 177.652 178.736 179.788 180.794 181.713 
175.874 174.905 176.937 178.059 179.14 180.166 181.139 182.032 182.831 
176.448 175.533 177.427 178.464 179.48 180.457 181.406 182.281 183.061 
183.753 176.979 176.128 177.876 178.818 179.767 180.696 181.628 182.518 
183.297 183.969 184.566 171.012 170.914 169.652 169.611 168.204 170.967 
168.213 166.763 169.726 171.204 166.847 165.522 168.405 169.913 171.528 
165.664 164.529 167.119 168.558 170.127 172.006 164.599 163.708 165.899 
167.293 168.773 170.669 172.686 163.678 163.063 164.751 166.161 167.669 
169.45 171.499 173.374 163.079 162.594 163.927 165.248 166.823 168.485 
170.342 172.292 174.054 162.845 162.304 163.61 164.751 166.223 167.76 
169.362 171.209 173.134 174.812 162.698 163.506 163.708 164.635 164.989 
164.505 165.858 166.21 165.692 165.791 167.165 167.685 166.897 166.912 
167.22 168.913 169.634 168.366 168.146 168.275 168.708 170.992 171.608 
170.379 170.01 169.951 170.136 170.562 172.932 173.253 172.579 172.356 
172.34 172.392 172.461 172.698 174.491 174.627 174.384 174.327 174.356 
174.411 174.407 174.417 174.56 175.727 175.839 175.654 175.573 175.434 
175.293 175.263 175.396 175.64 175.904 177.044 176.665 177.759 176.146 
177.317 178.678 175.646 176.783 178.553 180.059 175.48 176.365 178.333 
180.122 181.277 175.781 176.438 178.142 179.87 180.986 182.035 176.252 
176.981 178.358 179.699 180.527 181.587 182.97 176.57 177.488 178.794 
179.985 180.547 181.335 182.775 184.096 176.744 177.753 179.001 180.275 
180.993 181.565 182.693 183.986 184.844 176.898 177.943 179.063 180.265 
181.241 181.948 182.793 183.822 184.676 185.237 177.92 178.727 178.854 
179.807 179.79 179.858 181.193 181.028 180.976 180.887 182.335 182.371 
182.275 182.114 181.89 183.28 183.43 183.422 183.294 183.107 182.852 
184.291 184.362 184.36 184.281 184.17 184.018 183.708 185.041 185.146 
185.222 185.214 185.121 185.018 184.805 184.413 185.452 185.645 185.858 
185.994 185.964 185.864 185.723 185.431 185.008 185.831 186.057 186.685 
186.92 187.521 186.312 187.8 188.112 187.12 186.539 188.616 188.788 
187.985 187.196 186.604 189.385 189.605 188.915 188.025 187.191 186.557 
189.922 190.254 189.623 189.006 188.071 187.217 186.484 190.431 190.783 
190.111 189.725 188.999 188.048 187.137 186.284 191.023 191.177 190.724 
190.276 189.6 188.726 187.781 186.834 185.903 191.288 191.21 191.177 
190.733 189.963 189.092 188.239 187.331 186.366 185.428 185.333 186.151 
185.49 186.391 185.595 187.072 186.326 185.58 187.1 187.614 186.213 
185.655 186.918 187.46 188.026 186.378 185.885 187.001 187.624 188.192 
188.951 186.473 185.904 187.082 187.888 188.647 189.376 189.996 186.172 
185.54 186.716 187.529 188.498 189.384 190.167 190.636 185.713 185.015 
186.244 186.898 187.778 188.677 189.623 190.499 190.996 185.295 184.526 
185.948 186.58 187.313 188.054 188.865 189.859 190.703 191.108 176.717 
177.88 177.718 178.985 178.743 179.032 180.129 179.807 180.203 180.154 
181.279 180.949 181.374 181.253 181.218 182.305 181.977 182.436 182.381 
182.281 182.19 183.111 182.741 183.311 183.401 183.436 183.336 183.097 
183.829 183.368 184.155 184.294 184.373 184.357 184.163 183.948 184.497 
183.971 184.982 185.194 185.138 185.049 184.959 184.807 184.698 175.231 
176.192 174.573 175.645 173.843 177.252 175.031 172.997 176.829 178.285 
174.248 172.136 176.372 177.944 179.369 173.378 171.345 175.695 177.621 
179.058 180.563 172.537 170.584 174.858 177.101 178.809 180.251 181.624 
171.772 169.965 174.002 176.365 178.416 180.022 181.33 182.411 171.24 
169.686 173.263 175.534 177.75 179.65 181.097 182.158 183.065 171.053 
169.745 172.792 174.82 176.938 178.97 180.669 181.891 182.816 183.69 