# vtk DataFile Version 4.0
vtk output
ASCII
DATASET POLYDATA
POINTS 1002 float
-87.9716 -97.9 72.0975 -82.8838 -103.913 70.8826 -82.1773 -93.6087 70.6812 
-77.4451 -100.529 70.0916 -83.0526 -99.8153 76.1238 -80.6561 -98.1029 75.6835 
-85.5907 -100.158 66.3627 -81.6589 -97.9993 65.8015 -78.3097 -106.277 73.3606 
-85.7187 -92.8229 74.8813 -78.7646 -105.808 67.0879 -87.683 -92.4032 68.4284 
-87.7881 -98.6024 72.0673 -87.4093 -99.1661 71.866 -86.793 -99.6177 71.5573 
-86.245 -100.251 71.432 -85.8765 -101.095 71.5299 -85.2933 -101.789 71.496 
-84.4703 -102.278 71.249 -83.7938 -102.783 71.0487 -83.3123 -103.346 70.9624 
-87.573 -97.9448 72.4297 -86.9795 -97.9415 72.6538 -86.3868 -98.0206 72.9287 
-85.9441 -98.261 73.421 -85.5412 -98.6047 74.0808 -85.0857 -98.9448 74.7115 
-84.6144 -99.2154 75.2126 -84.1039 -99.4167 75.5955 -83.5521 -99.598 75.8847 
-88.0909 -98.2087 71.6293 -88.0463 -98.4244 70.9891 -87.9961 -98.6935 70.2563 
-88.0777 -99.1806 69.5574 -88.0608 -99.7066 68.9257 -87.7359 -99.9718 68.3125 
-87.2648 -100.034 67.7034 -86.7562 -100.09 67.1494 -86.1714 -100.146 66.7068 
-87.9421 -97.2106 72.3352 -87.9712 -96.587 72.6642 -87.9779 -96.0659 73.0921 
-87.8473 -95.4474 73.5139 -87.6671 -94.6825 73.8744 -87.4102 -94.0135 74.1657 
-86.9392 -93.558 74.372 -86.4214 -93.2297 74.5383 -86.0443 -92.9816 74.7117 
-88.2194 -97.3353 71.7741 -88.4728 -96.6612 71.4017 -88.7789 -95.9192 71.0935 
-89.0638 -95.1872 70.7788 -89.1317 -94.5215 70.3383 -88.9181 -93.8806 69.8367 
-88.6275 -93.2752 69.3366 -88.3982 -92.8158 68.8661 -88.1152 -92.5381 68.5471 
-82.8324 -103.634 71.349 -82.8071 -103.296 71.8604 -82.7861 -102.911 72.391 
-82.7302 -102.488 72.9549 -82.7036 -102.024 73.5466 -82.816 -101.563 74.1725 
-83.0182 -101.174 74.848 -83.144 -100.796 75.4404 -83.126 -100.324 75.8332 
-83.2177 -103.795 70.4927 -83.5415 -103.608 70.0337 -83.8964 -103.373 69.4853 
-84.3806 -103.148 68.8815 -84.8591 -102.853 68.254 -85.1883 -102.38 67.6565 
-85.4331 -101.803 67.1938 -85.5692 -101.219 66.885 -85.5724 -100.655 66.6325 
-82.4545 -104.383 71.0647 -82.0986 -104.946 71.3281 -81.7399 -105.446 71.7015 
-81.1948 -105.733 72.0504 -80.4908 -105.918 72.2822 -79.885 -106.19 72.5311 
-79.4668 -106.499 72.8582 -79.0918 -106.663 73.1347 -78.68 -106.578 73.2912 
-82.6539 -104.443 70.5269 -82.451 -105.013 70.1113 -82.2334 -105.528 69.6162 
-81.7913 -105.846 69.0714 -81.0731 -105.945 68.6047 -80.3593 -105.974 68.2783 
-79.8834 -106.049 67.9967 -79.5583 -106.108 67.6771 -79.194 -106.028 67.3496 
-81.6583 -94.1149 70.62 -81.1859 -94.7421 70.571 -80.7343 -95.5117 70.4782 
-80.0977 -96.1987 70.3016 -79.4274 -96.8036 70.1647 -78.9884 -97.6052 70.1471 
-78.5955 -98.5267 70.1368 -78.1024 -99.2799 70.0921 -77.6842 -99.8866 70.0773 
-82.0119 -93.8826 71.1376 -81.8791 -94.2648 71.6512 -81.7158 -94.6655 72.2838 
-81.485 -95.0821 72.9654 -81.2903 -95.5842 73.5589 -81.095 -96.0555 74.1207 
-80.7939 -96.4068 74.7298 -80.5729 -96.8368 75.2357 -80.5779 -97.4561 75.5199 
-82.0606 -93.7715 70.1511 -81.9422 -94.0291 69.5399 -81.8428 -94.3522 68.9177 
-81.8327 -94.7884 68.4018 -81.8782 -95.3838 68.026 -81.8669 -96.0411 67.6672 
-81.8203 -96.629 67.2224 -81.7897 -97.1369 66.736 -81.738 -97.5975 66.2599 
-82.527 -93.1973 71.0466 -82.7874 -92.7409 71.4846 -83.0467 -92.3629 71.9677 
-83.4196 -92.1255 72.3882 -83.8008 -91.9847 72.7823 -84.1369 -91.9852 73.3046 
-84.5544 -92.1341 73.8601 -85.0302 -92.3174 74.2727 -85.4326 -92.527 74.5905 
-82.5605 -93.1198 70.4112 -82.8679 -92.5217 70.0507 -83.2386 -91.9547 69.648 
-83.8658 -91.6092 69.3357 -84.6124 -91.415 69.1238 -85.2723 -91.2348 68.8933 
-85.9583 -91.1813 68.6543 -86.7138 -91.3907 68.4987 -87.3261 -91.8331 68.4316 
-77.6171 -100.422 70.5367 -77.8777 -100.312 71.0789 -78.1813 -100.121 71.6981 
-78.5575 -99.8633 72.2711 -79.0169 -99.591 72.8238 -79.3834 -99.2644 73.4918 
-79.5997 -98.8782 74.2022 -79.8662 -98.5305 74.8041 -80.256 -98.2781 75.2868 
-77.4555 -100.206 69.6321 -77.5458 -99.8801 69.0853 -77.7937 -99.6412 68.5273 
-78.2734 -99.5066 68.0629 -78.8557 -99.3354 67.6067 -79.3664 -99.0262 67.11 
-79.951 -98.6836 66.7209 -80.6821 -98.4218 66.4469 -81.2931 -98.2144 66.1475 
-77.3599 -101.193 70.3885 -77.2968 -101.994 70.7103 -77.2969 -102.948 70.9878 
-77.3562 -103.892 71.2277 -77.3831 -104.641 71.5569 -77.3486 -105.276 72.0164 
-77.346 -105.843 72.5011 -77.4918 -106.186 72.9028 -77.8357 -106.292 73.1795 
-77.3153 -101.161 69.7962 -77.2327 -102.004 69.4275 -77.1197 -102.839 69.0517 
-76.9605 -103.5 68.6569 -76.8383 -104.137 68.1875 -76.8734 -104.874 67.7973 
-77.1121 -105.483 67.6041 -77.5426 -105.782 67.4467 -78.1283 -105.854 67.2406 
-82.7666 -99.7117 76.4977 -82.5834 -99.7562 77.0056 -82.4013 -99.8636 77.6011 
-81.9939 -99.7411 78.0378 -81.4753 -99.3448 78.0542 -81.1694 -98.9687 77.6584 
-81.071 -98.7398 77.078 -81.0006 -98.5627 76.5111 -80.8732 -98.3586 76.0437 
-82.6835 -100.437 76.2304 -82.3136 -101.148 76.3688 -81.8712 -101.872 76.3078 
-81.3946 -102.657 76.0088 -80.8531 -103.512 75.7983 -80.2295 -104.281 75.6704 
-79.6909 -104.866 75.1845 -79.2652 -105.343 74.3875 -78.8087 -105.806 73.7352 
-83.3765 -99.2315 76.3584 -83.9612 -98.8033 76.7446 -84.6712 -98.3953 77.0998 
-85.2018 -97.626 77.2457 -85.4348 -96.4081 77.1547 -85.5258 -95.2081 76.8491 
-85.6236 -94.4001 76.4237 -85.7136 -93.8398 75.9715 -85.7387 -93.3083 75.4607 
-80.4248 -98.8081 75.6296 -80.0715 -99.5284 75.6501 -79.6966 -100.303 75.6671 
-79.4318 -101.179 75.4731 -79.2144 -102.113 75.1228 -78.9534 -103.042 74.8289 
-78.6938 -103.925 74.5024 -78.4851 -104.757 74.044 -78.349 -105.554 73.6277 
-81.0345 -97.5886 75.9081 -81.5064 -97.038 76.0541 -82.0632 -96.3702 76.2054 
-82.5969 -95.6073 76.3918 -82.9858 -94.8188 76.4919 -83.3321 -94.033 76.4738 
-83.8965 -93.4234 76.3336 -84.6483 -93.1222 75.9743 -85.2955 -92.9736 75.4358 
-85.3863 -99.8844 65.9195 -85.3364 -99.6457 65.3372 -85.2321 -99.4428 64.8199 
-84.8313 -99.1951 64.595 -84.1888 -98.8103 64.5302 -83.4669 -98.3788 64.4189 
-82.7417 -98.1254 64.4295 -82.1511 -98.0722 64.7525 -81.8166 -98.0598 65.2759 
-85.039 -100.494 66.2486 -84.5791 -101.017 66.1245 -84.1191 -101.667 65.9258 
-83.4023 -102.193 65.8588 -82.425 -102.623 66.1283 -81.5046 -103.309 66.4378 
-80.7514 -104.195 66.5014 -80.0473 -104.904 66.5284 -79.3724 -105.389 66.7405 
-86.0599 -99.7298 66.316 -86.5758 -99.2467 66.3754 -86.9929 -98.5193 66.4787 
-87.328 -97.5476 66.5723 -87.5896 -96.6236 66.8706 -87.5785 -95.9178 67.5221 
-87.3609 -95.2419 68.1777 -87.3167 -94.3817 68.4647 -87.5114 -93.3731 68.4625 
-81.4006 -98.5237 65.6193 -81.1005 -99.0934 65.5394 -80.7023 -99.7784 65.5035 
-80.2132 -100.597 65.4887 -79.737 -101.497 65.6745 -79.3482 -102.533 66.073 
-79.0195 -103.653 66.3384 -78.7823 -104.595 66.4344 -78.7121 -105.268 66.6701 
-82.0468 -97.5276 65.7989 -82.6353 -97.0718 65.9862 -83.4149 -96.6426 66.3586 
-84.2045 -96.0763 66.7524 -84.9521 -95.3048 67.035 -85.6153 -94.5809 67.3551 
-86.0601 -94.052 67.8471 -86.4614 -93.5437 68.271 -87.054 -92.9539 68.4125 
-78.0268 -106.994 73.0273 -77.789 -107.663 72.4669 -77.609 -108.185 71.6566 
-77.5579 -108.5 70.8835 -77.6489 -108.525 70.1199 -77.7437 -108.286 69.1677 
-77.8559 -107.857 68.3578 -78.1082 -107.218 67.9297 -78.4444 -106.466 67.5706 
-85.9386 -92.4605 74.1597 -86.2332 -92.1174 73.417 -86.5773 -91.6901 72.7739 
-86.9425 -91.1029 72.2759 -87.3334 -90.6565 71.7291 -87.6403 -90.6218 70.913 
-87.8085 -90.8007 69.9184 -87.9353 -91.0771 69.064 -87.9438 -91.6136 68.5745 
-87.2991 -98.6344 72.3495 -86.604 -98.6103 72.584 -86.8248 -99.1902 72.1419 
-85.9822 -98.7022 72.9413 -86.0696 -99.2096 72.4636 -86.2177 -99.7625 71.9291 
-85.5348 -98.9844 73.4733 -85.4334 -99.3728 72.8898 -85.5619 -99.9639 72.3868 
-85.8063 -100.609 71.9365 -85.0687 -99.33 74.0824 -84.9701 -99.6945 73.4052 
-84.9937 -100.218 72.8827 -85.2443 -100.905 72.4519 -85.3977 -101.462 72.0061 
-84.5255 -99.6014 74.6538 -84.4913 -100.019 73.9891 -84.5217 -100.513 73.4251 
-84.6257 -101.085 72.9501 -84.6806 -101.612 72.4149 -84.6061 -102.001 71.8395 
-84.0137 -99.8222 75.1304 -83.9672 -100.258 74.5512 -83.9957 -100.76 73.9685 
-84.0236 -101.269 73.4339 -83.9445 -101.69 72.8185 -83.8138 -102.066 72.1676 
-83.7673 -102.444 71.5824 -83.5565 -100.062 75.5134 -83.5165 -100.499 75.0277 
-83.4423 -100.937 74.4259 -83.3775 -101.42 73.8241 -83.3049 -101.857 73.2024 
-83.2084 -102.224 72.5477 -83.1647 -102.608 71.9584 -83.2216 -103.005 71.4397 
-87.4848 -97.2348 72.6777 -87.5006 -96.6631 73.0638 -86.8738 -97.2837 72.937 
-87.477 -96.2225 73.5599 -86.844 -96.7687 73.4035 -86.2865 -97.4488 73.3027 
-87.3295 -95.682 74.0158 -86.8083 -96.3723 73.9975 -86.19 -96.9374 73.8605 
-85.8098 -97.7395 73.9132 -87.1145 -94.9909 74.3708 -86.7506 -95.9131 74.5475 
-86.2305 -96.5592 74.574 -85.7228 -97.249 74.5311 -85.426 -98.1415 74.6375 
-86.7573 -94.3493 74.6447 -86.5448 -95.3053 74.9332 -86.2879 -96.1756 75.2623 
-85.8763 -96.9418 75.3407 -85.4814 -97.7708 75.2799 -85.1071 -98.5778 75.2739 
-86.3294 -93.8877 74.9034 -86.1863 -94.6943 75.2137 -86.0772 -95.6033 75.708 
-85.9186 -96.5787 76.1158 -85.6396 -97.5258 76.1223 -85.2362 -98.3064 75.9458 
-84.678 -98.8942 75.7713 -86.0163 -93.5632 75.1954 -85.9199 -94.2154 75.5687 
-85.8003 -94.955 76.027 -85.7141 -95.9431 76.5637 -85.592 -97.1077 76.8299 
-85.2773 -98.0575 76.729 -84.6992 -98.6291 76.446 -84.0393 -99.0674 76.1261 
-85.3134 -93.4152 76.1 -84.63 -93.546 76.6612 -85.2998 -93.8826 76.7088 
-83.8764 -93.967 76.9479 -84.6412 -94.0693 77.2546 -85.2597 -94.5038 77.1433 
-83.3179 -94.733 77.0011 -83.874 -94.6619 77.4407 -84.6447 -94.9036 77.5363 
-85.2008 -95.5797 77.3473 -82.8778 -95.5976 76.9204 -83.1715 -95.5405 77.4056 
-83.7587 -95.6336 77.6398 -84.5388 -96.1912 77.5643 -85.0184 -96.9935 77.4379 
-82.3691 -96.456 76.6983 -82.5804 -96.4855 77.2242 -82.8603 -96.4953 77.6301 
-83.5216 -96.863 77.7238 -84.2181 -97.5647 77.6284 -84.5386 -98.1212 77.4657 
-81.8113 -97.2469 76.4518 -82.046 -97.3915 76.9443 -82.1957 -97.4074 77.4839 
-82.5646 -97.5689 77.8354 -83.2076 -98.0733 77.8513 -83.6519 -98.5376 77.6316 
[...]
POINT_DATA 1002
FIELD FieldData 2
Theta 1 1002 float
2.58802 2.58802 0.553574 0.553574 2.12437 1.01722 2.12437 1.01722 1.5708 
1.5708 1.5708 1.5708 2.68241 2.78649 2.89924 3.01861 3.14159 3.01861 
2.89924 2.78649 2.68241 2.61035 2.61791 2.60515 2.56958 2.51327 2.44184 
2.36202 2.27983 2.1997 2.61035 2.61791 2.60515 2.56958 2.51327 2.44184 
2.36202 2.27983 2.1997 2.50947 2.41899 2.31794 2.20864 2.0944 1.97902 
1.86631 1.75944 1.66056 2.50947 2.41899 2.31794 2.20864 2.0944 1.97902 
1.86631 1.75944 1.66056 2.61035 2.61791 2.60515 2.56958 2.51327 2.44184 
2.36202 2.27983 2.1997 2.61035 2.61791 2.60515 2.56958 2.51327 2.44184 
2.36202 2.27983 2.1997 2.50947 2.41899 2.31794 2.20864 2.0944 1.97902 
1.86631 1.75944 1.66056 2.50947 2.41899 2.31794 2.20864 2.0944 1.97902 
1.86631 1.75944 1.66056 0.459179 0.355101 0.242354 0.122983 0 0.122983 
0.242354 0.355101 0.459179 0.531246 0.523681 0.536438 0.57201 0.628319 0.699757 
0.779574 0.86176 0.941896 0.531246 0.523681 0.536438 0.57201 0.628319 0.699757 
0.779574 0.86176 0.941896 0.632123 0.7226 0.823657 0.932948 1.0472 1.16257 
1.27528 1.38216 1.48103 0.632123 0.7226 0.823657 0.932948 1.0472 1.16257 
1.27528 1.38216 1.48103 0.531246 0.523681 0.536438 0.57201 0.628319 0.699757 
0.779574 0.86176 0.941896 0.531246 0.523681 0.536438 0.57201 0.628319 0.699757 
0.779574 0.86176 0.941896 0.632123 0.7226 0.823657 0.932948 1.0472 1.16257 
1.27528 1.38216 1.48103 0.632123 0.7226 0.823657 0.932948 1.0472 1.16257 
1.27528 1.38216 1.48103 2.02998 1.9259 1.81315 1.69378 1.5708 1.44781 
1.32844 1.2157 1.11162 2.0928 2.05283 2.00422 1.94767 1.88496 1.81867 
1.75177 1.68695 1.62623 2.0928 2.05283 2.00422 1.94767 1.88496 1.81867 
1.75177 1.68695 1.62623 1.0488 1.08876 1.13737 1.19392 1.25664 1.32292 
1.38982 1.45464 1.51537 1.0488 1.08876 1.13737 1.19392 1.25664 1.32292 
1.38982 1.45464 1.51537 2.02998 1.9259 1.81315 1.69378 1.5708 1.44781 
1.32844 1.2157 1.11162 2.0928 2.05283 2.00422 1.94767 1.88496 1.81867 
1.75177 1.68695 1.62623 2.0928 2.05283 2.00422 1.94767 1.88496 1.81867 
1.75177 1.68695 1.62623 1.0488 1.08876 1.13737 1.19392 1.25664 1.32292 
1.38982 1.45464 1.51537 1.0488 1.08876 1.13737 1.19392 1.25664 1.32292 
1.38982 1.45464 1.51537 1.5708 1.5708 1.5708 1.5708 1.5708 1.5708 
1.5708 1.5708 1.5708 1.5708 1.5708 1.5708 1.5708 1.5708 1.5708 
1.5708 1.5708 1.5708 2.70908 2.71362 2.81592 2.68886 2.81002 2.92597 
2.6349 2.76254 2.89233 3.01997 2.55881 2.68262 2.80854 2.92834 3.01997 
2.47007 2.58462 2.70048 2.80854 2.89233 2.92597 2.37702 2.48017 2.58462 
2.68262 2.76254 2.81002 2.81592 2.28567 2.37702 2.47007 2.55881 2.6349 
2.68886 2.71362 2.70908 2.52097 2.4195 2.51718 2.30791 2.40503 2.49426 
2.18928 2.28408 2.3734 2.45144 2.06758 2.15805 2.24572 2.32523 2.39165 
1.94707 2.03138 2.11543 2.19453 2.26401 2.32035 1.83164 1.90847 1.98711 
2.06376 2.13422 2.1949 2.24359 1.72413 1.79288 1.86489 1.93728 2.00658 
2.06938 2.12312 2.16654 1.5708 1.50988 1.63171 1.44492 1.5708 1.69667 
1.37826 1.5059 1.63569 1.76333 1.31281 1.43962 1.5708 1.70197 1.82878 
1.25155 1.37501 1.50478 1.63681 1.76659 1.89004 1.19686 1.31493 1.44074 
1.5708 1.70086 1.82666 1.94473 1.15011 1.26149 1.38136 1.50697 1.63462 
1.76024 1.88011 1.99148 1.99148 1.88011 1.94473 1.76024 1.82666 1.89004 
1.63462 1.70086 1.76659 1.82878 1.50697 1.5708 1.63681 1.70197 1.76333 
1.38136 1.44074 1.50478 1.5708 1.63569 1.69667 1.26149 1.31493 1.37501 
1.43962 1.5059 1.5708 1.63171 1.15011 1.19686 1.25155 1.31281 1.37826 
1.44492 1.50988 1.5708 2.16654 2.12312 2.24359 2.06938 2.1949 2.32035 
2.00658 2.13422 2.26401 2.39165 1.93728 2.06376 2.19453 2.32523 2.45144 
1.86489 1.98711 2.11543 2.24572 2.3734 2.49426 1.79288 1.90847 2.03138 
2.15805 2.28408 2.40503 2.51718 1.72413 1.83164 1.94707 2.06758 2.18928 
2.30791 2.4195 2.52097 1.66533 1.66946 1.76911 1.67254 1.777 1.88041 
1.67418 1.78222 1.89102 1.99634 1.67418 1.78405 1.89674 2.00785 2.11299 
1.67254 1.78222 1.89674 2.01191 2.12307 2.22608 1.66946 1.777 1.89102 
2.00785 2.12307 2.23222 2.33166 1.66533 1.76911 1.88041 1.99634 2.11299 
2.22608 2.33166 2.42672 1.47626 1.37249 1.47213 1.26118 1.36459 1.46906 
1.14526 1.25058 1.35938 1.46741 1.0286 1.13374 1.24485 1.35755 1.46741 
0.915514 1.01852 1.12969 1.24485 1.35938 1.46906 0.809937 0.909371 1.01852 
1.13374 1.25058 1.36459 1.47213 0.714871 0.809937 0.915514 1.0286 1.14526 
1.26118 1.37249 1.47626 0.975055 0.898002 1.01847 0.821245 0.946693 1.07221 
0.749941 0.877585 1.00737 1.13501 0.690152 0.816367 0.94706 1.07784 1.20431 
0.647337 0.768195 0.895868 1.02616 1.15448 1.2767 0.624416 0.736561 0.857515 
0.983547 1.11021 1.23313 1.34871 0.620619 0.722093 0.833684 0.952313 1.07402 
1.19452 1.30996 1.41746 0.855925 0.764569 0.764569 0.671524 0.661425 0.671524 
0.582786 0.556971 0.556971 0.582786 0.506696 0.458968 0.441109 0.458968 0.506696 
0.45273 0.379052 0.333054 0.333054 0.379052 0.45273 0.427969 0.331576 0.249267 
0.21325 0.249267 0.331576 0.427969 0.432512 0.325669 0.215619 0.121622 0.121622 
0.215619 0.325669 0.432512 0.432512 0.427969 0.325669 0.45273 0.331576 0.215619 
0.506696 0.379052 0.249267 0.121622 0.582786 0.458968 0.333054 0.21325 0.121622 
0.671524 0.556971 0.441109 0.333054 0.249267 0.215619 0.764569 0.661425 0.556971 
0.458968 0.379052 0.331576 0.325669 0.855925 0.764569 0.671524 0.582786 0.506696 
0.45273 0.427969 0.432512 0.975055 1.01847 0.898002 1.07221 0.946693 0.821245 
1.13501 1.00737 0.877585 0.749941 1.20431 1.07784 0.94706 0.816367 0.690152 
1.2767 1.15448 1.02616 0.895868 0.768195 0.647337 1.34871 1.23313 1.11021 
0.983547 0.857515 0.736561 0.624416 1.41746 1.30996 1.19452 1.07402 0.952313 
0.833684 0.722093 0.620619 1.15011 1.26149 1.19686 1.38136 1.31493 1.25155 
1.50697 1.44074 1.37501 1.31281 1.63462 1.5708 1.50478 1.43962 1.37826 
1.76024 1.70086 1.63681 1.5708 1.5059 1.44492 1.88011 1.82666 1.76659 
1.70197 1.63569 1.5708 1.50988 1.99148 1.94473 1.89004 1.82878 1.76333 
1.69667 1.63171 1.5708 1.15011 1.19686 1.26149 1.25155 1.31493 1.38136 
1.31281 1.37501 1.44074 1.50697 1.37826 1.43962 1.50478 1.5708 1.63462 
1.44492 1.5059 1.5708 1.63681 1.70086 1.76024 1.50988 1.5708 1.63569 
1.70197 1.76659 1.82666 1.88011 1.5708 1.63171 1.69667 1.76333 1.82878 
1.89004 1.94473 1.99148 1.72413 1.83164 1.79288 1.94707 1.90847 1.86489 
2.06758 2.03138 1.98711 1.93728 2.18928 2.15805 2.11543 2.06376 2.00658 
2.30791 2.28408 2.24572 2.19453 2.13422 2.06938 2.4195 2.40503 2.3734 
2.32523 2.26401 2.1949 2.12312 2.52097 2.51718 2.49426 2.45144 2.39165 
2.32035 2.24359 2.16654 2.70908 2.81592 2.71362 2.92597 2.81002 2.68886 
3.01997 2.89233 2.76254 2.6349 3.01997 2.92834 2.80854 2.68262 2.55881 
2.92597 2.89233 2.80854 2.70048 2.58462 2.47007 2.81592 2.81002 2.76254 
2.68262 2.58462 2.48017 2.37702 2.70908 2.71362 2.68886 2.6349 2.55881 
2.47007 2.37702 2.28567 2.16654 2.24359 2.12312 2.32035 2.1949 2.06938 
2.39165 2.26401 2.13422 2.00658 2.45144 2.32523 2.19453 2.06376 1.93728 
2.49426 2.3734 2.24572 2.11543 1.98711 1.86489 2.51718 2.40503 2.28408 
2.15805 2.03138 1.90847 1.79288 2.52097 2.4195 2.30791 2.18928 2.06758 
1.94707 1.83164 1.72413 1.66533 1.76911 1.66946 1.88041 1.777 1.67254 
1.99634 1.89102 1.78222 1.67418 2.11299 2.00785 1.89674 1.78405 1.67418 
2.22608 2.12307 2.01191 1.89674 1.78222 1.67254 2.33166 2.23222 2.12307 
2.00785 1.89102 1.777 1.66946 2.42672 2.33166 2.22608 2.11299 1.99634 
1.88041 1.76911 1.66533 1.47626 1.47213 1.37249 1.46906 1.36459 1.26118 
1.46741 1.35938 1.25058 1.14526 1.46741 1.35755 1.24485 1.13374 1.0286 
1.46906 1.35938 1.24485 1.12969 1.01852 0.915514 1.47213 1.36459 1.25058 
1.13374 1.01852 0.909371 0.809937 1.47626 1.37249 1.26118 1.14526 1.0286 
0.915514 0.809937 0.714871 1.41746 1.30996 1.34871 1.19452 1.23313 1.2767 
1.07402 1.11021 1.15448 1.20431 0.952313 0.983547 1.02616 1.07784 1.13501 
0.833684 0.857515 0.895868 0.94706 1.00737 1.07221 0.722093 0.736561 0.768195 
0.816367 0.877585 0.946693 1.01847 0.620619 0.624416 0.647337 0.690152 0.749941 
0.821245 0.898002 0.975055 0.975055 0.898002 1.01847 0.821245 0.946693 1.07221 
0.749941 0.877585 1.00737 1.13501 0.690152 0.816367 0.94706 1.07784 1.20431 
0.647337 0.768195 0.895868 1.02616 1.15448 1.2767 0.624416 0.736561 0.857515 
0.983547 1.11021 1.23313 1.34871 0.620619 0.722093 0.833684 0.952313 1.07402 
1.19452 1.30996 1.41746 
Phi 1 1002 float
6.28319 3.14159 6.28319 3.14159 4.71239 4.71239 1.5708 1.5708 3.69517 
5.72961 2.58802 0.553574 6.28319 6.28319 6.28319 6.28319 3.14159 3.14159 
3.14159 3.14159 3.14159 6.1053 5.8988 5.67687 5.45995 5.26596 5.10322 
4.97131 4.86569 4.78095 0.177881 0.384387 0.606312 0.823235 1.01722 1.17997 
1.31187 1.4175 1.50223 6.18928 6.10703 6.03531 5.97283 5.91832 5.87061 
5.82869 5.79168 5.75886 0.0939024 0.176153 0.247873 0.310351 0.364864 0.412573 
0.454497 0.491504 0.524326 3.31947 3.52598 3.7479 3.96483 4.15881 4.32156 
4.45346 4.55909 4.64383 2.96371 2.75721 2.53528 2.31836 2.12437 1.96162 
1.82972 1.72409 1.63936 3.2355 3.31775 3.38947 3.45194 3.50646 3.55417 
3.59609 3.6331 3.66592 3.04769 2.96544 2.89372 2.83124 2.77673 2.72902 
2.6871 2.65009 2.61727 6.28319 6.28319 6.28319 6.28319 3.14159 3.14159 
3.14159 3.14159 3.14159 6.1053 5.8988 5.67687 5.45995 5.26596 5.10322 
4.97131 4.86569 4.78095 0.177881 0.384387 0.606312 0.823235 1.01722 1.17997 
1.31187 1.4175 1.50223 6.18928 6.10703 6.03531 5.97283 5.91832 5.87061 
5.82869 5.79168 5.75886 0.0939024 0.176153 0.247873 0.310351 0.364864 0.412573 
0.454497 0.491504 0.524326 3.31947 3.52598 3.7479 3.96483 4.15881 4.32156 
4.45346 4.55909 4.64383 2.96371 2.75721 2.53528 2.31836 2.12437 1.96162 
1.82972 1.72409 1.63936 3.2355 3.31775 3.38947 3.45194 3.50646 3.55417 
3.59609 3.6331 3.66592 3.04769 2.96544 2.89372 2.83124 2.77673 2.72902 
2.6871 2.65009 2.61727 4.71239 4.71239 4.71239 4.71239 4.71239 4.71239 
4.71239 4.71239 4.71239 4.60879 4.49914 4.3857 4.27128 4.15881 4.05096 
3.94976 3.85646 3.77161 4.81599 4.92564 5.03907 5.1535 5.26596 5.37381 
5.47502 5.56831 5.65317 4.60879 4.49914 4.3857 4.27128 4.15881 4.05096 
3.94976 3.85646 3.77161 4.81599 4.92564 5.03907 5.1535 5.26596 5.37381 
5.47502 5.56831 5.65317 1.5708 1.5708 1.5708 1.5708 1.5708 1.5708 
1.5708 1.5708 1.5708 1.6744 1.78405 1.89748 2.01191 2.12437 2.23222 
2.33343 2.42672 2.51157 1.4672 1.35755 1.24411 1.12969 1.01722 0.909371 
0.808166 0.714871 0.63002 1.6744 1.78405 1.89748 2.01191 2.12437 2.23222 
2.33343 2.42672 2.51157 1.4672 1.35755 1.24411 1.12969 1.01722 0.909371 
0.808166 0.714871 0.63002 3.60077 3.49669 3.38395 3.26458 3.14159 3.01861 
2.89924 2.78649 2.68241 5.82401 5.92808 6.04083 6.1602 6.28319 0.122983 
0.242354 0.355101 0.459179 6.05603 5.78856 5.97021 5.51259 5.60297 5.78856 
5.26596 5.26596 5.26596 5.26596 5.06749 5.0121 4.91556 4.71239 4.15881 
4.91556 4.83537 4.71239 4.50922 4.15881 3.63622 4.80045 4.71239 4.58941 
4.41268 4.15881 3.82181 3.45456 4.71239 4.62433 4.50922 4.35729 4.15881 
3.91219 3.63622 3.36875 6.01742 5.94343 5.82633 5.88092 5.76745 5.62798 
5.8278 5.71897 5.58911 5.43724 5.78235 5.67854 5.55757 5.41926 5.26596 
5.74316 5.64441 5.5315 5.40467 5.26596 5.11955 5.70914 5.61528 5.50962 
5.3926 5.26596 5.13292 4.99789 5.67937 5.59016 5.49102 5.38246 5.26596 
5.14407 5.02016 4.89798 5.56831 5.47502 5.47502 5.37381 5.37381 5.37381 
5.26596 5.26596 5.26596 5.26596 5.1535 5.1535 5.1535 5.1535 5.1535 
5.03907 5.03907 5.03907 5.03907 5.03907 5.03907 4.92564 4.92564 4.92564 
4.92564 4.92564 4.92564 4.92564 4.81599 4.81599 4.81599 4.81599 4.81599 
4.81599 4.81599 4.81599 4.60879 4.60879 4.49914 4.60879 4.49914 4.3857 
4.60879 4.49914 4.3857 4.27128 4.60879 4.49914 4.3857 4.27128 4.15881 
4.60879 4.49914 4.3857 4.27128 4.15881 4.05096 4.60879 4.49914 4.3857 
4.27128 4.15881 4.05096 3.94976 4.60879 4.49914 4.3857 4.27128 4.15881 
4.05096 3.94976 3.85646 4.5268 4.40462 4.42689 4.28071 4.29185 4.30523 
4.15881 4.15881 4.15881 4.15881 4.04232 4.03217 4.02011 4.00552 3.98753 
3.93376 3.91515 3.89328 3.86721 3.83566 3.7968 3.83461 3.8095 3.78037 
3.74624 3.70581 3.65733 3.59845 3.7454 3.71564 3.68161 3.64243 3.59698 
3.54386 3.48135 3.40735 3.56428 3.45246 3.52338 3.33203 3.40312 3.47739 
3.20576 3.27463 3.34802 3.42551 3.07742 3.14159 3.21128 3.28647 3.36688 
2.95116 3.00855 3.0719 3.14159 3.21784 3.3006 2.83072 2.88006 2.93517 
2.99672 3.06535 3.14159 3.22575 2.7189 2.7598 2.8058 2.85768 2.9163 
2.98259 3.05743 3.14159 3.56428 3.52338 3.45246 3.47739 3.40312 3.33203 
3.42551 3.34802 3.27463 3.20576 3.36688 3.28647 3.21128 3.14159 3.07742 
3.3006 3.21784 3.14159 3.0719 3.00855 2.95116 3.22575 3.14159 3.06535 
2.99672 2.93517 2.88006 2.83072 3.14159 3.05743 2.98259 2.9163 2.85768 
2.8058 2.7598 2.7189 4.5268 4.42689 4.40462 4.30523 4.29185 4.28071 
4.15881 4.15881 4.15881 4.15881 3.98753 4.00552 4.02011 4.03217 4.04232 
3.7968 3.83566 3.86721 3.89328 3.91515 3.93376 3.59845 3.65733 3.70581 
3.74624 3.78037 3.8095 3.83461 3.40735 3.48135 3.54386 3.59698 3.64243 
3.68161 3.71564 3.7454 4.71239 4.80045 4.62433 4.91556 4.71239 4.50922 
5.06749 4.83537 4.58941 4.35729 5.26596 5.0121 4.71239 4.41268 4.15881 
5.51259 5.26596 4.91556 4.50922 4.15881 3.91219 5.78856 5.60297 5.26596 
4.71239 4.15881 3.82181 3.63622 6.05603 5.97021 5.78856 5.26596 4.15881 
3.63622 3.45456 3.36875 0.227158 0.494626 0.312971 0.770593 0.680215 0.494626 
1.01722 1.01722 1.01722 1.01722 1.2157 1.27109 1.36763 1.5708 2.12437 
1.36763 1.44781 1.5708 1.77397 2.12437 2.64697 1.48273 1.5708 1.69378 
1.8705 2.12437 2.46138 2.82862 1.5708 1.65886 1.77397 1.9259 2.12437 
2.371 2.64697 2.91443 1.75639 1.87857 1.8563 2.00248 1.99133 1.97796 
2.12437 2.12437 2.12437 2.12437 2.24087 2.25101 2.26308 2.27767 2.29565 
2.34943 2.36803 2.38991 2.41597 2.44752 2.48639 2.44857 2.47368 2.50281 
2.53694 2.57738 2.62586 2.68474 2.53778 2.56754 2.60157 2.64076 2.68621 
2.73933 2.80184 2.87583 1.6744 1.6744 1.78405 1.6744 1.78405 1.89748 
1.6744 1.78405 1.89748 2.01191 1.6744 1.78405 1.89748 2.01191 2.12437 
1.6744 1.78405 1.89748 2.01191 2.12437 2.23222 1.6744 1.78405 1.89748 
2.01191 2.12437 2.23222 2.33343 1.6744 1.78405 1.89748 2.01191 2.12437 
2.23222 2.33343 2.42672 1.4672 1.35755 1.4672 1.24411 1.35755 1.4672 
1.12969 1.24411 1.35755 1.4672 1.01722 1.12969 1.24411 1.35755 1.4672 
0.909371 1.01722 1.12969 1.24411 1.35755 1.4672 0.808166 0.909371 1.01722 
1.12969 1.24411 1.35755 1.4672 0.714871 0.808166 0.909371 1.01722 1.12969 
1.24411 1.35755 1.4672 0.603812 0.57405 0.693022 0.540021 0.667908 0.792164 
0.500837 0.638778 0.773562 0.900726 0.455383 0.604649 0.751687 0.890581 1.01722 
0.402264 0.564217 0.725619 0.878514 1.01722 1.13912 0.339753 0.515737 0.694072 
0.863926 1.01722 1.15026 1.26302 0.265762 0.456853 0.655207 0.845941 1.01722 
1.16363 1.28529 1.38521 0.227158 0.312971 0.494626 0.494626 0.680215 0.770593 
1.01722 1.01722 1.01722 1.01722 2.12437 1.5708 1.36763 1.27109 1.2157 
2.64697 2.12437 1.77397 1.5708 1.44781 1.36763 2.82862 2.46138 2.12437 
1.8705 1.69378 1.5708 1.48273 2.91443 2.64697 2.371 2.12437 1.9259 
1.77397 1.65886 1.5708 1.75639 1.8563 1.87857 1.97796 1.99133 2.00248 
2.12437 2.12437 2.12437 2.12437 2.29565 2.27767 2.26308 2.25101 2.24087 
2.48639 2.44752 2.41597 2.38991 2.36803 2.34943 2.68474 2.62586 2.57738 
2.53694 2.50281 2.47368 2.44857 2.87583 2.80184 2.73933 2.68621 2.64076 
2.60157 2.56754 2.53778 5.86049 5.90139 5.97231 5.94739 6.02165 6.09275 
5.99927 6.07676 6.15015 6.21902 6.0579 6.13831 6.2135 0 0.0641696 
6.12418 6.20694 6.28319 0.069689 0.13304 0.190437 6.19903 0 0.0762451 
0.144876 0.206423 0.261531 0.310872 0 0.0841597 0.159004 0.225289 0.283913 
0.335793 0.381792 0.422692 5.86049 5.97231 5.90139 6.09275 6.02165 5.94739 
6.21902 6.15015 6.07676 5.99927 0.0641696 0 6.2135 6.13831 6.0579 
0.190437 0.13304 0.069689 6.28319 6.20694 6.12418 0.310872 0.261531 0.206423 
0.144876 0.0762451 6.28319 6.19903 0.422692 0.381792 0.335793 0.283913 0.225289 
0.159004 0.0841597 0 5.67937 5.70914 5.59016 5.74316 5.61528 5.49102 
5.78235 5.64441 5.50962 5.38246 5.8278 5.67854 5.5315 5.3926 5.26596 
5.88092 5.71897 5.55757 5.40467 5.26596 5.14407 5.94343 5.76745 5.58911 
5.41926 5.26596 5.13292 5.02016 6.01742 5.82633 5.62798 5.43724 5.26596 
5.11955 4.99789 4.89798 1.38521 1.28529 1.26302 1.16363 1.15026 1.13912 
1.01722 1.01722 1.01722 1.01722 0.845941 0.863926 0.878514 0.890581 0.900726 
0.655207 0.694072 0.725619 0.751687 0.773562 0.792164 0.456853 0.515737 0.564217 
0.604649 0.638778 0.667908 0.693022 0.265762 0.339753 0.402264 0.455383 0.500837 
0.540021 0.57405 0.603812 
