# vtk DataFile Version 4.0
vtk output
ASCII
DATASET POLYDATA
POINTS 1002 float
-121.346 -87.0655 70.9425 -124.855 -102.502 75.5282 -111.674 -90.9533 70.2681 
-118.247 -103.077 75.5333 -121.112 -92.8862 81.1104 -115.323 -95.0737 81.2311 
-123.041 -97.5812 67.3059 -117.525 -97.8482 67.0058 -121.634 -108.02 82.7298 
-115.565 -83.3819 73.5716 -122.802 -112.203 68.8392 -115.098 -85.1211 62.2348 
-121.851 -88.1495 71.4447 -122.435 -89.2945 71.9866 -122.939 -90.7458 72.5094 
-123.426 -92.4292 73.0272 -124.011 -93.9988 73.6126 -124.466 -95.6051 74.222 
-124.633 -97.5209 74.7211 -124.713 -99.4446 75.0728 -124.812 -101.081 75.3281 
-121.337 -87.3846 71.8305 -121.433 -87.727 72.896 -121.541 -88.158 74.0459 
-121.468 -88.8051 75.099 -121.358 -89.542 76.1523 -121.441 -90.1457 77.4043 
-121.524 -90.7186 78.6521 -121.422 -91.419 79.6319 -121.253 -92.1735 80.4109 
-121.661 -87.4835 70.3913 -121.993 -88.0124 69.7398 -122.305 -88.7456 69.0213 
-122.558 -89.7087 68.4299 -122.733 -90.8527 68.0386 -122.807 -92.162 67.7685 
-122.799 -93.6111 67.6473 -122.815 -95.0582 67.626 -122.917 -96.3755 67.5193 
-120.948 -86.0325 71.0182 -120.647 -84.8665 71.2093 -120.281 -83.8497 71.4752 
-119.589 -83.1125 71.7744 -118.681 -82.4922 72.1969 -117.92 -82.0001 72.7153 
-117.28 -81.8802 73.1351 -116.588 -82.1747 73.3841 -115.971 -82.7244 73.5111 
-121.101 -86.1677 70.103 -120.716 -85.3287 69.1339 -120.081 -84.6942 68.1005 
-119.255 -84.2713 67.1486 -118.375 -84.0287 66.2087 -117.668 -83.9019 65.1323 
-117.2 -83.8399 64.051 -116.659 -83.9802 63.1802 -115.885 -84.4444 62.5847 
-124.583 -101.679 76.1647 -124.15 -100.764 76.6484 -123.807 -99.7537 77.2157 
-123.694 -98.6334 78.1066 -123.54 -97.4743 79.0503 -123.115 -96.3648 79.6662 
-122.593 -95.3268 80.0818 -122.103 -94.4164 80.494 -121.595 -93.6402 80.846 
-124.939 -102.438 74.6095 -124.889 -102.343 73.5952 -124.835 -102.173 72.6118 
-124.841 -101.881 71.6373 -124.752 -101.404 70.6369 -124.541 -100.756 69.7109 
-124.371 -100.035 68.9049 -124.149 -99.2747 68.2171 -123.674 -98.4439 67.6956 
-124.734 -103.446 76.1721 -124.619 -104.435 76.8377 -124.453 -105.276 77.5051 
-124.111 -105.946 78.1984 -123.723 -106.618 78.9725 -123.455 -107.241 79.8744 
-123.181 -107.652 80.8312 -122.766 -107.918 81.6722 -122.228 -108.083 82.3079 
-124.88 -103.904 75.111 -124.812 -105.49 74.5466 -124.797 -107.131 73.865 
-124.762 -108.477 73.0558 -124.501 -109.492 72.1775 -124.248 -110.615 71.3352 
-124.245 -111.808 70.5089 -124.108 -112.483 69.7101 -123.537 -112.503 69.1129 
-112.262 -91.839 70.8229 -112.884 -92.843 71.3656 -113.587 -93.9417 72.0246 
-114.495 -95.0285 72.8755 -115.356 -96.2552 73.6369 -115.912 -97.8566 74.0871 
-116.456 -99.4893 74.4843 -117.194 -100.757 74.9914 -117.859 -101.863 75.3851 
-111.68 -91.1495 71.3374 -111.717 -91.4264 72.4453 -112.051 -91.753 73.5897 
-112.635 -92.1957 74.8561 -113.119 -92.7629 76.1454 -113.547 -93.3174 77.256 
-114.132 -93.8184 78.2872 -114.658 -94.2977 79.3942 -114.981 -94.7161 80.4363 
-112.002 -91.3787 69.6063 -112.452 -91.8205 68.9992 -112.919 -92.297 68.4354 
-113.232 -93.0032 67.8837 -113.571 -93.8788 67.4247 -114.288 -94.6355 67.1643 
-115.223 -95.3444 67.0621 -116.047 -96.1843 67.0229 -116.781 -97.0532 67.0088 
-111.313 -90.1623 70.3515 -111.334 -89.3244 70.4495 -111.72 -88.3534 70.5894 
-112.208 -87.2575 70.8308 -112.707 -86.3309 71.1295 -113.38 -85.65 71.4228 
-114.157 -84.9854 71.7936 -114.772 -84.3336 72.3112 -115.188 -83.8048 72.9272 
-111.282 -90.3321 69.2326 -110.972 -89.6764 68.1689 -111.04 -88.9688 67.0767 
-111.39 -88.1707 65.8496 -111.659 -87.3097 64.6295 -112.032 -86.5748 63.6856 
-112.758 -86.0881 63.0325 -113.554 -85.724 62.5837 -114.284 -85.3744 62.321 
-117.754 -102.657 76.0334 -117.152 -102.26 76.6635 -116.632 -101.774 77.526 
-116.258 -101.084 78.4515 -115.863 -100.277 79.3155 -115.429 -99.4865 80.1578 
-115.187 -98.561 80.804 -115.179 -97.3579 81.09 -115.244 -96.1043 81.1718 
-118.458 -102.716 74.9329 -118.601 -102.305 74.1504 -118.737 -101.811 73.2599 
-118.86 -101.255 72.4121 -118.797 -100.735 71.5338 -118.575 -100.216 70.529 
-118.404 -99.5659 69.5486 -118.213 -98.8759 68.6696 -117.879 -98.3173 67.8148 
-118.237 -104.129 75.9446 -118.247 -105.177 76.5745 -118.367 -106.049 77.4539 
-118.687 -106.72 78.3659 -119.237 -107.193 79.2052 -119.778 -107.46 80.0821 
-120.122 -107.715 81.0091 -120.495 -108.064 81.8575 -121.058 -108.247 82.4658 
-118.586 -104.267 75.157 -118.904 -105.577 74.6547 -119.404 -106.763 74.2116 
-119.995 -107.874 73.7482 -120.439 -109.105 72.991 -120.83 -110.315 72.0871 
-121.308 -111.207 71.2894 -121.764 -111.743 70.4712 -122.213 -112.049 69.5871 
-120.77 -92.7925 81.7121 -120.416 -92.6561 82.3615 -119.915 -92.5916 82.949 
-119.142 -92.7152 83.2921 -118.255 -93.053 83.2471 -117.553 -93.548 82.897 
-116.988 -94.0639 82.4726 -116.362 -94.4626 82.0753 -115.751 -94.762 81.6689 
-121.23 -94.126 81.6161 -121.325 -95.4745 82.1066 -121.452 -96.8712 82.6137 
-121.627 -98.3243 83.1229 -121.772 -99.9349 83.4501 -121.833 -101.732 83.4355 
-121.842 -103.595 83.2518 -121.842 -105.376 83.1483 -121.794 -106.9 83.0496 
-120.743 -91.5936 80.9135 -120.358 -90.1792 80.6634 -119.945 -88.7859 80.2773 
-119.403 -87.5238 79.6081 -118.662 -86.3902 78.7345 -117.82 -85.3179 77.8779 
-117.049 -84.3725 76.9879 -116.427 -83.7511 75.91 -115.943 -83.4786 74.7149 
-115.811 -96.0726 81.8112 -116.526 -97.3123 82.3526 -117.281 -98.7623 82.9345 
-117.87 -100.252 83.4997 -118.37 -101.648 83.8751 -119.034 -103.017 83.9992 
-119.854 -104.467 83.9274 -120.591 -105.899 83.688 -121.156 -107.111 83.2794 
-115.195 -93.9475 80.8358 -115.158 -92.7225 80.2866 -115.171 -91.3573 79.5198 
-115.15 -89.9281 78.6377 -115.07 -88.4839 77.8195 -115.018 -87.1102 77.0076 
-115.105 -85.9715 76.0793 -115.298 -85.0352 75.1392 -115.46 -84.1664 74.3101 
-122.721 -97.7952 66.9225 -122.408 -98.0527 66.4877 -122.042 -98.3438 66.0349 
-121.527 -98.5717 65.742 -120.848 -98.6353 65.7833 -120.069 -98.5307 66.0207 
-119.249 -98.3408 66.1904 -118.485 -98.1592 66.3186 -117.896 -98.0097 66.5834 
-123.506 -99.4685 67.3063 -123.854 -101.703 67.3247 -124.065 -104.063 67.129 
-124.236 -106.174 66.3499 -124.492 -107.823 65.3767 -124.708 -109.119 65.2186 
-124.535 -110.241 65.9665 -123.943 -111.192 66.9016 -123.285 -111.852 67.7986 
-122.308 -95.9992 67.0161 -121.571 -94.4524 66.5003 -120.759 -92.8779 65.7296 
-119.733 -91.2067 64.9138 -118.732 -89.6908 64.1843 -118.062 -88.5553 63.3989 
-117.504 -87.5754 62.6102 -116.749 -86.5706 62.1309 -115.878 -85.7063 62.0558 
-118.475 -99.037 67.4282 -119.396 -100.539 67.7549 -120.117 -102.439 67.9472 
-120.563 -104.67 67.8953 -120.931 -106.798 67.5832 -121.399 -108.427 67.3199 
-121.81 -109.681 67.3859 -122.082 -110.753 67.6967 -122.388 -111.599 68.155 
-116.749 -96.8359 66.1778 -115.996 -95.6519 65.1997 -115.379 -94.3734 64.1484 
-114.99 -93.1761 63.1791 -114.78 -91.954 62.4071 -114.631 -90.467 61.8743 
-114.559 -88.8598 61.6217 -114.634 -87.4189 61.6463 -114.834 -86.1911 61.8758 
-121.778 -109.041 81.9057 -121.892 -110.065 80.8056 -121.998 -111.17 79.6164 
-122.116 -112.387 78.3192 -122.178 -113.475 76.7553 -122.214 -113.936 75.1418 
-122.409 -113.658 73.6373 -122.686 -113.105 71.9988 -122.814 -112.631 70.2721 
-115.417 -82.9119 72.3955 -115.269 -82.4977 71.1107 -115.064 -82.1156 69.7764 
-114.759 -81.6979 68.388 -114.5 -81.4252 66.894 -114.421 -81.6347 65.4294 
-114.47 -82.3402 64.2393 -114.61 -83.2662 63.3689 -114.839 -84.2096 62.7197 
-121.987 -88.4592 72.4447 -122.234 -88.7605 73.6031 -122.671 -89.6105 73.0744 
-122.318 -89.2463 74.7477 -122.897 -89.9926 74.2388 -123.147 -91.1648 73.616 
-122.147 -89.9918 75.797 -122.862 -90.6372 75.3648 -123.264 -91.714 74.7937 
-123.612 -92.9436 74.1838 -122.085 -90.7131 76.9837 -122.747 -91.4009 76.535 
-123.251 -92.4074 76.0096 -123.702 -93.5903 75.435 -124.18 -94.6318 74.8421 
-122.173 -91.3236 78.2952 -122.788 -92.053 77.8359 -123.276 -93.0342 77.2678 
-123.677 -94.2439 76.6278 -124.128 -95.4029 75.9856 -124.498 -96.4249 75.3665 
-122.082 -92.0454 79.3709 -122.711 -92.7645 78.9836 -123.228 -93.6789 78.4409 
-123.584 -94.8436 77.7323 -123.854 -96.1211 76.9254 -124.184 -97.2726 76.2313 
-124.508 -98.3443 75.673 -121.828 -92.8708 80.1569 -122.403 -93.6189 79.8037 
-122.933 -94.5114 79.3492 -123.387 -95.5765 78.7644 -123.638 -96.7934 77.9273 
-123.787 -98.0049 77.0261 -124.093 -99.0896 76.3927 -124.51 -100.11 75.9174 
-120.889 -86.3648 72.0043 -120.613 -85.1856 72.3097 -120.891 -86.8053 73.1423 
-120.317 -84.1402 72.7031 -120.565 -85.6885 73.5031 -120.864 -87.4103 74.2965 
-119.653 -83.404 73.1778 -120.24 -84.6276 73.9994 -120.436 -86.3835 74.6854 
-120.761 -88.1809 75.3944 -118.748 -82.8917 73.7329 -119.587 -83.8936 74.5843 
-120.064 -85.3139 75.253 -120.34 -87.2096 75.9005 -120.782 -88.9149 76.622 
-117.932 -82.5733 74.2344 -118.75 -83.4961 75.133 -119.492 -84.6157 75.8266 
-119.998 -86.208 76.5114 -120.4 -88.03 77.2454 -120.905 -89.5331 77.9684 
-117.184 -82.5542 74.5679 -117.922 -83.3112 75.5798 -118.739 -84.3242 76.3284 
-119.483 -85.5993 77.0354 -120.027 -87.1855 77.8351 -120.436 -88.7895 78.5574 
-120.899 -90.1791 79.1426 -116.48 -82.8877 74.7139 -117.115 -83.3708 75.8618 
-117.873 -84.2366 76.7691 -118.708 -85.354 77.5159 -119.463 -86.6374 78.332 
-119.991 -88.0531 79.1219 -120.382 -89.4964 79.6849 -120.805 -90.8854 80.0872 
-115.8 -84.3277 75.5172 -115.653 -85.33 76.3781 -116.28 -84.7219 76.7482 
-115.556 -86.5093 77.3173 -116.219 -85.9361 77.6043 -116.953 -85.4709 77.8719 
-115.51 -87.8387 78.2739 -116.188 -87.2701 78.5808 -116.953 -86.746 78.8032 
-117.774 -86.4144 78.9116 -115.461 -89.1836 79.2019 -116.023 -88.4909 79.6833 
-116.83 -87.9539 79.9118 -117.715 -87.5574 80.0239 -118.626 -87.384 79.9618 
-115.453 -90.5867 80.0844 -115.868 -89.7046 80.674 -116.552 -89.0669 81.022 
-117.481 -88.7153 81.142 -118.523 -88.4807 81.1418 -119.4 -88.473 80.8538 
-115.508 -92.1103 80.8162 -115.961 -91.2648 81.3402 -116.522 -90.5034 81.7473 
-117.291 -90.0905 81.9686 -118.335 -89.8367 82.0611 -119.36 -89.6708 81.9031 
[...]
POINT_DATA 1002
FIELD FieldData 2
Theta 1 1002 float
2.58802 2.58802 0.553574 0.553574 2.12437 1.01722 2.12437 1.01722 1.5708 
1.5708 1.5708 1.5708 2.68241 2.78649 2.89924 3.01861 3.14159 3.01861 
2.89924 2.78649 2.68241 2.61035 2.61791 2.60515 2.56958 2.51327 2.44184 
2.36202 2.27983 2.1997 2.61035 2.61791 2.60515 2.56958 2.51327 2.44184 
2.36202 2.27983 2.1997 2.50947 2.41899 2.31794 2.20864 2.0944 1.97902 
1.86631 1.75944 1.66056 2.50947 2.41899 2.31794 2.20864 2.0944 1.97902 
1.86631 1.75944 1.66056 2.61035 2.61791 2.60515 2.56958 2.51327 2.44184 
2.36202 2.27983 2.1997 2.61035 2.61791 2.60515 2.56958 2.51327 2.44184 
2.36202 2.27983 2.1997 2.50947 2.41899 2.31794 2.20864 2.0944 1.97902 
1.86631 1.75944 1.66056 2.50947 2.41899 2.31794 2.20864 2.0944 1.97902 
1.86631 1.75944 1.66056 0.459179 0.355101 0.242354 0.122983 0 0.122983 
0.242354 0.355101 0.459179 0.531246 0.523681 0.536438 0.57201 0.628319 0.699757 
0.779574 0.86176 0.941896 0.531246 0.523681 0.536438 0.57201 0.628319 0.699757 
0.779574 0.86176 0.941896 0.632123 0.7226 0.823657 0.932948 1.0472 1.16257 
1.27528 1.38216 1.48103 0.632123 0.7226 0.823657 0.932948 1.0472 1.16257 
1.27528 1.38216 1.48103 0.531246 0.523681 0.536438 0.57201 0.628319 0.699757 
0.779574 0.86176 0.941896 0.531246 0.523681 0.536438 0.57201 0.628319 0.699757 
0.779574 0.86176 0.941896 0.632123 0.7226 0.823657 0.932948 1.0472 1.16257 
1.27528 1.38216 1.48103 0.632123 0.7226 0.823657 0.932948 1.0472 1.16257 
1.27528 1.38216 1.48103 2.02998 1.9259 1.81315 1.69378 1.5708 1.44781 
1.32844 1.2157 1.11162 2.0928 2.05283 2.00422 1.94767 1.88496 1.81867 
1.75177 1.68695 1.62623 2.0928 2.05283 2.00422 1.94767 1.88496 1.81867 
1.75177 1.68695 1.62623 1.0488 1.08876 1.13737 1.19392 1.25664 1.32292 
1.38982 1.45464 1.51537 1.0488 1.08876 1.13737 1.19392 1.25664 1.32292 
1.38982 1.45464 1.51537 2.02998 1.9259 1.81315 1.69378 1.5708 1.44781 
1.32844 1.2157 1.11162 2.0928 2.05283 2.00422 1.94767 1.88496 1.81867 
1.75177 1.68695 1.62623 2.0928 2.05283 2.00422 1.94767 1.88496 1.81867 
1.75177 1.68695 1.62623 1.0488 1.08876 1.13737 1.19392 1.25664 1.32292 
1.38982 1.45464 1.51537 1.0488 1.08876 1.13737 1.19392 1.25664 1.32292 
1.38982 1.45464 1.51537 1.5708 1.5708 1.5708 1.5708 1.5708 1.5708 
1.5708 1.5708 1.5708 1.5708 1.5708 1.5708 1.5708 1.5708 1.5708 
1.5708 1.5708 1.5708 2.70908 2.71362 2.81592 2.68886 2.81002 2.92597 
2.6349 2.76254 2.89233 3.01997 2.55881 2.68262 2.80854 2.92834 3.01997 
2.47007 2.58462 2.70048 2.80854 2.89233 2.92597 2.37702 2.48017 2.58462 
2.68262 2.76254 2.81002 2.81592 2.28567 2.37702 2.47007 2.55881 2.6349 
2.68886 2.71362 2.70908 2.52097 2.4195 2.51718 2.30791 2.40503 2.49426 
2.18928 2.28408 2.3734 2.45144 2.06758 2.15805 2.24572 2.32523 2.39165 
1.94707 2.03138 2.11543 2.19453 2.26401 2.32035 1.83164 1.90847 1.98711 
2.06376 2.13422 2.1949 2.24359 1.72413 1.79288 1.86489 1.93728 2.00658 
2.06938 2.12312 2.16654 1.5708 1.50988 1.63171 1.44492 1.5708 1.69667 
1.37826 1.5059 1.63569 1.76333 1.31281 1.43962 1.5708 1.70197 1.82878 
1.25155 1.37501 1.50478 1.63681 1.76659 1.89004 1.19686 1.31493 1.44074 
1.5708 1.70086 1.82666 1.94473 1.15011 1.26149 1.38136 1.50697 1.63462 
1.76024 1.88011 1.99148 1.99148 1.88011 1.94473 1.76024 1.82666 1.89004 
1.63462 1.70086 1.76659 1.82878 1.50697 1.5708 1.63681 1.70197 1.76333 
1.38136 1.44074 1.50478 1.5708 1.63569 1.69667 1.26149 1.31493 1.37501 
1.43962 1.5059 1.5708 1.63171 1.15011 1.19686 1.25155 1.31281 1.37826 
1.44492 1.50988 1.5708 2.16654 2.12312 2.24359 2.06938 2.1949 2.32035 
2.00658 2.13422 2.26401 2.39165 1.93728 2.06376 2.19453 2.32523 2.45144 
1.86489 1.98711 2.11543 2.24572 2.3734 2.49426 1.79288 1.90847 2.03138 
2.15805 2.28408 2.40503 2.51718 1.72413 1.83164 1.94707 2.06758 2.18928 
2.30791 2.4195 2.52097 1.66533 1.66946 1.76911 1.67254 1.777 1.88041 
1.67418 1.78222 1.89102 1.99634 1.67418 1.78405 1.89674 2.00785 2.11299 
1.67254 1.78222 1.89674 2.01191 2.12307 2.22608 1.66946 1.777 1.89102 
2.00785 2.12307 2.23222 2.33166 1.66533 1.76911 1.88041 1.99634 2.11299 
2.22608 2.33166 2.42672 1.47626 1.37249 1.47213 1.26118 1.36459 1.46906 
1.14526 1.25058 1.35938 1.46741 1.0286 1.13374 1.24485 1.35755 1.46741 
0.915514 1.01852 1.12969 1.24485 1.35938 1.46906 0.809937 0.909371 1.01852 
1.13374 1.25058 1.36459 1.47213 0.714871 0.809937 0.915514 1.0286 1.14526 
1.26118 1.37249 1.47626 0.975055 0.898002 1.01847 0.821245 0.946693 1.07221 
0.749941 0.877585 1.00737 1.13501 0.690152 0.816367 0.94706 1.07784 1.20431 
0.647337 0.768195 0.895868 1.02616 1.15448 1.2767 0.624416 0.736561 0.857515 
0.983547 1.11021 1.23313 1.34871 0.620619 0.722093 0.833684 0.952313 1.07402 
1.19452 1.30996 1.41746 0.855925 0.764569 0.764569 0.671524 0.661425 0.671524 
0.582786 0.556971 0.556971 0.582786 0.506696 0.458968 0.441109 0.458968 0.506696 
0.45273 0.379052 0.333054 0.333054 0.379052 0.45273 0.427969 0.331576 0.249267 
0.21325 0.249267 0.331576 0.427969 0.432512 0.325669 0.215619 0.121622 0.121622 
0.215619 0.325669 0.432512 0.432512 0.427969 0.325669 0.45273 0.331576 0.215619 
0.506696 0.379052 0.249267 0.121622 0.582786 0.458968 0.333054 0.21325 0.121622 
0.671524 0.556971 0.441109 0.333054 0.249267 0.215619 0.764569 0.661425 0.556971 
0.458968 0.379052 0.331576 0.325669 0.855925 0.764569 0.671524 0.582786 0.506696 
0.45273 0.427969 0.432512 0.975055 1.01847 0.898002 1.07221 0.946693 0.821245 
1.13501 1.00737 0.877585 0.749941 1.20431 1.07784 0.94706 0.816367 0.690152 
1.2767 1.15448 1.02616 0.895868 0.768195 0.647337 1.34871 1.23313 1.11021 
0.983547 0.857515 0.736561 0.624416 1.41746 1.30996 1.19452 1.07402 0.952313 
0.833684 0.722093 0.620619 1.15011 1.26149 1.19686 1.38136 1.31493 1.25155 
1.50697 1.44074 1.37501 1.31281 1.63462 1.5708 1.50478 1.43962 1.37826 
1.76024 1.70086 1.63681 1.5708 1.5059 1.44492 1.88011 1.82666 1.76659 
1.70197 1.63569 1.5708 1.50988 1.99148 1.94473 1.89004 1.82878 1.76333 
1.69667 1.63171 1.5708 1.15011 1.19686 1.26149 1.25155 1.31493 1.38136 
1.31281 1.37501 1.44074 1.50697 1.37826 1.43962 1.50478 1.5708 1.63462 
1.44492 1.5059 1.5708 1.63681 1.70086 1.76024 1.50988 1.5708 1.63569 
1.70197 1.76659 1.82666 1.88011 1.5708 1.63171 1.69667 1.76333 1.82878 
1.89004 1.94473 1.99148 1.72413 1.83164 1.79288 1.94707 1.90847 1.86489 
2.06758 2.03138 1.98711 1.93728 2.18928 2.15805 2.11543 2.06376 2.00658 
2.30791 2.28408 2.24572 2.19453 2.13422 2.06938 2.4195 2.40503 2.3734 
2.32523 2.26401 2.1949 2.12312 2.52097 2.51718 2.49426 2.45144 2.39165 
2.32035 2.24359 2.16654 2.70908 2.81592 2.71362 2.92597 2.81002 2.68886 
3.01997 2.89233 2.76254 2.6349 3.01997 2.92834 2.80854 2.68262 2.55881 
2.92597 2.89233 2.80854 2.70048 2.58462 2.47007 2.81592 2.81002 2.76254 
2.68262 2.58462 2.48017 2.37702 2.70908 2.71362 2.68886 2.6349 2.55881 
2.47007 2.37702 2.28567 2.16654 2.24359 2.12312 2.32035 2.1949 2.06938 
2.39165 2.26401 2.13422 2.00658 2.45144 2.32523 2.19453 2.06376 1.93728 
2.49426 2.3734 2.24572 2.11543 1.98711 1.86489 2.51718 2.40503 2.28408 
2.15805 2.03138 1.90847 1.79288 2.52097 2.4195 2.30791 2.18928 2.06758 
1.94707 1.83164 1.72413 1.66533 1.76911 1.66946 1.88041 1.777 1.67254 
1.99634 1.89102 1.78222 1.67418 2.11299 2.00785 1.89674 1.78405 1.67418 
2.22608 2.12307 2.01191 1.89674 1.78222 1.67254 2.33166 2.23222 2.12307 
2.00785 1.89102 1.777 1.66946 2.42672 2.33166 2.22608 2.11299 1.99634 
1.88041 1.76911 1.66533 1.47626 1.47213 1.37249 1.46906 1.36459 1.26118 
1.46741 1.35938 1.25058 1.14526 1.46741 1.35755 1.24485 1.13374 1.0286 
1.46906 1.35938 1.24485 1.12969 1.01852 0.915514 1.47213 1.36459 1.25058 
1.13374 1.01852 0.909371 0.809937 1.47626 1.37249 1.26118 1.14526 1.0286 
0.915514 0.809937 0.714871 1.41746 1.30996 1.34871 1.19452 1.23313 1.2767 
1.07402 1.11021 1.15448 1.20431 0.952313 0.983547 1.02616 1.07784 1.13501 
0.833684 0.857515 0.895868 0.94706 1.00737 1.07221 0.722093 0.736561 0.768195 
0.816367 0.877585 0.946693 1.01847 0.620619 0.624416 0.647337 0.690152 0.749941 
0.821245 0.898002 0.975055 0.975055 0.898002 1.01847 0.821245 0.946693 1.07221 
0.749941 0.877585 1.00737 1.13501 0.690152 0.816367 0.94706 1.07784 1.20431 
0.647337 0.768195 0.895868 1.02616 1.15448 1.2767 0.624416 0.736561 0.857515 
0.983547 1.11021 1.23313 1.34871 0.620619 0.722093 0.833684 0.952313 1.07402 
1.19452 1.30996 1.41746 
Phi 1 1002 float
6.28319 3.14159 6.28319 3.14159 4.71239 4.71239 1.5708 1.5708 3.69517 
5.72961 2.58802 0.553574 6.28319 6.28319 6.28319 6.28319 3.14159 3.14159 
3.14159 3.14159 3.14159 6.1053 5.8988 5.67687 5.45995 5.26596 5.10322 
4.97131 4.86569 4.78095 0.177881 0.384387 0.606312 0.823235 1.01722 1.17997 
1.31187 1.4175 1.50223 6.18928 6.10703 6.03531 5.97283 5.91832 5.87061 
5.82869 5.79168 5.75886 0.0939024 0.176153 0.247873 0.310351 0.364864 0.412573 
0.454497 0.491504 0.524326 3.31947 3.52598 3.7479 3.96483 4.15881 4.32156 
4.45346 4.55909 4.64383 2.96371 2.75721 2.53528 2.31836 2.12437 1.96162 
1.82972 1.72409 1.63936 3.2355 3.31775 3.38947 3.45194 3.50646 3.55417 
3.59609 3.6331 3.66592 3.04769 2.96544 2.89372 2.83124 2.77673 2.72902 
2.6871 2.65009 2.61727 6.28319 6.28319 6.28319 6.28319 3.14159 3.14159 
3.14159 3.14159 3.14159 6.1053 5.8988 5.67687 5.45995 5.26596 5.10322 
4.97131 4.86569 4.78095 0.177881 0.384387 0.606312 0.823235 1.01722 1.17997 
1.31187 1.4175 1.50223 6.18928 6.10703 6.03531 5.97283 5.91832 5.87061 
5.82869 5.79168 5.75886 0.0939024 0.176153 0.247873 0.310351 0.364864 0.412573 
0.454497 0.491504 0.524326 3.31947 3.52598 3.7479 3.96483 4.15881 4.32156 
4.45346 4.55909 4.64383 2.96371 2.75721 2.53528 2.31836 2.12437 1.96162 
1.82972 1.72409 1.63936 3.2355 3.31775 3.38947 3.45194 3.50646 3.55417 
3.59609 3.6331 3.66592 3.04769 2.96544 2.89372 2.83124 2.77673 2.72902 
2.6871 2.65009 2.61727 4.71239 4.71239 4.71239 4.71239 4.71239 4.71239 
4.71239 4.71239 4.71239 4.60879 4.49914 4.3857 4.27128 4.15881 4.05096 
3.94976 3.85646 3.77161 4.81599 4.92564 5.03907 5.1535 5.26596 5.37381 
5.47502 5.56831 5.65317 4.60879 4.49914 4.3857 4.27128 4.15881 4.05096 
3.94976 3.85646 3.77161 4.81599 4.92564 5.03907 5.1535 5.26596 5.37381 
5.47502 5.56831 5.65317 1.5708 1.5708 1.5708 1.5708 1.5708 1.5708 
1.5708 1.5708 1.5708 1.6744 1.78405 1.89748 2.01191 2.12437 2.23222 
2.33343 2.42672 2.51157 1.4672 1.35755 1.24411 1.12969 1.01722 0.909371 
0.808166 0.714871 0.63002 1.6744 1.78405 1.89748 2.01191 2.12437 2.23222 
2.33343 2.42672 2.51157 1.4672 1.35755 1.24411 1.12969 1.01722 0.909371 
0.808166 0.714871 0.63002 3.60077 3.49669 3.38395 3.26458 3.14159 3.01861 
2.89924 2.78649 2.68241 5.82401 5.92808 6.04083 6.1602 6.28319 0.122983 
0.242354 0.355101 0.459179 6.05603 5.78856 5.97021 5.51259 5.60297 5.78856 
5.26596 5.26596 5.26596 5.26596 5.06749 5.0121 4.91556 4.71239 4.15881 
4.91556 4.83537 4.71239 4.50922 4.15881 3.63622 4.80045 4.71239 4.58941 
4.41268 4.15881 3.82181 3.45456 4.71239 4.62433 4.50922 4.35729 4.15881 
3.91219 3.63622 3.36875 6.01742 5.94343 5.82633 5.88092 5.76745 5.62798 
5.8278 5.71897 5.58911 5.43724 5.78235 5.67854 5.55757 5.41926 5.26596 
5.74316 5.64441 5.5315 5.40467 5.26596 5.11955 5.70914 5.61528 5.50962 
5.3926 5.26596 5.13292 4.99789 5.67937 5.59016 5.49102 5.38246 5.26596 
5.14407 5.02016 4.89798 5.56831 5.47502 5.47502 5.37381 5.37381 5.37381 
5.26596 5.26596 5.26596 5.26596 5.1535 5.1535 5.1535 5.1535 5.1535 
5.03907 5.03907 5.03907 5.03907 5.03907 5.03907 4.92564 4.92564 4.92564 
4.92564 4.92564 4.92564 4.92564 4.81599 4.81599 4.81599 4.81599 4.81599 
4.81599 4.81599 4.81599 4.60879 4.60879 4.49914 4.60879 4.49914 4.3857 
4.60879 4.49914 4.3857 4.27128 4.60879 4.49914 4.3857 4.27128 4.15881 
4.60879 4.49914 4.3857 4.27128 4.15881 4.05096 4.60879 4.49914 4.3857 
4.27128 4.15881 4.05096 3.94976 4.60879 4.49914 4.3857 4.27128 4.15881 
4.05096 3.94976 3.85646 4.5268 4.40462 4.42689 4.28071 4.29185 4.30523 
4.15881 4.15881 4.15881 4.15881 4.04232 4.03217 4.02011 4.00552 3.98753 
3.93376 3.91515 3.89328 3.86721 3.83566 3.7968 3.83461 3.8095 3.78037 
3.74624 3.70581 3.65733 3.59845 3.7454 3.71564 3.68161 3.64243 3.59698 
3.54386 3.48135 3.40735 3.56428 3.45246 3.52338 3.33203 3.40312 3.47739 
3.20576 3.27463 3.34802 3.42551 3.07742 3.14159 3.21128 3.28647 3.36688 
2.95116 3.00855 3.0719 3.14159 3.21784 3.3006 2.83072 2.88006 2.93517 
2.99672 3.06535 3.14159 3.22575 2.7189 2.7598 2.8058 2.85768 2.9163 
2.98259 3.05743 3.14159 3.56428 3.52338 3.45246 3.47739 3.40312 3.33203 
3.42551 3.34802 3.27463 3.20576 3.36688 3.28647 3.21128 3.14159 3.07742 
3.3006 3.21784 3.14159 3.0719 3.00855 2.95116 3.22575 3.14159 3.06535 
2.99672 2.93517 2.88006 2.83072 3.14159 3.05743 2.98259 2.9163 2.85768 
2.8058 2.7598 2.7189 4.5268 4.42689 4.40462 4.30523 4.29185 4.28071 
4.15881 4.15881 4.15881 4.15881 3.98753 4.00552 4.02011 4.03217 4.04232 
3.7968 3.83566 3.86721 3.89328 3.91515 3.93376 3.59845 3.65733 3.70581 
3.74624 3.78037 3.8095 3.83461 3.40735 3.48135 3.54386 3.59698 3.64243 
3.68161 3.71564 3.7454 4.71239 4.80045 4.62433 4.91556 4.71239 4.50922 
5.06749 4.83537 4.58941 4.35729 5.26596 5.0121 4.71239 4.41268 4.15881 
5.51259 5.26596 4.91556 4.50922 4.15881 3.91219 5.78856 5.60297 5.26596 
4.71239 4.15881 3.82181 3.63622 6.05603 5.97021 5.78856 5.26596 4.15881 
3.63622 3.45456 3.36875 0.227158 0.494626 0.312971 0.770593 0.680215 0.494626 
1.01722 1.01722 1.01722 1.01722 1.2157 1.27109 1.36763 1.5708 2.12437 
1.36763 1.44781 1.5708 1.77397 2.12437 2.64697 1.48273 1.5708 1.69378 
1.8705 2.12437 2.46138 2.82862 1.5708 1.65886 1.77397 1.9259 2.12437 
2.371 2.64697 2.91443 1.75639 1.87857 1.8563 2.00248 1.99133 1.97796 
2.12437 2.12437 2.12437 2.12437 2.24087 2.25101 2.26308 2.27767 2.29565 
2.34943 2.36803 2.38991 2.41597 2.44752 2.48639 2.44857 2.47368 2.50281 
2.53694 2.57738 2.62586 2.68474 2.53778 2.56754 2.60157 2.64076 2.68621 
2.73933 2.80184 2.87583 1.6744 1.6744 1.78405 1.6744 1.78405 1.89748 
1.6744 1.78405 1.89748 2.01191 1.6744 1.78405 1.89748 2.01191 2.12437 
1.6744 1.78405 1.89748 2.01191 2.12437 2.23222 1.6744 1.78405 1.89748 
2.01191 2.12437 2.23222 2.33343 1.6744 1.78405 1.89748 2.01191 2.12437 
2.23222 2.33343 2.42672 1.4672 1.35755 1.4672 1.24411 1.35755 1.4672 
1.12969 1.24411 1.35755 1.4672 1.01722 1.12969 1.24411 1.35755 1.4672 
0.909371 1.01722 1.12969 1.24411 1.35755 1.4672 0.808166 0.909371 1.01722 
1.12969 1.24411 1.35755 1.4672 0.714871 0.808166 0.909371 1.01722 1.12969 
1.24411 1.35755 1.4672 0.603812 0.57405 0.693022 0.540021 0.667908 0.792164 
0.500837 0.638778 0.773562 0.900726 0.455383 0.604649 0.751687 0.890581 1.01722 
0.402264 0.564217 0.725619 0.878514 1.01722 1.13912 0.339753 0.515737 0.694072 
0.863926 1.01722 1.15026 1.26302 0.265762 0.456853 0.655207 0.845941 1.01722 
1.16363 1.28529 1.38521 0.227158 0.312971 0.494626 0.494626 0.680215 0.770593 
1.01722 1.01722 1.01722 1.01722 2.12437 1.5708 1.36763 1.27109 1.2157 
2.64697 2.12437 1.77397 1.5708 1.44781 1.36763 2.82862 2.46138 2.12437 
1.8705 1.69378 1.5708 1.48273 2.91443 2.64697 2.371 2.12437 1.9259 
1.77397 1.65886 1.5708 1.75639 1.8563 1.87857 1.97796 1.99133 2.00248 
2.12437 2.12437 2.12437 2.12437 2.29565 2.27767 2.26308 2.25101 2.24087 
2.48639 2.44752 2.41597 2.38991 2.36803 2.34943 2.68474 2.62586 2.57738 
2.53694 2.50281 2.47368 2.44857 2.87583 2.80184 2.73933 2.68621 2.64076 
2.60157 2.56754 2.53778 5.86049 5.90139 5.97231 5.94739 6.02165 6.09275 
5.99927 6.07676 6.15015 6.21902 6.0579 6.13831 6.2135 0 0.0641696 
6.12418 6.20694 6.28319 0.069689 0.13304 0.190437 6.19903 0 0.0762451 
0.144876 0.206423 0.261531 0.310872 0 0.0841597 0.159004 0.225289 0.283913 
0.335793 0.381792 0.422692 5.86049 5.97231 5.90139 6.09275 6.02165 5.94739 
6.21902 6.15015 6.07676 5.99927 0.0641696 0 6.2135 6.13831 6.0579 
0.190437 0.13304 0.069689 6.28319 6.20694 6.12418 0.310872 0.261531 0.206423 
0.144876 0.0762451 6.28319 6.19903 0.422692 0.381792 0.335793 0.283913 0.225289 
0.159004 0.0841597 0 5.67937 5.70914 5.59016 5.74316 5.61528 5.49102 
5.78235 5.64441 5.50962 5.38246 5.8278 5.67854 5.5315 5.3926 5.26596 
5.88092 5.71897 5.55757 5.40467 5.26596 5.14407 5.94343 5.76745 5.58911 
5.41926 5.26596 5.13292 5.02016 6.01742 5.82633 5.62798 5.43724 5.26596 
5.11955 4.99789 4.89798 1.38521 1.28529 1.26302 1.16363 1.15026 1.13912 
1.01722 1.01722 1.01722 1.01722 0.845941 0.863926 0.878514 0.890581 0.900726 
0.655207 0.694072 0.725619 0.751687 0.773562 0.792164 0.456853 0.515737 0.564217 
0.604649 0.638778 0.667908 0.693022 0.265762 0.339753 0.402264 0.455383 0.500837 
0.540021 0.57405 0.603812 
