# vtk DataFile Version 4.0
vtk output
ASCII
DATASET POLYDATA
POINTS 1002 float
-77.1908 -109.046 71.0369 -76.9438 -110.512 70.7343 -77.0032 -110.086 69.8058 
-77.4491 -108.666 70.088 -77.1541 -109.601 68.8276 -77.7677 -107.775 71.2566 
-77.8456 -108.26 69.106 -77.4821 -109.065 67.8174 -78.18 -107.37 70.2781 
-78.445 -106.394 71.4198 -78.3813 -107.769 68.1724 -78.1041 -108.537 66.9693 
-78.7172 -106.888 69.3622 -78.9007 -105.802 70.4586 -78.9959 -104.658 71.6333 
-79.1256 -107.219 67.4296 -79.1129 -108.101 66.4673 -79.35 -106.285 68.5646 
-79.5058 -105.154 69.6675 -79.5241 -103.966 70.7591 -79.5858 -102.909 71.9248 
-80.1162 -106.657 66.8982 -80.3273 -107.672 66.1404 -80.1017 -105.605 67.8363 
-80.2193 -104.469 68.943 -80.2439 -103.32 70.0449 -80.2557 -102.281 71.1479 
-80.3249 -101.346 72.2502 -81.1912 -106.022 66.453 -81.4361 -107.053 65.7617 
-80.9698 -104.892 67.1839 -80.9677 -103.745 68.1463 -81.0383 -102.661 69.2843 
-81.0399 -101.657 70.412 -81.0481 -100.704 71.5008 -81.0391 -99.8195 72.5471 
-82.2343 -105.295 66.0476 -82.4045 -106.25 65.3772 -81.964 -104.189 66.7013 
-81.7869 -103.007 67.4517 -81.8018 -101.92 68.4481 -81.8283 -100.949 69.5855 
-81.786 -99.9993 70.6912 -81.7405 -99.1245 71.7382 -81.6705 -98.3974 72.7359 
-83.2477 -104.577 65.7034 -83.3209 -105.446 65.0695 -83.0818 -103.568 66.3648 
-82.8222 -102.378 67.0092 -82.6411 -101.197 67.7638 -82.6011 -100.2 68.7444 
-82.5501 -99.2856 69.8365 -82.454 -98.4257 70.8857 -82.3752 -97.7343 71.8705 
-82.2859 -97.1867 72.8102 -84.177 -103.928 65.4129 -84.1786 -104.747 64.8243 
-84.1551 -103.014 66.0647 -83.9753 -101.887 66.686 -83.6585 -100.64 67.2855 
-83.4333 -99.5537 68.0376 -83.3482 -98.6633 69.0195 -83.2469 -97.836 70.0756 
-83.119 -97.1219 71.0615 -83.0123 -96.5743 71.9759 -82.8883 -96.1135 72.8516 
-76.8539 -111.864 69.8105 -76.7605 -111.325 68.787 -76.5698 -113.051 68.9064 
-76.3532 -112.449 67.7517 -76.0551 -113.93 68.087 -76.7704 -110.678 67.6967 
-75.8522 -113.395 66.7484 -75.7203 -114.894 67.2442 -76.3218 -111.768 66.5316 
-77.1079 -110.012 66.6421 -75.7273 -114.423 65.8347 -75.9998 -116.086 66.4792 
-75.9927 -112.814 65.4669 -76.8514 -111.088 65.5424 -77.9843 -109.464 65.9516 
-76.3848 -115.552 65.2733 -76.862 -117.055 66.0739 -76.2692 -113.862 64.7276 
-76.9222 -112.118 64.6794 -78.0821 -110.488 65.0586 -79.3062 -109.069 65.6311 
-77.6181 -116.53 65.1181 -78.0193 -117.709 65.9333 -77.3282 -114.887 64.5021 
-77.6107 -113.007 64.2379 -78.4734 -111.325 64.3386 -79.5669 -109.962 64.754 
-80.6182 -108.595 65.3075 -78.918 -117.203 65.1453 -79.2406 -118.224 65.8732 
-78.6567 -115.707 64.6232 -78.7425 -113.826 64.2381 -79.2476 -112.034 63.9434 
-79.9829 -110.631 63.9583 -80.854 -109.343 64.3825 -81.7126 -107.839 64.9305 
-80.0579 -117.463 65.3462 -80.3698 -118.447 65.9953 -79.8303 -116.111 64.8928 
-79.8702 -114.478 64.4499 -80.2178 -112.836 63.8524 -80.701 -111.357 63.4388 
-81.2947 -109.986 63.6036 -82.0208 -108.513 64.1367 -82.7235 -106.923 64.6488 
-81.0671 -117.346 65.7574 -81.3371 -118.283 66.3367 -80.8963 -116.136 65.279 
-80.9452 -114.829 64.721 -81.2355 -113.584 63.9058 -81.6239 -112.258 63.1632 
-82.0438 -110.753 63.0443 -82.5676 -109.177 63.4862 -83.1507 -107.59 64.0116 
-83.6872 -106.071 64.4322 -82.1105 -117.368 66.4162 -82.0128 -116.292 65.8566 
-83.1523 -116.433 66.4038 -83.3538 -115.401 65.644 -84.5058 -115.62 66.1009 
-82.1134 -115.148 65.1641 -84.8701 -114.686 65.1413 -85.8929 -114.714 65.7637 
-83.6945 -114.508 64.6022 -82.3915 -114.174 64.1667 -86.1646 -113.684 64.8847 
-87.1142 -113.576 65.6349 -85.1522 -113.723 64.1406 -83.9737 -113.582 63.4759 
-82.7188 -113.087 63.1289 -87.3111 -112.355 64.9159 -88.2586 -112.313 65.5772 
-86.2867 -112.341 64.2574 -85.261 -112.296 63.4662 -84.1556 -112.064 62.811 
-83.0355 -111.494 62.7086 -88.5187 -110.953 64.9452 -89.3778 -110.969 65.5667 
-87.4826 -110.803 64.4671 -86.4414 -110.603 63.9205 -85.4172 -110.399 63.2048 
-84.3921 -110.101 62.811 -83.4182 -109.656 63.0119 -89.7181 -109.539 65.0475 
-90.4775 -109.658 65.6425 -88.8045 -109.366 64.531 -87.83 -109.148 64.1047 
-86.7956 -108.887 63.5849 -85.7127 -108.595 63.1032 -84.7282 -108.277 63.0973 
-83.8754 -107.927 63.5135 -90.9025 -108.267 65.1702 -91.5963 -108.554 65.6496 
-90.0839 -107.993 64.648 -89.2205 -107.796 64.1372 -88.2784 -107.597 63.6789 
-87.1639 -107.303 63.2675 -86.0409 -106.961 63.127 -85.1032 -106.631 63.4235 
-84.3286 -106.323 63.9322 -92.0792 -107.238 65.1295 -92.6575 -107.617 65.5536 
-91.3571 -106.836 64.6902 -90.5344 -106.524 64.1961 -89.6294 -106.277 63.7485 
-88.587 -105.973 63.424 -87.4496 -105.62 63.2698 -86.3902 -105.315 63.4133 
-85.4958 -105.068 63.8332 -84.763 -104.875 64.3393 -85.0374 -103.55 64.9547 
-85.7305 -103.566 64.4527 -85.9835 -102.185 65.0765 -86.6299 -103.641 63.9718 
-86.8314 -102.083 64.5624 -86.9302 -100.608 65.055 -87.6701 -103.806 63.6306 
-87.8731 -102.071 64.1124 -87.8979 -100.466 64.5079 -87.8091 -98.9233 64.9146 
-88.7855 -104.129 63.5116 -88.959 -102.228 63.811 -88.9873 -100.46 64.0854 
-88.8336 -98.7853 64.3949 -88.6712 -97.3255 64.9037 -89.9684 -104.594 63.5674 
-90.1658 -102.657 63.6299 -90.2026 -100.66 63.8073 -90.0476 -98.7614 64.0337 
-89.8154 -97.1619 64.4529 -89.5938 -95.9629 65.1137 -91.119 -105.055 63.7991 
-91.5586 -103.292 63.5591 -91.7036 -101.177 63.5927 -91.5597 -98.976 63.7772 
-91.2621 -97.1333 64.0811 -90.9258 -95.8216 64.6473 -90.5538 -94.8333 65.4451 
-92.0734 -105.473 64.2102 -92.7586 -103.901 63.7487 -93.1438 -101.905 63.5729 
-93.1169 -99.5797 63.6827 -92.8226 -97.4701 63.8929 -92.4181 -95.9438 64.2926 
-91.9482 -94.838 65.0213 -91.4435 -93.8862 65.9013 -92.7861 -105.925 64.6835 
-93.4836 -104.416 64.2261 -93.9868 -102.598 63.9623 -94.1447 -100.432 63.9786 
-94.0047 -98.2443 64.1269 -93.6926 -96.4847 64.3793 -93.2479 -95.1958 64.9213 
-92.7145 -94.1289 65.7195 -92.1796 -93.1605 66.514 -93.3202 -106.388 65.1749 
-93.9139 -104.913 64.8463 -94.3655 -103.211 64.6576 -94.6228 -101.291 64.6372 
-94.6823 -99.2396 64.7283 -94.5722 -97.3397 64.9131 -94.2778 -95.8395 65.2973 
-93.8078 -94.6744 65.9193 -93.2719 -93.6458 66.6162 -92.7704 -92.6956 67.2223 
-85.0889 -102.642 65.5819 -85.9917 -101.104 65.6561 -85.068 -101.568 66.2214 
-86.82 -99.3304 65.5687 -85.8638 -99.8404 66.2379 -84.8004 -100.277 66.8072 
-87.6493 -97.5805 65.4925 -86.6044 -98.0009 66.1939 -85.5154 -98.5206 66.8566 
-84.4138 -99.0262 67.4439 -88.5093 -96.0913 65.636 -87.4201 -96.3327 66.2783 
-86.2842 -96.7967 66.9898 -85.1888 -97.4171 67.6677 -84.2077 -98.0454 68.3322 
-89.3639 -94.8451 65.9797 -88.2144 -94.9269 66.5557 -87.0912 -95.2126 67.2444 
-86.0269 -95.8217 68.0023 -85.0494 -96.5574 68.7403 -84.1149 -97.215 69.4318 
-90.2416 -93.7262 66.4057 -88.9921 -93.6979 66.9629 -87.8096 -93.8133 67.5868 
-86.7601 -94.2638 68.3317 -85.8247 -95.0195 69.1452 -84.8983 -95.7802 69.8958 
-83.9596 -96.4498 70.5139 -91.1075 -92.7731 66.8649 -89.8668 -92.6171 67.3716 
-88.5816 -92.6307 67.9758 -87.408 -92.882 68.6564 -86.4226 -93.4947 69.4419 
-85.5479 -94.2996 70.268 -84.6622 -95.0757 70.9581 -83.7853 -95.8233 71.484 
-91.8698 -92.1015 67.3909 -90.7577 -91.7705 67.7589 -89.4768 -91.6912 68.3328 
-88.1632 -91.7894 69.0058 -86.9881 -92.1627 69.7259 -86.0414 -92.8543 70.5343 
-85.2274 -93.6752 71.3208 -84.4129 -94.4969 71.9202 -83.6102 -95.3197 72.386 
-92.8191 -91.9282 68.0512 -91.8608 -91.292 68.2278 -92.8604 -91.2323 69.0937 
-91.7861 -90.6803 69.3984 -92.7944 -90.8033 70.5248 -90.6387 -91.0067 68.6742 
-91.5755 -90.4486 71.046 -92.5287 -90.7514 72.2902 -90.4114 -90.5102 69.9961 
-89.2133 -90.9776 69.3664 -91.2283 -90.5403 73.0017 -92.1118 -90.8575 74.1764 
-90.0793 -90.3821 71.7815 -88.8228 -90.5158 70.7751 -87.7486 -91.1239 70.1242 
-90.822 -90.6727 74.9602 -91.699 -90.9716 75.9784 -89.6908 -90.4862 73.8015 
-88.3689 -90.3942 72.5863 -87.225 -90.7027 71.5766 -86.4944 -91.6033 70.9253 
-90.4169 -90.8913 76.6752 -91.3226 -91.3098 77.5093 -89.2617 -90.6769 75.7043 
-87.9296 -90.5429 74.5744 -86.7198 -90.652 73.3814 -85.959 -91.2945 72.418 
-85.559 -92.4057 71.7807 -89.9807 -91.4076 78.074 -90.8778 -91.905 78.7576 
-88.8091 -91.1094 77.2548 -87.5337 -90.9261 76.3394 -86.3595 -90.9384 75.2495 
-85.5131 -91.3472 74.1192 -85.0518 -92.1842 73.1959 -84.753 -93.3093 72.4974 
-89.4957 -92.0817 79.2824 -90.3536 -92.5311 79.8501 -88.3813 -91.8021 78.5304 
-87.2103 -91.5931 77.7196 -86.1638 -91.512 76.8152 -85.2778 -91.7364 75.7499 
-84.6245 -92.2859 74.6771 -84.2264 -93.14 73.7606 -83.9322 -94.2254 73.0098 
-89.0391 -92.7315 80.3609 -89.8583 -93.1278 80.8058 -88.0374 -92.5258 79.69 
-86.9875 -92.3929 78.8992 -86.0535 -92.295 78.0688 -85.2126 -92.389 77.1403 
-84.4202 -92.7243 76.1018 -83.8045 -93.2784 75.0846 -83.424 -94.1148 74.1996 
-83.1544 -95.1359 73.464 -93.5972 -93.0166 67.7109 -93.6794 -92.3066 68.688 
-94.4324 -93.4552 68.2959 -94.4754 -92.8296 69.4382 -95.2603 -93.8669 68.9281 
-93.7317 -91.6711 69.9476 -95.1767 -93.3744 70.3444 -95.9962 -94.3912 69.8444 
-94.4264 -92.3252 70.9271 -93.6253 -91.3354 71.5654 -95.8042 -94.0981 71.5602 
-96.4921 -95.2923 71.0794 -94.9641 -93.1021 72.0772 -94.2409 -92.106 72.6872 
-93.296 -91.3026 73.404 -96.2556 -95.1597 72.8023 -96.6123 -96.5328 72.1795 
-95.4641 -94.1017 73.3421 -94.7258 -93.0352 73.883 -93.9396 -92.027 74.5547 
-92.8536 -91.3378 75.2979 -96.3901 -96.4542 73.7767 -96.4918 -97.9521 73.0537 
-95.8292 -95.3475 74.3956 -95.1231 -94.2247 74.9484 -94.4579 -92.9773 75.6233 
-93.5308 -92.0637 76.3609 -92.417 -91.5587 77.0117 -96.4124 -97.8992 74.7427 
-96.4572 -99.476 74.0256 -96.0058 -96.7037 75.2857 -95.3369 -95.6428 75.7483 
-94.7394 -94.3109 76.4236 -94.0208 -93.1447 77.2019 -93.0062 -92.5033 77.8512 
-91.9466 -92.1244 78.3692 -96.5059 -99.4218 75.7333 -96.532 -100.93 74.9987 
-96.1523 -98.1207 76.1878 -95.4432 -97.0786 76.476 -94.802 -95.8708 77.0507 
-94.2742 -94.5664 77.8678 -93.4569 -93.6927 78.5213 -92.4152 -93.1872 79.0213 
-91.398 -92.7795 79.4913 -96.4757 -100.82 76.3863 -96.4713 -102.125 75.6402 
[...]
CELL_DATA 2000
SCALARS Distance double
LOOKUP_TABLE default
147.555 146.889 147.065 146.817 146.298 146.495 146.334 146.48 146.289 
145.856 146.02 145.927 146.042 145.788 145.889 145.535 145.67 145.686 
145.569 145.645 145.341 145.368 144.931 144.997 144.572 145.752 145.573 
145.286 145.266 144.914 144.913 144.486 144.476 144.104 144.133 143.836 
145.869 145.62 145.117 144.962 144.504 144.477 144.093 144.103 143.793 
143.804 143.559 143.561 143.326 145.814 145.615 145.043 144.794 144.228 
144.093 143.675 143.702 143.407 143.487 143.213 143.274 142.996 143.045 
142.785 145.652 145.505 145.026 144.763 144.21 143.924 143.417 143.303 
142.946 143.022 142.731 142.841 142.531 142.625 142.337 142.447 142.205 
145.511 145.384 145.018 144.808 144.354 144.019 143.471 143.155 142.679 
142.583 142.276 142.348 142.102 142.175 141.93 141.999 141.787 141.884 
141.691 148.092 148.625 147.995 147.282 148.948 148.405 147.581 147.089 
146.499 149.213 148.651 147.848 147.321 146.621 146.292 145.926 149.864 
149.069 148.319 147.659 147.008 146.497 146.113 145.872 145.786 150.997 
150.014 149.305 148.405 147.844 147.107 146.768 146.285 146.251 145.992 
146.056 152.256 151.315 150.699 149.671 149.107 148.18 147.787 147.112 
146.989 146.61 146.663 146.367 146.313 153.355 152.564 152.011 151.087 
150.46 149.509 148.948 148.153 147.806 147.316 147.2 146.925 146.823 
146.508 146.262 154.195 153.543 152.942 152.201 151.523 150.706 150.055 
149.249 148.746 148.097 147.811 147.403 147.237 146.932 146.7 146.346 
146.045 154.75 154.214 153.569 152.949 152.286 151.6 151.01 150.282 
149.808 149.077 148.727 148.108 147.875 147.412 147.197 146.79 146.52 
146.128 145.864 154.767 154.442 154.276 153.615 154.308 154.042 153.382 
153.12 152.412 154.26 154 153.401 153.049 152.373 151.997 151.281 
154.054 153.898 153.323 153.087 152.442 152.08 151.361 150.937 150.192 
153.696 153.587 152.946 152.837 152.152 151.993 151.247 150.977 150.2 
149.839 149.104 153.304 153.188 152.516 152.382 151.668 151.545 150.797 
150.657 149.899 149.712 148.995 148.747 148.137 152.949 152.803 152.161 
151.99 151.333 151.144 150.467 150.242 149.53 149.327 148.661 148.517 
147.939 147.807 147.329 152.727 152.517 151.894 151.684 151.068 150.888 
150.284 150.051 149.364 149.068 148.368 148.165 147.587 147.506 147.031 
146.987 146.583 152.612 152.374 151.768 151.499 150.882 150.661 150.066 
149.869 149.201 148.93 148.182 147.917 147.271 147.145 146.667 146.635 
146.245 146.238 145.909 145.577 145.865 145.526 145.14 146.25 145.838 
145.401 145.043 144.551 146.815 146.272 145.809 145.35 144.811 144.371 
143.756 147.685 146.964 146.456 145.843 145.295 144.721 144.072 143.547 
142.943 148.734 147.966 147.453 146.664 146.114 145.357 144.719 144.008 
143.382 142.842 142.405 149.711 149.046 148.662 147.837 147.351 146.416 
145.804 144.864 144.234 143.462 143.006 142.487 142.223 150.606 150.03 
149.792 149.09 148.721 147.807 147.231 146.163 145.505 144.516 144.015 
143.276 142.995 142.462 142.283 151.502 150.957 150.747 150.159 149.839 
149.105 148.571 147.612 146.935 145.897 145.333 144.441 144.119 143.413 
143.234 142.638 142.488 152.345 151.841 151.593 151.044 150.701 150.084 
149.606 148.827 148.222 147.289 146.719 145.801 145.434 144.643 144.447 
143.743 143.599 142.941 142.807 145.336 144.904 145.049 144.859 144.275 
144.53 144.333 144.516 144.222 143.413 143.752 143.522 143.847 143.536 
143.726 143.311 142.578 142.84 142.584 142.928 142.638 142.921 142.542 
142.742 142.425 142.049 142.123 141.85 142.05 141.797 142.041 141.78 
141.998 141.798 142.026 141.972 141.843 141.751 141.434 141.46 141.182 
141.319 141.129 141.345 141.28 141.514 141.539 141.769 141.827 141.836 
141.634 141.264 141.156 140.82 140.821 140.593 140.764 140.729 141.029 
141.11 141.386 141.442 141.654 141.684 141.965 141.668 141.255 141.053 
140.693 140.568 140.281 140.304 140.194 140.448 140.526 140.888 140.985 
141.264 141.29 141.498 141.533 142.23 141.84 141.387 141.099 140.726 
140.523 140.207 140.09 139.876 139.957 139.947 140.262 140.391 140.752 
140.845 141.104 141.136 141.357 141.418 142.286 142.14 141.895 141.386 
142.217 141.808 141.221 141.044 140.673 142.619 142.026 141.351 140.955 
140.482 140.377 140.115 143.257 142.581 141.872 141.235 140.604 140.247 
139.874 139.847 139.726 143.943 143.29 142.631 141.89 141.156 140.508 
139.965 139.689 139.533 139.597 139.738 144.636 143.995 143.386 142.676 
141.96 141.181 140.528 139.96 139.711 139.559 139.728 139.842 140.18 
145.363 144.713 144.11 143.425 142.773 142.018 141.391 140.68 140.336 
139.935 140.01 139.954 140.252 140.364 140.668 146.057 145.441 144.857 
144.176 143.583 142.865 142.336 141.617 141.26 140.69 140.605 140.326 
140.461 140.443 140.658 140.77 140.98 146.669 146.116 145.601 144.958 
144.444 143.75 143.315 142.62 142.313 141.673 141.499 141.001 140.955 
140.694 140.779 140.76 140.944 141.051 141.268 142.925 143.969 143.225 
142.832 145.072 144.334 143.984 143.225 142.942 146.232 145.48 145.202 
144.443 144.209 143.467 143.335 147.6 146.767 146.541 145.728 145.543 
144.783 144.661 143.954 143.915 149.05 148.24 148.044 147.178 146.996 
146.175 146.054 145.301 145.23 144.55 144.546 150.363 149.649 149.483 
148.688 148.486 147.66 147.498 146.714 146.619 145.888 145.859 145.197 
145.234 151.716 150.971 150.844 150.07 149.871 149.083 148.884 148.126 
147.999 147.277 147.228 146.541 146.561 145.916 145.968 153.181 152.42 
152.299 151.468 151.234 150.411 150.185 149.446 149.322 148.633 148.579 
147.895 147.877 147.229 147.241 146.625 146.636 154.385 153.802 153.626 
152.884 152.551 151.733 151.419 150.695 150.573 149.94 149.924 149.252 
149.211 148.519 148.475 147.846 147.822 147.229 147.204 152.708 152.943 
152.543 151.932 153.174 152.75 152.087 151.668 150.987 153.508 153.02 
152.348 151.839 151.076 150.642 149.879 153.915 153.372 152.66 152.123 
151.307 150.769 149.898 149.441 148.563 154.29 153.72 152.853 152.337 
151.433 150.941 149.994 149.489 148.536 148.067 147.156 154.487 153.968 
152.973 152.428 151.416 150.938 149.951 149.499 148.539 148.081 147.19 
146.734 145.929 154.471 154.034 153.049 152.506 151.494 150.949 149.982 
149.462 148.548 148.077 147.254 146.825 146.084 145.644 144.952 154.464 
154.03 153.13 152.586 151.658 151.109 150.239 149.657 148.799 148.211 
147.416 146.93 146.239 145.822 145.162 144.732 144.082 154.561 154.145 
153.348 152.767 151.895 151.33 150.543 150 149.221 148.601 147.791 
147.194 146.468 146 145.355 144.933 144.285 143.864 143.247 153.198 
154 153.572 153.481 154.862 154.394 154.324 153.838 153.724 155.885 
155.337 155.252 154.707 154.609 154.111 154.049 156.942 156.409 156.331 
155.723 155.622 155.054 155.051 154.544 154.546 157.865 157.402 157.364 
156.826 156.738 156.142 156.14 155.617 155.702 155.139 155.078 158.796 
158.29 158.253 157.791 157.703 157.189 157.082 156.629 156.631 156.227 
156.185 155.6 155.33 159.884 159.296 159.244 158.707 158.587 158.045 
157.795 157.346 157.151 156.889 156.767 156.467 156.217 155.666 155.259 
160.957 160.415 160.388 159.804 159.682 159.001 158.675 158.01 157.676 
157.266 157.083 156.846 156.653 156.324 156.012 155.499 155.145 161.786 
161.379 161.345 160.896 160.788 160.158 159.826 159.023 158.623 157.941 
157.716 157.269 157.114 156.736 156.489 156.095 155.809 155.373 155.107 
162.075 162.092 161.977 161.654 161.78 161.843 161.618 161.545 161.128 
161.389 161.433 161.172 161.293 160.933 160.84 160.169 161.095 161.051 
160.622 160.699 160.313 160.425 159.894 159.729 158.986 160.714 160.728 
160.205 160.143 159.642 159.735 159.353 159.4 158.911 158.661 158.074 
160.16 160.264 159.799 159.727 159.169 159.146 158.769 158.884 158.567 
158.548 158.062 157.838 157.326 159.594 159.7 159.274 159.269 158.746 
158.72 158.318 158.391 158.066 158.127 157.65 157.604 157.031 156.976 
156.518 159.015 159.14 158.69 158.719 158.207 158.24 157.864 157.968 
157.657 157.68 157.179 157.086 156.483 156.473 156.019 156.119 155.804 
158.328 158.514 158.108 158.16 157.673 157.692 157.322 157.461 157.222 
157.312 156.883 156.725 156.09 155.941 155.466 155.555 155.309 155.458 
155.198 157.808 157.064 157.526 157.64 156.304 156.797 156.892 157.273 
157.255 155.271 155.926 156.041 156.513 156.513 156.874 156.923 153.944 
154.695 154.805 155.496 155.548 156.093 156.189 156.658 156.817 152.635 
153.302 153.341 154.094 154.178 154.943 155.067 155.768 155.878 156.459 
156.433 151.402 152.021 152.018 152.67 152.759 153.514 153.65 154.438 
154.495 155.235 155.151 155.769 155.584 150.088 150.756 150.775 151.417 
151.519 152.209 152.351 153.037 153.062 153.734 153.69 154.368 154.353 
154.95 154.983 148.8 149.446 149.502 150.162 150.273 150.988 151.132 
151.806 151.821 152.392 152.359 152.986 153.131 153.819 154.092 154.658 
154.896 147.713 148.267 148.352 148.94 149.04 149.712 149.839 150.544 
150.588 151.191 151.161 151.758 151.895 152.642 152.984 153.746 154.055 
154.639 154.792 157.666 157.201 157.244 156.923 156.884 156.854 156.485 
156.512 156.158 156.435 156.549 156.124 156.091 155.581 155.622 155.112 
155.397 155.828 155.406 155.589 154.947 154.973 154.314 154.413 153.82 
154.069 154.533 154.104 154.547 153.936 154.152 153.418 153.554 152.935 
153.103 152.559 152.992 153.254 152.755 153.142 152.597 152.949 152.275 
152.528 151.869 152.139 151.595 151.847 151.303 152.015 152.225 151.629 
151.896 151.321 151.635 151.032 151.32 150.678 150.972 150.38 150.731 
150.181 150.501 149.932 150.944 151.166 150.525 150.778 150.172 150.448 
149.88 150.15 149.586 149.825 149.259 149.518 148.982 149.293 148.78 
149.098 148.609 149.98 150.112 149.506 149.698 149.148 149.369 148.857 
149.091 148.608 148.833 148.36 148.546 148.063 148.239 147.77 147.999 
147.577 147.868 147.505 158.112 158.712 158.134 157.644 159.373 158.785 
158.249 157.687 157.273 159.908 159.438 158.898 158.297 157.726 157.265 
156.762 160.139 159.865 159.396 158.897 158.238 157.668 156.955 156.51 
155.753 160.066 159.934 159.525 159.261 158.676 158.151 157.357 156.732 
155.875 155.341 154.522 159.844 159.745 159.3 159.213 158.71 158.437 
157.712 157.157 156.277 155.621 154.793 154.228 153.513 159.592 159.488 
158.997 158.909 158.389 158.278 157.634 157.342 156.523 156.013 155.152 
154.589 153.814 153.303 152.571 159.305 159.23 158.751 158.622 158.067 
157.922 157.305 157.129 156.423 156.109 155.307 154.86 154.052 153.57 
152.787 152.299 151.521 158.966 158.924 158.459 158.361 157.802 157.637 
157.02 156.833 156.194 155.96 155.259 154.92 154.169 153.748 153 
152.522 151.778 151.265 150.556 158.612 157.782 158.168 158.056 156.783 
157.221 157.083 157.532 157.375 155.742 156.172 156.005 156.478 156.336 
156.785 156.595 154.673 155.124 154.931 155.381 155.21 155.692 155.515 
155.969 155.755 153.504 154.003 153.761 154.237 153.952 154.473 154.215 
154.774 154.538 155.064 154.802 152.297 152.771 152.435 152.927 152.533 
153.082 152.735 153.346 153.088 153.72 153.489 154.045 153.752 151.078 
151.508 151.063 151.516 151.104 151.629 151.346 151.902 151.719 152.293 
152.156 152.72 152.513 152.988 152.657 149.786 150.213 149.733 150.154 
149.814 150.31 150.199 150.709 150.676 151.13 151.055 151.507 151.349 
151.791 151.489 151.88 151.479 148.526 148.921 148.538 148.924 148.714 
149.183 149.214 149.733 149.809 150.241 150.153 150.513 150.278 150.662 
150.33 150.716 150.305 150.677 150.267 147.799 147.047 147.539 147.884 
146.522 146.942 147.305 147.755 148.2 145.761 146.346 146.736 147.274 
147.768 148.244 148.791 144.727 145.377 145.724 146.497 146.986 147.719 
148.259 148.855 149.354 143.861 144.314 144.509 145.268 145.688 146.632 
147.135 148.028 148.474 149.204 149.571 143.291 143.552 143.576 144.081 
144.358 145.205 145.663 146.648 147.067 147.999 148.35 149.191 149.539 
142.803 143.028 142.994 143.281 143.408 143.98 144.34 145.176 145.587 
146.493 146.86 147.785 148.18 149.091 149.499 142.274 142.534 142.537 
142.772 142.842 143.192 143.442 144.018 144.402 145.135 145.554 146.373 
146.834 147.716 148.195 149.067 149.487 141.735 141.997 142.019 142.299 
142.392 142.7 142.92 143.312 143.667 144.18 144.648 145.289 145.841 
146.568 147.125 147.871 148.353 149.097 149.505 149.321 148.219 148.779 
148.833 147.09 147.703 147.791 148.362 148.485 145.842 146.534 146.671 
147.316 147.429 148.027 148.177 144.621 145.264 145.388 146.104 146.217 
146.897 147.019 147.701 147.899 143.639 144.126 144.206 144.826 144.928 
145.603 145.729 146.466 146.69 147.441 147.678 142.846 143.21 143.225 
143.733 143.811 144.386 144.502 145.17 145.409 146.192 146.486 147.22 
147.419 142.181 142.415 142.286 142.732 142.746 143.316 143.412 144.023 
144.206 144.924 145.206 145.985 146.229 146.93 147.104 141.714 141.783 
141.519 141.788 141.704 142.216 142.299 142.925 143.07 143.741 143.946 
144.693 144.946 145.704 145.943 146.643 146.886 141.45 141.407 141.119 
141.162 141.006 141.278 141.312 141.82 141.961 142.585 142.763 143.454 
143.699 144.444 144.754 145.496 145.828 146.519 146.846 155.419 154.818 
155.505 156.274 153.888 154.699 155.404 156.292 157.156 152.859 153.699 
154.345 155.238 156.04 157.07 157.875 151.8 152.721 153.504 154.286 
155.018 155.879 156.643 157.609 158.187 150.718 151.671 152.599 153.511 
154.32 155.044 155.719 156.457 157.088 157.851 158.318 149.99 150.7 
151.536 152.482 153.344 154.269 154.977 155.701 156.297 156.945 157.515 
158.125 158.601 149.727 150.207 150.918 151.538 152.292 153.153 153.923 
154.822 155.473 156.224 156.767 157.411 157.893 158.474 158.857 149.406 
149.964 150.652 151.126 151.763 152.31 153.002 153.755 154.455 155.275 
155.837 156.58 157.009 157.678 158.025 158.622 158.879 148.754 149.437 
150.074 150.731 151.309 151.867 152.426 153.014 153.619 154.307 154.863 
155.573 156.002 156.695 157.046 157.706 158.004 158.579 158.801 155.823 
156.807 156.443 156.66 157.874 157.543 157.794 157.276 157.445 158.683 
158.595 158.911 158.441 158.538 158.061 158.284 158.904 159.134 159.487 
159.351 159.449 159.106 159.279 158.935 159.201 158.888 159.138 159.499 
159.618 159.83 159.796 160.086 159.911 160.227 159.861 160.091 159.117 
159.21 159.607 159.647 159.993 160.058 160.56 160.621 161.155 160.936 
161.252 160.772 160.972 159.38 159.512 159.955 159.958 160.33 160.327 
160.835 161.003 161.684 161.776 162.289 161.984 162.215 161.682 161.81 
159.391 159.657 160.114 160.281 160.63 160.677 160.99 161.151 161.66 
162.025 162.628 162.801 163.145 162.863 162.917 162.397 162.327 159.272 
159.562 160.012 160.299 160.681 160.846 161.077 161.174 161.425 161.749 
162.222 162.735 163.182 163.419 163.507 163.287 163.094 162.655 162.407 
155.401 156.186 155.548 155.079 157.005 156.361 155.942 155.299 154.928 
157.921 157.257 156.892 156.221 155.846 155.196 154.837 158.831 158.201 
157.835 157.189 156.786 156.115 155.679 155.051 154.631 159.665 159.066 
158.668 158.067 157.627 156.992 156.495 155.854 155.36 154.764 154.296 
160.527 159.902 159.515 158.881 158.427 157.774 157.245 156.601 156.047 
155.446 154.925 154.37 153.886 161.326 160.754 160.341 159.729 159.235 
158.567 157.997 157.329 156.742 156.104 155.539 154.961 154.464 153.943 
153.506 161.799 161.385 160.863 160.392 159.793 159.248 158.608 158.025 
157.427 156.813 156.251 155.615 155.11 154.537 154.132 153.622 153.275 
161.935 161.655 161.083 160.706 160.048 159.607 158.942 158.489 157.918 
157.44 156.927 156.352 155.843 155.237 154.804 154.272 153.936 153.449 
153.139 158.545 159.286 159.002 159.148 159.829 159.644 159.801 159.588 
159.741 160.362 160.137 160.241 160.09 160.247 160.111 160.212 161.008 
160.759 160.871 160.577 160.732 160.553 160.707 160.502 160.472 161.477 
161.403 161.628 161.344 161.519 161.201 161.396 161.082 161.116 160.711 
160.511 161.731 161.775 162.083 162.01 162.185 161.978 162.097 161.834 
161.853 161.449 161.237 160.703 160.358 162.077 162.072 162.423 162.39 
162.546 162.414 162.357 162.247 162.127 161.995 161.743 161.388 160.97 
160.473 160.063 162.422 162.47 162.87 162.827 163.016 162.767 162.581 
162.303 162.002 161.936 161.686 161.625 161.267 160.968 160.513 160.104 
159.709 162.449 162.681 163.078 163.219 163.455 163.294 163.109 162.645 
162.204 161.839 161.533 161.445 161.24 161.123 160.795 160.484 160.084 
159.716 159.355 
POINT_DATA 1002
SCALARS Distance double
LOOKUP_TABLE default
147.182 148.11 147.378 146.639 146.656 146.635 146.196 146.047 146.171 
146.068 145.825 145.704 145.766 145.434 145.112 145.538 145.777 145.353 
144.912 144.454 144.158 145.414 146.074 144.915 144.484 144.07 143.796 
143.56 145.379 146.161 144.565 144.04 143.764 143.553 143.336 143.089 
145.313 145.974 144.445 143.681 143.311 143.153 142.94 142.718 142.552 
145.234 145.754 144.539 143.654 142.925 142.609 142.438 142.223 142.076 
141.993 145.169 145.617 144.658 143.873 142.895 142.223 142.004 141.872 
141.702 141.587 141.496 148.794 147.816 149.271 148.133 149.445 146.801 
148.38 149.818 147.037 146.034 149.015 150.764 147.568 146.428 145.884 
150.266 151.962 148.638 147.333 146.553 146.324 151.72 153.089 150.114 
148.577 147.459 146.963 146.71 152.885 154.093 151.43 149.842 148.432 
147.532 147.109 146.658 153.652 154.841 152.292 150.851 149.478 148.331 
147.573 147.036 146.413 154.151 155.261 152.907 151.662 150.523 149.428 
148.426 147.632 146.929 146.224 154.891 153.789 154.65 153.691 154.587 
152.67 153.726 154.473 152.791 151.663 153.499 154.195 152.749 151.794 
150.632 153.073 153.826 152.27 151.442 150.511 149.462 152.67 153.42 
151.81 150.93 150.026 149.169 148.361 152.325 153.107 151.495 150.699 
149.778 148.793 148.029 147.435 152.123 152.955 151.238 150.477 149.683 
148.639 147.678 147.061 146.604 152.046 152.839 151.14 150.274 149.453 
148.474 147.44 146.702 146.246 145.891 145.228 145.466 144.734 145.81 
144.937 143.989 146.313 145.311 144.194 143.091 147.149 145.915 144.665 
143.364 142.381 148.282 146.937 145.498 144.001 142.789 142.05 149.411 
148.302 146.822 145.104 143.606 142.63 141.997 150.411 149.564 148.307 
146.573 144.847 143.599 142.764 142.093 151.326 150.509 149.449 147.963 
146.276 144.88 143.881 143.061 142.314 152.156 151.301 150.299 149.077 
147.633 146.252 145.172 144.29 143.45 142.661 144.756 144.107 144.141 
143.166 143.302 143.172 142.271 142.324 142.297 142.165 141.724 141.563 
141.511 141.541 141.696 141.487 141.1 140.891 140.993 141.315 141.613 
141.425 140.887 140.48 140.415 140.787 141.237 141.485 141.492 140.854 
140.344 140.025 140.149 140.648 141.078 141.315 141.719 140.955 140.376 
139.907 139.704 139.994 140.538 140.925 141.174 142.482 141.488 142.453 
141.486 142.715 140.695 141.881 143.265 140.692 140.067 142.604 143.911 
141.14 139.991 139.573 143.363 144.562 141.935 140.403 139.511 139.522 
144.065 145.285 142.739 141.214 139.977 139.654 140.015 144.794 146.015 
143.478 142.11 140.857 140.183 140.202 140.547 145.52 146.639 144.263 
143.014 141.891 141.037 140.601 140.588 140.845 146.191 147.181 145.096 
143.976 142.958 142.095 141.369 140.899 140.855 141.139 143.634 143.562 
144.713 144.731 145.775 143.662 145.94 146.987 144.94 144.029 147.379 
148.441 146.309 145.386 144.575 148.906 149.809 147.851 146.834 145.948 
145.173 150.237 151.048 149.311 148.301 147.367 146.55 145.861 151.633 
152.474 150.665 149.64 148.716 147.92 147.218 146.607 153.161 153.915 
152.109 150.931 149.988 149.27 148.551 147.865 147.255 154.334 154.909 
153.385 152.162 151.169 150.568 149.941 149.144 148.42 147.795 153.134 
152.343 153.355 152.555 153.617 151.366 152.893 154.017 151.6 150.266 
153.211 154.524 151.88 150.448 148.986 153.432 154.922 151.926 150.501 
149.04 147.588 153.557 154.986 151.936 150.397 148.964 147.621 146.367 
153.563 154.869 152.03 150.525 149.036 147.654 146.493 145.398 153.662 
154.865 152.171 150.779 149.421 147.951 146.648 145.58 144.51 153.627 
153.96 154.418 154.811 155.363 154.206 155.841 156.456 155.111 154.517 
156.936 157.44 156.222 155.539 155.103 157.836 158.325 157.328 156.672 
156.215 155.795 158.714 159.356 158.215 157.575 157.007 156.678 156.089 
159.825 160.476 159.198 158.354 157.464 156.989 156.641 155.927 160.949 
161.45 160.394 159.458 158.22 157.354 156.916 156.41 155.705 161.742 