# vtk DataFile Version 4.0
vtk output
ASCII
DATASET POLYDATA
POINTS 1002 float
-79.4798 -96.488 53.1051 -79.5141 -96.4209 52.9494 -79.3415 -96.3958 53.0069 
-79.3484 -96.3565 53.2783 -79.192 -96.4086 53.1321 -79.3799 -96.5837 53.2116 
-79.3047 -96.309 53.4589 -78.9993 -96.4733 53.265 -79.3042 -96.3346 53.5204 
-79.3447 -96.6465 53.3751 -79.2171 -96.5014 53.4361 -78.7682 -96.6415 53.2702 
-79.3326 -96.2886 53.6657 -79.3109 -96.414 53.704 -79.4522 -96.7531 53.5583 
-78.9893 -96.8662 53.2424 -78.6262 -96.9285 53.1604 -79.234 -96.6296 53.4636 
-79.3026 -96.5112 53.7173 -79.4279 -96.7486 53.7443 -79.595 -97.02 53.6611 
-78.7276 -97.1613 53.1952 -78.5405 -97.2515 53.1051 -78.9259 -97.0553 53.2954 
-79.0852 -96.9097 53.5318 -79.3197 -96.9396 53.7636 -79.556 -97.1198 53.818 
-79.6747 -97.26 53.8404 -78.5172 -97.3654 53.3315 -78.3827 -97.5382 53.1492 
-78.6575 -97.2831 53.4415 -78.7949 -97.2268 53.5839 -79.0384 -97.1626 53.8463 
-79.3546 -97.1249 54.0829 -79.5807 -97.1721 54.1748 -79.703 -97.2981 54.2052 
-78.3695 -97.6102 53.4285 -78.2365 -97.7833 53.2161 -78.5289 -97.4868 53.6018 
-78.6843 -97.4174 53.7689 -78.8755 -97.3422 54.0077 -79.0944 -97.1921 54.3039 
-79.3173 -97.0552 54.5268 -79.5278 -97.1146 54.5806 -79.7044 -97.2997 54.5309 
-78.3087 -97.8991 53.441 -78.1954 -98.0143 53.2651 -78.4408 -97.7864 53.6119 
-78.5938 -97.6633 53.8211 -78.8167 -97.544 54.0748 -79.0145 -97.4253 54.3198 
-79.1235 -97.2617 54.5519 -79.2846 -97.1605 54.7264 -79.5083 -97.249 54.7451 
-79.7066 -97.4091 54.6659 -78.2949 -98.1913 53.4249 -78.1913 -98.2668 53.2814 
-78.3681 -98.0899 53.5919 -78.4171 -97.9349 53.825 -78.594 -97.7518 54.1105 
-78.896 -97.6477 54.3149 -79.0782 -97.614 54.4206 -79.1645 -97.5346 54.5756 
-79.3412 -97.4574 54.7419 -79.5569 -97.4855 54.7724 -79.7294 -97.5675 54.7109 
-79.3465 -96.4133 52.6877 -79.1256 -96.5082 52.71 -79.1393 -96.4767 52.3625 
-78.8384 -96.6355 52.4004 -78.9183 -96.4655 52.15 -78.8408 -96.5509 52.8661 
-78.6015 -96.6041 52.2142 -78.6307 -96.3803 52.0217 -78.4897 -96.591 52.6583 
-78.5143 -96.5043 53.1101 -78.3994 -96.5908 52.0492 -78.3484 -96.5377 51.8072 
-78.363 -96.6242 52.4869 -78.2604 -96.5235 52.9788 -78.3698 -96.6251 53.195 
-78.224 -96.9289 51.8536 -78.2682 -97.0835 51.5925 -78.2712 -96.9171 52.2351 
-78.2963 -96.8563 52.7048 -78.3357 -96.8434 53.0182 -78.4589 -97.0413 53.0591 
-78.1692 -97.4803 51.7766 -78.2854 -97.6709 51.509 -78.1043 -97.3695 52.0392 
-78.1745 -97.3335 52.356 -78.3318 -97.3017 52.6968 -78.4528 -97.3705 52.8538 
-78.4469 -97.4948 52.9343 -78.0993 -97.8993 51.7235 -78.1388 -98.0352 51.4223 
-77.9913 -97.7254 51.9501 -77.9205 -97.5977 52.1576 -78.0027 -97.5357 52.456 
-78.2033 -97.5909 52.6782 -78.3092 -97.7354 52.7601 -78.2617 -97.7965 52.9359 
-77.8616 -98.1793 51.5255 -77.8896 -98.2857 51.2652 -77.7908 -98.0191 51.7327 
-77.7054 -97.8195 51.963 -77.6478 -97.6453 52.3133 -77.7365 -97.6222 52.6076 
-77.9591 -97.7979 52.6833 -78.1023 -97.9663 52.7664 -78.136 -97.9984 53.0114 
-77.6111 -98.4597 51.3108 -77.7431 -98.5724 51.1573 -77.4542 -98.3333 51.4092 
-77.3872 -98.1627 51.6092 -77.3867 -97.9572 52.0366 -77.4045 -97.8227 52.4734 
-77.5522 -97.8917 52.6351 -77.8133 -98.0684 52.6716 -78.0051 -98.1615 52.8464 
-78.1035 -98.1929 53.0999 -77.5985 -98.8443 51.2166 -77.2801 -98.7027 51.2101 
-77.3901 -99.1366 51.2178 -76.9944 -98.9104 51.1192 -77.1675 -99.39 51.1081 
-77.0424 -98.5427 51.2345 -76.9255 -99.0892 51.0832 -76.9992 -99.6993 50.9553 
-76.8647 -98.6791 51.2258 -77.0786 -98.3623 51.577 -76.9598 -99.5159 51.1106 
-76.8964 -100.178 50.9246 -76.9942 -98.8851 51.3627 -77.0618 -98.5236 51.7064 
-77.2133 -98.2033 52.1418 -76.9064 -100.166 51.2537 -76.9059 -100.628 51.0466 
-77.044 -99.4728 51.5576 -77.1538 -98.8407 51.8964 -77.1978 -98.4811 52.2266 
-77.2989 -98.1707 52.4947 -76.8965 -100.559 51.4876 -76.9973 -100.878 51.2223 
-76.9383 -100.107 51.7964 -77.0631 -99.4397 52.0988 -77.1219 -98.854 52.3465 
-77.2245 -98.5111 52.5134 -77.489 -98.2593 52.6092 -76.9935 -100.699 51.7131 
-77.05 -101.077 51.4467 -76.9955 -100.345 51.9891 -77.0731 -99.9066 52.208 
-77.1148 -99.3309 52.4162 -77.1819 -98.8262 52.623 -77.4366 -98.5246 52.7395 
-77.7735 -98.3261 52.7866 -77.0757 -100.938 51.9352 -77.083 -101.295 51.7495 
-77.1499 -100.519 52.134 -77.294 -100.129 52.2459 -77.3956 -99.7184 52.3484 
-77.4253 -99.2221 52.5981 -77.5288 -98.8043 52.8664 -77.7594 -98.5563 52.9863 
-77.9813 -98.3735 53.0325 -77.1275 -101.234 52.1946 -77.1649 -101.415 52.0774 
-77.2025 -100.89 52.3493 -77.3857 -100.452 52.4483 -77.5849 -100.038 52.479 
-77.7156 -99.6189 52.6189 -77.7779 -99.2022 52.8886 -77.8432 -98.9049 53.0764 
-77.9623 -98.6973 53.1419 -78.0963 -98.4842 53.1988 -78.2228 -98.5339 53.3416 
-78.0886 -98.8189 53.2452 -78.2186 -98.7832 53.4408 -77.9579 -99.0641 53.2194 
-78.0471 -99.0936 53.3781 -78.2406 -98.8879 53.6798 -77.879 -99.2631 53.2394 
-77.845 -99.3071 53.472 -78.0314 -99.1541 53.6924 -78.342 -98.9453 53.9942 
-77.77 -99.5512 53.1809 -77.6179 -99.4747 53.6648 -77.7117 -99.3434 53.8362 
-78.121 -99.1779 54.0264 -78.3918 -99.0978 54.3553 -77.5869 -99.9837 53.0691 
-77.3539 -99.8126 53.7756 -77.3695 -99.5954 54.0096 -77.8139 -99.4423 54.0497 
-78.1867 -99.3527 54.4056 -78.2243 -99.2614 54.861 -77.4037 -100.488 52.9797 
-77.1884 -100.371 53.7256 -77.153 -100.084 54.0893 -77.564 -99.8348 54.0835 
-77.9563 -99.7116 54.4118 -78.0046 -99.6169 54.9802 -77.9714 -99.4567 55.324 
-77.2537 -100.976 52.829 -77.1551 -100.946 53.5037 -77.1232 -100.704 53.9888 
-77.4309 -100.383 54.111 -77.7681 -100.163 54.4487 -77.7782 -100.065 55.0817 
-77.7413 -99.9729 55.4433 -77.907 -99.8027 55.4826 -77.1749 -101.299 52.6159 
-77.1619 -101.293 53.1758 -77.1593 -101.145 53.7157 -77.3498 -100.901 54.0234 
-77.6162 -100.671 54.4102 -77.6309 -100.539 55.075 -77.5489 -100.478 55.5305 
-77.7197 -100.371 55.5602 -78.0579 -100.174 55.4715 -77.2113 -101.398 52.4518 
-77.2204 -101.367 52.8937 -77.2307 -101.283 53.4053 -77.3396 -101.163 53.8363 
-77.5265 -101.057 54.2478 -77.5892 -100.98 54.8464 -77.5183 -100.919 55.3932 
-77.5974 -100.824 55.5801 -77.9109 -100.661 55.548 -78.2502 -100.45 55.5182 
-78.3124 -98.4171 53.5273 -78.294 -98.5504 53.7369 -78.296 -98.2242 53.8015 
-78.3657 -98.6497 54.0048 -78.2525 -98.2942 54.1022 -78.3016 -97.9843 54.1446 
-78.4804 -98.8743 54.2642 -78.3959 -98.5281 54.3006 -78.3426 -98.0992 54.4304 
-78.5819 -97.8136 54.4099 -78.3923 -99.0555 54.6942 -78.5101 -98.8441 54.5268 
-78.5678 -98.436 54.5535 -78.7098 -98.0292 54.5896 -78.9513 -97.8296 54.4618 
-78.1514 -99.0817 55.2396 -78.3793 -98.8603 55.0508 -78.6428 -98.6447 54.8466 
-78.8396 -98.3309 54.7455 -79.0017 -98.0995 54.6109 -79.1212 -97.8942 54.4932 
-78.0644 -99.2677 55.5053 -78.2359 -98.8134 55.5372 -78.5281 -98.5628 55.3798 
-78.8046 -98.423 55.1045 -78.9656 -98.2874 54.8947 -79.1254 -98.115 54.7412 
-79.2601 -97.8196 54.6842 -78.1986 -99.6619 55.4853 -78.2834 -99.0964 55.6372 
-78.4812 -98.6433 55.7101 -78.7659 -98.4154 55.5095 -78.9353 -98.3183 55.2392 
-79.0909 -98.1802 55.089 -79.3224 -97.9557 54.965 -79.4821 -97.6992 54.8448 
-78.392 -100.019 55.4738 -78.4485 -99.5135 55.5481 -78.5705 -99.0092 55.7065 
-78.8419 -98.6072 55.7128 -79.0548 -98.3533 55.5174 -79.165 -98.1607 55.3519 
-79.3614 -97.9576 55.2403 -79.5761 -97.7899 55.0478 -79.6755 -97.673 54.8365 
-78.4905 -100.503 55.5853 -78.6135 -100.008 55.507 -78.6955 -100.688 55.5737 
-78.898 -100.05 55.473 -78.9517 -100.907 55.47 -78.7228 -99.4952 55.5573 
-79.2516 -100.125 55.4738 -79.1761 -100.886 55.4694 -79.1394 -99.4981 55.57 
-78.9688 -99.0173 55.7049 -79.4658 -100.172 55.5628 -79.3148 -100.679 55.5134 
-79.5071 -99.5749 55.6392 -79.427 -99.012 55.7469 -79.2595 -98.571 55.7073 
-79.5959 -100.197 55.4987 -79.5428 -100.622 55.3743 -79.6611 -99.6915 55.5854 
-79.7198 -99.052 55.7333 -79.649 -98.462 55.7421 -79.4058 -98.1843 55.5621 
-79.7815 -100.153 55.2421 -79.7921 -100.644 55.1101 -79.7956 -99.6831 55.3391 
-79.9216 -99.1081 55.5451 -79.9884 -98.4256 55.6987 -79.8183 -97.9911 55.6044 
-79.5399 -97.906 55.4196 -79.8195 -99.9871 54.9318 -79.8408 -100.513 54.8056 
-79.8654 -99.5292 55.0655 -80.0944 -99.1102 55.3355 -80.3131 -98.549 55.6031 
-80.2478 -98.038 55.5908 -79.9656 -97.8147 55.3825 -79.717 -97.7821 55.2015 
-79.7466 -99.8579 54.5941 -79.8302 -100.351 54.4925 -79.7747 -99.4397 54.7371 
-80.0602 -99.1439 55.0672 -80.4107 -98.771 55.4344 -80.4929 -98.3239 55.5104 
-80.2838 -98.0138 55.2961 -80.0047 -97.8551 55.0573 -79.8074 -97.7588 54.9144 
-79.8782 -99.919 54.3474 -80.0003 -100.345 54.2948 -79.8222 -99.5417 54.4017 
-80.0072 -99.2785 54.662 -80.317 -98.9904 55.0483 -80.4584 -98.6148 55.2271 
-80.3842 -98.2846 55.1263 -80.2133 -98.0395 54.9503 -80.0218 -97.8416 54.814 
-79.8582 -97.695 54.7321 -78.2164 -100.846 55.6117 -78.4399 -101.107 55.6857 
-78.1959 -101.231 55.5976 -78.4346 -101.7 55.6156 -78.3126 -101.454 55.4105 
-78.6385 -101.586 55.6105 -78.6516 -101.854 55.3425 -78.5976 -101.464 55.1009 
-78.6563 -102.252 55.4913 -78.8456 -101.821 55.4668 -78.9713 -101.622 54.9497 
-78.873 -101.505 54.7086 -78.8568 -102.161 55.2024 -78.8012 -102.196 55.3386 
-78.9848 -101.441 55.4119 -79.0574 -101.6 54.4982 -78.9776 -101.682 54.3008 
-78.9809 -101.874 54.7513 -78.8811 -102.008 54.9877 -78.8947 -101.562 55.1329 
-79.1629 -101.001 55.2884 -78.9344 -101.858 54.1061 -78.9667 -101.88 53.9502 
-78.8646 -102.061 54.2505 -78.9116 -102.128 54.4527 -78.9698 -101.704 54.6469 
-79.1145 -101.23 54.8492 -79.487 -101.003 55.0564 -78.8357 -102.149 53.8129 
-78.9142 -102.164 53.6003 -78.7685 -102.337 53.9365 -78.9073 -102.513 54.0249 
-79.1001 -102.189 54.1802 -79.1875 -101.584 54.4128 -79.4072 -101.282 54.6569 
-79.7302 -101.047 54.8141 -78.7559 -102.523 53.486 -78.823 -102.541 53.217 
-78.7734 -102.496 53.7494 -78.9694 -102.566 53.8635 -79.2038 -102.465 53.9053 
-79.2914 -101.951 54.069 -79.3732 -101.446 54.2915 -79.6038 -101.201 54.439 
-79.8028 -100.869 54.5067 -78.6558 -102.912 53.0921 -78.7411 -102.797 52.8929 
-78.7428 -102.777 53.4354 -79.0111 -102.561 53.7005 -79.2391 -102.419 53.7293 
[...]
CELL_DATA 2000
SCALARS Distance double
LOOKUP_TABLE default
132.439 132.307 132.517 132.838 132.274 132.442 132.732 132.917 133.261 
132.282 132.462 132.782 132.884 133.204 133.396 133.824 132.341 132.514 
132.899 132.987 133.309 133.424 133.873 134.081 134.597 132.495 132.612 
132.996 133.11 133.45 133.561 134.003 134.2 134.752 134.941 135.447 
132.703 132.768 133.104 133.215 133.578 133.699 134.127 134.32 134.833 
135.068 135.554 135.745 136.159 132.94 132.969 133.297 133.367 133.767 
133.867 134.319 134.458 134.924 135.106 135.534 135.748 136.134 136.354 
136.715 133.238 133.241 133.592 133.62 134.023 134.1 134.559 134.678 
135.137 135.244 135.64 135.748 136.119 136.292 136.681 136.883 137.248 
133.581 133.583 133.943 133.95 134.309 134.355 134.741 134.868 135.298 
135.447 135.853 135.938 136.306 136.379 136.777 136.906 137.315 137.455 
137.81 132.112 131.552 131.882 131.999 130.96 131.32 131.43 131.779 
131.919 130.317 130.709 130.788 131.148 131.221 131.642 131.817 129.764 
130.092 130.238 130.541 130.617 130.936 131.103 131.562 131.853 129.623 
129.719 129.954 130.145 130.372 130.541 130.793 131.034 131.402 131.761 
132.132 129.89 129.806 129.978 130.03 130.292 130.443 130.768 130.948 
131.326 131.538 131.917 132.151 132.448 130.101 130.074 130.118 130.106 
130.193 130.327 130.528 130.817 131.107 131.436 131.729 131.998 132.241 
132.458 132.684 130.038 130.108 130.089 130.126 130.081 130.159 130.189 
130.424 130.592 130.986 131.24 131.654 131.897 132.215 132.435 132.687 
132.94 129.965 129.972 129.913 129.96 129.889 129.972 129.967 130.106 
130.222 130.474 130.725 131.097 131.418 131.803 132.101 132.415 132.692 
132.965 133.262 130.023 130.047 129.936 129.819 130.094 129.9 129.683 
129.713 129.736 130.348 130.014 129.782 129.645 129.679 129.74 129.888 
130.968 130.494 130.336 129.958 130 129.858 130.062 130.031 130.226 
131.805 131.327 131.273 130.756 130.765 130.387 130.547 130.364 130.588 
130.482 130.729 132.582 132.201 132.217 131.768 131.76 131.274 131.305 
130.956 131.121 130.937 131.193 131.091 131.407 133.298 132.945 132.985 
132.639 132.675 132.245 132.23 131.775 131.834 131.53 131.755 131.602 
131.909 131.815 132.124 134.084 133.698 133.755 133.396 133.482 133.108 
133.16 132.711 132.752 132.33 132.496 132.225 132.514 132.35 132.647 
132.514 132.769 134.87 134.518 134.6 134.223 134.325 133.944 134.039 
133.628 133.705 133.277 133.408 133.048 133.282 133.019 133.295 133.086 
133.337 133.152 133.372 133.772 133.775 133.991 134.421 133.785 134.015 
134.476 134.666 135.09 133.818 134.046 134.518 134.718 135.148 135.33 
135.759 133.933 134.109 134.563 134.744 135.143 135.347 135.782 136.012 
136.479 134.189 134.287 134.723 134.822 135.205 135.345 135.784 136.017 
136.536 136.768 137.222 134.531 134.606 135.077 135.096 135.52 135.529 
135.995 136.109 136.677 136.87 137.405 137.525 137.91 134.841 134.953 
135.471 135.521 135.993 135.973 136.45 136.462 137.023 137.124 137.697 
137.786 138.245 138.249 138.609 135.083 135.223 135.716 135.853 136.314 
136.404 136.854 136.92 137.425 137.517 138.063 138.143 138.626 138.639 
139.037 139.003 139.366 135.282 135.412 135.834 135.998 136.411 136.59 
137.014 137.188 137.658 137.83 138.347 138.488 138.972 139.029 139.427 
139.421 139.774 139.753 140.089 133.903 134.539 134.239 134.278 135.183 
134.876 134.884 134.586 134.61 135.874 135.537 135.525 135.179 135.169 
134.898 134.983 136.644 136.291 136.325 135.896 135.881 135.5 135.586 
135.34 135.527 137.353 137.063 137.156 136.772 136.814 136.352 136.437 
136.052 136.244 135.965 136.141 137.945 137.691 137.77 137.525 137.625 
137.299 137.398 136.998 137.137 136.768 136.922 136.574 136.654 138.604 
138.279 138.323 138.068 138.172 137.974 138.101 137.852 137.947 137.633 
137.725 137.384 137.46 137.079 137.128 139.376 139.008 139.053 138.694 
138.773 138.507 138.64 138.432 138.54 138.304 138.374 138.109 138.184 
137.876 137.939 137.573 137.631 140.117 139.792 139.841 139.472 139.523 
139.184 139.297 139.019 139.151 138.879 138.971 138.702 138.79 138.537 
138.626 138.337 138.392 138.053 138.093 140.545 141.139 140.639 140.262 
141.808 141.227 140.785 140.319 139.95 142.48 141.905 141.425 140.886 
140.53 140.06 139.746 142.97 142.547 142.124 141.577 141.214 140.706 
140.395 139.905 139.587 143.234 142.979 142.642 142.209 141.807 141.359 
141 140.543 140.172 139.707 139.362 143.299 143.167 142.835 142.566 
142.136 141.81 141.416 141.054 140.674 140.249 139.872 139.451 139.148 
143.095 143.065 142.676 142.579 142.202 142.028 141.713 141.427 141.11 
140.719 140.369 139.948 139.621 139.243 138.974 142.795 142.736 142.332 
142.303 142.034 142.03 141.877 141.734 141.506 141.167 140.823 140.416 
140.056 139.682 139.36 139.031 138.738 142.757 142.553 142.223 142.062 
141.876 141.877 141.837 141.842 141.68 141.487 141.117 140.792 140.376 
140.046 139.677 139.365 139.034 138.737 138.43 140.781 141.342 141.219 
141.482 141.815 141.834 142.276 142.047 142.285 141.988 142.216 142.786 
142.827 143.169 142.856 142.954 141.857 142.187 142.694 143.065 143.425 
143.488 143.51 143.289 143.238 141.668 141.93 142.29 142.725 143.053 
143.382 143.383 143.447 143.311 143.322 143.31 141.555 141.73 142.044 
142.342 142.729 143.005 143.141 143.19 143.1 143.157 143.199 143.342 
143.398 141.518 141.653 141.984 142.2 142.662 142.893 143.214 143.187 
143.182 143.047 143.066 143.161 143.31 143.404 143.336 141.537 141.663 
141.975 142.162 142.563 142.847 143.192 143.329 143.352 143.233 143.101 
143.07 143.109 143.253 143.294 143.282 143.101 141.514 141.677 141.951 
142.123 142.405 142.658 142.894 143.144 143.158 143.229 143.028 143.02 
142.889 143.01 143.034 143.174 143.16 143.099 142.998 135.525 136.031 
135.853 136.032 136.629 136.392 136.563 136.381 136.595 137.338 137.068 
137.273 137.005 137.232 137.005 137.245 138.036 137.796 138.034 137.781 
138.027 137.747 137.994 137.719 137.959 138.681 138.458 138.664 138.478 
138.72 138.522 138.773 138.526 138.778 138.486 138.702 139.34 139.1 
139.287 139.074 139.309 139.141 139.417 139.247 139.525 139.304 139.532 
139.222 139.351 140.015 139.778 140.002 139.752 140.021 139.792 140.097 
139.891 140.187 139.992 140.228 139.989 140.11 139.781 139.801 140.655 
140.452 140.676 140.464 140.72 140.528 140.81 140.608 140.863 140.648 
140.861 140.635 140.773 140.487 140.526 140.168 140.148 141.197 141.046 
141.223 141.057 141.226 141.102 141.296 141.196 141.392 141.261 141.464 
141.278 141.473 141.194 141.308 140.926 140.942 140.521 140.483 135.292 
135.129 135.421 135.831 134.987 135.278 135.742 136.002 136.438 134.956 
135.18 135.671 135.941 136.424 136.66 137.121 135.085 135.221 135.682 
135.908 136.408 136.654 137.131 137.361 137.817 135.259 135.378 135.788 
135.956 136.422 136.649 137.134 137.369 137.843 138.06 138.502 135.382 
135.516 135.905 136.057 136.485 136.682 137.148 137.373 137.844 138.078 
138.537 138.744 139.163 135.529 135.633 136.018 136.155 136.579 136.756 
137.21 137.405 137.848 138.062 138.498 138.739 139.177 139.395 139.809 
135.729 135.806 136.183 136.292 136.715 136.864 137.313 137.482 137.909 
138.08 138.49 138.694 139.13 139.372 139.822 140.041 140.45 135.903 
135.994 136.362 136.475 136.887 137.018 137.438 137.583 137.99 138.147 
138.555 138.727 139.156 139.355 139.803 140.028 140.454 140.658 141.013 
136.084 136.55 136.394 136.581 137.115 136.919 137.135 136.953 137.146 
137.75 137.524 137.724 137.532 137.725 137.522 137.683 138.426 138.188 
138.368 138.13 138.295 138.083 138.24 138.044 138.206 139.111 138.899 
139.116 138.822 138.979 138.689 138.87 138.633 138.849 138.618 138.811 
139.736 139.585 139.845 139.588 139.745 139.43 139.603 139.333 139.583 
139.336 139.573 139.278 139.453 140.283 140.173 140.419 140.243 140.384 
140.143 140.275 140.05 140.253 140.057 140.272 140.036 140.202 139.913 
140.065 140.772 140.679 140.894 140.745 140.867 140.682 140.811 140.644 
140.844 140.679 140.882 140.672 140.829 140.596 140.746 140.504 140.669 
141.18 141.127 141.339 141.198 141.306 141.124 141.253 141.124 141.386 
141.272 141.559 141.334 141.526 141.231 141.382 141.132 141.295 141.075 
141.215 141.462 141.966 141.708 141.637 142.48 142.201 142.079 141.772 
141.582 142.933 142.683 142.505 142.18 141.966 141.675 141.529 143.122 
143.025 142.838 142.568 142.366 142.089 142.042 141.774 141.759 142.987 
143.043 142.93 142.822 142.667 142.481 142.511 142.349 142.453 142.132 
142.045 142.863 142.86 142.809 142.823 142.735 142.687 142.692 142.702 
142.828 142.742 142.677 142.302 142.008 143.008 142.853 142.759 142.719 
142.657 142.66 142.619 142.7 142.752 142.871 142.847 142.74 142.475 
142.118 141.788 143.187 143.053 142.914 142.774 142.69 142.613 142.595 
142.598 142.653 142.727 142.768 142.769 142.643 142.455 142.198 141.887 
141.646 143.121 143.16 143.098 142.984 142.906 142.751 142.758 142.678 
142.818 142.79 142.929 142.835 142.814 142.621 142.449 142.214 141.998 
141.741 141.53 141.341 141.217 141.481 141.86 141.049 141.338 141.769 
142.026 142.411 140.881 141.18 141.619 141.918 142.363 142.599 142.918 
140.617 140.971 141.405 141.754 142.208 142.517 142.868 143.034 143.145 
140.255 140.638 141.063 141.476 141.944 142.327 142.701 142.934 143.062 
143.108 143.029 139.918 140.277 140.696 141.1 141.562 141.993 142.399 
142.724 142.935 143.042 143.063 143.004 142.966 139.568 139.944 140.354 
140.748 141.169 141.58 141.941 142.328 142.59 142.873 143.053 143.138 
143.244 143.131 143.183 139.165 139.55 139.928 140.356 140.745 141.165 
141.467 141.832 142.041 142.412 142.647 143.006 143.227 143.381 143.45 
143.365 143.322 138.828 139.147 139.479 139.874 140.232 140.673 140.987 
141.36 141.553 141.869 142.05 142.458 142.693 143.104 143.192 143.385 
143.246 143.269 143.093 140.982 140.358 140.731 140.825 139.675 140.069 
140.151 140.534 140.636 138.914 139.366 139.457 139.847 139.942 140.348 
140.462 138.006 138.554 138.706 139.156 139.255 139.65 139.746 140.152 
140.216 137.048 137.591 137.782 138.35 138.492 138.948 139.005 139.407 
139.442 139.845 139.863 136.269 136.673 136.793 137.359 137.512 138.077 
138.122 138.594 138.576 139.022 139.033 139.472 139.505 135.646 135.967 
135.992 136.415 136.495 137.027 137.083 137.613 137.61 138.101 138.114 
138.601 138.651 139.116 139.153 134.968 135.324 135.321 135.668 135.668 
136.072 136.11 136.589 136.659 137.15 137.228 137.7 137.782 138.245 
138.309 138.752 138.782 134.222 134.599 134.601 134.967 134.937 135.291 
135.287 135.702 135.798 136.276 136.426 136.887 137.009 137.432 137.519 
137.933 138.004 138.41 138.474 133.803 133.236 133.742 134.163 132.64 
133.149 133.59 134.097 134.506 132.24 132.622 133.081 133.54 133.995 
134.453 134.881 132.158 132.378 132.827 133.148 133.633 134.022 134.533 
134.933 135.435 132.228 132.391 132.802 133.019 133.48 133.773 134.296 
134.667 135.23 135.598 136.11 132.282 132.463 132.861 133.038 133.455 
133.681 134.16 134.482 135.032 135.409 135.942 136.275 136.713 132.331 
132.521 132.936 133.095 133.478 133.662 134.109 134.382 134.92 135.249 
135.787 136.103 136.561 136.838 137.221 132.41 132.592 133.008 133.162 
133.505 133.663 134.067 134.329 134.87 135.188 135.74 136.011 136.481 
136.714 137.119 137.348 137.717 132.5 132.666 133.057 133.216 133.537 
133.672 134.019 134.256 134.757 135.108 135.656 135.97 136.431 136.671 
137.077 137.291 137.677 137.874 138.224 132.675 133.072 132.988 133.204 
133.507 133.398 133.617 133.507 133.681 134.069 133.887 134.129 133.968 
134.169 133.992 134.194 134.784 134.513 134.753 134.551 134.805 134.584 
134.841 134.628 134.954 135.59 135.271 135.478 135.231 135.519 135.295 
135.58 135.347 135.661 135.48 135.831 136.34 136.068 136.27 135.998 
136.284 136.052 136.346 136.099 136.361 136.157 136.455 136.31 136.596 
136.941 136.762 136.984 136.764 137.017 136.81 137.085 136.854 137.099 
136.854 137.129 136.934 137.241 137.047 137.289 137.457 137.318 137.553 
137.398 137.627 137.467 137.701 137.527 137.76 137.563 137.834 137.644 
137.963 137.753 138.022 137.751 137.926 137.977 137.83 138.067 137.928 
138.173 138.027 138.262 138.096 138.314 138.152 138.398 138.277 138.567 
138.443 138.692 138.48 138.629 138.345 138.447 138.807 138.979 139.055 
139.408 139.055 139.194 139.526 139.664 140.093 138.951 139.19 139.546 
139.744 140.165 140.376 140.828 138.786 139.048 139.451 139.71 140.162 
140.419 140.87 141.068 141.418 138.713 138.939 139.357 139.608 140.055 
140.349 140.8 141.063 141.424 141.581 141.897 138.676 138.91 139.318 
139.54 139.911 140.175 140.558 140.889 141.262 141.534 141.868 142.075 
142.463 138.571 138.84 139.237 139.482 139.81 140.016 140.332 140.609 
140.986 141.308 141.648 141.937 142.244 142.564 142.882 138.44 138.7 
139.089 139.358 139.72 139.926 140.277 140.476 140.892 141.125 141.486 
141.688 141.889 142.156 142.329 142.735 142.906 138.349 138.576 138.955 
139.209 139.6 139.843 140.25 140.477 140.929 141.144 141.526 141.634 
141.783 141.836 141.887 142.114 142.262 142.649 142.813 129.981 129.99 
129.939 129.918 130.036 129.994 129.931 129.906 129.996 129.812 129.931 
129.912 129.955 130.02 130.086 130.326 129.501 129.607 129.652 129.838 
129.962 130.101 130.289 130.448 130.742 129.643 129.477 129.553 129.622 
129.843 129.996 130.199 130.353 130.588 130.818 131.16 130.237 129.892 
129.978 129.805 130.08 130.048 130.297 130.295 130.486 130.624 130.948 
131.254 131.693 130.895 130.565 130.634 130.393 130.643 130.502 130.767 
130.594 130.74 130.634 130.874 131.05 131.497 131.834 132.298 131.51 
131.212 131.284 131.036 131.235 131.083 131.331 131.155 131.296 131.054 
131.196 131.123 131.485 131.684 132.177 132.454 132.88 132.128 131.856 
131.971 131.697 131.875 131.661 131.878 131.701 131.87 131.641 131.767 
131.564 131.818 131.812 132.251 132.418 132.893 133.077 133.481 130.103 
130.033 130.176 130.466 130.138 130.163 130.453 130.612 130.956 130.524 
130.427 130.736 130.737 131.097 131.157 131.497 130.981 130.886 131.212 
131.159 131.548 131.485 131.839 131.792 132.163 131.437 131.334 131.632 
131.605 132 131.994 132.373 132.281 132.616 132.545 132.917 132.01 
131.847 132.115 132.003 132.35 132.373 132.786 132.792 133.129 133.046 
133.352 133.295 133.634 132.609 132.461 132.728 132.546 132.829 132.745 
133.134 133.152 133.542 133.514 133.824 133.745 134.056 134.001 134.334 
133.14 133.025 133.308 133.159 133.43 133.282 133.608 133.544 133.932 
133.913 134.276 134.216 134.534 134.452 134.767 134.704 135.01 133.697 
133.554 133.86 133.728 134.044 133.894 134.204 134.065 134.406 134.337 
134.725 134.683 135.045 134.956 135.255 135.148 135.411 135.337 135.582 
130.17 130.621 130.397 130.361 131.118 130.929 130.972 130.627 130.507 
131.595 131.417 131.514 131.258 131.196 130.79 130.711 132.214 131.942 
132.054 131.805 131.821 131.469 131.413 131.061 131.172 132.948 132.627 
132.728 132.428 132.494 132.136 132.139 131.767 131.857 131.614 131.887 
133.642 133.334 133.398 133.114 133.189 132.87 132.924 132.551 132.644 
132.321 132.532 132.341 132.64 134.33 134.006 134.044 133.744 133.815 
133.544 133.645 133.344 133.449 133.122 133.273 133.005 133.24 133.065 
133.36 135.01 134.7 134.741 134.41 134.48 134.184 134.314 134.045 
134.175 133.88 133.993 133.714 133.888 133.682 133.949 133.802 134.126 
135.588 135.342 135.392 135.101 135.162 134.872 134.989 134.726 134.862 
134.58 134.684 134.392 134.527 134.303 134.538 134.389 134.689 134.572 
134.883 140.902 140.503 140.581 140.288 139.983 140.111 139.817 139.916 
139.591 139.398 139.534 139.201 139.356 139.021 139.157 138.788 138.806 
138.942 138.597 138.719 138.367 138.513 138.134 138.272 137.851 138.211 
138.38 138.11 138.192 137.863 137.915 137.559 137.631 137.252 137.333 
136.945 137.573 137.796 137.612 137.758 137.479 137.503 137.149 137.153 
136.822 136.848 136.535 136.551 136.249 136.916 137.148 136.98 137.22 
136.978 137.092 136.704 136.739 136.36 136.439 136.136 136.205 135.899 
135.927 135.626 136.338 136.509 136.312 136.551 136.322 136.508 136.125 
136.207 135.762 135.88 135.525 135.702 135.371 135.499 135.133 135.233 
134.897 135.885 135.983 135.755 135.913 135.677 135.846 135.513 135.606 
135.18 135.254 134.868 135.022 134.699 134.872 134.527 134.661 134.309 
134.446 134.14 
POINT_DATA 1002
SCALARS Distance double
LOOKUP_TABLE default
132.763 132.362 132.193 132.597 132.133 133.153 132.598 132.092 133.003 
133.628 132.699 132.057 133.051 133.558 134.287 132.789 132.178 133.212 
133.663 134.398 135.107 132.87 132.436 133.331 133.808 134.54 135.319 
135.917 133 132.674 133.445 133.961 134.615 135.346 135.999 136.562 
133.235 132.914 133.658 134.198 134.8 135.359 135.901 136.504 137.081 
133.576 133.225 133.968 134.445 135.036 135.576 135.987 136.472 137.067 
137.597 133.948 133.571 134.306 134.653 135.126 135.732 136.252 136.68 
137.179 137.701 138.133 131.784 131.672 131.203 131.086 130.592 131.534 
130.452 129.908 130.829 131.304 129.918 129.467 130.346 130.68 131.325 
129.773 129.63 130.173 130.601 131.099 131.781 130.017 130.024 130.146 
130.559 131.146 131.735 132.236 130.182 130.1 130.157 130.277 130.749 
131.429 132.024 132.466 130.044 129.974 130.041 130.046 130.248 130.781 
131.511 132.158 132.684 129.899 130.023 129.797 129.831 130.028 130.393 
131.001 131.742 132.406 132.989 130.147 129.762 130.233 129.705 130.344 
129.582 129.993 130.707 129.648 129.809 130.783 131.414 130.233 130.121 
130.26 131.786 132.217 131.255 130.81 130.713 130.794 132.601 132.928 
132.267 131.76 131.347 131.305 131.479 133.307 133.661 133.049 132.711 
132.22 131.938 132.022 132.226 134.128 134.464 133.832 133.566 133.203 
132.834 132.716 132.804 132.912 134.963 135.186 134.71 134.434 134.117 
133.796 133.594 133.538 133.542 133.556 134.19 134.228 134.847 134.275 
134.925 135.501 134.325 134.954 135.567 136.212 134.411 134.955 135.522 
136.26 136.968 134.658 135.103 135.56 136.271 137.077 137.623 135.047 
135.533 135.927 136.498 137.263 137.877 138.231 135.383 135.987 136.463 
136.962 137.611 138.219 138.641 138.957 135.577 136.191 136.765 137.335 
137.979 138.601 139.059 139.412 139.73 135.697 136.228 136.815 137.463 
138.176 138.888 139.43 139.793 140.119 140.419 134.58 135.202 134.872 
135.91 135.466 135.171 136.753 136.314 135.864 135.724 137.468 137.249 
136.879 136.568 136.44 137.982 137.86 137.769 137.548 137.296 137.031 
138.625 138.364 138.295 138.24 138.056 137.825 137.525 139.443 139.094 
138.864 138.763 138.62 138.449 138.279 138.014 140.203 139.879 139.596 
139.433 139.257 139.039 138.884 138.718 138.444 141.013 140.703 141.702 
141.277 142.447 140.375 141.993 143.003 141.007 140.21 142.649 143.26 
141.732 140.904 140.072 143.029 143.416 142.249 141.442 140.655 139.792 
143.058 143.426 142.421 141.74 141.067 140.303 139.523 142.712 143.149 
142.261 141.925 141.476 140.788 140.018 139.323 142.349 142.89 141.938 
141.905 141.805 141.238 140.445 139.706 139.053 142.421 142.961 141.9 
141.791 141.817 141.42 140.695 139.99 139.337 138.713 140.913 141.732 
141.381 142.388 141.678 142.709 142.584 141.704 143.385 143.416 142.273 
141.596 143.226 143.665 143.452 141.922 141.487 142.677 143.258 143.229 
143.256 141.783 141.395 142.43 143.083 143.086 142.988 143.355 141.782 
141.379 142.389 143.168 143.394 143.069 143.143 143.434 141.828 141.405 
142.316 142.984 143.425 143.237 143.001 143.185 143.265 141.801 141.338 
142.227 142.675 143.024 143.026 142.823 142.845 143.072 143.144 135.692 
136.172 136.23 136.776 136.882 136.744 137.547 137.588 137.497 137.457 
138.256 138.264 138.3 138.288 138.239 138.856 138.925 138.881 138.981 
139.053 139.045 139.521 139.578 139.486 139.563 139.708 139.817 139.736 
140.238 140.231 140.25 140.329 140.402 140.452 140.416 140.179 140.887 
140.848 140.906 141.007 141.095 141.092 141.039 140.866 140.533 135.001 
135.573 134.814 135.449 134.698 136.205 135.394 134.776 136.172 136.896 
135.494 134.986 136.159 136.897 137.601 135.654 135.137 136.216 136.894 
137.612 138.317 135.758 135.253 136.303 136.937 137.614 138.306 138.99 
135.889 135.447 136.407 137.029 137.666 138.266 138.924 139.62 136.083 
135.659 136.58 137.158 137.753 138.311 138.894 139.574 140.273 136.241 