# vtk DataFile Version 4.0
vtk output
ASCII
DATASET POLYDATA
POINTS 1002 float
-75.1098 -106.637 61.0292 -75.25 -105.898 60.0296 -75.804 -106.315 60.2052 
-75.6128 -107.125 61.217 -76.4216 -106.783 60.4768 -74.8449 -107.568 62.0369 
-76.1327 -107.777 61.4215 -77.0776 -107.387 60.8161 -75.2793 -108.199 62.1781 
-74.4777 -108.856 62.9297 -76.6721 -108.587 61.7564 -77.6746 -108.133 61.2745 
-75.6669 -109.072 62.3417 -74.8138 -109.767 63.052 -74.0829 -110.62 63.7708 
-77.0593 -109.52 62.1778 -78.0869 -108.938 61.8644 -75.9807 -110.141 62.5926 
-75.0149 -110.935 63.1728 -74.2917 -111.843 63.9173 -73.6783 -112.656 64.6468 
-77.1362 -110.535 62.3858 -78.2733 -109.755 62.3026 -76.0753 -111.355 62.6792 
-75.1379 -112.253 63.2316 -74.4169 -113.188 64.0221 -73.8735 -113.995 64.8589 
-73.3519 -114.674 65.5683 -77.0828 -111.573 62.298 -78.2678 -110.67 62.3064 
-76.0598 -112.528 62.5601 -75.3056 -113.498 63.2425 -74.7017 -114.447 64.1896 
-74.1994 -115.261 65.1629 -73.7425 -115.955 65.9741 -73.2771 -116.632 66.6116 
-77.1254 -112.683 62.2661 -78.1095 -111.801 62.0925 -76.258 -113.562 62.6909 
-75.7023 -114.451 63.5728 -75.2754 -115.4 64.6922 -74.7983 -116.302 65.7433 
-74.3255 -117.072 66.6088 -73.8754 -117.774 67.2889 -73.4294 -118.426 67.8231 
-77.2567 -113.876 62.5955 -77.9231 -113.056 62.1144 -76.6605 -114.622 63.2949 
-76.2638 -115.338 64.3322 -75.9583 -116.184 65.5213 -75.5296 -117.142 66.5633 
-75.0229 -118.012 67.4104 -74.552 -118.727 68.1218 -74.0935 -119.345 68.6852 
-73.6344 -119.868 69.0912 -77.4638 -114.955 63.2413 -77.8925 -114.183 62.5221 
-77.0802 -115.672 64.1272 -76.7668 -116.365 65.1916 -76.492 -117.14 66.3154 
-76.134 -118.034 67.3072 -75.6822 -118.895 68.1445 -75.2356 -119.585 68.9036 
-74.7904 -120.137 69.5447 -74.3074 -120.613 69.9915 -73.8261 -121.011 70.2591 
-75.7161 -105.495 59.1586 -76.4334 -105.839 59.4158 -76.3606 -105.055 58.3427 
-77.2684 -105.274 58.7418 -77.1886 -104.572 57.5761 -77.2391 -106.21 59.8358 
-78.1834 -104.817 58.015 -78.0251 -104.193 56.7033 -78.203 -105.608 59.2481 
-77.9962 -106.793 60.2541 -79.002 -104.576 57.0254 -78.8394 -103.922 55.6978 
-79.1494 -105.233 58.4871 -78.9901 -106.232 59.6817 -78.6238 -107.567 60.8029 
-79.792 -104.303 55.9497 -79.7535 -103.579 54.7373 -79.9459 -105.001 57.4781 
-79.945 -105.869 58.9636 -79.6321 -107.071 60.3189 -79.1324 -108.362 61.6196 
-80.5831 -104.016 55.0371 -80.5545 -103.307 53.8694 -80.6025 -104.774 56.4678 
-80.6681 -105.65 58.0469 -80.5219 -106.782 59.6076 -80.1461 -107.938 61.1842 
-79.4201 -109.132 62.2059 -81.1197 -104.095 54.1742 -80.8931 -103.452 53.0187 
-81.1299 -104.836 55.5506 -81.1382 -105.66 57.0792 -81.0936 -106.718 58.61 
-80.8652 -107.794 60.2545 -80.329 -108.755 61.6343 -79.3121 -110.062 62.1143 
-81.2943 -104.556 53.2821 -80.8491 -104.027 52.2513 -81.4886 -105.234 54.6126 
-81.5263 -105.963 56.1472 -81.5125 -106.86 57.6301 -81.3672 -107.856 59.1353 
-80.9365 -108.694 60.6029 -80.0631 -109.708 61.4757 -78.8976 -111.28 61.7511 
-81.2927 -105.141 52.5443 -80.7425 -104.79 51.6997 -81.6747 -105.671 53.7482 
-81.8542 -106.307 55.2559 -81.9343 -107.086 56.781 -81.8995 -108.008 58.2491 
-81.5526 -108.83 59.6792 -80.7319 -109.647 60.7234 -79.5742 -110.925 61.243 
-78.519 -112.606 61.7095 -81.089 -105.726 51.8126 -81.6178 -106.018 52.8267 
-81.397 -106.668 52.2675 -81.7682 -106.946 53.5136 -81.3992 -107.776 53.0907 
-81.9578 -106.513 54.2373 -81.5963 -108.193 54.3351 -81.1911 -109.095 53.9621 
-82.0261 -107.546 54.914 -82.1809 -107.248 55.8056 -81.3745 -109.644 55.0362 
-81.0981 -110.485 54.7097 -81.8416 -108.943 55.529 -82.3259 -108.483 56.3864 
-82.3437 -108.205 57.4023 -81.254 -111.101 55.8779 -80.9986 -111.98 55.5808 
-81.5468 -110.357 56.2829 -82.0824 -109.873 57.0181 -82.4489 -109.494 58.1097 
-82.1807 -109.129 59.019 -80.987 -112.766 57.0013 -80.595 -113.517 56.7327 
-81.1655 -111.847 57.381 -81.4194 -111.147 57.8465 -81.83 -110.723 58.7067 
-81.8939 -110.336 59.6718 -81.3781 -109.939 60.2563 -80.4978 -114.49 58.1627 
-79.9674 -114.766 58.0652 -80.7492 -113.747 58.4668 -80.7287 -112.753 58.7203 
-80.7684 -112.009 59.109 -80.8942 -111.621 59.875 -80.6705 -111.345 60.5553 
-80.0973 -111.092 60.9048 -79.8981 -115.819 59.3616 -79.324 -115.687 59.4886 
-80.3158 -115.592 59.4558 -80.3395 -114.779 59.5993 -80.0808 -113.767 59.6905 
-79.924 -113.146 60.0745 -79.8137 -112.94 60.7563 -79.4407 -112.835 61.254 
-78.9255 -112.714 61.494 -79.2679 -116.776 60.7373 -78.7611 -116.545 60.9311 
-79.763 -116.903 60.6745 -80.02 -116.567 60.771 -79.8879 -115.748 60.8726 
-79.5901 -114.967 61.0509 -79.3964 -114.614 61.5162 -79.1661 -114.519 62.0588 
-78.7405 -114.429 62.3615 -78.2685 -114.311 62.4649 -77.9048 -115.595 63.7625 
-78.3928 -115.76 63.8377 -78.2027 -116.933 65.328 -78.8902 -115.968 63.8171 
-78.7342 -117.227 65.5086 -78.512 -118.529 66.9474 -79.2342 -116.186 63.5893 
-79.1673 -117.648 65.6296 -78.9871 -119.058 67.2239 -78.8726 -120.454 68.6621 
-79.4409 -116.455 63.2107 -79.476 -118.086 65.5951 -79.426 -119.628 67.4322 
-79.3955 -121.065 68.9172 -79.5496 -122.214 70.3746 -79.6468 -116.986 62.8748 
-79.704 -118.577 65.3422 -79.8824 -120.186 67.4004 -80.0519 -121.54 68.9619 
-80.2686 -122.647 70.4452 -80.3744 -123.474 71.8775 -79.7143 -117.656 62.5924 
-79.6948 -119.125 64.9134 -80.0689 -120.811 67.0404 -80.5713 -122.132 68.7115 
-80.9806 -123.034 70.2456 -81.1415 -123.799 71.8331 -80.9594 -124.46 73.3495 
-79.4568 -117.991 62.3468 -79.3265 -119.381 64.4572 -79.6906 -121.155 66.5347 
-80.4105 -122.724 68.2982 -81.0828 -123.658 69.8975 -81.4912 -124.298 71.5215 
-81.5401 -124.925 73.2346 -81.3056 -125.442 74.7981 -78.9983 -117.89 62.2653 
-78.8149 -119.231 64.1448 -79.027 -120.94 66.1006 -79.6789 -122.729 67.9023 
-80.4259 -124.026 69.5791 -81.0374 -124.823 71.1603 -81.4575 -125.483 72.7819 
-81.6277 -126.058 74.459 -81.5476 -126.413 75.8528 -78.5408 -117.662 62.3367 
-78.3755 -118.976 63.9876 -78.464 -120.526 65.7594 -78.9208 -122.253 67.5008 
-79.5604 -123.793 69.2126 -80.1725 -124.896 70.8168 -80.7462 -125.726 72.2862 
-81.2627 -126.441 73.801 -81.5962 -126.972 75.2726 -81.6177 -127.217 76.3987 
-77.6006 -116.383 64.7451 -77.8904 -117.889 66.3958 -77.2785 -117.237 65.8116 
-78.2673 -119.662 68.1267 -77.5551 -118.977 67.4975 -76.9566 -118.152 66.8983 
-78.9136 -121.478 70.0314 -78.1276 -120.693 69.3836 -77.2733 -119.992 68.5874 
-76.631 -119.073 67.91 -79.6814 -123.009 71.7506 -78.9368 -122.241 71.3292 
-77.9685 -121.533 70.5559 -76.9914 -120.848 69.6219 -76.2638 -119.909 68.8341 
-80.2286 -124.196 73.2755 -79.4969 -123.711 72.9136 -78.6347 -123.041 72.3628 
-77.5929 -122.37 71.5406 -76.6345 -121.568 70.5762 -75.8757 -120.573 69.7088 
-80.6334 -125.116 74.9014 -79.8643 -124.831 74.5164 -79.0437 -124.451 73.9008 
-78.0639 -123.896 73.1748 -77.0711 -123.133 72.2866 -76.211 -122.143 71.351 
-75.451 -121.089 70.4538 -81.0323 -125.936 76.265 -80.2973 -125.486 76.1937 
-79.4991 -125.171 75.6865 -78.5364 -124.885 74.8522 -77.4679 -124.432 73.8034 
-76.5224 -123.655 72.7742 -75.6933 -122.604 71.8673 -74.9357 -121.536 70.9586 
-81.2705 -126.733 76.9939 -80.5981 -126.063 77.3443 -79.8499 -125.476 77.3728 
-79.0088 -125.125 76.854 -77.9494 -124.934 75.6664 -76.8582 -124.639 74.2454 
-75.919 -123.969 73.0971 -75.091 -122.96 72.173 -74.3788 -121.914 71.2341 
-81.2919 -127.602 77.0781 -80.7269 -126.96 77.7239 -80.4391 -127.772 77.6663 
-79.6349 -127.033 78.4985 -79.1384 -127.79 78.2076 -79.9138 -126.116 78.3423 
-78.3279 -127.1 79.0922 -77.7118 -127.852 78.3646 -78.798 -126.215 79.3313 
-79.1493 -125.415 78.6148 -77.0738 -127.244 78.904 -76.1324 -128.007 78.0567 
-77.6577 -126.457 79.6032 -78.1119 -125.556 79.4298 -78.2727 -125.034 77.8661 
-75.4794 -127.33 78.2373 -74.2927 -128.03 77.7981 -76.4216 -126.598 78.8272 
-76.9502 -125.77 79.1221 -77.2126 -125.086 78.1842 -77.1457 -124.895 76.1579 
-73.6309 -127.253 77.7957 -72.704 -127.807 77.5732 -74.7188 -126.523 77.9355 
-75.5058 -125.725 78.1358 -75.9241 -125.051 77.7214 -76.0853 -124.813 76.2454 
-76.0343 -124.655 74.4494 -72.2934 -127.026 77.267 -71.7262 -127.409 76.9031 
-73.1087 -126.411 77.3233 -73.9201 -125.625 77.3288 -74.5223 -124.908 77.0455 
-74.9082 -124.597 76.0316 -75.0725 -124.491 74.5286 -75.0891 -123.968 73.1878 
-71.4385 -126.614 76.348 -70.9721 -126.889 75.923 -72.0518 -126.193 76.4929 
-72.7071 -125.592 76.5273 -73.2978 -124.912 76.3175 -73.7898 -124.442 75.5662 
-74.1082 -124.213 74.3582 -74.2301 -123.785 73.1234 -74.2885 -122.938 72.1106 
-70.5258 -126.069 75.4085 -70.0994 -126.323 75.0499 -71.1046 -125.737 75.5071 
-71.7252 -125.325 75.5239 -72.2794 -124.831 75.3891 -72.7625 -124.354 74.8367 
-73.1556 -123.976 73.8818 -73.3937 -123.524 72.8241 -73.5255 -122.806 71.8791 
-73.6622 -121.909 71.0517 -81.4075 -127.696 76.0814 -80.9358 -128.079 76.7322 
-80.6359 -127.807 75.5656 -79.9653 -128.174 76.1265 -79.4921 -127.667 74.8113 
-79.9169 -128.259 77.2267 -78.6825 -128.007 75.2145 -78.391 -127.493 73.874 
-78.8412 -128.419 76.4274 -78.4686 -128.364 77.4825 -77.5357 -127.719 74.2046 
-77.4052 -127.235 72.9046 -77.5507 -128.224 75.4021 -77.3269 -128.66 76.4407 
-76.7837 -128.557 77.3846 -76.4766 -127.351 73.1647 -76.3451 -126.755 71.9049 
-76.3913 -127.812 74.3887 -76.0795 -128.432 75.3962 -75.5724 -128.87 76.326 
-74.9222 -128.665 77.2382 -75.4048 -126.867 71.9571 -75.359 -126.089 70.8386 
-75.3192 -127.455 73.1612 -75.003 -128.005 74.2699 -74.5172 -128.562 75.2273 
-73.8835 -128.769 76.2456 -73.2009 -128.439 77.1737 -74.562 -126.228 70.6815 
-74.657 -125.376 69.7329 -74.4132 -127.035 71.7023 -74.1217 -127.688 72.8017 
-73.7054 -128.146 73.8358 -73.1868 -128.406 74.8379 -72.5641 -128.37 75.8987 
-72.019 -127.994 76.6998 -73.9719 -125.527 69.4583 -74.1257 -124.681 68.6109 
-73.7687 -126.365 70.3431 -73.4761 -127.117 71.3261 -73.076 -127.649 72.3394 
-72.6028 -127.944 73.2577 -72.0798 -128.048 74.1628 -71.5735 -127.896 75.0898 
-71.1967 -127.467 75.7518 -73.4452 -124.798 68.3136 -73.6194 -123.941 67.5591 
[...]
CELL_DATA 2000
SCALARS Distance double
LOOKUP_TABLE default
142.874 143.584 143.38 143.723 144.411 144.128 144.454 144.252 144.664 
145.422 145.046 145.368 145.059 145.505 145.312 145.893 146.54 146.135 
146.466 146.075 146.518 146.256 146.901 146.73 147.451 147.523 147.197 
147.492 147.167 147.583 147.324 147.961 147.798 148.566 148.389 149.133 
148.228 148.009 148.245 148.055 148.493 148.346 149.018 148.891 149.706 
149.544 150.363 150.13 150.916 148.841 148.649 148.962 148.777 149.333 
149.24 150.063 149.988 150.92 150.765 151.677 151.438 152.304 152.016 
152.841 149.627 149.419 149.964 149.698 150.426 150.246 151.219 151.13 
152.191 152.056 153.038 152.814 153.708 153.438 154.264 153.955 154.692 
150.61 150.425 151.174 150.922 151.773 151.542 152.552 152.409 153.493 
153.364 154.362 154.17 155.049 154.811 155.608 155.332 156.035 155.704 
156.299 142.467 142.144 142.594 143.206 141.921 142.328 142.972 143.399 
144.06 141.788 142.166 142.826 143.223 143.915 144.325 145.052 141.675 
142.057 142.739 143.13 143.826 144.213 144.958 145.388 146.162 141.545 
141.921 142.589 143.025 143.743 144.153 144.912 145.329 146.153 146.556 
147.26 141.478 141.799 142.413 142.828 143.548 144.028 144.827 145.302 
146.149 146.583 147.329 147.604 148.086 141.516 141.792 142.414 142.716 
143.407 143.825 144.625 145.148 145.983 146.509 147.218 147.604 148.065 
148.272 148.607 141.618 141.884 142.565 142.819 143.518 143.805 144.569 
144.971 145.772 146.261 146.938 147.369 147.802 148.113 148.433 148.719 
149.164 141.807 142.025 142.71 142.985 143.702 143.982 144.729 145.029 
145.811 146.152 146.862 147.158 147.65 147.863 148.222 148.482 148.946 
149.341 149.992 142.192 143.087 142.742 143.043 144.079 143.662 143.94 
143.665 144.05 145.152 144.67 144.901 144.588 145.006 144.742 145.142 
146.351 145.775 145.951 145.56 145.991 145.75 146.256 145.912 146.282 
147.792 147.1 147.24 146.666 147.034 146.75 147.331 147.078 147.518 
147.065 147.304 149.327 148.687 148.87 148.113 148.325 147.819 148.272 
148.068 148.528 148.231 148.395 147.921 147.97 150.522 150.169 150.487 
149.827 149.934 149.189 149.312 148.901 149.193 149.024 149.217 148.885 
148.872 148.43 148.469 151.293 151.18 151.63 151.29 151.469 150.775 
150.691 149.973 149.996 149.627 149.872 149.631 149.833 149.405 149.534 
149.039 149.257 152.002 151.891 152.407 152.259 152.613 152.163 152.203 
151.424 151.382 150.671 150.921 150.49 150.95 150.534 150.923 150.352 
150.672 150.072 150.411 151.34 151.665 151.994 153.002 151.932 152.354 
153.449 153.769 154.877 151.979 152.571 153.822 154.278 155.531 155.811 
157.093 151.994 152.592 154.045 154.683 156.162 156.554 157.939 158.199 
159.541 152.408 152.771 154.307 154.983 156.693 157.234 158.723 159.036 
160.336 160.581 161.718 153.045 153.293 154.647 155.297 157.034 157.752 
159.333 159.762 160.999 161.26 162.322 162.535 163.455 153.289 153.683 
154.72 155.435 156.931 157.877 159.434 160.17 161.386 161.785 162.76 
163.037 163.963 164.168 165.014 153.05 153.579 154.428 155.176 156.391 
157.43 158.844 159.901 161.125 161.873 162.806 163.294 164.156 164.548 
165.421 165.681 166.438 152.686 153.219 154.047 154.728 155.798 156.713 
157.974 159.066 160.296 161.299 162.287 163.046 163.857 164.479 165.281 
165.83 166.596 166.944 167.52 151.46 153.13 152.242 152.143 155.008 
154.028 153.999 153.002 152.884 157.233 156.082 156.104 155.001 154.974 
153.854 153.752 159.697 158.495 158.512 157.272 157.246 156.051 155.974 
154.796 154.679 161.876 160.895 160.904 159.723 159.624 158.386 158.252 
157.036 156.864 155.686 155.497 163.605 162.842 162.888 161.931 161.826 
160.699 160.518 159.308 159.081 157.853 157.59 156.412 156.155 165.154 
164.457 164.539 163.731 163.686 162.737 162.577 161.485 161.235 160.041 
159.722 158.499 158.16 156.994 156.685 166.564 165.948 165.989 165.276 
165.216 164.434 164.272 163.364 163.078 162.041 161.67 160.546 160.13 
158.968 158.551 157.434 157.059 167.638 167.189 167.133 166.55 166.388 
165.767 165.556 164.843 164.509 163.652 163.217 162.273 161.811 160.793 
160.304 159.224 158.735 157.688 157.258 168.068 168.227 168.012 167.526 
168.005 167.988 167.568 167.321 166.767 167.567 167.708 167.446 167.322 
166.873 166.563 165.972 166.87 167.212 167.101 167.195 166.847 166.648 
166.048 165.683 164.931 165.856 166.338 166.196 166.617 166.288 166.424 
165.774 165.598 164.756 164.456 163.599 164.812 165.224 164.954 165.443 
165.058 165.481 164.848 165.006 164.17 164.098 163.246 163.047 162.204 
163.879 164.222 163.922 164.241 163.847 164.175 163.643 163.894 163.221 
163.342 162.609 162.587 161.799 161.614 160.733 162.816 163.249 162.962 
163.292 162.928 163.164 162.709 162.86 162.313 162.425 161.819 161.884 
161.176 161.113 160.261 160.065 159.148 161.57 162.069 161.757 162.217 
161.848 162.229 161.785 162.028 161.483 161.618 161.011 161.102 160.426 
160.435 159.634 159.523 158.648 158.469 157.626 168.228 168.125 168.388 
168.443 167.357 167.997 168.201 168.385 168.186 166.207 166.983 167.247 
167.825 167.759 167.936 167.614 165.042 165.762 165.959 166.669 166.722 
167.234 167.04 167.243 166.855 163.823 164.56 164.701 165.381 165.458 
166.09 166.056 166.493 166.235 166.393 165.927 162.421 163.236 163.398 
164.126 164.207 164.86 164.867 165.431 165.293 165.66 165.32 165.429 
164.945 161.012 161.799 161.989 162.773 162.897 163.604 163.601 164.211 
164.072 164.591 164.331 164.695 164.315 164.457 163.98 159.748 160.457 
160.636 161.381 161.519 162.252 162.258 162.9 162.74 163.302 163.054 
163.564 163.257 163.644 163.227 163.421 162.887 158.547 159.235 159.383 
160.075 160.163 160.863 160.844 161.506 161.356 161.948 161.715 162.259 
161.987 162.474 162.12 162.486 162.007 162.215 161.645 152.752 153.466 
153.452 154.215 154.252 154.289 155.162 155.103 156.005 154.968 155.093 
156.089 156.122 157.119 157.061 158.115 155.715 155.84 156.926 157.05 
158.174 158.209 159.312 159.276 160.366 156.549 156.654 157.746 157.892 
159.078 159.234 160.413 160.455 161.51 161.457 162.376 157.298 157.472 
158.519 158.687 159.811 160.055 161.239 161.441 162.486 162.513 163.363 
163.28 164.002 157.793 158.089 159.088 159.343 160.372 160.67 161.779 
162.104 163.133 163.313 164.142 164.165 164.899 164.819 165.476 158.057 
158.427 159.361 159.726 160.678 161.068 162.085 162.497 163.478 163.789 
164.615 164.787 165.546 165.634 166.375 166.297 166.868 158.209 158.586 
159.437 159.843 160.709 161.179 162.104 162.62 163.524 163.97 164.75 
165.084 165.822 166.111 166.87 167.046 167.661 167.561 167.866 152.048 
151.18 151.924 152.642 150.303 151.022 151.657 152.532 153.319 149.376 
150.095 150.64 151.483 152.189 153.151 153.959 148.404 149.12 149.615 
150.417 151.049 151.979 152.763 153.781 154.665 147.452 148.141 148.611 
149.37 149.956 150.834 151.587 152.586 153.481 154.541 155.487 146.538 
147.199 147.644 148.368 148.925 149.755 150.485 151.439 152.308 153.35 
154.279 155.355 156.243 145.682 146.296 146.715 147.403 147.926 148.724 
149.424 150.355 151.194 152.193 153.059 154.102 154.948 156.012 156.771 
144.937 145.48 145.874 146.494 146.97 147.714 148.347 149.259 150.046 
151.051 151.856 152.865 153.628 154.667 155.408 156.447 157.099 144.302 
144.785 145.148 145.694 146.119 146.774 147.327 148.156 148.861 149.84 
150.596 151.607 152.314 153.326 154.015 155.058 155.738 156.739 157.321 
144.08 144.015 144.332 144.917 144.007 144.302 144.931 145.23 145.886 
144.102 144.361 145.039 145.313 146.043 146.317 147.103 144.256 144.509 
145.231 145.501 146.309 146.577 147.449 147.702 148.631 144.455 144.7 
145.466 145.744 146.631 146.925 147.883 148.139 149.114 149.354 150.34 
144.778 144.984 145.82 146.057 147.013 147.309 148.353 148.633 149.653 
149.878 150.863 151.085 152.048 145.234 145.418 146.329 146.525 147.515 
147.766 148.842 149.134 150.201 150.441 151.442 151.639 152.621 152.808 
153.763 145.743 145.936 146.883 147.093 148.081 148.308 149.344 149.627 
150.698 150.98 152.016 152.238 153.248 153.434 154.432 154.574 155.506 
146.252 146.453 147.397 147.634 148.608 148.845 149.834 150.106 151.151 
151.459 152.521 152.796 153.829 154.06 155.067 155.254 156.191 156.301 
157.114 146.842 148.227 147.679 148.034 149.814 149.182 149.538 148.938 
149.274 151.559 150.868 151.244 150.547 150.889 150.217 150.54 153.405 
152.686 153.118 152.367 152.766 151.985 152.35 151.576 151.916 155.263 
154.553 155.01 154.294 154.758 153.981 154.395 153.544 153.888 153.033 
153.33 157.018 156.363 156.79 156.147 156.623 155.949 156.372 155.594 
155.91 155.054 155.307 154.438 154.663 158.553 158.017 158.433 157.861 
158.325 157.729 158.139 157.455 157.741 156.974 157.2 156.389 156.6 
155.742 155.916 159.832 159.448 159.911 159.433 159.89 159.354 159.746 
159.126 159.405 158.705 158.927 158.19 158.4 157.622 157.785 156.937 
157.025 160.905 160.658 161.19 160.826 161.278 160.82 161.174 160.636 
160.904 160.294 160.513 159.847 160.028 159.318 159.434 158.679 158.716 
157.909 157.888 146.381 146.118 146.725 147.734 145.849 146.494 147.56 
148.193 149.317 145.572 146.263 147.412 148.065 149.245 149.865 151.053 
145.357 146.044 147.287 147.964 149.181 149.809 151.04 151.664 152.889 
145.303 145.908 147.184 147.877 149.114 149.741 150.956 151.627 152.937 
153.575 154.801 145.401 145.913 147.136 147.803 149.04 149.66 150.826 
151.496 152.825 153.595 154.969 155.537 156.654 145.517 145.998 147.137 
147.762 148.977 149.588 150.736 151.354 152.635 153.436 154.88 155.643 
156.872 157.315 158.215 145.585 146.058 147.124 147.722 148.886 149.516 
150.679 151.287 152.527 153.256 154.645 155.468 156.734 157.376 158.297 
158.694 159.416 145.671 146.102 147.108 147.656 148.75 149.382 150.541 
151.207 152.445 153.156 154.454 155.214 156.405 157.102 158.021 158.574 
159.288 159.733 160.396 145.526 144.179 144.971 145.219 142.715 143.554 
143.738 144.612 144.865 141.109 141.947 142.059 143.012 143.205 144.184 
144.476 139.713 140.319 140.334 141.236 141.45 142.466 142.776 143.808 
144.216 138.81 139.129 139.033 139.632 139.838 140.754 141.196 142.203 
142.711 143.693 144.229 138.088 138.387 138.273 138.6 138.668 139.308 
139.726 140.698 141.33 142.336 142.943 143.854 144.416 137.249 137.655 
137.648 137.967 137.977 138.352 138.566 139.301 139.86 140.916 141.593 
142.614 143.177 144.069 144.572 136.468 136.844 136.943 137.342 137.476 
137.792 137.961 138.361 138.749 139.513 140.161 141.184 141.826 142.798 
143.304 144.187 144.658 135.941 136.191 136.316 136.692 136.944 137.33 
137.623 137.937 138.285 138.696 139.229 139.93 140.6 141.473 142.08 
142.938 143.449 144.287 144.782 135.764 135.756 135.833 136.134 136.018 
135.945 136.233 136.346 136.78 136.518 136.308 136.536 136.534 136.974 
137.107 137.564 137.242 136.906 137.085 136.924 137.324 137.375 137.89 
137.946 138.351 138.171 137.753 137.95 137.617 137.95 137.817 138.322 
138.345 138.86 138.812 139.277 139.147 138.744 138.965 138.589 138.873 
138.567 138.974 138.863 139.422 139.397 139.971 139.9 140.522 140.07 
139.697 139.91 139.582 139.852 139.52 139.844 139.605 140.115 140.043 
140.693 140.645 141.295 141.242 141.927 141.019 140.627 140.849 140.506 
140.789 140.465 140.787 140.498 140.96 140.815 141.47 141.419 142.112 
142.035 142.683 142.628 143.291 142 141.614 141.854 141.481 141.769 
141.421 141.757 141.447 141.893 141.693 142.31 142.231 142.932 142.862 
143.519 143.416 144.046 143.976 144.629 142.6 143.479 142.862 142.502 
144.439 143.783 143.457 142.793 142.433 145.665 144.859 144.555 143.81 
143.484 142.771 142.443 147.221 146.272 145.986 145.076 144.802 143.956 
143.692 142.893 142.651 148.912 147.938 147.701 146.698 146.476 145.491 
145.291 144.339 144.151 143.263 143.121 150.701 149.694 149.513 148.494 
148.313 147.298 147.119 146.098 145.907 144.912 144.747 143.844 143.733 
152.63 151.59 151.446 150.375 150.196 149.152 148.959 147.941 147.727 
146.714 146.503 145.53 145.356 144.462 144.317 154.486 153.539 153.423 
152.369 152.184 151.08 150.855 149.777 149.551 148.52 148.309 147.305 
147.109 146.133 145.946 145.024 144.855 156.084 155.283 155.195 154.282 
154.127 153.083 152.861 151.736 151.495 150.389 150.174 149.126 148.928 
147.915 147.71 146.717 146.515 145.576 145.419 146.064 147.191 146.896 
147.508 148.421 148.104 148.737 148.436 149.129 149.708 149.406 150.114 
149.762 150.507 150.176 150.955 151.043 150.775 151.618 151.259 152.108 
151.709 152.589 152.167 152.99 152.433 152.196 153.149 152.84 153.761 
153.388 154.297 153.896 154.758 154.273 155.027 153.809 153.622 154.606 
154.37 155.284 154.984 155.82 155.506 156.28 155.932 156.611 156.189 
156.808 155.027 154.93 155.891 155.753 156.652 156.418 157.214 156.917 
157.637 157.315 157.944 157.588 158.132 157.774 158.29 156.034 156.02 
156.95 156.918 157.827 157.698 158.519 158.269 159.017 158.682 159.354 
158.938 159.504 159.054 159.549 159.143 159.588 156.889 156.926 157.842 
157.88 158.796 158.775 159.603 159.476 160.208 159.999 160.668 160.358 
160.93 160.492 160.965 160.472 160.895 160.417 160.781 141.202 140.935 
140.736 140.108 140.856 140.541 139.822 139.588 138.971 140.886 140.539 
139.849 139.447 138.764 138.521 138.066 140.953 140.613 139.996 139.579 
138.921 138.508 137.987 137.787 137.498 141.052 140.706 140.118 139.748 
139.14 138.729 138.157 137.827 137.38 137.251 136.94 141.183 140.828 
140.259 139.895 139.308 138.923 138.327 137.971 137.404 137.142 136.642 
136.57 136.236 141.34 140.98 140.438 140.071 139.496 139.097 138.488 
138.103 137.517 137.173 136.625 136.356 135.933 135.886 135.713 141.572 
141.176 140.647 140.27 139.723 139.316 138.723 138.294 137.726 137.335 
136.845 136.479 136.078 135.802 135.588 135.547 135.555 141.919 141.474 
140.961 140.53 140.031 139.602 139.091 138.619 138.103 137.639 137.196 
136.793 136.451 136.101 135.878 135.642 135.592 135.547 135.642 141.274 
140.201 140.9 141.245 139.07 139.781 140.155 140.92 141.302 138.153 
138.708 139.083 139.818 140.235 140.954 141.297 137.568 137.945 138.265 
138.848 139.301 139.952 140.367 140.993 141.417 137.043 137.423 137.693 
138.158 138.592 139.152 139.65 140.213 140.709 141.287 141.834 136.421 
136.857 137.174 137.63 138.046 138.543 139.054 139.6 140.139 140.684 
141.214 141.785 142.302 135.94 136.297 136.696 137.136 137.599 138.053 
138.55 139.054 139.587 140.127 140.638 141.179 141.654 142.206 142.646 
135.746 135.965 136.347 136.721 137.186 137.622 138.107 138.581 139.094 
139.597 140.106 140.608 141.085 141.59 142.052 142.556 142.995 135.771 
135.867 136.165 136.427 136.821 137.206 137.66 138.124 138.636 139.133 
139.661 140.131 140.63 141.082 141.568 142.033 142.514 142.972 143.418 
141.9 141.936 142.218 142.854 142.025 142.333 143.018 143.257 143.906 
142.012 142.391 143.137 143.455 144.158 144.369 145.024 142.112 142.402 
143.187 143.543 144.302 144.599 145.309 145.523 146.226 142.51 142.657 
143.436 143.676 144.441 144.713 145.449 145.748 146.532 146.795 147.611 
142.935 143.093 143.818 144.013 144.723 144.912 145.595 145.86 146.648 
147.019 147.882 148.211 149.031 143.216 143.408 144.056 144.307 144.96 
145.181 145.8 146.025 146.733 147.089 147.911 148.332 149.096 149.465 
150.113 143.511 143.642 144.234 144.455 145.086 145.34 145.966 146.205 
146.863 147.166 147.907 148.295 149.007 149.386 149.972 150.33 150.852 
143.897 143.967 144.525 144.66 145.273 145.479 146.129 146.362 147.025 
147.286 147.977 148.294 148.978 149.302 149.908 150.2 150.752 151.045 
151.598 145.449 144.914 144.82 144.105 144.408 144.28 143.533 143.452 
142.689 144.002 143.816 143.071 142.916 142.16 142.014 141.204 143.741 
143.494 142.779 142.541 141.839 141.613 140.904 140.64 139.94 143.574 
143.305 142.606 142.327 141.653 141.402 140.774 140.502 139.884 139.586 
139.04 143.444 143.17 142.486 142.192 141.509 141.249 140.604 140.381 
139.736 139.512 138.878 138.704 138.175 143.385 143.083 142.436 142.114 
141.452 141.141 140.476 140.199 139.5 139.261 138.546 138.387 137.749 
137.712 137.219 143.43 143.096 142.491 142.135 141.521 141.161 140.541 
140.167 139.501 139.111 138.424 138.097 137.488 137.3 136.827 136.783 
136.437 143.529 143.196 142.626 142.256 141.678 141.3 140.737 140.338 
139.76 139.297 138.701 138.218 137.688 137.286 136.873 136.602 136.289 
136.167 135.948 
POINT_DATA 1002
SCALARS Distance double
LOOKUP_TABLE default
143.208 142.366 143.051 143.885 143.819 144.079 144.684 144.733 144.795 
145.121 145.722 145.813 145.699 146.024 146.54 146.873 146.938 146.807 
147.052 147.632 148.185 147.783 147.853 147.827 148.121 148.716 149.354 
149.865 148.398 148.442 148.563 149.097 149.841 150.565 151.175 151.711 
149.118 148.973 149.377 150.064 151.031 151.893 152.576 153.164 153.648 
150.174 149.744 150.605 151.3 152.297 153.249 153.977 154.575 155.056 
155.374 151.361 150.73 151.992 152.724 153.635 154.551 155.288 155.883 
156.367 156.683 156.84 141.985 142.75 141.7 142.538 141.527 143.63 
142.437 141.405 143.505 144.614 142.334 141.29 143.451 144.523 145.74 
142.145 141.205 143.294 144.488 145.729 146.994 142.049 141.184 143.051 
144.306 145.693 147.029 147.968 142.146 141.219 143.051 144.124 145.451 
146.81 147.819 148.412 142.29 141.348 143.263 144.244 145.342 146.528 
147.481 148.111 148.78 142.437 141.639 143.405 144.442 145.505 146.59 
147.471 148.003 148.559 149.505 142.501 143.289 143.473 144.228 144.541 
144.305 145.245 145.675 145.236 145.482 146.409 146.972 146.204 146.537 
146.754 147.924 148.484 147.389 147.514 147.949 147.856 149.659 149.842 
149.032 148.56 148.748 148.892 148.442 151.014 150.715 150.795 149.982 
149.4 149.437 149.328 148.851 151.816 151.353 152.064 151.553 150.543 
150.049 150.135 150.042 149.715 152.509 152.148 152.9 152.878 152.181 
151.426 151.292 151.429 151.303 151.002 152.29 152.694 154.025 153.068 
154.59 156.019 153.222 155.181 156.826 158.437 153.27 155.652 157.658 
159.336 160.853 153.625 156.035 158.397 160.117 161.555 162.748 154.082 
156.242 158.83 160.774 162.108 163.304 164.317 154.096 155.99 158.565 
160.91 162.475 163.7 164.888 165.84 153.748 155.448 157.739 160.23 
162.237 163.709 165.061 166.318 167.158 153.406 154.995 156.956 159.23 
161.431 163.196 164.669 166.114 167.359 168.046 153.078 154.983 153.939 
157.247 156.084 154.901 159.803 158.487 157.169 155.856 162.029 160.881 
159.504 158.085 156.654 163.751 162.884 161.714 160.337 158.823 157.295 
165.308 164.56 163.615 162.405 160.965 159.382 157.806 166.698 165.962 
165.13 164.075 162.756 161.293 159.717 158.13 167.713 166.99 166.213 
165.329 164.128 162.771 161.37 159.826 158.252 168.447 167.877 168.361 
167.731 167.928 167.099 167.47 167.308 167.143 166.38 166.861 166.446 
166.975 166.425 165.344 165.712 165.415 166.018 165.872 165.028 163.904 
164.551 164.472 164.605 164.556 164.12 163.369 162.472 163.645 163.521 
163.572 163.368 163.008 162.54 161.924 161.003 162.582 162.346 162.661 
162.555 162.206 161.728 161.192 160.414 159.368 161.281 161.084 161.411 
161.475 161.326 160.92 160.388 159.701 158.788 157.788 168.194 168.524 
167.659 167.808 166.604 168.273 166.54 165.481 167.397 167.611 165.267 
164.381 166.074 166.7 166.815 164.036 163.056 164.804 165.501 165.97 
165.925 162.62 161.59 163.542 164.28 164.825 165.089 164.953 161.189 
160.259 162.159 162.995 163.532 163.862 164.047 163.948 159.926 159.062 
160.796 161.605 162.176 162.515 162.788 162.942 162.796 158.72 157.862 
159.504 160.189 160.74 161.154 161.478 161.698 161.723 161.506 152.705 
154.249 153.449 155.172 154.14 156.068 155.97 154.797 157.13 158.161 
156.756 155.595 158.055 159.339 160.439 157.615 156.441 158.87 160.312 
161.59 162.504 158.364 157.09 159.58 160.984 162.424 163.446 164.142 
158.814 157.476 160.087 161.449 162.906 164.073 164.909 165.647 158.993 
157.704 160.279 161.668 163.138 164.392 165.383 166.349 167.133 151.297 
151.777 150.471 150.825 149.619 152.374 149.847 148.668 151.255 152.944 
148.849 147.699 150.156 151.744 153.605 147.879 146.783 149.111 150.608 
152.413 154.427 146.939 145.898 148.118 149.551 151.3 153.214 155.199 
146.056 145.096 147.156 148.508 150.217 152.069 153.897 155.749 145.293 
144.425 146.276 147.482 149.056 150.87 152.632 154.358 156.118 144.639 