# vtk DataFile Version 4.0
vtk output
ASCII
DATASET POLYDATA
POINTS 1002 float
-82.6349 -83.9185 69.7219 -82.6015 -83.3579 68.4912 -82.1486 -83.1293 69.2018 
-82.0314 -83.8788 70.4197 -81.4981 -83.0852 69.9198 -82.4998 -84.7209 70.9806 
-81.2904 -83.9635 71.1821 -80.6939 -83.1561 70.6801 -81.8782 -84.7555 71.8156 
-82.3112 -85.6333 72.4123 -80.6215 -84.0203 72.1319 -80.0638 -83.1557 71.6628 
-81.2804 -84.8175 72.8016 -81.8376 -85.6693 73.5143 -82.2247 -86.6429 74.1475 
-80.2207 -84.0064 73.391 -79.7264 -83.1054 72.9392 -80.8229 -84.883 73.973 
-81.3497 -85.8318 74.6542 -81.7485 -86.9075 75.3072 -82.0789 -87.9955 75.9137 
-79.844 -84.1167 74.7645 -79.3791 -83.1941 74.2336 -80.3781 -85.0783 75.2683 
-80.7857 -86.1638 75.7774 -81.0884 -87.3692 76.3445 -81.4212 -88.5523 76.9237 
-81.7609 -89.5891 77.522 -79.2618 -84.4676 75.91 -78.8933 -83.5046 75.3462 
-79.7207 -85.491 76.4357 -80.0982 -86.6469 76.8705 -80.3646 -87.9096 77.3541 
-80.7035 -89.1241 77.9368 -81.1082 -90.2158 78.5386 -81.4501 -91.2222 79.1185 
-78.6778 -84.9926 76.8973 -78.41 -83.9999 76.4645 -79.0245 -86.0486 77.3946 
-79.3996 -87.2004 77.8986 -79.757 -88.4562 78.4154 -80.1392 -89.6983 79.01 
-80.5576 -90.8572 79.6388 -80.9213 -91.9779 80.1999 -81.1882 -93.0583 80.6577 
-78.2436 -85.5524 77.977 -77.9837 -84.5636 77.6985 -78.5426 -86.6413 78.356 
-78.8644 -87.7935 78.8998 -79.2782 -89.0098 79.5112 -79.7308 -90.2892 80.0892 
-80.106 -91.5815 80.6592 -80.4164 -92.8399 81.2174 -80.6845 -94.0214 81.6753 
-80.8977 -95.0553 82.0048 -77.9064 -86.0251 79.0981 -77.6338 -85.0684 78.8704 
-78.2222 -87.1558 79.3934 -78.4917 -88.381 79.8931 -78.846 -89.596 80.543 
-79.323 -90.8479 81.1229 -79.6932 -92.2309 81.5837 -79.918 -93.6622 82.0661 
-80.1608 -94.9717 82.5714 -80.4201 -96.0751 82.9662 -80.6225 -96.9629 83.2182 
-82.2881 -82.6581 67.7739 -81.8284 -82.3438 68.5813 -82.0092 -81.8103 67.2016 
-81.4236 -81.4991 68.0482 -81.6069 -80.9186 66.6804 -81.1127 -82.2407 69.3815 
-80.8348 -80.662 67.5338 -81.018 -80.0681 66.1543 -80.6226 -81.3389 68.9139 
-80.2776 -82.2292 70.2168 -80.234 -79.7528 67.1132 -80.5261 -79.0851 65.8564 
-80.0343 -80.4012 68.4975 -79.8528 -81.1855 69.8708 -79.6957 -82.1577 71.2916 
-79.8966 -78.6203 66.9669 -80.3347 -77.8834 65.9314 -79.5406 -79.368 68.2164 
-79.3394 -80.1286 69.6218 -79.297 -81.0732 71.0719 -79.3406 -82.1255 72.5963 
-79.7939 -77.4113 67.1231 -80.3647 -76.7529 66.2676 -79.2674 -78.2453 68.1665 
-78.8124 -79.1273 69.4585 -78.6523 -80.0965 70.9325 -78.8027 -81.1462 72.3689 
-78.9426 -82.2653 73.8414 -79.8727 -76.4382 67.5934 -80.6096 -75.9452 66.8408 
-79.2251 -77.191 68.4633 -78.561 -78.1443 69.5102 -78.042 -79.2192 70.8423 
-78.0499 -80.2832 72.2257 -78.3874 -81.3573 73.5728 -78.5141 -82.6138 75.0392 
-80.1976 -75.8091 68.3758 -81.0731 -75.4513 67.6645 -79.4438 -76.3844 69.1545 
-78.7535 -77.2181 69.9837 -78.0162 -78.2867 71.0345 -77.6116 -79.3996 72.2585 
-77.834 -80.4799 73.5001 -78.1402 -81.7301 74.897 -78.1088 -83.1708 76.402 
-80.6818 -75.4631 69.3061 -81.5933 -75.1969 68.6117 -79.8549 -75.8963 70.0467 
-79.2056 -76.5479 70.7779 -78.5243 -77.4453 71.6296 -77.8502 -78.4731 72.6685 
-77.6711 -79.5522 73.7666 -77.8985 -80.833 74.9954 -77.9294 -82.3437 76.4349 
-77.7265 -83.8152 77.8094 -81.4795 -75.2451 70.033 -80.5411 -75.5662 70.7922 
-81.2937 -75.4833 71.5051 -80.4523 -75.9316 72.2778 -81.2127 -75.9738 72.9688 
-79.8022 -76.1024 71.5406 -80.5191 -76.6045 73.8159 -81.3381 -76.7071 74.5062 
-79.8293 -76.6556 73.098 -79.2064 -76.8696 72.361 -80.6955 -77.4085 75.5295 
-81.5323 -77.544 76.1338 -79.8778 -77.4497 74.8369 -79.1752 -77.4914 74.1608 
-78.4882 -77.7652 73.3952 -80.8642 -78.2405 77.2735 -81.6669 -78.4745 77.6998 
-79.9856 -78.26 76.6826 -79.1405 -78.2878 76.0971 -78.4751 -78.3352 75.4015 
-77.9578 -78.7672 74.51 -80.9877 -79.3204 78.8026 -81.7534 -79.6289 79.0842 
-80.2006 -79.2442 78.328 -79.3433 -79.288 77.8314 -78.6103 -79.3074 77.3169 
-78.1689 -79.5281 76.5415 -77.9325 -80.1129 75.6418 -81.0722 -80.6663 80.1185 
-81.8172 -80.9184 80.3073 -80.4008 -80.5713 79.7382 -79.6915 -80.613 79.2699 
-78.943 -80.672 78.8665 -78.3987 -80.8368 78.3702 -78.0834 -81.259 77.6589 
-77.9118 -81.8208 76.9554 -81.1636 -81.997 81.3115 -81.8873 -82.1543 81.4067 
-80.5324 -81.9602 81.061 -79.9274 -82.0335 80.6562 -79.2332 -82.1106 80.2594 
-78.6012 -82.2439 79.8917 -78.1362 -82.588 79.4028 -77.7799 -83.0586 78.8331 
-77.6197 -83.475 78.3011 -81.306 -83.2379 82.369 -81.9867 -83.3358 82.3779 
-80.6872 -83.2279 82.2598 -80.1005 -83.3205 81.9913 -79.4295 -83.4148 81.6461 
-78.7728 -83.4972 81.3136 -78.2629 -83.7347 80.8992 -77.8118 -84.1353 80.3764 
-77.4641 -84.5145 79.8665 -77.4112 -84.8069 79.381 -77.555 -86.1125 80.0794 
-77.4064 -85.8776 80.6322 -77.6208 -87.442 81.3767 -77.6002 -85.6439 81.1938 
-77.6173 -87.3404 82.051 -77.7253 -89.2898 82.9457 -78.0365 -85.3377 81.8075 
-77.9408 -87.2493 82.7493 -77.8681 -89.3507 83.7672 -77.9744 -91.4058 84.6627 
-78.4842 -85.0335 82.3428 -78.403 -87.0443 83.3516 -78.3126 -89.295 84.4019 
-78.2804 -91.4251 85.4086 -78.5568 -93.4753 86.2065 -79.0288 -84.875 82.6844 
-78.856 -86.7959 83.7065 -78.8527 -89.0555 84.7321 -78.8635 -91.2507 85.7632 
-78.9835 -93.4501 86.7265 -79.1836 -95.8836 87.5623 -79.746 -84.7775 82.9673 
-79.4428 -86.6008 83.9382 -79.3465 -88.7567 84.9486 -79.4291 -90.9874 85.9879 
-79.5352 -93.35 87.0097 -79.5587 -96.0294 88.0198 -79.476 -98.8353 88.8502 
-80.4298 -84.654 83.2262 -80.1397 -86.4205 84.1956 -79.8831 -88.4626 85.2483 
-79.8339 -90.6682 86.3763 -79.9284 -93.1638 87.4145 -79.9167 -96.0221 88.4108 
-79.7479 -98.9597 89.3464 -79.5579 -101.662 89.9214 -81.0412 -84.5902 83.3406 
-80.7854 -86.2886 84.3487 -80.4879 -88.2161 85.4629 -80.2741 -90.288 86.7054 
-80.2402 -92.7405 87.8351 -80.2065 -95.6684 88.7662 -80.0357 -98.6769 89.6588 
-79.8216 -101.428 90.3543 -79.6548 -103.874 90.5769 -81.6917 -84.608 83.3239 
-81.4116 -86.2233 84.331 -81.1182 -88.0529 85.441 -80.8577 -89.9616 86.6926 
-80.7164 -92.1838 87.906 -80.6184 -94.9614 88.8711 -80.4314 -97.9648 89.7045 
-80.1914 -100.769 90.4593 -79.9765 -103.321 90.8793 -79.7811 -105.65 90.8346 
-77.871 -87.2894 80.3835 -77.8516 -88.96 81.845 -78.1459 -88.7013 80.8195 
-77.9364 -91.0515 83.5092 -78.1012 -90.6113 82.3805 -78.4184 -90.1171 81.4384 
-78.3846 -93.282 85.2324 -78.3778 -92.7944 84.0206 -78.5144 -92.1185 82.9781 
-78.8691 -91.4359 82.0761 -78.9941 -95.7898 86.884 -78.9419 -95.3661 85.8091 
-78.9217 -94.5752 84.6379 -79.0117 -93.6662 83.5811 -79.306 -92.9005 82.5642 
-79.2973 -98.8925 88.3555 -79.2615 -98.6254 87.586 -79.2862 -97.9068 86.5574 
-79.2656 -96.7685 85.3751 -79.2964 -95.5719 84.1487 -79.5229 -94.5818 83.017 
-79.372 -102.089 89.4703 -79.3005 -102.149 88.8913 -79.3636 -101.762 88.1902 
-79.4399 -100.77 87.2378 -79.4436 -99.1857 86.0193 -79.491 -97.5278 84.7241 
-79.7406 -96.166 83.5615 -79.4615 -104.702 90.1283 -79.3656 -105.159 89.5587 
-79.4026 -105.152 89.0154 -79.5142 -104.615 88.3951 -79.6082 -103.269 87.5293 
-79.6778 -101.188 86.4421 -79.8004 -99.0997 85.2418 -80.0542 -97.4414 84.0523 
-79.5388 -106.74 90.4016 -79.3998 -107.527 89.7972 -79.4027 -107.824 89.2051 
-79.4998 -107.617 88.6778 -79.6129 -106.803 88.1127 -79.7485 -105.072 87.4495 
-79.9121 -102.637 86.6144 -80.0847 -100.288 85.5374 -80.3101 -98.438 84.341 
-79.6902 -108.208 90.5915 -79.3739 -109.409 90.0036 -79.514 -110.966 90.0928 
-79.0715 -112.285 89.3721 -79.371 -113.551 89.4319 -79.21 -110.204 89.2706 
-78.7843 -115.118 88.5686 -79.3515 -115.652 88.6408 -78.8156 -113.129 88.4529 
-79.2371 -110.354 88.5561 -78.6931 -117.361 87.6861 -79.5363 -117.033 87.7884 
-78.4435 -115.963 87.483 -78.8592 -113.019 87.5844 -79.3737 -109.838 87.9668 
-79.0593 -118.313 86.8529 -80.1642 -117.446 87.0129 -78.436 -117.721 86.6523 
-78.6326 -115.249 86.6618 -79.1646 -111.92 87.0786 -79.5721 -108.555 87.5341 
-80.0546 -117.932 86.1408 -81.1494 -116.891 86.4335 -79.057 -117.816 86.0233 
-78.8824 -116.092 86.0874 -79.2661 -113.267 86.4306 -79.6093 -109.941 86.9349 
-79.8429 -106.256 87.1242 -81.2259 -116.7 85.7143 -81.9873 -115.524 86.1294 
-80.1679 -116.814 85.558 -79.5779 -115.569 85.7141 -79.7234 -113.359 86.0866 
-79.9554 -110.526 86.5273 -80.0316 -107.025 86.7472 -80.0993 -103.36 86.4212 
-82.0385 -114.736 85.7009 -82.5221 -113.471 86.0836 -81.2377 -115.115 85.4577 
-80.4805 -114.25 85.5324 -80.3182 -112.436 85.9004 -80.4777 -110.072 86.3127 
-80.4415 -107.08 86.455 -80.332 -103.715 86.1181 -80.3139 -100.732 85.3357 
-82.5564 -112.106 85.919 -82.9867 -111.013 86.1589 -82.0069 -112.619 85.7011 
-81.3681 -112.15 85.6607 -81.0057 -110.754 85.8962 -81.0192 -108.786 86.2328 
-80.9888 -106.34 86.3048 -80.7674 -103.527 85.8868 -80.6058 -100.864 85.0724 
-80.5875 -98.7104 84.1206 -80.1078 -105.889 91.009 -80.062 -108.681 90.7217 
-80.6158 -105.921 91.0445 -80.6496 -108.758 90.7348 -81.2733 -105.466 91.0088 
-80.0009 -111.432 90.1516 -81.3609 -108.023 90.7284 -81.9631 -104.415 90.8738 
-80.6735 -111.216 90.0932 -80.0269 -113.568 89.3895 -82.0567 -106.587 90.6815 
-82.5459 -103.134 90.5101 -81.3814 -110.078 90.1269 -80.7424 -112.834 89.244 
-80.1555 -115.017 88.5226 -82.6136 -104.997 90.3845 -83.0007 -101.733 89.9152 
-82.057 -108.361 90.2242 -81.4534 -111.403 89.3549 -80.9444 -113.853 88.4269 
-80.5152 -115.891 87.7478 -83.1017 -103.134 89.7811 -83.4954 -99.9094 89.2167 
-82.6387 -106.418 90.0024 -82.1842 -109.452 89.5755 -81.7483 -112.152 88.6932 
-81.3932 -114.352 87.9148 -81.2136 -115.957 87.2148 -83.7344 -100.784 89.0797 
-84.1275 -97.878 88.482 -83.2559 -104.035 89.4659 -82.8747 -107.093 89.4719 
-82.571 -109.813 88.988 -82.2153 -112.173 88.3063 -81.9636 -113.922 87.624 
-81.9494 -115.022 86.8514 -84.465 -98.4668 88.3652 -84.7667 -96.125 87.6867 
-84.0429 -101.359 88.9181 -83.649 -104.403 89.2044 -83.3858 -107.126 89.0672 
-83.0943 -109.433 88.5886 -82.7345 -111.262 87.9886 -82.5313 -112.516 87.2937 
-82.5248 -113.261 86.5857 -85.0816 -96.5685 87.5286 -85.2945 -94.6802 86.8169 
-84.8054 -98.926 88.266 -84.4976 -101.68 88.8581 -84.2344 -104.398 89.0535 
[...]
CELL_DATA 2000
SCALARS Distance double
LOOKUP_TABLE default
134.426 134.371 134.742 135.438 134.291 134.684 135.417 135.8 136.545 
134.308 134.654 135.469 135.839 136.69 137.014 137.852 134.607 134.836 
135.735 136.022 136.972 137.27 138.217 138.476 139.408 135.087 135.284 
136.208 136.431 137.391 137.646 138.616 138.889 139.852 140.112 141.056 
135.509 135.753 136.655 136.913 137.83 138.086 139.016 139.291 140.254 
140.542 141.517 141.771 142.721 135.951 136.154 137.05 137.307 138.233 
138.498 139.452 139.714 140.72 140.985 142.038 142.282 143.329 143.513 
144.508 136.571 136.68 137.596 137.764 138.737 138.95 139.988 140.226 
141.322 141.555 142.679 142.898 144.023 144.21 145.286 145.4 146.384 
137.286 137.368 138.292 138.412 139.402 139.559 140.625 140.841 141.976 
142.219 143.356 143.584 144.704 144.924 146.024 146.199 147.224 147.295 
148.205 133.771 132.8 133.43 133.713 131.776 132.432 132.693 133.344 
133.608 130.661 131.348 131.588 132.277 132.533 133.213 133.55 129.539 
130.208 130.447 131.14 131.414 132.118 132.483 133.235 133.763 128.499 
129.119 129.363 130.022 130.301 131.001 131.395 132.173 132.724 133.563 
134.21 127.65 128.147 128.382 128.977 129.222 129.888 130.243 131.05 
131.598 132.494 133.14 134.016 134.649 127.239 127.482 127.713 128.116 
128.348 128.859 129.15 129.868 130.384 131.307 131.989 132.925 133.613 
134.46 135.117 127.355 127.341 127.587 127.716 127.994 128.223 128.52 
128.936 129.423 130.153 130.895 131.808 132.63 133.499 134.272 135.043 
135.769 127.801 127.65 127.893 127.844 128.171 128.192 128.558 128.657 
129.132 129.482 130.217 130.9 131.839 132.656 133.579 134.327 135.136 
135.807 136.528 128.18 128.829 128.391 128.255 129.692 129.132 129.016 
128.577 128.542 130.886 130.168 130.089 129.496 129.49 128.974 128.969 
132.336 131.535 131.48 130.752 130.757 130.087 130.074 129.472 129.535 
133.86 133.061 133.034 132.254 132.256 131.487 131.487 130.744 130.827 
130.22 130.552 135.408 134.617 134.64 133.855 133.91 133.091 133.159 
132.325 132.497 131.742 132.127 131.545 132.148 136.967 136.195 136.264 
135.499 135.634 134.83 134.99 134.138 134.386 133.579 133.993 133.295 
133.845 133.28 133.894 138.462 137.749 137.849 137.136 137.316 136.579 
136.784 135.999 136.242 135.481 135.825 135.144 135.568 134.965 135.424 
134.917 135.411 139.862 139.218 139.357 138.702 138.909 138.238 138.457 
137.741 137.956 137.242 137.505 136.849 137.154 136.554 136.88 136.352 
136.731 136.297 136.742 137.625 137.619 138.068 139.113 137.794 138.155 
139.254 139.763 141.073 138.126 138.44 139.593 140.047 141.461 141.98 
143.44 138.505 138.821 139.998 140.456 141.887 142.439 143.949 144.432 
145.849 138.936 139.223 140.364 140.823 142.195 142.8 144.283 144.879 
146.341 146.828 148.302 139.423 139.688 140.782 141.172 142.464 143.028 
144.487 145.136 146.677 147.286 148.893 149.424 151.113 139.863 140.157 
141.238 141.598 142.831 143.308 144.731 145.346 146.952 147.634 149.355 
150.007 151.756 152.333 154.007 140.257 140.555 141.624 142.011 143.211 
143.671 145.019 145.603 147.147 147.882 149.579 150.372 152.074 152.807 
154.379 155.001 156.355 140.686 140.942 141.966 142.351 143.514 143.987 
145.251 145.823 147.22 147.961 149.508 150.392 151.968 152.858 154.313 
155.1 156.36 156.993 158.024 137.973 139.514 138.817 139.055 141.465 
140.556 140.803 139.998 140.226 143.764 142.696 142.887 141.904 142.116 
141.243 141.485 146.174 145.081 145.251 144.126 144.29 143.264 143.497 
142.592 142.866 148.76 147.61 147.942 146.676 146.9 145.639 145.855 
144.74 144.995 144.026 144.274 151.725 150.493 151.105 149.703 150.172 
148.633 148.944 147.426 147.651 146.335 146.548 145.456 145.657 154.689 
153.627 154.408 153.117 153.789 152.244 152.705 150.943 151.169 149.394 
149.512 147.982 148.117 146.885 147.031 157.022 156.352 157.104 156.223 
156.864 155.72 156.176 154.706 154.907 153.132 153.118 151.272 151.208 
149.583 149.574 148.254 148.271 158.628 158.264 158.906 158.416 158.918 
158.246 158.571 157.644 157.774 156.506 156.426 154.812 154.569 152.811 
152.54 150.928 150.724 149.387 149.249 159.574 160.965 160.148 159.844 
162.286 161.491 161.133 160.304 159.867 163.564 162.839 162.492 161.58 
161.061 160.178 159.553 164.64 164.13 163.921 163.005 162.395 161.363 
160.623 159.699 158.845 165.268 165.051 164.908 164.287 163.626 162.649 
161.724 160.732 159.782 158.822 157.668 165.396 165.407 165.147 164.865 
164.126 163.508 162.471 161.664 160.569 159.679 158.459 157.41 155.924 
165.012 165.253 164.905 164.787 163.967 163.588 162.54 162.04 160.933 
160.267 158.979 158.059 156.511 155.425 153.8 164.052 164.565 164.248 
164.347 163.531 163.27 162.225 161.874 160.83 160.388 159.152 158.406 
156.832 155.855 154.19 153.22 151.757 162.676 163.339 163.027 163.423 
162.657 162.667 161.617 161.437 160.379 160.123 158.955 158.423 156.917 
156.068 154.409 153.506 152.038 151.258 150.088 159.588 160.037 160.28 
161.083 160.251 160.719 161.647 161.769 162.446 159.993 160.766 161.795 
162.21 162.896 163.01 163.574 159.312 160.28 161.343 162.087 162.804 
163.197 163.67 163.933 164.433 158.387 159.446 160.479 161.408 162.175 
162.827 163.318 163.768 164.212 164.613 165.039 157.168 158.351 159.324 
160.393 161.157 162.009 162.566 163.223 163.696 164.235 164.648 165.05 
165.269 155.695 156.93 157.844 159.056 159.816 160.847 161.428 162.294 
162.782 163.526 163.877 164.46 164.582 164.988 164.873 154.241 155.371 
156.22 157.458 158.282 159.427 160.097 161.065 161.571 162.42 162.721 
163.432 163.432 163.998 163.76 164.23 163.855 152.926 153.916 154.656 
155.829 156.68 157.894 158.695 159.752 160.341 161.191 161.509 162.188 
162.194 162.726 162.473 162.941 162.569 163.013 162.545 141.237 142.519 
142.081 142.554 143.898 143.476 144.05 143.567 144.142 145.287 144.922 
145.606 145.157 145.812 145.281 145.916 146.632 146.325 147.108 146.753 
147.53 147.038 147.766 147.175 147.908 147.94 147.668 148.528 148.275 
149.227 148.837 149.725 149.146 149.987 149.339 150.198 149.206 148.972 
149.882 149.709 150.816 150.587 151.676 151.205 152.153 151.513 152.417 
151.749 152.635 150.381 150.229 151.182 151.069 152.24 152.161 153.383 
153.128 154.179 153.676 154.585 153.965 154.828 154.166 154.954 151.384 
151.363 152.373 152.344 153.534 153.543 154.805 154.724 155.852 155.562 
156.522 156.049 156.905 156.304 157.054 156.366 156.986 152.189 152.298 
153.359 153.455 154.661 154.768 156.04 156.068 157.233 157.097 158.118 
157.833 158.742 158.287 159.027 158.394 158.939 158.218 158.625 140.752 
140.39 141.018 141.942 139.927 140.606 141.511 142.219 143.219 139.451 
140.12 141.038 141.751 142.743 143.503 144.547 139.089 139.703 140.631 
141.297 142.287 143.021 144.078 144.844 145.89 138.726 139.355 140.253 
140.915 141.859 142.567 143.595 144.373 145.451 146.202 147.215 138.307 
138.922 139.776 140.479 141.377 142.096 143.039 143.83 144.867 145.709 
146.751 147.506 148.464 138.082 138.535 139.352 139.979 140.884 141.58 
142.485 143.224 144.16 145.01 146.006 146.904 147.873 148.678 149.572 
138.138 138.434 139.188 139.652 140.53 141.135 142.047 142.701 143.577 
144.297 145.186 146.044 146.975 147.906 148.808 149.67 150.501 138.256 
138.524 139.19 139.558 140.333 140.841 141.698 142.299 143.154 143.779 
144.603 145.29 146.139 146.965 147.849 148.761 149.606 150.484 151.26 
138.471 139.079 138.986 139.438 139.802 139.666 140.18 140.044 140.571 
140.68 140.481 141.003 140.838 141.404 141.274 141.892 141.612 141.396 
141.892 141.698 142.264 142.135 142.795 142.681 143.342 142.536 142.318 
142.789 142.58 143.142 143.02 143.734 143.637 144.365 144.182 144.818 
143.451 143.244 143.72 143.484 144.049 143.916 144.69 144.631 145.457 
145.288 145.978 145.691 146.324 144.278 144.132 144.644 144.441 145.024 
144.868 145.647 145.601 146.478 146.393 147.144 146.899 147.538 147.251 
147.95 144.973 144.885 145.427 145.333 145.982 145.877 146.643 146.568 
147.388 147.343 148.101 147.987 148.654 148.45 149.136 148.922 149.667 
145.625 145.536 146.091 146.071 146.801 146.806 147.614 147.556 148.309 
148.215 148.924 148.855 149.582 149.494 150.248 150.093 150.855 150.642 
151.357 146.175 147.358 146.7 146.706 148.892 148.102 148.173 147.436 
147.551 150.568 149.781 149.908 149.09 149.213 148.411 148.469 152.443 
151.599 151.829 150.924 151.03 150.136 150.117 149.252 149.149 154.851 
153.845 154.312 153.139 153.349 152.144 152.141 151.007 150.875 149.881 
149.75 157.394 156.526 157.198 155.991 156.368 154.9 155.034 153.481 
153.445 151.973 151.856 150.627 150.527 159.264 158.806 159.44 158.7 
159.097 157.972 158.156 156.686 156.697 155.01 154.853 153.172 152.944 
151.529 151.338 160.505 160.24 160.734 160.392 160.725 160.17 160.322 
159.433 159.388 158.122 157.839 156.259 155.789 154.157 153.698 152.295 
151.967 161.667 161.337 161.772 161.434 161.763 161.396 161.575 161.056 
160.996 160.217 159.879 158.768 158.173 156.775 156.082 154.639 154.062 
152.794 152.396 146.129 146.351 146.579 147.282 146.379 146.784 147.609 
147.879 148.746 146.217 146.75 147.703 148.158 149.093 149.41 150.343 
146.033 146.574 147.558 148.155 149.171 149.654 150.601 150.973 152.04 
145.786 146.363 147.291 147.944 148.974 149.603 150.594 151.11 152.191 
152.751 154.159 145.361 146.015 146.908 147.605 148.597 149.312 150.331 
150.985 152.085 152.777 154.169 154.991 156.552 144.897 145.543 146.438 
147.149 148.111 148.861 149.877 150.632 151.739 152.539 153.867 154.805 
156.299 157.224 158.524 144.535 145.117 145.981 146.657 147.576 148.32 
149.301 150.109 151.199 152.074 153.326 154.319 155.723 156.766 158.096 
158.929 159.934 144.234 144.769 145.56 146.19 147.035 147.746 148.666 
149.478 150.533 151.446 152.638 153.642 154.951 156.04 157.386 158.4 
159.582 160.283 161.185 145.52 144.469 145.243 145.625 143.084 143.995 
144.355 145.211 145.533 141.779 142.58 142.951 143.816 144.153 145.013 
145.328 140.831 141.473 141.854 142.531 142.903 143.66 144.034 144.841 
145.191 139.818 140.568 140.951 141.594 141.918 142.55 142.885 143.612 
143.946 144.718 144.983 138.512 139.376 139.73 140.554 140.806 141.526 
141.715 142.443 142.65 143.428 143.606 144.39 144.54 137.291 138.037 
138.334 139.164 139.382 140.199 140.321 141.118 141.236 142.042 142.173 
142.961 143.09 143.884 144.061 136.295 136.913 137.157 137.832 138.023 
138.743 138.879 139.64 139.78 140.58 140.755 141.543 141.725 142.484 
142.694 143.476 143.731 135.345 135.935 136.129 136.732 136.889 137.504 
137.645 138.299 138.465 139.185 139.395 140.165 140.397 141.169 141.414 
142.179 142.448 143.217 143.487 134.858 134.301 134.928 135.609 133.717 
134.34 135.031 135.673 136.35 133.251 133.795 134.495 135.108 135.843 
136.442 137.122 132.991 133.43 134.149 134.67 135.447 136.007 136.756 
137.272 137.961 132.928 133.27 133.982 134.422 135.189 135.693 136.442 
136.944 137.648 138.148 138.863 133.023 133.283 133.962 134.319 135.047 
135.478 136.179 136.639 137.313 137.82 138.552 139.094 139.859 133.267 
133.45 134.137 134.39 135.12 135.42 136.129 136.458 137.153 137.549 
138.324 138.82 139.669 140.164 140.947 133.664 133.779 134.504 134.678 
135.448 135.637 136.398 136.59 137.365 137.599 138.445 138.774 139.684 
140.082 140.946 141.315 142.051 134.169 134.245 134.965 135.109 135.874 
136.039 136.802 136.972 137.768 137.968 138.832 139.074 139.965 140.246 
141.091 141.394 142.148 142.436 143.102 134.683 135.728 135.29 135.496 
136.811 136.355 136.575 136.153 136.388 138.061 137.488 137.681 137.224 
137.476 137.062 137.311 139.616 138.893 139.072 138.433 138.687 138.187 
138.509 138.047 138.333 141.314 140.578 140.806 140.023 140.255 139.557 
139.879 139.331 139.708 139.172 139.471 142.99 142.299 142.596 141.839 
142.072 141.27 141.498 140.805 141.125 140.576 140.916 140.346 140.598 
144.745 144.019 144.36 143.628 143.91 143.111 143.306 142.495 142.703 
142.026 142.308 141.746 142.013 141.435 141.648 146.587 145.84 146.194 
145.44 145.764 144.966 145.206 144.345 144.532 143.701 143.921 143.204 
143.45 142.821 143.042 142.447 142.644 148.379 147.673 148.023 147.292 
147.615 146.841 147.088 146.251 146.431 145.573 145.747 144.926 145.109 
144.351 144.534 143.853 144.032 143.418 143.588 144.3 144.799 144.897 
145.622 145.372 145.459 146.239 146.305 147.088 146.039 146.119 146.966 
146.999 147.851 147.873 148.741 146.735 146.843 147.775 147.817 148.772 
148.772 149.772 149.718 150.698 147.451 147.582 148.608 148.693 149.798 
149.834 151.007 150.944 152.078 151.885 152.912 148.164 148.347 149.5 
149.63 150.926 151.009 152.395 152.356 153.66 153.443 154.589 154.25 
155.286 148.747 149.05 150.33 150.598 152.087 152.286 153.876 153.903 
155.368 155.163 156.427 156.068 157.199 156.754 157.767 149.167 149.569 
150.913 151.372 152.981 153.429 155.148 155.397 156.937 156.882 158.183 
157.932 159.117 158.739 159.781 159.25 160.052 149.514 149.952 151.305 
151.865 153.5 154.159 155.914 156.457 157.989 158.221 159.441 159.46 
160.577 160.485 161.514 161.187 161.933 161.329 161.759 127.714 127.256 
127.464 127.542 127.126 127.129 127.236 127.442 127.71 127.496 127.214 
127.283 127.302 127.602 127.805 128.227 128.305 127.8 127.752 127.516 
127.694 127.761 128.119 128.382 128.863 129.359 128.745 128.629 128.141 
128.135 127.924 128.117 128.245 128.677 129.031 129.617 130.51 129.876 
129.8 129.166 129.116 128.573 128.664 128.419 128.827 128.958 129.637 
129.942 130.658 131.62 131.04 131.016 130.41 130.435 129.776 129.89 
129.321 129.709 129.46 130.175 130.221 131.032 131.164 131.874 132.625 
132.101 132.083 131.578 131.653 131.116 131.273 130.706 131.031 130.603 
131.188 131.008 131.747 131.724 132.434 132.452 133.081 133.602 133.087 
133.073 132.593 132.671 132.236 132.405 131.979 132.242 131.861 132.267 
132.022 132.567 132.471 133.077 133.062 133.663 133.664 134.23 128.059 
127.881 128.148 128.631 127.999 128.069 128.528 128.822 129.445 128.506 
128.372 128.785 128.87 129.514 129.796 130.53 129.224 129.022 129.431 
129.327 129.941 130.043 130.797 131.003 131.723 130.031 129.807 130.245 
130.071 130.615 130.588 131.262 131.369 132.056 132.204 132.857 130.986 
130.684 131.113 130.899 131.387 131.277 131.848 131.86 132.48 132.57 
133.212 133.351 134.025 132.072 131.689 132.062 131.787 132.251 132.065 
132.605 132.499 133.097 133.067 133.712 133.767 134.468 134.587 135.292 
133.214 132.783 133.1 132.762 133.192 132.955 133.488 133.323 133.924 
133.803 134.436 134.375 135.041 135.079 135.768 135.862 136.496 134.344 
133.91 134.182 133.804 134.165 133.892 134.358 134.19 134.741 134.638 
135.22 135.138 135.71 135.674 136.255 136.31 136.893 136.985 137.509 
128.344 128.95 128.751 129.025 129.788 129.483 129.79 129.531 129.895 
130.824 130.432 130.768 130.431 130.824 130.547 131.062 131.938 131.512 
131.831 131.479 131.902 131.583 132.091 131.847 132.472 133.063 132.626 
132.937 132.568 133.004 132.689 133.205 132.925 133.514 133.305 133.967 
134.245 133.776 134.107 133.705 134.148 133.815 134.33 134.034 134.605 
134.364 135.008 134.82 135.503 135.48 134.995 135.3 134.881 135.299 
134.968 135.466 135.161 135.7 135.439 136.068 135.878 136.572 136.385 
137.062 136.648 136.202 136.442 136.026 136.373 136.066 136.55 136.282 
136.809 136.531 137.116 136.913 137.598 137.446 138.128 137.931 138.549 
137.66 137.287 137.498 137.098 137.386 137.077 137.545 137.326 137.892 
137.643 138.211 137.961 138.587 138.426 139.098 138.951 139.566 139.361 
139.919 145.224 144.508 144.67 144.191 143.743 143.884 143.29 143.436 
142.804 142.901 143.046 142.388 142.491 141.818 141.984 141.464 142.003 
142.16 141.518 141.601 140.936 141.051 140.534 140.782 140.454 141.069 
141.242 140.618 140.737 140.091 140.207 139.643 139.856 139.419 139.77 
139.397 140.111 140.284 139.654 139.816 139.173 139.329 138.71 138.908 
138.347 138.645 138.151 138.552 138.11 139.232 139.342 138.723 138.863 
138.257 138.404 137.794 137.944 137.346 137.551 137.019 137.321 136.887 
137.275 136.932 138.543 138.56 137.968 138.021 137.466 137.562 137.018 
137.102 136.538 136.632 136.105 136.288 135.859 136.157 135.833 136.22 
135.961 137.994 137.973 137.397 137.374 136.815 136.854 136.33 136.399 
135.861 135.915 135.377 135.473 135.004 135.209 134.836 135.162 134.87 
135.281 135.026 
POINT_DATA 1002
SCALARS Distance double
LOOKUP_TABLE default
135.105 134.108 134.066 135.058 133.991 136.154 135.007 133.88 136.189 
137.295 135.079 133.968 136.324 137.56 138.706 135.466 134.391 136.665 
137.929 139.167 140.356 135.999 134.875 137.165 138.348 139.577 140.817 
141.999 136.39 135.265 137.58 138.751 139.954 141.236 142.502 143.666 
136.81 135.781 137.955 139.169 140.442 141.768 143.114 144.377 145.487 
137.451 136.486 138.531 139.728 141.07 142.457 143.815 145.144 146.342 
147.328 138.17 137.205 139.258 140.421 141.729 143.132 144.484 145.816 
147.116 148.219 149.071 133.141 133.087 132.175 132.038 131.119 132.957 
130.889 129.979 131.839 132.806 129.761 128.881 130.695 131.712 132.934 
128.72 127.9 129.613 130.601 131.876 133.367 127.827 127.227 128.604 
129.455 130.678 132.245 133.811 127.396 127.099 127.923 128.524 129.476 
131.002 132.722 134.308 127.534 127.439 127.837 128.23 128.814 129.983 
131.703 133.469 135.043 127.983 127.985 128.167 128.515 128.935 129.655 
131.019 132.799 134.473 135.896 128.577 128.619 129.298 129.485 130.298 
128.948 130.726 131.638 130.06 129.465 132.243 133.13 131.475 130.741 
130.022 133.815 134.639 133.048 132.25 131.477 130.989 135.402 136.186 
134.707 133.98 133.252 132.766 132.632 137.001 137.717 136.393 135.807 
135.186 134.724 134.494 134.415 138.534 139.14 138.018 137.542 137.007 
136.536 136.221 135.993 135.87 139.983 140.467 139.557 139.156 138.676 
138.187 137.795 137.452 137.197 137.128 138.545 138.534 140.262 138.737 
140.495 142.466 139.134 140.912 142.982 144.876 139.536 141.326 143.427 
145.441 147.232 139.949 141.611 143.652 145.773 147.811 149.865 140.441 
141.959 143.826 145.986 148.276 150.598 152.882 140.877 142.398 144.142 
146.23 148.644 151.152 153.525 155.619 141.234 142.762 144.478 146.44 
148.776 151.325 153.751 155.865 157.586 141.61 143.058 144.724 146.553 
148.671 151.082 153.504 155.689 157.53 158.961 139.739 141.672 141.003 
143.953 143.041 142.309 146.415 145.388 144.444 143.74 149.185 148.228 
147.086 146.037 145.211 152.434 151.702 150.591 149.159 147.763 146.677 
155.575 155.226 154.448 153.087 151.268 149.513 148.167 157.868 157.876 
157.497 156.593 155.05 153.042 151.075 149.484 159.344 159.512 159.372 
158.85 157.885 156.352 154.322 152.229 150.463 160.422 160.685 161.798 
162.001 163.069 160.724 163.459 164.173 162.028 160.445 164.769 164.987 
163.543 161.629 159.811 165.402 165.421 164.556 162.788 160.77 158.779 
165.403 165.369 164.638 163.187 161.448 159.502 157.11 164.993 164.679 
164.323 162.945 161.497 159.866 157.581 154.856 164.028 163.453 163.73 
162.548 161.192 159.815 157.785 155.14 152.583 162.543 162.039 162.518 
161.732 160.582 159.378 157.683 155.292 152.803 150.734 159.389 161.039 
159.695 161.434 159.64 162.48 161.237 159.118 162.729 163.489 160.499 
158.331 162.311 163.384 164.147 159.52 157.319 161.431 162.798 163.783 
164.715 158.222 155.971 160.241 161.812 163.099 164.214 165.022 156.605 
154.517 158.716 160.501 161.983 163.274 164.152 164.578 155.001 153.212 
157.064 159.075 160.726 162.017 162.882 163.271 163.44 153.541 152.028 
155.431 157.555 159.467 160.843 161.677 162.035 162.122 162.154 141.638 
142.999 142.925 144.508 144.267 144.648 145.995 145.602 146.319 146.473 
147.384 146.916 147.95 148.325 148.504 148.709 148.2 149.497 150.24 
150.616 150.846 150.016 149.41 150.929 152.031 152.765 153.085 153.326 
151.27 150.472 152.268 153.529 154.594 155.185 155.491 155.673 152.355 
151.333 153.502 154.838 156.054 156.911 157.476 157.753 157.742 140.153 
141.267 139.754 140.8 139.232 142.47 140.331 138.793 141.986 143.776 
139.989 138.489 141.577 143.304 145.158 139.591 138.102 141.183 142.823 
144.663 146.536 139.076 137.747 140.666 142.288 144.01 145.932 147.789 
138.784 137.717 140.199 141.792 143.381 145.094 146.997 148.841 138.805 
137.895 139.977 141.419 142.936 144.421 146.047 147.887 149.703 138.874 