# vtk DataFile Version 3.0
vtk output
ASCII
DATASET POLYDATA
POINTS 10000 float
-55.8351 -62.9098 70.2637 -55.8351 -62.9098 70.2637 -55.8351 -62.9098 70.2637 
-55.8351 -62.9098 70.2637 -55.8351 -62.9098 70.2637 -55.8351 -62.9098 70.2637 
-55.8351 -62.9098 70.2637 -55.8351 -62.9098 70.2637 -55.8351 -62.9098 70.2637 
-55.8351 -62.9098 70.2637 -55.8351 -62.9098 70.2637 -55.8351 -62.9098 70.2637 
-55.8351 -62.9098 70.2637 -55.8351 -62.9098 70.2637 -55.8351 -62.9098 70.2637 
-55.8351 -62.9098 70.2637 -55.8351 -62.9098 70.2637 -55.8351 -62.9098 70.2637 
-55.8351 -62.9098 70.2637 -55.8351 -62.9098 70.2637 -55.8351 -62.9098 70.2637 
-55.8351 -62.9098 70.2637 -55.8351 -62.9098 70.2637 -55.8351 -62.9098 70.2637 
-55.8351 -62.9098 70.2637 -55.8351 -62.9098 70.2637 -55.8351 -62.9098 70.2637 
-55.8351 -62.9098 70.2637 -55.8351 -62.9098 70.2637 -55.8351 -62.9098 70.2637 
-55.8351 -62.9098 70.2637 -55.8351 -62.9098 70.2637 -55.8351 -62.9098 70.2637 
-55.8351 -62.9098 70.2637 -55.8351 -62.9098 70.2637 -55.8351 -62.9098 70.2637 
-55.8351 -62.9098 70.2637 -55.8351 -62.9098 70.2637 -55.8351 -62.9098 70.2637 
-55.8351 -62.9098 70.2637 -55.8351 -62.9098 70.2637 -55.8351 -62.9098 70.2637 
-55.8351 -62.9098 70.2637 -55.8351 -62.9098 70.2637 -55.8351 -62.9098 70.2637 
-55.8351 -62.9098 70.2637 -55.8351 -62.9098 70.2637 -55.8351 -62.9098 70.2637 
-55.8351 -62.9098 70.2637 -55.8351 -62.9098 70.2637 -55.8351 -62.9098 70.2637 
-55.8351 -62.9098 70.2637 -55.8351 -62.9098 70.2637 -55.8351 -62.9098 70.2637 
-55.8351 -62.9098 70.2637 -55.8351 -62.9098 70.2637 -55.8351 -62.9098 70.2637 
-55.8351 -62.9098 70.2637 -55.8351 -62.9098 70.2637 -55.8351 -62.9098 70.2637 
-55.8351 -62.9098 70.2637 -55.8351 -62.9098 70.2637 -55.8351 -62.9098 70.2637 
-55.8351 -62.9098 70.2637 -55.8351 -62.9098 70.2637 -55.8351 -62.9098 70.2637 
-55.8351 -62.9098 70.2637 -55.8351 -62.9098 70.2637 -55.8351 -62.9098 70.2637 
-55.8351 -62.9098 70.2637 -55.8351 -62.9098 70.2637 -55.8351 -62.9098 70.2637 
-55.8351 -62.9098 70.2637 -55.8351 -62.9098 70.2637 -55.8351 -62.9098 70.2637 
-55.8351 -62.9098 70.2637 -55.8351 -62.9098 70.2637 -55.8351 -62.9098 70.2637 
-55.8351 -62.9098 70.2637 -55.8351 -62.9098 70.2637 -55.8351 -62.9098 70.2637 
-55.8351 -62.9098 70.2637 -55.8351 -62.9098 70.2637 -55.8351 -62.9098 70.2637 
-55.8351 -62.9098 70.2637 -55.8351 -62.9098 70.2637 -55.8351 -62.9098 70.2637 
-55.8351 -62.9098 70.2637 -55.8351 -62.9098 70.2637 -55.8351 -62.9098 70.2637 
-55.8351 -62.9098 70.2637 -55.8351 -62.9098 70.2637 -55.8351 -62.9098 70.2637 
-55.8351 -62.9098 70.2637 -55.8351 -62.9098 70.2637 -55.8351 -62.9098 70.2637 
-55.8351 -62.9098 70.2637 -55.8351 -62.9098 70.2637 -55.8351 -62.9098 70.2637 
-55.8351 -62.9098 70.2637 -56.1092 -63.1413 70.2653 -56.1091 -63.151 70.2352 
-56.108 -63.1598 70.2052 -56.1058 -63.1677 70.1756 -56.1026 -63.1746 70.1464 
-56.0982 -63.1806 70.1177 -56.0928 -63.1856 70.0898 -56.0864 -63.1895 70.0626 
-56.079 -63.1924 70.0364 -56.0705 -63.1942 70.0112 -56.061 -63.1948 69.9872 
-56.0506 -63.1944 69.9643 -56.0393 -63.1928 69.9428 -56.0271 -63.1901 69.9227 
-56.014 -63.1862 69.904 -56.0002 -63.1812 69.8869 -55.9856 -63.175 69.8714 
-55.9703 -63.1678 69.8575 -55.9544 -63.1594 69.8453 -55.9379 -63.15 69.8348 
-55.9209 -63.1395 69.8261 -55.9035 -63.1279 69.8192 -55.8857 -63.1154 69.814 
-55.8677 -63.102 69.8107 -55.8494 -63.0877 69.8091 -55.8311 -63.0725 69.8093 
-55.8127 -63.0566 69.8113 -55.7944 -63.0399 69.8151 -55.7763 -63.0226 69.8205 
-55.7583 -63.0047 69.8277 -55.7407 -62.9864 69.8365 -55.7235 -62.9676 69.8469 
-55.7067 -62.9485 69.859 -55.6905 -62.9291 69.8725 -55.6749 -62.9096 69.8875 
-55.6601 -62.89 69.9038 -55.6459 -62.8705 69.9216 -55.6326 -62.8511 69.9406 
-55.6202 -62.8319 69.9608 -55.6087 -62.8131 69.9821 -55.5982 -62.7946 70.0045 
-55.5887 -62.7766 70.0279 -55.5803 -62.7593 70.0522 -55.5729 -62.7426 70.0773 
-55.5667 -62.7267 70.1031 -55.5615 -62.7116 70.1296 -55.5576 -62.6974 70.1565 
-55.5547 -62.6842 70.184 -55.553 -62.672 70.2118 -55.5525 -62.6609 70.2398 
-55.553 -62.6509 70.268 -55.5547 -62.6422 70.2962 -55.5576 -62.6346 70.3244 
-55.5615 -62.6283 70.3524 -55.5664 -62.6232 70.3802 -55.5725 -62.6194 70.4075 
-55.5795 -62.6169 70.4344 -55.5875 -62.6156 70.4608 -55.5964 -62.6156 70.4864 
-55.6063 -62.6169 70.5112 -55.617 -62.6194 70.5352 -55.6285 -62.623 70.5581 
-55.6408 -62.6279 70.5799 -55.6538 -62.6338 70.6006 -55.6675 -62.6408 70.62 
-55.6818 -62.6489 70.638 -55.6967 -62.6579 70.6546 -55.7121 -62.6679 70.6697 
-55.7279 -62.6787 70.6831 -55.7441 -62.6904 70.6949 -55.7607 -62.7028 70.705 
-55.7775 -62.7159 70.7134 -55.7945 -62.7297 70.7199 -55.8117 -62.744 70.7245 
-55.829 -62.7589 70.7273 -55.8462 -62.7742 70.7281 -55.8634 -62.79 70.7271 
-55.8805 -62.8061 70.7241 -55.8974 -62.8225 70.7191 -55.914 -62.8391 70.7123 
-55.9304 -62.8559 70.7035 -55.9463 -62.8729 70.6929 -55.9618 -62.8899 70.6805 
-55.9768 -62.907 70.6663 -55.9912 -62.924 70.6503 -56.005 -62.9409 70.6327 
-56.0181 -62.9578 70.6135 -56.0305 -62.9744 70.5928 -56.0421 -62.9908 70.5707 
-56.053 -63.0069 70.5472 -56.0629 -63.0227 70.5226 -56.072 -63.0381 70.4968 
-56.0801 -63.053 70.47 -56.0873 -63.0675 70.4424 -56.0935 -63.0814 70.414 
-56.0987 -63.0948 70.385 -56.1029 -63.1075 70.3555 -56.1061 -63.1195 70.3256 
-56.1082 -63.1308 70.2955 -56.1092 -63.1413 70.2653 -56.372 -63.3531 70.2607 
-56.3727 -63.3725 70.1991 -56.3715 -63.3905 70.1379 -56.3683 -63.4068 70.0776 
-56.3631 -63.4214 70.0183 -56.356 -63.4343 69.9604 -56.3469 -63.4452 69.9041 
-56.3358 -63.4542 69.8496 -56.3227 -63.4612 69.7972 -56.3076 -63.4661 69.7472 
-56.2905 -63.469 69.6996 -56.2714 -63.4696 69.6548 -56.2503 -63.4681 69.6128 
-56.2273 -63.4644 69.5739 -56.2024 -63.4584 69.5381 -56.1757 -63.4502 69.5056 
-56.1472 -63.4397 69.4765 -56.117 -63.4269 69.4508 -56.0852 -63.4119 69.4286 
-56.052 -63.3947 69.41 -56.0175 -63.3752 69.395 -55.9819 -63.3536 69.3835 
-55.9452 -63.3298 69.3756 -55.9078 -63.304 69.3712 -55.8698 -63.2762 69.3703 
-55.8314 -63.2466 69.3729 -55.7928 -63.2151 69.3788 -55.7542 -63.1819 69.3879 
-55.7159 -63.1471 69.4003 -55.678 -63.111 69.4158 -55.6409 -63.0735 69.4343 
-55.6046 -63.035 69.4558 -55.5693 -62.9956 69.48 -55.5354 -62.9554 69.5069 
-55.5029 -62.9148 69.5364 -55.472 -62.8738 69.5684 -55.4428 -62.8328 69.6028 
-55.4156 -62.7919 69.6394 -55.3904 -62.7514 69.6781 -55.3672 -62.7115 69.7189 
-55.3463 -62.6724 69.7616 -55.3276 -62.6344 69.806 -55.3112 -62.5978 69.8521 
-55.2972 -62.5626 69.8997 -55.2855 -62.5292 69.9487 -55.2763 -62.4976 69.999 
-55.2694 -62.4682 70.0503 -55.2648 -62.441 70.1026 -55.2626 -62.4162 70.1557 
-55.2627 -62.394 70.2095 -55.265 -62.3744 70.2637 -55.2696 -62.3575 70.3181 
-55.2762 -62.3434 70.3727 -55.285 -62.3322 70.4271 -55.2957 -62.3238 70.4812 
-55.3084 -62.3183 70.5349 -55.3229 -62.3157 70.5878 -55.3392 -62.3158 70.6397 
-55.3573 -62.3187 70.6906 -55.3769 -62.3242 70.74 -55.3982 -62.3323 70.7879 
-55.4209 -62.3428 70.8341 -55.445 -62.3556 70.8782 -55.4704 -62.3707 70.9202 
-55.4971 -62.3877 70.9598 -55.5249 -62.4067 70.9969 -55.5539 -62.4274 71.0312 
-55.5838 -62.4497 71.0627 -55.6146 -62.4734 71.091 -55.6463 -62.4983 71.1162 
-55.6787 -62.5244 71.138 -55.7116 -62.5515 71.1564 -55.7451 -62.5794 71.1712 
-55.779 -62.6081 71.1822 -55.8131 -62.6373 71.1895 -55.8473 -62.6671 71.193 
-55.8815 -62.6973 71.1926 -55.9156 -62.7278 71.1882 -55.9493 -62.7585 71.1798 
-55.9826 -62.7895 71.1675 -56.0152 -62.8205 71.1513 -56.0472 -62.8516 71.1311 
-56.0782 -62.8828 71.107 -56.1082 -62.9138 71.0791 -56.137 -62.9448 71.0476 
-56.1645 -62.9757 71.0124 -56.1907 -63.0063 70.9739 -56.2153 -63.0367 70.9321 
-56.2383 -63.0668 70.8872 -56.2597 -63.0964 70.8395 -56.2793 -63.1257 70.7891 
-56.2971 -63.1543 70.7363 -56.3131 -63.1824 70.6813 -56.3272 -63.2097 70.6245 
-56.3395 -63.2362 70.5661 -56.3498 -63.2618 70.5064 -56.3582 -63.2864 70.4458 
-56.3648 -63.3099 70.3844 -56.3693 -63.3321 70.3226 -56.372 -63.3531 70.2607 
-56.6198 -63.5544 70.2535 -56.6216 -63.5836 70.1597 -56.621 -63.6107 70.0669 
-56.6179 -63.6355 69.9755 -56.6124 -63.6577 69.8859 -56.6043 -63.6774 69.7986 
-56.5935 -63.6943 69.714 -56.5801 -63.7084 69.6324 -56.5639 -63.7195 69.5542 
-56.5447 -63.7277 69.4797 -56.5225 -63.7329 69.4093 -56.4973 -63.7349 69.3432 
-56.4688 -63.7339 69.2817 -56.4372 -63.7297 69.2251 -56.4023 -63.7222 69.1734 
-56.3642 -63.7116 69.127 -56.3229 -63.6977 69.0858 -56.2785 -63.6806 69.0501 
-56.2312 -63.6602 69.0199 -56.1811 -63.6365 68.9951 -56.1285 -63.6095 68.9758 
-56.0736 -63.5793 68.962 -56.0168 -63.5458 68.9535 -55.9583 -63.5091 68.9503 
-55.8985 -63.4692 68.9522 -55.8379 -63.4262 68.959 -55.7768 -63.3803 68.9707 
-55.7156 -63.3315 68.987 -55.6548 -63.28 69.0077 -55.5947 -63.226 69.0327 
-55.5357 -63.1698 69.0617 -55.4783 -63.1115 69.0946 -55.4228 -63.0515 69.1312 
-55.3694 -62.9901 69.1713 -55.3187 -62.9276 69.2148 -55.2707 -62.8643 69.2615 
-55.2257 -62.8007 69.3112 -55.184 -62.7371 69.3638 -55.1457 -62.674 69.4193 
-55.111 -62.6117 69.4774 -55.0798 -62.5507 69.538 -55.0524 -62.4913 69.6011 
-55.0288 -62.434 69.6664 -55.0089 -62.3791 69.7339 -54.9928 -62.3271 69.8034 
-54.9804 -62.2782 69.8749 -54.9716 -62.2328 69.948 -54.9664 -62.1912 70.0227 
-54.9647 -62.1537 70.0987 -54.9664 -62.1204 70.1759 -54.9714 -62.0916 70.2541 
-54.9796 -62.0674 70.3329 -54.9907 -62.0479 70.4121 -55.0048 -62.0332 70.4915 
-55.0217 -62.0232 70.5707 -55.0411 -62.0181 70.6494 -55.0631 -62.0176 70.7273 
-55.0875 -62.0217 70.8041 -55.1141 -62.0303 70.8794 -55.1428 -62.0431 70.9529 
-55.1737 -62.0599 71.0243 -55.2065 -62.0804 71.0932 -55.2411 -62.1045 71.1593 
-55.2776 -62.1317 71.2224 -55.3158 -62.1618 71.282 -55.3557 -62.1945 71.338 
-55.3972 -62.2295 71.3901 -55.4403 -62.2663 71.438 -55.4848 -62.3047 71.4816 
-55.5307 -62.3445 71.5205 -55.578 -62.3853 71.5546 -55.6264 -62.4269 71.5836 
-55.6758 -62.469 71.6075 -55.7262 -62.5115 71.6261 -55.7773 -62.5543 71.6392 
-55.8289 -62.597 71.6466 -55.8808 -62.6398 71.6482 -55.9327 -62.6824 71.644 
[...]
POINT_DATA 10000
FIELD FieldData 4
radius 1 10000 float
0 0 0 0 0 0 0 0 0 
0 0 0 0 0 0 0 0 0 
0 0 0 0 0 0 0 0 0 
0 0 0 0 0 0 0 0 0 
0 0 0 0 0 0 0 0 0 
0 0 0 0 0 0 0 0 0 
0 0 0 0 0 0 0 0 0 
0 0 0 0 0 0 0 0 0 
0 0 0 0 0 0 0 0 0 
0 0 0 0 0 0 0 0 0 
0 0 0 0 0 0 0 0 0 
0 0 0 0 0 0 0 0 0 
0 0 0 0 0 0 0 0 0 
0 0 0 0 0 0 0 0 0 
0 0 0 0 0 0 0 0 0 
0 0 0 0 0 0 0 0 0 
0 0 0 0 0 0 0 0 0 
0 0 0 0 0 0 0 0 0 
0 0 0 0 0 0 0 0 0 
0 0 0 0 0 0 0 0 0 
0 0 0 0 0 0 0 0 0 
0 0 0 0 0 0 0 0 0 
0 0 0 0 0 0 0 0 0 
0 0 0 0 0 0 0 0 0 
0 0 0 0 0 0 0 0 0 
0 0 0 0 0 0 0 0 0 
0 0 0 0 0 0 0 0 0 
0 0 0 0 0 0 0 0 0 
0 0 0 0 0 0 0 0 0 
0 0 0 0 0 0 0 0 0 
0 0 0 0 0 0 0 0 0 
0 0 0 0 0 0 0 0 0 
0 0 0 0 0 0 0 0 0 
0 0 0 0.47 0.47 0.47 0.47 0.47 0.47 
0.47 0.47 0.47 0.47 0.47 0.47 0.47 0.47 0.47 
0.47 0.47 0.47 0.47 0.47 0.47 0.47 0.47 0.47 
0.47 0.47 0.47 0.47 0.47 0.47 0.47 0.47 0.47 
0.47 0.47 0.47 0.47 0.47 0.47 0.47 0.47 0.47 
0.47 0.47 0.47 0.47 0.47 0.47 0.47 0.47 0.47 
0.47 0.47 0.47 0.47 0.47 0.47 0.47 0.47 0.47 
0.47 0.47 0.47 0.47 0.47 0.47 0.47 0.47 0.47 
0.47 0.47 0.47 0.47 0.47 0.47 0.47 0.47 0.47 
0.47 0.47 0.47 0.47 0.47 0.47 0.47 0.47 0.47 
0.47 0.47 0.47 0.47 0.47 0.47 0.47 0.47 0.47 
0.47 0.47 0.47 0.47 1.04527 1.04527 1.04527 1.04527 1.04527 
1.04527 1.04527 1.04527 1.04527 1.04527 1.04527 1.04527 1.04527 1.04527 
1.04527 1.04527 1.04527 1.04527 1.04527 1.04527 1.04527 1.04527 1.04527 
1.04527 1.04527 1.04527 1.04527 1.04527 1.04527 1.04527 1.04527 1.04527 
1.04527 1.04527 1.04527 1.04527 1.04527 1.04527 1.04527 1.04527 1.04527 
1.04527 1.04527 1.04527 1.04527 1.04527 1.04527 1.04527 1.04527 1.04527 
1.04527 1.04527 1.04527 1.04527 1.04527 1.04527 1.04527 1.04527 1.04527 
1.04527 1.04527 1.04527 1.04527 1.04527 1.04527 1.04527 1.04527 1.04527 
1.04527 1.04527 1.04527 1.04527 1.04527 1.04527 1.04527 1.04527 1.04527 
1.04527 1.04527 1.04527 1.04527 1.04527 1.04527 1.04527 1.04527 1.04527 
1.04527 1.04527 1.04527 1.04527 1.04527 1.04527 1.04527 1.04527 1.04527 
1.04527 1.04527 1.04527 1.04527 1.04527 1.50705 1.50705 1.50705 1.50705 
1.50705 1.50705 1.50705 1.50705 1.50705 1.50705 1.50705 1.50705 1.50705 
1.50705 1.50705 1.50705 1.50705 1.50705 1.50705 1.50705 1.50705 1.50705 
1.50705 1.50705 1.50705 1.50705 1.50705 1.50705 1.50705 1.50705 1.50705 
1.50705 1.50705 1.50705 1.50705 1.50705 1.50705 1.50705 1.50705 1.50705 
1.50705 1.50705 1.50705 1.50705 1.50705 1.50705 1.50705 1.50705 1.50705 
1.50705 1.50705 1.50705 1.50705 1.50705 1.50705 1.50705 1.50705 1.50705 
1.50705 1.50705 1.50705 1.50705 1.50705 1.50705 1.50705 1.50705 1.50705 
1.50705 1.50705 1.50705 1.50705 1.50705 1.50705 1.50705 1.50705 1.50705 
1.50705 1.50705 1.50705 1.50705 1.50705 1.50705 1.50705 1.50705 1.50705 
1.50705 1.50705 1.50705 1.50705 1.50705 1.50705 1.50705 1.50705 1.50705 
1.50705 1.50705 1.50705 1.50705 1.50705 1.50705 1.73607 1.73607 1.73607 
1.73607 1.73607 1.73607 1.73607 1.73607 1.73607 1.73607 1.73607 1.73607 
1.73607 1.73607 1.73607 1.73607 1.73607 1.73607 1.73607 1.73607 1.73607 
1.73607 1.73607 1.73607 1.73607 1.73607 1.73607 1.73607 1.73607 1.73607 
1.73607 1.73607 1.73607 1.73607 1.73607 1.73607 1.73607 1.73607 1.73607 
1.73607 1.73607 1.73607 1.73607 1.73607 1.73607 1.73607 1.73607 1.73607 
1.73607 1.73607 1.73607 1.73607 1.73607 1.73607 1.73607 1.73607 1.73607 
1.73607 1.73607 1.73607 1.73607 1.73607 1.73607 1.73607 1.73607 1.73607 
1.73607 1.73607 1.73607 1.73607 1.73607 1.73607 1.73607 1.73607 1.73607 
1.73607 1.73607 1.73607 1.73607 1.73607 1.73607 1.73607 1.73607 1.73607 
1.73607 1.73607 1.73607 1.73607 1.73607 1.73607 1.73607 1.73607 1.73607 
1.73607 1.73607 1.73607 1.73607 1.73607 1.73607 1.73607 1.89903 1.89903 
1.89903 1.89903 1.89903 1.89903 1.89903 1.89903 1.89903 1.89903 1.89903 
1.89903 1.89903 1.89903 1.89903 1.89903 1.89903 1.89903 1.89903 1.89903 
1.89903 1.89903 1.89903 1.89903 1.89903 1.89903 1.89903 1.89903 1.89903 
1.89903 1.89903 1.89903 1.89903 1.89903 1.89903 1.89903 1.89903 1.89903 
1.89903 1.89903 1.89903 1.89903 1.89903 1.89903 1.89903 1.89903 1.89903 
1.89903 1.89903 1.89903 1.89903 1.89903 1.89903 1.89903 1.89903 1.89903 
1.89903 1.89903 1.89903 1.89903 1.89903 1.89903 1.89903 1.89903 1.89903 
1.89903 1.89903 1.89903 1.89903 1.89903 1.89903 1.89903 1.89903 1.89903 
1.89903 1.89903 1.89903 1.89903 1.89903 1.89903 1.89903 1.89903 1.89903 
1.89903 1.89903 1.89903 1.89903 1.89903 1.89903 1.89903 1.89903 1.89903 
1.89903 1.89903 1.89903 1.89903 1.89903 1.89903 1.89903 1.89903 2.39112 
2.39112 2.39112 2.39112 2.39112 2.39112 2.39112 2.39112 2.39112 2.39112 
2.39112 2.39112 2.39112 2.39112 2.39112 2.39112 2.39112 2.39112 2.39112 
2.39112 2.39112 2.39112 2.39112 2.39112 2.39112 2.39112 2.39112 2.39112 
2.39112 2.39112 2.39112 2.39112 2.39112 2.39112 2.39112 2.39112 2.39112 
2.39112 2.39112 2.39112 2.39112 2.39112 2.39112 2.39112 2.39112 2.39112 
2.39112 2.39112 2.39112 2.39112 2.39112 2.39112 2.39112 2.39112 2.39112 
2.39112 2.39112 2.39112 2.39112 2.39112 2.39112 2.39112 2.39112 2.39112 
2.39112 2.39112 2.39112 2.39112 2.39112 2.39112 2.39112 2.39112 2.39112 
2.39112 2.39112 2.39112 2.39112 2.39112 2.39112 2.39112 2.39112 2.39112 
2.39112 2.39112 2.39112 2.39112 2.39112 2.39112 2.39112 2.39112 2.39112 
2.39112 2.39112 2.39112 2.39112 2.39112 2.39112 2.39112 2.39112 2.39112 
2.80114 2.80114 2.80114 2.80114 2.80114 2.80114 2.80114 2.80114 2.80114 
2.80114 2.80114 2.80114 2.80114 2.80114 2.80114 2.80114 2.80114 2.80114 
2.80114 2.80114 2.80114 2.80114 2.80114 2.80114 2.80114 2.80114 2.80114 
2.80114 2.80114 2.80114 2.80114 2.80114 2.80114 2.80114 2.80114 2.80114 
2.80114 2.80114 2.80114 2.80114 2.80114 2.80114 2.80114 2.80114 2.80114 
2.80114 2.80114 2.80114 2.80114 2.80114 2.80114 2.80114 2.80114 2.80114 
2.80114 2.80114 2.80114 2.80114 2.80114 2.80114 2.80114 2.80114 2.80114 
2.80114 2.80114 2.80114 2.80114 2.80114 2.80114 2.80114 2.80114 2.80114 
2.80114 2.80114 2.80114 2.80114 2.80114 2.80114 2.80114 2.80114 2.80114 
2.80114 2.80114 2.80114 2.80114 2.80114 2.80114 2.80114 2.80114 2.80114 
2.80114 2.80114 2.80114 2.80114 2.80114 2.80114 2.80114 2.80114 2.80114 
2.80114 3.03616 3.03616 3.03616 3.03616 3.03616 3.03616 3.03616 3.03616 
3.03616 3.03616 3.03616 3.03616 3.03616 3.03616 3.03616 3.03616 3.03616 
3.03616 3.03616 3.03616 3.03616 3.03616 3.03616 3.03616 3.03616 3.03616 
3.03616 3.03616 3.03616 3.03616 3.03616 3.03616 3.03616 3.03616 3.03616 
3.03616 3.03616 3.03616 3.03616 3.03616 3.03616 3.03616 3.03616 3.03616 
3.03616 3.03616 3.03616 3.03616 3.03616 3.03616 3.03616 3.03616 3.03616 
3.03616 3.03616 3.03616 3.03616 3.03616 3.03616 3.03616 3.03616 3.03616 
3.03616 3.03616 3.03616 3.03616 3.03616 3.03616 3.03616 3.03616 3.03616 
3.03616 3.03616 3.03616 3.03616 3.03616 3.03616 3.03616 3.03616 3.03616 
3.03616 3.03616 3.03616 3.03616 3.03616 3.03616 3.03616 3.03616 3.03616 
3.03616 3.03616 3.03616 3.03616 3.03616 3.03616 3.03616 3.03616 3.03616 
3.03616 3.03616 3.21909 3.21909 3.21909 3.21909 3.21909 3.21909 3.21909 
3.21909 3.21909 3.21909 3.21909 3.21909 3.21909 3.21909 3.21909 3.21909 
3.21909 3.21909 3.21909 3.21909 3.21909 3.21909 3.21909 3.21909 3.21909 
3.21909 3.21909 3.21909 3.21909 3.21909 3.21909 3.21909 3.21909 3.21909 
3.21909 3.21909 3.21909 3.21909 3.21909 3.21909 3.21909 3.21909 3.21909 
3.21909 3.21909 3.21909 3.21909 3.21909 3.21909 3.21909 3.21909 3.21909 
3.21909 3.21909 3.21909 3.21909 3.21909 3.21909 3.21909 3.21909 3.21909 
3.21909 3.21909 3.21909 3.21909 3.21909 3.21909 3.21909 3.21909 3.21909 
3.21909 3.21909 3.21909 3.21909 3.21909 3.21909 3.21909 3.21909 3.21909 
3.21909 3.21909 3.21909 3.21909 3.21909 3.21909 3.21909 3.21909 3.21909 
3.21909 3.21909 3.21909 3.21909 3.21909 3.21909 3.21909 3.21909 3.21909 
3.21909 3.21909 3.21909 3.60917 3.60917 3.60917 3.60917 3.60917 3.60917 
3.60917 3.60917 3.60917 3.60917 3.60917 3.60917 3.60917 3.60917 3.60917 
3.60917 3.60917 3.60917 3.60917 3.60917 3.60917 3.60917 3.60917 3.60917 
3.60917 3.60917 3.60917 3.60917 3.60917 3.60917 3.60917 3.60917 3.60917 
3.60917 3.60917 3.60917 3.60917 3.60917 3.60917 3.60917 3.60917 3.60917 
3.60917 3.60917 3.60917 3.60917 3.60917 3.60917 3.60917 3.60917 3.60917 
3.60917 3.60917 3.60917 3.60917 3.60917 3.60917 3.60917 3.60917 3.60917 
3.60917 3.60917 3.60917 3.60917 3.60917 3.60917 3.60917 3.60917 3.60917 
3.60917 3.60917 3.60917 3.60917 3.60917 3.60917 3.60917 3.60917 3.60917 
3.60917 3.60917 3.60917 3.60917 3.60917 3.60917 3.60917 3.60917 3.60917 
3.60917 3.60917 3.60917 3.60917 3.60917 3.60917 3.60917 3.60917 3.60917 
3.60917 3.60917 3.60917 3.60917 3.9765 3.9765 3.9765 3.9765 3.9765 
3.9765 3.9765 3.9765 3.9765 3.9765 3.9765 3.9765 3.9765 3.9765 
3.9765 3.9765 3.9765 3.9765 3.9765 3.9765 3.9765 3.9765 3.9765 
3.9765 3.9765 3.9765 3.9765 3.9765 3.9765 3.9765 3.9765 3.9765 
3.9765 3.9765 3.9765 3.9765 3.9765 3.9765 3.9765 3.9765 3.9765 
3.9765 3.9765 3.9765 3.9765 3.9765 3.9765 3.9765 3.9765 3.9765 
3.9765 3.9765 3.9765 3.9765 3.9765 3.9765 3.9765 3.9765 3.9765 
3.9765 3.9765 3.9765 3.9765 3.9765 3.9765 3.9765 3.9765 3.9765 
3.9765 3.9765 3.9765 3.9765 3.9765 3.9765 3.9765 3.9765 3.9765 
3.9765 3.9765 3.9765 3.9765 3.9765 3.9765 3.9765 3.9765 3.9765 
3.9765 3.9765 3.9765 3.9765 3.9765 3.9765 3.9765 3.9765 3.9765 
3.9765 3.9765 3.9765 3.9765 3.9765 4.17846 4.17846 4.17846 4.17846 
4.17846 4.17846 4.17846 4.17846 4.17846 4.17846 4.17846 4.17846 4.17846 
4.17846 4.17846 4.17846 4.17846 4.17846 4.17846 4.17846 4.17846 4.17846 
4.17846 4.17846 4.17846 4.17846 4.17846 4.17846 4.17846 4.17846 4.17846 
4.17846 4.17846 4.17846 4.17846 4.17846 4.17846 4.17846 4.17846 4.17846 
4.17846 4.17846 4.17846 4.17846 4.17846 4.17846 4.17846 4.17846 4.17846 
4.17846 4.17846 4.17846 4.17846 4.17846 4.17846 4.17846 4.17846 4.17846 
4.17846 4.17846 4.17846 4.17846 4.17846 4.17846 4.17846 4.17846 4.17846 
4.17846 4.17846 4.17846 4.17846 4.17846 4.17846 4.17846 4.17846 4.17846 
4.17846 4.17846 4.17846 4.17846 4.17846 4.17846 4.17846 4.17846 4.17846 
4.17846 4.17846 4.17846 4.17846 4.17846 4.17846 4.17846 4.17846 4.17846 
4.17846 4.17846 4.17846 4.17846 4.17846 4.17846 4.46663 4.46663 4.46663 
4.46663 4.46663 4.46663 4.46663 4.46663 4.46663 4.46663 4.46663 4.46663 
4.46663 4.46663 4.46663 4.46663 4.46663 4.46663 4.46663 4.46663 4.46663 
4.46663 4.46663 4.46663 4.46663 4.46663 4.46663 4.46663 4.46663 4.46663 
4.46663 4.46663 4.46663 4.46663 4.46663 4.46663 4.46663 4.46663 4.46663 
4.46663 4.46663 4.46663 4.46663 4.46663 4.46663 4.46663 4.46663 4.46663 
4.46663 4.46663 4.46663 4.46663 4.46663 4.46663 4.46663 4.46663 4.46663 
4.46663 4.46663 4.46663 4.46663 4.46663 4.46663 4.46663 4.46663 4.46663 
4.46663 4.46663 4.46663 4.46663 4.46663 4.46663 4.46663 4.46663 4.46663 
4.46663 4.46663 4.46663 4.46663 4.46663 4.46663 4.46663 4.46663 4.46663 
4.46663 4.46663 4.46663 4.46663 4.46663 4.46663 4.46663 4.46663 4.46663 
4.46663 4.46663 4.46663 4.46663 4.46663 4.46663 4.46663 4.70532 4.70532 
4.70532 4.70532 4.70532 4.70532 4.70532 4.70532 4.70532 4.70532 4.70532 
4.70532 4.70532 4.70532 4.70532 4.70532 4.70532 4.70532 4.70532 4.70532 
4.70532 4.70532 4.70532 4.70532 4.70532 4.70532 4.70532 4.70532 4.70532 
4.70532 4.70532 4.70532 4.70532 4.70532 4.70532 4.70532 4.70532 4.70532 
4.70532 4.70532 4.70532 4.70532 4.70532 4.70532 4.70532 4.70532 4.70532 
4.70532 4.70532 4.70532 4.70532 4.70532 4.70532 4.70532 4.70532 4.70532 
4.70532 4.70532 4.70532 4.70532 4.70532 4.70532 4.70532 4.70532 4.70532 
4.70532 4.70532 4.70532 4.70532 4.70532 4.70532 4.70532 4.70532 4.70532 
4.70532 4.70532 4.70532 4.70532 4.70532 4.70532 4.70532 4.70532 4.70532 
4.70532 4.70532 4.70532 4.70532 4.70532 4.70532 4.70532 4.70532 4.70532 
4.70532 4.70532 4.70532 4.70532 4.70532 4.70532 4.70532 4.70532 5.07391 
5.07391 5.07391 5.07391 5.07391 5.07391 5.07391 5.07391 5.07391 5.07391 
5.07391 5.07391 5.07391 5.07391 5.07391 5.07391 5.07391 5.07391 5.07391 
5.07391 5.07391 5.07391 5.07391 5.07391 5.07391 5.07391 5.07391 5.07391 
5.07391 5.07391 5.07391 5.07391 5.07391 5.07391 5.07391 5.07391 5.07391 
5.07391 5.07391 5.07391 5.07391 5.07391 5.07391 5.07391 5.07391 5.07391 
5.07391 5.07391 5.07391 5.07391 5.07391 5.07391 5.07391 5.07391 5.07391 
5.07391 5.07391 5.07391 5.07391 5.07391 5.07391 5.07391 5.07391 5.07391 
5.07391 5.07391 5.07391 5.07391 5.07391 5.07391 5.07391 5.07391 5.07391 
5.07391 5.07391 5.07391 5.07391 5.07391 5.07391 5.07391 5.07391 5.07391 
5.07391 5.07391 5.07391 5.07391 5.07391 5.07391 5.07391 5.07391 5.07391 
5.07391 5.07391 5.07391 5.07391 5.07391 5.07391 5.07391 5.07391 5.07391 
5.34841 5.34841 5.34841 5.34841 5.34841 5.34841 5.34841 5.34841 5.34841 
5.34841 5.34841 5.34841 5.34841 5.34841 5.34841 5.34841 5.34841 5.34841 
5.34841 5.34841 5.34841 5.34841 5.34841 5.34841 5.34841 5.34841 5.34841 
5.34841 5.34841 5.34841 5.34841 5.34841 5.34841 5.34841 5.34841 5.34841 
5.34841 5.34841 5.34841 5.34841 5.34841 5.34841 5.34841 5.34841 5.34841 
5.34841 5.34841 5.34841 5.34841 5.34841 5.34841 5.34841 5.34841 5.34841 
5.34841 5.34841 5.34841 5.34841 5.34841 5.34841 5.34841 5.34841 5.34841 
5.34841 5.34841 5.34841 5.34841 5.34841 5.34841 5.34841 5.34841 5.34841 
5.34841 5.34841 5.34841 5.34841 5.34841 5.34841 5.34841 5.34841 5.34841 
5.34841 5.34841 5.34841 5.34841 5.34841 5.34841 5.34841 5.34841 5.34841 
5.34841 5.34841 5.34841 5.34841 5.34841 5.34841 5.34841 5.34841 5.34841 
5.34841 5.53761 5.53761 5.53761 5.53761 5.53761 5.53761 5.53761 5.53761 
5.53761 5.53761 5.53761 5.53761 5.53761 5.53761 5.53761 5.53761 5.53761 
5.53761 5.53761 5.53761 5.53761 5.53761 5.53761 5.53761 5.53761 5.53761 
5.53761 5.53761 5.53761 5.53761 5.53761 5.53761 5.53761 5.53761 5.53761 
5.53761 5.53761 5.53761 5.53761 5.53761 5.53761 5.53761 5.53761 5.53761 
5.53761 5.53761 5.53761 5.53761 5.53761 5.53761 5.53761 5.53761 5.53761 
5.53761 5.53761 5.53761 5.53761 5.53761 5.53761 5.53761 5.53761 5.53761 
5.53761 5.53761 5.53761 5.53761 5.53761 5.53761 5.53761 5.53761 5.53761 
5.53761 5.53761 5.53761 5.53761 5.53761 5.53761 5.53761 5.53761 5.53761 
5.53761 5.53761 5.53761 5.53761 5.53761 5.53761 5.53761 5.53761 5.53761 
5.53761 5.53761 5.53761 5.53761 5.53761 5.53761 5.53761 5.53761 5.53761 
5.53761 5.53761 5.78027 5.78027 5.78027 5.78027 5.78027 5.78027 5.78027 
5.78027 5.78027 5.78027 5.78027 5.78027 5.78027 5.78027 5.78027 5.78027 
5.78027 5.78027 5.78027 5.78027 5.78027 5.78027 5.78027 5.78027 5.78027 
5.78027 5.78027 5.78027 5.78027 5.78027 5.78027 5.78027 5.78027 5.78027 
5.78027 5.78027 5.78027 5.78027 5.78027 5.78027 5.78027 5.78027 5.78027 
5.78027 5.78027 5.78027 5.78027 5.78027 5.78027 5.78027 5.78027 5.78027 
5.78027 5.78027 5.78027 5.78027 5.78027 5.78027 5.78027 5.78027 5.78027 
5.78027 5.78027 5.78027 5.78027 5.78027 5.78027 5.78027 5.78027 5.78027 
5.78027 5.78027 5.78027 5.78027 5.78027 5.78027 5.78027 5.78027 5.78027 
5.78027 5.78027 5.78027 5.78027 5.78027 5.78027 5.78027 5.78027 5.78027 
5.78027 5.78027 5.78027 5.78027 5.78027 5.78027 5.78027 5.78027 5.78027 
5.78027 5.78027 5.78027 6.03583 6.03583 6.03583 6.03583 6.03583 6.03583 
6.03583 6.03583 6.03583 6.03583 6.03583 6.03583 6.03583 6.03583 6.03583 
6.03583 6.03583 6.03583 6.03583 6.03583 6.03583 6.03583 6.03583 6.03583 
6.03583 6.03583 6.03583 6.03583 6.03583 6.03583 6.03583 6.03583 6.03583 
6.03583 6.03583 6.03583 6.03583 6.03583 6.03583 6.03583 6.03583 6.03583 
6.03583 6.03583 6.03583 6.03583 6.03583 6.03583 6.03583 6.03583 6.03583 
6.03583 6.03583 6.03583 6.03583 6.03583 6.03583 6.03583 6.03583 6.03583 
6.03583 6.03583 6.03583 6.03583 6.03583 6.03583 6.03583 6.03583 6.03583 
6.03583 6.03583 6.03583 6.03583 6.03583 6.03583 6.03583 6.03583 6.03583 
6.03583 6.03583 6.03583 6.03583 6.03583 6.03583 6.03583 6.03583 6.03583 
6.03583 6.03583 6.03583 6.03583 6.03583 6.03583 6.03583 6.03583 6.03583 
6.03583 6.03583 6.03583 6.03583 6.2407 6.2407 6.2407 6.2407 6.2407 
6.2407 6.2407 6.2407 6.2407 6.2407 6.2407 6.2407 6.2407 6.2407 
6.2407 6.2407 6.2407 6.2407 6.2407 6.2407 6.2407 6.2407 6.2407 
6.2407 6.2407 6.2407 6.2407 6.2407 6.2407 6.2407 6.2407 6.2407 
6.2407 6.2407 6.2407 6.2407 6.2407 6.2407 6.2407 6.2407 6.2407 
6.2407 6.2407 6.2407 6.2407 6.2407 6.2407 6.2407 6.2407 6.2407 
6.2407 6.2407 6.2407 6.2407 6.2407 6.2407 6.2407 6.2407 6.2407 
6.2407 6.2407 6.2407 6.2407 6.2407 6.2407 6.2407 6.2407 6.2407 
6.2407 6.2407 6.2407 6.2407 6.2407 6.2407 6.2407 6.2407 6.2407 
6.2407 6.2407 6.2407 6.2407 6.2407 6.2407 6.2407 6.2407 6.2407 
6.2407 6.2407 6.2407 6.2407 6.2407 6.2407 6.2407 6.2407 6.2407 
6.2407 6.2407 6.2407 6.2407 6.2407 6.45746 6.45746 6.45746 6.45746 
6.45746 6.45746 6.45746 6.45746 6.45746 6.45746 6.45746 6.45746 6.45746 
6.45746 6.45746 6.45746 6.45746 6.45746 6.45746 6.45746 6.45746 6.45746 
6.45746 6.45746 6.45746 6.45746 6.45746 6.45746 6.45746 6.45746 6.45746 
6.45746 6.45746 6.45746 6.45746 6.45746 6.45746 6.45746 6.45746 6.45746 
6.45746 6.45746 6.45746 6.45746 6.45746 6.45746 6.45746 6.45746 6.45746 
6.45746 6.45746 6.45746 6.45746 6.45746 6.45746 6.45746 6.45746 6.45746 
6.45746 6.45746 6.45746 6.45746 6.45746 6.45746 6.45746 6.45746 6.45746 
6.45746 6.45746 6.45746 6.45746 6.45746 6.45746 6.45746 6.45746 6.45746 
6.45746 6.45746 6.45746 6.45746 6.45746 6.45746 6.45746 6.45746 6.45746 
6.45746 6.45746 6.45746 6.45746 6.45746 6.45746 6.45746 6.45746 6.45746 
6.45746 6.45746 6.45746 6.45746 6.45746 6.45746 6.64256 6.64256 6.64256 
6.64256 6.64256 6.64256 6.64256 6.64256 6.64256 6.64256 6.64256 6.64256 
6.64256 6.64256 6.64256 6.64256 6.64256 6.64256 6.64256 6.64256 6.64256 
6.64256 6.64256 6.64256 6.64256 6.64256 6.64256 6.64256 6.64256 6.64256 
6.64256 6.64256 6.64256 6.64256 6.64256 6.64256 6.64256 6.64256 6.64256 
6.64256 6.64256 6.64256 6.64256 6.64256 6.64256 6.64256 6.64256 6.64256 
6.64256 6.64256 6.64256 6.64256 6.64256 6.64256 6.64256 6.64256 6.64256 
6.64256 6.64256 6.64256 6.64256 6.64256 6.64256 6.64256 6.64256 6.64256 
6.64256 6.64256 6.64256 6.64256 6.64256 6.64256 6.64256 6.64256 6.64256 
6.64256 6.64256 6.64256 6.64256 6.64256 6.64256 6.64256 6.64256 6.64256 
6.64256 6.64256 6.64256 6.64256 6.64256 6.64256 6.64256 6.64256 6.64256 
6.64256 6.64256 6.64256 6.64256 6.64256 6.64256 6.64256 6.84604 6.84604 
6.84604 6.84604 6.84604 6.84604 6.84604 6.84604 6.84604 6.84604 6.84604 
6.84604 6.84604 6.84604 6.84604 6.84604 6.84604 6.84604 6.84604 6.84604 
6.84604 6.84604 6.84604 6.84604 6.84604 6.84604 6.84604 6.84604 6.84604 
6.84604 6.84604 6.84604 6.84604 6.84604 6.84604 6.84604 6.84604 6.84604 
6.84604 6.84604 6.84604 6.84604 6.84604 6.84604 6.84604 6.84604 6.84604 
6.84604 6.84604 6.84604 6.84604 6.84604 6.84604 6.84604 6.84604 6.84604 
6.84604 6.84604 6.84604 6.84604 6.84604 6.84604 6.84604 6.84604 6.84604 
6.84604 6.84604 6.84604 6.84604 6.84604 6.84604 6.84604 6.84604 6.84604 
6.84604 6.84604 6.84604 6.84604 6.84604 6.84604 6.84604 6.84604 6.84604 
6.84604 6.84604 6.84604 6.84604 6.84604 6.84604 6.84604 6.84604 6.84604 
6.84604 6.84604 6.84604 6.84604 6.84604 6.84604 6.84604 6.84604 7.04641 
7.04641 7.04641 7.04641 7.04641 7.04641 7.04641 7.04641 7.04641 7.04641 
7.04641 7.04641 7.04641 7.04641 7.04641 7.04641 7.04641 7.04641 7.04641 
7.04641 7.04641 7.04641 7.04641 7.04641 7.04641 7.04641 7.04641 7.04641 
7.04641 7.04641 7.04641 7.04641 7.04641 7.04641 7.04641 7.04641 7.04641 
7.04641 7.04641 7.04641 7.04641 7.04641 7.04641 7.04641 7.04641 7.04641 
7.04641 7.04641 7.04641 7.04641 7.04641 7.04641 7.04641 7.04641 7.04641 
7.04641 7.04641 7.04641 7.04641 7.04641 7.04641 7.04641 7.04641 7.04641 
7.04641 7.04641 7.04641 7.04641 7.04641 7.04641 7.04641 7.04641 7.04641 
7.04641 7.04641 7.04641 7.04641 7.04641 7.04641 7.04641 7.04641 7.04641 
7.04641 7.04641 7.04641 7.04641 7.04641 7.04641 7.04641 7.04641 7.04641 
7.04641 7.04641 7.04641 7.04641 7.04641 7.04641 7.04641 7.04641 7.04641 
7.27235 7.27235 7.27235 7.27235 7.27235 7.27235 7.27235 7.27235 7.27235 
7.27235 7.27235 7.27235 7.27235 7.27235 7.27235 7.27235 7.27235 7.27235 
7.27235 7.27235 7.27235 7.27235 7.27235 7.27235 7.27235 7.27235 7.27235 
7.27235 7.27235 7.27235 7.27235 7.27235 7.27235 7.27235 7.27235 7.27235 