# vtk DataFile Version 4.0
vtk output
ASCII
DATASET POLYDATA
POINTS 1002 float
-104.408 -117.861 74.5602 -105.122 -118.797 74.2111 -104.83 -118.275 73.3371 
-104.001 -117.232 73.6747 -104.475 -117.601 72.4852 -103.626 -116.694 74.8857 
-103.604 -116.406 72.8013 -104.098 -116.806 71.6455 -103.236 -115.859 74.0089 
-103.032 -115.113 75.1655 -103.288 -115.398 71.8907 -103.776 -115.828 70.771 
-102.918 -114.856 73.1259 -102.693 -114.17 74.3022 -102.517 -113.406 75.4561 
-103.037 -114.213 70.9886 -103.591 -114.596 70.0253 -102.581 -113.773 72.1985 
-102.173 -113.293 73.4238 -101.871 -112.695 74.64 -101.604 -112.069 75.8268 
-102.759 -113.013 70.2577 -103.504 -113.31 69.4794 -102.122 -112.718 71.3118 
-101.44 -112.498 72.4979 -100.879 -112.166 73.7706 -100.605 -111.617 75.0749 
-100.48 -110.984 76.2574 -102.333 -112.055 69.5215 -103.298 -112.26 68.8577 
-101.529 -111.832 70.462 -100.753 -111.691 71.5472 -100.037 -111.516 72.783 
-99.7147 -111.046 74.1711 -99.6967 -110.381 75.5076 -99.7116 -109.723 76.6797 
-101.771 -111.294 68.618 -102.876 -111.416 68.1274 -100.898 -111.063 69.4891 
-100.242 -110.791 70.5454 -99.6529 -110.544 71.7107 -99.3278 -110.096 73.0977 
-99.337 -109.429 74.5413 -99.3328 -108.796 75.8675 -99.2737 -108.261 77.0514 
-101.291 -110.466 67.8351 -102.428 -110.573 67.5588 -100.446 -110.182 68.5733 
-99.927 -109.733 69.5944 -99.5154 -109.316 70.6863 -99.1928 -108.865 71.9913 
-99.1568 -108.248 73.4634 -99.1975 -107.642 74.8691 -99.062 -107.172 76.1827 
-98.9837 -106.758 77.3487 -101.056 -109.482 67.3566 -102.153 -109.663 67.2191 
-100.278 -109.12 67.9533 -99.833 -108.554 68.8911 -99.5025 -108.007 69.8804 
-99.1275 -107.554 71.0193 -98.9225 -107.033 72.4184 -98.9905 -106.468 73.8377 
-98.9982 -106.005 75.1815 -98.8589 -105.627 76.4699 -98.8737 -105.267 77.5623 
-105.629 -119.445 73.3267 -105.4 -118.812 72.4423 -106.279 -120.042 72.5017 
-106.102 -119.274 71.6637 -107.177 -120.412 71.7301 -105.111 -118.053 71.6222 
-107.034 -119.549 70.9127 -108.209 -120.57 70.8792 -105.913 -118.375 70.8995 
-104.781 -117.211 70.8043 -108.087 -119.646 70.0503 -109.207 -120.554 70.0611 
-106.936 -118.506 70.1336 -105.71 -117.402 70.0959 -104.495 -116.166 69.9731 
-109.15 -119.517 69.2324 -110.306 -120.21 69.4245 -108.015 -118.522 69.2255 
-106.792 -117.449 69.2837 -105.472 -116.322 69.2704 -104.387 -114.851 69.3296 
-110.328 -119.127 68.514 -111.544 -119.68 68.6943 -109.081 -118.401 68.4044 
-107.815 -117.492 68.3729 -106.462 -116.474 68.3982 -105.318 -115.11 68.5894 
-104.413 -113.509 68.828 -111.52 -118.714 67.7449 -112.608 -119.29 67.7786 
-110.229 -118.116 67.7204 -108.856 -117.391 67.6255 -107.407 -116.556 67.4923 
-106.155 -115.426 67.6179 -105.296 -113.853 68.0368 -104.3 -112.372 68.263 
-112.506 -118.31 67.0755 -113.422 -118.897 67.054 -111.321 -117.73 67.0867 
-109.958 -117.07 66.9897 -108.49 -116.338 66.7826 -107.076 -115.488 66.7111 
-106.082 -114.209 67.0779 -105.245 -112.638 67.6063 -103.972 -111.383 67.7482 
-113.354 -117.702 66.6882 -114.194 -118.258 66.6792 -112.248 -117.177 66.5853 
-110.933 -116.622 66.3423 -109.574 -115.976 66.109 -108.193 -115.251 66.0292 
-107.01 -114.279 66.2519 -106.143 -112.908 66.8283 -105.102 -111.49 67.3472 
-103.63 -110.432 67.4141 -114.541 -117.066 66.4266 -113.473 -116.524 66.2916 
-114.773 -115.901 65.937 -113.377 -115.431 65.5106 -114.689 -114.979 65.165 
-112.067 -116.092 65.8297 -113.061 -114.608 64.5762 -114.344 -114.074 64.4887 
-111.737 -115.186 64.7792 -110.628 -115.656 65.3613 -112.678 -113.595 63.9605 
-113.862 -112.805 64.1041 -111.42 -114.328 63.9833 -110.332 -114.811 64.4885 
-109.315 -115.021 65.3082 -112.235 -111.953 63.6804 -113.274 -111.26 64.003 
-111.096 -112.777 63.6559 -110.063 -113.507 64.1021 -109.103 -113.877 64.8697 
-108.054 -114.073 65.6015 -111.788 -110.18 63.7899 -112.718 -109.825 64.3565 
-110.686 -110.705 63.6235 -109.655 -111.439 64.0058 -108.792 -112.107 64.7172 
-107.948 -112.521 65.4553 -107.017 -112.783 66.1427 -111.441 -108.851 64.5067 
-112.239 -108.61 65.1379 -110.379 -109.116 64.1191 -109.254 -109.584 64.2344 
-108.356 -110.221 64.7546 -107.68 -110.771 65.4327 -106.925 -111.125 66.1608 
-105.998 -111.345 66.8341 -111.045 -107.758 65.5527 -111.689 -107.462 65.9979 
-110.148 -108.023 65.1631 -109.044 -108.363 65.0252 -108.025 -108.83 65.2217 
-107.274 -109.292 65.6597 -106.561 -109.619 66.237 -105.616 -109.856 66.8141 
-104.552 -110.115 67.2078 -110.5 -106.538 66.4258 -111.058 -106.279 66.6867 
-109.76 -106.795 66.1881 -108.797 -107.09 66.0059 -107.773 -107.457 65.9726 
-106.868 -107.842 66.1464 -106.017 -108.163 66.4548 -105.034 -108.436 66.7684 
-103.931 -108.757 66.9903 -102.92 -109.182 67.1074 -101.346 -108.471 66.9753 
-102.08 -107.845 66.8017 -100.774 -106.866 66.8341 -103.075 -107.257 66.7767 
-101.422 -106.079 66.5905 -100.301 -104.873 66.8324 -104.231 -106.746 66.8032 
-102.374 -105.279 66.6774 -100.951 -103.894 66.636 -99.884 -102.632 66.9461 
-105.385 -106.302 66.7226 -103.588 -104.545 66.834 -101.981 -102.939 66.7399 
-100.692 -101.486 66.7981 -99.7416 -100.361 67.0953 -106.446 -105.912 66.5837 
-104.87 -103.987 66.7957 -103.298 -102.187 66.767 -101.892 -100.532 66.7252 
-100.713 -99.1987 66.8645 -99.9504 -98.4183 67.3522 -107.479 -105.583 66.5895 
-106.034 -103.65 66.7635 -104.649 -101.772 66.7306 -103.34 -99.9788 66.6635 
-102.054 -98.4123 66.704 -101.003 -97.4928 67.1221 -100.316 -97.0351 67.9154 
-108.515 -105.332 66.7223 -107.146 -103.466 66.8919 -105.871 -101.632 66.8792 
-104.751 -99.865 66.8761 -103.597 -98.1676 66.8804 -102.427 -97.0335 67.1557 
-101.45 -96.4778 67.8633 -100.702 -96.0341 68.7146 -109.417 -105.168 66.8694 
-108.234 -103.405 67.0533 -107.044 -101.637 67.1077 -105.96 -100.015 67.2631 
-104.95 -98.406 67.4166 -103.915 -97.1081 67.5927 -102.894 -96.328 68.0848 
-101.96 -95.7325 68.8065 -101.159 -95.1512 69.4853 -110.1 -105.058 67.0579 
-109.136 -103.469 67.2577 -108.126 -101.784 67.3566 -107.047 -100.276 67.6009 
-106.006 -98.86 67.9522 -105.074 -97.5518 68.2088 -104.214 -96.5456 68.5262 
-103.37 -95.7254 69.0496 -102.524 -94.9558 69.6132 -101.745 -94.3698 70.1383 
-100.451 -108.035 67.34 -100.03 -106.152 67.4286 -99.9081 -107.393 68.178 
-99.5399 -104.019 67.4598 -99.5445 -105.396 68.323 -99.5703 -106.72 69.147 
-99.1776 -101.765 67.5014 -99.1085 -103.291 68.302 -99.2456 -104.772 69.2921 
-99.2006 -106.195 70.1764 -99.2447 -99.5884 67.7644 -98.9447 -101.057 68.4782 
-99.0185 -102.634 69.5038 -98.9961 -104.197 70.5651 -98.8445 -105.69 71.5182 
-99.56 -97.7896 68.312 -99.0634 -98.9197 69.0097 -98.9478 -100.344 70.0147 
-99.0139 -101.927 71.1023 -98.899 -103.576 72.0945 -98.8206 -105.129 72.9994 
-99.8666 -96.413 69.019 -99.2626 -97.1486 69.6493 -98.9115 -98.293 70.6298 
-98.9379 -99.726 71.7034 -99.0965 -101.336 72.6616 -99.0554 -103.043 73.5558 
-98.9662 -104.639 74.4122 -100.202 -95.3194 69.7269 -99.5424 -95.7749 70.2682 
-99.0957 -96.6434 71.1908 -98.8697 -97.9042 72.2763 -98.9861 -99.3653 73.2468 
-99.169 -100.961 74.1353 -99.0965 -102.652 75.02 -98.9143 -104.248 75.8178 
-100.701 -94.4682 70.3926 -99.9468 -94.792 70.9272 -99.5072 -95.4042 71.816 
-99.1673 -96.409 72.9014 -98.9361 -97.7245 73.9051 -98.9526 -99.1648 74.7895 
-99.023 -100.715 75.6594 -98.945 -102.35 76.4568 -98.8401 -103.905 77.088 
-101.766 -93.7765 70.9866 -100.741 -94.0209 71.53 -101.903 -93.4406 72.2552 
-100.93 -93.7938 73.1636 -102.116 -93.2372 73.9148 -100.076 -94.4559 72.4377 
-101.189 -93.671 74.9806 -102.418 -93.1794 75.6237 -100.268 -94.2841 74.3181 
-99.6917 -95.1394 73.5784 -101.564 -93.7724 76.6175 -102.81 -93.4243 77.2472 
-100.486 -94.3129 76.0582 -99.8274 -95.0548 75.4218 -99.2939 -96.2403 74.6558 
-102.036 -94.0618 78.1981 -103.178 -93.7327 78.8661 -100.916 -94.6314 77.5446 
-100.075 -95.306 76.9491 -99.4169 -96.2915 76.306 -98.9475 -97.6595 75.5611 
-102.461 -94.3212 79.7306 -103.522 -94.0066 80.2957 -101.45 -94.9984 79.0174 
-100.587 -95.7803 78.3308 -99.8201 -96.656 77.7094 -99.115 -97.8094 77.1006 
-98.8597 -99.1961 76.4185 -102.891 -94.8051 80.9243 -103.956 -94.5966 81.3421 
-101.909 -95.4282 80.3033 -101.047 -96.2433 79.6801 -100.317 -97.1177 79.0865 
-99.6031 -98.1696 78.4677 -99.0712 -99.4186 77.8571 -98.9198 -100.832 77.2039 
-103.383 -95.6459 81.813 -104.422 -95.4946 82.1337 -102.422 -96.1486 81.275 
-101.49 -96.8473 80.762 -100.641 -97.6223 80.3558 -99.9879 -98.5956 79.8103 
-99.5403 -99.7835 79.0943 -99.2302 -101.09 78.4269 -98.9874 -102.5 77.7961 
-103.84 -96.5218 82.6066 -104.819 -96.3777 82.841 -102.981 -96.952 82.1313 
-102.144 -97.5756 81.6099 -101.194 -98.2725 81.2733 -100.321 -99.1267 80.9435 
-99.8544 -100.219 80.2893 -99.6881 -101.441 79.469 -99.4468 -102.729 78.7949 
-99.0925 -104.047 78.2124 -102.926 -94.0199 70.4764 -103.03 -93.4432 71.4112 
-104.131 -93.9251 70.9677 -104.253 -93.4651 72.0485 -105.219 -94.1487 71.6151 
-103.159 -93.1166 72.7877 -105.4 -93.8079 72.8334 -106.327 -94.5021 72.2796 
-104.375 -93.1433 73.5164 -103.339 -92.8971 74.5023 -106.677 -94.1302 73.5561 
-107.443 -94.8898 72.8589 -105.757 -93.3845 74.2994 -104.683 -92.8922 75.2257 
-103.678 -92.9693 76.2539 -107.877 -94.4906 74.1271 -108.397 -95.523 73.4181 
-107.32 -93.6085 74.9374 -106.428 -93.0431 75.9058 -105.236 -93.0373 76.9535 
-104.099 -93.3721 77.9499 -108.824 -95.2474 74.6211 -109.313 -96.3716 73.9554 
-108.45 -94.1838 75.4374 -108.028 -93.3825 76.4352 -107.093 -93.1746 77.5458 
-105.726 -93.4524 78.5845 -104.455 -93.7198 79.5288 -109.776 -96.1999 75.0797 
-110.268 -97.1457 74.3859 -109.24 -95.2567 75.9198 -108.875 -94.3162 76.9123 
-108.4 -93.6743 78.0372 -107.376 -93.6357 79.0854 -106.02 -93.9049 79.986 
-104.833 -94.1587 80.7812 -110.705 -97.0261 75.5047 -111.092 -97.8166 74.7385 
-110.163 -96.2992 76.4022 -109.63 -95.5172 77.3872 -109.143 -94.7382 78.483 
-108.449 -94.3144 79.5299 -107.43 -94.3846 80.3481 -106.304 -94.6511 81.0498 
-105.281 -94.9775 81.6868 -111.42 -97.7885 75.8851 -111.759 -98.5003 75.0821 
-111.034 -97.1255 76.8129 -110.631 -96.4412 77.7827 -110.11 -95.7851 78.8185 
[...]
CELL_DATA 2000
SCALARS Distance double
LOOKUP_TABLE default
173.525 172.534 172.872 172.495 171.429 171.79 171.364 171.731 171.276 
170.23 170.609 170.14 170.534 170.064 170.439 169.958 168.961 169.339 
168.835 169.257 168.779 169.193 168.72 169.11 168.65 167.733 168.049 
167.509 167.916 167.423 167.864 167.39 167.832 167.387 167.815 167.4 
166.585 166.836 166.239 166.596 166.075 166.496 166.018 166.472 166.047 
166.52 166.147 166.598 166.245 165.436 165.66 164.988 165.316 164.752 
165.155 164.666 165.109 164.692 165.177 164.834 165.33 165.013 165.477 
165.164 164.311 164.482 163.769 164.052 163.463 163.836 163.335 163.763 
163.331 163.818 163.466 163.998 163.697 164.215 163.917 164.401 164.118 
163.313 163.398 162.686 162.885 162.307 162.602 162.11 162.47 162.029 
162.461 162.09 162.609 162.316 162.873 162.612 163.137 162.879 163.374 
163.141 173.955 174.343 173.766 173 174.794 174.17 173.362 172.768 
171.94 175.235 174.619 173.787 173.155 172.302 171.682 170.791 175.58 
175.021 174.193 173.576 172.709 172.068 171.153 170.497 169.557 175.819 
175.316 174.5 173.936 173.071 172.461 171.551 170.885 169.934 169.264 
168.351 175.991 175.526 174.73 174.207 173.361 172.788 171.896 171.269 
170.345 169.677 168.767 168.111 167.242 176.112 175.691 174.938 174.443 
173.629 173.07 172.187 171.585 170.676 170.063 169.184 168.555 167.688 
167.03 166.149 176.158 175.801 175.092 174.65 173.855 173.33 172.445 
171.861 170.942 170.359 169.501 168.939 168.123 167.5 166.635 165.942 
165.057 176.123 175.824 175.131 174.755 173.951 173.493 172.606 172.083 
171.18 170.624 169.782 169.243 168.485 167.927 167.152 166.482 165.629 
164.897 164.065 175.877 175.103 175.289 174.842 174.159 174.376 173.821 
174.1 173.585 173.119 173.333 172.691 172.961 172.401 172.746 172.225 
171.949 172.227 171.584 171.834 171.279 171.577 171.089 171.392 170.871 
170.55 170.923 170.257 170.64 170.072 170.462 169.975 170.305 169.796 
170.058 169.527 169.213 169.484 168.748 169.147 168.513 169.055 168.544 
169.074 168.575 168.968 168.445 168.742 168.24 168.285 168.353 167.655 
167.779 167.151 167.486 167.019 167.534 167.146 167.656 167.227 167.624 
167.131 167.45 166.919 167.576 167.626 167.042 167.004 166.44 166.463 
166.031 166.252 165.945 166.323 166 166.394 165.936 166.276 165.692 
166.016 165.396 166.756 166.918 166.376 166.451 165.874 165.902 165.369 
165.474 165.038 165.288 164.874 165.208 164.691 165.025 164.379 164.706 
164.031 164.396 163.797 162.827 162.956 162.351 161.354 163.267 162.52 
161.349 160.789 159.768 163.643 162.864 161.599 160.831 159.63 159.126 
158.101 163.961 163.247 161.995 161.126 159.814 159.086 157.926 157.445 
156.492 164.246 163.583 162.409 161.535 160.21 159.358 158.12 157.417 
156.366 155.922 155.191 164.637 163.951 162.865 161.987 160.735 159.832 
158.632 157.773 156.698 155.994 155.219 154.86 154.472 165.147 164.444 
163.431 162.538 161.39 160.465 159.403 158.474 157.51 156.594 155.85 
155.179 154.812 154.464 154.329 165.641 164.989 164.052 163.197 162.149 
161.234 160.302 159.396 158.597 157.641 156.988 156.113 155.752 155.122 
154.992 154.547 154.45 166.037 165.464 164.628 163.868 162.94 162.075 
161.237 160.378 159.691 158.817 158.247 157.375 156.99 156.242 156.05 
155.431 155.294 154.759 154.633 162.541 161.132 161.843 161.902 159.61 
160.409 160.533 161.315 161.52 157.948 158.815 158.982 159.901 160.174 
161.011 161.305 156.332 157.132 157.305 158.289 158.653 159.62 159.99 
160.838 161.201 155.09 155.661 155.841 156.686 157.129 158.113 158.615 
159.525 159.968 160.796 161.251 154.396 154.683 154.841 155.428 155.856 
156.712 157.299 158.217 158.779 159.619 160.147 160.952 161.497 154.143 
154.203 154.257 154.609 154.921 155.581 156.128 156.989 157.629 158.499 
159.117 159.924 160.518 161.287 161.844 154.121 154.032 153.961 154.126 
154.335 154.779 155.251 155.94 156.579 157.407 158.087 158.926 159.568 
160.352 160.929 161.653 162.162 154.254 154.051 153.933 153.932 154.117 
154.356 154.81 155.262 155.871 156.5 157.17 157.93 158.596 159.395 
160.004 160.755 161.293 161.976 162.46 154.333 154.595 154.256 154.059 
155.264 154.752 154.59 154.235 154.295 156.171 155.583 155.457 154.976 
155.047 154.721 154.998 157.254 156.589 156.469 155.926 155.983 155.586 
155.829 155.567 155.988 158.466 157.762 157.643 157.015 157.058 156.569 
156.782 156.438 156.806 156.618 157.171 159.627 158.974 158.88 158.254 
158.309 157.742 157.944 157.473 157.804 157.48 157.979 157.857 158.522 
160.757 160.116 160.053 159.469 159.543 159.009 159.206 158.709 159.008 
158.575 159.009 158.735 159.337 159.246 159.929 161.961 161.3 161.267 
160.661 160.742 160.207 160.388 159.92 160.196 159.781 160.165 159.826 
160.344 160.129 160.745 160.636 161.249 163.144 162.524 162.505 161.91 
161.997 161.435 161.602 161.09 161.336 160.91 161.265 160.934 161.402 
161.151 161.695 161.504 162.063 161.917 162.444 154.741 155.575 155.029 
154.96 156.649 155.994 155.897 155.409 155.555 157.888 157.189 157.095 
156.457 156.525 156.111 156.408 159.173 158.503 158.466 157.757 157.791 
157.196 157.441 157.066 157.494 160.431 159.796 159.837 159.177 159.275 
158.598 158.835 158.273 158.675 158.27 158.735 161.739 161.077 161.137 
160.532 160.709 160.112 160.389 159.789 160.142 159.59 159.971 159.52 
159.904 163.09 162.432 162.498 161.865 162.051 161.5 161.799 161.285 
161.613 161.07 161.37 160.823 161.126 160.659 161.022 164.322 163.763 
163.882 163.274 163.466 162.875 163.155 162.631 162.953 162.449 162.745 
162.209 162.492 161.956 162.285 161.818 162.215 165.393 164.932 165.099 
164.608 164.829 164.294 164.561 164.013 164.312 163.777 164.078 163.55 
163.847 163.323 163.638 163.135 163.478 163.025 163.391 166.001 165.59 
165.414 164.613 165.321 165.037 164.181 163.934 163.021 165.129 164.804 
163.923 163.584 162.659 162.343 161.424 164.934 164.603 163.727 163.372 
162.462 162.088 161.176 160.828 159.954 164.84 164.445 163.59 163.204 
162.335 161.948 161.066 160.668 159.797 159.432 158.6 164.917 164.461 
163.642 163.166 162.322 161.877 161.025 160.6 159.746 159.341 158.54 
158.164 157.427 165.051 164.613 163.852 163.336 162.508 161.97 161.122 
160.622 159.789 159.338 158.56 158.167 157.477 157.112 156.483 165.192 
164.779 164.089 163.6 162.822 162.246 161.418 160.832 160.037 159.494 
158.756 158.273 157.598 157.194 156.573 156.228 155.658 165.408 164.981 
164.356 163.878 163.17 162.604 161.831 161.221 160.484 159.886 159.21 
158.624 157.973 157.429 156.804 156.352 155.776 155.428 154.938 166.723 
167.712 166.923 166.378 168.83 167.993 167.475 166.648 166.143 170.017 
169.173 168.663 167.801 167.294 166.464 165.965 171.169 170.369 169.875 
169.014 168.48 167.622 167.103 166.277 165.772 172.216 171.487 171.04 
170.229 169.706 168.818 168.272 167.416 166.922 166.104 165.661 173.173 
172.502 172.12 171.387 170.939 170.069 169.523 168.614 168.114 167.278 
166.861 166.062 165.697 174.125 173.476 173.142 172.457 172.074 171.288 
170.777 169.881 169.351 168.491 168.066 167.271 166.898 166.122 165.78 
175.066 174.457 174.138 173.471 173.088 172.376 171.908 171.096 170.569 
169.719 169.266 168.473 168.101 167.321 166.958 166.193 165.878 175.9 
175.37 175.045 174.422 174.011 173.344 172.912 172.189 171.726 170.918 
170.462 169.659 169.28 168.515 168.168 167.391 167.055 166.307 166.049 
176.237 176.427 176.022 175.362 176.606 176.162 175.426 175.029 174.302 
176.781 176.322 175.543 175.09 174.341 173.949 173.225 176.892 176.466 
175.701 175.236 174.488 174.045 173.306 172.879 172.102 176.922 176.542 
175.779 175.363 174.585 174.174 173.378 172.953 172.106 171.682 170.849 
176.833 176.525 175.746 175.381 174.552 174.173 173.297 172.914 172.003 
171.62 170.75 170.403 169.636 176.636 176.388 175.645 175.311 174.499 
174.106 173.234 172.804 171.903 171.485 170.636 170.284 169.527 169.226 
168.522 176.461 176.223 175.55 175.22 174.464 174.077 173.288 172.838 
172.019 171.514 170.698 170.239 169.487 169.127 168.417 168.113 167.423 
176.311 176.103 175.463 175.148 174.393 174.039 173.281 172.917 172.17 
171.722 170.924 170.405 169.603 169.144 168.405 168.038 167.353 167.042 
166.415 175.993 175.021 175.424 175.102 173.765 174.273 173.947 174.373 
173.979 172.474 172.961 172.623 173.102 172.752 173.204 172.86 171.181 
171.679 171.33 171.787 171.447 171.934 171.648 172.122 171.795 169.737 
170.32 169.975 170.488 170.125 170.628 170.31 170.843 170.52 170.999 
170.575 168.199 168.804 168.463 169.051 168.703 169.264 168.921 169.465 
169.104 169.627 169.21 169.68 169.226 166.734 167.29 166.96 167.528 
167.211 167.797 167.497 168.06 167.727 168.227 167.839 168.299 167.899 
168.357 167.995 165.386 165.889 165.58 166.095 165.786 166.333 166.046 
166.623 166.334 166.873 166.541 167.006 166.654 167.087 166.764 167.215 
166.94 164.151 164.597 164.291 164.77 164.461 164.963 164.662 165.199 
164.911 165.468 165.17 165.703 165.392 165.878 165.581 166.034 165.773 
166.228 166.015 176.283 176.358 176.02 175.327 176.436 176.036 175.291 
174.919 174.105 176.61 176.14 175.351 174.902 174.084 173.659 172.832 
176.654 176.285 175.485 175.021 174.139 173.651 172.746 172.351 171.496 
176.315 176.143 175.322 175.033 174.056 173.625 172.544 172.153 171.162 
170.899 170.002 175.759 175.65 174.794 174.64 173.629 173.334 172.164 
171.805 170.702 170.451 169.514 169.328 168.457 175.233 175.097 174.255 
174.062 173.109 172.831 171.761 171.39 170.322 169.994 169.054 168.825 
167.965 167.783 166.969 174.728 174.614 173.833 173.609 172.739 172.432 
171.503 171.111 170.147 169.73 168.789 168.441 167.548 167.3 166.468 
166.318 165.58 174.201 174.127 173.409 173.228 172.416 172.15 171.291 
170.951 170.047 169.636 168.685 168.255 167.308 166.948 166.08 165.847 
165.103 164.985 164.345 176.786 177.611 177.12 176.954 178.656 178.047 
177.958 177.356 177.159 179.849 179.186 179.12 178.5 178.407 177.667 
177.414 180.837 180.308 180.212 179.687 179.643 178.982 178.721 177.893 
177.458 181.431 181.103 180.986 180.624 180.528 180.071 179.781 179.091 
178.534 177.729 177.097 181.793 181.559 181.443 181.198 181.004 180.696 
180.312 179.854 179.241 178.61 177.896 177.188 176.515 182.167 181.897 
181.734 181.514 181.256 180.991 180.531 180.16 179.529 179.068 178.372 
177.83 177.153 176.546 175.925 182.588 182.283 182.037 181.758 181.458 
181.175 180.744 180.365 179.788 179.323 178.686 178.196 177.559 177.057 
176.44 175.914 175.336 182.853 182.64 182.36 182.062 181.722 181.397 
181.005 180.634 180.158 179.691 179.123 178.584 177.968 177.433 176.82 
176.328 175.749 175.282 174.748 182.783 182.441 182.572 182.362 181.934 
182.172 182.006 182.065 181.723 181.188 181.546 181.38 181.602 181.282 
181.345 180.953 180.228 180.66 180.464 180.826 180.526 180.759 180.378 
180.508 180.084 179.195 179.643 179.445 179.836 179.522 179.85 179.467 
179.761 179.343 179.536 179.042 178.088 178.579 178.392 178.811 178.489 
178.809 178.386 178.716 178.295 178.628 178.153 178.375 177.84 176.878 
177.406 177.206 177.701 177.402 177.77 177.341 177.637 177.192 177.52 
177.083 177.383 176.888 177.124 176.639 175.682 176.18 175.978 176.476 
176.213 176.643 176.264 176.592 176.15 176.454 176.029 176.329 175.891 
176.149 175.7 175.954 175.556 174.58 175.033 174.85 175.298 175.059 
175.476 175.141 175.498 175.08 175.403 174.974 175.296 174.882 175.176 
174.763 175.028 174.645 174.919 174.578 173.92 172.925 173.696 174.173 
171.715 172.6 173.102 173.903 174.342 170.378 171.298 171.796 172.715 
173.171 173.996 174.378 169.052 169.931 170.389 171.334 171.798 172.717 
173.115 173.952 174.297 167.79 168.607 169.012 169.915 170.36 171.299 
171.718 172.617 172.995 173.838 174.193 166.628 167.372 167.735 168.558 
168.975 169.874 170.312 171.217 171.635 172.514 172.922 173.758 174.125 
165.557 166.252 166.603 167.342 167.741 168.551 169.003 169.865 170.331 
171.195 171.651 172.499 172.926 173.716 174.06 164.527 165.204 165.561 
166.265 166.655 167.393 167.83 168.63 169.114 169.952 170.44 171.274 
171.734 172.538 172.939 173.671 173.991 163.551 164.194 164.549 165.239 
165.618 166.331 166.73 167.491 167.942 168.765 169.248 170.085 170.546 
171.362 171.783 172.557 172.926 173.629 173.941 173.695 172.633 173.089 
172.877 171.453 171.934 171.671 172.158 171.877 170.2 170.685 170.366 
170.87 170.557 171.077 170.757 168.889 169.379 169.014 169.515 169.147 
169.685 169.336 169.888 169.518 167.556 168.019 167.606 168.11 167.697 
168.232 167.823 168.389 167.978 168.555 168.134 166.32 166.695 166.215 
166.664 166.202 166.731 166.293 166.85 166.405 166.967 166.526 167.115 
166.718 165.202 165.505 164.976 165.312 164.781 165.223 164.75 165.292 
164.861 165.418 164.998 165.544 165.17 165.755 165.477 164.131 164.406 
163.865 164.133 163.564 163.876 163.346 163.778 163.341 163.882 163.518 
164.078 163.756 164.303 164.056 164.645 164.504 163.13 163.355 162.816 
163.052 162.49 162.733 162.19 162.49 162.033 162.451 162.11 162.636 
162.375 162.936 162.725 163.298 163.166 163.783 163.742 176.756 176.827 
177.126 177.813 176.834 177.192 177.897 178.219 178.911 176.749 177.17 
177.901 178.27 178.942 179.261 179.882 176.572 177.036 177.777 178.22 
178.953 179.306 179.965 180.223 180.833 176.329 176.818 177.541 178.036 
178.848 179.321 180.136 180.427 181.073 181.222 181.745 176.007 176.541 
177.256 177.767 178.56 179.146 180.049 180.565 181.277 181.494 181.88 
181.982 182.262 175.563 176.159 176.873 177.435 178.141 178.754 179.537 
180.245 180.95 181.466 181.807 182.004 182.124 182.281 182.464 175.06 
175.656 176.338 176.959 177.609 178.229 178.852 179.547 180.145 180.841 
181.25 181.701 181.87 182.096 182.249 182.461 182.699 174.609 175.139 
175.758 176.361 176.983 177.61 178.186 178.808 179.326 179.968 180.423 
181.009 181.344 181.754 181.986 182.256 182.472 182.703 182.882 176.901 
178.002 177.46 177.483 179.163 178.66 178.741 178.106 178.035 180.167 
179.798 179.959 179.404 179.312 178.578 178.264 181.085 180.76 180.968 
180.537 180.459 179.789 179.369 178.578 178.035 181.95 181.679 181.88 
181.494 181.453 180.849 180.477 179.666 179.082 178.241 177.683 182.477 
182.403 182.575 182.324 182.267 181.782 181.519 180.818 180.404 179.478 
178.938 177.983 177.481 182.713 182.744 182.904 182.809 182.702 182.411 
182.15 181.743 181.475 180.836 180.399 179.426 178.814 177.823 177.295 
182.938 182.949 183.105 183.028 182.912 182.681 182.378 182.137 181.87 
181.615 181.247 180.67 180 179.117 178.385 177.554 177.034 183.07 
183.131 183.239 183.202 183.096 182.883 182.573 182.298 181.964 181.776 
181.41 181.137 180.521 179.962 179.174 178.48 177.824 177.209 176.769 
176.35 176.861 176.287 175.629 177.32 176.769 176.087 175.522 174.78 
177.51 177.107 176.385 175.915 175.181 174.611 173.776 177.347 177.135 
176.45 176.101 175.343 174.893 174.054 173.508 172.572 177.036 176.906 
176.371 176.126 175.419 174.985 174.115 173.634 172.699 172.183 171.186 
176.767 176.623 176.174 176.053 175.49 175.101 174.241 173.689 172.745 
172.236 171.32 170.786 169.88 176.553 176.366 175.847 175.799 175.298 
175.111 174.33 173.849 172.891 172.338 171.455 170.946 170.144 169.61 
168.876 176.378 176.154 175.548 175.426 174.853 174.773 174.067 173.812 
172.924 172.484 171.597 171.12 170.329 169.86 169.133 168.683 168.041 
176.216 175.999 175.381 175.152 174.505 174.328 173.645 173.465 172.707 
172.422 171.613 171.228 170.434 170.01 169.251 168.842 168.139 167.789 
167.161 176.795 177.013 177.14 177.622 177.314 177.453 178.086 178.129 
178.727 177.59 177.823 178.607 178.731 179.473 179.425 180.017 177.649 
178.008 178.775 179.14 179.937 180.146 180.757 180.676 181.037 177.582 
177.959 178.589 179.044 179.725 180.253 180.875 181.17 181.498 181.445 
181.574 177.484 177.86 178.43 178.781 179.335 179.824 180.451 180.974 
181.459 181.687 181.887 181.825 181.917 177.287 177.706 178.292 178.64 
179.19 179.534 180.162 180.591 181.237 181.582 182.027 182.103 182.334 
182.209 182.356 177.039 177.456 178.057 178.475 179.114 179.482 180.146 
180.482 181.127 181.453 181.998 182.227 182.605 182.636 182.86 182.705 
182.821 176.785 177.184 177.782 178.239 178.974 179.432 180.19 180.537 
181.141 181.395 181.851 182.129 182.516 182.764 183.033 183.099 183.199 
183.076 183.056 
POINT_DATA 1002
SCALARS Distance double
LOOKUP_TABLE default
173.217 174.131 173.232 172.169 172.203 172.1 171.001 171.085 170.925 
170.804 169.744 169.863 169.68 169.592 169.483 168.413 168.608 168.351 
168.31 168.26 168.212 167.13 167.463 166.987 166.934 166.928 166.976 
167.015 165.918 166.375 165.672 165.569 165.555 165.66 165.808 165.917 
164.687 165.248 164.361 164.227 164.207 164.319 164.526 164.709 164.869 
163.513 164.173 163.109 162.922 162.86 162.932 163.154 163.415 163.63 
163.857 162.511 163.255 162.036 161.778 161.633 161.597 161.746 162.054 
162.371 162.639 162.93 174.503 173.566 174.96 173.985 175.441 172.536 
174.434 175.834 172.946 171.426 174.798 176.11 173.35 171.834 170.202 
175.043 176.307 173.662 172.203 170.621 168.983 175.232 176.438 173.919 
172.503 170.985 169.431 167.89 175.406 176.495 174.18 172.792 171.27 
169.776 168.348 166.827 175.505 176.475 174.366 173.022 171.524 170.035 
168.696 167.329 165.752 175.494 176.402 174.396 173.092 171.706 170.314 
169 167.762 166.368 164.768 175.739 174.638 174.936 173.558 173.986 
173.27 172.459 172.914 172.059 171.879 171.311 171.624 170.986 170.795 
170.595 169.837 170.191 169.626 169.607 169.527 169.27 168.427 169.026 
167.982 167.937 168.092 168.11 167.96 167.609 168.224 166.932 166.545 
166.58 166.77 166.807 166.631 167.048 167.459 166.475 165.918 165.635 
165.625 165.61 165.395 165.052 166.252 166.56 165.834 165.319 164.875 
164.608 164.394 164.072 163.674 163.368 161.858 161.83 160.378 162.058 
160.163 158.766 162.467 160.276 158.454 157.089 162.884 160.638 158.533 
156.798 155.597 163.261 161.089 158.908 156.927 155.379 154.604 163.723 
161.616 159.505 157.49 155.683 154.602 154.215 164.294 162.279 160.278 
158.431 156.614 155.259 154.581 154.194 164.843 163.023 161.148 159.483 
157.881 156.471 155.531 154.869 154.291 165.301 163.743 162.059 160.506 
159.088 157.775 156.726 155.897 155.121 154.49 161.163 159.689 160.751 
157.994 159.267 160.508 156.318 157.609 159.089 160.378 155.075 156.137 
157.648 159.115 160.417 154.376 155.08 156.359 157.898 159.333 160.699 
154.024 154.377 155.313 156.72 158.276 159.749 161.114 153.881 153.981 
154.654 155.794 157.231 158.762 160.201 161.481 153.984 153.937 154.439 
155.344 156.482 157.804 159.229 160.59 161.814 154.53 154.259 155.001 
155.003 155.794 154.513 155.957 156.768 155.417 155.217 157.047 157.95 
156.408 156.129 156.146 158.292 159.161 157.595 157.175 157.046 157.232 
159.474 160.25 158.877 158.46 158.202 158.17 158.54 160.627 161.395 
160.061 159.693 159.468 159.36 159.502 159.974 161.879 162.613 161.298 
160.871 160.604 160.519 160.62 160.915 161.349 163.083 163.737 162.556 
162.14 161.798 161.611 161.669 161.921 162.253 162.592 155.206 155.353 
156.168 156.466 157.315 155.877 157.789 158.563 157.033 156.669 159.159 
159.8 158.454 157.891 157.768 160.434 161.064 159.922 159.455 159.164 
159.098 161.736 162.421 161.243 160.965 160.752 160.515 160.305 163.141 
163.711 162.619 162.294 162.142 161.947 161.654 161.424 164.441 164.817 
164.066 163.715 163.46 163.26 163.029 162.794 162.639 165.54 165.823 
165.32 165.103 164.866 164.613 164.363 164.149 163.973 163.826 166.145 
164.799 165.831 164.484 165.649 163.263 164.282 165.458 163.006 161.709 
164.071 165.274 162.831 161.552 160.272 163.992 165.258 162.711 161.465 
160.184 158.939 164.138 165.358 162.798 161.459 160.155 158.903 157.781 
164.345 165.452 163.075 161.654 160.255 158.96 157.822 156.83 164.543 
165.585 163.382 162.012 160.59 159.27 158.042 156.933 155.959 167.467 
167.162 168.509 168.312 169.671 166.954 169.539 170.846 168.142 166.792 
170.725 171.941 169.366 167.937 166.585 171.799 172.91 170.601 169.156 
167.729 166.455 172.799 173.815 171.764 170.455 168.963 167.653 166.477 
173.819 174.746 172.813 171.649 170.231 168.863 167.687 166.532 174.812 
175.643 173.787 172.669 171.411 170.068 168.873 167.747 166.598 175.657 
176.405 174.67 173.581 172.49 171.28 170.041 168.929 167.829 166.741 