# vtk DataFile Version 4.0
vtk output
ASCII
DATASET POLYDATA
POINTS 1002 float
-105.999 -121.674 75.2327 -106.582 -122.787 74.6355 -106.338 -122.249 73.939 
-105.738 -120.952 74.54 -106.157 -121.506 73.3447 -105.425 -120.375 75.9809 
-105.451 -120.112 73.8656 -106.027 -120.534 72.8369 -105.069 -119.595 75.2647 
-104.619 -119.265 76.5584 -105.148 -119.151 73.2406 -105.829 -119.46 72.3229 
-104.602 -118.797 74.4258 -104.201 -118.456 75.7384 -103.729 -118.096 76.8305 
-104.863 -118.049 72.6765 -105.509 -118.354 71.7472 -104.145 -117.87 73.6118 
-103.632 -117.61 74.7792 -103.297 -117.096 75.9918 -102.945 -116.483 77.1743 
-104.573 -116.816 72.1711 -105.197 -117.122 71.253 -103.813 -116.689 72.9694 
-103.068 -116.573 73.916 -102.597 -116.161 75.1489 -102.28 -115.567 76.4708 
-101.939 -115.119 77.809 -104.206 -115.563 71.7244 -104.981 -115.805 70.9638 
-103.438 -115.443 72.4715 -102.606 -115.355 73.2858 -101.881 -115.149 74.4145 
-101.392 -114.858 75.7527 -101.007 -114.618 77.1184 -100.667 -114.394 78.4357 
-103.747 -114.405 71.277 -104.738 -114.587 70.7615 -102.87 -114.337 71.9403 
-102.096 -114.233 72.7671 -101.351 -114.069 73.8131 -100.714 -113.979 75.0222 
-100.277 -113.95 76.3008 -99.9566 -113.79 77.6393 -99.7377 -113.431 78.9072 
-103.265 -113.367 70.8126 -104.37 -113.533 70.519 -102.267 -113.32 71.3184 
-101.527 -113.211 72.1559 -100.953 -113.011 73.2293 -100.374 -112.888 74.3494 
-99.9322 -112.839 75.493 -99.7278 -112.656 76.7883 -99.5759 -112.285 78.1629 
-99.4374 -111.881 79.3518 -102.866 -112.414 70.4172 -103.959 -112.578 70.257 
-101.851 -112.328 70.7743 -101.099 -112.153 71.5192 -100.654 -111.88 72.5815 
-100.252 -111.669 73.7037 -99.8362 -111.51 74.8031 -99.6926 -111.235 76.0478 
-99.7319 -110.848 77.467 -99.6407 -110.519 78.7881 -99.4555 -110.348 79.7851 
-107.237 -123.316 73.7948 -107.003 -122.77 73.1536 -108.177 -123.598 73.1261 
-107.957 -122.941 72.4606 -109.263 -123.707 72.4073 -106.884 -121.925 72.6017 
-109.021 -122.998 71.548 -110.378 -123.768 71.5564 -107.8 -122.022 71.7788 
-106.787 -120.858 72.0442 -110.152 -123.078 70.6404 -111.572 -123.634 70.8352 
-108.78 -122.105 70.7696 -107.586 -121.034 71.0618 -106.491 -119.823 71.3592 
-111.485 -122.767 70.1116 -112.88 -123.125 70.2468 -109.979 -122.054 70.0527 
-108.546 -121.113 70.1525 -107.221 -120.088 70.3261 -106.093 -118.726 70.6837 
-112.877 -122.048 69.6685 -114.151 -122.528 69.5623 -111.392 -121.504 69.6278 
-109.849 -120.825 69.5852 -108.314 -120.011 69.6384 -106.952 -118.889 69.8405 
-105.913 -117.356 70.3491 -114.006 -121.524 69.0321 -115.19 -122.161 68.8116 
-112.596 -120.877 69.0534 -111.127 -120.289 68.9579 -109.612 -119.623 69.0456 
-108.136 -118.706 69.308 -106.935 -117.431 69.7317 -105.9 -115.922 70.317 
-114.839 -121.265 68.3006 -115.951 -121.867 68.0844 -113.47 -120.553 68.3846 
-112.044 -119.937 68.2339 -110.624 -119.325 68.2031 -109.194 -118.483 68.5295 
-107.963 -117.386 69.0716 -106.919 -116.064 69.7242 -105.739 -114.671 70.2839 
-115.533 -120.902 67.5744 -116.521 -121.409 67.4087 -114.269 -120.229 67.7778 
-112.845 -119.625 67.737 -111.395 -119.101 67.5328 -109.946 -118.365 67.5877 
-108.688 -117.347 68.0791 -107.723 -116.173 68.8684 -106.694 -114.858 69.6696 
-105.364 -113.571 70.1508 -116.491 -120.472 66.8623 -115.432 -119.839 67.1271 
-116.491 -119.309 66.5845 -115.343 -118.593 66.9469 -116.4 -118.058 66.6444 
-114.057 -119.16 67.3792 -114.973 -117.29 66.9021 -115.954 -116.632 66.7547 
-113.761 -117.908 67.1106 -112.45 -118.637 67.2709 -114.197 -115.777 66.8374 
-115.135 -114.985 66.8996 -113.121 -116.463 66.8248 -111.885 -117.296 66.8683 
-110.751 -118.043 67.0135 -113.343 -114.147 67.0527 -114.196 -113.519 67.4033 
-112.334 -114.786 66.7617 -111.182 -115.578 66.6787 -110.047 -116.481 66.7581 
-109.23 -117.104 67.189 -112.585 -112.799 67.7385 -113.297 -112.381 68.2058 
-111.69 -113.219 67.257 -110.625 -113.794 67.037 -109.544 -114.627 67.1034 
-108.711 -115.45 67.3506 -108.182 -115.96 67.9798 -111.802 -111.638 68.6739 
-112.438 -111.248 69.0575 -111.038 -111.953 68.1814 -110.14 -112.304 67.8254 
-109.218 -112.909 67.8753 -108.437 -113.673 68.1109 -107.813 -114.306 68.4387 
-107.261 -114.68 69.0171 -111.001 -110.394 69.6245 -111.61 -110.069 69.9094 
-110.301 -110.69 69.2235 -109.531 -110.948 68.7725 -108.768 -111.361 68.6418 
-108.076 -111.962 68.8586 -107.382 -112.534 69.101 -106.645 -112.973 69.3697 
-105.959 -113.306 69.7604 -110.29 -109.177 70.441 -110.855 -109.045 70.7263 
-109.636 -109.337 70.0966 -108.92 -109.486 69.6559 -108.204 -109.743 69.351 
-107.505 -110.202 69.3726 -106.741 -110.718 69.523 -105.885 -111.178 69.6286 
-105.079 -111.645 69.7805 -104.445 -112.128 70.0118 -102.928 -111.447 70.084 
-103.401 -110.716 69.8776 -102.112 -110.069 70.031 -104.052 -109.946 69.7495 
-102.574 -109 69.8158 -101.541 -108.193 70.1944 -104.944 -109.286 69.7519 
-103.221 -107.941 69.7342 -102.013 -106.862 69.9293 -101.086 -105.98 70.4593 
-105.969 -108.738 69.8013 -104.212 -107.149 69.8493 -102.781 -105.764 69.847 
-101.7 -104.715 70.2213 -100.809 -104.044 70.8599 -106.923 -108.261 69.8276 
-105.428 -106.635 70.0454 -103.986 -105.138 70.0124 -102.783 -103.928 70.2007 
-101.692 -103.092 70.8121 -100.821 -102.567 71.5199 -107.752 -107.991 69.9996 
-106.524 -106.371 70.2487 -105.286 -104.892 70.3647 -104.153 -103.601 70.4631 
-103.002 -102.542 70.9053 -101.871 -101.789 71.5885 -101.002 -101.246 72.2217 
-108.521 -107.957 70.3914 -107.415 -106.385 70.5662 -106.324 -104.913 70.8244 
-105.322 -103.583 71.0448 -104.296 -102.291 71.2415 -103.147 -101.242 71.6727 
-102.085 -100.562 72.247 -101.272 -100.136 72.865 -109.235 -108.012 70.8381 
-108.212 -106.583 71.0294 -107.206 -105.102 71.3126 -106.258 -103.741 71.7022 
-105.333 -102.356 71.8702 -104.316 -101.025 71.9811 -103.289 -100.116 72.3546 
-102.387 -99.6465 72.944 -101.639 -99.4213 73.6909 -109.851 -108.089 71.2416 
-108.914 -106.853 71.55 -108.032 -105.382 71.8064 -107.184 -103.931 72.1712 
-106.326 -102.561 72.4209 -105.39 -101.192 72.4993 -104.444 -100.067 72.7328 
-103.582 -99.4102 73.2237 -102.776 -99.0895 73.8938 -102.036 -98.9476 74.7173 
-101.894 -111.3 70.3155 -101.224 -109.748 70.4941 -101.026 -111.045 70.8982 
-100.753 -107.652 70.833 -100.541 -109.242 71.2918 -100.506 -110.631 71.8669 
-100.379 -105.475 71.1574 -100.235 -107.152 71.7103 -100.219 -108.751 72.3474 
-100.226 -110.277 73.0234 -100.209 -103.658 71.6647 -100.01 -105.193 72.1924 
-100.024 -106.817 72.931 -99.9866 -108.405 73.6083 -99.8726 -110.018 74.2255 
-100.241 -102.061 72.3787 -99.8463 -103.376 72.8896 -99.7743 -104.939 73.7054 
-99.7849 -106.445 74.4442 -99.7248 -108.012 75.0375 -99.6813 -109.66 75.5693 
-100.411 -100.681 73.0844 -99.7901 -101.708 73.6026 -99.491 -103.157 74.436 
-99.4983 -104.623 75.2485 -99.6449 -106.073 75.9345 -99.7818 -107.656 76.5946 
-99.8297 -109.27 77.1087 -100.742 -99.7801 73.9192 -99.9958 -100.519 74.3561 
-99.4547 -101.745 75.0508 -99.2304 -103.156 75.8077 -99.3774 -104.553 76.5324 
-99.6964 -106.075 77.3697 -99.9126 -107.618 78.1407 -99.8732 -109.068 78.5742 
-101.169 -99.253 74.9949 -100.433 -99.8326 75.3566 -99.8059 -100.806 75.85 
-99.2927 -102.054 76.4487 -99.0844 -103.365 77.0877 -99.2542 -104.824 77.8741 
-99.5552 -106.412 78.7577 -99.7055 -107.834 79.3908 -99.6262 -109.083 79.6634 
-101.865 -98.6365 76.0152 -101.097 -99.1402 76.4362 -101.8 -98.41 77.355 
-101.164 -99.1244 77.8057 -101.979 -98.516 78.4824 -100.466 -99.9256 76.8375 
-101.315 -99.2879 78.9302 -102.332 -99.0259 79.4658 -100.511 -99.9892 78.2614 
-99.7964 -100.991 77.3332 -101.427 -99.6415 80.1834 -102.6 -99.5732 80.7197 
-100.456 -100.085 79.6353 -99.6857 -101.041 78.931 -99.1535 -102.223 77.9544 
-101.485 -100.015 81.8374 -102.739 -99.9724 82.2735 -100.444 -100.386 81.1687 
-99.656 -101.204 80.4879 -99.0394 -102.342 79.6672 -98.8884 -103.635 78.6544 
-101.661 -100.488 83.3354 -102.982 -100.572 83.5188 -100.598 -100.842 82.7122 
-99.9512 -101.696 81.8367 -99.3638 -102.708 81.0933 -98.8998 -103.951 80.2722 
-99.0327 -105.328 79.414 -102.137 -101.33 84.1754 -103.435 -101.508 84.218 
-100.96 -101.506 83.8603 -100.303 -102.351 83.052 -99.9276 -103.38 82.2116 
-99.3913 -104.436 81.5008 -99.0333 -105.785 80.7273 -99.2589 -107.007 80.0321 
-102.812 -102.409 84.7013 -103.937 -102.47 84.8026 -101.614 -102.476 84.591 
-100.708 -103.129 84.1211 -100.232 -104.158 83.3885 -99.8444 -105.13 82.6476 
-99.3695 -106.262 81.8178 -99.1614 -107.488 80.9993 -99.3576 -108.374 80.346 
-103.403 -103.392 85.3475 -104.338 -103.249 85.541 -102.378 -103.543 85.2018 
-101.409 -104.045 84.8997 -100.644 -104.958 84.3898 -100.1 -105.912 83.7812 
-99.6804 -106.865 82.9745 -99.3808 -107.941 81.9883 -99.2914 -108.867 81.1404 
-99.3659 -109.569 80.4805 -102.909 -98.5343 75.2231 -102.728 -98.0215 76.4528 
-103.919 -98.1708 75.6935 -103.857 -97.4978 76.7707 -105.051 -98.0222 76.1625 
-102.717 -97.738 77.7368 -105.265 -97.3224 77.2453 -106.257 -98.1526 76.7599 
-104.022 -97.291 78.1625 -103.045 -98.1059 78.9422 -106.732 -97.5317 78.0203 
-107.384 -98.521 77.4538 -105.607 -97.2382 78.8863 -104.393 -97.8932 79.6141 
-103.505 -98.9006 80.0193 -107.925 -98.0737 78.761 -108.367 -99.1354 78.0319 
-107.114 -97.5663 79.6652 -105.824 -97.9124 80.4086 -104.698 -98.7328 80.7398 
-103.795 -99.4915 81.2629 -108.894 -98.9274 79.1962 -109.388 -99.9014 78.4211 
-108.314 -98.2654 80.1101 -107.229 -98.2782 80.9802 -105.931 -98.7072 81.5094 
-104.926 -99.3003 81.957 -104 -99.9815 82.7091 -109.919 -99.8733 79.4718 
-110.457 -100.666 78.7229 -109.359 -99.2023 80.3576 -108.565 -98.9628 81.3385 
-107.391 -99.0833 82.1841 -106.199 -99.3575 82.8142 -105.212 -99.9645 83.3687 
-104.301 -100.797 83.8438 -110.893 -100.758 79.7558 -111.292 -101.477 79.0165 
-110.356 -100.136 80.6573 -109.73 -99.7436 81.7202 -108.872 -99.6865 82.7397 
-107.727 -99.8257 83.5212 -106.527 -100.2 84.0931 -105.501 -100.93 84.4376 
-104.667 -101.772 84.6014 -111.572 -101.678 80.0613 -111.802 -102.406 79.3179 
-111.161 -101.065 80.985 -110.636 -100.578 82.0907 -110.021 -100.344 83.1669 
[...]
CELL_DATA 2000
SCALARS Distance double
LOOKUP_TABLE default
177.349 176.479 176.749 176.428 175.53 175.805 175.422 175.776 175.459 
174.492 174.778 174.32 174.691 174.333 174.748 174.37 173.356 173.671 
173.153 173.515 173.082 173.529 173.111 173.537 173.055 172.144 172.483 
171.935 172.29 171.772 172.201 171.727 172.19 171.71 172.148 171.707 
170.935 171.247 170.683 171.032 170.464 170.85 170.324 170.772 170.321 
170.795 170.426 170.899 170.615 169.788 170.032 169.41 169.749 169.172 
169.538 169.003 169.404 168.97 169.439 169.132 169.644 169.406 169.904 
169.664 168.697 168.871 168.162 168.457 167.865 168.241 167.743 168.139 
167.723 168.155 167.845 168.353 168.127 168.667 168.442 168.94 168.679 
167.67 167.781 167.034 167.241 166.63 166.958 166.491 166.9 166.524 
166.951 166.626 167.088 166.838 167.369 167.187 167.719 167.538 168 
167.804 177.771 178.212 177.647 176.955 178.656 178.089 177.375 176.806 
176.057 179.036 178.477 177.712 177.177 176.409 175.857 175.045 179.41 
178.838 178.029 177.461 176.656 176.139 175.316 174.774 173.906 179.741 
179.22 178.431 177.812 176.971 176.384 175.548 174.997 174.118 173.569 
172.68 179.93 179.5 178.744 178.196 177.349 176.743 175.882 175.274 
174.401 173.795 172.912 172.345 171.497 180.051 179.649 178.886 178.412 
177.558 177.044 176.173 175.618 174.748 174.139 173.284 172.662 171.841 
171.242 170.436 180.122 179.753 178.974 178.51 177.639 177.161 176.289 
175.816 174.95 174.438 173.595 173.05 172.259 171.672 170.881 170.243 
169.423 180.037 179.758 178.995 178.581 177.72 177.242 176.37 175.895 
175.018 174.547 173.681 173.242 172.461 172.024 171.274 170.719 169.899 
169.24 168.404 179.689 178.799 179.071 178.655 177.9 178.145 177.688 
177.927 177.405 176.841 177.165 176.621 176.899 176.331 176.599 176.041 
175.416 175.886 175.245 175.656 174.991 175.388 174.766 175.152 174.604 
173.922 174.343 173.675 174.107 173.394 173.868 173.208 173.71 173.148 
173.656 173.204 172.756 173 172.372 172.626 171.961 172.297 171.71 
172.147 171.682 172.18 171.83 172.346 172.042 171.802 171.995 171.41 
171.543 170.92 171.084 170.567 170.857 170.506 170.893 170.633 171.071 
170.816 171.271 170.941 170.853 171.066 170.506 170.657 170.032 170.161 
169.607 169.849 169.473 169.84 169.533 169.939 169.577 170.016 169.585 
170.055 169.569 169.963 170.132 169.575 169.736 169.097 169.242 168.605 
168.842 168.329 168.718 168.268 168.716 168.187 168.642 168.058 168.562 
168.005 168.543 168.036 167.053 166.918 166.472 165.537 166.902 166.318 
165.22 164.885 163.989 167.052 166.351 165.1 164.552 163.478 163.249 
162.372 167.248 166.561 165.297 164.536 163.331 162.819 161.871 161.652 
160.926 167.426 166.795 165.677 164.865 163.7 162.925 161.981 161.438 
160.775 160.482 160.028 167.754 167.087 166.128 165.348 164.354 163.516 
162.657 161.897 161.264 160.686 160.242 159.878 159.551 168.288 167.582 
166.722 165.936 165.09 164.289 163.554 162.76 162.126 161.391 160.856 
160.286 159.875 159.503 159.222 168.852 168.204 167.44 166.665 165.907 
165.118 164.474 163.711 163.113 162.321 161.707 160.977 160.473 159.94 
159.637 159.29 159.177 169.345 168.791 168.155 167.453 166.775 166.004 
165.388 164.646 164.086 163.315 162.715 161.898 161.361 160.665 160.36 
159.865 159.777 159.436 159.49 166.849 165.419 166.149 166.223 163.973 
164.75 164.868 165.61 165.81 162.414 163.275 163.459 164.275 164.522 
165.315 165.668 160.952 161.72 161.982 162.86 163.213 164.059 164.476 
165.292 165.739 159.965 160.445 160.724 161.493 161.973 162.816 163.32 
164.134 164.621 165.411 165.869 159.385 159.649 159.824 160.419 160.91 
161.695 162.258 163.04 163.556 164.322 164.831 165.588 166.095 159.021 
159.136 159.189 159.613 160.004 160.706 161.261 162.028 162.586 163.332 
163.923 164.654 165.266 165.949 166.51 159.006 158.918 158.959 159.116 
159.443 159.908 160.441 161.092 161.691 162.419 163.099 163.858 164.587 
165.265 165.897 166.459 166.955 159.353 159.129 159.219 159.137 159.457 
159.606 160.11 160.48 161.066 161.626 162.31 163.056 163.84 164.613 
165.311 165.918 166.417 166.892 167.278 159.601 160.045 159.712 159.554 
160.667 160.282 160.231 159.836 159.82 161.49 160.998 160.957 160.575 
160.601 160.241 160.382 162.497 161.88 161.734 161.303 161.327 161.007 
161.143 160.878 161.192 163.594 162.91 162.704 162.144 162.151 161.764 
161.948 161.647 161.983 161.794 162.352 164.72 164.019 163.829 163.198 
163.228 162.742 162.989 162.582 162.968 162.67 163.257 163.129 163.871 
165.907 165.189 165.022 164.363 164.42 163.916 164.22 163.78 164.183 
163.777 164.299 164.077 164.76 164.682 165.349 167.147 166.443 166.33 
165.628 165.697 165.148 165.468 165.045 165.464 165.042 165.471 165.133 
165.654 165.502 166.059 165.984 166.446 168.336 167.712 167.68 167.003 
167.087 166.483 166.766 166.3 166.701 166.288 166.678 166.283 166.679 
166.387 166.82 166.644 167.049 166.927 167.285 159.857 160.378 160.086 
160.163 161.065 160.613 160.593 160.434 160.701 162.073 161.427 161.376 
160.994 161.291 161.157 161.615 163.36 162.631 162.645 162.037 162.344 
161.98 162.493 162.262 162.754 164.695 164.021 164.124 163.478 163.741 
163.214 163.618 163.26 163.722 163.448 163.873 166.004 165.378 165.523 
164.944 165.19 164.633 164.904 164.415 164.753 164.418 164.845 164.575 
164.997 167.324 166.713 166.874 166.311 166.588 166.047 166.345 165.759 
166.052 165.535 165.939 165.584 166.065 165.748 166.19 168.576 168.03 
168.207 167.662 167.953 167.443 167.818 167.26 167.607 166.985 167.337 
166.808 167.244 166.856 167.309 166.961 167.383 169.685 169.228 169.426 
168.951 169.229 168.777 169.148 168.698 169.072 168.537 168.842 168.263 
168.568 168.077 168.437 168.057 168.44 168.115 168.502 169.434 169.322 
169.033 168.308 169.222 168.917 168.138 167.817 166.986 169.041 168.758 
167.934 167.617 166.748 166.437 165.61 168.876 168.556 167.717 167.378 
166.477 166.163 165.305 165.063 164.28 168.849 168.46 167.651 167.228 
166.33 165.917 165.033 164.734 163.924 163.712 162.917 168.921 168.503 
167.739 167.275 166.435 165.913 165.055 164.587 163.812 163.447 162.704 
162.386 161.646 169.07 168.626 167.899 167.43 166.659 166.128 165.329 
164.779 164.048 163.549 162.889 162.409 161.757 161.312 160.721 169.325 
168.851 168.17 167.663 166.935 166.4 165.644 165.104 164.374 163.869 
163.196 162.716 162.082 161.603 161.028 160.592 160.143 169.656 169.18 
168.557 168.021 167.334 166.755 166.036 165.459 164.745 164.2 163.489 
162.99 162.304 161.875 161.281 160.914 160.462 160.127 159.814 170.082 
171.066 170.367 170.007 172.176 171.419 171.051 170.337 169.956 173.298 
172.549 172.163 171.422 171.021 170.268 169.817 174.377 173.641 173.265 
172.537 172.139 171.365 170.909 170.113 169.658 175.504 174.742 174.391 
173.65 173.29 172.507 172.079 171.256 170.813 170.011 169.617 176.628 
175.904 175.586 174.835 174.494 173.689 173.275 172.447 172.028 171.217 
170.83 170.033 169.683 177.61 176.987 176.705 176.029 175.697 174.913 
174.472 173.637 173.205 172.423 172.063 171.28 170.929 170.128 169.811 
178.481 177.919 177.661 177.07 176.764 176.067 175.635 174.824 174.369 
173.585 173.238 172.498 172.183 171.396 171.062 170.278 170.012 179.3 
178.778 178.534 177.978 177.695 177.071 176.699 175.961 175.536 174.756 
174.402 173.668 173.377 172.631 172.314 171.532 171.228 170.492 170.282 
179.657 179.944 179.515 178.914 180.191 179.784 179.16 178.718 178.055 
180.399 180.004 179.372 178.935 178.227 177.789 177.057 180.646 180.212 
179.578 179.133 178.419 177.951 177.181 176.725 175.943 180.953 180.481 
179.813 179.344 178.608 178.128 177.332 176.853 176.048 175.594 174.833 
181.159 180.743 180.03 179.571 178.792 178.298 177.453 176.967 176.124 
175.685 174.898 174.5 173.779 181.148 180.831 180.117 179.731 178.958 
178.477 177.619 177.09 176.225 175.746 174.943 174.535 173.78 173.421 
172.702 181.02 180.747 180.057 179.744 179.01 178.609 177.795 177.286 
176.441 175.91 175.116 174.627 173.871 173.432 172.694 172.322 171.631 
180.891 180.62 179.934 179.644 178.914 178.593 177.806 177.409 176.591 
176.133 175.351 174.865 174.113 173.608 172.862 172.387 171.689 171.304 
170.69 180.604 179.723 179.99 179.591 178.613 178.976 178.545 178.893 
178.506 177.339 177.78 177.333 177.734 177.318 177.742 177.364 175.943 
176.479 176.09 176.503 176.071 176.485 176.102 176.558 176.183 174.434 
175.066 174.795 175.283 174.888 175.262 174.85 175.276 174.934 175.385 
175.011 172.898 173.544 173.318 173.938 173.603 174.065 173.624 174.034 
173.644 174.117 173.772 174.214 173.802 171.473 172.026 171.742 172.388 
172.081 172.677 172.277 172.763 172.341 172.812 172.436 172.922 172.528 
172.965 172.531 170.25 170.666 170.319 170.843 170.533 171.126 170.818 
171.374 171.029 171.511 171.139 171.592 171.207 171.657 171.264 171.7 
171.333 169.198 169.521 169.151 169.533 169.202 169.679 169.405 169.952 
169.694 170.216 169.898 170.339 169.963 170.378 170.016 170.452 170.141 
170.586 170.328 181.056 181.434 180.941 180.221 181.672 181.264 180.54 
179.991 179.128 181.741 181.426 180.695 180.217 179.302 178.764 177.807 
181.603 181.405 180.64 180.244 179.262 178.798 177.741 177.289 176.285 
181.144 181.127 180.354 180.063 179.012 178.606 177.475 177.074 175.97 
175.633 174.658 180.397 180.52 179.832 179.682 178.66 178.281 177.13 
176.73 175.617 175.258 174.24 173.978 173.107 179.617 179.733 179.153 
179.127 178.265 177.948 176.86 176.421 175.333 174.929 173.928 173.599 
172.721 172.491 171.728 178.995 179.018 178.46 178.478 177.769 177.581 
176.635 176.231 175.182 174.723 173.718 173.328 172.442 172.163 171.406 
171.201 170.529 178.514 178.461 177.871 177.847 177.188 177.092 176.286 
176.017 175.078 174.646 173.659 173.19 172.28 171.922 171.159 170.922 
170.263 170.076 169.473 181.606 182.494 182.025 181.967 183.427 182.866 
182.722 182.293 182.167 184.535 183.827 183.508 182.965 182.759 182.391 
182.21 185.518 184.929 184.494 183.782 183.393 182.913 182.683 182.349 
182.076 185.775 185.624 185.249 184.709 184.203 183.6 183.223 182.785 
182.456 182.082 181.625 185.481 185.554 185.312 185.159 184.747 184.331 
183.895 183.39 182.968 182.472 181.958 181.485 180.881 185.425 185.325 
185.187 185.101 184.868 184.666 184.318 183.962 183.537 183.048 182.521 
181.927 181.308 180.735 180.135 185.727 185.501 185.403 185.189 185.061 
184.826 184.556 184.249 183.834 183.478 182.99 182.522 181.948 181.328 
180.718 180.098 179.558 185.916 185.795 185.657 185.491 185.354 185.138 
184.889 184.541 184.083 183.682 183.154 182.818 182.305 181.903 181.331 
180.767 180.178 179.589 179.079 185.827 185.413 185.629 185.579 184.792 
185.076 185.073 185.361 185.302 184.089 184.348 184.293 184.734 184.784 
185.064 184.867 183.352 183.583 183.444 183.894 183.969 184.417 184.265 
184.434 183.998 182.553 182.814 182.631 183.03 183.045 183.534 183.395 
183.677 183.222 183.374 182.931 181.644 181.993 181.81 182.187 182.107 
182.567 182.399 182.739 182.309 182.51 182.065 182.335 182.045 180.595 
181.046 180.889 181.305 181.152 181.577 181.358 181.721 181.329 181.577 
181.14 181.427 181.119 181.468 181.157 179.46 179.961 179.823 180.301 
180.112 180.547 180.277 180.663 180.297 180.601 180.178 180.47 180.11 
180.473 180.15 180.486 180.072 178.359 178.834 178.696 179.184 178.979 
179.429 179.127 179.541 179.186 179.557 179.17 179.488 179.101 179.432 
179.086 179.442 179.085 179.379 178.976 177.722 176.838 177.532 178.029 
175.875 176.601 177.06 177.794 178.254 174.776 175.57 175.976 176.741 
177.146 177.926 178.349 173.478 174.365 174.79 175.607 176.002 176.777 
177.194 177.986 178.41 172.16 173.024 173.509 174.387 174.853 175.652 
176.084 176.851 177.286 178.053 178.442 171.063 171.801 172.278 173.123 
173.63 174.483 174.942 175.743 176.161 176.936 177.327 178.066 178.407 
170.079 170.767 171.172 171.946 172.398 173.238 173.693 174.543 174.979 
175.795 176.208 176.965 177.34 178.043 178.392 169.059 169.735 170.087 
170.835 171.238 172.027 172.457 173.283 173.753 174.599 175.084 175.877 
176.313 177.019 177.393 178.062 178.4 168.141 168.718 169.051 169.744 
170.156 170.901 171.34 172.107 172.581 173.402 173.921 174.758 175.245 
176.007 176.402 177.082 177.409 178.058 178.34 178.077 177.148 177.534 
177.38 176.112 176.53 176.298 176.762 176.594 174.931 175.403 175.1 
175.577 175.328 175.881 175.671 173.601 174.124 173.8 174.303 174.011 
174.558 174.311 174.87 174.546 172.254 172.755 172.423 172.945 172.636 
173.198 172.921 173.487 173.134 173.634 173.178 170.998 171.438 171.078 
171.562 171.217 171.768 171.455 172.046 171.681 172.204 171.744 172.218 
171.788 169.793 170.197 169.805 170.246 169.859 170.345 169.984 170.542 
170.185 170.733 170.323 170.811 170.421 170.924 170.653 168.68 169.01 
168.605 168.996 168.602 169.024 168.638 169.111 168.745 169.261 168.887 
169.401 169.047 169.579 169.326 169.898 169.745 167.8 168.006 167.613 
167.882 167.494 167.824 167.441 167.833 167.466 167.905 167.53 167.997 
167.634 168.17 167.906 168.53 168.388 169.032 168.947 180.647 180.755 
181.001 181.531 180.7 181.035 181.624 181.875 182.444 180.59 180.957 
181.619 181.951 182.632 182.875 183.527 180.427 180.845 181.54 181.946 
182.711 183.064 183.761 183.981 184.529 180.145 180.64 181.34 181.82 
182.59 183.075 183.801 184.134 184.6 184.775 185.041 179.782 180.32 
181.031 181.555 182.3 182.854 183.619 184.082 184.616 184.801 185.009 
185.073 185.18 179.349 179.916 180.608 181.185 181.893 182.482 183.216 
183.798 184.42 184.776 185.077 185.125 185.221 185.212 185.348 178.852 
179.421 180.056 180.676 181.323 181.962 182.575 183.239 183.768 184.368 
184.685 185.039 185.135 185.269 185.356 185.444 185.627 178.389 178.905 
179.5 180.082 180.677 181.296 181.813 182.452 182.843 183.495 183.743 
184.333 184.447 184.895 184.981 185.307 185.456 185.687 185.843 180.676 
181.606 181.105 180.993 182.555 182.06 182.035 181.469 181.343 183.636 
183.094 183.098 182.534 182.457 181.833 181.6 184.688 184.249 184.276 
183.667 183.552 182.907 182.649 181.968 181.546 185.272 185.164 185.336 
184.887 184.765 184.039 183.692 182.947 182.495 181.775 181.277 185.365 
185.488 185.781 185.736 185.746 185.224 184.833 184.027 183.5 182.712 
182.207 181.491 181.034 185.455 185.503 185.743 185.897 186.014 185.907 
185.614 185.061 184.477 183.721 183.133 182.406 181.896 181.241 180.795 
185.743 185.667 185.797 185.825 185.912 185.946 185.799 185.574 185.096 
184.552 183.906 183.243 182.634 182.015 181.499 180.934 180.485 185.977 
185.937 185.987 185.923 185.908 185.869 185.766 185.661 185.36 185.02 
184.47 183.9 183.247 182.644 182.069 181.543 181.076 180.582 180.173 
180.087 180.364 179.887 179.217 180.652 180.148 179.459 179.005 178.342 
180.837 180.377 179.593 179.178 178.477 178.094 177.328 180.762 180.42 
179.541 179.174 178.347 178.065 177.256 176.903 175.945 180.545 180.259 
179.424 179.049 178.165 177.831 176.984 176.692 175.799 175.406 174.456 
180.37 180.095 179.396 179.011 178.232 177.762 176.949 176.505 175.706 
175.292 174.485 174.042 173.264 180.178 179.96 179.329 179.041 178.365 
177.942 177.175 176.653 175.87 175.367 174.62 174.151 173.415 172.971 
172.27 179.903 179.735 179.099 178.911 178.243 177.985 177.222 176.836 
176.008 175.565 174.775 174.333 173.571 173.122 172.375 171.967 171.287 
179.628 179.455 178.83 178.642 177.984 177.772 177.04 176.748 175.936 
175.583 174.786 174.422 173.67 173.262 172.517 172.08 171.385 170.999 
170.396 181.503 181.673 181.885 182.458 181.849 182.101 182.779 182.924 
183.522 181.862 182.235 182.955 183.248 183.959 184.089 184.702 181.595 
182.088 182.741 183.235 183.899 184.331 184.955 185.197 185.619 181.23 
181.707 182.283 182.823 183.385 183.967 184.495 185.051 185.427 185.752 
185.803 180.956 181.353 181.913 182.365 182.942 183.421 183.951 184.443 
184.851 185.279 185.442 185.64 185.539 180.726 181.097 181.632 182.051 
182.678 183.116 183.754 184.109 184.619 184.87 185.2 185.345 185.494 
185.49 185.531 180.466 180.842 181.336 181.755 182.354 182.858 183.554 
184.012 184.606 184.859 185.245 185.337 185.589 185.602 185.78 185.713 
185.832 180.182 180.563 181.048 181.444 181.999 182.49 183.164 183.724 
184.378 184.802 185.234 185.425 185.655 185.728 185.878 185.917 186.011 
185.994 186.01 
POINT_DATA 1002
SCALARS Distance double
LOOKUP_TABLE default
177.046 177.905 177.1 176.105 176.236 176.138 175.077 175.282 175.089 
175.155 173.978 174.217 173.91 174.003 173.955 172.821 173.033 172.661 
172.677 172.657 172.557 171.598 171.803 171.389 171.267 171.241 171.235 
171.332 170.342 170.662 170.11 169.897 169.812 169.913 170.135 170.383 
169.095 169.609 168.796 168.611 168.506 168.597 168.888 169.198 169.413 
167.909 168.576 167.483 167.318 167.302 167.365 167.578 167.919 168.212 
168.416 166.86 167.575 166.333 166.076 166.082 166.191 166.324 166.616 
167.032 167.375 167.623 178.311 177.532 178.795 177.941 179.235 176.654 
178.258 179.616 176.94 175.637 178.644 179.973 177.189 175.844 174.471 
179.045 180.208 177.606 176.122 174.68 173.206 179.252 180.335 177.94 
176.504 175.023 173.503 172.029 179.363 180.458 178.046 176.69 175.329 
173.895 172.458 171.039 179.439 180.471 178.123 176.749 175.431 174.094 
172.8 171.523 170.085 179.365 180.277 178.182 176.855 175.507 174.119 
172.834 171.752 170.552 169.062 179.428 178.422 178.551 177.467 177.685 
177.18 176.346 176.495 176.053 175.763 174.82 174.935 174.572 174.351 
174.188 173.276 173.558 172.931 172.683 172.594 172.663 172.169 172.545 
171.675 171.282 171.169 171.287 171.544 171.276 171.59 170.79 170.299 
170.126 170.229 170.387 170.522 170.335 170.637 169.911 169.4 169.128 
169.169 169.206 169.142 169.095 169.428 169.827 168.966 168.419 168.001 
167.862 167.777 167.584 167.451 167.473 166.112 165.832 164.67 165.673 
164.157 163.145 165.799 163.829 162.451 161.526 166.11 163.985 162.183 
160.985 160.272 166.418 164.507 162.612 161.153 160.194 159.624 166.847 
165.124 163.435 161.93 160.715 159.822 159.213 167.483 165.84 164.311 
162.919 161.532 160.327 159.48 158.977 168.166 166.675 165.208 163.907 
162.515 161.078 160.019 159.416 159.142 168.782 167.521 166.13 164.828 
163.526 162.105 160.902 160.163 159.754 159.576 165.477 164.107 165.024 
162.577 163.696 164.848 161.063 162.313 163.636 164.948 160.005 161.109 
162.504 163.825 165.097 159.323 160.149 161.48 162.797 164.053 165.35 
158.876 159.375 160.495 161.814 163.154 164.569 165.888 158.904 159.101 
159.86 160.971 162.293 163.856 165.343 166.465 159.345 159.412 159.862 
160.612 161.618 163.024 164.643 165.95 166.841 159.885 159.91 160.343 
160.597 161.064 160.191 161.336 162.073 160.942 160.676 162.234 163.187 
161.635 161.409 161.351 163.315 164.284 162.569 162.254 162.186 162.419 
164.462 165.419 163.713 163.407 163.312 163.41 163.949 165.689 166.617 
164.919 164.632 164.625 164.614 164.876 165.457 167.024 167.803 166.279 
165.895 165.88 165.889 165.914 166.175 166.548 168.311 168.894 167.706 
167.277 167.128 167.098 167.051 167.077 167.21 167.393 160.114 160.265 
160.76 160.82 161.619 160.699 161.847 162.758 161.467 161.711 163.29 
164.036 162.802 162.766 163.005 164.74 165.314 164.346 164.079 164.012 
164.154 166.083 166.618 165.75 165.477 165.158 165.093 165.292 167.442 
167.913 167.101 166.917 166.644 166.357 166.37 166.537 168.736 169.08 
168.444 168.315 168.223 167.956 167.7 167.663 167.731 169.87 170.108 
169.674 169.573 169.559 169.436 169.137 168.871 168.779 168.812 169.696 
168.623 169.649 168.483 169.536 167.309 168.258 169.332 167.063 165.876 
168.081 169.219 166.817 165.553 164.488 168.085 169.246 166.79 165.385 
164.163 163.123 168.181 169.339 166.953 165.566 164.217 163.059 161.934 
168.36 169.514 167.159 165.867 164.558 163.374 162.239 161.103 168.681 
169.783 167.471 166.178 164.89 163.677 162.539 161.469 160.516 170.728 
170.68 171.793 171.789 172.95 170.687 172.911 174.038 171.794 170.586 
173.979 175.119 172.911 171.718 170.426 175.133 176.264 174.066 172.897 
171.628 170.39 176.321 177.305 175.31 174.11 172.822 171.637 170.466 
177.34 178.19 176.461 175.324 173.985 172.813 171.741 170.583 178.233 
179.025 177.415 176.419 175.166 173.96 172.943 171.867 170.74 179.083 