# vtk DataFile Version 4.0
vtk output
ASCII
DATASET POLYDATA
POINTS 1002 float
-103.805 -121.215 77.0973 -104.592 -121.998 76.7286 -104.421 -121.391 76.0714 
-103.65 -120.461 76.3517 -104.349 -120.512 75.4487 -103.267 -119.999 77.4857 
-103.606 -119.341 75.653 -104.231 -119.506 74.7994 -103.193 -118.941 76.6911 
-103.089 -118.106 77.8308 -103.425 -118.167 74.941 -103.985 -118.551 74.0424 
-103.047 -117.678 75.99 -102.864 -116.944 77.0523 -102.719 -116.186 78.1607 
-103.044 -117.144 74.0971 -103.809 -117.497 73.3119 -102.574 -116.662 75.2455 
-102.24 -116.082 76.3604 -101.983 -115.471 77.4263 -101.698 -115.044 78.6146 
-102.708 -116.034 73.3564 -103.815 -116.173 72.9478 -101.95 -115.818 74.3315 
-101.418 -115.517 75.5499 -100.98 -115.076 76.6933 -100.731 -114.595 77.908 
-100.56 -114.194 79.2072 -102.527 -114.749 73.0256 -103.847 -114.783 72.8963 
-101.498 -114.731 73.5928 -100.883 -114.628 74.6764 -100.371 -114.322 75.8855 
-100.019 -113.835 77.1262 -99.9338 -113.333 78.4675 -99.8549 -112.935 79.7546 
-102.456 -113.487 72.8338 -103.831 -113.517 72.7506 -101.275 -113.457 73.1662 
-100.671 -113.274 74.0429 -100.315 -112.904 75.2138 -99.885 -112.481 76.379 
-99.6496 -112.104 77.6259 -99.5784 -111.786 78.9631 -99.4347 -111.546 80.1753 
-102.478 -112.31 72.5006 -103.788 -112.371 72.4399 -101.256 -112.206 72.748 
-100.571 -111.89 73.4895 -100.333 -111.379 74.6346 -99.9945 -110.952 75.7652 
-99.581 -110.765 76.8228 -99.3913 -110.652 78.0563 -99.2599 -110.484 79.3888 
-99.1163 -110.298 80.521 -102.516 -111.242 72.1527 -103.683 -111.383 72.1336 
-101.378 -111.032 72.3308 -100.57 -110.646 72.8865 -100.197 -110.127 73.8727 
-99.9203 -109.698 75.022 -99.5126 -109.54 76.0561 -99.2181 -109.521 77.1316 
-99.0919 -109.42 78.4461 -98.9695 -109.229 79.7689 -98.9396 -109.038 80.7909 
-105.303 -122.421 76.0129 -105.208 -121.712 75.4093 -106.045 -122.921 75.3305 
-105.965 -122.225 74.6891 -106.853 -123.39 74.5164 -105.134 -120.823 74.8185 
-106.755 -122.691 73.7853 -107.837 -123.59 73.6248 -105.888 -121.299 74.0683 
-104.963 -119.882 74.1542 -107.761 -122.719 72.9302 -108.932 -123.481 72.9393 
-106.702 -121.608 73.1282 -105.791 -120.234 73.4184 -104.809 -118.903 73.4256 
-108.967 -122.362 72.3134 -110.037 -123.144 72.3566 -107.707 -121.575 72.2214 
-106.663 -120.465 72.4406 -105.791 -119.111 72.7573 -104.875 -117.656 72.8866 
-110.212 -121.909 71.6906 -111.127 -122.725 71.5895 -108.885 -121.34 71.5155 
-107.534 -120.654 71.4044 -106.593 -119.384 71.7341 -105.879 -117.772 72.2864 
-105.018 -116.162 72.7207 -111.324 -121.518 70.9724 -112.121 -122.343 70.7987 
-110.106 -120.936 70.944 -108.556 -120.537 70.6859 -107.29 -119.614 70.6968 
-106.538 -118.02 71.2664 -105.928 -116.267 72.0846 -105.052 -114.71 72.6503 
-112.264 -121.085 70.373 -113.012 -121.82 70.2438 -111.203 -120.421 70.4283 
-109.751 -119.98 70.2511 -108.3 -119.344 70.0967 -107.256 -118.109 70.3672 
-106.571 -116.481 71.1126 -105.924 -114.813 71.9639 -104.999 -113.392 72.4398 
-113.145 -120.415 69.9726 -113.877 -121.008 69.8795 -112.158 -119.822 69.9763 
-110.891 -119.334 69.8071 -109.552 -118.784 69.6711 -108.357 -117.883 69.8271 
-107.371 -116.598 70.3313 -106.605 -115.046 71.1112 -105.867 -113.47 71.8582 
-104.875 -112.222 72.1956 -114.304 -119.696 69.6194 -113.354 -119.165 69.6477 
-114.494 -118.453 69.3472 -113.282 -118.019 69.109 -114.275 -117.385 68.9313 
-112.119 -118.757 69.3645 -112.945 -117.005 68.3324 -113.902 -116.338 68.2937 
-111.947 -117.801 68.5053 -110.839 -118.346 69.0733 -112.594 -115.938 67.6593 
-113.646 -115.318 67.8138 -111.67 -116.787 67.7595 -110.784 -117.393 68.3858 
-109.648 -117.634 69.2278 -112.272 -114.756 67.6724 -113.302 -114.306 68.0645 
-111.309 -115.441 67.6746 -110.515 -116.136 68.1887 -109.573 -116.457 69.0147 
-108.418 -116.529 69.7545 -111.88 -113.384 68.3951 -112.753 -113.047 68.8904 
-110.916 -113.865 68.3145 -110.084 -114.44 68.637 -109.2 -114.884 69.1779 
-108.192 -115.054 69.825 -107.288 -115.061 70.4654 -111.512 -111.868 69.2701 
-112.201 -111.697 69.7717 -110.632 -112.227 69.1319 -109.756 -112.673 69.3145 
-108.871 -113.03 69.5845 -107.906 -113.241 70.0161 -107.055 -113.326 70.6538 
-106.416 -113.367 71.2933 -111.178 -110.579 70.1023 -111.707 -110.632 70.6122 
-110.441 -110.705 69.8552 -109.546 -111.019 69.8928 -108.637 -111.283 69.9956 
-107.716 -111.412 70.2118 -106.822 -111.527 70.742 -106.08 -111.683 71.3828 
-105.471 -111.904 71.8622 -110.771 -109.623 70.9733 -111.235 -109.765 71.4317 
-110.158 -109.518 70.6389 -109.284 -109.59 70.5129 -108.282 -109.743 70.4841 
-107.339 -109.826 70.4862 -106.441 -109.946 70.6892 -105.581 -110.217 71.142 
-104.856 -110.568 71.609 -104.259 -110.951 71.9254 -102.823 -110.373 71.8152 
-103.32 -109.912 71.4708 -102.083 -109.144 71.46 -103.932 -109.413 71.0398 
-102.523 -108.604 70.8138 -101.738 -107.493 71.2054 -104.763 -108.891 70.7756 
-103.137 -107.982 70.3992 -102.232 -106.811 70.4365 -101.72 -105.651 71.2648 
-105.717 -108.553 70.8564 -104.002 -107.485 70.7569 -102.861 -106.258 70.4387 
-102.305 -104.943 70.7754 -101.652 -104.062 71.6704 -106.745 -108.459 71.0615 
-105.054 -107.319 71.4709 -103.748 -106.094 71.3689 -102.993 -104.601 71.1584 
-102.337 -103.383 71.4842 -101.5 -102.684 72.1796 -107.921 -108.416 71.1748 
-106.313 -107.278 71.7817 -104.93 -106.092 72.0665 -103.991 -104.55 71.9031 
-103.248 -102.976 71.7367 -102.428 -101.929 72.0309 -101.606 -101.321 72.6838 
-109.054 -108.409 71.3031 -107.663 -107.203 71.8451 -106.303 -105.914 72.1303 
-105.255 -104.363 72.153 -104.449 -102.674 72.0243 -103.656 -101.362 72.0773 
-102.805 -100.57 72.5409 -102.036 -100.131 73.2823 -109.882 -108.525 71.5646 
-108.786 -107.202 72.0311 -107.602 -105.727 72.2096 -106.548 -104.109 72.2208 
-105.705 -102.441 72.2349 -104.959 -101.078 72.3428 -104.151 -100.15 72.6715 
-103.287 -99.5394 73.2476 -102.544 -99.2423 73.9687 -110.471 -108.668 71.9117 
-109.621 -107.253 72.2826 -108.679 -105.674 72.4385 -107.717 -104.083 72.4797 
-106.859 -102.515 72.5717 -106.121 -101.162 72.7692 -105.38 -100.166 73.0917 
-104.534 -99.3922 73.5276 -103.671 -98.8142 74.0437 -102.973 -98.5672 74.6517 
-101.768 -110.023 71.9502 -101.278 -108.459 71.9135 -100.843 -109.521 72.3357 
-101.059 -106.661 71.9949 -100.434 -107.79 72.4658 -100.139 -108.989 73.0028 
-100.895 -104.983 72.1692 -100.057 -106.102 72.5875 -99.5822 -107.362 73.0689 
-99.6608 -108.588 73.9974 -100.691 -103.484 72.4791 -99.8152 -104.473 72.7811 
-99.1455 -105.704 73.2277 -99.0352 -107.075 74.0948 -99.2875 -108.367 75.1763 
-100.676 -102.001 72.9564 -99.8536 -102.797 73.2115 -99.1717 -103.867 73.6827 
-98.8528 -105.246 74.5278 -98.8913 -106.753 75.4974 -99.044 -108.231 76.3677 
-101.022 -100.706 73.603 -100.17 -101.345 73.9038 -99.5149 -102.193 74.3733 
-99.1206 -103.418 75.2301 -98.9829 -104.84 76.1741 -98.9385 -106.41 76.9602 
-98.9561 -108.05 77.7149 -101.601 -99.7711 74.3242 -100.726 -100.385 74.7294 
-99.9765 -101.044 75.1936 -99.461 -102.041 75.9524 -99.2201 -103.305 76.9039 
-99.0766 -104.612 77.7254 -98.9225 -106.159 78.4605 -98.8708 -107.837 79.1822 
-102.186 -99.0576 75.0118 -101.422 -99.729 75.5151 -100.616 -100.315 76.0499 
-99.8786 -101.014 76.7096 -99.4349 -102.113 77.5662 -99.2331 -103.335 78.4126 
-99.0433 -104.569 79.1484 -98.8713 -106.072 79.8371 -98.8393 -107.68 80.4086 
-102.913 -98.2039 75.5814 -102.258 -98.8782 76.1285 -102.961 -97.9488 76.8419 
-102.39 -98.7297 77.5627 -103.067 -97.8663 78.4243 -101.552 -99.5941 76.7975 
-102.482 -98.7161 79.1528 -103.259 -98.1092 79.9193 -101.639 -99.3979 78.3352 
-100.645 -100.118 77.5016 -102.625 -99.0188 80.5417 -103.598 -98.6297 81.081 
-101.656 -99.4275 79.9045 -100.629 -99.9369 79.1438 -99.8365 -100.912 78.3116 
-102.921 -99.4353 81.8051 -103.939 -99.1132 82.3499 -101.838 -99.829 81.283 
-100.728 -100.18 80.7006 -99.8945 -100.963 79.9672 -99.4431 -102.2 79.1551 
-103.204 -99.7667 83.2492 -104.143 -99.52 83.8779 -102.232 -100.269 82.5986 
-101.134 -100.766 82.009 -100.217 -101.398 81.385 -99.6394 -102.431 80.6385 
-99.2627 -103.533 79.874 -103.41 -100.262 84.5781 -104.346 -100.101 85.0808 
-102.594 -100.74 83.8825 -101.658 -101.337 83.2049 -100.717 -101.978 82.5777 
-100.057 -102.846 81.8724 -99.5428 -103.873 81.1434 -99.0986 -104.905 80.499 
-103.691 -101.053 85.4614 -104.666 -100.905 85.757 -102.917 -101.474 84.8953 
-102.126 -101.996 84.2706 -101.194 -102.562 83.7152 -100.465 -103.332 83.0561 
-100.01 -104.315 82.2551 -99.5126 -105.366 81.5686 -99.0361 -106.489 81.0239 
-104.071 -101.944 86.1349 -105.046 -101.768 86.2908 -103.299 -102.359 85.6882 
-102.623 -102.82 85.1142 -101.758 -103.276 84.6491 -100.874 -103.934 84.171 
-100.384 -104.85 83.4116 -100.074 -105.87 82.5482 -99.5818 -106.939 81.8964 
-99.1048 -108.034 81.382 -103.795 -98.0965 74.9958 -103.762 -97.5905 75.9826 
-104.889 -97.8648 75.4854 -105.049 -97.2987 76.5366 -106.224 -97.8479 76.013 
-103.849 -97.2694 77.4056 -106.562 -97.3506 77.1227 -107.376 -98.1149 76.5477 
-105.287 -97.013 78.0702 -104.035 -97.2909 79.1126 -107.673 -97.7987 77.7146 
-108.233 -98.7911 77.1459 -106.823 -97.2335 78.6826 -105.533 -97.2224 79.7653 
-104.373 -97.783 80.5117 -108.584 -98.5767 78.3568 -109.29 -99.5336 77.7432 
-107.901 -97.9087 79.2463 -106.956 -97.7142 80.2906 -105.815 -97.9534 81.0469 
-104.791 -98.5145 81.6209 -109.879 -99.2451 78.9657 -110.507 -100.053 78.2632 
-109.073 -98.7122 79.7992 -108.094 -98.5448 80.739 -107.076 -98.5578 81.5305 
-106.093 -98.7686 82.2193 -105.086 -99.1225 83.0606 -111.073 -99.8516 79.4513 
-111.35 -100.732 78.7305 -110.534 -99.2958 80.2719 -109.511 -99.2193 81.1483 
-108.291 -99.2554 81.9572 -107.28 -99.2528 82.756 -106.34 -99.4148 83.6878 
-105.299 -99.6892 84.5541 -111.713 -100.822 79.8219 -111.913 -101.73 79.1311 
-111.493 -100.038 80.6412 -110.86 -99.7301 81.5228 -109.705 -99.7846 82.3468 
-108.52 -99.8081 83.1551 -107.572 -99.8871 84.0544 -106.619 -100.13 84.8845 
-105.587 -100.438 85.4436 -112.232 -101.952 80.1163 -112.581 -102.652 79.436 
[...]
CELL_DATA 2000
SCALARS Distance double
LOOKUP_TABLE default
176.528 175.648 175.938 175.6 174.636 174.961 174.555 174.904 174.477 
173.514 173.848 173.371 173.753 173.27 173.645 173.15 172.335 172.642 
172.108 172.502 172.004 172.39 171.897 172.282 171.863 171.185 171.414 
170.81 171.197 170.718 171.132 170.674 171.053 170.655 171.079 170.786 
170.151 170.269 169.572 169.885 169.397 169.843 169.422 169.84 169.423 
169.859 169.534 170.037 169.782 169.208 169.259 168.483 168.679 168.125 
168.529 168.122 168.569 168.145 168.581 168.208 168.725 168.466 169.019 
168.794 168.289 168.323 167.509 167.619 166.979 167.288 166.851 167.281 
166.886 167.302 166.926 167.395 167.15 167.705 167.545 168.081 167.91 
167.419 167.431 166.628 166.673 165.973 166.17 165.66 166.032 165.644 
166.069 165.714 166.154 165.893 166.421 166.28 166.851 166.725 167.249 
167.094 176.941 177.373 176.809 176.105 177.857 177.273 176.541 175.938 
175.156 178.269 177.731 176.998 176.394 175.585 174.951 174.097 178.581 
178.079 177.33 176.788 175.984 175.386 174.536 173.881 172.991 178.83 
178.35 177.57 177.053 176.251 175.724 174.922 174.332 173.489 172.804 
171.92 178.991 178.564 177.807 177.293 176.491 175.967 175.177 174.659 
173.869 173.29 172.464 171.779 170.927 179.076 178.703 178.002 177.533 
176.749 176.221 175.394 174.874 174.055 173.568 172.778 172.253 171.449 
170.808 169.981 179.105 178.781 178.109 177.703 176.936 176.45 175.606 
175.078 174.219 173.717 172.919 172.468 171.719 171.227 170.446 169.841 
169.034 179.034 178.777 178.116 177.771 177.017 176.588 175.777 175.281 
174.464 173.931 173.152 172.643 171.924 171.451 170.739 170.227 169.47 
168.883 168.125 178.75 177.967 178.198 177.82 177.021 177.312 176.878 
177.155 176.696 175.896 176.239 175.78 176.128 175.681 175.971 175.481 
174.765 175.052 174.606 174.99 174.625 174.968 174.542 174.764 174.243 
173.834 173.987 173.494 173.826 173.496 173.91 173.558 173.846 173.339 
173.512 172.955 172.996 173.105 172.529 172.764 172.353 172.753 172.381 
172.77 172.259 172.538 171.946 172.188 171.666 172.126 172.239 171.636 
171.816 171.329 171.63 171.182 171.532 170.994 171.331 170.737 171.072 
170.53 170.881 170.427 171.374 171.416 170.834 170.942 170.42 170.627 
170.113 170.367 169.781 170.058 169.456 169.798 169.263 169.66 169.186 
169.602 169.158 170.806 170.785 170.216 170.223 169.66 169.749 169.166 
169.323 168.677 168.882 168.223 168.52 167.941 168.342 167.843 168.292 
167.83 168.281 167.836 166.952 166.892 166.459 165.548 166.851 166.362 
165.335 164.954 164.06 166.939 166.348 165.245 164.722 163.715 163.434 
162.689 167.27 166.566 165.529 164.8 163.783 163.221 162.443 162.192 
161.658 167.813 167.065 166.18 165.349 164.478 163.641 162.866 162.23 
161.655 161.333 160.889 168.437 167.729 166.964 166.163 165.416 164.562 
163.808 162.949 162.233 161.575 161.018 160.653 160.242 169.07 168.43 
167.76 167.002 166.26 165.475 164.684 163.872 163.04 162.26 161.544 
160.959 160.48 160.127 159.856 169.7 169.118 168.525 167.808 167.057 
166.267 165.429 164.632 163.789 163.01 162.288 161.601 161.109 160.572 
160.291 159.928 159.814 170.3 169.763 169.196 168.54 167.803 167.037 
166.216 165.398 164.62 163.808 163.185 162.444 162.03 161.383 161.122 
160.567 160.397 160.008 159.956 166.691 165.323 165.973 165.898 163.93 
164.599 164.555 165.204 165.234 162.64 163.254 163.235 163.868 163.912 
164.63 164.859 161.577 162.062 162.011 162.57 162.58 163.29 163.535 
164.386 164.799 160.714 161.077 160.95 161.399 161.354 161.976 162.206 
163.055 163.533 164.425 164.915 160.028 160.263 160.1 160.422 160.372 
160.854 161.089 161.818 162.339 163.204 163.805 164.623 165.161 159.669 
159.726 159.616 159.754 159.77 160.065 160.356 160.897 161.451 162.163 
162.808 163.584 164.222 164.981 165.572 159.669 159.595 159.595 159.559 
159.657 159.73 160.048 160.378 160.948 161.48 162.117 162.732 163.362 
164.076 164.72 165.458 166.04 159.839 159.745 159.848 159.771 159.946 
159.868 160.133 160.24 160.727 161.104 161.72 162.201 162.79 163.336 
163.943 164.614 165.235 165.924 166.454 159.955 160.323 160.097 160.084 
160.963 160.632 160.663 160.341 160.28 161.826 161.387 161.383 160.99 
160.9 160.512 160.444 162.841 162.309 162.237 161.749 161.611 161.154 
161.089 160.766 160.943 163.938 163.346 163.254 162.677 162.545 161.967 
161.929 161.507 161.735 161.493 161.893 165.059 164.442 164.361 163.764 
163.699 163.057 163.062 162.512 162.744 162.388 162.781 162.527 162.944 
166.163 165.552 165.476 164.903 164.895 164.288 164.323 163.739 163.926 
163.48 163.819 163.475 163.862 163.585 164.039 167.23 166.643 166.592 
166.037 166.072 165.503 165.56 164.987 165.13 164.652 164.941 164.552 
164.92 164.575 165.007 164.748 165.274 168.283 167.72 167.72 167.179 
167.259 166.707 166.797 166.219 166.347 165.831 166.091 165.678 166.046 
165.677 166.086 165.762 166.219 165.99 166.481 160.1 160.617 160.277 
160.359 161.554 160.967 160.925 160.657 160.953 162.738 162.069 162.024 
161.468 161.66 161.413 161.862 163.962 163.309 163.35 162.734 162.908 
162.39 162.742 162.461 162.957 165.3 164.599 164.682 164.087 164.325 
163.763 164.07 163.568 163.969 163.639 164.115 166.729 166.032 166.146 
165.497 165.763 165.188 165.506 164.951 165.289 164.809 165.217 164.853 
165.292 168.027 167.448 167.62 167.014 167.276 166.674 166.958 166.366 
166.659 166.137 166.504 166.064 166.467 166.059 166.438 169.191 168.685 
168.879 168.392 168.65 168.138 168.387 167.809 168.036 167.479 167.794 
167.341 167.727 167.293 167.631 167.184 167.497 170.333 169.84 170.022 
169.566 169.811 169.381 169.634 169.15 169.364 168.828 169.079 168.603 
168.946 168.523 168.851 168.393 168.66 168.211 168.506 170.467 170.22 
170.019 169.285 169.813 169.628 168.803 168.662 167.836 169.499 169.213 
168.361 168.136 167.292 167.134 166.28 169.431 169.03 168.209 167.826 
167.01 166.701 165.887 165.624 164.782 169.482 169.057 168.261 167.814 
167.008 166.587 165.798 165.407 164.605 164.242 163.457 169.553 169.122 
168.343 167.906 167.113 166.662 165.857 165.414 164.625 164.208 163.458 
163.069 162.384 169.717 169.235 168.491 168.029 167.3 166.821 166.04 
165.527 164.725 164.267 163.536 163.144 162.473 162.101 161.487 170 
169.481 168.779 168.27 167.596 167.089 166.36 165.79 164.99 164.439 
163.696 163.251 162.585 162.199 161.567 161.227 160.692 170.338 169.827 
169.173 168.643 168.002 167.464 166.771 166.174 165.4 164.786 164.049 
163.51 162.852 162.372 161.743 161.324 160.786 160.494 160.148 171.102 
172.041 171.397 170.963 172.99 172.35 171.949 171.206 170.647 173.992 
173.313 172.932 172.208 171.699 170.881 170.332 175.057 174.351 173.978 
173.238 172.773 171.958 171.446 170.638 170.207 176.014 175.381 175.028 
174.332 173.92 173.101 172.613 171.774 171.349 170.59 170.239 176.832 
176.267 175.962 175.356 175.025 174.285 173.834 172.981 172.529 171.737 
171.389 170.65 170.323 177.666 177.112 176.871 176.286 176.012 175.356 
174.969 174.187 173.722 172.917 172.538 171.803 171.51 170.769 170.48 
178.486 177.986 177.781 177.22 176.947 176.323 175.975 175.277 174.874 
174.102 173.715 172.957 172.662 171.95 171.7 170.97 170.726 179.179 
178.762 178.566 178.086 177.806 177.228 176.883 176.255 175.934 175.251 
174.937 174.173 173.858 173.105 172.842 172.149 171.921 171.226 171.011 
179.471 179.786 179.373 178.886 180.256 179.748 179.171 178.722 178.122 
180.737 180.236 179.565 179.009 178.285 177.848 177.188 181.051 180.628 
179.931 179.368 178.564 178.038 177.344 176.93 176.305 181.295 180.88 
180.202 179.675 178.882 178.333 177.623 177.16 176.527 176.086 175.4 
181.475 181.107 180.455 179.966 179.225 178.668 177.925 177.428 176.714 
176.277 175.514 175.078 174.299 181.376 181.162 180.525 180.186 179.488 
179.017 178.242 177.706 176.879 176.384 175.541 175.108 174.295 173.923 
173.219 181.031 180.914 180.271 180.096 179.408 179.139 178.375 177.948 
177.089 176.556 175.685 175.165 174.371 173.935 173.249 172.905 172.299 
180.651 180.53 179.882 179.74 179.047 178.89 178.157 177.91 177.11 
176.715 175.893 175.397 174.628 174.123 173.432 172.994 172.364 172.014 
171.419 180.242 179.283 179.663 179.424 178.245 178.646 178.388 178.786 
178.551 177.175 177.594 177.321 177.714 177.429 177.868 177.631 175.977 
176.475 176.181 176.608 176.259 176.687 176.383 176.888 176.614 174.6 
175.178 174.873 175.378 174.983 175.437 175.067 175.585 175.312 175.837 
175.51 173.157 173.744 173.438 173.989 173.598 174.087 173.687 174.213 
173.926 174.508 174.246 174.724 174.338 171.75 172.303 171.997 172.546 
172.191 172.692 172.312 172.818 172.503 173.085 172.825 173.404 173.078 
173.535 173.133 170.42 170.923 170.63 171.152 170.839 171.329 170.986 
171.468 171.153 171.681 171.402 171.963 171.661 172.197 171.852 172.332 
172.002 169.221 169.651 169.386 169.862 169.594 170.049 169.728 170.175 
169.869 170.364 170.11 170.619 170.356 170.837 170.544 171.024 170.747 
171.245 171.013 180.557 180.721 180.308 179.613 180.839 180.427 179.69 
179.288 178.559 180.858 180.484 179.736 179.353 178.61 178.217 177.484 
180.683 180.397 179.662 179.375 178.67 178.287 177.492 177.082 176.275 
180.319 180.109 179.354 179.192 178.522 178.286 177.457 177.045 176.088 
175.727 174.852 179.867 179.71 178.936 178.789 178.088 177.983 177.156 
176.866 175.812 175.446 174.445 174.211 173.373 179.305 179.253 178.521 
178.36 177.603 177.477 176.648 176.432 175.391 175.06 174.008 173.759 
172.887 172.735 171.966 178.608 178.661 177.995 177.907 177.131 176.987 
176.142 175.929 174.944 174.621 173.6 173.316 172.449 172.268 171.511 
171.361 170.642 177.9 177.963 177.347 177.327 176.588 176.48 175.662 
175.468 174.565 174.254 173.306 172.974 172.133 171.891 171.168 170.969 
170.271 170.094 169.442 181.123 181.916 181.482 181.329 182.571 182.238 
182.203 181.728 181.531 183.191 182.887 182.947 182.596 182.538 181.949 
181.631 183.823 183.533 183.571 183.29 183.273 182.872 182.622 181.97 
181.483 184.265 184.102 184.064 183.823 183.656 183.387 183.088 182.725 
182.262 181.672 181.082 184.392 184.367 184.306 184.165 183.888 183.62 
183.181 182.918 182.438 182.145 181.596 181.122 180.516 184.505 184.423 
184.341 184.248 184.01 183.79 183.373 183.031 182.532 182.201 181.681 
181.369 180.798 180.418 179.821 184.861 184.646 184.517 184.294 184.049 
183.858 183.551 183.286 182.881 182.469 181.955 181.498 180.933 180.544 
179.97 179.627 179.058 185.218 185.044 184.882 184.57 184.24 183.943 
183.6 183.4 183.065 182.812 182.361 181.917 181.339 180.812 180.226 
179.773 179.235 178.863 178.35 185.23 184.761 185.066 184.892 183.836 
184.396 184.371 184.561 184.221 182.94 183.448 183.557 183.92 183.686 
183.796 183.472 182.399 182.677 182.713 183.086 182.911 183.147 182.841 
183.056 182.849 181.913 182.122 181.925 182.238 182.003 182.302 182.002 
182.304 182.089 182.419 182.185 181.062 181.403 181.067 181.381 181.079 
181.388 181.105 181.42 181.2 181.568 181.344 181.631 181.23 179.871 
180.341 180.033 180.419 180.113 180.46 180.173 180.509 180.258 180.635 
180.394 180.735 180.364 180.571 180.096 178.623 179.116 178.879 179.326 
179.044 179.445 179.125 179.506 179.186 179.601 179.313 179.729 179.387 
179.681 179.239 179.447 179.039 177.507 177.951 177.762 178.196 177.949 
178.35 178.035 178.409 178.073 178.468 178.173 178.602 178.313 178.682 
178.316 178.58 178.187 178.438 178.121 176.88 175.983 176.673 177.111 
174.892 175.702 176.144 176.863 177.266 173.595 174.504 174.99 175.82 
176.239 176.966 177.333 172.316 173.18 173.703 174.603 175.11 175.916 
176.333 177.023 177.388 171.243 171.989 172.474 173.323 173.872 174.758 
175.281 176.05 176.471 177.119 177.509 170.26 170.973 171.412 172.167 
172.652 173.507 174.051 174.939 175.437 176.201 176.601 177.26 177.635 
169.261 169.965 170.403 171.138 171.59 172.35 172.834 173.68 174.201 
175.07 175.522 176.29 176.646 177.332 177.644 168.333 168.972 169.389 
170.116 170.586 171.326 171.788 172.537 173.02 173.837 174.333 175.148 
175.56 176.291 176.615 177.282 177.561 167.503 168.081 168.457 169.126 
169.58 170.314 170.773 171.507 171.955 172.718 173.204 174.001 174.469 
175.213 175.594 176.266 176.594 177.223 177.531 177.368 176.372 176.838 
176.753 175.335 175.785 175.621 176.124 175.979 174.203 174.688 174.474 
174.957 174.744 175.263 175.055 172.919 173.45 173.205 173.744 173.491 
174.009 173.736 174.262 173.966 171.623 172.101 171.788 172.361 172.09 
172.683 172.387 172.923 172.578 173.095 172.746 170.423 170.825 170.438 
170.923 170.603 171.197 170.91 171.507 171.175 171.71 171.368 171.888 
171.607 169.251 169.634 169.23 169.632 169.252 169.738 169.409 169.986 
169.677 170.269 169.97 170.535 170.278 170.831 170.635 168.131 168.471 
168.066 168.442 168.035 168.443 168.047 168.526 168.186 168.76 168.499 
169.117 168.899 169.496 169.295 169.882 169.717 167.149 167.402 166.963 
167.288 166.868 167.239 166.827 167.227 166.858 167.339 167.088 167.674 
167.511 168.118 167.956 168.537 168.38 168.975 168.877 179.618 179.719 
179.976 180.577 179.71 180.029 180.654 180.945 181.561 179.665 180.01 
180.655 180.98 181.639 181.929 182.534 179.532 179.941 180.602 180.971 
181.69 182.032 182.779 182.99 183.587 179.261 179.733 180.388 180.848 
181.568 182.04 182.854 183.251 183.968 184.093 184.508 178.932 179.422 
180.094 180.588 181.296 181.814 182.514 183.081 183.687 184.178 184.542 
184.747 184.84 178.529 179.065 179.775 180.314 181.067 181.555 182.148 
182.588 182.921 183.453 183.653 184.251 184.381 184.764 184.803 178.033 
178.605 179.298 179.933 180.688 181.284 181.872 182.247 182.457 182.691 
182.739 183.17 183.395 184.009 184.339 184.75 184.956 177.556 178.083 
178.707 179.35 180.021 180.724 181.296 181.847 182.124 182.358 182.424 
182.572 182.811 183.203 183.721 184.244 184.723 185.025 185.226 179.67 
180.665 180.116 179.988 181.721 181.193 181.102 180.446 180.248 182.699 
182.254 182.282 181.657 181.457 180.704 180.42 183.612 183.181 183.279 
182.824 182.745 182.002 181.637 180.807 180.415 184.399 184.009 184.028 
183.728 183.782 183.253 182.941 182.068 181.532 180.708 180.3 184.778 
184.576 184.484 184.325 184.393 184.149 183.963 183.284 182.718 181.838 
181.312 180.597 180.287 184.85 184.75 184.63 184.565 184.581 184.566 
184.486 184.126 183.649 182.92 182.341 181.612 181.221 180.611 180.326 
185.004 184.846 184.72 184.604 184.569 184.61 184.618 184.507 184.212 
183.713 183.182 182.539 182.076 181.487 181.108 180.558 180.195 185.207 
185.054 184.88 184.704 184.598 184.578 184.622 184.62 184.518 184.221 
183.819 183.278 182.784 182.224 181.764 181.237 180.797 180.306 179.921 
179.125 179.399 178.982 178.375 179.625 179.233 178.65 178.21 177.511 
179.763 179.424 178.842 178.46 177.778 177.27 176.436 179.754 179.491 
178.886 178.576 177.88 177.463 176.657 176.138 175.31 179.696 179.444 
178.873 178.578 177.896 177.507 176.751 176.318 175.596 175.107 174.409 
179.73 179.436 178.933 178.623 178.054 177.621 176.944 176.463 175.821 
175.387 174.775 174.285 173.6 179.763 179.49 178.973 178.711 178.22 
177.874 177.291 176.795 176.139 175.646 175.02 174.582 173.917 173.425 
172.707 179.654 179.453 178.883 178.676 178.139 177.945 177.396 177.089 
176.422 175.969 175.249 174.792 174.111 173.674 173.008 172.534 171.91 
179.45 179.293 178.746 178.536 177.956 177.766 177.196 177.02 176.403 
176.113 175.401 174.989 174.287 173.866 173.247 172.827 172.261 171.819 
171.303 181.177 181.552 181.577 181.957 181.92 181.978 182.356 182.309 
182.6 182.043 182.274 182.72 182.744 183.033 182.936 183.211 181.821 
182.2 182.676 182.965 183.341 183.385 183.636 183.559 183.829 181.504 
181.859 182.249 182.687 183.144 183.51 183.863 183.945 184.133 184.094 
184.251 181.175 181.519 181.844 182.219 182.69 183.177 183.716 184.037 
184.317 184.331 184.384 184.343 184.381 180.714 181.132 181.507 181.873 
182.362 182.803 183.444 183.87 184.336 184.463 184.556 184.463 184.456 
184.415 184.508 180.244 180.664 181.122 181.546 182.083 182.532 183.164 
183.635 184.182 184.458 184.647 184.619 184.585 184.514 184.597 184.631 
184.843 179.921 180.282 180.774 181.194 181.745 182.21 182.788 183.293 
183.829 184.247 184.533 184.658 184.646 184.6 184.596 184.664 184.841 
184.987 185.179 
POINT_DATA 1002
SCALARS Distance double
LOOKUP_TABLE default
176.236 177.074 176.275 175.306 175.364 175.261 174.214 174.331 174.149 
174.026 173.001 173.211 172.9 172.764 172.665 171.717 172.08 171.607 
171.508 171.421 171.505 170.447 171.032 170.268 170.282 170.235 170.314 
170.541 169.329 170.094 168.944 168.981 169.007 169.031 169.26 169.547 
168.356 169.176 167.767 167.665 167.723 167.709 167.888 168.255 168.582 
167.439 168.254 166.736 166.435 166.458 166.48 166.592 166.974 167.41 
167.741 166.602 167.403 165.845 165.341 165.207 165.271 165.392 165.699 
166.17 166.598 166.945 177.476 176.677 177.969 177.174 178.431 175.775 
177.589 178.789 176.234 174.749 177.861 179.094 176.544 175.177 173.683 
178.097 179.3 176.756 175.456 174.137 172.65 178.299 179.377 177.028 
175.691 174.387 173.086 171.658 178.435 179.42 177.275 175.947 174.547 
173.236 172.018 170.676 178.492 179.406 177.403 176.132 174.743 173.371 
172.154 170.991 169.676 178.438 179.261 177.42 176.23 174.97 173.681 
172.408 171.213 170.018 168.72 178.554 177.607 177.743 176.588 176.735 
176.441 175.398 175.557 175.358 175.245 174.205 174.535 174.216 174.302 
174.08 173.223 173.746 173.058 173.215 173.16 172.779 172.352 172.893 
172.016 171.992 171.941 171.681 171.381 171.475 172.013 171.086 170.89 
170.67 170.375 170.16 170.054 170.763 171.349 170.268 169.911 169.544 
169.133 168.864 168.77 168.738 170.245 170.826 169.643 169.074 168.519 
167.973 167.567 167.394 167.369 167.385 166.07 165.925 164.65 165.793 
164.289 163.243 165.859 164.086 162.772 162.058 166.274 164.457 162.807 
161.753 161.169 166.952 165.319 163.661 162.133 161.083 160.419 167.722 
166.224 164.709 163.058 161.513 160.461 159.85 168.498 167.065 165.496 
163.853 162.215 160.908 160.076 159.649 169.216 167.865 166.245 164.551 
162.969 161.686 160.737 160.064 159.735 169.833 168.543 167.005 165.402 
163.909 162.679 161.729 160.903 160.228 159.909 165.249 163.901 164.519 
162.624 163.186 164.033 161.51 161.905 162.653 163.922 160.558 160.786 
161.375 162.594 164.085 159.818 159.928 160.408 161.49 162.938 164.396 
159.514 159.52 159.867 160.802 162.069 163.423 164.852 159.628 159.647 
159.808 160.474 161.576 162.711 163.959 165.356 159.877 160.043 160.153 
160.444 161.268 162.322 163.344 164.532 165.823 160.083 160.336 160.554 
161.01 161.33 160.647 161.827 162.325 161.317 160.74 162.779 163.422 
162.109 161.411 161.122 163.84 164.554 163.146 162.386 161.995 162.093 
164.936 165.69 164.311 163.643 163.16 163.082 163.171 166.032 166.771 
165.464 164.912 164.417 164.203 164.175 164.245 167.129 167.793 166.619 
166.136 165.636 165.341 165.282 165.308 165.472 168.241 168.816 167.792 
167.369 166.888 166.519 166.416 166.444 166.51 166.679 160.309 160.443 
161.103 161.358 162.205 160.98 162.648 163.365 162.07 161.935 163.917 
164.607 163.489 163.171 163.126 165.276 166.019 164.858 164.633 164.41 
164.373 166.805 167.367 166.359 166.076 165.812 165.646 165.636 168.175 
168.541 167.882 167.589 167.213 166.955 166.914 166.855 169.342 169.691 
169.122 168.947 168.627 168.272 168.158 168.112 167.929 170.49 170.82 
170.237 170.076 169.88 169.587 169.38 169.301 169.141 168.912 170.744 
169.482 170.436 168.968 170.037 167.963 168.637 169.826 167.479 166.436 
168.629 169.841 167.363 166.191 165.037 168.705 169.902 167.453 166.21 
164.996 163.784 168.763 169.996 167.563 166.326 165.037 163.846 162.746 
168.949 170.207 167.763 166.578 165.22 163.921 162.844 161.832 169.289 
170.504 168.1 166.929 165.576 164.178 162.991 161.925 160.948 171.738 
171.713 172.676 172.663 173.634 171.473 173.646 174.699 172.491 171.135 
174.711 175.766 173.581 172.25 170.956 175.671 176.611 174.707 173.475 
172.118 170.976 176.525 177.365 175.696 174.675 173.354 172.119 171.075 
177.451 178.187 176.642 175.701 174.535 173.282 172.218 171.239 178.324 
178.952 177.574 176.63 175.598 174.492 173.375 172.397 171.467 179.014 
179.575 178.365 177.484 176.539 175.666 174.654 173.547 172.587 171.71 