# vtk DataFile Version 4.0
vtk output
ASCII
DATASET POLYDATA
POINTS 1002 float
-105.128 -121.218 76.1077 -105.851 -122.102 75.8233 -105.6 -121.557 75.0413 
-104.862 -120.584 75.3062 -105.416 -120.817 74.4195 -104.339 -120.265 76.4335 
-104.619 -119.766 74.6169 -105.239 -119.957 73.7813 -104.059 -119.502 75.5941 
-103.571 -119.08 76.7927 -104.337 -118.859 73.8963 -104.983 -119.045 72.9714 
-103.727 -118.556 74.8169 -103.229 -118.123 75.9515 -102.906 -117.524 77.1998 
-104.018 -117.851 73.1182 -104.697 -117.978 72.2621 -103.316 -117.607 74.0457 
-102.742 -117.165 75.1343 -102.369 -116.651 76.4225 -102.135 -116.099 77.692 
-103.713 -116.642 72.4974 -104.45 -116.748 71.8013 -102.905 -116.57 73.3077 
-102.164 -116.353 74.3238 -101.647 -115.989 75.5871 -101.321 -115.599 76.9677 
-101.071 -115.166 78.2425 -103.371 -115.434 71.9728 -104.132 -115.614 71.3143 
-102.523 -115.375 72.678 -101.638 -115.422 73.546 -100.951 -115.337 74.7011 
-100.515 -115.048 76.1052 -100.228 -114.659 77.5098 -100.071 -114.21 78.7332 
-102.913 -114.448 71.3732 -103.72 -114.621 70.788 -102.103 -114.294 72.0569 
-101.216 -114.326 72.8459 -100.465 -114.404 73.8616 -100.01 -114.193 75.2096 
-99.6928 -113.754 76.6692 -99.514 -113.315 77.9506 -99.5475 -112.905 79.0349 
-102.44 -113.506 70.8225 -103.374 -113.572 70.4514 -101.639 -113.381 71.401 
-100.875 -113.28 72.1842 -100.213 -113.258 73.1408 -99.8585 -113.069 74.3927 
-99.6008 -112.607 75.8598 -99.2954 -112.143 77.163 -99.2146 -111.802 78.2008 
-99.4044 -111.486 79.1455 -102.085 -112.46 70.4284 -103.143 -112.483 70.2845 
-101.233 -112.415 70.8061 -100.58 -112.261 71.5381 -100.062 -112.048 72.5029 
-99.832 -111.777 73.6535 -99.7656 -111.37 75.0527 -99.4554 -110.95 76.4232 
-99.0833 -110.655 77.4695 -99.0752 -110.406 78.3285 -99.3573 -110.12 79.2041 
-106.424 -122.622 75.0086 -106.255 -122.015 74.2959 -107.177 -123.028 74.1548 
-107.128 -122.318 73.4919 -108.078 -123.251 73.2673 -106.16 -121.163 73.6973 
-108.047 -122.444 72.5415 -108.959 -123.328 72.3023 -107.029 -121.416 72.7744 
-105.956 -120.254 72.8942 -108.855 -122.579 71.4561 -109.882 -123.37 71.2613 
-107.801 -121.647 71.6788 -106.621 -120.608 71.7975 -105.594 -119.331 71.9912 
-109.817 -122.653 70.4675 -111.051 -123.284 70.3714 -108.618 -121.782 70.6516 
-107.284 -120.889 70.7529 -106.168 -119.676 70.99 -105.326 -118.16 71.4308 
-111.046 -122.294 69.8351 -112.303 -122.806 69.8156 -109.797 -121.477 69.9511 
-108.332 -120.694 70.0121 -106.974 -119.737 70.1626 -106.032 -118.317 70.5865 
-105.158 -116.828 71.0405 -112.173 -121.556 69.3945 -113.316 -122.004 69.373 
-111.03 -120.817 69.4955 -109.654 -120.079 69.5368 -108.134 -119.356 69.5616 
-106.92 -118.258 69.8019 -105.944 -116.879 70.2031 -104.876 -115.632 70.5531 
-113.015 -120.863 68.8194 -114.073 -121.257 68.7833 -111.936 -120.248 68.9432 
-110.698 -119.573 69.0091 -109.251 -118.937 69.0083 -107.897 -118.079 69.1427 
-106.793 -116.874 69.4689 -105.735 -115.601 69.8623 -104.578 -114.486 70.2215 
-113.727 -120.358 68.1577 -114.729 -120.736 68.1094 -112.646 -119.83 68.2807 
-111.422 -119.25 68.3249 -110.063 -118.67 68.3158 -108.774 -117.909 68.4817 
-107.68 -116.815 68.8775 -106.665 -115.544 69.3456 -105.59 -114.329 69.8016 
-104.396 -113.293 70.1546 -114.793 -120.017 67.5533 -113.697 -119.464 67.7187 
-114.844 -118.924 67.3475 -113.589 -118.266 67.474 -114.744 -117.565 67.2885 
-112.4 -118.881 67.7389 -113.26 -117.054 67.1789 -114.355 -116.321 66.9797 
-112.004 -117.756 67.2305 -110.913 -118.349 67.6055 -112.629 -115.866 66.7868 
-113.65 -114.933 66.6587 -111.407 -116.604 66.8299 -110.354 -117.191 67.0617 
-109.541 -117.646 67.7114 -111.843 -114.072 66.6609 -112.776 -113.163 66.8352 
-110.668 -115.02 66.6403 -109.749 -115.663 66.8737 -109.155 -116.113 67.4851 
-108.485 -116.529 68.2508 -111.196 -112.054 66.9413 -112.005 -111.682 67.379 
-110.096 -112.827 66.6968 -109.152 -113.653 66.8413 -108.692 -114.203 67.4606 
-108.259 -114.683 68.2777 -107.507 -115.182 68.9184 -110.775 -110.778 67.4936 
-111.463 -110.723 67.9743 -109.856 -111.104 67.1221 -108.853 -111.802 67.0443 
-108.151 -112.478 67.4571 -107.731 -112.957 68.2371 -107.191 -113.426 69.0036 
-106.413 -113.903 69.5013 -110.365 -109.937 68.2282 -110.979 -109.773 68.6246 
-109.623 -110.167 67.9487 -108.735 -110.654 67.7909 -107.814 -111.262 67.866 
-107.047 -111.728 68.2774 -106.469 -112.061 68.9353 -105.891 -112.386 69.5698 
-105.164 -112.79 69.9557 -109.809 -108.91 68.9994 -110.387 -108.689 69.3386 
-109.13 -109.21 68.8358 -108.362 -109.632 68.7521 -107.493 -110.093 68.6551 
-106.536 -110.485 68.6455 -105.665 -110.828 68.8948 -105.02 -111.138 69.3883 
-104.44 -111.449 69.8673 -103.776 -111.895 70.1364 -102.179 -111.385 70.0811 
-102.718 -110.743 69.8522 -101.192 -110.207 69.6803 -103.331 -110.212 69.5253 
-101.648 -109.45 69.3331 -100.502 -108.79 69.4228 -104.054 -109.659 69.1468 
-102.368 -108.61 69.0629 -100.995 -107.838 69.0578 -100.244 -107.07 69.6327 
-105.004 -109.1 68.9632 -103.38 -107.673 68.9468 -101.897 -106.757 68.984 
-100.808 -105.977 69.3452 -100.206 -105.142 70.0801 -106.048 -108.742 69.0854 
-104.491 -107.012 69.0649 -103.061 -105.808 69.1398 -101.793 -104.933 69.4248 
-100.801 -103.94 69.7968 -100.214 -103.138 70.3835 -106.987 -108.481 69.321 
-105.503 -106.78 69.3602 -104.183 -105.302 69.3799 -103.011 -104.157 69.6338 
-101.879 -102.923 69.7865 -100.912 -101.931 70.0544 -100.304 -101.46 70.7343 
-107.857 -108.127 69.4429 -106.515 -106.603 69.6247 -105.323 -105.05 69.6247 
-104.259 -103.664 69.7936 -103.223 -102.205 69.8435 -102.176 -101.034 69.9249 
-101.219 -100.567 70.5186 -100.568 -100.446 71.4647 -108.668 -107.805 69.5244 
-107.517 -106.397 69.7914 -106.53 -104.855 69.8483 -105.562 -103.372 69.9853 
-104.529 -101.881 70.0272 -103.561 -100.604 70.0107 -102.604 -100.005 70.5053 
-101.679 -99.8918 71.4583 -101.031 -99.7903 72.405 -109.341 -107.654 69.7832 
-108.311 -106.387 70.06 -107.497 -104.893 70.1477 -106.718 -103.36 70.289 
-105.718 -101.949 70.4391 -104.72 -100.732 70.4691 -103.893 -99.9142 70.7949 
-103.03 -99.5259 71.6011 -102.17 -99.2878 72.4731 -101.572 -99.0692 73.2057 
-101.129 -111.318 70.1926 -100.364 -109.947 70.0239 -100.416 -111.153 70.7628 
-99.9656 -108.272 70.2311 -99.8636 -109.509 71.0024 -99.9319 -110.797 71.7789 
-99.8498 -106.425 70.7049 -99.5406 -107.685 71.4835 -99.475 -108.946 72.2143 
-99.6812 -110.354 72.9305 -99.872 -104.481 71.0332 -99.4661 -105.936 71.8567 
-99.1879 -107.203 72.6036 -99.4324 -108.464 73.3662 -99.7732 -109.937 74.243 
-99.9393 -102.536 71.301 -99.6568 -104.053 72.1267 -99.3213 -105.611 72.9625 
-99.3949 -106.876 73.7826 -99.7294 -108.164 74.7625 -99.7165 -109.609 75.7209 
-100.036 -101.036 71.8861 -99.809 -102.113 72.6245 -99.6495 -103.731 73.5508 
-99.6878 -105.338 74.442 -99.836 -106.669 75.358 -99.6319 -108.022 76.2699 
-99.2361 -109.404 76.9657 -100.34 -100.12 72.7431 -99.9259 -100.689 73.3714 
-99.7265 -101.863 74.2929 -99.8149 -103.539 75.2529 -99.9964 -105.143 76.1194 
-99.7164 -106.527 76.8975 -99.1391 -107.886 77.4814 -98.9108 -109.202 77.8986 
-100.895 -99.4104 73.5753 -100.333 -99.8474 74.1784 -99.8657 -100.592 75.0256 
-99.6936 -101.883 75.9412 -99.8498 -103.516 76.7873 -99.7661 -105.032 77.5555 
-99.2468 -106.35 78.1337 -98.9149 -107.634 78.4763 -99.0629 -108.912 78.7835 
-101.679 -98.4839 74.1496 -101.124 -99.0336 74.8323 -101.8 -98.1484 75.5215 
-101.298 -98.9178 76.4955 -101.852 -98.1859 77.3129 -100.511 -99.6934 75.6961 
-101.355 -99.019 78.1781 -102.06 -98.4691 78.8072 -100.652 -99.7079 77.3811 
-99.9162 -100.582 76.5696 -101.59 -99.3368 79.374 -102.619 -98.9597 79.7841 
-100.79 -99.8643 78.8699 -100.039 -100.684 78.107 -99.6797 -101.954 77.3701 
-102.031 -99.8807 80.5131 -103.084 -99.4756 81.0046 -101.077 -100.35 80.1382 
-100.233 -101.026 79.6042 -99.6509 -102.172 78.8615 -99.6036 -103.606 78.185 
-102.236 -100.341 82.0496 -103.133 -99.8405 82.5591 -101.386 -100.954 81.518 
-100.52 -101.614 81.0114 -99.7057 -102.58 80.3721 -99.2887 -103.795 79.6448 
-99.2564 -105.054 78.9014 -102.329 -100.784 83.4063 -103.256 -100.397 83.7031 
-101.593 -101.384 82.8718 -100.859 -102.067 82.2647 -100.01 -102.961 81.6256 
-99.3295 -104.035 80.9299 -99.0681 -105.112 80.1686 -98.9964 -106.314 79.3063 
-102.806 -101.582 84.1467 -103.79 -101.34 84.272 -101.994 -102.009 83.8055 
-101.257 -102.542 83.3334 -100.476 -103.306 82.7526 -99.766 -104.33 82.0286 
-99.3776 -105.348 81.2506 -99.2722 -106.395 80.4255 -99.1887 -107.643 79.5491 
-103.56 -102.563 84.6215 -104.437 -102.323 84.6996 -102.698 -102.956 84.4045 
-101.811 -103.392 84.1493 -100.953 -103.962 83.8321 -100.271 -104.846 83.2266 
-99.8589 -105.86 82.364 -99.693 -106.811 81.4985 -99.6318 -107.852 80.6765 
-99.5224 -109.022 79.8835 -102.407 -98.3619 73.4373 -102.394 -97.7082 74.3622 
-103.366 -97.8256 73.699 -103.36 -97.3568 74.7383 -104.534 -97.7844 74.1669 
-102.432 -97.4917 75.9319 -104.748 -97.5779 75.47 -105.772 -98.1375 74.9173 
-103.578 -97.3035 76.5709 -102.636 -97.6702 77.8984 -106.154 -97.9564 76.3993 
-106.774 -98.6146 75.7327 -105.237 -97.395 77.3762 -104.091 -97.444 78.5453 
-103.203 -98.1173 79.3195 -107.18 -98.3835 77.1123 -107.668 -99.1931 76.3399 
-106.665 -97.5266 78.0256 -105.738 -97.3459 79.0533 -104.686 -98.0102 79.8315 
-103.869 -98.7923 80.3269 -108.167 -99.0582 77.5034 -108.777 -99.8129 76.7171 
-107.655 -98.1034 78.416 -106.956 -97.5859 79.3699 -105.958 -98.0946 80.2357 
-105.026 -98.8574 80.9306 -104.124 -99.308 81.6932 -109.387 -99.7452 77.7857 
-109.945 -100.368 77.0194 -108.707 -99.0901 78.7252 -107.984 -98.4932 79.6765 
-107.087 -98.5108 80.6034 -106.143 -98.9967 81.4701 -105.232 -99.3512 82.2822 
-104.203 -99.7143 83.0823 -110.531 -100.283 78.0929 -110.825 -100.984 77.3476 
-109.909 -99.8525 79.0248 -109.115 -99.5529 79.969 -108.284 -99.329 80.9161 
-107.455 -99.2794 81.9162 -106.622 -99.4488 82.7789 -105.641 -99.8657 83.417 
-104.586 -100.528 83.9192 -111.3 -100.93 78.3946 -111.357 -101.791 77.6781 
-110.934 -100.38 79.2776 -110.227 -100.234 80.1685 -109.406 -100.177 81.0604 
[...]
CELL_DATA 2000
SCALARS Distance double
LOOKUP_TABLE default
176.912 176.024 176.298 175.953 175.079 175.362 174.961 175.278 174.896 
174.024 174.346 173.873 174.206 173.749 174.122 173.682 172.852 173.209 
172.701 173.044 172.52 172.894 172.428 172.843 172.429 171.64 171.987 
171.456 171.814 171.277 171.641 171.168 171.581 171.218 171.651 171.335 
170.445 170.758 170.183 170.535 169.993 170.378 169.912 170.338 169.98 
170.446 170.155 170.612 170.324 169.279 169.557 168.954 169.268 168.71 
169.084 168.625 169.069 168.713 169.198 168.887 169.378 169.073 169.563 
169.273 168.162 168.393 167.779 168.062 167.505 167.838 167.383 167.796 
167.469 167.942 167.663 168.123 167.819 168.277 167.983 168.49 168.249 
167.133 167.294 166.65 166.903 166.35 166.668 166.21 166.591 166.259 
166.723 166.494 166.961 166.714 167.112 166.823 167.236 166.99 167.496 
167.311 177.334 177.706 177.18 176.485 178.072 177.566 176.874 176.319 
175.576 178.329 177.892 177.195 176.682 175.894 175.343 174.525 178.501 
178.089 177.387 176.93 176.123 175.599 174.729 174.205 173.348 178.744 
178.278 177.577 177.098 176.3 175.781 174.908 174.38 173.511 173.003 
172.16 179.012 178.55 177.826 177.319 176.509 175.968 175.102 174.561 
173.699 173.178 172.334 171.825 170.992 179.072 178.726 177.97 177.532 
176.703 176.187 175.312 174.768 173.898 173.37 172.517 172.002 171.156 
170.654 169.83 178.908 178.655 177.915 177.577 176.772 176.336 175.479 
174.971 174.104 173.576 172.726 172.196 171.362 170.836 170.021 169.516 
168.733 178.713 178.469 177.784 177.483 176.722 176.35 175.522 175.087 
174.243 173.768 172.947 172.434 171.636 171.094 170.32 169.773 169.021 
168.486 167.753 178.433 177.695 177.88 177.474 176.786 177.038 176.557 
176.81 176.358 175.683 176.011 175.46 175.754 175.223 175.575 175.11 
174.339 174.789 174.2 174.543 173.941 174.325 173.843 174.276 173.843 
172.707 173.262 172.638 173.126 172.479 172.95 172.448 172.957 172.57 
173.024 172.602 171.191 171.583 170.914 171.413 170.768 171.345 170.851 
171.482 171.133 171.712 171.348 171.784 171.331 170.23 170.325 169.701 
169.896 169.351 169.724 169.332 169.882 169.611 170.231 169.948 170.486 
170.091 170.5 170.031 169.588 169.61 169.088 169.084 168.657 168.728 
168.425 168.656 168.42 168.826 168.577 169.08 168.749 169.222 168.788 
169.19 168.726 168.864 168.977 168.485 168.574 168.147 168.234 167.858 
167.976 167.587 167.8 167.39 167.762 167.358 167.842 167.411 167.885 
167.416 167.857 167.418 166.528 166.443 165.993 165.024 166.393 165.893 
164.8 164.38 163.432 166.353 165.818 164.664 164.145 163.073 162.779 
162.007 166.477 165.843 164.68 164.035 162.927 162.482 161.621 161.44 
160.832 166.828 166.127 164.997 164.182 163.082 162.471 161.61 161.205 
160.481 160.29 159.702 167.22 166.58 165.537 164.654 163.557 162.799 
161.952 161.374 160.597 160.109 159.371 159.155 158.658 167.531 166.981 
166.054 165.25 164.201 163.391 162.521 161.839 161.041 160.377 159.578 
159.061 158.529 158.342 158.164 167.836 167.309 166.491 165.786 164.859 
164.078 163.238 162.491 161.708 160.94 160.177 159.48 158.982 158.549 
158.43 158.232 158.312 168.213 167.678 166.963 166.303 165.519 164.781 
164.037 163.275 162.574 161.754 161.089 160.281 159.846 159.244 159.14 
158.759 158.811 158.561 158.631 166.349 164.875 165.665 165.805 163.377 
164.177 164.383 165.222 165.513 162.058 162.775 163.03 163.838 164.191 
165.027 165.406 160.928 161.587 161.845 162.571 162.908 163.72 164.151 
165.001 165.473 159.806 160.49 160.77 161.467 161.781 162.497 162.924 
163.766 164.345 165.201 165.758 158.767 159.368 159.707 160.425 160.843 
161.503 161.98 162.686 163.329 164.145 164.807 165.564 166.053 158.218 
158.505 158.823 159.423 159.957 160.658 161.29 161.953 162.649 163.319 
163.994 164.666 165.175 165.805 166.177 158.27 158.244 158.449 158.741 
159.217 159.832 160.538 161.294 162.061 162.754 163.393 163.964 164.415 
164.954 165.32 165.913 166.312 158.555 158.443 158.579 158.612 158.963 
159.277 159.878 160.524 161.287 162.068 162.735 163.368 163.79 164.267 
164.593 165.107 165.518 166.131 166.624 158.688 159.071 158.837 158.84 
159.818 159.446 159.52 159.147 159.238 160.764 160.324 160.395 159.963 
160.03 159.679 160.004 161.788 161.275 161.305 160.864 160.922 160.521 
160.785 160.62 161.257 162.951 162.345 162.365 161.837 161.94 161.466 
161.708 161.428 161.963 161.956 162.653 164.081 163.523 163.556 163.004 
163.129 162.594 162.812 162.401 162.793 162.635 163.169 163.194 163.698 
165.085 164.587 164.634 164.161 164.267 163.787 163.939 163.499 163.749 
163.455 163.826 163.699 164.121 164.096 164.513 166.192 165.634 165.718 
165.217 165.344 164.868 165.016 164.567 164.777 164.399 164.711 164.433 
164.839 164.655 165.12 165.004 165.495 167.423 166.845 166.971 166.402 
166.569 166.013 166.207 165.687 165.948 165.487 165.834 165.436 165.859 
165.54 166.031 165.796 166.323 166.139 166.655 158.772 159.001 158.845 
158.995 159.647 159.201 159.28 159.231 159.678 160.874 160.168 160.239 
159.797 160.205 160.135 160.714 162.291 161.603 161.722 161.063 161.382 
160.965 161.49 161.309 161.87 163.552 162.986 163.103 162.527 162.736 
162.249 162.648 162.305 162.816 162.563 163.086 164.789 164.218 164.322 
163.774 163.925 163.462 163.777 163.448 163.901 163.611 164.056 163.783 
164.207 166.071 165.497 165.65 165.046 165.237 164.664 164.971 164.546 
164.99 164.673 165.103 164.775 165.127 164.832 165.204 167.253 166.76 
166.96 166.424 166.67 166.086 166.39 165.849 166.251 165.817 166.258 
165.861 166.248 165.842 166.213 165.87 166.309 168.29 167.873 168.075 
167.655 167.904 167.453 167.731 167.251 167.573 167.115 167.502 167.08 
167.494 167.059 167.457 167.017 167.427 167.062 167.522 168.252 168.008 
167.762 167.008 167.853 167.542 166.728 166.44 165.611 167.685 167.377 
166.519 166.181 165.296 165.014 164.178 167.513 167.19 166.331 165.968 
165.065 164.731 163.863 163.592 162.749 167.481 167.095 166.294 165.852 
164.99 164.566 163.736 163.366 162.541 162.194 161.355 167.585 167.171 
166.433 165.942 165.109 164.599 163.79 163.351 162.61 162.169 161.423 
160.955 160.254 167.738 167.326 166.625 166.145 165.329 164.784 163.944 
163.46 162.724 162.312 161.64 161.191 160.556 160.086 159.574 167.957 
167.523 166.866 166.38 165.633 165.062 164.266 163.692 162.958 162.473 
161.797 161.376 160.723 160.352 159.804 159.495 159.112 168.262 167.811 
167.219 166.708 166.054 165.465 164.775 164.146 163.495 162.88 162.243 
161.646 160.963 160.462 159.852 159.564 159.159 159.016 158.785 168.949 
169.92 169.189 168.739 170.954 170.188 169.735 169.017 168.596 172.065 
171.257 170.783 170.027 169.609 168.895 168.46 173.206 172.406 171.943 
171.128 170.702 169.938 169.517 168.752 168.299 174.294 173.558 173.145 
172.33 171.909 171.095 170.68 169.866 169.423 168.621 168.221 175.3 
174.64 174.28 173.521 173.097 172.299 171.875 171.069 170.636 169.804 
169.386 168.604 168.278 176.225 175.627 175.315 174.629 174.219 173.447 
173.002 172.227 171.813 171.027 170.623 169.813 169.45 168.696 168.415 
177.099 176.527 176.251 175.637 175.295 174.564 174.143 173.353 172.948 
172.182 171.818 171.044 170.688 169.903 169.586 168.851 168.609 177.96 
177.392 177.118 176.549 176.264 175.624 175.269 174.519 174.123 173.343 
172.977 172.218 171.874 171.117 170.787 170.04 169.761 169.064 168.864 
178.342 178.588 178.137 177.481 178.756 178.338 177.665 177.259 176.611 
178.907 178.482 177.791 177.392 176.719 176.344 175.642 179.103 178.659 
177.95 177.507 176.795 176.406 175.687 175.299 174.53 179.273 178.855 
178.152 177.691 176.946 176.493 175.74 175.322 174.546 174.142 173.37 
179.413 178.99 178.28 177.86 177.126 176.673 175.902 175.42 174.614 
174.158 173.361 172.977 172.24 179.591 179.141 178.395 177.958 177.224 
176.814 176.068 175.609 174.793 174.279 173.44 172.979 172.206 171.852 
171.155 179.659 179.299 178.563 178.109 177.346 176.9 176.143 175.722 
174.929 174.459 173.609 173.104 172.286 171.85 171.128 170.788 170.141 
179.445 179.254 178.582 178.251 177.505 177.054 176.251 175.786 174.977 
174.541 173.723 173.261 172.441 171.97 171.217 170.81 170.155 169.825 
169.246 178.998 177.968 178.422 178.198 176.783 177.316 177.143 177.571 
177.209 175.546 176.067 175.875 176.419 176.093 176.455 175.948 174.302 
174.779 174.481 175.056 174.729 175.221 174.741 175.105 174.599 172.971 
173.459 173.063 173.609 173.259 173.804 173.386 173.831 173.358 173.762 
173.322 171.6 172.09 171.721 172.206 171.859 172.366 172.002 172.479 
172.057 172.491 172.057 172.484 172.065 170.375 170.808 170.532 170.955 
170.639 171.058 170.701 171.139 170.744 171.187 170.77 171.206 170.801 
171.232 170.855 169.298 169.68 169.405 169.825 169.506 169.898 169.513 
169.897 169.502 169.911 169.536 169.953 169.596 170.007 169.676 170.092 
169.799 168.254 168.595 168.228 168.656 168.295 168.725 168.322 168.718 
168.312 168.711 168.36 168.775 168.468 168.871 168.585 168.977 168.716 
169.121 168.898 179.32 179.605 179.062 178.286 180.063 179.454 178.581 
177.956 177.105 180.21 179.881 179.032 178.342 177.351 176.739 175.897 
179.699 179.763 179.076 178.675 177.658 177.025 176.06 175.544 174.717 
179.067 179.158 178.66 178.515 177.611 177.156 176.107 175.645 174.704 
174.292 173.39 178.776 178.707 178.284 178.146 177.364 176.974 175.887 
175.476 174.425 174.115 173.131 172.818 171.909 178.523 178.439 177.904 
177.819 177.058 176.741 175.649 175.186 174.062 173.713 172.73 172.458 
171.567 171.331 170.589 178.115 178.024 177.311 177.275 176.471 176.339 
175.339 174.966 173.878 173.437 172.497 172.139 171.352 171.052 170.365 
170.139 169.542 177.729 177.559 176.769 176.612 175.789 175.683 174.842 
174.63 173.715 173.337 172.456 172.057 171.326 170.979 170.349 170.036 
169.443 169.176 168.59 179.99 181.076 180.434 180.307 182.18 181.525 
181.36 180.784 180.692 183.273 182.607 182.301 181.709 181.448 181.006 
180.707 184.151 183.617 183.183 182.532 182.041 181.549 181.06 180.66 
180.1 184.546 184.291 183.847 183.272 182.654 182.072 181.503 180.983 
180.414 179.931 179.44 184.575 184.518 184.22 183.805 183.229 182.651 
182.12 181.553 181.101 180.483 180.06 179.501 179.197 184.55 184.537 
184.428 184.169 183.777 183.252 182.774 182.219 181.832 181.28 180.903 
180.301 179.934 179.389 179.053 184.582 184.542 184.462 184.362 184.121 
183.797 183.376 182.879 182.423 181.931 181.497 181.021 180.571 180.086 
179.652 179.163 178.725 184.668 184.564 184.38 184.318 184.064 183.967 
183.585 183.319 182.806 182.407 181.865 181.446 180.921 180.521 180.028 
179.643 179.196 178.766 178.326 184.691 184.502 184.484 184.276 184.269 
184.233 183.917 183.978 183.826 183.975 183.997 183.595 183.55 183.232 
183.447 183.302 183.346 183.61 183.208 183.17 182.644 182.751 182.471 
182.807 182.577 182.283 182.785 182.468 182.626 182.035 182.09 181.657 
181.931 181.697 182.008 181.694 181.116 181.646 181.421 181.74 181.244 
181.38 180.918 181.14 180.88 181.164 180.888 181.108 180.752 180.072 
180.544 180.351 180.699 180.28 180.506 180.072 180.349 180.063 180.372 
180.08 180.312 179.951 180.172 179.847 179.037 179.511 179.295 179.663 
179.251 179.52 179.078 179.405 179.086 179.467 179.152 179.455 179.084 
179.348 179.035 179.313 179.047 177.953 178.425 178.195 178.592 178.206 
178.496 178.066 178.379 178.051 178.431 178.129 178.468 178.119 178.431 
178.143 178.483 178.258 178.545 178.254 177.291 176.328 177.05 177.483 
175.284 176.041 176.433 177.153 177.479 174.098 174.926 175.323 176.074 
176.403 177.089 177.385 172.838 173.668 174.081 174.908 175.296 176.04 
176.4 177.059 177.412 171.717 172.441 172.829 173.638 174.08 174.911 
175.349 176.093 176.468 177.128 177.465 170.715 171.384 171.741 172.46 
172.904 173.714 174.204 175.008 175.423 176.138 176.469 177.136 177.451 
169.701 170.382 170.734 171.424 171.839 172.6 173.081 173.875 174.318 
175.061 175.444 176.136 176.522 177.17 177.549 168.702 169.372 169.723 
170.404 170.778 171.524 171.956 172.753 173.178 173.949 174.349 175.1 
175.534 176.263 176.705 177.344 177.713 167.768 168.406 168.754 169.401 
169.736 170.432 170.809 171.587 171.994 172.789 173.184 173.973 174.386 
175.195 175.611 176.392 176.738 177.42 177.674 177.321 176.33 176.66 
176.277 175.225 175.598 175.179 175.529 175.197 174.032 174.456 174.09 
174.44 174.078 174.486 174.236 172.804 173.241 172.892 173.318 172.953 
173.363 173.031 173.496 173.188 171.58 171.995 171.598 172.058 171.655 
172.124 171.714 172.211 171.846 172.358 172.006 170.402 170.766 170.349 
170.766 170.364 170.793 170.367 170.82 170.447 170.977 170.697 171.214 
170.933 169.341 169.63 169.202 169.558 169.175 169.565 169.176 169.549 
169.179 169.624 169.377 169.92 169.736 170.232 169.996 168.357 168.608 
168.126 168.431 167.986 168.375 167.964 168.376 167.97 168.4 168.074 
168.606 168.396 168.982 168.778 169.295 169.056 167.369 167.611 167.081 
167.345 166.822 167.159 166.687 167.103 166.673 167.128 166.75 167.266 
166.984 167.582 167.361 167.971 167.748 168.316 168.117 179.328 179.581 
179.758 180.384 179.773 180.028 180.694 180.873 181.528 179.691 180.104 
180.778 181.112 181.798 182.035 182.714 179.42 179.904 180.606 181.066 
181.775 182.172 182.88 183.185 183.793 179.2 179.653 180.435 180.903 
181.674 182.085 182.773 183.171 183.768 184.085 184.445 178.995 179.454 
180.221 180.75 181.543 181.998 182.627 182.99 183.489 183.87 184.267 
184.525 184.687 178.685 179.171 179.807 180.398 181.088 181.705 182.294 
182.761 183.189 183.554 183.945 184.276 184.59 184.742 184.865 178.328 
178.802 179.372 179.891 180.478 181.084 181.685 182.278 182.811 183.255 
183.691 184.015 184.37 184.613 184.827 184.927 184.98 177.977 178.445 
179.033 179.486 180.051 180.524 181.117 181.671 182.307 182.853 183.389 
183.783 184.104 184.367 184.509 184.727 184.755 184.909 184.863 179.42 
180.444 179.91 179.904 181.573 180.978 180.958 180.418 180.362 182.782 
182.148 182.092 181.498 181.443 180.847 180.617 183.883 183.343 183.245 
182.629 182.512 181.919 181.7 180.994 180.538 184.503 184.233 184.108 
183.66 183.466 182.934 182.664 182.023 181.57 180.792 180.222 184.664 
184.56 184.422 184.24 184.074 183.748 183.471 182.919 182.439 181.731 
181.153 180.422 179.888 184.791 184.644 184.502 184.383 184.322 184.194 
184.067 183.67 183.232 182.553 181.944 181.252 180.711 180.078 179.609 
184.938 184.81 184.675 184.513 184.484 184.411 184.434 184.218 183.93 
183.34 182.731 182.014 181.437 180.827 180.365 179.78 179.322 184.895 
184.899 184.78 184.684 184.599 184.561 184.575 184.522 184.354 183.979 
183.436 182.777 182.142 181.519 181.026 180.483 180.036 179.46 178.992 
178.879 179.346 178.81 178.179 179.729 179.226 178.532 178.021 177.285 
179.852 179.447 178.645 178.232 177.426 176.99 176.163 179.672 179.362 
178.466 178.153 177.28 176.965 176.094 175.729 174.799 179.378 179.082 
178.184 177.879 177.014 176.728 175.864 175.545 174.614 174.234 173.22 
179.145 178.834 178.003 177.649 176.847 176.517 175.737 175.369 174.519 
174.083 173.176 172.693 171.788 178.931 178.657 177.887 177.543 176.778 
176.436 175.724 175.355 174.617 174.148 173.358 172.822 172.054 171.502 
170.811 178.66 178.441 177.71 177.43 176.695 176.388 175.693 175.373 
174.688 174.302 173.572 173.097 172.358 171.85 171.166 170.677 170.075 
178.354 178.161 177.474 177.243 176.565 176.297 175.63 175.333 174.658 
174.333 173.618 173.243 172.491 172.081 171.352 170.945 170.28 169.898 
169.298 180.041 180.333 180.523 181.115 180.331 180.714 181.415 181.626 
182.243 180.127 180.594 181.337 181.775 182.5 182.756 183.359 179.934 
180.365 181.054 181.559 182.294 182.796 183.472 183.778 184.226 179.766 
180.179 180.837 181.282 181.972 182.479 183.129 183.62 184.082 184.382 
184.563 179.584 180 180.669 181.093 181.785 182.219 182.851 183.254 
183.691 184.028 184.237 184.472 184.512 179.43 179.834 180.495 180.915 
181.608 182.054 182.741 183.104 183.598 183.782 184.028 184.146 184.278 
184.409 184.485 179.248 179.673 180.3 180.718 181.351 181.82 182.52 
182.995 183.616 183.856 184.186 184.175 184.329 184.313 184.464 184.504 
184.61 178.978 179.434 180.023 180.465 181.021 181.488 182.116 182.679 
183.364 183.826 184.273 184.395 184.53 184.475 184.559 184.564 184.7 
184.706 184.783 
POINT_DATA 1002
SCALARS Distance double
LOOKUP_TABLE default
176.59 177.501 176.648 175.657 175.77 175.614 174.661 174.809 174.566 
174.511 173.569 173.694 173.392 173.293 173.245 172.364 172.5 172.172 
171.999 171.995 172.051 171.098 171.324 170.907 170.754 170.753 170.91 
171.048 169.853 170.161 169.601 169.475 169.511 169.679 169.88 170.047 
168.658 169.02 168.353 168.179 168.225 168.406 168.578 168.764 169.011 
167.504 167.962 167.178 166.984 166.987 167.198 167.391 167.493 167.697 
168.04 166.418 167.021 166.03 165.843 165.805 165.989 166.3 166.457 
166.522 166.752 167.142 177.854 177.039 178.226 177.436 178.555 176.149 
177.687 178.749 176.464 175.072 177.833 178.924 176.643 175.265 173.851 
178.079 179.232 176.821 175.437 174.025 172.66 178.343 179.465 177.06 
175.648 174.223 172.851 171.493 178.372 179.383 177.197 175.857 174.436 
173.038 171.665 170.311 178.211 179.131 177.164 175.958 174.624 173.256 
171.888 170.535 169.22 178.068 178.941 177.075 175.929 174.68 173.425 
172.161 170.862 169.566 168.28 178.29 177.282 177.516 176.319 176.526 
176.074 175.189 175.335 174.873 174.723 173.845 173.841 173.569 173.382 
173.427 172.104 172.18 171.968 171.901 172.064 172.223 170.47 170.925 
170.171 170.169 170.485 170.855 170.972 169.582 170.185 169.053 168.834 
168.995 169.357 169.637 169.669 169.064 169.516 168.62 168.302 168.142 
168.127 168.25 168.362 168.337 168.353 168.725 168.04 167.785 167.49 
167.134 166.912 166.916 166.959 166.956 165.609 165.416 164.048 165.306 
163.678 162.571 165.234 163.454 162.089 161.363 165.387 163.422 161.908 
160.871 160.268 165.865 163.742 162.087 160.841 159.736 159.107 166.391 
164.359 162.573 161.2 159.757 158.627 158.244 166.77 165.004 163.244 
161.749 160.18 158.804 158.16 158.093 167.12 165.587 163.991 162.484 
160.895 159.461 158.686 158.447 158.399 167.566 166.206 164.767 163.355 
161.885 160.491 159.588 159.148 158.841 158.658 164.97 163.514 164.668 
162.244 163.336 164.574 161.159 162.139 163.254 164.63 160.048 161.109 
162.101 163.42 164.991 158.955 160.124 161.302 162.541 164.03 165.407 
158.321 159.198 160.555 162.02 163.391 164.567 165.556 158.323 158.709 
159.751 161.316 162.855 163.939 164.745 165.663 158.611 158.808 159.377 
160.512 162.04 163.317 164.122 164.915 165.98 158.8 159.105 159.312 
159.927 160.219 159.534 160.832 161.244 160.432 160.13 161.753 162.368 
161.333 161.006 161.225 162.917 163.571 162.428 162.064 162.06 162.609 
164.084 164.592 163.67 163.294 163.084 163.241 163.662 165.089 165.577 
164.734 164.402 164.124 164.044 164.197 164.507 166.239 166.762 165.83 
165.471 165.18 165.033 165.06 165.263 165.594 167.537 167.971 167.14 
166.74 166.414 166.253 166.219 166.3 166.533 166.845 158.861 158.879 
159.269 159.46 160.214 159.508 160.832 161.578 160.43 160.684 162.405 
162.894 161.935 161.787 162.002 163.661 164.105 163.246 163.031 163.129 
163.32 164.89 165.375 164.418 164.113 164.189 164.388 164.462 166.229 
166.612 165.835 165.463 165.34 165.445 165.478 165.445 167.441 167.709 
167.213 166.964 166.747 166.67 166.662 166.606 166.591 168.471 168.693 
168.315 168.186 168.044 167.93 167.909 167.912 167.857 167.835 168.469 
167.253 168.304 167.072 168.185 165.862 166.876 167.996 165.614 164.415 
166.703 167.843 165.418 164.168 163.008 166.742 167.861 165.44 164.117 
162.925 161.692 166.912 167.983 165.647 164.243 163.014 161.893 160.685 
167.087 168.148 165.878 164.465 163.126 162.034 160.996 159.989 167.338 
168.387 166.176 164.846 163.489 162.261 161.1 160.075 159.351 169.656 
169.447 170.662 170.458 171.746 169.303 171.57 172.881 170.325 169.201 
172.769 173.97 171.494 170.292 169.062 173.938 174.978 172.732 171.504 
170.248 168.963 175.008 175.918 173.897 172.666 171.458 170.206 168.992 
175.957 176.802 174.984 173.781 172.562 171.421 170.246 169.115 176.827 
177.673 175.973 174.931 173.72 172.566 171.469 170.351 169.293 177.679 
178.53 176.851 175.971 174.908 173.745 172.622 171.534 170.479 169.514 