# vtk DataFile Version 4.0
vtk output
ASCII
DATASET POLYDATA
POINTS 1002 float
-107.136 -125.095 76.3378 -107.847 -125.726 75.7545 -107.099 -125.577 75.1755 
-106.363 -124.82 75.8557 -106.44 -125.185 74.5067 -106.312 -124.366 77.0822 
-105.638 -124.276 75.1868 -105.814 -124.486 73.8017 -105.48 -123.968 76.673 
-105.366 -123.538 77.8517 -104.864 -123.56 74.3855 -105.123 -123.612 73.1714 
-104.705 -123.334 75.9961 -104.497 -123.061 77.4392 -104.495 -122.532 78.4786 
-104.088 -122.73 73.6598 -104.477 -122.627 72.6705 -103.948 -122.564 75.1791 
-103.789 -122.282 76.7761 -103.664 -121.882 78.0213 -103.784 -121.322 79.0631 
-103.515 -121.618 73.1566 -104.011 -121.449 72.2751 -103.272 -121.591 74.5055 
-103.144 -121.318 76.0613 -103.007 -120.895 77.384 -103.006 -120.43 78.5864 
-103.126 -120.064 79.781 -103.081 -120.317 72.8274 -103.611 -120.196 71.9726 
-102.678 -120.402 74.0553 -102.427 -120.312 75.48 -102.253 -119.989 76.7285 
-102.223 -119.542 77.9841 -102.324 -119.185 79.3516 -102.456 -118.984 80.561 
-102.597 -119.185 72.5412 -103.159 -119.074 71.7625 -102.07 -119.315 73.644 
-101.646 -119.4 74.9584 -101.354 -119.319 76.1244 -101.257 -119.032 77.3426 
-101.357 -118.675 78.8607 -101.549 -118.375 80.2533 -101.801 -118.122 81.2656 
-102.112 -118.222 72.2525 -102.698 -118.048 71.6034 -101.527 -118.417 73.1653 
-100.996 -118.584 74.3532 -100.611 -118.634 75.536 -100.42 -118.522 76.7324 
-100.412 -118.294 78.2764 -100.554 -118.013 79.8855 -100.834 -117.686 81.0676 
-101.229 -117.332 81.8778 -101.717 -117.215 71.9926 -102.273 -117.019 71.4341 
-101.162 -117.457 72.7346 -100.613 -117.654 73.7432 -100.196 -117.709 74.9323 
-99.9866 -117.622 76.1952 -99.8973 -117.483 77.6759 -99.8767 -117.333 79.3154 
-100.006 -117.125 80.7083 -100.334 -116.829 81.6954 -100.786 -116.499 82.427 
-108.168 -126.163 74.8223 -107.441 -125.951 74.1005 -108.797 -126.287 73.7192 
-108.127 -125.928 73.0203 -109.719 -126.03 72.5926 -106.851 -125.422 73.4082 
-109.062 -125.49 72.0665 -110.651 -125.594 71.635 -107.567 -125.203 72.4348 
-106.316 -124.495 72.8179 -109.93 -124.935 71.2026 -111.431 -125.097 70.7829 
-108.378 -124.683 71.4996 -107.018 -124.152 71.8778 -105.707 -123.422 72.3289 
-110.659 -124.44 70.1779 -112.106 -124.535 69.7932 -109.093 -124.224 70.4643 
-107.657 -123.798 70.7632 -106.361 -123.143 71.3225 -105.09 -122.359 71.8735 
-111.3 -123.987 68.9603 -112.662 -124.039 68.7009 -109.815 -123.804 69.3124 
-108.301 -123.512 69.6545 -106.921 -122.985 70.1531 -105.678 -122.166 70.8436 
-104.57 -121.178 71.456 -111.831 -123.493 67.9233 -113.131 -123.581 67.7805 
-110.499 -123.25 68.2402 -109.081 -122.985 68.718 -107.637 -122.628 69.2525 
-106.302 -121.925 69.8537 -105.145 -120.92 70.5311 -104.119 -119.902 71.1862 
-112.33 -122.809 67.2713 -113.621 -122.946 67.1385 -111.049 -122.534 67.4816 
-109.752 -122.242 67.8978 -108.425 -121.937 68.5157 -107.121 -121.374 69.1674 
-105.902 -120.483 69.8 -104.765 -119.517 70.4631 -103.68 -118.689 71.0912 
-112.855 -121.961 66.8367 -114.126 -122.131 66.7023 -111.545 -121.728 66.9844 
-110.233 -121.502 67.2242 -108.98 -121.236 67.7118 -107.839 -120.726 68.4537 
-106.753 -119.918 69.2515 -105.611 -119.024 69.9611 -104.394 -118.225 70.5594 
-103.23 -117.558 71.039 -113.799 -121.147 66.4286 -112.396 -120.949 66.5165 
-113.299 -120.179 66.1354 -111.716 -120.015 66.1664 -112.571 -119.138 65.9083 
-110.926 -120.795 66.6492 -110.894 -118.805 65.9606 -111.725 -117.669 65.8275 
-110.168 -119.824 66.3594 -109.517 -120.611 66.9303 -110.172 -117.057 65.9937 
-110.983 -116.04 65.934 -109.505 -118.3 66.3472 -108.864 -119.408 66.8335 
-108.338 -120.148 67.5785 -109.695 -115.504 66.4177 -110.507 -114.919 66.5386 
-109.068 -116.471 66.7034 -108.466 -117.676 67.1621 -107.879 -118.682 67.7977 
-107.369 -119.336 68.6001 -109.402 -114.586 67.4523 -110.213 -114.136 67.6978 
-108.718 -115.192 67.5354 -108.131 -116.045 67.8653 -107.525 -117.022 68.3913 
-106.939 -117.809 69.0624 -106.319 -118.411 69.6113 -109.069 -113.656 68.6905 
-109.808 -113.156 68.8605 -108.301 -114.204 68.6709 -107.587 -114.782 68.7634 
-106.927 -115.48 69.0273 -106.295 -116.247 69.5101 -105.664 -116.93 69.9842 
-105.002 -117.569 70.2889 -108.528 -112.412 69.5981 -109.183 -112.034 69.7258 
-107.75 -112.895 69.5642 -106.874 -113.387 69.5248 -106.032 -113.925 69.5057 
-105.312 -114.616 69.6746 -104.679 -115.381 70.0074 -104.093 -116.113 70.3482 
-103.593 -116.842 70.6783 -107.882 -111.217 70.2666 -108.524 -111.053 70.4622 
-107.12 -111.499 70.1391 -106.184 -111.856 70.0115 -105.176 -112.314 69.8631 
-104.295 -112.982 69.7973 -103.604 -113.82 69.8902 -103.055 -114.653 70.1404 
-102.654 -115.442 70.5321 -102.411 -116.242 70.9926 -101.529 -116.024 71.5688 
-101.571 -115.118 71.0422 -100.899 -114.914 71.8716 -101.738 -114.249 70.517 
-100.948 -113.939 71.3554 -100.459 -113.622 72.4521 -102.135 -113.365 70.1982 
-101.184 -113.001 70.9356 -100.625 -112.509 72.0063 -100.173 -111.951 73.1343 
-102.756 -112.373 70.1305 -101.682 -111.984 70.8219 -100.982 -111.395 71.7318 
-100.355 -110.605 72.6772 -99.9112 -109.974 73.7524 -103.6 -111.422 70.1746 
-102.406 -110.875 70.8511 -101.57 -110.289 71.7083 -100.704 -109.413 72.4185 
-99.9506 -108.597 73.2188 -99.6997 -108.15 74.4385 -104.667 -110.785 70.3081 
-103.352 -109.968 70.8496 -102.385 -109.282 71.6498 -101.397 -108.456 72.3408 
-100.348 -107.58 72.9269 -99.7808 -106.962 73.8433 -99.7441 -106.696 75.2291 
-105.774 -110.459 70.5418 -104.458 -109.496 70.9937 -103.39 -108.596 71.5864 
-102.41 -107.679 72.2269 -101.305 -106.791 72.8312 -100.432 -106.066 73.5277 
-100.1 -105.646 74.5681 -100.009 -105.521 75.9585 -106.735 -110.278 70.8012 
-105.556 -109.317 71.312 -104.485 -108.294 71.7679 -103.533 -107.189 72.2189 
-102.529 -106.149 72.7806 -101.548 -105.323 73.4384 -100.896 -104.795 74.2054 
-100.549 -104.589 75.2748 -100.279 -104.614 76.6301 -107.543 -110.189 71.0584 
-106.555 -109.239 71.6264 -105.576 -108.185 72.069 -104.639 -107.019 72.4209 
-103.701 -105.861 72.8685 -102.734 -104.895 73.4662 -101.904 -104.236 74.1117 
-101.313 -103.916 74.9024 -100.874 -103.866 76.0275 -100.541 -103.976 77.3669 
-101.028 -116.228 72.2591 -100.456 -115.006 72.7647 -100.5 -116.43 73.1362 
-100.051 -113.469 73.4949 -99.9884 -114.999 73.7916 -100.029 -116.474 74.2661 
-99.8637 -111.578 74.2727 -99.7386 -113.21 74.6437 -99.7099 -114.793 75.0652 
-99.8057 -116.328 75.6385 -99.7991 -109.587 75.1348 -99.7725 -111.241 75.6372 
-99.6946 -112.887 76.076 -99.7208 -114.534 76.6523 -99.7601 -116.154 77.2101 
-99.7404 -107.848 76.1109 -99.7741 -109.323 76.78 -99.7613 -110.973 77.2184 
-99.7868 -112.683 77.7426 -99.7614 -114.411 78.3384 -99.6868 -116.063 78.8644 
-99.7412 -106.442 76.9522 -99.5863 -107.648 77.7812 -99.5792 -109.142 78.284 
-99.7381 -110.858 78.7432 -99.8274 -112.64 79.2984 -99.6938 -114.396 79.8477 
-99.6456 -115.992 80.3536 -99.86 -105.354 77.5982 -99.4942 -106.329 78.443 
-99.3329 -107.577 78.9981 -99.5242 -109.126 79.5047 -99.8052 -110.884 80.1263 
-99.7951 -112.683 80.7039 -99.654 -114.413 81.1887 -99.8022 -115.865 81.555 
-100.113 -104.573 78.2458 -99.7136 -105.388 79.0018 -99.4215 -106.429 79.5157 
-99.4427 -107.719 80.045 -99.709 -109.279 80.8154 -99.8198 -111.036 81.5774 
-99.7174 -112.827 82.0891 -99.7658 -114.445 82.3904 -100.161 -115.68 82.4958 
-100.671 -103.794 78.7613 -100.309 -104.489 79.5482 -101.092 -103.74 80.1585 
-100.784 -104.576 80.822 -101.645 -103.863 81.3728 -99.9641 -105.425 80.1035 
-101.21 -104.761 82.0827 -102.104 -104.097 82.4692 -100.366 -105.591 81.41 
-99.7123 -106.547 80.6188 -101.547 -104.991 83.2985 -102.653 -104.44 83.5074 
-100.602 -105.738 82.9227 -99.978 -106.707 82.2116 -99.7098 -107.892 81.4544 
-102.27 -105.487 84.2642 -103.458 -105.055 84.4002 -101.08 -106.036 84.135 
-100.223 -106.902 83.7727 -99.8316 -108.146 83.17 -99.7723 -109.578 82.4339 
-103.266 -106.283 85.0402 -104.231 -105.807 85.2574 -102.145 -106.768 84.8327 
-101.082 -107.451 84.5815 -100.274 -108.611 84.2757 -99.8247 -110.078 83.845 
-99.7166 -111.508 83.0855 -104.024 -106.986 85.8799 -104.843 -106.405 86.1787 
-103.121 -107.615 85.5185 -102.235 -108.306 85.0949 -101.382 -109.331 84.712 
-100.536 -110.718 84.4664 -99.9757 -112.113 84.1056 -99.8033 -113.329 83.3454 
-104.649 -107.535 86.6594 -105.485 -106.956 86.949 -103.739 -108.234 86.3402 
-102.912 -109.029 85.9409 -102.315 -110.03 85.423 -101.678 -111.286 84.9221 
-100.923 -112.597 84.5568 -100.417 -113.744 84.0961 -100.232 -114.744 83.3467 
-105.411 -108.204 87.1496 -106.214 -107.677 87.4049 -104.476 -108.832 86.9408 
-103.475 -109.61 86.7527 -102.779 -110.604 86.4247 -102.42 -111.757 85.8261 
-101.971 -112.922 85.1231 -101.411 -113.977 84.5308 -101.041 -114.893 83.9288 
-100.874 -115.726 83.1899 -101.122 -103.399 77.389 -101.399 -103.189 78.9224 
-102.058 -102.969 77.5472 -102.502 -102.754 79.0861 -103.407 -102.706 77.7692 
-101.918 -103.143 80.3717 -103.957 -102.553 79.1785 -104.923 -102.573 77.9295 
-103.053 -102.798 80.4953 -102.504 -103.324 81.5956 -105.519 -102.523 79.211 
-106.305 -102.624 78.0411 -104.569 -102.687 80.5828 -103.718 -103.008 81.8561 
-103.126 -103.593 82.7716 -106.962 -102.689 79.3451 -107.503 -103.041 78.2544 
-106.267 -102.652 80.7323 -105.411 -102.786 82.1951 -104.553 -103.211 83.2428 
-103.889 -104.018 83.8436 -108.199 -103.204 79.5957 -108.585 -103.765 78.5574 
-107.718 -102.857 80.96 -107.115 -102.714 82.4907 -106.266 -102.995 83.6709 
-105.326 -103.768 84.262 -104.63 -104.769 84.7088 -109.235 -103.949 79.7675 
-109.537 -104.515 78.8098 -108.786 -103.498 81.0701 -108.305 -103.155 82.5918 
-107.716 -103.21 83.8395 -106.839 -103.855 84.5224 -105.902 -104.72 85.0226 
-105.242 -105.539 85.6416 -110.093 -104.718 79.8534 -110.305 -105.25 78.9991 
-109.698 -104.322 81.0076 -109.219 -104.009 82.4519 -108.789 -103.902 83.7718 
-108.228 -104.283 84.6108 -107.388 -104.947 85.2542 -106.523 -105.518 86.0095 
-105.892 -106.125 86.6475 -110.758 -105.548 79.9861 -110.897 -106.084 79.1727 
[...]
CELL_DATA 2000
SCALARS Distance double
LOOKUP_TABLE default
180.678 179.821 180.192 180.026 178.766 179.236 179.07 179.489 179.284 
177.531 178.064 177.887 178.423 178.24 178.682 178.421 176.238 176.766 
176.573 177.16 176.995 177.539 177.295 177.736 177.439 174.957 175.459 
175.238 175.824 175.653 176.237 175.988 176.502 176.192 176.687 176.43 
173.698 174.17 173.915 174.48 174.295 174.882 174.636 175.158 174.854 
175.374 175.145 175.706 175.569 172.517 172.935 172.662 173.17 172.979 
173.539 173.331 173.84 173.592 174.085 173.928 174.469 174.416 174.955 
174.906 171.435 171.806 171.529 171.967 171.772 172.276 172.108 172.602 
172.422 172.903 172.805 173.338 173.353 173.89 173.903 174.38 174.335 
170.399 170.756 170.475 170.878 170.664 171.12 170.952 171.435 171.287 
171.78 171.696 172.24 172.253 172.834 172.863 173.395 173.367 173.83 
173.768 180.918 180.963 180.662 180.052 180.926 180.657 180.029 179.726 
179.025 180.819 180.574 179.932 179.656 178.938 178.61 177.818 180.647 
180.426 179.74 179.491 178.748 178.471 177.675 177.35 176.534 180.364 
180.194 179.476 179.244 178.466 178.219 177.436 177.17 176.371 176.061 
175.263 179.979 179.848 179.149 178.947 178.186 177.938 177.173 176.918 
176.155 175.875 175.083 174.781 174.002 179.584 179.447 178.761 178.594 
177.879 177.672 176.951 176.701 175.958 175.667 174.885 174.581 173.795 
173.519 172.797 179.206 179.055 178.346 178.189 177.47 177.326 176.635 
176.466 175.755 175.497 174.725 174.403 173.622 173.318 172.589 172.344 
171.693 178.814 178.662 177.931 177.765 177.025 176.886 176.191 176.084 
175.415 175.256 174.548 174.276 173.537 173.205 172.486 172.174 171.497 
171.261 170.646 178.356 177.305 177.701 177.428 176.129 176.576 176.28 
176.735 176.498 174.72 175.289 174.994 175.538 175.31 175.815 175.647 
173.15 173.754 173.494 174.164 173.987 174.588 174.438 174.991 174.867 
171.973 172.309 172.099 172.678 172.609 173.247 173.181 173.77 173.674 
174.217 174.058 171.481 171.509 171.32 171.573 171.553 172.009 172.03 
172.565 172.528 173.047 172.905 173.372 173.123 171.135 171.178 170.917 
171.031 170.866 171.134 171.022 171.462 171.345 171.877 171.686 172.194 
171.909 172.371 172.066 170.46 170.652 170.254 170.476 170.067 170.344 
169.92 170.331 169.945 170.52 170.168 170.803 170.436 171.035 170.69 
171.259 171.002 169.639 169.818 169.322 169.565 169.007 169.287 168.662 
169.019 168.432 168.947 168.477 169.122 168.733 169.413 169.088 169.766 
169.545 170.212 170.092 169.477 168.798 168.85 168.369 168.213 168.145 
167.577 167.751 167.39 167.788 167.593 166.954 167.006 166.602 166.812 
166.466 167.513 167.214 166.541 166.476 166.018 166.091 165.638 165.802 
165.35 167.465 167.017 166.307 166.131 165.649 165.601 165.061 165.025 
164.414 164.574 164.162 167.736 167.126 166.368 165.998 165.484 165.312 
164.787 164.584 163.918 163.783 163.27 163.489 163.335 168.192 167.546 
166.806 166.237 165.674 165.291 164.794 164.462 163.869 163.528 162.986 
162.862 162.639 162.892 162.95 168.643 168.072 167.432 166.812 166.244 
165.675 165.157 164.659 164.124 163.667 163.159 162.82 162.511 162.454 
162.426 162.668 162.801 169.074 168.574 168.055 167.483 166.966 166.347 
165.818 165.197 164.67 164.095 163.621 163.142 162.802 162.511 162.384 
162.357 162.433 162.636 162.829 169.7 168.685 169.388 169.807 167.734 
168.41 168.856 169.549 170.004 166.782 167.473 167.884 168.591 169.057 
169.777 170.269 165.702 166.471 166.888 167.611 168.072 168.811 169.347 
170.085 170.62 164.636 165.4 165.934 166.653 167.18 167.876 168.469 
169.2 169.836 170.518 171.101 163.864 164.491 165.118 165.796 166.41 
167.074 167.716 168.414 169.11 169.801 170.473 171.091 171.698 163.415 
163.886 164.454 165.059 165.644 166.317 166.949 167.684 168.386 169.114 
169.8 170.469 171.11 171.722 172.306 163.184 163.517 163.974 164.44 
164.924 165.523 166.102 166.855 167.568 168.364 169.083 169.791 170.445 
171.096 171.711 172.309 172.837 163.171 163.361 163.786 164.066 164.512 
164.904 165.446 166.046 166.776 167.546 168.348 169.089 169.809 170.456 
171.106 171.71 172.295 172.824 173.291 163.414 164.151 163.821 164.003 
165.104 164.669 164.787 164.45 164.678 166.091 165.654 165.764 165.331 
165.5 165.184 165.56 167.081 166.621 166.735 166.314 166.498 166.116 
166.482 166.242 166.859 168.281 167.699 167.818 167.314 167.529 167.134 
167.531 167.261 167.87 167.708 168.428 169.667 169.04 169.203 168.563 
168.789 168.259 168.666 168.333 168.944 168.751 169.438 169.277 169.917 
170.959 170.426 170.621 170.024 170.25 169.654 170.022 169.564 170.133 
169.845 170.511 170.297 170.918 170.698 171.24 172.101 171.634 171.817 
171.337 171.551 171.06 171.392 170.951 171.445 171.086 171.672 171.385 
171.958 171.704 172.207 171.962 172.413 173.218 172.748 172.932 172.468 
172.681 172.245 172.566 172.205 172.668 172.35 172.852 172.533 173 
172.71 173.132 172.882 173.261 173.037 173.386 163.236 163.413 163.493 
164 163.964 163.831 164.289 164.377 164.963 164.815 164.53 164.909 
164.801 165.324 165.399 165.976 165.777 165.447 165.817 165.564 166.039 
165.907 166.457 166.451 167.025 166.83 166.454 166.876 166.569 167.078 
166.801 167.337 167.124 167.693 167.599 168.237 168.036 167.594 168.027 
167.686 168.225 167.924 168.47 168.159 168.68 168.426 169.002 168.906 
169.577 169.256 168.825 169.207 168.851 169.339 169.055 169.591 169.306 
169.81 169.495 169.992 169.753 170.326 170.246 170.869 170.348 169.973 
170.31 169.974 170.407 170.128 170.643 170.39 170.929 170.634 171.148 
170.821 171.339 171.082 171.636 171.503 172.061 171.347 171.001 171.332 
171.015 171.439 171.166 171.684 171.439 172.01 171.753 172.321 172.011 
172.544 172.198 172.705 172.4 172.905 172.699 173.209 169.185 169.176 
168.856 168.226 169.191 168.849 168.147 167.845 167.156 169.154 168.805 
168.032 167.717 166.957 166.698 165.979 169.205 168.783 168.017 167.615 
166.853 166.509 165.77 165.498 164.809 169.45 168.954 168.264 167.75 
167.061 166.565 165.868 165.415 164.712 164.377 163.763 169.798 169.296 
168.657 168.122 167.474 166.928 166.266 165.702 164.994 164.456 163.79 
163.431 162.949 170.195 169.692 169.078 168.545 167.884 167.349 166.679 
166.143 165.464 164.879 164.203 163.652 163.125 162.781 162.508 170.667 
170.148 169.584 169.017 168.382 167.781 167.12 166.554 165.946 165.392 
164.823 164.219 163.716 163.174 162.875 162.553 162.506 171.19 170.675 
170.178 169.607 169.059 168.401 167.808 167.128 166.592 165.977 165.539 
164.939 164.545 163.927 163.631 163.121 163.035 162.743 162.863 169.789 
170.726 170.091 169.806 171.724 171.072 170.797 170.166 169.878 172.744 
172.093 171.825 171.182 170.911 170.239 169.901 173.799 173.139 172.9 
172.237 171.99 171.307 171.01 170.275 169.951 174.889 174.223 174.011 
173.347 173.142 172.448 172.201 171.447 171.155 170.394 170.145 175.954 
175.317 175.103 174.463 174.289 173.632 173.432 172.696 172.429 171.643 
171.374 170.638 170.445 176.928 176.358 176.165 175.548 175.384 174.765 
174.596 173.92 173.676 172.92 172.639 171.879 171.65 170.953 170.809 
177.79 177.305 177.169 176.599 176.449 175.851 175.697 175.061 174.84 
174.13 173.857 173.12 172.884 172.173 172.012 171.344 171.25 178.555 
178.148 178.06 177.565 177.428 176.883 176.731 176.143 175.942 175.274 
175.009 174.301 174.064 173.383 173.226 172.565 172.458 171.811 171.744 
178.949 179.405 178.952 178.47 179.865 179.385 178.858 178.397 177.85 
180.339 179.832 179.264 178.77 178.197 177.739 177.166 180.764 180.275 
179.677 179.172 178.561 178.08 177.467 177.012 176.376 181.116 180.647 
180.035 179.553 178.912 178.425 177.753 177.277 176.575 176.129 175.43 
181.508 181.013 180.419 179.909 179.28 178.765 178.073 177.548 176.809 
176.313 175.597 175.16 174.502 181.952 181.462 180.906 180.359 179.753 
179.184 178.515 177.918 177.189 176.605 175.902 175.39 174.759 174.307 
173.711 182.344 181.908 181.371 180.859 180.248 179.689 179.019 178.413 
177.69 177.062 176.356 175.779 175.145 174.635 174.036 173.564 172.972 
182.664 182.265 181.728 181.27 180.653 180.142 179.463 178.899 178.17 
177.567 176.841 176.258 175.592 175.055 174.428 173.918 173.3 172.826 
172.245 182.661 182.215 182.207 181.673 181.572 181.663 181.124 181.143 
180.58 180.755 180.948 180.453 180.538 179.953 179.976 179.37 179.782 
180.057 179.583 179.787 179.196 179.277 178.604 178.674 178.038 178.669 
178.998 178.48 178.789 178.199 178.401 177.707 177.829 177.151 177.291 
176.697 177.457 177.823 177.296 177.624 177.05 177.315 176.679 176.869 
176.22 176.38 175.792 175.969 175.448 176.2 176.587 176.115 176.458 
175.936 176.2 175.63 175.844 175.257 175.444 174.863 175.051 174.508 
174.729 174.246 174.983 175.342 174.887 175.273 174.797 175.117 174.576 
174.824 174.248 174.467 173.878 174.087 173.505 173.739 173.218 173.505 
173.07 173.905 174.173 173.684 174.038 173.566 173.939 173.424 173.741 
173.171 173.43 172.837 173.066 172.483 172.713 172.187 172.459 172.027 
172.351 172.001 183.206 183.972 183.349 182.812 184.705 184.113 183.512 
182.834 182.145 185.184 184.75 184.135 183.489 182.701 182.035 181.269 
185.307 185.059 184.494 184.005 183.221 182.563 181.713 181.085 180.296 
185.23 185.057 184.509 184.195 183.464 182.979 182.129 181.521 180.642 
180.046 179.202 185.129 184.948 184.349 184.082 183.326 183.022 182.184 
181.776 180.843 180.318 179.349 178.83 177.93 184.96 184.815 184.18 
183.894 183.088 182.787 181.936 181.637 180.718 180.332 179.33 178.872 
177.893 177.471 176.609 184.599 184.55 183.938 183.713 182.947 182.608 
181.786 181.415 180.547 180.148 179.224 178.791 177.865 177.425 176.562 
176.169 175.4 184.06 184.089 183.529 183.427 182.77 182.515 181.784 
181.394 180.58 180.104 179.237 178.755 177.907 177.45 176.642 176.195 
175.433 175.032 174.346 183.511 184.137 183.984 184.302 184.848 184.646 
185.002 184.81 185.072 185.77 185.46 185.78 185.524 185.756 185.495 
185.563 186.706 186.406 186.644 186.327 186.448 186.133 186.109 185.799 
185.669 187.323 187.162 187.292 187.072 187.105 186.797 186.663 186.29 
186.083 185.771 185.582 187.562 187.524 187.541 187.469 187.497 187.352 
187.252 186.871 186.581 186.165 185.928 185.657 185.485 187.531 187.57 
187.511 187.52 187.558 187.606 187.67 187.462 187.22 186.72 186.347 
185.97 185.753 185.538 185.327 187.322 187.415 187.332 187.389 187.407 
187.567 187.727 187.782 187.685 187.332 186.887 186.402 186.018 185.745 
185.508 185.304 184.986 187.068 187.16 187.098 187.177 187.19 187.364 
187.499 187.703 187.678 187.605 187.205 186.84 186.338 186.002 185.657 
185.437 185.12 184.874 184.457 186.938 186.838 186.903 186.97 186.823 
186.862 186.945 186.987 187.128 186.628 186.806 186.884 186.985 187.101 
187.202 187.399 186.082 186.429 186.456 186.735 186.72 186.986 187.025 
187.337 187.412 185.374 185.752 185.704 186.06 185.912 186.293 186.162 
186.627 186.57 187.043 186.909 184.599 184.993 184.866 185.198 184.968 
185.326 185.141 185.597 185.54 186.048 185.996 186.384 186.179 183.632 
184.107 183.932 184.297 184.026 184.365 184.166 184.585 184.551 185.05 
185.082 185.52 185.448 185.719 185.534 182.547 183.044 182.886 183.299 
183.059 183.421 183.224 183.631 183.557 184.059 184.058 184.581 184.522 
184.951 184.789 185.101 184.908 181.56 181.992 181.885 182.281 182.116 
182.481 182.326 182.707 182.606 183.05 182.986 183.492 183.408 183.914 
183.764 184.211 184.014 184.399 184.194 181.052 180.401 180.941 181.341 
179.665 180.247 180.637 181.192 181.571 178.795 179.437 179.819 180.439 
180.837 181.415 181.805 177.847 178.518 178.894 179.553 179.97 180.635 
181.08 181.672 182.092 176.937 177.602 178.028 178.649 179.081 179.743 
180.245 180.917 181.404 181.986 182.436 176.12 176.764 177.284 177.883 
178.364 178.941 179.474 180.116 180.687 181.303 181.798 182.349 182.814 
175.396 175.996 176.547 177.191 177.747 178.32 178.857 179.434 180.026 
180.638 181.193 181.738 182.194 182.72 183.163 174.745 175.28 175.769 
176.436 177.016 177.683 178.224 178.824 179.349 179.975 180.521 181.128 
181.592 182.113 182.509 183.034 183.437 174.149 174.622 175.021 175.633 
176.157 176.873 177.408 178.092 178.556 179.213 179.681 180.364 180.831 
181.451 181.839 182.376 182.739 183.275 183.647 183.557 182.645 183.091 
183.035 181.712 182.154 182.075 182.509 182.347 180.638 181.131 180.99 
181.492 181.321 181.742 181.434 179.449 179.94 179.718 180.275 180.054 
180.597 180.272 180.687 180.224 178.302 178.727 178.434 178.934 178.654 
179.216 178.871 179.383 178.916 179.341 178.83 177.13 177.56 177.205 
177.654 177.32 177.82 177.455 177.944 177.488 177.948 177.465 177.923 
177.481 175.891 176.329 175.949 176.394 176.03 176.507 176.132 176.581 
176.11 176.528 176.031 176.508 176.084 176.598 176.217 174.794 175.14 
174.793 175.164 174.811 175.232 174.876 175.3 174.847 175.209 174.676 
175.081 174.626 175.153 174.794 175.344 175.007 173.931 174.176 173.855 
174.126 173.781 174.096 173.737 174.096 173.677 174.005 173.498 173.807 
173.338 173.752 173.417 173.933 173.661 174.186 173.926 179.464 179.85 
179.956 180.557 180.217 180.332 180.948 181.066 181.694 180.618 180.718 
181.366 181.481 182.145 182.239 182.849 181.015 181.139 181.823 181.951 
182.686 182.765 183.409 183.4 183.913 181.286 181.484 182.163 182.379 
183.158 183.337 184.068 184.062 184.593 184.454 184.885 181.439 181.684 
182.339 182.62 183.363 183.686 184.462 184.666 185.269 185.203 185.6 
185.421 185.783 181.55 181.817 182.488 182.765 183.465 183.783 184.498 
184.855 185.493 185.704 186.115 186.078 186.322 186.207 186.428 181.58 
181.897 182.582 182.906 183.599 183.881 184.509 184.807 185.383 185.712 
186.161 186.353 186.574 186.581 186.678 186.641 186.736 181.484 181.845 
182.476 182.896 183.556 183.936 184.504 184.795 185.271 185.56 185.992 
186.264 186.552 186.671 186.764 186.764 186.798 186.807 186.882 179.424 
180.537 179.895 179.707 181.699 181.052 180.855 180.152 179.848 182.856 
182.251 182.083 181.334 180.941 180.158 179.653 183.88 183.373 183.271 
182.585 182.197 181.301 180.686 179.822 179.225 184.807 184.344 184.288 
183.723 183.411 182.571 181.963 180.974 180.325 179.442 178.969 185.702 
185.263 185.208 184.697 184.426 183.705 183.137 182.234 181.581 180.661 
180.133 179.324 178.984 186.373 186.071 185.983 185.559 185.274 184.651 
184.096 183.303 182.646 181.827 181.255 180.48 180.031 179.344 179.038 
186.715 186.564 186.439 186.16 185.845 185.383 184.859 184.195 183.557 
182.801 182.201 181.473 180.969 180.302 179.906 179.329 179.061 186.912 
186.816 186.703 186.477 186.151 185.799 185.326 184.848 184.299 183.671 
183.091 182.377 181.839 181.16 180.729 180.142 179.833 179.33 179.115 
178.738 179.006 178.508 177.73 179.17 178.772 178.013 177.469 176.596 
179.003 178.828 178.166 177.748 176.857 176.249 175.212 178.565 178.511 
177.949 177.778 176.987 176.483 175.398 174.736 173.638 178.294 178.107 
177.575 177.472 176.831 176.517 175.57 174.956 173.891 173.236 172.411 
178.354 178.02 177.496 177.239 176.689 176.384 175.641 175.141 174.268 
173.633 172.882 172.316 171.85 178.494 178.171 177.681 177.342 176.828 
176.432 175.794 175.308 174.593 174.052 173.395 172.86 172.333 171.889 
171.477 178.582 178.305 177.842 177.543 177.038 176.664 176.046 175.573 
174.887 174.393 173.754 173.295 172.716 172.289 171.735 171.368 170.833 
178.662 178.396 177.931 177.654 177.135 176.819 176.208 175.81 175.128 
174.679 174.015 173.584 172.972 172.564 171.966 171.566 170.977 170.612 
170.059 183.161 182.83 183.247 183.75 182.469 182.91 183.433 183.855 
184.444 182.085 182.555 183.135 183.572 184.205 184.655 185.369 181.715 
182.189 182.8 183.276 183.923 184.415 185.14 185.644 186.345 181.327 
181.811 182.38 182.896 183.493 184.045 184.69 185.294 185.973 186.521 
187.042 180.849 181.349 181.843 182.39 182.923 183.51 184.055 184.683 
185.248 185.934 186.48 187.04 187.36 180.321 180.798 181.222 181.767 
182.263 182.871 183.406 184.003 184.487 185.104 185.587 186.276 186.703 
187.227 187.39 179.803 180.238 180.599 181.105 181.555 182.168 182.725 
183.355 183.88 184.417 184.859 185.412 185.856 186.458 186.787 187.195 
187.244 179.302 179.703 180.019 180.48 180.881 181.45 181.977 182.64 
183.216 183.827 184.33 184.825 185.272 185.75 186.156 186.591 186.813 
187.057 187.043 
POINT_DATA 1002
SCALARS Distance double
LOOKUP_TABLE default
180.533 181.145 180.359 179.685 179.422 179.861 178.602 178.277 178.925 
179.068 177.316 177.002 177.745 178.055 178.143 175.982 175.731 176.423 
176.819 177.014 177.161 174.665 174.476 175.07 175.471 175.676 175.889 
176.244 173.372 173.248 173.71 174.11 174.33 174.561 174.989 175.478 
172.186 172.119 172.43 172.802 173.082 173.367 173.86 174.401 174.842 
171.116 171.074 171.289 171.6 171.923 172.262 172.791 173.413 173.898 
174.266 170.081 170.044 170.232 170.475 170.784 171.157 171.671 172.301 
172.877 173.328 173.711 181.252 180.378 181.263 180.332 181.186 179.379 
180.207 181.069 179.259 178.177 180.006 180.869 179.011 177.978 176.872 
179.709 180.516 178.717 177.672 176.662 175.583 179.322 180.103 178.419 
177.427 176.423 175.384 174.285 178.918 179.735 178.046 177.175 176.255 
175.197 174.077 173.025 178.515 179.369 177.606 176.76 175.972 175.042 
173.939 172.854 171.889 178.103 178.972 177.177 176.294 175.521 174.756 
173.85 172.825 171.783 170.822 177.996 177.006 176.915 175.811 175.664 
176.026 174.394 174.105 174.779 175.127 172.768 172.579 173.322 173.861 
174.327 171.585 171.759 171.947 172.561 173.126 173.572 171.188 171.502 
171.191 171.524 172.012 172.45 172.698 170.849 171.058 170.719 170.693 
170.854 171.174 171.44 171.594 170.052 170.273 169.864 169.624 169.449 
169.535 169.797 170.075 170.403 169.133 169.515 168.783 168.377 167.989 
167.861 168.037 168.368 168.822 169.412 168.976 168.162 167.972 167.453 
167.12 167.082 166.962 166.45 166.239 166.082 166.645 166.019 165.589 
165.092 164.88 166.548 165.734 165.199 164.4 163.756 163.857 166.844 
165.716 165.009 164.158 163.2 162.86 163.294 167.421 166.156 165.154 
164.225 163.23 162.533 162.529 163.031 168.016 166.862 165.719 164.602 
163.55 162.702 162.305 162.448 162.927 168.577 167.575 166.464 165.274 
164.137 163.179 162.531 162.32 162.536 163.028 169.109 168.153 169.309 
167.188 168.316 169.551 166.15 167.333 168.571 169.923 165.176 166.482 
167.731 169.112 170.48 164.446 165.738 167.018 168.407 169.819 171.127 
163.924 164.999 166.202 167.635 169.122 170.467 171.743 163.6 164.404 
165.375 166.734 168.342 169.791 171.084 172.31 163.562 164.199 164.935 
166.031 167.567 169.141 170.5 171.74 172.838 163.655 164.251 164.55 
165.21 165.556 164.903 166.2 166.519 165.884 165.716 167.147 167.579 
166.862 166.752 166.981 168.373 168.893 167.937 167.792 168.054 168.58 
169.856 170.254 169.381 169.051 169.158 169.623 170.116 171.17 171.456 
170.838 170.532 170.487 170.758 171.158 171.484 172.278 172.571 172.006 
171.812 171.836 172.017 172.244 172.475 172.664 173.398 173.687 173.122 
172.918 172.972 173.2 173.343 173.415 173.51 173.61 163.031 163.798 
163.414 164.287 164.196 164.787 165.113 165.142 165.334 165.856 166.092 
166.102 166.251 166.537 166.981 167.172 167.221 167.369 167.62 167.859 
168.241 168.392 168.497 168.521 168.79 169.004 169.181 169.586 169.589 
169.683 169.642 169.858 170.126 170.303 170.495 170.898 170.648 170.714 
170.695 170.887 171.188 171.474 171.669 171.855 172.157 171.643 171.686 
171.706 171.92 172.246 172.598 172.892 173.074 173.189 173.372 169.464 
168.53 169.537 168.482 169.558 167.432 168.378 169.529 167.24 166.203 
168.445 169.645 167.232 166.089 165.02 168.775 169.933 167.576 166.378 
165.14 163.978 169.182 170.282 168.018 166.833 165.59 164.254 163.14 
169.616 170.69 168.439 167.198 166.01 164.795 163.563 162.676 170.14 
171.173 168.999 167.71 166.456 165.376 164.302 163.288 162.666 170.393 
170.419 171.369 171.434 172.375 170.544 172.475 173.386 171.573 170.619 
173.56 174.453 172.67 171.732 170.681 174.66 175.556 173.817 172.946 
171.929 170.859 175.737 176.573 174.916 174.138 173.217 172.144 171.124 
176.768 177.447 175.995 175.245 174.411 173.403 172.372 171.456 177.706 
178.22 177.038 176.319 175.532 174.581 173.588 172.694 171.888 178.522 