# vtk DataFile Version 4.0
vtk output
ASCII
DATASET POLYDATA
POINTS 1002 float
-106.351 -121.138 76.5604 -106.99 -122.167 76.2471 -106.537 -121.778 75.652 
-105.904 -120.599 75.9821 -106.175 -121.104 74.9922 -105.729 -119.911 77.0133 
-105.508 -119.824 75.2603 -105.834 -120.259 74.2045 -105.202 -119.277 76.4202 
-104.984 -118.692 77.6288 -105.045 -118.934 74.4112 -105.414 -119.318 73.3967 
-104.673 -118.454 75.6334 -104.251 -118.025 76.9891 -104.032 -117.477 78.2113 
-104.485 -117.925 73.6111 -104.982 -118.195 72.6897 -104.098 -117.508 74.7685 
-103.59 -117.171 76.1575 -103.14 -116.802 77.5077 -103.054 -116.166 78.5847 
-103.98 -116.785 72.9141 -104.623 -116.964 72.0506 -103.486 -116.475 73.9988 
-103.015 -116.183 75.3242 -102.444 -115.979 76.661 -102.147 -115.549 77.854 
-102.231 -114.887 78.8828 -103.516 -115.712 72.2545 -104.217 -115.849 71.4646 
-102.879 -115.488 73.286 -102.377 -115.213 74.5694 -101.822 -115.065 75.8524 
-101.354 -114.849 77.0376 -101.293 -114.331 78.2103 -101.461 -113.74 79.3061 
-102.923 -114.791 71.6237 -103.665 -114.864 70.95 -102.241 -114.631 72.566 
-101.666 -114.372 73.7736 -101.119 -114.191 75.0381 -100.595 -114.061 76.2267 
-100.38 -113.695 77.4663 -100.502 -113.131 78.7141 -100.693 -112.638 79.7802 
-102.256 -113.9 71.029 -103.077 -113.92 70.475 -101.591 -113.78 71.8737 
-101.029 -113.546 72.9546 -100.495 -113.347 74.1396 -99.9791 -113.221 75.345 
-99.6775 -112.951 76.6476 -99.7133 -112.453 78.011 -99.9005 -111.94 79.2086 
-100.104 -111.546 80.1403 -101.735 -112.997 70.5043 -102.601 -113.029 70.0505 
-101.099 -112.855 71.2647 -100.599 -112.61 72.2342 -100.111 -112.399 73.2937 
-99.6322 -112.271 74.4345 -99.3033 -112.068 75.7366 -99.2578 -111.671 77.1663 
-99.3979 -111.196 78.496 -99.5629 -110.797 79.5624 -99.779 -110.48 80.3885 
-107.431 -122.788 75.4978 -107.004 -122.305 74.835 -108.058 -123.164 74.555 
-107.713 -122.552 73.8684 -108.884 -123.343 73.5524 -106.682 -121.525 74.105 
-108.61 -122.626 72.8091 -109.792 -123.401 72.5431 -107.444 -121.692 73.0747 
-106.375 -120.602 73.2638 -109.474 -122.646 71.6575 -110.689 -123.295 71.4111 
-108.283 -121.766 71.9388 -107.103 -120.755 72.2008 -105.994 -119.563 72.4613 
-110.341 -122.471 70.5547 -111.7 -122.925 70.3921 -109.02 -121.783 70.8279 
-107.774 -120.87 71.1153 -106.628 -119.717 71.4171 -105.599 -118.334 71.7641 
-111.428 -121.898 69.8258 -112.839 -122.251 69.836 -109.911 -121.46 69.935 
-108.467 -120.815 70.1574 -107.218 -119.825 70.3987 -106.178 -118.495 70.7425 
-105.238 -117.048 71.1563 -112.56 -121.061 69.3695 -113.869 -121.411 69.4461 
-111.018 -120.779 69.261 -109.428 -120.419 69.2959 -108.028 -119.684 69.4805 
-106.87 -118.552 69.7993 -105.88 -117.169 70.2781 -104.852 -115.844 70.7083 
-113.494 -120.308 68.7883 -114.693 -120.667 68.7947 -112.009 -120.106 68.6111 
-110.39 -119.933 68.4579 -108.953 -119.366 68.5687 -107.767 -118.368 68.9518 
-106.717 -117.145 69.5271 -105.653 -115.826 70.0822 -104.41 -114.699 70.3721 
-114.273 -119.775 68.0802 -115.38 -120.12 68.0073 -112.835 -119.612 67.953 
-111.167 -119.537 67.7256 -109.671 -119.088 67.7332 -108.529 -118.128 68.1227 
-107.55 -116.969 68.7835 -106.549 -115.737 69.4927 -105.363 -114.543 69.9368 
-103.957 -113.64 70.0356 -115.347 -119.388 67.4574 -114.033 -119.155 67.4314 
-115.119 -118.537 67.0766 -113.549 -118.387 66.7968 -114.604 -117.497 66.5478 
-112.286 -119.085 67.1801 -112.88 -117.263 66.12 -113.917 -116.351 65.9558 
-111.663 -118.14 66.5211 -110.507 -118.775 67.0576 -112.214 -115.924 65.8775 
-113.226 -115.093 65.9983 -111.187 -116.725 66.2057 -110.066 -117.43 66.7541 
-109.169 -117.881 67.372 -111.572 -114.361 66.3244 -112.517 -113.543 66.5656 
-110.745 -115.148 66.4566 -109.834 -115.809 66.8416 -108.857 -116.323 67.3291 
-108.147 -116.677 68.0169 -110.9 -112.48 66.755 -111.789 -111.894 66.9491 
-110.057 -113.28 66.8281 -109.307 -114.074 67.0524 -108.457 -114.698 67.3605 
-107.703 -115.119 67.9769 -107.155 -115.43 68.8117 -110.314 -110.774 67.0423 
-111.139 -110.573 67.3604 -109.343 -111.275 66.9773 -108.475 -112.088 67.1338 
-107.739 -112.94 67.4114 -107.087 -113.538 67.9407 -106.57 -113.879 68.7457 
-106.028 -114.179 69.471 -109.832 -109.625 67.7649 -110.567 -109.571 68.185 
-108.875 -109.786 67.4535 -107.88 -110.288 67.4023 -107.072 -111.117 67.6524 
-106.433 -111.914 68.1275 -105.864 -112.42 68.7367 -105.273 -112.762 69.3037 
-104.599 -113.162 69.7067 -109.335 -108.735 68.775 -110.026 -108.596 69.0868 
-108.485 -108.822 68.4109 -107.548 -109.022 68.1432 -106.683 -109.524 68.1749 
-105.927 -110.25 68.4861 -105.186 -110.927 68.8695 -104.432 -111.456 69.1824 
-103.704 -111.95 69.4222 -103.062 -112.487 69.6836 -101.666 -112.09 69.9236 
-102.049 -111.434 69.5085 -100.986 -110.828 69.9935 -102.641 -110.699 69.2413 
-101.237 -109.952 69.4812 -100.527 -109.139 70.1872 -103.465 -109.919 69.0827 
-101.708 -108.917 69.0768 -100.662 -108.031 69.5469 -100.039 -107.283 70.3351 
-104.466 -109.151 68.967 -102.574 -107.887 68.9107 -101.08 -106.867 69.0618 
-100.218 -106.113 69.7117 -99.535 -105.474 70.469 -105.461 -108.494 68.8664 
-103.76 -107.12 69.0346 -102.014 -105.906 69.029 -100.782 -105.04 69.4027 
-99.9046 -104.244 69.9963 -99.2876 -103.562 70.7121 -106.375 -108.077 68.8776 
-104.94 -106.723 69.2708 -103.326 -105.315 69.3477 -101.883 -104.183 69.5035 
-100.692 -103.132 69.8109 -99.8058 -102.248 70.294 -99.3437 -101.757 71.1259 
-107.281 -107.902 69.0971 -105.966 -106.579 69.4962 -104.633 -105.014 69.6151 
-103.339 -103.565 69.6713 -102.006 -102.236 69.7621 -100.777 -101.191 70.0496 
-99.9918 -100.724 70.7524 -99.62 -100.589 71.8019 -108.187 -107.787 69.3964 
-106.93 -106.483 69.715 -105.761 -104.855 69.7786 -104.737 -103.206 69.7658 
-103.609 -101.698 69.738 -102.293 -100.536 69.9144 -101.167 -100.052 70.5682 
-100.488 -100.027 71.5855 -100.113 -99.9678 72.6839 -109.026 -107.594 69.6094 
-107.885 -106.327 69.8813 -106.78 -104.771 69.9659 -105.864 -103.129 69.9993 
-104.997 -101.618 69.9668 -103.938 -100.406 70.0436 -102.78 -99.7574 70.5845 
-101.809 -99.6264 71.5365 -101.146 -99.5766 72.5613 -100.73 -99.4028 73.5169 
-100.96 -111.895 70.5624 -100.49 -110.406 70.8014 -100.469 -111.572 71.4714 
-100.033 -108.628 71.0302 -100.003 -109.982 71.7374 -99.9867 -111.274 72.4786 
-99.4238 -106.809 71.1545 -99.4397 -108.24 71.9461 -99.461 -109.697 72.7579 
-99.4932 -111.095 73.5771 -99.0334 -104.925 71.3732 -98.9971 -106.417 72.2058 
-99.0559 -107.917 73.1082 -99.0875 -109.446 74.0056 -99.1397 -110.901 74.8826 
-99.0255 -102.934 71.8158 -98.9432 -104.43 72.6946 -98.9975 -105.994 73.6265 
-98.9804 -107.538 74.5649 -98.9504 -109.125 75.4991 -99.0405 -110.57 76.3909 
-99.1599 -101.274 72.4543 -98.9602 -102.429 73.3507 -99.0316 -103.972 74.3174 
-99.0719 -105.586 75.2454 -98.9538 -107.197 76.1745 -98.958 -108.797 77.0854 
-99.1337 -110.165 77.8823 -99.4575 -100.249 73.2498 -98.9754 -100.874 74.0662 
-98.8755 -102.086 75.0379 -99.0349 -103.684 75.993 -99.0111 -105.318 76.9069 
-98.8965 -106.943 77.7879 -99.0083 -108.5 78.5515 -99.2586 -109.798 79.139 
-100.03 -99.6008 74.0665 -99.3482 -99.9501 74.8026 -98.9152 -100.744 75.7075 
-98.9388 -102.057 76.6563 -99.0562 -103.596 77.5754 -98.9312 -105.147 78.4599 
-98.8775 -106.732 79.2189 -99.0993 -108.245 79.7633 -99.4226 -109.5 80.1266 
-100.957 -98.8784 74.5868 -100.311 -99.2747 75.345 -101.293 -98.5962 75.8367 
-100.755 -99.2765 76.7634 -101.671 -98.6435 77.3136 -99.6149 -99.8593 76.2301 
-101.135 -99.3646 78.2204 -101.991 -98.6564 78.7942 -100.077 -100.028 77.6992 
-99.2044 -100.811 77.1724 -101.367 -99.3035 79.6449 -102.343 -98.7234 80.1487 
-100.445 -100.087 79.1433 -99.661 -100.994 78.5964 -99.2035 -102.13 78.0979 
-101.696 -99.5389 81.1131 -102.805 -99.179 81.517 -100.761 -100.182 80.6534 
-100.066 -101.152 80.0294 -99.5296 -102.289 79.4616 -99.1333 -103.611 79.0241 
-102.176 -100.101 82.4961 -103.311 -99.7012 82.8275 -101.226 -100.677 82.1244 
-100.543 -101.544 81.5274 -99.937 -102.619 80.8156 -99.3381 -103.792 80.3389 
-98.951 -105.188 79.8858 -102.76 -100.589 83.547 -103.906 -100.175 83.8141 
-101.762 -101.245 83.258 -101.083 -102.091 82.84 -100.522 -103.092 82.1421 
-99.8773 -104.164 81.5149 -99.3244 -105.396 81.0752 -99.0817 -106.835 80.4945 
-103.521 -101.213 84.2848 -104.625 -100.945 84.4481 -102.44 -101.791 84.0765 
-101.64 -102.587 83.8368 -101.108 -103.51 83.3058 -100.616 -104.524 82.5727 
-100.111 -105.668 81.9983 -99.7049 -106.991 81.478 -99.479 -108.338 80.8178 
-104.358 -102.135 84.8689 -105.33 -101.938 84.9244 -103.321 -102.581 84.7464 
-102.414 -103.245 84.6219 -101.75 -104.03 84.28 -101.285 -104.907 83.5647 
-100.937 -105.923 82.7916 -100.596 -107.112 82.196 -100.212 -108.383 81.6247 
-99.9031 -109.54 80.9984 -101.602 -98.7856 73.6457 -101.734 -98.1277 74.6434 
-102.579 -98.0799 73.7159 -102.618 -97.5 74.7166 -103.759 -97.7134 73.9201 
-101.969 -97.8933 76.0286 -104.013 -97.403 75.0666 -105.191 -97.8534 74.4505 
-102.9 -97.4337 76.4141 -102.352 -97.9718 77.8035 -105.856 -97.6206 75.6973 
-106.647 -98.1548 75.1075 -104.598 -97.3465 76.9986 -103.468 -97.4751 78.4758 
-102.866 -98.0219 79.4155 -107.445 -97.7939 76.2735 -107.881 -98.4913 75.5827 
-106.572 -97.378 77.4817 -105.222 -97.2871 78.9544 -104.143 -97.6524 79.9777 
-103.467 -98.3758 80.6856 -108.564 -98.1663 76.6679 -108.961 -99.0554 75.9276 
-107.989 -97.6255 77.7656 -106.911 -97.5275 79.0671 -105.683 -97.8112 80.1151 
-104.778 -98.3683 80.9886 -104.04 -99.0257 81.9655 -109.596 -98.8811 77.0114 
-109.956 -99.8069 76.3148 -109.055 -98.2713 78.0092 -108.185 -98.1891 79.1634 
-107.124 -98.4653 80.1114 -106.171 -98.8026 80.9896 -105.346 -99.1368 82.1228 
-104.58 -99.5652 83.1925 -110.575 -99.7241 77.3667 -110.75 -100.614 76.7423 
-110.173 -99.067 78.2313 -109.427 -98.8998 79.3269 -108.506 -99.1133 80.3328 
-107.627 -99.346 81.1543 -106.751 -99.5073 82.1273 -105.896 -99.7745 83.2289 
-105.192 -100.258 84.0376 -111.295 -100.599 77.7054 -111.326 -101.443 77.1136 
-111.141 -99.8707 78.4284 -110.652 -99.5098 79.4033 -109.889 -99.5259 80.5265 
[...]
CELL_DATA 2000
SCALARS Distance double
LOOKUP_TABLE default
177.824 176.95 177.215 176.826 175.904 176.246 175.842 176.158 175.783 
174.709 175.105 174.667 175.063 174.657 175.062 174.689 173.405 173.827 
173.348 173.793 173.357 173.825 173.424 173.883 173.468 172.069 172.477 
171.973 172.423 171.982 172.471 172.075 172.559 172.162 172.612 172.213 
170.786 171.152 170.642 171.055 170.617 171.094 170.716 171.207 170.833 
171.304 170.941 171.401 171.086 169.55 169.893 169.375 169.758 169.303 
169.749 169.361 169.851 169.484 169.975 169.626 170.122 169.827 170.331 
170.08 168.329 168.654 168.121 168.499 168.028 168.449 168.039 168.505 
168.144 168.632 168.31 168.814 168.553 169.07 168.855 169.362 169.157 
167.193 167.455 166.927 167.267 166.815 167.198 166.796 167.217 166.87 
167.33 167.046 167.538 167.325 167.837 167.677 168.178 168.025 168.498 
168.34 178.263 178.565 178.099 177.395 178.778 178.341 177.63 177.149 
176.362 178.96 178.527 177.796 177.335 176.539 176.047 175.193 179.054 
178.666 177.906 177.469 176.656 176.187 175.326 174.825 173.919 179.043 
178.69 177.927 177.531 176.709 176.27 175.398 174.923 174.01 173.507 
172.585 179.043 178.67 177.909 177.52 176.706 176.292 175.422 174.966 
174.052 173.57 172.647 172.165 171.283 179.019 178.668 177.882 177.496 
176.678 176.278 175.428 174.986 174.098 173.619 172.727 172.238 171.365 
170.891 170.051 178.872 178.585 177.794 177.442 176.617 176.239 175.401 
174.99 174.138 173.687 172.849 172.368 171.541 171.027 170.183 169.681 
168.855 178.677 178.418 177.681 177.345 176.546 176.17 175.339 174.948 
174.109 173.711 172.907 172.496 171.724 171.25 170.443 169.89 169.046 
168.513 167.724 178.363 177.567 177.788 177.365 176.52 176.876 176.407 
176.675 176.192 175.158 175.636 175.147 175.561 175.037 175.4 174.922 
173.791 174.211 173.74 174.198 173.718 174.143 173.668 174.085 173.664 
172.521 172.892 172.43 172.856 172.447 172.85 172.412 172.805 172.398 
172.839 172.481 171.13 171.542 170.989 171.505 171.051 171.566 171.098 
171.54 171.086 171.55 171.19 171.68 171.333 169.829 170.112 169.453 
169.918 169.362 169.98 169.488 170.092 169.622 170.174 169.779 170.332 
169.974 170.485 170.068 168.968 169.021 168.374 168.522 167.941 168.316 
167.886 168.441 168.103 168.68 168.348 168.896 168.529 169.054 168.617 
169.119 168.649 168.369 168.37 167.79 167.74 167.169 167.222 166.793 
167.083 166.806 167.272 166.998 167.497 167.122 167.606 167.147 167.633 
167.168 167.682 167.291 166.46 166.231 165.915 165.164 166.136 165.685 
164.742 164.537 163.811 166.117 165.589 164.448 164.052 163.097 163.06 
162.346 166.092 165.586 164.378 163.768 162.598 162.324 161.49 161.548 
160.888 166.057 165.616 164.552 163.819 162.606 161.995 161.07 160.839 
160.158 160.148 159.547 166.192 165.732 164.906 164.167 163.095 162.267 
161.303 160.718 159.954 159.625 158.949 158.881 158.396 166.643 166.094 
165.416 164.687 163.761 162.907 161.947 161.17 160.291 159.66 158.867 
158.484 157.963 157.942 157.775 167.261 166.685 166.029 165.308 164.426 
163.607 162.664 161.857 160.952 160.163 159.334 158.67 158.149 157.824 
157.746 157.718 157.875 167.806 167.278 166.604 165.93 165.065 164.281 
163.381 162.583 161.763 160.939 160.219 159.404 158.943 158.353 158.299 
158.017 158.212 158.098 158.312 166.419 165.193 165.903 166.149 163.946 
164.702 164.974 165.711 166.037 162.562 163.412 163.715 164.521 164.855 
165.633 166.01 161.087 161.962 162.285 163.188 163.56 164.421 164.836 
165.646 166.085 159.717 160.516 160.868 161.76 162.217 163.114 163.614 
164.474 164.993 165.793 166.294 158.607 159.261 159.673 160.479 161.041 
161.885 162.48 163.312 163.916 164.736 165.335 166.092 166.632 157.973 
158.351 158.75 159.417 160.02 160.837 161.5 162.299 162.94 163.725 
164.382 165.171 165.802 166.506 167.039 157.958 157.999 158.271 158.644 
159.155 159.864 160.554 161.374 162.06 162.827 163.48 164.25 164.914 
165.677 166.276 166.933 167.419 158.313 158.183 158.346 158.393 158.767 
159.155 159.803 160.493 161.248 161.995 162.675 163.392 164.034 164.786 
165.42 166.147 166.694 167.309 167.757 158.557 159.061 158.727 158.647 
159.91 159.443 159.415 158.953 159.026 160.872 160.414 160.427 159.896 
159.958 159.551 159.939 161.754 161.319 161.346 160.912 161.004 160.582 
160.904 160.668 161.288 162.831 162.25 162.301 161.831 162.005 161.611 
161.932 161.647 162.156 162.032 162.673 164.114 163.462 163.54 162.96 
163.201 162.715 163.076 162.687 163.14 162.894 163.457 163.359 164.004 
165.32 164.727 164.791 164.256 164.495 164.02 164.376 163.918 164.325 
163.937 164.439 164.204 164.824 164.72 165.385 166.519 165.911 165.978 
165.452 165.677 165.255 165.595 165.19 165.555 165.148 165.58 165.26 
165.817 165.615 166.232 166.106 166.689 167.809 167.182 167.293 166.697 
166.94 166.446 166.799 166.369 166.731 166.322 166.705 166.371 166.85 
166.616 167.153 166.97 167.479 167.324 167.779 158.655 158.823 158.778 
159.015 159.179 158.943 159.135 159.253 159.766 160.143 159.558 159.706 
159.52 160.047 160.175 160.777 161.579 160.851 161.017 160.457 160.894 
160.67 161.263 161.241 161.771 162.936 162.338 162.536 161.943 162.254 
161.766 162.209 161.93 162.469 162.333 162.897 164.127 163.597 163.787 
163.324 163.595 163.118 163.434 163.013 163.463 163.199 163.777 163.612 
164.198 165.376 164.799 164.986 164.504 164.817 164.371 164.723 164.262 
164.665 164.288 164.807 164.561 165.121 164.924 165.433 166.64 166.084 
166.28 165.759 166.087 165.627 166.041 165.582 166.01 165.553 166.006 
165.637 166.139 165.869 166.377 166.138 166.633 167.773 167.304 167.502 
167.034 167.324 166.899 167.288 166.891 167.32 166.897 167.309 166.875 
167.294 166.928 167.398 167.118 167.624 167.378 167.89 167.871 167.454 
167.334 166.594 167.05 166.851 166.033 165.896 165.041 166.856 166.524 
165.686 165.393 164.513 164.297 163.422 166.815 166.424 165.602 165.195 
164.33 163.941 163.057 162.754 161.894 166.817 166.418 165.612 165.186 
164.353 163.904 163.054 162.597 161.73 161.331 160.48 166.9 166.471 
165.705 165.245 164.448 163.982 163.194 162.715 161.935 161.407 160.625 
160.097 159.376 167.104 166.642 165.937 165.429 164.668 164.148 163.384 
162.896 162.17 161.687 160.993 160.457 159.824 159.27 158.784 167.398 
166.922 166.255 165.731 164.999 164.444 163.697 163.158 162.426 161.926 
161.207 160.757 160.113 159.716 159.238 158.86 158.57 167.744 167.267 
166.632 166.095 165.396 164.824 164.131 163.559 162.893 162.299 161.582 
160.99 160.278 159.852 159.337 159.12 158.844 158.672 158.528 168.522 
169.48 168.746 168.215 170.592 169.788 169.272 168.434 167.872 171.766 
170.959 170.453 169.571 169.017 168.157 167.666 172.872 172.123 171.644 
170.782 170.226 169.344 168.846 168.028 167.608 173.907 173.202 172.768 
171.959 171.432 170.562 170.06 169.226 168.797 167.996 167.602 174.891 
174.225 173.828 173.075 172.6 171.766 171.282 170.447 170.017 169.201 
168.795 167.997 167.641 175.794 175.185 174.813 174.122 173.688 172.919 
172.455 171.652 171.219 170.419 170.016 169.208 168.838 168.069 167.79 
176.626 176.063 175.726 175.085 174.681 173.975 173.534 172.783 172.351 
171.59 171.201 170.427 170.071 169.289 168.992 168.261 168.051 177.405 
176.882 176.571 175.977 175.605 174.95 174.547 173.837 173.428 172.693 
172.32 171.588 171.258 170.515 170.218 169.476 169.235 168.54 168.364 
177.731 177.9 177.517 176.88 178.056 177.65 176.992 176.605 175.925 
178.278 177.824 177.149 176.724 176.032 175.619 174.897 178.511 178.059 
177.364 176.908 176.198 175.747 174.995 174.557 173.799 178.71 178.274 
177.576 177.117 176.377 175.914 175.128 174.661 173.861 173.437 172.692 
178.951 178.485 177.782 177.309 176.543 176.07 175.252 174.773 173.94 
173.495 172.72 172.342 171.639 179.205 178.739 178.001 177.51 176.723 
176.229 175.402 174.898 174.05 173.571 172.775 172.368 171.648 171.297 
170.619 179.3 178.926 178.17 177.711 176.91 176.413 175.592 175.074 
174.244 173.724 172.92 172.45 171.712 171.316 170.634 170.288 169.644 
179.149 178.907 178.191 177.828 177.05 176.592 175.782 175.279 174.474 
173.956 173.171 172.655 171.903 171.431 170.733 170.332 169.693 169.351 
168.766 178.759 177.849 178.18 177.854 176.839 177.217 176.895 177.201 
176.761 175.768 176.15 175.809 176.177 175.744 176.022 175.502 174.686 
175.045 174.661 175.044 174.614 174.946 174.442 174.72 174.195 173.502 
173.897 173.457 173.863 173.421 173.789 173.301 173.622 173.112 173.407 
172.901 172.177 172.607 172.131 172.586 172.137 172.566 172.082 172.449 
171.932 172.274 171.763 172.095 171.613 170.892 171.264 170.772 171.208 
170.761 171.234 170.778 171.196 170.68 171.049 170.529 170.901 170.427 
170.807 170.4 169.748 170.046 169.53 169.883 169.413 169.855 169.432 
169.882 169.423 169.803 169.312 169.669 169.22 169.606 169.231 169.644 
169.338 168.671 168.943 168.409 168.697 168.193 168.556 168.128 168.562 
168.163 168.575 168.143 168.5 168.074 168.437 168.077 168.485 168.201 
168.64 168.41 179.105 179.305 178.874 178.197 179.597 179.126 178.446 
177.947 177.222 179.971 179.523 178.897 178.293 177.518 176.946 176.183 
180.227 179.916 179.365 178.795 177.972 177.3 176.442 175.897 175.124 
180.228 180.078 179.55 179.148 178.272 177.667 176.688 176.135 175.263 
174.797 173.964 179.954 179.932 179.387 179.155 178.259 177.779 176.718 
176.232 175.267 174.851 173.947 173.526 172.634 179.43 179.491 178.932 
178.85 178.02 177.662 176.626 176.163 175.16 174.75 173.814 173.427 
172.519 172.147 171.317 178.824 178.864 178.29 178.297 177.579 177.383 
176.479 176.081 175.111 174.654 173.706 173.276 172.379 172.009 171.203 
170.884 170.16 178.326 178.275 177.686 177.661 177.018 176.928 176.175 
175.922 175.055 174.643 173.722 173.242 172.354 171.921 171.131 170.783 
170.069 169.765 169.081 179.75 180.872 180.193 179.978 182.108 181.415 
181.181 180.423 180.221 183.285 182.735 182.6 181.74 181.414 180.653 
180.478 184.096 183.846 183.915 183.22 182.888 181.943 181.536 180.831 
180.635 184.443 184.434 184.59 184.321 184.119 183.382 182.858 181.956 
181.484 180.868 180.61 184.613 184.616 184.698 184.682 184.537 184.244 
183.768 183.119 182.486 181.753 181.249 180.723 180.363 184.838 184.767 
184.799 184.728 184.562 184.388 183.956 183.629 183.038 182.544 181.937 
181.375 180.853 180.366 179.897 185.08 184.994 185.017 184.894 184.744 
184.484 184.074 183.719 183.203 182.849 182.346 181.928 181.406 180.893 
180.363 179.854 179.347 185.271 185.197 185.168 185.075 184.925 184.717 
184.366 183.983 183.512 183.087 182.663 182.275 181.865 181.414 180.927 
180.389 179.872 179.34 178.867 185.365 185.311 185.299 185.177 184.994 
185.079 184.879 184.988 184.83 184.485 184.626 184.362 184.531 184.34 
184.53 184.273 183.851 184.048 183.744 183.918 183.685 183.939 183.726 
183.87 183.492 183.031 183.337 182.992 183.202 182.877 183.186 182.988 
183.273 182.991 183.064 182.66 182.011 182.419 182.074 182.341 181.944 
182.269 182.031 182.441 182.238 182.502 182.156 182.24 181.833 180.909 
181.351 181.06 181.377 181.014 181.314 181.061 181.454 181.271 181.646 
181.35 181.596 181.174 181.327 180.871 179.821 180.251 179.994 180.361 
180.068 180.405 180.176 180.533 180.323 180.669 180.355 180.661 180.246 
180.513 180.059 180.265 179.804 178.78 179.179 178.919 179.304 179.044 
179.44 179.233 179.633 179.399 179.732 179.369 179.646 179.216 179.51 
179.105 179.387 178.988 179.199 178.794 178.13 177.15 177.845 178.236 
176.167 176.865 177.283 177.96 178.383 175.13 175.887 176.331 177.029 
177.478 178.156 178.61 173.907 174.764 175.207 176.017 176.443 177.206 
177.632 178.358 178.748 172.628 173.466 173.885 174.77 175.189 176.052 
176.436 177.253 177.592 178.36 178.648 171.516 172.246 172.658 173.459 
173.91 174.756 175.194 176.011 176.378 177.142 177.452 178.19 178.481 
170.527 171.208 171.621 172.341 172.803 173.571 174.059 174.836 175.282 
176.006 176.385 177.067 177.418 178.094 178.423 169.575 170.227 170.617 
171.331 171.77 172.522 172.987 173.757 174.206 174.954 175.357 176.063 
176.43 177.103 177.438 178.082 178.365 168.72 169.296 169.645 170.315 
170.721 171.462 171.893 172.667 173.086 173.856 174.24 174.994 175.35 
176.081 176.404 177.089 177.36 177.992 178.211 177.92 177.045 177.386 
177.203 176.065 176.436 176.19 176.616 176.456 174.989 175.381 175.089 
175.527 175.307 175.81 175.618 173.864 174.257 173.928 174.368 174.098 
174.598 174.356 174.872 174.563 172.699 173.093 172.714 173.157 172.835 
173.336 173.042 173.561 173.218 173.703 173.275 171.497 171.884 171.441 
171.877 171.479 171.994 171.656 172.204 171.854 172.349 171.931 172.371 
171.931 170.334 170.679 170.206 170.581 170.108 170.57 170.162 170.733 
170.38 170.953 170.562 171.044 170.619 171.065 170.699 169.285 169.569 
169.111 169.403 168.909 169.239 168.761 169.222 168.825 169.412 169.033 
169.61 169.186 169.713 169.325 169.865 169.583 168.38 168.596 168.15 
168.381 167.893 168.129 167.623 167.925 167.486 167.926 167.554 168.075 
167.682 168.216 167.827 168.409 168.118 168.753 168.555 179.319 179.576 
179.763 180.394 179.738 180.007 180.665 180.865 181.541 179.75 180.094 
180.766 181.068 181.78 182.053 182.836 179.759 180.092 180.798 181.128 
181.875 182.226 183.043 183.38 184.117 179.777 180.129 180.865 181.199 
181.965 182.311 183.099 183.48 184.175 184.474 184.862 179.647 180.076 
180.782 181.219 181.952 182.363 183.073 183.464 184.088 184.418 184.815 
184.96 185.058 179.421 179.857 180.509 181.005 181.698 182.208 182.871 
183.326 183.904 184.276 184.725 184.935 185.173 185.152 185.205 179.187 
179.607 180.219 180.685 181.349 181.865 182.53 183.025 183.596 184.021 
184.476 184.808 185.125 185.281 185.42 185.366 185.383 178.86 179.318 
179.88 180.361 180.959 181.481 182.091 182.624 183.156 183.633 184.022 
184.441 184.706 185.058 185.205 185.412 185.433 185.459 185.403 179.372 
180.433 179.854 179.747 181.617 180.979 180.886 180.232 180.015 182.966 
182.258 182.156 181.421 181.189 180.437 180.023 184.265 183.658 183.522 
182.727 182.385 181.581 181.1 180.294 179.692 184.948 184.708 184.584 
184.005 183.582 182.756 182.156 181.303 180.627 179.821 179.167 185.007 
184.995 184.895 184.724 184.397 183.834 183.242 182.389 181.683 180.774 
180.084 179.282 178.728 185.054 184.949 184.837 184.794 184.614 184.388 
183.952 183.369 182.715 181.883 181.191 180.302 179.709 178.937 178.518 
185.244 185.076 184.956 184.821 184.706 184.542 184.234 183.869 183.287 
182.716 182.03 181.338 180.709 179.97 179.47 178.791 178.428 185.324 
185.242 185.137 185.019 184.934 184.756 184.521 184.163 183.635 183.123 
182.448 181.925 181.301 180.776 180.24 179.674 179.219 178.654 178.274 
178.795 179.122 178.653 178.001 179.27 178.864 178.135 177.742 176.952 
179.164 178.833 177.984 177.693 176.884 176.536 175.626 178.851 178.595 
177.702 177.422 176.632 176.386 175.615 175.203 174.315 178.451 178.266 
177.491 177.183 176.45 176.179 175.555 175.238 174.496 173.985 173.089 
178.102 177.941 177.34 177.075 176.42 176.103 175.484 175.207 174.54 
174.147 173.27 172.722 171.743 177.917 177.71 177.19 176.981 176.396 
176.1 175.422 175.124 174.416 174.108 173.284 172.837 171.891 171.344 
170.448 177.842 177.603 177.067 176.86 176.296 176.041 175.365 175.044 
174.312 173.983 173.227 172.834 172.012 171.515 170.708 170.188 169.516 
177.722 177.515 176.942 176.733 176.147 175.917 175.27 174.974 174.276 
173.936 173.237 172.857 172.136 171.683 170.947 170.468 169.806 169.373 
168.824 179.781 180 180.239 180.887 179.9 180.322 181.001 181.327 
182.005 179.592 180.075 180.702 181.206 181.857 182.33 182.984 179.347 
179.763 180.357 180.812 181.434 181.974 182.629 183.165 183.716 179.191 
179.591 180.242 180.592 181.259 181.645 182.366 182.81 183.446 183.817 
184.206 178.958 179.419 180.102 180.525 181.225 181.609 182.375 182.747 
183.473 183.729 184.202 184.309 184.543 178.699 179.147 179.781 180.275 
180.909 181.435 182.133 182.689 183.422 183.835 184.362 184.474 184.716 
184.679 184.82 178.508 178.901 179.489 179.922 180.487 180.98 181.576 
182.202 182.891 183.556 184.154 184.548 184.837 184.894 184.992 184.956 
185.06 178.29 178.685 179.234 179.646 180.198 180.607 181.173 181.649 
182.299 182.915 183.575 184.15 184.568 184.861 184.992 185.066 185.125 
185.156 185.25 
POINT_DATA 1002
SCALARS Distance double
LOOKUP_TABLE default
177.456 178.403 177.615 176.576 176.661 176.45 175.505 175.549 175.45 
175.453 174.262 174.317 174.238 174.287 174.33 172.903 172.998 172.882 
172.954 173.035 173.041 171.531 171.679 171.487 171.581 171.693 171.763 
171.837 170.247 170.434 170.15 170.218 170.351 170.458 170.607 170.816 
169 169.218 168.88 168.881 168.986 169.117 169.305 169.573 169.855 
167.744 168.025 167.619 167.588 167.652 167.795 168.022 168.335 168.661 
168.958 166.599 166.957 166.439 166.389 166.415 166.547 166.799 167.158 
167.541 167.876 168.186 178.773 177.91 179.013 178.103 179.22 176.879 
178.261 179.402 177.026 175.715 178.336 179.426 177.122 175.822 174.445 
178.311 179.396 177.138 175.868 174.506 173.081 178.307 179.43 177.112 
175.872 174.527 173.125 171.739 178.27 179.359 177.072 175.854 174.562 
173.206 171.854 170.504 178.128 179.133 176.986 175.795 174.558 173.296 
172.048 170.726 169.322 177.995 178.907 176.922 175.731 174.492 173.28 
172.147 170.98 169.625 168.193 178.19 177.181 177.333 176.118 176.111 
175.925 174.683 174.684 174.644 174.545 173.271 173.42 173.271 173.242 
173.221 171.99 172.156 172.032 172.041 171.957 172.019 170.484 170.754 
170.496 170.63 170.628 170.678 170.876 169.102 169.634 168.776 168.816 
169.022 169.219 169.445 169.602 168.331 168.942 167.692 167.359 167.488 
167.802 168.027 168.118 168.132 167.842 168.328 167.201 166.619 166.406 
166.529 166.666 166.675 166.651 166.723 165.702 165.322 164.469 165.084 
163.821 163.144 165.011 163.253 162.219 161.679 165.083 163.042 161.503 
160.751 160.239 165.24 163.337 161.444 160.268 159.46 158.948 165.555 
163.927 162.024 160.447 159.152 158.239 158.005 166.113 164.583 162.775 
161.046 159.388 158.068 157.586 157.738 166.745 165.232 163.466 161.753 
160.061 158.56 157.824 157.832 158.057 167.252 165.818 164.149 162.532 
161.006 159.595 158.679 158.399 158.409 158.475 165.411 164.229 165.284 
162.866 164.054 165.23 161.346 162.647 163.984 165.297 159.969 161.292 
162.716 164.147 165.539 158.872 160.183 161.653 163.078 164.528 165.944 
158.182 159.204 160.681 162.174 163.577 165.047 166.42 158.083 158.554 
159.713 161.276 162.737 164.131 165.569 166.842 158.412 158.548 159.204 
160.496 161.98 163.315 164.663 166.033 167.212 158.789 158.984 159.415 
159.935 160.385 159.331 160.926 161.308 160.426 160.121 161.726 162.231 
161.389 161.202 161.392 162.797 163.47 162.384 162.247 162.35 162.73 
164.124 164.753 163.703 163.52 163.467 163.606 164.038 165.307 165.902 
164.946 164.84 164.771 164.742 164.973 165.464 166.525 167.13 166.105 
165.983 165.964 165.934 166.068 166.412 166.824 167.893 168.405 167.464 
167.253 167.162 167.069 167.114 167.371 167.677 167.939 158.704 158.846 
158.926 159.061 159.556 159.503 160.063 160.813 160 160.641 161.682 
162.246 161.314 161.375 161.778 163.091 163.474 162.84 162.617 162.641 
162.992 164.229 164.679 164.045 163.904 163.786 163.967 164.375 165.492 
165.96 165.24 165.169 165.099 165.113 165.343 165.647 166.802 167.161 
166.549 166.476 166.483 166.45 166.459 166.619 166.867 167.952 168.206 
167.753 167.674 167.717 167.762 167.719 167.708 167.87 168.137 168.036 
166.716 167.613 166.227 167.312 165.157 166.036 167.223 164.797 163.587 
166.018 167.207 164.755 163.441 162.147 166.032 167.214 164.788 163.518 
162.205 160.842 166.169 167.32 164.918 163.642 162.423 161.179 159.857 
166.44 167.554 165.204 163.886 162.627 161.464 160.34 159.279 166.776 
167.867 165.551 164.244 162.963 161.69 160.469 159.533 158.907 169.205 
168.999 170.24 170.128 171.411 168.693 171.342 172.55 169.894 168.467 
172.482 173.589 171.113 169.676 168.397 173.54 174.595 172.287 170.9 
169.609 168.387 174.545 175.537 173.402 172.115 170.835 169.609 168.392 
175.477 176.373 174.422 173.243 172.01 170.815 169.626 168.498 176.344 
177.164 175.361 174.265 173.099 171.947 170.843 169.747 168.733 177.142 