# vtk DataFile Version 4.0
vtk output
ASCII
DATASET POLYDATA
POINTS 1002 float
-103.963 -121.008 78.8968 -104.687 -121.853 78.6471 -104.556 -121.333 77.931 
-103.809 -120.359 78.1092 -104.402 -120.607 77.2331 -103.453 -119.761 79.147 
-103.704 -119.364 77.3686 -104.347 -119.613 76.5961 -103.386 -118.734 78.3645 
-103.27 -117.738 79.509 -103.71 -118.112 76.6873 -104.41 -118.549 75.9623 
-103.358 -117.422 77.6596 -103.15 -116.515 78.806 -102.878 -115.738 80.0082 
-103.698 -116.895 75.9903 -104.49 -117.435 75.3406 -103.209 -116.178 76.9134 
-102.846 -115.407 78.0685 -102.36 -114.881 79.2908 -101.864 -114.578 80.5382 
-103.623 -115.588 75.4346 -104.606 -115.98 74.9843 -102.81 -115.131 76.1053 
-102.211 -114.629 77.1487 -101.601 -114.222 78.3666 -101.071 -113.947 79.6798 
-100.722 -113.576 80.9762 -103.589 -114.089 75.1733 -104.711 -114.441 74.8639 
-102.42 -113.921 75.5028 -101.53 -113.812 76.2474 -100.836 -113.554 77.3496 
-100.368 -113.169 78.6412 -100.145 -112.719 80.0145 -100.027 -112.189 81.2701 
-103.483 -112.884 74.8491 -104.635 -113.336 74.5727 -102.174 -112.672 75.0294 
-101.161 -112.641 75.5557 -100.48 -112.473 76.5199 -100.038 -112.076 77.6998 
-99.855 -111.638 79.0032 -99.7969 -111.204 80.3146 -99.7682 -110.757 81.4967 
-103.249 -112.087 74.241 -104.412 -112.533 74.0753 -101.957 -111.743 74.369 
-100.979 -111.479 74.8515 -100.433 -111.126 75.7988 -100.076 -110.658 76.9105 
-99.8417 -110.274 78.0699 -99.7402 -109.99 79.3299 -99.707 -109.661 80.5962 
-99.7161 -109.297 81.7552 -103.056 -111.267 73.6636 -104.2 -111.647 73.6809 
-101.841 -110.897 73.6842 -100.902 -110.466 74.1032 -100.417 -109.9 75.031 
-100.147 -109.282 76.1227 -99.9036 -108.828 77.1736 -99.7491 -108.553 78.3301 
-99.7001 -108.282 79.6182 -99.6974 -107.964 80.8842 -99.7079 -107.686 82.0185 
-105.304 -122.542 77.8879 -105.232 -121.897 77.1975 -105.826 -123.455 77.0424 
-105.885 -122.661 76.3882 -106.469 -124.212 76.2227 -105.178 -121.02 76.5726 
-106.673 -123.282 75.5891 -107.51 -124.461 75.5491 -105.968 -121.631 75.8005 
-105.209 -120.013 75.9723 -107.732 -123.479 74.8885 -108.681 -124.479 74.8761 
-106.743 -122.22 74.928 -105.975 -120.635 75.1146 -105.246 -119.065 75.2689 
-108.847 -123.507 74.1739 -109.631 -124.591 73.9929 -107.71 -122.476 74.1464 
-106.611 -121.233 74.0973 -105.858 -119.643 74.2729 -105.273 -117.863 74.6178 
-109.868 -123.492 73.3936 -110.574 -124.554 73.1194 -108.921 -122.418 73.5247 
-107.64 -121.425 73.3666 -106.488 -120.053 73.3085 -105.802 -118.208 73.6775 
-105.378 -116.227 74.3421 -110.93 -123.209 72.7735 -111.699 -124.15 72.5762 
-110.106 -122.13 72.9623 -109.007 -121.225 72.9133 -107.686 -120.168 72.7978 
-106.546 -118.503 72.9595 -105.911 -116.538 73.5172 -105.465 -114.748 74.2193 
-112.057 -122.671 72.3935 -112.801 -123.536 72.2647 -111.152 -121.679 72.458 
-110.083 -120.863 72.3551 -108.943 -120.085 72.3191 -107.771 -118.777 72.5207 
-106.76 -116.964 72.8829 -106.088 -115.187 73.4134 -105.426 -113.705 73.9315 
-113.094 -122.103 72.0602 -113.703 -122.917 71.9174 -112.163 -121.211 72.0413 
-110.9 -120.494 71.7332 -109.695 -119.895 71.5276 -108.773 -118.926 71.8125 
-107.91 -117.387 72.3208 -107.038 -115.661 72.7819 -106.227 -114.09 73.2698 
-105.31 -112.75 73.6458 -114.156 -121.857 71.5284 -113.421 -120.991 71.654 
-114.439 -120.799 71.0452 -113.452 -120.022 71.0516 -114.409 -119.75 70.556 
-112.123 -120.248 71.3437 -113.207 -118.998 70.4587 -114.101 -118.505 70.2109 
-111.868 -119.373 70.5139 -110.524 -119.672 70.7907 -112.79 -117.55 70.1345 
-113.589 -116.953 70.1935 -111.631 -118.127 69.9831 -110.243 -118.589 70.0596 
-109.366 -118.868 70.7898 -112.259 -115.785 70.2277 -112.978 -115.366 70.5878 
-111.383 -116.356 69.9043 -110.193 -116.977 69.8686 -109.277 -117.401 70.4506 
-108.721 -117.522 71.4746 -111.783 -114.187 70.7369 -112.517 -113.975 71.2332 
-111.048 -114.488 70.2046 -110.1 -115.059 70.0367 -109.24 -115.636 70.532 
-108.714 -115.878 71.4401 -108.021 -115.834 72.2379 -111.534 -112.851 71.476 
-112.3 -112.639 71.903 -110.779 -112.923 70.8866 -109.945 -113.171 70.4931 
-109.102 -113.701 70.8045 -108.518 -114.088 71.6715 -107.942 -114.149 72.4329 
-107.082 -114.119 72.8709 -111.422 -111.494 72.199 -112.128 -111.233 72.525 
-110.629 -111.588 71.7836 -109.824 -111.584 71.3603 -109.007 -111.784 71.3369 
-108.27 -112.126 71.9341 -107.603 -112.295 72.709 -106.825 -112.37 73.1592 
-105.992 -112.547 73.3689 -111.26 -110.027 72.8037 -111.843 -109.869 73.1183 
-110.495 -110.196 72.5615 -109.666 -110.238 72.3451 -108.866 -110.218 72.1884 
-108.072 -110.307 72.2936 -107.239 -110.451 72.7386 -106.368 -110.578 73.2256 
-105.525 -110.823 73.4671 -104.796 -111.235 73.5465 -103.355 -110.303 73.3923 
-104.005 -109.687 73.3781 -102.613 -108.718 73.1078 -104.804 -109.2 73.2644 
-103.309 -108.072 73.02 -102.088 -106.923 72.8938 -105.781 -108.913 72.9776 
-104.228 -107.58 72.8372 -102.901 -106.283 72.6853 -101.76 -104.908 72.7317 
-106.811 -108.753 72.7879 -105.306 -107.19 72.7997 -103.993 -105.675 72.687 
-102.81 -104.154 72.582 -101.674 -102.833 72.6742 -107.747 -108.724 72.8845 
-106.34 -106.99 73.0958 -105.065 -105.186 73.032 -104.04 -103.513 72.8742 
-102.927 -102.079 72.6983 -101.903 -101.116 72.9471 -108.654 -108.771 73.0326 
-107.38 -107.007 73.4043 -106.102 -105.034 73.4031 -105.101 -103.238 73.2983 
-104.168 -101.752 73.1081 -103.166 -100.589 73.0949 -102.367 -99.9467 73.6139 
-109.605 -108.716 73.0759 -108.516 -107.01 73.4748 -107.346 -105.111 73.5695 
-106.273 -103.31 73.5427 -105.305 -101.843 73.5378 -104.375 -100.587 73.5538 
-103.566 -99.6121 73.826 -102.922 -99.1115 74.4375 -110.479 -108.58 73.1839 
-109.536 -106.968 73.55 -108.525 -105.268 73.7736 -107.549 -103.578 73.8509 
-106.572 -102.078 73.9467 -105.599 -100.813 74.1056 -104.772 -99.7171 74.3371 
-104.095 -98.8872 74.7221 -103.447 -98.4126 75.2553 -111.139 -108.545 73.4778 
-110.292 -107.07 73.8358 -109.356 -105.559 74.1637 -108.483 -104.03 74.3802 
-107.68 -102.481 74.4977 -106.806 -101.081 74.6521 -105.951 -99.9718 74.9151 
-105.251 -99.0859 75.2558 -104.593 -98.3608 75.6404 -103.882 -97.8494 76.0912 
-102.171 -109.884 73.2533 -101.577 -108.066 73.1263 -101.149 -109.373 73.4538 
-101.176 -105.949 73.1691 -100.823 -107.293 73.6458 -100.531 -108.708 74.235 
-100.874 -103.81 73.1357 -100.582 -105.052 73.8429 -100.386 -106.556 74.5451 
-100.205 -107.999 75.3027 -100.892 -101.938 73.2608 -100.413 -103.025 73.9215 
-100.233 -104.438 74.7047 -100.019 -106.019 75.5008 -99.9114 -107.453 76.3369 
-101.306 -100.552 73.8513 -100.527 -101.35 74.332 -100.106 -102.434 74.9974 
-99.8332 -103.987 75.8145 -99.691 -105.602 76.6615 -99.7111 -107.069 77.5002 
-101.885 -99.5804 74.6607 -100.895 -100.141 75.0824 -100.113 -100.729 75.645 
-99.6791 -101.903 76.4482 -99.5902 -103.592 77.3483 -99.6555 -105.168 78.1298 
-99.6972 -106.694 78.8753 -102.435 -98.7518 75.4173 -101.396 -99.2723 75.8265 
-100.403 -99.6376 76.3876 -99.7379 -100.298 77.1547 -99.6302 -101.757 78.0868 
-99.7858 -103.388 78.9036 -99.8129 -104.798 79.5834 -99.7357 -106.339 80.2623 
-102.906 -97.9829 76.1885 -101.943 -98.4782 76.5627 -100.999 -98.9677 77.1418 
-100.221 -99.4405 77.8535 -99.9313 -100.492 78.6811 -100.025 -102.041 79.4892 
-100.018 -103.387 80.1947 -99.8342 -104.617 80.8806 -99.713 -106.112 81.5224 
-103.665 -97.3356 77.0612 -102.703 -97.5783 77.3608 -103.526 -96.9964 78.3527 
-102.696 -97.4154 78.9368 -103.589 -96.9808 79.916 -101.865 -98.2119 77.9536 
-102.866 -97.511 80.6543 -103.782 -97.1376 81.5089 -102.019 -98.205 79.6914 
-101.085 -98.8746 78.6805 -103.055 -97.6894 82.1452 -104.006 -97.3855 82.9229 
-102.155 -98.343 81.3503 -101.311 -99.0325 80.4168 -100.533 -99.6774 79.4224 
-103.299 -98.1117 83.4414 -104.25 -97.9729 84.1988 -102.254 -98.6085 82.7201 
-101.308 -99.1996 82.0422 -100.742 -99.9767 81.1186 -100.359 -100.997 80.1617 
-103.571 -98.834 84.8055 -104.448 -98.7493 85.4841 -102.586 -99.2263 84.0273 
-101.424 -99.5981 83.4709 -100.63 -100.143 82.8512 -100.34 -101.258 81.846 
-100.193 -102.431 80.8857 -103.715 -99.4235 86.2202 -104.598 -99.3771 86.6927 
-102.946 -99.8733 85.4163 -101.978 -100.372 84.6811 -100.935 -100.708 84.2333 
-100.222 -101.465 83.5587 -99.9235 -102.624 82.5357 -99.8656 -103.623 81.6193 
-103.852 -99.9377 87.3704 -104.819 -100.051 87.5887 -103.12 -100.291 86.7343 
-102.484 -101.042 85.7889 -101.716 -101.67 85.0785 -100.8 -102.19 84.6431 
-100.014 -103.003 83.9992 -99.6696 -103.958 83.1402 -99.6703 -104.941 82.3095 
-104.173 -100.78 88.0836 -105.149 -100.974 88.1688 -103.359 -100.917 87.7138 
-102.764 -101.588 86.8749 -102.277 -102.49 85.8918 -101.634 -103.176 85.2599 
-100.738 -103.756 84.8643 -99.9791 -104.504 84.3345 -99.6913 -105.433 83.6271 
-99.6899 -106.52 82.8321 -104.779 -97.7686 76.7426 -104.659 -97.1994 77.7819 
-105.762 -97.9142 77.5185 -105.902 -97.2341 78.5529 -106.745 -98.0605 78.244 
-104.659 -96.8499 79.069 -107.18 -97.2614 79.2114 -107.702 -98.2778 78.813 
-106.176 -96.7941 79.7676 -104.813 -96.8601 80.6035 -108.23 -97.6367 79.7532 
-108.754 -98.7695 79.2379 -107.63 -96.8373 80.4206 -106.417 -96.7983 81.2986 
-105.003 -97.0558 82.2206 -109.218 -98.4619 80.2884 -109.96 -99.3255 79.6392 
-108.627 -97.4887 81.0937 -107.833 -96.9965 82.0122 -106.537 -97.1534 82.9148 
-105.197 -97.4869 83.6511 -110.376 -99.1793 80.876 -111.054 -99.8817 80.1369 
-109.582 -98.466 81.7696 -108.811 -97.8039 82.6977 -107.88 -97.6176 83.5376 
-106.656 -97.8745 84.2552 -105.414 -98.2733 84.8946 -111.375 -99.8557 81.4485 
-111.781 -100.727 80.6781 -110.769 -99.1503 82.3491 -109.897 -98.6787 83.2599 
-108.913 -98.4751 84.0697 -107.921 -98.5165 84.7679 -106.796 -98.7472 85.4304 
-105.609 -99.0607 86.0915 -112.002 -100.846 81.919 -112.327 -101.718 81.1503 
-111.701 -99.9279 82.7918 -111.114 -99.3434 83.6916 -110.065 -99.2631 84.5257 
-108.924 -99.3234 85.2466 -107.939 -99.345 85.9023 -106.91 -99.5012 86.5305 
-105.799 -99.767 87.1108 -112.585 -101.834 82.3013 -112.977 -102.461 81.5472 
-112.262 -101.03 83.1413 -111.905 -100.285 84.0325 -111.163 -100.005 84.9133 
[...]
CELL_DATA 2000
SCALARS Distance double
LOOKUP_TABLE default
177.321 176.483 176.732 176.34 175.504 175.788 175.331 175.634 175.147 
174.475 174.724 174.191 174.514 173.979 174.309 173.788 173.453 173.646 
173.014 173.31 172.739 173.084 172.567 172.941 172.524 172.386 172.555 
171.816 172.082 171.452 171.813 171.277 171.686 171.259 171.723 171.374 
171.315 171.434 170.613 170.826 170.133 170.493 169.936 170.36 169.899 
170.389 170.025 170.546 170.205 170.34 170.382 169.503 169.615 168.864 
169.169 168.613 169.02 168.559 169.014 168.651 169.172 168.889 169.399 
169.131 169.432 169.433 168.509 168.537 167.723 167.938 167.362 167.732 
167.282 167.702 167.328 167.822 167.559 168.104 167.895 168.41 168.211 
168.538 168.523 167.583 167.568 166.716 166.843 166.225 166.529 166.07 
166.453 166.053 166.508 166.203 166.759 166.541 167.131 166.931 167.495 
167.299 177.784 178.294 177.69 176.978 178.853 178.22 177.47 176.833 
176.053 179.389 178.774 178.026 177.355 176.56 175.896 175.097 179.859 
179.285 178.534 177.89 177.081 176.423 175.622 174.961 174.145 180.229 
179.717 178.966 178.356 177.51 176.88 176.026 175.427 174.59 173.971 
173.109 180.485 180.04 179.338 178.775 177.947 177.292 176.38 175.744 
174.837 174.283 173.427 172.873 172.032 180.681 180.269 179.601 179.115 
178.361 177.756 176.896 176.176 175.237 174.535 173.656 173.103 172.339 
171.822 171.063 180.85 180.46 179.773 179.327 178.567 178.087 177.3 
176.715 175.857 175.1 174.202 173.46 172.689 172.12 171.451 170.912 
170.187 180.941 180.607 179.922 179.478 178.661 178.196 177.37 176.954 
176.176 175.664 174.847 174.142 173.331 172.62 171.927 171.326 170.662 
170.063 169.323 180.748 180.08 180.223 179.731 179.248 179.46 178.891 
179.018 178.393 178.201 178.511 177.886 178.054 177.329 177.541 176.983 
176.91 177.316 176.68 176.94 176.175 176.396 175.799 176.174 175.782 
175.543 175.922 175.284 175.636 174.926 175.204 174.612 174.986 174.621 
175.042 174.618 174.42 174.625 173.97 174.25 173.607 173.931 173.404 
173.807 173.466 173.905 173.54 173.83 173.249 173.619 173.685 173.039 
173.119 172.473 172.682 172.179 172.577 172.254 172.739 172.402 172.762 
172.234 172.43 171.819 172.907 172.982 172.382 172.373 171.718 171.738 
171.176 171.408 171.025 171.472 171.115 171.558 171.038 171.352 170.729 
170.999 170.443 172.123 172.25 171.684 171.74 171.116 171.103 170.49 
170.542 170.025 170.277 169.812 170.204 169.652 170.043 169.398 169.77 
169.158 169.561 169.04 168.066 168.125 167.553 166.491 168.305 167.643 
166.522 165.942 164.876 168.577 167.873 166.723 166.033 164.924 164.346 
163.301 168.897 168.213 167.114 166.328 165.216 164.502 163.435 162.811 
161.817 169.318 168.654 167.692 166.837 165.743 164.909 163.872 163.112 
162.128 161.457 160.68 169.872 169.217 168.39 167.53 166.473 165.542 
164.518 163.682 162.782 161.989 161.225 160.588 160.163 170.465 169.835 
169.064 168.275 167.301 166.359 165.368 164.457 163.641 162.802 162.135 
161.352 160.889 160.337 160.185 171 170.405 169.657 168.946 168.09 
167.234 166.364 165.439 164.699 163.811 163.235 162.397 161.966 161.241 
161.01 160.506 160.455 171.475 170.918 170.233 169.567 168.833 168.067 
167.35 166.503 165.851 164.972 164.418 163.568 163.149 162.385 162.133 
161.483 161.37 160.846 160.803 167.733 166.14 166.87 166.734 164.533 
165.248 165.143 165.899 165.895 162.943 163.646 163.578 164.36 164.451 
165.23 165.433 161.422 162.059 162.013 162.828 163.004 163.845 164.122 
164.931 165.264 160.307 160.689 160.656 161.343 161.582 162.428 162.773 
163.626 163.998 164.827 165.233 159.876 159.928 159.9 160.245 160.452 
161.103 161.479 162.303 162.744 163.585 164.058 164.877 165.392 159.949 
159.815 159.772 159.804 159.87 160.173 160.443 161.098 161.605 162.425 
163.004 163.795 164.378 165.156 165.748 160.181 159.996 159.922 159.832 
159.803 159.809 159.927 160.259 160.761 161.452 162.176 162.908 163.564 
164.243 164.849 165.576 166.169 160.451 160.22 160.119 160.006 160.02 
159.908 160.02 160.034 160.481 160.876 161.673 162.283 163.042 163.593 
164.18 164.758 165.329 166.014 166.58 160.564 160.737 160.459 160.245 
161.33 160.848 160.677 160.352 160.241 162.264 161.668 161.545 161.036 
160.951 160.481 160.373 163.253 162.661 162.533 162.014 161.956 161.403 
161.349 160.79 160.883 164.319 163.668 163.51 162.968 162.891 162.397 
162.397 161.902 162.065 161.606 162.001 165.544 164.832 164.705 164.035 
163.949 163.347 163.344 162.887 163.075 162.749 163.103 162.814 163.247 
166.705 166.063 165.963 165.317 165.275 164.577 164.572 163.942 164.091 
163.681 163.993 163.742 164.098 163.892 164.275 167.727 167.14 167.024 
166.489 166.485 165.917 165.97 165.323 165.446 164.845 165.089 164.647 
164.981 164.683 165.078 164.877 165.354 168.766 168.157 168.05 167.504 
167.525 167.041 167.167 166.665 166.835 166.264 166.457 165.883 166.144 
165.683 166.062 165.755 166.246 166.047 166.588 161.009 161.95 161.312 
161.146 163.066 162.372 162.172 161.583 161.656 164.149 163.512 163.383 
162.736 162.761 162.269 162.539 165.27 164.627 164.586 163.979 164.062 
163.49 163.693 163.234 163.551 166.56 165.87 165.888 165.248 165.403 
164.824 165.06 164.5 164.766 164.277 164.63 167.908 167.253 167.343 
166.668 166.842 166.217 166.482 165.903 166.194 165.616 165.93 165.432 
165.833 169.185 168.607 168.755 168.145 168.329 167.7 167.935 167.34 
167.631 167.063 167.37 166.813 167.135 166.652 167.005 170.389 169.863 
170.026 169.496 169.702 169.144 169.369 168.789 169.033 168.47 168.738 
168.205 168.48 167.967 168.243 167.764 168.052 171.51 171.039 171.206 
170.72 170.93 170.442 170.686 170.171 170.402 169.845 170.05 169.506 
169.732 169.238 169.495 169.013 169.279 168.796 169.081 171.54 171.341 
171.075 170.325 171.201 170.897 170.098 169.793 168.968 171.013 170.729 
169.911 169.584 168.723 168.412 167.56 170.854 170.529 169.707 169.372 
168.502 168.18 167.315 167.006 166.144 170.873 170.455 169.645 169.221 
168.367 167.982 167.12 166.774 165.912 165.59 164.743 170.982 170.548 
169.753 169.269 168.448 167.969 167.141 166.677 165.834 165.414 164.608 
164.259 163.515 171.069 170.66 169.885 169.413 168.615 168.134 167.351 
166.837 166.035 165.497 164.741 164.272 163.613 163.205 162.587 171.218 
170.786 170.071 169.58 168.821 168.329 167.582 167.086 166.329 165.794 
165.068 164.554 163.93 163.459 162.879 162.416 161.848 171.496 171.03 
170.394 169.867 169.184 168.63 167.931 167.376 166.659 166.108 165.409 
164.904 164.287 163.827 163.243 162.767 162.168 161.712 161.191 172.219 
173.17 172.475 172.062 174.212 173.48 173.086 172.363 171.946 175.331 
174.58 174.185 173.422 172.986 172.233 171.772 176.42 175.698 175.313 
174.551 174.095 173.293 172.809 172.042 171.608 177.473 176.759 176.384 
175.66 175.232 174.429 173.939 173.121 172.692 171.946 171.611 178.515 
177.819 177.448 176.727 176.338 175.567 175.118 174.293 173.852 173.068 
172.717 172.005 171.702 179.432 178.836 178.512 177.82 177.445 176.684 
176.266 175.472 175.043 174.247 173.85 173.103 172.761 172.072 171.762 
180.222 179.711 179.467 178.864 178.519 177.793 177.362 176.596 176.177 
175.418 175.016 174.243 173.858 173.123 172.8 172.128 171.868 180.998 
180.507 180.303 179.774 179.474 178.822 178.395 177.66 177.232 176.514 
176.141 175.402 175.024 174.253 173.912 173.194 172.947 172.292 172.11 
181.366 181.64 181.23 180.658 181.884 181.464 180.853 180.456 179.802 
182.188 181.711 181.044 180.605 179.884 179.477 178.722 182.385 181.963 
181.234 180.791 180.035 179.566 178.777 178.339 177.584 182.317 181.997 
181.234 180.893 180.132 179.717 178.912 178.441 177.649 177.23 176.505 
182.248 181.893 181.15 180.811 180.068 179.73 178.933 178.53 177.69 
177.28 176.485 176.129 175.387 182.215 181.901 181.187 180.79 180.057 
179.674 178.914 178.51 177.688 177.271 176.463 176.087 175.335 174.991 
174.287 181.844 181.761 181.051 180.791 180.033 179.696 178.95 178.551 
177.774 177.315 176.54 176.105 175.395 175 174.333 173.964 173.341 
181.152 181.214 180.541 180.461 179.702 179.536 178.797 178.549 177.804 
177.429 176.658 176.229 175.513 175.113 174.46 174.075 173.451 173.087 
172.51 180.616 179.734 180.089 179.951 178.866 179.147 178.84 179.289 
179.12 177.809 178.171 177.781 178.169 177.937 178.44 178.283 176.511 
176.999 176.662 177.081 176.8 177.268 177.078 177.591 177.36 175.164 
175.693 175.431 175.912 175.63 176.098 175.825 176.338 176.074 176.584 
176.257 173.845 174.383 174.121 174.641 174.353 174.861 174.553 175.048 
174.74 175.253 174.962 175.457 175.141 172.496 173.048 172.743 173.278 
172.95 173.506 173.214 173.753 173.465 173.955 173.674 174.167 173.908 
174.388 174.106 171.134 171.673 171.358 171.876 171.533 172.071 171.796 
172.383 172.161 172.704 172.446 172.925 172.656 173.146 172.893 173.374 
173.104 169.844 170.334 170.054 170.539 170.245 170.721 170.464 171 
170.812 171.386 171.181 171.699 171.434 171.912 171.651 172.143 171.907 
172.388 172.158 180.733 180.806 180.522 180.05 181.115 180.757 180.364 
179.94 179.343 181.373 181.063 180.573 180.232 179.577 179.112 178.272 
181.201 181.07 180.377 180.19 179.392 179.12 178.177 177.795 176.843 
180.624 180.63 179.855 179.733 178.838 178.684 177.726 177.491 176.506 
176.241 175.381 179.943 179.982 179.287 179.154 178.277 178.084 177.162 
176.959 176.014 175.797 174.912 174.761 174.007 179.284 179.329 178.698 
178.616 177.802 177.595 176.698 176.458 175.538 175.298 174.398 174.23 
173.437 173.365 172.651 178.637 178.666 178.028 178.015 177.259 177.128 
176.268 176.044 175.146 174.88 173.997 173.755 172.947 172.797 172.07 
171.997 171.303 178.046 178.021 177.38 177.358 176.67 176.584 175.807 
175.621 174.778 174.526 173.696 173.432 172.655 172.412 171.679 171.487 
170.781 170.67 170.012 181.28 182.146 181.48 181.217 183.382 182.482 
182.126 181.528 181.475 184.832 183.892 183.468 182.602 182.418 181.889 
181.839 185.833 185.235 184.785 183.958 183.55 182.875 182.626 182.119 
181.784 186.124 185.892 185.497 184.987 184.459 183.849 183.334 182.786 
182.257 181.762 181.173 186.271 186.058 185.769 185.439 185.017 184.546 
184.006 183.404 182.739 182.14 181.471 180.999 180.411 186.659 186.339 
186.082 185.724 185.395 185.018 184.617 184.076 183.475 182.74 182.039 
181.369 180.777 180.291 179.777 187.049 186.755 186.424 186.071 185.663 
185.345 184.933 184.583 184.059 183.493 182.823 182.103 181.464 180.808 
180.274 179.729 179.207 187.195 186.99 186.561 186.288 185.778 185.506 
184.986 184.731 184.174 183.854 183.23 182.765 182.122 181.541 180.938 
180.328 179.759 179.182 178.637 187.046 186.383 186.616 186.335 185.611 
185.87 185.611 185.843 185.559 184.827 185.111 184.883 185.124 184.847 
185.049 184.748 183.919 184.283 184.058 184.374 184.077 184.308 183.936 
184.174 183.855 182.901 183.304 183.059 183.447 183.157 183.47 183.081 
183.316 182.937 183.239 182.934 181.838 182.262 181.996 182.389 182.097 
182.477 182.144 182.435 182.061 182.329 182.009 182.313 181.966 180.652 
181.14 180.853 181.285 180.958 181.377 181.046 181.433 181.064 181.4 
181.023 181.365 180.999 181.296 180.85 179.402 179.896 179.62 180.09 
179.781 180.217 179.883 180.293 179.913 180.297 179.881 180.271 179.863 
180.249 179.821 180.124 179.643 178.272 178.694 178.463 178.895 178.66 
179.076 178.805 179.175 178.834 179.163 178.775 179.11 178.732 179.095 
178.723 179.062 178.652 178.93 178.501 177.624 176.687 177.382 177.799 
175.538 176.372 176.832 177.564 177.993 174.196 175.108 175.607 176.497 
176.973 177.738 178.134 172.948 173.773 174.242 175.163 175.673 176.593 
177.036 177.812 178.143 171.823 172.595 173.002 173.824 174.275 175.203 
175.693 176.606 177.007 177.768 178.072 170.643 171.433 171.814 172.611 
172.989 173.833 174.282 175.214 175.706 176.586 176.985 177.71 178.036 
169.544 170.251 170.636 171.409 171.809 172.594 173.001 173.846 174.329 
175.257 175.755 176.604 176.992 177.699 178.023 168.636 169.249 169.636 
170.315 170.764 171.485 171.925 172.656 173.092 173.92 174.421 175.328 
175.796 176.612 176.956 177.66 177.949 167.754 168.376 168.751 169.398 
169.83 170.517 170.967 171.653 172.071 172.778 173.228 174.043 174.544 
175.391 175.812 176.562 176.869 177.553 177.826 177.549 176.578 176.985 
176.84 175.514 175.971 175.788 176.25 176.102 174.255 174.803 174.599 
175.126 174.919 175.432 175.223 172.941 173.466 173.221 173.806 173.548 
174.134 173.862 174.437 174.178 171.756 172.177 171.84 172.358 172.037 
172.642 172.347 172.982 172.733 173.353 173.122 170.632 171.004 170.577 
170.993 170.601 171.127 170.828 171.444 171.233 171.888 171.715 172.329 
172.127 169.488 169.84 169.368 169.734 169.307 169.759 169.463 170.006 
169.799 170.41 170.236 170.886 170.695 171.321 171.117 168.375 168.68 
168.174 168.511 168.061 168.492 168.198 168.717 168.508 169.047 168.825 
169.403 169.174 169.815 169.609 170.283 170.14 167.331 167.578 167.033 
167.325 166.845 167.244 166.923 167.446 167.241 167.785 167.573 168.074 
167.84 168.362 168.174 168.779 168.676 169.362 169.345 181.516 181.48 
181.812 182.45 181.319 181.727 182.421 182.812 183.556 181.12 181.541 
182.218 182.689 183.434 183.91 184.645 180.887 181.333 181.982 182.445 
183.118 183.635 184.302 184.836 185.439 180.516 181.032 181.67 182.173 
182.814 183.295 183.905 184.394 184.992 185.504 186.054 180.029 180.581 
181.189 181.76 182.414 182.965 183.61 184.069 184.686 185.12 185.761 
186.183 186.728 179.506 180.068 180.666 181.234 181.876 182.485 183.168 
183.743 184.379 184.863 185.457 185.921 186.488 186.873 187.267 178.945 
179.525 180.141 180.721 181.35 181.937 182.575 183.198 183.801 184.407 
184.905 185.47 185.889 186.443 186.794 187.233 187.427 178.384 178.942 
179.538 180.158 180.778 181.391 181.963 182.561 183.074 183.693 184.133 
184.739 185.069 185.653 185.912 186.499 186.71 187.2 187.303 181.65 
182.611 182.107 182.093 183.778 183.195 183.205 182.607 182.584 184.975 
184.463 184.507 183.833 183.801 183.151 183.041 185.877 185.605 185.754 
185.168 185.099 184.406 184.243 183.528 183.186 186.461 186.349 186.591 
186.269 186.235 185.65 185.408 184.693 184.297 183.506 182.991 186.971 
186.833 186.982 186.852 186.856 186.561 186.331 185.762 185.321 184.571 
184.031 183.242 182.73 187.407 187.256 187.204 187.067 186.986 186.904 
186.75 186.472 186.081 185.5 184.954 184.235 183.691 182.974 182.491 
187.596 187.541 187.394 187.208 187.01 186.924 186.817 186.725 186.465 
186.1 185.59 185.025 184.463 183.848 183.323 182.683 182.199 187.534 
187.6 187.484 187.334 187.092 186.955 186.845 186.794 186.661 186.425 
185.992 185.521 184.935 184.441 183.903 183.401 182.901 182.34 181.889 
181.171 181.547 181.082 180.516 181.951 181.428 180.79 180.342 179.694 
182.302 181.78 181.009 180.542 179.815 179.414 178.658 182.35 181.953 
181.07 180.65 179.833 179.466 178.699 178.294 177.431 182.161 181.839 
180.959 180.587 179.776 179.443 178.733 178.357 177.57 177.05 176.149 
182.003 181.685 180.937 180.533 179.81 179.425 178.799 178.44 177.767 
177.272 176.448 175.846 175.034 181.83 181.586 180.958 180.627 179.987 
179.574 178.933 178.543 177.891 177.473 176.705 176.174 175.369 174.831 
174.151 181.562 181.385 180.782 180.6 179.996 179.713 179.022 178.655 
177.923 177.549 176.79 176.364 175.571 175.106 174.385 173.967 173.36 
181.305 181.118 180.526 180.366 179.784 179.595 178.922 178.631 177.879 
177.537 176.793 176.42 175.68 175.257 174.541 174.133 173.494 173.139 
172.559 181.584 182.366 182.168 182.53 182.831 182.899 183.396 183.225 
183.741 182.96 183.228 183.866 183.966 184.569 184.516 185.097 183.102 
183.39 184.125 184.334 184.975 185.111 185.649 185.688 186.021 183.141 
183.536 184.294 184.595 185.228 185.4 185.839 185.951 186.195 186.225 
186.269 182.826 183.357 184.015 184.556 185.177 185.547 185.962 186.081 
186.26 186.26 186.34 186.318 186.385 182.436 182.901 183.435 184.018 
184.607 185.224 185.763 186.13 186.399 186.409 186.498 186.427 186.589 
186.568 186.774 182.179 182.555 183.062 183.477 184.029 184.576 185.216 
185.785 186.28 186.527 186.689 186.649 186.757 186.766 187.01 187.038 
187.217 181.912 182.316 182.854 183.225 183.775 184.164 184.786 185.292 
185.909 186.329 186.647 186.76 186.825 186.861 187.018 187.157 187.382 
187.413 187.45 
POINT_DATA 1002
SCALARS Distance double
LOOKUP_TABLE default
176.978 177.866 177.121 176.098 176.231 175.945 175.035 175.246 174.862 
174.638 173.892 174.288 173.648 173.431 173.3 172.76 173.314 172.393 
172.179 172.096 172.179 171.594 172.253 171.097 170.869 170.787 170.896 
171.051 170.459 171.238 169.789 169.515 169.427 169.486 169.695 169.87 
169.453 170.332 168.6 168.205 168.121 168.133 168.339 168.636 168.89 
168.516 169.449 167.561 167.01 166.873 166.856 166.999 167.343 167.709 
168.036 167.604 168.563 166.628 165.959 165.708 165.634 165.674 165.941 
166.345 166.744 167.122 178.366 177.584 178.933 178.144 179.483 176.684 
178.698 179.988 177.239 175.76 179.171 180.42 177.735 176.273 174.837 
179.564 180.705 178.164 176.634 175.173 173.763 179.853 180.898 178.599 
177.082 175.427 173.916 172.609 180.058 181.091 178.896 177.59 176.02 
174.266 172.79 171.623 180.234 181.229 179.03 177.778 176.536 175.017 
173.328 171.952 170.783 180.362 181.234 179.174 177.783 176.55 175.443 
174.084 172.585 171.248 169.958 180.651 179.659 179.932 178.792 179.022 
178.224 177.72 177.864 177.148 176.618 176.366 176.504 175.955 175.424 
175.357 174.899 175.227 174.589 174.236 174.179 174.329 173.751 174.284 
173.264 172.971 173.011 173.213 173.082 173.023 173.553 172.345 171.815 
171.756 172 171.997 171.627 172.374 172.797 171.753 171.06 170.66 
170.666 170.684 170.438 170.126 171.584 171.992 171.097 170.502 169.912 
169.51 169.266 169.011 168.749 168.601 167.035 167.026 165.415 167.156 
165.386 163.828 167.456 165.56 163.827 162.251 167.92 165.97 164.122 
162.359 160.845 168.536 166.625 164.64 162.86 161.171 160.028 169.208 
167.432 165.367 163.551 161.94 160.569 159.896 169.8 168.191 166.284 
164.456 162.918 161.549 160.552 160.112 170.322 168.853 167.231 165.581 
164.063 162.726 161.625 160.858 160.399 170.851 169.529 168.121 166.7 
165.275 163.918 162.806 161.97 161.284 160.728 165.972 164.36 165.1 
162.755 163.624 164.635 161.176 162.112 163.282 164.455 160.052 160.745 
161.895 163.147 164.396 159.71 159.943 160.674 161.874 163.217 164.567 
159.845 159.765 159.907 160.754 162.194 163.608 164.965 160.036 159.891 
159.759 160.122 161.414 162.927 164.163 165.425 160.23 160.097 160.079 
160.226 161.098 162.511 163.693 164.69 165.878 160.738 160.413 161.065 
161.072 161.857 160.551 162.08 162.86 161.49 160.818 163.047 163.856 
162.478 161.906 161.328 164.104 165.001 163.385 162.814 162.477 162.396 
165.395 166.238 164.622 163.846 163.376 163.378 163.54 166.559 167.322 
165.939 165.268 164.606 164.293 164.314 164.447 167.542 168.32 166.973 
166.548 166.097 165.638 165.339 165.294 165.498 168.61 169.37 168 
167.606 167.352 167.06 166.677 166.42 166.476 166.767 161.563 161.638 
162.652 162.83 163.719 162.05 163.99 164.74 163.333 162.904 165.154 
165.918 164.618 164.239 163.942 166.54 167.224 165.973 165.62 165.325 
165.035 167.998 168.503 167.494 167.061 166.767 166.493 166.263 169.322 
169.734 168.947 168.55 168.196 167.932 167.686 167.458 170.538 170.899 
170.223 169.938 169.623 169.284 168.999 168.759 168.515 171.682 171.951 
171.402 171.167 170.955 170.631 170.239 169.96 169.769 169.555 171.777 
170.597 171.652 170.444 171.509 169.256 170.238 171.296 169.054 167.862 
170.057 171.211 168.828 167.626 166.458 170.099 171.312 168.781 167.495 
166.242 165.038 170.235 171.402 168.929 167.636 166.297 164.966 163.824 
170.345 171.464 169.079 167.841 166.58 165.232 164.029 162.988 170.551 
171.641 169.318 168.069 166.838 165.572 164.404 163.361 162.291 172.89 
172.761 173.862 173.822 174.956 172.679 174.967 176.075 173.77 172.513 
176.057 177.132 174.92 173.599 172.32 177.091 178.2 176.008 174.773 
173.449 172.311 178.17 179.179 177.088 175.924 174.663 173.449 172.396 
179.165 179.956 178.207 177.045 175.835 174.635 173.469 172.422 180.016 
180.699 179.224 178.131 176.913 175.786 174.629 173.481 172.5 180.812 
181.487 180.086 179.116 177.942 176.847 175.793 174.654 173.605 172.738 