# vtk DataFile Version 4.0
vtk output
ASCII
DATASET POLYDATA
POINTS 1002 float
-105.377 -124.519 72.9662 -105.99 -125.467 72.5783 -105.862 -124.818 71.8179 
-105.211 -123.75 72.2063 -105.795 -123.892 71.1772 -104.64 -123.487 73.334 
-104.989 -122.809 71.5197 -105.645 -122.862 70.6837 -104.285 -122.726 72.5862 
-103.739 -122.358 73.7399 -104.649 -121.801 70.9407 -105.331 -121.897 70.144 
-103.956 -121.703 71.8837 -103.3 -121.494 73.0361 -102.94 -120.996 74.1783 
-104.283 -120.735 70.3161 -104.978 -120.881 69.4527 -103.656 -120.502 71.2276 
-103.036 -120.259 72.3556 -102.546 -119.955 73.5031 -102.312 -119.531 74.6382 
-103.972 -119.566 69.6168 -104.668 -119.714 68.7836 -103.294 -119.343 70.4802 
-102.687 -119.065 71.5726 -102.109 -118.838 72.7916 -101.72 -118.597 73.9623 
-101.493 -118.297 75.2148 -103.622 -118.382 68.9894 -104.312 -118.561 68.2277 
-102.796 -118.298 69.7304 -102.019 -118.196 70.6265 -101.387 -118.029 71.8378 
-100.91 -117.813 73.174 -100.646 -117.551 74.5221 -100.513 -117.255 75.8499 
-103.177 -117.279 68.4398 -103.903 -117.515 67.7507 -102.295 -117.237 69.1301 
-101.31 -117.312 69.8297 -100.593 -117.274 70.8137 -100.185 -117.029 72.1693 
-99.9225 -116.716 73.6598 -99.806 -116.427 75.0953 -99.8268 -116.133 76.3346 
-102.703 -116.258 67.9273 -103.522 -116.526 67.3953 -101.915 -116.133 68.5941 
-100.967 -116.144 69.2972 -100.159 -116.135 70.1171 -99.7995 -115.927 71.2732 
-99.6176 -115.618 72.6979 -99.4382 -115.377 74.1716 -99.3913 -115.158 75.5291 
-99.5 -114.899 76.662 -102.256 -115.304 67.4849 -103.195 -115.567 67.1704 
-101.572 -115.099 68.05 -100.889 -114.919 68.8182 -100.148 -114.755 69.6674 
-99.6924 -114.561 70.6768 -99.5139 -114.339 71.8973 -99.3202 -114.191 73.2344 
-99.1534 -114.087 74.6033 -99.1553 -113.912 75.8813 -99.2891 -113.687 76.965 
-106.525 -126.029 71.6216 -106.395 -125.34 70.878 -107.211 -126.474 70.643 
-107.113 -125.694 69.9767 -108.175 -126.561 69.8333 -106.418 -124.253 70.3632 
-108.094 -125.675 69.1768 -109.291 -126.39 69.0969 -107.192 -124.474 69.4853 
-106.368 -123.082 69.8848 -109.132 -125.479 68.353 -110.327 -126.243 68.1965 
-108.056 -124.485 68.5495 -107.114 -123.285 68.8314 -106.07 -122.067 69.1874 
-110.157 -125.219 67.478 -111.367 -125.92 67.3323 -108.97 -124.345 67.6675 
-107.838 -123.387 67.7835 -106.741 -122.254 68.0422 -105.656 -120.998 68.442 
-111.266 -124.708 66.7671 -112.481 -125.205 66.7858 -110.066 -123.967 66.9182 
-108.801 -123.159 67.0208 -107.493 -122.249 67.1326 -106.292 -121.109 67.4468 
-105.262 -119.817 67.8616 -112.33 -124.107 66.1868 -113.495 -124.443 66.2988 
-111.178 -123.482 66.2381 -109.963 -122.67 66.3539 -108.557 -121.889 66.436 
-107.116 -121.049 66.6051 -105.923 -119.966 66.9458 -104.916 -118.709 67.3712 
-113.274 -123.668 65.5114 -114.37 -123.925 65.6027 -112.112 -123.125 65.5262 
-110.91 -122.312 65.5991 -109.588 -121.522 65.656 -108.087 -120.853 65.7298 
-106.734 -120.039 65.9771 -105.693 -118.916 66.4709 -104.665 -117.651 67.0202 
-114.193 -123.292 64.8118 -115.202 -123.545 64.8565 -113.012 -122.777 64.8508 
-111.695 -122.047 64.8854 -110.369 -121.331 64.8893 -108.946 -120.709 64.8966 
-107.523 -119.992 65.0261 -106.467 -119.009 65.5057 -105.6 -117.8 66.2722 
-104.484 -116.583 66.9007 -115.461 -122.909 64.2511 -114.331 -122.393 64.3298 
-115.645 -121.828 64.0119 -114.225 -121.087 64.0909 -115.472 -120.453 63.9695 
-112.863 -121.684 64.3562 -113.687 -119.708 63.8378 -114.84 -119.024 63.8585 
-112.474 -120.422 63.9313 -111.307 -121.047 64.294 -112.89 -118.247 63.5258 
-113.996 -117.453 63.7892 -111.88 -119.064 63.5189 -110.877 -119.886 63.8298 
-109.832 -120.472 64.2795 -112.222 -116.565 63.5174 -113.249 -115.924 64.0562 
-111.257 -117.355 63.3204 -110.412 -118.183 63.5968 -109.339 -119.036 63.9679 
-108.284 -119.683 64.3549 -111.765 -115.135 64.1062 -112.6 -114.817 64.7693 
-110.77 -115.662 63.6727 -109.863 -116.239 63.702 -108.831 -116.965 63.9747 
-107.75 -117.898 64.2502 -107.012 -118.653 64.7336 -111.259 -114.112 65.1757 
-111.884 -113.924 65.7703 -110.37 -114.462 64.6624 -109.377 -114.86 64.3664 
-108.341 -115.283 64.3333 -107.353 -115.989 64.5408 -106.695 -116.86 64.9962 
-106.214 -117.493 65.6268 -110.59 -113.077 66.2742 -111.117 -112.908 66.7288 
-109.875 -113.37 65.8571 -108.977 -113.765 65.48 -107.988 -114.139 65.1911 
-107.053 -114.583 65.1827 -106.394 -115.2 65.5625 -105.897 -115.812 66.11 
-105.238 -116.265 66.5567 -109.906 -111.92 67.0771 -110.435 -111.833 67.4524 
-109.287 -112.08 66.7395 -108.53 -112.368 66.437 -107.647 -112.737 66.1675 
-106.73 -113.138 66.0396 -105.955 -113.603 66.1871 -105.32 -114.125 66.5195 
-104.603 -114.647 66.7983 -103.811 -115.137 66.9684 -102.17 -114.378 67.0453 
-102.714 -113.689 66.8512 -101.214 -112.982 66.8569 -103.548 -112.928 66.7971 
-101.715 -111.955 66.6184 -100.616 -111.231 66.9318 -104.423 -112.235 66.7777 
-102.583 -110.899 66.6782 -101.19 -109.953 66.691 -100.354 -109.179 67.3245 
-105.293 -111.677 66.731 -103.568 -110.097 66.893 -102.094 -108.85 66.7843 
-101.045 -107.878 67.0682 -100.194 -107.115 67.6649 -106.276 -111.231 66.7014 
-104.646 -109.581 66.9867 -103.143 -108.186 67.0118 -102.013 -106.946 67.0822 
-100.991 -105.905 67.3904 -100.108 -105.299 67.9296 -107.278 -110.9 66.7972 
-105.839 -109.256 66.9974 -104.374 -107.849 67.1748 -103.165 -106.519 67.3219 
-102.097 -105.17 67.4444 -101.041 -104.262 67.769 -100.188 -103.872 68.498 
-108.14 -110.737 67.0539 -106.921 -109.172 67.2154 -105.637 -107.745 67.4514 
-104.417 -106.458 67.7493 -103.33 -105.047 67.885 -102.282 -103.828 68 
-101.268 -103.187 68.4966 -100.43 -102.923 69.3953 -108.852 -110.727 67.4094 
-107.768 -109.334 67.6545 -106.664 -107.915 67.953 -105.546 -106.618 68.3036 
-104.473 -105.305 68.5109 -103.511 -103.996 68.5741 -102.581 -103.059 68.8333 
-101.634 -102.588 69.4959 -100.826 -102.379 70.3826 -109.48 -110.775 67.7973 
-108.482 -109.57 68.1252 -107.482 -108.24 68.4866 -106.501 -106.893 68.8136 
-105.516 -105.59 69.0146 -104.598 -104.335 69.1504 -103.799 -103.279 69.3885 
-102.978 -102.566 69.8668 -102.098 -102.158 70.5714 -101.359 -101.988 71.3576 
-101.318 -114.133 67.3766 -100.581 -112.654 67.4321 -100.814 -113.821 68.128 
-100.1 -110.735 67.7781 -100.213 -112.153 68.4099 -100.284 -113.429 69.095 
-99.768 -108.595 68.1322 -99.7002 -110.168 68.7318 -99.757 -111.663 69.437 
-99.7266 -113.117 70.1269 -99.5666 -106.601 68.3655 -99.3537 -108.163 68.9601 
-99.2924 -109.816 69.7023 -99.2809 -111.431 70.5426 -99.3784 -112.944 71.2871 
-99.5247 -104.868 68.867 -99.2118 -106.276 69.4205 -99.0763 -107.941 70.1392 
-98.9632 -109.678 70.9836 -98.9707 -111.359 71.826 -99.1503 -112.874 72.5606 
-99.623 -103.484 69.7347 -99.153 -104.535 70.2441 -98.9745 -106.065 70.9213 
-98.9462 -107.786 71.7035 -98.9007 -109.551 72.4863 -98.8717 -111.312 73.2318 
-98.9745 -112.847 73.9389 -99.9283 -102.637 70.6783 -99.2864 -103.233 71.1213 
-98.9239 -104.417 71.7458 -98.9151 -106.024 72.5207 -99.087 -107.698 73.3043 
-99.0454 -109.478 74.0425 -98.8828 -111.272 74.7407 -98.9254 -112.752 75.3601 
-100.476 -102.222 71.5991 -99.7703 -102.576 71.9622 -99.2065 -103.304 72.5073 
-98.9053 -104.593 73.2561 -99.0306 -106.153 74.0772 -99.2096 -107.782 74.8569 
-99.0596 -109.554 75.5806 -98.8834 -111.237 76.1879 -98.999 -112.585 76.6338 
-101.432 -101.721 72.5205 -100.668 -102.168 72.8473 -101.618 -101.543 73.8718 
-100.897 -102.213 74.3857 -101.722 -101.581 75.3197 -99.981 -102.631 73.3405 
-100.896 -102.324 76.0456 -101.756 -101.947 76.6859 -100.079 -102.721 75.1077 
-99.2945 -103.413 74.0655 -100.925 -102.668 77.4969 -101.993 -102.489 78.035 
-99.9842 -102.9 76.8875 -99.2371 -103.544 75.9568 -98.9187 -104.759 74.9159 
-101.333 -103.298 78.7876 -102.382 -103.014 79.4587 -100.204 -103.513 78.2561 
-99.261 -103.934 77.6545 -98.8383 -105.014 76.7214 -99.0048 -106.41 75.7225 
-101.796 -104.004 80.0793 -102.689 -103.673 80.6962 -100.75 -104.388 79.4536 
-99.7299 -104.738 78.9493 -99.0405 -105.533 78.285 -98.8877 -106.84 77.3792 
-99.0516 -108.2 76.4702 -102.118 -104.702 81.2644 -103.019 -104.524 81.633 
-101.137 -105.087 80.7396 -100.226 -105.514 80.2087 -99.5733 -106.188 79.629 
-99.1368 -107.385 78.8495 -98.9397 -108.751 77.9872 -98.9109 -110.01 77.1146 
-102.524 -105.412 82.2838 -103.463 -105.309 82.4936 -101.516 -105.71 81.9353 
-100.58 -106.155 81.4621 -99.996 -106.813 80.8759 -99.6271 -107.922 80.1368 
-99.2457 -109.284 79.3062 -99.0028 -110.489 78.4576 -98.962 -111.553 77.5556 
-103.018 -106.116 83.16 -103.907 -105.932 83.3557 -102.094 -106.463 82.8703 
-101.169 -106.955 82.4568 -100.486 -107.595 81.876 -100.093 -108.546 81.1593 
-99.7284 -109.789 80.4064 -99.3845 -110.964 79.6257 -99.2464 -111.917 78.7504 
-99.2596 -112.807 77.8244 -102.392 -101.568 71.9135 -102.441 -101.016 73.1606 
-103.49 -101.196 72.55 -103.496 -100.451 73.766 -104.528 -101.237 73.0952 
-102.536 -100.658 74.5106 -104.577 -100.631 74.2295 -105.623 -101.648 73.5016 
-103.553 -100.216 75.0139 -102.625 -100.94 75.8185 -105.881 -101.302 74.6794 
-106.934 -102.004 73.9534 -104.74 -100.795 75.4568 -103.744 -101.019 76.2431 
-102.821 -101.772 77.1341 -107.387 -101.842 75.2477 -108.239 -102.397 74.4921 
-106.197 -101.693 76.0295 -105.072 -101.818 76.7867 -104.09 -102.086 77.7012 
-103.139 -102.424 78.7011 -108.723 -102.407 75.7706 -109.325 -103.091 74.9211 
-107.727 -102.252 76.6696 -106.585 -102.401 77.4986 -105.533 -102.461 78.4323 
-104.425 -102.509 79.4561 -103.406 -102.899 80.2346 -109.803 -103.151 76.1469 
-110.279 -103.855 75.2402 -109.047 -102.773 77.1835 -108.068 -102.69 78.1696 
-107.089 -102.605 79.1739 -105.98 -102.606 80.1657 -104.72 -103.02 80.8607 
-103.701 -103.763 81.2676 -110.741 -103.88 76.5164 -111.105 -104.54 75.6149 
-110.159 -103.413 77.5936 -109.337 -103.179 78.6553 -108.466 -103.007 79.6892 
-107.546 -102.957 80.6699 -106.364 -103.362 81.3215 -105.12 -104.109 81.6636 
-104.155 -104.786 82.0319 -111.469 -104.637 76.923 -111.712 -105.28 76.0535 
-111.052 -104.14 77.9572 -110.377 -103.871 78.9855 -109.562 -103.753 79.9499 
[...]
CELL_DATA 2000
SCALARS Distance double
LOOKUP_TABLE default
177.997 177.09 177.394 177.05 176.086 176.41 176.032 176.368 175.967 
175.015 175.342 174.901 175.266 174.837 175.201 174.759 173.857 174.202 
173.693 174.064 173.582 173.989 173.533 173.939 173.52 172.614 172.976 
172.423 172.794 172.263 172.68 172.208 172.654 172.24 172.7 172.359 
171.356 171.704 171.13 171.486 170.918 171.325 170.832 171.298 170.885 
171.381 171.046 171.564 171.295 170.144 170.451 169.862 170.193 169.598 
169.968 169.444 169.901 169.486 170.004 169.675 170.221 169.966 170.523 
170.307 169.009 169.251 168.645 168.949 168.362 168.68 168.137 168.531 
168.115 168.612 168.307 168.851 168.616 169.184 169 169.566 169.393 
167.975 168.134 167.501 167.77 167.22 167.507 166.985 167.297 166.872 
167.296 167.009 167.522 167.313 167.862 167.701 168.27 168.137 168.694 
168.558 178.394 178.716 178.218 177.516 179.041 178.538 177.825 177.302 
176.551 179.326 178.84 178.112 177.6 176.831 176.306 175.514 179.535 
179.077 178.314 177.835 177.038 176.546 175.724 175.217 174.372 179.664 
179.234 178.451 177.99 177.169 176.697 175.848 175.367 174.493 174.005 
173.127 179.711 179.322 178.552 178.11 177.299 176.819 175.965 175.467 
174.583 174.09 173.205 172.729 171.868 179.695 179.351 178.616 178.207 
177.417 176.95 176.101 175.595 174.711 174.197 173.326 172.827 171.985 
171.502 170.683 179.666 179.351 178.666 178.275 177.496 177.047 176.195 
175.715 174.832 174.333 173.475 172.982 172.183 171.685 170.906 170.387 
169.606 179.669 179.369 178.73 178.341 177.563 177.108 176.255 175.79 
174.928 174.449 173.592 173.116 172.33 171.89 171.181 170.695 169.969 
169.4 168.643 179.507 178.878 178.997 178.52 177.945 178.182 177.598 
177.817 177.249 176.666 177.026 176.374 176.709 176.106 176.428 175.889 
175.117 175.562 174.896 175.347 174.79 175.214 174.711 175.064 174.568 
173.584 173.961 173.294 173.783 173.249 173.804 173.315 173.799 173.274 
173.69 173.192 172.473 172.625 171.986 172.277 171.722 172.204 171.682 
172.238 171.694 172.247 171.769 172.299 171.913 171.748 171.781 171.209 
171.261 170.72 170.89 170.37 170.679 170.198 170.656 170.313 170.873 
170.635 171.145 170.853 171.025 171.121 170.578 170.632 170.105 170.141 
169.629 169.688 169.238 169.438 169.166 169.583 169.44 169.932 169.695 
170.108 169.709 170.176 170.328 169.755 169.908 169.332 169.475 168.901 
169.018 168.475 168.635 168.216 168.547 168.255 168.731 168.395 168.868 
168.397 168.826 168.329 167.374 167.333 166.806 165.771 167.348 166.756 
165.529 165.071 164.097 167.337 166.765 165.494 164.85 163.681 163.386 
162.578 167.398 166.811 165.623 164.878 163.64 163.087 162.148 161.935 
161.232 167.663 167.005 165.903 165.108 163.923 163.199 162.204 161.705 
160.909 160.649 160.006 168.077 167.382 166.341 165.519 164.437 163.635 
162.697 161.989 161.169 160.587 159.893 159.573 159.118 168.539 167.858 
166.917 166.095 165.144 164.308 163.499 162.69 161.958 161.145 160.47 
159.8 159.345 158.984 158.799 169.016 168.376 167.572 166.794 165.985 
165.157 164.458 163.636 163.007 162.138 161.53 160.675 160.223 159.563 
159.373 158.971 158.978 169.499 168.912 168.234 167.534 166.846 166.075 
165.435 164.645 164.046 163.23 162.656 161.825 161.373 160.626 160.392 
159.8 159.757 159.337 159.424 167.164 165.658 166.483 166.661 164.134 
164.995 165.277 166.118 166.407 162.679 163.524 163.853 164.744 165.088 
165.91 166.201 161.276 162.08 162.364 163.292 163.662 164.567 164.927 
165.739 166.099 160.001 160.687 160.929 161.802 162.199 163.132 163.586 
164.477 164.952 165.762 166.248 159.09 159.539 159.78 160.484 160.933 
161.775 162.323 163.201 163.787 164.647 165.236 166.027 166.578 158.697 
158.853 159.034 159.512 159.958 160.675 161.285 162.09 162.753 163.571 
164.245 165.05 165.694 166.431 167.004 158.802 158.693 158.775 158.96 
159.313 159.834 160.445 161.18 161.913 162.681 163.42 164.167 164.88 
165.602 166.251 166.915 167.479 159.248 158.986 159.042 158.94 159.206 
159.394 159.929 160.459 161.207 161.927 162.721 163.447 164.192 164.879 
165.559 166.21 166.811 167.415 167.937 159.553 160.107 159.669 159.42 
160.857 160.382 160.19 159.666 159.554 161.685 161.205 161.071 160.53 
160.404 159.952 160.139 162.661 162.087 161.953 161.416 161.319 160.848 
161.016 160.758 161.297 163.872 163.188 163.07 162.409 162.361 161.807 
161.997 161.676 162.208 162.086 162.791 165.135 164.473 164.425 163.706 
163.709 163.024 163.222 162.748 163.252 163.033 163.725 163.606 164.281 
166.332 165.723 165.709 165.073 165.093 164.448 164.62 164.079 164.51 
164.156 164.784 164.572 165.226 165.055 165.646 167.517 166.917 166.909 
166.309 166.336 165.756 165.914 165.424 165.806 165.434 165.984 165.688 
166.275 166.026 166.578 166.37 166.884 168.66 168.097 168.121 167.533 
167.613 167.015 167.197 166.677 167.04 166.66 167.171 166.868 167.4 
167.103 167.593 167.318 167.782 167.557 168.006 159.865 160.488 160.158 
160.285 161.248 160.768 160.751 160.597 160.894 162.279 161.617 161.489 
161.104 161.336 161.28 161.722 163.568 162.821 162.753 162.083 162.296 
161.933 162.429 162.274 162.811 164.955 164.25 164.341 163.591 163.848 
163.221 163.697 163.268 163.816 163.515 164.05 166.322 165.696 165.885 
165.235 165.522 164.884 165.273 164.712 165.137 164.67 165.097 164.778 
165.263 167.617 167.063 167.279 166.727 167.01 166.455 166.778 166.234 
166.566 166.03 166.36 165.894 166.292 165.98 166.462 168.811 168.324 
168.561 168.07 168.358 167.849 168.16 167.644 167.979 167.446 167.788 
167.238 167.606 167.126 167.561 167.21 167.679 169.908 169.48 169.738 
169.306 169.601 169.143 169.448 168.972 169.307 168.83 169.195 168.686 
169.045 168.515 168.882 168.407 168.799 168.423 168.825 169.569 169.368 
169.101 168.353 169.219 168.914 168.137 167.843 167.036 169.06 168.749 
167.935 167.628 166.793 166.495 165.665 168.911 168.578 167.753 167.421 
166.556 166.235 165.364 165.091 164.261 168.893 168.491 167.709 167.304 
166.459 166.043 165.14 164.782 163.923 163.675 162.887 169.043 168.586 
167.854 167.38 166.583 166.067 165.187 164.677 163.831 163.435 162.706 
162.406 161.723 169.262 168.805 168.1 167.607 166.837 166.287 165.455 
164.871 164.077 163.547 162.88 162.436 161.847 161.435 160.851 169.509 
169.055 168.386 167.889 167.156 166.598 165.814 165.221 164.471 163.911 
163.258 162.758 162.175 161.709 161.156 160.71 160.207 169.843 169.363 
168.759 168.236 167.582 166.999 166.293 165.667 164.954 164.351 163.67 
163.137 162.493 162.032 161.45 161.039 160.558 160.172 159.808 170.286 
171.309 170.558 170.107 172.392 171.619 171.176 170.416 169.981 173.524 
172.735 172.294 171.508 171.077 170.31 169.858 174.677 173.903 173.469 
172.648 172.205 171.42 170.984 170.188 169.723 175.763 175.063 174.682 
173.862 173.404 172.569 172.135 171.335 170.902 170.085 169.675 176.748 
176.117 175.814 175.078 174.655 173.802 173.339 172.507 172.099 171.293 
170.907 170.106 169.781 177.707 177.091 176.815 176.169 175.811 175.034 
174.57 173.729 173.303 172.503 172.145 171.354 171.019 170.248 169.967 
178.613 178.036 177.745 177.139 176.814 176.133 175.727 174.941 174.518 
173.72 173.367 172.59 172.268 171.487 171.179 170.43 170.18 179.36 
178.879 178.594 178.037 177.726 177.109 176.769 176.068 175.697 174.933 
174.58 173.812 173.492 172.724 172.417 171.651 171.382 170.66 170.469 
179.639 179.863 179.479 178.916 180.122 179.709 179.112 178.703 178.07 
180.385 179.96 179.347 178.912 178.26 177.828 177.143 180.697 180.234 
179.614 179.152 178.477 178.02 177.3 176.855 176.111 181.034 180.564 
179.905 179.418 178.686 178.206 177.426 176.976 176.187 175.766 175 
181.219 180.824 180.121 179.672 178.897 178.398 177.561 177.069 176.236 
175.804 175.017 174.634 173.895 181.269 180.914 180.213 179.815 179.069 
178.6 177.794 177.254 176.421 175.895 175.103 174.657 173.914 173.535 
172.825 181.303 180.962 180.284 179.89 179.168 178.746 177.999 177.516 
176.726 176.171 175.37 174.828 174.071 173.603 172.887 172.488 171.811 
181.22 180.97 180.29 179.946 179.187 178.804 178.034 177.651 176.884 
176.442 175.641 175.125 174.331 173.82 173.084 172.619 171.938 171.529 
170.91 180.851 179.84 180.242 179.932 178.672 179.115 178.787 179.202 
178.802 177.498 177.905 177.518 177.957 177.576 178.006 177.622 176.294 
176.731 176.355 176.733 176.357 176.762 176.416 176.847 176.491 174.933 
175.48 175.166 175.604 175.231 175.606 175.222 175.628 175.258 175.692 
175.284 173.445 174.05 173.743 174.313 173.941 174.422 173.981 174.406 
173.957 174.404 173.982 174.429 173.993 171.993 172.554 172.237 172.822 
172.475 173.025 172.61 173.085 172.625 173.072 172.643 173.107 172.715 
173.154 172.757 170.68 171.155 170.846 171.367 171.062 171.585 171.239 
171.714 171.314 171.749 171.356 171.802 171.449 171.898 171.549 171.968 
171.614 169.533 169.915 169.584 170.04 169.73 170.231 169.912 170.397 
170.039 170.481 170.113 170.553 170.221 170.671 170.355 170.784 170.461 
170.873 170.578 181.197 181.378 180.911 180.163 181.679 181.096 180.302 
179.837 179.071 182.043 181.451 180.628 180.062 179.285 178.759 177.952 
182.084 181.722 180.887 180.385 179.499 178.964 178.031 177.545 176.653 
181.661 181.54 180.705 180.414 179.407 178.995 177.886 177.457 176.403 
176.085 175.18 181.09 181.017 180.202 180.011 179.002 178.69 177.557 
177.165 176.053 175.72 174.757 174.535 173.684 180.563 180.48 179.699 
179.493 178.566 178.267 177.261 176.863 175.827 175.409 174.441 174.122 
173.252 173.037 172.237 180.019 179.968 179.227 179.041 178.18 177.91 
177.012 176.662 175.714 175.278 174.302 173.883 172.968 172.656 171.84 
171.637 170.918 179.445 179.422 178.736 178.592 177.787 177.561 176.716 
176.436 175.544 175.172 174.218 173.784 172.853 172.456 171.63 171.326 
170.614 170.41 169.79 181.837 182.941 182.333 182.16 183.949 183.5 
183.488 182.755 182.557 184.561 184.351 184.467 184.054 183.947 183.183 
182.897 184.984 184.763 184.815 184.729 184.707 184.339 183.993 183.314 
182.822 185.604 185.215 185.114 184.934 184.894 184.754 184.451 184.059 
183.475 182.917 182.299 186.11 185.836 185.693 185.36 185.239 184.953 
184.693 184.332 183.81 183.345 182.734 182.247 181.681 186.145 186.135 
186.028 185.86 185.668 185.38 185.07 184.67 184.185 183.686 183.107 
182.619 182.082 181.631 181.124 185.995 186.062 186.005 185.981 185.757 
185.612 185.224 184.971 184.468 184.083 183.496 183.018 182.434 181.985 
181.46 181.05 180.54 185.916 185.963 185.951 185.927 185.72 185.573 
185.154 184.95 184.445 184.216 183.675 183.34 182.744 182.316 181.729 
181.321 180.793 180.421 179.922 185.878 185.683 185.863 185.89 185.165 
185.508 185.538 185.74 185.595 184.508 184.847 184.866 185.214 185.047 
185.226 184.932 183.97 184.175 184.102 184.454 184.323 184.568 184.251 
184.437 184.154 183.375 183.595 183.368 183.669 183.484 183.786 183.491 
183.712 183.392 183.649 183.399 182.424 182.815 182.501 182.834 182.516 
182.865 182.539 182.863 182.527 182.836 182.532 182.838 182.519 181.225 
181.716 181.434 181.828 181.468 181.823 181.467 181.834 181.513 181.882 
181.568 181.909 181.566 181.87 181.508 180.05 180.529 180.306 180.72 
180.412 180.765 180.438 180.784 180.492 180.854 180.568 180.913 180.586 
180.899 180.556 180.862 180.554 178.986 179.422 179.224 179.63 179.361 
179.729 179.431 179.787 179.504 179.862 179.581 179.924 179.614 179.931 
179.611 179.924 179.635 179.959 179.7 178.36 177.424 178.131 178.559 
176.341 177.115 177.535 178.271 178.668 175.151 175.967 176.383 177.176 
177.592 178.347 178.743 173.957 174.767 175.214 176.013 176.458 177.244 
177.689 178.433 178.839 172.835 173.613 174.094 174.884 175.368 176.143 
176.608 177.369 177.807 178.533 178.916 171.777 172.521 172.978 173.772 
174.254 175.06 175.524 176.297 176.723 177.472 177.872 178.59 178.945 
170.78 171.478 171.886 172.641 173.076 173.895 174.349 175.172 175.603 
176.38 176.79 177.532 177.929 178.623 178.972 169.856 170.502 170.893 
171.579 171.995 172.737 173.196 173.99 174.468 175.258 175.718 176.473 
176.914 177.628 178.036 178.686 179.037 169.006 169.605 169.993 170.635 
171.067 171.741 172.218 172.931 173.444 174.187 174.699 175.439 175.915 
176.634 177.068 177.755 178.142 178.773 179.112 178.936 177.919 178.375 
178.197 176.829 177.293 177.067 177.516 177.25 175.684 176.164 175.913 
176.351 176.039 176.489 176.181 174.47 174.979 174.708 175.161 174.794 
175.234 174.849 175.346 174.989 173.206 173.72 173.414 173.893 173.482 
173.93 173.481 173.96 173.54 174.072 173.673 171.962 172.437 172.091 
172.554 172.11 172.559 172.097 172.571 172.152 172.641 172.243 172.742 
172.356 170.775 171.193 170.814 171.238 170.776 171.185 170.702 171.165 
170.75 171.264 170.886 171.376 171 171.48 171.151 169.665 170.014 
169.603 169.986 169.534 169.901 169.398 169.79 169.31 169.807 169.397 
169.963 169.592 170.139 169.815 170.346 170.114 168.668 168.938 168.501 
168.817 168.373 168.708 168.224 168.547 168.025 168.397 167.923 168.426 
168.064 168.664 168.396 168.999 168.804 169.387 169.269 180.232 180.308 
180.575 181.251 180.413 180.713 181.475 181.748 182.514 180.457 180.815 
181.579 181.941 182.728 183.028 183.711 180.401 180.805 181.51 181.927 
182.636 183.076 183.772 184.107 184.657 180.259 180.696 181.401 181.811 
182.505 182.912 183.61 184.03 184.666 184.959 185.391 180.024 180.499 
181.244 181.71 182.509 182.893 183.653 183.962 184.604 184.888 185.336 
185.546 185.764 179.709 180.207 180.937 181.499 182.348 182.892 183.686 
184.063 184.602 184.833 185.133 185.352 185.51 185.713 185.768 179.362 
179.852 180.523 181.11 181.886 182.561 183.291 183.872 184.293 184.646 
184.771 185.027 185.103 185.368 185.473 185.671 185.733 179.01 179.48 
180.084 180.637 181.3 181.961 182.594 183.248 183.639 184.103 184.214 
184.53 184.619 184.937 185.144 185.416 185.612 185.731 185.817 180.397 
181.399 180.888 180.937 182.616 181.998 182.015 181.464 181.432 183.764 
183.185 183.102 182.549 182.485 181.918 181.699 184.695 184.198 184.012 
183.495 183.351 182.893 182.699 182.072 181.65 185.436 185.041 184.843 
184.31 184.116 183.673 183.555 183.039 182.701 181.939 181.417 185.842 
185.669 185.543 185.111 184.914 184.451 184.363 183.909 183.689 182.997 
182.474 181.655 181.119 185.881 185.904 185.871 185.684 185.513 185.175 
184.998 184.649 184.395 183.889 183.339 182.616 181.944 181.266 180.764 
185.814 185.865 185.888 185.872 185.764 185.593 185.341 185.084 184.713 
184.373 183.791 183.262 182.525 181.93 181.314 180.826 180.407 185.826 
185.821 185.845 185.861 185.825 185.744 185.527 185.294 184.885 184.56 
184.011 183.581 182.929 182.401 181.793 181.301 180.859 180.453 180.112 
179.95 180.432 179.935 179.373 180.818 180.344 179.731 179.257 178.524 
180.97 180.574 179.85 179.48 178.747 178.265 177.326 180.86 180.553 
179.757 179.45 178.679 178.346 177.463 176.925 175.82 180.644 180.377 
179.635 179.324 178.55 178.214 177.359 176.943 175.932 175.347 174.267 
180.437 180.2 179.55 179.253 178.539 178.149 177.299 176.847 175.914 
175.415 174.476 173.913 173.078 180.207 180.027 179.41 179.169 178.481 
178.149 177.331 176.873 175.982 175.475 174.644 174.144 173.41 172.907 
172.27 179.94 179.801 179.194 178.982 178.276 178.015 177.249 176.897 
176.088 175.631 174.85 174.37 173.669 173.21 172.558 172.121 171.502 
179.672 179.544 178.968 178.755 178.071 177.804 177.097 176.803 176.099 
175.736 175.013 174.584 173.867 173.432 172.745 172.33 171.668 171.277 
170.648 181.827 181.936 182.208 182.827 181.943 182.269 182.916 183.201 
183.765 181.902 182.272 182.957 183.275 183.871 184.074 184.47 181.657 
182.13 182.79 183.246 183.907 184.212 184.725 184.779 185.091 181.269 
181.759 182.342 182.899 183.546 184.096 184.735 185.058 185.524 185.503 
185.785 180.96 181.382 181.938 182.409 182.99 183.569 184.216 184.831 
185.415 185.785 186.099 186.12 186.214 180.677 181.09 181.63 182.057 
182.589 183.05 183.61 184.196 184.79 185.393 185.795 186.132 186.198 
186.258 186.164 180.357 180.758 181.234 181.692 182.193 182.662 183.171 
183.658 184.195 184.741 185.217 185.669 185.868 186.061 186.006 186.049 
185.964 180.093 180.427 180.852 181.258 181.756 182.233 182.798 183.268 
183.829 184.27 184.777 185.179 185.519 185.758 185.846 185.902 185.865 
185.884 185.869 
POINT_DATA 1002
SCALARS Distance double
LOOKUP_TABLE default
177.699 178.565 177.729 176.756 176.786 176.698 175.691 175.783 175.652 
175.553 174.555 174.709 174.459 174.402 174.326 173.345 173.517 173.18 
173.109 173.091 173.145 172.069 172.257 171.858 171.753 171.764 171.866 
172.068 170.789 171.025 170.534 170.366 170.379 170.515 170.76 171.061 
169.54 169.868 169.258 169.006 168.961 169.122 169.391 169.751 170.112 
168.346 168.815 168.052 167.778 167.629 167.757 168.045 168.415 168.837 
169.233 167.243 167.869 166.915 166.693 166.487 166.506 166.767 167.129 
167.561 168.014 168.43 178.89 178.036 179.223 178.357 179.544 177.086 
178.622 179.813 177.36 176.051 178.797 179.998 177.527 176.23 174.892 
178.911 180.086 177.648 176.336 174.981 173.608 178.973 180.077 177.775 
176.476 175.086 173.684 172.325 179.004 180.006 177.875 176.603 175.226 
173.823 172.474 171.157 179.047 179.947 177.949 176.665 175.318 173.954 
172.651 171.425 170.138 179.116 179.946 178.03 176.712 175.39 174.076 
172.747 171.596 170.523 169.248 179.461 178.416 178.76 177.374 177.704 
177.008 176.003 176.293 175.746 175.566 174.391 174.669 174.295 174.331 
174.239 172.827 173.261 172.666 172.79 172.83 172.756 171.792 172.369 
171.343 171.161 171.099 171.158 171.397 171.186 171.692 170.652 170.17 
169.783 169.716 170.07 170.444 170.49 170.895 170.063 169.605 169.115 
168.819 168.969 169.286 169.36 169.601 170.033 169.176 168.762 168.339 
167.976 167.858 167.943 167.961 167.873 166.38 166.166 164.768 166.143 
164.281 163.243 166.213 164.13 162.636 161.861 166.366 164.295 162.498 
161.314 160.527 166.678 164.668 162.809 161.309 160.11 159.387 167.135 
165.215 163.432 161.854 160.348 159.226 158.747 167.681 165.939 164.281 
162.787 161.236 159.829 158.983 158.672 168.273 166.765 165.254 163.842 
162.394 160.964 159.879 159.261 159.004 168.863 167.568 166.209 164.843 
163.457 162.121 161.036 160.263 159.75 159.522 165.827 164.392 165.614 
162.94 164.23 165.425 161.446 162.711 164.051 165.309 160.094 161.253 
162.637 164.076 165.477 159.141 160.111 161.441 162.896 164.394 165.843 
158.677 159.291 160.48 161.941 163.43 164.918 166.324 158.736 158.916 
159.737 161.125 162.679 164.16 165.57 166.864 159.223 159.171 159.534 
160.52 161.982 163.509 164.914 166.201 167.371 159.919 159.87 160.537 
160.744 161.294 159.961 161.583 162.182 160.891 160.367 162.5 163.305 
161.779 161.292 161.394 163.762 164.553 162.951 162.356 162.35 162.887 
165.108 165.748 164.409 163.77 163.544 163.867 164.427 166.316 166.935 
165.706 165.168 164.926 165.063 165.427 165.83 167.504 168.115 166.909 
166.396 166.18 166.316 166.578 166.824 167.085 168.673 169.195 168.189 
167.741 167.457 167.487 167.715 167.91 168.047 168.217 160.158 160.403 
160.908 160.998 161.843 160.857 162.012 162.985 161.461 161.694 163.469 
164.254 162.78 162.648 162.95 165.03 165.583 164.529 164.237 164.209 
164.294 166.479 166.907 166.149 165.89 165.695 165.511 165.489 167.805 
168.14 167.555 167.329 167.12 166.888 166.684 166.705 169.028 169.266 
168.853 168.668 168.487 168.334 168.146 167.991 167.99 170.147 170.311 
170.041 169.912 169.765 169.672 169.58 169.413 169.243 169.167 169.812 
168.629 169.665 168.451 169.543 167.334 168.256 169.382 167.101 165.946 
168.097 169.256 166.908 165.662 164.486 168.122 169.304 166.91 165.561 
164.202 163.086 168.333 169.495 167.109 165.732 164.273 163.022 162.014 
168.59 169.705 167.38 166.024 164.612 163.348 162.274 161.257 168.871 
169.953 167.699 166.392 165.028 163.775 162.654 161.601 160.613 171.016 
170.847 172.068 171.944 173.168 170.739 173.098 174.309 171.844 170.652 
174.308 175.417 173.007 171.768 170.534 175.467 176.408 174.275 172.935 
171.705 170.468 176.482 177.36 175.497 174.199 172.886 171.709 170.547 
177.437 178.328 176.531 175.409 174.107 172.918 171.81 170.704 178.349 
179.166 177.453 176.462 175.313 174.14 173.045 171.951 170.883 179.125 