# vtk DataFile Version 4.0
vtk output
ASCII
DATASET POLYDATA
POINTS 1002 float
-103.037 -122.531 74.9257 -103.514 -123.594 74.4592 -103.131 -123.17 73.8128 
-102.741 -121.809 74.2928 -102.936 -122.364 73.056 -102.649 -121.031 75.4406 
-102.552 -120.723 73.5404 -102.8 -121.242 72.2764 -102.31 -120.089 74.8218 
-101.973 -119.5 76.0286 -102.266 -119.541 72.8031 -102.635 -119.922 71.694 
-101.913 -119.054 74.0562 -101.462 -118.596 75.4005 -100.998 -118.269 76.6988 
-101.888 -118.346 72.2562 -102.46 -118.501 71.2766 -101.352 -118.11 73.3154 
-100.885 -117.716 74.6188 -100.428 -117.337 76.0737 -100.14 -116.991 77.4068 
-101.517 -117.073 71.7541 -102.159 -117.178 70.7651 -100.816 -117.012 72.7617 
-100.229 -116.77 73.8708 -99.8009 -116.372 75.3079 -99.4782 -115.988 76.814 
-99.3779 -115.556 78.0826 -101.065 -115.885 71.1395 -101.692 -116.062 70.2442 
-100.422 -115.726 72.2647 -99.6721 -115.576 73.2931 -99.0771 -115.383 74.4902 
-98.6812 -115.165 76.0263 -98.4721 -114.847 77.5149 -98.5067 -114.382 78.7069 
-100.55 -114.825 70.5831 -101.267 -115 69.911 -100.035 -114.546 71.7237 
-99.3138 -114.347 72.8041 -98.5048 -114.325 73.7516 -97.966 -114.349 75.0619 
-97.714 -114.216 76.6637 -97.6725 -113.848 78.1313 -97.8071 -113.368 79.3052 
-100.131 -113.731 70.1645 -100.969 -113.906 69.6552 -99.6367 -113.434 71.2053 
-99.064 -113.186 72.3134 -98.2602 -113.164 73.1486 -97.6261 -113.219 74.1879 
-97.3834 -113.116 75.6691 -97.3704 -112.822 77.2393 -97.4092 -112.458 78.6716 
-97.5026 -112.129 79.8606 -99.8518 -112.596 69.8022 -100.712 -112.854 69.3679 
-99.3389 -112.262 70.742 -98.874 -111.956 71.8242 -98.2117 -111.835 72.6242 
-97.61 -111.784 73.5142 -97.3719 -111.573 74.8652 -97.4167 -111.238 76.3438 
-97.4799 -110.949 77.7551 -97.4416 -110.782 79.1394 -97.4342 -110.695 80.3179 
-103.956 -124.171 73.5951 -103.614 -123.683 72.8507 -104.675 -124.575 72.712 
-104.421 -123.952 71.9168 -105.531 -124.878 71.8639 -103.392 -122.895 71.9867 
-105.426 -124.001 71.0734 -106.466 -124.988 70.977 -104.154 -123.118 71.0232 
-103.207 -121.769 71.2006 -106.519 -123.82 70.2611 -107.511 -124.752 70.0904 
-105.216 -122.954 70.2868 -103.906 -121.962 70.3242 -103.121 -120.297 70.7189 
-107.539 -123.543 69.4229 -108.542 -124.269 69.3274 -106.423 -122.59 69.6257 
-105.001 -121.721 69.7193 -103.882 -120.461 69.9132 -103.088 -118.704 70.3459 
-108.38 -123.274 68.5148 -109.484 -123.751 68.5506 -107.429 -122.345 68.756 
-106.216 -121.348 69.041 -104.946 -120.353 69.2197 -103.947 -118.897 69.5383 
-102.884 -117.296 69.9391 -109.238 -122.857 67.6276 -110.441 -123.229 67.7051 
-108.229 -122.084 67.7695 -107.174 -121.046 68.097 -105.949 -120.107 68.3715 
-104.885 -118.961 68.712 -103.879 -117.424 69.2764 -102.591 -116.037 69.7088 
-110.239 -122.19 67.0378 -111.411 -122.601 67.0683 -109.107 -121.534 67.0739 
-108.015 -120.613 67.2619 -106.793 -119.728 67.5259 -105.625 -118.817 67.8201 
-104.75 -117.48 68.4377 -103.757 -115.986 69.2151 -102.363 -114.819 69.5915 
-111.233 -121.365 66.8272 -112.298 -121.819 66.7773 -110.043 -120.784 66.7728 
-108.883 -120.019 66.7331 -107.705 -119.219 66.9004 -106.42 -118.448 67.1523 
-105.358 -117.382 67.5452 -104.596 -115.984 68.3362 -103.565 -114.701 69.1117 
-102.102 -113.716 69.3698 -112.506 -120.608 66.7566 -111.26 -120.085 66.695 
-112.53 -119.328 66.6137 -110.984 -118.798 66.0625 -112.252 -118.119 66.0383 
-109.896 -119.468 66.3282 -110.565 -117.557 65.026 -111.827 -116.921 65.4738 
-109.582 -118.234 65.3522 -108.72 -118.755 66.198 -110.292 -116.238 64.6291 
-111.433 -115.627 65.4873 -109.371 -116.979 64.5412 -108.588 -117.552 65.5308 
-107.516 -117.989 66.5461 -110.064 -114.745 65.1693 -111.028 -114.172 65.8467 
-109.201 -115.486 64.8042 -108.427 -116.144 65.3827 -107.341 -116.596 66.3114 
-106.138 -117.015 66.9325 -109.692 -113.169 65.9435 -110.565 -112.699 66.3618 
-108.79 -113.799 65.7031 -107.952 -114.432 65.9259 -106.947 -114.939 66.435 
-105.825 -115.375 66.8743 -105.066 -115.735 67.4769 -109.242 -111.81 66.8804 
-110.056 -111.488 67.2896 -108.265 -112.253 66.6656 -107.298 -112.724 66.7027 
-106.363 -113.209 66.9136 -105.403 -113.738 67.1478 -104.66 -114.176 67.5862 
-104.168 -114.448 68.3648 -108.763 -110.722 68.0841 -109.499 -110.498 68.441 
-107.818 -111.009 67.8224 -106.797 -111.295 67.6635 -105.888 -111.631 67.6404 
-105.039 -112.134 67.7646 -104.198 -112.689 68.0214 -103.489 -113.079 68.4593 
-102.835 -113.362 68.9798 -108.254 -109.623 69.1048 -108.939 -109.459 69.328 
-107.403 -109.818 68.9253 -106.425 -109.998 68.7253 -105.519 -110.19 68.5126 
-104.729 -110.506 68.4649 -103.835 -110.986 68.6018 -102.838 -111.503 68.7499 
-101.964 -111.953 68.8874 -101.268 -112.384 69.089 -99.9005 -111.549 69.3179 
-100.34 -110.904 69.0203 -99.4142 -109.947 69.5925 -101.1 -110.204 68.9849 
-99.8166 -109.043 69.2433 -99.2911 -108.154 70.1669 -102.216 -109.537 69.0562 
-100.602 -108.072 69.1643 -99.6924 -107.058 69.6966 -99.2311 -106.263 70.76 
-103.382 -109.055 69.0386 -101.748 -107.357 69.2196 -100.43 -106.021 69.4374 
-99.6557 -105.114 70.1916 -99.107 -104.295 71.2123 -104.311 -108.781 69.0836 
-102.898 -107.043 69.334 -101.537 -105.381 69.4714 -100.475 -104.128 69.8638 
-99.6803 -103.179 70.6332 -99.1427 -102.5 71.5993 -105.209 -108.61 69.3279 
-103.928 -106.891 69.584 -102.74 -105.086 69.7101 -101.719 -103.483 69.9125 
-100.726 -102.271 70.3183 -99.8917 -101.518 71.0748 -99.3854 -101.177 72.0966 
-106.227 -108.476 69.5433 -105.018 -106.771 69.8344 -103.908 -104.956 69.9794 
-102.998 -103.199 70.1216 -102.089 -101.743 70.3333 -101.06 -100.831 70.8598 
-100.211 -100.377 71.7819 -99.6948 -100.157 72.8589 -107.182 -108.357 69.6392 
-106.088 -106.732 69.9504 -105.046 -105.01 70.1987 -104.129 -103.308 70.405 
-103.319 -101.73 70.5563 -102.426 -100.615 70.9706 -101.425 -99.9776 71.8166 
-100.575 -99.5195 72.8234 -100.026 -99.1743 73.7754 -107.975 -108.258 69.7636 
-106.984 -106.762 70.069 -106.041 -105.206 70.4327 -105.155 -103.689 70.8127 
-104.348 -102.149 71.0123 -103.614 -100.839 71.3111 -102.805 -99.9953 72.0636 
-101.867 -99.3631 73.0154 -100.996 -98.7476 73.8385 -100.393 -98.3175 74.5784 
-99.2925 -111.126 70.0866 -99.0239 -109.422 70.6382 -98.871 -110.682 71.2045 
-98.8785 -107.561 71.2356 -98.5108 -108.89 71.6203 -98.2899 -110.355 72.076 
-98.6669 -105.545 71.7067 -98.1706 -106.93 71.9652 -97.816 -108.471 72.2912 
-97.6823 -110.156 72.8767 -98.5704 -103.555 72.1489 -97.9592 -104.866 72.4367 
-97.5223 -106.443 72.7585 -97.4189 -108.146 73.4731 -97.4229 -109.868 74.2549 
-98.7377 -101.999 72.6722 -98.0163 -102.978 73.111 -97.485 -104.352 73.5151 
-97.3767 -106.125 74.2998 -97.4639 -107.846 75.2194 -97.4951 -109.489 75.8372 
-99.0409 -100.868 73.3465 -98.2379 -101.587 73.8855 -97.5608 -102.432 74.3914 
-97.4205 -103.984 75.1095 -97.5451 -105.977 76.0061 -97.6161 -107.652 76.6849 
-97.6055 -109.216 77.1856 -99.4093 -99.7869 74.177 -98.6357 -100.541 74.732 
-97.766 -101.121 75.3208 -97.3976 -102.049 75.9791 -97.5176 -103.907 76.7491 
-97.5905 -105.957 77.4374 -97.5816 -107.55 77.9958 -97.5446 -109.112 78.5782 
-99.8106 -98.7414 74.9928 -99.2223 -99.5504 75.5773 -98.3755 -100.315 76.2323 
-97.6427 -100.955 76.9016 -97.4504 -102.15 77.6112 -97.4702 -104.052 78.3009 
-97.4178 -105.903 78.8999 -97.4058 -107.494 79.4628 -97.4145 -109.13 79.9783 
-100.41 -97.8293 75.5445 -99.9293 -98.4292 76.1865 -100.575 -97.7199 76.7783 
-100.194 -98.5015 77.5431 -100.882 -97.9351 78.2721 -99.4024 -99.4174 76.9328 
-100.48 -98.8087 78.9291 -101.23 -98.2934 79.7358 -99.7468 -99.6052 78.2934 
-98.5744 -100.345 77.6726 -100.701 -99.2231 80.3059 -101.554 -98.8364 81.0692 
-100.048 -99.9426 79.574 -98.9725 -100.704 79.0078 -97.8556 -101.232 78.4106 
-100.979 -99.8323 81.7432 -101.913 -99.5543 82.3927 -100.278 -100.408 80.9437 
-99.3771 -101.175 80.2405 -98.217 -101.784 79.7582 -97.5276 -102.585 79.1706 
-101.437 -100.592 83.032 -102.373 -100.33 83.5654 -100.591 -101.09 82.3464 
-99.7504 -101.766 81.5732 -98.7243 -102.382 80.9519 -97.7827 -103.077 80.5236 
-97.3731 -104.336 79.8693 -102.002 -101.448 83.9818 -102.888 -101.241 84.4278 
-101.033 -101.889 83.4766 -100.066 -102.511 82.9129 -99.2369 -103.115 82.2045 
-98.4135 -103.71 81.5893 -97.6737 -104.708 81.1359 -97.3417 -106.129 80.4438 
-102.529 -102.405 84.7669 -103.377 -102.258 85.1272 -101.553 -102.737 84.3624 
-100.421 -103.273 84.0279 -99.5593 -103.912 83.4985 -99.0484 -104.562 82.6496 
-98.4412 -105.418 81.9554 -97.7638 -106.638 81.5101 -97.4194 -107.959 80.8792 
-102.975 -103.323 85.5467 -103.824 -103.157 85.8193 -102.085 -103.608 85.1787 
-100.985 -104.04 84.8797 -99.9661 -104.636 84.5377 -99.442 -105.363 83.7772 
-99.1296 -106.235 82.7811 -98.555 -107.331 82.1117 -97.9022 -108.557 81.6994 
-97.5338 -109.698 81.1237 -101.265 -97.9419 74.8112 -101.338 -97.4903 75.7769 
-102.576 -97.8914 75.0637 -102.844 -97.4413 76.2021 -103.999 -98.0436 75.4596 
-101.625 -97.395 77.2551 -104.421 -97.5898 76.8819 -105.095 -98.4497 76.0582 
-103.308 -97.2257 78.028 -102.086 -97.5483 79.035 -105.518 -98.126 77.5464 
-106.042 -99.1041 76.6795 -104.834 -97.4097 78.7807 -103.753 -97.3747 79.8617 
-102.519 -97.98 80.4986 -106.525 -98.9021 77.9646 -107.126 -99.7899 77.1667 
-105.851 -98.2031 79.1207 -105.057 -97.889 80.3056 -104.015 -98.116 81.0794 
-102.828 -98.7523 81.7021 -107.724 -99.6477 78.3097 -108.103 -100.58 77.5637 
-107.048 -99.0804 79.2805 -106.212 -98.8744 80.4388 -105.331 -98.8719 81.4506 
-104.259 -99.083 82.2456 -103.137 -99.5798 83 -108.747 -100.552 78.6862 
-108.911 -101.524 77.8894 -108.347 -99.8604 79.5959 -107.667 -99.5931 80.682 
-106.843 -99.5648 81.8697 -105.846 -99.6042 82.8662 -104.634 -99.8473 83.6004 
-103.557 -100.426 84.1317 -109.606 -101.521 78.9538 -109.797 -102.325 78.1061 
-109.282 -100.843 79.9111 -108.821 -100.352 80.9808 -108.252 -100.056 82.2356 
-107.471 -99.9822 83.4257 -106.354 -100.203 84.1825 -105.088 -100.74 84.5959 
-104.056 -101.48 84.8968 -110.495 -102.245 79.0825 -110.7 -102.901 78.2461 
-110.088 -101.773 80.0755 -109.574 -101.38 81.1549 -109.095 -100.944 82.3542 
[...]
CELL_DATA 2000
SCALARS Distance double
LOOKUP_TABLE default
176.043 175.136 175.456 175.098 174.019 174.419 174.021 174.38 173.948 
172.775 173.2 172.772 173.192 172.757 173.154 172.755 171.513 171.926 
171.484 171.905 171.475 171.906 171.517 171.969 171.643 170.225 170.646 
170.188 170.613 170.156 170.596 170.184 170.673 170.33 170.848 170.542 
168.925 169.331 168.865 169.301 168.815 169.245 168.782 169.282 168.932 
169.492 169.219 169.752 169.491 167.71 168.042 167.574 167.991 167.531 
167.918 167.438 167.872 167.519 168.08 167.876 168.455 168.283 168.785 
168.601 166.602 166.856 166.356 166.742 166.321 166.693 166.235 166.592 
166.209 166.701 166.494 167.108 166.977 167.573 167.428 167.954 167.808 
165.564 165.757 165.211 165.556 165.14 165.519 165.08 165.424 164.997 
165.424 165.146 165.723 165.562 166.202 166.056 166.685 166.541 167.137 
167.012 176.417 176.711 176.234 175.541 177.042 176.522 175.781 175.277 
174.471 177.355 176.836 176.041 175.507 174.663 174.132 173.254 177.551 
177.091 176.279 175.748 174.873 174.323 173.423 172.886 171.994 177.615 
177.226 176.446 175.958 175.097 174.542 173.649 173.08 172.167 171.619 
170.717 177.574 177.244 176.5 176.091 175.267 174.761 173.894 173.337 
172.45 171.85 170.927 170.342 169.445 177.48 177.172 176.432 176.09 
175.278 174.864 173.998 173.535 172.674 172.146 171.267 170.647 169.744 
169.126 168.274 177.404 177.085 176.341 175.997 175.183 174.806 173.94 
173.546 172.683 172.274 171.437 170.958 170.117 169.523 168.667 168.036 
167.218 177.343 177.031 176.295 175.924 175.108 174.712 173.871 173.476 
172.639 172.24 171.412 171.018 170.23 169.809 169.027 168.48 167.651 
167.02 166.211 177.08 176.243 176.458 175.985 175.112 175.427 174.869 
175.212 174.706 173.782 174.098 173.474 173.929 173.462 173.896 173.457 
172.578 172.768 172.143 172.533 172.179 172.653 172.317 172.687 172.264 
171.529 171.678 171.085 171.36 171.039 171.467 171.179 171.555 171.104 
171.443 170.99 170.478 170.67 170.09 170.356 169.934 170.342 169.953 
170.361 169.837 170.203 169.689 170.137 169.771 169.593 169.708 169.157 
169.347 168.838 169.159 168.673 169.059 168.53 168.899 168.404 168.828 
168.475 168.971 168.649 168.977 169 168.487 168.528 167.999 168.118 
167.608 167.841 167.377 167.68 167.26 167.615 167.248 167.683 167.314 
167.784 167.334 168.361 168.429 167.898 167.934 167.365 167.389 166.817 
166.916 166.416 166.643 166.202 166.517 166.054 166.431 165.925 166.373 
165.85 166.341 165.849 164.908 164.795 164.345 163.492 164.864 164.257 
163.218 162.903 162.238 165.085 164.401 163.236 162.661 161.775 161.668 
161.152 165.35 164.695 163.548 162.773 161.685 161.262 160.566 160.563 
160.06 165.655 165.03 164.009 163.182 162.055 161.333 160.458 160.113 
159.515 159.465 159.002 166.121 165.459 164.554 163.728 162.684 161.839 
160.905 160.246 159.53 159.143 158.64 158.548 158.278 166.71 166.039 
165.195 164.371 163.399 162.538 161.625 160.838 160.077 159.428 158.864 
158.463 158.17 158.078 158.018 167.26 166.641 165.837 165.062 164.159 
163.319 162.472 161.64 160.913 160.138 159.595 158.97 158.678 158.28 
158.197 158.029 158.043 167.731 167.161 166.407 165.703 164.896 164.127 
163.403 162.588 161.951 161.109 160.612 159.874 159.624 159.053 158.98 
158.522 158.484 158.173 158.157 164.769 163.48 164.194 164.443 162.361 
163.014 163.299 164.015 164.367 161.32 161.959 162.175 162.863 163.133 
163.921 164.255 160.174 160.844 160.952 161.645 161.787 162.587 162.889 
163.768 164.166 159.079 159.655 159.727 160.353 160.475 161.216 161.558 
162.43 162.956 163.811 164.364 158.381 158.728 158.828 159.25 159.407 
160.006 160.445 161.256 161.925 162.752 163.423 164.178 164.799 158.115 
158.277 158.4 158.602 158.718 159.1 159.503 160.249 160.997 161.863 
162.612 163.345 163.978 164.677 165.292 158.063 158.146 158.296 158.388 
158.486 158.613 158.867 159.374 160.05 160.927 161.751 162.571 163.231 
163.905 164.507 165.195 165.814 158.086 158.122 158.315 158.405 158.624 
158.614 158.841 158.967 159.484 160.061 160.871 161.685 162.436 163.163 
163.781 164.451 165.077 165.752 166.353 158.166 158.579 158.346 158.458 
159.424 158.991 159.119 158.82 158.897 160.503 159.973 160.082 159.662 
159.729 159.263 159.218 161.639 161.059 161.124 160.677 160.769 160.242 
160.212 159.654 159.795 162.894 162.231 162.266 161.74 161.858 161.335 
161.374 160.779 160.907 160.48 160.981 164.244 163.552 163.585 162.963 
163.08 162.502 162.596 161.991 162.114 161.624 162.011 161.794 162.435 
165.574 164.911 164.939 164.305 164.399 163.796 163.917 163.295 163.434 
162.858 163.168 162.811 163.359 163.2 163.819 166.866 166.228 166.249 
165.623 165.684 165.094 165.219 164.644 164.824 164.236 164.52 164.028 
164.508 164.195 164.799 164.581 165.17 168.088 167.494 167.515 166.908 
166.95 166.352 166.455 165.912 166.11 165.597 165.88 165.391 165.792 
165.4 165.924 165.636 166.19 165.941 166.45 158.279 158.893 158.498 
158.618 159.975 159.345 159.389 159.058 159.452 161.256 160.593 160.687 
160.112 160.428 160.099 160.6 162.547 161.926 162.092 161.516 161.81 
161.295 161.682 161.316 161.798 163.865 163.244 163.408 162.878 163.175 
162.683 163.023 162.536 162.92 162.548 163.052 165.205 164.591 164.765 
164.203 164.525 164.028 164.427 163.915 164.302 163.793 164.22 163.851 
164.385 166.512 165.945 166.172 165.606 165.96 165.441 165.91 165.394 
165.858 165.278 165.681 165.131 165.568 165.191 165.713 167.735 167.242 
167.501 166.999 167.338 166.865 167.307 166.871 167.353 166.855 167.259 
166.664 167.019 166.472 166.896 166.515 167.014 168.812 168.407 168.665 
168.253 168.564 168.152 168.522 168.15 168.575 168.213 168.619 168.162 
168.5 167.952 168.297 167.788 168.201 167.809 168.255 167.778 167.429 
167.221 166.421 167.192 166.883 166.056 165.803 164.983 167.151 166.745 
165.948 165.569 164.779 164.446 163.636 167.241 166.789 166 165.566 
164.782 164.376 163.556 163.149 162.28 167.409 166.927 166.128 165.654 
164.84 164.403 163.563 163.123 162.247 161.811 160.986 167.656 167.148 
166.386 165.849 165.052 164.517 163.691 163.173 162.366 161.88 161.159 
160.701 160.078 167.966 167.451 166.746 166.19 165.461 164.86 164.084 
163.449 162.686 162.12 161.484 161.009 160.459 159.986 159.459 168.328 
167.816 167.157 166.602 165.927 165.341 164.627 163.971 163.221 162.571 
161.904 161.383 160.81 160.362 159.783 159.354 158.836 168.734 168.237 
167.643 167.076 166.438 165.844 165.179 164.548 163.848 163.177 162.497 
161.873 161.254 160.711 160.095 159.615 159.043 158.693 158.325 168.49 
169.477 168.744 168.24 170.531 169.779 169.318 168.513 168.011 171.68 
170.884 170.424 169.61 169.138 168.344 167.931 172.86 172.075 171.624 
170.769 170.306 169.49 169.102 168.338 168.01 173.943 173.23 172.829 
172.009 171.564 170.716 170.325 169.528 169.21 168.456 168.17 174.951 
174.275 173.902 173.169 172.772 171.985 171.592 170.78 170.433 169.661 
169.374 168.637 168.385 175.938 175.293 174.942 174.227 173.868 173.145 
172.796 172.029 171.671 170.887 170.578 169.837 169.59 168.875 168.661 
176.805 176.265 175.979 175.301 174.969 174.251 173.934 173.201 172.875 
172.111 171.795 171.045 170.784 170.07 169.852 169.159 168.976 177.507 
177.077 176.863 176.305 176.011 175.353 175.035 174.333 174.014 173.288 
172.98 172.25 171.976 171.26 171.019 170.326 170.119 169.463 169.312 
177.823 178.09 177.712 177.183 178.336 177.941 177.377 176.997 176.384 
178.608 178.182 177.591 177.181 176.549 176.132 175.442 178.897 178.465 
177.859 177.412 176.745 176.292 175.575 175.141 174.416 179.141 178.73 
178.114 177.676 176.991 176.507 175.762 175.282 174.541 174.108 173.398 
179.386 178.962 178.344 177.907 177.239 176.762 176.033 175.517 174.771 
174.275 173.552 173.107 172.415 179.692 179.247 178.652 178.173 177.524 
177.027 176.327 175.81 175.069 174.546 173.786 173.289 172.548 172.119 
171.438 179.956 179.555 178.981 178.523 177.887 177.367 176.656 176.113 
175.354 174.827 174.041 173.523 172.733 172.255 171.529 171.142 170.516 
180.063 179.731 179.132 178.783 178.159 177.721 177.003 176.458 175.667 
175.106 174.318 173.78 173.005 172.475 171.742 171.274 170.639 170.269 
169.72 179.848 179.083 179.273 178.889 178.253 178.458 178.081 178.322 
177.942 177.319 177.578 177.141 177.439 177.036 177.298 176.798 176.119 
176.515 176.014 176.381 175.914 176.272 175.758 176.022 175.436 174.69 
175.197 174.712 175.133 174.644 175.058 174.581 174.923 174.383 174.632 
174.074 173.201 173.761 173.353 173.796 173.32 173.747 173.307 173.727 
173.267 173.581 173.046 173.291 172.759 171.714 172.301 171.958 172.45 
171.996 172.423 171.956 172.413 171.971 172.404 171.906 172.234 171.692 
171.972 171.484 170.286 170.83 170.496 171.038 170.633 171.099 170.641 
171.07 170.612 171.055 170.596 171.013 170.53 170.881 170.419 170.742 
170.365 169.021 169.448 169.073 169.578 169.214 169.727 169.358 169.805 
169.404 169.782 169.358 169.73 169.318 169.701 169.317 169.684 169.344 
169.702 169.428 180.381 181.006 180.352 179.63 181.444 180.947 180.216 
179.553 178.801 181.338 181.179 180.533 180.068 179.274 178.671 177.864 
180.755 180.82 180.249 180.121 179.347 178.965 178.047 177.549 176.608 
180.095 180.158 179.596 179.622 178.893 178.745 177.793 177.477 176.421 
176.052 175.055 179.482 179.512 178.936 178.956 178.265 178.174 177.273 
177.039 175.976 175.675 174.614 174.365 173.439 178.867 178.885 178.299 
178.319 177.656 177.581 176.752 176.535 175.548 175.223 174.169 173.862 
172.896 172.723 171.898 178.325 178.289 177.696 177.688 177.035 176.983 
176.205 176.049 175.155 174.871 173.888 173.511 172.536 172.228 171.386 
171.228 170.5 177.893 177.809 177.211 177.134 176.481 176.39 175.641 
175.508 174.688 174.491 173.617 173.298 172.378 171.992 171.135 170.837 
170.116 169.936 169.295 180.919 181.775 181.458 181.574 182.448 182.242 
182.402 182.051 181.981 183.172 182.912 183.056 182.751 182.631 182.212 
181.834 183.953 183.681 183.756 183.39 183.21 182.756 182.327 181.824 
181.264 184.382 184.299 184.296 184.024 183.765 183.318 182.868 182.332 
181.786 181.22 180.65 184.487 184.496 184.464 184.348 184.059 183.749 
183.287 182.855 182.34 181.808 181.241 180.648 180.063 184.652 184.594 
184.592 184.453 184.222 183.944 183.512 183.165 182.678 182.286 181.749 
181.237 180.624 180.043 179.444 184.803 184.781 184.773 184.642 184.447 
184.165 183.771 183.395 182.9 182.529 182.006 181.618 181.042 180.56 
179.958 179.423 178.882 184.717 184.798 184.714 184.711 184.464 184.33 
183.931 183.653 183.137 182.76 182.185 181.802 181.23 180.859 180.303 
179.884 179.354 178.888 178.415 184.586 184.231 184.446 184.492 183.733 
183.935 183.845 184.188 184.162 183.115 183.314 183.061 183.39 183.314 
183.742 183.645 182.283 182.573 182.259 182.548 182.391 182.827 182.766 
183.155 182.925 181.262 181.642 181.358 181.684 181.482 181.9 181.805 
182.235 182.026 182.327 181.964 180.183 180.599 180.328 180.707 180.478 
180.926 180.778 181.238 181.001 181.359 180.998 181.303 180.952 179.07 
179.513 179.241 179.641 179.381 179.84 179.654 180.144 179.901 180.298 
179.956 180.298 179.982 180.332 180.054 177.967 178.404 178.163 178.557 
178.299 178.724 178.527 178.999 178.792 179.204 178.911 179.265 178.986 
179.359 179.129 179.473 179.193 176.966 177.359 177.155 177.522 177.285 
177.668 177.473 177.907 177.736 178.148 177.915 178.266 178.009 178.375 
178.163 178.543 178.313 178.618 178.307 176.377 175.457 176.148 176.533 
174.351 175.14 175.565 176.267 176.652 173.208 174.009 174.49 175.257 
175.718 176.411 176.849 172.144 172.923 173.444 174.211 174.733 175.473 
175.978 176.66 177.113 171.058 171.865 172.397 173.197 173.726 174.495 
175.011 175.754 176.226 176.903 177.293 169.954 170.731 171.236 172.095 
172.621 173.453 173.947 174.736 175.205 175.952 176.372 177.036 177.402 
169.01 169.658 170.097 170.898 171.43 172.295 172.819 173.64 174.122 
174.898 175.356 176.083 176.512 177.166 177.561 168.234 168.79 169.17 
169.83 170.326 171.125 171.688 172.518 173.05 173.833 174.321 175.068 
175.533 176.249 176.68 177.338 177.709 167.489 168.041 168.402 168.975 
169.399 170.089 170.615 171.415 171.968 172.774 173.28 174.045 174.512 
175.253 175.689 176.401 176.778 177.429 177.722 177.473 176.534 176.936 
176.758 175.441 175.908 175.7 176.147 175.947 174.247 174.74 174.487 
174.981 174.719 175.238 175.022 172.987 173.486 173.179 173.687 173.377 
173.916 173.653 174.241 174.04 171.649 172.161 171.796 172.314 171.958 
172.513 172.218 172.821 172.592 173.223 172.998 170.306 170.787 170.391 
170.888 170.489 171.041 170.702 171.325 171.054 171.718 171.462 172.11 
171.809 169.121 169.502 169.112 169.52 169.108 169.58 169.202 169.772 
169.453 170.112 169.836 170.522 170.244 170.883 170.595 168.117 168.412 
168.007 168.326 167.896 168.27 167.867 168.327 167.975 168.532 168.243 
168.889 168.659 169.329 169.123 169.75 169.569 167.162 167.43 166.966 
167.249 166.76 167.089 166.645 167.049 166.685 167.152 166.86 167.395 
167.188 167.807 167.671 168.318 168.204 168.829 168.734 178.004 178.117 
178.406 179.122 178.215 178.532 179.297 179.597 180.337 178.313 178.645 
179.437 179.771 180.533 180.799 181.485 178.359 178.727 179.528 179.905 
180.697 180.991 181.689 181.917 182.613 178.294 178.713 179.471 179.917 
180.701 181.103 181.816 182.107 182.775 183.052 183.723 178.083 178.563 
179.254 179.743 180.444 180.955 181.66 182.118 182.771 183.136 183.707 
184.016 184.42 177.738 178.259 178.925 179.44 180.083 180.598 181.266 
181.816 182.502 182.998 183.552 183.896 184.219 184.433 184.532 177.353 
177.859 178.504 179.049 179.689 180.209 180.832 181.375 182.03 182.607 
183.18 183.63 183.952 184.197 184.304 184.425 184.448 176.996 177.455 
178.033 178.576 179.176 179.744 180.309 180.876 181.414 182.025 182.514 
183.093 183.403 183.813 183.944 184.191 184.276 184.413 184.508 178.117 
179.238 178.635 178.541 180.477 179.854 179.772 179.062 178.874 181.651 
181.105 181.086 180.376 180.189 179.397 179.134 182.831 182.3 182.345 
181.677 181.502 180.725 180.421 179.621 179.26 183.998 183.544 183.631 
182.962 182.763 181.972 181.599 180.824 180.384 179.619 179.124 184.646 
184.516 184.594 184.161 183.911 183.181 182.712 181.919 181.404 180.642 
180.078 179.324 178.764 184.639 184.766 184.792 184.749 184.502 184.096 
183.578 182.923 182.351 181.624 181.043 180.258 179.652 178.911 178.425 
184.502 184.586 184.597 184.676 184.533 184.402 183.99 183.572 183.013 
182.447 181.884 181.206 180.616 179.846 179.302 178.621 178.257 184.569 
184.528 184.548 184.533 184.497 184.419 184.199 183.902 183.452 182.981 
182.448 181.917 181.381 180.757 180.21 179.525 179.068 178.48 178.175 
177.542 177.918 177.436 176.759 178.176 177.74 177.105 176.606 175.775 
178.346 177.911 177.243 176.873 176.168 175.568 174.589 178.417 177.99 
177.17 176.857 176.162 175.842 175.037 174.383 173.387 178.314 177.966 
177.038 176.669 175.825 175.63 174.918 174.644 173.793 173.19 172.232 
178.063 177.814 176.991 176.564 175.672 175.302 174.572 174.383 173.707 
173.391 172.529 171.974 171.079 177.844 177.63 177.02 176.631 175.898 
175.367 174.657 174.233 173.645 173.309 172.639 172.176 171.373 170.831 
170.114 177.751 177.534 177.051 176.75 176.17 175.706 175.053 174.536 
173.935 173.468 172.871 172.378 171.692 171.15 170.48 169.985 169.44 
177.706 177.506 177.035 176.797 176.24 175.913 175.269 174.874 174.223 
173.803 173.153 172.687 172 171.497 170.824 170.348 169.754 169.341 
168.81 180.683 180.515 180.909 181.463 180.246 180.667 181.195 181.597 
182.115 179.983 180.398 180.976 181.351 181.918 182.281 182.873 179.757 
180.176 180.833 181.218 181.876 182.201 182.843 183.153 183.723 179.494 
179.943 180.617 181.088 181.817 182.221 182.889 183.187 183.703 183.929 
184.242 179.193 179.646 180.282 180.802 181.517 182.061 182.763 183.187 
183.693 183.91 184.171 184.276 184.408 178.906 179.338 179.943 180.433 
181.077 181.64 182.316 182.895 183.476 183.849 184.163 184.267 184.405 
184.441 184.577 178.61 179.032 179.604 180.084 180.682 181.185 181.784 
182.352 182.953 183.498 183.935 184.226 184.404 184.478 184.565 184.628 
184.725 178.262 178.672 179.172 179.683 180.264 180.784 181.354 181.853 
182.41 182.942 183.451 183.899 184.196 184.41 184.491 184.572 184.593 
184.683 184.68 
POINT_DATA 1002
SCALARS Distance double
LOOKUP_TABLE default
175.761 176.581 175.792 174.82 174.801 174.718 173.64 173.618 173.606 
173.526 172.346 172.365 172.334 172.335 172.41 171.07 171.108 171.039 
171.055 171.166 171.357 169.765 169.807 169.734 169.699 169.804 170.025 
170.249 168.424 168.546 168.409 168.305 168.347 168.65 168.986 169.24 
167.158 167.427 167.143 167.044 166.967 167.248 167.733 168.133 168.434 
165.985 166.395 165.928 165.895 165.769 165.893 166.346 166.856 167.299 
167.693 164.893 165.406 164.757 164.738 164.611 164.613 164.936 165.41 
165.907 166.423 166.922 176.881 176.033 177.222 176.313 177.594 174.998 
176.602 177.871 175.212 173.783 176.804 177.982 175.432 173.977 172.513 
176.896 177.971 175.641 174.22 172.754 171.24 176.868 177.886 175.739 
174.425 173.04 171.561 169.983 176.765 177.792 175.666 174.43 173.143 
171.841 170.402 168.85 176.7 177.722 175.561 174.325 173.067 171.84 
170.633 169.321 167.833 176.674 177.634 175.513 174.253 173.038 171.814 
170.585 169.477 168.288 166.834 176.934 175.77 176.03 174.484 174.823 
174.355 172.991 173.536 172.95 173.083 171.779 172.423 171.661 171.928 
171.944 170.836 171.332 170.644 170.816 170.796 170.574 169.845 170.259 
169.594 169.571 169.477 169.243 169.255 169.024 169.499 168.607 168.319 
168.135 167.982 167.991 168.184 168.482 168.953 167.96 167.436 167.074 
166.926 166.878 166.88 166.882 167.854 168.279 167.363 166.777 166.243 
165.935 165.751 165.539 165.36 165.309 164.01 163.717 162.752 163.697 
162.243 161.725 163.971 162.046 161.042 160.696 164.37 162.308 160.704 
159.957 159.533 164.791 162.871 160.992 159.683 158.91 158.568 165.348 
163.526 161.66 160.07 158.843 158.173 158.098 165.996 164.245 162.432 
160.789 159.377 158.377 157.967 157.993 166.568 164.95 163.285 161.703 
160.252 159.16 158.5 158.131 158.008 167.064 165.594 164.148 162.779 
161.375 160.213 159.503 158.941 158.385 158.082 163.682 162.611 163.609 
161.545 162.373 163.42 160.297 161.02 161.972 163.278 159.142 159.748 
160.662 162.047 163.548 158.481 158.865 159.615 161.066 162.671 164.059 
158.258 158.467 158.827 160.075 161.86 163.312 164.568 158.191 158.444 
158.552 159.229 160.855 162.547 163.841 165.117 158.173 158.585 158.851 
159.125 160.105 161.66 163.107 164.4 165.72 158.248 158.62 158.873 
159.482 159.92 159.26 160.522 161.071 160.247 159.683 161.589 162.261 
161.266 160.8 160.158 162.845 163.578 162.369 161.944 161.382 161.183 
164.235 164.921 163.678 163.197 162.651 162.311 162.544 165.581 166.224 
165.004 164.518 164.04 163.614 163.581 163.955 166.882 167.494 166.287 
165.764 165.378 165.057 164.893 165.053 165.395 168.109 168.664 167.557 
167.009 166.596 166.358 166.228 166.259 166.464 166.713 158.512 158.737 
159.434 159.868 160.625 159.567 161.291 161.857 160.907 160.814 162.635 
163.154 162.356 162.17 162.066 163.948 164.496 163.647 163.525 163.377 
163.32 165.333 165.79 165.017 164.915 164.845 164.686 164.658 166.715 
167.035 166.472 166.394 166.426 166.306 166.053 165.996 167.979 168.194 
167.813 167.732 167.797 167.838 167.637 167.37 167.325 169.051 169.193 
168.968 168.913 168.923 169.008 169.013 168.852 168.671 168.608 167.992 
166.609 167.689 166.353 167.537 165.21 166.349 167.571 165.147 163.985 
166.45 167.705 165.205 163.998 162.687 166.629 167.897 165.309 164.009 
162.686 161.372 166.921 168.154 165.613 164.237 162.829 161.587 160.522 
167.28 168.467 166.039 164.735 163.284 161.948 160.922 159.938 167.704 
168.817 166.491 165.253 163.898 162.483 161.283 160.229 159.186 169.2 
169.043 170.192 170.104 171.3 168.81 171.252 172.49 169.92 168.69 
172.486 173.61 171.14 169.864 168.757 173.599 174.626 172.407 171.148 
169.968 168.911 174.606 175.627 173.508 172.405 171.229 170.108 169.107 
175.652 176.539 174.574 173.529 172.457 171.33 170.301 169.365 176.609 
177.27 175.683 174.655 173.621 172.55 171.508 170.547 169.646 177.357 