# vtk DataFile Version 4.0
vtk output
ASCII
DATASET POLYDATA
POINTS 1002 float
-104.22 -115.279 75.4669 -104.955 -116.33 75.2073 -104.555 -116.058 74.3288 
-103.772 -114.896 74.562 -104.193 -115.548 73.3241 -103.465 -114.026 75.6805 
-103.488 -114.156 73.5151 -103.868 -114.784 72.2612 -103.189 -113.285 74.684 
-102.969 -112.293 75.7541 -103.287 -113.082 72.4029 -103.579 -113.818 71.1988 
-103.09 -112.159 73.6092 -102.851 -111.188 74.6898 -102.682 -110.189 75.7431 
-103.057 -111.844 71.3303 -103.404 -112.633 70.2075 -102.813 -110.955 72.5515 
-102.498 -110.118 73.7134 -102.214 -109.236 74.806 -102.122 -108.276 75.801 
-102.801 -110.633 70.3248 -103.277 -111.36 69.2724 -102.282 -109.936 71.5009 
-101.713 -109.379 72.7291 -101.262 -108.7 73.9672 -101.135 -107.771 75.0741 
-101.152 -106.842 76.0072 -102.384 -109.667 69.2659 -102.973 -110.273 68.3242 
-101.692 -109.134 70.381 -100.934 -108.755 71.579 -100.354 -108.225 72.886 
-100.187 -107.308 74.1608 -100.261 -106.297 75.2658 -100.24 -105.492 76.2943 
-101.776 -108.875 68.1896 -102.541 -109.302 67.4711 -101.073 -108.427 69.1965 
-100.427 -107.964 70.3478 -99.9475 -107.337 71.6108 -99.769 -106.397 72.9223 
-99.8296 -105.334 74.1422 -99.8473 -104.468 75.3195 -99.7431 -103.83 76.4892 
-101.306 -107.949 67.321 -102.226 -108.247 66.843 -100.595 -107.554 68.1404 
-100.125 -106.945 69.2078 -99.8556 -106.097 70.4128 -99.7093 -105.123 71.6849 
-99.6498 -104.143 72.9219 -99.64 -103.27 74.1101 -99.6049 -102.581 75.3267 
-99.5702 -102.033 76.4859 -101.164 -106.888 66.6888 -102.08 -107.201 66.3588 
-100.477 -106.461 67.3326 -100.073 -105.773 68.2583 -99.8742 -104.804 69.3583 
-99.7275 -103.814 70.5489 -99.5324 -103.015 71.7825 -99.3533 -102.308 73.0019 
-99.308 -101.604 74.1789 -99.3808 -100.973 75.3163 -99.4961 -100.449 76.3452 
-105.364 -117.317 74.4257 -105.076 -116.879 73.3725 -105.775 -118.384 73.5336 
-105.618 -117.721 72.3456 -106.276 -119.303 72.4476 -104.806 -116.156 72.2912 
-106.214 -118.497 71.2726 -107.077 -119.794 71.2308 -105.499 -116.747 71.3272 
-104.483 -115.311 71.2658 -107.024 -118.951 70.2408 -108.245 -119.821 70.2646 
-106.205 -117.391 70.3877 -105.273 -115.763 70.4023 -104.154 -114.372 70.243 
-108.122 -118.934 69.4185 -109.529 -119.63 69.6113 -106.995 -117.846 69.3794 
-106.065 -116.266 69.4437 -104.937 -114.73 69.3612 -103.939 -113.162 69.2431 
-109.35 -118.678 68.6698 -110.655 -119.405 68.8146 -108.005 -117.886 68.4668 
-106.872 -116.667 68.3707 -105.758 -115.077 68.3755 -104.641 -113.484 68.3546 
-103.788 -111.842 68.3248 -110.507 -118.396 67.8096 -111.597 -119.085 67.8448 
-109.204 -117.636 67.7342 -107.862 -116.725 67.5606 -106.64 -115.405 67.4547 
-105.508 -113.811 67.511 -104.529 -112.195 67.5697 -103.609 -110.635 67.5307 
-111.509 -118.014 67.0417 -112.464 -118.592 67.0977 -110.381 -117.246 67.0976 
-109.01 -116.426 67.0238 -107.629 -115.464 66.7929 -106.467 -114.136 66.7312 
-105.514 -112.525 66.9022 -104.568 -110.881 67.0088 -103.435 -109.418 66.9383 
-112.376 -117.508 66.5076 -113.31 -118.001 66.6273 -111.362 -116.789 66.523 
-110.099 -115.991 66.4771 -108.653 -115.237 66.2008 -107.37 -114.272 65.9686 
-106.441 -112.827 66.1261 -105.617 -111.094 66.4768 -104.554 -109.475 66.616 
-103.27 -108.19 66.5024 -113.537 -117.123 66.0547 -112.473 -116.5 65.946 
-113.654 -116.181 65.3022 -112.397 -115.521 65.0799 -113.604 -115.181 64.4276 
-111.268 -115.735 65.8188 -112.203 -114.619 64.0384 -113.405 -114.025 63.7074 
-111.005 -114.905 64.7129 -109.815 -115.032 65.5083 -111.939 -113.429 63.2616 
-113.036 -112.649 63.2749 -110.714 -114.066 63.6726 -109.445 -114.272 64.358 
-108.307 -114.275 65.161 -111.548 -111.74 62.9294 -112.546 -111.137 63.1449 
-110.424 -112.522 63.1703 -109.167 -113.076 63.7173 -108.01 -113.128 64.385 
-107.164 -112.972 65.2358 -111.148 -109.955 63.0554 -112.148 -109.531 63.3668 
-110.108 -110.465 63.1158 -108.997 -111.088 63.6052 -107.868 -111.377 64.2317 
-106.994 -111.249 64.9454 -106.35 -111.102 65.7697 -110.898 -108.288 63.5573 
-111.884 -107.772 63.7786 -109.849 -108.642 63.443 -108.83 -109.012 63.676 
-107.785 -109.325 64.2511 -106.797 -109.327 64.9312 -106.042 -109.193 65.6149 
-105.358 -109.244 66.2077 -110.658 -106.507 64.09 -111.547 -105.93 64.1454 
-109.607 -106.931 64.0117 -108.535 -107.158 63.9918 -107.501 -107.33 64.262 
-106.464 -107.459 64.7816 -105.517 -107.502 65.3311 -104.748 -107.581 65.8178 
-104.021 -107.822 66.2021 -110.263 -104.606 64.4261 -111.036 -104.217 64.4547 
-109.276 -104.981 64.4414 -108.121 -105.177 64.4038 -106.965 -105.255 64.425 
-105.913 -105.443 64.6105 -104.929 -105.807 64.8756 -104.049 -106.184 65.1796 
-103.323 -106.487 65.5551 -102.677 -106.806 65.9589 -101.448 -105.997 65.9804 
-101.941 -105.619 65.3729 -100.991 -104.541 65.5801 -102.549 -105.215 64.8355 
-101.364 -104.06 64.8129 -100.662 -102.562 65.3026 -103.359 -104.571 64.5411 
-102.009 -103.385 64.2691 -101.018 -101.79 64.5706 -100.518 -100.129 65.2705 
-104.295 -103.767 64.4964 -102.932 -102.451 64.102 -101.808 -100.944 64.1001 
-101.013 -99.1545 64.6626 -100.697 -97.8364 65.4181 -105.312 -103.205 64.5237 
-103.921 -101.583 64.1828 -102.89 -100.186 63.861 -101.934 -98.4224 64.1266 
-101.278 -96.9098 64.8182 -100.917 -96.087 65.5766 -106.568 -103.015 64.5533 
-105.096 -101.064 64.3042 -104.056 -99.613 63.8207 -103.146 -97.9454 63.6894 
-102.202 -96.2369 64.1572 -101.474 -95.2612 64.908 -100.854 -94.625 65.6564 
-107.946 -102.949 64.5906 -106.558 -100.842 64.4187 -105.408 -99.1894 63.9978 
-104.455 -97.5996 63.6813 -103.459 -95.808 63.8021 -102.469 -94.5673 64.3342 
-101.591 -93.9175 65.0408 -100.83 -93.2009 65.7646 -109.108 -102.833 64.6163 
-107.906 -100.833 64.5747 -106.789 -99.0324 64.3384 -105.747 -97.4446 64.1325 
-104.738 -95.7514 64.1289 -103.776 -94.298 64.353 -102.835 -93.4268 64.799 
-101.942 -92.7353 65.4166 -101.245 -91.9791 66.1395 -109.976 -102.714 64.6951 
-108.885 -100.996 64.8232 -107.872 -99.2503 64.7886 -106.869 -97.6326 64.7396 
-105.857 -96.0567 64.8087 -104.972 -94.5826 64.9435 -104.178 -93.4483 65.1507 
-103.34 -92.5765 65.542 -102.548 -91.7873 66.1265 -101.969 -91.1477 66.8462 
-100.734 -105.445 66.4644 -100.519 -103.608 66.2562 -100.286 -104.679 67.263 
-100.313 -101.376 66.1177 -100.174 -102.55 67.1861 -99.9988 -103.658 68.2792 
-100.235 -99.0577 66.126 -99.8761 -100.372 67.1092 -99.7416 -101.507 68.2314 
-99.7378 -102.604 69.3982 -100.374 -97.0175 66.255 -99.6641 -98.2582 67.1198 
-99.2609 -99.5256 68.1496 -99.3325 -100.678 69.3207 -99.4566 -101.849 70.6147 
-100.332 -95.2127 66.3673 -99.6199 -96.1226 67.1986 -98.9979 -97.3767 68.1591 
-98.957 -98.7236 69.2642 -99.1059 -100.078 70.6237 -99.1577 -101.3 71.9719 
-100.131 -93.4937 66.4294 -99.5285 -94.0642 67.2719 -99.0053 -95.0957 68.2738 
-98.8875 -96.4246 69.406 -98.9953 -97.925 70.7556 -98.9235 -99.4574 72.1953 
-98.9748 -100.661 73.3337 -100.338 -92.0549 66.6629 -99.6522 -92.419 67.4633 
-99.1884 -93.2275 68.5167 -99.0125 -94.3309 69.7475 -99.038 -95.6071 71.102 
-98.937 -97.1893 72.498 -98.8332 -98.7735 73.6717 -99.0445 -99.9626 74.5386 
-101.058 -91.1121 67.2501 -100.262 -91.3529 67.963 -99.6697 -91.9883 68.9846 
-99.3105 -92.8837 70.2282 -99.1388 -93.8383 71.5603 -99.0025 -95.0702 72.8564 
-98.886 -96.6841 73.97 -98.9828 -98.1967 74.8353 -99.2675 -99.3614 75.5883 
-102.216 -90.5519 67.9797 -101.366 -90.6125 68.5812 -102.455 -90.0777 69.3182 
-101.628 -90.1884 70.1669 -102.623 -89.4591 70.678 -100.573 -90.9994 69.523 
-101.879 -89.6755 71.6689 -103.017 -88.9568 72.0277 -100.853 -90.6132 71.2631 
-99.9286 -91.719 70.727 -102.486 -89.5756 73.0248 -103.792 -89.0942 73.4854 
-101.272 -90.2685 72.7638 -100.204 -91.3649 72.4633 -99.4682 -92.5664 72.035 
-103.288 -89.9602 74.4682 -104.533 -89.5288 74.9993 -101.995 -90.4205 74.1254 
-100.742 -91.2412 73.9032 -99.7383 -92.3596 73.6458 -99.1799 -93.5667 73.2914 
-103.825 -90.1881 75.9899 -105.02 -89.8243 76.3931 -102.607 -90.7041 75.6104 
-101.443 -91.4673 75.2843 -100.372 -92.4913 74.9949 -99.5175 -93.638 74.7172 
-99.0527 -95.0062 74.3781 -104.268 -90.4242 77.373 -105.511 -90.3065 77.6005 
-103.031 -90.8655 77.0687 -101.991 -91.6661 76.6711 -101.105 -92.7143 76.2683 
-100.208 -93.8643 75.9597 -99.4848 -95.1578 75.6513 -99.1193 -96.6451 75.2634 
-104.87 -91.1009 78.5189 -106.111 -91.1166 78.6141 -103.61 -91.3511 78.3288 
-102.564 -92.0025 77.9316 -101.782 -92.9542 77.4342 -100.958 -94.0269 77.089 
-100.099 -95.2369 76.8363 -99.5575 -96.6084 76.4769 -99.3443 -98.0227 76.0395 
-105.513 -91.9619 79.4317 -106.69 -91.9557 79.444 -104.303 -92.1182 79.3737 
-103.246 -92.6118 79.0843 -102.475 -93.4206 78.5591 -101.735 -94.3481 78.1079 
-100.833 -95.3699 77.8527 -100.09 -96.5751 77.5697 -99.7278 -97.8986 77.1868 
-99.5734 -99.2139 76.7843 -103.048 -90.8968 67.3048 -103.265 -90.3072 68.4633 
-104.165 -90.7373 67.8621 -104.432 -90.1035 68.9152 -105.445 -90.6438 68.2998 
-103.489 -89.6754 69.6653 -105.893 -90.0422 69.3108 -106.881 -90.7695 68.6875 
-104.863 -89.3196 70.0053 -103.816 -88.8321 70.9436 -107.373 -90.3105 69.8401 
-108.142 -91.2197 69.2424 -106.527 -89.3334 70.5161 -105.497 -88.4134 71.4121 
-104.465 -88.3408 72.4906 -108.576 -90.7731 70.4417 -109.24 -91.8078 69.8177 
-107.922 -89.8296 71.181 -107.218 -88.7005 72.0857 -106.238 -88.0995 73.1758 
-105.264 -88.6275 74.1781 -109.824 -91.2771 70.8611 -110.389 -92.4789 70.2411 
-109.117 -90.3821 71.6696 -108.527 -89.517 72.6331 -107.838 -88.6841 73.7387 
-106.841 -88.5914 74.8073 -105.852 -89.2028 75.6602 -111.084 -92.0665 71.2307 
-111.38 -93.3497 70.6795 -110.511 -90.9611 71.9703 -109.844 -90.1888 72.9323 
-109.216 -89.5854 74.0471 -108.366 -89.2451 75.1549 -107.301 -89.3928 76.1178 
-106.331 -89.8223 76.9098 -111.974 -93.115 71.7193 -112.121 -94.2525 71.1791 
-111.707 -91.9094 72.3483 -111.237 -90.888 73.2111 -110.643 -90.2463 74.3306 
-109.888 -89.9794 75.4769 -108.889 -90.0066 76.4751 -107.837 -90.2413 77.322 
-106.918 -90.6246 78.0244 -112.645 -94.0199 72.1676 -112.843 -94.9641 71.5766 
[...]
CELL_DATA 2000
SCALARS Distance double
LOOKUP_TABLE default
172.181 171.276 171.53 171.054 170.185 170.52 170.009 170.29 169.726 
168.935 169.32 168.771 169.125 168.511 168.83 168.204 167.598 167.983 
167.382 167.786 167.16 167.531 166.888 167.241 166.625 166.257 166.607 
165.961 166.352 165.735 166.14 165.536 165.913 165.327 165.685 165.132 
164.934 165.257 164.593 164.948 164.33 164.726 164.158 164.563 164.012 
164.398 163.869 164.245 163.758 163.627 163.923 163.243 163.591 162.965 
163.35 162.774 163.186 162.63 163.05 162.503 162.935 162.43 162.877 
162.433 162.397 162.628 161.93 162.249 161.625 161.994 161.405 161.801 
161.227 161.644 161.084 161.522 161.002 161.477 161.025 161.533 161.142 
161.333 161.469 160.778 161.008 160.404 160.701 160.121 160.456 159.885 
160.26 159.728 160.135 159.655 160.083 159.663 160.13 159.778 160.282 
159.972 172.717 173.258 172.603 171.813 173.768 173.108 172.237 171.598 
170.727 174.183 173.57 172.681 172.008 171.086 170.443 169.517 174.534 
173.955 173.119 172.458 171.53 170.831 169.874 169.202 168.235 174.895 
174.31 173.489 172.876 171.966 171.281 170.283 169.574 168.559 167.891 
166.904 175.207 174.655 173.795 173.214 172.305 171.669 170.656 169.954 
168.889 168.202 167.177 166.547 165.578 175.353 174.898 174.057 173.506 
172.611 171.992 171.016 170.317 169.278 168.552 167.544 166.856 165.895 
165.247 164.307 175.359 174.993 174.228 173.748 172.89 172.305 171.365 
170.696 169.715 168.996 168.043 167.316 166.399 165.666 164.735 164.025 
163.113 175.329 175.001 174.291 173.885 173.062 172.547 171.618 171.021 
170.057 169.42 168.493 167.836 166.945 166.236 165.32 164.552 163.617 
162.888 162.036 175.1 174.33 174.501 174.02 173.37 173.607 173.06 
173.302 172.75 172.273 172.554 171.967 172.236 171.628 171.9 171.282 
171.035 171.381 170.802 171.107 170.476 170.729 170.07 170.351 169.723 
169.649 170.032 169.421 169.845 169.225 169.551 168.852 169.119 168.455 
168.778 168.185 168.325 168.619 167.934 168.353 167.739 168.186 167.516 
167.855 167.142 167.475 166.851 167.238 166.656 167.178 167.396 166.707 
166.951 166.317 166.686 166.076 166.458 165.768 166.111 165.419 165.825 
165.201 165.644 165.017 166.006 166.291 165.637 165.835 165.128 165.365 
164.673 165.015 164.307 164.678 163.932 164.331 163.628 164.092 163.44 
163.922 163.289 164.703 165.056 164.388 164.685 163.881 164.126 163.241 
163.55 162.69 163.105 162.299 162.756 162.013 162.487 161.827 162.316 
161.727 162.217 161.693 160.756 160.691 160.246 159.342 160.71 160.164 
159.117 158.741 157.794 160.807 160.163 158.996 158.495 157.388 157.063 
156.096 160.993 160.244 158.985 158.38 157.203 156.713 155.643 155.352 
154.558 161.36 160.469 159.151 158.415 157.258 156.652 155.579 155.062 
154.192 153.979 153.442 161.996 160.975 159.656 158.723 157.591 156.862 
155.856 155.18 154.24 153.768 153.117 153.003 152.554 162.742 161.742 
160.481 159.416 158.279 157.388 156.435 155.632 154.704 153.986 153.225 
152.826 152.337 152.179 151.735 163.334 162.492 161.332 160.321 159.21 
158.234 157.308 156.401 155.557 154.663 153.925 153.203 152.716 152.247 
151.91 151.556 151.242 163.746 163.046 162.034 161.163 160.164 159.222 
158.35 157.413 156.655 155.708 155.06 154.171 153.719 152.985 152.706 
152.099 151.893 151.391 151.285 160.557 159.199 159.903 159.988 157.715 
158.519 158.634 159.4 159.585 156.071 156.959 157.116 157.987 158.173 
159.005 159.245 154.575 155.344 155.518 156.403 156.611 157.511 157.748 
158.65 158.956 153.471 154.025 154.133 154.858 155.04 155.908 156.179 
157.119 157.481 158.416 158.813 152.502 152.979 152.938 153.538 153.593 
154.371 154.632 155.572 156.021 156.99 157.48 158.368 158.802 151.526 
151.917 151.746 152.289 152.256 152.96 153.192 154.086 154.587 155.582 
156.17 157.099 157.606 158.421 158.854 150.929 151.033 150.863 151.185 
151.233 151.761 152.073 152.8 153.339 154.231 154.87 155.814 156.404 
157.267 157.76 158.531 158.988 150.981 150.774 150.699 150.684 150.869 
151.097 151.533 151.982 152.559 153.189 153.817 154.606 155.24 156.095 
156.678 157.481 157.994 158.73 159.209 151.182 151.613 151.199 150.922 
152.112 151.74 151.536 151.133 151.095 152.622 152.265 152.19 151.832 
151.848 151.514 151.725 153.577 152.98 152.963 152.53 152.619 152.294 
152.502 152.266 152.651 154.973 154.215 154.175 153.521 153.602 153.134 
153.353 153.046 153.396 153.237 153.772 156.255 155.589 155.488 154.832 
154.851 154.275 154.468 154.014 154.357 154.045 154.547 154.433 155.112 
157.405 156.75 156.621 156.024 156.019 155.502 155.675 155.217 155.534 
155.128 155.578 155.309 155.921 155.838 156.55 158.7 157.961 157.862 
157.177 157.201 156.639 156.834 156.388 156.698 156.302 156.681 156.363 
156.861 156.688 157.305 157.249 157.891 160.028 159.315 159.234 158.521 
158.551 157.915 158.108 157.589 157.899 157.454 157.798 157.421 157.826 
157.585 158.103 157.996 158.583 158.533 159.116 151.592 152.411 151.954 
151.96 153.339 152.805 152.714 152.325 152.35 154.46 153.809 153.674 
153.113 153.034 152.661 152.779 155.793 155.062 154.977 154.24 154.155 
153.511 153.615 153.257 153.698 157.151 156.44 156.411 155.679 155.676 
154.889 154.998 154.368 154.788 154.475 155.113 158.5 157.787 157.761 
157.097 157.178 156.488 156.645 155.941 156.259 155.735 156.248 155.939 
156.465 159.909 159.181 159.175 158.469 158.578 157.951 158.186 157.569 
157.873 157.266 157.652 157.158 157.611 157.227 157.673 161.262 160.612 
160.658 159.95 160.058 159.393 159.647 159.067 159.431 158.853 159.238 
158.644 159.056 158.517 158.969 158.509 158.981 162.434 161.9 161.973 
161.382 161.491 160.875 161.096 160.532 160.895 160.373 160.79 160.233 
160.638 160.054 160.466 159.921 160.355 159.876 160.308 163.665 163.212 
162.97 162.04 162.936 162.602 161.634 161.314 160.309 162.642 162.337 
161.369 161 159.976 159.605 158.588 162.316 162.012 161.069 160.731 
159.714 159.328 158.29 157.921 156.926 162.161 161.761 160.843 160.454 
159.477 159.075 158.07 157.671 156.702 156.327 155.408 162.156 161.712 
160.825 160.355 159.425 158.935 157.974 157.511 156.601 156.191 155.347 
154.94 154.14 162.185 161.75 160.914 160.433 159.559 159.021 158.096 
157.539 156.633 156.159 155.351 154.95 154.198 153.796 153.097 162.295 
161.841 161.067 160.574 159.758 159.223 158.361 157.771 156.885 156.304 
155.485 155.006 154.289 153.883 153.217 152.833 152.237 162.506 162.046 
161.336 160.81 160.034 159.474 158.668 158.089 157.286 156.671 155.889 
155.284 154.585 154.069 153.475 153.029 152.499 152.091 151.641 164.556 
165.765 164.802 164.152 167.11 166.106 165.488 164.497 163.892 168.533 
167.523 166.914 165.883 165.234 164.233 163.583 169.931 168.96 168.352 
167.317 166.626 165.574 164.865 163.874 163.237 171.188 170.306 169.709 
168.726 168.033 166.968 166.244 165.193 164.552 163.587 163.066 172.237 
171.46 170.882 170.013 169.372 168.375 167.674 166.608 165.958 164.953 
164.415 163.492 163.031 173.15 172.433 171.879 171.105 170.541 169.677 
169.048 168.042 167.366 166.348 165.754 164.825 164.318 163.447 163.007 
174.022 173.345 172.826 172.077 171.557 170.794 170.259 169.376 168.729 
167.726 167.073 166.12 165.578 164.705 164.247 163.421 163.052 174.828 
174.229 173.76 173.036 172.511 171.781 171.281 170.521 169.951 169.042 
168.39 167.425 166.851 165.957 165.497 164.659 164.272 163.491 163.194 
175.112 175.15 174.808 174.057 175.031 174.745 173.962 173.615 172.794 
174.84 174.561 173.769 173.455 172.637 172.323 171.54 174.696 174.384 
173.6 173.265 172.446 172.131 171.322 171.045 170.217 174.614 174.276 
173.506 173.142 172.311 171.95 171.093 170.78 169.902 169.615 168.698 
174.563 174.209 173.43 173.065 172.223 171.832 170.934 170.557 169.647 
169.305 168.396 168.075 167.193 174.483 174.146 173.34 172.978 172.119 
171.729 170.809 170.406 169.473 169.093 168.187 167.833 166.966 166.647 
165.845 174.283 174.015 173.209 172.872 172.001 171.61 170.677 170.267 
169.322 168.932 168.015 167.651 166.771 166.442 165.625 165.346 164.611 
173.944 173.756 172.994 172.716 171.878 171.5 170.584 170.152 169.22 
168.8 167.897 167.502 166.622 166.256 165.431 165.13 164.402 164.162 
163.526 173.469 172.416 172.833 172.545 171.235 171.717 171.423 171.835 
171.446 169.903 170.45 170.142 170.633 170.226 170.626 170.142 168.46 
169.033 168.7 169.263 168.865 169.337 168.848 169.252 168.762 166.986 
167.545 167.17 167.753 167.369 167.919 167.474 167.931 167.442 167.868 
167.423 165.49 166.053 165.654 166.213 165.823 166.396 165.997 166.525 
166.064 166.524 166.045 166.517 166.112 163.97 164.546 164.175 164.72 
164.341 164.884 164.503 165.042 164.618 165.113 164.643 165.115 164.69 
165.214 164.9 162.501 163.05 162.707 163.256 162.898 163.438 163.06 
163.582 163.168 163.665 163.229 163.712 163.323 163.827 163.543 164.091 
163.895 161.151 161.632 161.269 161.795 161.426 161.98 161.604 162.145 
161.735 162.237 161.814 162.309 161.953 162.484 162.242 162.796 162.636 
163.187 163.059 173.822 173.971 173.523 172.753 174.054 173.625 172.815 
172.391 171.572 174.014 173.632 172.801 172.413 171.553 171.135 170.252 
173.871 173.505 172.643 172.322 171.449 171.069 170.136 169.737 168.816 
173.7 173.324 172.391 172.076 171.153 170.847 169.867 169.536 168.566 
168.245 167.331 173.414 173.113 172.115 171.769 170.725 170.424 169.367 
169.115 168.101 167.883 166.936 166.704 165.797 172.895 172.732 171.743 
171.427 170.312 169.956 168.841 168.553 167.524 167.324 166.367 166.197 
165.265 165.096 164.213 172.253 172.164 171.266 171.009 169.956 169.575 
168.501 168.122 167.125 166.815 165.863 165.615 164.671 164.491 163.603 
163.493 162.702 171.66 171.574 170.791 170.572 169.65 169.29 168.314 
167.906 166.96 166.559 165.605 165.219 164.242 163.942 163.041 162.882 
162.115 162.044 161.362 174.542 175.75 175.015 174.743 177.01 176.267 
176.01 175.221 174.878 178.303 177.558 177.352 176.547 176.241 175.361 
174.919 179.609 178.899 178.727 177.924 177.681 176.802 176.397 175.394 
174.855 180.621 180.142 179.954 179.25 178.941 178.175 177.775 176.876 
176.304 175.286 174.678 180.976 180.849 180.644 180.23 179.771 179.188 
178.629 177.983 177.338 176.558 175.834 174.972 174.295 180.91 180.906 
180.698 180.563 180.092 179.714 179.028 178.526 177.781 177.239 176.468 
175.844 175.071 174.385 173.666 180.959 180.819 180.59 180.473 180.096 
179.85 179.251 178.807 178.074 177.55 176.813 176.275 175.54 174.961 
174.229 173.621 172.939 181.214 180.967 180.697 180.46 180.119 179.872 
179.405 179.031 178.409 177.896 177.219 176.66 175.996 175.414 174.742 
174.136 173.473 172.884 172.284 181.272 181.022 181.029 180.701 180.514 
180.658 180.338 180.374 180.029 179.764 180.027 179.718 179.884 179.512 
179.621 179.244 178.835 179.181 178.871 179.145 178.759 178.959 178.528 
178.704 178.243 177.789 178.187 177.893 178.232 177.835 178.088 177.611 
177.851 177.37 177.586 177.074 176.664 177.094 176.81 177.21 176.828 
177.113 176.605 176.851 176.355 176.634 176.161 176.385 175.865 175.488 
175.93 175.626 176.075 175.716 176.068 175.577 175.83 175.319 175.598 
175.147 175.43 174.941 175.152 174.61 174.311 174.738 174.416 174.863 
174.512 174.916 174.466 174.777 174.278 174.568 174.111 174.41 173.938 
174.186 173.646 173.86 173.329 173.188 173.585 173.271 173.676 173.331 
173.721 173.303 173.645 173.176 173.499 173.04 173.362 172.891 173.167 
172.645 172.877 172.357 172.597 172.141 172.478 171.378 172.15 172.547 
170.089 170.976 171.392 172.19 172.57 168.609 169.598 170.049 170.956 
171.343 172.158 172.502 167.023 168.044 168.512 169.529 169.949 170.856 
171.206 172.036 172.369 165.478 166.428 166.845 167.907 168.356 169.381 
169.767 170.684 171.038 171.892 172.241 164.095 164.927 165.27 166.237 
166.677 167.734 168.177 169.185 169.568 170.503 170.862 171.746 172.074 
162.82 163.601 163.922 164.759 165.173 166.125 166.609 167.604 168.046 
169.002 169.383 170.308 170.656 171.538 171.833 161.555 162.333 162.657 
163.465 163.857 164.729 165.198 166.126 166.593 167.518 167.938 168.847 
169.241 170.125 170.483 171.308 171.601 160.356 161.079 161.378 162.179 
162.543 163.413 163.844 164.756 165.194 166.103 166.517 167.427 167.852 
168.757 169.18 170.022 170.387 171.142 171.442 171.137 170.059 170.508 
170.248 168.809 169.321 169.01 169.488 169.108 167.399 167.933 167.553 
168.118 167.72 168.232 167.797 165.998 166.456 165.974 166.538 166.109 
166.726 166.315 166.874 166.445 164.668 165.059 164.504 164.961 164.467 
165.051 164.617 165.265 164.827 165.45 165.01 163.307 163.694 163.094 
163.514 162.965 163.46 162.975 163.547 163.074 163.706 163.246 163.928 
163.545 161.963 162.297 161.638 162.048 161.455 161.953 161.448 161.974 
161.496 162.023 161.578 162.169 161.833 162.527 162.323 160.793 161.014 
160.328 160.618 159.994 160.421 159.919 160.448 160.013 160.534 160.124 
160.641 160.33 160.931 160.775 161.473 161.424 159.817 159.955 159.303 
159.455 158.842 159.091 158.594 158.995 158.604 159.093 158.732 159.241 
158.927 159.499 159.317 159.991 159.939 160.673 160.683 175.996 176.063 
176.372 177.11 176.142 176.485 177.246 177.561 178.364 176.059 176.539 
177.348 177.711 178.474 178.811 179.571 175.707 176.318 177.151 177.701 
178.475 178.884 179.58 179.93 180.552 175.291 175.879 176.666 177.327 
178.157 178.754 179.494 179.911 180.496 180.787 181.199 174.968 175.497 
176.242 176.823 177.639 178.311 179.134 179.72 180.343 180.703 181.082 
181.288 181.497 174.567 175.155 175.872 176.43 177.141 177.769 178.516 
179.209 179.848 180.397 180.775 181.101 181.307 181.497 181.628 173.984 
174.633 175.281 175.932 176.53 177.181 177.755 178.463 179.002 179.695 
180.084 180.617 180.843 181.207 181.363 181.594 181.68 173.35 173.962 
174.526 175.196 175.732 176.414 176.905 177.595 178.049 178.747 179.136 
179.78 180.063 180.594 180.781 181.186 181.284 181.547 181.529 176.193 
177.337 176.797 176.879 178.63 178.055 178.147 177.511 177.469 179.873 
179.381 179.485 178.827 178.704 177.982 177.74 180.83 180.511 180.612 
180.079 179.892 179.175 178.833 178.119 177.785 181.373 181.239 181.274 
180.966 180.744 180.203 179.833 179.18 178.818 178.136 177.751 181.573 
181.537 181.46 181.331 181.074 180.795 180.475 180.055 179.733 179.149 
178.714 177.998 177.436 181.676 181.621 181.468 181.343 181.044 180.904 
180.653 180.503 180.298 179.947 179.525 178.875 178.2 177.476 176.799 
181.742 181.704 181.54 181.36 181.045 180.854 180.634 180.574 180.495 
180.369 180.069 179.575 178.889 178.163 177.405 176.765 176.188 181.605 
181.684 181.544 181.438 181.146 180.934 180.703 180.595 180.549 180.51 
180.347 180.032 179.449 178.8 178.025 177.356 176.739 176.212 175.767 
175.633 176.256 175.613 174.909 176.793 176.211 175.479 174.819 174.003 
177.061 176.627 175.912 175.345 174.508 173.825 172.912 177.106 176.762 
176.061 175.646 174.831 174.26 173.312 172.647 171.662 177.024 176.729 
175.979 175.655 174.841 174.432 173.513 172.964 171.966 171.329 170.318 
176.699 176.534 175.752 175.492 174.653 174.326 173.435 173.031 172.083 
171.566 170.577 169.965 169.001 176.15 176.09 175.378 175.205 174.415 
174.124 173.259 172.897 171.983 171.572 170.616 170.136 169.166 168.642 
167.749 175.633 175.56 174.933 174.81 174.109 173.886 173.085 172.749 
171.861 171.456 170.514 170.083 169.113 168.676 167.733 167.33 166.475 
175.242 175.131 174.511 174.385 173.703 173.549 172.8 172.559 171.724 
171.362 170.451 170.007 169.06 168.596 167.656 167.231 166.343 165.99 
165.168 174.618 175.025 175.171 175.831 175.267 175.54 176.282 176.426 
177.089 175.331 175.697 176.478 176.789 177.525 177.681 178.347 175.349 
175.713 176.469 176.869 177.634 177.979 178.708 178.92 179.586 175.437 
175.752 176.503 176.857 177.622 178 178.742 179.105 179.779 180.048 
180.551 175.594 175.879 176.665 176.973 177.793 178.088 178.843 179.12 
179.752 180.048 180.506 180.739 180.937 175.752 176.036 176.809 177.152 
178.024 178.355 179.157 179.349 179.919 180.044 180.427 180.593 180.819 
180.931 180.973 175.804 176.121 176.806 177.21 178.048 178.518 179.348 
179.655 180.176 180.247 180.499 180.554 180.764 180.865 181.045 181.042 
181.119 175.701 176.052 176.646 177.083 177.845 178.407 179.236 179.707 
180.235 180.397 180.547 180.579 180.689 180.82 181.047 181.172 181.377 
181.327 181.414 
POINT_DATA 1002
SCALARS Distance double
LOOKUP_TABLE default
171.761 172.794 171.991 170.841 171 170.565 169.722 169.838 169.468 
169.15 168.405 168.566 168.191 167.878 167.589 166.982 167.249 166.766 
166.528 166.261 166.028 165.594 165.931 165.313 165.129 164.955 164.768 
164.602 164.249 164.626 163.94 163.739 163.609 163.476 163.366 163.309 
162.896 163.359 162.586 162.373 162.214 162.07 161.967 161.96 162.034 
161.629 162.204 161.267 161.025 160.82 160.653 160.535 160.509 160.611 
160.787 160.575 161.222 160.131 159.816 159.529 159.313 159.224 159.21 
159.275 159.451 159.68 173.368 172.451 173.958 172.918 174.433 171.345 
173.364 174.755 171.765 170.15 173.749 175.1 172.247 170.581 168.892 
174.085 175.504 172.635 171.018 169.252 167.534 174.378 175.742 172.925 
171.358 169.595 167.822 166.179 174.578 175.743 173.217 171.695 169.999 
168.242 166.57 164.938 174.66 175.676 173.45 172.004 170.398 168.751 
167.14 165.491 163.778 174.67 175.643 173.547 172.191 170.662 169.113 
167.619 166.081 164.391 162.684 174.988 173.847 174.156 172.821 173.137 
172.515 171.708 171.977 171.375 170.998 170.46 170.67 170.24 169.817 
169.397 168.968 169.31 168.839 168.599 168.144 167.827 167.583 168.085 
167.256 167.127 166.828 166.458 166.271 166.524 166.93 166.018 165.68 
165.427 165.054 164.751 164.584 165.423 165.669 164.969 164.402 163.942 
163.556 163.191 162.945 162.795 164.079 164.362 163.667 163.013 162.312 
161.82 161.524 161.326 161.212 161.175 159.874 159.689 158.464 159.593 
158.072 156.849 159.573 157.823 156.274 155.173 159.639 157.746 156.046 
154.617 153.892 159.951 157.865 156.168 154.531 153.435 153.004 160.667 
158.356 156.555 154.849 153.347 152.573 152.089 161.551 159.23 157.257 
155.499 153.77 152.564 151.878 151.244 162.262 160.186 158.219 156.451 
154.727 153.282 152.306 151.55 150.938 162.8 161.044 159.264 157.57 
155.948 154.508 153.371 152.445 151.689 151.23 159.261 157.835 158.81 
156.199 157.32 158.395 154.667 155.696 156.822 158.033 153.522 154.218 
155.213 156.507 157.907 152.416 152.881 153.688 155.001 156.561 157.978 
151.25 151.576 152.319 153.576 155.192 156.765 158.08 150.611 150.734 
151.395 152.514 153.935 155.494 156.961 158.243 150.779 150.713 151.167 
152.043 153.127 154.396 155.837 157.242 158.5 151.542 151.28 152.023 
151.924 152.394 151.412 152.484 152.993 152.168 151.972 153.466 154.276 
152.945 152.751 152.791 154.906 155.74 154.156 153.711 153.602 153.8 
156.124 156.904 155.437 154.964 154.735 154.739 155.109 157.225 158.09 
156.517 156.11 155.956 155.915 156.084 156.574 158.57 159.443 157.794 
157.295 157.102 157.039 157.094 157.41 157.934 159.933 160.71 159.203 
158.659 158.374 158.225 158.135 158.254 158.649 159.169 152.007 152.318 
152.912 153.188 153.919 152.639 154.322 155.143 153.516 152.954 155.725 
156.513 154.888 154.069 153.829 157.084 157.86 156.427 155.716 155.214 
155.326 158.418 159.225 157.783 157.326 156.897 156.669 156.754 159.903 
160.602 159.207 158.747 158.489 158.236 158.055 158.027 161.334 161.853 
160.741 160.227 159.97 159.837 159.644 159.471 159.412 162.514 162.936 
162.074 161.66 161.403 161.315 161.223 161.049 160.881 160.774 163.835 
162.278 163.526 162.004 163.281 160.622 161.728 162.919 160.377 158.931 
161.393 162.64 160.09 158.677 157.264 161.255 162.59 159.884 158.461 
157.074 155.772 161.295 162.587 159.93 158.463 157.003 155.731 154.543 
161.371 162.601 160.077 158.674 157.154 155.747 154.579 153.477 161.555 
162.731 160.277 158.923 157.489 156.015 154.696 153.597 152.582 165.475 
165.098 166.726 166.499 168.107 164.871 167.965 169.53 166.283 164.552 
169.389 170.878 167.706 165.892 164.155 170.655 172.035 169.085 167.311 
165.535 163.97 171.693 172.987 170.302 168.732 166.984 165.359 163.919 
172.624 173.843 171.324 170.001 168.413 166.706 165.201 163.838 173.571 
174.657 172.289 171.062 169.716 168.062 166.456 165.08 163.826 174.463 