# vtk DataFile Version 4.0
vtk output
ASCII
DATASET POLYDATA
POINTS 1002 float
-105.474 -122.85 75.6541 -106.001 -124.095 75.2528 -105.858 -123.297 74.5721 
-105.233 -121.997 74.9927 -105.694 -122.278 73.9494 -104.794 -121.615 76.126 
-104.997 -120.94 74.4234 -105.472 -121.206 73.4385 -104.453 -120.742 75.5201 
-103.926 -120.453 76.6414 -104.718 -119.825 73.8664 -105.186 -120.158 72.8705 
-104.19 -119.602 74.9658 -103.581 -119.421 76.0734 -103.224 -118.994 77.225 
-104.317 -118.752 73.1913 -104.898 -119.032 72.2665 -103.813 -118.421 74.276 
-103.272 -118.161 75.4888 -102.834 -117.822 76.6751 -102.717 -117.283 77.8935 
-103.909 -117.565 72.6254 -104.7 -117.67 71.8886 -103.206 -117.349 73.4978 
-102.721 -117.014 74.7357 -102.288 -116.707 76.0745 -101.979 -116.37 77.339 
-101.877 -115.947 78.5848 -103.599 -116.195 72.2875 -104.489 -116.222 71.6595 
-102.637 -116.214 72.9254 -101.979 -116.027 73.955 -101.576 -115.743 75.3314 
-101.166 -115.551 76.6794 -100.862 -115.333 77.9824 -100.79 -115.012 79.2293 
-103.186 -114.948 71.9069 -104.081 -115.041 71.3284 -102.218 -115.005 72.4967 
-101.378 -114.987 73.321 -100.856 -114.796 74.5309 -100.484 -114.617 75.8721 
-100.133 -114.489 77.2213 -99.9668 -114.281 78.5826 -100.049 -113.989 79.791 
-102.613 -113.977 71.4057 -103.57 -114.149 70.9284 -101.778 -113.896 72.0246 
-101 -113.844 72.8014 -100.316 -113.739 73.8104 -99.8792 -113.593 75.0147 
-99.6442 -113.436 76.3511 -99.4935 -113.252 77.7959 -99.5049 -113.031 79.1552 
-99.6955 -112.801 80.2582 -102.117 -113.075 70.9562 -103.175 -113.289 70.6138 
-101.35 -112.862 71.5597 -100.765 -112.656 72.3661 -100.086 -112.516 73.262 
-99.4659 -112.448 74.2708 -99.2302 -112.342 75.4959 -99.1959 -112.154 76.9462 
-99.1484 -111.952 78.4185 -99.2217 -111.783 79.6618 -99.4556 -111.639 80.6439 
-106.567 -124.689 74.4951 -106.494 -123.749 73.8015 -107.436 -124.831 73.7805 
-107.391 -123.836 73.1308 -108.431 -124.627 73.0272 -106.349 -122.674 73.2 
-108.299 -123.722 72.3228 -109.321 -124.493 72.0426 -107.201 -122.831 72.4769 
-106.097 -121.601 72.6155 -109.109 -123.654 71.2332 -110.295 -124.351 71.0022 
-108.032 -122.811 71.5179 -106.873 -121.786 71.6718 -105.783 -120.489 71.8916 
-110.196 -123.338 70.305 -111.546 -123.759 70.2871 -108.925 -122.659 70.4911 
-107.698 -121.764 70.653 -106.477 -120.652 70.8231 -105.519 -119.221 71.2865 
-111.533 -122.631 69.7023 -112.704 -123.008 69.6821 -110.16 -122.172 69.7516 
-108.75 -121.514 69.8636 -107.361 -120.621 70.0024 -106.208 -119.347 70.3657 
-105.381 -117.717 71.0451 -112.575 -122.048 68.9714 -113.51 -122.604 68.8103 
-111.357 -121.54 69.0399 -109.917 -121.035 69.1165 -108.502 -120.325 69.3652 
-107.226 -119.253 69.7534 -106.185 -117.781 70.3033 -105.229 -116.23 70.9209 
-113.298 -121.704 68.0855 -114.199 -122.322 67.8768 -112.182 -121.085 68.2014 
-110.76 -120.598 68.1888 -109.424 -119.957 68.4391 -108.354 -118.936 69.0548 
-107.31 -117.648 69.7143 -106.184 -116.281 70.2874 -104.933 -115.069 70.7125 
-114.016 -121.22 67.4088 -114.937 -121.802 67.2298 -112.917 -120.61 67.539 
-111.441 -120.196 67.4382 -109.986 -119.695 67.4671 -109.041 -118.704 68.0595 
-108.295 -117.43 68.9393 -107.274 -116.222 69.6772 -105.996 -115.118 70.1993 
-104.584 -114.131 70.4937 -115.094 -120.683 66.94 -114.062 -120.016 67.1045 
-115.125 -119.371 66.7162 -113.887 -118.775 66.7401 -114.827 -118.161 66.3461 
-112.62 -119.587 67.0513 -113.315 -117.624 66.2505 -114.167 -116.969 66.0826 
-112.156 -118.476 66.5629 -110.852 -119.299 66.8695 -112.491 -116.229 66.0271 
-113.426 -115.558 66.2937 -111.547 -117.011 66.2081 -110.416 -117.922 66.6231 
-109.532 -118.502 67.1725 -111.848 -114.572 66.3318 -112.893 -114.134 66.8793 
-110.946 -115.109 66.2218 -110.099 -115.914 66.6643 -109.305 -116.737 67.2862 
-108.809 -117.179 68.0542 -111.577 -113.144 67.0902 -112.543 -112.929 67.6816 
-110.588 -113.397 66.735 -109.765 -113.889 66.9094 -109.001 -114.725 67.4637 
-108.412 -115.497 68.1678 -107.953 -115.933 68.9731 -111.402 -111.982 68.1486 
-112.172 -111.766 68.6262 -110.439 -112.203 67.7741 -109.483 -112.492 67.6338 
-108.581 -113.04 67.8085 -107.801 -113.815 68.2931 -107.268 -114.461 69.0071 
-106.728 -114.857 69.6998 -111.026 -110.756 69.1783 -111.66 -110.522 69.5093 
-110.192 -111.064 68.9616 -109.221 -111.415 68.8121 -108.227 -111.782 68.717 
-107.295 -112.255 68.8328 -106.582 -112.824 69.2594 -106.012 -113.355 69.7906 
-105.325 -113.793 70.1886 -110.462 -109.463 69.963 -111.054 -109.342 70.2347 
-109.73 -109.706 69.8352 -108.84 -110.084 69.8035 -107.882 -110.483 69.7557 
-106.935 -110.826 69.7394 -106.088 -111.188 69.8799 -105.372 -111.654 70.1053 
-104.632 -112.223 70.2642 -103.832 -112.805 70.3885 -102.173 -112.091 70.5453 
-102.839 -111.349 70.3876 -101.291 -110.57 70.5967 -103.702 -110.577 70.439 
-101.842 -109.612 70.427 -100.665 -108.767 70.7924 -104.603 -109.953 70.5135 
-102.698 -108.677 70.4995 -101.103 -107.542 70.4946 -100.372 -106.724 71.0786 
-105.544 -109.504 70.4563 -103.793 -107.917 70.5647 -102.021 -106.364 70.3735 
-100.893 -105.269 70.658 -100.302 -104.727 71.4798 -106.533 -109.119 70.3659 
-104.988 -107.35 70.4957 -103.336 -105.517 70.3207 -101.961 -104.154 70.4362 
-100.993 -103.502 71.1178 -100.265 -103.205 72.0805 -107.52 -108.73 70.3595 
-106.108 -106.987 70.5188 -104.687 -105.153 70.4588 -103.382 -103.709 70.5711 
-102.189 -102.888 71.0709 -101.101 -102.427 71.8783 -100.347 -102.071 72.8318 
-108.48 -108.403 70.3952 -107.143 -106.847 70.7253 -105.84 -105.228 70.895 
-104.699 -103.846 71.1128 -103.65 -102.82 71.4722 -102.475 -102.007 71.9745 
-101.377 -101.38 72.6952 -100.709 -101.061 73.6321 -109.339 -108.241 70.4934 
-108.132 -106.879 70.9763 -106.905 -105.498 71.3797 -105.777 -104.228 71.7368 
-104.878 -103.053 72.0754 -103.984 -101.87 72.3724 -102.89 -100.851 72.7705 
-101.897 -100.334 73.4858 -101.253 -100.304 74.4676 -110.052 -108.236 70.7242 
-109.017 -107.013 71.2448 -107.963 -105.748 71.7311 -106.856 -104.535 72.1404 
-105.873 -103.347 72.5203 -105.122 -102.056 72.8472 -104.313 -100.776 73.1083 
-103.337 -99.935 73.5421 -102.458 -99.729 74.3314 -101.814 -99.8923 75.3326 
-101.202 -111.8 70.9982 -100.606 -110.167 71.2585 -100.674 -111.453 71.8229 
-100.251 -108.308 71.6203 -100.248 -109.744 72.2281 -100.157 -111.149 72.7614 
-99.9596 -106.304 71.9866 -99.7864 -107.894 72.5717 -99.601 -109.433 73.1418 
-99.4055 -111.03 73.6758 -99.7338 -104.381 72.4804 -99.3123 -105.923 72.9556 
-99.0723 -107.561 73.5162 -98.9747 -109.301 74.1437 -98.9878 -110.999 74.8029 
-99.74 -102.84 73.1889 -99.1937 -104.056 73.6026 -98.8383 -105.624 74.132 
-98.8852 -107.371 74.8175 -98.9985 -109.222 75.5683 -99.0343 -110.876 76.2882 
-100.034 -101.68 74.0327 -99.4811 -102.571 74.4691 -98.9964 -103.902 75.0132 
-98.9384 -105.525 75.7182 -99.1414 -107.3 76.501 -99.0939 -109.126 77.2522 
-98.9964 -110.703 77.8993 -100.474 -100.844 74.9376 -99.8597 -101.488 75.4248 
-99.2863 -102.487 75.9952 -98.9634 -103.916 76.709 -99.0397 -105.548 77.4633 
-99.0527 -107.316 78.1693 -98.8692 -109.091 78.8015 -98.905 -110.588 79.3024 
-100.958 -100.32 75.8479 -100.208 -100.763 76.3785 -99.5517 -101.404 76.9607 
-99.0521 -102.525 77.6658 -98.8953 -104.02 78.3936 -98.9377 -105.663 79.0176 
-98.8606 -107.429 79.5689 -98.8224 -109.124 80.0511 -99.0653 -110.516 80.4056 
-101.835 -99.8403 76.5814 -100.903 -100.196 77.162 -101.951 -99.7205 77.8889 
-100.996 -100.116 78.5042 -102.207 -99.7368 79.1622 -100.071 -100.599 77.7741 
-101.36 -100.36 79.8548 -102.475 -100.043 80.525 -100.241 -100.728 79.209 
-99.4351 -101.374 78.4879 -101.743 -100.815 81.3137 -102.643 -100.393 82.0553 
-100.739 -101.289 80.6302 -99.7322 -101.791 79.9889 -99.0671 -102.697 79.2554 
-102.018 -101.229 82.7546 -102.905 -100.852 83.4563 -101.148 -101.844 82.0458 
-100.203 -102.464 81.3707 -99.4241 -103.197 80.6928 -99.0048 -104.3 79.8954 
-102.466 -101.925 83.9123 -103.384 -101.669 84.5436 -101.563 -102.384 83.3061 
-100.564 -102.984 82.6862 -99.7874 -103.736 82.0043 -99.3565 -104.752 81.2476 
-99.039 -106.045 80.406 -103.033 -102.862 84.9386 -103.877 -102.5 85.5751 
-102.234 -103.285 84.3312 -101.195 -103.683 83.8275 -100.165 -104.288 83.2593 
-99.6547 -105.269 82.5591 -99.3903 -106.533 81.7384 -99.0402 -107.881 80.8693 
-103.438 -103.56 86.06 -104.275 -103.099 86.6297 -102.785 -104.187 85.3571 
-102.025 -104.658 84.7668 -100.942 -105.127 84.2682 -100.035 -105.96 83.7211 
-99.6547 -107.12 83.0203 -99.4336 -108.361 82.1408 -99.1855 -109.517 81.2303 
-103.774 -104.12 87.0552 -104.693 -103.732 87.4252 -103.048 -104.811 86.4244 
-102.507 -105.457 85.7141 -101.796 -105.998 85.0701 -100.827 -106.756 84.5326 
-100.059 -107.799 84.0091 -99.7197 -108.891 83.2945 -99.5885 -109.905 82.3732 
-99.5035 -110.822 81.4537 -102.783 -99.5298 75.6151 -102.907 -99.4186 76.9604 
-103.864 -99.3105 76.0264 -104.108 -99.0532 77.4476 -105.099 -99.1873 76.521 
-103.159 -99.2907 78.3408 -105.43 -98.9014 78.0064 -106.509 -99.2115 76.9774 
-104.417 -99.0601 78.9207 -103.413 -99.4737 79.6852 -106.833 -99.1503 78.556 
-107.795 -99.6533 77.4443 -105.724 -99.196 79.5959 -104.64 -99.5079 80.3609 
-103.55 -99.8737 81.1868 -108.099 -99.8174 79.0871 -108.791 -100.468 78.028 
-107.14 -99.5835 80.2297 -106.045 -99.6945 81.1129 -104.865 -99.9055 81.959 
-103.727 -100.227 82.8357 -109.153 -100.635 79.5402 -109.745 -101.264 78.5714 
-108.47 -100.141 80.6875 -107.602 -99.9143 81.7477 -106.485 -99.995 82.6994 
-105.227 -100.318 83.5749 -104.12 -100.868 84.2026 -110.105 -101.438 79.8617 
-110.691 -102.009 78.9613 -109.531 -100.9 80.9493 -108.91 -100.483 82.1322 
-108.027 -100.378 83.2371 -106.85 -100.667 84.0993 -105.623 -101.195 84.7336 
-104.601 -101.794 85.2257 -110.982 -102.291 80.1824 -111.476 -102.847 79.3406 
-110.43 -101.781 81.1664 -109.874 -101.391 82.331 -109.184 -101.222 83.5405 
-108.217 -101.347 84.4204 -107.067 -101.747 84.9711 -105.956 -102.19 85.5708 
-105.019 -102.574 86.2129 -111.806 -103.127 80.5743 -112.148 -103.642 79.7662 
-111.347 -102.627 81.4528 -110.793 -102.265 82.4769 -110.155 -102.123 83.6666 
[...]
CELL_DATA 2000
SCALARS Distance double
LOOKUP_TABLE default
178.078 177.083 177.409 177.033 176.001 176.352 175.976 176.331 175.957 
174.878 175.235 174.829 175.22 174.83 175.212 174.82 173.686 174.054 
173.582 174.001 173.567 174.006 173.582 174.014 173.629 172.457 172.807 
172.259 172.667 172.175 172.657 172.228 172.715 172.328 172.811 172.487 
171.234 171.556 170.958 171.311 170.767 171.223 170.801 171.324 170.973 
171.49 171.186 171.7 171.45 170.021 170.317 169.703 170.022 169.452 
169.844 169.401 169.902 169.57 170.118 169.834 170.385 170.154 170.704 
170.524 168.862 169.101 168.476 168.782 168.222 168.573 168.099 168.535 
168.172 168.706 168.432 169.013 168.803 169.394 169.242 169.822 169.701 
167.82 167.971 167.321 167.589 167.057 167.385 166.915 167.277 166.874 
167.332 167.054 167.62 167.455 168.057 167.945 168.54 168.451 169.032 
168.949 178.555 178.928 178.371 177.569 179.19 178.708 177.917 177.334 
176.497 179.302 178.911 178.177 177.666 176.824 176.238 175.385 179.349 
178.976 178.26 177.853 177.035 176.517 175.617 175.071 174.196 179.43 
179.033 178.299 177.899 177.103 176.646 175.744 175.233 174.322 173.832 
172.972 179.483 179.122 178.406 177.98 177.21 176.733 175.885 175.354 
174.461 173.941 173.081 172.603 171.766 179.43 179.139 178.443 178.072 
177.299 176.864 176.052 175.55 174.709 174.151 173.306 172.755 171.926 
171.415 170.587 179.319 179.055 178.356 178.035 177.229 176.864 176.027 
175.651 174.843 174.404 173.598 173.058 172.245 171.662 170.852 170.287 
169.483 179.198 178.937 178.238 177.922 177.109 176.737 175.87 175.524 
174.721 174.417 173.677 173.298 172.546 172.033 171.26 170.661 169.879 
169.266 168.494 178.902 178.036 178.3 177.896 176.983 177.327 176.883 
177.189 176.718 175.725 176.148 175.673 176.065 175.556 175.903 175.428 
174.326 174.754 174.217 174.714 174.211 174.662 174.193 174.611 174.251 
173.062 173.328 172.687 173.148 172.648 173.215 172.818 173.345 173.025 
173.513 173.244 172.199 172.235 171.558 171.743 171.221 171.665 171.327 
171.912 171.659 172.245 172.004 172.514 172.196 171.604 171.573 170.973 
170.922 170.401 170.514 170.148 170.517 170.267 170.824 170.606 171.201 
170.911 171.396 170.974 170.926 171.004 170.469 170.47 169.966 169.949 
169.51 169.597 169.241 169.542 169.269 169.775 169.501 170.043 169.652 
170.098 169.602 170.088 170.241 169.694 169.844 169.315 169.436 168.925 
169.016 168.529 168.667 168.245 168.544 168.183 168.634 168.234 168.71 
168.22 168.667 168.172 167.231 167.192 166.698 165.71 167.23 166.678 
165.549 165.075 164.115 167.312 166.758 165.604 164.946 163.75 163.394 
162.551 167.497 166.925 165.827 165.059 163.718 163.068 161.973 161.813 
161.178 167.817 167.207 166.148 165.339 163.992 163.139 161.924 161.409 
160.685 160.616 160.251 168.193 167.572 166.546 165.732 164.501 163.57 
162.462 161.669 160.974 160.507 160.17 159.984 159.8 168.57 167.96 
167.031 166.238 165.207 164.285 163.401 162.509 161.94 161.198 160.852 
160.291 160.042 159.738 159.632 168.971 168.377 167.588 166.852 166.036 
165.183 164.48 163.621 163.128 162.339 161.956 161.21 160.829 160.222 
159.977 159.692 159.711 169.418 168.849 168.194 167.527 166.877 166.121 
165.519 164.731 164.223 163.479 163.047 162.313 161.871 161.133 160.768 
160.22 160.133 159.91 160.085 167.021 165.563 166.341 166.491 164.105 
164.917 165.164 165.959 166.258 162.707 163.539 163.878 164.691 165.036 
165.809 166.137 161.405 162.196 162.552 163.401 163.741 164.563 164.892 
165.693 166.067 160.381 160.972 161.247 162.036 162.357 163.213 163.593 
164.45 164.921 165.738 166.267 159.802 160.115 160.306 160.846 161.181 
161.903 162.413 163.247 163.906 164.724 165.407 166.134 166.755 159.618 
159.726 159.902 160.168 160.522 160.993 161.582 162.279 163.066 163.86 
164.658 165.388 166.071 166.712 167.299 159.743 159.709 159.899 159.985 
160.305 160.576 161.104 161.639 162.382 163.112 163.904 164.656 165.35 
166.036 166.638 167.261 167.818 160.128 159.983 160.159 160.109 160.353 
160.464 160.87 161.24 161.865 162.472 163.205 163.907 164.608 165.3 
165.944 166.597 167.2 167.798 168.348 160.484 161.051 160.644 160.464 
161.737 161.239 161.011 160.643 160.583 162.682 162.062 161.866 161.313 
161.25 160.887 161.063 163.79 163.157 163.07 162.4 162.383 161.786 
161.963 161.603 162.035 164.906 164.304 164.291 163.691 163.724 163.087 
163.227 162.7 163.063 162.758 163.321 166.158 165.49 165.502 164.905 
164.958 164.378 164.487 163.973 164.261 163.877 164.355 164.104 164.69 
167.525 166.84 166.899 166.229 166.317 165.642 165.746 165.171 165.445 
165.048 165.514 165.204 165.746 165.483 166.045 168.761 168.174 168.258 
167.667 167.803 167.122 167.232 166.53 166.755 166.244 166.698 166.365 
166.909 166.6 167.118 166.826 167.328 169.84 169.318 169.383 168.91 
169.052 168.536 168.663 168.04 168.198 167.615 167.958 167.552 168.042 
167.732 168.21 167.905 168.34 168.055 168.476 160.668 161.29 161.056 
161.279 162.111 161.761 161.973 161.724 161.994 163.146 162.674 162.882 
162.532 162.828 162.539 162.902 164.402 163.831 164.073 163.597 163.929 
163.51 163.858 163.54 163.953 165.801 165.197 165.482 164.93 165.28 
164.755 165.098 164.621 164.98 164.631 165.07 167.182 166.618 166.903 
166.37 166.709 166.17 166.514 165.967 166.323 165.814 166.223 165.829 
166.334 168.464 167.947 168.202 167.722 168.053 167.572 167.937 167.417 
167.792 167.245 167.641 167.128 167.569 167.17 167.679 169.686 169.188 
169.432 168.962 169.296 168.866 169.273 168.825 169.223 168.71 169.065 
168.542 168.904 168.444 168.843 168.478 168.911 170.86 170.402 170.66 
170.187 170.504 170.082 170.491 170.112 170.531 170.088 170.41 169.899 
170.185 169.712 170.044 169.636 169.999 169.638 170.01 169.492 169.337 
169.048 168.319 169.28 168.938 168.191 167.862 167.086 169.264 168.895 
168.12 167.757 166.946 166.605 165.792 169.324 168.902 168.105 167.691 
166.843 166.461 165.616 165.289 164.508 169.507 169.028 168.248 167.747 
166.918 166.429 165.59 165.16 164.372 164.046 163.329 169.743 169.263 
168.506 167.97 167.169 166.619 165.826 165.287 164.51 164.024 163.268 
162.898 162.175 169.985 169.517 168.79 168.259 167.461 166.908 166.115 
165.584 164.817 164.283 163.503 162.974 162.208 161.779 161.111 170.307 
169.808 169.14 168.59 167.847 167.249 166.467 165.886 165.124 164.586 
163.843 163.294 162.569 162.012 161.393 160.921 160.492 170.752 170.216 
169.608 169.031 168.384 167.751 167.066 166.38 165.678 165.003 164.331 
163.707 163.094 162.505 161.994 161.439 161.085 160.61 160.426 170.202 
171.214 170.481 170.06 172.265 171.522 171.114 170.385 170.004 173.361 
172.599 172.203 171.46 171.088 170.361 170.005 174.496 173.73 173.343 
172.579 172.224 171.477 171.14 170.396 170.076 175.567 174.863 174.507 
173.752 173.412 172.648 172.326 171.565 171.256 170.511 170.238 176.527 
175.898 175.6 174.912 174.599 173.853 173.528 172.765 172.451 171.703 
171.416 170.697 170.446 177.466 176.859 176.613 175.983 175.716 175.02 
174.706 173.96 173.642 172.896 172.602 171.871 171.602 170.897 170.663 
178.404 177.823 177.596 176.992 176.755 176.109 175.83 175.123 174.826 
174.092 173.808 173.065 172.794 172.063 171.828 171.133 170.954 179.248 
178.74 178.522 177.959 177.725 177.125 176.874 176.226 175.964 175.271 
175 174.271 173.99 173.256 173.009 172.312 172.142 171.479 171.368 
179.613 179.958 179.498 178.915 180.336 179.843 179.221 178.754 178.126 
180.713 180.217 179.567 179.065 178.41 177.938 177.287 181.057 180.579 
179.934 179.418 178.743 178.236 177.559 177.082 176.407 181.416 180.922 
180.277 179.768 179.076 178.566 177.847 177.347 176.618 176.155 175.441 
181.785 181.276 180.58 180.076 179.366 178.875 178.131 177.613 176.81 
176.316 175.529 175.117 174.395 182.045 181.584 180.835 180.34 179.614 
179.144 178.425 177.903 177.089 176.514 175.68 175.189 174.455 174.072 
173.421 182.127 181.756 181.026 180.566 179.832 179.374 178.672 178.193 
177.425 176.842 176.012 175.424 174.691 174.213 173.597 173.188 172.605 
182.062 181.781 181.115 180.731 180.012 179.572 178.84 178.399 177.643 
177.148 176.344 175.79 175.038 174.527 173.899 173.447 172.869 172.437 
171.863 181.755 180.909 181.202 180.843 179.88 180.266 179.928 180.213 
179.765 178.72 179.139 178.762 179.167 178.723 179.036 178.551 177.463 
177.906 177.474 177.911 177.465 177.873 177.404 177.769 177.303 176.079 
176.59 176.19 176.63 176.221 176.618 176.183 176.561 176.114 176.49 
176.026 174.629 175.181 174.85 175.348 174.992 175.424 175.024 175.386 
174.94 175.291 174.857 175.216 174.782 173.231 173.76 173.426 173.964 
173.608 174.138 173.767 174.221 173.784 174.142 173.69 174.055 173.666 
174.034 173.662 171.918 172.397 172.032 172.532 172.151 172.688 172.345 
172.893 172.532 172.968 172.524 172.889 172.47 172.883 172.536 172.947 
172.606 170.728 171.128 170.77 171.196 170.833 171.288 170.972 171.492 
171.215 171.707 171.344 171.725 171.29 171.671 171.295 171.747 171.429 
171.877 171.566 182.174 182.562 182.004 181.291 182.977 182.366 181.525 
181.008 180.241 183.188 182.7 181.784 181.22 180.38 179.918 179.139 
182.953 182.729 181.867 181.41 180.535 180.07 179.256 178.787 177.924 
182.393 182.354 181.617 181.353 180.495 180.135 179.25 178.837 177.867 
177.423 176.451 181.776 181.796 181.152 181.01 180.176 179.924 178.976 
178.663 177.607 177.224 176.146 175.816 174.892 181.152 181.206 180.61 
180.536 179.72 179.501 178.523 178.25 177.218 176.888 175.841 175.481 
174.533 174.274 173.48 180.495 180.564 180.002 179.994 179.249 179.049 
178.099 177.793 176.826 176.524 175.613 175.26 174.366 173.998 173.171 
172.913 172.185 179.873 179.906 179.365 179.392 178.762 178.626 177.79 
177.464 176.541 176.21 175.374 175.079 174.262 173.902 173.05 172.686 
171.9 171.656 170.99 182.751 183.737 183.246 183.227 184.588 184.195 
184.24 183.762 183.708 185.286 184.942 184.915 184.605 184.561 184.141 
183.898 185.881 185.575 185.417 185.101 184.922 184.692 184.426 184.052 
183.565 186.181 186.049 185.878 185.552 185.25 184.935 184.604 184.325 
183.871 183.485 182.91 186.171 186.175 186.072 185.907 185.637 185.306 
184.936 184.549 184.111 183.712 183.198 182.782 182.245 186.208 186.157 
186.086 185.996 185.801 185.606 185.264 184.925 184.457 184.031 183.511 
183.077 182.552 182.135 181.613 186.298 186.241 186.147 186.042 185.851 
185.699 185.373 185.133 184.652 184.315 183.759 183.382 182.844 182.448 
181.921 181.504 180.974 186.15 186.206 186.048 186.046 185.815 185.725 
185.38 185.181 184.694 184.405 183.841 183.531 182.997 182.687 182.19 
181.821 181.31 180.881 180.369 185.887 185.314 185.66 185.766 184.805 
185.056 185.152 185.516 185.567 184.482 184.596 184.554 184.859 184.894 
185.237 185.142 184.047 184.22 184.014 184.234 184.119 184.474 184.348 
184.672 184.425 183.195 183.56 183.283 183.564 183.305 183.64 183.442 
183.796 183.545 183.85 183.554 182.098 182.528 182.26 182.65 182.384 
182.758 182.533 182.883 182.641 182.949 182.684 182.985 182.737 181.077 
181.439 181.184 181.575 181.373 181.792 181.613 181.98 181.74 182.051 
181.79 182.115 181.891 182.212 181.976 180.133 180.473 180.214 180.563 
180.379 180.799 180.662 181.057 180.819 181.135 180.835 181.18 180.944 
181.33 181.105 181.429 181.133 179.128 179.513 179.257 179.617 179.41 
179.823 179.678 180.098 179.871 180.197 179.872 180.195 179.932 180.337 
180.134 180.515 180.244 180.537 180.202 178.441 177.43 178.168 178.599 
176.375 177.146 177.628 178.343 178.795 175.267 176.076 176.589 177.37 
177.885 178.594 179.065 174.114 174.946 175.475 176.31 176.84 177.634 
178.111 178.833 179.22 172.979 173.788 174.306 175.162 175.693 176.537 
177.022 177.801 178.199 178.897 179.222 171.934 172.676 173.158 173.979 
174.508 175.367 175.903 176.714 177.199 177.905 178.323 178.943 179.33 
171.012 171.676 172.125 172.864 173.374 174.197 174.769 175.617 176.19 
176.961 177.464 178.12 178.553 179.143 179.542 170.19 170.8 171.226 
171.887 172.363 173.112 173.658 174.492 175.066 175.915 176.436 177.213 
177.636 178.32 178.673 179.305 179.625 169.432 170.005 170.408 171.02 
171.46 172.142 172.641 173.407 173.937 174.761 175.268 176.094 176.535 
177.3 177.661 178.35 178.66 179.303 179.587 179.382 178.438 178.875 
178.825 177.409 177.876 177.789 178.301 178.21 176.241 176.754 176.61 
177.178 177.028 177.548 177.263 174.96 175.492 175.282 175.887 175.683 
176.257 175.926 176.413 176.017 173.652 174.169 173.91 174.491 174.232 
174.82 174.458 174.991 174.591 175.13 174.818 172.369 172.852 172.552 
173.094 172.785 173.341 172.942 173.472 173.038 173.625 173.299 173.953 
173.691 171.181 171.591 171.249 171.728 171.379 171.894 171.486 171.978 
171.532 172.063 171.703 172.353 172.085 172.77 172.488 170.125 170.458 
170.086 170.467 170.083 170.516 170.107 170.561 170.156 170.634 170.306 
170.845 170.6 171.191 170.96 171.574 171.348 169.15 169.44 169.051 
169.365 168.958 169.296 168.857 169.235 168.825 169.291 169.007 169.544 
169.359 169.876 169.697 170.191 170.019 170.563 170.449 179.832 179.949 
180.2 180.842 180.061 180.315 180.974 181.249 181.936 180.159 180.445 
181.125 181.398 182.13 182.392 183.079 180.164 180.531 181.255 181.562 
182.293 182.587 183.337 183.567 184.205 180.066 180.484 181.218 181.621 
182.319 182.683 183.397 183.757 184.459 184.678 185.191 179.971 180.362 
181.045 181.483 182.144 182.576 183.218 183.674 184.331 184.756 185.279 
185.496 185.764 179.867 180.256 180.886 181.284 181.914 182.336 182.965 
183.415 184.017 184.478 184.937 185.314 185.535 185.768 185.833 179.623 
180.08 180.669 181.086 181.657 182.087 182.695 183.151 183.737 184.152 
184.549 184.873 185.032 185.317 185.383 185.666 185.756 179.216 179.727 
180.259 180.745 181.222 181.718 182.231 182.779 183.313 183.814 184.183 
184.502 184.628 184.834 184.897 185.161 185.327 185.64 185.854 179.951 
180.998 180.475 180.475 182.085 181.554 181.557 181.002 180.94 183.175 
182.637 182.611 182.063 181.971 181.404 181.22 184.236 183.693 183.649 
183.104 183.032 182.447 182.261 181.601 181.261 185.174 184.691 184.614 
184.114 184.1 183.563 183.447 182.731 182.367 181.556 181.072 185.757 
185.472 185.318 184.943 184.855 184.512 184.411 183.883 183.479 182.678 
182.063 181.266 180.733 185.921 185.849 185.673 185.426 185.16 184.964 
184.72 184.509 184.059 183.556 182.835 182.142 181.472 180.86 180.406 
185.953 185.95 185.862 185.655 185.326 185.076 184.709 184.547 184.137 
183.859 183.252 182.731 182.07 181.504 181.016 180.53 180.183 186.078 
186.061 186.067 185.87 185.608 185.27 184.925 184.613 184.34 184.026 
183.705 183.21 182.759 182.139 181.704 181.146 180.809 180.331 180.025 
179.368 179.843 179.259 178.53 180.3 179.729 178.947 178.332 177.495 
180.571 180.114 179.312 178.716 177.8 177.193 176.258 180.543 180.234 
179.423 178.957 177.994 177.432 176.455 175.888 174.926 180.317 180.084 
179.286 178.933 177.993 177.518 176.554 176.053 175.161 174.601 173.734 
180.072 179.85 179.131 178.801 177.974 177.518 176.646 176.157 175.362 
174.868 174.126 173.553 172.844 179.861 179.652 179.016 178.716 178.007 
177.595 176.844 176.351 175.624 175.124 174.446 173.942 173.281 172.756 
172.142 179.677 179.479 178.868 178.612 177.941 177.636 176.951 176.571 
175.871 175.417 174.712 174.239 173.554 173.099 172.443 172.01 171.395 
179.517 179.317 178.713 178.462 177.796 177.531 176.869 176.593 175.92 
175.577 174.856 174.444 173.715 173.297 172.608 172.209 171.557 171.175 
170.553 182.665 182.783 183.039 183.616 182.736 183.102 183.702 183.96 
184.473 182.422 182.911 183.485 183.909 184.441 184.747 185.206 181.975 
182.472 182.974 183.498 184.015 184.534 185.058 185.424 185.811 181.635 
182.059 182.596 183.014 183.57 184.047 184.627 185.119 185.58 185.906 
186.108 181.348 181.792 182.454 182.834 183.518 183.835 184.461 184.776 
185.254 185.566 185.828 186.043 186.113 180.947 181.463 182.129 182.676 
183.393 183.855 184.447 184.736 185.095 185.299 185.514 185.731 185.894 
186.061 186.169 180.488 180.984 181.518 182.148 182.732 183.43 183.916 
184.471 184.694 185.029 185.106 185.387 185.539 185.828 186.025 186.199 
186.294 180.086 180.502 180.919 181.439 181.886 182.55 182.986 183.654 
183.922 184.407 184.504 184.868 185.016 185.405 185.652 185.982 186.135 
186.273 186.221 
POINT_DATA 1002
SCALARS Distance double
LOOKUP_TABLE default
177.719 178.719 177.799 176.711 176.74 176.672 175.606 175.659 175.614 
175.589 174.443 174.534 174.443 174.436 174.438 173.187 173.341 173.12 
173.143 173.172 173.28 171.896 172.137 171.697 171.712 171.832 171.983 
172.2 170.638 170.932 170.342 170.264 170.432 170.658 170.919 171.232 
169.385 169.748 169.09 168.928 169.015 169.267 169.58 169.965 170.377 
168.171 168.669 167.875 167.705 167.665 167.839 168.193 168.639 169.126 
169.601 167.073 167.718 166.721 166.576 166.465 166.494 166.831 167.343 
167.859 168.371 168.877 179.148 178.169 179.469 178.489 179.616 177.093 
178.629 179.665 177.416 175.964 178.637 179.747 177.517 176.174 174.716 
178.717 179.829 177.547 176.249 174.813 173.441 178.824 179.801 177.68 
176.407 175.001 173.572 172.234 178.794 179.696 177.715 176.506 175.245 
173.884 172.465 171.082 178.677 179.586 177.6 176.374 175.203 174.086 
172.829 171.443 170.032 178.549 179.461 177.49 176.24 174.999 173.965 
172.984 171.83 170.509 169.097 178.7 177.653 177.758 176.572 176.621 
176.427 175.252 175.303 175.199 175.045 173.708 173.969 173.694 173.745 
173.792 172.311 172.909 172.045 172.211 172.501 172.787 171.488 172.204 
170.878 170.744 171.03 171.452 171.777 171.031 171.58 170.405 169.925 
169.78 169.994 170.376 170.584 170.404 170.798 169.977 169.522 169.09 
168.857 168.959 169.173 169.202 169.525 169.943 169.156 168.815 168.443 
168.06 167.822 167.774 167.757 167.703 166.273 166.12 164.739 166.162 
164.368 163.242 166.343 164.311 162.575 161.84 166.615 164.525 162.322 
161.03 160.671 166.952 164.88 162.577 160.881 160.152 159.935 167.325 
165.367 163.259 161.554 160.492 159.87 159.6 167.744 166.027 164.231 
162.716 161.554 160.515 159.748 159.553 168.235 166.79 165.294 163.92 
162.751 161.567 160.409 159.78 159.806 168.789 167.56 166.284 164.982 
163.77 162.624 161.425 160.475 160.148 160.306 165.679 164.337 165.48 
163.044 164.259 165.373 161.71 162.906 164.063 165.245 160.541 161.497 
162.675 164.046 165.478 159.875 160.507 161.545 163.026 164.653 166.097 
159.706 160.13 160.935 162.272 163.908 165.421 166.702 159.873 160.123 
160.668 161.716 163.164 164.646 165.99 167.228 160.275 160.334 160.606 
161.342 162.542 163.916 165.27 166.577 167.798 160.874 160.786 161.496 
161.439 162.28 160.813 162.471 163.299 161.692 161.248 163.704 164.371 
163.04 162.421 162.225 164.841 165.51 164.332 163.805 163.457 163.511 
166.121 166.847 165.546 165 164.661 164.668 164.89 167.556 168.174 
167.022 166.385 165.857 165.819 166.06 166.294 168.795 169.316 168.427 
167.961 167.351 167.059 167.221 167.453 167.612 169.847 170.36 169.509 
169.223 168.809 168.437 168.381 168.527 168.654 168.756 160.828 161.471 
161.574 162.243 162.522 162.211 163.262 163.659 163.147 163.131 164.575 
164.976 164.387 164.255 164.193 166.044 166.385 165.831 165.625 165.419 
165.333 167.429 167.736 167.239 167.059 166.861 166.694 166.647 168.678 
168.98 168.501 168.422 168.334 168.185 168.046 168.017 169.908 170.171 
169.711 169.678 169.722 169.614 169.4 169.27 169.244 171.128 171.283 
170.945 170.859 170.94 170.932 170.687 170.469 170.397 170.357 169.745 
168.611 169.658 168.547 169.636 167.418 168.505 169.653 167.309 166.114 
168.552 169.771 167.262 165.962 164.775 168.765 169.988 167.43 166.065 
164.748 163.596 169.038 170.206 167.717 166.365 165.053 163.733 162.478 
169.309 170.444 168.024 166.646 165.337 164.065 162.713 161.436 169.675 
170.805 168.439 167.081 165.677 164.36 163.106 161.891 160.857 170.92 
170.78 171.945 171.846 173.006 170.72 172.949 174.132 171.818 170.731 
174.112 175.247 172.972 171.886 170.807 175.235 176.222 174.177 173.09 
172.006 170.958 176.241 177.122 175.329 174.295 173.203 172.147 171.146 
177.219 178.061 176.383 175.441 174.387 173.341 172.322 171.341 178.193 
178.963 177.38 176.507 175.545 174.551 173.535 172.529 171.616 179.067 
179.718 178.309 177.491 176.629 175.721 174.732 173.705 172.794 172.018 