# vtk DataFile Version 4.0
vtk output
ASCII
DATASET POLYDATA
POINTS 1002 float
-105.436 -123.666 75.9281 -106.123 -124.594 75.4725 -105.96 -123.95 74.7732 
-105.236 -122.923 75.268 -105.776 -123.151 74.1959 -104.552 -122.836 76.3367 
-104.924 -122.106 74.6079 -105.501 -122.336 73.5601 -104.378 -121.915 75.6996 
-103.76 -121.716 76.7017 -104.513 -121.297 73.8025 -105.163 -121.494 72.8079 
-104.106 -120.879 74.977 -103.735 -120.416 76.1017 -103.265 -119.962 77.0801 
-104.187 -120.305 72.9814 -104.877 -120.433 72.1379 -103.707 -119.871 74.0903 
-103.476 -119.163 75.3841 -103.048 -118.669 76.5074 -102.467 -118.404 77.5178 
-103.963 -119.013 72.3684 -104.628 -119.17 71.622 -103.278 -118.78 73.2641 
-102.823 -118.243 74.4665 -102.365 -117.785 75.7492 -101.641 -117.723 76.906 
-101.061 -117.652 78.022 -103.64 -117.68 71.9015 -104.304 -117.929 71.2002 
-102.842 -117.566 72.6748 -102.011 -117.44 73.5989 -101.387 -117.209 74.7621 
-100.764 -117.129 76.0664 -100.169 -117.111 77.3388 -99.9573 -116.79 78.5127 
-103.188 -116.501 71.4789 -103.951 -116.771 70.88 -102.399 -116.358 72.2079 
-101.431 -116.427 72.9725 -100.617 -116.451 73.8747 -100.171 -116.266 75.1179 
-99.8358 -116.043 76.5189 -99.6243 -115.753 77.7807 -99.6479 -115.297 78.8999 
-102.762 -115.447 71.0657 -103.664 -115.682 70.616 -101.983 -115.253 71.7174 
-101.149 -115.218 72.4639 -100.333 -115.272 73.2398 -99.8977 -115.083 74.3113 
-99.7634 -114.682 75.7143 -99.6429 -114.346 77.0383 -99.5595 -114.061 78.1549 
-99.5514 -113.755 79.2241 -102.412 -114.493 70.6213 -103.416 -114.706 70.3413 
-101.6 -114.283 71.1436 -100.931 -114.069 71.8952 -100.295 -113.927 72.6992 
-99.8261 -113.731 73.6413 -99.6312 -113.367 74.9278 -99.5171 -113.038 76.2976 
-99.3825 -112.856 77.4468 -99.2971 -112.696 78.4941 -99.273 -112.515 79.5656 
-106.618 -125.229 74.4844 -106.478 -124.544 73.8287 -107.284 -125.703 73.5489 
-107.19 -124.959 72.9599 -108.282 -125.83 72.7902 -106.408 -123.614 73.2959 
-108.173 -125.058 72.1189 -109.445 -125.826 71.9916 -107.171 -123.957 72.3475 
-106.233 -122.655 72.63 -109.28 -125.035 71.1804 -110.547 -125.827 71.0129 
-108.032 -124.129 71.3392 -106.931 -122.997 71.5591 -105.872 -121.719 71.8751 
-110.452 -124.854 70.3334 -111.649 -125.512 70.2024 -109.111 -124.074 70.4981 
-107.724 -123.205 70.5754 -106.53 -122.03 70.8246 -105.526 -120.607 71.2563 
-111.644 -124.39 69.7438 -112.828 -124.851 69.7159 -110.392 -123.715 69.8959 
-108.93 -122.979 69.9469 -107.501 -122.076 69.9981 -106.325 -120.8 70.338 
-105.294 -119.325 70.8119 -112.731 -123.894 69.1741 -113.96 -124.264 69.1975 
-111.492 -123.303 69.2038 -110.162 -122.55 69.28 -108.759 -121.745 69.3861 
-107.455 -120.731 69.6477 -106.254 -119.427 70.0853 -105.076 -118.033 70.5289 
-113.681 -123.518 68.4832 -114.876 -123.898 68.4752 -112.357 -122.972 68.4007 
-111.003 -122.269 68.3509 -109.711 -121.474 68.5388 -108.504 -120.553 68.9669 
-107.331 -119.412 69.4771 -106.119 -118.095 69.9632 -104.87 -116.787 70.3613 
-114.488 -123.116 67.8314 -115.536 -123.553 67.7483 -113.208 -122.548 67.7967 
-111.764 -121.951 67.6412 -110.389 -121.299 67.6646 -109.221 -120.45 68.0872 
-108.175 -119.379 68.7295 -107.113 -118.157 69.3482 -105.951 -116.859 69.8688 
-104.684 -115.654 70.2153 -115.502 -122.73 67.2564 -114.398 -122.093 67.4228 
-115.488 -121.526 67.0355 -114.26 -120.848 67.2684 -115.37 -120.232 66.9653 
-112.983 -121.469 67.3972 -113.896 -119.6 67.0843 -114.92 -118.888 66.8497 
-112.672 -120.296 67.1956 -111.378 -120.946 67.227 -113.244 -118.042 66.7317 
-114.211 -117.263 66.8057 -112.08 -118.886 66.824 -110.911 -119.665 66.9466 
-109.931 -120.219 67.3109 -112.579 -116.183 66.6933 -113.473 -115.702 67.1564 
-111.327 -116.986 66.472 -110.209 -117.864 66.5943 -109.429 -118.615 67.0555 
-108.788 -119.136 67.8488 -111.99 -114.784 67.3329 -112.681 -114.627 67.9302 
-110.817 -115.213 66.8276 -109.567 -115.93 66.6879 -108.835 -116.712 67.0389 
-108.364 -117.44 67.7587 -107.79 -117.935 68.6164 -111.302 -113.875 68.3395 
-111.823 -113.7 68.8536 -110.477 -114.052 67.8125 -109.313 -114.452 67.4839 
-108.41 -115.068 67.6006 -107.926 -115.777 68.0958 -107.41 -116.37 68.7347 
-106.718 -116.685 69.3617 -110.562 -112.844 69.2965 -111.055 -112.589 69.6996 
-109.992 -113.001 68.8456 -109.114 -113.198 68.4461 -108.159 -113.585 68.3646 
-107.483 -114.168 68.6838 -106.908 -114.773 69.1395 -106.208 -115.172 69.541 
-105.433 -115.4 69.894 -109.932 -111.602 70.0511 -110.436 -111.439 70.4017 
-109.406 -111.716 69.659 -108.673 -111.818 69.2531 -107.769 -112.013 68.9977 
-106.963 -112.392 69.0934 -106.261 -112.949 69.4394 -105.499 -113.504 69.733 
-104.713 -113.927 69.905 -104 -114.301 70.0822 -102.425 -113.617 70.1115 
-102.927 -113.005 69.8848 -101.404 -112.348 69.8401 -103.666 -112.316 69.8325 
-101.892 -111.408 69.6635 -100.685 -110.643 69.8393 -104.592 -111.583 69.7664 
-102.76 -110.355 69.6895 -101.266 -109.389 69.6907 -100.4 -108.557 70.2171 
-105.506 -110.947 69.5799 -103.862 -109.476 69.7277 -102.271 -108.214 69.6789 
-101.031 -107.247 69.9864 -100.307 -106.61 70.7204 -106.351 -110.565 69.4861 
-104.897 -109.018 69.8225 -103.493 -107.5 69.8062 -102.089 -106.232 69.8338 
-100.972 -105.485 70.4241 -100.286 -105.09 71.2641 -107.308 -110.382 69.648 
-105.904 -108.854 70.0279 -104.682 -107.267 70.144 -103.436 -105.723 69.9962 
-102.148 -104.664 70.266 -101.145 -104.148 71.0884 -100.436 -103.738 71.9148 
-108.279 -110.296 69.9659 -107.031 -108.744 70.2113 -105.882 -107.17 70.4052 
-104.787 -105.597 70.4229 -103.592 -104.305 70.5304 -102.47 -103.494 71.0995 
-101.522 -102.93 71.8576 -100.712 -102.426 72.5025 -109.01 -110.292 70.3544 
-108.027 -108.746 70.4677 -107.04 -107.122 70.5392 -106.024 -105.595 70.7303 
-104.894 -104.332 71.0402 -103.811 -103.349 71.4801 -102.856 -102.506 71.9941 
-101.898 -101.794 72.4662 -101.03 -101.364 72.9838 -109.553 -110.329 70.77 
-108.698 -108.935 70.9307 -107.898 -107.313 70.9147 -107.061 -105.727 71.0258 
-106.014 -104.479 71.4492 -104.911 -103.535 71.9905 -104.019 -102.591 72.411 
-103.186 -101.624 72.7001 -102.25 -100.929 73.0318 -101.411 -100.678 73.5865 
-101.424 -113.396 70.3905 -100.568 -111.995 70.2791 -100.729 -113.075 71.0702 
-100.1 -110.094 70.5515 -100.078 -111.48 71.1976 -100.225 -112.683 72.0021 
-99.938 -107.99 71.0499 -99.7047 -109.533 71.5611 -99.6737 -110.983 72.2567 
-99.7711 -112.35 72.9769 -99.8153 -106.151 71.5281 -99.4576 -107.558 71.9554 
-99.2316 -109.154 72.6026 -99.261 -110.658 73.3602 -99.4393 -112.046 74.1698 
-99.7533 -104.534 72.1125 -99.2648 -105.665 72.4659 -98.9526 -107.217 73.0925 
-98.9077 -108.9 73.8596 -99.0211 -110.439 74.7103 -99.2375 -111.793 75.59 
-99.8765 -103.018 72.7765 -99.2567 -103.874 73.2009 -98.8756 -105.194 73.8577 
-98.8689 -106.891 74.6134 -98.9742 -108.65 75.3558 -98.9405 -110.289 76.1566 
-99.0675 -111.671 76.8991 -100.163 -101.825 73.3491 -99.5144 -102.49 73.9226 
-99.0248 -103.496 74.6732 -98.9 -104.936 75.4763 -99.1224 -106.63 76.1894 
-99.1008 -108.439 76.8656 -98.8604 -110.176 77.5298 -98.9494 -111.574 78.073 
-100.561 -101.078 73.9675 -99.9581 -101.66 74.5961 -99.4286 -102.418 75.3759 
-98.9937 -103.496 76.1992 -98.9938 -104.897 76.9829 -99.1856 -106.532 77.7026 
-99.0279 -108.345 78.3479 -98.7956 -110.065 78.864 -98.9301 -111.428 79.2482 
-101.32 -100.453 74.7136 -100.61 -100.982 75.3072 -101.363 -100.368 76.3083 
-100.737 -100.94 77.0621 -101.419 -100.275 78.0646 -100.088 -101.63 76.0738 
-100.773 -100.877 78.8577 -101.525 -100.329 79.6359 -100.143 -101.599 77.8372 
-99.4402 -102.426 76.8832 -100.883 -101.107 80.3737 -101.858 -100.733 80.9648 
-100.123 -101.651 79.6027 -99.343 -102.46 78.6208 -98.8946 -103.559 77.721 
-101.212 -101.698 81.6783 -102.323 -101.345 82.2234 -100.308 -102.086 81.1102 
-99.4356 -102.696 80.3803 -98.8221 -103.759 79.4701 -98.8998 -105.049 78.5732 
-101.598 -102.304 82.9987 -102.758 -101.978 83.4708 -100.63 -102.704 82.4343 
-99.8358 -103.22 81.831 -99.1523 -104.198 81.0844 -98.9125 -105.463 80.2316 
-99.0396 -106.813 79.318 -102.077 -102.854 84.1992 -103.254 -102.641 84.5356 
-101 -103.24 83.6968 -100.215 -103.796 83.0775 -99.67 -104.763 82.3369 
-99.2917 -106.05 81.5408 -99.0781 -107.331 80.7633 -98.9105 -108.679 79.8611 
-102.748 -103.53 85.0173 -103.829 -103.369 85.3114 -101.639 -103.869 84.6407 
-100.676 -104.444 84.1648 -100.038 -105.382 83.5049 -99.689 -106.635 82.6606 
-99.3888 -107.904 81.8735 -99.0571 -109.117 81.1393 -98.8635 -110.337 80.2318 
-103.406 -104.362 85.5453 -104.329 -104.149 85.8883 -102.452 -104.711 85.1794 
-101.46 -105.286 84.8359 -100.558 -106.155 84.4422 -99.9911 -107.259 83.795 
-99.6857 -108.431 82.9588 -99.3711 -109.572 82.1948 -99.1084 -110.666 81.4271 
-99.0943 -111.658 80.5048 -102.405 -100.289 74.0329 -102.348 -100.028 75.3375 
-103.601 -100.168 74.7457 -103.636 -99.8548 76.0702 -104.806 -100.287 75.4971 
-102.365 -99.8909 76.9723 -104.995 -99.9081 76.6893 -105.942 -100.496 76.0889 
-103.72 -99.7208 77.5566 -102.443 -99.8658 78.6365 -106.364 -100.048 77.2153 
-107.081 -100.84 76.5934 -105.274 -99.794 78.0994 -103.925 -99.8837 79.1687 
-102.711 -100.124 80.1773 -107.67 -100.451 77.7893 -108.166 -101.475 77.0835 
-106.849 -99.956 78.752 -105.612 -100.115 79.8157 -104.275 -100.359 80.7805 
-103.176 -100.656 81.5533 -108.701 -101.29 78.3464 -109.153 -102.227 77.5206 
-108.131 -100.511 79.4068 -107.172 -100.385 80.4668 -105.872 -100.72 81.3575 
-104.628 -100.972 82.0921 -103.622 -101.323 82.7921 -109.583 -102.199 78.8208 
-110.134 -102.853 77.9624 -109.001 -101.546 79.8891 -108.318 -101.071 80.9171 
-107.307 -101.094 81.7643 -106.064 -101.402 82.489 -104.947 -101.686 83.2159 
-104.038 -102.072 83.9533 -110.548 -102.887 79.2514 -111.033 -103.456 78.4436 
-109.857 -102.517 80.2438 -109.159 -102.135 81.2324 -108.445 -101.821 82.0995 
-107.465 -101.856 82.879 -106.318 -102.142 83.635 -105.329 -102.45 84.3743 
-104.527 -102.83 84.9775 -111.417 -103.551 79.6186 -111.651 -104.23 78.8743 
-110.843 -103.201 80.5277 -110.064 -103.025 81.5094 -109.359 -102.769 82.4555 
[...]
CELL_DATA 2000
SCALARS Distance double
LOOKUP_TABLE default
178.664 177.783 178.077 177.765 176.812 177.132 176.785 177.124 176.762 
175.739 176.082 175.671 176.053 175.645 176.015 175.551 174.576 174.932 
174.451 174.846 174.378 174.795 174.304 174.69 174.192 173.349 173.709 
173.169 173.555 173.024 173.452 172.951 173.387 172.922 173.342 172.948 
172.101 172.441 171.865 172.234 171.661 172.065 171.549 172.006 171.581 
172.062 171.715 172.182 171.884 170.9 171.185 170.587 170.927 170.353 
170.718 170.196 170.622 170.213 170.715 170.406 170.926 170.649 171.141 
170.868 169.799 170.008 169.385 169.679 169.119 169.453 168.944 169.321 
168.907 169.373 169.074 169.605 169.355 169.879 169.627 170.124 169.884 
168.802 168.937 168.279 168.518 167.956 168.264 167.767 168.113 167.685 
168.101 167.779 168.287 168.047 168.584 168.363 168.881 168.668 169.174 
168.993 179.056 179.385 178.887 178.202 179.742 179.228 178.537 178.009 
177.271 180.099 179.578 178.864 178.338 177.572 177.032 176.23 180.411 
179.902 179.14 178.623 177.825 177.299 176.46 175.932 175.084 180.638 
180.174 179.412 178.888 178.073 177.526 176.672 176.133 175.261 174.741 
173.874 180.774 180.367 179.658 179.167 178.376 177.806 176.955 176.368 
175.501 174.934 174.064 173.523 172.659 180.876 180.495 179.8 179.371 
178.585 178.082 177.231 176.674 175.819 175.234 174.386 173.783 172.925 
172.341 171.498 180.954 180.594 179.865 179.453 178.62 178.182 177.312 
176.864 176.027 175.54 174.728 174.16 173.329 172.697 171.854 171.239 
170.432 180.939 180.633 179.892 179.485 178.622 178.17 177.286 176.867 
176.05 175.658 174.89 174.447 173.666 173.117 172.309 171.677 170.866 
170.237 169.469 180.655 179.799 180.044 179.587 178.845 179.113 178.615 
178.843 178.285 177.732 178.081 177.55 177.817 177.227 177.467 176.921 
176.272 176.759 176.15 176.592 175.959 176.327 175.75 176.104 175.652 
174.735 175.15 174.429 174.942 174.241 174.816 174.227 174.793 174.346 
174.852 174.481 173.616 173.778 173.058 173.294 172.596 173.03 172.516 
173.138 172.806 173.448 173.157 173.683 173.312 172.827 172.902 172.288 
172.282 171.658 171.735 171.294 171.64 171.445 171.988 171.836 172.362 
172.063 172.486 172.032 172.011 172.164 171.618 171.668 171.067 171.063 
170.541 170.695 170.405 170.809 170.633 171.117 170.818 171.237 170.767 
171.138 170.605 171.129 171.311 170.763 170.918 170.286 170.385 169.717 
169.878 169.333 169.707 169.313 169.836 169.417 169.916 169.377 169.81 
169.235 169.659 169.152 168.22 168.183 167.675 166.674 168.255 167.636 
166.461 166.008 165.016 168.313 167.689 166.418 165.809 164.646 164.306 
163.445 168.309 167.728 166.502 165.816 164.58 164.019 163.019 162.786 
162.124 168.44 167.809 166.736 166.01 164.866 164.122 163.059 162.517 
161.759 161.599 161.161 168.881 168.148 167.206 166.424 165.448 164.615 
163.619 162.806 161.976 161.471 161.005 160.855 160.586 169.484 168.746 
167.862 167.054 166.163 165.337 164.455 163.568 162.757 161.978 161.456 
160.989 160.72 160.467 160.219 170.022 169.375 168.55 167.774 166.907 
166.103 165.287 164.464 163.739 162.919 162.386 161.703 161.38 160.864 
160.586 160.194 159.929 170.464 169.905 169.188 168.48 167.681 166.883 
166.111 165.318 164.667 163.911 163.419 162.716 162.363 161.71 161.396 
160.787 160.484 160.017 159.85 168.015 166.528 167.324 167.452 164.965 
165.81 166.011 166.856 167.121 163.487 164.296 164.554 165.423 165.754 
166.607 166.945 162.217 162.919 163.187 164.013 164.371 165.243 165.634 
166.482 166.876 161.228 161.759 161.973 162.7 163.04 163.887 164.311 
165.186 165.657 166.498 166.985 160.532 160.868 160.961 161.535 161.824 
162.603 163.07 163.931 164.487 165.338 165.918 166.724 167.279 160.033 
160.227 160.205 160.603 160.828 161.474 161.984 162.8 163.46 164.285 
164.945 165.727 166.341 167.086 167.633 159.706 159.785 159.765 159.992 
160.207 160.646 161.149 161.841 162.558 163.361 164.09 164.849 165.494 
166.204 166.784 167.467 167.984 159.669 159.613 159.698 159.772 160.057 
160.267 160.726 161.171 161.823 162.52 163.267 164.035 164.724 165.425 
166.031 166.681 167.237 167.858 168.361 159.804 160.347 159.965 159.915 
161.152 160.695 160.656 160.26 160.328 161.991 161.54 161.514 161.087 
161.102 160.74 160.929 162.962 162.425 162.404 161.943 161.942 161.528 
161.667 161.431 161.88 164.162 163.513 163.498 162.925 162.961 162.437 
162.593 162.236 162.687 162.567 163.257 165.436 164.765 164.734 164.114 
164.175 163.594 163.797 163.32 163.773 163.497 164.166 164.046 164.745 
166.686 166.023 165.962 165.343 165.385 164.836 165.056 164.598 165.036 
164.688 165.287 165.041 165.671 165.495 166.08 167.908 167.259 167.2 
166.566 166.606 166.043 166.263 165.825 166.246 165.916 166.45 166.168 
166.714 166.463 166.986 166.779 167.287 169.053 168.459 168.432 167.822 
167.893 167.312 167.537 167.051 167.443 167.077 167.563 167.266 167.756 
167.485 167.955 167.706 168.166 167.953 168.407 160.036 160.796 160.368 
160.518 161.882 161.282 161.31 160.974 161.26 163.052 162.427 162.401 
161.885 162.041 161.753 162.095 164.225 163.603 163.632 163.055 163.215 
162.718 163.009 162.674 163.107 165.507 164.851 164.959 164.362 164.625 
164.056 164.388 163.839 164.226 163.829 164.333 166.854 166.218 166.378 
165.775 166.078 165.526 165.888 165.321 165.656 165.11 165.499 165.118 
165.618 168.14 167.575 167.773 167.213 167.492 166.96 167.277 166.758 
167.055 166.519 166.824 166.349 166.756 166.405 166.887 169.35 168.841 
169.068 168.565 168.84 168.327 168.615 168.098 168.39 167.866 168.173 
167.666 168.034 167.599 168.036 167.675 168.122 170.475 170.023 170.253 
169.807 170.084 169.62 169.915 169.423 169.731 169.216 169.536 169.017 
169.362 168.886 169.27 168.854 169.25 168.878 169.258 170.503 170.249 
170.021 169.265 169.999 169.752 168.937 168.678 167.803 169.714 169.464 
168.636 168.356 167.455 167.161 166.267 169.52 169.199 168.397 168.084 
167.23 166.881 166.002 165.681 164.875 169.573 169.135 168.37 167.953 
167.153 166.743 165.906 165.513 164.723 164.405 163.707 169.778 169.306 
168.566 168.067 167.28 166.782 165.956 165.49 164.698 164.325 163.628 
163.328 162.688 169.961 169.522 168.791 168.307 167.526 166.998 166.176 
165.632 164.834 164.366 163.657 163.293 162.63 162.325 161.685 170.149 
169.705 168.998 168.523 167.779 167.267 166.485 165.923 165.145 164.6 
163.898 163.423 162.762 162.334 161.664 161.321 160.727 170.443 169.964 
169.322 168.8 168.127 167.58 166.874 166.291 165.56 164.976 164.297 
163.764 163.14 162.614 161.981 161.46 160.875 160.485 160.075 171.188 
172.186 171.44 170.983 173.297 172.501 172.038 171.266 170.779 174.439 
173.64 173.164 172.358 171.861 171.054 170.524 175.572 174.786 174.312 
173.489 172.984 172.162 171.64 170.809 170.32 176.7 175.94 175.485 
174.643 174.124 173.288 172.777 171.951 171.481 170.681 170.319 177.721 
177.048 176.625 175.821 175.3 174.445 173.932 173.1 172.648 171.855 
171.494 170.758 170.483 178.597 178.005 177.628 176.919 176.444 175.628 
175.137 174.296 173.863 173.047 172.687 171.927 171.633 170.926 170.659 
179.426 178.865 178.546 177.9 177.496 176.748 176.307 175.511 175.11 
174.302 173.944 173.144 172.823 172.072 171.79 171.085 170.83 180.205 
179.697 179.424 178.834 178.484 177.792 177.381 176.643 176.259 175.521 
175.174 174.404 174.056 173.274 172.954 172.221 171.96 171.275 171.072 
180.511 180.681 180.338 179.76 180.786 180.467 179.882 179.518 178.832 
180.93 180.555 179.938 179.584 178.879 178.491 177.732 181.21 180.742 
180.085 179.655 178.947 178.525 177.771 177.366 176.631 181.55 181.051 
180.361 179.863 179.148 178.662 177.922 177.453 176.716 176.299 175.58 
181.79 181.346 180.616 180.129 179.385 178.902 178.158 177.664 176.892 
176.413 175.635 175.219 174.465 181.814 181.483 180.734 180.311 179.523 
179.085 178.316 177.872 177.073 176.587 175.741 175.269 174.455 174.067 
173.338 181.604 181.385 180.655 180.335 179.538 179.149 178.345 177.95 
177.143 176.709 175.853 175.372 174.526 174.082 173.336 172.98 172.336 
181.298 181.108 180.405 180.171 179.407 179.094 178.284 177.924 177.107 
176.72 175.89 175.456 174.63 174.182 173.437 173.035 172.391 172.048 
171.47 180.928 180.038 180.313 179.98 179.061 179.353 178.958 179.31 
178.971 177.956 178.311 177.874 178.229 177.842 178.233 177.859 176.634 
177.114 176.671 177.077 176.635 177.045 176.637 177.06 176.668 175.113 
175.686 175.259 175.764 175.311 175.776 175.341 175.792 175.384 175.837 
175.445 173.61 174.155 173.758 174.289 173.887 174.404 174.024 174.496 
174.113 174.551 174.169 174.61 174.229 172.273 172.743 172.389 172.858 
172.52 173.019 172.728 173.216 172.909 173.333 172.983 173.382 173.029 
173.436 173.092 171.074 171.495 171.166 171.59 171.27 171.731 171.457 
171.956 171.681 172.145 171.816 172.229 171.884 172.285 171.962 172.361 
172.063 169.966 170.344 170.007 170.409 170.066 170.503 170.183 170.676 
170.373 170.879 170.557 171.029 170.696 171.136 170.82 171.244 170.955 
171.374 171.124 181.39 181.944 181.301 180.564 182.443 181.866 181.08 
180.422 179.604 182.518 182.19 181.376 180.842 179.92 179.339 178.442 
182.12 182.018 181.212 180.897 179.911 179.467 178.443 177.998 177.033 
181.547 181.521 180.779 180.571 179.608 179.263 178.184 177.808 176.753 
176.423 175.451 180.978 180.972 180.307 180.14 179.249 178.924 177.869 
177.473 176.382 176.038 175.041 174.784 173.901 180.42 180.417 179.78 
179.676 178.851 178.591 177.604 177.207 176.133 175.704 174.682 174.363 
173.484 173.279 172.518 179.911 179.868 179.22 179.135 178.358 178.177 
177.286 176.973 175.989 175.546 174.533 174.098 173.189 172.894 172.13 
171.959 171.293 179.475 179.387 178.739 178.615 177.878 177.704 176.902 
176.664 175.804 175.441 174.507 174.042 173.122 172.704 171.904 171.625 
170.948 170.788 170.19 182.023 183.175 182.577 182.587 184.388 183.754 
183.715 183.146 183.081 185.509 184.91 184.74 184.179 183.99 183.461 
183.15 186.288 185.847 185.559 185.051 184.707 184.208 183.788 183.259 
182.728 186.605 186.358 186.061 185.702 185.344 184.858 184.382 183.811 
183.231 182.676 182.095 186.677 186.498 186.244 186.053 185.848 185.497 
185.136 184.507 183.916 183.211 182.584 182.023 181.482 186.82 186.601 
186.387 186.209 186.105 185.936 185.752 185.303 184.797 184.039 183.357 
182.607 182.008 181.443 180.943 187.051 186.856 186.717 186.467 186.342 
186.159 185.985 185.748 185.334 184.833 184.181 183.464 182.794 182.088 
181.532 180.951 180.471 187.196 187.112 187.061 186.861 186.716 186.448 
186.163 185.884 185.429 185.116 184.53 184.096 183.459 182.873 182.26 
181.624 181.082 180.51 180.037 187.202 187.073 187.173 187.116 186.633 
186.915 186.909 187.011 186.811 185.881 186.295 186.291 186.623 186.423 
186.51 186.131 184.958 185.403 185.334 185.807 185.6 185.884 185.433 
185.594 185.171 183.972 184.407 184.264 184.745 184.537 184.918 184.492 
184.723 184.259 184.546 184.217 182.953 183.397 183.233 183.664 183.453 
183.844 183.496 183.762 183.34 183.606 183.288 183.613 183.288 181.884 
182.364 182.203 182.628 182.385 182.778 182.455 182.781 182.396 182.689 
182.349 182.682 182.363 182.644 182.202 180.765 181.267 181.09 181.545 
181.26 181.675 181.329 181.715 181.34 181.695 181.321 181.682 181.322 
181.67 181.257 181.508 181.024 179.671 180.141 179.951 180.398 180.113 
180.52 180.183 180.576 180.232 180.609 180.25 180.606 180.233 180.587 
180.203 180.525 180.117 180.364 179.95 179.037 178.138 178.823 179.267 
177.142 177.876 178.289 178.995 179.395 175.944 176.788 177.213 177.979 
178.371 179.081 179.462 174.601 175.492 175.951 176.828 177.27 178.047 
178.444 179.148 179.525 173.368 174.171 174.629 175.518 176.009 176.885 
177.324 178.105 178.479 179.194 179.542 172.304 173.021 173.435 174.241 
174.705 175.584 176.042 176.907 177.301 178.091 178.435 179.17 179.505 
171.279 171.972 172.336 173.082 173.481 174.298 174.729 175.594 176.024 
176.866 177.261 178.038 178.399 179.13 179.475 170.297 170.948 171.295 
171.989 172.361 173.106 173.517 174.323 174.777 175.613 176.076 176.881 
177.305 178.046 178.417 179.115 179.435 169.416 170.01 170.361 170.994 
171.371 172.043 172.456 173.185 173.647 174.433 174.924 175.73 176.196 
176.967 177.368 178.078 178.408 179.068 179.335 179.051 178.118 178.494 
178.27 177.066 177.486 177.212 177.62 177.352 175.886 176.355 176.049 
176.486 176.171 176.628 176.351 174.616 175.112 174.787 175.255 174.904 
175.383 175.063 175.575 175.265 173.34 173.819 173.478 173.95 173.56 
174.046 173.668 174.206 173.849 174.396 174.001 172.137 172.558 172.194 
172.636 172.219 172.672 172.243 172.753 172.357 172.915 172.518 173.057 
172.643 171.036 171.388 170.991 171.376 170.943 171.345 170.896 171.341 
170.923 171.429 171.044 171.575 171.205 171.733 171.412 170.015 170.314 
169.886 170.211 169.761 170.109 169.648 170.033 169.59 170.034 169.63 
170.133 169.781 170.321 170.041 170.604 170.419 169.064 169.313 168.869 
169.143 168.689 168.981 168.518 168.837 168.372 168.739 168.296 168.743 
168.376 168.911 168.653 169.244 169.094 169.706 169.638 181.552 181.604 
181.896 182.505 181.552 181.919 182.633 182.927 183.6 181.47 181.867 
182.643 183.041 183.843 184.109 184.765 181.365 181.79 182.541 182.996 
183.801 184.25 185.011 185.262 185.824 181.146 181.635 182.344 182.824 
183.522 184.044 184.786 185.304 186.001 186.27 186.743 180.785 181.322 
182.014 182.546 183.214 183.71 184.385 184.939 185.67 186.214 186.815 
187.074 187.345 180.381 180.903 181.563 182.136 182.835 183.38 184.052 
184.561 185.215 185.771 186.361 186.862 187.192 187.416 187.429 180.018 
180.5 181.131 181.672 182.347 182.937 183.597 184.168 184.736 185.274 
185.742 186.273 186.608 187.026 187.145 187.324 187.27 179.683 180.147 
180.76 181.261 181.883 182.428 183.018 183.598 184.108 184.676 185.09 
185.618 185.964 186.423 186.678 186.983 187.096 187.205 187.211 181.64 
182.606 182.084 181.994 183.67 183.097 183.02 182.439 182.274 184.757 
184.17 184.067 183.49 183.318 182.684 182.364 185.763 185.192 185.037 
184.498 184.334 183.73 183.364 182.631 182.1 186.671 186.137 185.95 
185.42 185.284 184.736 184.431 183.662 183.079 182.247 181.681 187.273 
186.93 186.735 186.288 186.169 185.695 185.496 184.78 184.259 183.326 
182.713 181.899 181.489 187.374 187.289 187.093 186.883 186.74 186.473 
186.31 185.808 185.353 184.52 183.868 182.994 182.484 181.794 181.465 
187.243 187.241 187.084 187.022 186.858 186.786 186.601 186.392 185.974 
185.437 184.764 184.028 183.389 182.718 182.26 181.697 181.325 187.198 
187.164 187.081 187.002 186.863 186.78 186.571 186.463 186.083 185.803 
185.197 184.695 184.017 183.447 182.882 182.365 181.917 181.44 181.047 
181.082 181.396 180.928 180.255 181.642 181.208 180.538 180.053 179.329 
181.708 181.396 180.745 180.322 179.595 179.088 178.255 181.432 181.309 
180.701 180.451 179.731 179.299 178.416 177.88 176.869 181.027 180.926 
180.355 180.254 179.57 179.298 178.403 177.953 176.941 176.394 175.382 
180.872 180.627 180.059 179.888 179.241 179.025 178.198 177.848 176.92 
176.464 175.562 175.027 174.219 180.878 180.589 180.001 179.715 179.078 
178.775 178.034 177.673 176.88 176.476 175.705 175.247 174.504 174.01 
173.333 180.768 180.553 179.946 179.683 179.051 178.731 178.049 177.654 
176.938 176.524 175.828 175.411 174.705 174.255 173.537 173.108 172.45 
180.533 180.369 179.77 179.562 178.949 178.701 178.064 177.732 177.04 
176.641 175.933 175.534 174.826 174.413 173.683 173.256 172.555 172.177 
171.556 181.954 182.269 182.429 183.097 182.5 182.736 183.429 183.63 
184.342 182.473 182.852 183.545 183.887 184.634 184.889 185.534 182.204 
182.683 183.325 183.809 184.516 185 185.699 185.978 186.393 181.842 
182.337 182.942 183.452 184.068 184.648 185.33 185.896 186.433 186.651 
186.792 181.527 181.971 182.579 183.056 183.634 184.136 184.738 185.351 
185.971 186.487 186.838 186.925 186.917 181.326 181.694 182.282 182.724 
183.325 183.758 184.319 184.796 185.384 185.945 186.455 186.832 187.034 
187.032 187.012 181.189 181.516 182.056 182.455 183.062 183.49 184.094 
184.49 185.058 185.475 185.996 186.414 186.755 186.998 187.096 187.111 
187.115 181.02 181.356 181.86 182.233 182.807 183.237 183.881 184.311 
184.948 185.3 185.828 186.108 186.47 186.699 186.882 187.036 187.094 
187.158 187.178 
POINT_DATA 1002
SCALARS Distance double
LOOKUP_TABLE default
178.374 179.227 178.394 177.466 177.493 177.458 176.441 176.504 176.45 
176.381 175.303 175.412 175.271 175.217 175.057 174.084 174.235 173.967 
173.9 173.799 173.723 172.809 173.007 172.617 172.492 172.465 172.506 
172.617 171.51 171.789 171.279 171.091 171.066 171.217 171.425 171.614 
170.259 170.655 169.994 169.788 169.711 169.865 170.139 170.388 170.605 
169.113 169.632 168.786 168.58 168.465 168.546 168.816 169.114 169.383 
169.667 168.069 168.706 167.655 167.427 167.297 167.295 167.502 167.828 
168.149 168.475 168.84 179.548 178.721 179.888 179.077 180.264 177.817 
179.394 180.641 178.123 176.778 179.673 180.923 178.355 176.998 175.608 
179.928 181.064 178.638 177.227 175.794 174.383 180.112 181.149 178.937 
177.556 176.085 174.628 173.183 180.227 181.255 179.065 177.757 176.384 
174.993 173.542 172.053 180.301 181.308 179.069 177.727 176.455 175.246 
173.947 172.501 171.011 180.291 181.219 179.085 177.714 176.42 175.277 
174.149 172.907 171.521 170.07 180.458 179.387 179.554 178.401 178.584 
178.06 177.26 177.353 176.993 176.631 175.667 175.799 175.526 175.36 
175.262 173.987 174.423 173.637 173.565 173.759 174.02 172.928 173.502 
172.264 171.893 172.093 172.569 172.884 172.28 172.704 171.66 171.054 
170.94 171.306 171.637 171.671 171.51 171.823 171.068 170.478 170.096 
170.186 170.413 170.408 170.226 170.602 170.963 170.18 169.614 169.064 
168.844 168.914 168.929 168.797 168.683 167.272 167.071 165.681 167.042 
165.273 164.097 167.1 165.116 163.553 162.692 167.173 165.236 163.392 
162.117 161.569 167.415 165.624 163.742 162.047 161.117 160.802 167.968 
166.239 164.484 162.634 161.253 160.65 160.31 168.661 166.96 165.293 
163.592 162.051 161.069 160.447 159.906 169.286 167.705 166.058 164.512 
163.118 161.995 161.081 160.235 159.65 169.83 168.45 166.89 165.388 
164.106 163.038 162.059 161.05 160.169 159.734 166.632 165.12 166.282 
163.676 164.869 166.113 162.394 163.498 164.75 166.04 161.319 162.212 
163.416 164.77 166.164 160.488 161.08 162.186 163.613 165.084 166.511 
159.887 160.246 161.164 162.609 164.164 165.592 166.924 159.565 159.848 
160.535 161.756 163.317 164.796 166.102 167.331 159.626 159.907 160.422 
161.227 162.492 163.999 165.384 166.614 167.771 160.055 160.217 160.775 
161.097 161.588 160.659 161.942 162.448 161.511 161.144 162.89 163.553 
162.384 161.937 161.927 164.099 164.836 163.506 162.997 162.851 163.287 
165.365 166.111 164.741 164.282 164.116 164.358 164.859 166.596 167.354 
165.928 165.489 165.4 165.596 165.911 166.249 167.831 168.54 167.177 
166.714 166.589 166.755 167.002 167.233 167.48 169.007 169.612 168.46 
168.046 167.853 167.892 168.047 168.224 168.41 168.612 160.325 160.73 
161.338 161.782 162.529 161.424 162.972 163.659 162.454 162.253 164.182 
164.836 163.745 163.453 163.325 165.537 166.15 165.162 164.974 164.743 
164.614 166.97 167.447 166.631 166.445 166.25 165.978 165.909 168.31 
168.666 168.042 167.807 167.583 167.334 167.163 167.199 169.55 169.836 
169.345 169.135 168.906 168.683 168.503 168.438 168.473 170.685 170.904 
170.527 170.383 170.23 170.059 169.867 169.719 169.654 169.623 170.719 
169.516 170.515 169.226 170.259 168.07 168.911 169.975 167.773 166.525 
168.714 169.874 167.571 166.349 165.134 168.82 170.027 167.578 166.313 
165.06 163.979 169.074 170.235 167.807 166.457 165.101 163.938 162.969 
169.259 170.39 168.042 166.733 165.341 164.063 162.974 161.949 169.467 
170.591 168.27 167.027 165.698 164.398 163.236 162.08 160.966 171.885 
171.72 172.955 172.832 174.107 171.565 173.984 175.227 172.679 171.342 
175.149 176.343 173.807 172.469 171.113 176.332 177.428 174.978 173.592 
172.274 171.059 177.388 178.349 176.157 174.77 173.438 172.236 171.19 
178.282 179.162 177.217 175.962 174.684 173.47 172.358 171.355 179.156 
179.964 178.205 177.07 175.893 174.758 173.606 172.506 171.511 179.977 