# vtk DataFile Version 4.0
vtk output
ASCII
DATASET POLYDATA
POINTS 1002 float
-104.018 -122.111 78.6147 -104.623 -123.02 78.2135 -104.089 -122.807 77.5707 
-103.5 -121.751 77.9689 -103.666 -122.303 76.876 -103.556 -120.96 79.1282 
-103.112 -121.001 77.2484 -103.429 -121.303 76.1481 -103.097 -120.316 78.4979 
-103.087 -119.624 79.7559 -102.82 -119.878 76.505 -103.238 -120.085 75.4293 
-102.646 -119.347 77.7497 -102.603 -118.696 79.0884 -102.403 -118.234 80.3354 
-102.436 -118.782 75.8062 -102.867 -119.018 74.7571 -102.064 -118.385 76.9979 
-101.924 -117.802 78.2978 -101.755 -117.35 79.6391 -101.524 -117.016 80.8551 
-101.845 -117.82 75.111 -102.349 -117.978 74.1093 -101.314 -117.612 76.2711 
-100.989 -117.238 77.5122 -100.88 -116.777 78.8828 -100.736 -116.398 80.2614 
-100.693 -115.966 81.4306 -101.197 -116.846 74.3805 -101.849 -116.88 73.5033 
-100.563 -116.801 75.4827 -100.09 -116.667 76.6861 -99.9239 -116.313 78.0663 
-99.905 -115.839 79.5905 -99.9364 -115.345 80.9169 -100.109 -114.799 81.9501 
-100.664 -115.911 73.7109 -101.369 -115.925 72.9835 -100.03 -115.87 74.687 
-99.5671 -115.76 75.8258 -99.3368 -115.469 77.1501 -99.2511 -115.002 78.7395 
-99.2823 -114.49 80.2494 -99.4855 -113.967 81.383 -99.7767 -113.454 82.3092 
-100.279 -114.991 73.1469 -100.889 -115.112 72.4963 -99.7528 -114.811 74.0006 
-99.3918 -114.556 75.0511 -99.2252 -114.196 76.2684 -99.0872 -113.771 77.7517 
-98.9354 -113.376 79.3624 -98.9926 -112.97 80.6899 -99.2774 -112.514 81.6956 
-99.5882 -112.096 82.6077 -100.033 -113.984 72.6446 -100.485 -114.276 71.9957 
-99.644 -113.598 73.4433 -99.3107 -113.163 74.4103 -99.1528 -112.711 75.5152 
-99.131 -112.303 76.786 -99.0107 -112.037 78.2817 -98.8587 -111.827 79.7822 
-98.9273 -111.501 81.0055 -99.1853 -111.105 81.9977 -99.4625 -110.8 82.8965 
-105.056 -123.642 77.3825 -104.552 -123.374 76.6839 -105.592 -124.166 76.3699 
-105.132 -123.779 75.6309 -106.068 -124.677 75.1949 -104.196 -122.681 75.9617 
-105.672 -124.132 74.4772 -106.586 -125.135 74.0826 -104.824 -122.928 74.9294 
-103.99 -121.511 75.2178 -106.333 -124.307 73.4759 -107.421 -125.188 73.2429 
-105.438 -123.155 73.8428 -104.584 -121.73 74.2153 -103.713 -120.309 74.4867 
-107.254 -124.069 72.6489 -108.439 -124.68 72.511 -106.178 -123.172 72.8474 
-105.231 -121.918 73.1711 -104.249 -120.551 73.5299 -103.284 -119.224 73.8279 
-108.186 -123.626 71.7636 -109.292 -124.047 71.6632 -107.015 -122.96 71.9086 
-105.958 -121.899 72.1777 -104.946 -120.627 72.5736 -103.895 -119.3 72.9571 
-102.886 -117.972 73.2478 -108.995 -123.24 70.8852 -109.989 -123.616 70.8104 
-107.829 -122.694 71.0168 -106.659 -121.779 71.2748 -105.63 -120.584 71.6689 
-104.634 -119.261 72.0996 -103.607 -117.88 72.4705 -102.511 -116.718 72.7488 
-109.773 -122.747 70.2212 -110.681 -123.165 70.1211 -108.655 -122.244 70.3135 
-107.405 -121.512 70.4844 -106.273 -120.52 70.8198 -105.278 -119.313 71.2408 
-104.297 -117.921 71.6631 -103.216 -116.642 72.0263 -102.002 -115.764 72.2821 
-110.497 -122.026 69.7242 -111.343 -122.485 69.5924 -109.426 -121.549 69.7747 
-108.183 -120.999 69.7975 -107.017 -120.289 69.9988 -105.977 -119.344 70.3982 
-104.946 -118.103 70.8526 -103.864 -116.766 71.2706 -102.653 -115.719 71.5719 
-101.421 -114.987 71.77 -111.405 -121.343 69.1975 -110.355 -120.893 69.2218 
-111.196 -120.322 68.599 -109.865 -120.01 68.3621 -110.714 -119.525 67.6879 
-109.059 -120.478 69.11 -109.315 -119.145 67.386 -110.258 -118.307 66.8509 
-108.549 -119.629 68.235 -107.849 -119.965 69.1371 -109.052 -117.591 66.9653 
-109.988 -116.569 66.7056 -108.25 -118.459 67.7159 -107.626 -118.906 68.6266 
-106.841 -119.184 69.535 -108.884 -115.804 67.4008 -109.727 -115.194 67.4432 
-108.109 -116.662 67.8926 -107.487 -117.344 68.6457 -106.713 -117.772 69.3933 
-105.738 -118.052 70.1134 -108.567 -114.496 68.3745 -109.394 -114.173 68.6013 
-107.793 -115.002 68.5014 -107.156 -115.567 68.9847 -106.41 -116.033 69.5783 
-105.406 -116.443 70.0898 -104.474 -116.708 70.6225 -108.249 -113.132 69.3242 
-109.071 -112.808 69.5459 -107.397 -113.544 69.2408 -106.673 -114.014 69.4288 
-105.926 -114.419 69.8603 -104.941 -114.799 70.2288 -103.893 -115.211 70.4986 
-103.12 -115.526 70.9431 -107.994 -111.438 69.9268 -108.757 -111.23 70.1043 
-107.085 -111.792 69.8539 -106.232 -112.287 69.9298 -105.419 -112.785 70.2128 
-104.425 -113.21 70.4586 -103.285 -113.68 70.4776 -102.321 -114.205 70.6047 
-101.731 -114.65 71.1 -107.693 -109.938 70.3276 -108.408 -109.925 70.5156 
-106.76 -110.085 70.271 -105.797 -110.412 70.3067 -104.896 -110.873 70.4664 
-103.883 -111.376 70.6327 -102.7 -111.944 70.5597 -101.629 -112.626 70.4313 
-100.942 -113.304 70.6759 -100.623 -113.849 71.2961 -99.9797 -113.024 71.9333 
-100.043 -112.446 71.1922 -99.7487 -111.398 72.1046 -100.268 -111.682 70.5998 
-99.7392 -110.675 71.3639 -99.5583 -109.667 72.4631 -100.94 -110.742 70.4163 
-99.8585 -109.655 70.7264 -99.5606 -108.719 71.6436 -99.2797 -107.909 72.7665 
-102.105 -109.874 70.5158 -100.563 -108.489 70.3885 -99.7585 -107.462 70.8927 
-99.4155 -106.702 71.8679 -99.1152 -106.059 73.0099 -103.37 -109.292 70.5598 
-101.84 -107.67 70.333 -100.68 -106.365 70.4928 -99.8667 -105.519 71.2575 
-99.3456 -104.871 72.2829 -99.1455 -104.269 73.4249 -104.437 -108.974 70.572 
-103.081 -107.443 70.5341 -102.025 -105.952 70.5781 -101.033 -104.834 71.1403 
-100.032 -104.051 72.0015 -99.4402 -103.291 72.9265 -99.2768 -102.601 73.9394 
-105.48 -108.822 70.6578 -104.114 -107.569 70.9501 -103.116 -106.159 71.1123 
-102.363 -104.769 71.4404 -101.372 -103.662 72.0311 -100.381 -102.672 72.6936 
-99.8197 -101.736 73.4247 -99.5526 -101.116 74.3588 -106.591 -108.784 70.744 
-105.241 -107.722 71.2949 -104.074 -106.515 71.7318 -103.365 -105.075 71.9729 
-102.723 -103.659 72.2373 -101.838 -102.39 72.6275 -100.996 -101.248 73.107 
-100.415 -100.445 73.7881 -100.002 -100.137 74.8046 -107.55 -108.829 70.8685 
-106.413 -107.801 71.4473 -105.198 -106.715 72.0589 -104.294 -105.416 72.4191 
-103.737 -103.955 72.5857 -103.15 -102.518 72.8129 -102.384 -101.24 73.1485 
-101.631 -100.288 73.6067 -101.023 -99.8183 74.3613 -100.555 -99.7587 75.4753 
-99.705 -112.452 72.7629 -99.4455 -110.664 73.1162 -99.3139 -111.815 73.7258 
-98.9988 -108.997 73.583 -98.7472 -109.985 74.1963 -98.8868 -111.236 74.7927 
-98.6937 -107.35 73.9465 -98.1452 -108.451 74.6947 -98.2156 -109.464 75.2325 
-98.8158 -110.778 75.9128 -98.8653 -105.519 74.2602 -98.2564 -106.91 75.0746 
-97.982 -108.025 75.6017 -98.5018 -109.097 76.2124 -99.0139 -110.514 77.1975 
-99.1171 -103.632 74.692 -98.8321 -105.074 75.4738 -98.5179 -106.493 76.0252 
-98.6868 -107.619 76.5643 -99.0547 -108.867 77.5378 -99.0328 -110.4 78.7671 
-99.2023 -101.899 75.1947 -99.0562 -103.104 76.0499 -98.9607 -104.593 76.7355 
-99.0062 -105.974 77.3377 -99.1697 -107.209 78.1941 -99.1253 -108.649 79.3239 
-98.9272 -110.192 80.3322 -99.3897 -100.649 75.7271 -99.0591 -101.468 76.7272 
-98.9797 -102.644 77.6013 -99.0026 -104.098 78.3845 -99.0413 -105.52 79.2285 
-99.0315 -106.88 80.1482 -98.9626 -108.369 80.9836 -98.9865 -109.849 81.5908 
-99.8309 -100.051 76.3773 -99.3032 -100.538 77.4171 -99.0796 -101.26 78.3585 
-99.028 -102.411 79.2104 -98.9478 -103.91 80.0996 -98.8711 -105.368 80.9517 
-98.8949 -106.731 81.644 -99.0134 -108.164 82.1813 -99.2106 -109.575 82.5919 
-100.741 -99.7422 76.9379 -100.031 -100.032 77.9418 -101.125 -99.6161 78.6096 
-100.462 -99.9748 79.5283 -101.656 -99.356 80.1443 -99.5628 -100.471 78.9092 
-100.992 -99.9365 80.9812 -102.163 -99.34 81.509 -100.034 -100.552 80.3086 
-99.3803 -101.205 79.7287 -101.446 -100.145 82.4621 -102.594 -99.7419 82.868 
-100.478 -100.782 81.7837 -99.798 -101.476 81.0647 -99.238 -102.496 80.5967 
-101.897 -100.601 83.8285 -103.071 -100.343 84.1109 -100.844 -101.108 83.357 
-100.136 -101.832 82.6321 -99.5738 -102.86 81.9681 -99.0453 -104.103 81.5189 
-102.501 -101.196 84.8682 -103.638 -101.016 85.1577 -101.385 -101.595 84.5186 
-100.511 -102.192 84.0944 -99.9553 -103.159 83.4603 -99.4383 -104.402 82.794 
-99.0054 -105.574 82.2486 -103.144 -101.86 85.8603 -104.183 -101.727 86.1078 
-102.128 -102.304 85.4086 -101.149 -102.873 85.0606 -100.405 -103.604 84.7264 
-99.9174 -104.687 84.1025 -99.4773 -105.882 83.3878 -99.1437 -106.987 82.7899 
-103.687 -102.544 86.8201 -104.71 -102.461 86.8787 -102.783 -103.022 86.4365 
-101.896 -103.747 85.9838 -101.002 -104.449 85.7083 -100.336 -105.255 85.3082 
-99.9209 -106.313 84.6007 -99.5863 -107.413 83.883 -99.3426 -108.474 83.2505 
-104.283 -103.338 87.445 -105.346 -103.296 87.3842 -103.353 -103.697 87.2746 
-102.544 -104.422 86.9174 -101.679 -105.257 86.624 -100.853 -106.029 86.3278 
-100.321 -106.901 85.7332 -100.013 -107.914 84.9626 -99.7617 -108.913 84.267 
-99.5771 -109.864 83.598 -101.482 -99.6763 75.6609 -101.809 -99.5649 77.267 
-102.556 -99.7894 76.1581 -103.041 -99.4658 77.7507 -103.754 -99.9355 76.7042 
-102.321 -99.2174 78.9827 -104.358 -99.48 78.1074 -105.026 -100.094 77.0092 
-103.585 -99.0761 79.3427 -102.855 -98.9532 80.464 -105.667 -99.702 78.2532 
-106.222 -100.48 77.2255 -104.854 -99.3066 79.5521 -104.029 -99.1107 80.7452 
-103.307 -99.1848 81.806 -106.804 -100.272 78.479 -107.212 -101.175 77.6211 
-106.176 -99.7349 79.6775 -105.338 -99.5681 81.0098 -104.53 -99.4969 82.1585 
-103.785 -99.7299 83.1896 -107.675 -101.162 78.8906 -108.031 -102.015 78.0905 
-107.343 -100.408 79.8969 -106.813 -100.018 81.232 -106.032 -99.8713 82.5375 
-105.171 -99.9635 83.5544 -104.35 -100.406 84.4238 -108.468 -102.103 79.2561 
-108.828 -102.852 78.451 -108.22 -101.338 80.1662 -107.99 -100.733 81.3831 
-107.487 -100.402 82.7456 -106.662 -100.4 83.8181 -105.748 -100.756 84.6319 
-104.908 -101.244 85.4139 -109.394 -102.881 79.4473 -109.677 -103.589 78.6922 
-109.104 -102.206 80.3248 -108.866 -101.629 81.4491 -108.532 -101.244 82.7675 
-107.9 -101.143 83.9101 -107.062 -101.37 84.7418 -106.226 -101.745 85.4923 
-105.437 -102.079 86.2495 -110.357 -103.517 79.5341 -110.497 -104.214 78.862 
-110.115 -102.889 80.3645 -109.81 -102.384 81.4395 -109.463 -102.044 82.7194 
[...]
CELL_DATA 2000
SCALARS Distance double
LOOKUP_TABLE default
177.924 177.103 177.38 177.084 176.073 176.453 176.126 176.48 176.182 
174.853 175.3 174.935 175.381 175.031 175.479 175.15 173.596 174.034 
173.646 174.1 173.719 174.205 173.865 174.363 174.045 172.317 172.761 
172.356 172.803 172.422 172.884 172.573 173.067 172.82 173.3 173.061 
170.996 171.44 171.021 171.493 171.12 171.602 171.306 171.814 171.604 
172.115 171.926 172.392 172.179 169.761 170.137 169.721 170.161 169.807 
170.294 170.002 170.532 170.304 170.868 170.671 171.217 170.999 171.495 
171.265 168.661 168.972 168.547 168.921 168.56 169.007 168.705 169.214 
168.962 169.523 169.315 169.899 169.701 170.255 170.045 170.561 170.365 
167.622 167.908 167.455 167.784 167.364 167.767 167.4 167.892 167.596 
168.158 167.941 168.537 168.377 168.956 168.799 169.335 169.171 169.686 
169.541 178.297 178.576 178.144 177.493 178.76 178.374 177.702 177.254 
176.484 178.886 178.503 177.819 177.404 176.601 176.128 175.27 179.037 
178.616 177.9 177.486 176.682 176.212 175.331 174.862 174.006 179.102 
178.728 177.962 177.554 176.744 176.286 175.409 174.924 174.04 173.59 
172.736 178.969 178.696 177.934 177.575 176.753 176.33 175.462 175 
174.106 173.63 172.732 172.287 171.424 178.771 178.534 177.842 177.515 
176.718 176.316 175.461 175.03 174.151 173.689 172.781 172.299 171.407 
170.976 170.173 178.608 178.381 177.73 177.428 176.656 176.274 175.435 
175.024 174.178 173.735 172.859 172.367 171.478 170.999 170.172 169.777 
169.054 178.388 178.207 177.536 177.285 176.506 176.179 175.357 174.996 
174.2 173.792 172.978 172.487 171.627 171.11 170.268 169.809 169.039 
168.68 168 178.004 177.003 177.39 177.103 175.841 176.273 175.932 
176.375 176.028 174.53 175.027 174.671 175.144 174.819 175.26 174.916 
173.126 173.653 173.38 173.901 173.658 174.103 173.822 174.194 173.838 
172.014 172.346 172.126 172.633 172.471 172.974 172.723 173.125 172.742 
173.084 172.631 171.372 171.469 171.159 171.483 171.278 171.759 171.49 
171.949 171.512 171.902 171.371 171.758 171.245 170.744 170.853 170.379 
170.588 170.226 170.592 170.256 170.674 170.213 170.592 170.017 170.406 
169.852 170.304 169.845 169.824 170.026 169.426 169.67 169.143 169.49 
169.043 169.443 168.94 169.293 168.671 169.016 168.402 168.849 168.369 
168.913 168.566 168.855 169.014 168.365 168.575 167.941 168.265 167.69 
168.121 167.53 167.949 167.251 167.62 166.915 167.351 166.821 167.391 
167.067 167.698 167.491 166.783 166.244 166.167 165.556 165.838 165.586 
164.851 164.899 164.364 165.772 165.226 164.245 164.122 163.469 163.663 
163.163 166.042 165.268 164.04 163.564 162.664 162.693 162.117 162.393 
161.921 166.384 165.594 164.314 163.534 162.467 162.074 161.406 161.421 
160.976 161.2 160.85 166.679 165.963 164.845 163.986 162.981 162.242 
161.575 161.133 160.719 160.548 160.228 160.306 160.056 167.067 166.38 
165.499 164.68 163.871 163.031 162.434 161.718 161.302 160.745 160.377 
160.032 159.709 159.654 159.435 167.605 166.942 166.254 165.499 164.859 
164.05 163.505 162.729 162.276 161.565 161.125 160.493 160.065 159.626 
159.33 159.193 159.108 168.185 167.584 167.009 166.343 165.791 165.063 
164.532 163.783 163.291 162.56 162.097 161.373 160.928 160.252 159.916 
159.433 159.332 159.144 159.292 166.889 165.716 166.432 166.713 164.558 
165.252 165.496 166.24 166.563 163.397 164.091 164.256 164.966 165.231 
166.083 166.518 162.226 162.933 163.113 163.742 163.938 164.716 165.164 
166.113 166.699 161.19 161.846 162.17 162.732 162.99 163.567 164.011 
164.83 165.52 166.44 167.119 160.332 160.922 161.345 161.937 162.349 
162.84 163.31 163.904 164.6 165.396 166.182 166.985 167.646 159.615 
160.11 160.498 161.143 161.634 162.248 162.767 163.338 163.962 164.629 
165.371 166.128 166.831 167.546 168.12 159.239 159.504 159.847 160.346 
160.837 161.48 162.049 162.721 163.33 163.999 164.645 165.349 166.003 
166.727 167.323 168 168.516 159.407 159.39 159.742 159.934 160.417 
160.821 161.411 161.996 162.658 163.321 163.977 164.633 165.253 165.918 
166.519 167.199 167.768 168.408 168.918 159.815 160.69 160.155 160.099 
161.653 161.098 161 160.537 160.663 162.627 162.079 162.016 161.493 
161.558 161.192 161.535 163.732 163.127 163.119 162.556 162.641 162.166 
162.454 162.189 162.727 164.969 164.319 164.318 163.723 163.829 163.31 
163.586 163.205 163.675 163.462 164.051 166.245 165.58 165.556 164.946 
165.033 164.511 164.77 164.364 164.784 164.476 164.978 164.765 165.312 
167.522 166.861 166.855 166.216 166.315 165.743 165.992 165.541 165.939 
165.588 166.05 165.747 166.233 166.011 166.553 168.735 168.121 168.153 
167.548 167.699 167.105 167.369 166.827 167.198 166.761 167.208 166.847 
167.319 167.008 167.509 167.277 167.812 169.893 169.307 169.348 168.808 
168.974 168.471 168.738 168.23 168.551 168.061 168.44 168.024 168.461 
168.115 168.58 168.284 168.759 168.519 168.986 159.969 160.741 160.474 
160.856 161.753 161.356 161.639 161.406 161.796 162.81 162.378 162.587 
162.245 162.541 162.324 162.729 163.874 163.413 163.62 163.227 163.508 
163.164 163.53 163.312 163.814 165.05 164.521 164.748 164.309 164.654 
164.247 164.642 164.269 164.746 164.509 165.077 166.314 165.759 165.991 
165.508 165.899 165.483 165.944 165.509 165.972 165.581 166.102 165.834 
166.392 167.546 167.025 167.255 166.775 167.152 166.759 167.248 166.848 
167.316 166.874 167.338 166.957 167.468 167.171 167.685 168.697 168.224 
168.446 167.997 168.334 167.97 168.435 168.107 168.58 168.189 168.621 
168.211 168.666 168.305 168.776 168.454 168.904 169.744 169.328 169.541 
169.131 169.434 169.086 169.512 169.225 169.705 169.388 169.831 169.455 
169.882 169.503 169.939 169.574 169.998 169.65 170.068 168.318 168.213 
167.91 167.202 168.112 167.8 167.066 166.77 166.026 168.053 167.7 
166.943 166.62 165.862 165.563 164.797 168.16 167.723 166.994 166.566 
165.807 165.425 164.657 164.327 163.57 168.407 167.925 167.222 166.727 
165.976 165.484 164.707 164.262 163.49 163.128 162.386 168.672 168.188 
167.456 166.972 166.21 165.709 164.922 164.412 163.628 163.15 162.378 
161.975 161.242 168.958 168.456 167.725 167.21 166.467 165.952 165.198 
164.669 163.922 163.391 162.656 162.12 161.386 160.91 160.26 169.308 
168.795 168.133 167.566 166.89 166.307 165.625 165.031 164.357 163.777 
163.143 162.553 161.926 161.294 160.692 160.134 159.689 169.693 169.207 
168.627 168.066 167.457 166.849 166.225 165.585 164.964 164.329 163.769 
163.162 162.665 162.017 161.537 160.843 160.445 159.848 159.64 169.033 
170.105 169.349 168.937 171.248 170.466 170.059 169.287 168.875 172.422 
171.643 171.256 170.454 170.033 169.227 168.817 173.588 172.835 172.467 
171.666 171.24 170.408 169.973 169.188 168.861 174.687 173.991 173.645 
172.875 172.462 171.628 171.192 170.369 170.031 169.308 169.088 175.67 
175.038 174.712 174.016 173.647 172.864 172.464 171.627 171.289 170.516 
170.293 169.589 169.391 176.571 175.974 175.655 175.025 174.701 174.019 
173.683 172.912 172.578 171.792 171.532 170.806 170.595 169.885 169.668 
177.425 176.856 176.558 175.954 175.664 175.042 174.763 174.087 173.789 
173.052 172.759 172.024 171.77 171.066 170.837 170.149 169.952 178.197 
177.686 177.431 176.871 176.626 176.023 175.776 175.138 174.879 174.206 
173.936 173.226 172.956 172.235 171.986 171.292 171.081 170.43 170.272 
178.507 178.792 178.365 177.799 179.172 178.705 178.152 177.674 177.06 
179.548 179.09 178.512 178.04 177.392 176.891 176.21 179.864 179.414 
178.779 178.335 177.637 177.166 176.431 175.976 175.283 180.171 179.704 
179.035 178.56 177.829 177.35 176.604 176.155 175.454 175.036 174.362 
180.401 179.975 179.296 178.822 178.081 177.562 176.809 176.329 175.636 
175.209 174.53 174.101 173.405 180.524 180.135 179.457 179.043 178.325 
177.837 177.07 176.561 175.828 175.384 174.683 174.257 173.529 173.107 
172.409 180.7 180.27 179.611 179.185 178.512 178.065 177.336 176.829 
176.062 175.571 174.828 174.385 173.646 173.217 172.499 172.114 171.48 
180.93 180.506 179.865 179.4 178.745 178.282 177.601 177.102 176.361 
175.828 175.07 174.561 173.826 173.354 172.649 172.223 171.584 171.227 
170.67 180.781 180.044 180.236 179.745 179.101 179.412 179.006 179.146 
178.612 178.114 178.436 178.056 178.315 177.815 177.972 177.424 177.109 
177.431 177.002 177.304 176.816 177.068 176.52 176.72 176.156 176.006 
176.366 175.922 176.235 175.746 176.023 175.495 175.74 175.179 175.396 
174.843 174.806 175.199 174.766 175.128 174.656 174.959 174.443 174.701 
174.149 174.382 173.818 174.063 173.555 173.518 173.941 173.471 173.903 
173.429 173.819 173.303 173.623 173.056 173.324 172.742 173.004 172.472 
172.779 172.344 172.159 172.597 172.103 172.554 172.076 172.519 172.021 
172.414 171.868 172.189 171.612 171.896 171.36 171.674 171.241 171.605 
171.271 170.866 171.259 170.808 171.215 170.77 171.18 170.729 171.127 
170.656 171.004 170.496 170.783 170.278 170.571 170.154 170.51 170.2 
170.597 170.354 181.258 181.499 181.098 180.428 181.514 181.162 180.443 
180.11 179.415 181.594 181.176 180.501 180.121 179.497 179.124 178.488 
181.757 181.374 180.859 180.404 179.893 179.366 178.752 178.246 177.55 
181.656 181.497 181.118 180.864 180.402 179.886 179.143 178.536 177.684 
177.204 176.403 181.245 181.222 180.814 180.869 180.361 180.148 179.226 
178.736 177.662 177.217 176.307 175.973 175.182 180.833 180.751 180.224 
180.309 179.727 179.725 178.793 178.506 177.396 177.041 176.118 175.829 
175.049 174.737 173.937 180.509 180.376 179.776 179.705 179.074 179.011 
178.209 177.994 177.067 176.755 175.924 175.642 174.889 174.586 173.758 
173.421 172.565 180.138 180.052 179.455 179.312 178.657 178.489 177.778 
177.561 176.815 176.536 175.788 175.487 174.709 174.394 173.522 173.19 
172.286 171.997 171.199 181.734 182.523 182.162 182.088 183.329 182.943 
182.96 182.466 182.229 184.354 183.813 183.837 183.371 183.293 182.645 
182.347 185.459 184.884 184.766 184.262 184.232 183.729 183.54 182.806 
182.436 186.127 185.798 185.532 185.076 184.868 184.529 184.405 183.919 
183.54 182.791 182.272 186.266 186.186 185.972 185.647 185.302 184.979 
184.77 184.535 184.282 183.773 183.226 182.473 181.88 186.215 186.239 
186.218 186.031 185.815 185.412 185.107 184.787 184.553 184.283 183.903 
183.355 182.756 182.033 181.479 186.084 186.185 186.266 186.274 186.234 
185.962 185.65 185.199 184.794 184.468 184.101 183.806 183.316 182.813 
182.218 181.606 181.093 185.869 186.006 186.041 186.2 186.162 186.189 
185.894 185.627 185.073 184.692 184.14 183.875 183.393 183.129 182.583 
182.175 181.596 181.126 180.628 185.774 185.549 185.714 185.843 185.103 
185.327 185.347 185.7 185.86 184.503 184.763 184.68 185.04 185.104 
185.571 185.579 183.739 184.094 184.002 184.328 184.27 184.688 184.625 
185.049 184.81 182.738 183.212 183.133 183.566 183.46 183.838 183.671 
184.04 183.798 184.143 183.854 181.694 182.156 182.065 182.567 182.466 
182.924 182.728 183.096 182.826 183.159 182.907 183.257 183.06 180.754 
181.168 181.083 181.518 181.412 181.858 181.683 182.094 181.858 182.222 
181.979 182.332 182.123 182.501 182.288 179.81 180.243 180.147 180.574 
180.437 180.841 180.651 181.048 180.85 181.248 181.047 181.414 181.182 
181.539 181.29 181.661 181.378 178.834 179.262 179.128 179.581 179.415 
179.844 179.635 180.038 179.841 180.256 180.084 180.477 180.252 180.59 
180.311 180.654 180.383 180.735 180.456 178.254 177.434 178.06 178.507 
176.582 177.229 177.657 178.308 178.763 175.622 176.351 176.789 177.447 
177.88 178.544 178.986 174.534 175.323 175.804 176.542 176.984 177.664 
178.121 178.778 179.229 173.501 174.228 174.704 175.491 175.972 176.728 
177.199 177.912 178.391 179.05 179.49 172.59 173.243 173.671 174.405 
174.885 175.665 176.146 176.924 177.39 178.143 178.576 179.264 179.633 
171.691 172.332 172.728 173.414 173.864 174.601 175.079 175.843 176.312 
177.08 177.518 178.261 178.65 179.334 179.674 170.801 171.423 171.805 
172.469 172.887 173.596 174.054 174.799 175.279 176.028 176.504 177.226 
177.673 178.354 178.758 179.394 179.759 169.982 170.563 170.936 171.556 
171.948 172.615 173.039 173.768 174.239 175.005 175.501 176.251 176.735 
177.434 177.882 178.526 178.927 179.525 179.869 179.696 178.768 179.194 
179.039 177.701 178.186 178.009 178.436 178.197 176.51 177.028 176.809 
177.305 177.056 177.522 177.27 175.228 175.753 175.481 176.019 175.758 
176.3 176.075 176.581 176.342 173.925 174.418 174.095 174.633 174.328 
174.915 174.652 175.27 175.023 175.59 175.314 172.71 173.125 172.769 
173.246 172.903 173.446 173.104 173.722 173.379 174.061 173.728 174.415 
174.11 171.63 171.969 171.592 171.978 171.612 172.06 171.696 172.197 
171.811 172.375 171.99 172.661 172.33 173.092 172.82 170.625 170.927 
170.527 170.854 170.45 170.823 170.438 170.864 170.503 170.95 170.594 
171.07 170.743 171.332 171.076 171.802 171.6 169.657 169.927 169.496 
169.794 169.353 169.682 169.254 169.638 169.26 169.7 169.371 169.817 
169.506 169.955 169.69 170.222 170.047 170.699 170.586 178.98 179.199 
179.39 180.009 179.402 179.604 180.275 180.489 181.175 179.689 179.886 
180.618 180.806 181.559 181.715 182.371 179.876 180.19 180.96 181.192 
181.932 182.112 182.817 182.92 183.508 179.777 180.242 181.013 181.417 
182.091 182.375 182.997 183.259 183.906 184.051 184.547 179.558 180.028 
180.775 181.295 181.973 182.365 182.906 183.254 183.865 184.255 184.854 
185.001 185.281 179.372 179.786 180.461 180.979 181.673 182.148 182.716 
183.082 183.627 184.062 184.679 185.082 185.483 185.534 185.57 179.153 
179.563 180.14 180.624 181.235 181.767 182.342 182.817 183.328 183.772 
184.287 184.76 185.186 185.507 185.65 185.662 185.615 178.856 179.28 
179.806 180.257 180.772 181.267 181.775 182.318 182.819 183.354 183.799 
184.288 184.636 185.061 185.267 185.537 185.595 185.661 185.677 178.975 
180.07 179.447 179.3 181.246 180.622 180.533 179.834 179.692 182.363 
181.778 181.7 181.079 180.959 180.27 180.116 183.432 182.835 182.72 
182.169 182.072 181.483 181.296 180.618 180.296 184.435 183.863 183.723 
183.177 183.13 182.576 182.427 181.736 181.336 180.575 180.029 185.086 
184.694 184.51 184.111 184.101 183.665 183.603 182.917 182.52 181.629 
181.023 180.183 179.63 185.34 185.109 184.881 184.674 184.639 184.465 
184.436 184.009 183.635 182.831 182.173 181.255 180.648 179.862 179.441 
185.488 185.305 185.159 184.966 184.942 184.823 184.782 184.57 184.217 
183.708 183.042 182.311 181.623 180.878 180.354 179.704 179.317 185.679 
185.536 185.537 185.344 185.392 185.183 185.133 184.851 184.51 184.088 
183.489 182.952 182.289 181.693 181.101 180.508 180.016 179.476 179.063 
178.348 178.592 178.112 177.381 178.942 178.377 177.619 177.103 176.293 
179.367 178.772 177.969 177.381 176.521 175.949 175 179.549 179.121 
178.263 177.705 176.742 176.146 175.098 174.524 173.528 179.279 179.077 
178.224 177.837 176.827 176.29 175.221 174.626 173.645 173.122 172.387 
178.91 178.713 177.952 177.665 176.772 176.321 175.378 174.814 173.975 
173.401 172.764 172.274 171.803 178.787 178.487 177.827 177.489 176.775 
176.346 175.596 175.078 174.382 173.842 173.253 172.749 172.23 171.775 
171.235 178.733 178.464 177.851 177.513 176.883 176.483 175.84 175.382 
174.738 174.255 173.626 173.164 172.538 172.108 171.451 171.033 170.341 
178.533 178.361 177.763 177.521 176.897 176.597 175.967 175.61 174.962 
174.549 173.871 173.431 172.735 172.302 171.595 171.173 170.466 170.051 
169.375 181.524 181.343 181.743 182.314 181.206 181.595 182.26 182.58 
183.175 181.082 181.498 182.218 182.591 183.325 183.591 184.286 180.828 
181.313 182.016 182.504 183.258 183.706 184.485 184.8 185.444 180.502 
180.999 181.677 182.209 182.897 183.458 184.175 184.754 185.403 185.778 
186.123 180.139 180.642 181.306 181.844 182.496 183.018 183.652 184.247 
184.891 185.468 185.895 186.175 186.259 179.713 180.222 180.84 181.42 
182.055 182.593 183.179 183.716 184.348 184.927 185.485 185.875 186.1 
186.203 186.186 179.326 179.78 180.36 180.911 181.531 182.095 182.673 
183.219 183.815 184.407 184.998 185.495 185.82 186.034 186.045 186.094 
186.021 179.044 179.436 179.995 180.465 181.079 181.595 182.214 182.729 
183.341 183.882 184.452 184.975 185.316 185.663 185.689 185.857 185.753 
185.868 185.795 
POINT_DATA 1002
SCALARS Distance double
LOOKUP_TABLE default
177.637 178.436 177.699 176.806 176.805 176.811 175.751 175.665 175.825 
175.912 174.488 174.409 174.571 174.702 174.84 173.21 173.171 173.244 
173.346 173.55 173.75 171.904 171.877 171.958 172.066 172.31 172.604 
172.834 170.541 170.572 170.619 170.785 171.07 171.437 171.741 171.964 
169.3 169.414 169.324 169.481 169.743 170.103 170.479 170.782 171.052 
168.202 168.367 168.14 168.218 168.421 168.728 169.12 169.507 169.85 
170.194 167.156 167.344 167.01 166.945 167.041 167.33 167.771 168.244 
168.65 169.017 169.415 178.756 177.977 178.998 178.148 179.136 176.982 
178.227 179.299 177.084 175.739 178.326 179.488 177.149 175.816 174.439 
178.372 179.449 177.191 175.894 174.519 173.162 178.27 179.189 177.164 
175.907 174.589 173.211 171.824 178.145 178.98 177.113 175.88 174.598 
173.269 171.865 170.534 178.02 178.825 177.027 175.831 174.598 173.34 
171.971 170.601 169.383 177.778 178.564 176.811 175.681 174.562 173.442 
172.153 170.76 169.444 168.29 177.672 176.722 176.617 175.483 175.424 
175.593 174.175 173.993 174.357 174.508 172.794 172.596 173.173 173.447 
173.514 171.654 171.796 171.937 172.308 172.417 172.3 170.963 171.362 
170.865 171.039 171.128 170.994 170.823 170.239 170.636 169.941 169.877 
169.858 169.656 169.404 169.332 169.209 169.631 168.836 168.658 168.598 
168.368 167.991 167.812 167.965 168.205 168.73 167.685 167.306 167.112 
166.885 166.504 166.253 166.399 166.839 166.167 165.497 165.007 164.864 
164.196 163.893 164.563 163.311 162.905 162.694 164.741 162.821 161.867 
161.585 161.489 165.159 163.046 161.54 160.819 160.531 160.534 165.622 
163.757 162.145 161.046 160.299 159.859 159.779 166.215 164.665 163.194 
161.968 160.897 159.942 159.329 159.201 166.93 165.621 164.295 163.028 
161.836 160.647 159.612 159.054 159.074 167.622 166.48 165.275 164.028 
162.82 161.64 160.502 159.638 159.309 159.498 165.976 164.777 165.738 
163.608 164.387 165.572 162.501 163.236 164.193 165.731 161.552 162.464 
163.273 164.569 166.262 160.687 161.803 162.788 163.873 165.361 166.929 
159.869 160.945 162.16 163.359 164.659 166.101 167.47 159.447 160.231 
161.341 162.652 163.987 165.296 166.618 167.885 159.655 160.129 160.896 
162 163.329 164.623 165.846 167.098 168.325 160.297 160.517 161.263 
161.519 162.183 160.969 162.538 163.163 161.994 161.713 163.683 164.352 
163.139 162.794 162.858 164.925 165.635 164.351 164 163.966 164.205 
166.182 166.92 165.565 165.186 165.128 165.261 165.472 167.482 168.166 
166.902 166.48 166.313 166.38 166.512 166.72 168.718 169.325 168.261 
167.937 167.692 167.593 167.653 167.794 168.016 169.881 170.476 169.446 
169.218 169.063 168.9 168.831 168.902 169.045 169.219 160.117 161.014 
161.098 161.96 162.204 161.948 162.974 163.255 162.833 162.846 164.014 
164.358 163.878 163.818 163.931 165.194 165.601 165.039 165.05 165.061 
165.247 166.486 166.857 166.296 166.366 166.42 166.437 166.624 167.736 
168.046 167.546 167.619 167.763 167.768 167.811 167.973 168.892 169.153 
168.711 168.748 168.941 169.039 169.057 169.133 169.224 169.939 170.141 
169.792 169.801 169.99 170.185 170.271 170.32 170.367 170.404 168.605 
167.506 168.531 167.366 168.443 166.328 167.295 168.425 166.17 165.09 
167.454 168.604 166.237 165.018 163.865 167.721 168.898 166.494 165.199 
163.906 162.701 167.948 169.173 166.703 165.436 164.133 162.847 161.589 
168.248 169.455 166.981 165.72 164.441 163.194 161.928 160.643 168.684 
169.787 167.47 166.221 164.935 163.697 162.539 161.312 160.123 169.766 
169.676 170.876 170.848 172.024 169.656 172.06 173.185 170.862 169.585 
173.265 174.319 172.08 170.78 169.557 174.391 175.355 173.283 172.027 
170.773 169.766 175.371 176.287 174.377 173.284 172.085 171.012 170.105 
176.266 177.163 175.331 174.4 173.369 172.284 171.303 170.378 177.143 
177.971 176.267 175.397 174.495 173.507 172.488 171.521 170.615 177.948 
178.673 177.206 176.408 175.527 174.619 173.685 172.699 171.742 170.889 