# vtk DataFile Version 4.0
vtk output
ASCII
DATASET POLYDATA
POINTS 1002 float
-105.714 -122.446 75.7201 -106.268 -123.358 75.2144 -105.893 -122.924 74.4739 
-105.437 -121.767 74.9433 -105.622 -122.264 73.7248 -105.204 -121.326 76.323 
-105.086 -121.003 74.1919 -105.306 -121.418 73.0379 -104.804 -120.566 75.5774 
-104.391 -120.286 77.0184 -104.485 -120.223 73.5248 -104.82 -120.442 72.3646 
-104.226 -119.827 74.8386 -103.835 -119.516 76.307 -103.441 -119.241 77.6346 
-103.829 -119.304 72.8557 -104.287 -119.417 71.6967 -103.518 -119.021 74.1356 
-103.336 -118.605 75.5279 -103.004 -118.271 76.9255 -102.759 -117.924 78.1322 
-103.413 -118.203 72.207 -103.862 -118.356 71.1395 -102.975 -117.968 73.4188 
-102.825 -117.567 74.7411 -102.685 -117.144 76.1612 -102.346 -116.845 77.5074 
-102.16 -116.549 78.7002 -103.059 -117.021 71.6721 -103.464 -117.17 70.7145 
-102.579 -116.805 72.7653 -102.21 -116.533 73.9631 -102.027 -116.205 75.4034 
-101.732 -115.919 76.8896 -101.442 -115.675 78.192 -101.391 -115.394 79.3388 
-102.529 -115.854 71.212 -103.045 -115.935 70.3711 -102.032 -115.752 72.2204 
-101.504 -115.649 73.2712 -101.102 -115.493 74.6187 -100.775 -115.263 76.2072 
-100.546 -114.982 77.6178 -100.541 -114.664 78.8157 -100.675 -114.352 79.889 
-102.005 -114.807 70.801 -102.694 -114.848 70.1144 -101.412 -114.809 71.7144 
-100.858 -114.83 72.6786 -100.4 -114.761 73.8757 -100.027 -114.545 75.4203 
-99.7819 -114.241 76.8971 -99.8124 -113.894 78.1292 -99.9982 -113.561 79.2962 
-100.187 -113.297 80.3344 -101.669 -113.89 70.4798 -102.412 -113.939 69.9352 
-101.007 -113.89 71.2564 -100.445 -113.907 72.1414 -100.058 -113.82 73.2275 
-99.7906 -113.568 74.6708 -99.5285 -113.264 76.1542 -99.4055 -112.976 77.378 
-99.5008 -112.684 78.5463 -99.6679 -112.428 79.7384 -99.8656 -112.249 80.713 
-106.786 -123.852 74.2533 -106.325 -123.449 73.4958 -107.532 -124.198 73.1974 
-107.041 -123.684 72.4373 -108.359 -124.435 72.0947 -106.001 -122.736 72.7516 
-107.913 -123.699 71.3785 -109.128 -124.58 71.1316 -106.64 -122.878 71.7039 
-105.711 -121.727 72.0277 -108.782 -123.592 70.5377 -109.945 -124.349 70.4429 
-107.449 -122.825 70.7339 -106.27 -121.849 71.0074 -105.265 -120.599 71.3154 
-109.724 -123.163 69.8862 -110.944 -123.614 69.8775 -108.372 -122.593 69.9846 
-107.029 -121.821 70.1413 -105.82 -120.712 70.3808 -104.735 -119.507 70.704 
-110.76 -122.478 69.2115 -111.99 -122.841 69.2451 -109.378 -122.074 69.285 
-107.998 -121.494 69.3849 -106.692 -120.613 69.5745 -105.425 -119.505 69.9096 
-104.321 -118.343 70.2781 -111.701 -121.915 68.506 -112.879 -122.329 68.5549 
-110.318 -121.516 68.5207 -108.92 -120.995 68.5904 -107.666 -120.271 68.7436 
-106.457 -119.324 69.1656 -105.195 -118.199 69.6539 -104.027 -117.017 69.9984 
-112.44 -121.465 67.8524 -113.547 -121.859 67.9056 -111.13 -121.092 67.7766 
-109.723 -120.603 67.8026 -108.416 -119.937 67.9186 -107.313 -119.117 68.3224 
-106.24 -118.06 69.0134 -105.018 -116.841 69.5373 -103.774 -115.719 69.8099 
-113.011 -120.927 67.2947 -114.044 -121.263 67.3821 -111.834 -120.643 67.1254 
-110.532 -120.254 67.1009 -109.159 -119.635 67.2266 -107.915 -118.882 67.5231 
-106.938 -117.955 68.1884 -105.97 -116.77 68.979 -104.767 -115.572 69.4564 
-103.497 -114.627 69.6827 -113.866 -120.349 66.9204 -112.751 -120.089 66.6631 
-113.701 -119.39 66.4422 -112.463 -119.164 66.1441 -113.491 -118.348 66.1162 
-111.529 -119.826 66.4979 -111.943 -117.938 65.9262 -113.01 -117.053 66.0465 
-111.08 -118.702 66.1282 -110.156 -119.267 66.6227 -111.196 -116.225 65.8747 
-112.328 -115.496 66.1395 -110.305 -117.065 65.9869 -109.583 -117.817 66.3768 
-108.689 -118.454 66.8849 -110.71 -114.376 65.9668 -111.812 -114.007 66.4461 
-109.614 -115.145 65.9655 -108.906 -116.031 66.3179 -108.202 -116.871 66.7683 
-107.463 -117.568 67.3927 -110.573 -113.011 66.5695 -111.467 -112.888 67.1612 
-109.437 -113.561 66.4048 -108.565 -114.416 66.6919 -107.895 -115.229 67.0676 
-107.149 -115.935 67.5445 -106.524 -116.465 68.2709 -110.286 -112.132 67.676 
-111.006 -111.99 68.1742 -109.336 -112.475 67.4109 -108.446 -113.118 67.5709 
-107.715 -113.789 67.8723 -106.898 -114.31 68.101 -106.08 -114.787 68.5045 
-105.422 -115.215 69.0505 -109.723 -111.199 68.7766 -110.409 -110.965 69.1114 
-108.923 -111.43 68.4772 -108.114 -111.797 68.4353 -107.351 -112.297 68.6333 
-106.465 -112.74 68.7516 -105.471 -113.153 68.8328 -104.659 -113.653 69.098 
-104.051 -114.168 69.4212 -109.175 -109.981 69.5282 -109.853 -109.767 69.7528 
-108.436 -110.14 69.236 -107.653 -110.319 69.0081 -106.835 -110.656 69.0204 
-105.899 -111.096 69.102 -104.801 -111.544 69.0545 -103.812 -112.097 69.0788 
-103.171 -112.768 69.3079 -102.758 -113.406 69.6114 -101.649 -112.953 70.0384 
-101.861 -112.198 69.5902 -100.963 -111.659 70.1923 -102.225 -111.321 69.2049 
-101.128 -110.639 69.6463 -100.531 -110.03 70.547 -103.02 -110.518 69.0853 
-101.61 -109.619 69.2827 -100.811 -108.896 70.0378 -100.475 -108.347 71.2146 
-104.202 -109.929 69.2512 -102.601 -108.853 69.3766 -101.472 -107.908 69.7944 
-100.899 -107.255 70.7797 -100.611 -106.758 71.9495 -105.396 -109.427 69.3431 
-103.824 -108.318 69.6689 -102.491 -107.188 69.9443 -101.593 -106.252 70.4686 
-101.061 -105.68 71.4707 -100.623 -105.177 72.4705 -106.464 -108.982 69.3204 
-105.04 -107.812 69.7196 -103.622 -106.646 70.0881 -102.543 -105.407 70.3281 
-101.762 -104.604 70.9587 -101.144 -104.174 71.9824 -100.624 -103.747 72.9332 
-107.428 -108.741 69.4956 -106.26 -107.403 69.7476 -104.877 -106.224 70.0899 
-103.678 -104.897 70.3094 -102.792 -103.758 70.6513 -102.008 -103.228 71.4879 
-101.366 -102.972 72.5556 -100.938 -102.725 73.5588 -108.249 -108.656 69.8165 
-107.317 -107.238 70.0041 -106.158 -105.998 70.2622 -104.937 -104.781 70.5371 
-103.978 -103.521 70.8092 -103.148 -102.621 71.3308 -102.37 -102.231 72.1999 
-101.828 -102.109 73.2516 -101.509 -102.083 74.3167 -108.966 -108.58 70.0672 
-108.116 -107.262 70.3096 -107.18 -106.004 70.5968 -106.109 -104.869 70.9561 
-105.124 -103.754 71.3204 -104.287 -102.665 71.6875 -103.481 -101.819 72.1777 
-102.805 -101.433 72.9592 -102.364 -101.457 74.018 -102.061 -101.635 75.1227 
-100.965 -112.867 70.6944 -100.429 -111.448 71.009 -100.361 -112.783 71.5246 
-100.182 -109.697 71.5782 -99.9829 -111.181 71.978 -99.9398 -112.619 72.5431 
-100.208 -107.945 72.3321 -99.8632 -109.337 72.714 -99.7477 -110.844 73.2653 
-99.7716 -112.317 73.9628 -100.214 -106.245 72.9388 -99.8543 -107.6 73.4934 
-99.7208 -109.079 74.219 -99.7413 -110.572 74.9701 -99.6361 -112.014 75.5848 
-100.094 -104.574 73.3959 -99.7552 -105.887 74.093 -99.7319 -107.464 75.0789 
-99.7994 -108.999 75.996 -99.6318 -110.471 76.5437 -99.3903 -111.825 76.9104 
-100.229 -103.243 73.9997 -99.7096 -104.265 74.6774 -99.6695 -105.78 75.7278 
-99.8319 -107.376 76.7757 -99.6126 -108.938 77.4048 -99.2393 -110.404 77.7232 
-99.2149 -111.64 78.0738 -100.77 -102.452 74.7974 -100.026 -103.098 75.4094 
-99.6571 -104.259 76.3279 -99.7027 -105.689 77.3188 -99.5223 -107.221 78.0285 
-99.0336 -108.831 78.4968 -98.9029 -110.257 78.92 -99.2341 -111.416 79.3516 
-101.41 -102.013 75.649 -100.613 -102.438 76.2197 -99.9006 -103.208 76.9991 
-99.5717 -104.327 77.8693 -99.3771 -105.657 78.5494 -98.9723 -107.21 79.0898 
-98.7269 -108.781 79.6466 -98.9695 -110.112 80.1489 -99.4327 -111.242 80.5018 
-102.139 -101.511 76.3609 -101.428 -101.901 76.9227 -102.15 -101.321 77.6652 
-101.402 -101.77 78.2954 -102.259 -101.119 78.926 -100.549 -102.404 77.6259 
-101.549 -101.788 79.7215 -102.559 -101.255 80.1721 -100.511 -102.425 79.1824 
-99.7854 -103.244 78.5085 -101.9 -102.144 81.0832 -102.902 -101.75 81.4773 
-100.764 -102.625 80.6914 -99.8207 -103.377 80.0794 -99.3798 -104.408 79.2479 
-102.276 -102.598 82.3252 -103.249 -102.167 82.8197 -101.245 -103.027 81.8624 
-100.272 -103.678 81.3995 -99.5495 -104.703 80.6424 -99.1182 -105.89 79.7664 
-102.717 -103.003 83.4932 -103.712 -102.565 83.977 -101.746 -103.541 82.8699 
-100.848 -104.19 82.3787 -100.15 -105.179 81.8364 -99.5226 -106.361 81.0609 
-98.9552 -107.546 80.3141 -103.287 -103.642 84.4341 -104.256 -103.341 84.7515 
-102.359 -104.194 83.9013 -101.402 -104.898 83.3828 -100.656 -105.795 82.896 
-100.191 -106.872 82.2127 -99.6563 -107.96 81.4755 -99.1281 -109.038 80.8503 
-103.839 -104.509 85.1343 -104.797 -104.33 85.3085 -103.026 -104.942 84.7845 
-102.165 -105.623 84.3627 -101.248 -106.449 83.9109 -100.672 -107.355 83.2445 
-100.367 -108.317 82.4142 -99.9331 -109.318 81.7488 -99.5305 -110.316 81.197 
-104.328 -105.279 85.8325 -105.351 -105.142 85.8878 -103.522 -105.623 85.5953 
-102.897 -106.248 85.1959 -102.163 -107.044 84.7091 -101.411 -107.845 84.0874 
-100.982 -108.656 83.2597 -100.688 -109.573 82.4509 -100.276 -110.553 81.8708 
-99.9486 -111.463 81.356 -102.743 -101.032 75.2956 -102.814 -100.903 76.7118 
-103.569 -100.4 75.5311 -103.7 -100.289 77.0588 -104.633 -100.125 75.8863 
-102.88 -100.668 78.1089 -104.913 -100.006 77.3472 -105.78 -100.338 76.3162 
-103.878 -100.091 78.4891 -103.11 -100.496 79.3399 -106.251 -100.104 77.5889 
-106.818 -100.764 76.715 -105.279 -99.8615 78.7711 -104.221 -100.107 79.7539 
-103.491 -100.828 80.5518 -107.467 -100.471 77.8489 -107.88 -101.246 77.0266 
-106.838 -100.006 79.0558 -105.765 -100.112 80.1964 -104.7 -100.698 81.0055 
-103.909 -101.452 81.8995 -108.587 -101.115 78.117 -109.11 -101.786 77.2755 
-108.118 -100.559 79.3378 -107.374 -100.458 80.6136 -106.296 -100.878 81.489 
-105.256 -101.416 82.2863 -104.399 -101.909 83.2558 -109.683 -101.886 78.3835 
-110.253 -102.368 77.5497 -109.096 -101.459 79.5188 -108.528 -101.177 80.8024 
-107.757 -101.288 81.8193 -106.783 -101.647 82.6081 -105.812 -102.003 83.5004 
-104.951 -102.529 84.3057 -110.614 -102.638 78.6917 -111.023 -103.079 77.8824 
-110.035 -102.343 79.6765 -109.443 -102.078 80.8011 -108.827 -101.947 81.8846 
-108.056 -102.08 82.8157 -107.174 -102.378 83.6818 -106.306 -102.845 84.4444 
-105.504 -103.551 84.9696 -111.287 -103.425 79.0005 -111.51 -103.928 78.1882 
[...]
CELL_DATA 2000
SCALARS Distance double
LOOKUP_TABLE default
177.828 176.923 177.261 177.021 175.912 176.283 175.994 176.392 176.145 
174.757 175.192 174.866 175.297 175.012 175.462 175.192 173.477 173.954 
173.618 174.095 173.784 174.27 173.978 174.45 174.147 172.216 172.663 
172.311 172.79 172.463 172.98 172.682 173.194 172.892 173.374 173.086 
170.989 171.421 171.038 171.481 171.111 171.614 171.313 171.863 171.591 
172.108 171.836 172.332 172.097 169.733 170.163 169.763 170.207 169.812 
170.272 169.948 170.486 170.244 170.798 170.562 171.082 170.859 171.378 
171.193 168.568 168.915 168.52 168.938 168.58 169.01 168.699 169.177 
168.949 169.479 169.276 169.804 169.599 170.133 169.967 170.508 170.371 
167.609 167.843 167.447 167.776 167.45 167.835 167.559 167.993 167.786 
168.265 168.094 168.575 168.396 168.892 168.742 169.282 169.178 169.725 
169.632 178.158 178.395 177.952 177.284 178.602 178.159 177.457 177.025 
176.293 178.771 178.319 177.564 177.145 176.374 175.954 175.139 178.893 
178.456 177.661 177.22 176.415 175.988 175.136 174.708 173.848 178.885 
178.525 177.743 177.315 176.501 176.042 175.181 174.703 173.816 173.391 
172.572 178.774 178.464 177.714 177.352 176.552 176.129 175.28 174.792 
173.905 173.408 172.55 172.14 171.352 178.689 178.367 177.626 177.283 
176.486 176.117 175.284 174.87 174.031 173.555 172.71 172.203 171.364 
170.924 170.132 178.591 178.293 177.549 177.204 176.405 176.03 175.2 
174.823 174.03 173.651 172.891 172.426 171.618 171.063 170.233 169.741 
168.996 178.376 178.143 177.41 177.113 176.345 175.982 175.171 174.764 
173.963 173.606 172.885 172.549 171.828 171.361 170.556 169.982 169.192 
168.697 168.036 177.98 177.046 177.352 177.015 176.084 176.385 176.03 
176.354 175.98 174.952 175.319 174.888 175.297 174.895 175.253 174.807 
173.524 173.958 173.377 173.94 173.471 174.016 173.555 173.987 173.549 
172.141 172.427 171.747 172.263 171.79 172.436 172.05 172.624 172.256 
172.75 172.443 171.261 171.271 170.658 170.848 170.494 170.92 170.719 
171.203 170.972 171.452 171.208 171.705 171.426 170.762 170.682 170.166 
170.132 169.833 170.004 169.882 170.17 169.981 170.3 170.012 170.441 
170.122 170.61 170.206 170.197 170.232 169.704 169.718 169.282 169.431 
169.133 169.414 169.071 169.351 168.869 169.212 168.736 169.217 168.784 
169.286 168.845 169.401 169.55 168.966 169.084 168.482 168.667 168.128 
168.446 167.916 168.26 167.617 167.947 167.297 167.743 167.248 167.807 
167.433 167.969 167.654 166.951 166.567 166.399 165.723 166.241 165.934 
165.087 165.044 164.423 166.238 165.677 164.701 164.418 163.706 163.755 
163.337 166.592 165.863 164.856 164.255 163.459 163.192 162.738 162.833 
162.6 166.972 166.291 165.326 164.621 163.761 163.2 162.577 162.381 
162.052 162.175 161.915 167.285 166.659 165.757 165.105 164.232 163.593 
162.787 162.332 161.767 161.683 161.362 161.472 161.182 167.719 167.059 
166.234 165.557 164.733 164.059 163.227 162.594 161.879 161.507 161.097 
161.036 160.84 160.878 160.762 168.242 167.597 166.838 166.135 165.382 
164.657 163.926 163.17 162.505 161.849 161.401 161.021 160.836 160.717 
160.705 160.714 160.823 168.708 168.134 167.431 166.781 166.095 165.399 
164.771 164.023 163.477 162.716 162.297 161.639 161.375 160.953 160.872 
160.744 160.855 160.924 161.16 166.96 165.847 166.532 166.785 164.655 
165.399 165.719 166.42 166.756 163.608 164.257 164.608 165.327 165.711 
166.44 166.858 162.835 163.34 163.652 164.271 164.685 165.406 165.908 
166.631 167.125 162.08 162.576 162.834 163.406 163.836 164.496 165.079 
165.769 166.352 166.985 167.475 161.262 161.717 161.935 162.556 163.045 
163.752 164.425 165.092 165.731 166.301 166.803 167.343 167.783 160.802 
160.997 161.184 161.668 162.196 162.952 163.699 164.465 165.118 165.718 
166.18 166.694 167.105 167.653 168.116 160.91 160.841 161.015 161.163 
161.621 162.17 162.883 163.656 164.295 164.991 165.416 166.004 166.388 
166.974 167.449 168.042 168.564 161.327 161.179 161.362 161.267 161.59 
161.796 162.349 162.887 163.478 164.112 164.571 165.178 165.613 166.235 
166.762 167.391 167.959 168.539 169.059 161.655 162.185 161.859 161.713 
162.719 162.39 162.278 161.927 161.899 163.455 163.02 162.971 162.558 
162.568 162.26 162.505 164.498 163.941 163.939 163.404 163.44 163.017 
163.215 163.011 163.446 165.634 165.067 165.053 164.482 164.52 164.013 
164.194 163.819 164.158 163.99 164.481 166.745 166.184 166.167 165.603 
165.651 165.139 165.363 164.925 165.285 164.894 165.328 165.084 165.609 
167.915 167.322 167.367 166.773 166.879 166.322 166.576 166.129 166.534 
166.128 166.561 166.153 166.615 166.315 166.847 169.125 168.53 168.613 
168.043 168.212 167.643 167.89 167.381 167.728 167.328 167.726 167.365 
167.762 167.42 167.859 167.586 168.069 170.279 169.715 169.769 169.261 
169.439 168.961 169.211 168.71 168.979 168.507 168.813 168.433 168.78 
168.469 168.845 168.576 168.981 168.747 169.158 161.675 161.87 161.928 
162.234 162.291 162.194 162.508 162.49 162.77 163.116 162.779 163.02 
162.846 163.127 163.068 163.453 164.186 163.722 163.904 163.539 163.795 
163.558 163.958 163.912 164.471 165.307 164.813 165.03 164.584 164.896 
164.472 164.878 164.602 165.157 165.073 165.667 166.507 165.976 166.249 
165.797 166.211 165.756 166.205 165.751 166.245 165.927 166.478 166.301 
166.829 167.76 167.235 167.514 167.059 167.481 167.085 167.55 167.125 
167.56 167.134 167.587 167.248 167.742 167.5 168.009 168.929 168.475 
168.751 168.315 168.681 168.301 168.716 168.361 168.765 168.388 168.786 
168.411 168.853 168.523 169.015 168.743 169.243 169.966 169.589 169.877 
169.494 169.832 169.455 169.829 169.471 169.865 169.515 169.917 169.564 
169.985 169.649 170.108 169.803 170.278 169.991 170.435 168.723 168.401 
168.199 167.482 168.242 167.94 167.208 166.952 166.215 168.26 167.884 
167.146 166.772 166.016 165.715 164.967 168.365 167.967 167.232 166.788 
165.998 165.601 164.855 164.523 163.782 168.525 168.106 167.384 166.909 
166.105 165.639 164.888 164.501 163.799 163.412 162.688 168.761 168.31 
167.627 167.119 166.359 165.82 165.075 164.609 163.91 163.486 162.762 
162.35 161.696 169.059 168.594 167.959 167.442 166.748 166.173 165.464 
164.905 164.208 163.679 162.947 162.453 161.791 161.445 161.044 169.417 
168.942 168.351 167.834 167.182 166.614 165.936 165.361 164.702 164.108 
163.432 162.8 162.187 161.672 161.329 161.048 160.986 169.846 169.36 
168.821 168.286 167.679 167.093 166.446 165.857 165.249 164.669 164.1 
163.457 162.936 162.298 161.989 161.536 161.514 161.246 161.349 169.437 
170.425 169.663 169.151 171.488 170.709 170.22 169.424 168.976 172.602 
171.82 171.356 170.535 170.063 169.3 168.942 173.707 172.948 172.506 
171.696 171.229 170.417 170.018 169.305 169.021 174.75 174.034 173.617 
172.85 172.437 171.627 171.248 170.451 170.148 169.431 169.195 175.728 
175.06 174.686 173.96 173.594 172.839 172.512 171.731 171.441 170.656 
170.398 169.654 169.435 176.647 176.036 175.723 175.041 174.709 173.987 
173.67 172.949 172.67 171.943 171.675 170.916 170.654 169.916 169.707 
177.48 176.934 176.663 176.062 175.777 175.105 174.797 174.083 173.787 
173.094 172.832 172.14 171.876 171.148 170.899 170.196 170.023 178.235 
177.738 177.486 176.956 176.708 176.13 175.867 175.207 174.918 174.212 
173.935 173.248 172.999 172.318 172.077 171.386 171.186 170.526 170.406 
178.573 178.899 178.43 177.84 179.267 178.768 178.127 177.668 177.066 
179.587 179.108 178.428 177.945 177.3 176.88 176.259 179.907 179.417 
178.751 178.24 177.576 177.117 176.479 176.041 175.36 180.314 179.792 
179.157 178.605 177.931 177.413 176.737 176.262 175.552 175.088 174.369 
180.685 180.203 179.534 179.01 178.282 177.756 176.997 176.497 175.725 
175.255 174.499 174.077 173.394 180.878 180.477 179.753 179.292 178.505 
178.02 177.207 176.712 175.899 175.413 174.643 174.199 173.501 173.117 
172.481 180.919 180.586 179.892 179.459 178.707 178.213 177.443 176.923 
176.159 175.631 174.897 174.395 173.714 173.263 172.627 172.229 171.625 
180.852 180.592 179.981 179.614 178.956 178.481 177.788 177.244 176.536 
175.971 175.272 174.725 174.057 173.547 172.915 172.445 171.842 171.421 
170.861 180.578 179.833 180.077 179.741 178.899 179.235 178.933 179.193 
178.776 177.874 178.2 177.871 178.267 177.909 178.157 177.644 176.926 
177.162 176.722 177.106 176.737 177.143 176.687 176.94 176.376 175.933 
176.19 175.666 175.963 175.512 175.903 175.471 175.849 175.353 175.627 
175.087 174.737 175.09 174.563 174.883 174.4 174.734 174.292 174.64 
174.197 174.532 174.063 174.345 173.862 173.481 173.851 173.35 173.71 
173.241 173.613 173.175 173.521 173.076 173.404 172.96 173.284 172.84 
173.136 172.699 172.294 172.645 172.169 172.504 172.032 172.409 171.967 
172.361 171.907 172.275 171.814 172.171 171.735 172.08 171.663 171.987 
171.6 171.174 171.507 171.057 171.368 170.894 171.223 170.773 171.14 
170.704 171.077 170.64 171.01 170.593 170.962 170.575 170.931 170.572 
170.917 170.6 180.95 181.286 180.831 180.214 181.652 181.198 180.575 
180.044 179.327 181.952 181.579 181.014 180.463 179.732 179.127 178.373 
182.081 181.82 181.294 180.861 180.14 179.562 178.781 178.197 177.463 
181.983 181.837 181.293 181.011 180.283 179.846 179.02 178.533 177.725 
177.238 176.444 181.58 181.571 181.027 180.895 180.206 179.876 179.026 
178.608 177.719 177.323 176.445 176.054 175.189 180.971 181.014 180.49 
180.512 179.924 179.749 178.958 178.565 177.623 177.195 176.246 175.892 
174.997 174.686 173.864 180.445 180.404 179.859 179.902 179.361 179.36 
178.671 178.443 177.534 177.106 176.1 175.669 174.723 174.406 173.573 
173.343 172.609 180.079 179.96 179.376 179.316 178.737 178.738 178.095 
178.028 177.232 176.965 176.022 175.584 174.606 174.177 173.3 173.013 
172.272 172.098 171.45 181.479 182.468 181.919 181.844 183.626 183.011 
182.892 182.275 182.169 184.805 184.265 184.157 183.399 183.145 182.532 
182.388 185.598 185.355 185.349 184.691 184.334 183.545 183.219 182.674 
182.499 185.755 185.816 185.842 185.618 185.308 184.683 184.232 183.556 
183.246 182.734 182.462 185.611 185.686 185.583 185.678 185.458 185.313 
184.937 184.481 184.075 183.516 183.119 182.577 182.108 185.625 185.533 
185.333 185.308 185.117 185.172 184.973 184.883 184.548 184.195 183.713 
183.196 182.63 182.083 181.511 185.766 185.643 185.49 185.272 185.104 
184.973 184.87 184.815 184.605 184.428 183.976 183.614 183.027 182.56 
181.988 181.486 180.986 185.769 185.767 185.686 185.532 185.393 185.183 
185.064 184.881 184.686 184.465 184.043 183.731 183.164 182.822 182.292 
181.925 181.467 181.031 180.607 185.673 185.417 185.602 185.616 184.986 
185.227 185.269 185.474 185.404 184.399 184.655 184.613 184.986 185.015 
185.228 185.098 183.657 183.936 183.761 184.181 184.206 184.667 184.625 
184.843 184.614 182.752 183.1 182.9 183.281 183.258 183.762 183.758 
184.16 183.921 184.156 183.807 181.728 182.15 182.008 182.41 182.37 
182.837 182.816 183.233 182.999 183.285 182.9 183.187 182.856 180.693 
181.136 181.021 181.471 181.405 181.902 181.835 182.282 182.048 182.349 
181.99 182.257 181.971 182.284 182.062 179.712 180.142 180.03 180.467 
180.354 180.842 180.723 181.219 181.01 181.392 181.089 181.387 181.138 
181.456 181.287 181.58 181.353 178.775 179.194 179.097 179.503 179.366 
179.78 179.618 180.073 179.9 180.341 180.125 180.49 180.259 180.609 
180.418 180.779 180.565 180.847 180.538 178.218 177.459 178.089 178.548 
176.612 177.297 177.768 178.389 178.8 175.657 176.395 176.853 177.542 
177.951 178.589 178.993 174.612 175.38 175.829 176.565 176.99 177.687 
178.125 178.793 179.246 173.567 174.32 174.791 175.532 175.994 176.716 
177.205 177.918 178.416 179.077 179.515 172.586 173.303 173.792 174.528 
175.02 175.745 176.242 176.981 177.479 178.202 178.646 179.298 179.677 
171.667 172.341 172.805 173.54 174.033 174.778 175.264 176.004 176.465 
177.201 177.619 178.341 178.74 179.423 179.814 170.826 171.437 171.852 
172.546 173.013 173.765 174.258 175.012 175.489 176.202 176.631 177.312 
177.724 178.43 178.863 179.563 179.954 170.073 170.622 170.999 171.618 
172.053 172.754 173.244 173.996 174.505 175.244 175.726 176.4 176.835 
177.479 177.904 178.583 178.986 179.656 179.959 179.682 178.748 179.14 
178.953 177.716 178.156 177.97 178.375 178.218 176.646 177.1 176.879 
177.309 177.071 177.577 177.451 175.485 175.969 175.684 176.139 175.825 
176.328 176.115 176.733 176.58 174.223 174.721 174.395 174.874 174.541 
175.038 174.792 175.366 175.171 175.768 175.475 172.95 173.419 173.08 
173.557 173.23 173.734 173.482 174.043 173.811 174.365 174.02 174.534 
174.102 171.756 172.163 171.802 172.25 171.892 172.394 172.094 172.677 
172.404 172.977 172.596 173.084 172.62 173.124 172.751 170.704 171.025 
170.64 171.009 170.615 171.05 170.688 171.229 170.927 171.519 171.18 
171.683 171.261 171.709 171.352 171.89 171.698 169.785 170.039 169.645 
169.924 169.529 169.85 169.476 169.879 169.563 170.07 169.793 170.311 
169.999 170.445 170.136 170.595 170.406 170.971 170.898 179.026 179.265 
179.467 180.045 179.381 179.66 180.296 180.48 181.053 179.485 179.77 
180.469 180.717 181.378 181.531 182.144 179.622 179.912 180.63 180.902 
181.634 181.863 182.556 182.684 183.275 179.65 180.02 180.714 181.034 
181.739 182.068 182.815 183.074 183.721 183.794 184.23 179.51 179.952 
180.626 181.018 181.667 182.067 182.803 183.222 183.938 184.178 184.647 
184.625 184.836 179.285 179.742 180.398 180.84 181.481 181.915 182.625 
183.111 183.848 184.255 184.765 184.917 185.128 185.068 185.128 179.021 
179.468 180.076 180.55 181.166 181.655 182.31 182.846 183.51 184.025 
184.512 184.846 185.057 185.187 185.26 185.261 185.326 178.744 179.164 
179.713 180.178 180.729 181.244 181.801 182.379 182.908 183.503 183.905 
184.398 184.613 184.939 185.056 185.247 185.368 185.446 185.567 179.037 
180.059 179.493 179.367 181.08 180.521 180.415 179.828 179.684 182.196 
181.61 181.559 180.924 180.77 180.118 179.86 183.312 182.772 182.784 
182.157 182.013 181.262 180.908 180.158 179.705 184.165 183.767 183.76 
183.317 183.212 182.535 182.125 181.249 180.671 179.876 179.383 184.668 
184.394 184.269 184.034 183.948 183.569 183.261 182.493 181.902 180.954 
180.4 179.622 179.281 184.96 184.733 184.502 184.313 184.17 184.041 
183.904 183.504 183.101 182.267 181.699 180.779 180.351 179.631 179.362 
185.237 185.005 184.768 184.492 184.257 184.124 184.02 183.93 183.733 
183.305 182.808 182.037 181.462 180.697 180.264 179.65 179.311 185.554 
185.345 185.178 184.833 184.565 184.264 184.076 183.965 183.815 183.673 
183.283 182.846 182.22 181.608 181.022 180.444 179.991 179.473 179.086 
178.391 178.727 178.207 177.49 179.059 178.562 177.858 177.305 176.56 
179.207 178.839 178.142 177.656 176.895 176.351 175.508 179.032 178.831 
178.126 177.804 177.033 176.609 175.771 175.214 174.224 178.746 178.566 
177.905 177.665 176.928 176.618 175.842 175.42 174.538 173.9 172.914 
178.685 178.388 177.806 177.502 176.866 176.532 175.857 175.477 174.737 
174.221 173.383 172.715 171.932 178.784 178.455 177.896 177.542 176.97 
176.598 176.001 175.594 174.932 174.454 173.718 173.164 172.44 171.876 
171.285 178.758 178.519 177.938 177.645 177.049 176.729 176.127 175.772 
175.119 174.686 173.965 173.474 172.758 172.278 171.64 171.211 170.652 
178.559 178.392 177.811 177.596 176.979 176.725 176.086 175.808 175.14 
174.806 174.089 173.681 172.953 172.521 171.837 171.437 170.804 170.448 
169.844 181.416 181.55 181.787 182.4 181.535 181.874 182.513 182.803 
183.486 181.304 181.753 182.362 182.784 183.428 183.841 184.521 180.9 
181.408 181.997 182.503 183.11 183.613 184.234 184.728 185.255 180.499 
180.971 181.546 182.065 182.684 183.223 183.837 184.344 184.866 185.282 
185.564 180.18 180.603 181.115 181.587 182.148 182.726 183.335 183.907 
184.433 184.885 185.239 185.502 185.618 179.838 180.271 180.73 181.15 
181.621 182.146 182.702 183.312 183.82 184.368 184.727 185.146 185.371 
185.58 185.664 179.45 179.89 180.365 180.771 181.264 181.693 182.267 
182.75 183.272 183.732 184.073 184.52 184.763 185.194 185.38 185.641 
185.724 179.102 179.51 180.013 180.428 180.985 181.415 182.065 182.487 
183.08 183.382 183.726 183.958 184.157 184.514 184.733 185.167 185.343 
185.638 185.682 
POINT_DATA 1002
SCALARS Distance double
LOOKUP_TABLE default
177.612 178.353 177.522 176.653 176.595 176.801 175.605 175.54 175.726 
175.913 174.433 174.3 174.563 174.752 174.914 173.132 173.002 173.293 
173.499 173.687 173.843 171.859 171.79 171.947 172.151 172.4 172.594 
172.822 170.616 170.564 170.641 170.748 171.043 171.333 171.584 171.889 
169.31 169.327 169.367 169.43 169.67 170.023 170.333 170.663 171.029 
168.111 168.27 168.14 168.235 168.434 168.748 169.061 169.407 169.832 
170.252 167.152 167.408 167.08 167.132 167.312 167.617 167.921 168.211 
168.61 169.094 169.551 178.6 177.736 178.851 177.893 179.066 176.745 
178.002 179.247 176.8 175.58 178.121 179.313 176.862 175.586 174.245 
178.144 179.2 176.965 175.679 174.28 172.927 178.05 179.074 176.95 
175.745 174.418 173.021 171.705 177.979 179.016 176.852 175.658 174.451 
173.228 171.884 170.506 177.887 178.871 176.783 175.583 174.362 173.278 
172.171 170.803 169.392 177.671 178.586 176.672 175.581 174.35 173.178 
172.202 171.114 169.755 168.431 177.683 176.702 176.754 175.7 175.799 
175.689 174.462 174.598 174.505 174.492 172.817 173.159 172.855 173.055 
173.121 171.308 171.959 171.119 171.4 171.698 171.952 170.55 171.277 
170.12 170.246 170.514 170.709 170.966 170.221 170.79 169.732 169.652 
169.755 169.68 169.652 169.752 169.689 170.114 169.206 168.914 168.84 
168.623 168.31 168.249 168.353 168.851 169.241 168.361 167.884 167.59 
167.322 166.911 166.674 166.823 167.125 166.321 165.754 165.097 165.228 
164.283 163.894 165.133 163.745 163.093 163.03 165.548 163.891 162.744 
162.383 162.391 166.007 164.427 162.969 162.023 161.757 161.602 166.383 
164.885 163.388 162.009 161.274 161.061 160.889 166.914 165.407 163.91 
162.389 161.245 160.778 160.687 160.715 167.518 166.086 164.656 163.214 
161.917 161.045 160.69 160.744 161.013 168.035 166.743 165.458 164.201 
163.02 161.957 161.127 160.804 161.02 161.449 166.125 164.979 166.057 
163.904 164.948 166.133 163.091 163.968 165.144 166.452 162.251 163.165 
164.381 165.719 166.892 161.301 162.258 163.718 165.181 166.3 167.222 
160.806 161.45 162.885 164.501 165.679 166.566 167.531 161.006 161.238 
162.18 163.588 164.8 165.774 166.83 167.99 161.522 161.561 161.975 
162.898 163.953 164.966 166.105 167.355 168.535 161.997 162.06 162.501 
162.614 163.047 162.164 163.404 163.92 162.9 162.646 164.504 165.074 
163.913 163.511 163.492 165.626 166.205 165.032 164.619 164.457 164.529 
166.725 167.309 166.154 165.77 165.703 165.699 165.76 167.935 168.504 
167.444 167.044 166.917 166.985 167.004 167.085 169.155 169.718 168.752 
168.443 168.185 168.085 168.111 168.175 168.319 170.275 170.844 169.879 
169.689 169.504 169.252 169.105 169.125 169.236 169.39 161.583 162.208 
161.824 162.553 162.499 162.766 163.288 163.564 163.224 163.396 164.319 
164.677 164.109 164.058 164.425 165.446 165.8 165.329 165.253 165.325 
165.725 166.684 167.039 166.619 166.689 166.677 166.735 166.977 167.983 
168.26 167.877 167.95 168.013 167.994 168.036 168.217 169.184 169.344 
169.089 169.078 169.123 169.161 169.206 169.32 169.51 170.239 170.316 
170.21 170.199 170.213 170.263 170.328 170.423 170.581 170.745 168.894 
167.67 168.642 167.51 168.575 166.446 167.568 168.638 166.363 165.243 
167.697 168.763 166.435 165.198 164.127 167.86 168.955 166.597 165.286 
164.181 163.091 168.118 169.211 166.904 165.58 164.362 163.19 162.006 
168.456 169.513 167.306 166.037 164.776 163.489 162.166 161.204 168.859 
169.88 167.741 166.502 165.272 164.061 162.749 161.649 161.139 170.179 
169.919 171.181 171.031 172.256 169.713 172.177 173.375 170.862 169.616 
173.293 174.457 172.052 170.778 169.665 174.354 175.441 173.208 172.056 
170.913 169.871 175.387 176.359 174.321 173.256 172.228 171.186 170.14 
176.364 177.221 175.42 174.389 173.368 172.418 171.424 170.398 177.221 
178.002 176.407 175.509 174.496 173.501 172.58 171.624 170.678 177.995 
178.711 177.244 176.477 175.619 174.642 173.666 172.752 171.858 171.024 