# vtk DataFile Version 4.0
vtk output
ASCII
DATASET POLYDATA
POINTS 1002 float
-102.538 -122.046 75.0126 -102.973 -123.248 74.5393 -102.839 -122.646 73.8663 
-102.428 -121.204 74.3611 -102.818 -121.697 73.2409 -102.06 -120.671 75.5416 
-102.349 -120.131 73.6677 -102.75 -120.635 72.5487 -101.879 -119.706 74.8621 
-101.251 -119.42 76.0014 -102.067 -119.181 72.851 -102.503 -119.638 71.769 
-101.56 -118.761 74.0499 -100.94 -118.488 75.2527 -100.318 -118.213 76.3872 
-101.651 -118.243 72.0501 -102.271 -118.392 71.1358 -101.014 -118.003 73.1609 
-100.442 -117.653 74.3705 -99.952 -117.265 75.5971 -99.5934 -116.813 76.7923 
-101.424 -116.897 71.4938 -102.175 -116.868 70.7849 -100.629 -116.943 72.4464 
-99.9094 -116.728 73.529 -99.4442 -116.307 74.7208 -99.0557 -115.905 76.0072 
-98.7888 -115.476 77.2851 -101.201 -115.538 71.001 -101.965 -115.65 70.3997 
-100.501 -115.501 71.9151 -99.6684 -115.389 72.8999 -98.9979 -115.153 73.8912 
-98.5033 -114.953 75.1055 -98.0661 -114.746 76.4997 -97.8703 -114.374 77.821 
-100.713 -114.611 70.2543 -101.602 -114.759 69.7846 -100.173 -114.331 71.2167 
-99.5094 -114.036 72.309 -98.6978 -113.881 73.1753 -98.092 -113.859 74.1615 
-97.6701 -113.79 75.5432 -97.4255 -113.529 77.0041 -97.4007 -113.13 78.2853 
-100.267 -113.683 69.5015 -101.34 -113.713 69.2516 -99.7025 -113.388 70.3759 
-99.2533 -112.942 71.5786 -98.5109 -112.687 72.4945 -97.8155 -112.66 73.2951 
-97.4807 -112.544 74.5408 -97.4013 -112.222 76.0485 -97.4301 -111.854 77.4223 
-97.4381 -111.557 78.6429 -100.137 -112.461 69.1172 -101.241 -112.48 69.0217 
-99.5032 -112.224 69.8067 -99.14 -111.784 70.9339 -98.5384 -111.436 71.8749 
-97.8031 -111.308 72.5741 -97.4014 -111.12 73.6492 -97.3832 -110.705 75.1264 
-97.5358 -110.28 76.5105 -97.6277 -110.032 77.7362 -97.5432 -109.91 78.9461 
-103.508 -123.905 73.7244 -103.44 -123.222 73.0259 -104.335 -124.305 72.9608 
-104.347 -123.496 72.2477 -105.261 -124.625 72.1025 -103.411 -122.226 72.3762 
-105.33 -123.677 71.42 -106.168 -124.998 71.104 -104.269 -122.468 71.57 
-103.275 -121.184 71.6401 -106.281 -123.846 70.5323 -107.21 -125.004 70.2431 
-105.288 -122.55 70.7713 -104.112 -121.462 70.8275 -103.095 -120.058 70.8967 
-107.312 -123.716 69.7025 -108.398 -124.43 69.602 -106.338 -122.568 69.9404 
-105.24 -121.476 70.1077 -104.097 -120.234 70.2087 -103.092 -118.511 70.4564 
-108.422 -123.357 68.9042 -109.546 -123.834 68.9113 -107.347 -122.48 69.054 
-106.294 -121.387 69.3055 -105.259 -120.179 69.5754 -104.243 -118.601 69.9172 
-103.15 -116.902 70.2766 -109.483 -123.035 68.122 -110.595 -123.466 68.169 
-108.347 -122.288 68.1772 -107.182 -121.257 68.3598 -106.117 -120.055 68.7234 
-105.229 -118.653 69.2206 -104.294 -117.063 69.7398 -103.037 -115.692 69.9566 
-110.447 -122.579 67.5131 -111.592 -122.963 67.637 -109.306 -121.932 67.4576 
-108.133 -121.018 67.5116 -106.943 -119.892 67.8076 -105.907 -118.64 68.3178 
-105.1 -117.212 68.9437 -104.183 -115.73 69.4537 -102.837 -114.555 69.5085 
-111.361 -121.828 67.191 -112.544 -122.171 67.3957 -110.17 -121.35 66.981 
-109.061 -120.655 66.8999 -107.96 -119.676 67.1243 -106.784 -118.524 67.5725 
-105.726 -117.243 68.1003 -104.924 -115.761 68.7316 -104.003 -114.328 69.2142 
-102.664 -113.261 69.2362 -112.735 -120.992 67.1868 -111.399 -120.652 66.85 
-112.863 -119.795 66.9866 -111.425 -119.547 66.4829 -112.946 -118.692 66.7379 
-110.109 -120.244 66.5037 -111.492 -118.301 66.1468 -112.974 -117.432 66.4689 
-110.069 -119.065 66.119 -109.014 -119.481 66.5546 -111.443 -116.701 65.9508 
-112.723 -116.048 66.3175 -109.984 -117.462 65.8921 -108.901 -118.025 66.4026 
-107.897 -118.329 67.0209 -110.973 -115.186 66.0881 -111.953 -114.751 66.48 
-109.661 -115.693 65.9211 -108.536 -116.241 66.2906 -107.608 -116.696 66.9327 
-106.577 -117.03 67.4897 -110.169 -113.79 66.584 -110.897 -113.368 66.9667 
-109.123 -114.179 66.3432 -107.997 -114.585 66.3687 -107.032 -114.992 66.7533 
-106.143 -115.314 67.3542 -105.418 -115.552 68.0282 -109.439 -112.18 67.209 
-110 -111.926 67.6494 -108.638 -112.502 66.9277 -107.571 -112.9 66.7714 
-106.48 -113.332 66.8285 -105.574 -113.63 67.3019 -104.958 -113.756 68.0639 
-104.54 -113.944 68.7547 -108.879 -110.681 67.8791 -109.374 -110.698 68.3957 
-108.223 -110.728 67.4705 -107.248 -110.951 67.2357 -106.09 -111.391 67.1549 
-105.061 -111.877 67.3979 -104.364 -112.141 68.0691 -103.937 -112.272 68.7897 
-103.433 -112.627 69.1575 -108.363 -109.556 68.5682 -108.903 -109.64 69.0333 
-107.716 -109.43 68.0924 -106.804 -109.375 67.75 -105.684 -109.53 67.5541 
-104.607 -109.957 67.5047 -103.744 -110.482 67.7878 -103.138 -110.856 68.3898 
-102.632 -111.18 68.891 -101.992 -111.727 69.0363 -100.476 -111.173 68.9086 
-101.03 -110.445 68.6652 -99.9354 -109.683 68.8873 -101.576 -109.877 68.181 
-100.22 -108.978 68.1437 -99.6218 -108.065 68.9219 -102.253 -109.307 67.6391 
-100.726 -108.252 67.4011 -99.8054 -107.275 67.9947 -99.3779 -106.358 69.1371 
-103.155 -108.684 67.5173 -101.674 -107.506 67.2649 -100.442 -106.455 67.5812 
-99.7258 -105.49 68.6003 -99.1217 -104.502 69.556 -104.169 -108.299 67.8307 
-102.822 -107.093 67.8649 -101.628 -105.887 67.9945 -100.586 -104.767 68.6084 
-99.7418 -103.649 69.3332 -98.9867 -102.612 69.9751 -105.269 -108.263 68.1897 
-103.868 -107.138 68.5678 -102.855 -105.773 68.7192 -101.895 -104.334 68.9094 
-100.839 -102.993 69.2396 -99.8729 -101.853 69.6938 -99.1455 -101.131 70.4493 
-106.383 -108.366 68.5137 -104.939 -107.264 68.9924 -103.863 -105.825 69.2262 
-103.084 -104.143 69.2105 -102.203 -102.565 69.2611 -101.185 -101.302 69.5509 
-100.252 -100.51 70.2017 -99.5755 -100.147 71.1597 -107.322 -108.452 68.8987 
-106.068 -107.247 69.2748 -104.918 -105.774 69.5379 -104.048 -104.092 69.5646 
-103.301 -102.489 69.5823 -102.508 -101.155 69.8347 -101.62 -100.211 70.3627 
-100.743 -99.6497 71.1206 -100.061 -99.2962 71.9693 -108.071 -108.485 69.2823 
-107.077 -107.176 69.5199 -106.035 -105.715 69.7701 -105.07 -104.185 69.9642 
-104.209 -102.749 70.1369 -103.48 -101.476 70.4506 -102.797 -100.413 70.9362 
-101.995 -99.601 71.504 -101.14 -98.9633 72.0871 -100.443 -98.4599 72.6857 
-99.7002 -110.914 69.3557 -99.5273 -109.161 69.7739 -99.3109 -110.474 70.3481 
-99.2322 -107.415 69.997 -99.0607 -108.613 70.7809 -98.7983 -110.024 71.3255 
-98.691 -105.574 70.061 -98.3803 -106.805 70.7833 -98.2313 -108.174 71.4359 
-98.0285 -109.75 71.982 -98.3098 -103.523 70.312 -97.7381 -104.809 70.7991 
-97.5711 -106.271 71.4863 -97.6308 -107.817 72.2364 -97.5107 -109.498 72.9481 
-98.3536 -101.76 70.8738 -97.6774 -102.752 71.2924 -97.3749 -104.195 71.9059 
-97.4933 -105.83 72.8164 -97.5179 -107.444 73.7428 -97.3988 -109.075 74.4824 
-98.7203 -100.645 71.6396 -97.9783 -101.257 72.1307 -97.5178 -102.22 72.6792 
-97.5224 -103.762 73.5405 -97.5913 -105.541 74.5601 -97.4953 -107.133 75.3599 
-97.5016 -108.653 75.9463 -99.2379 -99.7344 72.4059 -98.4329 -100.272 72.9794 
-97.7081 -100.807 73.5776 -97.4205 -101.78 74.3368 -97.4991 -103.515 75.2576 
-97.4979 -105.421 76.0385 -97.5094 -106.97 76.6102 -97.6395 -108.431 77.1598 
-99.7203 -98.7246 73.0478 -99.0117 -99.308 73.6676 -98.1766 -99.8826 74.4069 
-97.4943 -100.438 75.2069 -97.3419 -101.594 76.0481 -97.4401 -103.493 76.7698 
-97.4623 -105.371 77.318 -97.5286 -106.879 77.8551 -97.6078 -108.353 78.4348 
-100.316 -97.7713 73.5532 -99.7009 -98.1557 74.1278 -100.288 -97.4449 74.7962 
-99.7744 -98.0561 75.6682 -100.403 -97.5688 76.6276 -99.0606 -98.9573 75.0016 
-99.9429 -98.2822 77.6168 -100.654 -97.6448 78.7049 -99.2671 -99.0685 76.6927 
-98.2288 -99.6992 75.9682 -100.185 -98.3089 79.4328 -101.017 -97.6786 80.3646 
-99.5527 -99.3192 78.3787 -98.572 -99.9753 77.597 -97.6191 -100.436 76.8841 
-100.492 -98.5506 80.7943 -101.402 -98.3537 81.4818 -99.7932 -99.4378 79.782 
-98.9605 -100.403 78.9311 -98.0267 -100.949 78.3741 -97.5103 -101.846 77.6609 
-100.787 -99.4879 81.9245 -101.711 -99.4184 82.5135 -100.028 -99.9461 81.1091 
-99.2475 -100.839 80.212 -98.3804 -101.645 79.6004 -97.7601 -102.43 79.1102 
-97.5068 -103.785 78.28 -101.047 -100.469 83.0432 -102.008 -100.189 83.6287 
-100.265 -100.837 82.4243 -99.5791 -101.475 81.6652 -98.7826 -102.312 80.8685 
-98.0051 -103.087 80.3627 -97.5406 -104.131 79.8249 -97.4342 -105.553 78.8748 
-101.428 -101.209 84.0314 -102.423 -100.915 84.5098 -100.542 -101.625 83.5378 
-99.8947 -102.194 82.9647 -99.3374 -102.997 82.125 -98.5988 -103.806 81.3739 
-97.8085 -104.634 81.0029 -97.3802 -105.807 80.4659 -97.4166 -107.152 79.4751 
-102.005 -102.148 84.6978 -102.941 -102.011 84.977 -101.029 -102.454 84.3366 
-100.226 -102.961 83.8911 -99.7498 -103.749 83.1659 -99.3219 -104.645 82.246 
-98.5779 -105.437 81.6759 -97.7522 -106.359 81.4349 -97.3568 -107.568 80.8945 
-97.4115 -108.809 79.9389 -101.229 -98.135 73.0751 -101.153 -97.5369 74.0076 
-102.3 -98.1709 73.6766 -102.526 -97.6842 74.7468 -103.559 -98.3316 74.377 
-101.291 -97.3654 75.4511 -104.089 -97.8151 75.5633 -104.656 -98.5793 75.0137 
-102.991 -97.4807 76.3259 -101.601 -97.4214 77.4719 -105.216 -98.0582 76.1958 
-105.606 -99.1506 75.5117 -104.622 -97.5164 77.1225 -103.345 -97.412 78.2655 
-101.928 -97.3958 79.4714 -106.133 -98.7554 76.6608 -106.697 -99.9078 75.9704 
-105.601 -97.9353 77.6988 -104.663 -97.7112 78.8512 -103.372 -97.6933 79.8964 
-102.225 -97.7977 80.8392 -107.175 -99.6738 77.1934 -107.659 -100.695 76.553 
-106.539 -98.8642 78.2001 -105.572 -98.5395 79.3566 -104.423 -98.5352 80.2029 
-103.417 -98.5644 81.0011 -102.532 -98.792 81.8933 -107.968 -100.677 77.8461 
-108.234 -101.684 77.2198 -107.575 -99.8801 78.7366 -106.772 -99.4494 79.8693 
-105.626 -99.3683 80.7095 -104.601 -99.4013 81.3337 -103.747 -99.4019 82.2584 
-102.85 -99.6085 83.1656 -108.523 -101.776 78.4235 -108.769 -102.733 77.7605 
-108.311 -100.93 79.227 -107.913 -100.292 80.2939 -107.111 -99.9211 81.3001 
-106.099 -99.8653 82.0009 -105.142 -99.8964 82.8008 -104.166 -99.9183 83.7495 
-103.2 -100.227 84.3467 -109.227 -102.707 78.7931 -109.521 -103.507 78.0816 
-108.964 -101.944 79.582 -108.707 -101.253 80.5755 -108.254 -100.644 81.6939 
[...]
CELL_DATA 2000
SCALARS Distance double
LOOKUP_TABLE default
175.502 174.623 174.898 174.528 173.597 173.919 173.506 173.84 173.437 
172.467 172.815 172.362 172.731 172.306 172.678 172.255 171.251 171.631 
171.157 171.54 171.088 171.485 171.054 171.452 171.036 169.984 170.37 
169.897 170.304 169.825 170.226 169.757 170.188 169.76 170.21 169.831 
168.771 169.1 168.613 169.024 168.533 168.926 168.406 168.835 168.387 
168.881 168.524 169.023 168.722 167.625 167.891 167.348 167.742 167.25 
167.63 167.088 167.47 166.998 167.486 167.163 167.707 167.462 167.978 
167.759 166.496 166.713 166.104 166.473 165.99 166.374 165.855 166.189 
165.687 166.114 165.774 166.335 166.114 166.696 166.501 167.048 166.863 
165.445 165.588 164.958 165.257 164.804 165.168 164.709 165.013 164.502 
164.842 164.44 164.946 164.694 165.302 165.105 165.721 165.539 166.133 
165.963 175.941 176.367 175.815 175.101 176.791 176.234 175.489 174.909 
174.109 177.187 176.632 175.863 175.278 174.448 173.859 172.999 177.524 
176.998 176.21 175.63 174.796 174.198 173.317 172.706 171.795 177.708 
177.27 176.49 175.957 175.144 174.563 173.715 173.067 172.133 171.472 
170.542 177.773 177.396 176.662 176.194 175.399 174.882 174.066 173.48 
172.593 171.894 170.95 170.258 169.372 177.857 177.482 176.787 176.344 
175.538 175.061 174.21 173.733 172.878 172.326 171.44 170.764 169.863 
169.163 168.297 177.933 177.576 176.868 176.455 175.637 175.163 174.278 
173.803 172.938 172.491 171.664 171.166 170.32 169.694 168.798 168.101 
167.213 177.921 177.593 176.847 176.479 175.675 175.246 174.409 173.915 
173.076 172.573 171.758 171.295 170.495 170.017 169.178 168.585 167.689 
167.013 166.154 177.655 176.832 177.002 176.522 176.012 176.141 175.604 
175.814 175.335 175.133 175.281 174.679 174.873 174.364 174.614 174.118 
174.052 174.269 173.568 173.831 173.256 173.595 173.09 173.362 172.814 
172.82 173.076 172.294 172.567 171.893 172.319 171.781 172.214 171.646 
171.974 171.42 171.503 171.808 171.059 171.288 170.559 170.889 170.286 
170.752 170.182 170.644 170.075 170.524 170.062 170.187 170.493 169.815 
170.076 169.351 169.605 168.921 169.273 168.674 169.117 168.582 169.078 
168.626 169.16 168.753 169.107 169.287 168.621 168.842 168.109 168.356 
167.601 167.912 167.24 167.651 167.109 167.597 167.154 167.687 167.268 
167.801 167.328 168.299 168.364 167.693 167.77 167.025 167.143 166.352 
166.563 165.823 166.189 165.581 166.092 165.6 166.175 165.715 166.276 
165.789 166.309 165.81 164.849 164.74 164.3 163.403 164.611 164.123 
163.034 162.753 161.97 164.473 163.943 162.73 162.307 161.338 161.283 
160.669 164.492 163.876 162.715 162.098 161.083 160.746 160.098 160.077 
159.55 164.829 164.106 163.152 162.377 161.509 160.832 160.194 159.796 
159.288 159.062 158.483 165.473 164.691 163.924 163.108 162.404 161.581 
160.933 160.223 159.608 159.07 158.45 158.088 157.586 166.26 165.498 
164.814 164.022 163.34 162.539 161.817 161.035 160.285 159.568 158.862 
158.281 157.769 157.436 157.228 167.014 166.326 165.665 164.913 164.185 
163.404 162.613 161.828 161.046 160.285 159.618 158.911 158.45 157.889 
157.678 157.351 157.32 167.662 167.048 166.391 165.695 164.953 164.194 
163.424 162.624 161.915 161.123 160.575 159.832 159.485 158.809 158.621 
158.051 157.946 157.543 157.468 164.649 163.334 164.031 164.198 162.099 
162.812 163.07 163.757 164.064 160.868 161.609 161.883 162.629 162.898 
163.645 163.926 159.566 160.291 160.424 161.274 161.448 162.325 162.546 
163.4 163.671 158.302 158.897 158.862 159.664 159.798 160.732 161.018 
161.954 162.327 163.19 163.619 157.424 157.745 157.7 158.222 158.414 
159.188 159.662 160.558 161.142 161.975 162.544 163.323 163.894 157.151 
157.196 157.233 157.416 157.615 158.09 158.616 159.414 160.153 160.985 
161.658 162.383 162.982 163.713 164.316 157.215 157.169 157.233 157.252 
157.373 157.553 157.889 158.477 159.149 160.027 160.766 161.566 162.177 
162.869 163.46 164.177 164.783 157.265 157.235 157.277 157.322 157.442 
157.474 157.662 157.897 158.376 159.039 159.79 160.64 161.355 162.094 
162.701 163.376 163.983 164.673 165.259 157.245 157.376 157.249 157.311 
158.074 157.652 157.739 157.525 157.612 159.211 158.622 158.704 158.242 
158.31 157.892 157.912 160.322 159.771 159.831 159.353 159.415 158.834 
158.811 158.306 158.536 161.416 160.815 160.823 160.389 160.485 159.99 
160.015 159.418 159.603 159.227 159.819 162.706 161.993 161.97 161.401 
161.518 161.035 161.174 160.649 160.859 160.41 160.888 160.673 161.36 
163.999 163.321 163.298 162.66 162.777 162.204 162.4 161.852 162.095 
161.627 162.018 161.728 162.289 162.136 162.738 165.177 164.558 164.536 
163.954 164.06 163.521 163.729 163.182 163.422 162.883 163.199 162.803 
163.273 163.049 163.615 163.457 164.027 166.384 165.753 165.753 165.155 
165.247 164.734 164.95 164.485 164.76 164.245 164.532 164.025 164.408 
164.052 164.573 164.36 164.929 164.755 165.296 157.446 158.133 157.611 
157.537 159.308 158.575 158.472 157.957 158.217 160.59 159.911 159.92 
159.215 159.396 158.915 159.359 161.761 161.173 161.281 160.708 160.895 
160.289 160.553 160.105 160.507 163.028 162.37 162.466 161.965 162.198 
161.701 161.916 161.374 161.636 161.217 161.632 164.435 163.732 163.835 
163.227 163.49 162.961 163.232 162.683 162.94 162.434 162.807 162.424 
162.921 165.793 165.155 165.312 164.696 164.987 164.388 164.696 164.067 
164.354 163.775 164.144 163.681 164.131 163.754 164.217 167.061 166.486 
166.663 166.127 166.423 165.899 166.218 165.612 165.897 165.267 165.613 
165.068 165.48 165.006 165.406 164.994 165.395 168.237 167.725 167.89 
167.403 167.676 167.232 167.556 167.065 167.36 166.797 167.111 166.557 
166.924 166.391 166.745 166.235 166.587 166.16 166.572 167.794 167.484 
167.27 166.48 167.16 166.898 166.063 165.86 165.029 167.072 166.669 
165.847 165.504 164.676 164.404 163.558 167.173 166.711 165.904 165.444 
164.631 164.207 163.371 162.993 162.15 167.227 166.806 165.967 165.528 
164.682 164.246 163.405 162.954 162.118 161.69 160.909 167.292 166.842 
166.015 165.562 164.721 164.28 163.441 163.001 162.19 161.758 161.014 
160.592 159.912 167.539 167.009 166.257 165.713 164.96 164.421 163.641 
163.102 162.318 161.846 161.148 160.748 160.111 159.697 159.081 167.903 
167.363 166.658 166.082 165.374 164.795 164.057 163.442 162.665 162.081 
161.374 160.913 160.287 159.885 159.259 158.869 158.304 168.252 167.754 
167.075 166.52 165.812 165.242 164.503 163.898 163.126 162.508 161.801 
161.252 160.629 160.126 159.484 159.02 158.401 158.075 157.643 168.534 
169.627 168.843 168.317 170.773 169.979 169.48 168.602 168.031 171.931 
171.144 170.675 169.805 169.256 168.361 167.893 173.07 172.303 171.866 
171.024 170.507 169.609 169.13 168.309 167.95 174.16 173.431 173.027 
172.229 171.752 170.871 170.372 169.528 169.128 168.371 168.014 175.186 
174.5 174.11 173.367 172.923 172.106 171.611 170.757 170.306 169.52 
169.155 168.407 168.069 176.159 175.516 175.134 174.414 173.975 173.227 
172.776 171.977 171.521 170.704 170.312 169.549 169.245 168.513 168.265 
177.046 176.47 176.117 175.423 174.98 174.251 173.83 173.102 172.706 
171.925 171.53 170.734 170.411 169.684 169.456 168.769 168.583 177.801 
177.303 176.979 176.369 175.947 175.252 174.834 174.141 173.792 173.086 
172.742 171.967 171.619 170.857 170.59 169.914 169.721 169.076 168.895 
178.079 178.146 177.846 177.244 178.222 177.892 177.293 176.945 176.258 
178.465 178.051 177.46 177.032 176.344 175.919 175.19 178.773 178.352 
177.735 177.257 176.534 176.05 175.308 174.874 174.169 178.969 178.598 
177.945 177.502 176.742 176.252 175.479 175.02 174.289 173.873 173.152 
179.133 178.755 178.112 177.673 176.935 176.446 175.678 175.201 174.45 
173.997 173.234 172.805 172.046 179.285 178.939 178.336 177.888 177.188 
176.675 175.922 175.415 174.645 174.158 173.357 172.886 172.097 171.686 
170.991 179.245 179.028 178.446 178.1 177.405 176.942 176.167 175.661 
174.853 174.344 173.509 173.01 172.194 171.753 171.043 170.692 170.097 
179.008 178.878 178.299 178.084 177.392 177.059 176.277 175.849 175.028 
174.538 173.7 173.179 172.363 171.878 171.15 170.757 170.136 169.828 
169.27 178.685 177.864 178.169 177.913 176.844 177.218 176.896 177.286 
176.979 175.701 176.112 175.775 176.185 175.861 176.266 175.896 174.521 
174.949 174.608 175.023 174.678 175.106 174.741 175.126 174.687 173.221 
173.716 173.315 173.779 173.374 173.858 173.479 173.934 173.503 173.87 
173.373 171.728 172.296 171.855 172.379 171.923 172.453 172.059 172.6 
172.208 172.655 172.18 172.532 172.042 170.172 170.734 170.321 170.874 
170.457 170.982 170.595 171.142 170.791 171.315 170.905 171.324 170.863 
171.23 170.823 168.708 169.205 168.812 169.366 169.019 169.556 169.202 
169.717 169.373 169.9 169.544 170.025 169.618 170.037 169.654 170.072 
169.78 167.392 167.809 167.416 167.922 167.603 168.146 167.82 168.34 
167.998 168.516 168.193 168.693 168.351 168.794 168.443 168.883 168.603 
169.081 168.881 178.997 179.364 178.889 178.272 179.791 179.31 178.647 
178.084 177.302 179.958 179.656 178.945 178.417 177.511 176.959 176.091 
179.617 179.587 178.888 178.547 177.56 177.052 176.063 175.654 174.836 
178.927 179.036 178.408 178.289 177.36 176.972 175.933 175.532 174.637 
174.351 173.54 178.243 178.303 177.705 177.7 176.902 176.681 175.701 
175.341 174.371 174.068 173.187 172.945 172.058 177.707 177.67 177.036 
177.011 176.285 176.181 175.31 175.051 174.066 173.746 172.788 172.531 
171.631 171.399 170.508 177.247 177.165 176.504 176.412 175.703 175.601 
174.826 174.638 173.731 173.418 172.448 172.138 171.243 170.993 170.147 
169.894 169.061 176.789 176.708 176.062 175.939 175.252 175.108 174.39 
174.21 173.409 173.117 172.21 171.854 170.963 170.662 169.844 169.579 
168.772 168.507 167.737 179.504 180.468 179.912 179.88 181.681 181.015 
180.925 180.346 180.312 182.735 182.249 182.119 181.461 181.26 180.69 
180.472 183.146 183.021 182.944 182.528 182.201 181.591 181.137 180.588 
180.104 183.379 183.228 183.185 183.027 182.771 182.362 181.819 181.205 
180.56 180.008 179.412 184.105 183.66 183.512 183.188 182.979 182.721 
182.346 181.854 181.239 180.559 179.92 179.325 178.78 184.862 184.481 
184.184 183.66 183.259 182.902 182.586 182.287 181.865 181.309 180.706 
179.997 179.415 178.794 178.294 184.99 184.93 184.585 184.221 183.635 
183.197 182.692 182.437 182.063 181.789 181.289 180.762 180.134 179.497 
178.919 178.338 177.832 184.685 184.757 184.447 184.334 183.791 183.456 
182.848 182.521 182.04 181.836 181.384 181.11 180.526 180.077 179.444 
178.923 178.354 177.845 177.339 184.445 183.916 184.173 184.102 183.245 
183.537 183.411 183.72 183.521 182.429 182.766 182.647 183.001 182.826 
183.038 182.699 181.55 181.871 181.707 182.147 182.018 182.343 182.042 
182.186 181.854 180.682 180.959 180.676 181.104 180.962 181.436 181.198 
181.478 181.117 181.348 181.082 179.742 180.06 179.729 180.069 179.865 
180.331 180.148 180.54 180.204 180.501 180.161 180.511 180.228 178.655 
179.067 178.79 179.134 178.899 179.289 179.094 179.485 179.193 179.52 
179.17 179.515 179.208 179.572 179.237 177.52 177.966 177.747 178.159 
177.93 178.325 178.083 178.461 178.164 178.505 178.175 178.514 178.211 
178.561 178.256 178.568 178.206 176.461 176.877 176.678 177.102 176.88 
177.297 177.032 177.423 177.115 177.478 177.168 177.524 177.239 177.587 
177.295 177.615 177.285 177.565 177.208 175.829 174.897 175.594 176.027 
173.831 174.602 175.043 175.771 176.201 172.656 173.472 173.911 174.711 
175.144 175.906 176.322 171.458 172.274 172.724 173.545 174.007 174.806 
175.254 176.007 176.41 170.285 171.086 171.553 172.374 172.871 173.683 
174.179 174.95 175.405 176.113 176.508 169.175 169.931 170.385 171.206 
171.695 172.539 173.033 173.86 174.33 175.104 175.529 176.226 176.601 
168.194 168.866 169.278 170.042 170.501 171.334 171.807 172.662 173.122 
173.963 174.394 175.187 175.579 176.296 176.642 167.311 167.931 168.309 
168.983 169.413 170.168 170.645 171.451 171.937 172.753 173.219 174.019 
174.446 175.212 175.59 176.302 176.626 166.433 167.052 167.413 168.05 
168.449 169.139 169.6 170.351 170.851 171.631 172.13 172.901 173.366 
174.11 174.523 175.237 175.596 176.273 176.575 176.32 175.341 175.762 
175.585 174.271 174.729 174.536 174.97 174.76 173.098 173.59 173.352 
173.84 173.599 174.085 173.859 171.833 172.337 172.019 172.542 172.235 
172.804 172.54 173.109 172.839 170.539 171.022 170.65 171.143 170.77 
171.338 171.032 171.665 171.37 171.975 171.637 169.279 169.718 169.33 
169.779 169.385 169.882 169.532 170.114 169.789 170.412 170.073 170.694 
170.376 168.103 168.472 168.04 168.459 168.04 168.516 168.129 168.648 
168.258 168.816 168.432 169.065 168.754 169.444 169.213 167.03 167.321 
166.811 167.16 166.664 167.123 166.701 167.23 166.824 167.333 166.906 
167.447 167.099 167.773 167.549 168.299 168.123 166.029 166.265 165.707 
165.962 165.397 165.749 165.28 165.773 165.408 165.93 165.569 166.037 
165.694 166.215 165.984 166.644 166.505 167.234 167.113 178.6 178.573 
178.912 179.527 178.483 178.842 179.474 179.82 180.441 178.447 178.781 
179.476 179.809 180.514 180.799 181.448 178.425 178.787 179.518 179.873 
180.652 180.96 181.687 181.889 182.526 178.22 178.683 179.349 179.822 
180.558 181.034 181.795 182.141 182.829 183.012 183.623 177.85 178.357 
178.96 179.488 180.142 180.738 181.47 182.051 182.77 183.202 183.834 
184.072 184.553 177.444 177.948 178.564 179.068 179.731 180.275 180.983 
181.581 182.262 182.87 183.463 183.995 184.423 184.742 184.92 177 
177.519 178.136 178.676 179.344 179.894 180.553 181.097 181.655 182.223 
182.676 183.308 183.657 184.24 184.404 184.765 184.74 176.537 177.044 
177.612 178.185 178.781 179.401 179.95 180.552 180.967 181.527 181.833 
182.415 182.691 183.301 183.519 184.039 184.144 184.485 184.528 178.778 
179.75 179.313 179.339 180.68 180.281 180.367 179.862 179.769 181.656 
181.247 181.396 180.915 180.888 180.247 179.984 182.689 182.26 182.462 
182.008 182.061 181.422 181.191 180.393 179.952 183.742 183.293 183.486 
183.083 183.185 182.616 182.368 181.581 181.059 180.227 179.646 184.634 
184.271 184.353 184.015 184.071 183.642 183.376 182.67 182.047 181.223 
180.531 179.785 179.204 184.99 184.893 184.833 184.655 184.576 184.329 
184.061 183.536 182.933 182.149 181.434 180.64 180.044 179.354 178.91 
184.843 184.938 184.827 184.819 184.637 184.572 184.299 184.034 183.539 
182.963 182.33 181.584 181.013 180.267 179.814 179.147 178.794 184.697 
184.757 184.712 184.687 184.502 184.459 184.183 184.087 183.679 183.396 
182.861 182.372 181.816 181.204 180.687 180.044 179.588 179.006 178.632 
178.197 178.74 178.132 177.421 179.106 178.599 177.891 177.32 176.603 
179.186 178.786 178.004 177.615 176.896 176.454 175.716 179.07 178.713 
177.811 177.502 176.727 176.51 175.836 175.485 174.684 178.842 178.543 
177.646 177.272 176.461 176.226 175.614 175.443 174.784 174.378 173.489 
178.535 178.314 177.567 177.2 176.457 176.092 175.498 175.256 174.686 
174.387 173.583 173.092 172.119 178.303 178.078 177.464 177.174 176.535 
176.185 175.573 175.251 174.638 174.314 173.54 173.107 172.166 171.668 
170.746 178.214 177.959 177.391 177.12 176.527 176.231 175.599 175.291 
174.608 174.276 173.5 173.087 172.223 171.734 170.889 170.4 169.661 
178.108 177.902 177.338 177.082 176.479 176.196 175.545 175.245 174.545 
174.217 173.471 173.086 172.313 171.862 171.11 170.625 169.937 169.462 
168.843 179.502 179.769 179.896 180.454 179.859 180.126 180.757 180.958 
181.638 179.745 180.124 180.801 181.167 181.847 182.116 182.645 179.561 
179.958 180.603 181.067 181.705 182.118 182.565 182.822 183.039 179.301 
179.718 180.274 180.761 181.328 181.807 182.233 182.577 182.852 183.056 
183.314 178.979 179.394 179.92 180.382 180.927 181.385 181.852 182.221 
182.617 182.904 183.369 183.574 184.084 178.786 179.13 179.735 180.11 
180.742 181.097 181.663 181.96 182.458 182.747 183.283 183.618 184.188 
184.448 184.85 178.734 179.046 179.708 180.055 180.767 181.079 181.736 
181.965 182.53 182.727 183.242 183.509 183.989 184.333 184.674 184.931 
185.001 178.618 178.973 179.57 179.994 180.656 181.082 181.726 182.068 
182.647 182.88 183.377 183.542 183.94 184.12 184.406 184.616 184.737 
184.865 184.781 
POINT_DATA 1002
SCALARS Distance double
LOOKUP_TABLE default
175.171 176.059 175.279 174.247 174.346 174.17 173.166 173.281 173.107 
173.038 172.001 172.121 171.922 171.891 171.838 170.772 170.862 170.701 
170.645 170.629 170.643 169.48 169.612 169.442 169.335 169.293 169.362 
169.49 168.21 168.493 168.154 168.006 167.881 167.991 168.221 168.458 
166.972 167.412 166.864 166.735 166.526 166.588 166.912 167.256 167.564 
165.757 166.321 165.584 165.526 165.308 165.23 165.508 165.926 166.327 
166.702 164.687 165.33 164.433 164.397 164.209 163.991 164.103 164.478 
164.918 165.377 165.816 176.488 175.682 176.935 176.086 177.354 174.703 
176.458 177.751 175.048 173.596 176.787 178.037 175.388 173.954 172.404 
176.989 178.102 175.699 174.348 172.844 171.154 177.101 178.12 175.899 
174.603 173.251 171.688 170.011 177.227 178.227 176.036 174.683 173.347 
172.041 170.595 168.986 177.276 178.298 176.104 174.773 173.381 172.087 
170.866 169.503 167.908 177.208 178.26 176.059 174.863 173.595 172.254 
170.935 169.686 168.346 166.814 177.501 176.301 176.697 175.429 175.914 
175.084 174.503 174.987 174.11 173.898 173.322 173.848 172.884 172.778 
172.596 172.062 172.554 171.5 171.298 171.272 171.075 170.811 171.149 
170.307 169.874 169.69 169.588 169.567 169.524 169.892 169.113 168.636 
168.258 168.078 168.084 168.231 168.448 168.985 167.894 167.324 166.848 
166.621 166.633 166.75 166.827 167.662 168.253 166.971 166.213 165.522 
165.103 165.025 165.144 165.254 165.287 163.934 163.682 162.594 163.436 
161.984 161.336 163.252 161.503 160.531 160.146 163.353 161.541 160.209 
159.56 158.95 163.866 162.239 160.752 159.626 158.683 157.822 164.687 
163.222 161.756 160.297 158.907 157.764 157.179 165.598 164.16 162.642 
161.056 159.506 158.179 157.37 157.141 166.413 164.986 163.413 161.789 
160.297 159.054 158.122 157.548 157.277 167.073 165.689 164.188 162.674 
161.284 160.148 159.256 158.487 157.807 157.324 163.476 162.372 163.366 
161.125 162.156 163.176 159.606 160.544 161.647 162.817 158.141 158.845 
160.009 161.402 162.767 157.277 157.687 158.716 160.268 161.764 163.108 
157.137 157.29 157.874 159.267 160.933 162.285 163.56 157.233 157.334 
157.501 158.298 159.889 161.485 162.768 164.059 157.198 157.406 157.592 
157.899 158.938 160.552 162.034 163.306 164.589 157.217 157.334 157.58 
158.046 158.6 157.842 159.226 159.812 158.845 158.248 160.28 160.877 
159.992 159.415 158.775 161.292 162.08 160.901 160.568 160.067 159.972 
162.608 163.432 162.014 161.643 161.317 161.196 161.502 163.927 164.642 
163.362 162.959 162.602 162.371 162.492 162.879 165.109 165.782 164.575 
164.245 163.988 163.679 163.549 163.781 164.191 166.371 167.001 165.783 
165.385 165.225 165.072 164.848 164.83 165.112 165.49 157.801 157.816 
158.785 159.128 160.015 158.477 160.593 161.167 160.045 159.673 161.763 
162.358 161.491 161.157 160.837 162.993 163.735 162.646 162.461 162.136 
161.94 164.47 165.104 164.046 163.782 163.456 163.229 163.254 165.893 
166.384 165.577 165.342 164.967 164.642 164.562 164.58 167.184 167.617 
166.914 166.782 166.531 166.195 166.004 165.878 165.764 168.375 168.722 
168.113 168.003 167.885 167.666 167.475 167.295 167.064 166.935 168.057 
166.68 167.717 166.299 167.467 165.214 166.243 167.508 165.003 163.815 
166.386 167.63 165.088 163.806 162.494 166.406 167.647 165.114 163.847 
162.566 161.296 166.475 167.756 165.168 163.883 162.595 161.414 160.335 
166.8 168.064 165.5 164.214 162.83 161.534 160.499 159.502 167.228 
168.42 165.95 164.674 163.287 161.882 160.709 159.657 158.621 169.294 
169.179 170.409 170.352 171.562 168.912 171.521 172.712 170.155 168.707 
172.68 173.822 171.4 169.97 168.716 173.795 174.868 172.613 171.246 
169.902 168.769 174.842 175.852 173.698 172.463 171.128 169.892 168.807 
175.857 176.771 174.706 173.525 172.343 171.096 169.953 168.978 176.786 
177.586 175.711 174.527 173.441 172.339 171.157 170.125 169.267 177.541 