# vtk DataFile Version 4.0
vtk output
ASCII
DATASET POLYDATA
POINTS 1002 float
-106.866 -121.421 74.9453 -107.601 -122.255 74.5451 -106.949 -122.087 73.8845 
-106.223 -121.097 74.2893 -106.309 -121.788 73.0976 -106.161 -120.32 75.3528 
-105.615 -120.614 73.5507 -105.817 -121.167 72.2944 -105.446 -119.897 74.7377 
-105.357 -119.083 75.8706 -105.121 -119.808 72.7723 -105.484 -120.165 71.5405 
-104.807 -119.259 74.0717 -104.585 -118.53 75.2989 -104.504 -117.784 76.4681 
-104.62 -118.773 71.9168 -105.084 -119.098 70.7956 -104.237 -118.302 73.3033 
-103.909 -117.695 74.6528 -103.759 -117.012 75.8782 -103.67 -116.39 76.9943 
-103.965 -117.786 71.0594 -104.545 -118.088 70.1342 -103.567 -117.259 72.4102 
-103.172 -116.708 73.8925 -102.937 -116.125 75.183 -102.87 -115.498 76.334 
-102.783 -114.932 77.3902 -103.328 -116.732 70.4406 -104.087 -116.893 69.692 
-102.843 -116.286 71.5992 -102.37 -115.806 73.0779 -101.92 -115.405 74.4499 
-101.833 -114.806 75.5852 -101.895 -114.111 76.6788 -101.926 -113.571 77.7195 
-102.876 -115.52 70.0475 -103.743 -115.622 69.3714 -102.241 -115.263 71.0068 
-101.716 -114.914 72.3172 -101.075 -114.681 73.7124 -100.741 -114.278 74.8808 
-100.905 -113.52 75.9301 -101.102 -112.832 77.0451 -101.246 -112.404 78.0692 
-102.502 -114.413 69.6508 -103.351 -114.571 69.0066 -101.758 -114.253 70.4862 
-101.202 -113.989 71.5894 -100.609 -113.723 72.9026 -100.086 -113.427 74.1645 
-100.066 -112.828 75.2514 -100.344 -112.104 76.362 -100.526 -111.622 77.5107 
-100.727 -111.309 78.4424 -102.131 -113.489 69.205 -102.898 -113.71 68.613 
-101.378 -113.315 69.9605 -100.779 -113.062 70.8997 -100.309 -112.677 72.0421 
-99.8658 -112.262 73.3173 -99.6476 -111.78 74.5374 -99.7538 -111.192 75.6944 
-99.9092 -110.704 76.8951 -100.044 -110.401 77.9802 -100.349 -110.124 78.7375 
-108.06 -122.847 73.6481 -107.294 -122.807 72.8397 -108.607 -123.456 72.5623 
-107.834 -123.464 71.6648 -109.258 -123.996 71.4459 -106.635 -122.515 71.9574 
-108.717 -123.739 70.5671 -110.123 -124.22 70.3337 -107.325 -122.982 70.8163 
-106.275 -121.678 71.1797 -109.833 -123.565 69.4895 -111.165 -124.175 69.0458 
-108.423 -122.907 69.7837 -107.122 -121.891 70.1359 -106.094 -120.454 70.5366 
-110.841 -123.398 68.2699 -112.152 -124.068 67.7093 -109.494 -122.612 68.7089 
-108.099 -121.83 69.0709 -106.9 -120.643 69.544 -105.765 -119.282 69.9183 
-111.692 -123.215 67.1605 -113.02 -123.65 66.771 -110.364 -122.431 67.6295 
-108.901 -121.732 67.969 -107.574 -120.81 68.4022 -106.487 -119.432 68.9662 
-105.325 -118.075 69.3825 -112.564 -122.565 66.408 -113.87 -122.781 66.2349 
-111.311 -121.971 66.7917 -109.842 -121.386 67.1054 -108.283 -120.748 67.3644 
-107.073 -119.549 67.8827 -106.083 -118.038 68.5269 -104.952 -116.716 69.0108 
-113.417 -121.684 65.7899 -114.669 -121.902 65.6938 -112.279 -121.173 66.1102 
-110.979 -120.654 66.4614 -109.358 -120.231 66.6591 -107.849 -119.402 66.9846 
-106.741 -118.04 67.6143 -105.715 -116.655 68.2481 -104.541 -115.507 68.6861 
-114.13 -121.043 65.0946 -115.328 -121.317 65.0037 -113.023 -120.52 65.3804 
-111.866 -119.969 65.7587 -110.417 -119.581 66.0202 -108.854 -119.021 66.2959 
-107.553 -117.953 66.8431 -106.437 -116.67 67.5023 -105.249 -115.521 68.0005 
-104.013 -114.543 68.3317 -115.131 -120.664 64.3569 -113.897 -120.197 64.5523 
-114.871 -119.635 63.9707 -113.478 -119.114 64.185 -114.478 -118.17 63.8562 
-112.651 -119.593 64.8985 -112.861 -117.731 63.9383 -113.849 -116.635 63.6914 
-111.969 -118.594 64.4215 -111.258 -119.107 65.2083 -112.11 -116.203 63.6244 
-113.02 -115.268 63.3357 -111.233 -117.245 64.0382 -110.472 -118.1 64.677 
-109.755 -118.615 65.5284 -111.338 -114.67 63.3606 -112.247 -113.932 63.2376 
-110.591 -115.586 63.8348 -109.919 -116.581 64.5031 -109.223 -117.302 65.3257 
-108.416 -117.687 66.1489 -110.733 -113.223 63.6469 -111.687 -112.666 63.8824 
-109.956 -113.961 63.9549 -109.429 -114.822 64.7085 -108.884 -115.559 65.5705 
-108.103 -116.051 66.3124 -107.19 -116.412 66.9206 -110.292 -111.948 64.6279 
-111.16 -111.584 65.0488 -109.398 -112.506 64.5769 -108.746 -113.234 65.1053 
-108.282 -113.844 65.9302 -107.633 -114.258 66.5944 -106.687 -114.726 67.0381 
-105.81 -115.211 67.4731 -109.755 -110.732 65.7582 -110.466 -110.5 66.108 
-108.9 -111.074 65.515 -108.064 -111.666 65.6456 -107.4 -112.289 66.1665 
-106.779 -112.651 66.7219 -105.931 -113.014 67.0808 -105.001 -113.622 67.3828 
-104.36 -114.193 67.8019 -109.04 -109.42 66.5317 -109.679 -109.259 66.765 
-108.292 -109.583 66.3149 -107.442 -109.948 66.2229 -106.571 -110.565 66.3701 
-105.778 -111.122 66.6924 -104.99 -111.505 67.0084 -104.151 -112.024 67.2803 
-103.473 -112.712 67.6144 -103.101 -113.299 68.0732 -102.022 -112.619 68.5872 
-102.212 -112.001 68.0244 -101.3 -111.236 68.6637 -102.564 -111.274 67.5442 
-101.48 -110.464 68.0251 -100.778 -109.546 68.8426 -103.165 -110.561 67.1667 
-101.757 -109.668 67.4381 -100.916 -108.687 68.0635 -100.362 -107.698 69.0399 
-103.944 -109.921 66.8671 -102.265 -108.781 66.9967 -101.171 -107.681 67.3846 
-100.522 -106.639 68.2068 -99.9985 -105.768 69.1931 -104.872 -109.2 66.6619 
-103.097 -107.762 66.7464 -101.766 -106.43 66.9563 -100.943 -105.305 67.57 
-100.303 -104.434 68.4646 -99.7761 -103.765 69.3451 -105.917 -108.488 66.6173 
-104.219 -106.857 66.7188 -102.759 -105.283 66.7574 -101.75 -103.994 67.1339 
-100.93 -103.08 67.9015 -100.221 -102.421 68.7493 -99.7709 -101.918 69.6195 
-106.911 -108.098 66.7113 -105.407 -106.41 66.8704 -103.993 -104.701 66.8057 
-102.862 -103.2 66.8624 -101.895 -102.125 67.4129 -100.988 -101.383 68.2495 
-100.311 -100.801 69.0967 -99.9374 -100.409 70.0543 -107.767 -107.991 66.8528 
-106.476 -106.35 67.0483 -105.254 -104.639 67.0531 -104.138 -102.987 66.9279 
-103.099 -101.661 67.1429 -102.105 -100.755 67.8628 -101.243 -100.046 68.7036 
-100.603 -99.4818 69.5478 -100.192 -99.1775 70.5531 -108.523 -107.924 67.0264 
-107.41 -106.377 67.2107 -106.404 -104.75 67.3345 -105.423 -103.094 67.2871 
-104.399 -101.588 67.296 -103.398 -100.471 67.7685 -102.498 -99.6492 68.5353 
-101.698 -98.9398 69.2637 -101.014 -98.4245 70.0542 -100.528 -98.2052 71.0591 
-101.292 -112.339 69.285 -100.673 -110.77 69.5208 -100.616 -112.029 70.1629 
-100.261 -108.863 69.8436 -100.12 -110.228 70.4983 -100.119 -111.569 71.1766 
-99.8622 -106.949 70.0441 -99.7645 -108.212 70.8195 -99.7197 -109.632 71.5182 
-99.773 -111.005 72.3722 -99.4937 -105.019 70.1224 -99.3313 -106.284 70.9962 
-99.3335 -107.659 71.8539 -99.4373 -109.102 72.7719 -99.5191 -110.485 73.7311 
-99.3997 -103.035 70.3453 -99.0563 -104.282 71.2453 -98.9065 -105.662 72.2418 
-99.0396 -107.187 73.275 -99.2367 -108.652 74.271 -99.4257 -109.986 75.0951 
-99.5781 -101.314 70.8264 -99.2172 -102.396 71.7543 -98.8764 -103.626 72.7885 
-98.7974 -105.124 73.865 -98.9285 -106.746 74.894 -99.1072 -108.218 75.7761 
-99.4245 -109.534 76.4392 -99.8104 -99.9406 71.4046 -99.5662 -100.913 72.3785 
-99.29 -101.976 73.3898 -99.0529 -103.234 74.4208 -98.953 -104.774 75.437 
-98.9296 -106.37 76.3719 -99.0751 -107.846 77.1409 -99.4892 -109.21 77.6692 
-100.058 -98.7996 71.948 -99.8396 -99.6755 72.9525 -99.707 -100.685 73.9363 
-99.5263 -101.786 74.8952 -99.3244 -103.09 75.8583 -99.1462 -104.578 76.7776 
-99.0965 -106.089 77.5729 -99.3274 -107.558 78.1693 -99.7982 -108.943 78.5387 
-100.645 -97.7234 72.2097 -100.233 -98.3485 73.2622 -101.06 -97.4148 73.6331 
-100.659 -98.0183 74.7213 -101.736 -97.2481 75.127 -100.046 -99.2624 74.319 
-101.241 -97.8755 76.1348 -102.395 -97.1404 76.4724 -100.348 -98.9185 75.7465 
-99.9028 -100.348 75.3064 -101.866 -97.9104 77.4006 -102.913 -97.0924 77.7679 
-100.77 -98.789 77.0999 -100.062 -100.04 76.7429 -99.7053 -101.582 76.2857 
-102.498 -98.0319 78.7138 -103.393 -97.2367 79.1682 -101.468 -98.8975 78.3259 
-100.473 -99.9033 78.0707 -99.8827 -101.373 77.7008 -99.5222 -103.007 77.2145 
-103.044 -98.2848 80.1048 -103.969 -97.6821 80.4219 -102.254 -99.1324 79.6143 
-101.331 -100.04 79.2229 -100.493 -101.315 78.8737 -99.9518 -102.94 78.4051 
-99.4823 -104.551 77.9606 -103.682 -98.8409 81.1831 -104.805 -98.4248 81.2828 
-102.879 -99.5606 80.843 -102.18 -100.437 80.3644 -101.443 -101.583 79.8465 
-100.842 -103.061 79.2725 -100.293 -104.603 78.7887 -99.6927 -106.109 78.4967 
-104.685 -99.7013 81.811 -105.847 -99.3451 81.8934 -103.69 -100.312 81.633 
-102.913 -101.107 81.3166 -102.248 -102.147 80.8126 -101.744 -103.465 80.1304 
-101.331 -104.846 79.4666 -100.741 -106.217 79.0801 -100.106 -107.635 78.878 
-105.816 -100.626 82.2642 -106.781 -100.241 82.4615 -104.824 -101.232 82.0627 
-103.897 -101.966 81.8863 -103.059 -102.865 81.6034 -102.433 -104.015 81.0902 
-102.08 -105.256 80.4059 -101.712 -106.452 79.7938 -101.134 -107.718 79.4192 
-100.592 -109.019 79.143 -101.331 -97.5769 70.9686 -101.579 -97.1661 72.2135 
-102.463 -97.2885 71.1173 -102.853 -96.8857 72.4415 -103.778 -97.2322 71.5383 
-102.175 -96.9277 73.7668 -104.287 -96.6696 72.8126 -105.147 -97.2864 72.0364 
-103.504 -96.5311 73.9885 -102.906 -96.6994 75.3095 -105.759 -96.6666 73.1217 
-106.436 -97.6577 72.4396 -104.932 -96.1887 74.1733 -104.124 -96.1829 75.4641 
-103.454 -96.4683 76.707 -107.107 -97.2373 73.394 -107.557 -98.4206 72.7991 
-106.459 -96.3357 74.3162 -105.56 -96.0284 75.5917 -104.653 -96.1288 76.9399 
-103.931 -96.507 78.1558 -108.272 -98.1061 73.7496 -108.658 -99.1787 73.1453 
-107.864 -97.0495 74.5648 -107.212 -96.4421 75.7869 -106.295 -96.3783 77.1856 
-105.364 -96.5529 78.4567 -104.578 -96.9464 79.5492 -109.415 -98.849 74.0922 
-109.818 -99.7697 73.4188 -109.022 -97.904 74.8567 -108.59 -97.1643 75.9895 
-107.971 -96.8904 77.3965 -107.134 -96.9717 78.6513 -106.238 -97.2004 79.6783 
-105.425 -97.6577 80.5892 -110.516 -99.587 74.3517 -110.843 -100.425 73.6421 
-110.086 -98.7864 75.077 -109.618 -98.0851 76.0743 -109.148 -97.61 77.4357 
-108.572 -97.4595 78.7398 -107.846 -97.6025 79.716 -107.078 -97.9758 80.578 
-106.383 -98.5602 81.3702 -111.39 -100.463 74.589 -111.603 -101.219 73.8596 
-111.058 -99.7474 75.3041 -110.6 -99.1238 76.1657 -110.104 -98.6181 77.3772 
[...]
CELL_DATA 2000
SCALARS Distance double
LOOKUP_TABLE default
177.571 176.712 176.996 176.643 175.723 176.063 175.689 175.984 175.579 
174.583 174.988 174.598 174.958 174.527 174.853 174.437 173.304 173.745 
173.314 173.763 173.306 173.71 173.253 173.654 173.238 171.976 172.391 
171.89 172.373 171.893 172.377 171.896 172.367 171.912 172.382 171.947 
170.669 171.035 170.484 170.924 170.438 170.923 170.467 170.955 170.507 
170.992 170.555 171.04 170.631 169.422 169.736 169.175 169.557 169.083 
169.524 169.109 169.567 169.16 169.612 169.206 169.664 169.298 169.781 
169.484 168.273 168.533 167.975 168.303 167.835 168.234 167.829 168.263 
167.871 168.31 167.921 168.365 168.022 168.497 168.241 168.745 168.549 
167.22 167.44 166.888 167.162 166.684 167.029 166.604 167.004 166.598 
167.03 166.643 167.095 166.758 167.241 166.988 167.512 167.325 167.857 
167.684 177.955 178.25 177.785 177.117 178.559 178.078 177.385 176.889 
176.143 178.843 178.381 177.675 177.16 176.371 175.851 175.025 179.007 
178.605 177.886 177.417 176.613 176.082 175.216 174.679 173.797 179.066 
178.7 177.956 177.544 176.737 176.275 175.415 174.887 173.986 173.433 
172.526 179.039 178.717 177.962 177.567 176.748 176.331 175.485 175.032 
174.14 173.623 172.695 172.15 171.236 178.862 178.62 177.882 177.547 
176.738 176.334 175.486 175.055 174.169 173.708 172.786 172.291 171.365 
170.855 169.974 178.583 178.377 177.661 177.409 176.649 176.313 175.493 
175.07 174.19 173.72 172.816 172.343 171.454 170.971 170.103 169.617 
168.804 178.334 178.106 177.405 177.168 176.448 176.182 175.418 175.065 
174.23 173.778 172.908 172.417 171.571 171.081 170.254 169.758 168.943 
168.474 167.723 177.991 177.085 177.378 177.02 175.947 176.361 175.989 
176.354 176.02 174.55 175.084 174.709 175.2 174.852 175.305 174.97 
172.984 173.571 173.187 173.791 173.456 174.025 173.699 174.19 173.803 
171.442 171.964 171.572 172.208 171.933 172.577 172.324 172.877 172.536 
172.971 172.529 170.229 170.532 170.132 170.65 170.442 171.088 170.937 
171.528 171.255 171.71 171.287 171.671 171.205 169.449 169.541 169.097 
169.385 169.145 169.683 169.55 170.158 169.893 170.399 169.94 170.374 
169.858 170.306 169.845 168.757 168.845 168.305 168.466 168.055 168.447 
168.177 168.743 168.406 168.949 168.42 168.905 168.317 168.836 168.335 
168.897 168.49 167.814 168.019 167.377 167.574 166.966 167.286 166.788 
167.288 166.82 167.373 166.802 167.306 166.691 167.216 166.709 167.309 
166.937 167.557 167.258 166.452 166.033 165.847 165.095 165.7 165.396 
164.538 164.423 163.693 165.579 165.095 164.095 163.842 162.997 162.962 
162.259 165.62 165.012 163.837 163.403 162.379 162.226 161.406 161.474 
160.801 165.669 165.039 163.74 163.146 161.932 161.599 160.637 160.598 
159.857 159.991 159.372 165.761 165.108 163.843 163.104 161.813 161.235 
160.182 159.917 159.145 159.124 158.516 158.629 158.142 166.047 165.339 
164.22 163.377 162.17 161.345 160.285 159.7 158.927 158.637 158.073 
157.973 157.526 157.582 157.284 166.496 165.775 164.782 163.935 162.879 
161.958 160.958 160.11 159.314 158.717 158.174 157.821 157.425 157.23 
156.935 156.932 156.779 166.957 166.281 165.363 164.585 163.66 162.801 
161.911 160.989 160.189 159.363 158.788 158.197 157.841 157.423 157.156 
156.863 156.672 156.591 156.533 166.451 165.157 165.908 166.124 163.805 
164.597 164.845 165.621 165.907 162.415 163.229 163.481 164.305 164.606 
165.432 165.783 160.994 161.823 162.069 162.912 163.213 164.083 164.456 
165.331 165.745 159.57 160.384 160.62 161.477 161.788 162.681 163.096 
164.002 164.475 165.343 165.81 158.335 159.02 159.261 160.047 160.379 
161.262 161.737 162.678 163.236 164.127 164.666 165.48 165.977 157.494 
157.985 158.287 158.878 159.261 159.975 160.497 161.376 162.016 162.935 
163.552 164.392 164.952 165.723 166.25 156.984 157.347 157.723 158.173 
158.64 159.137 159.687 160.333 161 161.804 162.485 163.314 163.929 
164.727 165.311 166.064 166.614 156.692 156.955 157.347 157.753 158.274 
158.711 159.273 159.752 160.377 160.979 161.651 162.354 162.998 163.744 
164.361 165.13 165.731 166.462 166.998 156.735 157.222 157.038 157.387 
158.057 157.674 157.947 157.845 158.326 159.046 158.581 158.728 158.477 
158.892 158.844 159.354 160.025 159.569 159.661 159.285 159.58 159.438 
159.943 159.908 160.452 161.059 160.586 160.736 160.268 160.491 160.18 
160.626 160.532 161.116 161.072 161.669 162.223 161.704 161.918 161.422 
161.669 161.206 161.589 161.32 161.898 161.788 162.417 162.342 162.969 
163.526 162.933 163.15 162.653 162.95 162.461 162.831 162.422 162.953 
162.698 163.332 163.16 163.794 163.677 164.324 164.981 164.307 164.508 
163.943 164.262 163.766 164.157 163.711 164.207 163.859 164.455 164.183 
164.797 164.58 165.203 165.064 165.702 166.45 165.794 165.984 165.372 
165.677 165.132 165.516 165.037 165.499 165.114 165.66 165.348 165.916 
165.636 166.199 165.983 166.564 166.423 166.988 156.604 156.924 156.789 
157.104 157.719 157.332 157.6 157.507 158.008 158.763 158.244 158.415 
158.157 158.574 158.518 159.032 159.932 159.319 159.376 158.991 159.266 
159.108 159.51 159.491 159.962 161.255 160.556 160.581 160.013 160.222 
159.861 160.221 160.029 160.48 160.432 160.968 162.639 161.945 162.005 
161.339 161.57 161.021 161.44 161.002 161.516 161.187 161.752 161.581 
162.19 163.953 163.328 163.41 162.781 163.005 162.46 162.89 162.419 
162.956 162.492 163.04 162.629 163.205 162.937 163.562 165.19 164.625 
164.736 164.146 164.339 163.827 164.193 163.801 164.285 163.911 164.392 
163.985 164.48 164.111 164.685 164.404 165.041 166.345 165.85 166.01 
165.46 165.659 165.128 165.45 165.027 165.469 165.118 165.57 165.217 
165.668 165.337 165.864 165.58 166.172 165.914 166.51 166.912 166.379 
166.21 165.338 166.025 165.732 164.844 164.618 163.72 165.859 165.48 
164.569 164.226 163.304 163.023 162.074 165.714 165.336 164.397 164.009 
163.042 162.68 161.693 161.368 160.405 165.579 165.19 164.262 163.847 
162.89 162.473 161.512 161.095 160.165 159.801 159.011 165.57 165.134 
164.278 163.796 162.914 162.423 161.567 161.072 160.252 159.762 159.021 
158.634 158.055 165.71 165.243 164.483 163.955 163.161 162.602 161.826 
161.281 160.544 160.009 159.296 158.798 158.156 157.801 157.32 165.97 
165.485 164.805 164.269 163.547 162.966 162.22 161.638 160.906 160.357 
159.64 159.115 158.419 157.958 157.375 157.092 156.737 166.317 165.824 
165.192 164.657 163.983 163.408 162.69 162.082 161.341 160.747 160.037 
159.479 158.818 158.283 157.702 157.255 156.863 156.628 156.504 167.763 
168.814 167.956 167.274 169.859 169.025 168.418 167.524 166.921 171.001 
170.127 169.573 168.699 168.156 167.273 166.756 172.219 171.337 170.788 
169.898 169.392 168.525 168.027 167.141 166.622 173.318 172.545 172.018 
171.143 170.636 169.775 169.294 168.413 167.89 166.985 166.466 174.26 
173.6 173.158 172.35 171.855 171.017 170.546 169.684 169.177 168.264 
167.733 166.841 166.391 175.156 174.552 174.195 173.46 172.999 172.202 
171.734 170.915 170.429 169.552 169.028 168.123 167.646 166.806 166.453 
176.015 175.459 175.141 174.479 174.051 173.306 172.833 172.058 171.579 
170.768 170.268 169.405 168.92 168.067 167.682 166.908 166.65 176.797 
176.291 175.989 175.395 174.995 174.313 173.85 173.116 172.641 171.879 
171.404 170.604 170.137 169.316 168.914 168.134 167.848 167.138 166.951 
177.136 177.363 176.949 176.309 177.52 177.12 176.415 176.018 175.298 
177.602 177.218 176.473 176.07 175.293 174.918 174.152 177.653 177.27 
176.505 176.092 175.281 174.885 174.08 173.722 172.945 177.677 177.312 
176.536 176.112 175.276 174.859 174.026 173.643 172.83 172.49 171.711 
177.684 177.334 176.579 176.146 175.294 174.848 173.986 173.581 172.738 
172.37 171.553 171.234 170.46 177.729 177.371 176.655 176.214 175.378 
174.891 174.021 173.562 172.711 172.293 171.467 171.095 170.315 169.999 
169.274 177.743 177.422 176.711 176.302 175.49 175.007 174.154 173.654 
172.815 172.331 171.517 171.071 170.31 169.925 169.231 168.895 168.249 
177.589 177.356 176.633 176.309 175.511 175.101 174.265 173.802 172.969 
172.482 171.673 171.192 170.437 170 169.321 168.936 168.312 167.961 
167.372 177.198 176.217 176.567 176.235 175.182 175.53 175.172 175.528 
175.127 174.127 174.462 174.052 174.415 173.997 174.354 173.902 173.018 
173.359 172.899 173.257 172.789 173.166 172.703 173.082 172.612 171.857 
172.205 171.729 172.082 171.602 171.95 171.473 171.848 171.395 171.781 
171.328 170.691 171.03 170.554 170.906 170.456 170.799 170.346 170.672 
170.228 170.576 170.155 170.522 170.111 169.561 169.877 169.373 169.711 
169.224 169.616 169.16 169.547 169.08 169.436 168.985 169.356 168.96 
169.348 168.995 168.461 168.759 168.213 168.511 167.938 168.313 167.796 
168.25 167.754 168.197 167.693 168.126 167.689 168.151 167.806 168.261 
167.963 167.346 167.636 167.059 167.337 166.734 167.037 166.498 166.881 
166.405 166.823 166.339 166.766 166.318 166.809 166.471 167.006 166.744 
167.247 167.007 177.571 177.809 177.345 176.622 178.152 177.633 176.938 
176.391 175.638 178.72 178.103 177.438 176.791 176.013 175.406 174.616 
179.381 178.738 178.014 177.332 176.487 175.814 174.946 174.353 173.523 
179.799 179.27 178.397 177.784 176.84 176.225 175.302 174.695 173.801 
173.222 172.369 179.807 179.452 178.489 177.964 176.934 176.422 175.495 
174.99 174.079 173.497 172.558 172.009 171.159 179.497 179.294 178.39 
177.941 176.897 176.416 175.475 175.066 174.161 173.679 172.673 172.134 
171.172 170.747 169.963 179.01 178.917 178.127 177.802 176.829 176.373 
175.401 174.985 174.048 173.634 172.614 172.135 171.114 170.691 169.849 
169.546 168.846 178.452 178.409 177.699 177.51 176.653 176.297 175.356 
174.916 173.943 173.492 172.49 172.027 171.05 170.616 169.776 169.432 
168.726 168.443 167.767 178.218 179.278 178.661 178.478 180.432 179.791 
179.614 178.917 178.767 181.639 181.038 180.931 180.147 179.962 179.278 
179.28 182.764 182.262 182.296 181.567 181.429 180.608 180.561 179.916 
179.999 183.867 183.375 183.478 182.9 182.879 182.137 182.041 181.286 
181.25 180.608 180.518 184.948 184.488 184.515 183.996 183.97 183.431 
183.314 182.667 182.421 181.759 181.466 180.868 180.504 185.547 185.374 
185.304 184.905 184.729 184.314 184.133 183.672 183.308 182.704 182.159 
181.583 181.056 180.576 180.083 185.449 185.591 185.506 185.392 185.125 
184.861 184.585 184.271 183.899 183.396 182.77 182.136 181.458 180.954 
180.414 180.023 179.53 185.11 185.296 185.262 185.331 185.112 185.02 
184.711 184.54 184.18 183.853 183.29 182.709 181.993 181.375 180.764 
180.307 179.831 179.446 178.969 185.026 185.033 185.049 185.099 184.986 
185.009 184.916 184.991 184.935 184.591 184.785 184.589 184.697 184.502 
184.665 184.534 183.767 184.143 183.888 184.139 183.823 184.079 183.87 
184.163 183.98 182.718 183.169 182.914 183.257 182.909 183.225 182.948 
183.338 183.12 183.469 183.106 181.601 182.075 181.859 182.248 181.959 
182.277 181.992 182.348 182.099 182.482 182.126 182.401 181.868 180.49 
180.954 180.763 181.194 180.964 181.34 181.079 181.412 181.122 181.454 
181.103 181.393 180.936 181.136 180.65 179.453 179.877 179.691 180.112 
179.901 180.322 180.083 180.464 180.149 180.474 180.092 180.389 179.978 
180.236 179.823 180.037 179.676 178.492 178.882 178.697 179.081 178.871 
179.27 179.044 179.436 179.137 179.47 179.084 179.382 178.984 179.283 
178.91 179.193 178.84 179.109 178.788 177.901 176.99 177.674 178.079 
175.948 176.7 177.139 177.835 178.243 174.835 175.619 176.078 176.846 
177.291 177.992 178.395 173.666 174.479 174.916 175.73 176.169 176.962 
177.364 178.095 178.446 172.392 173.255 173.661 174.508 174.906 175.753 
176.145 176.963 177.313 178.064 178.371 171.082 171.936 172.346 173.209 
173.603 174.453 174.857 175.702 176.102 176.895 177.247 177.971 178.287 
169.932 170.679 171.1 171.914 172.344 173.171 173.603 174.439 174.885 
175.703 176.113 176.864 177.218 177.917 178.241 168.982 169.626 170.017 
170.744 171.169 171.955 172.387 173.208 173.652 174.493 174.923 175.725 
176.093 176.836 177.171 177.877 178.194 168.101 168.708 169.047 169.712 
170.09 170.82 171.223 172.004 172.425 173.252 173.687 174.517 174.914 
175.689 176.039 176.778 177.123 177.833 178.158 177.925 176.841 177.318 
177.135 175.723 176.181 175.963 176.439 176.147 174.565 175.024 174.755 
175.235 174.912 175.347 174.912 173.301 173.782 173.44 173.953 173.559 
174.038 173.537 173.976 173.446 172.018 172.46 172.053 172.553 172.101 
172.595 172.048 172.511 171.936 172.431 171.926 170.812 171.187 170.741 
171.165 170.692 171.129 170.596 171.022 170.486 170.936 170.462 170.957 
170.543 169.683 170.003 169.525 169.889 169.401 169.78 169.255 169.635 
169.13 169.555 169.133 169.59 169.22 169.678 169.345 168.638 168.897 
168.38 168.688 168.174 168.523 167.989 168.343 167.808 168.217 167.765 
168.257 167.878 168.384 168.041 168.543 168.269 167.685 167.884 167.328 
167.565 167.017 167.317 166.778 167.101 166.55 166.904 166.399 166.851 
166.431 166.966 166.596 167.165 166.858 167.459 167.242 178.99 179.259 
179.438 180.106 179.535 179.726 180.417 180.619 181.36 179.712 179.966 
180.647 180.907 181.672 181.923 182.688 179.749 180.073 180.762 181.083 
181.841 182.17 182.939 183.204 183.845 179.68 180.056 180.763 181.145 
181.911 182.286 183.031 183.354 183.972 184.196 184.626 179.488 179.923 
180.611 181.075 181.829 182.282 182.994 183.368 183.939 184.219 184.634 
184.816 185.049 179.185 179.652 180.292 180.816 181.52 182.068 182.743 
183.216 183.762 184.112 184.516 184.758 185.001 185.111 185.147 178.854 
179.308 179.9 180.418 181.058 181.637 182.277 182.835 183.397 183.852 
184.298 184.613 184.895 185.042 185.111 185.107 185.019 178.525 178.96 
179.497 179.985 180.553 181.109 181.692 182.282 182.834 183.391 183.873 
184.325 184.667 184.922 185.047 185.089 185.053 184.987 184.945 179.053 
180.158 179.552 179.441 181.415 180.726 180.582 179.903 179.674 182.769 
182.06 181.892 181.103 180.819 180.068 179.702 183.939 183.379 183.223 
182.444 182.082 181.244 180.805 180.013 179.492 184.702 184.366 184.222 
183.639 183.214 182.435 181.85 181.058 180.448 179.674 179.016 185.078 
184.92 184.767 184.406 183.969 183.36 182.671 181.94 181.186 180.486 
179.785 179.088 178.439 185.097 185.088 184.917 184.753 184.368 183.945 
183.304 182.638 181.849 181.128 180.392 179.749 179.141 178.527 178.025 
184.917 184.955 184.783 184.753 184.464 184.242 183.765 183.25 182.576 
181.841 181.125 180.398 179.811 179.198 178.743 178.184 177.804 184.881 
184.821 184.709 184.632 184.441 184.303 183.983 183.667 183.154 182.578 
181.918 181.201 180.585 179.923 179.452 178.886 178.502 177.98 177.628 
178.436 178.787 178.281 177.543 178.973 178.547 177.763 177.265 176.392 
178.933 178.597 177.768 177.36 176.434 175.965 174.985 178.645 178.397 
177.504 177.211 176.277 175.909 174.928 174.474 173.45 178.149 177.96 
177.012 176.804 175.906 175.673 174.796 174.419 173.459 172.946 171.957 
177.659 177.441 176.533 176.292 175.481 175.303 174.611 174.338 173.553 
173.051 172.152 171.572 170.754 177.374 177.096 176.327 175.981 175.285 
175.026 174.497 174.26 173.671 173.237 172.458 171.874 171.104 170.564 
169.947 177.239 176.968 176.33 175.965 175.348 175.013 174.517 174.259 
173.744 173.391 172.677 172.176 171.395 170.906 170.241 169.823 169.236 
177.1 176.886 176.308 176.022 175.425 175.115 174.553 174.29 173.714 
173.426 172.704 172.306 171.485 171.073 170.323 169.979 169.305 168.981 
168.297 178.221 178.38 178.625 179.239 178.355 178.685 179.333 179.641 
180.321 178.337 178.651 179.317 179.669 180.398 180.741 181.454 178.376 
178.686 179.391 179.708 180.466 180.804 181.558 181.865 182.552 178.351 
178.709 179.413 179.785 180.543 180.906 181.664 181.978 182.709 182.977 
183.679 178.272 178.638 179.285 179.702 180.407 180.876 181.611 182.036 
182.747 183.106 183.822 184.127 184.775 178.163 178.531 179.129 179.517 
180.157 180.631 181.35 181.862 182.563 183.024 183.655 184.093 184.644 
185.019 185.365 177.957 178.356 178.909 179.313 179.895 180.351 181.036 
181.562 182.281 182.771 183.362 183.785 184.211 184.631 184.884 185.243 
185.284 177.662 178.07 178.558 178.998 179.508 180.001 180.607 181.186 
181.881 182.451 183.063 183.485 183.891 184.194 184.425 184.695 184.788 
185.018 184.997 
POINT_DATA 1002
SCALARS Distance double
LOOKUP_TABLE default
177.27 178.112 177.332 176.389 176.418 176.272 175.386 175.367 175.295 
175.174 174.215 174.17 174.197 174.092 174.047 172.852 172.894 172.88 
172.846 172.825 172.845 171.429 171.607 171.392 171.411 171.434 171.479 
171.519 170.07 170.333 169.955 169.971 170.023 170.066 170.124 170.253 
168.809 169.128 168.649 168.65 168.71 168.751 168.806 168.967 169.236 
167.666 168.026 167.454 167.406 167.434 167.473 167.541 167.723 168.035 
168.378 166.63 167.005 166.369 166.231 166.177 166.187 166.273 166.464 
166.78 167.161 167.514 178.422 177.604 178.728 177.906 179.047 176.648 
178.194 179.29 176.928 175.54 178.334 179.401 177.133 175.781 174.33 
178.37 179.432 177.168 175.915 174.553 173.078 178.353 179.336 177.167 
175.912 174.631 173.241 171.769 178.173 179.08 177.124 175.927 174.623 
173.255 171.866 170.464 177.882 178.791 176.933 175.892 174.665 173.285 
171.913 170.586 169.26 177.646 178.566 176.69 175.722 174.642 173.386 
172.057 170.748 169.43 168.139 177.765 176.727 176.764 175.593 175.485 
175.648 174.175 173.992 174.362 174.548 172.551 172.412 172.839 173.169 
173.384 170.93 170.986 171.237 171.725 172.081 172.147 169.682 170.022 
169.786 170.307 170.782 170.906 170.814 168.922 169.408 168.694 168.96 
169.389 169.513 169.406 169.358 168.21 168.657 167.787 167.691 167.884 
167.949 167.8 167.747 167.903 167.193 167.596 166.73 166.386 166.294 
166.287 166.172 166.103 166.279 166.632 165.721 165.189 164.378 164.721 
163.706 163 164.463 163.102 162.186 161.598 164.403 162.646 161.393 
160.644 160.166 164.429 162.392 160.762 159.762 159.171 158.785 164.608 
162.498 160.557 159.234 158.446 157.937 157.709 165.029 163.029 160.987 
159.317 158.238 157.541 157.106 157.042 165.569 163.751 161.861 160.029 
158.601 157.69 157.049 156.653 156.647 166.085 164.44 162.794 161.08 
159.462 158.305 157.534 156.89 156.477 156.479 165.375 164.04 165.123 
162.651 163.755 164.945 161.225 162.335 163.554 164.875 159.765 160.875 
162.158 163.581 164.974 158.515 159.508 160.759 162.301 163.831 165.198 
157.735 158.618 159.665 161.074 162.679 164.153 165.511 157.269 158.172 
159.137 160.268 161.666 163.117 164.522 165.906 156.954 157.825 158.83 
159.858 161.011 162.283 163.599 164.968 166.322 156.777 157.387 157.507 
158.132 158.535 158.328 159.081 159.527 158.975 159.379 160.103 160.45 
159.805 159.966 160.492 161.21 161.52 160.9 160.773 161.143 161.718 
162.386 162.765 162.161 161.949 162.048 162.507 163.029 163.652 164.162 
163.414 163.277 163.272 163.545 163.949 164.408 165.11 165.672 164.765 
164.609 164.588 164.764 165.059 165.387 165.818 166.601 167.079 166.244 
166.024 165.918 165.995 166.226 166.465 166.746 167.13 156.562 157.033 
157.182 157.787 158.191 157.985 158.758 159.343 158.705 159.038 159.861 
160.596 159.514 159.586 159.913 161.215 161.957 160.67 160.489 160.595 
160.937 162.666 163.296 162.136 161.909 161.927 162.032 162.289 164.023 
164.543 163.544 163.339 163.426 163.521 163.569 163.761 165.312 165.717 
164.874 164.602 164.642 164.79 164.866 165.005 165.291 166.523 166.797 
166.195 165.911 165.84 165.926 165.998 166.143 166.446 166.782 167.056 
165.49 166.592 165.117 166.369 163.928 164.955 166.255 163.636 162.35 
164.801 166.09 163.437 162.057 160.676 164.683 165.968 163.308 161.928 
160.555 159.269 164.754 165.992 163.401 162.037 160.738 159.467 158.332 
164.986 166.155 163.712 162.371 161.072 159.827 158.599 157.542 165.319 
166.439 164.113 162.818 161.474 160.174 158.922 157.738 156.85 168.64 
168.176 169.63 169.275 170.678 167.806 170.431 171.897 169.019 167.647 
171.688 173.075 170.248 168.913 167.524 172.876 174.009 171.496 170.168 
168.805 167.343 173.92 174.856 172.682 171.391 170.083 168.646 167.215 
174.887 175.73 173.783 172.538 171.277 169.931 168.511 167.214 175.767 
176.552 174.773 173.601 172.365 171.101 169.775 168.477 167.358 176.557 