# vtk DataFile Version 4.0
vtk output
ASCII
DATASET POLYDATA
POINTS 1002 float
-105.269 -120.109 76.428 -105.66 -121.393 75.9812 -105.535 -120.605 75.196 
-104.918 -119.332 75.628 -105.244 -119.76 74.4362 -104.573 -118.835 76.9268 
-104.389 -118.542 74.763 -104.792 -118.926 73.6212 -104.025 -118.089 76.1055 
-103.713 -117.522 77.3904 -103.854 -117.684 73.8661 -104.337 -117.981 72.764 
-103.445 -117.253 75.1766 -103.139 -116.71 76.5509 -102.939 -116.077 77.7463 
-103.399 -116.664 73.0392 -103.904 -116.904 71.9714 -102.913 -116.311 74.2849 
-102.533 -115.826 75.6373 -102.299 -115.257 76.9147 -102.178 -114.667 78.0686 
-102.922 -115.595 72.2535 -103.437 -115.844 71.2223 -102.34 -115.335 73.4796 
-101.779 -115.025 74.748 -101.443 -114.602 76.0559 -101.323 -114.048 77.3169 
-101.301 -113.466 78.5126 -102.445 -114.574 71.442 -103.021 -114.785 70.5493 
-101.805 -114.375 72.6478 -101.013 -114.268 73.839 -100.49 -114.08 75.0944 
-100.379 -113.599 76.5292 -100.44 -112.93 77.8597 -100.514 -112.315 79.062 
-102.032 -113.526 70.7328 -102.73 -113.646 70.0763 -101.433 -113.365 71.8119 
-100.616 -113.317 72.9502 -99.9055 -113.281 74.0466 -99.7371 -112.916 75.5202 
-99.8649 -112.219 77.1037 -99.972 -111.528 78.3879 -100.045 -111.007 79.5586 
-101.675 -112.459 70.1755 -102.517 -112.55 69.7101 -101.099 -112.285 71.0521 
-100.508 -112.128 72.1552 -99.8601 -112.016 73.1484 -99.5823 -111.692 74.4178 
-99.6841 -111.06 76.1082 -99.8006 -110.399 77.5897 -99.8169 -109.915 78.777 
-99.8417 -109.557 79.9553 -101.442 -111.475 69.6665 -102.343 -111.629 69.2853 
-100.802 -111.219 70.3518 -100.383 -110.89 71.3756 -99.9903 -110.573 72.4035 
-99.7191 -110.168 73.4882 -99.7013 -109.591 75.0114 -99.7792 -109.027 76.6314 
-99.7954 -108.632 77.9235 -99.7499 -108.354 79.1094 -99.7522 -108.1 80.3013 
-105.912 -122.178 75.0471 -105.875 -121.296 74.2863 -106.356 -122.764 74.1038 
-106.361 -121.842 73.3755 -107.139 -123.008 73.1576 -105.688 -120.352 73.5423 
-107.069 -122.145 72.3322 -108.148 -123.08 72.1537 -106.204 -120.863 72.5116 
-105.314 -119.393 72.6581 -107.942 -122.273 71.2356 -109.179 -123.111 71.1546 
-106.809 -121.218 71.3156 -105.853 -119.838 71.5217 -104.892 -118.305 71.7689 
-108.974 -122.127 70.3524 -110.22 -122.862 70.3166 -107.619 -121.294 70.3268 
-106.465 -120.16 70.4213 -105.514 -118.645 70.7375 -104.478 -117.135 71.0302 
-110.104 -121.663 69.637 -111.224 -122.357 69.6015 -108.727 -120.979 69.6375 
-107.338 -120.136 69.6264 -106.264 -118.843 69.8042 -105.25 -117.336 70.1342 
-104.092 -115.969 70.3783 -111.074 -121.227 68.8574 -112.043 -121.953 68.8128 
-109.871 -120.544 68.9088 -108.435 -119.842 68.9128 -107.131 -118.795 68.9691 
-106.088 -117.406 69.2191 -105.017 -115.989 69.5947 -103.838 -114.715 69.8921 
-111.784 -120.909 68.047 -112.7 -121.625 67.9643 -110.736 -120.196 68.1194 
-109.455 -119.532 68.1209 -108.056 -118.667 68.153 -106.825 -117.443 68.3433 
-105.834 -116.018 68.7472 -104.844 -114.611 69.2471 -103.691 -113.432 69.5841 
-112.4 -120.442 67.4055 -113.333 -121.116 67.2966 -111.37 -119.74 67.4749 
-110.225 -119.123 67.4169 -108.958 -118.448 67.4017 -107.64 -117.47 67.6005 
-106.487 -116.166 67.9805 -105.584 -114.699 68.4888 -104.651 -113.348 68.9724 
-103.5 -112.345 69.2244 -113.42 -119.937 66.979 -112.303 -119.205 66.99 
-113.431 -118.582 66.6781 -112.092 -117.916 66.2278 -113.294 -117.405 65.8152 
-111.071 -118.565 66.8152 -111.813 -116.926 64.9676 -113.078 -116.399 64.6672 
-110.708 -117.437 65.7908 -109.852 -118.029 66.6561 -111.617 -115.995 64.2593 
-112.841 -115.214 64.4267 -110.412 -116.506 64.8806 -109.54 -116.908 65.9049 
-108.625 -117.299 66.8517 -111.448 -114.622 64.8563 -112.435 -113.824 65.2591 
-110.226 -115.297 64.9749 -109.317 -115.642 65.6119 -108.413 -115.927 66.5126 
-107.318 -116.152 67.3162 -111.091 -112.895 65.8394 -111.83 -112.397 66.196 
-109.99 -113.529 65.7379 -109.062 -113.964 65.9179 -108.215 -114.242 66.4319 
-107.092 -114.539 67.1259 -106.142 -114.686 67.8103 -110.6 -111.156 66.4522 
-111.241 -110.941 66.8833 -109.628 -111.591 66.2752 -108.706 -112.079 66.377 
-107.893 -112.441 66.6669 -106.798 -112.793 67.0527 -105.742 -113.082 67.5724 
-105.135 -113.205 68.2701 -110.132 -109.592 67.0097 -110.743 -109.565 67.5621 
-109.25 -109.815 66.6708 -108.331 -110.249 66.7466 -107.493 -110.686 67.0807 
-106.391 -111.087 67.2858 -105.182 -111.501 67.4127 -104.444 -111.809 67.8565 
-104.024 -112.033 68.583 -109.677 -108.321 67.737 -110.264 -108.418 68.2599 
-108.889 -108.326 67.2861 -107.998 -108.537 67.1642 -107.116 -108.866 67.3861 
-106.002 -109.24 67.5508 -104.657 -109.746 67.4597 -103.68 -110.323 67.5251 
-103.223 -110.804 68.0354 -102.837 -111.209 68.7216 -101.656 -110.603 69.0264 
-102.11 -110.035 68.4286 -101.241 -109.16 68.9443 -102.47 -109.32 67.8085 
-101.7 -108.314 68.4437 -101.042 -107.199 69.1276 -103.049 -108.435 67.424 
-102.099 -107.256 67.8946 -101.522 -106.141 68.7373 -100.73 -105.031 69.3313 
-104.263 -107.615 67.4307 -102.855 -106.15 67.4328 -102.088 -105.059 68.1984 
-101.334 -104.006 68.9908 -100.404 -102.982 69.4682 -105.72 -107.155 67.5608 
-104.2 -105.412 67.3446 -103.083 -104.192 67.7171 -102.25 -103.212 68.6098 
-101.299 -102.116 69.2421 -100.49 -101.186 69.8503 -106.872 -107.006 67.6198 
-105.606 -105.261 67.653 -104.42 -103.827 67.7605 -103.456 -102.733 68.4269 
-102.512 -101.543 69.1125 -101.588 -100.451 69.6976 -100.909 -99.7581 70.4919 
-107.817 -106.998 67.7954 -106.718 -105.462 68.1321 -105.657 -103.947 68.2929 
-104.679 -102.638 68.6831 -103.746 -101.275 69.1684 -102.845 -99.9462 69.5807 
-102.047 -99.0859 70.2253 -101.388 -98.6565 71.0973 -108.682 -107.113 68.185 
-107.654 -105.748 68.6059 -106.7 -104.244 68.8632 -105.797 -102.782 69.1349 
-104.891 -101.327 69.4746 -104.04 -99.8338 69.7073 -103.29 -98.6633 70.059 
-102.582 -98.0417 70.7687 -101.917 -97.7758 71.6781 -109.402 -107.292 68.635 
-108.484 -106.013 69.0011 -107.643 -104.518 69.2582 -106.861 -102.957 69.4721 
-106.031 -101.496 69.8007 -105.194 -100.087 70.1229 -104.473 -98.7797 70.3514 
-103.826 -97.8228 70.7521 -103.146 -97.3222 71.4805 -102.489 -97.1459 72.4108 
-100.868 -110.233 69.5437 -100.579 -108.509 69.5874 -100.338 -109.727 70.3952 
-100.323 -106.407 69.76 -100.082 -107.835 70.5168 -100.042 -109.199 71.5047 
-99.9249 -104.235 69.9232 -99.8066 -105.766 70.7316 -99.8678 -107.239 71.7304 
-99.8645 -108.66 72.6594 -99.8065 -102.157 70.2493 -99.6109 -103.61 71.0854 
-99.7248 -105.194 72.1643 -99.8084 -106.608 73.1568 -99.7713 -108.039 74.0747 
-100.123 -100.398 70.8892 -99.7462 -101.461 71.6277 -99.7148 -102.993 72.7344 
-99.7435 -104.575 73.8204 -99.7253 -106.021 74.7865 -99.7462 -107.503 75.7485 
-100.522 -99.1131 71.5852 -99.9819 -99.7325 72.2515 -99.7816 -100.864 73.2975 
-99.7403 -102.464 74.4551 -99.7093 -104.121 75.4419 -99.7099 -105.68 76.3651 
-99.7635 -107.187 77.2245 -100.969 -98.1574 72.2195 -100.253 -98.5733 72.8992 
-99.8512 -99.2885 73.8972 -99.7197 -100.559 75.0794 -99.7466 -102.183 76.0837 
-99.7776 -103.862 76.9561 -99.7614 -105.472 77.8132 -99.7442 -106.971 78.5419 
-101.564 -97.4368 72.9581 -100.781 -97.7916 73.67 -100.204 -98.3064 74.6453 
-99.8411 -99.2163 75.8038 -99.7399 -100.51 76.8092 -99.8001 -102.022 77.6377 
-99.7937 -103.656 78.4984 -99.7115 -105.27 79.2959 -99.6841 -106.757 79.882 
-102.505 -96.8621 73.7033 -101.692 -97.1424 74.4335 -102.615 -96.6708 75.2823 
-101.968 -96.9435 76.2042 -102.822 -96.4329 76.9075 -101.039 -97.5452 75.3882 
-102.269 -96.7665 77.9072 -103.177 -96.2327 78.4767 -101.412 -97.4578 77.2609 
-100.446 -98.2374 76.5323 -102.646 -96.8491 79.44 -103.748 -96.465 80.0137 
-101.723 -97.5367 78.8497 -100.721 -98.344 78.272 -99.9619 -99.2745 77.5825 
-103.222 -97.4426 80.8077 -104.441 -97.1583 81.2508 -102.13 -97.9678 80.2275 
-101.027 -98.6249 79.6817 -100.111 -99.4316 79.1371 -99.7754 -100.541 78.4343 
-103.883 -98.2239 81.8808 -105.112 -97.9475 82.1233 -102.712 -98.6418 81.4949 
-101.581 -99.0959 81.0379 -100.499 -99.7398 80.5818 -99.8431 -100.719 80.0542 
-99.742 -102.076 79.3389 -104.555 -98.9057 82.8556 -105.763 -98.7253 83.0081 
-103.311 -99.2449 82.6336 -102.203 -99.6047 82.3276 -101.205 -100.171 81.9316 
-100.296 -101.132 81.4832 -99.7701 -102.377 80.9702 -99.6715 -103.812 80.2273 
-105.265 -99.6159 83.8441 -106.378 -99.533 83.9432 -103.986 -99.8589 83.7015 
-102.755 -100.191 83.4732 -101.837 -100.719 83.0856 -101.076 -101.666 82.5297 
-100.33 -102.884 82.0202 -99.8319 -104.164 81.5517 -99.6709 -105.488 80.8291 
-105.921 -100.406 84.6058 -106.898 -100.304 84.6865 -104.764 -100.621 84.5191 
-103.464 -100.969 84.378 -102.388 -101.485 84.082 -101.73 -102.313 83.4832 
-101.187 -103.423 82.7314 -100.571 -104.599 82.2053 -100.068 -105.786 81.81 
-99.815 -106.988 81.1717 -103.485 -96.8143 72.7296 -103.529 -96.5532 74.1341 
-104.602 -96.7395 73.2283 -104.843 -96.3482 74.5881 -105.886 -96.802 73.7375 
-103.684 -96.3132 75.6956 -106.44 -96.2249 74.9813 -107.268 -96.924 74.1448 
-105.265 -95.9807 76.0498 -104.019 -96.036 77.2566 -107.919 -96.4015 75.3612 
-108.514 -97.2974 74.5781 -107.054 -95.8947 76.4137 -105.8 -95.8614 77.6237 
-104.559 -96.0169 78.9075 -109.07 -96.9842 75.7862 -109.561 -97.9675 75.0934 
-108.468 -96.2543 76.8186 -107.57 -96.0706 78.0864 -106.354 -96.2112 79.3862 
-105.225 -96.4964 80.4987 -110.102 -97.7409 76.2473 -110.439 -98.7904 75.5872 
-109.675 -96.8168 77.1946 -109.045 -96.4167 78.5162 -108.087 -96.5322 79.8735 
-106.924 -96.8026 80.9149 -105.888 -97.2356 81.6012 -110.92 -98.6793 76.7681 
-111.076 -99.7794 76.0561 -110.801 -97.539 77.597 -110.461 -96.8034 78.8009 
-109.737 -96.7047 80.1985 -108.671 -97.0168 81.2743 -107.503 -97.4859 81.9188 
-106.511 -98.0655 82.4337 -111.436 -99.8416 77.2763 -111.594 -100.836 76.4976 
-111.483 -98.6661 78.0436 -111.464 -97.6833 79.0288 -111.083 -97.2118 80.3084 
-110.285 -97.2753 81.4948 -109.192 -97.7392 82.2781 -108.051 -98.3652 82.8326 
-107.102 -98.966 83.3928 -111.989 -100.894 77.6104 -112.219 -101.697 76.8218 
-111.943 -99.9084 78.3638 -111.957 -98.9857 79.211 -111.793 -98.3581 80.3186 
[...]
CELL_DATA 2000
SCALARS Distance double
LOOKUP_TABLE default
176.35 175.317 175.685 175.342 174.159 174.56 174.179 174.593 174.203 
172.911 173.33 172.905 173.352 172.95 173.387 172.962 171.605 172.038 
171.592 172.039 171.613 172.077 171.657 172.106 171.686 170.278 170.71 
170.255 170.704 170.257 170.719 170.302 170.776 170.39 170.851 170.497 
168.983 169.384 168.925 169.365 168.911 169.355 168.941 169.426 169.094 
169.583 169.284 169.737 169.461 167.766 168.108 167.645 168.061 167.627 
168.037 167.616 168.075 167.767 168.3 168.063 168.558 168.303 168.753 
168.515 166.655 166.918 166.419 166.804 166.386 166.792 166.367 166.781 
166.426 166.953 166.721 167.298 167.068 167.577 167.32 167.807 167.596 
165.675 165.849 165.292 165.599 165.156 165.558 165.146 165.549 165.149 
165.612 165.318 165.9 165.686 166.276 166.046 166.58 166.362 166.89 
166.726 176.751 177.036 176.533 175.764 177.303 176.816 176.054 175.505 
174.657 177.537 177.061 176.295 175.775 174.908 174.339 173.421 177.76 
177.27 176.461 175.961 175.08 174.546 173.598 173.043 172.099 177.946 
177.469 176.627 176.109 175.218 174.689 173.762 173.205 172.246 171.695 
170.769 178.022 177.606 176.781 176.28 175.396 174.853 173.948 173.387 
172.459 171.875 170.931 170.375 169.483 177.998 177.637 176.856 176.417 
175.564 175.045 174.133 173.58 172.649 172.09 171.16 170.585 169.672 
169.126 168.284 177.903 177.587 176.828 176.458 175.643 175.188 174.289 
173.753 172.802 172.252 171.328 170.795 169.913 169.365 168.517 167.982 
167.202 177.734 177.457 176.69 176.377 175.567 175.202 174.344 173.885 
172.974 172.428 171.515 170.965 170.109 169.59 168.777 168.252 167.465 
166.95 166.229 177.382 176.405 176.695 176.281 175.237 175.576 175.089 
175.504 175.102 173.987 174.308 173.761 174.203 173.809 174.294 173.899 
172.893 173.119 172.599 172.919 172.55 172.998 172.664 173.081 172.614 
171.991 172.17 171.695 171.896 171.497 171.83 171.485 171.87 171.416 
171.743 171.19 171.043 171.279 170.748 170.984 170.463 170.773 170.297 
170.675 170.155 170.51 169.927 170.28 169.748 169.957 170.215 169.574 
169.87 169.248 169.605 169.037 169.419 168.828 169.186 168.558 168.944 
168.391 168.842 168.39 168.919 169.086 168.383 168.612 167.964 168.304 
167.754 168.132 167.541 167.856 167.175 167.52 166.916 167.401 166.946 
167.484 167.084 168.07 168.127 167.422 167.51 166.841 167.066 166.496 
166.845 166.235 166.554 165.798 166.105 165.399 165.866 165.387 165.983 
165.635 166.198 165.859 165.064 164.773 164.542 163.789 164.417 164.152 
163.34 163.208 162.458 164.276 163.773 162.816 162.65 161.882 161.823 
161.028 164.606 163.789 162.618 162.148 161.316 161.217 160.504 160.375 
159.562 165.152 164.279 163.035 162.191 161.238 160.833 160.235 160.006 
159.356 159.041 158.384 165.597 164.863 163.797 162.843 161.877 161.116 
160.534 160.059 159.57 159.096 158.526 158.129 157.73 166.074 165.399 
164.594 163.726 162.903 162.008 161.393 160.681 160.194 159.559 159.006 
158.447 157.994 157.675 157.464 166.732 166.053 165.413 164.629 163.948 
163.09 162.463 161.662 161.111 160.356 159.777 159.063 158.549 158.04 
157.763 157.506 157.424 167.437 166.804 166.225 165.513 164.885 164.104 
163.464 162.681 162.092 161.324 160.772 159.981 159.489 158.772 158.464 
157.964 157.868 157.585 157.628 164.969 163.733 164.391 164.541 162.431 
163.126 163.272 164.029 164.338 160.983 161.751 161.892 162.719 163.037 
163.899 164.306 159.451 160.219 160.391 161.295 161.67 162.585 163.034 
163.893 164.333 158.226 158.772 158.978 159.829 160.324 161.26 161.802 
162.661 163.164 163.976 164.498 157.585 157.825 157.99 158.597 159.127 
160.003 160.647 161.51 162.083 162.878 163.452 164.259 164.864 157.348 
157.413 157.476 157.813 158.203 158.91 159.551 160.412 161.065 161.874 
162.495 163.278 163.913 164.692 165.283 157.321 157.287 157.302 157.426 
157.674 158.115 158.668 159.398 160.1 160.906 161.6 162.38 163.048 
163.799 164.424 165.128 165.673 157.536 157.389 157.455 157.401 157.645 
157.793 158.293 158.727 159.415 160.058 160.785 161.519 162.221 162.97 
163.627 164.329 164.917 165.556 166.079 157.784 158.354 157.924 157.741 
159.135 158.647 158.506 158.03 157.986 159.978 159.499 159.462 158.958 
158.952 158.457 158.614 161.03 160.433 160.447 159.956 160.008 159.509 
159.629 159.229 159.596 162.4 161.661 161.654 161.037 161.094 160.557 
160.653 160.224 160.505 160.277 160.822 163.801 163.085 163.056 162.364 
162.391 161.738 161.817 161.269 161.514 161.18 161.683 161.554 162.219 
165.119 164.437 164.401 163.737 163.737 163.083 163.152 162.539 162.763 
162.287 162.745 162.476 163.113 162.984 163.643 166.456 165.767 165.735 
165.051 165.037 164.387 164.455 163.874 164.095 163.598 163.991 163.615 
164.161 163.928 164.538 164.381 164.952 167.708 167.088 167.062 166.398 
166.384 165.706 165.768 165.166 165.388 164.898 165.26 164.851 165.302 
164.989 165.509 165.291 165.823 165.64 166.129 158.036 158.76 158.404 
158.582 159.747 159.246 159.343 159.035 159.295 160.892 160.314 160.373 
159.903 160.082 159.782 160.101 162.115 161.508 161.607 161.05 161.253 
160.755 161.065 160.712 161.185 163.406 162.775 162.905 162.344 162.629 
162.094 162.476 161.945 162.411 162.004 162.587 164.729 164.1 164.222 
163.658 163.967 163.498 163.953 163.465 163.923 163.4 163.862 163.456 
163.985 166.014 165.425 165.567 164.993 165.286 164.824 165.29 164.887 
165.365 164.888 165.28 164.776 165.184 164.798 165.297 167.234 166.699 
166.874 166.331 166.607 166.137 166.562 166.177 166.66 166.25 166.668 
166.174 166.557 166.071 166.517 166.13 166.641 168.365 167.893 168.071 
167.587 167.833 167.396 167.76 167.397 167.844 167.492 167.935 167.521 
167.934 167.463 167.877 167.418 167.854 167.463 167.899 167.621 167.467 
167.184 166.42 167.254 166.975 166.175 165.903 165.08 167.096 166.763 
165.936 165.627 164.775 164.501 163.665 167.084 166.678 165.866 165.457 
164.595 164.222 163.375 163.093 162.302 167.184 166.74 165.958 165.49 
164.646 164.16 163.313 162.901 162.118 161.802 161.04 167.343 166.881 
166.118 165.639 164.827 164.302 163.469 162.967 162.205 161.769 161.028 
160.615 159.856 167.581 167.087 166.364 165.857 165.103 164.552 163.757 
163.199 162.452 161.961 161.263 160.767 160.031 159.532 158.858 167.925 
167.402 166.735 166.19 165.507 164.927 164.198 163.579 162.845 162.276 
161.604 161.082 160.412 159.857 159.199 158.699 158.21 168.328 167.814 
167.192 166.635 165.991 165.408 164.734 164.104 163.405 162.766 162.107 
161.514 160.907 160.326 159.744 159.172 158.689 158.227 157.929 168.347 
169.413 168.669 168.227 170.543 169.767 169.342 168.545 168.064 171.745 
170.935 170.531 169.714 169.253 168.399 167.922 172.962 172.151 171.74 
170.93 170.5 169.641 169.168 168.303 167.883 174.119 173.353 172.945 
172.143 171.73 170.897 170.455 169.585 169.156 168.318 167.964 175.187 
174.489 174.135 173.359 172.962 172.135 171.709 170.861 170.443 169.608 
169.236 168.43 168.112 176.17 175.534 175.224 174.523 174.159 173.374 
172.953 172.113 171.681 170.859 170.475 169.688 169.357 168.587 168.312 
177.107 176.501 176.196 175.556 175.212 174.516 174.128 173.349 172.92 
172.092 171.68 170.886 170.546 169.803 169.53 168.809 168.6 178.014 
177.431 177.138 176.509 176.169 175.512 175.153 174.465 174.091 173.326 
172.927 172.11 171.743 170.974 170.696 169.996 169.789 169.115 168.953 
178.421 178.732 178.252 177.553 178.957 178.525 177.797 177.305 176.55 
179.127 178.709 177.974 177.493 176.687 176.236 175.497 179.321 178.875 
178.119 177.635 176.819 176.351 175.588 175.184 174.467 179.449 179.033 
178.244 177.776 176.963 176.489 175.721 175.287 174.546 174.129 173.354 
179.473 179.093 178.324 177.89 177.102 176.642 175.861 175.414 174.634 
174.199 173.388 172.96 172.166 179.548 179.149 178.454 178.009 177.272 
176.798 176.015 175.538 174.717 174.26 173.427 172.989 172.194 171.798 
171.098 179.63 179.278 178.624 178.199 177.479 176.997 176.203 175.695 
174.851 174.35 173.509 173.043 172.264 171.851 171.164 170.806 170.197 
179.474 179.276 178.617 178.316 177.578 177.165 176.341 175.861 175.012 
174.51 173.685 173.185 172.412 171.957 171.265 170.885 170.27 169.939 
169.369 179.024 178.03 178.452 178.243 177.11 177.476 177.252 177.598 
177.233 176.26 176.579 176.248 176.557 176.127 176.458 175.979 175.237 
175.631 175.22 175.519 175.013 175.313 174.819 175.154 174.667 173.943 
174.435 174.009 174.4 173.895 174.209 173.715 174.024 173.557 173.864 
173.383 172.521 173.047 172.637 173.106 172.649 173.047 172.571 172.925 
172.44 172.763 172.263 172.577 172.105 171.113 171.629 171.269 171.749 
171.343 171.774 171.316 171.716 171.214 171.585 171.056 171.412 170.929 
171.308 170.924 169.807 170.277 169.956 170.43 170.061 170.494 170.054 
170.446 169.956 170.324 169.813 170.174 169.707 170.105 169.746 170.185 
169.912 168.639 169.035 168.685 169.135 168.763 169.215 168.8 169.207 
168.755 169.112 168.645 168.978 168.541 168.909 168.566 169.005 168.756 
169.225 169.012 179.299 179.251 178.898 178.2 179.204 178.791 178.047 
177.811 177.274 179.344 178.84 178.094 177.715 177.175 176.97 176.488 
179.658 179.165 178.493 177.927 177.272 176.899 176.342 176.135 175.514 
179.806 179.529 178.928 178.385 177.541 176.993 176.187 175.909 175.216 
175.027 174.258 179.467 179.481 178.884 178.607 177.608 177.085 175.982 
175.632 174.784 174.646 173.884 173.684 172.842 178.762 178.896 178.284 
178.258 177.279 176.906 175.685 175.284 174.288 174.139 173.365 173.248 
172.419 172.213 171.375 178.065 178.115 177.497 177.533 176.72 176.493 
175.424 174.988 173.965 173.666 172.861 172.71 171.92 171.747 170.921 
170.755 170.023 177.552 177.479 176.836 176.804 176.111 175.991 175.154 
174.814 173.886 173.472 172.621 172.309 171.526 171.289 170.517 170.323 
169.622 169.487 168.875 180.016 181.232 180.504 180.14 182.361 181.795 
181.578 180.652 180.177 183.23 182.846 182.792 182.09 181.659 180.672 
180.204 183.99 183.614 183.553 183.114 182.789 182.036 181.48 180.636 
180.269 184.651 184.29 184.072 183.71 183.422 182.939 182.459 181.753 
181.221 180.582 180.247 184.902 184.731 184.429 184.13 183.793 183.446 
183.08 182.576 182.075 181.426 180.896 180.356 179.901 184.809 184.76 
184.498 184.337 184.001 183.755 183.411 183.084 182.66 182.155 181.575 
180.965 180.351 179.827 179.259 184.778 184.67 184.447 184.325 184.035 
183.872 183.524 183.31 182.881 182.559 181.987 181.508 180.843 180.296 
179.675 179.162 178.616 184.873 184.728 184.502 184.33 184.044 183.872 
183.531 183.346 182.918 182.667 182.106 181.749 181.099 180.672 180.054 
179.604 179.072 178.597 178.119 184.833 184.569 184.649 184.463 184.153 
184.317 184.129 184.194 183.947 183.565 183.823 183.644 183.785 183.523 
183.62 183.375 182.786 183.153 183.031 183.263 183.044 183.162 182.88 
182.996 182.722 181.834 182.294 182.219 182.589 182.431 182.653 182.348 
182.456 182.058 182.209 181.844 180.777 181.278 181.168 181.649 181.479 
181.89 181.567 181.803 181.293 181.441 180.931 181.183 180.796 179.673 
180.178 180.011 180.5 180.274 180.771 180.45 180.836 180.323 180.545 
179.972 180.211 179.795 180.128 179.813 178.551 179.048 178.864 179.322 
179.072 179.534 179.244 179.664 179.241 179.514 178.988 179.224 178.818 
179.151 178.891 179.22 178.931 177.441 177.923 177.742 178.185 177.934 
178.363 178.092 178.511 178.173 178.483 178.029 178.26 177.85 178.172 
177.922 178.308 178.074 178.366 178.03 176.774 175.787 176.554 177.04 
174.651 175.486 175.97 176.757 177.208 173.409 174.281 174.757 175.611 
176.087 176.897 177.352 172.147 173.013 173.492 174.364 174.85 175.72 
176.203 177.025 177.427 170.954 171.769 172.25 173.108 173.589 174.46 
174.924 175.798 176.2 177.008 177.299 169.89 170.623 171.07 171.883 
172.345 173.194 173.637 174.496 174.907 175.737 176.1 176.854 177.174 
168.944 169.611 170.021 170.747 171.181 171.967 172.425 173.247 173.716 
174.517 174.975 175.728 176.179 176.872 177.297 168.052 168.692 169.094 
169.756 170.169 170.868 171.33 172.102 172.633 173.426 173.955 174.704 
175.197 175.92 176.383 177.068 177.458 167.184 167.805 168.196 168.846 
169.243 169.905 170.335 171.062 171.572 172.372 172.9 173.69 174.151 
174.909 175.315 176.066 176.426 177.133 177.413 177.109 176.101 176.504 
176.305 174.986 175.412 175.168 175.657 175.495 173.815 174.243 173.926 
174.425 174.211 174.792 174.571 172.57 173.024 172.628 173.103 172.791 
173.401 173.167 173.756 173.41 171.262 171.732 171.326 171.768 171.37 
171.918 171.629 172.267 171.964 172.518 172.141 170.014 170.431 170.036 
170.461 170.051 170.518 170.167 170.73 170.424 171.019 170.688 171.256 
170.953 168.887 169.228 168.785 169.176 168.745 169.195 168.8 169.305 
168.948 169.504 169.188 169.777 169.51 170.118 169.92 167.826 168.12 
167.62 167.944 167.456 167.865 167.423 167.907 167.495 168.031 167.682 
168.283 168.047 168.686 168.537 169.163 169.06 166.821 167.072 166.562 
166.817 166.296 166.61 166.137 166.541 166.115 166.586 166.221 166.782 
166.55 167.214 167.109 167.793 167.731 168.372 168.322 178.443 178.629 
178.891 179.592 178.743 179.058 179.798 180.069 180.782 178.79 179.15 
179.925 180.258 181.045 181.297 182.014 178.724 179.151 179.94 180.354 
181.217 181.575 182.408 182.594 183.244 178.507 178.994 179.75 180.268 
181.137 181.671 182.582 182.959 183.639 183.737 184.119 178.23 178.71 
179.406 179.958 180.751 181.411 182.292 182.927 183.616 183.95 184.246 
184.317 184.44 177.979 178.43 179.094 179.589 180.304 180.914 181.695 
182.412 183.1 183.669 184.013 184.257 184.349 184.461 184.595 177.723 
178.178 178.84 179.304 179.981 180.485 181.169 181.768 182.413 183.028 
183.485 183.902 184.118 184.322 184.475 184.635 184.831 177.429 177.898 
178.538 179.024 179.662 180.154 180.765 181.275 181.844 182.383 182.865 
183.353 183.685 184.034 184.243 184.48 184.642 184.833 184.944 178.537 
179.703 179.097 179.052 180.906 180.304 180.285 179.64 179.545 182.102 
181.51 181.516 180.893 180.804 180.102 179.849 183.248 182.687 182.659 
182.081 181.989 181.335 181.064 180.28 179.817 184.108 183.73 183.674 
183.165 183.026 182.428 182.142 181.431 180.975 180.144 179.618 184.529 
184.394 184.42 184.077 183.946 183.404 183.112 182.448 182.043 181.281 
180.815 179.982 179.537 184.778 184.734 184.874 184.695 184.641 184.235 
183.987 183.406 183.075 182.376 181.991 181.191 180.756 179.935 179.506 
185.014 185.001 185.146 185.063 185.017 184.773 184.54 184.16 183.885 
183.382 183.061 182.369 181.918 181.105 180.585 179.808 179.324 185.079 
185.151 185.216 185.224 185.115 184.991 184.709 184.502 184.204 183.969 
183.666 183.262 182.791 182.139 181.522 180.782 180.193 179.512 179.024 
177.877 178.375 177.759 176.974 178.842 178.259 177.495 176.825 175.918 
179.069 178.618 177.855 177.314 176.432 175.705 174.703 178.954 178.638 
177.834 177.501 176.664 176.136 175.142 174.436 173.493 178.742 178.407 
177.58 177.323 176.567 176.24 175.366 174.797 173.841 173.244 172.464 
178.705 178.274 177.469 177.111 176.437 176.149 175.472 175.015 174.164 
173.559 172.723 172.225 171.516 178.731 178.326 177.555 177.128 176.459 
176.127 175.547 175.179 174.46 173.901 173.045 172.472 171.689 171.231 
170.5 178.612 178.32 177.588 177.227 176.527 176.187 175.558 175.252 
174.572 174.147 173.31 172.766 171.916 171.412 170.664 170.209 169.499 
178.378 178.154 177.466 177.191 176.502 176.199 175.519 175.22 174.518 
174.177 173.388 172.946 172.114 171.628 170.867 170.407 169.728 169.275 
168.638 180.101 180.265 180.536 181.181 180.209 180.574 181.22 181.555 
182.173 180.2 180.537 181.216 181.535 182.174 182.477 183.048 180.188 
180.56 181.267 181.587 182.272 182.541 183.212 183.416 183.973 179.977 
180.428 181.07 181.537 182.211 182.626 183.32 183.636 184.261 184.393 
184.772 179.72 180.123 180.688 181.183 181.817 182.377 183.033 183.559 
184.132 184.517 184.864 184.986 185.036 179.565 179.91 180.501 180.876 
181.554 182 182.675 183.148 183.691 184.149 184.5 184.831 184.939 
185.022 184.938 179.369 179.77 180.423 180.809 181.567 181.937 182.669 
182.962 183.503 183.76 184.148 184.43 184.701 184.88 184.985 184.96 
184.94 179.049 179.516 180.172 180.678 181.438 181.941 182.677 183.035 
183.553 183.73 184.078 184.239 184.573 184.753 185.013 185.066 185.161 
185.06 185.043 
POINT_DATA 1002
SCALARS Distance double
LOOKUP_TABLE default
176.057 176.971 176.025 174.976 174.953 174.997 173.754 173.771 173.809 
173.806 172.469 172.495 172.496 172.548 172.536 171.153 171.17 171.156 
171.191 171.236 171.289 169.809 169.856 169.807 169.813 169.906 170.03 
170.175 168.488 168.606 168.481 168.449 168.563 168.816 169.011 169.202 
167.232 167.462 167.218 167.185 167.216 167.526 167.853 168.049 168.296 
166.061 166.442 165.965 165.976 165.944 166.122 166.523 166.834 167.079 
167.416 165.044 165.54 164.771 164.735 164.731 164.775 165.064 165.479 
165.83 166.18 166.584 177.261 176.316 177.533 176.601 177.779 175.247 
176.807 178.028 175.48 174 176.979 178.275 175.601 174.161 172.635 
177.157 178.41 175.748 174.307 172.821 171.283 177.253 178.406 175.937 
174.505 173.035 171.523 169.989 177.255 178.336 176.062 174.696 173.201 
171.714 170.247 168.785 177.172 178.202 176.059 174.809 173.364 171.845 
170.427 169.068 167.703 176.999 178.004 175.901 174.741 173.484 172.076 
170.626 169.278 167.988 166.707 177.144 175.945 176.128 174.656 174.93 
174.667 173.341 173.692 173.288 173.475 172.328 172.662 172.13 172.234 
172.285 171.526 171.79 171.236 171.129 171.094 170.872 170.527 170.817 
170.197 169.961 169.807 169.569 169.345 169.306 169.751 168.892 168.661 
168.495 168.187 167.923 167.907 168.204 168.804 167.642 167.362 167.244 
166.889 166.452 166.375 166.559 167.377 168.033 166.687 166.197 165.933 
165.532 164.976 164.772 165.016 165.33 164.323 163.975 163.07 163.466 
162.583 161.726 163.083 161.904 161.165 160.198 163.313 161.463 160.587 
159.766 158.725 163.995 161.802 160.455 159.671 158.636 157.795 164.663 
162.736 161.096 160.057 158.988 157.96 157.441 165.341 163.782 162.194 
160.894 159.637 158.398 157.629 157.328 166.135 164.767 163.298 161.901 
160.543 159.157 158.096 157.567 157.383 166.902 165.639 164.251 162.847 
161.531 160.247 159.067 158.233 157.809 157.697 163.809 162.502 163.509 
161.03 162.149 163.456 159.435 160.712 162.154 163.498 158.162 159.345 
160.921 162.337 163.663 157.524 158.293 159.751 161.278 162.642 164.058 
157.28 157.63 158.695 160.216 161.71 163.14 164.546 157.258 157.372 
158.026 159.291 160.801 162.295 163.717 165.014 157.532 157.58 157.988 
158.87 160.09 161.469 162.907 164.264 165.479 158.129 158.118 158.821 
159.008 159.582 158.397 159.911 160.446 159.473 158.992 160.947 161.7 
160.488 160.068 159.832 162.339 163.163 161.68 161.119 160.776 160.913 
163.755 164.489 163.078 162.419 161.916 161.855 162.287 165.07 165.802 
164.382 163.756 163.285 163.093 163.29 163.766 166.433 167.136 165.706 
165.026 164.585 164.419 164.465 164.733 165.119 167.697 168.292 167.058 
166.389 165.89 165.693 165.672 165.773 166.025 166.327 158.285 158.802 
159.195 159.744 160.306 159.488 160.898 161.475 160.483 160.281 162.154 
162.719 161.775 161.507 161.414 163.456 164.046 163.108 163.007 162.921 
162.902 164.799 165.342 164.412 164.384 164.472 164.381 164.305 166.135 
166.566 165.77 165.68 165.811 165.815 165.647 165.604 167.398 167.74 
167.09 166.964 167.045 167.127 167.064 166.964 166.987 168.542 168.815 
168.275 168.136 168.184 168.306 168.376 168.364 168.306 168.27 167.931 
166.72 167.752 166.456 167.555 165.353 166.281 167.456 165.074 163.902 
166.3 167.499 165.02 163.695 162.533 166.423 167.633 165.154 163.768 
162.479 161.347 166.59 167.81 165.344 163.986 162.657 161.485 160.257 
166.865 168.071 165.639 164.33 162.958 161.745 160.563 159.277 167.274 
168.432 166.068 164.815 163.452 162.128 160.942 159.733 158.591 169.08 
168.999 170.162 170.143 171.326 168.886 171.34 172.573 170.115 168.76 
172.544 173.773 171.339 170.05 168.697 173.744 174.845 172.55 171.306 
170.012 168.762 174.881 175.837 173.786 172.554 171.27 170.052 168.897 
175.889 176.788 174.908 173.788 172.52 171.257 170.119 169.057 176.828 
177.707 175.874 174.858 173.742 172.501 171.286 170.236 169.301 177.762 