# vtk DataFile Version 4.0
vtk output
ASCII
DATASET POLYDATA
POINTS 1002 float
-106.248 -120.53 69.1225 -107.074 -121.388 68.6866 -106.466 -121.125 67.9838 
-105.6 -120.126 68.424 -105.905 -120.611 67.0462 -105.514 -119.373 69.5012 
-105.095 -119.453 67.5175 -105.428 -119.826 66.1262 -104.88 -118.8 68.7853 
-104.813 -118.006 69.9763 -104.696 -118.525 66.6572 -104.997 -118.859 65.4136 
-104.441 -117.964 67.9364 -104.167 -117.294 69.271 -103.972 -116.703 70.6854 
-104.176 -117.447 65.8963 -104.54 -117.745 64.7754 -103.982 -116.884 67.1643 
-103.654 -116.302 68.4916 -103.265 -115.88 70.0025 -103.003 -115.509 71.4286 
-103.492 -116.257 65.1206 -104.088 -116.427 64.1942 -103.192 -115.779 66.4156 
-102.891 -115.229 67.7774 -102.495 -114.894 69.2215 -102.16 -114.644 70.7197 
-102.01 -114.258 71.9499 -102.809 -115.006 64.4815 -103.641 -115.08 63.819 
-102.253 -114.784 65.6374 -101.805 -114.431 67.0513 -101.392 -114.154 68.4519 
-101.113 -113.91 69.9101 -100.998 -113.516 71.2501 -101.093 -113.024 72.3315 
-102.131 -113.895 64.0419 -103.126 -113.954 63.557 -101.429 -113.832 64.966 
-100.879 -113.727 66.2983 -100.353 -113.596 67.6668 -100.047 -113.371 69.0734 
-99.96 -112.97 70.5089 -100.062 -112.448 71.7118 -100.382 -111.954 72.7169 
-101.492 -112.915 63.6654 -102.617 -112.938 63.309 -100.729 -112.838 64.4072 
-100.261 -112.739 65.616 -99.7725 -112.641 66.9094 -99.4235 -112.45 68.1753 
-99.3301 -112.135 69.6182 -99.3203 -111.762 71.0245 -99.4939 -111.35 72.1403 
-99.8881 -110.931 73.0961 -101.064 -111.853 63.3853 -102.239 -111.847 63.1464 
-100.235 -111.73 63.9742 -99.815 -111.508 65.0666 -99.4278 -111.3 66.3071 
-99.0806 -111.059 67.3742 -99.0561 -110.746 68.5508 -99.1048 -110.51 70.007 
-99.063 -110.355 71.3852 -99.1966 -110.131 72.4819 -99.5492 -109.813 73.4214 
-107.579 -122.011 67.7026 -107.038 -121.676 66.7462 -108.129 -122.595 66.4479 
-107.674 -122.163 65.3703 -108.709 -123.084 65.1211 -106.489 -121.063 65.6975 
-108.326 -122.548 64.1236 -109.464 -123.4 63.8325 -107.19 -121.446 64.4345 
-106.003 -120.169 64.9006 -109.085 -122.728 62.9521 -110.44 -123.493 62.6055 
-107.936 -121.689 63.3642 -106.801 -120.419 63.8453 -105.622 -119.078 64.3745 
-110.019 -122.551 61.8629 -111.436 -123.18 61.6471 -108.743 -121.629 62.2806 
-107.628 -120.485 62.8217 -106.493 -119.167 63.4167 -105.277 -117.794 63.8953 
-111.037 -121.896 61.1052 -112.309 -122.366 61.0304 -109.741 -121.172 61.3548 
-108.455 -120.24 61.7864 -107.254 -119.114 62.3516 -106.109 -117.781 62.9912 
-104.929 -116.356 63.5046 -111.964 -121.009 60.5247 -113.096 -121.438 60.4362 
-110.832 -120.459 60.7188 -109.49 -119.731 61.0299 -108.025 -118.843 61.3926 
-106.743 -117.754 61.9187 -105.69 -116.394 62.6397 -104.543 -115.014 63.249 
-112.732 -120.302 59.8137 -113.84 -120.777 59.6662 -111.689 -119.792 60.0313 
-110.487 -119.183 60.3342 -109.023 -118.423 60.6681 -107.52 -117.555 61.0153 
-106.302 -116.437 61.601 -105.307 -115.059 62.4165 -104.103 -113.816 63.0482 
-113.397 -119.806 59.0887 -114.509 -120.32 58.8935 -112.277 -119.249 59.258 
-111.092 -118.695 59.422 -109.837 -118.029 59.7821 -108.505 -117.237 60.2845 
-107.144 -116.284 60.8131 -105.976 -115.029 61.5305 -104.936 -113.67 62.3649 
-103.677 -112.597 62.9328 -114.398 -119.475 58.4774 -113.149 -118.806 58.6669 
-114.137 -118.24 58.3737 -112.609 -117.523 58.2043 -113.628 -116.763 58.128 
-111.723 -118.206 58.5642 -111.842 -116.184 57.5185 -112.896 -115.326 57.5406 
-110.895 -117.025 57.7541 -110.354 -117.654 58.6181 -111.094 -114.778 57.0454 
-112.129 -113.884 57.2767 -110.163 -115.725 57.269 -109.643 -116.485 58.0988 
-109.257 -116.924 59.3038 -110.557 -113.158 57.3446 -111.54 -112.471 57.8374 
-109.7 -114.058 57.4629 -109.195 -114.941 58.2495 -108.815 -115.542 59.3432 
-108.09 -115.933 60.2115 -110.243 -111.708 58.312 -111.155 -111.289 58.8367 
-109.369 -112.318 58.192 -108.781 -113.072 58.7201 -108.323 -113.746 59.6788 
-107.609 -114.22 60.4968 -106.702 -114.643 60.9988 -109.986 -110.513 59.4526 
-110.795 -110.13 59.7743 -109.067 -110.959 59.2623 -108.284 -111.48 59.3961 
-107.65 -112.02 59.9851 -106.921 -112.407 60.7796 -106.112 -112.72 61.3964 
-105.446 -113.172 61.8553 -109.572 -109.157 60.3926 -110.303 -108.788 60.5583 
-108.683 -109.575 60.3103 -107.787 -110.019 60.3166 -106.963 -110.519 60.5204 
-106.141 -110.923 61.0177 -105.366 -111.097 61.6756 -104.758 -111.35 62.2277 
-104.237 -111.92 62.6131 -108.97 -107.7 61.1058 -109.694 -107.479 61.2795 
-108.125 -107.977 61.0196 -107.226 -108.284 61.0249 -106.289 -108.733 61.1017 
-105.323 -109.333 61.2707 -104.468 -109.764 61.668 -103.866 -109.97 62.2512 
-103.39 -110.355 62.7279 -102.837 -111.069 62.9801 -101.211 -110.643 63.1716 
-101.757 -109.796 62.9639 -100.337 -109.264 63.2871 -102.22 -109.14 62.521 
-100.685 -108.496 62.798 -99.6113 -107.858 63.4713 -102.638 -108.689 61.8649 
-100.983 -107.822 62.006 -99.8062 -107.112 62.6764 -98.8859 -106.43 63.5982 
-103.337 -108.072 61.4421 -101.413 -107.003 61.3427 -100.144 -106.212 61.8237 
-99.191 -105.492 62.8826 -98.2041 -104.753 63.7218 -104.434 -107.257 61.4091 
-102.323 -106.014 61.3354 -100.796 -105.158 61.5123 -99.8476 -104.411 62.374 
-98.7976 -103.657 63.3791 -97.9504 -103.003 64.115 -105.633 -106.722 61.4412 
-103.685 -105.365 61.6671 -101.934 -104.423 61.898 -100.805 -103.529 62.3169 
-99.7852 -102.598 63.0364 -98.7945 -101.958 63.9094 -98.3778 -101.643 64.8289 
-106.692 -106.554 61.4713 -105.053 -105.243 61.8876 -103.405 -104.211 62.3862 
-102.073 -103.124 62.6807 -100.97 -101.849 62.8242 -99.9211 -100.898 63.4087 
-99.2788 -100.573 64.4467 -99.1218 -100.566 65.5756 -107.647 -106.467 61.6267 
-106.206 -105.273 62.1051 -104.801 -104.151 62.6585 -103.508 -102.897 63.0557 
-102.309 -101.443 63.0283 -101.168 -100.164 63.1323 -100.296 -99.4843 63.899 
-99.857 -99.3665 65.0279 -99.6403 -99.4461 66.1493 -108.543 -106.367 61.8602 
-107.251 -105.245 62.3922 -106.003 -104.042 62.8507 -104.849 -102.651 63.2055 
-103.693 -101.189 63.3443 -102.51 -99.9096 63.426 -101.458 -98.976 63.8377 
-100.71 -98.4668 64.6289 -100.23 -98.3243 65.5978 -99.8818 -98.3642 66.6284 
-100.178 -110.509 63.5616 -99.5624 -108.935 64.0047 -99.5888 -110.216 64.4728 
-98.8957 -107.454 64.388 -98.9875 -108.625 65.1352 -99.1587 -109.925 65.7418 
-98.0516 -105.922 64.3919 -98.1269 -107.245 65.4358 -98.3047 -108.488 66.3053 
-98.6774 -109.677 66.8177 -97.533 -104.047 64.4702 -97.4319 -105.545 65.4605 
-97.508 -107.141 66.6019 -97.9437 -108.24 67.2035 -98.6232 -109.294 67.7075 
-97.7749 -102.371 65.1805 -97.4103 -103.464 66.0002 -97.3006 -105.189 67.1679 
-97.6277 -106.715 67.7987 -98.3801 -107.687 68.1286 -98.9506 -108.927 68.9483 
-98.5078 -101.278 66.1784 -97.8686 -101.912 67.0177 -97.4554 -103.089 68.1393 
-97.6218 -104.731 68.7983 -98.3185 -106.06 68.9218 -98.9114 -107.259 69.4612 
-99.0353 -108.822 70.5059 -99.1476 -100.281 66.9189 -98.455 -100.927 67.8071 
-97.7446 -101.674 68.8438 -97.5943 -102.918 69.5917 -98.1831 -104.355 69.7998 
-98.8381 -105.69 70.147 -99.0094 -107.191 71.0213 -98.9778 -108.814 71.9242 
-99.4756 -99.1308 67.4224 -98.9801 -99.9099 68.2755 -98.3275 -100.658 69.1494 
-97.8929 -101.624 69.889 -98.1297 -102.881 70.3372 -98.7447 -104.231 70.788 
-99.0568 -105.669 71.5722 -99.0408 -107.23 72.4493 -99.1469 -108.685 73.0687 
-99.8612 -97.8297 67.7185 -99.501 -98.5758 68.5862 -100.117 -97.4631 69.1092 
-99.8763 -98.2521 69.9572 -100.701 -97.3791 70.5931 -99.1659 -99.4433 69.4018 
-100.454 -98.2519 71.4324 -101.336 -97.4729 71.9941 -99.7225 -99.2135 70.7267 
-98.7555 -100.399 70.1327 -100.95 -98.3662 72.9163 -101.952 -97.5934 73.4324 
-100.196 -99.2234 72.3416 -99.4252 -100.259 71.5392 -98.5697 -101.549 70.7923 
-101.594 -98.5207 74.2899 -102.648 -97.8506 74.8345 -100.562 -99.3552 73.8761 
-99.78 -100.26 73.3595 -99.2237 -101.491 72.4281 -98.851 -102.904 71.4813 
-102.382 -98.928 75.5097 -103.279 -98.4063 76.0075 -101.323 -99.6952 75.0378 
-100.246 -100.527 74.7446 -99.6066 -101.61 74.2019 -99.3622 -103.017 73.2542 
-99.1936 -104.409 72.3224 -102.965 -99.5235 76.7152 -103.853 -99.0951 77.0409 
-102.14 -100.225 76.2208 -101.181 -101.052 75.7302 -100.318 -102.031 75.2792 
-99.8361 -103.314 74.6842 -99.5491 -104.703 73.9422 -99.257 -106.002 73.1776 
-103.519 -100.069 77.7921 -104.575 -99.7152 77.9458 -102.66 -100.71 77.4991 
-101.956 -101.565 76.9516 -101.284 -102.551 76.2316 -100.641 -103.734 75.5826 
-100.08 -105.04 75.0692 -99.631 -106.301 74.5116 -99.3183 -107.521 73.8103 
-104.311 -100.648 78.5167 -105.394 -100.342 78.6253 -103.284 -101.218 78.3904 
-102.492 -102.032 78.0692 -101.967 -103.015 77.3924 -101.497 -104.145 76.5662 
-100.876 -105.364 75.949 -100.236 -106.55 75.5012 -99.8275 -107.69 74.9348 
-99.6442 -108.804 74.1908 -100.43 -97.4924 66.5386 -100.618 -97.0509 67.8116 
-101.495 -97.0898 66.6793 -101.995 -96.7141 68.1197 -103.003 -97.0622 67.0954 
-101.153 -96.8039 69.4122 -103.613 -96.6442 68.6198 -104.509 -97.0969 67.6405 
-102.685 -96.4646 69.7959 -101.875 -96.763 70.9416 -105.105 -96.6378 69.1036 
-105.917 -97.2089 68.1178 -104.232 -96.3277 70.203 -103.351 -96.415 71.264 
-102.532 -96.8831 72.3788 -106.694 -96.7791 69.3765 -107.35 -97.5958 68.4608 
-105.828 -96.2838 70.5046 -104.91 -96.3032 71.6193 -103.988 -96.6519 72.787 
-103.172 -97.1336 73.9714 -108.202 -97.2594 69.5297 -108.583 -98.2104 68.7655 
-107.569 -96.4948 70.6543 -106.689 -96.313 72.0028 -105.696 -96.6251 73.2818 
-104.669 -97.0357 74.4484 -103.82 -97.5838 75.3867 -109.217 -98.059 69.8052 
-109.526 -98.9079 69.1311 -108.842 -97.2337 70.8161 -108.245 -96.7531 72.2998 
-107.43 -96.7624 73.7876 -106.421 -97.0515 74.8891 -105.34 -97.5546 75.7412 
-104.459 -98.286 76.4576 -110.018 -98.9446 70.2111 -110.391 -99.6454 69.5057 
-109.647 -98.2674 71.1377 -109.213 -97.7262 72.509 -108.675 -97.4252 74.054 
-107.966 -97.3704 75.2288 -107.028 -97.6762 76.0391 -106.032 -98.3399 76.7764 
-105.207 -99.0671 77.4398 -110.902 -99.7574 70.551 -111.23 -100.403 69.7893 
-110.523 -99.1694 71.494 -110.099 -98.6851 72.7215 -109.646 -98.3422 74.1041 
[...]
CELL_DATA 2000
SCALARS Distance double
LOOKUP_TABLE default
174.251 173.306 173.627 173.231 172.181 172.582 172.185 172.513 172.075 
170.976 171.404 171.01 171.389 170.938 171.296 170.891 169.691 170.143 
169.709 170.147 169.668 170.08 169.644 170.098 169.754 168.277 168.747 
168.231 168.741 168.219 168.707 168.228 168.753 168.38 168.927 168.579 
166.849 167.255 166.688 167.194 166.686 167.201 166.737 167.276 166.908 
167.486 167.156 167.701 167.35 165.553 165.847 165.255 165.69 165.242 
165.731 165.345 165.836 165.515 166.048 165.777 166.306 166.02 166.518 
166.255 164.383 164.596 163.958 164.323 163.883 164.366 164.016 164.506 
164.176 164.694 164.426 164.977 164.742 165.256 165.032 165.532 165.358 
163.3 163.456 162.776 163.065 162.584 163.036 162.673 163.17 162.786 
163.302 162.953 163.559 163.313 163.945 163.743 164.316 164.137 164.68 
164.537 174.678 174.97 174.487 173.739 175.195 174.73 173.946 173.438 
172.603 175.404 174.937 174.161 173.635 172.772 172.249 171.399 175.611 
175.136 174.367 173.859 173.017 172.456 171.579 171.045 170.169 175.736 
175.295 174.471 174.018 173.18 172.687 171.812 171.264 170.35 169.79 
168.841 175.657 175.316 174.461 174.058 173.187 172.763 171.88 171.421 
170.503 169.979 169.02 168.442 167.471 175.392 175.138 174.35 174.015 
173.181 172.757 171.864 171.412 170.497 170.046 169.13 168.628 167.7 
167.122 166.206 175.12 174.87 174.146 173.881 173.126 172.762 171.906 
171.433 170.516 170.033 169.144 168.692 167.835 167.346 166.478 165.916 
165.05 174.942 174.659 173.928 173.665 172.902 172.628 171.801 171.443 
170.571 170.118 169.248 168.758 167.917 167.447 166.623 166.143 165.307 
164.776 163.954 174.633 173.694 173.969 173.547 172.414 172.832 172.323 
172.763 172.38 170.846 171.354 170.777 171.328 170.918 171.531 171.225 
169.242 169.724 169.188 169.733 169.392 170.025 169.827 170.415 170.119 
167.891 168.22 167.749 168.235 167.996 168.607 168.513 169.099 168.887 
169.318 168.902 166.997 167.109 166.64 166.95 166.703 167.263 167.152 
167.791 167.551 168.061 167.604 168.013 167.519 166.354 166.409 165.928 
166.046 165.695 166.041 165.814 166.364 166.06 166.608 166.112 166.598 
166.067 166.579 166.153 165.546 165.721 165.2 165.351 164.865 165.091 
164.688 165.064 164.674 165.12 164.63 165.075 164.556 165.063 164.638 
165.217 164.85 164.544 164.774 164.174 164.424 163.796 164.086 163.477 
163.853 163.286 163.731 163.17 163.624 163.081 163.568 163.116 163.679 
163.307 163.899 163.533 162.608 162.353 162.02 161.131 162.122 161.731 
160.755 160.489 159.672 161.987 161.48 160.359 160.025 159.084 158.997 
158.264 161.988 161.347 160.041 159.559 158.473 158.332 157.549 157.569 
156.848 162.128 161.39 160.019 159.31 158.13 157.775 157.001 156.916 
156.272 156.183 155.539 162.422 161.639 160.407 159.524 158.425 157.741 
156.997 156.612 156.035 155.779 155.224 155.072 154.741 162.843 162.077 
161.048 160.16 159.25 158.398 157.693 156.977 156.33 155.773 155.157 
154.863 154.508 154.537 154.535 163.317 162.613 161.741 160.941 160.159 
159.355 158.663 157.852 157.101 156.295 155.521 154.939 154.431 154.292 
154.173 154.387 154.461 163.791 163.163 162.415 161.696 160.968 160.23 
159.511 158.747 157.96 157.124 156.316 155.519 154.916 154.41 154.154 
154.056 154.031 154.223 154.242 162.47 161.043 161.793 161.944 159.697 
160.424 160.642 161.411 161.762 158.38 159.137 159.403 160.18 160.553 
161.366 161.826 156.909 157.746 158.02 158.92 159.292 160.148 160.552 
161.416 161.88 155.509 156.216 156.469 157.438 157.903 158.857 159.288 
160.126 160.566 161.456 162.013 154.792 155.094 155.344 156.013 156.594 
157.515 158.144 158.961 159.475 160.241 160.845 161.727 162.42 154.767 
154.82 155.079 155.302 155.812 156.434 157.156 157.943 158.594 159.308 
159.927 160.697 161.421 162.263 162.953 154.773 154.93 155.184 155.282 
155.591 155.899 156.434 157.068 157.736 158.475 159.13 159.869 160.562 
161.346 162.06 162.826 163.437 154.511 154.804 155.068 155.292 155.523 
155.726 156.063 156.463 157.024 157.662 158.36 159.089 159.814 160.55 
161.267 161.993 162.652 163.329 163.886 154.442 154.721 154.689 155.022 
155.447 155.143 155.4 155.312 155.589 156.486 156.03 156.224 155.898 
156.14 155.92 156.191 157.583 157.095 157.268 156.853 157.073 156.686 
156.949 156.675 157.108 158.757 158.206 158.343 157.893 158.109 157.703 
157.99 157.623 158.059 157.818 158.431 160.047 159.444 159.573 159.024 
159.227 158.762 159.085 158.719 159.2 158.907 159.51 159.275 159.93 
161.336 160.749 160.913 160.34 160.561 159.997 160.312 159.865 160.358 
160.059 160.666 160.41 161.02 160.774 161.376 162.58 162.006 162.156 
161.65 161.896 161.379 161.686 161.183 161.611 161.234 161.792 161.523 
162.096 161.849 162.393 162.167 162.716 163.81 163.226 163.33 162.835 
163.067 162.634 162.95 162.519 162.904 162.5 162.967 162.636 163.143 
162.872 163.372 163.141 163.642 163.443 163.936 154.174 154.276 154.228 
154.528 155.099 154.681 154.945 154.841 155.338 156.311 155.75 155.95 
155.564 155.965 155.844 156.409 157.527 156.975 157.13 156.665 156.952 
156.638 157.078 156.97 157.535 158.796 158.196 158.335 157.82 158.081 
157.677 158.077 157.792 158.311 158.162 158.762 160.142 159.518 159.661 
159.079 159.37 158.887 159.341 158.936 159.46 159.121 159.673 159.463 
160.061 161.417 160.844 161 160.441 160.754 160.266 160.755 160.314 
160.84 160.392 160.879 160.5 161.019 160.79 161.362 162.632 162.092 
162.277 161.758 162.083 161.639 162.12 161.724 162.227 161.784 162.223 
161.766 162.232 161.864 162.405 162.132 162.68 163.82 163.314 163.531 
163.035 163.365 162.933 163.385 163.016 163.497 163.104 163.532 163.094 
163.541 163.136 163.659 163.296 163.824 163.481 163.965 163.83 163.569 
163.312 162.525 163.31 163.045 162.209 161.946 161.108 163.004 162.735 
161.838 161.576 160.649 160.444 159.585 162.807 162.453 161.565 161.218 
160.258 159.95 159.002 158.842 157.981 162.82 162.376 161.552 161.093 
160.211 159.722 158.803 158.39 157.517 157.268 156.439 162.957 162.483 
161.688 161.201 160.373 159.842 158.992 158.442 157.62 157.107 156.308 
155.888 155.163 163.166 162.673 161.903 161.392 160.581 160.05 159.218 
158.691 157.901 157.38 156.602 156.042 155.293 154.833 154.331 163.453 
162.941 162.226 161.681 160.938 160.348 159.564 158.965 158.21 157.672 
156.96 156.411 155.677 155.119 154.528 154.2 153.999 163.801 163.286 
162.624 162.077 161.41 160.816 160.12 159.458 158.758 158.109 157.479 
156.867 156.251 155.61 155.019 154.495 154.171 154.002 154.054 164.584 
165.626 164.841 164.344 166.76 165.929 165.445 164.645 164.135 167.974 
167.105 166.622 165.793 165.303 164.445 163.889 169.2 168.333 167.838 
166.996 166.539 165.675 165.152 164.224 163.692 170.394 169.563 169.071 
168.213 167.758 166.925 166.456 165.547 165.028 164.101 163.66 171.512 
170.756 170.305 169.451 168.974 168.138 167.683 166.834 166.35 165.453 
164.989 164.123 163.757 172.518 171.841 171.431 170.651 170.181 169.357 
168.892 168.054 167.588 166.733 166.284 165.436 165.051 164.239 163.932 
173.443 172.809 172.411 171.71 171.267 170.518 170.071 169.269 168.816 
167.973 167.537 166.703 166.326 165.522 165.21 164.433 164.18 174.296 
173.703 173.314 172.655 172.235 171.548 171.132 170.404 169.979 169.192 
168.766 167.953 167.569 166.777 166.457 165.694 165.431 164.693 164.482 
174.622 174.767 174.358 173.644 174.901 174.493 173.773 173.332 172.583 
175.006 174.622 173.907 173.466 172.69 172.246 171.484 175.072 174.703 
173.989 173.577 172.778 172.332 171.513 171.109 170.332 175.192 174.784 
174.062 173.636 172.831 172.386 171.542 171.116 170.303 169.924 169.145 
175.349 174.933 174.184 173.72 172.9 172.436 171.601 171.151 170.33 
169.907 169.112 168.729 167.966 175.395 175.046 174.281 173.834 172.996 
172.524 171.703 171.243 170.428 169.964 169.143 168.714 167.932 167.568 
166.851 175.345 175.039 174.317 173.908 173.106 172.641 171.852 171.385 
170.599 170.102 169.269 168.774 167.967 167.554 166.834 166.495 165.836 
175.301 175.004 174.346 173.964 173.234 172.785 172.045 171.578 170.83 
170.318 169.504 168.953 168.134 167.643 166.918 166.521 165.872 165.527 
164.91 175.064 174.278 174.514 174.094 173.253 173.606 173.21 173.462 
172.984 172.157 172.496 172.106 172.469 172.038 172.301 171.811 171.147 
171.405 170.938 171.302 170.89 171.264 170.806 171.09 170.576 170.036 
170.351 169.803 170.133 169.666 170.059 169.603 169.975 169.447 169.764 
169.204 168.69 169.12 168.591 168.96 168.451 168.828 168.343 168.724 
168.204 168.554 168.002 168.335 167.817 167.306 167.755 167.293 167.699 
167.199 167.583 167.077 167.46 166.949 167.312 166.797 167.137 166.655 
167.002 166.594 166.006 166.433 165.993 166.404 165.903 166.292 165.769 
166.17 165.668 166.064 165.571 165.942 165.47 165.844 165.436 165.839 
165.514 164.769 165.162 164.702 165.106 164.59 164.976 164.45 164.854 
164.383 164.796 164.338 164.718 164.245 164.627 164.199 164.634 164.296 
164.773 164.514 175.522 175.93 175.402 174.709 176.248 175.717 174.932 
174.45 173.667 176.553 175.988 175.178 174.652 173.884 173.382 172.63 
176.926 176.351 175.616 175.008 174.291 173.694 172.992 172.431 171.701 
177.128 176.723 176.082 175.55 174.819 174.168 173.353 172.775 171.952 
171.439 170.571 176.858 176.714 176.101 175.874 175.095 174.572 173.495 
172.927 171.855 171.458 170.461 170.086 169.122 176.311 176.241 175.61 
175.614 174.884 174.591 173.429 172.856 171.597 171.164 170.125 169.819 
168.869 168.546 167.666 175.873 175.708 175.057 175.029 174.387 174.237 
173.253 172.738 171.539 170.971 169.983 169.57 168.729 168.335 167.481 
167.135 166.348 175.583 175.369 174.699 174.551 173.915 173.779 172.977 
172.601 171.582 171.034 170.098 169.614 168.822 168.35 167.51 167.035 
166.187 165.846 165.111 176.056 177.109 176.592 176.585 178.271 177.744 
177.807 177.165 177.04 179.351 178.905 179.005 178.433 178.372 177.621 
177.394 180.316 179.924 180.018 179.544 179.537 178.937 178.776 177.984 
177.719 181.363 180.949 181.074 180.535 180.515 179.99 179.932 179.318 
179.085 178.278 177.89 182.273 182.007 182.209 181.691 181.605 180.968 
180.819 180.308 180.143 179.533 179.101 178.265 177.647 182.6 182.611 
182.761 182.627 182.517 182.014 181.622 181.065 180.709 180.299 179.895 
179.307 178.645 177.821 177.103 182.518 182.591 182.575 182.736 182.633 
182.549 182.105 181.681 181.068 180.653 180.126 179.779 179.2 178.654 
177.952 177.225 176.598 182.492 182.453 182.364 182.414 182.304 182.362 
182.05 181.878 181.306 180.921 180.289 179.91 179.33 178.967 178.368 
177.898 177.297 176.724 176.212 182.539 182.66 182.538 182.403 182.539 
182.609 182.396 182.312 182.162 181.798 182.216 182.01 182.12 181.796 
181.923 181.752 180.648 181.217 181.05 181.425 181.083 181.344 181.054 
181.335 181.062 179.538 180.041 179.867 180.307 180.017 180.418 180.153 
180.528 180.243 180.495 180.108 178.477 178.956 178.752 179.16 178.866 
179.283 179.037 179.507 179.251 179.612 179.216 179.46 179.061 177.339 
177.835 177.609 178.047 177.738 178.149 177.87 178.341 178.085 178.525 
178.153 178.484 178.07 178.404 178.074 176.223 176.673 176.435 176.875 
176.591 177.017 176.749 177.191 176.943 177.365 177.045 177.393 177.028 
177.375 177.077 177.441 177.134 175.208 175.597 175.356 175.745 175.489 
175.895 175.669 176.097 175.888 176.292 176.027 176.359 176.044 176.366 
176.099 176.462 176.216 176.524 176.175 174.576 173.583 174.304 174.695 
172.468 173.257 173.697 174.413 174.819 171.336 172.134 172.622 173.395 
173.866 174.573 175.016 170.239 171.028 171.516 172.312 172.812 173.593 
174.084 174.8 175.243 169.071 169.904 170.362 171.185 171.656 172.488 
172.982 173.797 174.263 174.993 175.373 167.83 168.673 169.127 169.982 
170.446 171.297 171.784 172.637 173.122 173.933 174.354 175.065 175.404 
166.726 167.471 167.937 168.749 169.24 170.081 170.586 171.437 171.935 
172.766 173.227 174.004 174.421 175.11 175.483 165.824 166.469 166.913 
167.636 168.107 168.898 169.392 170.239 170.738 171.582 172.044 172.857 
173.299 174.086 174.513 175.221 175.591 164.994 165.603 165.992 166.656 
167.06 167.787 168.222 169.036 169.52 170.375 170.843 171.667 172.095 
172.913 173.338 174.151 174.53 175.262 175.538 175.188 174.192 174.573 
174.297 173 173.475 173.213 173.653 173.419 171.75 172.231 171.946 
172.453 172.176 172.702 172.396 170.487 170.967 170.638 171.136 170.793 
171.327 170.966 171.509 171.071 169.142 169.642 169.278 169.795 169.397 
169.897 169.472 170.007 169.608 170.128 169.703 167.821 168.258 167.853 
168.374 167.968 168.474 167.991 168.488 168.031 168.615 168.238 168.805 
168.408 166.664 166.991 166.529 166.955 166.534 167.026 166.555 167.014 
166.484 167.004 166.545 167.194 166.788 167.435 167.007 165.622 165.892 
165.391 165.702 165.23 165.636 165.183 165.61 165.104 165.521 165.017 
165.521 165.089 165.705 165.316 165.971 165.627 164.637 164.876 164.374 
164.62 164.118 164.418 163.944 164.302 163.833 164.208 163.747 164.139 
163.728 164.172 163.828 164.355 164.09 164.707 164.532 175.655 175.866 
176.118 176.866 176.167 176.39 177.175 177.399 178.139 176.467 176.723 
177.488 177.716 178.465 178.663 179.35 176.546 176.936 177.698 177.996 
178.713 178.954 179.661 179.858 180.476 176.36 176.853 177.619 178.074 
178.809 179.151 179.839 180.107 180.715 180.887 181.269 176.101 176.581 
177.306 177.85 178.597 179.101 179.769 180.166 180.717 180.999 181.367 
181.467 181.602 175.874 176.313 176.98 177.493 178.195 178.755 179.395 
179.905 180.432 180.848 181.276 181.514 181.786 181.775 181.914 175.621 
176.06 176.677 177.159 177.806 178.329 178.945 179.45 180.001 180.473 
181.023 181.41 181.893 182.03 182.311 182.205 182.353 175.277 175.738 
176.294 176.794 177.389 177.919 178.51 179.012 179.56 180.044 180.629 
181.136 181.736 182.106 182.491 182.558 182.656 182.558 182.561 175.774 
176.946 176.317 176.222 178.165 177.505 177.334 176.68 176.504 179.372 
178.712 178.485 177.768 177.503 176.893 176.721 180.522 179.926 179.74 
178.96 178.625 177.886 177.622 177.067 176.826 181.281 180.945 180.842 
180.234 179.95 179.122 178.741 177.98 177.606 177.007 176.529 181.533 
181.409 181.317 181.087 180.91 180.382 180.001 179.189 178.642 177.82 
177.236 176.544 175.958 181.798 181.589 181.492 181.343 181.213 181.009 
180.706 180.226 179.64 178.868 178.159 177.349 176.748 176.049 175.595 
182.265 182 181.964 181.665 181.557 181.254 180.971 180.627 180.101 
179.594 178.893 178.23 177.582 176.911 176.442 175.825 175.466 182.546 
182.453 182.492 182.268 182.203 181.792 181.476 180.958 180.426 179.913 
179.292 178.778 178.177 177.643 177.142 176.613 176.196 175.667 175.268 
175.135 175.559 175.014 174.238 175.854 175.367 174.583 173.998 173.037 
176.104 175.626 174.798 174.243 173.254 172.632 171.503 176.204 175.827 
174.916 174.366 173.285 172.73 171.611 171.006 169.867 175.855 175.711 
174.761 174.343 173.188 172.681 171.595 171.081 170.062 169.454 168.499 
175.264 175.178 174.302 174.031 172.977 172.553 171.584 171.134 170.306 
169.749 168.936 168.294 167.574 174.937 174.698 173.955 173.646 172.813 
172.416 171.638 171.23 170.563 170.09 169.388 168.791 168.055 167.48 
166.848 174.856 174.557 173.894 173.53 172.838 172.431 171.763 171.367 
170.735 170.338 169.641 169.164 168.369 167.857 167.093 166.66 165.991 
174.69 174.477 173.823 173.538 172.866 172.53 171.851 171.492 170.79 
170.428 169.669 169.278 168.45 168.019 167.197 166.783 166.043 165.684 
165.009 175.91 175.983 176.25 176.914 176.056 176.338 177 177.308 
178.03 176.01 176.368 177.013 177.363 178.057 178.416 179.102 175.861 
176.263 176.926 177.318 177.986 178.375 179.042 179.409 180.05 175.765 
176.146 176.883 177.261 177.979 178.313 178.975 179.315 179.982 180.349 
181.029 175.695 176.085 176.846 177.264 178.038 178.376 179.065 179.332 
180.018 180.328 181.045 181.378 181.978 175.567 175.976 176.668 177.147 
177.862 178.336 178.995 179.386 180.057 180.422 181.158 181.471 182.071 
182.244 182.529 175.419 175.811 176.427 176.874 177.482 177.991 178.568 
179.098 179.702 180.269 180.968 181.492 182.095 182.361 182.63 182.624 
182.623 175.24 175.629 176.186 176.593 177.132 177.574 178.118 178.604 
179.176 179.745 180.373 181.029 181.599 182.141 182.427 182.65 182.65 
182.629 182.563 
POINT_DATA 1002
SCALARS Distance double
LOOKUP_TABLE default
173.912 174.835 174.009 172.964 172.949 172.821 171.837 171.76 171.756 
171.65 170.618 170.554 170.578 170.485 170.541 169.261 169.26 169.25 
169.181 169.271 169.453 167.722 167.851 167.714 167.695 167.812 168.06 
168.227 166.194 166.505 166.151 166.196 166.324 166.591 166.819 167.007 
164.844 165.313 164.729 164.849 164.993 165.234 165.511 165.732 166.027 
163.632 164.207 163.399 163.523 163.68 163.857 164.189 164.529 164.838 
165.212 162.532 163.165 162.167 162.189 162.31 162.372 162.634 163.12 
163.583 163.992 164.408 175.192 174.264 175.456 174.473 175.658 173.105 
174.683 175.875 173.329 171.886 174.855 176.108 173.567 172.157 170.697 
174.926 176.177 173.636 172.341 170.94 169.415 174.846 175.951 173.615 
172.315 170.987 169.586 168.061 174.62 175.608 173.588 172.345 170.937 
169.57 168.239 166.803 174.382 175.371 173.437 172.356 171.02 169.596 
168.271 167 165.633 174.225 175.232 173.178 172.093 170.957 169.74 
168.411 167.074 165.799 164.492 174.445 173.24 173.401 171.859 171.985 
171.872 170.219 170.338 170.255 170.629 168.618 168.774 168.729 169.194 
169.662 167.274 167.63 167.361 167.903 168.447 168.557 166.429 166.936 
166.222 166.531 167.029 167.184 167.075 165.867 166.264 165.492 165.376 
165.539 165.618 165.539 165.592 165.038 165.34 164.699 164.41 164.282 
164.206 164.071 164.062 164.263 163.948 164.347 163.54 163.155 162.871 
162.71 162.599 162.575 162.715 162.946 161.715 161.401 160.28 161.078 
159.787 158.951 160.787 159.212 158.256 157.589 160.658 158.678 157.531 
156.866 156.092 160.808 158.597 157.12 156.359 155.597 154.932 161.244 
159.173 157.512 156.364 155.388 154.693 154.603 161.837 160.067 158.514 
157.058 155.573 154.516 154.321 154.688 162.466 160.924 159.489 157.99 
156.259 154.735 154.047 154.157 154.543 163.08 161.703 160.281 158.767 
157.127 155.567 154.452 153.968 153.974 154.214 161.136 159.861 160.933 
158.601 159.75 160.981 157.05 158.412 159.717 160.96 155.509 156.854 
158.446 159.703 161.038 154.847 155.684 157.252 158.738 159.987 161.513 
155.015 155.384 156.378 157.845 159.205 160.595 162.161 155.092 155.453 
155.943 156.987 158.38 159.81 161.286 162.738 154.782 155.335 155.787 
156.464 157.623 159.08 160.557 161.961 163.261 154.334 154.955 154.88 
155.598 155.866 155.651 156.63 156.966 156.449 156.326 157.694 158.094 
157.486 157.288 157.24 158.833 159.348 158.505 158.342 158.348 158.594 
160.154 160.64 159.736 159.442 159.475 159.784 160.156 161.456 161.913 
161.133 160.815 160.682 160.922 161.297 161.614 162.651 163.179 162.364 
162.193 162.054 162.102 162.355 162.641 162.929 163.85 164.404 163.492 
163.347 163.314 163.348 163.456 163.623 163.857 164.141 153.979 154.375 
154.48 155.195 155.629 155.272 156.431 156.877 156.23 156.399 157.623 
158.085 157.341 157.29 157.549 158.884 159.424 158.502 158.404 158.54 
158.848 160.25 160.754 159.855 159.758 159.867 159.979 160.197 161.532 
161.966 161.222 161.189 161.323 161.336 161.328 161.535 162.779 163.154 
162.522 162.51 162.664 162.698 162.639 162.732 162.951 164.01 164.298 
163.807 163.769 163.878 163.952 163.949 164.039 164.208 164.315 164.064 
162.795 163.852 162.492 163.588 161.344 162.127 163.299 160.897 159.71 
161.937 163.187 160.633 159.246 158.054 162.008 163.269 160.713 159.291 
157.874 156.627 162.176 163.43 160.884 159.526 158.164 156.825 155.475 
162.416 163.655 161.12 159.743 158.388 157.154 155.831 154.577 162.754 
163.953 161.512 160.184 158.768 157.477 156.251 154.952 154.058 165.343 
165.12 166.418 166.252 167.613 164.967 167.455 168.858 166.163 164.783 
168.689 170.056 167.374 166.083 164.595 169.948 171.181 168.581 167.323 
165.967 164.526 171.143 172.216 169.829 168.514 167.218 165.869 164.575 
172.169 173.172 170.986 169.731 168.434 167.118 165.868 164.714 173.089 
174.071 171.977 170.841 169.646 168.371 167.126 165.987 164.932 173.953 