# vtk DataFile Version 4.0
vtk output
ASCII
DATASET POLYDATA
POINTS 1002 float
-104.452 -118.811 70.3505 -105.226 -119.574 70.0932 -105.021 -119.036 69.2047 
-104.199 -118.185 69.4833 -104.776 -118.382 68.4308 -103.591 -117.961 70.5705 
-103.888 -117.403 68.6749 -104.558 -117.568 67.7337 -103.416 -117.086 69.7574 
-102.97 -116.577 70.7913 -103.642 -116.416 67.8185 -104.444 -116.553 66.9528 
-103.221 -116.019 68.9178 -102.966 -115.38 70.0388 -102.61 -114.67 71.0902 
-103.582 -115.211 66.9382 -104.371 -115.449 66.158 -103.008 -114.835 67.9521 
-102.732 -114.229 69.1371 -102.344 -113.589 70.3164 -101.859 -113.067 71.4609 
-103.511 -114.019 66.1807 -104.242 -114.368 65.4859 -102.768 -113.648 67.0424 
-102.18 -113.251 68.0841 -101.635 -112.823 69.2716 -101.017 -112.446 70.5835 
-100.631 -112.007 71.8087 -103.217 -112.995 65.4257 -104.035 -113.289 64.8594 
-102.377 -112.645 66.2092 -101.517 -112.383 67.1435 -100.821 -112.136 68.1739 
-100.231 -111.821 69.4622 -99.8156 -111.405 70.8668 -99.7386 -110.816 72.0194 
-102.812 -112.019 64.6635 -103.776 -112.236 64.2754 -101.911 -111.741 65.3169 
-100.988 -111.49 66.25 -100.294 -111.223 67.28 -99.9062 -110.824 68.4529 
-99.5905 -110.369 69.8336 -99.3893 -109.884 71.0953 -99.3959 -109.338 72.0885 
-102.505 -111.021 64.1205 -103.543 -111.278 63.8314 -101.588 -110.744 64.605 
-100.732 -110.437 65.4056 -100.111 -110.048 66.448 -99.8799 -109.506 67.6164 
-99.7299 -108.964 68.9157 -99.4505 -108.589 70.1809 -99.2323 -108.273 71.2239 
-99.1872 -107.913 72.163 -102.356 -110.052 63.7791 -103.407 -110.42 63.514 
-101.456 -109.68 64.183 -100.694 -109.266 64.8135 -100.137 -108.766 65.6928 
-99.8919 -108.163 66.7749 -99.7714 -107.581 68.003 -99.5162 -107.216 69.2533 
-99.1988 -107.042 70.3613 -99.0058 -106.86 71.349 -98.9694 -106.595 72.3466 
-105.81 -120.13 69.2356 -105.613 -119.542 68.352 -106.48 -120.692 68.4182 
-106.345 -120.013 67.6015 -107.409 -120.998 67.7453 -105.515 -118.749 67.6841 
-107.373 -120.18 66.9173 -108.563 -121 67.0988 -106.447 -118.992 66.9972 
-105.496 -117.744 67.0566 -108.535 -120.14 66.0931 -109.664 -120.916 66.25 
-107.512 -119.065 66.1997 -106.47 -117.883 66.2908 -105.351 -116.708 66.2201 
-109.583 -120.087 65.1217 -110.69 -120.762 65.2286 -108.584 -119.116 65.2988 
-107.391 -118.082 65.3846 -106.151 -116.962 65.3249 -105.123 -115.694 65.3796 
-110.631 -119.834 64.2893 -111.848 -120.384 64.3754 -109.655 -118.989 64.5151 
-108.452 -118.134 64.5956 -107.055 -117.181 64.4433 -105.971 -115.909 64.5234 
-105.06 -114.526 64.7864 -111.821 -119.294 63.7497 -113.077 -119.787 63.8629 
-110.765 -118.527 63.8801 -109.628 -117.784 63.9041 -108.2 -117.064 63.7094 
-107.034 -115.964 63.7499 -106.155 -114.56 64.1023 -105.05 -113.282 64.3157 
-113.014 -118.651 63.322 -114.148 -119.065 63.4896 -111.861 -117.995 63.2767 
-110.681 -117.323 63.1189 -109.286 -116.744 62.8765 -108.036 -115.902 62.9567 
-107.205 -114.621 63.403 -106.245 -113.297 63.7697 -104.898 -112.207 63.8553 
-114.046 -118.028 62.8225 -114.999 -118.331 63.0497 -112.88 -117.549 62.6754 
-111.592 -117.022 62.3779 -110.192 -116.536 62.0068 -108.869 -115.854 62.0416 
-107.954 -114.747 62.5677 -107.191 -113.453 63.103 -106.077 -112.304 63.3664 
-104.692 -111.324 63.4584 -115.238 -117.522 62.3175 -114.164 -117.169 62.1309 
-115.381 -116.706 61.6298 -114.094 -116.209 61.4921 -115.346 -115.617 61.1231 
-112.773 -116.739 61.8808 -113.879 -114.972 60.9131 -115.149 -114.256 60.6128 
-112.511 -115.772 61.1259 -111.248 -116.334 61.4126 -113.553 -113.743 60.2965 
-114.755 -113.076 60.1898 -112.252 -114.515 60.451 -110.971 -115.296 60.7012 
-109.8 -115.74 61.2137 -113.053 -112.642 60.0563 -114.113 -112.028 60.3248 
-111.872 -113.227 59.9965 -110.757 -113.807 60.2638 -109.645 -114.348 60.8387 
-108.657 -114.677 61.665 -112.514 -111.176 60.423 -113.361 -110.748 60.9432 
-111.392 -111.722 60.1064 -110.298 -112.189 60.1499 -109.375 -112.59 60.6234 
-108.522 -113.044 61.4181 -107.802 -113.371 62.3167 -112.07 -109.581 61.0429 
-112.66 -109.506 61.6773 -111.117 -109.905 60.6195 -109.883 -110.435 60.4497 
-108.832 -110.928 60.6045 -108.124 -111.398 61.1728 -107.499 -111.885 61.9846 
-106.823 -112.189 62.758 -111.599 -108.495 61.8015 -112.047 -108.524 62.4453 
-110.899 -108.52 61.3414 -109.761 -108.813 61.0927 -108.495 -109.341 61.0085 
-107.621 -109.914 61.2585 -107.041 -110.459 61.8571 -106.358 -110.898 62.5039 
-105.524 -111.154 63.0327 -111.056 -107.644 62.6534 -111.532 -107.493 63.1554 
-110.446 -107.683 62.2665 -109.53 -107.717 62.0335 -108.361 -107.938 61.8487 
-107.332 -108.4 61.8281 -106.603 -108.97 62.14 -105.889 -109.492 62.567 
-105.021 -109.879 62.8995 -104.139 -110.158 63.1991 -102.651 -109.237 63.3761 
-103.366 -108.83 63.0919 -101.908 -107.738 63.182 -104.295 -108.378 62.9722 
-102.573 -107.108 62.955 -101.23 -105.874 63.012 -105.291 -107.839 62.8817 
-103.566 -106.432 63.0292 -101.925 -104.984 62.9017 -100.739 -103.732 63.0389 
-106.198 -107.26 62.7009 -104.744 -105.797 63.119 -103.081 -104.162 63.027 
-101.615 -102.66 62.9711 -100.484 -101.573 63.1406 -107.088 -106.829 62.6925 
-105.794 -105.346 63.17 -104.396 -103.629 63.0996 -102.952 -101.865 62.9376 
-101.589 -100.467 62.9766 -100.465 -99.6397 63.192 -108.103 -106.69 62.9076 
-106.676 -105.171 63.4196 -105.439 -103.395 63.2893 -104.27 -101.53 62.97 
-103.021 -99.7944 62.8796 -101.732 -98.6478 63.0376 -100.671 -98.0737 63.4735 
-109.142 -106.696 63.0647 -107.657 -105.146 63.6488 -106.353 -103.267 63.6275 
-105.305 -101.413 63.2886 -104.312 -99.6127 63.0848 -103.204 -98.1575 63.1154 
-102.016 -97.3335 63.4674 -101.008 -96.9301 64.1398 -110.022 -106.582 63.2008 
-108.753 -105.024 63.6702 -107.472 -103.134 63.7861 -106.358 -101.324 63.656 
-105.398 -99.6451 63.5487 -104.502 -98.1431 63.5138 -103.508 -97.0916 63.6887 
-102.4 -96.4813 64.2275 -101.427 -96.1074 64.9644 -110.717 -106.311 63.4705 
-109.726 -104.773 63.7229 -108.616 -103.036 63.8391 -107.513 -101.385 63.9029 
-106.488 -99.8354 63.9995 -105.602 -98.3722 64.0514 -104.801 -97.2254 64.1265 
-103.879 -96.4481 64.4705 -102.833 -95.8736 65.0755 -101.918 -95.46 65.7178 
-101.628 -108.71 63.6926 -100.967 -107.02 63.5478 -100.826 -108.142 64.228 
-100.386 -105.003 63.4344 -100.304 -106.248 64.2013 -100.244 -107.504 64.9736 
-99.909 -102.85 63.4468 -99.7747 -104.176 64.1264 -99.8322 -105.516 65.0333 
-99.8818 -106.855 65.9164 -99.6535 -100.784 63.4961 -99.3006 -102.11 64.0969 
-99.2814 -103.575 65.0305 -99.426 -105.016 66.0614 -99.6269 -106.307 67.0719 
-99.747 -98.9511 63.7269 -99.2054 -100.091 64.2534 -98.9517 -101.575 65.1567 
-98.9292 -103.248 66.2401 -99.0991 -104.696 67.3101 -99.3504 -105.933 68.3524 
-100.044 -97.5041 64.3536 -99.4428 -98.3194 64.7747 -99.0669 -99.5112 65.5663 
-98.874 -101.168 66.6158 -98.8936 -102.888 67.6438 -98.9907 -104.361 68.6378 
-99.095 -105.717 69.5899 -100.414 -96.4551 65.1865 -99.7271 -97.0285 65.5477 
-99.2674 -97.8387 66.2101 -98.9886 -99.0888 67.1696 -98.9977 -100.727 68.1514 
-99.0841 -102.418 69.0566 -99.0037 -104.037 69.9567 -98.9255 -105.549 70.7492 
-100.912 -95.6571 65.9438 -100.137 -96.1214 66.297 -99.5304 -96.7412 66.9018 
-99.0537 -97.5823 67.7888 -98.9209 -98.8326 68.7431 -99.1006 -100.411 69.611 
-99.1417 -102.11 70.4697 -98.9476 -103.802 71.2819 -98.8457 -105.333 71.9021 
-101.835 -94.9473 66.5298 -100.974 -95.2724 66.8739 -101.911 -94.6781 67.5068 
-101.23 -95.1576 68.1152 -102.04 -94.7598 68.9841 -100.255 -95.855 67.4705 
-101.463 -95.3062 69.8489 -102.161 -94.9174 70.948 -100.538 -95.796 69.0326 
-99.5276 -96.53 68.3758 -101.574 -95.4979 71.7383 -102.429 -94.9571 72.8066 
-100.772 -95.9233 70.8547 -99.7088 -96.4994 70.1163 -98.9697 -97.4543 69.3983 
-101.772 -95.7231 73.3274 -102.863 -95.2669 74.1603 -100.858 -96.1765 72.5242 
-99.9407 -96.6904 71.8333 -99.0962 -97.59 71.0895 -98.8978 -98.846 70.3128 
-102.073 -96.226 74.6581 -103.172 -96.058 75.2292 -100.985 -96.5852 73.986 
-100.115 -97.0798 73.3465 -99.3626 -97.9505 72.6803 -98.9487 -99.1573 71.9448 
-99.0429 -100.534 71.194 -102.264 -96.9279 75.9422 -103.307 -96.906 76.2863 
-101.194 -97.1654 75.4324 -100.331 -97.6318 74.7927 -99.7076 -98.4266 74.1101 
-99.1926 -99.5572 73.4585 -98.967 -100.847 72.8227 -98.9798 -102.285 72.0793 
-102.45 -97.5915 77.1285 -103.539 -97.5865 77.2857 -101.433 -97.7761 76.7939 
-100.622 -98.2544 76.2027 -100.092 -99.027 75.4442 -99.6357 -100.021 74.7311 
-99.1894 -101.18 74.1867 -98.9328 -102.52 73.5996 -98.8465 -103.983 72.7743 
-102.87 -98.3039 78.0319 -103.989 -98.3188 78.0677 -101.834 -98.4188 77.831 
-101.015 -98.86 77.3629 -100.474 -99.6755 76.6657 -100.068 -100.658 75.8885 
-99.6215 -101.675 75.2529 -99.2083 -102.837 74.7648 -98.9713 -104.176 74.1151 
-98.9108 -105.49 73.2176 -102.998 -95.1628 66.0675 -102.895 -94.6234 66.9083 
-104.218 -95.0309 66.5146 -104.208 -94.5208 67.4213 -105.536 -94.9783 67.0634 
-102.891 -94.4426 68.0547 -105.799 -94.4983 68.1093 -106.783 -95.081 67.7248 
-104.329 -94.4038 68.8464 -102.974 -94.5464 69.8958 -107.206 -94.6656 68.9793 
-107.701 -95.6054 68.5134 -106.148 -94.4061 69.8235 -104.558 -94.403 71.0063 
-103.223 -94.4941 72.0954 -108.033 -95.3195 69.8639 -108.498 -96.4231 69.2834 
-107.476 -94.7107 70.7642 -106.307 -94.469 71.9409 -104.804 -94.2879 73.0571 
-103.652 -94.5172 73.7807 -108.879 -96.1873 70.493 -109.578 -97.0946 69.8359 
-108.21 -95.5074 71.4342 -107.389 -95.0744 72.4788 -106.211 -94.7306 73.4685 
-104.988 -94.7155 74.2966 -104.022 -95.2624 74.8383 -110.131 -96.8523 70.8924 
-110.696 -97.6527 70.2428 -109.287 -96.3049 71.8801 -108.327 -95.9399 72.8674 
-107.305 -95.6451 73.6671 -106.221 -95.554 74.4764 -105.181 -95.8429 75.2379 
-104.23 -96.3687 75.7876 -111.223 -97.4899 71.3058 -111.469 -98.3722 70.6936 
-110.639 -96.8874 72.3084 -109.709 -96.5623 73.3658 -108.641 -96.3959 74.1335 
-107.606 -96.3637 74.8398 -106.577 -96.5229 75.6567 -105.518 -96.8233 76.3137 
-104.48 -97.1841 76.791 -111.876 -98.2996 71.7935 -112.014 -99.188 71.1966 
-111.571 -97.5822 72.7487 -110.955 -97.1314 73.854 -110.047 -96.9324 74.7281 
[...]
CELL_DATA 2000
SCALARS Distance double
LOOKUP_TABLE default
172.442 171.545 171.835 171.485 170.57 170.871 170.478 170.802 170.366 
169.5 169.809 169.342 169.71 169.247 169.58 169.053 168.368 168.658 
168.106 168.481 167.977 168.376 167.84 168.185 167.639 167.252 167.498 
166.877 167.195 166.617 167.025 166.47 166.887 166.339 166.746 166.256 
166.132 166.362 165.682 165.951 165.3 165.649 165.063 165.477 164.949 
165.394 164.932 165.387 164.97 164.992 165.197 164.467 164.723 164.033 
164.341 163.738 164.111 163.611 164.034 163.619 164.072 163.7 164.143 
163.774 163.943 164.066 163.318 163.514 162.825 163.088 162.488 162.829 
162.342 162.75 162.355 162.8 162.452 162.899 162.56 162.991 162.67 
163.066 163.091 162.342 162.446 161.766 161.948 161.349 161.624 161.127 
161.503 161.097 161.54 161.186 161.653 161.326 161.786 161.483 161.936 
161.678 172.869 173.28 172.708 171.992 173.769 173.148 172.41 171.825 
171.077 174.256 173.64 172.887 172.278 171.513 170.898 170.081 174.637 
174.08 173.306 172.729 171.937 171.33 170.483 169.849 168.978 174.874 
174.391 173.636 173.108 172.311 171.718 170.845 170.216 169.322 168.718 
167.861 175.038 174.586 173.877 173.41 172.663 172.092 171.225 170.571 
169.672 169.051 168.202 167.617 166.778 175.217 174.762 174.05 173.618 
172.893 172.405 171.562 170.953 170.057 169.43 168.604 167.996 167.183 
166.55 165.699 175.361 174.946 174.211 173.771 173.007 172.561 171.721 
171.21 170.331 169.787 168.986 168.429 167.663 167.024 166.198 165.506 
164.677 175.373 175.049 174.338 173.915 173.13 172.661 171.822 171.328 
170.48 169.994 169.222 168.758 168.045 167.507 166.743 166.073 165.263 
164.559 163.8 175.124 174.43 174.575 174.112 173.586 173.791 173.259 
173.436 172.876 172.485 172.788 172.202 172.469 171.87 172.101 171.516 
171.27 171.579 170.98 171.3 170.714 171.017 170.436 170.703 170.161 
170.136 170.386 169.76 170.045 169.443 169.792 169.235 169.575 169.054 
169.373 168.919 169.009 169.25 168.555 168.815 168.121 168.463 167.852 
168.274 167.759 168.198 167.763 168.166 167.755 167.928 168.108 167.387 
167.594 166.854 167.121 166.445 166.834 166.309 166.812 166.416 166.929 
166.539 166.964 166.489 167.09 167.152 166.507 166.562 165.89 165.976 
165.324 165.526 165.017 165.412 165.074 165.575 165.25 165.701 165.248 
165.611 165.055 166.391 166.453 165.894 165.886 165.288 165.237 164.614 
164.614 164.084 164.284 163.932 164.327 164.024 164.445 164.015 164.367 
163.818 164.143 163.593 162.685 162.85 162.267 161.253 163.074 162.457 
161.329 160.708 159.589 163.198 162.678 161.565 160.832 159.569 158.946 
157.823 163.221 162.79 161.818 161.112 159.85 159.039 157.788 157.195 
156.174 163.438 162.927 162.098 161.419 160.291 159.428 158.164 157.336 
156.208 155.64 154.77 164.015 163.37 162.602 161.841 160.816 159.945 
158.765 157.848 156.697 155.886 154.946 154.399 153.757 164.721 164.071 
163.31 162.486 161.46 160.551 159.43 158.515 157.435 156.535 155.606 
154.828 154.168 153.643 153.274 165.308 164.732 163.965 163.193 162.156 
161.247 160.148 159.24 158.252 157.362 156.527 155.671 155.046 154.321 
153.945 153.423 153.245 165.749 165.225 164.452 163.767 162.784 161.944 
160.93 160.043 159.159 158.277 157.544 156.684 156.125 155.344 154.984 
154.311 154.101 153.557 153.449 162.362 160.939 161.629 161.583 159.308 
160.113 160.114 160.895 160.973 157.571 158.414 158.459 159.355 159.502 
160.339 160.532 155.914 156.684 156.723 157.657 157.869 158.819 159.098 
159.974 160.293 154.492 155.103 155.097 155.948 156.19 157.177 157.554 
158.525 158.938 159.83 160.257 153.485 153.849 153.821 154.458 154.709 
155.589 156.056 157.033 157.559 158.492 159 159.872 160.358 153.002 
153.099 153.066 153.423 153.653 154.301 154.794 155.668 156.291 157.205 
157.801 158.662 159.21 160.034 160.535 152.938 152.844 152.784 152.909 
153.074 153.461 153.868 154.553 155.168 156.032 156.697 157.552 158.158 
158.955 159.507 160.264 160.752 153.104 152.906 152.817 152.789 152.903 
153.063 153.358 153.775 154.279 154.987 155.648 156.494 157.159 157.969 
158.567 159.308 159.844 160.532 161.005 153.177 153.34 153.097 152.935 
153.917 153.481 153.356 153.053 153.049 154.868 154.293 154.185 153.685 
153.638 153.305 153.454 155.919 155.331 155.221 154.651 154.558 154.045 
154.108 153.849 154.257 156.968 156.362 156.227 155.674 155.582 155.036 
155.058 154.643 154.99 154.863 155.546 158.1 157.434 157.27 156.669 
156.594 156.061 156.132 155.676 155.996 155.726 156.35 156.296 157.064 
159.242 158.584 158.418 157.768 157.705 157.133 157.26 156.793 157.131 
156.79 157.336 157.166 157.855 157.806 158.499 160.314 159.697 159.555 
158.933 158.897 158.319 158.47 157.985 158.324 157.937 158.416 158.156 
158.75 158.619 159.256 159.185 159.789 161.404 160.781 160.675 160.067 
160.06 159.512 159.68 159.217 159.548 159.141 159.566 159.228 159.738 
159.52 160.102 159.969 160.545 160.436 160.965 153.552 154.309 153.766 
153.634 155.323 154.64 154.448 153.985 154.127 156.529 155.797 155.669 
155.003 155.097 154.685 155.051 157.824 157.117 157.143 156.428 156.558 
155.894 156.154 155.724 156.129 159.145 158.461 158.559 157.949 158.145 
157.47 157.635 156.983 157.232 156.808 157.203 160.509 159.812 159.878 
159.311 159.505 158.95 159.079 158.439 158.557 158.001 158.3 157.926 
158.355 161.859 161.194 161.269 160.651 160.829 160.251 160.412 159.794 
159.935 159.337 159.605 159.123 159.519 159.125 159.527 163.095 162.52 
162.655 162.069 162.281 161.66 161.871 161.2 161.424 160.775 161.094 
160.521 160.905 160.385 160.744 160.28 160.612 164.214 163.713 163.878 
163.395 163.638 163.111 163.349 162.73 162.961 162.325 162.634 162.051 
162.407 161.833 162.141 161.572 161.855 161.359 161.685 165.746 165.174 
165.118 164.349 164.607 164.47 163.627 163.562 162.681 164.287 163.997 
163.152 162.918 162.043 161.872 160.96 164.134 163.784 162.942 162.599 
161.748 161.425 160.533 160.239 159.325 163.998 163.643 162.784 162.433 
161.566 161.224 160.32 159.951 159.003 158.671 157.772 163.955 163.547 
162.715 162.307 161.451 161.061 160.169 159.77 158.837 158.439 157.548 
157.214 156.428 164.029 163.59 162.816 162.348 161.544 161.055 160.202 
159.706 158.83 158.361 157.541 157.127 156.4 156.034 155.372 164.135 
163.711 162.975 162.518 161.746 161.24 160.403 159.854 158.994 158.466 
157.673 157.218 156.518 156.115 155.465 155.088 154.49 164.284 163.858 
163.169 162.709 161.974 161.468 160.667 160.109 159.284 158.718 157.942 
157.426 156.719 156.268 155.603 155.205 154.592 154.254 153.756 166.45 
167.425 166.634 165.985 168.449 167.64 166.996 166.133 165.458 169.488 
168.681 168.058 167.183 166.541 165.679 165.116 170.531 169.749 169.181 
168.298 167.679 166.796 166.25 165.432 164.953 171.516 170.791 170.291 
169.463 168.872 167.971 167.398 166.559 166.072 165.284 164.82 172.46 
171.756 171.292 170.551 170.026 169.175 168.586 167.709 167.189 166.391 
165.953 165.17 164.756 173.44 172.727 172.275 171.544 171.08 170.303 
169.772 168.905 168.366 167.526 167.095 166.319 165.944 165.164 164.801 
174.355 173.714 173.275 172.55 172.09 171.352 170.887 170.084 169.573 
168.722 168.257 167.469 167.098 166.348 165.991 165.223 164.875 175.068 
174.557 174.145 173.503 173.029 172.341 171.894 171.178 170.719 169.917 
169.426 168.618 168.196 167.464 167.107 166.383 166.03 165.288 164.975 
175.295 175.396 175.04 174.399 175.558 175.134 174.41 174.032 173.303 
175.656 175.258 174.469 174.045 173.277 172.914 172.192 175.619 175.273 
174.494 174.088 173.299 172.913 172.165 171.809 171.051 175.654 175.247 
174.492 174.086 173.304 172.923 172.137 171.766 170.943 170.586 169.762 
175.765 175.347 174.571 174.123 173.323 172.911 172.095 171.703 170.837 
170.449 169.59 169.261 168.503 175.648 175.374 174.597 174.212 173.392 
172.951 172.106 171.663 170.795 170.362 169.507 169.123 168.359 168.068 
167.404 175.283 175.117 174.395 174.15 173.379 173.007 172.164 171.705 
170.838 170.371 169.536 169.105 168.332 167.97 167.268 166.994 166.343 
174.906 174.734 174.054 173.881 173.181 172.924 172.138 171.75 170.9 
170.448 169.618 169.173 168.393 167.983 167.249 166.896 166.213 165.935 
165.307 174.491 173.506 173.873 173.608 172.366 172.805 172.533 172.969 
172.715 171.11 171.594 171.288 171.788 171.514 172.005 171.685 169.742 
170.294 169.969 170.479 170.18 170.714 170.406 170.885 170.489 168.214 
168.863 168.567 169.121 168.791 169.34 169.029 169.56 169.199 169.649 
169.231 166.648 167.305 167.04 167.653 167.312 167.897 167.559 168.142 
167.799 168.325 167.937 168.394 168 165.182 165.773 165.507 166.118 
165.81 166.391 166.062 166.645 166.334 166.904 166.57 167.078 166.715 
167.181 166.84 163.788 164.327 164.042 164.633 164.377 164.944 164.658 
165.196 164.915 165.47 165.208 165.738 165.442 165.911 165.593 166.056 
165.782 162.473 162.95 162.657 163.211 162.978 163.553 163.289 163.827 
163.528 164.077 163.82 164.395 164.156 164.671 164.392 164.844 164.574 
165.049 164.853 174.919 175.237 174.701 173.906 175.331 174.901 174.036 
173.578 172.739 175.123 174.826 173.95 173.59 172.723 172.33 171.473 
174.779 174.547 173.71 173.41 172.539 172.211 171.294 170.95 170.035 
174.375 174.212 173.41 173.14 172.236 171.935 170.923 170.611 169.567 
169.335 168.393 173.846 173.776 172.972 172.768 171.801 171.539 170.456 
170.142 169.012 168.748 167.755 167.631 166.795 173.264 173.223 172.433 
172.25 171.252 171.007 169.937 169.648 168.567 168.245 167.275 167.049 
166.255 166.126 165.388 172.736 172.679 171.949 171.743 170.793 170.484 
169.473 169.171 168.209 167.894 166.993 166.696 165.901 165.686 164.948 
164.779 164.035 172.256 172.194 171.531 171.343 170.495 170.15 169.209 
168.84 167.953 167.624 166.775 166.459 165.621 165.36 164.559 164.361 
163.583 163.426 162.702 175.596 176.707 176.126 175.985 177.588 177.157 
177.056 176.465 176.148 178.269 177.884 177.782 177.385 177.114 176.468 
175.949 179.102 178.578 178.393 177.981 177.724 177.253 176.772 176.114 
175.521 179.907 179.449 179.181 178.649 178.293 177.78 177.292 176.755 
176.161 175.585 175.006 180.173 180.013 179.745 179.37 178.936 178.392 
177.826 177.239 176.615 176.074 175.47 174.978 174.416 180.211 180.098 
179.887 179.693 179.317 178.934 178.4 177.836 177.217 176.583 175.965 
175.393 174.826 174.341 173.811 180.52 180.275 180.119 179.844 179.552 
179.219 178.802 178.366 177.856 177.271 176.689 176.016 175.428 174.81 
174.275 173.762 173.272 180.871 180.675 180.53 180.219 179.933 179.54 
179.142 178.738 178.282 177.837 177.303 176.74 176.139 175.499 174.912 
174.306 173.782 173.261 172.787 180.899 180.68 180.773 180.6 180.246 
180.417 180.241 180.33 179.973 179.663 179.84 179.555 179.784 179.45 
179.55 179.111 178.955 179.157 178.804 179.025 178.696 178.891 178.491 
178.611 178.186 178.102 178.402 178.137 178.338 178.034 178.171 177.76 
177.885 177.436 177.618 177.181 177.064 177.497 177.312 177.653 177.384 
177.564 177.093 177.152 176.59 176.75 176.278 176.527 176.048 175.86 
176.375 176.148 176.652 176.358 176.75 176.252 176.415 175.753 175.87 
175.314 175.562 175.121 175.359 174.862 174.619 175.125 174.859 175.367 
175.037 175.524 175.065 175.4 174.782 174.971 174.383 174.609 174.163 
174.427 173.992 174.19 173.716 173.469 173.923 173.685 174.115 173.809 
174.222 173.839 174.194 173.71 173.963 173.445 173.676 173.227 173.488 
173.071 173.311 172.874 173.081 172.674 172.806 171.856 172.57 172.996 
170.732 171.539 171.962 172.704 173.087 169.407 170.3 170.734 171.589 
171.989 172.744 173.082 168.009 168.909 169.343 170.275 170.724 171.582 
171.937 172.682 172.955 166.657 167.518 167.918 168.843 169.282 170.23 
170.624 171.472 171.76 172.498 172.735 165.358 166.176 166.522 167.403 
167.77 168.723 169.107 170.061 170.396 171.247 171.523 172.273 172.534 
164.131 164.888 165.197 166.013 166.34 167.216 167.586 168.524 168.922 
169.84 170.193 171.025 171.328 172.087 172.362 163.031 163.71 164.027 
164.758 165.112 165.879 166.268 167.1 167.546 168.43 168.873 169.718 
170.089 170.867 171.181 171.917 172.189 162.056 162.674 163.007 163.681 
164.062 164.762 165.156 165.895 166.322 167.141 167.606 168.454 168.885 
169.675 170.042 170.77 171.096 171.778 172.056 171.798 170.817 171.241 
171.036 169.723 170.172 169.907 170.348 169.994 168.512 168.983 168.646 
169.122 168.736 169.167 168.726 167.198 167.673 167.27 167.772 167.375 
167.862 167.444 167.877 167.473 165.918 166.33 165.881 166.346 165.934 
166.46 166.063 166.559 166.138 166.619 166.25 164.768 165.103 164.619 
164.985 164.523 165.007 164.593 165.122 164.657 165.176 164.729 165.322 
165.01 163.67 163.982 163.46 163.762 163.218 163.613 163.138 163.634 
163.145 163.639 163.128 163.698 163.339 164.057 163.867 162.596 162.878 
162.329 162.6 161.999 162.316 161.773 162.199 161.715 162.165 161.672 
162.141 161.752 162.379 162.192 162.963 162.876 161.627 161.835 161.281 
161.494 160.891 161.126 160.555 160.885 160.406 160.809 160.376 160.789 
160.424 160.918 160.722 161.369 161.315 162.053 162.036 175.985 176.054 
176.354 176.965 175.955 176.377 177.062 177.349 177.953 175.789 176.251 
176.989 177.378 178.032 178.319 178.938 175.635 176.098 176.845 177.273 
177.979 178.348 179.037 179.339 179.977 175.394 175.909 176.622 177.094 
177.803 178.259 179.022 179.431 180.125 180.369 180.819 174.996 175.577 
176.263 176.793 177.474 178.011 178.811 179.365 180.118 180.469 180.864 
180.971 181.072 174.499 175.109 175.804 176.377 177.048 177.615 178.379 
179.038 179.814 180.34 180.739 180.912 180.913 180.967 180.936 173.987 
174.584 175.279 175.889 176.555 177.142 177.803 178.473 179.139 179.822 
180.24 180.631 180.663 180.773 180.716 180.826 180.897 173.519 174.066 
174.712 175.328 175.97 176.588 177.166 177.795 178.297 178.972 179.331 
179.916 180.047 180.403 180.425 180.629 180.712 180.87 180.965 176.075 
177.045 176.524 176.475 178.085 177.561 177.548 176.982 176.979 179.135 
178.649 178.728 178.151 178.168 177.563 177.531 180.144 179.704 179.793 
179.304 179.33 178.771 178.682 178.047 177.803 180.89 180.606 180.584 
180.211 180.139 179.746 179.629 179.123 178.822 178.136 177.654 181.14 
181.109 181.053 180.811 180.609 180.31 180.147 179.858 179.644 179.113 
178.632 177.858 177.259 181.094 181.193 181.263 181.153 180.975 180.674 
180.431 180.204 180.049 179.779 179.421 178.806 178.163 177.391 176.782 
181.074 181.162 181.316 181.318 181.247 181.013 180.732 180.451 180.207 
180.032 179.732 179.392 178.788 178.175 177.463 176.843 176.307 181.052 
181.135 181.208 181.301 181.251 181.194 180.941 180.712 180.373 180.148 
179.794 179.552 179.024 178.601 177.912 177.388 176.785 176.325 175.893 
175.549 175.947 175.471 174.902 176.428 175.903 175.348 174.824 174.148 
176.919 176.399 175.788 175.262 174.549 173.958 173.094 177.131 176.762 
176.065 175.61 174.786 174.25 173.323 172.757 171.839 176.934 176.745 
176.033 175.722 174.834 174.353 173.354 172.86 171.951 171.496 170.677 
176.525 176.404 175.742 175.561 174.764 174.349 173.368 172.855 171.96 
171.55 170.8 170.382 169.601 176.122 175.995 175.368 175.235 174.556 
174.265 173.406 172.924 172.051 171.6 170.888 170.497 169.797 169.318 
168.547 175.776 175.65 175.048 174.892 174.233 174.03 173.271 172.938 
172.122 171.717 170.985 170.606 169.938 169.52 168.814 168.32 167.639 
175.444 175.345 174.766 174.595 173.909 173.703 172.967 172.739 171.991 
171.707 170.972 170.654 169.951 169.615 168.919 168.537 167.852 167.448 
166.837 175.573 175.957 176.074 176.679 176.355 176.497 177.089 177.153 
177.611 176.481 176.796 177.408 177.559 178.029 178.018 178.38 176.327 
176.735 177.347 177.705 178.259 178.432 178.903 178.861 179.275 176.279 
176.58 177.152 177.511 178.129 178.519 179.149 179.359 179.84 179.797 
180.082 176.336 176.613 177.165 177.403 177.988 178.354 179.054 179.459 
180.017 180.189 180.403 180.339 180.324 176.207 176.588 177.135 177.435 
177.967 178.282 178.912 179.317 179.906 180.201 180.473 180.503 180.5 
180.384 180.346 175.97 176.357 176.899 177.296 177.856 178.227 178.81 
179.179 179.733 180.053 180.434 180.558 180.713 180.624 180.695 180.533 
180.643 175.81 176.128 176.67 177.055 177.694 178.098 178.74 179.081 
179.607 179.89 180.301 180.525 180.826 180.889 181.061 180.955 181.051 
180.902 180.975 
POINT_DATA 1002
SCALARS Distance double
LOOKUP_TABLE default
172.134 173.022 172.171 171.201 171.265 171.122 170.15 170.296 170.085 
169.893 168.981 169.223 168.896 168.765 168.505 167.771 168.112 167.568 
167.47 167.289 167.125 166.615 167.032 166.248 166.039 165.905 165.825 
165.82 165.44 165.927 164.993 164.662 164.49 164.455 164.519 164.574 
164.227 164.825 163.737 163.371 163.183 163.162 163.245 163.339 163.412 
163.148 163.859 162.579 162.16 161.936 161.91 161.999 162.118 162.227 
162.374 162.267 163.073 161.612 161.109 160.781 160.668 160.717 160.848 
161.016 161.21 161.455 173.415 172.541 173.887 173.018 174.404 171.673 
173.5 174.867 172.144 170.726 173.877 175.171 172.545 171.124 169.601 
174.129 175.325 172.906 171.486 169.926 168.442 174.307 175.484 173.198 
171.888 170.305 168.789 167.378 174.497 175.674 173.351 172.133 170.669 
169.2 167.826 166.347 174.67 175.74 173.47 172.202 170.832 169.495 
168.266 166.901 165.348 174.738 175.642 173.608 172.315 170.953 169.657 
168.516 167.355 165.973 164.471 174.996 173.992 174.304 173.078 173.379 
172.709 171.909 172.17 171.622 171.282 170.661 170.982 170.373 170.15 
169.877 169.517 169.913 169.104 168.855 168.702 168.587 168.324 168.794 
167.828 167.434 167.269 167.31 167.397 167.208 167.784 166.633 166.106 
165.8 165.861 166.082 166.141 166.467 167.022 165.848 165.193 164.677 
164.578 164.787 164.883 164.722 165.872 166.281 165.347 164.675 163.979 
163.601 163.621 163.669 163.497 163.238 161.747 161.817 160.198 162.061 
160.111 158.46 162.309 160.327 158.271 156.743 162.445 160.705 158.524 
156.576 155.208 162.74 161.113 159.06 156.914 155.141 153.966 163.397 
161.674 159.666 157.574 155.608 154.095 153.214 164.146 162.392 160.318 
158.308 156.427 154.787 153.626 152.987 164.707 163.046 161.036 159.096 
157.355 155.802 154.554 153.66 153.093 165.099 163.553 161.755 160.002 
158.382 156.897 155.679 154.723 153.924 153.334 160.873 159.269 160.202 
157.515 158.598 159.71 155.798 156.86 158.152 159.435 154.306 155.191 
156.523 157.991 159.391 153.279 153.882 155.059 156.591 158.099 159.513 
152.809 153.115 153.97 155.361 156.929 158.379 159.744 152.74 152.807 
153.306 154.336 155.816 157.354 158.748 160.035 152.89 152.825 153.082 
153.691 154.817 156.318 157.813 159.146 160.355 153.31 153.094 153.619 
153.733 154.404 153.245 154.746 155.46 154.082 153.593 155.791 156.51 
155.13 154.468 154.269 156.789 157.608 156.105 155.516 155.197 155.51 
157.909 158.785 157.116 156.567 156.32 156.477 157.067 159.063 159.881 
158.284 157.721 157.498 157.578 157.959 158.546 160.149 160.915 159.456 
158.955 158.739 158.738 158.936 159.359 159.871 161.281 162.018 160.599 
160.129 159.959 159.95 160.013 160.269 160.682 161.088 154.015 153.977 
154.938 155.01 156.023 154.362 156.36 157.208 155.641 155.295 157.786 
158.48 157.288 156.754 156.423 159.118 159.84 158.777 158.377 157.781 
157.496 160.48 161.209 160.04 159.701 159.164 158.73 158.676 161.895 
162.474 161.435 161.015 160.522 160.122 159.965 159.918 163.193 163.621 
162.88 162.533 162.067 161.684 161.479 161.274 161.042 164.328 164.694 
164.114 163.924 163.592 163.227 162.994 162.75 162.401 162.122 165.86 
164.398 165.266 163.75 164.807 162.737 163.438 164.617 162.269 161.126 
163.299 164.49 162.093 160.884 159.592 163.145 164.363 161.912 160.697 
159.381 158.04 163.136 164.368 161.866 160.577 159.235 157.899 156.709 
163.271 164.451 162.045 160.723 159.307 157.951 156.776 155.718 163.414 
164.54 162.241 160.955 159.535 158.142 156.93 155.853 154.828 167.211 
166.833 168.234 167.856 169.261 166.304 168.929 170.276 167.394 165.928 
170.044 171.276 168.574 167.071 165.754 171.058 172.218 169.774 168.272 
166.855 165.61 171.996 173.17 170.824 169.484 168.005 166.712 165.54 
173.018 174.136 171.816 170.605 169.23 167.866 166.71 165.586 173.993 
174.941 172.819 171.639 170.421 169.073 167.836 166.753 165.636 174.743 