# vtk DataFile Version 4.0
vtk output
ASCII
DATASET POLYDATA
POINTS 1002 float
-104.692 -120.36 77.7787 -105.388 -121.296 77.376 -105.1 -120.688 76.7734 
-104.223 -119.844 77.1586 -104.892 -119.889 76.1583 -103.89 -119.432 78.2725 
-103.987 -118.965 76.4875 -104.714 -118.95 75.4531 -103.413 -118.783 77.5893 
-103.216 -118.206 78.8583 -103.829 -117.842 75.7244 -104.379 -117.98 74.6482 
-103.238 -117.656 76.8445 -102.903 -117.205 78.1155 -102.826 -116.536 79.4743 
-103.428 -116.787 74.8467 -103.921 -116.992 73.807 -103.008 -116.436 76.0254 
-102.638 -116.003 77.2888 -102.442 -115.461 78.7446 -102.265 -114.947 80.0986 
-102.92 -115.733 73.9553 -103.593 -115.808 73.1151 -102.507 -115.392 75.1253 
-102.108 -114.987 76.3675 -101.757 -114.589 77.8152 -101.483 -114.187 79.4156 
-101.256 -113.803 80.7248 -102.568 -114.449 73.283 -103.381 -114.455 72.6666 
-101.991 -114.273 74.2934 -101.485 -114.017 75.4765 -100.963 -113.797 76.7683 
-100.598 -113.521 78.3801 -100.416 -113.156 79.9922 -100.409 -112.716 81.2271 
-102.268 -113.161 72.7753 -103.076 -113.265 72.2187 -101.584 -113.035 73.6171 
-101.009 -112.893 74.7167 -100.453 -112.792 75.8993 -100.048 -112.613 77.3019 
-99.914 -112.273 78.9214 -99.9564 -111.831 80.389 -100.091 -111.354 81.5745 
-101.91 -112.132 72.176 -102.66 -112.348 71.6123 -101.241 -111.918 72.9516 
-100.677 -111.729 73.9616 -100.203 -111.6 75.1192 -99.8689 -111.43 76.4259 
-99.7562 -111.117 77.913 -99.8104 -110.698 79.3913 -99.8928 -110.251 80.7181 
-99.9587 -109.853 81.907 -101.568 -111.227 71.5205 -102.262 -111.488 71.0294 
-100.989 -110.916 72.2586 -100.498 -110.591 73.1965 -100.095 -110.32 74.2724 
-99.8271 -110.074 75.5228 -99.7222 -109.774 76.974 -99.7355 -109.427 78.4535 
-99.7838 -109.061 79.8129 -99.8004 -108.71 81.0862 -99.8008 -108.446 82.2609 
-105.983 -121.817 76.5785 -105.898 -120.955 75.9439 -106.878 -122.05 75.6877 
-106.841 -121.144 75.058 -107.88 -122.126 74.744 -105.722 -120.056 75.2806 
-107.762 -121.314 74.185 -108.868 -122.189 73.7901 -106.533 -120.303 74.387 
-105.401 -119.152 74.5262 -108.778 -121.275 73.2781 -110.059 -122.008 72.9069 
-107.406 -120.443 73.5032 -106.154 -119.353 73.6404 -105.023 -118.142 73.7442 
-110.052 -120.921 72.3793 -111.473 -121.505 72.2395 -108.501 -120.303 72.512 
-107.117 -119.391 72.7076 -105.952 -118.178 72.9404 -104.753 -116.96 73.0532 
-111.364 -120.511 71.6986 -112.716 -121.042 71.6679 -109.695 -120.071 71.6034 
-108.117 -119.38 71.6677 -106.901 -118.25 72.019 -105.789 -116.894 72.3908 
-104.559 -115.609 72.5647 -112.475 -120.073 71.1415 -113.629 -120.641 70.9617 
-110.836 -119.743 71.0015 -109.082 -119.286 70.8289 -107.657 -118.364 71.0242 
-106.574 -117.015 71.5366 -105.486 -115.562 71.9634 -104.267 -114.291 72.1488 
-113.384 -119.404 70.54 -114.352 -120.029 70.2752 -111.887 -119.105 70.4745 
-110.135 -118.857 70.2089 -108.562 -118.197 70.2035 -107.34 -117.042 70.6446 
-106.275 -115.657 71.1815 -105.111 -114.329 71.495 -103.843 -113.229 71.5895 
-114.092 -118.629 70.002 -114.95 -119.267 69.8409 -112.744 -118.336 69.8774 
-111.111 -118.252 69.5433 -109.608 -117.842 69.4415 -108.388 -116.87 69.8569 
-107.282 -115.629 70.4671 -106.077 -114.4 70.8591 -104.727 -113.283 70.9949 
-103.386 -112.323 71.0074 -114.935 -118.159 69.5791 -113.729 -117.744 69.3747 
-114.556 -117.382 68.9004 -113.011 -117.256 68.325 -113.901 -116.718 67.8499 
-112.119 -117.732 68.8814 -112.236 -116.541 67.2583 -113.199 -115.647 67.0729 
-111.345 -117.268 67.7787 -110.566 -117.608 68.5768 -111.676 -115.011 66.84 
-112.548 -114.313 67.1087 -110.731 -116.032 67.1689 -110.051 -116.687 67.9709 
-109.386 -116.786 68.9752 -111.301 -113.33 67.2313 -112.024 -113.166 67.8269 
-110.381 -113.98 67.2636 -109.609 -114.937 67.9291 -109.109 -115.414 68.9166 
-108.349 -115.491 69.8039 -111.051 -112.069 68.1749 -111.692 -111.973 68.8386 
-110.174 -112.27 67.9386 -109.246 -112.91 68.267 -108.61 -113.638 69.0396 
-108.027 -114.006 69.8556 -107.09 -114.21 70.4008 -110.82 -110.761 69.2903 
-111.385 -110.502 69.8358 -109.961 -111.021 69.0259 -108.929 -111.338 69.0478 
-108.036 -111.788 69.3647 -107.343 -112.249 69.9264 -106.527 -112.659 70.3668 
-105.549 -113.027 70.6183 -110.415 -109.232 70.1908 -110.926 -109.049 70.6333 
-109.599 -109.559 70.0157 -108.553 -109.862 70.0015 -107.519 -110.068 69.9751 
-106.634 -110.311 70.1134 -105.76 -110.753 70.3983 -104.806 -111.366 70.5255 
-103.959 -111.936 70.636 -109.84 -107.827 70.7923 -110.371 -107.841 71.2244 
-109.095 -107.948 70.5634 -108.128 -108.164 70.5249 -107.084 -108.36 70.3993 
-106.107 -108.52 70.2209 -105.158 -108.822 70.2893 -104.158 -109.433 70.4419 
-103.245 -110.244 70.4698 -102.612 -110.975 70.6076 -101.515 -110.254 70.8251 
-101.876 -109.444 70.4424 -100.998 -108.623 70.772 -102.595 -108.478 70.2778 
-101.42 -107.593 70.3191 -100.73 -106.704 70.8316 -103.624 -107.642 70.0886 
-102.236 -106.595 69.9705 -101.232 -105.574 70.3025 -100.6 -104.706 70.9785 
-104.725 -107.12 69.9048 -103.34 -105.865 69.633 -102.104 -104.606 69.924 
-101.189 -103.556 70.5913 -100.52 -102.8 71.3181 -105.807 -106.784 70.0744 
-104.565 -105.329 69.5727 -103.293 -103.889 69.6836 -102.155 -102.649 70.3731 
-101.262 -101.846 71.1418 -100.521 -101.181 71.9034 -106.899 -106.52 70.4349 
-105.828 -104.885 69.9604 -104.712 -103.358 69.7992 -103.506 -102.033 70.2252 
-102.451 -101.18 70.9296 -101.54 -100.577 71.7317 -100.775 -99.9484 72.6167 
-107.908 -106.415 70.6775 -106.931 -104.735 70.4776 -106.059 -103.149 70.3118 
-104.995 -101.797 70.4503 -103.904 -100.803 70.8422 -102.952 -100.081 71.4883 
-102.057 -99.4424 72.365 -101.353 -98.9856 73.3303 -108.743 -106.499 70.9757 
-107.761 -104.963 70.9994 -107.022 -103.372 70.9761 -106.212 -101.967 71.0676 
-105.227 -100.825 71.2841 -104.309 -99.8282 71.6555 -103.457 -98.9336 72.2663 
-102.636 -98.3457 73.077 -102.021 -98.1924 74.02 -109.441 -106.657 71.4353 
-108.479 -105.311 71.585 -107.731 -103.804 71.655 -107.1 -102.326 71.7342 
-106.31 -101.056 71.9367 -105.435 -99.9255 72.258 -104.631 -98.8238 72.6462 
-103.837 -97.9407 73.1333 -103.091 -97.5426 73.8183 -102.534 -97.5815 74.7386 
-100.936 -109.894 71.4285 -100.55 -108.134 71.5295 -100.501 -109.442 72.336 
-100.311 -106.152 71.6891 -100.197 -107.599 72.5544 -100.122 -108.987 73.3802 
-100.11 -104.129 71.8454 -99.9286 -105.654 72.772 -99.8695 -107.111 73.6718 
-99.8335 -108.593 74.5501 -99.9593 -102.104 72.2277 -99.7231 -103.615 73.0454 
-99.6951 -105.221 74.0854 -99.7187 -106.671 75.0093 -99.7161 -108.226 76.0029 
-99.9834 -100.394 72.9448 -99.6521 -101.492 73.5961 -99.6629 -103.197 74.671 
-99.7584 -104.796 75.7097 -99.7437 -106.276 76.6507 -99.7004 -107.902 77.6264 
-100.405 -99.3281 73.7898 -99.8315 -99.9024 74.3952 -99.6847 -101.186 75.383 
-99.7946 -102.868 76.5111 -99.8459 -104.429 77.4454 -99.7388 -106.019 78.3201 
-99.6988 -107.639 79.147 -101.159 -98.7033 74.6013 -100.429 -99.1463 75.2775 
-99.9185 -99.8422 76.164 -99.714 -101.102 77.2557 -99.7642 -102.652 78.241 
-99.7848 -104.257 79.06 -99.7023 -105.891 79.8504 -99.6992 -107.396 80.5442 
-101.857 -98.1591 75.3914 -101.216 -98.7249 76.1605 -100.552 -99.2166 77.0028 
-99.9406 -99.9533 77.9727 -99.647 -101.141 78.9598 -99.6984 -102.64 79.7993 
-99.7679 -104.262 80.5536 -99.7197 -105.817 81.268 -99.7008 -107.199 81.8497 
-102.534 -97.4012 76.0204 -101.976 -98.0196 76.8637 -102.593 -97.2269 77.6183 
-102.102 -97.8571 78.5105 -102.825 -97.1585 79.2812 -101.433 -98.6539 77.749 
-102.363 -97.875 80.087 -103.262 -97.3042 80.8917 -101.664 -98.647 79.3484 
-100.747 -99.268 78.6482 -102.754 -98.1036 81.6684 -103.717 -97.5432 82.4891 
-102.002 -98.886 80.8601 -101.059 -99.4952 80.2381 -100.055 -100.108 79.6312 
-103.13 -98.39 83.2699 -104.161 -97.982 83.8527 -102.323 -99.1894 82.46 
-101.44 -99.8728 81.7986 -100.4 -100.438 81.2621 -99.7587 -101.348 80.5815 
-103.601 -98.8894 84.6234 -104.769 -98.7628 84.9145 -102.649 -99.4641 84.0219 
-101.753 -100.187 83.3466 -100.816 -100.824 82.7962 -100.12 -101.702 82.1692 
-99.8426 -102.93 81.3786 -104.198 -99.5711 85.7834 -105.428 -99.5383 85.9353 
-103.155 -99.9141 85.3567 -102.229 -100.577 84.7049 -101.32 -101.298 84.0737 
-100.599 -102.175 83.4777 -100.158 -103.343 82.8264 -99.8809 -104.604 82.0866 
-104.734 -100.196 86.8159 -105.954 -100.141 86.8442 -103.682 -100.477 86.5253 
-102.855 -101.152 85.8951 -102.07 -101.994 85.14 -101.301 -102.861 84.4497 
-100.641 -103.897 83.8862 -100.11 -105.039 83.3712 -99.7822 -106.137 82.7001 
-105.259 -100.89 87.4835 -106.43 -100.842 87.3972 -104.169 -101.124 87.3833 
-103.36 -101.792 86.9074 -102.746 -102.751 86.1558 -102.115 -103.658 85.3606 
-101.379 -104.545 84.7048 -100.605 -105.544 84.2584 -100.017 -106.553 83.813 
-99.7813 -107.506 83.1255 -103.281 -97.0791 74.9518 -103.304 -96.8867 76.3664 
-104.306 -96.937 75.3984 -104.545 -96.7061 76.9253 -105.719 -96.9985 76.0376 
-103.521 -96.7756 78.0953 -106.155 -96.6612 77.5805 -107.192 -97.06 76.7162 
-104.993 -96.669 78.6875 -103.992 -96.8844 79.8538 -107.689 -96.7228 78.1434 
-108.415 -97.3626 77.3146 -106.645 -96.6586 79.2662 -105.55 -96.9022 80.4688 
-104.539 -97.1202 81.5718 -109.044 -97.1302 78.6243 -109.535 -97.9475 77.8265 
-108.223 -96.7484 79.7609 -107.151 -96.879 81.0707 -106.038 -97.1231 82.2165 
-104.988 -97.4082 83.1155 -110.253 -97.7363 79.1424 -110.579 -98.562 78.3226 
-109.733 -97.11 80.2242 -108.829 -96.9111 81.572 -107.673 -97.0884 82.7942 
-106.519 -97.4919 83.6189 -105.54 -98.0796 84.2505 -111.152 -98.4319 79.6235 
-111.368 -99.312 78.7852 -110.882 -97.7052 80.6272 -110.335 -97.3131 81.8534 
-109.379 -97.2996 83.1156 -108.212 -97.6545 84.06 -107.153 -98.2881 84.6624 
-106.26 -98.9755 85.2456 -111.859 -99.32 79.904 -112.026 -100.222 79.1068 
-111.643 -98.5298 80.8693 -111.299 -98.0754 81.9783 -110.684 -97.974 83.1508 
-109.734 -98.1218 84.2689 -108.68 -98.496 85.135 -107.748 -99.0563 85.7336 
-106.861 -99.6433 86.2798 -112.625 -100.215 80.0201 -112.749 -101.002 79.292 
-112.386 -99.4782 80.9753 -112.011 -98.9971 82.1059 -111.532 -98.8419 83.2265 
[...]
CELL_DATA 2000
SCALARS Distance double
LOOKUP_TABLE default
176.771 175.879 176.181 175.878 174.877 175.228 174.895 175.243 174.927 
173.732 174.141 173.759 174.161 173.791 174.209 173.872 172.453 172.901 
172.48 172.929 172.509 172.97 172.606 173.09 172.763 171.122 171.556 
171.104 171.58 171.136 171.618 171.224 171.751 171.442 171.97 171.675 
169.826 170.204 169.708 170.173 169.724 170.212 169.793 170.323 170.002 
170.593 170.347 170.901 170.649 168.604 168.918 168.375 168.787 168.336 
168.808 168.408 168.906 168.583 169.149 168.933 169.54 169.354 169.909 
169.7 167.45 167.717 167.152 167.495 167.029 167.457 167.083 167.562 
167.267 167.79 167.587 168.165 168.019 168.601 168.437 168.98 168.792 
166.355 166.59 166.025 166.319 165.839 166.206 165.815 166.264 165.96 
166.484 166.266 166.847 166.693 167.287 167.141 167.708 167.544 168.084 
167.925 177.183 177.507 177 176.287 177.802 177.309 176.569 176.054 
175.295 178.07 177.602 176.869 176.329 175.515 174.996 174.169 178.304 
177.857 177.126 176.607 175.763 175.211 174.329 173.806 172.92 178.53 
178.067 177.31 176.817 175.976 175.442 174.558 173.998 173.093 172.539 
171.637 178.782 178.299 177.524 176.999 176.159 175.629 174.772 174.236 
173.36 172.778 171.865 171.279 170.385 178.927 178.523 177.752 177.237 
176.373 175.821 174.94 174.421 173.555 173.031 172.131 171.548 170.622 
170.046 169.172 178.825 178.553 177.781 177.384 176.501 176.005 175.081 
174.568 173.679 173.186 172.316 171.786 170.88 170.299 169.39 168.84 
168.004 178.561 178.35 177.583 177.285 176.419 176.032 175.137 174.681 
173.826 173.337 172.533 172.005 171.184 170.588 169.716 169.098 168.23 
167.686 166.897 178.181 177.206 177.524 177.136 176.046 176.433 175.988 
176.372 175.953 174.677 175.153 174.72 175.169 174.762 175.162 174.732 
173.251 173.694 173.263 173.815 173.476 173.975 173.611 173.969 173.518 
172.152 172.354 171.835 172.301 171.986 172.609 172.357 172.86 172.479 
172.778 172.282 171.478 171.478 170.899 171.054 170.658 171.124 170.907 
171.518 171.236 171.694 171.205 171.493 170.923 170.847 170.891 170.337 
170.345 169.848 170.006 169.636 170.072 169.749 170.302 169.829 170.274 
169.646 170.007 169.395 170.004 170.165 169.602 169.731 169.147 169.256 
168.658 168.88 168.316 168.749 168.186 168.713 168.072 168.56 167.906 
168.38 167.833 169.07 169.231 168.592 168.802 168.128 168.345 167.603 
167.807 167.028 167.316 166.59 167.028 166.364 166.88 166.256 166.794 
166.266 166.832 166.44 165.572 165.259 164.957 164.129 165.128 164.658 
163.677 163.451 162.669 165.195 164.583 163.497 163.06 162.148 161.983 
161.281 165.467 164.735 163.619 162.992 161.993 161.585 160.799 160.66 
160.063 165.97 165.133 164.028 163.245 162.216 161.591 160.758 160.375 
159.786 159.614 159.163 166.593 165.739 164.666 163.791 162.788 161.996 
161.163 160.551 159.979 159.598 159.232 158.969 158.688 167.186 166.392 
165.4 164.527 163.616 162.751 161.991 161.196 160.637 160.032 159.691 
159.271 159.038 158.718 158.589 167.76 167.027 166.169 165.336 164.546 
163.699 163.049 162.206 161.683 160.909 160.529 159.915 159.643 159.186 
158.999 158.722 158.71 168.354 167.683 166.97 166.188 165.5 164.692 
164.104 163.308 162.812 162.03 161.614 160.887 160.548 159.918 159.651 
159.189 159.062 158.86 158.938 165.545 164.177 164.978 165.223 162.783 
163.613 163.919 164.729 165.051 161.418 162.234 162.573 163.427 163.799 
164.614 165.011 160.146 160.88 161.212 162.087 162.5 163.357 163.798 
164.638 165.138 159.107 159.641 159.908 160.745 161.231 162.11 162.625 
163.456 164.02 164.863 165.468 158.505 158.73 158.871 159.515 160.057 
160.936 161.604 162.412 163.043 163.82 164.486 165.291 165.935 158.433 
158.38 158.446 158.712 159.192 159.894 160.666 161.496 162.228 162.965 
163.631 164.375 165.05 165.806 166.417 158.704 158.561 158.702 158.64 
159.016 159.302 159.978 160.64 161.416 162.173 162.868 163.589 164.253 
164.971 165.612 166.303 166.862 159.044 158.961 159.234 159.118 159.475 
159.435 159.928 160.185 160.847 161.415 162.142 162.838 163.55 164.244 
164.918 165.567 166.169 166.773 167.296 159.305 159.93 159.61 159.623 
160.724 160.329 160.394 160.008 159.976 161.73 161.207 161.273 160.856 
160.882 160.388 160.38 162.912 162.296 162.344 161.844 161.924 161.379 
161.39 160.885 161.094 164.133 163.497 163.529 162.992 163.097 162.529 
162.58 161.986 162.156 161.77 162.249 165.428 164.734 164.743 164.173 
164.261 163.722 163.799 163.225 163.391 162.916 163.336 163.055 163.66 
166.807 166.076 166.045 165.404 165.472 164.899 165.005 164.445 164.637 
164.157 164.546 164.201 164.742 164.482 165.045 168.065 167.407 167.332 
166.701 166.759 166.171 166.33 165.738 165.97 165.429 165.794 165.391 
165.869 165.565 166.054 165.794 166.268 169.139 168.561 168.479 167.908 
167.959 167.441 167.644 167.121 167.388 166.83 167.14 166.645 167.028 
166.655 167.074 166.776 167.191 166.943 167.366 159.321 159.789 159.6 
159.905 160.787 160.296 160.522 160.32 160.741 162.087 161.475 161.673 
161.212 161.6 161.332 161.838 163.382 162.792 162.998 162.491 162.873 
162.443 162.906 162.569 163.077 164.695 164.1 164.325 163.813 164.197 
163.764 164.206 163.777 164.195 163.832 164.303 166.028 165.459 165.717 
165.179 165.562 165.092 165.534 165.08 165.485 165.029 165.45 165.088 
165.611 167.257 166.76 167.023 166.55 166.92 166.47 166.899 166.432 
166.853 166.359 166.793 166.34 166.848 166.481 167.029 168.396 167.935 
168.171 167.757 168.095 167.731 168.147 167.765 168.186 167.74 168.156 
167.702 168.156 167.755 168.231 167.872 168.308 169.473 169.043 169.269 
168.859 169.179 168.829 169.244 168.926 169.365 169.007 169.405 169 
169.37 168.98 169.351 169.002 169.362 169.026 169.362 168.476 168.294 
167.992 167.156 168.097 167.801 166.975 166.633 165.758 167.973 167.624 
166.821 166.467 165.612 165.246 164.4 168.034 167.594 166.796 166.372 
165.525 165.119 164.274 163.922 163.13 168.171 167.714 166.915 166.438 
165.587 165.098 164.234 163.816 163.025 162.692 161.959 168.309 167.852 
167.079 166.6 165.787 165.253 164.401 163.871 163.076 162.648 161.928 
161.572 160.889 168.572 168.059 167.346 166.823 166.094 165.537 164.769 
164.167 163.408 162.847 162.137 161.646 160.952 160.552 159.944 168.978 
168.438 167.794 167.215 166.557 165.959 165.277 164.644 163.951 163.317 
162.641 162.023 161.337 160.757 160.129 159.716 159.296 169.411 168.905 
168.321 167.75 167.149 166.535 165.912 165.253 164.606 163.938 163.308 
162.646 162.014 161.323 160.708 160.093 159.666 159.282 159.126 169.255 
170.371 169.573 169.096 171.566 170.734 170.246 169.405 168.899 172.791 
171.968 171.481 170.591 170.067 169.215 168.762 173.947 173.186 172.723 
171.841 171.314 170.43 169.982 169.165 168.817 175.025 174.319 173.906 
173.07 172.556 171.681 171.236 170.421 170.072 169.285 168.959 176.054 
175.386 175.035 174.26 173.803 172.934 172.483 171.659 171.3 170.528 
170.189 169.408 169.078 177.027 176.388 176.064 175.379 175.004 174.202 
173.774 172.923 172.528 171.728 171.382 170.615 170.293 169.537 169.282 
177.96 177.332 176.997 176.367 176.029 175.35 174.97 174.194 173.785 
172.969 172.592 171.804 171.483 170.739 170.492 169.79 169.621 178.845 
178.249 177.913 177.288 176.95 176.32 175.971 175.3 174.926 174.186 
173.81 173.03 172.69 171.931 171.663 170.967 170.779 170.134 169.998 
179.193 179.391 178.975 178.291 179.546 179.164 178.492 178.036 177.32 
179.689 179.315 178.665 178.224 177.481 177.032 176.314 179.9 179.491 
178.85 178.399 177.656 177.179 176.414 175.997 175.28 180.143 179.739 
179.098 178.619 177.873 177.362 176.578 176.107 175.357 174.947 174.215 
180.254 179.927 179.276 178.852 178.072 177.572 176.751 176.267 175.48 
175.041 174.277 173.862 173.116 180.252 179.941 179.267 178.929 178.15 
177.717 176.876 176.408 175.594 175.15 174.367 173.934 173.173 172.77 
172.077 180.311 179.936 179.262 178.904 178.209 177.792 177.034 176.549 
175.772 175.283 174.525 174.053 173.313 172.866 172.181 171.795 171.192 
180.393 180.029 179.403 179.012 178.424 177.98 177.347 176.818 176.114 
175.553 174.837 174.298 173.601 173.088 172.42 171.96 171.35 170.969 
170.42 180.148 179.434 179.643 179.263 178.557 178.923 178.667 178.797 
178.351 177.444 177.943 177.757 178.114 177.723 177.828 177.27 176.277 
176.752 176.526 177.033 176.682 177.015 176.455 176.605 175.979 175.171 
175.582 175.275 175.746 175.382 175.811 175.305 175.616 175.022 175.235 
174.654 173.933 174.391 173.998 174.473 174.068 174.506 174.039 174.408 
173.898 174.2 173.674 173.915 173.401 172.529 173.016 172.562 173.086 
172.665 173.172 172.736 173.164 172.691 173.056 172.565 172.881 172.379 
172.658 172.19 171.195 171.617 171.184 171.641 171.257 171.756 171.385 
171.857 171.429 171.835 171.348 171.714 171.213 171.563 171.101 171.449 
171.07 170.056 170.408 170.05 170.404 170.064 170.46 170.136 170.562 
170.201 170.596 170.158 170.504 170.029 170.372 169.937 170.316 169.968 
170.374 170.105 180.597 180.809 180.389 179.731 180.869 180.471 179.751 
179.431 178.768 180.972 180.535 179.852 179.466 178.793 178.416 177.706 
180.994 180.636 180.011 179.664 179.066 178.582 177.845 177.346 176.611 
180.677 180.482 179.817 179.704 179.151 178.861 178.104 177.573 176.721 
176.257 175.513 180.242 180.044 179.296 179.264 178.663 178.663 177.911 
177.643 176.692 176.3 175.419 175.095 174.296 179.975 179.705 178.934 
178.722 178.024 177.996 177.274 177.189 176.292 176.063 175.149 174.896 
174.046 173.77 172.919 179.694 179.508 178.755 178.45 177.655 177.44 
176.697 176.558 175.777 175.596 174.77 174.552 173.725 173.473 172.623 
172.346 171.533 179.188 179.151 178.438 178.228 177.4 177.131 176.328 
176.109 175.364 175.171 174.426 174.208 173.419 173.155 172.309 172.029 
171.204 170.985 170.294 181.215 182.387 181.762 181.563 183.47 182.961 
182.82 182.047 181.69 184.263 183.93 183.901 183.3 183.016 182.179 
181.795 184.891 184.6 184.586 184.221 184.08 183.477 183.15 182.305 
181.84 185.475 185.177 185.057 184.758 184.611 184.299 184.048 183.503 
183.004 182.186 181.535 185.783 185.635 185.451 185.172 184.904 184.642 
184.305 184.023 183.507 183.033 182.345 181.665 181.005 185.695 185.726 
185.56 185.433 185.142 184.891 184.459 184.134 183.535 183.19 182.522 
182.152 181.546 181.079 180.586 185.523 185.556 185.41 185.383 185.134 
185.019 184.644 184.334 183.744 183.27 182.59 182.188 181.635 181.365 
180.936 180.625 180.2 185.51 185.462 185.313 185.228 184.969 184.902 
184.594 184.451 183.997 183.6 182.968 182.432 181.839 181.445 181.012 
180.774 180.376 180.114 179.645 185.521 185.297 185.394 185.234 184.774 
185.018 184.846 184.964 184.784 184.069 184.409 184.279 184.47 184.267 
184.463 184.34 183.214 183.647 183.528 183.82 183.598 183.853 183.683 
183.974 183.774 182.155 182.672 182.515 182.938 182.678 183.046 182.813 
183.194 182.959 183.248 182.839 181.039 181.536 181.356 181.817 181.56 
181.999 181.752 182.198 181.962 182.342 181.985 182.192 181.729 179.977 
180.432 180.248 180.675 180.459 180.883 180.687 181.117 180.924 181.323 
181.046 181.329 180.953 181.147 180.824 178.889 179.354 179.157 179.596 
179.392 179.828 179.654 180.089 179.913 180.318 180.077 180.406 180.081 
180.346 180.034 180.319 180.11 177.789 178.243 178.048 178.496 178.294 
178.75 178.558 179.025 178.821 179.274 179.028 179.425 179.118 179.444 
179.12 179.446 179.189 179.568 179.366 177.138 176.258 176.928 177.384 
175.347 176.043 176.499 177.17 177.631 174.341 175.098 175.567 176.271 
176.72 177.409 177.878 173.243 174.039 174.523 175.294 175.741 176.462 
176.907 177.634 178.11 172.133 172.908 173.379 174.198 174.687 175.459 
175.913 176.64 177.106 177.849 178.314 171.098 171.808 172.24 173.036 
173.546 174.378 174.891 175.654 176.125 176.849 177.308 178.029 178.436 
170.155 170.812 171.223 171.94 172.418 173.229 173.761 174.592 175.095 
175.865 176.315 177.034 177.443 178.124 178.482 169.25 169.893 170.304 
170.976 171.425 172.151 172.645 173.445 173.965 174.784 175.271 176.032 
176.458 177.15 177.545 178.195 178.577 168.377 168.995 169.399 170.065 
170.507 171.195 171.657 172.382 172.885 173.668 174.197 174.98 175.46 
176.177 176.598 177.273 177.69 178.344 178.754 178.626 177.512 178.037 
177.886 176.378 176.875 176.682 177.168 176.891 175.221 175.718 175.479 
175.946 175.653 176.112 175.817 173.943 174.487 174.221 174.716 174.382 
174.852 174.546 175.051 174.818 172.611 173.14 172.84 173.376 173.014 
173.526 173.175 173.726 173.477 174.063 173.865 171.36 171.811 171.458 
171.957 171.584 172.105 171.739 172.298 172.002 172.63 172.395 173.043 
172.816 170.184 170.575 170.171 170.604 170.221 170.702 170.37 170.886 
170.587 171.144 170.852 171.475 171.197 171.889 171.646 169.058 169.402 
168.972 169.351 168.953 169.39 169.07 169.568 169.296 169.798 169.495 
169.992 169.676 170.258 170.016 170.712 170.55 168.038 168.315 167.891 
168.205 167.803 168.171 167.816 168.276 167.984 168.505 168.219 168.707 
168.399 168.871 168.634 169.197 169.094 169.75 169.714 179.187 179.471 
179.622 180.187 179.607 179.879 180.5 180.657 181.273 179.501 179.922 
180.619 180.925 181.591 181.782 182.431 179.238 179.726 180.46 180.932 
181.645 181.998 182.643 182.885 183.456 178.938 179.409 180.081 180.644 
181.361 181.89 182.52 182.92 183.458 183.752 184.187 178.672 179.091 
179.677 180.196 180.873 181.475 182.12 182.636 183.152 183.573 184.035 
184.355 184.7 178.447 178.848 179.432 179.841 180.484 180.997 181.684 
182.205 182.777 183.208 183.698 184.104 184.568 184.845 185.131 178.182 
178.63 179.251 179.651 180.273 180.696 181.37 181.844 182.487 182.899 
183.432 183.8 184.304 184.667 185.083 185.271 185.45 177.825 178.318 
178.928 179.413 179.996 180.456 181.043 181.534 182.148 182.627 183.174 
183.567 184.029 184.398 184.803 185.126 185.375 185.512 185.56 179.207 
180.2 179.655 179.592 181.309 180.706 180.662 180.093 180.06 182.519 
181.906 181.902 181.261 181.254 180.622 180.541 183.579 183.096 183.117 
182.537 182.538 181.896 181.795 181.072 180.801 184.302 183.99 183.964 
183.574 183.549 183.093 182.988 182.332 181.987 181.18 180.708 184.773 
184.542 184.442 184.176 184.107 183.87 183.842 183.416 183.14 182.367 
181.833 180.98 180.477 185.127 184.914 184.763 184.523 184.435 184.287 
184.359 184.152 184.065 183.479 183.014 182.139 181.561 180.751 180.311 
185.382 185.199 185.011 184.789 184.673 184.561 184.639 184.586 184.597 
184.284 183.903 183.219 182.581 181.797 181.234 180.558 180.13 185.504 
185.388 185.205 185.011 184.859 184.744 184.728 184.736 184.688 184.603 
184.234 183.848 183.177 182.595 181.922 181.344 180.818 180.279 179.834 
178.603 179 178.459 177.719 179.437 178.878 178.121 177.503 176.603 
179.836 179.293 178.485 177.871 176.905 176.255 175.223 180.031 179.596 
178.747 178.178 177.172 176.513 175.454 174.814 173.826 179.943 179.645 
178.834 178.37 177.394 176.765 175.742 175.09 174.183 173.558 172.781 
179.757 179.496 178.767 178.403 177.524 176.978 176.02 175.413 174.573 
173.995 173.29 172.701 172.072 179.638 179.358 178.676 178.346 177.562 
177.104 176.231 175.692 174.887 174.375 173.686 173.178 172.515 171.998 
171.36 179.497 179.251 178.567 178.271 177.532 177.152 176.365 175.901 
175.147 174.672 173.989 173.515 172.834 172.341 171.64 171.176 170.503 
179.242 179.054 178.368 178.126 177.413 177.114 176.394 176.024 175.323 
174.909 174.238 173.794 173.108 172.622 171.904 171.415 170.714 170.266 
169.606 181.083 181.039 181.447 182.204 180.913 181.325 182.062 182.532 
183.224 180.824 181.172 181.797 182.274 182.968 183.447 184.026 180.701 
181.054 181.618 182.012 182.662 183.141 183.829 184.234 184.762 180.478 
180.875 181.455 181.845 182.452 182.876 183.553 184.027 184.684 185.014 
185.441 180.252 180.632 181.202 181.627 182.205 182.639 183.219 183.708 
184.313 184.815 185.288 185.584 185.766 180.105 180.438 180.978 181.361 
181.94 182.358 182.927 183.353 183.885 184.355 184.792 185.224 185.438 
185.685 185.671 179.983 180.316 180.868 181.197 181.819 182.179 182.853 
183.184 183.774 184.049 184.462 184.736 184.962 185.233 185.312 185.503 
185.494 179.802 180.176 180.747 181.107 181.755 182.138 182.887 183.243 
183.919 184.12 184.52 184.588 184.748 184.849 184.944 185.136 185.244 
185.412 185.488 
POINT_DATA 1002
SCALARS Distance double
LOOKUP_TABLE default
176.473 177.344 176.499 175.575 175.567 175.59 174.546 174.52 174.567 
174.627 173.36 173.318 173.374 173.437 173.557 172.028 172.015 172.055 
172.104 172.281 172.456 170.628 170.723 170.659 170.698 170.873 171.176 
171.396 169.262 169.494 169.235 169.282 169.402 169.735 170.133 170.42 
167.999 168.32 167.866 167.909 168.037 168.313 168.755 169.176 169.506 
166.835 167.195 166.623 166.599 166.744 167.022 167.43 167.876 168.261 
168.612 165.742 166.13 165.501 165.397 165.451 165.69 166.092 166.56 
166.992 167.384 167.783 177.707 176.798 178.019 177.114 178.275 175.799 
177.419 178.52 176.075 174.672 177.634 178.762 176.328 174.889 173.43 
177.808 179.023 176.492 175.11 173.678 172.175 178.069 179.256 176.7 
175.287 173.922 172.482 170.941 178.247 179.281 176.945 175.479 174.056 
172.69 171.223 169.703 178.135 179.061 176.965 175.596 174.171 172.814 
171.447 169.971 168.497 177.858 178.766 176.757 175.538 174.279 173.03 
171.758 170.35 168.827 167.367 177.922 176.795 176.902 175.604 175.636 
175.568 174.221 174.178 174.338 174.383 172.686 172.892 172.886 173.204 
173.247 171.487 172.08 171.337 171.74 172.132 172.062 170.871 171.487 
170.344 170.301 170.687 170.893 170.664 170.319 170.739 169.827 169.38 
169.235 169.33 169.269 169.008 169.44 169.837 169.051 168.569 168.032 
167.687 167.545 167.406 167.306 168.42 168.954 167.919 167.419 166.824 
166.231 165.857 165.693 165.672 165.824 164.763 164.284 163.342 164.022 
162.729 161.94 164.037 162.434 161.285 160.622 164.314 162.51 161.04 
160.079 159.494 164.857 162.916 161.229 160.012 159.274 158.726 165.538 
163.605 161.848 160.418 159.514 158.911 158.432 166.223 164.441 162.805 
161.327 160.171 159.393 158.816 158.524 166.942 165.345 163.855 162.49 
161.234 160.185 159.355 158.832 158.778 167.689 166.28 164.879 163.581 
162.368 161.244 160.218 159.384 158.973 159.066 164.429 163.072 164.259 
161.696 162.955 164.189 160.328 161.617 162.934 164.278 159.106 160.296 
161.786 163.161 164.628 158.363 159.149 160.735 162.297 163.678 165.159 
158.349 158.629 159.805 161.465 162.928 164.294 165.705 158.815 158.946 
159.478 160.657 162.132 163.551 164.921 166.216 159.293 159.598 159.885 
160.427 161.462 162.837 164.267 165.571 166.724 159.559 159.981 160.255 
160.755 161.168 160.45 161.701 162.324 161.367 160.832 162.868 163.549 
162.467 161.943 161.4 164.077 164.775 163.646 163.182 162.62 162.452 
165.354 166.156 164.8 164.342 163.878 163.679 163.881 166.722 167.547 
166.062 165.558 165.119 164.917 165.047 165.302 167.954 168.695 167.322 
166.896 166.541 166.254 166.213 166.35 166.514 169.034 169.689 168.45 
168.109 167.93 167.698 167.47 167.405 167.468 167.593 159.341 159.906 
160.126 160.862 161.379 160.806 162.19 162.696 161.973 162.027 163.495 
163.957 163.315 163.336 163.362 164.852 165.279 164.633 164.648 164.64 
164.587 166.248 166.561 166.056 166.002 165.957 165.863 165.903 167.475 
167.739 167.351 167.356 167.343 167.263 167.256 167.387 168.593 168.86 
168.447 168.49 168.599 168.619 168.59 168.623 168.683 169.678 169.883 
169.539 169.553 169.692 169.805 169.795 169.728 169.703 169.703 168.787 
167.502 168.596 167.308 168.388 166.118 167.18 168.353 165.978 164.743 
167.25 168.5 165.96 164.639 163.444 167.394 168.622 166.105 164.699 
163.369 162.267 167.543 168.766 166.303 164.958 163.549 162.313 161.208 
167.871 169.081 166.627 165.354 163.998 162.682 161.419 160.233 168.365 
169.492 167.149 165.898 164.584 163.275 161.971 160.623 159.535 170.028 
169.908 171.18 171.118 172.404 169.715 172.386 173.589 170.943 169.546 
173.588 174.668 172.199 170.804 169.599 174.706 175.704 173.427 172.046 
170.862 169.758 175.753 176.71 174.651 173.334 172.074 170.966 169.847 
176.705 177.669 175.737 174.626 173.365 172.149 171.034 170 177.627 
178.589 176.662 175.691 174.597 173.399 172.231 171.187 170.291 178.537 