# vtk DataFile Version 4.0
vtk output
ASCII
DATASET POLYDATA
POINTS 1002 float
-105.858 -123.525 72.6488 -106.551 -124.638 72.1549 -105.93 -124.296 71.5182 
-105.062 -123.246 72.0364 -105.307 -123.812 70.8521 -105.023 -122.455 73.1608 
-104.283 -122.781 71.367 -104.724 -123.076 70.117 -104.15 -122.087 72.5356 
-104.195 -121.217 73.7931 -103.665 -121.927 70.5939 -104.199 -122.09 69.2734 
-103.425 -121.367 71.8519 -103.459 -120.521 73.1921 -103.453 -119.76 74.6347 
-103.272 -120.659 69.7326 -103.746 -120.885 68.4672 -102.982 -120.155 71.1097 
-102.887 -119.465 72.5337 -102.757 -118.851 74.0903 -102.602 -118.333 75.5277 
-102.98 -119.128 68.9418 -103.372 -119.441 67.8343 -102.729 -118.602 70.3536 
-102.415 -118.116 71.8478 -102.034 -117.755 73.3885 -101.716 -117.38 74.9364 
-101.668 -116.882 76.2327 -102.581 -117.634 68.2756 -103.05 -117.921 67.2945 
-102.362 -117.113 69.6579 -101.899 -116.74 71.2012 -101.232 -116.626 72.657 
-100.832 -116.359 74.0952 -100.773 -115.863 75.5305 -100.927 -115.372 76.7816 
-102.051 -116.4 67.659 -102.76 -116.518 66.8298 -101.716 -116.03 68.9731 
-101.259 -115.65 70.5518 -100.464 -115.585 72.0084 -99.9972 -115.439 73.2994 
-100.082 -114.91 74.6588 -100.246 -114.375 76.078 -100.385 -114.037 77.3344 
-101.59 -115.259 67.1409 -102.506 -115.179 66.535 -101.034 -115.164 68.283 
-100.603 -114.815 69.7928 -99.9164 -114.559 71.2757 -99.3717 -114.42 72.5819 
-99.4595 -114.003 73.8889 -99.7486 -113.426 75.3141 -99.836 -113.04 76.7121 
-99.939 -112.802 77.8792 -101.329 -114 66.778 -102.268 -113.852 66.3468 
-100.656 -114.097 67.7215 -100.198 -113.876 69.0578 -99.669 -113.444 70.4412 
-99.1353 -113.104 71.7524 -99.0155 -112.78 73.1199 -99.2354 -112.323 74.5853 
-99.3709 -111.912 76.0304 -99.4232 -111.662 77.3007 -99.6398 -111.477 78.3087 
-106.848 -125.588 71.1982 -106.297 -125.127 70.4224 -107.264 -126.445 70.0953 
-106.73 -125.903 69.1976 -107.876 -126.996 68.9444 -105.807 -124.364 69.6518 
-107.409 -126.312 68.0335 -108.771 -127.074 67.7967 -106.34 -124.874 68.3793 
-105.346 -123.322 68.8481 -108.459 -126.137 66.9683 -109.768 -126.815 66.6552 
-107.152 -125.068 67.2767 -106.01 -123.563 67.6397 -104.858 -122.189 68.059 
-109.475 -125.75 65.8828 -110.607 -126.529 65.5671 -108.246 -124.826 66.2788 
-106.921 -123.618 66.6582 -105.645 -122.252 67.0515 -104.404 -120.919 67.4512 
-110.298 -125.4 64.8573 -111.508 -126.093 64.6592 -109.169 -124.463 65.2359 
-107.924 -123.404 65.6917 -106.594 -122.187 66.1598 -105.304 -120.838 66.6021 
-104.094 -119.388 66.9695 -111.36 -124.685 64.1549 -112.648 -125.239 64.037 
-110.073 -123.903 64.3695 -108.79 -122.999 64.7017 -107.478 -121.959 65.1579 
-106.218 -120.723 65.6693 -105.06 -119.282 66.1522 -103.91 -117.786 66.5296 
-112.583 -123.597 63.7463 -113.684 -124.203 63.5833 -111.258 -122.952 63.86 
-109.783 -122.322 63.9642 -108.32 -121.558 64.2066 -106.982 -120.541 64.6356 
-105.875 -119.24 65.2235 -104.887 -117.708 65.8489 -103.749 -116.253 66.2841 
-113.484 -122.663 63.3179 -114.363 -123.373 63.0725 -112.338 -122.008 63.4547 
-110.858 -121.537 63.4578 -109.271 -121.023 63.5021 -107.798 -120.205 63.7483 
-106.568 -119.08 64.2797 -105.635 -117.666 65.0966 -104.711 -116.103 65.8645 
-103.523 -114.762 66.2352 -114.331 -122.278 62.6059 -113.33 -121.511 62.8338 
-114.168 -121.15 62.0808 -112.823 -120.486 62.1043 -113.805 -119.809 61.5922 
-111.954 -120.96 62.8681 -112.113 -119.174 61.2886 -113.215 -118.195 61.1354 
-111.209 -119.965 62.0158 -110.325 -120.515 62.8468 -111.496 -117.46 60.7516 
-112.583 -116.6 60.8663 -110.555 -118.46 61.2949 -109.714 -119.233 62.2055 
-108.767 -119.762 63.0151 -111.113 -115.772 60.9395 -112.157 -115.161 61.2113 
-110.235 -116.618 61.2798 -109.391 -117.456 62.0458 -108.409 -118.074 62.7945 
-107.376 -118.618 63.493 -110.87 -114.232 61.828 -111.87 -113.788 62.1767 
-110.01 -114.895 62.0142 -109.166 -115.644 62.6015 -108.177 -116.187 63.1641 
-107.117 -116.655 63.7109 -106.242 -117.216 64.3927 -110.604 -112.786 62.9535 
-111.495 -112.575 63.3485 -109.711 -113.199 62.9366 -108.761 -113.851 63.3426 
-107.754 -114.388 63.8017 -106.783 -114.681 64.2402 -105.943 -115.071 64.8507 
-105.29 -115.611 65.4564 -110.236 -111.544 64.0728 -111.021 -111.509 64.4525 
-109.351 -111.625 63.8339 -108.3 -111.963 63.9294 -107.194 -112.459 64.208 
-106.228 -112.796 64.5054 -105.415 -113.052 65.0061 -104.726 -113.489 65.6373 
-104.128 -114.095 66.0494 -109.833 -110.366 65.0555 -110.586 -110.344 65.3347 
-108.946 -110.323 64.7639 -107.87 -110.36 64.6143 -106.714 -110.593 64.6111 
-105.676 -110.932 64.5938 -104.755 -111.279 64.6975 -103.926 -111.696 65.1454 
-103.275 -112.267 65.7078 -102.757 -113.009 66.0884 -101.439 -112.586 66.2709 
-101.768 -111.646 65.6921 -100.864 -111.243 66.3127 -102.219 -110.88 65.0161 
-101.023 -110.341 65.4059 -100.636 -109.721 66.7351 -103.035 -110.229 64.5401 
-101.452 -109.564 64.6774 -100.72 -108.839 65.8101 -100.514 -107.863 67.4533 
-104.138 -109.646 64.6309 -102.463 -108.765 64.6643 -101.218 -107.973 65.3958 
-100.69 -106.862 66.7899 -100.337 -105.641 68.0819 -105.244 -109.24 65.0452 
-103.746 -108.084 65.2852 -102.323 -107.081 65.6969 -101.335 -105.907 66.6069 
-100.756 -104.549 67.6345 -100.264 -103.41 68.5379 -106.401 -109.046 65.2988 
-104.958 -107.717 65.7982 -103.637 -106.386 66.1314 -102.462 -105.016 66.6311 
-101.585 -103.617 67.3394 -100.951 -102.409 68.0934 -100.399 -101.621 69.0281 
-107.655 -108.978 65.4279 -106.254 -107.504 65.9345 -104.99 -105.933 66.2544 
-103.828 -104.334 66.5839 -102.756 -102.841 67.0564 -101.938 -101.603 67.653 
-101.292 -100.769 68.5008 -100.71 -100.333 69.6642 -108.803 -108.946 65.6139 
-107.615 -107.296 65.9809 -106.438 -105.593 66.249 -105.323 -103.945 66.6131 
-104.17 -102.428 67.0634 -103.152 -101.14 67.5122 -102.396 -100.2 68.1601 
-101.746 -99.6534 69.1931 -101.182 -99.4055 70.4605 -109.74 -108.909 65.8215 
-108.795 -107.168 66.0926 -107.773 -105.423 66.3162 -106.743 -103.865 66.7684 
-105.642 -102.456 67.3722 -104.531 -101.18 67.8506 -103.64 -100.146 68.3244 
-102.93 -99.4239 69.1062 -102.276 -98.9909 70.1865 -101.763 -98.7795 71.3528 
-100.731 -112.696 67.0378 -100.505 -111.091 67.5823 -100.241 -112.624 68.2874 
-100.416 -109.203 68.3085 -100.103 -110.729 69.0229 -99.7618 -112.196 69.6342 
-100.158 -107.047 68.8667 -99.9401 -108.676 69.7131 -99.5867 -110.194 70.2952 
-99.2522 -111.639 70.9126 -99.8975 -104.682 69.2242 -99.7533 -106.483 70.2201 
-99.5961 -108.248 71.0876 -99.2634 -109.682 71.6756 -98.9638 -111.204 72.3558 
-99.8475 -102.547 69.722 -99.7027 -104.123 70.7233 -99.7873 -106.161 71.8888 
-99.6061 -107.868 72.7472 -99.1393 -109.248 73.356 -98.949 -110.811 73.9973 
-99.9833 -101.002 70.4454 -99.6634 -102.083 71.3951 -99.8181 -103.86 72.5641 
-99.9301 -105.885 73.6646 -99.5101 -107.454 74.4287 -98.9853 -108.851 75.0319 
-98.977 -110.44 75.5886 -100.371 -99.9166 71.2508 -99.7755 -100.671 72.1675 
-99.6136 -101.9 73.1951 -99.7854 -103.731 74.2697 -99.7287 -105.6 75.1784 
-99.2477 -107.101 75.8775 -98.8981 -108.586 76.474 -99.0295 -110.205 76.9582 
-101.015 -99.1085 72.0671 -100.317 -99.6966 72.9435 -99.7544 -100.564 73.8866 
-99.5354 -101.905 74.8466 -99.5912 -103.677 75.7448 -99.4961 -105.429 76.5069 
-99.1992 -106.977 77.1469 -99.0815 -108.526 77.674 -99.2765 -110.091 78.0611 
-101.992 -98.4298 72.6744 -101.351 -98.8118 73.5194 -102.395 -98.1721 74.1133 
-101.809 -98.6971 75.1123 -102.841 -98.0818 75.6853 -100.633 -99.5018 74.4967 
-102.206 -98.8263 76.6815 -103.312 -98.2347 77.1733 -101.01 -99.5391 76.1311 
-99.9092 -100.492 75.4784 -102.692 -99.2219 77.9529 -103.987 -98.6878 78.3205 
-101.408 -99.8502 77.5786 -100.219 -100.613 77.0757 -99.5673 -101.907 76.3945 
-103.471 -99.8661 79.0441 -104.79 -99.3812 79.3779 -102.034 -100.43 78.7714 
-100.746 -100.956 78.4777 -99.8931 -102.03 77.947 -99.5861 -103.723 77.2078 
-104.291 -100.579 80.2622 -105.437 -100.115 80.6282 -102.872 -101.146 79.9706 
-101.458 -101.52 79.7518 -100.43 -102.32 79.3862 -99.8783 -103.922 78.7083 
-99.5503 -105.605 77.8905 -104.925 -101.217 81.4644 -105.93 -100.82 81.8268 
-103.689 -101.804 81.1314 -102.279 -102.218 80.9035 -101.081 -102.824 80.6321 
-100.332 -104.259 80.0683 -99.8992 -105.976 79.2477 -99.4754 -107.336 78.4197 
-105.47 -101.918 82.4362 -106.433 -101.613 82.7397 -104.425 -102.465 82.0806 
-103.202 -103.019 81.768 -101.989 -103.604 81.5007 -101.039 -104.773 81.0729 
-100.454 -106.396 80.3672 -100.034 -107.795 79.5524 -99.5836 -108.95 78.7943 
-106.015 -102.801 83.2205 -106.975 -102.54 83.4331 -105.074 -103.28 82.9051 
-104.083 -103.941 82.4909 -103.072 -104.643 82.0834 -102.097 -105.589 81.69 
-101.292 -106.915 81.1543 -100.746 -108.235 80.4509 -100.294 -109.359 79.726 
-99.8658 -110.445 79.0336 -102.719 -98.4981 71.6326 -102.995 -98.0817 72.9317 
-103.975 -98.3868 72.0404 -104.392 -97.7171 73.1953 -105.561 -98.1493 72.3916 
-103.438 -97.6906 74.3455 -106.148 -97.1952 73.4206 -107.113 -97.9308 72.6707 
-104.975 -97.0945 74.5581 -103.98 -97.5348 75.9996 -107.677 -97.1152 73.7475 
-108.252 -98.3431 73.0469 -106.811 -96.6006 74.8222 -105.637 -97.0486 76.3178 
-104.627 -97.8233 77.5526 -108.73 -97.9459 74.2002 -109.173 -99.2864 73.476 
-108.276 -96.9329 75.2218 -107.451 -96.9456 76.6568 -106.317 -97.7167 77.908 
-105.392 -98.5092 78.6941 -109.754 -99.0765 74.5903 -110.157 -100.228 73.8401 
-109.38 -98.0473 75.6217 -108.923 -97.5134 77.0014 -108.076 -97.8634 78.2503 
-106.993 -98.6307 79.0929 -106.092 -99.3278 79.8529 -110.846 -100.103 74.9 
-111.065 -101.213 74.1913 -110.519 -99.2291 75.8866 -110.135 -98.534 77.2414 
-109.589 -98.2929 78.5732 -108.704 -98.7541 79.5505 -107.616 -99.4613 80.3952 
-106.647 -100.101 81.2151 -111.73 -101.198 75.1903 -111.782 -102.326 74.5126 
-111.593 -100.301 76.0723 -111.259 -99.6527 77.3256 -110.764 -99.1799 78.7281 
-110.141 -99.1589 79.9139 -109.285 -99.6337 80.8921 -108.205 -100.247 81.7538 
-107.187 -100.88 82.375 -112.412 -102.305 75.4064 -112.422 -103.356 74.7083 
-112.436 -101.34 76.2294 -112.264 -100.679 77.3433 -111.763 -100.29 78.6776 
[...]
CELL_DATA 2000
SCALARS Distance double
LOOKUP_TABLE default
177.532 176.614 176.898 176.516 175.552 175.916 175.515 175.83 175.432 
174.297 174.755 174.335 174.732 174.297 174.683 174.304 172.887 173.397 
172.953 173.435 172.978 173.444 173.046 173.521 173.185 171.399 171.913 
171.435 171.966 171.499 172.029 171.609 172.16 171.795 172.345 171.994 
169.906 170.389 169.894 170.427 169.971 170.513 170.084 170.65 170.256 
170.849 170.482 171.076 170.74 168.504 168.916 168.438 168.933 168.524 
169.03 168.63 169.142 168.767 169.315 168.988 169.561 169.289 169.873 
169.657 167.24 167.577 167.113 167.561 167.198 167.666 167.291 167.749 
167.383 167.888 167.602 168.154 167.946 168.508 168.346 168.911 168.772 
166.078 166.367 165.904 166.313 165.977 166.414 166.047 166.456 166.052 
166.52 166.203 166.78 166.574 167.187 167.019 167.617 167.46 168.051 
167.91 178.012 178.424 177.845 177.08 178.773 178.213 177.379 176.825 
175.995 179.011 178.506 177.63 177.063 176.138 175.624 174.725 179.098 
178.677 177.816 177.274 176.3 175.732 174.767 174.275 173.338 179.049 
178.693 177.873 177.417 176.478 175.904 174.914 174.346 173.383 172.868 
171.903 178.956 178.607 177.791 177.412 176.525 176.047 175.082 174.524 
173.543 172.971 171.983 171.43 170.443 178.862 178.511 177.671 177.299 
176.411 176.016 175.078 174.622 173.649 173.128 172.142 171.569 170.571 
169.999 169.049 178.705 178.398 177.558 177.182 176.284 175.886 174.961 
174.548 173.598 173.155 172.206 171.714 170.769 170.201 169.254 168.676 
167.793 178.447 178.202 177.4 177.062 176.192 175.791 174.889 174.457 
173.531 173.085 172.16 171.724 170.843 170.38 169.503 168.946 168.043 
167.469 166.627 178.029 177.011 177.356 176.972 175.792 176.223 175.801 
176.205 175.763 174.262 174.81 174.341 174.901 174.467 174.925 174.452 
172.606 173.135 172.644 173.301 172.914 173.52 173.079 173.553 173.064 
171.264 171.583 171.13 171.661 171.364 171.959 171.597 172.111 171.636 
172.115 171.657 170.346 170.476 170.049 170.382 170.136 170.586 170.279 
170.695 170.237 170.665 170.214 170.727 170.349 169.647 169.692 169.186 
169.413 169.059 169.449 169.074 169.454 168.937 169.304 168.794 169.276 
168.88 169.439 169.056 169.028 169.031 168.417 168.527 167.97 168.276 
167.732 168.141 167.514 167.93 167.29 167.787 167.268 167.878 167.436 
168.055 167.599 168.373 168.399 167.729 167.745 167.043 167.158 166.464 
166.732 166.029 166.403 165.687 166.159 165.512 166.125 165.594 166.295 
165.839 166.524 166.126 165.209 164.751 164.52 163.762 164.404 164.017 
163.078 163.053 162.526 164.32 163.743 162.687 162.409 161.746 161.889 
161.507 164.559 163.839 162.792 162.218 161.448 161.254 160.779 160.889 
160.416 165.009 164.255 163.306 162.563 161.754 161.213 160.607 160.366 
159.825 159.763 159.167 165.59 164.839 163.988 163.209 162.386 161.675 
160.913 160.387 159.702 159.38 158.75 158.597 158.09 166.301 165.544 
164.745 163.941 163.088 162.312 161.442 160.755 159.929 159.401 158.699 
158.368 157.862 157.737 157.471 167.049 166.323 165.536 164.716 163.829 
163.005 162.129 161.342 160.525 159.798 159.101 158.529 158.047 157.711 
157.479 157.365 157.341 167.705 167.051 166.268 165.479 164.59 163.761 
162.943 162.136 161.449 160.626 160.041 159.243 158.826 158.202 158.022 
157.635 157.651 157.471 157.611 165.234 163.968 164.751 165.131 162.884 
163.616 164.07 164.802 165.239 161.869 162.607 163.04 163.771 164.154 
164.891 165.262 160.637 161.473 161.853 162.682 163.015 163.756 164.057 
164.826 165.207 159.243 160.061 160.43 161.387 161.855 162.654 163.022 
163.684 164.082 164.835 165.364 158.122 158.705 159.059 159.966 160.653 
161.586 162.229 162.867 163.328 163.881 164.411 165.14 165.773 157.527 
157.826 158.118 158.769 159.465 160.443 161.308 162.162 162.766 163.295 
163.728 164.291 164.857 165.61 166.243 157.407 157.488 157.735 158.067 
158.594 159.341 160.152 161.141 161.893 162.665 163.127 163.661 164.098 
164.731 165.332 166.091 166.71 157.647 157.573 157.825 157.907 158.314 
158.669 159.29 160.026 160.791 161.669 162.318 163.005 163.499 164.058 
164.612 165.253 165.903 166.601 167.21 157.95 158.611 158.198 158.146 
159.505 159.002 158.962 158.52 158.606 160.549 160 159.982 159.447 
159.478 159.079 159.408 161.718 161.109 161.101 160.524 160.539 160.027 
160.263 160.042 160.689 163.084 162.381 162.396 161.726 161.76 161.15 
161.348 160.971 161.515 161.453 162.204 164.562 163.842 163.892 163.15 
163.184 162.463 162.622 162.116 162.594 162.369 163.046 162.943 163.551 
165.944 165.298 165.354 164.669 164.69 163.946 164.03 163.426 163.817 
163.491 164.132 163.912 164.513 164.257 164.759 167.212 166.608 166.667 
166.06 166.119 165.433 165.514 164.854 165.158 164.726 165.306 165.037 
165.647 165.343 165.848 165.521 166.024 168.46 167.857 167.937 167.352 
167.485 166.859 167.029 166.369 166.663 166.113 166.61 166.235 166.811 
166.491 166.993 166.654 167.113 166.81 167.298 158.122 158.802 158.481 
158.722 159.727 159.239 159.332 159.136 159.528 160.725 160.166 160.154 
159.808 160.115 160.031 160.558 161.822 161.185 161.179 160.706 161.012 
160.767 161.307 161.181 161.783 163.135 162.411 162.464 161.869 162.232 
161.847 162.443 162.147 162.762 162.524 163.162 164.562 163.844 163.966 
163.31 163.695 163.213 163.824 163.438 164.056 163.676 164.259 163.984 
164.626 165.965 165.307 165.494 164.871 165.251 164.731 165.282 164.857 
165.454 165.039 165.596 165.197 165.756 165.46 166.043 167.304 166.708 
166.923 166.368 166.736 166.243 166.724 166.283 166.825 166.421 166.986 
166.576 167.117 166.696 167.207 166.85 167.355 168.517 168.001 168.202 
167.72 168.059 167.63 168.063 167.65 168.128 167.744 168.281 167.928 
168.479 168.078 168.561 168.11 168.55 168.152 168.612 167.811 167.438 
167.214 166.326 167.116 166.799 165.844 165.595 164.648 167.016 166.577 
165.631 165.214 164.283 163.966 163.091 167.047 166.582 165.687 165.175 
164.274 163.799 162.947 162.556 161.722 167.106 166.65 165.794 165.296 
164.388 163.879 162.988 162.532 161.671 161.252 160.394 167.303 166.786 
165.988 165.452 164.577 164.011 163.097 162.583 161.738 161.281 160.472 
160.003 159.233 167.69 167.111 166.375 165.77 164.986 164.328 163.49 
162.824 162.057 161.485 160.832 160.276 159.623 159.049 158.462 168.134 
167.566 166.849 166.238 165.494 164.848 164.08 163.379 162.647 161.99 
161.397 160.811 160.27 159.639 159.081 158.478 158.053 168.52 168.003 
167.303 166.717 165.975 165.364 164.609 163.972 163.215 162.591 161.921 
161.383 160.824 160.297 159.758 159.174 158.705 158.188 157.926 168.582 
169.656 168.864 168.316 170.815 169.989 169.488 168.607 168.045 172.093 
171.221 170.737 169.83 169.316 168.411 167.921 173.418 172.563 172.101 
171.146 170.644 169.72 169.25 168.356 167.916 174.656 173.893 173.486 
172.549 172.05 171.099 170.643 169.718 169.273 168.365 167.952 175.772 
175.097 174.752 173.904 173.433 172.515 172.066 171.145 170.707 169.76 
169.327 168.427 168.098 176.819 176.199 175.918 175.146 174.731 173.867 
173.432 172.55 172.115 171.193 170.746 169.826 169.469 168.641 168.426 
177.778 177.229 177.008 176.317 175.964 175.151 174.737 173.883 173.456 
172.57 172.125 171.222 170.837 170.003 169.753 169.003 168.836 178.613 
178.141 177.962 177.378 177.08 176.357 175.964 175.157 174.737 173.89 
173.471 172.591 172.206 171.354 171.064 170.296 170.088 169.376 169.192 
179.01 179.408 178.935 178.359 179.789 179.298 178.651 178.184 177.49 
180.092 179.623 178.911 178.429 177.666 177.193 176.389 180.29 179.853 
179.121 178.648 177.834 177.334 176.481 176.01 175.165 180.424 180 
179.26 178.818 177.996 177.485 176.599 176.096 175.228 174.768 173.921 
180.467 180.086 179.327 178.925 178.111 177.624 176.723 176.21 175.329 
174.851 174.001 173.531 172.695 180.392 180.07 179.335 178.972 178.19 
177.73 176.841 176.321 175.426 174.948 174.101 173.633 172.796 172.329 
171.549 180.339 180.012 179.355 178.999 178.291 177.845 177.014 176.47 
175.58 175.057 174.205 173.728 172.891 172.428 171.628 171.218 170.524 
180.437 180.065 179.47 179.088 178.444 178.003 177.239 176.696 175.838 
175.266 174.415 173.877 173.044 172.535 171.727 171.283 170.562 170.214 
169.593 180.344 179.794 179.846 179.345 178.961 179.171 178.658 178.78 
178.261 177.808 178.176 177.656 177.928 177.358 177.57 176.988 176.473 
176.915 176.39 176.763 176.17 176.493 175.88 176.164 175.557 175.094 
175.554 175.036 175.43 174.826 175.193 174.585 174.949 174.362 174.685 
174.115 173.687 174.17 173.671 174.076 173.475 173.832 173.223 173.61 
173.051 173.438 172.879 173.233 172.7 172.233 172.741 172.271 172.716 
172.155 172.509 171.901 172.259 171.703 172.108 171.575 171.958 171.419 
171.807 171.343 170.781 171.275 170.833 171.32 170.83 171.219 170.643 
170.971 170.404 170.778 170.267 170.659 170.155 170.53 170.076 170.5 
170.164 169.441 169.862 169.431 169.908 169.477 169.912 169.397 169.738 
169.174 169.511 169.003 169.385 168.922 169.301 168.87 169.27 168.941 
169.41 169.188 180.915 181.633 180.986 180.364 182.228 181.628 180.905 
180.287 179.507 182.552 182.072 181.286 180.719 179.841 179.246 178.332 
182.608 182.252 181.47 180.986 180.067 179.489 178.483 177.921 176.954 
182.432 182.203 181.427 181.051 180.109 179.609 178.536 177.986 176.925 
176.455 175.513 181.975 181.899 181.098 180.854 179.872 179.503 178.395 
177.927 176.794 176.341 175.323 174.965 174.061 181.283 181.31 180.52 
180.383 179.421 179.153 178.09 177.701 176.573 176.134 175.062 174.704 
173.753 173.468 172.585 180.557 180.588 179.866 179.772 178.918 178.705 
177.773 177.426 176.379 175.915 174.821 174.407 173.418 173.122 172.226 
171.973 171.126 179.927 179.923 179.264 179.176 178.423 178.259 177.451 
177.178 176.241 175.788 174.705 174.202 173.169 172.798 171.909 171.632 
170.809 170.556 169.789 181.342 182.211 181.906 182.126 183.024 182.784 
183.088 182.735 182.842 183.85 183.604 184.001 183.726 183.922 183.392 
183.258 184.907 184.529 184.944 184.663 184.92 184.455 184.31 183.645 
183.295 186.085 185.659 185.928 185.591 185.75 185.36 185.163 184.579 
184.125 183.506 183.048 186.89 186.643 186.677 186.388 186.308 186.006 
185.724 185.271 184.744 184.183 183.611 183.095 182.555 187.154 187.102 
186.987 186.809 186.534 186.322 185.989 185.693 185.222 184.726 184.107 
183.553 182.931 182.448 181.841 187.148 187.163 187.02 186.895 186.542 
186.359 185.98 185.823 185.451 185.146 184.599 184.055 183.367 182.796 
182.144 181.671 181.082 187.046 187.09 186.943 186.857 186.487 186.296 
185.837 185.704 185.306 185.21 184.749 184.443 183.781 183.249 182.533 
181.998 181.388 180.944 180.423 186.899 186.418 186.739 186.739 185.727 
186.114 186.106 186.41 186.243 185.049 185.379 185.316 185.656 185.473 
185.756 185.541 184.279 184.636 184.466 184.817 184.581 184.898 184.669 
185.029 184.927 183.209 183.674 183.433 183.869 183.59 183.952 183.665 
184.066 183.93 184.43 184.349 182.029 182.494 182.247 182.722 182.462 
182.894 182.609 183.018 182.817 183.328 183.209 183.729 183.468 180.917 
181.35 181.098 181.531 181.275 181.731 181.495 181.94 181.736 182.203 
182.039 182.534 182.291 182.704 182.301 179.776 180.237 179.967 180.395 
180.11 180.557 180.325 180.806 180.623 181.107 180.921 181.386 181.144 
181.554 181.22 181.553 181.175 178.604 179.066 178.806 179.246 178.969 
179.404 179.168 179.642 179.462 179.961 179.774 180.249 180.002 180.432 
180.135 180.512 180.194 180.523 180.216 177.889 176.879 177.619 178.074 
175.833 176.594 177.061 177.801 178.256 174.755 175.534 176.028 176.793 
177.287 178.01 178.487 173.666 174.453 174.949 175.745 176.271 177.047 
177.569 178.286 178.788 172.51 173.343 173.823 174.643 175.167 175.999 
176.548 177.342 177.859 178.589 179.076 171.289 172.142 172.639 173.487 
174.009 174.868 175.431 176.278 176.811 177.598 178.076 178.824 179.275 
170.194 170.96 171.478 172.304 172.849 173.706 174.285 175.15 175.712 
176.525 177.017 177.781 178.241 178.988 179.417 169.28 169.956 170.448 
171.204 171.749 172.569 173.149 174.009 174.585 175.422 175.935 176.717 
177.189 177.949 178.408 179.13 179.53 168.416 169.065 169.509 170.217 
170.719 171.495 172.043 172.877 173.435 174.282 174.796 175.612 176.082 
176.877 177.343 178.114 178.55 179.243 179.6 179.41 178.331 178.835 
178.694 177.088 177.641 177.468 178.017 177.834 175.776 176.317 176.091 
176.69 176.502 177.097 176.878 174.461 174.97 174.666 175.246 174.998 
175.655 175.401 176.029 175.665 173.104 173.616 173.261 173.801 173.472 
174.089 173.757 174.412 173.987 174.611 174.104 171.713 172.216 171.831 
172.364 171.996 172.564 172.189 172.766 172.322 172.888 172.397 172.989 
172.557 170.381 170.827 170.405 170.906 170.503 171.06 170.665 171.226 
170.791 171.309 170.849 171.37 170.978 171.573 171.295 169.168 169.538 
169.089 169.511 169.066 169.557 169.111 169.662 169.202 169.77 169.315 
169.875 169.48 170.062 169.769 170.407 170.198 168.062 168.369 167.908 
168.258 167.802 168.189 167.699 168.13 167.616 168.138 167.682 168.291 
167.933 168.562 168.284 168.909 168.696 169.346 169.191 179.145 179.447 
179.642 180.316 179.642 179.921 180.641 180.841 181.555 179.761 180.097 
180.89 181.155 181.905 182.105 182.855 179.86 180.224 181.108 181.438 
182.276 182.478 183.209 183.386 184.079 179.896 180.302 181.223 181.665 
182.629 182.91 183.652 183.749 184.317 184.47 185.002 179.788 180.252 
181.1 181.664 182.657 183.179 183.998 184.189 184.636 184.667 185.028 
185.209 185.61 179.532 180.042 180.783 181.376 182.234 182.951 183.79 
184.315 184.777 184.907 185.094 185.183 185.475 185.721 186.076 179.152 
179.7 180.372 180.944 181.628 182.324 183.042 183.792 184.331 184.792 
184.997 185.168 185.342 185.56 185.905 186.175 186.491 178.687 179.248 
179.874 180.45 181.032 181.636 182.201 182.911 183.454 184.124 184.485 
184.897 185.105 185.378 185.671 185.98 186.34 186.581 186.818 179.156 
180.346 179.684 179.567 181.631 180.947 180.857 180.139 180.016 182.983 
182.309 182.248 181.48 181.302 180.555 180.323 184.243 183.677 183.632 
182.877 182.615 181.808 181.437 180.7 180.288 185.186 184.818 184.769 
184.149 183.815 183.036 182.557 181.766 181.259 180.519 180.015 185.805 
185.588 185.531 185.08 184.722 184.077 183.587 182.846 182.339 181.543 
181.031 180.242 179.757 186.26 186.1 186.06 185.707 185.403 184.868 
184.455 183.82 183.394 182.655 182.172 181.343 180.829 180.031 179.587 
186.622 186.49 186.465 186.194 185.996 185.557 185.267 184.7 184.355 
183.684 183.234 182.461 181.91 181.107 180.582 179.86 179.462 186.891 
186.786 186.746 186.558 186.434 186.143 185.959 185.522 185.223 184.622 
184.16 183.443 182.867 182.108 181.529 180.807 180.331 179.708 179.362 
178.467 178.848 178.276 177.493 179.284 178.689 177.888 177.265 176.353 
179.602 179.102 178.291 177.673 176.726 176.029 174.92 179.578 179.268 
178.446 177.968 176.987 176.363 175.237 174.49 173.303 179.281 179.076 
178.239 177.918 176.909 176.456 175.366 174.771 173.655 172.932 171.916 
179.003 178.755 177.939 177.628 176.659 176.26 175.253 174.812 173.872 
173.309 172.407 171.736 170.953 178.879 178.57 177.833 177.45 176.618 
176.138 175.275 174.789 174.028 173.551 172.836 172.254 171.523 170.892 
170.24 178.846 178.537 177.898 177.503 176.819 176.316 175.609 175.049 
174.394 173.858 173.237 172.691 172.021 171.434 170.757 170.194 169.598 
178.82 178.55 177.98 177.637 177.025 176.602 175.968 175.479 174.842 
174.317 173.656 173.112 172.403 171.858 171.141 170.628 169.97 169.503 
168.908 181.038 180.976 181.301 181.91 181.119 181.376 182.002 182.212 
182.753 181.266 181.596 182.315 182.465 182.982 183.06 183.578 181.201 
181.661 182.447 182.771 183.351 183.412 183.873 183.96 184.611 181.005 
181.491 182.242 182.736 183.386 183.676 184.172 184.307 184.893 185.109 
185.831 180.764 181.24 181.925 182.44 183.109 183.559 184.156 184.477 
185.065 185.345 185.97 186.24 186.74 180.403 180.91 181.536 182.075 
182.735 183.254 183.933 184.383 185.042 185.403 185.964 186.251 186.648 
186.867 187.068 179.944 180.45 181.012 181.592 182.229 182.833 183.529 
184.11 184.803 185.285 185.824 186.143 186.453 186.671 186.832 187.01 
187.08 179.483 179.944 180.447 181.009 181.616 182.255 182.927 183.597 
184.254 184.879 185.386 185.849 186.123 186.408 186.535 186.741 186.828 
186.989 187.013 
POINT_DATA 1002
SCALARS Distance double
LOOKUP_TABLE default
177.164 178.149 177.285 176.248 176.311 176.137 175.192 175.157 175.108 
175.056 173.918 173.821 173.899 173.889 173.973 172.454 172.39 172.491 
172.548 172.707 172.88 170.899 170.911 170.958 171.054 171.23 171.452 
171.653 169.359 169.45 169.428 169.533 169.671 169.87 170.127 170.442 
167.941 168.122 168.016 168.133 168.228 168.406 168.69 169.055 169.476 
166.67 166.931 166.73 166.853 166.891 167.032 167.37 167.782 168.204 
168.639 165.502 165.802 165.542 165.663 165.63 165.64 165.943 166.413 
166.868 167.312 167.783 178.605 177.648 179.02 177.973 179.329 176.519 
178.22 179.486 176.7 175.199 178.328 179.483 176.904 175.298 173.807 
178.272 179.396 177.021 175.513 173.935 172.411 178.157 179.317 176.946 
175.611 174.126 172.57 170.971 178.062 179.209 176.796 175.495 174.132 
172.692 171.168 169.579 177.927 178.982 176.69 175.37 174.02 172.646 
171.284 169.858 168.329 177.701 178.661 176.574 175.317 173.984 172.59 
171.246 170.002 168.654 167.15 177.726 176.642 176.668 175.36 175.351 
175.402 173.723 173.715 173.943 174.058 171.971 172.134 172.241 172.561 
172.621 170.648 171.012 170.775 171.081 171.154 171.137 169.774 170.256 
169.73 169.908 169.855 169.709 169.802 169.05 169.638 168.74 168.715 
168.606 168.355 168.325 168.518 168.409 169.042 167.798 167.379 167.108 
166.834 166.687 166.796 166.997 167.749 168.333 167.032 166.303 165.713 
165.27 164.959 164.893 165.094 165.427 164.401 163.734 163.153 163.226 
162.275 162.156 163.11 161.727 161.239 161.134 163.451 161.819 160.802 
160.304 159.819 164.047 162.425 161.026 160.002 159.177 158.512 164.76 
163.16 161.579 160.141 158.971 158.108 157.656 165.573 163.907 162.201 
160.553 159.099 158.033 157.452 157.311 166.369 164.671 162.914 161.28 
159.75 158.461 157.653 157.338 157.379 167.037 165.402 163.702 162.218 
160.854 159.524 158.496 157.92 157.7 157.759 164.352 163.347 164.517 
162.324 163.456 164.497 160.967 162.274 163.322 164.357 159.405 160.927 
162.372 163.38 164.516 158.206 159.574 161.468 162.857 163.757 164.969 
157.621 158.534 160.296 162.17 163.281 164.156 165.455 157.538 158.053 
159.2 160.967 162.551 163.555 164.59 165.957 157.809 158.134 158.76 
159.916 161.495 162.915 164.034 165.218 166.54 158.287 158.502 159.048 
159.462 160.011 158.929 160.533 161.109 159.957 159.554 161.688 162.361 
161.087 160.578 160.663 163.096 163.799 162.408 161.79 161.679 162.208 
164.635 165.256 163.95 163.196 162.883 163.227 163.711 166.005 166.576 
165.427 164.695 164.202 164.37 164.804 165.03 167.247 167.817 166.753 
166.181 165.667 165.611 165.943 166.198 166.319 168.508 169.057 168.058 
167.647 167.261 167.066 167.157 167.336 167.448 167.576 158.325 158.834 
159.252 159.636 160.298 159.531 160.57 161.311 160.264 160.558 161.679 
162.48 161.292 161.487 161.883 163.077 163.85 162.64 162.77 163.078 
163.33 164.608 165.231 164.215 164.234 164.471 164.624 164.826 166.086 
166.583 165.792 165.748 165.868 166.025 166.144 166.302 167.459 167.873 
167.227 167.192 167.236 167.374 167.564 167.646 167.676 168.673 169.008 
168.478 168.474 168.527 168.623 168.849 169.027 169.011 168.966 168.064 
166.543 167.708 166.15 167.492 164.842 166.091 167.469 164.654 163.356 
166.189 167.486 164.783 163.39 162.099 166.278 167.556 164.919 163.467 
162.11 160.807 166.527 167.83 165.163 163.652 162.177 160.931 159.682 
166.979 168.266 165.624 164.174 162.648 161.352 160.218 158.975 167.456 
168.682 166.115 164.749 163.32 161.976 160.868 159.73 158.544 169.353 
169.179 170.442 170.35 171.658 168.94 171.659 172.964 170.206 168.807 
173.07 174.224 171.579 170.152 168.796 174.387 175.361 173.003 171.571 
170.211 168.816 175.547 176.415 174.326 172.975 171.656 170.258 168.912 
176.642 177.406 175.569 174.304 173.023 171.67 170.314 169.186 177.643 
178.288 176.743 175.584 174.327 173.022 171.686 170.514 169.561 178.495 