# vtk DataFile Version 4.0
vtk output
ASCII
DATASET POLYDATA
POINTS 1002 float
-105.653 -120.73 76.862 -106.313 -121.739 76.5158 -105.894 -121.401 75.6633 
-105.236 -120.261 76.0053 -105.624 -120.782 74.7576 -104.915 -119.618 77.2412 
-104.923 -119.504 75.0864 -105.409 -119.964 73.9273 -104.487 -118.971 76.3837 
-104.084 -118.374 77.5725 -104.574 -118.603 74.2243 -105.122 -119.006 73.1667 
-104.103 -118.094 75.4477 -103.707 -117.499 76.7169 -103.335 -116.926 77.8776 
-104.192 -117.606 73.422 -104.846 -117.891 72.4369 -103.562 -117.25 74.5143 
-103.215 -116.607 75.7869 -102.954 -115.941 77.047 -102.642 -115.434 78.2088 
-103.924 -116.469 72.6987 -104.617 -116.727 71.8023 -103.032 -116.354 73.6535 
-102.412 -115.952 74.8359 -102.156 -115.253 76.1681 -101.926 -114.659 77.4171 
-101.691 -114.183 78.5469 -103.559 -115.374 72.0303 -104.259 -115.652 71.2259 
-102.668 -115.26 72.9272 -101.761 -115.137 73.9727 -101.159 -114.757 75.2478 
-100.817 -114.234 76.5862 -100.647 -113.693 77.8028 -100.647 -113.118 78.8862 
-102.958 -114.459 71.2863 -103.813 -114.66 70.6328 -102.183 -114.245 72.1943 
-101.417 -114.039 73.2203 -100.663 -113.848 74.3455 -100.029 -113.615 75.6428 
-99.7143 -113.207 76.9749 -99.7618 -112.614 78.1657 -99.9742 -111.989 79.2044 
-102.459 -113.588 70.5555 -103.485 -113.715 70.1291 -101.64 -113.402 71.3703 
-101.065 -113.056 72.4459 -100.52 -112.677 73.5126 -99.8639 -112.455 74.6369 
-99.3601 -112.245 75.9586 -99.2632 -111.826 77.2893 -99.4275 -111.272 78.4529 
-99.6325 -110.749 79.4593 -102.245 -112.64 70.0427 -103.288 -112.8 69.8047 
-101.365 -112.492 70.653 -100.794 -112.171 71.6689 -100.385 -111.652 72.763 
-99.8616 -111.197 73.7598 -99.3364 -110.934 74.8912 -99.1131 -110.67 76.225 
-99.1454 -110.288 77.5318 -99.2365 -109.869 78.6813 -99.3575 -109.488 79.6729 
-106.721 -122.529 75.6897 -106.375 -122.077 74.7533 -107.307 -123.156 74.8179 
-107.067 -122.578 73.8756 -108.133 -123.533 73.8829 -106.196 -121.364 73.8409 
-107.927 -122.909 72.8905 -109.134 -123.767 72.8619 -106.931 -121.802 72.9178 
-106.002 -120.505 72.9832 -108.837 -123.204 71.743 -110.184 -123.914 71.8524 
-107.772 -122.075 71.8428 -106.696 -120.911 71.9447 -105.674 -119.491 72.1374 
-109.798 -123.349 70.676 -111.253 -123.765 70.9447 -108.691 -122.252 70.7837 
-107.598 -121.058 70.9601 -106.356 -119.865 71.0845 -105.378 -118.311 71.403 
-110.865 -123.059 69.8249 -112.338 -123.251 70.1592 -109.669 -122.239 69.9064 
-108.673 -121.017 70.2182 -107.421 -119.901 70.3323 -106.141 -118.617 70.4914 
-105.191 -117.045 70.8893 -111.952 -122.469 69.1462 -113.333 -122.616 69.5543 
-110.643 -121.939 69.0728 -109.616 -120.891 69.3981 -108.565 -119.739 69.681 
-107.294 -118.57 69.8335 -106.101 -117.176 70.1432 -105.006 -115.768 70.4843 
-112.923 -121.907 68.6292 -114.153 -122.01 69.0988 -111.591 -121.519 68.3361 
-110.39 -120.669 68.4152 -109.346 -119.581 68.7303 -108.286 -118.419 69.0738 
-107.196 -117.11 69.4773 -106.059 -115.763 69.8902 -104.789 -114.609 70.1053 
-113.754 -121.393 68.2116 -114.841 -121.417 68.6564 -112.512 -121.087 67.8374 
-111.223 -120.338 67.6845 -110.008 -119.347 67.816 -108.924 -118.286 68.1771 
-107.988 -117.078 68.6824 -107.046 -115.789 69.2291 -105.881 -114.617 69.6407 
-104.549 -113.631 69.8028 -114.884 -120.8 67.9087 -113.714 -120.621 67.55 
-114.895 -119.928 67.2846 -113.607 -119.39 67.0424 -114.711 -118.638 66.8737 
-112.404 -119.987 67.3036 -113.308 -117.865 66.6098 -114.286 -117.112 66.4959 
-112.224 -118.504 66.931 -111.023 -119.013 67.2652 -112.844 -116.349 66.1403 
-113.777 -115.503 66.1747 -111.865 -116.981 66.5077 -110.76 -117.51 67.0022 
-109.674 -117.994 67.4743 -112.35 -114.662 65.9236 -113.23 -113.813 66.2698 
-111.336 -115.408 66.0064 -110.331 -115.952 66.5461 -109.347 -116.466 67.1951 
-108.556 -116.886 67.8871 -111.863 -112.801 66.2116 -112.599 -112.307 66.8021 
-110.811 -113.535 65.9155 -109.752 -114.222 66.1397 -108.917 -114.78 66.764 
-108.225 -115.305 67.5707 -107.645 -115.642 68.4505 -111.389 -111.274 66.7895 
-111.993 -111.183 67.4787 -110.441 -111.718 66.373 -109.299 -112.457 66.4362 
-108.41 -113.098 66.8309 -107.773 -113.632 67.4226 -107.174 -114.133 68.226 
-106.567 -114.439 69.0462 -110.924 -110.199 67.5131 -111.484 -110.227 68.2078 
-110.149 -110.355 67.066 -109.099 -110.937 67.1787 -108.087 -111.608 67.587 
-107.301 -112.05 67.9009 -106.575 -112.497 68.2852 -105.872 -112.992 68.8914 
-105.217 -113.349 69.4484 -110.42 -109.259 68.3835 -110.998 -109.217 68.9733 
-109.752 -109.291 67.8984 -108.891 -109.613 67.8929 -107.912 -110.184 68.2728 
-106.985 -110.593 68.5109 -106.084 -110.862 68.5486 -105.201 -111.318 68.7869 
-104.464 -111.878 69.2225 -103.857 -112.361 69.5672 -102.469 -111.638 69.6438 
-102.98 -110.979 69.3384 -101.69 -110.219 69.4932 -103.652 -110.281 68.9284 
-102.191 -109.419 69.0205 -101.064 -108.627 69.4523 -104.59 -109.653 68.5894 
-103.045 -108.669 68.5553 -101.682 -107.857 68.9434 -100.773 -106.897 69.7042 
-105.649 -109.284 68.615 -104.13 -108.065 68.3782 -102.72 -107.141 68.655 
-101.527 -106.126 69.367 -100.698 -104.949 70.1009 -106.664 -108.994 68.7755 
-105.158 -107.586 68.632 -103.75 -106.402 68.6901 -102.564 -105.271 69.253 
-101.432 -104.005 69.8068 -100.504 -102.946 70.3137 -107.665 -108.555 68.7075 
-106.175 -107.115 69.0106 -104.684 -105.664 69.0108 -103.52 -104.335 69.2295 
-102.427 -103.004 69.5744 -101.239 -101.916 69.9462 -100.35 -101.292 70.5373 
-108.592 -108.242 68.6592 -107.236 -106.831 69.2704 -105.806 -105.211 69.4373 
-104.582 -103.64 69.3794 -103.562 -102.187 69.4084 -102.402 -101.045 69.6895 
-101.264 -100.402 70.2846 -100.574 -100.104 71.096 -109.371 -108.189 68.9507 
-108.191 -106.831 69.5106 -106.996 -105.184 69.7624 -105.861 -103.45 69.6897 
-104.849 -101.842 69.5561 -103.812 -100.563 69.684 -102.635 -99.7827 70.2204 
-101.632 -99.4031 71.0063 -101.044 -99.181 71.8455 -110.058 -108.151 69.4262 
-109.012 -106.858 69.818 -108.019 -105.28 69.9723 -107.079 -103.538 69.9416 
-106.12 -101.883 69.914 -105.165 -100.513 70.0253 -104.135 -99.5425 70.401 
-103.037 -98.9571 71.0343 -102.118 -98.6101 71.7722 -101.496 -98.3775 72.5354 
-101.502 -111.408 69.9878 -100.901 -109.824 70.075 -100.807 -111.123 70.8085 
-100.529 -107.954 70.3274 -100.491 -109.297 71.1475 -100.388 -110.622 71.9712 
-100.397 -105.936 70.69 -100.354 -107.2 71.5656 -100.153 -108.674 72.3901 
-99.909 -110.019 73.0583 -100.177 -103.933 70.9324 -100.129 -105.15 71.8605 
-99.9405 -106.638 72.7705 -99.5388 -108.18 73.429 -99.3317 -109.582 74.0659 
-99.8533 -102.17 71.0953 -99.6329 -103.303 71.9707 -99.5084 -104.725 72.9437 
-99.2856 -106.322 73.7402 -99.0695 -107.858 74.4546 -99.0441 -109.295 75.2993 
-99.9112 -100.77 71.5265 -99.3742 -101.671 72.2212 -99.0323 -102.881 73.0996 
-99.0068 -104.388 73.9855 -99.0549 -106.012 74.8686 -99.0114 -107.557 75.7996 
-99.0253 -108.992 76.723 -100.355 -99.6516 72.2409 -99.6721 -100.289 72.8213 
-99.0204 -101.179 73.5788 -98.81 -102.422 74.4409 -99.0136 -103.985 75.4077 
-99.0639 -105.659 76.4303 -98.9446 -107.241 77.3491 -98.9988 -108.657 78.0925 
-100.806 -98.7147 72.984 -100.14 -99.1847 73.5798 -99.4112 -99.8316 74.3219 
-98.9208 -100.773 75.1664 -98.9369 -102.097 76.1172 -99.048 -103.71 77.1471 
-98.905 -105.39 78.073 -98.8132 -106.96 78.7649 -99.0089 -108.339 79.2725 
-101.431 -97.814 73.5085 -100.712 -98.1878 74.1704 -101.422 -97.4181 74.7509 
-100.716 -97.9048 75.602 -101.661 -97.3065 76.26 -100.013 -98.7324 74.9806 
-101.09 -97.9218 77.1572 -102.105 -97.341 77.9107 -100.118 -98.6099 76.5383 
-99.3733 -99.5033 75.893 -101.617 -98.0448 78.7211 -102.489 -97.4186 79.5153 
-100.599 -98.7721 78.0798 -99.6274 -99.5711 77.5212 -99.0634 -100.622 76.8685 
-101.943 -98.2824 80.2074 -102.858 -97.7732 80.8474 -101.038 -98.996 79.5969 
-100.048 -99.8508 79.0229 -99.3103 -100.844 78.4831 -99.0421 -102.104 77.8862 
-102.295 -98.8794 81.4664 -103.386 -98.4977 81.9228 -101.313 -99.3975 81.0399 
-100.389 -100.138 80.4772 -99.6374 -101.166 79.8335 -99.1773 -102.369 79.3509 
-98.9528 -103.791 78.829 -102.856 -99.69 82.5123 -103.923 -99.2891 82.9367 
-101.806 -100.121 82.2036 -100.828 -100.628 81.8366 -100.084 -101.513 81.1673 
-99.6005 -102.722 80.5257 -99.1684 -104.049 80.1059 -98.8451 -105.501 79.5503 
-103.391 -100.389 83.4738 -104.323 -100.004 83.8623 -102.468 -100.878 83.1184 
-101.509 -101.349 82.8769 -100.648 -102.063 82.4679 -100.113 -103.196 81.8063 
-99.7195 -104.471 81.2225 -99.2607 -105.761 80.7153 -98.9785 -107.088 80.0467 
-103.795 -101.012 84.3805 -104.671 -100.765 84.6017 -103.005 -101.483 84.0146 
-102.197 -102.036 83.6926 -101.306 -102.724 83.4483 -100.569 -103.762 83.0429 
-100.147 -104.997 82.4299 -99.8081 -106.165 81.7882 -99.4711 -107.303 81.1271 
-99.3202 -108.438 80.3984 -102.36 -97.7853 72.6902 -102.332 -97.2351 73.7076 
-103.533 -97.3395 72.9058 -103.618 -96.8774 74.0167 -104.938 -97.1149 73.3052 
-102.462 -96.9496 75.0768 -105.181 -96.7542 74.5227 -106.401 -97.09 73.907 
-103.869 -96.7329 75.5286 -102.787 -96.9087 76.7961 -106.821 -96.7806 75.1872 
-107.732 -97.2975 74.5418 -105.564 -96.689 76.139 -104.208 -96.7141 77.4481 
-103.147 -96.9006 78.6866 -108.226 -97.0785 75.8302 -108.813 -97.8578 75.0693 
-107.314 -96.7536 76.8563 -105.973 -96.672 78.1371 -104.569 -96.7126 79.4356 
-103.542 -97.0428 80.3258 -109.223 -97.8023 76.3276 -109.763 -98.6807 75.5355 
-108.614 -97.1762 77.4894 -107.672 -96.8519 78.7625 -106.338 -96.8335 79.9431 
-105.059 -97.0767 80.8821 -104.113 -97.6258 81.4949 -110.107 -98.7144 76.748 
-110.709 -99.5218 76.0189 -109.467 -98.0243 77.9263 -108.81 -97.4693 79.2344 
-107.86 -97.2796 80.2917 -106.67 -97.474 81.146 -105.591 -97.8614 81.9237 
-104.693 -98.46 82.5319 -111.04 -99.555 77.1922 -111.527 -100.32 76.5089 
-110.374 -98.9376 78.2772 -109.733 -98.3655 79.5723 -109.019 -98.0033 80.66 
-108.028 -98.0339 81.4696 -106.945 -98.3032 82.2617 -105.978 -98.6922 83.0239 
-105.1 -99.2708 83.5535 -111.822 -100.375 77.6474 -112.12 -101.135 76.9633 
-111.331 -99.7596 78.6338 -110.771 -99.2134 79.844 -110.172 -98.7913 81.0013 
[...]
CELL_DATA 2000
SCALARS Distance double
LOOKUP_TABLE default
177.231 176.316 176.61 176.239 175.283 175.611 175.207 175.541 175.115 
174.161 174.505 174.037 174.412 173.954 174.323 173.855 172.955 173.312 
172.794 173.175 172.679 173.083 172.606 173.009 172.559 171.735 172.075 
171.535 171.897 171.371 171.772 171.285 171.714 171.265 171.706 171.291 
170.529 170.851 170.286 170.631 170.079 170.458 169.958 170.383 169.941 
170.393 169.993 170.45 170.079 169.306 169.61 169.01 169.364 168.803 
169.174 168.661 169.067 168.627 169.076 168.703 169.167 168.839 169.294 
169.001 168.162 168.384 167.764 168.087 167.555 167.917 167.423 167.795 
167.339 167.765 167.389 167.878 167.577 168.074 167.816 168.287 168.052 
167.196 167.308 166.676 166.911 166.414 166.735 166.291 166.616 166.151 
166.501 166.081 166.542 166.236 166.782 166.547 167.084 166.864 167.361 
167.148 177.685 178.087 177.525 176.778 178.478 177.915 177.149 176.574 
175.785 178.829 178.281 177.512 176.943 176.134 175.55 174.705 179.153 
178.606 177.807 177.262 176.429 175.87 174.984 174.402 173.501 179.416 
178.901 178.077 177.529 176.683 176.129 175.236 174.65 173.718 173.151 
172.265 179.526 179.095 178.286 177.783 176.961 176.408 175.554 174.936 
174.021 173.39 172.487 171.93 171.078 179.519 179.143 178.354 177.929 
177.123 176.658 175.833 175.281 174.392 173.75 172.837 172.205 171.329 
170.759 169.906 179.491 179.14 178.373 177.963 177.136 176.721 175.873 
175.45 174.573 174.066 173.163 172.576 171.697 171.082 170.23 169.625 
168.804 179.43 179.132 178.419 178.01 177.179 176.716 175.827 175.4 
174.525 174.121 173.268 172.817 171.989 171.456 170.648 170.037 169.237 
168.61 167.856 179.162 178.402 178.605 178.159 177.391 177.706 177.193 
177.444 176.873 176.078 176.507 175.954 176.324 175.721 176.019 175.438 
174.6 175.077 174.53 174.978 174.407 174.78 174.197 174.557 174.072 
173.112 173.57 173.002 173.486 172.913 173.386 172.826 173.264 172.775 
173.224 172.823 171.761 172.11 171.48 171.915 171.288 171.802 171.245 
171.795 171.339 171.881 171.504 171.999 171.616 170.717 170.876 170.224 
170.48 169.882 170.255 169.764 170.24 169.857 170.405 170.087 170.644 
170.3 170.778 170.342 169.971 169.99 169.356 169.432 168.915 169.108 
168.739 169.021 168.7 169.059 168.732 169.21 168.866 169.399 168.982 
169.448 168.953 169.335 169.335 168.717 168.719 168.204 168.324 167.967 
168.189 167.841 168.071 167.613 167.915 167.432 167.905 167.455 168 
167.534 168.022 167.552 166.658 166.53 166.124 165.191 166.398 165.938 
164.894 164.554 163.654 166.43 165.845 164.78 164.288 163.347 163.053 
162.301 166.754 166.054 165.006 164.316 163.383 162.905 162.146 161.836 
161.162 167.129 166.499 165.474 164.681 163.663 163.055 162.241 161.81 
161.024 160.685 159.922 167.348 166.857 165.923 165.169 164.061 163.348 
162.383 161.884 160.999 160.57 159.671 159.362 158.661 167.625 167.126 
166.36 165.647 164.633 163.801 162.769 162.065 161.141 160.574 159.703 
159.23 158.535 158.277 157.923 168.141 167.565 166.92 166.214 165.37 
164.502 163.547 162.647 161.745 160.944 160.174 159.5 158.915 158.423 
158.108 157.867 157.797 168.745 168.17 167.548 166.875 166.106 165.307 
164.431 163.539 162.677 161.784 161.067 160.259 159.748 159.078 158.775 
158.297 158.174 157.916 157.904 166.456 165.075 165.806 165.913 163.628 
164.411 164.618 165.39 165.655 162.281 163.006 163.279 164.107 164.452 
165.228 165.543 161.076 161.731 161.98 162.803 163.184 164.005 164.325 
165.087 165.37 159.808 160.487 160.67 161.509 161.873 162.725 163.049 
163.828 164.111 164.892 165.252 158.594 159.181 159.321 160.132 160.464 
161.367 161.729 162.56 162.902 163.675 164.101 164.898 165.42 157.9 
158.186 158.314 158.862 159.145 159.936 160.344 161.234 161.712 162.549 
163.075 163.855 164.44 165.209 165.789 157.764 157.81 157.92 158.138 
158.35 158.809 159.192 159.936 160.522 161.407 162.069 162.899 163.526 
164.287 164.88 165.613 166.15 157.831 157.809 157.883 157.948 158.108 
158.292 158.601 159.041 159.612 160.349 161.094 161.928 162.624 163.392 
163.989 164.715 165.269 165.971 166.471 157.884 158.068 157.93 157.951 
158.61 158.261 158.27 158.097 158.189 159.571 159.024 159.01 158.605 
158.7 158.457 158.684 160.681 160.106 160.108 159.559 159.651 159.197 
159.448 159.178 159.667 161.764 161.21 161.238 160.711 160.802 160.291 
160.518 160.128 160.594 160.402 161.092 162.966 162.338 162.374 161.829 
161.928 161.429 161.625 161.224 161.622 161.381 161.981 161.884 162.583 
164.291 163.625 163.67 163.047 163.16 162.587 162.788 162.326 162.707 
162.404 162.955 162.774 163.4 163.306 163.944 165.522 164.929 164.977 
164.384 164.503 163.903 164.106 163.565 163.944 163.548 164.1 163.81 
164.412 164.184 164.783 164.637 165.235 166.611 166.081 166.132 165.62 
165.744 165.221 165.415 164.901 165.234 164.818 165.32 164.998 165.557 
165.261 165.796 165.546 166.08 165.915 166.449 157.979 158.364 158.102 
158.145 159.13 158.653 158.679 158.433 158.704 160.248 159.617 159.651 
159.19 159.454 159.214 159.667 161.55 160.881 160.962 160.364 160.604 
160.155 160.537 160.29 160.768 162.877 162.244 162.401 161.79 162.046 
161.458 161.775 161.303 161.693 161.405 161.872 164.189 163.579 163.774 
163.23 163.523 162.951 163.246 162.657 162.986 162.493 162.914 162.581 
163.101 165.522 164.901 165.074 164.558 164.856 164.366 164.667 164.12 
164.41 163.864 164.231 163.774 164.242 163.903 164.433 166.824 166.229 
166.386 165.852 166.142 165.662 165.994 165.489 165.789 165.257 165.582 
165.101 165.502 165.1 165.545 165.217 165.668 168.003 167.486 167.658 
167.153 167.439 166.962 167.32 166.831 167.176 166.639 166.955 166.43 
166.778 166.33 166.718 166.334 166.722 166.384 166.768 168.865 168.515 
168.359 167.618 168.078 167.908 167.1 166.966 166.127 167.766 167.485 
166.597 166.381 165.476 165.356 164.458 167.607 167.25 166.34 165.967 
165.013 164.737 163.828 163.669 162.78 167.526 167.14 166.282 165.839 
164.918 164.464 163.561 163.201 162.358 162.096 161.276 167.573 167.13 
166.313 165.851 164.997 164.507 163.642 163.151 162.322 161.89 161.115 
160.763 160.043 167.724 167.258 166.449 165.947 165.098 164.61 163.766 
163.289 162.456 161.981 161.186 160.752 160.037 159.68 159.081 167.873 
167.434 166.653 166.135 165.283 164.749 163.905 163.41 162.597 162.12 
161.322 160.863 160.124 159.732 159.125 158.832 158.402 168.052 167.613 
166.901 166.381 165.597 165.018 164.231 163.653 162.91 162.348 161.623 
161.074 160.368 159.878 159.271 158.91 158.48 158.264 158.025 169.553 
170.517 169.788 169.256 171.566 170.774 170.234 169.445 168.874 172.739 
171.88 171.332 170.478 169.931 169.115 168.6 173.946 173.086 172.542 
171.647 171.102 170.24 169.741 168.916 168.439 175.101 174.276 173.758 
172.885 172.356 171.469 170.963 170.098 169.617 168.783 168.337 176.219 
175.424 174.947 174.107 173.618 172.74 172.242 171.353 170.869 169.999 
169.559 168.731 168.363 177.25 176.524 176.086 175.304 174.852 174.005 
173.517 172.631 172.145 171.273 170.832 169.988 169.604 168.806 168.483 
178.146 177.498 177.084 176.398 175.977 175.213 174.735 173.885 173.387 
172.533 172.086 171.257 170.85 170.04 169.667 168.907 168.589 178.951 
178.349 177.944 177.326 176.928 176.264 175.821 175.056 174.567 173.748 
173.297 172.49 172.084 171.273 170.88 170.083 169.734 168.999 168.724 
179.25 179.354 178.952 178.247 179.425 179.035 178.317 177.93 177.229 
179.501 179.102 178.38 177.984 177.249 176.88 176.136 179.62 179.2 
178.476 178.054 177.303 176.894 176.112 175.724 174.919 179.739 179.329 
178.594 178.161 177.388 176.952 176.14 175.71 174.882 174.48 173.677 
179.8 179.426 178.677 178.255 177.439 177.005 176.15 175.721 174.865 
174.456 173.627 173.25 172.465 179.777 179.46 178.716 178.306 177.462 
177.017 176.131 175.698 174.826 174.422 173.583 173.197 172.378 172.024 
171.249 179.614 179.39 178.671 178.315 177.482 177.039 176.167 175.704 
174.848 174.404 173.577 173.161 172.349 171.951 171.158 170.811 170.091 
179.288 179.154 178.466 178.207 177.41 177.042 176.215 175.783 174.962 
174.49 173.669 173.201 172.396 171.961 171.185 170.78 170.057 169.716 
169.082 178.854 177.831 178.257 178.003 176.68 177.132 176.854 177.299 
176.965 175.524 175.948 175.653 176.107 175.809 176.222 175.84 174.343 
174.777 174.444 174.896 174.59 175.049 174.697 175.076 174.631 173.03 
173.524 173.134 173.62 173.246 173.764 173.381 173.855 173.395 173.792 
173.303 171.596 172.126 171.699 172.213 171.796 172.343 171.949 172.468 
172.017 172.47 171.988 172.424 171.986 170.124 170.652 170.213 170.729 
170.31 170.862 170.508 171.048 170.666 171.115 170.68 171.099 170.688 
171.139 170.774 168.716 169.198 168.776 169.263 168.85 169.381 169.038 
169.614 169.289 169.802 169.412 169.841 169.436 169.864 169.505 169.964 
169.652 167.49 167.877 167.493 167.909 167.522 167.975 167.618 168.15 
167.835 168.398 168.055 168.557 168.166 168.617 168.247 168.707 168.404 
168.889 168.66 179.133 179.297 178.872 178.166 179.608 179.083 178.342 
177.849 177.062 179.992 179.434 178.63 178.062 177.219 176.712 175.906 
180.164 179.722 178.853 178.319 177.375 176.843 175.935 175.505 174.69 
179.971 179.686 178.774 178.383 177.364 176.89 175.834 175.412 174.469 
174.177 173.337 179.552 179.347 178.43 178.143 177.125 176.736 175.602 
175.174 174.09 173.808 172.903 172.725 171.888 179.043 178.897 178.032 
177.769 176.798 176.44 175.341 174.891 173.764 173.39 172.433 172.229 
171.408 171.245 170.425 178.469 178.396 177.629 177.41 176.509 176.159 
175.137 174.676 173.611 173.148 172.197 171.856 171.04 170.797 170.005 
169.797 169.013 177.883 177.849 177.173 177.026 176.216 175.917 174.979 
174.548 173.569 173.092 172.187 171.755 170.94 170.567 169.776 169.457 
168.688 168.453 167.768 179.743 180.783 180.13 179.945 182.122 181.315 
181.131 180.414 180.291 183.653 182.809 182.574 181.703 181.519 180.823 
180.699 184.939 184.314 184.047 183.151 182.775 182.013 181.786 181.168 
180.903 185.669 185.375 185.168 184.466 183.925 183.13 182.683 182.101 
181.785 181.205 180.752 185.881 185.818 185.671 185.317 184.819 184.131 
183.514 182.863 182.418 181.923 181.494 180.903 180.327 185.878 185.829 
185.631 185.537 185.186 184.823 184.262 183.642 183.048 182.476 181.972 
181.485 180.931 180.363 179.734 185.987 185.818 185.548 185.41 185.113 
184.983 184.602 184.244 183.67 183.093 182.457 181.908 181.307 180.817 
180.194 179.679 179.061 186.178 185.994 185.731 185.453 185.129 184.926 
184.619 184.425 183.983 183.585 182.95 182.398 181.734 181.193 180.571 
180.063 179.459 178.972 178.414 186.16 185.883 185.997 185.752 185.38 
185.636 185.467 185.469 185.124 184.666 185.037 184.923 185.097 184.77 
184.795 184.493 183.731 184.187 184.028 184.392 184.068 184.271 183.89 
184.086 183.77 182.637 183.121 182.902 183.352 183.012 183.364 182.949 
183.271 182.891 183.193 182.771 181.519 181.977 181.744 182.184 181.861 
182.239 181.856 182.215 181.86 182.214 181.829 182.083 181.599 180.415 
180.854 180.595 181.027 180.725 181.119 180.78 181.139 180.814 181.176 
180.837 181.137 180.693 180.901 180.415 179.307 179.734 179.446 179.869 
179.57 179.995 179.69 180.081 179.748 180.121 179.765 180.118 179.695 
179.971 179.486 179.721 179.273 178.23 178.634 178.359 178.743 178.458 
178.862 178.59 178.993 178.678 179.041 178.663 179.013 178.605 178.934 
178.495 178.771 178.34 178.606 178.234 177.565 176.591 177.295 177.685 
175.496 176.275 176.685 177.391 177.779 174.266 175.114 175.561 176.353 
176.778 177.498 177.905 172.993 173.854 174.32 175.179 175.642 176.45 
176.868 177.603 177.973 171.728 172.577 173.025 173.908 174.372 175.247 
175.675 176.489 176.846 177.595 177.922 170.494 171.301 171.709 172.584 
173.019 173.924 174.359 175.235 175.625 176.422 176.762 177.512 177.845 
169.389 170.097 170.461 171.266 171.674 172.551 172.991 173.894 174.339 
175.193 175.594 176.366 176.719 177.448 177.769 168.431 169.054 169.378 
170.077 170.453 171.245 171.68 172.549 173.022 173.909 174.369 175.2 
175.599 176.347 176.683 177.377 177.671 167.532 168.124 168.42 169.051 
169.387 170.091 170.497 171.295 171.763 172.622 173.101 173.961 174.402 
175.208 175.587 176.315 176.642 177.304 177.601 177.376 176.379 176.816 
176.647 175.266 175.731 175.492 175.971 175.686 174.037 174.522 174.216 
174.721 174.386 174.872 174.463 172.728 173.223 172.881 173.388 173.031 
173.525 173.115 173.568 173.104 171.384 171.87 171.498 172.014 171.638 
172.149 171.742 172.215 171.777 172.214 171.774 170.105 170.524 170.109 
170.598 170.185 170.709 170.268 170.789 170.33 170.845 170.405 170.898 
170.497 168.996 169.307 168.868 169.251 168.818 169.264 168.801 169.28 
168.791 169.319 168.862 169.433 169.026 169.597 169.25 168.026 168.265 
167.804 168.095 167.652 167.992 167.527 167.891 167.397 167.818 167.372 
167.888 167.522 168.089 167.779 168.369 168.126 167.118 167.315 166.812 
167.061 166.58 166.879 166.392 166.699 166.187 166.521 166.071 166.5 
166.178 166.683 166.444 166.972 166.784 167.348 167.225 180.062 180.208 
180.482 181.206 180.284 180.623 181.402 181.711 182.474 180.309 180.691 
181.484 181.856 182.632 182.94 183.576 180.214 180.675 181.492 181.919 
182.745 183.085 183.764 183.946 184.415 179.928 180.474 181.302 181.858 
182.773 183.232 184.025 184.216 184.696 184.713 185.034 179.553 180.106 
180.864 181.513 182.414 183.117 183.991 184.439 184.929 184.995 185.165 
185.188 185.372 179.184 179.711 180.386 180.987 181.741 182.519 183.323 
184.093 184.613 185.001 185.107 185.206 185.263 185.406 185.601 178.779 
179.313 179.945 180.492 181.112 181.761 182.409 183.193 183.74 184.39 
184.638 184.968 185.079 185.274 185.503 185.685 185.946 178.321 178.854 
179.435 179.993 180.546 181.118 181.653 182.294 182.819 183.48 183.907 
184.415 184.718 185.052 185.343 185.598 185.881 186.047 186.211 180.15 
181.31 180.675 180.641 182.625 181.967 181.948 181.257 181.265 183.731 
183.246 183.275 182.634 182.615 181.936 181.867 184.512 184.198 184.262 
183.824 183.797 183.228 183.078 182.395 182.027 185.145 184.921 185.046 
184.702 184.705 184.239 184.063 183.471 183.055 182.294 181.675 185.569 
185.496 185.71 185.484 185.552 185.117 184.947 184.361 183.955 183.241 
182.646 181.84 181.227 185.792 185.794 185.99 185.98 186.072 185.87 
185.712 185.224 184.794 184.111 183.521 182.769 182.16 181.423 180.896 
186.041 185.971 186.031 186.049 186.071 186.104 185.985 185.795 185.376 
184.862 184.216 183.558 182.9 182.254 181.674 181.053 180.533 186.253 
186.183 186.131 186.049 185.97 185.974 185.884 185.861 185.556 185.26 
184.631 184.101 183.374 182.832 182.202 181.69 181.129 180.592 180.056 
179.586 180.024 179.495 178.868 180.61 179.985 179.33 178.742 177.962 
181.155 180.57 179.853 179.238 178.4 177.712 176.711 181.214 180.87 
180.046 179.614 178.689 178.09 176.988 176.298 175.188 180.805 180.612 
179.706 179.485 178.515 178.151 177.02 176.456 175.27 174.692 173.646 
180.422 180.166 179.308 179.042 178.146 177.841 176.84 176.384 175.282 
174.732 173.708 173.2 172.318 180.194 179.916 179.162 178.81 178.022 
177.623 176.788 176.31 175.399 174.827 173.919 173.35 172.55 172.026 
171.311 179.888 179.707 178.996 178.729 177.977 177.621 176.832 176.397 
175.584 175.064 174.24 173.666 172.898 172.35 171.676 171.16 170.548 
179.445 179.337 178.639 178.481 177.739 177.502 176.708 176.394 175.582 
175.207 174.397 173.95 173.152 172.673 171.946 171.496 170.859 170.426 
169.849 179.834 180.208 180.294 180.856 180.428 180.634 181.282 181.417 
182.152 180.487 180.798 181.483 181.76 182.523 182.78 183.594 180.442 
180.816 181.495 181.85 182.54 182.936 183.679 184.08 184.765 180.321 
180.732 181.411 181.798 182.442 182.828 183.473 183.928 184.57 185.006 
185.475 180.189 180.589 181.257 181.667 182.341 182.729 183.403 183.761 
184.407 184.762 185.289 185.567 185.825 180.113 180.478 181.124 181.504 
182.188 182.616 183.379 183.779 184.485 184.755 185.28 185.46 185.784 
185.871 185.976 180.049 180.418 181.068 181.41 182.074 182.474 183.254 
183.732 184.501 184.855 185.354 185.51 185.767 185.862 186.019 186.047 
186.116 179.934 180.331 180.989 181.357 182.009 182.384 183.12 183.59 
184.375 184.808 185.36 185.552 185.771 185.83 185.939 186.034 186.147 
186.202 186.256 
POINT_DATA 1002
SCALARS Distance double
LOOKUP_TABLE default
176.894 177.823 176.98 175.958 176.013 175.867 174.864 174.977 174.801 
174.68 173.676 173.833 173.574 173.49 173.398 172.43 172.603 172.278 
172.189 172.142 172.139 171.193 171.411 170.985 170.853 170.816 170.84 
170.897 169.95 170.226 169.716 169.54 169.483 169.526 169.614 169.73 
168.656 169.038 168.427 168.268 168.18 168.222 168.364 168.541 168.734 
167.458 167.992 167.18 167.06 166.942 166.898 167.051 167.321 167.589 
167.837 166.475 167.122 166.096 165.968 165.847 165.667 165.682 165.978 
166.345 166.66 166.95 178.253 177.344 178.666 177.736 179.033 176.368 
178.075 179.381 176.728 175.308 178.365 179.715 176.985 175.578 174.069 
178.627 179.91 177.241 175.827 174.306 172.783 178.75 179.923 177.484 
176.16 174.676 173.083 171.598 178.759 179.878 177.556 176.332 175.009 
173.492 171.939 170.454 178.786 179.81 177.576 176.279 175.012 173.7 
172.3 170.855 169.384 178.803 179.678 177.67 176.294 174.911 173.655 
172.453 171.217 169.873 168.455 179.007 178.007 178.195 176.919 177.061 
176.656 175.544 175.63 175.401 175.111 174.058 174.115 173.991 173.831 
173.654 172.539 172.684 172.412 172.339 172.31 172.365 171.109 171.494 
170.797 170.659 170.741 170.97 171.18 170.027 170.632 169.539 169.314 
169.324 169.508 169.785 169.939 169.312 169.971 168.732 168.478 168.432 
168.35 168.342 168.476 168.534 168.725 169.312 168.116 167.766 167.662 
167.435 167.057 166.901 166.992 167.08 165.773 165.52 164.283 165.303 
163.862 162.821 165.335 163.703 162.48 161.607 165.772 163.914 162.536 
161.426 160.458 166.293 164.358 162.719 161.473 160.179 159.134 166.621 
164.86 162.97 161.465 160.065 158.777 158.078 166.996 165.466 163.578 
161.764 160.198 158.853 157.981 157.715 167.586 166.183 164.465 162.601 
160.874 159.455 158.441 157.909 157.772 168.203 166.86 165.277 163.554 
161.879 160.45 159.341 158.546 158.07 157.874 165.171 163.781 164.905 
162.42 163.64 164.816 161.17 162.354 163.564 164.601 159.838 161.007 
162.265 163.325 164.411 158.574 159.555 160.834 162.094 163.291 164.606 
157.912 158.462 159.423 160.781 162.266 163.674 165.047 157.809 158.045 
158.55 159.609 161.182 162.765 164.147 165.45 157.849 157.996 158.288 
158.971 160.265 161.844 163.27 164.555 165.806 157.932 158.013 158.262 
158.514 159.06 158.289 159.503 160.155 159.018 158.799 160.666 161.226 
160.16 159.778 159.771 161.743 162.327 161.311 160.94 160.839 161.176 
162.946 163.627 162.438 162.041 161.898 162.133 162.641 164.306 164.943 
163.761 163.285 163.043 163.185 163.553 164.012 165.54 166.084 165.087 
164.664 164.372 164.422 164.697 164.991 165.349 166.622 167.129 166.235 
165.914 165.67 165.664 165.879 166.099 166.302 166.592 158.133 158.246 
158.716 159.001 159.677 158.794 160.177 160.895 159.781 159.792 161.574 
162.186 161.141 160.899 160.928 162.974 163.475 162.66 162.344 162.089 
162.066 164.29 164.806 164.06 163.855 163.546 163.327 163.353 165.609 
166.153 165.326 165.187 164.964 164.724 164.644 164.731 166.928 167.393 
166.626 166.478 166.32 166.087 165.937 165.927 165.979 168.14 168.478 
167.908 167.786 167.698 167.513 167.269 167.13 167.098 167.091 169.083 
167.795 168.671 167.262 168.303 166.246 166.895 168.104 165.638 164.546 
166.755 167.966 165.374 164.031 162.91 166.702 167.914 165.392 163.991 
162.666 161.502 166.778 168.03 165.463 164.14 162.799 161.506 160.34 
166.97 168.175 165.602 164.231 162.93 161.64 160.414 159.361 167.159 
168.289 165.835 164.416 163.071 161.792 160.537 159.425 158.594 170.267 
170.018 171.27 171.037 172.393 169.65 172.212 173.615 170.749 169.396 
173.435 174.792 171.984 170.578 169.252 174.603 175.911 173.24 171.849 
170.467 169.134 175.76 176.989 174.48 173.136 171.746 170.398 169.147 
176.827 177.938 175.675 174.403 173.016 171.678 170.423 169.245 177.732 
178.769 176.696 175.564 174.24 172.91 171.674 170.455 169.305 178.549 
179.536 177.554 176.537 175.366 174.097 172.889 171.694 170.492 169.406 