# vtk DataFile Version 4.0
vtk output
ASCII
DATASET POLYDATA
POINTS 1002 float
-105.874 -121.266 77.2345 -106.386 -122.353 76.8587 -106.087 -121.867 75.9126 
-105.52 -120.661 76.3827 -105.83 -121.082 74.9574 -105.281 -119.983 77.6059 
-105.107 -119.839 75.4575 -105.484 -120.117 74.1397 -104.692 -119.436 76.8494 
-104.444 -118.777 78.0329 -104.605 -118.888 74.5399 -105.038 -119.133 73.4045 
-104.137 -118.628 75.9332 -103.749 -118.183 77.3028 -103.62 -117.47 78.5046 
-104.101 -117.869 73.7086 -104.619 -118.081 72.6923 -103.677 -117.565 74.9533 
-103.292 -117.189 76.4024 -103.072 -116.581 77.7725 -103.025 -115.851 78.9653 
-103.701 -116.683 73.0157 -104.291 -116.85 72.0274 -103.254 -116.376 74.1176 
-102.878 -115.998 75.4725 -102.569 -115.514 76.9408 -102.407 -114.895 78.2846 
-102.345 -114.306 79.4268 -103.335 -115.41 72.3394 -103.949 -115.632 71.3796 
-102.84 -115.127 73.4209 -102.353 -114.84 74.6754 -101.84 -114.557 76.0706 
-101.524 -114.136 77.4752 -101.414 -113.62 78.8067 -101.431 -113.133 79.9303 
-102.84 -114.354 71.5989 -103.535 -114.583 70.7812 -102.343 -114.031 72.6512 
-101.847 -113.742 73.9122 -101.166 -113.602 75.2556 -100.642 -113.405 76.554 
-100.49 -112.997 77.9306 -100.48 -112.534 79.3252 -100.604 -112.087 80.4319 
-102.294 -113.454 70.9518 -103.14 -113.552 70.3404 -101.732 -113.185 71.8628 
-101.331 -112.807 73.0671 -100.754 -112.556 74.4338 -100.159 -112.405 75.7014 
-99.9487 -112.098 76.9544 -99.9237 -111.681 78.4202 -99.8906 -111.313 79.8247 
-100.058 -110.949 80.8279 -101.898 -112.454 70.5068 -102.841 -112.459 70.0532 
-101.234 -112.303 71.2708 -100.846 -111.938 72.3172 -100.435 -111.534 73.5771 
-99.9243 -111.251 74.8628 -99.6734 -110.962 76.0839 -99.6663 -110.589 77.4568 
-99.572 -110.267 78.9634 -99.5131 -110.015 80.2206 -99.7445 -109.734 81.0708 
-106.823 -122.923 75.76 -106.497 -122.426 74.6886 -107.5 -123.269 74.4906 
-107.174 -122.721 73.585 -108.507 -123.356 73.4399 -106.254 -121.549 73.8402 
-108.295 -122.575 72.8245 -109.807 -123.104 72.7058 -106.981 -121.719 72.9753 
-105.978 -120.455 73.1812 -109.644 -122.122 72.1172 -111.09 -122.689 71.9227 
-108.112 -121.482 72.2081 -106.765 -120.534 72.2888 -105.635 -119.336 72.4472 
-110.795 -121.762 71.2049 -112.165 -122.351 70.9954 -109.264 -121.196 71.2761 
-107.749 -120.451 71.2977 -106.414 -119.389 71.4137 -105.28 -118.146 71.6742 
-111.834 -121.376 70.3522 -113.186 -121.897 70.2427 -110.282 -120.933 70.3511 
-108.714 -120.372 70.3449 -107.258 -119.435 70.4594 -106.007 -118.199 70.6905 
-104.947 -116.876 71.0211 -112.948 -120.692 69.7159 -114.185 -121.203 69.6559 
-111.415 -120.312 69.6549 -109.792 -119.957 69.5861 -108.257 -119.278 69.6908 
-106.867 -118.212 69.923 -105.697 -116.939 70.1905 -104.636 -115.665 70.4899 
-113.919 -119.991 69.0757 -115.001 -120.526 68.9721 -112.526 -119.539 69.0656 
-110.92 -119.213 68.9515 -109.365 -118.734 68.9533 -107.935 -117.927 69.1841 
-106.658 -116.85 69.5241 -105.524 -115.62 69.8538 -104.36 -114.462 70.1205 
-114.608 -119.507 68.3616 -115.614 -119.988 68.2255 -113.345 -119.022 68.433 
-111.815 -118.634 68.3474 -110.269 -118.195 68.2433 -108.899 -117.508 68.3712 
-107.683 -116.567 68.7886 -106.559 -115.424 69.3173 -105.399 -114.227 69.7205 
-104.112 -113.214 69.9214 -115.52 -119.176 67.6844 -114.313 -118.726 67.7815 
-115.314 -118.189 67.3295 -113.861 -117.801 67.1629 -114.977 -117.046 66.9379 
-112.802 -118.302 67.7212 -113.322 -116.667 66.3945 -114.408 -115.9 66.4186 
-112.161 -117.411 66.8581 -111.142 -117.87 67.5643 -112.658 -115.393 65.8421 
-113.614 -114.658 66.1676 -111.589 -116.164 66.0943 -110.512 -116.84 66.8215 
-109.659 -117.208 67.5935 -111.92 -113.902 65.9292 -112.827 -113.144 66.3774 
-110.971 -114.591 65.9306 -110.017 -115.304 66.4937 -109.161 -115.878 67.2494 
-108.457 -116.221 68.0128 -111.308 -112.207 66.4312 -112.17 -111.607 66.8681 
-110.277 -112.82 66.3052 -109.393 -113.437 66.6169 -108.705 -114.096 67.2656 
-108.092 -114.609 68.0265 -107.395 -115.002 68.7418 -110.819 -110.632 67.1054 
-111.547 -110.312 67.5814 -109.729 -111.09 66.8452 -108.677 -111.622 66.883 
-108.045 -112.24 67.3156 -107.618 -112.832 68.1062 -107.039 -113.269 68.9036 
-106.246 -113.708 69.4171 -110.311 -109.328 67.9167 -110.938 -109.156 68.3792 
-109.331 -109.61 67.5373 -108.158 -110.021 67.3129 -107.325 -110.562 67.4116 
-106.896 -111.177 68.0193 -106.417 -111.676 68.8739 -105.692 -112.069 69.47 
-104.866 -112.582 69.7292 -109.786 -108.156 68.655 -110.417 -107.999 69.0032 
-108.931 -108.346 68.3087 -107.813 -108.608 67.9843 -106.789 -108.987 67.8175 
-106.138 -109.543 68.0694 -105.597 -110.178 68.7015 -104.893 -110.686 69.2795 
-104.116 -111.144 69.5823 -103.408 -111.754 69.7776 -101.968 -111.306 70.0178 
-102.453 -110.542 69.6289 -101.254 -109.931 70.0852 -103.108 -109.906 69.3726 
-101.629 -109.135 69.5673 -100.781 -108.243 70.3231 -103.942 -109.259 69.1421 
-102.272 -108.349 69.3131 -101.067 -107.337 69.7353 -100.389 -106.315 70.6317 
-104.792 -108.458 68.7718 -103.243 -107.388 69.2366 -101.779 -106.321 69.5202 
-100.657 -105.224 70.0294 -99.9761 -104.37 70.875 -105.563 -107.768 68.4545 
-104.281 -106.475 69.0818 -102.912 -105.283 69.4967 -101.478 -104.132 69.8205 
-100.353 -103.186 70.3477 -99.7393 -102.612 71.1771 -106.511 -107.396 68.4915 
-105.276 -105.981 68.9933 -104.113 -104.597 69.4073 -102.747 -103.308 69.7576 
-101.307 -102.221 70.1845 -100.348 -101.552 70.8433 -99.8334 -101.123 71.7515 
-107.67 -107.197 68.7606 -106.398 -105.797 69.148 -105.279 -104.292 69.4336 
-104.129 -102.852 69.7131 -102.722 -101.603 70.1361 -101.472 -100.778 70.7522 
-100.688 -100.292 71.5594 -100.133 -99.8582 72.5107 -108.717 -107.032 69.027 
-107.556 -105.689 69.3679 -106.463 -104.166 69.6374 -105.447 -102.648 69.8519 
-104.266 -101.302 70.1912 -102.991 -100.314 70.7535 -101.957 -99.6964 71.4647 
-101.157 -99.196 72.2895 -100.504 -98.7734 73.2128 -109.536 -106.878 69.2706 
-108.554 -105.608 69.553 -107.564 -104.169 69.8697 -106.63 -102.68 70.1421 
-105.633 -101.325 70.4376 -104.509 -100.235 70.9255 -103.44 -99.4475 71.5408 
-102.49 -98.812 72.1837 -101.612 -98.2436 72.926 -100.942 -97.92 73.8 
-101.137 -111.189 70.6544 -100.673 -109.534 70.9962 -100.631 -110.887 71.6132 
-100.374 -107.598 71.4238 -100.285 -109.048 72.102 -100.251 -110.432 72.7376 
-99.961 -105.663 71.7303 -99.9403 -107.1 72.5319 -99.7837 -108.62 73.161 
-99.7603 -110.026 73.9524 -99.5074 -103.82 71.9289 -99.4526 -105.256 72.8248 
-99.3436 -106.802 73.5424 -99.2523 -108.321 74.3081 -99.4073 -109.705 75.245 
-99.3176 -102.039 72.3053 -99.0557 -103.336 73.1473 -99.0005 -104.922 74.0095 
-98.9702 -106.563 74.8325 -99.062 -108.049 75.7846 -99.3723 -109.361 76.7045 
-99.4359 -100.466 72.9897 -98.9652 -101.429 73.6968 -98.8588 -102.85 74.6195 
-98.9412 -104.581 75.582 -98.9348 -106.288 76.5567 -99.0253 -107.752 77.5144 
-99.3031 -109.044 78.3161 -99.7621 -99.2579 73.7677 -99.2119 -99.9941 74.4355 
-98.9589 -101.067 75.3179 -99.0077 -102.547 76.361 -99.0161 -104.295 77.3739 
-98.8795 -105.996 78.2927 -98.918 -107.476 79.0936 -99.1795 -108.806 79.7362 
-100.254 -98.3957 74.4347 -99.7607 -99.1328 75.1541 -99.3944 -100.002 76.0006 
-99.1859 -101.051 77.0184 -99.1057 -102.445 78.0443 -98.9876 -104.104 78.9125 
-98.9014 -105.741 79.6402 -99.0305 -107.224 80.2578 -99.3388 -108.571 80.7409 
-101.061 -97.5602 74.8302 -100.599 -98.3153 75.6167 -101.461 -97.5325 76.1324 
-101.168 -98.4478 77.0119 -101.917 -97.5996 77.6765 -100.236 -99.2412 76.4911 
-101.581 -98.4263 78.5753 -102.29 -97.624 79.2984 -100.722 -99.3222 77.9708 
-99.7603 -100.087 77.4926 -101.903 -98.4168 80.1523 -102.84 -97.8449 80.7677 
-101.029 -99.2331 79.5131 -100.033 -100.117 78.9988 -99.3303 -101.083 78.5591 
-102.47 -98.7974 81.5522 -103.597 -98.337 81.981 -101.486 -99.4285 80.9956 
-100.459 -100.289 80.4311 -99.5751 -101.284 79.9675 -99.1569 -102.516 79.4819 
-103.096 -99.3582 82.7795 -104.231 -98.9239 83.0744 -102.092 -99.9219 82.3529 
-101.157 -100.738 81.7856 -100.219 -101.74 81.2779 -99.5656 -102.825 80.7766 
-99.1729 -104.178 80.2067 -103.61 -99.8827 83.9623 -104.731 -99.5486 84.1753 
-102.592 -100.361 83.6336 -101.76 -101.111 83.076 -100.928 -102.143 82.5253 
-100.219 -103.226 82.045 -99.7432 -104.388 81.4366 -99.3107 -105.793 80.8052 
-104.182 -100.446 85.042 -105.266 -100.158 85.1998 -103.141 -100.87 84.7914 
-102.32 -101.506 84.2724 -101.554 -102.446 83.6459 -100.779 -103.563 83.1785 
-100.274 -104.696 82.6515 -99.9395 -105.948 81.933 -99.5669 -107.318 81.2797 
-104.815 -101.039 85.8772 -105.81 -100.701 86.0204 -103.805 -101.547 85.6829 
-102.99 -102.199 85.2809 -102.315 -103.021 84.6498 -101.513 -104.043 84.0932 
-100.779 -105.154 83.6495 -100.418 -106.286 83.0148 -100.203 -107.485 82.2455 
-99.9321 -108.683 81.6041 -101.866 -97.4015 73.8502 -101.99 -97.0174 74.9931 
-103.079 -97.2473 74.1455 -103.282 -96.8591 75.3901 -104.5 -97.405 74.707 
-102.328 -96.9307 76.5002 -104.914 -96.9307 75.9125 -105.941 -97.5705 75.3023 
-103.648 -96.6745 77.0127 -102.743 -96.9711 78.2389 -106.578 -96.9918 76.4056 
-107.236 -97.7973 75.8461 -105.443 -96.6131 77.4927 -104.158 -96.6884 78.8262 
-103.304 -97.1272 79.926 -107.938 -97.2898 76.9799 -108.377 -98.321 76.4322 
-107.248 -96.6797 77.9463 -106.054 -96.652 79.3257 -104.875 -96.9353 80.5441 
-104.125 -97.487 81.3473 -109.027 -97.942 77.6171 -109.477 -98.9398 76.9517 
-108.652 -97.094 78.4897 -107.877 -96.8142 79.7728 -106.674 -96.9538 81.1116 
-105.628 -97.3022 81.9977 -104.899 -98.0068 82.5217 -110.057 -98.6713 78.0925 
-110.496 -99.5426 77.3222 -109.739 -97.7848 78.9735 -109.323 -97.2118 80.1381 
-108.395 -97.1114 81.5129 -107.183 -97.3084 82.6038 -106.199 -97.8479 83.187 
-105.444 -98.7045 83.6144 -111.001 -99.4637 78.4376 -111.299 -100.31 77.6633 
-110.706 -98.5959 79.3053 -110.43 -97.847 80.3661 -109.865 -97.4775 81.6832 
-108.831 -97.5226 82.9261 -107.669 -97.9435 83.717 -106.716 -98.6922 84.1946 
-105.949 -99.4907 84.6784 -111.772 -100.357 78.7701 -111.927 -101.17 78.0058 
[...]
CELL_DATA 2000
SCALARS Distance double
LOOKUP_TABLE default
177.832 176.834 177.209 176.866 175.666 176.114 175.786 176.163 175.766 
174.401 174.865 174.515 174.988 174.613 175.014 174.604 173.115 173.555 
173.148 173.645 173.269 173.764 173.364 173.803 173.387 171.809 172.238 
171.781 172.251 171.839 172.36 171.971 172.479 172.072 172.541 172.142 
170.482 170.898 170.415 170.869 170.423 170.923 170.518 171.045 170.658 
171.177 170.81 171.306 170.977 169.203 169.567 169.062 169.494 169.046 
169.521 169.113 169.61 169.228 169.749 169.415 169.957 169.68 170.203 
169.959 168.023 168.319 167.792 168.172 167.731 168.173 167.784 168.248 
167.878 168.361 168.04 168.574 168.334 168.899 168.704 169.241 169.047 
166.938 167.175 166.639 166.961 166.524 166.913 166.532 166.96 166.596 
167.05 166.728 167.235 167.003 167.568 167.401 167.972 167.809 168.347 
168.172 178.187 178.321 177.919 177.19 178.484 178.042 177.311 176.86 
176.055 178.756 178.257 177.514 177.01 176.197 175.694 174.841 179 
178.526 177.746 177.232 176.386 175.855 174.969 174.458 173.579 179.118 
178.697 177.898 177.421 176.545 176.024 175.097 174.572 173.646 173.163 
172.271 179.169 178.768 177.974 177.525 176.669 176.166 175.248 174.7 
173.752 173.223 172.302 171.833 170.955 179.155 178.792 177.989 177.571 
176.727 176.273 175.394 174.871 173.947 173.376 172.456 171.911 171.032 
170.545 169.709 179.032 178.731 177.933 177.554 176.698 176.289 175.415 
174.974 174.079 173.574 172.675 172.127 171.257 170.707 169.867 169.355 
168.555 178.83 178.578 177.822 177.478 176.637 176.236 175.354 174.943 
174.062 173.639 172.78 172.321 171.491 170.976 170.154 169.595 168.775 
168.247 167.478 178.478 177.591 177.863 177.459 176.529 176.865 176.402 
176.725 176.246 175.251 175.646 175.112 175.533 175.021 175.411 174.92 
173.839 174.247 173.658 174.128 173.621 174.094 173.614 174.05 173.603 
172.411 172.8 172.185 172.635 172.133 172.649 172.219 172.71 172.294 
172.751 172.351 171.083 171.409 170.777 171.164 170.608 171.126 170.706 
171.282 170.921 171.44 171.071 171.524 171.124 169.987 170.195 169.551 
169.807 169.172 169.586 169.114 169.716 169.402 170.031 169.715 170.235 
169.835 170.271 169.816 169.107 169.229 168.591 168.705 168.026 168.238 
167.683 168.146 167.821 168.475 168.216 168.827 168.439 168.927 168.435 
168.888 168.406 168.29 168.405 167.787 167.85 167.165 167.227 166.585 
166.829 166.396 166.925 166.65 167.286 166.929 167.471 166.971 167.446 
166.946 167.452 167.053 166.202 165.981 165.636 164.832 165.942 165.453 
164.493 164.217 163.463 165.916 165.429 164.374 163.927 162.99 162.802 
162.079 165.713 165.336 164.306 163.831 162.79 162.397 161.481 161.351 
160.645 165.554 165.146 164.226 163.762 162.779 162.282 161.29 160.882 
160.026 159.918 159.333 165.823 165.225 164.414 163.823 162.965 162.385 
161.476 160.879 159.984 159.54 158.901 158.802 158.462 166.453 165.754 
165.006 164.265 163.468 162.76 161.95 161.247 160.419 159.754 159.092 
158.684 158.348 158.226 158.073 167.1 166.452 165.734 164.987 164.204 
163.427 162.655 161.886 161.146 160.382 159.757 159.132 158.765 158.391 
158.223 158.029 157.924 167.621 167.05 166.364 165.696 164.958 164.213 
163.487 162.707 162.047 161.254 160.704 159.97 159.605 159.025 158.819 
158.392 158.238 157.965 157.887 166.151 164.851 165.605 165.856 163.559 
164.332 164.636 165.406 165.752 162.237 163.056 163.389 164.196 164.562 
165.348 165.738 160.844 161.709 162.067 162.928 163.288 164.115 164.498 
165.335 165.765 159.527 160.313 160.686 161.575 161.967 162.818 163.211 
164.064 164.539 165.403 165.912 158.569 159.104 159.413 160.21 160.657 
161.524 162.013 162.848 163.403 164.241 164.857 165.664 166.247 158.064 
158.323 158.503 159.058 159.489 160.291 160.907 161.761 162.434 163.24 
163.923 164.702 165.359 166.096 166.684 157.869 157.965 158.097 158.376 
158.764 159.323 159.982 160.765 161.535 162.35 163.066 163.833 164.485 
165.232 165.841 166.556 167.108 157.864 157.887 158.107 158.222 158.65 
158.913 159.535 160.046 160.798 161.504 162.235 162.982 163.629 164.365 
164.972 165.701 166.284 166.976 167.501 157.983 158.621 158.276 158.377 
159.629 159.17 159.319 158.872 159.03 160.665 160.227 160.375 159.926 
160.047 159.598 159.841 161.735 161.229 161.326 160.91 161.002 160.589 
160.76 160.462 160.908 163.019 162.379 162.452 161.906 162.033 161.547 
161.743 161.371 161.769 161.604 162.226 164.355 163.709 163.775 163.159 
163.319 162.74 163 162.489 162.889 162.541 163.103 162.953 163.608 
165.608 164.996 165.037 164.462 164.589 164.063 164.306 163.822 164.187 
163.764 164.245 163.932 164.51 164.337 164.965 166.839 166.232 166.27 
165.687 165.801 165.278 165.491 165.046 165.367 164.992 165.41 165.086 
165.582 165.319 165.878 165.698 166.288 167.993 167.44 167.496 166.934 
167.081 166.531 166.774 166.257 166.583 166.138 166.542 166.19 166.659 
166.375 166.883 166.65 167.178 166.996 167.517 158.03 158.514 158.254 
158.552 159.52 158.947 159.091 158.957 159.485 160.83 160.126 160.157 
159.695 160.056 159.98 160.562 162.129 161.462 161.506 160.905 161.157 
160.771 161.258 161.126 161.734 163.43 162.769 162.879 162.283 162.565 
162.041 162.475 162.079 162.643 162.43 163.071 164.784 164.125 164.265 
163.679 164.015 163.497 163.935 163.438 163.911 163.512 164.055 163.827 
164.421 166.071 165.479 165.624 165.069 165.389 164.92 165.353 164.886 
165.294 164.817 165.233 164.87 165.376 165.154 165.7 167.269 166.739 
166.908 166.385 166.664 166.223 166.624 166.223 166.629 166.167 166.535 
166.078 166.513 166.173 166.692 166.441 166.957 168.408 167.934 168.136 
167.64 167.895 167.441 167.799 167.423 167.85 167.458 167.86 167.399 
167.798 167.369 167.83 167.493 167.971 167.686 168.122 167.679 167.377 
167.161 166.419 167.187 166.879 166.095 165.852 165.059 167.163 166.764 
165.966 165.605 164.787 164.485 163.659 167.211 166.784 165.973 165.554 
164.723 164.317 163.467 163.112 162.28 167.278 166.836 166.019 165.583 
164.755 164.314 163.471 163.03 162.194 161.8 161.016 167.426 166.949 
166.174 165.686 164.895 164.4 163.597 163.108 162.322 161.849 161.099 
160.66 159.983 167.673 167.178 166.478 165.952 165.229 164.66 163.897 
163.329 162.588 162.071 161.365 160.867 160.177 159.733 159.148 167.986 
167.49 166.843 166.326 165.656 165.084 164.347 163.728 162.988 162.417 
161.725 161.192 160.483 159.967 159.291 158.917 158.434 168.359 167.859 
167.243 166.724 166.082 165.531 164.826 164.213 163.476 162.869 162.183 
161.61 160.924 160.33 159.629 159.106 158.564 158.266 157.992 168.406 
169.481 168.678 168.166 170.662 169.824 169.328 168.474 167.993 171.888 
171.047 170.57 169.69 169.21 168.367 167.96 173.101 172.281 171.821 
170.952 170.478 169.616 169.202 168.388 168.018 174.251 173.476 173.047 
172.212 171.754 170.89 170.463 169.637 169.261 168.456 168.09 175.31 
174.591 174.201 173.431 173.011 172.169 171.721 170.879 170.482 169.69 
169.333 168.538 168.204 176.294 175.622 175.249 174.547 174.165 173.398 
172.962 172.126 171.694 170.892 170.539 169.772 169.454 168.68 168.399 
177.207 176.587 176.221 175.556 175.18 174.49 174.098 173.336 172.921 
172.115 171.747 170.973 170.667 169.914 169.634 168.892 168.663 178.02 
177.471 177.131 176.501 176.124 175.468 175.108 174.428 174.078 173.334 
172.978 172.197 171.861 171.104 170.81 170.093 169.852 169.165 168.989 
178.348 178.563 178.143 177.476 178.77 178.339 177.642 177.199 176.478 
178.984 178.542 177.843 177.374 176.637 176.184 175.471 179.228 178.768 
178.073 177.589 176.855 176.372 175.643 175.194 174.483 179.496 179.029 
178.32 177.824 177.071 176.586 175.829 175.369 174.611 174.173 173.413 
179.705 179.273 178.543 178.058 177.269 176.779 175.97 175.506 174.679 
174.245 173.419 173.025 172.255 179.806 179.415 178.675 178.235 177.442 
176.962 176.133 175.632 174.761 174.273 173.403 172.983 172.192 171.858 
171.169 179.877 179.485 178.751 178.331 177.566 177.117 176.32 175.817 
174.962 174.407 173.535 173.018 172.238 171.831 171.171 170.844 170.244 
179.943 179.564 178.846 178.425 177.685 177.245 176.485 176.01 175.198 
174.654 173.805 173.241 172.463 171.976 171.323 170.925 170.342 169.988 
169.42 179.71 178.896 179.103 178.618 177.886 178.204 177.75 177.957 
177.445 176.73 177.118 176.683 176.997 176.493 176.734 176.214 175.473 
175.903 175.442 175.834 175.321 175.666 175.124 175.431 174.891 174.079 
174.568 174.071 174.515 173.983 174.396 173.85 174.233 173.688 174.039 
173.498 172.577 173.102 172.62 173.1 172.6 173.039 172.531 172.928 
172.416 172.794 172.303 172.656 172.185 171.136 171.621 171.195 171.669 
171.245 171.696 171.258 171.654 171.175 171.539 171.077 171.463 171.056 
171.425 171.05 169.884 170.286 169.895 170.319 169.927 170.379 169.983 
170.412 169.959 170.326 169.845 170.231 169.824 170.263 169.926 170.345 
170.035 168.811 169.136 168.732 169.089 168.665 169.078 168.671 169.126 
168.713 169.118 168.657 169.018 168.587 169.007 168.673 169.152 168.871 
169.335 169.074 180.24 180.692 180.126 179.39 181.037 180.492 179.691 
179.156 178.344 181.313 180.788 179.963 179.411 178.548 178.017 177.171 
181.417 181.004 180.187 179.671 178.76 178.19 177.263 176.775 175.904 
181.182 180.95 180.13 179.78 178.82 178.316 177.26 176.777 175.8 
175.415 174.496 180.722 180.574 179.743 179.532 178.561 178.199 177.077 
176.642 175.56 175.202 174.225 173.904 172.963 180.249 180.103 179.295 
179.083 178.16 177.849 176.801 176.391 175.323 174.927 173.931 173.587 
172.64 172.337 171.466 179.753 179.649 178.889 178.681 177.831 177.521 
176.589 176.179 175.196 174.75 173.77 173.347 172.393 172.03 171.16 
170.899 170.167 179.19 179.137 178.425 178.282 177.504 177.261 176.416 
176.054 175.127 174.68 173.704 173.241 172.278 171.853 170.977 170.646 
169.915 169.697 169.089 180.83 181.936 181.405 181.382 183.057 182.579 
182.63 181.963 181.819 184.01 183.686 183.852 183.275 183.187 182.398 
182.14 184.696 184.522 184.756 184.411 184.422 183.775 183.504 182.658 
182.243 185.279 185.128 185.335 185.137 185.17 184.799 184.555 183.907 
183.396 182.578 181.984 185.799 185.686 185.878 185.677 185.648 185.339 
185.052 184.64 184.116 183.521 182.844 182.124 181.47 186.012 186.054 
186.238 186.175 186.142 185.816 185.441 184.986 184.423 183.966 183.318 
182.791 182.124 181.523 180.92 185.908 186.037 186.123 186.281 186.26 
186.183 185.824 185.407 184.792 184.263 183.617 183.129 182.506 182.028 
181.427 180.921 180.354 185.771 185.839 185.796 185.951 185.849 185.998 
185.703 185.606 185.062 184.665 184.01 183.49 182.853 182.356 181.758 
181.307 180.739 180.292 179.744 185.757 185.681 185.687 185.659 185.404 
185.474 185.275 185.454 185.488 184.84 185.026 184.718 184.897 184.764 
185.176 185.242 184.032 184.341 184.039 184.229 183.977 184.333 184.315 
184.812 184.73 183.026 183.449 183.176 183.456 183.14 183.472 183.344 
183.832 183.754 184.155 183.832 181.912 182.382 182.111 182.481 182.135 
182.515 182.289 182.788 182.655 183.133 182.847 183.145 182.686 180.834 
181.277 181.025 181.389 181.059 181.436 181.191 181.665 181.5 181.992 
181.728 182.106 181.69 181.973 181.542 179.827 180.245 180.018 180.355 
180.056 180.397 180.169 180.586 180.425 180.864 180.631 181.003 180.645 
180.955 180.563 180.867 180.515 178.838 179.253 179.028 179.376 179.085 
179.429 179.193 179.593 179.408 179.824 179.589 179.957 179.638 179.955 
179.603 179.902 179.564 179.873 179.55 178.218 177.233 177.961 178.357 
176.139 176.903 177.314 178.04 178.421 175.018 175.801 176.247 176.996 
177.443 178.142 178.57 173.84 174.671 175.155 175.949 176.422 177.167 
177.626 178.331 178.769 172.601 173.454 173.947 174.818 175.298 176.107 
176.533 177.307 177.729 178.487 178.892 171.425 172.213 172.678 173.56 
174.061 174.928 175.372 176.167 176.582 177.37 177.802 178.565 178.944 
170.395 171.088 171.507 172.309 172.808 173.678 174.184 175.011 175.474 
176.25 176.709 177.472 177.9 178.609 178.951 169.474 170.105 170.48 
171.19 171.639 172.455 172.962 173.821 174.319 175.145 175.603 176.39 
176.809 177.556 177.919 178.606 178.92 168.596 169.198 169.545 170.196 
170.591 171.325 171.778 172.601 173.081 173.94 174.394 175.231 175.633 
176.424 176.781 177.53 177.865 178.568 178.889 178.652 177.572 178.039 
177.865 176.442 176.898 176.685 177.186 176.968 175.263 175.715 175.442 
175.956 175.716 176.227 175.918 173.997 174.464 174.118 174.644 174.327 
174.884 174.524 175.047 174.619 172.678 173.14 172.747 173.258 172.882 
173.425 173 173.542 173.067 173.62 173.153 171.398 171.817 171.408 
171.876 171.498 171.993 171.585 172.05 171.581 172.056 171.595 172.139 
171.727 170.226 170.579 170.143 170.553 170.142 170.619 170.227 170.699 
170.274 170.692 170.252 170.68 170.288 170.791 170.466 169.17 169.456 
168.981 169.315 168.833 169.25 168.791 169.291 168.856 169.368 168.937 
169.403 169.002 169.459 169.142 169.646 169.426 168.205 168.434 167.927 
168.189 167.672 167.983 167.477 167.868 167.403 167.89 167.475 168.009 
167.634 168.16 167.851 168.376 168.169 168.715 168.597 179.48 179.734 
179.929 180.562 179.884 180.162 180.837 181.042 181.713 179.901 180.253 
180.956 181.262 181.991 182.237 182.975 179.858 180.24 180.968 181.332 
182.107 182.46 183.267 183.536 184.21 179.736 180.172 180.922 181.336 
182.131 182.538 183.355 183.731 184.403 184.613 184.953 179.458 179.964 
180.697 181.218 181.994 182.493 183.259 183.714 184.362 184.675 185.027 
185.096 185.146 179.16 179.634 180.329 180.885 181.625 182.213 182.928 
183.475 184.102 184.534 184.983 185.165 185.355 185.268 185.303 178.984 
179.381 180.04 180.513 181.211 181.767 182.458 183.031 183.652 184.175 
184.694 185.071 185.415 185.518 185.652 185.524 185.574 178.818 179.214 
179.808 180.238 180.846 181.345 181.968 182.525 183.112 183.666 184.163 
184.669 185.036 185.406 185.587 185.73 185.753 185.725 185.721 179.516 
180.6 180.003 179.888 181.772 181.139 181.044 180.391 180.191 183.044 
182.365 182.261 181.574 181.38 180.651 180.268 184.266 183.66 183.518 
182.799 182.555 181.824 181.45 180.624 180.056 184.965 184.68 184.564 
184.008 183.726 182.992 182.594 181.783 181.239 180.338 179.724 185.069 
185.031 184.981 184.799 184.619 184.102 183.714 182.939 182.395 181.505 
180.881 180 179.466 185.153 185.042 185.011 184.988 184.944 184.757 
184.474 183.949 183.408 182.629 181.971 181.113 180.503 179.737 179.295 
185.451 185.251 185.226 185.097 185.095 184.965 184.759 184.455 183.957 
183.435 182.774 182.089 181.426 180.699 180.159 179.522 179.127 185.694 
185.575 185.579 185.43 185.43 185.223 185.025 184.69 184.215 183.785 
183.175 182.686 182.063 181.489 180.914 180.312 179.839 179.292 178.904 
178.902 179.238 178.739 178.044 179.466 179.016 178.302 177.829 177.041 
179.427 179.085 178.322 177.99 177.241 176.766 175.858 179.127 178.854 
178.021 177.831 177.131 176.874 176.059 175.519 174.503 178.835 178.521 
177.686 177.459 176.79 176.652 175.959 175.624 174.67 174.089 173.036 
178.719 178.364 177.64 177.277 176.643 176.384 175.76 175.474 174.627 
174.158 173.135 172.594 171.643 178.675 178.368 177.753 177.379 176.77 
176.398 175.766 175.387 174.611 174.136 173.211 172.679 171.782 171.287 
170.519 178.566 178.339 177.748 177.467 176.833 176.51 175.826 175.455 
174.689 174.224 173.377 172.839 172.008 171.484 170.745 170.275 169.62 
178.363 178.19 177.582 177.367 176.699 176.446 175.73 175.434 174.674 
174.302 173.504 173.045 172.25 171.752 171.006 170.524 169.837 169.404 
168.776 180.638 180.591 180.973 181.696 180.503 180.897 181.607 182.025 
182.744 180.369 180.776 181.433 181.871 182.554 183.008 183.647 180.142 
180.582 181.209 181.654 182.302 182.764 183.4 183.828 184.367 179.874 
180.32 180.962 181.411 182.077 182.525 183.198 183.612 184.213 184.54 
185.02 179.633 180.064 180.714 181.166 181.844 182.307 183.013 183.457 
184.134 184.476 185.008 185.225 185.596 179.41 179.831 180.461 180.913 
181.55 182.029 182.68 183.202 183.89 184.377 184.969 185.257 185.608 
185.73 185.891 179.172 179.587 180.182 180.634 181.234 181.698 182.28 
182.784 183.406 183.991 184.613 185.103 185.497 185.714 185.828 185.883 
185.875 178.907 179.31 179.855 180.311 180.897 181.368 181.96 182.408 
183.001 183.495 184.099 184.631 185.082 185.457 185.607 185.761 185.733 
185.792 185.757 
POINT_DATA 1002
SCALARS Distance double
LOOKUP_TABLE default
177.55 178.431 177.518 176.561 176.425 176.491 175.36 175.215 175.441 
175.369 174.023 173.968 174.166 174.234 174.213 172.676 172.702 172.749 
172.897 172.965 172.986 171.337 171.391 171.332 171.44 171.58 171.675 
171.769 169.97 170.088 169.942 170 170.119 170.279 170.478 170.686 
168.645 168.879 168.574 168.627 168.716 168.853 169.117 169.448 169.745 
167.434 167.759 167.299 167.322 167.407 167.516 167.754 168.136 168.531 
168.866 166.333 166.722 166.152 166.122 166.155 166.231 166.44 166.818 
167.252 167.646 168.006 178.613 177.629 178.723 177.778 178.955 176.529 
178.042 179.273 176.724 175.341 178.267 179.462 176.933 175.502 174.067 
178.365 179.531 177.066 175.64 174.151 172.723 178.412 179.566 177.147 
175.796 174.31 172.798 171.389 178.4 179.501 177.158 175.88 174.51 
173.023 171.55 170.161 178.296 179.303 177.106 175.832 174.537 173.193 
171.811 170.414 169.028 178.138 179.051 177.035 175.771 174.461 173.189 
171.961 170.705 169.346 167.955 178.246 177.207 177.324 176.066 176.201 
175.935 174.674 174.879 174.601 174.531 173.191 173.45 173.111 173.154 
173.16 171.761 172.025 171.605 171.685 171.819 171.905 170.444 170.784 
170.131 170.093 170.346 170.601 170.711 169.363 169.818 168.852 168.539 
168.714 169.151 169.397 169.401 168.511 168.994 167.905 167.327 167.187 
167.564 167.937 167.986 167.919 167.713 168.166 167.14 166.455 165.977 
166.028 166.361 166.492 166.436 166.485 165.4 165.025 164.073 164.901 
163.555 162.764 164.898 163.327 162.091 161.388 164.753 163.271 161.777 
160.58 159.971 164.661 163.268 161.804 160.296 159.209 158.823 165.041 
163.545 162.088 160.542 159.12 158.378 158.189 165.77 164.212 162.651 
161.115 159.606 158.558 158.115 157.922 166.452 164.983 163.421 161.896 
160.432 159.238 158.505 158.055 157.8 166.987 165.658 164.236 162.808 
161.439 160.244 159.336 158.62 158.044 157.821 165.084 163.843 164.985 
162.566 163.764 164.941 161.18 162.461 163.644 164.912 159.793 161.09 
162.354 163.64 165.069 158.7 159.751 161.133 162.557 164.019 165.488 
158.087 158.729 159.995 161.601 163.153 164.605 165.988 157.891 158.319 
159.251 160.708 162.305 163.749 165.107 166.431 157.975 158.461 159.174 
160.186 161.505 162.901 164.243 165.569 166.854 158.157 158.7 159.01 
159.804 160.079 159.459 160.804 161.117 160.522 160.167 161.771 162.319 
161.408 161.083 161.037 163.048 163.692 162.541 162.154 161.999 162.276 
164.389 164.986 163.892 163.529 163.32 163.351 163.686 165.617 166.225 
165.109 164.772 164.621 164.623 164.764 165.085 166.856 167.439 166.339 
165.957 165.749 165.735 165.876 166.111 166.443 168.027 168.517 167.609 
167.299 167.069 166.933 166.962 167.143 167.399 167.694 158.115 158.494 
158.937 159.414 160.212 159.371 160.757 161.524 160.307 160.496 162.108 
162.758 161.658 161.515 161.769 163.445 164.09 163.088 162.957 162.959 
163.205 164.844 165.421 164.509 164.452 164.404 164.375 164.587 166.174 
166.622 165.858 165.805 165.807 165.675 165.651 165.891 167.425 167.764 
167.126 167.011 167.061 167.023 166.911 166.98 167.209 168.615 168.847 
168.371 168.19 168.2 168.293 168.266 168.219 168.292 168.413 167.885 
166.615 167.635 166.389 167.541 165.285 166.367 167.586 165.144 163.936 
166.403 167.648 165.154 163.874 162.595 166.462 167.726 165.196 163.918 
162.623 161.368 166.661 167.895 165.403 164.09 162.786 161.561 160.373 
166.981 168.148 165.795 164.492 163.115 161.869 160.67 159.493 167.346 
168.468 166.206 164.969 163.583 162.27 161.04 159.742 158.643 169.169 
168.982 170.294 170.2 171.498 168.807 171.448 172.723 170.067 168.758 
172.675 173.909 171.343 170.027 168.825 173.848 175 172.621 171.303 
170.064 168.899 174.929 176.006 173.829 172.589 171.276 170.11 168.993 
175.935 176.946 174.887 173.782 172.519 171.293 170.217 169.156 176.884 
177.794 175.849 174.806 173.712 172.538 171.413 170.373 169.376 177.74 