# vtk DataFile Version 4.0
vtk output
ASCII
DATASET POLYDATA
POINTS 1002 float
-104.433 -121.275 74.8281 -105.101 -122.274 74.492 -104.998 -121.608 73.8792 
-104.243 -120.512 74.201 -104.924 -120.808 73.3317 -103.753 -120.124 75.2513 
-104.035 -119.589 73.6444 -104.864 -119.789 72.8562 -103.516 -119.191 74.5961 
-103.248 -118.64 75.7458 -103.923 -118.398 73.12 -104.792 -118.539 72.3666 
-103.269 -118.102 73.982 -102.991 -117.552 75.0916 -102.7 -116.993 76.2623 
-103.864 -117.067 72.5554 -104.659 -117.301 71.8051 -103.078 -116.88 73.343 
-102.597 -116.489 74.4055 -102.155 -116.083 75.624 -101.649 -115.804 76.7669 
-103.651 -115.863 71.9764 -104.448 -116.176 71.273 -102.783 -115.7 72.6848 
-102.068 -115.501 73.6092 -101.42 -115.283 74.8202 -100.793 -115.198 76.0623 
-100.44 -115.026 77.2533 -103.271 -114.74 71.4136 -104.201 -115.018 70.8344 
-102.32 -114.588 72.062 -101.48 -114.508 72.8337 -100.749 -114.419 73.8768 
-100.127 -114.372 75.1367 -99.8272 -114.229 76.4359 -99.8138 -113.854 77.7456 
-102.871 -113.637 70.8254 -103.947 -113.883 70.4355 -101.866 -113.466 71.391 
-101.046 -113.363 72.1373 -100.38 -113.297 73.0515 -99.867 -113.205 74.2013 
-99.6528 -112.984 75.5242 -99.6989 -112.583 76.9022 -99.7347 -112.143 78.2402 
-102.532 -112.641 70.2906 -103.702 -112.892 70.1032 -101.506 -112.427 70.684 
-100.776 -112.183 71.3994 -100.263 -111.959 72.3283 -99.8768 -111.761 73.428 
-99.7014 -111.472 74.701 -99.7529 -111.076 76.0684 -99.8166 -110.702 77.4315 
-99.7613 -110.444 78.6699 -102.323 -111.645 69.9558 -103.518 -111.938 69.9156 
-101.277 -111.406 70.1508 -100.56 -111.076 70.7046 -100.144 -110.659 71.579 
-99.8891 -110.274 72.6779 -99.7446 -109.901 73.9398 -99.7394 -109.523 75.2579 
-99.7999 -109.25 76.5855 -99.7966 -109.111 77.8702 -99.7372 -109.029 78.9978 
-105.643 -122.889 73.7773 -105.62 -122.166 73.123 -106.259 -123.464 72.9706 
-106.281 -122.676 72.2163 -107.151 -123.811 72.0962 -105.678 -121.269 72.5396 
-107.137 -123.005 71.2718 -108.353 -123.911 71.3161 -106.328 -121.731 71.5711 
-105.64 -120.159 72.0398 -108.296 -123.105 70.5543 -109.561 -123.88 70.686 
-107.095 -122.055 70.6597 -106.214 -120.59 71.0602 -105.456 -118.909 71.5043 
-109.563 -122.936 70.0358 -110.593 -123.687 70.0334 -108.304 -122.033 70.0538 
-107.084 -120.792 70.22 -106.077 -119.296 70.5413 -105.277 -117.699 70.9343 
-110.689 -122.558 69.3966 -111.543 -123.372 69.2317 -109.661 -121.656 69.5523 
-108.463 -120.584 69.6558 -107.175 -119.368 69.7795 -106.053 -118.007 70.071 
-105.175 -116.475 70.5103 -111.604 -122.225 68.5743 -112.406 -123.086 68.4018 
-110.717 -121.204 68.8725 -109.7 -120.188 69.1032 -108.482 -119.208 69.2068 
-107.149 -118.107 69.3648 -106.047 -116.705 69.7652 -105.093 -115.174 70.2273 
-112.384 -121.939 67.8564 -113.179 -122.723 67.7649 -111.521 -120.85 68.1473 
-110.521 -119.804 68.4204 -109.407 -118.998 68.5574 -108.176 -118.148 68.6823 
-107.005 -116.912 69.0064 -106.03 -115.397 69.5419 -104.978 -113.99 69.9801 
-113.184 -121.447 67.4485 -113.984 -122.12 67.393 -112.326 -120.443 67.651 
-111.275 -119.407 67.7881 -110.09 -118.669 67.7907 -108.943 -118.036 67.8734 
-107.886 -117.034 68.1977 -106.947 -115.642 68.755 -105.995 -114.216 69.387 
-104.823 -112.979 69.8102 -114.39 -120.92 67.2073 -113.5 -120.061 67.3736 
-114.782 -119.51 67.1372 -113.71 -118.631 67.215 -114.882 -118.215 66.9346 
-112.414 -119.063 67.3882 -113.575 -117.435 66.7923 -114.652 -116.98 66.662 
-112.293 -117.823 66.7922 -111.04 -118.256 67.1082 -113.168 -116.125 66.5303 
-114.247 -115.502 66.6862 -111.897 -116.644 66.1753 -110.659 -117.138 66.2438 
-109.687 -117.657 66.9563 -112.688 -114.494 66.7833 -113.669 -114.018 67.0926 
-111.466 -115.076 66.205 -110.246 -115.687 65.9424 -109.348 -116.275 66.4389 
-108.62 -116.787 67.333 -112.225 -113.065 67.3635 -113.026 -112.871 67.7633 
-111.209 -113.384 66.7881 -110.018 -113.904 66.4119 -109.086 -114.485 66.6793 
-108.425 -115.055 67.3421 -107.714 -115.489 68.0476 -111.854 -111.984 68.1589 
-112.538 -111.829 68.6237 -111.058 -112.108 67.6132 -110.002 -112.37 67.2055 
-108.938 -112.782 67.3196 -108.175 -113.274 67.8212 -107.514 -113.774 68.3306 
-106.763 -114.1 68.8399 -111.531 -110.821 69.0536 -112.151 -110.619 69.4647 
-110.829 -110.985 68.624 -109.924 -111.153 68.2366 -108.858 -111.388 68.1419 
-107.915 -111.716 68.431 -107.153 -112.132 68.8323 -106.393 -112.525 69.1772 
-105.591 -112.79 69.5052 -111.132 -109.478 69.7733 -111.711 -109.352 70.0959 
-110.447 -109.644 69.5124 -109.607 -109.822 69.2812 -108.63 -109.992 69.1071 
-107.66 -110.181 69.1206 -106.774 -110.446 69.3221 -105.918 -110.784 69.5518 
-105.06 -111.151 69.7181 -104.238 -111.539 69.8251 -102.669 -110.526 69.8269 
-103.436 -109.8 69.8363 -102.011 -108.662 69.7073 -104.328 -109.2 69.8305 
-102.777 -107.692 69.6619 -101.627 -106.596 69.5633 -105.301 -108.808 69.7725 
-103.656 -107.046 69.6518 -102.348 -105.683 69.3876 -101.45 -104.666 69.5261 
-106.308 -108.564 69.7131 -104.711 -106.709 69.7256 -103.248 -105.128 69.4051 
-102.271 -103.913 69.3343 -101.477 -102.844 69.6999 -107.307 -108.416 69.7458 
-105.875 -106.532 69.8806 -104.465 -104.795 69.6796 -103.403 -103.371 69.4908 
-102.592 -102.136 69.573 -101.683 -101.189 70.0207 -108.318 -108.312 69.8687 
-106.998 -106.479 70.0621 -105.773 -104.674 70.0361 -104.733 -103.114 70.0018 
-103.903 -101.727 69.8995 -102.996 -100.638 70.0226 -102.007 -100.086 70.6419 
-109.303 -108.205 69.992 -108.067 -106.518 70.2386 -106.93 -104.789 70.3585 
-105.9 -103.241 70.5779 -105.021 -101.859 70.6532 -104.209 -100.624 70.5934 
-103.3 -99.7975 70.9374 -102.466 -99.5116 71.7581 -110.145 -108.129 70.1365 
-109.035 -106.631 70.4361 -107.959 -105.066 70.7079 -106.918 -103.573 71.0636 
-105.93 -102.273 71.383 -105.12 -101.095 71.4982 -104.4 -100.038 71.7035 
-103.652 -99.3238 72.2654 -102.991 -99.049 73.0337 -110.825 -108.125 70.3866 
-109.831 -106.814 70.7082 -108.849 -105.445 71.1095 -107.907 -104.008 71.5233 
-106.957 -102.64 71.8588 -106.083 -101.491 72.1317 -105.384 -100.478 72.4662 
-104.754 -99.5489 72.9289 -104.083 -98.8583 73.4591 -103.438 -98.5189 74.0301 
-101.504 -110.179 69.8276 -100.996 -108.207 69.7992 -100.594 -109.84 70.122 
-100.745 -105.984 69.8483 -100.187 -107.724 70.2308 -100.029 -109.352 70.7995 
-100.624 -103.832 70.0181 -99.9931 -105.348 70.4209 -99.7205 -107.166 71.0089 
-99.785 -108.811 71.83 -100.62 -101.925 70.3307 -99.9432 -103.116 70.7548 
-99.6831 -104.86 71.3895 -99.6797 -106.694 72.2637 -99.7301 -108.329 73.1753 
-100.823 -100.579 70.8548 -100.001 -101.374 71.2768 -99.7343 -102.778 71.986 
-99.7782 -104.612 72.924 -99.7705 -106.322 73.8176 -99.7206 -107.916 74.5911 
-101.351 -99.8975 71.8201 -100.368 -100.372 72.1099 -99.7987 -101.19 72.757 
-99.7339 -102.696 73.7095 -99.819 -104.463 74.5551 -99.7619 -106.098 75.2351 
-99.7308 -107.698 75.938 -102.071 -99.4475 73.0934 -101.141 -99.8922 73.3128 
-100.247 -100.281 73.8033 -99.6993 -101.145 74.6168 -99.6778 -102.698 75.3998 
-99.776 -104.447 75.9667 -99.7386 -106.121 76.5911 -99.738 -107.691 77.2966 
-102.656 -98.8738 74.2135 -101.93 -99.4289 74.5524 -101.066 -99.83 75.0435 
-100.136 -100.249 75.7134 -99.6588 -101.258 76.3969 -99.7071 -102.845 76.9025 
-99.7754 -104.576 77.3979 -99.7219 -106.229 78.0157 -99.7133 -107.716 78.5858 
-103.291 -98.0664 74.9812 -102.587 -98.5732 75.4665 -103.168 -97.6736 76.2786 
-102.552 -98.34 77.0125 -103.295 -97.5659 77.9417 -101.955 -99.2565 76.1191 
-102.746 -98.4225 78.5833 -103.689 -97.9654 79.441 -101.966 -99.2078 77.7635 
-101.054 -99.7753 76.8188 -103.044 -98.9185 79.8486 -103.923 -98.6984 80.6509 
-102.125 -99.4892 79.0956 -101.091 -100.006 78.3903 -100.138 -100.42 77.471 
-103.04 -99.5152 81.1985 -103.803 -99.3176 82.0551 -102.315 -100.015 80.2932 
-101.327 -100.575 79.5863 -100.326 -100.973 78.9314 -99.7861 -101.641 77.9942 
-102.893 -100.016 82.7835 -103.763 -99.8782 83.473 -102.36 -100.517 81.8161 
-101.658 -101.222 80.8759 -100.663 -101.747 80.2041 -99.9723 -102.264 79.4978 
-99.7882 -103.265 78.48 -103.085 -100.738 84.0341 -104.071 -100.735 84.4403 
-102.466 -101.117 83.2612 -101.938 -101.818 82.3023 -101.05 -102.48 81.5278 
-100.15 -102.962 80.9071 -99.7738 -103.738 80.0824 -99.7326 -104.974 79.0248 
-103.538 -101.771 84.8982 -104.479 -101.762 85.1504 -102.782 -102.051 84.2873 
-102.199 -102.575 83.4224 -101.428 -103.18 82.6885 -100.462 -103.689 82.1479 
-99.8501 -104.302 81.4641 -99.7024 -105.352 80.5146 -99.6931 -106.621 79.5007 
-103.904 -102.755 85.7078 -104.769 -102.617 85.8784 -103.126 -103.09 85.2042 
-102.495 -103.518 84.3657 -101.817 -103.975 83.5893 -100.935 -104.473 83.1091 
-100.198 -105.052 82.5871 -99.8907 -105.888 81.7414 -99.7894 -107.004 80.75 
-99.724 -108.109 79.8312 -104.296 -98.1973 74.4766 -104.19 -97.6296 75.442 
-105.384 -98.1351 75.0008 -105.483 -97.5803 76.1813 -106.496 -98.259 75.7 
-104.202 -97.2409 76.9627 -106.74 -97.8257 77.0864 -107.352 -98.6166 76.4656 
-105.657 -97.3094 77.8579 -104.466 -97.3278 78.7434 -107.62 -98.3902 77.7703 
-108.194 -99.305 77.0416 -106.862 -97.7759 78.5434 -105.787 -97.6333 79.3891 
-104.793 -97.9992 80.1176 -108.631 -99.1812 78.1905 -109.437 -99.9679 77.3807 
-107.743 -98.5646 78.9353 -106.77 -98.3093 79.7188 -105.868 -98.4015 80.5947 
-104.904 -98.7917 81.3807 -110.049 -99.7779 78.6181 -110.721 -100.43 77.6867 
-109.029 -99.3294 79.4679 -107.843 -99.1161 80.2081 -106.916 -98.9965 81.1265 
-106.083 -99.0554 82.1095 -104.92 -99.3889 82.8889 -111.17 -100.347 79.0839 
-111.486 -101.15 78.0959 -110.504 -99.8454 80.1245 -109.371 -99.712 80.9757 
-108.244 -99.6345 81.8583 -107.4 -99.5265 82.849 -106.364 -99.7132 83.599 
-105.086 -100.17 84.0683 -111.704 -101.313 79.4817 -111.917 -102.214 78.5608 
-111.381 -100.577 80.5653 -110.661 -100.253 81.53 -109.618 -100.212 82.3919 
-108.674 -100.164 83.3175 -107.732 -100.301 84.0699 -106.532 -100.745 84.4749 
-105.354 -101.245 84.7863 -112.156 -102.413 79.812 -112.455 -103.161 78.9881 
-111.831 -101.675 80.808 -111.35 -101.155 81.7751 -110.592 -100.95 82.6132 
[...]
CELL_DATA 2000
SCALARS Distance double
LOOKUP_TABLE default
176.04 175.207 175.426 175.035 174.292 174.522 174.051 174.345 173.943 
173.247 173.514 172.97 173.278 172.815 173.186 172.768 172.103 172.387 
171.805 172.122 171.608 171.993 171.553 171.957 171.544 170.951 171.213 
170.598 170.905 170.342 170.728 170.251 170.692 170.287 170.736 170.403 
169.801 170.039 169.362 169.659 169.039 169.415 168.892 169.341 168.925 
169.43 169.119 169.643 169.403 168.657 168.848 168.104 168.38 167.725 
168.087 167.55 167.979 167.564 168.06 167.765 168.318 168.098 168.659 
168.451 167.611 167.708 166.92 167.125 166.456 166.78 166.253 166.661 
166.256 166.729 166.428 166.967 166.749 167.326 167.142 167.706 167.519 
166.704 166.712 165.891 166.002 165.31 165.559 165.016 165.387 164.967 
165.428 165.102 165.629 165.378 165.959 165.773 166.379 166.233 166.809 
166.672 176.503 176.942 176.391 175.709 177.35 176.806 176.127 175.581 
174.85 177.769 177.191 176.477 175.957 175.228 174.666 173.842 178.245 
177.632 176.864 176.288 175.52 174.979 174.149 173.575 172.695 178.631 
178.098 177.336 176.715 175.895 175.276 174.423 173.837 172.973 172.406 
171.551 178.793 178.391 177.673 177.151 176.339 175.704 174.829 174.167 
173.304 172.694 171.867 171.291 170.454 178.829 178.48 177.77 177.365 
176.584 176.08 175.236 174.62 173.75 173.095 172.259 171.64 170.826 
170.215 169.372 178.842 178.503 177.778 177.394 176.6 176.195 175.383 
174.928 174.096 173.534 172.684 172.064 171.246 170.627 169.827 169.183 
168.37 178.832 178.513 177.803 177.408 176.595 176.171 175.334 174.951 
174.152 173.752 172.946 172.44 171.63 171.057 170.295 169.684 168.931 
168.262 167.495 178.61 177.907 178.041 177.553 177.08 177.251 176.679 
176.847 176.283 176.084 176.317 175.658 175.849 175.185 175.452 174.925 
174.907 175.202 174.474 174.697 173.94 174.237 173.67 174.092 173.701 
173.669 173.951 173.196 173.425 172.628 172.92 172.33 172.783 172.415 
172.911 172.556 172.631 172.785 172.075 172.204 171.453 171.648 171.07 
171.46 171.114 171.615 171.306 171.749 171.331 171.899 171.934 171.323 
171.31 170.658 170.672 170.123 170.326 169.979 170.378 170.106 170.532 
170.169 170.525 170.062 171.247 171.303 170.751 170.736 170.149 170.085 
169.526 169.55 169.124 169.351 169.032 169.388 169.03 169.385 168.924 
169.246 168.726 170.458 170.592 170.02 170.123 169.524 169.565 168.942 
168.968 168.392 168.524 168.036 168.317 167.844 168.201 167.668 168.036 
167.458 167.827 167.266 166.279 166.396 165.778 164.666 166.595 165.9 
164.658 164.041 162.925 166.855 166.14 164.864 164.076 162.834 162.299 
161.345 167.184 166.476 165.285 164.388 163.108 162.34 161.327 160.867 
160.117 167.635 166.915 165.853 164.93 163.724 162.798 161.771 161.068 
160.314 159.823 159.218 168.206 167.475 166.503 165.6 164.513 163.558 
162.604 161.743 161.004 160.278 159.691 159.121 158.721 168.783 168.088 
167.182 166.328 165.349 164.436 163.587 162.711 162.045 161.2 160.651 
159.868 159.487 158.909 158.817 169.292 168.654 167.835 167.058 166.202 
165.347 164.595 163.749 163.153 162.326 161.843 161.014 160.655 159.911 
159.769 159.253 159.346 169.764 169.17 168.451 167.753 167.041 166.267 
165.626 164.809 164.25 163.44 162.982 162.212 161.881 161.154 160.969 
160.328 160.281 159.815 159.872 165.927 164.35 165.11 165.067 162.688 
163.489 163.518 164.335 164.467 161.142 161.859 161.904 162.762 162.96 
163.848 164.148 159.852 160.398 160.372 161.16 161.376 162.319 162.708 
163.649 164.098 158.866 159.207 159.098 159.717 159.945 160.815 161.314 
162.265 162.84 163.732 164.275 158.368 158.417 158.287 158.627 158.87 
159.567 160.178 161.054 161.75 162.587 163.209 164.006 164.582 158.554 
158.293 158.225 158.17 158.37 158.729 159.321 160.072 160.838 161.641 
162.308 163.041 163.653 164.398 165.009 159.158 158.802 158.835 158.519 
158.668 158.574 158.98 159.368 160.068 160.787 161.516 162.235 162.888 
163.574 164.232 164.922 165.54 159.685 159.44 159.526 159.277 159.444 
159.151 159.387 159.31 159.797 160.167 160.884 161.514 162.245 162.9 
163.591 164.236 164.886 165.501 166.056 159.847 160.085 159.899 159.821 
160.641 160.302 160.342 160.048 159.919 161.625 161.07 161.093 160.704 
160.652 160.161 159.922 162.791 162.152 162.074 161.571 161.516 160.986 
160.808 160.234 160.186 163.853 163.253 163.123 162.584 162.52 161.956 
161.861 161.243 161.249 160.766 161.094 164.855 164.254 164.157 163.626 
163.633 163.067 163.067 162.426 162.483 161.924 162.22 161.872 162.393 
165.987 165.321 165.267 164.703 164.792 164.253 164.339 163.719 163.776 
163.181 163.395 162.992 163.437 163.185 163.728 167.24 166.559 166.534 
165.907 165.996 165.445 165.56 164.993 165.054 164.457 164.583 164.117 
164.464 164.187 164.688 164.48 164.994 168.414 167.825 167.826 167.215 
167.268 166.676 166.757 166.192 166.276 165.705 165.83 165.305 165.586 
165.211 165.654 165.409 165.892 165.685 166.133 160.101 160.767 160.3 
160.233 161.828 161.163 161.035 160.572 160.763 163.04 162.384 162.35 
161.667 161.804 161.363 161.796 164.236 163.633 163.685 163.06 163.182 
162.61 162.925 162.553 163.02 165.544 164.895 164.947 164.341 164.45 
163.917 164.157 163.737 164.103 163.758 164.13 166.912 166.287 166.397 
165.706 165.842 165.193 165.452 164.949 165.338 164.911 165.283 164.846 
165.17 168.136 167.63 167.847 167.24 167.452 166.745 167.019 166.375 
166.789 166.255 166.685 166.14 166.476 165.943 166.294 169.257 168.804 
169.051 168.601 168.857 168.316 168.559 167.969 168.287 167.752 168.136 
167.603 167.93 167.347 167.638 167.117 167.491 170.375 169.919 170.142 
169.728 169.981 169.561 169.79 169.329 169.564 169.112 169.409 168.968 
169.269 168.763 169.012 168.47 168.733 168.275 168.613 169.817 169.564 
169.306 168.534 169.434 169.104 168.335 168.024 167.228 169.401 169.031 
168.276 167.91 167.125 166.755 165.927 169.43 169.028 168.255 167.874 
167.079 166.696 165.845 165.445 164.585 169.524 169.082 168.285 167.86 
167.047 166.646 165.785 165.366 164.486 164.105 163.311 169.653 169.196 
168.4 167.931 167.125 166.665 165.824 165.344 164.486 164.046 163.29 
162.935 162.276 169.799 169.336 168.565 168.086 167.323 166.831 166.033 
165.486 164.655 164.135 163.413 163.007 162.415 162.038 161.458 170.021 
169.53 168.811 168.309 167.613 167.105 166.384 165.803 165.021 164.42 
163.708 163.221 162.641 162.241 161.693 161.286 160.75 170.352 169.841 
169.202 168.663 168.051 167.503 166.87 166.259 165.558 164.901 164.227 
163.635 163.052 162.545 161.977 161.526 160.981 160.611 160.198 170.561 
171.589 170.829 170.342 172.629 171.882 171.423 170.644 170.195 173.713 
172.949 172.515 171.737 171.298 170.535 170.144 174.873 174.089 173.68 
172.871 172.444 171.65 171.257 170.515 170.175 176.022 175.276 174.904 
174.092 173.672 172.833 172.412 171.63 171.286 170.573 170.271 177.097 
176.412 176.069 175.307 174.901 174.078 173.632 172.804 172.411 171.673 
171.378 170.688 170.399 178.082 177.47 177.154 176.437 176.04 175.265 
174.841 174.03 173.614 172.822 172.49 171.783 171.519 170.826 170.543 
178.909 178.403 178.133 177.495 177.112 176.373 175.966 175.208 174.827 
174.044 173.683 172.921 172.63 171.935 171.689 170.99 170.737 179.59 
179.158 178.923 178.405 178.056 177.401 176.99 176.294 175.93 175.222 
174.874 174.119 173.781 173.053 172.789 172.118 171.899 171.217 171.012 
179.885 180.061 179.721 179.193 180.169 179.832 179.246 178.945 178.327 
180.374 179.944 179.314 178.952 178.304 177.98 177.298 180.707 180.224 
179.56 179.08 178.404 177.991 177.326 176.957 176.286 180.837 180.482 
179.781 179.342 178.626 178.168 177.476 177.047 176.361 175.969 175.266 
180.787 180.476 179.786 179.445 178.735 178.355 177.642 177.221 176.483 
176.051 175.294 174.901 174.171 180.901 180.495 179.858 179.459 178.807 
178.424 177.754 177.352 176.62 176.172 175.39 174.944 174.2 173.82 
173.165 180.965 180.639 179.993 179.618 178.982 178.57 177.913 177.48 
176.773 176.315 175.562 175.086 174.351 173.911 173.251 172.885 172.289 
180.616 180.487 179.786 179.619 178.961 178.699 178.01 177.635 176.896 
176.468 175.729 175.281 174.567 174.112 173.438 173.017 172.388 172.027 
171.432 180.047 178.997 179.396 179.265 178.214 178.436 178.236 178.665 
178.529 177.413 177.66 177.29 177.643 177.425 177.882 177.624 176.227 
176.68 176.25 176.614 176.237 176.696 176.402 176.873 176.52 174.799 
175.373 175.039 175.464 175.061 175.471 175.142 175.614 175.318 175.752 
175.39 173.327 173.959 173.722 174.228 173.886 174.295 173.954 174.392 
174.107 174.561 174.249 174.644 174.268 171.829 172.483 172.278 172.885 
172.578 173.073 172.69 173.162 172.805 173.312 172.972 173.455 173.089 
173.507 173.131 170.45 171.011 170.809 171.422 171.158 171.707 171.334 
171.821 171.424 171.935 171.579 172.108 171.761 172.258 171.91 172.364 
172.043 169.301 169.723 169.492 170.017 169.801 170.329 170.046 170.502 
170.166 170.6 170.296 170.763 170.492 170.96 170.678 171.131 170.848 
171.307 171.057 180.371 180.602 180.09 179.365 180.912 180.472 179.874 
179.28 178.688 180.923 180.792 180.343 179.865 179.197 178.615 177.893 
180.382 180.573 180.151 180.052 179.246 178.869 177.885 177.492 176.559 
179.56 179.809 179.335 179.485 178.655 178.514 177.419 177.166 176.114 
175.901 174.994 178.82 178.95 178.461 178.595 177.916 177.825 176.89 
176.624 175.64 175.383 174.471 174.297 173.469 178.22 178.252 177.752 
177.831 177.282 177.232 176.491 176.24 175.351 175.016 174.083 173.796 
172.899 172.747 171.951 177.708 177.677 177.12 177.164 176.608 176.647 
175.97 175.864 175.001 174.739 173.759 173.438 172.471 172.219 171.388 
171.271 170.587 177.268 177.186 176.571 176.537 175.928 175.956 175.304 
175.28 174.487 174.314 173.39 173.097 172.165 171.861 171.056 170.834 
170.185 170.055 169.496 181.188 182.395 181.667 181.363 183.277 182.791 
182.451 181.751 181.431 183.74 183.528 183.28 182.69 182.164 181.605 
181.218 183.921 183.881 183.801 183.412 182.908 182.25 181.641 181.168 
180.683 184.026 183.995 183.962 183.807 183.462 182.951 182.341 181.689 
181.092 180.559 180.01 184.353 184.16 184.045 183.877 183.546 183.286 
182.773 182.339 181.752 181.157 180.551 179.937 179.357 184.838 184.594 
184.441 184.084 183.664 183.293 182.773 182.514 182.02 181.692 181.114 
180.567 179.924 179.328 178.76 184.987 184.947 184.796 184.534 184.123 
183.609 183.048 182.582 182.114 181.811 181.342 180.972 180.367 179.865 
179.257 178.748 178.239 184.676 184.805 184.62 184.652 184.323 184.055 
183.554 183.059 182.56 182.08 181.621 181.185 180.642 180.194 179.612 
179.177 178.668 178.239 177.789 184.386 183.96 184.175 184.28 183.742 
183.776 183.743 184.033 184.044 183.546 183.559 183.333 183.485 183.414 
183.683 183.461 182.898 183.16 182.808 182.969 182.708 183.001 182.808 
182.998 182.591 181.741 182.23 181.884 182.2 181.809 182.157 181.897 
182.255 181.916 182.063 181.572 180.478 180.987 180.727 181.134 180.805 
181.164 180.879 181.265 180.946 181.239 180.761 180.946 180.452 179.301 
179.777 179.569 180.009 179.781 180.17 179.919 180.27 179.941 180.231 
179.779 180.015 179.539 179.79 179.398 178.151 178.622 178.412 178.881 
178.662 179.121 178.863 179.272 178.912 179.23 178.776 179.034 178.604 
178.873 178.54 178.814 178.518 177.04 177.483 177.272 177.729 177.499 
177.962 177.688 178.129 177.772 178.145 177.719 178.032 177.643 177.957 
177.67 177.985 177.732 177.991 177.692 176.369 175.405 176.125 176.585 
174.364 175.136 175.612 176.34 176.797 173.198 174.037 174.519 175.322 
175.77 176.517 176.945 171.954 172.797 173.252 174.136 174.593 175.425 
175.833 176.606 176.991 170.837 171.579 171.997 172.827 173.295 174.178 
174.635 175.459 175.853 176.613 176.967 169.886 170.56 170.982 171.677 
172.125 172.913 173.421 174.259 174.744 175.514 175.929 176.623 176.986 
168.935 169.627 170.063 170.744 171.177 171.864 172.338 173.106 173.633 
174.432 174.927 175.654 176.084 176.722 177.093 167.978 168.65 169.068 
169.79 170.227 170.933 171.357 172.075 172.541 173.331 173.832 174.63 
175.087 175.814 176.206 176.847 177.171 167.119 167.716 168.106 168.787 
169.226 169.944 170.361 171.068 171.471 172.226 172.681 173.497 173.955 
174.746 175.137 175.869 176.194 176.856 177.118 176.844 175.884 176.272 
176.081 174.823 175.244 175.027 175.476 175.357 173.648 174.126 173.905 
174.385 174.229 174.752 174.671 172.356 172.865 172.622 173.185 173.012 
173.577 173.42 173.991 173.831 171.126 171.556 171.25 171.807 171.607 
172.251 172.079 172.683 172.445 173.021 172.752 170.021 170.384 170.028 
170.465 170.194 170.78 170.591 171.247 171.025 171.618 171.322 171.88 
171.586 168.89 169.268 168.883 169.281 168.926 169.402 169.115 169.718 
169.487 170.137 169.897 170.489 170.234 170.773 170.547 167.769 168.114 
167.692 168.083 167.663 168.108 167.728 168.259 167.964 168.589 168.379 
169.036 168.865 169.471 169.306 169.843 169.703 166.788 167.047 166.599 
166.9 166.438 166.81 166.401 166.874 166.583 167.142 166.961 167.572 
167.453 168.088 167.984 168.596 168.491 169.06 168.983 179.451 179.495 
179.785 180.401 179.5 179.826 180.498 180.783 181.428 179.47 179.828 
180.544 180.888 181.622 181.878 182.521 179.34 179.777 180.504 180.912 
181.695 182.061 182.796 183 183.534 179.001 179.563 180.284 180.787 
181.508 182.007 182.757 183.18 183.793 183.944 184.273 178.519 179.137 
179.856 180.441 181.075 181.639 182.285 182.903 183.561 184.029 184.44 
184.533 184.648 178.043 178.632 179.331 179.937 180.561 181.114 181.703 
182.309 182.964 183.597 184.112 184.488 184.632 184.699 184.655 177.586 
178.143 178.789 179.388 180.015 180.582 181.194 181.762 182.428 183.024 
183.591 184.046 184.253 184.464 184.386 184.511 184.46 177.118 177.651 
178.24 178.822 179.411 180.005 180.596 181.217 181.853 182.496 183.052 
183.55 183.783 184.03 183.977 184.123 184.073 184.285 184.384 179.616 
180.565 180.115 180.194 181.569 181.088 181.154 180.71 180.772 182.613 
182.11 182.143 181.668 181.689 181.236 181.185 183.55 183.108 183.129 
182.667 182.666 182.163 182.106 181.581 181.432 184.198 183.886 183.878 
183.564 183.586 183.15 183.092 182.551 182.458 181.864 181.69 184.562 
184.373 184.341 184.158 184.199 183.94 183.877 183.464 183.324 182.859 
182.698 182.123 181.809 184.704 184.662 184.734 184.602 184.708 184.487 
184.441 184.089 183.876 183.524 183.29 182.929 182.578 182.033 181.496 
184.683 184.783 185.037 185.03 185.275 185.085 185.099 184.677 184.414 
183.966 183.662 183.338 183.005 182.606 182.086 181.521 180.923 184.677 
184.801 185.136 185.272 185.594 185.604 185.684 185.37 185.069 184.537 
184.11 183.683 183.334 182.979 182.551 182.057 181.504 180.936 180.441 
179.103 179.675 179.083 178.455 180.253 179.672 179.003 178.377 177.658 
180.634 180.166 179.441 178.858 178.037 177.462 176.651 180.779 180.377 
179.592 179.124 178.212 177.708 176.819 176.337 175.475 180.929 180.451 
179.589 179.132 178.225 177.772 176.886 176.436 175.598 175.118 174.268 
181.029 180.583 179.667 179.152 178.277 177.807 177.03 176.562 175.806 
175.292 174.517 173.973 173.219 180.781 180.539 179.675 179.249 178.399 
177.942 177.226 176.784 176.103 175.593 174.859 174.296 173.579 173.045 
172.422 180.301 180.184 179.466 179.198 178.443 178.069 177.357 176.972 
176.29 175.863 175.131 174.637 173.903 173.406 172.752 172.301 171.723 
179.913 179.785 179.214 179.012 178.386 178.083 177.406 177.054 176.355 
175.976 175.24 174.821 174.079 173.654 172.969 172.564 171.931 171.542 
170.932 181.318 181.628 181.852 182.45 181.516 181.917 182.482 182.791 
183.222 181.425 181.749 182.317 182.65 183.083 183.347 183.615 181.496 
181.773 182.396 182.616 183.136 183.271 183.592 183.673 183.837 181.318 
181.751 182.357 182.725 183.324 183.515 183.937 183.879 184.058 183.936 
184.051 180.961 181.421 181.973 182.475 183.063 183.544 184.088 184.289 
184.562 184.389 184.477 184.26 184.428 180.766 181.129 181.71 182.094 
182.661 183.128 183.747 184.226 184.745 184.88 185.092 184.861 184.955 
184.738 184.907 180.63 180.999 181.617 181.965 182.538 182.851 183.417 
183.846 184.491 184.912 185.387 185.432 185.562 185.316 185.307 185.114 
185.085 180.405 180.811 181.416 181.851 182.435 182.773 183.244 183.576 
184.092 184.579 185.129 185.518 185.772 185.772 185.673 185.454 185.239 
185.062 184.835 
POINT_DATA 1002
SCALARS Distance double
LOOKUP_TABLE default
175.672 176.613 175.837 174.771 175.015 174.662 173.781 174.083 173.604 
173.565 172.68 172.982 172.453 172.391 172.351 171.501 171.827 171.236 
171.14 171.133 171.152 170.314 170.716 169.979 169.812 169.805 169.925 
170.135 169.089 169.601 168.684 168.455 168.41 168.564 168.871 169.206 
167.855 168.516 167.369 167.123 167.074 167.21 167.523 167.905 168.248 
166.755 167.562 166.151 165.849 165.79 165.906 166.173 166.556 166.97 
167.343 165.819 166.733 165.101 164.679 164.523 164.591 164.814 165.154 
165.616 166.118 166.558 177.06 176.277 177.491 176.653 177.909 175.454 
177.012 178.389 175.767 174.465 177.496 178.851 176.087 174.707 173.279 
177.948 179.095 176.565 175.036 173.528 172.113 178.133 179.154 176.942 
175.513 173.941 172.444 171.047 178.156 179.178 177.023 175.79 174.41 
172.901 171.433 170.002 178.175 179.174 177.005 175.775 174.586 173.294 
171.86 170.45 169.034 178.191 179.132 177.046 175.735 174.493 173.379 
172.168 170.866 169.572 168.191 178.509 177.427 177.788 176.542 176.913 
176.071 175.498 175.843 174.935 174.55 174.267 174.614 173.66 173.227 
173.234 172.976 173.42 172.35 171.876 171.89 172.122 171.963 172.513 
171.291 170.723 170.618 170.839 170.961 171.33 171.858 170.679 170.009 
169.644 169.683 169.801 169.752 170.724 171.163 170.202 169.571 169.002 
168.732 168.686 168.608 168.417 169.893 170.321 169.448 168.925 168.336 
167.844 167.537 167.313 167.086 166.875 165.231 165.23 163.539 165.389 
163.358 161.88 165.721 163.484 161.662 160.497 166.175 163.964 161.878 
160.445 159.414 166.73 164.656 162.555 160.885 159.615 158.63 167.363 
165.419 163.468 161.794 160.339 159.123 158.414 167.981 166.207 164.424 
162.874 161.47 160.146 159.195 158.847 168.538 166.988 165.414 163.951 
162.635 161.427 160.395 159.721 159.474 169.081 167.736 166.402 165.064 
163.738 162.576 161.644 160.87 160.253 159.891 164.283 162.649 163.624 
161.053 162.017 163.245 159.652 160.419 161.699 163.184 158.561 159.087 
160.335 161.916 163.426 158.066 158.24 159.288 160.918 162.425 163.784 
158.404 158.211 158.665 160.017 161.588 162.919 164.262 159.159 158.946 
158.852 159.431 160.764 162.203 163.547 164.891 159.692 159.73 159.661 
159.654 160.312 161.581 162.957 164.274 165.497 159.961 160.047 160.252 
160.613 161.062 160.372 161.54 162.278 161.131 160.457 162.642 163.457 
162.045 161.375 160.597 163.662 164.445 163.068 162.452 161.761 161.393 
164.66 165.464 164.152 163.685 163.068 162.623 162.648 165.842 166.656 
165.302 164.928 164.409 163.855 163.711 163.958 167.182 167.884 166.58 
166.11 165.647 165.11 164.788 164.899 165.214 168.412 168.947 167.885 
167.341 166.824 166.361 166.022 165.95 166.118 166.349 160.453 160.489 
161.362 161.641 162.483 160.979 163.029 163.611 162.384 162.054 164.26 
164.84 163.769 163.396 163.33 165.588 166.206 164.995 164.589 164.489 
164.492 167.069 167.465 166.538 165.996 165.772 165.756 165.604 168.359 
168.586 168.116 167.706 167.359 167.239 167.062 166.763 169.468 169.719 
169.33 169.129 168.844 168.661 168.512 168.218 167.934 170.573 170.836 
170.388 170.226 170.016 169.834 169.735 169.562 169.259 169.008 170.05 
168.788 169.856 168.672 169.776 167.549 168.648 169.782 167.512 166.317 
168.656 169.857 167.465 166.263 164.957 168.737 169.982 167.464 166.214 
164.88 163.622 168.871 170.109 167.595 166.321 164.94 163.64 162.612 
169.03 170.261 167.796 166.58 165.201 163.829 162.773 161.863 169.302 
170.503 168.103 166.942 165.632 164.233 163.064 162.089 161.129 171.316 
171.124 172.331 172.193 173.367 170.955 173.289 174.487 172.067 170.877 
174.494 175.643 173.26 172.009 170.889 175.697 176.731 174.527 173.234 
171.996 170.976 176.813 177.751 175.702 174.478 173.187 172.052 171.109 
177.851 178.647 176.802 175.62 174.429 173.23 172.19 171.261 178.716 
179.369 177.837 176.701 175.582 174.477 173.345 172.357 171.449 179.392 