# vtk DataFile Version 4.0
vtk output
ASCII
DATASET POLYDATA
POINTS 1002 float
-107.808 -125.329 70.9848 -108.69 -126.267 70.3401 -108.389 -125.566 69.7442 
-107.523 -124.501 70.3612 -108.193 -124.564 69.2536 -107.003 -124.223 71.6891 
-107.246 -123.415 69.7966 -107.94 -123.42 68.7806 -106.632 -123.279 71.0158 
-106.131 -122.919 72.4306 -106.767 -122.265 69.2366 -107.447 -122.319 68.2168 
-106.151 -122.12 70.365 -105.59 -121.845 71.7626 -105.207 -121.311 73.2201 
-106.084 -121.126 68.6301 -106.79 -121.22 67.5749 -105.492 -120.897 69.7516 
-104.931 -120.639 71.0979 -104.504 -120.225 72.6192 -104.3 -119.605 73.9943 
-105.433 -119.876 68.0274 -106.208 -119.999 67.0164 -104.821 -119.604 69.1934 
-104.231 -119.352 70.4801 -103.666 -119.146 71.9462 -103.361 -118.734 73.4323 
-103.218 -118.199 74.7066 -104.892 -118.506 67.5427 -105.747 -118.666 66.6773 
-104.207 -118.27 68.6808 -103.597 -118.028 69.9583 -102.856 -117.968 71.2704 
-102.281 -117.891 72.7124 -102.055 -117.542 74.1361 -101.985 -117.093 75.3791 
-104.37 -117.137 67.2082 -105.331 -117.291 66.5107 -103.523 -117.031 68.1596 
-102.905 -116.879 69.4099 -102.2 -116.787 70.6899 -101.428 -116.836 71.992 
-100.993 -116.757 73.4221 -100.91 -116.401 74.7951 -101.007 -115.965 75.9919 
-103.884 -115.857 66.9614 -104.943 -115.978 66.4008 -102.84 -115.877 67.6554 
-102.122 -115.876 68.7284 -101.574 -115.747 70.0499 -100.918 -115.65 71.3588 
-100.377 -115.629 72.7231 -100.166 -115.463 74.1429 -100.201 -115.101 75.4347 
-100.394 -114.718 76.5532 -103.487 -114.717 66.7567 -104.591 -114.818 66.3078 
-102.349 -114.758 67.262 -101.517 -114.795 68.1012 -101.012 -114.666 69.3393 
-100.529 -114.437 70.6874 -100.06 -114.292 72.0235 -99.7968 -114.203 73.4437 
-99.7114 -114.02 74.8428 -99.7538 -113.751 76.0633 -99.938 -113.501 77.106 
-109.542 -126.664 69.3584 -109.247 -125.847 68.795 -110.571 -126.818 68.412 
-110.216 -125.916 67.8166 -111.561 -126.772 67.4247 -109.041 -124.72 68.3076 
-111.114 -125.823 66.7151 -112.469 -126.639 66.34 -109.917 -124.753 67.1979 
-108.76 -123.507 67.7579 -112.045 -125.59 65.563 -113.5 -126.29 65.2671 
-110.714 -124.708 65.9777 -109.529 -123.561 66.5157 -108.229 -122.358 67.1075 
-113.185 -125.095 64.5429 -114.63 -125.583 64.305 -111.664 -124.467 64.9039 
-110.246 -123.555 65.2946 -108.945 -122.368 65.8484 -107.575 -121.19 66.4823 
-114.279 -124.442 63.6416 -115.636 -124.809 63.4337 -112.824 -123.903 64.0157 
-111.231 -123.203 64.3304 -109.7 -122.236 64.6853 -108.324 -121.115 65.3326 
-107.006 -119.949 66.0584 -115.134 -123.855 62.7616 -116.545 -124.198 62.6384 
-113.82 -123.229 63.0975 -112.407 -122.479 63.4934 -110.78 -121.707 63.7818 
-109.179 -120.849 64.2658 -107.768 -119.848 65.0478 -106.527 -118.615 65.853 
-115.96 -123.232 61.9581 -117.462 -123.567 61.9197 -114.592 -122.594 62.1632 
-113.345 -121.767 62.61 -111.91 -120.998 63.04 -110.259 -120.313 63.4353 
-108.646 -119.544 64.0647 -107.269 -118.5 64.9165 -106.109 -117.197 65.7603 
-116.869 -122.447 61.3369 -118.316 -122.786 61.2824 -115.403 -121.918 61.4447 
-114.068 -121.212 61.8043 -112.704 -120.468 62.3033 -111.195 -119.776 62.7346 
-109.632 -119.078 63.2368 -108.143 -118.215 63.9922 -106.87 -117.074 64.9052 
-105.755 -115.833 65.7372 -118.242 -121.677 60.8476 -116.729 -121.258 60.9841 
-118.09 -120.497 60.7054 -116.465 -120.063 60.8936 -117.754 -119.223 60.7364 
-115.136 -120.73 61.183 -115.877 -118.57 60.7588 -117.12 -117.554 60.6766 
-114.559 -119.441 60.9857 -113.488 -120.061 61.5391 -114.992 -116.632 60.5935 
-116.185 -115.854 60.8287 -113.631 -117.616 60.6152 -112.511 -118.603 61.0943 
-111.826 -119.297 61.9285 -114.07 -115.104 61.1055 -115.081 -114.761 61.6534 
-112.753 -115.719 60.7384 -111.538 -116.711 60.8015 -110.822 -117.751 61.48 
-110.329 -118.507 62.4261 -113.284 -114.165 62.3044 -114.051 -113.844 62.8445 
-112.178 -114.538 61.873 -110.977 -115.158 61.5818 -110.138 -116.065 61.742 
-109.59 -116.955 62.4316 -108.92 -117.649 63.2456 -112.642 -112.991 63.4628 
-113.262 -112.621 63.9623 -111.747 -113.401 63.1413 -110.626 -113.861 62.9212 
-109.671 -114.498 62.855 -109.006 -115.275 63.1607 -108.314 -115.984 63.7068 
-107.527 -116.573 64.2841 -112.058 -111.595 64.4495 -112.626 -111.386 65.0044 
-111.291 -111.866 64.0359 -110.233 -112.186 63.8176 -109.143 -112.653 63.7696 
-108.325 -113.351 63.9911 -107.648 -114.116 64.4206 -106.925 -114.773 64.8395 
-106.263 -115.332 65.2589 -111.449 -110.386 65.4299 -112.001 -110.325 65.9782 
-110.772 -110.465 64.9254 -109.806 -110.575 64.5809 -108.646 -110.816 64.4161 
-107.642 -111.345 64.5138 -106.903 -112.118 64.8949 -106.234 -112.913 65.3175 
-105.586 -113.617 65.6422 -105.039 -114.243 65.9605 -103.524 -113.645 66.4702 
-104.002 -112.875 66.2045 -102.347 -112.349 66.5912 -104.639 -112.023 65.9823 
-102.838 -111.323 66.3901 -101.324 -110.642 66.8304 -105.4 -111.146 65.73 
-103.637 -110.272 66.3196 -101.821 -109.397 66.6646 -100.605 -108.581 67.2309 
-106.184 -110.337 65.4378 -104.601 -109.402 66.3251 -102.775 -108.291 66.7556 
-101.164 -107.287 67.0674 -100.149 -106.623 67.7531 -107.125 -109.723 65.315 
-105.571 -108.776 66.3832 -103.896 -107.502 66.972 -102.23 -106.21 67.1731 
-100.912 -105.432 67.6666 -99.9467 -104.93 68.4713 -108.341 -109.393 65.4262 
-106.744 -108.316 66.4913 -105.068 -106.923 67.1431 -103.453 -105.37 67.3007 
-102.097 -104.381 67.716 -100.952 -103.844 68.4993 -99.9862 -103.286 69.2453 
-109.516 -109.26 65.6547 -108.091 -107.974 66.5493 -106.493 -106.446 67.1848 
-104.838 -104.778 67.3778 -103.399 -103.551 67.7341 -102.201 -102.865 68.5086 
-101.083 -102.271 69.2255 -100.177 -101.737 69.8263 -110.36 -109.202 66.0222 
-109.192 -107.756 66.6435 -107.91 -106.115 67.1682 -106.42 -104.499 67.4958 
-104.881 -103.193 67.8874 -103.537 -102.26 68.5587 -102.35 -101.501 69.2207 
-101.272 -100.879 69.7293 -100.471 -100.578 70.4057 -110.982 -109.187 66.5185 
-109.943 -107.697 66.9535 -108.931 -106.014 67.3281 -107.786 -104.491 67.7344 
-106.412 -103.266 68.2401 -105.006 -102.201 68.8352 -103.746 -101.225 69.3816 
-102.602 -100.442 69.8274 -101.599 -99.9909 70.391 -100.866 -99.8965 71.2832 
-102.297 -113.596 66.8699 -101.279 -112.14 67.1327 -101.316 -113.542 67.5312 
-100.581 -110.171 67.6536 -100.666 -111.8 68.1495 -100.728 -113.349 68.6554 
-99.9931 -108.069 68.2158 -100.134 -109.753 68.9091 -100.161 -111.466 69.4768 
-100.233 -113.067 70.0179 -99.4616 -106.145 68.7694 -99.4618 -107.79 69.464 
-99.518 -109.606 70.1888 -99.5319 -111.291 70.7392 -99.7435 -112.845 71.3561 
-99.2514 -104.27 69.4885 -99.0088 -105.744 70.0825 -99.0452 -107.654 70.8669 
-99.0661 -109.512 71.4958 -99.203 -111.135 72.099 -99.5005 -112.71 72.8175 
-99.3993 -102.554 70.232 -98.9966 -103.75 70.9581 -98.9502 -105.42 71.8772 
-99.0046 -107.348 72.6098 -99.0547 -109.201 73.15 -99.1918 -110.947 73.7819 
-99.417 -112.6 74.4111 -99.7293 -101.288 70.9497 -99.2246 -102.328 71.8545 
-98.9307 -103.628 72.9532 -98.8474 -105.171 73.8466 -98.9334 -106.983 74.3966 
-99.0359 -108.974 74.9033 -99.1324 -110.885 75.4598 -99.3553 -112.487 75.8561 
-100.136 -100.454 71.8644 -99.58 -101.404 72.77 -99.0157 -102.563 73.8398 
-98.5156 -103.739 74.7477 -98.4498 -105.104 75.3349 -98.7456 -106.955 75.821 
-98.9573 -109.077 76.378 -99.0905 -110.951 76.8294 -99.414 -112.38 77.0361 
-100.863 -99.7134 72.8336 -100.205 -100.373 73.6371 -101.045 -99.6216 74.5906 
-100.428 -100.335 75.4246 -101.471 -99.7216 76.0604 -99.5738 -101.467 74.5856 
-100.88 -100.488 76.83 -102.069 -100.136 77.3066 -99.702 -101.504 76.1694 
-98.7163 -102.686 75.4186 -101.436 -100.94 78.1219 -102.59 -100.533 78.7183 
-100.189 -101.709 77.5161 -98.8065 -102.784 76.7479 -98.1363 -103.833 76.0019 
-101.859 -101.39 79.5405 -103.019 -100.786 80.1381 -100.747 -102.173 78.97 
-99.5292 -103.061 78.2491 -98.5628 -104.063 77.3068 -98.3989 -105.334 76.5157 
-102.349 -101.884 80.7686 -103.609 -101.406 81.1499 -101.138 -102.711 80.3623 
-100.172 -103.586 79.8599 -99.506 -104.519 78.9686 -99.0842 -105.831 77.9401 
-98.9164 -107.462 77.1462 -103.158 -102.76 81.6171 -104.369 -102.469 81.8186 
-101.816 -103.425 81.3781 -100.665 -104.287 81.028 -100.094 -105.185 80.3696 
-99.8161 -106.433 79.4277 -99.4308 -108.076 78.5333 -99.1137 -109.655 77.727 
-104.054 -103.831 82.2935 -105.086 -103.497 82.4677 -102.865 -104.393 82.1216 
-101.61 -105.162 81.7864 -100.743 -106.003 81.1818 -100.33 -107.085 80.4236 
-99.9402 -108.581 79.6804 -99.5172 -110.124 78.9192 -99.3321 -111.365 78.024 
-104.781 -104.753 82.9603 -105.687 -104.292 83.1817 -103.813 -105.357 82.7736 
-102.747 -106.093 82.455 -101.823 -106.887 81.8435 -101.187 -107.813 81.1035 
-100.638 -109.06 80.4737 -100.133 -110.467 79.8594 -99.8633 -111.677 79.0549 
-99.8466 -112.638 78.0831 -101.849 -99.528 71.792 -101.947 -99.3481 73.4346 
-103.246 -99.3995 72.4962 -103.578 -99.106 74.0408 -104.875 -99.2609 73.2122 
-102.314 -99.2882 75.0145 -105.414 -98.6699 74.5648 -106.398 -99.0714 73.8073 
-104.237 -98.976 75.3377 -102.962 -99.5652 76.2967 -106.954 -98.2581 75.0555 
-107.816 -99.12 74.2795 -106.178 -98.3834 75.7441 -104.993 -99.274 76.5928 
-103.6 -99.9955 77.7017 -108.346 -98.3231 75.5012 -109.267 -99.4723 74.6648 
-107.574 -97.9856 76.3122 -106.732 -98.6965 77.1362 -105.397 -99.5655 78.212 
-103.997 -100.133 79.3496 -109.838 -98.8322 75.8401 -110.537 -100.063 74.9999 
-108.908 -98.2113 76.8172 -107.993 -98.4785 77.7996 -106.923 -99.1032 78.7945 
-105.598 -99.7159 79.8597 -104.415 -100.457 80.6929 -111.135 -99.6996 76.1039 
-111.518 -100.919 75.282 -110.414 -98.9393 77.1105 -109.428 -98.9026 78.2631 
-108.385 -99.198 79.3441 -107.264 -99.6499 80.2727 -106.079 -100.453 81.0288 
-105.069 -101.459 81.5123 -112.138 -100.815 76.3181 -112.437 -101.856 75.4709 
-111.665 -100.025 77.2898 -110.895 -99.775 78.4296 -109.943 -99.8597 79.6196 
-108.962 -100.103 80.6012 -107.905 -100.738 81.3034 -106.771 -101.689 81.8055 
-105.78 -102.62 82.1696 -113.051 -101.87 76.4681 -113.365 -102.677 75.5851 
-112.628 -101.191 77.451 -112.017 -100.84 78.5012 -111.224 -100.796 79.609 
[...]
CELL_DATA 2000
SCALARS Distance double
LOOKUP_TABLE default
179.233 178.265 178.591 178.258 177.172 177.544 177.163 177.552 177.184 
175.932 176.35 175.896 176.338 175.906 176.363 175.925 174.555 175.007 
174.485 174.956 174.461 174.968 174.509 175.009 174.548 173.115 173.558 
172.999 173.474 172.939 173.454 172.984 173.531 173.105 173.622 173.199 
171.71 172.1 171.514 171.97 171.432 171.927 171.439 171.981 171.567 
172.144 171.767 172.306 171.94 170.381 170.704 170.071 170.492 169.966 
170.451 169.981 170.475 170.05 170.601 170.258 170.847 170.536 171.09 
170.797 169.142 169.394 168.714 169.067 168.526 169.004 168.575 169.067 
168.658 169.148 168.808 169.368 169.114 169.693 169.456 170.005 169.784 
168.033 168.209 167.514 167.766 167.196 167.602 167.185 167.68 167.303 
167.789 167.434 167.963 167.71 168.302 168.115 168.689 168.506 169.052 
168.892 179.68 180.058 179.496 178.723 180.339 179.826 179.015 178.474 
177.644 180.455 180.008 179.175 178.695 177.833 177.323 176.432 180.478 
180.053 179.199 178.769 177.895 177.438 176.528 176.032 175.079 180.439 
180.052 179.206 178.777 177.902 177.449 176.528 176.063 175.11 174.623 
173.655 180.304 179.984 179.184 178.792 177.923 177.461 176.511 176.031 
175.076 174.62 173.69 173.213 172.283 180.142 179.833 179.047 178.717 
177.854 177.451 176.49 176.012 175.035 174.579 173.674 173.241 172.361 
171.881 170.986 180.017 179.68 178.842 178.517 177.642 177.308 176.387 
175.971 175.016 174.558 173.65 173.222 172.367 171.939 171.079 170.606 
169.748 179.871 179.54 178.667 178.306 177.423 177.083 176.212 175.849 
174.954 174.536 173.641 173.213 172.358 171.94 171.11 170.678 169.86 
169.404 168.62 179.491 178.523 178.767 178.274 177.516 177.777 177.24 
177.493 177.002 176.164 176.606 175.985 176.359 175.789 176.18 175.729 
174.436 174.963 174.206 174.787 174.103 174.732 174.222 174.829 174.416 
173 173.27 172.476 172.884 172.174 172.813 172.34 173.12 172.79 
173.48 173.122 172.088 172.163 171.503 171.546 170.941 171.161 170.794 
171.333 171.166 171.843 171.629 172.218 171.882 171.241 171.382 170.817 
170.864 170.293 170.327 169.896 170.142 169.937 170.422 170.256 170.786 
170.492 170.999 170.645 170.35 170.511 169.924 170.089 169.432 169.589 
168.939 169.212 168.737 169.218 168.897 169.45 169.108 169.62 169.238 
169.756 169.404 169.559 169.652 169.037 169.148 168.451 168.57 167.815 
168.026 167.371 167.81 167.356 167.963 167.591 168.183 167.794 168.337 
167.969 168.517 168.19 167.328 167.067 166.754 165.853 166.846 166.487 
165.499 165.178 164.206 166.622 166.266 165.264 164.855 163.773 163.445 
162.485 166.417 166.054 165.153 164.718 163.672 163.135 162.059 161.737 
160.926 166.49 165.989 165.226 164.753 163.85 163.203 162.118 161.511 
160.619 160.356 159.782 166.999 166.329 165.644 165.042 164.236 163.517 
162.45 161.697 160.741 160.27 159.673 159.448 159.013 167.704 167.008 
166.328 165.634 164.832 164.035 162.982 162.116 161.114 160.492 159.856 
159.509 159.056 158.786 158.362 168.349 167.712 167.007 166.318 165.493 
164.7 163.721 162.8 161.854 161.035 160.384 159.828 159.379 158.955 
158.511 158.19 157.873 168.919 168.324 167.615 166.934 166.113 165.36 
164.506 163.66 162.877 161.993 161.387 160.598 160.15 159.487 159.086 
158.535 158.228 157.888 157.825 167.22 165.754 166.546 166.664 164.17 
165.042 165.228 166.058 166.338 162.538 163.461 163.768 164.662 165.032 
165.877 166.319 161.017 161.881 162.279 163.242 163.701 164.596 165.054 
165.931 166.421 159.793 160.458 160.816 161.773 162.297 163.262 163.743 
164.641 165.134 166.037 166.563 158.893 159.339 159.555 160.367 160.916 
161.889 162.484 163.373 163.927 164.789 165.401 166.272 166.89 158.217 
158.52 158.665 159.254 159.792 160.642 161.363 162.232 162.911 163.715 
164.395 165.218 165.928 166.729 167.362 157.815 157.985 158.213 158.59 
159.129 159.743 160.452 161.223 161.938 162.757 163.464 164.298 165.031 
165.839 166.524 167.246 167.817 157.832 157.837 158.179 158.385 158.945 
159.313 159.91 160.436 161.02 161.752 162.42 163.314 164.079 164.964 
165.703 166.457 167.083 167.721 168.25 158.098 158.849 158.415 158.492 
159.794 159.288 159.365 159.004 159.251 160.889 160.29 160.31 159.892 
160.032 159.752 160.044 162.125 161.459 161.427 160.876 160.917 160.491 
160.639 160.471 160.921 163.318 162.697 162.693 162.091 162.161 161.539 
161.671 161.197 161.623 161.515 162.282 164.503 163.876 163.92 163.359 
163.521 162.926 163.166 162.533 162.983 162.546 163.322 163.166 164.069 
165.884 165.176 165.258 164.629 164.826 164.279 164.587 164.069 164.53 
164.077 164.754 164.436 165.237 165.026 165.776 167.346 166.659 166.793 
166.102 166.311 165.664 165.954 165.424 165.85 165.474 166.058 165.791 
166.449 166.212 166.832 166.607 167.161 168.661 168.085 168.255 167.652 
167.88 167.231 167.496 166.867 167.231 166.745 167.263 166.952 167.552 
167.316 167.877 167.63 168.119 167.875 168.327 158.255 159.086 158.696 
158.972 160.284 159.709 159.872 159.526 159.91 161.481 160.915 161.044 
160.576 160.889 160.569 161.051 162.58 162.009 162.119 161.719 162.064 
161.701 162.143 161.813 162.317 163.803 163.112 163.143 162.72 163.081 
162.824 163.28 162.962 163.361 163.047 163.476 165.179 164.426 164.425 
163.833 164.142 163.814 164.284 164.006 164.399 164.072 164.442 164.161 
164.63 166.556 165.854 165.924 165.248 165.546 165.032 165.508 165.089 
165.556 165.143 165.591 165.217 165.723 165.418 165.999 167.881 167.258 
167.416 166.784 167.103 166.54 167.009 166.492 166.997 166.481 166.997 
166.519 167.069 166.648 167.207 166.864 167.437 169.121 168.587 168.794 
168.246 168.556 168.045 168.459 167.986 168.446 167.975 168.459 167.997 
168.508 168.057 168.552 168.122 168.589 168.247 168.733 169.041 168.759 
168.51 167.68 168.46 168.167 167.245 167.007 166.122 168.298 167.924 
167.018 166.632 165.712 165.44 164.576 168.26 167.853 166.993 166.532 
165.623 165.19 164.323 163.982 163.129 168.246 167.832 166.944 166.512 
165.567 165.139 164.225 163.842 162.975 162.603 161.745 168.313 167.841 
166.948 166.466 165.53 165.063 164.14 163.729 162.855 162.484 161.621 
161.255 160.449 168.513 167.992 167.186 166.614 165.802 165.201 164.391 
163.797 163.006 162.475 161.694 161.212 160.417 160.021 159.321 168.788 
168.272 167.542 166.976 166.249 165.646 164.912 164.258 163.514 162.856 
162.148 161.517 160.816 160.198 159.508 159.027 158.485 169.111 168.601 
167.905 167.362 166.636 166.088 165.334 164.761 163.983 163.39 162.678 
162.093 161.467 160.82 160.203 159.508 158.966 158.424 158.103 169.767 
170.803 170.073 169.596 171.895 171.148 170.716 169.895 169.351 173.084 
172.288 171.876 171.051 170.537 169.658 169.141 174.317 173.51 173.116 
172.279 171.807 170.89 170.369 169.499 169.063 175.503 174.722 174.344 
173.546 173.131 172.229 171.723 170.779 170.315 169.469 169.081 176.664 
175.899 175.528 174.754 174.376 173.551 173.091 172.165 171.673 170.767 
170.358 169.517 169.156 177.776 177.071 176.73 175.952 175.578 174.776 
174.359 173.498 173.027 172.127 171.685 170.821 170.449 169.623 169.302 
178.726 178.141 177.858 177.152 176.791 175.996 175.586 174.752 174.328 
173.464 173.042 172.163 171.774 170.923 170.588 169.792 169.52 179.526 
179.028 178.797 178.212 177.898 177.183 176.778 175.976 175.566 174.751 
174.378 173.533 173.16 172.28 171.924 171.083 170.791 170.025 169.804 
179.894 180.222 179.766 179.168 180.533 180.075 179.434 178.983 178.298 
180.821 180.367 179.7 179.225 178.476 178 177.195 181.117 180.652 
179.968 179.47 178.666 178.148 177.291 176.815 175.988 181.426 180.951 
180.234 179.716 178.869 178.317 177.423 176.915 176.08 175.629 174.834 
181.649 181.216 180.467 179.96 179.085 178.513 177.589 177.05 176.19 
175.727 174.91 174.468 173.639 181.69 181.331 180.558 180.127 179.262 
178.729 177.803 177.235 176.336 175.83 174.973 174.516 173.651 173.217 
172.381 181.62 181.294 180.518 180.142 179.309 178.861 177.976 177.452 
176.549 176.001 175.111 174.589 173.713 173.232 172.393 171.976 171.227 
181.543 181.237 180.517 180.125 179.327 178.887 178.045 177.581 176.723 
176.215 175.34 174.784 173.912 173.363 172.536 172.048 171.3 170.898 
170.24 181.288 180.658 180.773 180.309 179.872 180.08 179.533 179.647 
179.059 178.675 179.085 178.483 178.722 178.045 178.267 177.694 177.119 
177.682 177.125 177.516 176.863 177.153 176.555 176.873 176.366 175.461 
176.07 175.612 176.104 175.547 175.915 175.332 175.682 175.152 175.517 
175 173.813 174.435 174.014 174.583 174.057 174.53 173.927 174.361 
173.777 174.218 173.67 174.087 173.554 172.203 172.799 172.374 172.967 
172.45 172.972 172.357 172.84 172.228 172.731 172.183 172.681 172.173 
172.63 172.16 170.733 171.232 170.814 171.359 170.9 171.397 170.853 
171.291 170.733 171.187 170.688 171.181 170.734 171.228 170.81 171.286 
170.915 169.5 169.862 169.437 169.891 169.473 169.937 169.466 169.886 
169.39 169.799 169.339 169.774 169.354 169.82 169.437 169.932 169.6 
170.107 169.835 181.697 181.936 181.55 181.025 182.161 181.708 181.15 
180.853 180.278 182.669 182.018 181.359 180.942 180.353 179.986 179.169 
183.251 182.632 181.88 181.258 180.533 180.046 179.179 178.67 177.613 
183.232 183.002 182.215 181.712 180.786 180.23 179.198 178.634 177.477 
176.965 175.861 182.573 182.631 181.868 181.682 180.662 180.268 179.087 
178.573 177.304 176.772 175.571 175.173 174.151 181.878 181.901 181.206 
181.115 180.175 179.907 178.776 178.35 177.108 176.577 175.347 174.874 
173.796 173.472 172.537 181.391 181.323 180.665 180.525 179.691 179.431 
178.457 178.07 176.985 176.449 175.285 174.715 173.619 173.173 172.223 
171.912 171.079 180.941 180.871 180.193 180.055 179.248 179.024 178.14 
177.833 176.882 176.422 175.346 174.745 173.642 173.086 172.122 171.705 
170.892 170.577 169.869 182.265 183.456 182.78 182.6 184.761 184.097 
183.959 183.138 182.927 185.91 185.39 185.344 184.577 184.375 183.546 
183.43 186.899 186.485 186.466 185.844 185.612 184.909 184.691 184.042 
183.899 187.649 187.394 187.367 186.852 186.558 185.939 185.59 185.045 
184.711 184.215 183.797 187.957 187.92 187.897 187.599 187.302 186.775 
186.378 185.812 185.384 184.828 184.287 183.751 183.128 188.053 188.061 
188.037 187.911 187.63 187.32 186.932 186.517 186.113 185.546 184.994 
184.291 183.64 183.012 182.434 188.174 188.16 188.144 188.013 187.74 
187.483 187.053 186.812 186.407 186.123 185.626 185.065 184.393 183.671 
183.038 182.428 181.939 188.108 188.206 188.182 188.133 187.895 187.631 
187.164 186.842 186.344 186.149 185.675 185.437 184.829 184.347 183.657 
183.07 182.485 181.965 181.487 187.912 187.459 187.834 188.007 186.954 
187.298 187.5 187.832 187.769 186.632 186.797 186.877 187.235 187.195 
187.396 187.055 186.223 186.382 186.208 186.538 186.427 186.725 186.382 
186.511 186.122 185.318 185.673 185.319 185.696 185.458 185.859 185.527 
185.752 185.318 185.559 185.307 184.059 184.544 184.22 184.639 184.37 
184.812 184.525 184.839 184.413 184.667 184.32 184.719 184.479 182.777 
183.291 183.076 183.52 183.299 183.729 183.486 183.84 183.471 183.729 
183.335 183.672 183.381 183.789 183.449 181.53 182.059 181.881 182.384 
182.173 182.644 182.384 182.795 182.444 182.765 182.367 182.679 182.343 
182.708 182.401 182.734 182.358 180.33 180.835 180.655 181.171 180.955 
181.454 181.17 181.629 181.273 181.677 181.292 181.662 181.308 181.678 
181.361 181.72 181.394 181.699 181.349 179.635 178.684 179.419 179.935 
177.645 178.439 178.939 179.7 180.204 176.42 177.319 177.826 178.653 
179.123 179.914 180.38 175.04 175.996 176.524 177.456 177.939 178.78 
179.219 180.028 180.462 173.671 174.586 175.099 176.081 176.61 177.537 
177.998 178.838 179.271 180.086 180.512 172.416 173.253 173.733 174.664 
175.202 176.166 176.675 177.579 178.036 178.888 179.344 180.153 180.578 
171.287 172.055 172.527 173.368 173.889 174.793 175.325 176.243 176.752 
177.641 178.131 178.982 179.454 180.241 180.653 170.273 170.983 171.452 
172.228 172.726 173.546 174.055 174.93 175.469 176.372 176.91 177.78 
178.28 179.102 179.554 180.317 180.699 169.368 170.017 170.468 171.193 
171.671 172.428 172.894 173.702 174.212 175.104 175.661 176.564 177.079 
177.925 178.38 179.187 179.604 180.353 180.697 180.452 179.32 179.824 
179.636 178.055 178.578 178.327 178.881 178.632 176.736 177.257 176.936 
177.484 177.203 177.797 177.529 175.307 175.867 175.51 176.058 175.721 
176.318 176.034 176.651 176.311 173.844 174.382 174.021 174.588 174.225 
174.809 174.442 175.07 174.664 175.289 174.785 172.529 172.969 172.592 
173.107 172.75 173.301 172.888 173.445 172.954 173.546 173.012 173.626 
173.085 171.319 171.71 171.283 171.725 171.31 171.821 171.373 171.889 
171.368 171.877 171.353 171.896 171.429 172.004 171.598 170.126 170.499 
170.034 170.427 169.925 170.366 169.831 170.327 169.781 170.306 169.811 
170.349 169.948 170.485 170.152 170.689 170.401 169.029 169.336 168.877 
169.203 168.691 169.021 168.443 168.812 168.232 168.705 168.222 168.802 
168.441 169.049 168.753 169.318 169.049 169.594 169.377 180.633 180.778 
181.063 181.719 180.868 181.168 181.854 182.12 182.793 181.065 181.32 
182.051 182.286 183.041 183.283 184.06 181.285 181.59 182.401 182.606 
183.386 183.586 184.393 184.625 185.311 181.337 181.757 182.601 182.94 
183.707 183.947 184.673 184.918 185.572 185.733 186.079 181.261 181.717 
182.527 182.992 183.787 184.164 184.887 185.156 185.762 185.933 186.304 
186.289 186.386 181.101 181.575 182.335 182.831 183.667 184.158 185.01 
185.362 186.018 186.149 186.498 186.483 186.623 186.54 186.656 180.787 
181.316 182.025 182.57 183.353 183.954 184.823 185.388 186.095 186.373 
186.669 186.664 186.725 186.699 186.828 186.867 187.124 180.367 180.912 
181.57 182.155 182.832 183.485 184.198 184.935 185.57 186.164 186.462 
186.69 186.701 186.742 186.83 186.942 187.227 187.37 187.679 180.698 
181.779 181.188 180.979 182.874 182.261 182.044 181.354 180.996 184.162 
183.465 183.279 182.471 182.081 181.297 180.878 185.37 184.786 184.632 
183.822 183.435 182.503 182.04 181.2 180.794 185.99 185.702 185.528 
185.041 184.713 183.917 183.426 182.481 181.997 181.15 180.756 186.208 
186.022 185.825 185.617 185.433 185.015 184.662 183.869 183.326 182.399 
181.892 181.096 180.712 186.59 186.296 186.198 185.912 185.893 185.62 
185.523 184.983 184.561 183.697 183.106 182.227 181.735 181.016 180.651 
187.208 186.885 186.93 186.536 186.596 186.238 186.241 185.799 185.499 
184.802 184.223 183.391 182.814 182.037 181.583 180.917 180.548 187.775 
187.549 187.613 187.317 187.332 187.005 186.918 186.513 186.167 185.596 
185.009 184.333 183.726 183.039 182.522 181.843 181.393 180.764 180.378 
180.005 180.295 179.81 179.052 180.326 179.998 179.3 178.838 178.048 
180.178 179.926 179.24 178.942 178.162 177.73 176.757 180.027 179.733 
178.966 178.726 177.923 177.657 176.73 176.261 175.141 179.985 179.611 
178.778 178.427 177.598 177.334 176.528 176.189 175.274 174.695 173.719 
180.026 179.637 178.866 178.38 177.59 177.159 176.479 176.111 175.422 
174.923 174.106 173.481 172.688 180.04 179.718 179.063 178.599 177.887 
177.364 176.716 176.262 175.645 175.172 174.426 173.857 173.028 172.483 
171.743 179.96 179.717 179.117 178.784 178.113 177.679 176.976 176.537 
175.838 175.402 174.627 174.122 173.274 172.747 171.963 171.503 170.841 
179.81 179.608 179.023 178.774 178.114 177.784 177.04 176.667 175.895 
175.507 174.711 174.268 173.449 172.96 172.202 171.731 171.08 170.649 
170.066 182.202 182.359 182.635 183.374 182.415 182.757 183.491 183.832 
184.578 182.326 182.732 183.404 183.82 184.522 184.939 185.643 182.077 
182.544 183.207 183.66 184.344 184.789 185.508 185.944 186.626 181.751 
182.237 182.927 183.43 184.166 184.627 185.362 185.797 186.489 186.883 
187.412 181.447 181.914 182.59 183.119 183.859 184.404 185.144 185.641 
186.295 186.709 187.192 187.502 187.776 181.161 181.622 182.272 182.774 
183.445 184.001 184.692 185.29 185.956 186.463 186.959 187.275 187.565 
187.757 187.93 180.824 181.305 181.932 182.438 183.06 183.564 184.191 
184.763 185.449 186.044 186.646 187.053 187.413 187.609 187.807 187.935 
188.072 180.436 180.911 181.481 182.022 182.614 183.145 183.741 184.282 
184.943 185.538 186.174 186.687 187.085 187.403 187.563 187.77 187.834 
188.008 188.012 
POINT_DATA 1002
SCALARS Distance double
LOOKUP_TABLE default
178.914 179.844 178.943 177.921 177.936 177.943 176.777 176.804 176.796 
176.818 175.47 175.523 175.445 175.481 175.483 174.03 174.114 173.957 
173.984 174.068 174.097 172.534 172.699 172.437 172.426 172.547 172.705 
172.799 171.07 171.366 170.942 170.922 170.975 171.182 171.417 171.609 
169.679 170.101 169.467 169.493 169.532 169.649 169.946 170.249 170.538 
168.407 168.921 168.059 168.056 168.179 168.267 168.512 168.889 169.232 
169.586 167.303 167.876 166.836 166.695 166.809 166.924 167.113 167.51 
167.951 168.339 168.751 180.256 179.292 180.629 179.559 180.833 178.196 
179.635 180.901 178.334 176.972 179.626 180.91 178.34 177.012 175.603 
179.625 180.787 178.37 176.999 175.576 174.155 179.543 180.584 178.386 
177.016 175.522 174.133 172.787 179.375 180.47 178.225 176.955 175.502 
174.085 172.807 171.494 179.199 180.384 177.955 176.748 175.461 174.09 
172.779 171.52 170.227 179.039 180.192 177.766 176.549 175.342 174.061 
172.775 171.525 170.29 169.067 179.247 178.02 178.304 177.009 177.239 
176.695 175.573 175.685 175.378 175.299 173.636 173.989 173.413 173.522 
173.848 172.19 172.824 171.607 171.508 171.993 172.532 171.478 171.967 
170.846 170.376 170.504 171.006 171.351 170.706 171.055 170.272 169.768 
169.553 169.763 170.005 170.125 169.776 170.223 169.295 168.734 168.321 
168.345 168.59 168.735 168.859 168.962 169.497 168.377 167.686 167.029 
166.77 166.959 167.23 167.422 167.628 166.483 166.153 164.927 165.89 
164.457 163.239 165.682 164.224 162.644 161.577 165.528 164.255 162.542 
160.996 160.211 165.677 164.482 162.818 161 159.867 159.275 166.288 
164.976 163.256 161.28 159.949 159.21 158.562 167.054 165.646 163.88 
161.817 160.252 159.374 158.591 157.939 167.711 166.259 164.58 162.71 
161.042 159.864 158.905 158.043 157.642 168.303 166.836 165.247 163.694 
162.23 160.894 159.697 158.661 157.983 157.854 165.854 164.347 165.485 
162.803 164.158 165.456 161.268 162.771 164.179 165.533 159.9 161.286 
162.841 164.216 165.657 158.849 159.923 161.547 163.069 164.501 166.052 
158.154 158.998 160.465 162.088 163.583 165.109 166.629 157.868 158.623 
159.774 161.127 162.61 164.209 165.784 167.164 158.006 158.67 159.548 
160.414 161.526 163.131 164.904 166.428 167.663 158.439 158.807 159.307 
159.754 160.326 159.542 160.795 161.548 160.386 160.175 162.038 162.793 
161.454 160.918 160.828 163.262 163.903 162.785 162.25 161.85 162.194 
164.467 165.143 164.035 163.749 163.504 163.598 164.179 165.921 166.592 
165.39 165.057 164.958 165.132 165.537 166.001 167.465 167.984 166.997 
166.549 166.261 166.336 166.711 167.105 167.395 168.808 169.194 168.496 
168.149 167.793 167.642 167.814 168.137 168.394 168.569 158.478 159.175 
159.611 160.346 160.9 160.101 161.505 162.044 161.288 161.283 162.485 
163.215 162.372 162.54 162.614 163.641 164.556 163.307 163.568 163.739 
163.737 165.084 165.901 164.552 164.57 164.718 164.746 164.848 166.579 
167.191 166.112 165.977 165.982 165.971 166.061 166.266 168.006 168.448 
167.665 167.535 167.519 167.493 167.529 167.621 167.737 169.31 169.609 
169.069 168.938 168.907 168.916 168.971 169.027 169.011 169.023 169.325 
167.904 169.052 167.548 168.784 166.285 167.443 168.67 166.065 164.79 
167.449 168.665 166.09 164.718 163.466 167.386 168.692 166 164.614 
163.348 162.116 167.448 168.802 166.016 164.58 163.229 161.991 160.761 
167.73 169.01 166.382 165.011 163.585 162.208 160.887 159.609 168.079 
169.28 166.819 165.549 164.181 162.779 161.462 160.103 158.816 170.482 
170.417 171.516 171.516 172.658 170.221 172.697 173.904 171.422 169.974 
173.933 175.121 172.723 171.281 169.857 175.117 176.277 173.988 172.689 
171.205 169.888 176.309 177.413 175.163 173.982 172.605 171.214 169.976 
177.497 178.424 176.389 175.189 173.912 172.567 171.279 170.096 178.506 
179.253 177.576 176.415 175.159 173.916 172.647 171.399 170.273 179.329 