# vtk DataFile Version 4.0
vtk output
ASCII
DATASET POLYDATA
POINTS 1002 float
-104.975 -121.873 75.5522 -105.527 -122.987 75.25 -105.134 -122.62 74.4657 
-104.574 -121.352 74.7633 -104.977 -121.876 73.6114 -104.36 -120.619 75.9221 
-104.326 -120.515 73.887 -104.939 -120.837 72.7882 -103.867 -119.977 75.1074 
-103.553 -119.274 76.3244 -104.115 -119.422 73.0816 -104.808 -119.659 72.12 
-103.473 -119.064 74.199 -103.091 -118.408 75.4602 -102.852 -117.648 76.7019 
-103.872 -118.123 72.415 -104.582 -118.384 71.5328 -103.134 -117.882 73.4025 
-102.665 -117.369 74.5735 -102.423 -116.64 75.8746 -102.21 -115.974 77.1481 
-103.591 -116.801 71.6961 -104.375 -117.092 70.9112 -102.815 -116.537 72.647 
-102.201 -116.211 73.7656 -101.784 -115.738 75.0613 -101.421 -115.229 76.4403 
-101.191 -114.709 77.7107 -103.201 -115.684 70.9339 -104.184 -115.877 70.3915 
-102.357 -115.393 71.756 -101.662 -115.074 72.8552 -101.076 -114.824 74.1336 
-100.513 -114.556 75.5676 -100.177 -114.127 76.9905 -100.19 -113.519 78.1717 
-102.757 -114.607 70.3523 -103.961 -114.685 70.0562 -101.761 -114.426 70.9332 
-101.015 -114.085 71.9205 -100.455 -113.795 73.1158 -99.9711 -113.541 74.4459 
-99.6346 -113.121 75.938 -99.6397 -112.527 77.3359 -99.8023 -111.915 78.4316 
-102.411 -113.409 69.9278 -103.71 -113.542 69.7618 -101.328 -113.258 70.3349 
-100.516 -112.961 71.2007 -99.9476 -112.621 72.3258 -99.6845 -112.232 73.4645 
-99.6335 -111.647 74.7515 -99.6971 -110.988 76.2343 -99.7829 -110.482 77.5911 
-99.7243 -110.153 78.6559 -102.201 -112.273 69.5572 -103.484 -112.564 69.4407 
-101.151 -111.978 69.8752 -100.37 -111.626 70.6334 -99.7234 -111.277 71.7243 
-99.4141 -110.877 72.8155 -99.5767 -110.216 73.8609 -99.859 -109.424 75.1282 
-99.9533 -108.893 76.5834 -99.8084 -108.703 77.8897 -99.5043 -108.656 78.9235 
-106.015 -123.736 74.4517 -105.672 -123.288 73.5644 -106.84 -124.21 73.5126 
-106.511 -123.661 72.5522 -107.858 -124.406 72.4691 -105.593 -122.402 72.6472 
-107.578 -123.729 71.5367 -108.996 -124.393 71.5144 -106.392 -122.723 71.6255 
-105.581 -121.273 71.8378 -108.833 -123.593 70.6735 -110.292 -124.172 70.7456 
-107.458 -122.752 70.6825 -106.354 -121.597 70.8751 -105.45 -120.06 71.222 
-110.092 -123.357 69.7994 -111.521 -123.811 69.8904 -108.734 -122.548 69.8319 
-107.483 -121.565 70.0237 -106.308 -120.325 70.3372 -105.303 -118.706 70.6777 
-111.135 -123.069 68.7181 -112.544 -123.411 68.8377 -109.871 -122.322 68.843 
-108.73 -121.309 69.1843 -107.463 -120.248 69.5107 -106.255 -118.908 69.8134 
-105.266 -117.283 70.1643 -112.151 -122.628 67.7585 -113.593 -122.901 67.9302 
-110.856 -122.045 67.8457 -109.756 -121.102 68.2408 -108.508 -120.067 68.6139 
-107.198 -118.978 68.8601 -106.213 -117.516 69.3003 -105.257 -115.923 69.8289 
-113.336 -121.938 67.21 -114.712 -122.222 67.3397 -111.997 -121.465 67.2242 
-110.793 -120.741 67.4637 -109.451 -119.838 67.7367 -107.966 -118.926 67.8766 
-106.888 -117.755 68.247 -106.167 -116.165 69.0106 -105.14 -114.648 69.6273 
-114.492 -121.081 66.8737 -115.651 -121.475 66.8707 -113.245 -120.568 66.9289 
-111.982 -120.013 67.0156 -110.572 -119.353 67.1058 -108.953 -118.603 67.1469 
-107.57 -117.697 67.3441 -106.756 -116.38 68.0152 -106.043 -114.829 68.8869 
-104.905 -113.527 69.3872 -115.74 -120.372 66.397 -114.684 -119.673 66.6221 
-115.821 -118.913 66.0784 -114.734 -118.126 66.4268 -115.791 -117.465 65.9708 
-113.406 -119.084 66.7233 -114.322 -116.956 66.0259 -115.343 -116.372 65.675 
-113.15 -117.773 66.2707 -111.904 -118.646 66.6456 -113.428 -116.029 65.1277 
-114.495 -115.27 64.9059 -112.387 -116.843 65.407 -111.446 -117.507 66.0079 
-110.255 -118.073 66.6215 -112.586 -114.714 64.341 -113.706 -113.888 64.4701 
-111.602 -115.682 64.5543 -110.918 -116.389 65.3746 -110.006 -116.759 66.2782 
-108.662 -117.223 66.8112 -112.091 -113.198 64.6808 -113.12 -112.647 65.0862 
-111.129 -114.005 64.6533 -110.487 -114.814 65.2674 -109.79 -115.217 66.2049 
-108.605 -115.53 66.8525 -107.429 -116.035 67.326 -111.683 -111.861 65.7817 
-112.532 -111.586 66.17 -110.729 -112.295 65.665 -109.909 -112.932 65.8569 
-109.158 -113.448 66.3211 -108.208 -113.741 66.8808 -107.221 -114.144 67.4559 
-106.537 -114.591 68.1445 -111.205 -110.495 66.6826 -111.915 -110.376 67.0314 
-110.266 -110.679 66.5655 -109.245 -111.065 66.5537 -108.26 -111.606 66.5903 
-107.368 -112.064 66.8495 -106.643 -112.465 67.4179 -106.08 -112.911 68.1477 
-105.539 -113.271 68.8472 -110.717 -109.097 67.3258 -111.354 -109.096 67.7073 
-109.829 -109.139 67.1085 -108.777 -109.33 66.9909 -107.68 -109.784 66.9345 
-106.716 -110.379 67.0905 -106.049 -110.921 67.5622 -105.551 -111.421 68.1773 
-104.951 -111.877 68.7211 -104.213 -112.234 69.1335 -102.499 -111.38 69.2253 
-103.303 -110.9 69.0427 -101.6 -109.818 69.1675 -104.231 -110.324 68.8774 
-102.388 -108.968 69.0763 -100.827 -107.76 69.1747 -105.005 -109.722 68.6002 
-103.392 -108.089 69.087 -101.5 -106.493 68.9306 -100.281 -105.51 68.9586 
-105.646 -109.162 68.122 -104.339 -107.5 69.0341 -102.451 -105.573 68.8862 
-100.917 -104.225 68.471 -100.074 -103.489 68.731 -106.485 -108.56 67.6279 
-105.303 -107.114 68.7188 -103.599 -105.235 69.0118 -101.897 -103.552 68.454 
-100.827 -102.523 68.3449 -100.039 -101.702 68.9803 -107.537 -108.038 67.4361 
-106.376 -106.739 68.3369 -104.937 -105.066 69.0342 -103.268 -103.233 68.8387 
-101.955 -101.869 68.5423 -100.953 -100.877 68.8712 -100.067 -99.9765 69.5835 
-108.602 -107.817 67.5768 -107.375 -106.567 68.3184 -106.143 -104.996 69.0497 
-104.774 -103.012 69.1786 -103.43 -101.281 68.9648 -102.259 -100.068 69.0648 
-101.175 -99.1157 69.514 -100.318 -98.4259 70.1569 -109.601 -107.818 67.8623 
-108.326 -106.635 68.6196 -107.092 -105.178 69.2977 -105.992 -103.132 69.4616 
-104.891 -101.062 69.2789 -103.76 -99.55 69.2756 -102.652 -98.4631 69.55 
-101.615 -97.6887 70.0062 -100.794 -97.287 70.6955 -110.432 -107.883 68.2058 
-109.29 -106.744 68.9336 -108.058 -105.405 69.5913 -107.016 -103.484 69.7668 
-106.122 -101.333 69.5801 -105.15 -99.6273 69.527 -104.137 -98.3964 69.7329 
-103.149 -97.4514 70.0637 -102.178 -96.8575 70.5705 -101.322 -96.6105 71.3476 
-101.302 -110.893 69.4222 -100.589 -109.193 69.5075 -100.493 -110.383 69.9875 
-99.998 -107.198 69.583 -99.9348 -108.642 70.2137 -99.8206 -109.92 70.9716 
-99.593 -104.977 69.4908 -99.3759 -106.662 70.3215 -99.2933 -108.131 71.2246 
-99.2654 -109.507 72.1373 -99.405 -102.702 69.5661 -99.013 -104.243 70.4266 
-98.8941 -106.005 71.4041 -99.0009 -107.569 72.4243 -99.2949 -108.905 73.2409 
-99.3645 -100.67 70.0041 -98.9615 -101.791 70.7696 -98.8367 -103.524 71.7632 
-98.9643 -105.416 72.7908 -99.3104 -106.901 73.6769 -99.7167 -108.084 74.3977 
-99.5438 -99.0435 70.5911 -99.1509 -99.8902 71.2958 -99.0066 -101.27 72.2841 
-99.0266 -103.183 73.3488 -99.2122 -105.006 74.2627 -99.5578 -106.32 75.0507 
-99.8932 -107.475 75.8258 -99.9298 -97.7999 71.2198 -99.4494 -98.5123 71.9438 
-99.1842 -99.5337 72.8818 -99.0094 -101.099 73.9566 -98.9963 -103.024 74.9367 
-99.1493 -104.745 75.7642 -99.4303 -106.067 76.5662 -99.7111 -107.307 77.3093 
-100.373 -96.9175 71.9299 -99.7454 -97.4491 72.7071 -99.3215 -98.1966 73.6026 
-98.9621 -99.3406 74.5966 -98.8158 -101.005 75.5808 -98.9109 -102.917 76.4221 
-99.0484 -104.645 77.1938 -99.1977 -106.065 77.9433 -99.3722 -107.355 78.5376 
-101.19 -96.2919 72.5484 -100.293 -96.5534 73.3504 -101.227 -96.0739 74.0689 
-100.426 -96.3592 74.9969 -101.618 -96.056 75.7365 -99.6661 -97.0661 74.2874 
-100.929 -96.5445 76.6567 -102.165 -96.2988 77.4223 -99.8109 -97.0091 75.9667 
-99.1457 -97.9107 75.2589 -101.496 -96.9794 78.2471 -102.568 -96.632 79.0183 
-100.342 -97.4372 77.5594 -99.3317 -98.0888 76.9171 -98.8431 -99.2607 76.2367 
-101.937 -97.4037 79.7038 -103.033 -97.0573 80.3836 -100.894 -97.9584 79.042 
-99.8933 -98.66 78.4413 -99.2323 -99.6186 77.7949 -98.9469 -101.103 77.1025 
-102.541 -98.0452 80.92 -103.684 -97.7751 81.4997 -101.42 -98.4884 80.3606 
-100.376 -99.1949 79.8432 -99.7204 -100.181 79.2172 -99.4006 -101.482 78.504 
-99.115 -103.103 77.8401 -103.226 -98.9677 81.9402 -104.215 -98.6532 82.4922 
-102.17 -99.3492 81.4246 -100.995 -99.8656 81.0283 -100.075 -100.734 80.537 
-99.6651 -101.949 79.8442 -99.3514 -103.418 79.1684 -99.0708 -104.902 78.5824 
-103.72 -99.8377 82.9009 -104.587 -99.4793 83.4004 -102.89 -100.313 82.3529 
-101.898 -100.808 81.9273 -100.813 -101.483 81.5708 -100.033 -102.494 81.0738 
-99.5254 -103.786 80.4643 -99.0936 -105.191 79.8713 -99.0123 -106.423 79.2486 
-104.172 -100.627 83.7655 -105.045 -100.327 84.1287 -103.41 -101.119 83.2695 
-102.657 -101.701 82.7499 -101.775 -102.356 82.3212 -100.879 -103.196 81.9464 
-100.1 -104.274 81.5332 -99.3957 -105.522 81.0393 -98.9826 -106.757 80.4187 
-99.1011 -107.791 79.6814 -102.441 -96.3682 71.6331 -102.369 -96.1106 72.9416 
-103.763 -96.3991 72.1945 -103.891 -96.1162 73.545 -105.174 -96.4787 72.8797 
-102.556 -95.9449 74.5584 -105.605 -96.1024 74.1648 -106.613 -96.5448 73.4285 
-104.277 -95.93 75.1934 -103.034 -95.9492 76.3482 -107.229 -96.1957 74.6817 
-107.933 -96.9197 73.9109 -106.15 -95.9236 75.8143 -104.756 -95.9218 77.0546 
-103.474 -96.1448 78.1567 -108.41 -96.8093 75.2909 -108.965 -97.7563 74.5518 
-107.724 -96.1878 76.4209 -106.585 -95.9962 77.734 -105.128 -96.1221 78.8775 
-103.864 -96.4582 79.7609 -109.204 -97.8882 76.0259 -109.813 -98.7649 75.2701 
-108.716 -97.0156 77.092 -108.051 -96.4414 78.3874 -106.898 -96.3575 79.5061 
-105.553 -96.5712 80.3622 -104.451 -97.012 81.0461 -110.034 -98.9552 76.6612 
-110.624 -99.7275 75.8928 -109.524 -98.1059 77.6659 -109.065 -97.3334 78.9232 
-108.293 -97.0041 80.0364 -107.163 -97.0908 80.8287 -106.008 -97.3491 81.54 
-105.007 -97.8518 82.1429 -110.962 -99.8438 77.1319 -111.363 -100.646 76.3848 
-110.519 -99.0459 78.0565 -110.075 -98.3159 79.2382 -109.433 -97.9081 80.3922 
-108.457 -97.9073 81.2181 -107.364 -98.0537 81.9226 -106.32 -98.2753 82.6389 
-105.361 -98.7487 83.1526 -111.777 -100.668 77.4966 -112.013 -101.496 76.7576 
-111.487 -99.8778 78.3686 -111.128 -99.2077 79.4547 -110.585 -98.7964 80.615 
[...]
CELL_DATA 2000
SCALARS Distance double
LOOKUP_TABLE default
177.08 176.178 176.449 176.045 175.134 175.455 175.012 175.331 174.88 
173.983 174.328 173.829 174.193 173.693 174.061 173.564 172.741 173.099 
172.539 172.925 172.382 172.786 172.272 172.681 172.207 171.447 171.788 
171.17 171.563 170.987 171.421 170.906 171.353 170.898 171.343 170.941 
170.204 170.474 169.8 170.155 169.542 169.981 169.461 169.954 169.509 
170.008 169.616 170.104 169.742 169.046 169.238 168.496 168.788 168.127 
168.525 167.979 168.476 168.026 168.567 168.167 168.718 168.359 168.895 
168.55 167.938 168.065 167.248 167.486 166.783 167.13 166.558 167.008 
166.55 167.07 166.666 167.221 166.865 167.451 167.148 167.71 167.408 
166.931 166.968 166.112 166.265 165.55 165.83 165.259 165.64 165.185 
165.644 165.258 165.759 165.418 165.968 165.703 166.295 166.072 166.622 
166.376 177.559 177.994 177.422 176.673 178.358 177.815 177.032 176.462 
175.647 178.655 178.127 177.333 176.781 175.949 175.385 174.527 178.971 
178.425 177.627 177.063 176.238 175.677 174.822 174.237 173.335 179.228 
178.731 177.922 177.364 176.54 175.978 175.143 174.548 173.649 173.02 
172.085 179.28 178.886 178.072 177.604 176.777 176.27 175.443 174.877 
173.993 173.359 172.431 171.786 170.879 179.243 178.869 178.082 177.678 
176.883 176.45 175.625 175.125 174.237 173.671 172.766 172.161 171.283 
170.646 169.779 179.262 178.869 178.12 177.706 176.957 176.538 175.73 
175.251 174.34 173.826 172.919 172.426 171.597 171.059 170.237 169.594 
168.733 179.254 178.909 178.175 177.779 177.034 176.626 175.835 175.358 
174.449 173.91 172.983 172.506 171.698 171.281 170.532 170.025 169.225 
168.575 167.743 178.941 178.003 178.3 177.878 176.958 177.29 176.89 
177.18 176.732 175.846 176.195 175.731 176.094 175.633 175.981 175.491 
174.439 174.912 174.344 174.814 174.318 174.774 174.271 174.641 174.075 
172.817 173.309 172.731 173.293 172.865 173.421 173.005 173.4 172.851 
173.157 172.604 171.566 171.81 171.299 171.727 171.413 171.989 171.706 
172.166 171.673 171.962 171.394 171.73 171.3 170.781 170.847 170.324 
170.531 170.151 170.604 170.271 170.797 170.282 170.697 170.078 170.486 
170.012 170.491 170.139 169.992 170.101 169.462 169.619 169.018 169.343 
168.781 169.257 168.653 169.152 168.546 169.057 168.593 169.141 168.782 
169.302 168.893 169.077 169.21 168.5 168.643 167.906 168.124 167.421 
167.755 167.135 167.558 167.068 167.556 167.209 167.735 167.426 167.925 
167.52 167.969 167.468 166.471 166.556 166.008 164.937 166.566 166.101 
164.974 164.358 163.17 166.419 166.085 165.025 164.379 162.976 162.384 
161.171 166.235 165.934 165.026 164.451 163.05 162.221 160.775 160.318 
159.339 166.228 165.819 165.029 164.537 163.376 162.464 161.014 160.153 
159.076 158.719 158.064 166.514 165.94 165.191 164.689 163.799 162.978 
161.729 160.677 159.54 158.8 158.088 157.71 157.186 167.061 166.372 
165.654 165.046 164.316 163.571 162.55 161.529 160.393 159.457 158.603 
157.975 157.368 156.957 156.495 167.731 167.031 166.372 165.684 165.031 
164.27 163.402 162.427 161.36 160.347 159.416 158.609 157.937 157.325 
156.828 156.41 156.123 168.375 167.74 167.144 166.476 165.865 165.107 
164.317 163.372 162.394 161.357 160.452 159.525 158.874 158.093 157.642 
156.99 156.708 156.26 156.176 166.125 164.577 165.302 165.252 162.91 
163.738 163.753 164.541 164.687 161.108 162.061 162.22 163.085 163.299 
164.113 164.405 159.372 160.288 160.55 161.53 161.828 162.733 163.068 
163.926 164.326 157.981 158.668 158.857 159.823 160.182 161.208 161.639 
162.593 163.061 163.934 164.408 156.973 157.412 157.469 158.225 158.609 
159.6 160.196 161.208 161.827 162.725 163.277 164.086 164.596 156.293 
156.542 156.586 157.073 157.467 158.246 158.946 159.904 160.677 161.588 
162.247 163.038 163.606 164.355 164.911 155.968 156.053 156.156 156.441 
156.815 157.354 157.986 158.797 159.575 160.497 161.227 162.067 162.694 
163.443 164.035 164.755 165.323 156.006 155.934 156.051 156.188 156.507 
156.85 157.33 157.927 158.579 159.415 160.163 161.054 161.763 162.564 
163.197 163.92 164.495 165.177 165.681 156.168 156.584 156.243 156.198 
157.372 156.816 156.722 156.443 156.616 158.558 157.814 157.662 157.125 
157.215 156.984 157.355 159.867 159.121 158.988 158.273 158.294 157.773 
158.078 157.891 158.517 161.1 160.411 160.33 159.653 159.691 159.048 
159.302 158.854 159.428 159.279 160.088 162.426 161.689 161.634 160.963 
161.023 160.427 160.667 160.185 160.676 160.368 161.079 160.949 161.733 
163.837 163.105 163.091 162.357 162.421 161.758 161.967 161.473 161.894 
161.58 162.171 161.978 162.645 162.529 163.193 165.118 164.488 164.521 
163.856 163.95 163.249 163.428 162.81 163.161 162.74 163.251 162.996 
163.567 163.408 163.991 163.891 164.47 166.293 165.715 165.777 165.213 
165.344 164.747 164.928 164.311 164.596 164.065 164.493 164.1 164.601 
164.323 164.837 164.664 165.192 165.098 165.625 156.454 157.345 156.821 
156.875 158.574 157.899 157.91 157.409 157.674 159.88 159.216 159.267 
158.635 158.855 158.395 158.837 161.185 160.549 160.691 160.072 160.303 
159.718 160.059 159.638 160.105 162.59 161.918 162.112 161.522 161.817 
161.218 161.522 160.948 161.299 160.877 161.328 164.078 163.384 163.573 
162.974 163.305 162.74 163.082 162.464 162.777 162.187 162.572 162.135 
162.644 165.53 164.873 165.046 164.441 164.753 164.217 164.589 164.019 
164.346 163.722 164.056 163.496 163.925 163.509 164.023 166.867 166.281 
166.454 165.877 166.161 165.642 166.014 165.496 165.844 165.263 165.573 
164.99 165.339 164.833 165.238 164.844 165.287 168.055 167.552 167.73 
167.219 167.49 167.009 167.377 166.901 167.271 166.732 167.047 166.47 
166.783 166.235 166.577 166.085 166.454 166.05 166.459 168.501 168.331 
168.058 167.336 168.115 167.865 167.108 166.851 166.048 167.836 167.576 
166.705 166.487 165.556 165.374 164.401 167.598 167.266 166.296 165.995 
164.957 164.737 163.678 163.525 162.463 167.449 167.058 166.094 165.664 
164.636 164.23 163.21 162.878 161.876 161.615 160.642 167.372 166.952 
166.051 165.584 164.644 164.126 163.179 162.668 161.752 161.291 160.399 
160.01 159.17 167.45 166.969 166.137 165.64 164.782 164.254 163.353 
162.796 161.898 161.364 160.512 160.007 159.182 158.734 157.986 167.711 
167.184 166.427 165.861 165.063 164.482 163.628 163.027 162.148 161.575 
160.758 160.228 159.459 158.918 158.17 157.686 157.06 168.054 167.542 
166.859 166.27 165.528 164.888 164.095 163.417 162.605 161.937 161.189 
160.582 159.909 159.315 158.643 158.039 157.414 156.919 156.483 169.26 
170.375 169.559 169.072 171.541 170.712 170.192 169.368 168.876 172.671 
171.895 171.399 170.526 169.99 169.164 168.662 173.728 173.006 172.567 
171.736 171.186 170.313 169.791 168.966 168.472 174.759 174.047 173.637 
172.879 172.378 171.516 170.976 170.125 169.642 168.814 168.331 175.758 
175.068 174.669 173.95 173.522 172.707 172.198 171.33 170.842 170.005 
169.55 168.703 168.241 176.687 176.048 175.684 174.996 174.615 173.86 
173.408 172.562 172.076 171.225 170.779 169.94 169.51 168.658 168.27 
177.583 176.981 176.66 176.002 175.643 174.944 174.534 173.754 173.287 
172.456 172 171.174 170.755 169.93 169.552 168.744 168.451 178.443 
177.888 177.592 176.966 176.617 175.951 175.562 174.844 174.408 173.632 
173.185 172.384 171.968 171.165 170.793 170.004 169.695 168.949 168.722 
178.808 179.075 178.633 177.973 179.309 178.877 178.183 177.722 176.992 
179.434 179.051 178.321 177.885 177.102 176.67 175.906 179.489 179.119 
178.391 177.974 177.17 176.733 175.916 175.521 174.742 179.651 179.218 
178.527 178.068 177.282 176.8 175.968 175.521 174.708 174.323 173.542 
179.893 179.438 178.73 178.251 177.451 176.941 176.087 175.597 174.761 
174.319 173.511 173.119 172.346 179.991 179.615 178.842 178.412 177.558 
177.076 176.171 175.693 174.825 174.383 173.556 173.126 172.32 171.931 
171.18 179.834 179.575 178.801 178.445 177.602 177.145 176.237 175.745 
174.861 174.42 173.597 173.176 172.364 171.938 171.159 170.789 170.092 
179.508 179.328 178.621 178.353 177.601 177.206 176.38 175.868 175.011 
174.496 173.687 173.229 172.448 172.004 171.229 170.81 170.098 169.749 
169.124 179.095 178.185 178.506 178.213 177.145 177.519 177.213 177.585 
177.242 175.964 176.387 176.065 176.518 176.201 176.552 176.085 174.675 
175.141 174.785 175.287 174.97 175.431 174.992 175.296 174.734 173.257 
173.787 173.4 173.932 173.572 174.108 173.698 174.122 173.59 173.898 
173.366 171.725 172.299 171.904 172.474 172.089 172.655 172.263 172.77 
172.301 172.697 172.177 172.538 172.077 170.154 170.728 170.321 170.922 
170.539 171.136 170.763 171.325 170.917 171.386 170.908 171.304 170.828 
171.241 170.837 168.625 169.158 168.741 169.33 168.954 169.563 169.206 
169.81 169.447 169.991 169.566 170.013 169.55 169.969 169.563 170.018 
169.698 167.263 167.697 167.297 167.809 167.457 168.014 167.682 168.266 
167.944 168.521 168.163 168.664 168.247 168.687 168.298 168.755 168.459 
168.947 168.721 179.465 179.845 179.319 178.627 180.359 179.791 179.094 
178.456 177.641 180.738 180.274 179.528 178.915 177.998 177.361 176.443 
180.626 180.39 179.511 179.114 178.078 177.575 176.53 176.035 175.09 
180.045 179.97 179.021 178.798 177.713 177.39 176.295 175.939 174.918 
174.565 173.619 179.345 179.294 178.446 178.248 177.271 176.958 175.929 
175.589 174.589 174.276 173.316 173.013 172.076 178.745 178.671 177.944 
177.772 176.938 176.635 175.692 175.298 174.317 173.948 173.004 172.686 
171.753 171.446 170.521 178.238 178.148 177.441 177.312 176.524 176.323 
175.421 175.093 174.09 173.707 172.725 172.391 171.459 171.139 170.2 
169.889 168.989 177.769 177.668 176.947 176.811 176.021 175.862 175.002 
174.762 173.796 173.451 172.449 172.105 171.159 170.847 169.923 169.595 
168.69 168.396 167.598 180.104 181.208 180.54 180.428 182.44 181.679 
181.46 180.878 180.862 183.686 182.938 182.628 181.911 181.779 181.313 
181.273 184.729 184.138 183.827 183.065 182.766 182.197 182.064 181.607 
181.308 185.439 185.059 184.784 184.143 183.724 183.108 182.789 182.314 
181.953 181.404 180.795 185.773 185.607 185.357 184.914 184.468 183.918 
183.461 182.947 182.461 181.941 181.317 180.72 180.021 185.8 185.786 
185.587 185.325 184.922 184.509 184.042 183.544 182.992 182.422 181.767 
181.181 180.512 179.948 179.347 185.782 185.78 185.655 185.477 185.133 
184.841 184.409 184.025 183.486 182.951 182.284 181.67 181.008 180.436 
179.866 179.341 178.829 185.866 185.83 185.745 185.572 185.26 184.999 
184.566 184.268 183.739 183.341 182.699 182.177 181.516 180.961 180.383 
179.86 179.351 178.846 178.356 185.92 185.714 185.848 185.709 185.102 
185.428 185.292 185.439 185.163 184.256 184.66 184.55 184.856 184.579 
184.739 184.403 183.351 183.741 183.593 183.998 183.728 184.004 183.616 
183.856 183.49 182.395 182.775 182.55 182.978 182.701 183.046 182.639 
182.933 182.53 182.847 182.454 181.37 181.763 181.505 181.912 181.634 
181.995 181.629 181.928 181.552 181.859 181.51 181.787 181.371 180.287 
180.707 180.45 180.854 180.566 180.938 180.602 180.932 180.591 180.912 
180.588 180.878 180.51 180.725 180.292 179.173 179.609 179.346 179.767 
179.456 179.85 179.496 179.876 179.524 179.909 179.567 179.926 179.551 
179.845 179.431 179.663 179.245 178.082 178.5 178.237 178.647 178.331 
178.719 178.357 178.739 178.379 178.784 178.443 178.842 178.479 178.83 
178.438 178.745 178.354 178.622 178.238 177.406 176.396 177.125 177.539 
175.264 176.066 176.478 177.221 177.604 173.985 174.866 175.297 176.107 
176.488 177.241 177.606 172.647 173.542 174.008 174.883 175.312 176.108 
176.501 177.246 177.636 171.378 172.22 172.682 173.576 174.061 174.923 
175.382 176.164 176.585 177.312 177.715 170.171 170.97 171.383 172.252 
172.72 173.636 174.129 175.012 175.471 176.261 176.66 177.385 177.751 
168.973 169.747 170.114 170.951 171.376 172.277 172.747 173.684 174.163 
175.067 175.494 176.296 176.659 177.388 177.724 167.81 168.535 168.871 
169.676 170.094 170.957 171.418 172.307 172.774 173.693 174.157 175.053 
175.466 176.268 176.624 177.35 177.673 166.747 167.395 167.698 168.449 
168.868 169.708 170.193 171.04 171.504 172.349 172.807 173.695 174.152 
175.025 175.426 176.223 176.566 177.29 177.587 177.291 176.232 176.66 
176.418 175.056 175.519 175.225 175.697 175.436 173.759 174.262 173.942 
174.443 174.136 174.658 174.383 172.407 172.903 172.552 173.088 172.751 
173.299 172.954 173.516 173.17 171.105 171.551 171.131 171.637 171.232 
171.811 171.407 172.003 171.586 172.192 171.815 169.782 170.23 169.75 
170.205 169.705 170.226 169.753 170.355 169.906 170.542 170.141 170.809 
170.498 168.416 168.845 168.335 168.792 168.264 168.723 168.207 168.716 
168.258 168.847 168.455 169.113 168.793 169.509 169.247 167.211 167.51 
166.972 167.367 166.855 167.295 166.793 167.246 166.787 167.291 166.917 
167.493 167.189 167.831 167.571 168.271 168.042 166.273 166.434 165.88 
166.12 165.604 165.944 165.456 165.865 165.403 165.873 165.494 166.035 
165.755 166.333 166.104 166.7 166.505 167.147 166.998 179.918 179.977 
180.288 180.922 179.993 180.334 181.049 181.325 182.011 180.032 180.371 
181.099 181.436 182.204 182.502 183.263 179.964 180.373 181.081 181.467 
182.238 182.637 183.423 183.75 184.378 179.712 180.208 180.953 181.416 
182.232 182.667 183.46 183.816 184.395 184.629 184.936 179.403 179.914 
180.702 181.244 182.139 182.663 183.506 183.867 184.416 184.588 184.854 
184.969 185.111 179.081 179.598 180.339 180.931 181.768 182.433 183.235 
183.784 184.286 184.557 184.774 184.9 185.08 185.177 185.352 178.671 
179.214 179.858 180.464 181.136 181.848 182.487 183.209 183.642 184.171 
184.37 184.703 184.894 185.145 185.407 185.517 185.68 178.185 178.726 
179.295 179.883 180.439 181.086 181.596 182.286 182.693 183.327 183.606 
184.12 184.38 184.822 185.139 185.474 185.722 185.819 185.883 180.01 
181.005 180.463 180.304 182.083 181.481 181.344 180.709 180.444 183.363 
182.675 182.531 181.802 181.567 180.844 180.489 184.513 183.985 183.852 
183.086 182.816 182.025 181.672 180.858 180.337 185.062 184.889 184.819 
184.31 184.005 183.276 182.881 182.067 181.527 180.609 179.938 185.193 
185.176 185.173 184.989 184.746 184.271 183.843 183.182 182.659 181.817 
181.161 180.2 179.588 185.346 185.253 185.222 185.159 185.019 184.789 
184.421 183.95 183.419 182.789 182.185 181.399 180.789 179.939 179.486 
185.57 185.4 185.238 185.153 185.029 184.957 184.745 184.438 183.968 
183.42 182.802 182.197 181.603 180.981 180.478 179.833 179.455 185.739 
185.565 185.305 185.147 184.97 184.937 184.87 184.75 184.499 184.024 
183.461 182.787 182.164 181.584 181.081 180.597 180.183 179.686 179.314 
179.394 179.632 179.175 178.424 179.713 179.306 178.534 178.11 177.356 
179.7 179.324 178.527 178.145 177.411 177.047 176.301 179.512 179.245 
178.473 178.13 177.388 177.051 176.321 175.934 175.007 179.111 178.958 
178.322 178.104 177.439 177.064 176.285 175.878 174.965 174.48 173.42 
178.795 178.58 178.077 177.973 177.511 177.194 176.434 175.899 174.954 
174.427 173.485 172.964 172.116 178.774 178.433 177.934 177.793 177.427 
177.249 176.602 176.104 175.154 174.539 173.654 173.127 172.416 171.927 
171.31 178.837 178.503 177.932 177.703 177.231 177.095 176.491 176.176 
175.31 174.786 173.923 173.406 172.725 172.261 171.647 171.186 170.547 
178.758 178.513 177.894 177.647 177.042 176.855 176.21 175.982 175.221 
174.865 174.085 173.667 172.976 172.551 171.893 171.453 170.765 170.321 
169.632 180.137 180.551 180.674 181.309 180.74 181.041 181.77 181.916 
182.576 180.578 181.048 181.766 182.187 182.889 183.132 183.745 180.298 
180.769 181.435 181.961 182.633 183.139 183.779 184.141 184.674 180.176 
180.553 181.263 181.674 182.379 182.812 183.477 183.938 184.549 184.923 
185.358 180.115 180.489 181.225 181.624 182.419 182.763 183.486 183.768 
184.37 184.691 185.161 185.455 185.702 179.913 180.336 180.95 181.466 
182.209 182.763 183.525 183.904 184.446 184.631 184.939 185.15 185.344 
185.603 185.689 179.63 180.035 180.521 181.012 181.585 182.265 182.976 
183.682 184.265 184.65 184.86 184.965 184.993 185.161 185.249 185.518 
185.631 179.351 179.731 180.191 180.576 181.052 181.569 182.178 182.905 
183.565 184.219 184.591 184.847 184.876 184.916 184.944 185.108 185.293 
185.547 185.733 
POINT_DATA 1002
SCALARS Distance double
LOOKUP_TABLE default
176.71 177.674 176.859 175.781 175.897 175.647 174.69 174.818 174.568 
174.428 173.478 173.655 173.323 173.191 173.077 172.166 172.405 171.976 
171.849 171.779 171.768 170.796 171.143 170.55 170.439 170.434 170.485 
170.572 169.484 169.988 169.122 168.956 168.991 169.108 169.259 169.398 
168.243 168.907 167.761 167.499 167.483 167.606 167.79 168.031 168.225 
167.047 167.862 166.457 166.133 166.045 166.123 166.272 166.54 166.879 
167.123 165.999 166.934 165.293 164.903 164.746 164.768 164.887 165.102 
165.474 165.868 166.141 178.145 177.264 178.575 177.607 178.894 176.228 
177.884 179.189 176.512 175.111 178.206 179.521 176.796 175.41 173.948 
178.469 179.695 177.095 175.732 174.291 172.71 178.497 179.652 177.252 
175.988 174.612 173.078 171.509 178.462 179.617 177.289 176.113 174.778 
173.324 171.898 170.445 178.53 179.643 177.371 176.214 174.866 173.377 
172.058 170.838 169.431 178.558 179.563 177.439 176.297 174.996 173.488 
172.087 170.951 169.811 168.435 178.705 177.641 177.665 176.568 176.645 
176.466 175.374 175.521 175.254 175.185 173.844 173.955 173.818 173.886 
173.745 172.132 172.367 172.219 172.56 172.571 172.241 170.936 171.4 
170.834 171.19 171.372 171.08 170.866 170.211 170.736 169.83 169.795 
169.835 169.643 169.516 169.661 169.359 169.883 168.822 168.409 168.146 
167.983 168.016 168.252 168.437 168.391 168.959 167.752 167.147 166.713 
166.55 166.674 166.94 167.089 167.037 165.445 165.545 163.823 165.672 
163.709 161.983 165.647 163.761 161.464 160.071 165.488 163.951 161.441 
159.423 158.527 165.427 164.18 162.003 159.599 158.211 157.46 165.686 
164.466 162.758 160.432 158.594 157.465 156.641 166.289 164.992 163.495 
161.403 159.349 157.873 156.774 156.078 167.055 165.776 164.328 162.388 
160.293 158.611 157.334 156.384 155.914 167.778 166.602 165.222 163.405 
161.394 159.674 158.34 157.258 156.486 156.131 164.466 162.929 163.868 
161.274 162.463 163.571 159.524 160.856 162.17 163.467 157.961 159.094 
160.603 162.149 163.572 156.824 157.629 159.112 160.88 162.459 163.805 
156.168 156.772 158.006 159.727 161.433 162.855 164.164 155.917 156.387 
157.292 158.667 160.338 161.919 163.314 164.632 155.977 156.264 156.876 
157.83 159.247 160.913 162.463 163.819 165.037 156.4 156.358 156.998 
157.098 158.025 156.714 158.323 159.329 157.569 157.368 159.715 160.561 
158.931 158.388 158.483 160.961 161.781 160.317 159.828 159.695 160.112 
162.327 163.173 161.616 161.142 161.036 161.302 161.829 163.817 164.524 
163.131 162.52 162.244 162.407 162.81 163.301 165.127 165.704 164.623 
164.099 163.669 163.574 163.777 164.119 164.559 166.315 166.862 165.891 
165.521 165.168 164.955 164.954 165.078 165.318 165.701 156.836 157.231 
157.971 158.501 159.254 158.004 159.899 160.49 159.407 159.16 161.262 
161.806 160.917 160.593 160.429 162.687 163.279 162.391 162.151 161.828 
161.646 164.19 164.768 163.847 163.683 163.418 163.09 162.982 165.663 
166.162 165.29 165.126 164.961 164.662 164.419 164.375 167.02 167.422 
166.682 166.515 166.405 166.168 165.892 165.707 165.634 168.216 168.529 
167.957 167.833 167.786 167.624 167.352 167.108 166.918 166.813 168.769 
167.631 168.595 167.372 168.381 166.324 166.979 168.151 165.768 164.58 
166.671 167.976 165.241 163.866 162.593 166.531 167.842 165.084 163.587 
162.179 160.86 166.486 167.792 165.14 163.711 162.241 160.839 159.5 
166.632 167.929 165.296 163.913 162.438 161.016 159.684 158.364 166.994 
168.212 165.658 164.24 162.734 161.274 159.986 158.71 157.44 170.056 
169.856 171.215 171.067 172.345 169.657 172.276 173.397 170.857 169.459 
173.35 174.443 172.08 170.627 169.293 174.352 175.488 173.213 171.847 
170.46 169.177 175.368 176.424 174.291 173.067 171.687 170.383 169.093 
176.356 177.287 175.333 174.226 172.936 171.611 170.348 169.091 177.305 
178.163 176.322 175.277 174.104 172.826 171.567 170.354 169.213 178.2 