# vtk DataFile Version 4.0
vtk output
ASCII
DATASET POLYDATA
POINTS 1002 float
-106.51 -121.109 76.9319 -107.273 -121.914 76.5282 -106.847 -121.581 75.6808 
-106.115 -120.58 76.0555 -106.439 -120.995 74.7875 -105.841 -119.999 77.2894 
-105.797 -119.731 75.1196 -106.061 -120.212 73.99 -105.513 -119.208 76.443 
-105.267 -118.595 77.6145 -105.423 -118.777 74.2609 -105.696 -119.311 73.2218 
-105.184 -118.195 75.5465 -104.818 -117.727 76.8721 -104.533 -117.169 77.9497 
-104.873 -117.824 73.4166 -105.3 -118.207 72.4581 -104.609 -117.295 74.6266 
-104.259 -116.826 76.045 -103.857 -116.37 77.2596 -103.706 -115.77 78.2584 
-104.234 -116.789 72.6509 -104.856 -116.976 71.8304 -103.809 -116.468 73.7062 
-103.509 -116.031 75.1117 -103.146 -115.552 76.4401 -102.971 -114.961 77.5024 
-103.045 -114.354 78.5191 -103.645 -115.804 72.0357 -104.335 -115.942 71.2931 
-103.105 -115.543 72.9715 -102.766 -115.119 74.2503 -102.434 -114.677 75.5835 
-102.177 -114.193 76.6843 -102.206 -113.645 77.7571 -102.369 -113.162 78.8237 
-103.091 -114.941 71.4373 -103.77 -115.104 70.7517 -102.595 -114.614 72.3706 
-102.201 -114.111 73.5538 -101.802 -113.713 74.8103 -101.386 -113.467 75.9277 
-101.185 -113.119 77.0384 -101.291 -112.658 78.2145 -101.548 -112.199 79.1954 
-102.611 -113.966 70.8681 -103.317 -114.192 70.3 -102.184 -113.626 71.7765 
-101.763 -113.161 72.8872 -101.251 -112.826 74.0096 -100.747 -112.748 75.1249 
-100.362 -112.604 76.3262 -100.269 -112.201 77.6064 -100.493 -111.697 78.7358 
-100.892 -111.205 79.5319 -102.314 -112.837 70.4651 -103.075 -113.16 70.0281 
-101.901 -112.491 71.277 -101.48 -112.149 72.2909 -100.86 -111.936 73.2267 
-100.317 -111.913 74.2002 -99.9674 -111.841 75.4542 -99.7678 -111.498 76.8608 
-99.8304 -111.01 78.1307 -100.151 -110.552 79.1012 -100.592 -110.137 79.7756 
-107.742 -122.501 75.5544 -107.343 -122.081 74.6589 -108.191 -123.083 74.4924 
-107.91 -122.5 73.6791 -108.754 -123.53 73.4613 -106.923 -121.427 73.8578 
-108.623 -122.791 72.6869 -109.56 -123.709 72.4308 -107.57 -121.688 72.9048 
-106.517 -120.64 73.0699 -109.441 -122.929 71.5871 -110.502 -123.65 71.3568 
-108.308 -121.868 71.7857 -107.11 -120.877 71.9536 -106.149 -119.717 72.197 
-110.327 -122.798 70.5825 -111.512 -123.385 70.4294 -109.089 -121.94 70.7088 
-107.741 -121.03 70.815 -106.628 -119.99 71.0321 -105.812 -118.473 71.4517 
-111.356 -122.314 69.9148 -112.6 -122.865 69.8313 -110.034 -121.66 69.9533 
-108.585 -120.939 70.0138 -107.234 -120.076 70.1286 -106.311 -118.698 70.4541 
-105.463 -117.093 70.9466 -112.398 -121.654 69.4341 -113.582 -122.151 69.3978 
-111.046 -121.12 69.3756 -109.613 -120.552 69.3455 -108.185 -119.832 69.4526 
-107.025 -118.715 69.6826 -106.13 -117.239 70.0976 -105.039 -115.974 70.5188 
-113.254 -121.031 68.8824 -114.336 -121.431 68.8852 -111.908 -120.602 68.7704 
-110.468 -120.151 68.5833 -109.126 -119.493 68.6133 -107.929 -118.519 68.8974 
-106.934 -117.281 69.3238 -105.91 -116.056 69.8077 -104.605 -115.069 70.1355 
-113.942 -120.485 68.2716 -114.958 -120.831 68.3021 -112.644 -120.118 68.1715 
-111.166 -119.766 67.9209 -109.827 -119.211 67.8025 -108.694 -118.315 68.0428 
-107.673 -117.222 68.5073 -106.729 -116.112 69.0717 -105.633 -115.082 69.5871 
-104.298 -114.12 69.8733 -114.945 -120.066 67.7327 -113.719 -119.65 67.6723 
-114.785 -119.113 67.2956 -113.363 -118.67 67.0543 -114.419 -118.016 66.8021 
-112.207 -119.288 67.4581 -112.892 -117.592 66.3135 -113.891 -116.882 66.1436 
-111.796 -118.238 66.7944 -110.695 -118.836 67.2552 -112.303 -116.33 65.7513 
-113.267 -115.495 65.7956 -111.412 -116.969 66.2791 -110.439 -117.544 66.9017 
-109.456 -118.037 67.3868 -111.599 -114.639 65.8128 -112.551 -113.807 66.0553 
-110.832 -115.4 66.1071 -110.145 -115.989 66.7352 -109.185 -116.549 67.255 
-108.302 -116.984 67.7826 -110.909 -112.855 66.2684 -111.812 -112.373 66.6374 
-110.091 -113.55 66.2611 -109.489 -114.242 66.6272 -108.67 -114.887 67.0839 
-107.78 -115.486 67.6014 -107.213 -115.9 68.3178 -110.387 -111.569 66.8999 
-111.165 -111.441 67.4479 -109.548 -111.913 66.6247 -108.808 -112.494 66.768 
-107.993 -113.148 67.113 -107.164 -113.801 67.5502 -106.652 -114.398 68.2274 
-106.243 -114.824 68.9926 -109.984 -110.66 67.8564 -110.614 -110.627 68.4681 
-109.262 -110.722 67.3625 -108.465 -111.024 67.3338 -107.6 -111.526 67.6914 
-106.794 -112.063 68.0828 -106.247 -112.649 68.5224 -105.776 -113.251 69.0734 
-105.081 -113.743 69.5396 -109.584 -109.696 68.9091 -110.123 -109.63 69.3744 
-108.989 -109.663 68.3745 -108.244 -109.748 68.1444 -107.4 -110.059 68.422 
-106.649 -110.448 68.8922 -106.062 -110.891 69.2216 -105.444 -111.491 69.4465 
-104.617 -112.135 69.6355 -103.734 -112.686 69.7998 -102.401 -111.81 70.0805 
-102.984 -111.221 69.8704 -101.795 -110.379 70.2127 -103.921 -110.519 69.8399 
-102.179 -109.664 69.9035 -101.118 -108.915 70.2552 -104.945 -109.752 69.8565 
-103.068 -108.763 69.8438 -101.364 -107.963 69.7831 -100.401 -107.224 70.1848 
-105.717 -109.176 69.6907 -104.183 -107.912 69.7931 -102.259 -106.917 69.607 
-100.827 -106.099 69.7234 -99.9958 -105.352 70.3455 -106.332 -108.813 69.2478 
-105.028 -107.403 69.4719 -103.406 -106.187 69.4455 -101.857 -105.206 69.594 
-100.787 -104.32 70.0715 -100.119 -103.624 70.8861 -107.137 -108.507 68.8547 
-105.796 -107.073 69.0964 -104.399 -105.779 69.1922 -103.039 -104.695 69.5333 
-101.876 -103.635 69.9802 -101.055 -102.736 70.6128 -100.504 -102.19 71.4488 
-108.053 -108.371 68.9223 -106.853 -106.828 69.092 -105.549 -105.399 69.1339 
-104.289 -104.239 69.5018 -103.088 -103.09 69.933 -102.093 -102.019 70.3209 
-101.401 -101.382 70.9973 -100.881 -101.089 71.8643 -108.78 -108.434 69.3591 
-107.885 -106.823 69.4523 -106.864 -105.166 69.3635 -105.728 -103.799 69.5762 
-104.508 -102.603 69.9652 -103.368 -101.43 70.1944 -102.5 -100.643 70.6037 
-101.865 -100.379 71.4105 -101.333 -100.278 72.3446 -109.336 -108.465 69.7805 
-108.596 -106.955 69.8687 -107.873 -105.226 69.727 -107.009 -103.64 69.7629 
-105.914 -102.386 70.081 -104.771 -101.252 70.345 -103.824 -100.272 70.6083 
-103.091 -99.7616 71.203 -102.475 -99.6453 72.0681 -101.957 -99.6054 72.9694 
-101.813 -111.39 70.6859 -101.317 -109.945 70.9566 -101.428 -111.039 71.6419 
-100.58 -108.423 71.0194 -100.793 -109.588 71.8864 -100.78 -110.831 72.5418 
-99.7692 -106.606 71.0042 -99.9642 -107.895 71.9156 -100.095 -109.28 72.6708 
-100.12 -110.741 73.3458 -99.4501 -104.724 71.3141 -99.3286 -106.02 72.0318 
-99.6199 -107.361 72.8875 -99.8165 -108.941 73.6846 -99.8474 -110.598 74.5474 
-99.738 -103.047 71.8747 -99.2956 -104.27 72.4001 -99.4343 -105.581 73.2367 
-99.7693 -106.927 74.2448 -99.8367 -108.567 75.2117 -99.7188 -110.252 76.1129 
-100.15 -101.65 72.3771 -99.6349 -102.588 72.8727 -99.5469 -103.929 73.6217 
-99.7166 -105.287 74.6991 -99.7943 -106.655 75.7998 -99.7389 -108.247 76.7494 
-99.676 -109.82 77.549 -100.515 -100.623 72.8808 -99.9288 -101.142 73.4339 
-99.7424 -102.192 74.1518 -99.7703 -103.618 75.1563 -99.7034 -105.031 76.2501 
-99.6651 -106.481 77.2082 -99.7593 -108.041 78.0292 -99.8809 -109.468 78.6875 
-101.071 -99.9022 73.5032 -100.322 -100.208 74.1238 -99.9548 -100.867 74.8648 
-99.9188 -102.017 75.7876 -99.816 -103.368 76.8074 -99.646 -104.786 77.7406 
-99.7401 -106.349 78.5173 -100.002 -107.897 79.1375 -100.246 -109.178 79.5573 
-102.188 -99.1768 73.9926 -101.311 -99.5311 74.6876 -102.617 -98.9215 75.1388 
-101.807 -99.45 76.0093 -103.078 -98.9872 76.3784 -100.578 -100.018 75.4949 
-102.299 -99.5609 77.2976 -103.348 -99.1536 77.7344 -101.087 -100.195 76.8801 
-100.245 -100.886 76.3822 -102.617 -99.5617 78.6712 -103.555 -99.2322 79.2477 
-101.612 -100.373 78.1071 -100.675 -101.192 77.7307 -100.11 -102.013 77.3615 
-102.962 -99.659 80.2326 -103.949 -99.4579 80.7563 -102.102 -100.4 79.5067 
-101.185 -101.422 78.9254 -100.375 -102.188 78.7033 -99.8656 -103.242 78.3662 
-103.434 -100.195 81.6227 -104.471 -99.9871 81.9953 -102.605 -100.697 81.0557 
-101.83 -101.619 80.3041 -100.922 -102.464 79.8528 -100.152 -103.353 79.6845 
-99.7961 -104.774 79.2166 -103.958 -100.968 82.6562 -105.002 -100.698 82.9336 
-103.028 -101.336 82.3445 -102.39 -102.012 81.7382 -101.745 -102.869 80.9834 
-100.902 -103.765 80.597 -100.282 -105.01 80.3473 -100.08 -106.526 79.7937 
-104.548 -101.715 83.5433 -105.532 -101.468 83.7071 -103.488 -102.023 83.3989 
-102.723 -102.528 83.0461 -102.353 -103.339 82.2482 -101.872 -104.323 81.4243 
-101.164 -105.458 81.0027 -100.673 -106.767 80.651 -100.446 -108.051 80.1149 
-105.16 -102.396 84.383 -106.032 -102.189 84.4236 -104.13 -102.683 84.3336 
-103.168 -103.115 84.1691 -102.674 -103.835 83.5923 -102.488 -104.83 82.6224 
-102.091 -105.929 81.7859 -101.528 -107.041 81.2704 -101.109 -108.134 80.7916 
-100.822 -109.176 80.2662 -102.98 -98.9493 73.1386 -103.256 -98.4981 74.1464 
-103.961 -98.3562 73.4553 -104.181 -97.8937 74.4123 -104.869 -98.1254 73.9379 
-103.658 -98.3534 75.2691 -105.208 -97.6135 74.9414 -105.957 -98.3199 74.5313 
-104.604 -97.8125 75.6363 -104.047 -98.5961 76.627 -106.593 -97.7415 75.637 
-107.199 -98.7868 75.0842 -105.881 -97.3743 76.3734 -105.149 -98.0647 77.195 
-104.349 -98.8919 78.1712 -107.942 -98.2556 76.1528 -108.256 -99.4229 75.5113 
-107.392 -97.3856 77.0844 -106.583 -97.5585 77.943 -105.676 -98.461 78.7335 
-104.735 -99.0913 79.7485 -108.972 -99.0037 76.4411 -109.154 -100.159 75.8817 
-108.626 -98.0458 77.3991 -107.903 -97.8334 78.4132 -107.057 -98.3474 79.2177 
-106.164 -98.9366 80.184 -105.232 -99.3822 81.2491 -109.919 -99.8448 76.7353 
-110.096 -100.938 76.2333 -109.665 -98.9645 77.5713 -109.014 -98.7554 78.6228 
-108.2 -99.0317 79.5483 -107.45 -99.2386 80.5492 -106.584 -99.4024 81.6925 
-105.697 -99.902 82.5079 -110.851 -100.758 77.0744 -111.025 -101.713 76.5268 
-110.654 -99.9163 77.8471 -110.139 -99.6207 78.8745 -109.382 -99.7813 79.9125 
-108.681 -99.8393 80.9507 -107.898 -99.7559 82.0769 -106.955 -100.006 82.9535 
-106.136 -100.684 83.3998 -111.675 -101.633 77.3632 -111.844 -102.407 76.7571 
-111.475 -100.904 78.1305 -111.092 -100.457 79.1364 -110.534 -100.299 80.2704 
[...]
CELL_DATA 2000
SCALARS Distance double
LOOKUP_TABLE default
177.962 177.018 177.362 177.035 175.924 176.31 175.957 176.337 175.947 
174.763 175.144 174.734 175.16 174.767 175.173 174.742 173.498 173.903 
173.428 173.877 173.461 173.925 173.501 173.913 173.461 172.137 172.553 
172.037 172.506 172.071 172.578 172.159 172.619 172.163 172.593 172.173 
170.842 171.202 170.686 171.105 170.662 171.16 170.755 171.248 170.804 
171.259 170.845 171.329 171.012 169.66 169.972 169.472 169.827 169.372 
169.789 169.383 169.852 169.455 169.914 169.536 170.012 169.728 170.244 
170.015 168.526 168.807 168.297 168.651 168.19 168.556 168.122 168.533 
168.169 168.621 168.314 168.769 168.52 169.002 168.811 169.308 169.114 
167.477 167.681 167.149 167.484 167.05 167.402 166.966 167.321 166.944 
167.382 167.121 167.6 167.389 167.854 167.672 168.147 167.993 168.463 
168.304 178.327 178.561 178.116 177.407 178.783 178.334 177.615 177.132 
176.358 178.996 178.557 177.822 177.33 176.542 176.054 175.238 179.146 
178.746 177.985 177.501 176.66 176.194 175.362 174.896 174.014 179.225 
178.849 178.085 177.622 176.74 176.263 175.393 174.959 174.081 173.603 
172.67 179.294 178.908 178.149 177.702 176.847 176.349 175.469 174.99 
174.12 173.645 172.74 172.243 171.35 179.316 178.956 178.18 177.759 
176.925 176.46 175.599 175.106 174.237 173.73 172.857 172.341 171.475 
170.981 170.161 179.204 178.917 178.137 177.76 176.908 176.494 175.629 
175.198 174.331 173.863 173.011 172.512 171.699 171.178 170.382 169.86 
169.078 179.003 178.762 178.019 177.681 176.835 176.44 175.567 175.17 
174.316 173.908 173.08 172.651 171.883 171.431 170.703 170.176 169.42 
168.844 168.088 178.681 177.825 178.074 177.654 176.766 177.09 176.601 
176.915 176.434 175.501 175.899 175.388 175.766 175.265 175.619 175.147 
174.091 174.54 174.046 174.495 174.038 174.429 173.968 174.331 173.897 
172.595 173.06 172.555 173.092 172.681 173.178 172.738 173.136 172.676 
173.074 172.665 171.22 171.566 171.006 171.531 171.096 171.71 171.263 
171.794 171.297 171.78 171.362 171.849 171.496 170.273 170.373 169.782 
170.07 169.605 170.107 169.682 170.225 169.756 170.297 169.915 170.496 
170.213 170.726 170.386 169.717 169.666 169.088 169.105 168.63 168.843 
168.483 168.821 168.473 168.866 168.576 169.084 168.876 169.423 169.128 
169.578 169.139 169.205 169.193 168.622 168.568 168.035 168.08 167.679 
167.869 167.567 167.832 167.575 167.925 167.701 168.143 167.842 168.28 
167.831 168.241 167.766 166.89 166.883 166.417 165.563 166.957 166.446 
165.433 165.017 164.177 166.974 166.53 165.491 164.904 163.804 163.494 
162.63 166.935 166.558 165.592 164.968 163.753 163.176 162.111 161.876 
161.103 166.917 166.542 165.618 165.045 163.875 163.207 162.104 161.585 
160.781 160.534 160.02 167.053 166.593 165.698 165.096 164.023 163.375 
162.379 161.776 160.981 160.505 159.953 159.715 159.402 167.477 166.895 
166.097 165.359 164.39 163.655 162.783 162.155 161.407 160.835 160.178 
159.772 159.342 159.21 159.009 168.086 167.473 166.773 165.978 165.098 
164.248 163.429 162.699 162.001 161.337 160.645 160.058 159.514 159.203 
158.971 158.909 158.864 168.643 168.094 167.426 166.718 165.89 165.066 
164.246 163.46 162.771 162.041 161.411 160.679 160.137 159.56 159.3 
159.022 159.026 158.93 159.023 166.726 165.476 166.166 166.384 164.212 
164.964 165.239 165.97 166.3 162.748 163.646 163.963 164.803 165.119 
165.885 166.199 161.181 162.071 162.38 163.373 163.704 164.609 164.942 
165.766 166.157 160.012 160.604 160.86 161.746 162.158 163.123 163.584 
164.497 165.016 165.851 166.378 159.381 159.686 159.88 160.462 160.931 
161.741 162.359 163.236 163.892 164.758 165.392 166.177 166.709 159.01 
159.188 159.306 159.692 160.105 160.762 161.415 162.201 162.896 163.709 
164.372 165.188 165.788 166.524 167.022 158.851 158.896 158.946 159.177 
159.477 160.019 160.615 161.354 162.025 162.781 163.414 164.192 164.83 
165.609 166.204 166.881 167.377 158.996 158.891 158.935 158.945 159.185 
159.485 160.031 160.619 161.295 161.963 162.589 163.286 163.93 164.697 
165.372 166.1 166.683 167.283 167.74 159.2 159.688 159.312 159.153 
160.503 159.978 159.83 159.382 159.404 161.443 160.906 160.814 160.264 
160.294 159.882 160.209 162.336 161.827 161.771 161.296 161.362 160.911 
161.163 160.872 161.372 163.356 162.76 162.734 162.255 162.38 161.962 
162.179 161.83 162.194 162.026 162.576 164.582 163.912 163.931 163.35 
163.526 163.035 163.273 162.834 163.147 162.855 163.363 163.252 163.91 
165.844 165.2 165.229 164.63 164.803 164.279 164.536 164.021 164.323 
163.889 164.372 164.138 164.811 164.694 165.39 167.065 166.463 166.493 
165.904 166.03 165.528 165.783 165.315 165.635 165.158 165.584 165.231 
165.826 165.64 166.283 166.149 166.715 168.229 167.679 167.738 167.154 
167.258 166.724 166.959 166.521 166.878 166.46 166.87 166.47 166.947 
166.655 167.178 166.991 167.476 167.332 167.758 159.352 159.71 159.581 
159.805 160.187 159.947 160.161 160.148 160.556 161.022 160.534 160.675 
160.542 160.999 161.027 161.511 162.27 161.58 161.659 161.242 161.671 
161.562 162.124 162.045 162.486 163.618 162.939 163.011 162.421 162.743 
162.41 162.955 162.779 163.303 163.09 163.536 164.861 164.257 164.355 
163.788 164.049 163.594 164.049 163.743 164.285 164.021 164.517 164.245 
164.735 166.097 165.496 165.629 165.092 165.391 164.915 165.355 164.945 
165.465 165.111 165.617 165.287 165.758 165.478 165.97 167.354 166.77 
166.935 166.395 166.73 166.263 166.729 166.298 166.81 166.387 166.872 
166.456 166.894 166.526 166.966 166.69 167.166 168.51 168.01 168.192 
167.701 168.012 167.581 168.008 167.624 168.098 167.715 168.169 167.749 
168.153 167.713 168.098 167.719 168.138 167.862 168.31 168.706 168.286 
168.172 167.44 167.868 167.686 166.898 166.766 165.925 167.651 167.342 
166.508 166.245 165.382 165.194 164.34 167.57 167.212 166.371 165.977 
165.079 164.747 163.895 163.676 162.894 167.53 167.156 166.343 165.916 
165.03 164.587 163.734 163.375 162.597 162.335 161.581 167.643 167.193 
166.425 165.948 165.127 164.635 163.842 163.384 162.658 162.23 161.498 
161.111 160.399 167.92 167.424 166.708 166.159 165.395 164.84 164.101 
163.595 162.92 162.44 161.766 161.251 160.575 160.11 159.588 168.223 
167.749 167.065 166.521 165.783 165.207 164.481 163.931 163.24 162.735 
162.052 161.562 160.907 160.435 159.921 159.539 159.255 168.516 168.058 
167.396 166.877 166.162 165.613 164.912 164.357 163.668 163.101 162.383 
161.839 161.168 160.726 160.233 159.9 159.617 159.354 159.218 169.359 
170.271 169.571 169.033 171.272 170.551 170.055 169.237 168.671 172.353 
171.625 171.187 170.337 169.786 168.939 168.445 173.46 172.747 172.347 
171.515 170.98 170.101 169.583 168.775 168.339 174.523 173.838 173.453 
172.675 172.177 171.314 170.8 169.948 169.494 168.693 168.298 175.556 
174.878 174.511 173.77 173.322 172.506 172.034 171.192 170.753 169.907 
169.507 168.698 168.381 176.567 175.91 175.564 174.842 174.423 173.642 
173.191 172.399 171.974 171.17 170.765 169.947 169.598 168.84 168.599 
177.466 176.885 176.553 175.889 175.489 174.744 174.294 173.521 173.087 
172.332 171.933 171.17 170.803 170.049 169.763 169.071 168.867 178.217 
177.712 177.398 176.82 176.455 175.787 175.368 174.619 174.183 173.423 
173.033 172.297 171.956 171.225 170.929 170.222 169.99 169.328 169.142 
178.527 178.733 178.322 177.699 178.901 178.493 177.824 177.441 176.775 
179.017 178.62 177.938 177.55 176.857 176.465 175.725 179.161 178.738 
178.044 177.642 176.922 176.526 175.754 175.346 174.552 179.31 178.898 
178.176 177.745 176.981 176.561 175.762 175.352 174.545 174.153 173.394 
179.336 178.991 178.267 177.863 177.078 176.627 175.809 175.364 174.571 
174.163 173.415 173.038 172.335 179.328 178.983 178.282 177.911 177.157 
176.73 175.929 175.459 174.668 174.224 173.486 173.085 172.378 172.005 
171.33 179.409 179.035 178.356 177.948 177.22 176.801 176.044 175.6 
174.827 174.364 173.607 173.173 172.452 172.059 171.371 171.016 170.383 
179.458 179.149 178.516 178.097 177.386 176.918 176.189 175.735 175.02 
174.556 173.821 173.335 172.598 172.149 171.453 171.069 170.428 170.098 
169.519 179.225 178.586 178.754 178.354 177.847 178.081 177.668 177.773 
177.225 176.868 177.231 176.811 177.014 176.452 176.557 175.99 175.634 
176.103 175.713 176.059 175.562 175.752 175.197 175.331 174.815 174.302 
174.8 174.435 174.88 174.459 174.796 174.295 174.507 173.951 174.126 
173.597 172.914 173.447 173.08 173.571 173.152 173.597 173.108 173.47 
172.89 173.16 172.556 172.819 172.306 171.462 172.011 171.641 172.177 
171.747 172.231 171.724 172.156 171.584 171.956 171.361 171.692 171.163 
171.515 171.111 170.116 170.571 170.185 170.706 170.303 170.808 170.343 
170.775 170.256 170.633 170.11 170.466 169.987 170.353 169.963 170.369 
170.071 169.005 169.321 168.903 169.311 168.927 169.397 169.009 169.451 
169.015 169.39 168.927 169.271 168.826 169.186 168.8 169.21 168.913 
169.368 169.147 179.581 179.771 179.406 178.882 179.949 179.551 178.983 
178.679 178.149 180.123 179.749 179.141 178.772 178.188 177.867 177.202 
180.072 179.871 179.279 178.923 178.225 177.858 177.11 176.774 175.97 
179.798 179.725 179.191 178.947 178.181 177.816 176.95 176.61 175.754 
175.449 174.615 179.529 179.458 178.97 178.777 178.028 177.677 176.754 
176.393 175.477 175.177 174.301 174.042 173.197 179.226 179.186 178.692 
178.549 177.828 177.5 176.575 176.18 175.221 174.878 173.954 173.676 
172.788 172.568 171.736 178.783 178.782 178.243 178.193 177.49 177.269 
176.373 176.007 175.036 174.644 173.697 173.348 172.459 172.178 171.371 
171.151 170.422 178.335 178.284 177.705 177.666 176.998 176.872 176.069 
175.791 174.889 174.5 173.583 173.171 172.31 171.946 171.181 170.888 
170.211 169.965 169.344 180.109 181.179 180.577 180.414 182.358 181.78 
181.665 180.902 180.657 183.377 182.969 182.959 182.233 181.916 181.103 
180.769 184.21 183.933 184.041 183.474 183.153 182.321 181.776 181.036 
180.591 184.984 184.761 184.96 184.517 184.301 183.505 182.895 181.998 
181.354 180.686 180.241 185.516 185.436 185.638 185.385 185.271 184.631 
184.115 183.176 182.485 181.561 180.986 180.334 179.963 185.619 185.695 
185.794 185.817 185.706 185.414 184.975 184.318 183.683 182.79 182.125 
181.246 180.706 180.076 179.682 185.54 185.598 185.575 185.695 185.539 
185.527 185.127 184.868 184.316 183.788 183.14 182.37 181.682 180.897 
180.317 179.732 179.277 185.576 185.522 185.426 185.421 185.221 185.218 
184.865 184.786 184.336 184.126 183.598 183.14 182.476 181.788 181.095 
180.409 179.849 179.302 178.86 185.633 185.511 185.533 185.38 185.015 
185.226 185.019 185.151 184.996 184.277 184.573 184.394 184.629 184.428 
184.664 184.536 183.644 183.862 183.704 183.94 183.771 184.025 183.883 
184.158 184.038 183.065 183.288 183.062 183.26 183.035 183.311 183.148 
183.466 183.313 183.61 183.382 182.196 182.58 182.28 182.54 182.182 
182.48 182.21 182.602 182.384 182.777 182.483 182.791 182.344 181.045 
181.53 181.233 181.599 181.211 181.535 181.195 181.573 181.302 181.721 
181.413 181.782 181.345 181.598 181.039 179.905 180.356 180.099 180.49 
180.164 180.519 180.213 180.565 180.286 180.645 180.354 180.703 180.347 
180.619 180.163 180.328 179.825 178.904 179.296 179.068 179.42 179.135 
179.488 179.219 179.588 179.324 179.67 179.377 179.703 179.394 179.689 
179.338 179.539 179.123 179.243 178.825 178.31 177.401 178.076 178.442 
176.332 177.088 177.463 178.142 178.484 175.138 175.954 176.347 177.101 
177.474 178.178 178.56 173.878 174.726 175.153 175.958 176.369 177.131 
177.548 178.273 178.668 172.626 173.464 173.922 174.762 175.215 176.016 
176.446 177.216 177.627 178.354 178.717 171.481 172.252 172.698 173.53 
173.992 174.836 175.272 176.081 176.487 177.265 177.661 178.387 178.738 
170.457 171.155 171.556 172.328 172.759 173.59 174.024 174.861 175.269 
176.087 176.495 177.292 177.686 178.406 178.711 169.507 170.144 170.501 
171.216 171.633 172.404 172.85 173.639 174.069 174.862 175.28 176.095 
176.502 177.296 177.627 178.321 178.532 168.662 169.214 169.538 170.19 
170.613 171.342 171.82 172.558 173.013 173.736 174.159 174.909 175.315 
176.093 176.443 177.183 177.437 178.091 178.263 177.95 177.072 177.413 
177.22 176.081 176.457 176.202 176.625 176.442 174.991 175.407 175.133 
175.554 175.305 175.771 175.523 173.849 174.275 173.968 174.411 174.101 
174.575 174.26 174.742 174.386 172.711 173.124 172.756 173.175 172.78 
173.265 172.889 173.411 173.021 173.514 173.1 171.519 171.954 171.563 
171.953 171.497 171.906 171.48 171.979 171.596 172.116 171.725 172.216 
171.838 170.279 170.706 170.312 170.733 170.29 170.665 170.21 170.617 
170.212 170.692 170.327 170.839 170.5 171.008 170.715 169.183 169.499 
169.089 169.474 169.056 169.451 169.008 169.393 168.945 169.357 168.945 
169.434 169.1 169.654 169.397 169.95 169.74 168.324 168.52 168.097 
168.35 167.914 168.236 167.791 168.168 167.724 168.116 167.68 168.096 
167.733 168.247 168.008 168.603 168.437 169.02 168.871 179.616 179.869 
180.04 180.627 180.029 180.296 180.955 181.117 181.764 180 180.375 
181.096 181.41 182.125 182.318 182.998 179.887 180.276 180.995 181.441 
182.215 182.586 183.281 183.5 184.032 179.772 180.138 180.802 181.27 
182.057 182.556 183.279 183.633 184.131 184.31 184.569 179.618 179.994 
180.618 181.06 181.808 182.336 183.071 183.515 184.038 184.3 184.61 
184.699 184.851 179.423 179.819 180.456 180.878 181.6 182.087 182.792 
183.248 183.777 184.123 184.508 184.733 185.034 185.064 185.255 179.201 
179.615 180.261 180.706 181.42 181.891 182.563 182.978 183.46 183.803 
184.169 184.528 184.901 185.182 185.464 185.507 185.627 178.925 179.355 
179.943 180.435 181.086 181.626 182.25 182.716 183.148 183.477 183.75 
184.099 184.408 184.85 185.162 185.494 185.632 185.722 185.701 179.68 
180.67 180.147 180.151 181.792 181.188 181.178 180.663 180.661 183.046 
182.395 182.343 181.731 181.685 181.129 180.943 184.112 183.629 183.577 
182.943 182.817 182.171 181.932 181.258 180.814 184.61 184.433 184.408 
184.035 183.885 183.301 183.005 182.281 181.807 181.013 180.44 184.789 
184.678 184.623 184.53 184.419 184.147 183.862 183.304 182.8 182.027 
181.399 180.605 180.036 185.137 184.884 184.788 184.638 184.568 184.442 
184.245 183.937 183.473 182.894 182.227 181.504 180.847 180.172 179.666 
185.541 185.303 185.232 184.97 184.943 184.691 184.566 184.245 183.867 
183.403 182.801 182.203 181.548 180.914 180.361 179.787 179.359 185.675 
185.61 185.591 185.451 185.478 185.232 185.132 184.717 184.343 183.813 
183.26 182.712 182.141 181.574 181.054 180.474 180.023 179.481 179.087 
179.12 179.595 179.031 178.343 180.075 179.522 178.794 178.179 177.337 
180.284 179.885 179.107 178.569 177.671 177.054 176.085 180.075 179.86 
179.071 178.716 177.812 177.305 176.313 175.71 174.677 179.676 179.511 
178.759 178.534 177.697 177.33 176.369 175.859 174.813 174.233 173.182 
179.336 179.142 178.439 178.223 177.469 177.17 176.266 175.833 174.803 
174.293 173.268 172.737 171.805 179.064 178.87 178.207 177.97 177.252 
176.968 176.132 175.729 174.758 174.265 173.315 172.828 172.014 171.522 
170.838 178.815 178.641 178.018 177.778 177.073 176.785 176.017 175.648 
174.806 174.318 173.48 172.969 172.263 171.795 171.213 170.748 170.235 
178.561 178.41 177.822 177.603 176.931 176.641 175.923 175.588 174.865 
174.452 173.733 173.247 172.581 172.107 171.526 171.099 170.565 170.165 
169.659 180.041 180.061 180.384 181.054 180.007 180.366 181.064 181.43 
182.133 180.029 180.354 181.042 181.393 182.067 182.442 183.074 180.005 
180.379 181.06 181.397 182.041 182.36 182.961 183.301 183.88 179.841 
180.273 180.936 181.348 181.986 182.341 182.953 183.254 183.846 184.132 
184.685 179.702 180.102 180.757 181.159 181.784 182.199 182.867 183.267 
183.947 184.226 184.782 184.955 185.334 179.589 179.993 180.657 181.02 
181.619 181.98 182.637 183.109 183.895 184.333 184.984 185.154 185.478 
185.485 185.59 179.368 179.816 180.445 180.882 181.451 181.824 182.393 
182.845 183.575 184.153 184.874 185.267 185.629 185.67 185.709 185.623 
185.593 179.079 179.509 180.06 180.548 181.091 181.558 182.087 182.55 
183.152 183.725 184.363 184.934 185.329 185.63 185.679 185.716 185.655 
185.618 185.619 
POINT_DATA 1002
SCALARS Distance double
LOOKUP_TABLE default
177.691 178.519 177.678 176.72 176.658 176.696 175.555 175.563 175.599 
175.55 174.319 174.409 174.331 174.374 174.306 172.985 173.101 172.984 
173.072 173.062 173.018 171.576 171.736 171.551 171.682 171.727 171.701 
171.802 170.295 170.497 170.189 170.25 170.337 170.35 170.486 170.751 
169.125 169.361 168.999 168.931 168.973 169.056 169.204 169.497 169.8 
167.937 168.282 167.832 167.742 167.698 167.837 168.05 168.31 168.63 
168.915 166.826 167.326 166.686 166.635 166.525 166.612 166.915 167.205 
167.504 167.846 168.154 178.787 177.886 179.011 178.107 179.232 176.854 
178.332 179.426 177.029 175.746 178.482 179.532 177.145 175.808 174.534 
178.537 179.608 177.24 175.837 174.536 173.176 178.581 179.697 177.332 
175.972 174.6 173.227 171.82 178.595 179.66 177.366 176.078 174.748 
173.366 171.981 170.628 178.499 179.454 177.32 176.041 174.77 173.478 
172.192 170.928 169.593 178.334 179.224 177.226 175.961 174.7 173.479 
172.285 171.174 170.011 168.658 178.488 177.404 177.584 176.285 176.432 
176.118 174.983 175.09 174.898 174.781 173.551 173.636 173.607 173.612 
173.512 171.997 172.157 172.122 172.318 172.287 172.232 170.548 170.96 
170.477 170.693 170.781 170.825 171.032 169.613 170.249 169.189 169.154 
169.204 169.288 169.636 169.974 169.138 169.768 168.515 168.189 168.11 
168.111 168.333 168.663 168.751 168.677 169.173 168.056 167.538 167.314 
167.283 167.338 167.439 167.428 167.318 166.029 165.906 164.758 166.008 
164.388 163.387 166.15 164.32 162.708 161.798 166.19 164.44 162.503 
161.125 160.39 166.159 164.507 162.68 161.131 160.092 159.582 166.312 
164.625 162.939 161.521 160.295 159.477 159.153 166.839 165.143 163.405 
162.011 160.695 159.549 159.004 158.877 167.528 165.955 164.2 162.687 
161.31 159.936 159.063 158.85 158.868 168.081 166.673 165.045 163.496 
162.132 160.794 159.684 159.156 159.076 159.129 165.644 164.493 165.583 
163.06 164.337 165.441 161.359 162.726 164.052 165.335 160.069 161.158 
162.595 164.109 165.61 159.413 160.164 161.476 163.011 164.563 166.011 
159.004 159.505 160.651 162.122 163.56 164.999 166.361 158.812 159.026 
159.905 161.294 162.666 164.023 165.473 166.783 158.996 159.002 159.531 
160.664 161.935 163.174 164.6 166.048 167.221 159.479 159.464 160.127 
160.346 161.041 159.684 161.335 161.957 160.766 160.436 162.193 162.863 
161.79 161.534 161.523 163.227 163.982 162.788 162.567 162.438 162.626 
164.529 165.238 164.039 163.756 163.501 163.505 163.961 165.835 166.462 
165.326 165.046 164.808 164.663 164.95 165.526 167.094 167.641 166.553 
166.214 166.092 166.006 166.084 166.448 166.877 168.305 168.743 167.817 
167.407 167.26 167.284 167.323 167.436 167.651 167.9 159.453 159.815 
159.865 160.165 160.533 160.505 160.906 161.63 160.958 161.539 162.207 
162.976 161.867 162.194 162.644 163.636 164.246 163.193 163.174 163.503 
163.768 164.891 165.447 164.54 164.418 164.557 164.798 164.988 166.151 
166.694 165.847 165.789 165.861 165.98 166.077 166.212 167.466 167.904 
167.19 167.156 167.247 167.323 167.315 167.291 167.398 168.664 168.965 
168.448 168.398 168.473 168.577 168.611 168.536 168.47 168.549 168.867 
167.569 168.425 167.068 168.113 166.058 166.847 167.997 165.611 164.48 
166.793 167.921 165.477 164.152 163.055 166.756 167.915 165.481 164.134 
162.92 161.819 166.91 168.106 165.611 164.294 163.101 161.955 160.722 
167.257 168.399 165.959 164.618 163.394 162.268 161.078 159.928 167.592 
168.681 166.348 165.045 163.783 162.546 161.344 160.303 159.537 170.04 
169.81 170.968 170.879 171.971 169.478 172.028 173.064 170.656 169.228 
173.152 174.168 171.865 170.421 169.102 174.198 175.207 173.012 171.658 
170.323 169.059 175.233 176.231 174.105 172.851 171.597 170.342 169.123 
176.271 177.204 175.192 173.975 172.752 171.576 170.38 169.293 177.183 
178.015 176.208 175.07 173.841 172.671 171.556 170.476 169.523 177.941 
178.7 177.073 176.087 174.949 173.762 172.669 171.645 170.668 169.781 