# vtk DataFile Version 4.0
vtk output
ASCII
DATASET POLYDATA
POINTS 1002 float
-104.95 -120.529 75.2238 -105.689 -121.524 74.8931 -105.509 -120.847 74.1638 
-104.635 -119.851 74.465 -105.273 -120.062 73.4956 -104.048 -119.584 75.5735 
-104.367 -118.987 73.7683 -105.052 -119.187 72.8505 -103.751 -118.758 74.7971 
-103.308 -118.332 76.0003 -104.168 -117.933 73.0876 -104.868 -118.152 72.1936 
-103.554 -117.665 74.0464 -103.103 -117.224 75.2613 -102.781 -116.637 76.5238 
-103.962 -116.701 72.3941 -104.709 -116.916 71.5654 -103.295 -116.454 73.2721 
-102.815 -116.034 74.465 -102.361 -115.592 75.8172 -101.948 -115.198 77.0316 
-103.709 -115.398 71.7371 -104.569 -115.591 71.0421 -102.89 -115.258 72.5209 
-102.292 -114.972 73.6028 -101.756 -114.672 74.9571 -101.196 -114.496 76.2615 
-100.83 -114.218 77.4992 -103.364 -114.179 71.122 -104.397 -114.293 70.6557 
-102.419 -114.125 71.8116 -101.697 -113.964 72.7969 -101.122 -113.751 74.0274 
-100.579 -113.635 75.3362 -100.234 -113.411 76.6527 -100.111 -112.939 78.0155 
-102.944 -113.027 70.5555 -104.179 -113.032 70.376 -101.918 -113.028 71.0828 
-101.213 -112.871 72.0345 -100.664 -112.626 73.1704 -100.183 -112.465 74.3855 
-99.9286 -112.231 75.737 -99.9083 -111.768 77.1592 -99.8682 -111.263 78.5123 
-102.623 -111.833 70.1247 -103.966 -111.833 70.1313 -101.52 -111.831 70.4529 
-100.868 -111.646 71.3166 -100.421 -111.32 72.4114 -99.976 -111.07 73.5097 
-99.7288 -110.843 74.8063 -99.7643 -110.449 76.29 -99.8241 -110.012 77.678 
-99.7194 -109.73 78.8697 -102.484 -110.64 69.8441 -103.768 -110.776 69.8668 
-101.377 -110.505 70.063 -100.72 -110.263 70.776 -100.344 -109.913 71.7921 
-99.9528 -109.599 72.7916 -99.663 -109.359 73.9273 -99.6464 -109.063 75.374 
-99.7319 -108.736 76.8385 -99.7112 -108.534 78.0654 -99.5886 -108.464 79.1155 
-106.276 -122.128 74.0898 -106.171 -121.357 73.3618 -107.025 -122.543 73.2857 
-106.925 -121.779 72.5054 -107.941 -122.735 72.4273 -105.975 -120.516 72.6368 
-107.839 -121.988 71.5784 -108.929 -122.833 71.4088 -106.74 -120.936 71.6495 
-105.76 -119.606 71.8914 -108.946 -121.983 70.6237 -110.011 -122.82 70.3719 
-107.72 -121.081 70.7124 -106.539 -119.962 70.8517 -105.559 -118.522 71.2079 
-110.176 -121.82 69.746 -111.262 -122.558 69.573 -108.961 -120.921 69.9154 
-107.601 -119.972 70.0427 -106.356 -118.8 70.2578 -105.427 -117.228 70.6663 
-111.358 -121.522 68.9607 -112.516 -122.146 68.8962 -110.204 -120.64 69.1156 
-108.9 -119.693 69.3562 -107.469 -118.747 69.5305 -106.287 -117.467 69.819 
-105.418 -115.796 70.3292 -112.367 -121.118 68.1841 -113.527 -121.738 68.1204 
-111.236 -120.292 68.2917 -110.074 -119.375 68.5562 -108.711 -118.491 68.806 
-107.366 -117.459 69.0432 -106.378 -115.965 69.6041 -105.449 -114.302 70.218 
-113.22 -120.613 67.4525 -114.308 -121.257 67.3602 -112.101 -119.84 67.5633 
-110.991 -119.031 67.765 -109.737 -118.213 68.01 -108.402 -117.302 68.2462 
-107.332 -116.021 68.7989 -106.48 -114.37 69.652 -105.385 -112.87 70.1705 
-114.022 -119.985 66.9049 -115.017 -120.606 66.8114 -112.923 -119.29 67.0084 
-111.79 -118.6 67.1139 -110.548 -117.865 67.2651 -109.239 -117.038 67.4756 
-108.144 -115.972 67.9621 -107.319 -114.501 68.8589 -106.414 -112.905 69.6974 
-105.173 -111.651 69.9919 -115.2 -119.409 66.4946 -114.115 -118.763 66.609 
-115.42 -118.068 66.2536 -114.226 -117.521 66.3155 -115.565 -116.727 65.925 
-112.88 -118.153 66.6168 -114.205 -116.22 66.0184 -115.44 -115.351 65.6339 
-112.732 -116.925 66.1812 -111.493 -117.46 66.5993 -113.849 -114.691 65.9831 
-114.874 -113.868 65.6892 -112.404 -115.409 65.9702 -111.048 -116.029 66.141 
-110.04 -116.601 66.7347 -113.097 -112.94 66.1217 -114.014 -112.306 66.0138 
-111.845 -113.596 66.0889 -110.595 -114.288 66.0912 -109.62 -115.022 66.4924 
-108.838 -115.63 67.1963 -112.269 -111.223 66.1977 -113.224 -110.85 66.4589 
-111.155 -111.72 66.0946 -110.149 -112.435 66.2121 -109.382 -113.289 66.639 
-108.666 -113.987 67.3109 -107.959 -114.352 68.0928 -111.676 -109.894 66.6469 
-112.59 -109.728 67.2296 -110.648 -110.145 66.226 -109.768 -110.688 66.2864 
-109.138 -111.519 66.8564 -108.492 -112.254 67.592 -107.727 -112.628 68.3268 
-107.039 -112.763 69.073 -111.23 -108.952 67.7367 -111.982 -108.852 68.3011 
-110.365 -109.035 67.1428 -109.545 -109.285 66.8949 -108.864 -109.853 67.2771 
-108.153 -110.507 67.9451 -107.279 -110.94 68.5038 -106.463 -111.159 69.0421 
-105.817 -111.348 69.5994 -110.774 -108.011 68.9168 -111.397 -107.913 69.2579 
-110.062 -108.06 68.4777 -109.312 -108.122 68.0856 -108.554 -108.377 68.0936 
-107.733 -108.815 68.469 -106.759 -109.263 68.7835 -105.783 -109.648 68.9821 
-105.023 -109.984 69.2872 -104.404 -110.334 69.639 -102.806 -109.597 69.5892 
-103.407 -109.071 69.3396 -101.948 -108.063 69.4004 -104.101 -108.533 69.1061 
-102.494 -107.351 69.1024 -101.245 -106.115 69.2404 -105.042 -107.928 69.062 
-103.299 -106.496 68.9664 -101.767 -105.095 68.9092 -100.73 -103.998 69.169 
-106.162 -107.384 69.09 -104.403 -105.643 69.043 -102.73 -103.969 68.8395 
-101.344 -102.744 68.94 -100.467 -101.972 69.4547 -107.226 -107.003 68.9752 
-105.59 -105.114 69.1174 -104.017 -103.17 68.9225 -102.544 -101.698 68.9698 
-101.285 -100.76 69.3507 -100.424 -100.087 69.9726 -108.176 -106.8 68.962 
-106.714 -104.935 69.1974 -105.322 -102.919 69.0357 -104.063 -101.285 69.1034 
-102.715 -100.107 69.4398 -101.485 -99.1827 69.8792 -100.595 -98.4922 70.4718 
-109.035 -106.773 69.2498 -107.76 -104.977 69.5108 -106.492 -103.006 69.3534 
-105.449 -101.333 69.3664 -104.318 -100.043 69.687 -103.019 -98.9452 70.0583 
-101.884 -98.0335 70.4914 -101.02 -97.4431 71.1486 -109.808 -106.785 69.5717 
-108.697 -105.114 69.8869 -107.513 -103.277 69.8747 -106.51 -101.608 69.882 
-105.587 -100.216 70.1231 -104.491 -99.0551 70.4843 -103.38 -98.1016 70.8709 
-102.422 -97.3722 71.3752 -101.583 -96.889 72.0924 -110.507 -106.732 69.7669 
-109.55 -105.192 70.0816 -108.46 -103.568 70.2837 -107.392 -102.065 70.4915 
-106.49 -100.631 70.7285 -105.596 -99.3231 71.0359 -104.655 -98.3222 71.4284 
-103.783 -97.5961 71.8614 -102.951 -97.0061 72.3829 -102.128 -96.5518 73.0635 
-101.643 -109.214 69.7329 -101.036 -107.373 69.7477 -100.837 -108.791 70.2513 
-100.563 -105.333 69.7236 -100.508 -106.758 70.4758 -100.41 -108.371 71.1712 
-100.188 -103.326 69.862 -100.168 -104.699 70.6277 -100.148 -106.269 71.4934 
-100.048 -107.998 72.1869 -99.9235 -101.324 70.3441 -99.782 -102.676 71.0006 
-99.8034 -104.103 71.8537 -99.8276 -105.823 72.6264 -99.7431 -107.681 73.2599 
-99.8082 -99.4048 70.8711 -99.4267 -100.71 71.5446 -99.3815 -102.064 72.3908 
-99.6013 -103.572 73.2243 -99.7674 -105.434 73.9425 -99.6971 -107.387 74.6508 
-99.9896 -97.925 71.462 -99.3298 -99.013 72.0976 -99.075 -100.379 72.9402 
-99.2644 -101.742 73.8171 -99.6978 -103.307 74.6341 -99.8615 -105.233 75.4317 
-99.7551 -107.161 76.1986 -100.454 -97.0305 72.3494 -99.6166 -97.75 72.8824 
-99.1806 -98.9809 73.6171 -99.1258 -100.358 74.406 -99.4506 -101.735 75.1895 
-99.8116 -103.369 76.0247 -99.8367 -105.293 76.8615 -99.7184 -107.099 77.5498 
-101.021 -96.5195 73.3547 -100.117 -96.9137 73.854 -99.6056 -97.8212 74.5074 
-99.3989 -99.0761 75.1926 -99.426 -100.437 75.8502 -99.658 -101.904 76.5859 
-99.8156 -103.629 77.4177 -99.7423 -105.49 78.1534 -99.6233 -107.147 78.6921 
-101.99 -96.1708 74.1891 -100.945 -96.2963 74.6692 -102.025 -95.9847 75.5105 
-101.113 -96.3395 76.0815 -102.293 -96.1524 77.0223 -100.229 -96.8533 75.3129 
-101.44 -96.6662 77.6412 -102.588 -96.4945 78.6546 -100.51 -97.0235 76.8188 
-99.8865 -97.8257 76.0447 -101.701 -97.0146 79.4322 -102.8 -96.7848 80.3323 
-100.761 -97.3766 78.5104 -100.138 -97.9933 77.6703 -99.7134 -99.1052 76.7434 
-101.963 -97.3377 81.2495 -103.111 -97.1507 81.9547 -100.984 -97.7663 80.3699 
-100.259 -98.3721 79.4648 -99.8703 -99.3223 78.4875 -99.6805 -100.61 77.4431 
-102.361 -97.8479 82.7308 -103.527 -97.7073 83.3153 -101.373 -98.2671 81.96 
-100.505 -98.9073 81.1593 -99.9265 -99.8009 80.2941 -99.7667 -100.982 79.2878 
-99.7779 -102.322 78.2521 -102.773 -98.5738 83.8038 -103.901 -98.4606 84.285 
-101.837 -98.9694 83.1182 -100.983 -99.5682 82.4603 -100.167 -100.412 81.793 
-99.7869 -101.493 81.0055 -99.7933 -102.8 80.0386 -99.7873 -104.203 79.0128 
-103.184 -99.5027 84.5996 -104.276 -99.4608 84.9467 -102.249 -99.8408 84.0531 
-101.481 -100.361 83.5232 -100.652 -101.103 82.9723 -99.9949 -102.083 82.3119 
-99.8099 -103.282 81.5339 -99.7689 -104.687 80.5696 -99.6566 -106.049 79.5505 
-103.714 -100.601 85.2144 -104.726 -100.59 85.4679 -102.763 -100.87 84.8102 
-101.986 -101.312 84.4063 -101.239 -101.946 83.9582 -100.497 -102.832 83.3376 
-100.044 -103.912 82.6376 -99.8462 -105.172 81.8569 -99.6499 -106.5 80.9065 
-99.525 -107.618 79.94 -103.174 -96.5182 73.5561 -103.135 -96.0604 74.7209 
-104.274 -96.5504 74.1627 -104.442 -96.0803 75.4321 -105.466 -96.6692 74.8947 
-103.299 -95.8864 76.2269 -105.916 -96.2223 76.2053 -106.76 -96.9069 75.5882 
-104.789 -95.9367 77.0819 -103.601 -96.0919 77.9245 -107.396 -96.497 76.8035 
-107.969 -97.3313 76.0696 -106.441 -96.0461 77.7685 -105.101 -96.1213 78.7393 
-103.828 -96.4253 79.5089 -108.523 -97.0981 77.2785 -108.978 -98.0393 76.4808 
-107.925 -96.3426 78.2658 -106.733 -96.2357 79.2999 -105.281 -96.5531 80.1326 
-104.071 -96.8255 81.003 -109.339 -98.0723 77.8351 -109.913 -98.928 77.0052 
-108.896 -97.1546 78.8343 -108.096 -96.7297 79.8748 -106.769 -96.9921 80.6702 
-105.486 -97.2877 81.4449 -104.456 -97.3911 82.4779 -110.226 -99.0736 78.3933 
-110.843 -99.7729 77.5449 -109.689 -98.2846 79.4082 -109.082 -97.6998 80.4821 
-107.989 -97.7631 81.28 -106.698 -98.0919 81.8296 -105.693 -98.1091 82.6758 
-104.811 -98.0849 83.6916 -111.231 -99.8907 78.812 -111.711 -100.519 77.9751 
-110.676 -99.2772 79.8018 -110.097 -98.7272 80.8801 -109.175 -98.5756 81.7831 
-107.852 -98.8364 82.2879 -106.696 -98.9983 82.8038 -105.894 -98.9222 83.69 
-105.11 -99.0006 84.5355 -112.148 -100.62 79.1328 -112.471 -101.233 78.3197 
-111.672 -100.1 80.0816 -111.137 -99.6273 81.1212 -110.422 -99.3123 82.1091 
[...]
CELL_DATA 2000
SCALARS Distance double
LOOKUP_TABLE default
175.996 175.06 175.345 174.968 174.06 174.354 173.939 174.268 173.88 
172.989 173.299 172.822 173.169 172.731 173.114 172.694 171.81 172.144 
171.595 171.965 171.462 171.882 171.435 171.864 171.441 170.575 170.891 
170.284 170.655 170.102 170.539 170.075 170.55 170.147 170.61 170.251 
169.366 169.625 168.967 169.311 168.734 169.154 168.678 169.162 168.775 
169.285 168.954 169.458 169.162 168.199 168.393 167.665 167.981 167.382 
167.791 167.297 167.764 167.358 167.884 167.561 168.12 167.846 168.385 
168.121 167.097 167.212 166.412 166.67 166.048 166.443 165.949 166.394 
165.958 166.455 166.112 166.692 166.447 167.042 166.828 167.368 167.148 
166.108 166.142 165.306 165.46 164.814 165.143 164.669 165.079 164.653 
165.087 164.723 165.251 165.02 165.636 165.482 166.078 165.923 166.452 
166.293 176.465 176.878 176.309 175.555 177.252 176.71 175.947 175.361 
174.572 177.555 177.057 176.299 175.731 174.917 174.344 173.523 177.818 
177.346 176.607 176.058 175.235 174.662 173.813 173.248 172.381 178.092 
177.622 176.915 176.371 175.562 174.975 174.117 173.529 172.657 172.075 
171.188 178.34 177.891 177.177 176.67 175.873 175.308 174.457 173.854 
172.987 172.378 171.517 170.91 170.038 178.461 178.065 177.302 176.862 
176.057 175.575 174.739 174.187 173.324 172.728 171.885 171.283 170.454 
169.816 168.95 178.416 178.079 177.281 176.898 176.086 175.684 174.866 
174.403 173.548 173.021 172.178 171.638 170.843 170.261 169.443 168.769 
167.902 178.274 177.974 177.195 176.838 176.041 175.671 174.862 174.459 
173.606 173.157 172.315 171.862 171.09 170.611 169.847 169.261 168.433 
167.748 166.908 177.943 177.105 177.313 176.865 176.231 176.454 175.973 
176.176 175.708 175.232 175.531 174.995 175.214 174.652 174.943 174.467 
174.009 174.419 173.815 174.092 173.387 173.728 173.153 173.601 173.143 
172.554 173.033 172.364 172.736 171.959 172.333 171.719 172.198 171.776 
172.274 171.894 171.093 171.475 170.734 171.145 170.408 170.85 170.325 
170.82 170.5 170.978 170.687 171.105 170.754 170.025 170.142 169.397 
169.608 168.96 169.349 168.969 169.502 169.289 169.792 169.517 169.935 
169.556 169.957 169.529 169.411 169.348 168.702 168.633 168.071 168.186 
167.875 168.268 168.101 168.588 168.285 168.711 168.237 168.664 168.154 
168.618 168.109 168.892 168.872 168.308 168.2 167.652 167.591 167.184 
167.352 167.072 167.427 167.053 167.423 166.874 167.262 166.684 167.149 
166.619 167.115 166.599 165.599 165.579 165.074 164.031 165.622 165.047 
163.916 163.405 162.294 165.821 165.145 163.934 163.278 162.013 161.539 
160.451 166.107 165.424 164.177 163.361 161.986 161.292 160.067 159.7 
158.833 166.335 165.745 164.581 163.695 162.312 161.418 160.169 159.513 
158.596 158.284 157.675 166.633 166.065 165.085 164.19 162.921 161.928 
160.787 159.923 159.072 158.402 157.778 157.363 156.905 167.164 166.552 
165.743 164.844 163.731 162.703 161.695 160.772 160.046 159.21 158.635 
157.874 157.418 156.865 156.593 167.785 167.19 166.463 165.627 164.647 
163.65 162.726 161.798 161.131 160.301 159.782 158.953 158.522 157.749 
157.491 156.889 156.83 168.319 167.777 167.075 166.357 165.487 164.613 
163.777 162.887 162.237 161.408 160.904 160.108 159.708 158.951 158.703 
158.016 157.927 157.342 157.368 165.297 163.753 164.495 164.469 162.087 
162.92 162.972 163.779 163.971 160.368 161.249 161.414 162.304 162.599 
163.459 163.828 158.849 159.632 159.878 160.778 161.153 162.084 162.511 
163.395 163.81 157.652 158.277 158.511 159.328 159.709 160.633 161.101 
162.048 162.535 163.412 163.891 156.743 157.179 157.334 158.042 158.392 
159.241 159.729 160.664 161.257 162.18 162.797 163.631 164.231 156.312 
156.421 156.507 156.985 157.35 158.05 158.58 159.41 160.082 160.993 
161.739 162.62 163.335 164.113 164.748 156.486 156.263 156.293 156.428 
156.808 157.252 157.847 158.476 159.187 159.963 160.762 161.627 162.424 
163.251 163.952 164.671 165.249 157.003 156.633 156.598 156.479 156.798 
156.991 157.58 157.992 158.696 159.262 160.038 160.761 161.585 162.383 
163.154 163.896 164.537 165.173 165.687 157.268 157.656 157.213 156.913 
158.434 157.802 157.565 157.12 157.123 159.545 158.787 158.553 157.963 
158.001 157.607 157.871 160.733 159.983 159.752 159.08 159.08 158.591 
158.839 158.512 158.925 161.938 161.197 161.019 160.324 160.303 159.731 
159.939 159.535 159.942 159.659 160.205 163.203 162.456 162.317 161.621 
161.619 160.995 161.178 160.692 161.097 160.751 161.316 161.053 161.71 
164.429 163.725 163.592 162.93 162.945 162.33 162.489 161.959 162.316 
161.939 162.49 162.214 162.847 162.606 163.252 165.613 164.931 164.825 
164.19 164.235 163.652 163.816 163.268 163.556 163.133 163.611 163.345 
163.936 163.715 164.294 164.073 164.616 166.839 166.157 166.102 165.452 
165.537 164.955 165.159 164.603 164.877 164.378 164.779 164.434 164.973 
164.741 165.284 165.059 165.533 165.312 165.748 157.761 158.7 158.135 
158.086 159.831 159.177 159.157 158.63 158.832 161.133 160.44 160.49 
159.861 160.078 159.576 159.935 162.465 161.818 161.92 161.286 161.492 
160.914 161.195 160.719 161.078 163.752 163.152 163.291 162.707 162.908 
162.327 162.557 162.004 162.292 161.843 162.239 165.097 164.473 164.649 
164.068 164.315 163.738 164.001 163.4 163.687 163.133 163.509 163.064 
163.509 166.492 165.871 166.07 165.472 165.762 165.185 165.5 164.891 
165.174 164.57 164.89 164.383 164.77 164.342 164.74 167.798 167.251 
167.468 166.908 167.205 166.657 166.983 166.402 166.651 166.031 166.247 
165.707 166.008 165.577 165.941 165.532 165.903 168.959 168.497 168.733 
168.251 168.542 168.056 168.375 167.85 168.101 167.483 167.658 167.042 
167.291 166.797 167.17 166.744 167.144 166.712 167.105 168.399 168.051 
167.86 167.079 167.752 167.465 166.603 166.408 165.534 167.625 167.233 
166.368 166.025 165.175 164.881 163.998 167.668 167.211 166.396 165.945 
165.136 164.709 163.865 163.448 162.578 167.838 167.347 166.552 166.058 
165.251 164.78 163.935 163.447 162.546 162.094 161.249 168.053 167.566 
166.754 166.232 165.379 164.892 164.043 163.556 162.672 162.15 161.289 
160.84 160.094 168.257 167.788 166.999 166.453 165.582 165.03 164.186 
163.686 162.882 162.355 161.559 161.015 160.295 159.823 159.188 168.519 
168.034 167.323 166.756 165.952 165.324 164.515 163.929 163.195 162.65 
161.936 161.373 160.674 160.141 159.513 159.033 158.457 168.893 168.384 
167.751 167.173 166.462 165.806 165.062 164.398 163.712 163.095 162.449 
161.835 161.167 160.569 159.927 159.403 158.831 158.364 157.859 169.076 
170.062 169.345 168.858 171.115 170.388 169.973 169.16 168.639 172.224 
171.473 171.084 170.312 169.852 168.993 168.498 173.367 172.612 172.215 
171.439 171.016 170.202 169.733 168.888 168.472 174.43 173.754 173.406 
172.622 172.216 171.386 170.953 170.115 169.711 168.913 168.6 175.383 
174.785 174.526 173.823 173.457 172.634 172.215 171.363 170.979 170.165 
169.845 169.078 168.803 176.35 175.744 175.517 174.896 174.587 173.851 
173.444 172.631 172.241 171.441 171.113 170.331 170.026 169.265 168.983 
177.333 176.722 176.465 175.866 175.59 174.931 174.568 173.817 173.428 
172.666 172.335 171.582 171.273 170.498 170.198 169.444 169.203 178.201 
177.649 177.364 176.792 176.522 175.919 175.615 174.923 174.567 173.824 
173.49 172.763 172.469 171.732 171.446 170.686 170.436 169.707 169.533 
178.531 178.754 178.335 177.72 179.032 178.576 177.954 177.517 176.891 
179.33 178.871 178.223 177.762 177.11 176.676 176.003 179.548 179.135 
178.47 178.017 177.33 176.884 176.173 175.727 174.983 179.775 179.341 
178.703 178.245 177.549 177.086 176.352 175.884 175.111 174.656 173.906 
180.18 179.664 179.05 178.524 177.834 177.317 176.566 176.063 175.27 
174.786 174.009 173.584 172.874 180.555 180.099 179.438 178.906 178.162 
177.617 176.828 176.294 175.481 174.961 174.162 173.695 172.956 172.56 
171.868 180.536 180.28 179.546 179.161 178.341 177.875 177.049 176.548 
175.737 175.204 174.402 173.881 173.123 172.666 171.959 171.558 170.886 
180.144 180.021 179.264 179.044 178.221 177.903 177.092 176.705 175.933 
175.467 174.692 174.16 173.389 172.873 172.15 171.693 171.019 170.612 
169.988 179.636 178.537 178.97 178.72 177.448 177.839 177.553 178.002 
177.722 176.33 176.731 176.394 176.826 176.541 176.989 176.677 175.035 
175.524 175.119 175.588 175.245 175.767 175.486 175.948 175.593 173.602 
174.163 173.773 174.241 173.845 174.381 174.095 174.679 174.379 174.83 
174.396 172.15 172.747 172.465 172.931 172.553 172.999 172.683 173.243 
172.975 173.527 173.15 173.568 173.093 170.703 171.31 171.044 171.602 
171.224 171.71 171.33 171.857 171.554 172.112 171.777 172.263 171.843 
172.255 171.827 169.278 169.842 169.484 170.078 169.639 170.227 169.796 
170.414 170.079 170.692 170.375 170.902 170.529 170.983 170.598 171.03 
170.678 167.937 168.416 168.015 168.519 168.074 168.599 168.19 168.799 
168.517 169.18 168.939 169.521 169.208 169.69 169.343 169.796 169.477 
169.927 169.644 179.988 180.311 179.748 178.964 180.752 180.157 179.327 
178.697 177.879 180.956 180.552 179.676 179.045 178.096 177.56 176.728 
180.602 180.523 179.668 179.225 178.152 177.654 176.676 176.287 175.399 
179.837 179.956 179.212 179.003 177.938 177.53 176.433 176.079 175.076 
174.787 173.862 179.023 179.159 178.535 178.468 177.531 177.209 176.106 
175.738 174.661 174.353 173.351 173.149 172.292 178.302 178.391 177.816 
177.822 177.02 176.794 175.771 175.405 174.343 173.966 172.954 172.646 
171.755 171.604 170.853 177.69 177.71 177.13 177.146 176.441 176.308 
175.409 175.098 174.113 173.723 172.762 172.368 171.476 171.17 170.386 
170.221 169.507 177.195 177.146 176.556 176.52 175.874 175.778 175.007 
174.771 173.888 173.54 172.635 172.246 171.367 170.991 170.16 169.862 
169.096 168.906 168.199 180.667 181.604 181.067 180.951 182.373 181.909 
181.792 181.372 181.326 183.066 182.615 182.415 182.058 181.963 181.652 
181.482 183.631 183.267 183.04 182.639 182.438 182.12 181.872 181.546 
181.099 183.936 183.729 183.573 183.248 183.026 182.617 182.281 181.854 
181.359 180.93 180.314 184.093 183.955 183.816 183.641 183.425 183.136 
182.773 182.327 181.796 181.254 180.628 180.116 179.503 184.222 184.098 
183.913 183.769 183.487 183.318 182.928 182.672 182.168 181.738 181.125 
180.557 179.927 179.384 178.815 184.281 184.194 184.007 183.85 183.542 
183.322 182.908 182.683 182.228 181.969 181.452 181.038 180.434 179.891 
179.292 178.758 178.226 184.28 184.223 184.075 183.946 183.693 183.446 
183.069 182.751 182.328 182.031 181.594 181.274 180.756 180.331 179.747 
179.251 178.696 178.204 177.718 184.234 184.087 184.139 184.038 183.791 
183.932 183.811 183.865 183.649 183.206 183.481 183.305 183.493 183.235 
183.337 183.004 182.368 182.728 182.487 182.789 182.515 182.773 182.468 
182.597 182.239 181.423 181.824 181.603 181.905 181.646 181.954 181.712 
181.968 181.651 181.792 181.444 180.408 180.869 180.728 181.061 180.827 
181.11 180.854 181.149 180.836 181.082 180.695 180.916 180.547 179.318 
179.824 179.69 180.134 179.889 180.25 179.923 180.245 179.86 180.156 
179.73 180.022 179.62 179.924 179.549 178.187 178.688 178.496 178.992 
178.721 179.174 178.834 179.223 178.824 179.139 178.706 179.001 178.608 
178.935 178.595 178.905 178.548 177.062 177.528 177.306 177.772 177.511 
177.963 177.682 178.1 177.784 178.119 177.742 178.013 177.64 177.94 
177.631 177.96 177.662 177.94 177.602 176.367 175.365 176.113 176.585 
174.307 175.091 175.577 176.323 176.783 173.135 173.982 174.487 175.299 
175.792 176.529 176.976 171.877 172.741 173.228 174.129 174.649 175.5 
175.978 176.716 177.106 170.695 171.489 171.939 172.815 173.31 174.244 
174.736 175.618 176.019 176.769 177.07 169.62 170.359 170.792 171.577 
172.038 172.895 173.372 174.279 174.72 175.578 175.936 176.679 176.977 
168.565 169.286 169.693 170.459 170.899 171.692 172.155 172.979 173.455 
174.289 174.743 175.533 175.939 176.641 176.995 167.566 168.231 168.599 
169.341 169.757 170.55 171.006 171.819 172.308 173.12 173.624 174.412 
174.893 175.63 176.048 176.711 177.049 166.706 167.283 167.637 168.288 
168.698 169.426 169.88 170.668 171.157 171.984 172.495 173.322 173.819 
174.6 175.036 175.746 176.097 176.737 177.012 176.763 175.84 176.231 
176.073 174.775 175.227 175.03 175.484 175.321 173.534 174.055 173.811 
174.333 174.113 174.646 174.427 172.173 172.716 172.414 172.989 172.714 
173.316 173.052 173.63 173.327 170.825 171.33 171.002 171.544 171.226 
171.821 171.516 172.145 171.828 172.431 172.087 169.561 170.016 169.697 
170.179 169.844 170.35 169.991 170.563 170.213 170.85 170.517 171.152 
170.821 168.381 168.789 168.451 168.904 168.532 168.991 168.56 169.056 
168.634 169.219 168.858 169.519 169.207 169.874 169.59 167.315 167.649 
167.268 167.662 167.227 167.644 167.138 167.596 167.11 167.653 167.25 
167.87 167.539 168.215 167.95 168.657 168.462 166.38 166.635 166.224 
166.522 166.056 166.367 165.827 166.181 165.671 166.142 165.749 166.314 
165.998 166.603 166.347 167.018 166.859 167.595 167.522 178.953 179.128 
179.365 179.949 179.161 179.492 180.124 180.344 180.914 178.996 179.421 
180.093 180.464 181.16 181.39 182.054 178.727 179.182 179.872 180.356 
181.15 181.583 182.371 182.612 183.236 178.473 178.914 179.611 180.114 
180.913 181.465 182.247 182.721 183.319 183.593 183.944 178.221 178.668 
179.34 179.842 180.588 181.156 181.849 182.388 182.884 183.342 183.654 
183.981 184.144 177.915 178.386 179.004 179.511 180.181 180.754 181.409 
181.936 182.419 182.828 183.156 183.523 183.782 184.075 184.225 177.545 
178.04 178.633 179.126 179.731 180.279 180.913 181.469 182.028 182.451 
182.868 183.163 183.494 183.745 183.994 184.181 184.298 177.125 177.637 
178.232 178.733 179.318 179.823 180.408 180.95 181.503 182.025 182.488 
182.907 183.264 183.556 183.807 183.994 184.131 184.249 184.299 179.029 
180.002 179.495 179.41 180.959 180.442 180.389 179.863 179.737 182.077 
181.458 181.427 180.874 180.833 180.221 180.018 183.231 182.63 182.557 
181.973 181.972 181.386 181.256 180.5 180.135 183.974 183.619 183.469 
183.009 182.94 182.488 182.366 181.721 181.32 180.49 179.967 184.235 
184.102 183.92 183.642 183.474 183.231 183.115 182.701 182.31 181.573 
180.965 180.189 179.682 184.321 184.261 184.107 183.899 183.681 183.533 
183.469 183.293 183.082 182.512 181.955 181.144 180.577 179.891 179.502 
184.371 184.349 184.255 184.073 183.865 183.681 183.62 183.555 183.538 
183.241 182.882 182.165 181.574 180.797 180.325 179.717 179.362 184.37 
184.392 184.374 184.258 184.12 183.909 183.798 183.694 183.678 183.588 
183.378 182.969 182.422 181.744 181.145 180.504 180.045 179.512 179.119 
178.423 178.808 178.287 177.599 179.08 178.604 177.88 177.396 176.68 
179.221 178.767 177.929 177.517 176.706 176.352 175.605 179.236 178.804 
177.846 177.425 176.486 176.178 175.355 175.135 174.352 179.136 178.759 
177.818 177.337 176.371 175.941 175.079 174.8 174.048 173.82 172.998 
178.996 178.672 177.858 177.38 176.514 175.986 175.196 174.718 174.019 
173.627 172.925 172.523 171.698 178.896 178.6 177.874 177.457 176.673 
176.208 175.505 175.021 174.372 173.848 173.177 172.645 171.935 171.388 
170.667 178.779 178.527 177.824 177.467 176.7 176.322 175.637 175.284 
174.657 174.23 173.542 173.014 172.29 171.743 171.07 170.539 169.96 
178.563 178.372 177.695 177.398 176.664 176.322 175.646 175.339 174.72 
174.392 173.715 173.292 172.557 172.083 171.393 170.927 170.323 169.886 
169.357 180.752 181.136 181.23 181.681 181.154 181.479 182 182.108 
182.496 180.779 181.296 181.934 182.313 182.852 182.926 183.255 180.383 
180.871 181.562 182.109 182.811 183.175 183.627 183.633 183.808 180.156 
180.557 181.188 181.705 182.413 182.972 183.541 183.832 184.056 184.026 
184.056 179.925 180.338 180.887 181.336 181.922 182.481 183.058 183.559 
183.91 184.115 184.21 184.181 184.2 179.621 180.054 180.607 181.027 
181.585 182.031 182.59 183.058 183.508 183.859 184.098 184.245 184.332 
184.316 184.334 179.339 179.75 180.337 180.761 181.401 181.805 182.435 
182.775 183.26 183.525 183.82 184.042 184.2 184.343 184.399 184.406 
184.381 179.095 179.484 180.041 180.483 181.13 181.623 182.317 182.725 
183.238 183.434 183.664 183.785 183.903 184.097 184.203 184.362 184.393 
184.405 184.364 
POINT_DATA 1002
SCALARS Distance double
LOOKUP_TABLE default
175.636 176.616 175.738 174.664 174.781 174.607 173.62 173.782 173.535 
173.503 172.496 172.693 172.353 172.309 172.275 171.244 171.496 171.047 
170.988 171.011 171.041 169.934 170.298 169.675 169.586 169.654 169.78 
169.935 168.645 169.158 168.325 168.203 168.249 168.425 168.66 168.894 
167.377 168.063 166.974 166.848 166.845 166.983 167.279 167.604 167.871 
166.199 167.03 165.662 165.509 165.493 165.54 165.818 166.249 166.635 
166.944 165.2 166.094 164.522 164.263 164.239 164.231 164.401 164.848 
165.356 165.782 166.157 177.043 176.149 177.443 176.539 177.776 175.156 
176.859 178.033 175.501 174.098 177.148 178.275 175.818 174.389 172.956 
177.447 178.556 176.151 174.719 173.245 171.774 177.672 178.795 176.415 
175.057 173.599 172.119 170.662 177.732 178.858 176.503 175.257 173.907 
172.468 171.072 169.631 177.651 178.741 176.463 175.294 174.048 172.69 
171.379 170.085 168.616 177.532 178.551 176.403 175.259 174.036 172.736 
171.521 170.375 169.086 167.601 177.749 176.662 176.908 175.795 175.993 
175.465 174.808 174.898 174.385 174.109 173.555 173.577 173.086 172.692 
172.661 171.97 172.118 171.572 171.224 171.244 171.428 170.339 170.826 
169.896 169.759 169.996 170.266 170.372 169.265 169.987 168.59 168.395 
168.757 169.118 169.173 169.129 168.797 169.452 168.048 167.577 167.658 
167.895 167.847 167.694 167.641 168.372 168.856 167.76 167.152 166.828 
166.736 166.533 166.247 166.114 166.103 164.6 164.522 162.974 164.506 
162.721 161.189 164.686 162.611 160.71 159.457 165.058 162.791 160.561 
158.937 158.11 165.447 163.242 160.907 159.046 157.811 157.109 165.925 
163.887 161.638 159.82 158.354 157.176 156.437 166.585 164.723 162.587 
160.863 159.46 158.095 156.987 156.361 167.229 165.578 163.644 161.948 
160.584 159.308 158.167 157.323 156.81 167.733 166.266 164.619 163.072 
161.694 160.437 159.381 158.562 157.898 157.4 163.687 162.101 163.131 
160.461 161.684 162.987 158.983 160.195 161.586 162.964 157.744 158.812 
160.125 161.6 163.046 156.689 157.577 158.794 160.274 161.903 163.452 
156.143 156.696 157.783 159.168 160.809 162.512 164.048 156.291 156.45 
157.283 158.48 159.916 161.565 163.2 164.614 156.804 156.703 157.246 
158.217 159.395 160.807 162.388 163.878 165.126 157.603 157.235 158.135 
158.04 159.13 157.425 159.196 160.314 158.427 158.154 160.445 161.446 
159.621 159.197 159.17 161.704 162.667 160.912 160.381 160.243 160.419 
163.001 163.943 162.25 161.699 161.458 161.596 161.938 164.234 165.114 
163.543 163.046 162.726 162.769 163.112 163.496 165.448 166.278 164.795 
164.369 164.037 163.91 164.158 164.544 164.85 166.746 167.495 166.116 
165.702 165.407 165.19 165.24 165.527 165.788 165.965 158.283 158.523 
159.297 159.716 160.484 159.236 161.124 161.795 160.636 160.366 162.537 
163.065 162.103 161.744 161.48 163.855 164.34 163.485 163.14 162.792 
162.608 165.227 165.726 164.868 164.594 164.272 164.002 163.921 166.663 
167.089 166.324 166.097 165.811 165.441 165.228 165.164 168.003 168.303 
167.741 167.553 167.3 166.845 166.455 166.342 166.319 169.187 169.387 
169.011 168.876 168.7 168.306 167.827 167.594 167.574 167.542 168.61 
167.239 168.305 166.854 168.099 165.72 166.75 168.03 165.504 164.306 
166.857 168.119 165.586 164.322 162.971 167.068 168.331 165.734 164.436 
163.049 161.62 167.301 168.528 165.897 164.508 163.187 161.784 160.466 
167.537 168.708 166.163 164.69 163.365 162.098 160.799 159.625 167.861 
168.991 166.572 165.122 163.735 162.489 161.224 160.001 158.915 169.765 
169.662 170.761 170.746 171.843 169.516 171.834 173 170.677 169.367 
173.005 174.1 171.811 170.565 169.27 174.162 175.032 173.055 171.785 
170.512 169.354 175.165 175.955 174.255 173.067 171.797 170.633 169.553 
176.116 176.982 175.273 174.237 173.033 171.898 170.812 169.716 177.072 
177.951 176.212 175.287 174.185 173.071 172.038 170.971 169.911 177.928 