# vtk DataFile Version 4.0
vtk output
ASCII
DATASET POLYDATA
POINTS 1002 float
-105.465 -122.017 78.5291 -106.185 -123.017 78.2151 -105.889 -122.467 77.452 
-105.013 -121.497 77.7036 -105.509 -121.826 76.6791 -104.608 -121.054 78.9145 
-104.605 -120.805 76.8935 -105.231 -120.956 75.9278 -104.123 -120.491 77.9947 
-103.767 -119.979 79.3953 -104.351 -119.804 76.1447 -105.021 -119.897 75.2002 
-103.782 -119.581 77.1147 -103.437 -119.067 78.4336 -103.18 -118.418 79.8599 
-104.063 -118.661 75.3325 -104.713 -118.782 74.4279 -103.425 -118.467 76.3165 
-103.07 -117.953 77.5452 -102.83 -117.32 78.9978 -102.644 -116.687 80.2009 
-103.629 -117.545 74.4159 -104.342 -117.672 73.6982 -102.916 -117.397 75.4059 
-102.416 -117.019 76.6665 -102.164 -116.478 78.1306 -101.919 -115.959 79.5135 
-101.837 -115.339 80.5189 -103.133 -116.511 73.5929 -104.026 -116.635 73.1137 
-102.381 -116.368 74.4332 -101.733 -116.144 75.6675 -101.348 -115.781 77.0872 
-101.122 -115.34 78.5845 -100.961 -114.788 79.9173 -101.03 -114.108 80.9251 
-102.667 -115.531 72.9118 -103.801 -115.584 72.6273 -101.844 -115.386 73.5646 
-101.238 -115.155 74.7174 -100.789 -114.838 76.035 -100.596 -114.391 77.4109 
-100.504 -113.837 78.9032 -100.458 -113.243 80.2547 -100.555 -112.7 81.3286 
-102.364 -114.422 72.3917 -103.647 -114.388 72.279 -101.385 -114.364 72.8298 
-100.824 -114.131 73.8639 -100.449 -113.764 75.1629 -100.276 -113.253 76.4117 
-100.297 -112.63 77.7761 -100.29 -112.054 79.2353 -100.249 -111.628 80.5369 
-100.289 -111.313 81.6294 -102.264 -113.188 72.1142 -103.495 -113.183 72.0906 
-101.205 -113.161 72.3479 -100.577 -112.975 73.1438 -100.215 -112.639 74.3495 
-100.008 -112.171 75.5779 -100.022 -111.573 76.8472 -100.092 -110.979 78.2434 
-100.062 -110.546 79.5869 -100.02 -110.267 80.784 -100.065 -110.04 81.8509 
-106.8 -123.604 77.408 -106.507 -123.044 76.5915 -107.559 -124.046 76.5213 
-107.217 -123.485 75.5722 -108.432 -124.235 75.588 -106.151 -122.296 75.7074 
-108.071 -123.634 74.5826 -109.423 -124.284 74.6649 -106.816 -122.727 74.5887 
-105.862 -121.337 74.8919 -109.207 -123.512 73.813 -110.533 -124.306 73.7783 
-107.704 -122.837 73.7329 -106.494 -121.761 73.8485 -105.604 -120.229 74.2041 
-110.508 -123.149 73.1439 -111.649 -123.977 73.0156 -108.992 -122.45 73.1828 
-107.486 -121.739 73.1396 -106.323 -120.508 73.2744 -105.355 -118.982 73.563 
-111.651 -122.568 72.4698 -112.659 -123.26 72.3746 -110.303 -121.86 72.5522 
-108.771 -121.251 72.5341 -107.394 -120.383 72.5004 -106.254 -119.08 72.7017 
-105.187 -117.735 73.0173 -112.59 -122.071 71.7739 -113.552 -122.722 71.6505 
-111.344 -121.446 71.7788 -109.863 -120.896 71.7291 -108.419 -120.19 71.6957 
-107.193 -119.103 71.819 -106.161 -117.803 72.2018 -105.086 -116.587 72.5715 
-113.429 -121.74 71.0298 -114.336 -122.434 70.8357 -112.258 -121.135 71.016 
-110.809 -120.698 70.8552 -109.289 -120.163 70.795 -107.921 -119.239 70.9248 
-106.86 -117.981 71.2713 -106.007 -116.612 71.8051 -104.971 -115.366 72.2128 
-114.169 -121.227 70.3737 -115.016 -121.928 70.178 -113.081 -120.61 70.3803 
-111.731 -120.254 70.1464 -110.261 -119.916 69.9661 -108.814 -119.217 70.0729 
-107.527 -118.119 70.4039 -106.575 -116.755 70.9312 -105.784 -115.304 71.5674 
-104.759 -114.065 72.0011 -115.134 -120.555 69.8762 -114.092 -119.871 69.9558 
-115.094 -119.002 69.6506 -113.771 -118.634 69.5158 -114.843 -117.959 69.2101 
-112.765 -119.515 69.7373 -113.276 -117.893 68.8135 -114.398 -117.269 68.3812 
-112.24 -118.597 69.087 -111.329 -119.336 69.3883 -112.694 -116.886 67.8416 
-113.688 -116.167 67.6166 -111.659 -117.623 68.3435 -110.905 -118.225 68.8188 
-109.96 -118.812 69.3472 -111.966 -115.222 67.267 -112.793 -114.83 67.6659 
-111.077 -115.943 67.6383 -110.494 -116.681 68.4588 -109.784 -117.292 69.1233 
-108.573 -117.842 69.7022 -111.285 -113.778 67.6885 -112.112 -113.719 68.4881 
-110.506 -114.12 67.5195 -110.031 -114.867 68.3209 -109.537 -115.627 69.2604 
-108.439 -116.206 69.7875 -107.237 -116.592 70.2621 -110.933 -112.729 68.7216 
-111.741 -112.604 69.426 -110.129 -112.858 68.204 -109.553 -113.327 68.5417 
-109.068 -114.048 69.4464 -108.128 -114.617 70.0819 -106.933 -114.912 70.4568 
-106.179 -115.087 70.9572 -110.699 -111.551 69.7327 -111.361 -111.385 70.2109 
-109.894 -111.671 69.255 -109.084 -111.899 69.2134 -108.392 -112.352 69.6844 
-107.539 -112.883 70.1767 -106.444 -113.234 70.5466 -105.624 -113.398 71.0365 
-105.202 -113.625 71.5869 -110.293 -110.281 70.5673 -110.834 -110.272 70.9276 
-109.534 -110.288 70.2358 -108.534 -110.333 70.1334 -107.566 -110.484 70.2824 
-106.732 -110.848 70.3864 -105.823 -111.385 70.4344 -104.969 -111.846 70.7872 
-104.439 -112.17 71.3999 -104.037 -112.58 71.8765 -102.582 -112.038 71.9218 
-103.061 -111.457 71.5848 -101.737 -110.812 71.6043 -103.526 -110.949 70.967 
-102.096 -110.223 70.9924 -101.032 -109.23 71.1688 -104.22 -110.234 70.5103 
-102.686 -109.425 70.4535 -101.331 -108.389 70.4425 -100.536 -107.208 70.8935 
-105.06 -109.373 70.6704 -103.606 -108.325 70.595 -102.193 -107.272 70.3139 
-101.029 -106.045 70.3869 -100.413 -105.163 71.0939 -105.837 -108.847 71.0492 
-104.459 -107.502 71.2514 -103.436 -106.318 70.8292 -102.304 -105.026 70.4842 
-101.274 -104.063 70.8564 -100.551 -103.47 71.663 -106.838 -108.759 71.0817 
-105.259 -107.323 71.6086 -104.422 -106.04 71.2865 -103.781 -104.652 70.6881 
-102.775 -103.523 70.8131 -101.651 -102.795 71.539 -100.696 -102.05 72.2505 
-108.126 -108.833 70.9807 -106.47 -107.428 71.5706 -105.312 -106.144 71.498 
-104.771 -104.745 70.9138 -104.128 -103.476 70.8118 -103.086 -102.598 71.4824 
-101.938 -101.739 72.2368 -101.015 -100.812 72.8327 -109.216 -108.963 71.1047 
-107.853 -107.572 71.5978 -106.526 -106.238 71.7661 -105.624 -104.839 71.5052 
-104.993 -103.487 71.314 -104.23 -102.494 71.7072 -103.283 -101.625 72.4067 
-102.351 -100.639 72.9963 -101.655 -99.8341 73.5856 -109.926 -109.133 71.41 
-108.907 -107.788 71.8216 -107.792 -106.37 72.0831 -106.746 -104.922 72.1608 
-105.906 -103.491 72.1494 -105.167 -102.348 72.3227 -104.388 -101.493 72.7961 
-103.585 -100.608 73.3595 -102.867 -99.7237 73.8858 -102.329 -99.1359 74.4822 
-101.481 -111.884 72.0162 -100.934 -110.298 71.9616 -100.691 -111.626 72.5076 
-100.502 -108.422 71.8616 -100.39 -109.754 72.7533 -100.2 -111.285 73.4983 
-100.176 -106.469 71.8621 -100.092 -107.811 72.8958 -99.9218 -109.323 73.7865 
-99.8546 -110.9 74.6787 -100.054 -104.557 72.1638 -99.8843 -105.898 73.0801 
-99.749 -107.32 74.0334 -99.6564 -108.915 74.969 -99.7516 -110.418 75.9789 
-99.9792 -102.65 72.6166 -99.7558 -103.792 73.4285 -99.7516 -105.215 74.457 
-99.7208 -106.792 75.4496 -99.6763 -108.471 76.5068 -99.8109 -109.886 77.4824 
-100.067 -101.025 73.1239 -99.6429 -101.764 73.8809 -99.6844 -103.049 74.9941 
-99.8239 -104.632 76.101 -99.777 -106.372 77.153 -99.6731 -108.073 78.1541 
-99.8015 -109.436 78.9405 -100.658 -99.9596 73.8497 -99.9509 -100.433 74.5535 
-99.69 -101.365 75.624 -99.7354 -102.733 76.7324 -99.8001 -104.357 77.7352 
-99.7042 -106.09 78.7099 -99.6262 -107.735 79.5565 -99.7702 -109.106 80.2119 
-101.519 -99.2813 74.7574 -100.763 -99.7272 75.4333 -100.182 -100.39 76.4181 
-99.8297 -101.351 77.41 -99.7341 -102.681 78.2655 -99.7609 -104.238 79.1376 
-99.7151 -105.867 80.0443 -99.6856 -107.443 80.8037 -99.82 -108.842 81.3842 
-102.403 -98.5972 75.5566 -101.76 -98.9489 76.1167 -102.398 -98.052 76.7341 
-101.871 -98.5549 77.5486 -102.476 -97.5755 78.0462 -101.109 -99.5716 77.0679 
-102.03 -98.3244 78.997 -102.964 -97.6267 79.6237 -101.311 -99.3168 78.6102 
-100.454 -100.28 78.0892 -102.554 -98.7031 80.4786 -103.694 -98.1947 81.1732 
-101.616 -99.3729 79.9673 -100.705 -100.192 79.5329 -99.9673 -101.301 78.9011 
-103.142 -99.3381 81.8003 -104.14 -98.7879 82.3834 -102.196 -99.9348 81.2045 
-101.195 -100.554 80.7727 -100.294 -101.48 80.2744 -99.8527 -102.75 79.6678 
-103.442 -99.8558 83.0376 -104.374 -99.4718 83.527 -102.683 -100.463 82.4283 
-101.826 -101.159 81.944 -100.835 -102.014 81.5761 -100.17 -103.065 81.1383 
-99.8903 -104.349 80.604 -103.76 -100.53 84.3789 -104.807 -100.398 84.7183 
-102.978 -100.952 83.8342 -102.321 -101.617 83.2434 -101.436 -102.491 82.7869 
-100.576 -103.474 82.4684 -100.1 -104.58 82.0935 -99.8419 -105.956 81.5082 
-104.336 -101.333 85.5685 -105.426 -101.259 85.6927 -103.371 -101.65 85.2451 
-102.698 -102.175 84.7031 -102.058 -102.884 84.042 -101.233 -103.777 83.501 
-100.513 -104.828 83.1854 -100.084 -106.11 82.8101 -99.862 -107.547 82.1596 
-105.025 -102.039 86.3975 -106.023 -101.923 86.4151 -103.958 -102.367 86.2894 
-103.091 -102.861 85.9817 -102.552 -103.449 85.3576 -102.056 -104.191 84.5272 
-101.386 -105.152 83.8996 -100.72 -106.347 83.5893 -100.266 -107.707 83.2242 
-100.067 -109 82.5945 -103.107 -98.9193 75.069 -103.038 -98.2897 76.1043 
-103.861 -99.053 75.7882 -103.906 -98.4454 76.7983 -104.946 -99.3157 76.4616 
-103.063 -97.6309 77.1924 -105.337 -98.6728 77.4348 -106.413 -99.2653 76.9282 
-104.292 -97.8392 77.8185 -103.479 -97.2637 78.5801 -106.941 -98.5046 77.8632 
-107.766 -99.2172 77.2663 -105.91 -98.1602 78.3413 -104.957 -97.716 79.1485 
-104.267 -97.5336 80.2621 -108.179 -98.543 78.2495 -108.801 -99.799 77.6468 
-107.267 -98.1847 78.7438 -106.264 -98.3363 79.4715 -105.536 -98.0811 80.6092 
-104.899 -98.0569 81.6805 -109.261 -99.3151 78.6896 -109.793 -100.691 78.0767 
-108.479 -98.4815 79.2551 -107.423 -98.7012 79.8793 -106.535 -98.7888 80.8038 
-105.92 -98.4264 81.8899 -105.196 -98.6485 82.8147 -110.438 -100.271 79.039 
-110.8 -101.398 78.4915 -109.906 -99.2521 79.7115 -109.048 -99.0582 80.5209 
-108.003 -99.2341 81.4164 -107.113 -99.0176 82.3346 -106.354 -99.0192 83.2155 
-105.555 -99.6324 84.0216 -111.525 -101.047 79.2925 -111.688 -102.042 78.8571 
-111.221 -100.098 79.9432 -110.719 -99.5832 80.9689 -109.927 -99.5006 82.1591 
-108.886 -99.4235 83.15 -107.836 -99.5379 83.8691 -106.913 -100.104 84.4942 
-106.11 -100.749 85.1215 -112.386 -101.8 79.5619 -112.439 -102.766 79.1533 
-112.135 -100.947 80.1544 -111.756 -100.344 81.1755 -111.298 -99.9863 82.5141 
[...]
CELL_DATA 2000
SCALARS Distance double
LOOKUP_TABLE default
178.733 177.782 178.084 177.725 176.736 177.071 176.686 177.038 176.7 
175.604 175.971 175.545 175.925 175.528 175.951 175.577 174.363 174.768 
174.289 174.7 174.233 174.682 174.265 174.737 174.316 173.041 173.442 
172.912 173.354 172.852 173.321 172.893 173.389 173.013 173.468 173.065 
171.783 172.094 171.513 171.931 171.42 171.899 171.474 171.999 171.656 
172.174 171.834 172.27 171.905 170.641 170.853 170.199 170.549 170.029 
170.483 170.058 170.57 170.213 170.774 170.45 170.992 170.655 171.131 
170.812 169.558 169.707 168.977 169.257 168.711 169.133 168.725 169.196 
168.831 169.336 169.009 169.562 169.264 169.814 169.532 170.054 169.816 
168.547 168.638 167.881 168.07 167.495 167.856 167.457 167.904 167.557 
168.013 167.693 168.185 167.925 168.451 168.228 168.759 168.559 169.094 
168.922 179.195 179.588 179.032 178.268 179.897 179.384 178.591 178.032 
177.21 180.131 179.634 178.829 178.299 177.444 176.915 176.074 180.416 
179.878 179.075 178.524 177.68 177.131 176.266 175.739 174.864 180.664 
180.171 179.356 178.799 177.956 177.388 176.517 175.944 175.045 174.493 
173.59 180.686 180.322 179.506 179.032 178.166 177.647 176.761 176.199 
175.287 174.705 173.813 173.25 172.39 180.603 180.284 179.524 179.109 
178.265 177.795 176.917 176.402 175.498 174.944 174.07 173.52 172.704 
172.137 171.318 180.567 180.244 179.535 179.134 178.335 177.881 177.037 
176.543 175.663 175.132 174.257 173.748 172.944 172.449 171.661 171.098 
170.272 180.459 180.194 179.463 179.127 178.323 177.931 177.104 176.663 
175.814 175.306 174.43 173.912 173.077 172.618 171.838 171.376 170.579 
170.038 169.234 180.083 179.009 179.401 179.045 177.887 178.246 177.878 
178.284 177.899 176.831 177.146 176.717 177.09 176.715 177.117 176.713 
175.512 175.959 175.448 175.893 175.467 175.916 175.52 175.915 175.456 
173.942 174.396 173.791 174.396 173.964 174.589 174.223 174.704 174.248 
174.604 174.086 172.77 172.91 172.244 172.671 172.317 173.004 172.821 
173.414 173.053 173.405 172.872 173.195 172.705 172.121 172.049 171.399 
171.454 171.097 171.534 171.468 172.068 171.847 172.239 171.698 171.978 
171.419 171.823 171.415 171.513 171.512 170.891 170.848 170.338 170.532 
170.25 170.749 170.447 170.945 170.365 170.726 170.067 170.481 169.994 
170.524 170.151 170.772 170.855 170.23 170.266 169.594 169.708 169.095 
169.443 168.877 169.381 168.733 169.22 168.54 169.027 168.496 169.049 
168.659 169.23 168.854 167.948 167.739 167.404 166.504 167.511 167.145 
166.176 165.87 164.903 167.412 166.914 165.862 165.489 164.399 164.118 
163.12 167.513 166.871 165.762 165.249 164.152 163.673 162.581 162.308 
161.509 167.763 167.049 165.967 165.322 164.342 163.684 162.682 162.057 
161.249 160.974 160.506 168.195 167.43 166.447 165.699 164.83 164.119 
163.283 162.504 161.763 161.134 160.674 160.322 159.978 168.84 168.054 
167.192 166.349 165.525 164.754 164 163.241 162.564 161.866 161.398 
160.836 160.492 159.987 159.628 169.544 168.826 168.075 167.226 166.443 
165.584 164.844 164.031 163.373 162.665 162.19 161.62 161.285 160.719 
160.378 159.793 159.539 170.146 169.543 168.888 168.137 167.419 166.573 
165.856 164.986 164.329 163.529 163.027 162.395 162.066 161.526 161.241 
160.66 160.4 159.864 159.776 167.756 166.339 167.048 167.081 164.822 
165.624 165.723 166.471 166.696 163.163 164.079 164.295 165.136 165.431 
166.242 166.642 161.64 162.483 162.817 163.712 164.076 164.953 165.384 
166.261 166.729 160.552 161.152 161.496 162.32 162.741 163.602 164.066 
164.97 165.506 166.387 166.896 159.759 160.148 160.317 161.065 161.49 
162.342 162.861 163.723 164.335 165.214 165.841 166.642 167.18 159.219 
159.359 159.326 159.896 160.282 161.129 161.732 162.612 163.281 164.142 
164.828 165.648 166.261 166.991 167.513 159.17 159.015 158.977 159.149 
159.528 160.093 160.76 161.553 162.282 163.131 163.827 164.664 165.305 
166.083 166.65 167.35 167.865 159.533 159.253 159.329 159.209 159.599 
159.748 160.364 160.811 161.515 162.192 162.897 163.684 164.355 165.141 
165.761 166.493 167.062 167.734 168.256 159.742 160.083 159.838 159.706 
160.457 160.277 160.369 160.042 160.057 161.176 160.797 160.997 160.748 
160.892 160.528 160.687 162.494 161.814 161.94 161.501 161.693 161.333 
161.511 161.228 161.609 163.895 163.232 163.274 162.662 162.803 162.274 
162.483 162.08 162.457 162.268 162.879 165.054 164.483 164.523 163.977 
164.097 163.535 163.741 163.219 163.588 163.229 163.799 163.638 164.328 
166.329 165.656 165.715 165.153 165.311 164.802 165.019 164.52 164.829 
164.419 164.889 164.628 165.229 165.09 165.738 167.748 167.036 167.079 
166.431 166.599 166.041 166.28 165.768 166.032 165.592 165.956 165.663 
166.172 165.999 166.59 166.467 167.059 169.013 168.404 168.424 167.812 
167.934 167.37 167.587 167.055 167.308 166.798 167.107 166.705 167.153 
166.914 167.477 167.326 167.902 167.758 168.283 160.053 160.722 160.283 
160.217 161.738 161.067 160.83 160.42 160.465 162.957 162.234 162.011 
161.278 161.234 160.831 161.201 164.049 163.443 163.336 162.627 162.628 
161.968 162.295 161.931 162.586 165.122 164.494 164.413 163.862 163.938 
163.413 163.682 163.225 163.693 163.417 163.989 166.439 165.688 165.61 
164.962 165.088 164.616 164.909 164.5 164.836 164.487 164.89 164.667 
165.144 167.824 167.106 167.101 166.356 166.549 165.929 166.32 165.773 
166.166 165.639 166.042 165.641 166.156 165.881 166.465 169.058 168.461 
168.522 167.88 168.11 167.524 167.968 167.384 167.846 167.176 167.602 
166.994 167.522 167.084 167.693 167.348 167.925 170.169 169.65 169.732 
169.201 169.408 168.959 169.363 168.958 169.406 168.879 169.251 168.644 
169.056 168.542 169.041 168.63 169.112 168.752 169.185 170.258 170.084 
169.81 169.043 169.856 169.589 168.761 168.49 167.617 169.563 169.291 
168.422 168.16 167.273 167.001 166.086 169.419 169.043 168.195 167.847 
166.981 166.669 165.785 165.474 164.587 169.487 169.037 168.229 167.762 
166.909 166.476 165.613 165.233 164.384 164.049 163.289 169.571 169.149 
168.359 167.889 167.034 166.52 165.629 165.155 164.317 163.926 163.197 
162.894 162.304 169.676 169.241 168.5 168.04 167.246 166.71 165.847 
165.28 164.466 163.978 163.29 162.899 162.312 162.018 161.496 169.918 
169.435 168.762 168.262 167.552 166.995 166.217 165.605 164.856 164.284 
163.655 163.149 162.581 162.133 161.584 161.239 160.724 170.218 169.748 
169.108 168.605 167.917 167.364 166.605 166.014 165.281 164.735 164.13 
163.622 163.055 162.52 161.925 161.436 160.904 160.536 160.124 170.932 
171.886 171.21 170.81 172.911 172.206 171.846 171.125 170.667 174.027 
173.276 172.913 172.187 171.754 170.955 170.417 175.19 174.418 174.015 
173.261 172.82 172.04 171.532 170.708 170.23 176.314 175.568 175.151 
174.37 173.912 173.115 172.639 171.836 171.403 170.621 170.26 177.366 
176.664 176.282 175.514 175.078 174.256 173.8 172.979 172.58 171.807 
171.46 170.696 170.345 178.346 177.696 177.342 176.629 176.236 175.451 
175.017 174.186 173.771 172.985 172.635 171.883 171.537 170.764 170.425 
179.214 178.637 178.294 177.649 177.279 176.578 176.182 175.406 174.987 
174.183 173.8 173.037 172.701 171.952 171.633 170.88 170.613 179.957 
179.454 179.141 178.558 178.207 177.573 177.214 176.525 176.154 175.393 
175.01 174.221 173.867 173.11 172.804 172.076 171.808 171.099 170.873 
180.257 180.477 180.077 179.465 180.696 180.297 179.662 179.229 178.554 
180.903 180.511 179.878 179.428 178.715 178.275 177.57 181.134 180.72 
180.073 179.623 178.886 178.428 177.686 177.268 176.542 181.343 180.938 
180.251 179.8 179.041 178.577 177.814 177.382 176.628 176.206 175.434 
181.417 181.069 180.36 179.948 179.171 178.715 177.921 177.483 176.692 
176.269 175.459 175.046 174.268 181.414 181.074 180.367 180.002 179.235 
178.817 177.996 177.556 176.711 176.285 175.438 175.035 174.233 173.879 
173.172 181.421 181.069 180.357 179.994 179.251 178.857 178.059 177.616 
176.765 176.3 175.441 175.006 174.203 173.833 173.122 172.816 172.179 
181.314 181.038 180.32 179.991 179.264 178.887 178.131 177.697 176.897 
176.408 175.586 175.084 174.289 173.843 173.118 172.767 172.116 171.836 
171.238 180.898 179.862 180.267 179.966 178.73 179.193 178.945 179.313 
178.941 177.529 178.003 177.734 178.214 177.883 178.242 177.809 176.348 
176.766 176.442 176.936 176.63 177.098 176.707 177.06 176.582 175.225 
175.609 175.243 175.657 175.313 175.792 175.436 175.884 175.44 175.785 
175.279 173.958 174.434 174.031 174.456 174.019 174.462 174.043 174.538 
174.107 174.56 174.064 174.437 173.95 172.495 173.041 172.627 173.141 
172.68 173.132 172.659 173.126 172.678 173.163 172.69 173.138 172.662 
173.101 172.715 171.098 171.575 171.19 171.696 171.294 171.763 171.346 
171.789 171.391 171.813 171.386 171.779 171.333 171.768 171.41 171.918 
171.67 169.919 170.291 169.916 170.339 169.946 170.396 170.005 170.486 
170.145 170.607 170.241 170.599 170.169 170.511 170.153 170.617 170.403 
170.948 170.796 181.277 181.349 180.931 180.146 181.369 180.937 180.143 
179.77 179.023 181.544 181.055 180.338 179.858 179.148 178.686 177.92 
181.772 181.355 180.727 180.2 179.486 178.913 178.097 177.566 176.757 
181.665 181.498 180.883 180.529 179.701 179.185 178.201 177.686 176.751 
176.354 175.561 181.116 181.151 180.51 180.408 179.496 179.143 177.995 
177.569 176.507 176.204 175.338 175.091 174.28 180.433 180.467 179.82 
179.828 178.991 178.761 177.658 177.244 176.177 175.866 175.024 174.798 
173.984 173.712 172.844 179.882 179.823 179.179 179.142 178.424 178.267 
177.365 176.986 176.022 175.626 174.817 174.527 173.758 173.441 172.574 
172.249 171.424 179.453 179.351 178.719 178.605 177.936 177.793 177.043 
176.773 175.926 175.553 174.716 174.376 173.572 173.245 172.383 172.03 
171.185 170.903 170.207 182.012 183.233 182.534 182.217 184.338 183.788 
183.576 182.704 182.267 185.278 184.86 184.798 184.064 183.656 182.73 
182.322 186.226 185.83 185.855 185.241 184.913 184.062 183.563 182.748 
182.388 187.025 186.761 186.798 186.288 185.99 185.229 184.686 183.871 
183.334 182.665 182.216 187.259 187.261 187.225 187.026 186.698 186.172 
185.577 184.851 184.195 183.491 182.884 182.278 181.692 187.057 187.141 
186.94 187.02 186.654 186.531 185.944 185.516 184.808 184.212 183.524 
182.9 182.252 181.65 181.039 186.861 186.834 186.516 186.537 186.156 
186.192 185.726 185.602 184.999 184.634 183.96 183.447 182.789 182.217 
181.602 181.026 180.477 186.769 186.688 186.391 186.245 185.895 185.784 
185.444 185.35 184.951 184.724 184.187 183.789 183.178 182.691 182.091 
181.573 181.016 180.497 180.003 186.652 186.43 186.484 186.303 186.13 
186.221 186.011 186.039 185.777 185.623 185.785 185.548 185.685 185.429 
185.493 185.271 184.908 185.125 184.827 185.089 184.884 185.087 184.866 
184.986 184.759 184.02 184.315 183.987 184.282 184.065 184.404 184.21 
184.469 184.178 184.349 184.003 183.01 183.402 183.159 183.448 183.179 
183.5 183.257 183.628 183.332 183.623 183.221 183.431 183.004 181.971 
182.427 182.294 182.633 182.347 182.603 182.262 182.594 182.299 182.664 
182.317 182.582 182.157 182.369 181.943 180.908 181.4 181.272 181.709 
181.418 181.717 181.309 181.599 181.28 181.648 181.377 181.68 181.306 
181.517 181.091 181.305 180.897 179.806 180.294 180.113 180.598 180.304 
180.685 180.278 180.603 180.264 180.652 180.41 180.767 180.429 180.664 
180.225 180.44 180.029 180.271 179.898 179.122 178.135 178.882 179.384 
177.133 177.88 178.341 179.098 179.532 176.044 176.851 177.29 178.034 
178.421 179.162 179.527 174.767 175.656 176.106 176.935 177.324 178.067 
178.46 179.178 179.59 173.449 174.303 174.735 175.649 176.085 176.932 
177.347 178.132 178.581 179.321 179.753 172.268 173.017 173.414 174.277 
174.757 175.65 176.106 176.956 177.369 178.209 178.6 179.403 179.722 
171.218 171.9 172.283 173.048 173.536 174.382 174.89 175.72 176.142 
176.941 177.299 178.118 178.443 179.243 179.511 170.259 170.903 171.285 
171.983 172.431 173.22 173.719 174.543 175.006 175.774 176.165 176.891 
177.258 177.991 178.343 179.063 179.365 169.369 169.985 170.354 171.011 
171.408 172.131 172.567 173.367 173.823 174.638 175.072 175.831 176.233 
176.934 177.319 177.995 178.347 178.998 179.288 179.021 178.094 178.478 
178.277 177.067 177.49 177.262 177.665 177.437 175.94 176.39 176.109 
176.558 176.278 176.754 176.503 174.709 175.175 174.829 175.314 174.975 
175.49 175.191 175.727 175.42 173.425 173.876 173.494 173.981 173.606 
174.115 173.736 174.296 173.946 174.533 174.202 172.181 172.582 172.177 
172.637 172.249 172.731 172.287 172.783 172.325 172.927 172.563 173.25 
172.96 171.032 171.369 170.906 171.312 170.862 171.339 170.866 171.333 
170.819 171.315 170.887 171.531 171.244 171.985 171.736 169.971 170.251 
169.719 170.037 169.478 169.897 169.376 169.868 169.387 169.872 169.456 
169.974 169.682 170.307 170.106 170.793 170.596 168.982 169.213 168.659 
168.885 168.278 168.555 167.993 168.395 167.957 168.457 168.117 168.631 
168.353 168.886 168.685 169.279 169.142 169.771 169.664 181.092 181.194 
181.454 182.055 181.262 181.529 182.194 182.46 183.166 181.397 181.654 
182.339 182.612 183.401 183.69 184.482 181.402 181.772 182.437 182.747 
183.476 183.858 184.682 185.018 185.684 181.165 181.657 182.347 182.758 
183.427 183.836 184.571 185.037 185.7 186.012 186.358 180.871 181.365 
182.106 182.596 183.35 183.771 184.5 184.891 185.526 185.87 186.233 
186.409 186.485 180.589 181.066 181.755 182.3 183.087 183.647 184.436 
184.866 185.484 185.754 186.118 186.255 186.371 186.425 186.457 180.246 
180.734 181.325 181.869 182.532 183.205 183.926 184.596 185.167 185.625 
185.934 186.159 186.285 186.361 186.42 186.461 186.566 179.849 180.343 
180.914 181.408 181.973 182.553 183.134 183.835 184.328 184.99 185.275 
185.761 185.893 186.191 186.267 186.42 186.492 186.597 186.703 181.137 
182.144 181.588 181.442 183.256 182.638 182.516 181.875 181.684 184.546 
183.844 183.695 182.984 182.79 182.13 181.949 185.734 185.131 184.954 
184.219 184.007 183.289 183.09 182.41 182.158 186.418 186.122 185.997 
185.432 185.234 184.543 184.316 183.581 183.243 182.5 182.047 186.571 
186.555 186.588 186.327 186.254 185.726 185.5 184.781 184.34 183.537 
182.947 182.199 181.636 186.573 186.627 186.817 186.794 186.909 186.629 
186.478 185.878 185.39 184.571 183.879 183.057 182.407 181.734 181.256 
186.702 186.713 186.946 186.996 187.176 187.111 187.009 186.656 186.186 
185.521 184.813 183.99 183.288 182.527 181.994 181.396 181.016 186.856 
186.886 187.068 187.116 187.205 187.215 187.042 186.902 186.432 186.07 
185.416 184.825 184.132 183.418 182.815 182.152 181.692 181.154 180.786 
180.495 180.753 180.256 179.453 181.011 180.513 179.74 179.177 178.373 
181.299 180.808 180.077 179.507 178.707 178.136 177.336 181.466 181.068 
180.321 179.821 178.96 178.416 177.519 177.009 176.059 181.318 181.079 
180.294 179.933 179.014 178.54 177.55 177.073 176.108 175.603 174.603 
180.97 180.804 180.059 179.788 178.93 178.516 177.572 177.079 176.182 
175.688 174.866 174.285 173.485 180.688 180.499 179.853 179.58 178.847 
178.47 177.674 177.19 176.391 175.875 175.147 174.631 173.947 173.382 
172.739 180.497 180.308 179.728 179.461 178.798 178.458 177.752 177.345 
176.61 176.14 175.394 174.916 174.2 173.746 173.072 172.63 172.013 
180.283 180.132 179.567 179.351 178.708 178.422 177.729 177.4 176.685 
176.302 175.553 175.115 174.362 173.924 173.224 172.825 172.191 171.822 
171.239 182.017 182.13 182.45 183.144 182.094 182.458 183.137 183.503 
184.142 182.085 182.422 183.087 183.438 184.085 184.424 185.038 181.993 
182.386 183.072 183.436 184.116 184.414 185.061 185.345 185.982 181.721 
182.174 182.834 183.339 184.038 184.452 185.072 185.384 185.959 186.273 
186.782 181.452 181.856 182.457 182.982 183.654 184.206 184.786 185.238 
185.703 186.113 186.534 186.889 187.129 181.263 181.626 182.228 182.655 
183.327 183.801 184.401 184.834 185.305 185.722 186.154 186.556 186.878 
187.096 187.142 181.046 181.433 182.036 182.467 183.156 183.588 184.255 
184.594 185.162 185.442 185.974 186.27 186.723 186.93 187.132 187.126 
187.068 180.783 181.172 181.714 182.191 182.831 183.366 184.063 184.52 
185.18 185.484 186.083 186.294 186.784 186.917 187.166 187.174 187.164 
187.064 186.937 
POINT_DATA 1002
SCALARS Distance double
LOOKUP_TABLE default
178.382 179.35 178.47 177.402 177.475 177.394 176.338 176.395 176.322 
176.387 175.182 175.238 175.117 175.148 175.2 173.885 173.967 173.801 
173.785 173.868 173.882 172.475 172.682 172.378 172.379 172.52 172.656 
172.658 171.126 171.542 170.941 170.944 171.102 171.35 171.5 171.559 
169.892 170.491 169.581 169.566 169.668 169.872 170.13 170.338 170.543 
168.74 169.446 168.3 168.255 168.357 168.471 168.688 168.978 169.285 
169.622 167.731 168.466 167.173 167.016 167.103 167.214 167.4 167.691 
168.018 168.378 168.769 179.766 178.861 180.141 179.153 180.399 177.762 
179.353 180.645 177.984 176.59 179.637 180.969 178.236 176.821 175.39 
179.908 181.118 178.525 177.11 175.624 174.123 179.944 180.998 178.668 
177.309 175.867 174.373 172.947 179.913 180.903 178.719 177.412 176.033 
174.596 173.244 171.923 179.92 180.88 178.774 177.514 176.187 174.77 
173.408 172.182 170.881 179.784 180.714 178.687 177.509 176.292 174.964 
173.559 172.266 171.068 169.791 179.754 178.666 178.609 177.467 177.587 
177.502 176.385 176.525 176.302 176.341 174.968 175.045 174.994 175.105 
175.115 173.177 173.605 173.229 173.671 173.894 173.738 171.95 172.758 
171.609 172.116 172.681 172.589 172.292 171.444 172.164 170.806 170.881 
171.411 171.454 171.057 170.913 170.932 171.446 170.3 169.913 169.962 
169.974 169.673 169.475 169.596 170.191 170.683 169.571 168.917 168.46 
168.214 168.015 167.935 168.079 168.305 167.073 166.835 165.604 166.522 
165.171 163.936 166.288 164.777 163.251 162.178 166.315 164.687 162.996 
161.502 160.853 166.622 164.967 163.375 161.679 160.574 160.097 167.213 
165.51 164.016 162.461 161.155 160.3 159.543 168.039 166.329 164.738 
163.248 161.985 161.058 160.122 159.224 168.874 167.316 165.687 164.108 
162.764 161.822 160.981 160.036 159.361 169.567 168.226 166.719 165.164 
163.718 162.603 161.779 160.968 160.2 159.769 166.341 164.928 165.903 
163.378 164.582 165.813 161.896 163.181 164.47 165.873 160.712 161.887 
163.16 164.573 166.079 159.643 160.604 161.986 163.443 164.996 166.454 
158.896 159.447 160.803 162.414 163.994 165.501 166.834 158.931 159.111 
160.035 161.448 162.992 164.503 165.918 167.203 159.473 159.59 160.104 
160.958 162.144 163.562 165.006 166.364 167.624 159.987 160.059 160.207 
160.57 160.597 160.484 161.23 161.704 161.196 161.003 162.513 163.268 
162.082 161.805 161.729 163.917 164.503 163.393 162.938 162.71 162.936 
165.032 165.63 164.623 164.277 164.013 164.045 164.42 166.309 167.052 
165.805 165.509 165.275 165.203 165.422 165.849 167.75 168.444 167.182 
166.813 166.523 166.303 166.367 166.731 167.194 169.02 169.578 168.506 
168.118 167.833 167.571 167.449 167.646 168.057 168.459 160.405 160.461 
161.304 161.438 162.474 160.594 162.794 163.607 161.804 161.306 163.931 
164.613 163.286 162.796 162.788 164.941 165.813 164.37 164.16 164.093 
164.199 166.313 167.194 165.577 165.32 165.248 165.171 165.301 167.814 
168.467 167.18 166.892 166.752 166.502 166.454 166.714 169.105 169.603 
168.649 168.504 168.513 168.279 168.028 168.087 168.279 170.243 170.665 
169.849 169.728 169.86 169.849 169.629 169.514 169.525 169.533 170.526 
169.339 170.391 169.04 170.141 167.908 168.694 169.858 167.536 166.379 
168.581 169.821 167.313 166.097 164.882 168.714 169.93 167.394 166.022 
164.724 163.549 168.805 169.98 167.562 166.148 164.721 163.51 162.534 
168.94 170.112 167.756 166.422 164.975 163.706 162.658 161.746 169.257 
170.388 168.091 166.811 165.421 164.176 163.088 162.001 161.007 171.591 
171.515 172.555 172.553 173.627 171.473 173.652 174.805 172.539 171.256 
174.8 175.97 173.595 172.329 171.014 175.938 177.037 174.719 173.425 
172.168 171.031 177.023 178.042 175.889 174.628 173.35 172.225 171.129 
178.028 178.973 176.981 175.841 174.585 173.383 172.299 171.187 178.916 
179.759 177.944 176.914 175.795 174.587 173.434 172.373 171.343 179.692 