# vtk DataFile Version 4.0
vtk output
ASCII
DATASET POLYDATA
POINTS 1002 float
-103.414 -121.059 75.8654 -104.096 -121.899 75.6644 -104.103 -121.245 74.886 
-103.455 -120.157 75.1152 -104.057 -120.443 74.2197 -102.906 -119.739 76.1288 
-103.445 -119.043 74.445 -104.003 -119.386 73.6482 -102.946 -118.575 75.3934 
-102.579 -117.849 76.5413 -103.358 -117.802 73.7767 -103.926 -118.176 72.9314 
-102.86 -117.333 74.6639 -102.379 -116.742 75.7817 -102.019 -116.006 77.0294 
-103.126 -116.658 72.952 -103.75 -117.088 72.0741 -102.549 -116.195 73.8903 
-101.921 -115.766 74.9444 -101.376 -115.28 76.1858 -100.965 -114.775 77.5015 
-102.729 -115.662 72.0631 -103.521 -116.043 71.3788 -102.029 -115.218 72.9981 
-101.307 -114.841 74.0843 -100.626 -114.54 75.2482 -100.208 -114.154 76.5527 
-99.9035 -113.754 77.9794 -102.254 -114.618 71.281 -103.282 -114.861 70.8451 
-101.417 -114.285 72.0446 -100.762 -113.875 73.1689 -100.096 -113.552 74.3666 
-99.6376 -113.225 75.5921 -99.4556 -112.803 76.9749 -99.291 -112.395 78.4242 
-101.819 -113.54 70.5932 -103.024 -113.713 70.3126 -100.853 -113.312 71.187 
-100.323 -112.884 72.242 -99.8575 -112.421 73.4815 -99.3728 -112.028 74.7115 
-99.1665 -111.611 76.0342 -99.0981 -111.188 77.4429 -99.0055 -110.806 78.7656 
-101.558 -112.499 70.0506 -102.817 -112.688 69.9118 -100.518 -112.274 70.5265 
-100.014 -111.814 71.4817 -99.724 -111.229 72.6461 -99.2825 -110.737 73.8096 
-99.0059 -110.309 75.0949 -98.9867 -109.907 76.5035 -98.9296 -109.554 77.8598 
-98.8709 -109.215 79.042 -101.516 -111.35 69.7744 -102.729 -111.602 69.7851 
-100.477 -111.074 70.0953 -99.93 -110.568 70.9256 -99.6915 -109.897 71.9958 
-99.2891 -109.335 73.0141 -98.9273 -108.915 74.137 -98.9437 -108.536 75.4961 
-99.0112 -108.221 76.9127 -98.9058 -107.949 78.2054 -98.8557 -107.675 79.3023 
-104.829 -122.327 74.8744 -104.784 -121.722 74.0665 -105.534 -122.939 73.9608 
-105.539 -122.244 73.2069 -106.337 -123.507 73.1465 -104.757 -120.916 73.4707 
-106.47 -122.603 72.4273 -107.37 -123.793 72.4215 -105.677 -121.253 72.693 
-104.779 -119.765 72.9066 -107.458 -122.866 71.5476 -108.462 -123.92 71.5075 
-106.676 -121.489 71.888 -105.77 -120.01 72.1067 -104.69 -118.536 72.0878 
-108.445 -123.066 70.5333 -109.528 -123.864 70.5733 -107.589 -121.786 70.9548 
-106.733 -120.284 71.3031 -105.582 -118.881 71.2613 -104.491 -117.48 71.2711 
-109.695 -122.826 69.85 -110.741 -123.436 69.9408 -108.722 -121.8 70.1465 
-107.777 -120.442 70.5309 -106.578 -119.154 70.5448 -105.357 -117.85 70.5373 
-104.376 -116.313 70.7654 -111.09 -122.232 69.4657 -111.975 -122.883 69.342 
-110.143 -121.307 69.6976 -109.096 -120.171 69.8975 -107.831 -119.106 69.907 
-106.466 -118.027 69.8887 -105.339 -116.58 70.1143 -104.302 -114.978 70.3552 
-112.169 -121.77 68.8736 -112.935 -122.482 68.5435 -111.323 -120.789 69.2207 
-110.285 -119.757 69.2878 -109.054 -118.881 69.2163 -107.744 -117.994 69.2813 
-106.516 -116.748 69.5089 -105.387 -115.202 69.8011 -104.166 -113.775 69.9627 
-112.895 -121.449 68.1014 -113.632 -122.107 67.8 -112.103 -120.477 68.4979 
-111.1 -119.503 68.5539 -109.901 -118.756 68.3981 -108.749 -117.97 68.5452 
-107.714 -116.817 68.9537 -106.619 -115.393 69.3264 -105.369 -113.964 69.6293 
-104.025 -112.692 69.7992 -113.831 -121.204 67.3944 -113.038 -120.345 67.7133 
-114.167 -119.926 67.209 -113.275 -119.007 67.4054 -114.509 -118.508 67.0751 
-112.071 -119.361 67.8624 -113.395 -117.693 67.1544 -114.49 -117.145 66.8633 
-112.034 -118.215 67.2544 -110.788 -118.622 67.6401 -113.057 -116.275 66.9114 
-114.064 -115.62 66.7248 -111.799 -116.85 66.8799 -110.454 -117.483 66.9975 
-109.487 -117.891 67.6587 -112.486 -114.486 66.8127 -113.52 -113.946 66.9702 
-111.254 -115.009 66.6603 -110.021 -115.633 66.7162 -109.162 -116.293 67.3241 
-108.544 -116.687 68.2362 -112.101 -112.767 67.1965 -112.989 -112.554 67.6724 
-110.883 -113.112 66.7926 -109.599 -113.589 66.711 -108.806 -114.19 67.2334 
-108.373 -114.793 68.1449 -107.66 -115.208 68.881 -111.839 -111.55 68.0548 
-112.499 -111.466 68.5659 -110.869 -111.759 67.567 -109.568 -112.13 67.331 
-108.515 -112.536 67.5784 -107.984 -112.964 68.2675 -107.39 -113.423 68.9729 
-106.41 -113.78 69.3803 -111.489 -110.486 68.9656 -112.068 -110.333 69.3602 
-110.76 -110.693 68.6135 -109.677 -111.009 68.443 -108.445 -111.279 68.4987 
-107.513 -111.432 68.7793 -106.798 -111.648 69.2394 -105.923 -112.005 69.6192 
-104.925 -112.38 69.754 -111.045 -109.2 69.6414 -111.641 -109.059 69.9666 
-110.358 -109.379 69.3958 -109.463 -109.609 69.3432 -108.327 -109.771 69.3997 
-107.167 -109.781 69.398 -106.181 -109.786 69.4724 -105.294 -109.997 69.7329 
-104.392 -110.452 69.9155 -103.512 -111.033 69.8715 -102.008 -110.03 69.7408 
-102.824 -109.141 69.8333 -101.468 -108.09 69.6843 -103.718 -108.397 69.7684 
-102.343 -107.135 69.6031 -101.195 -106.126 69.6843 -104.653 -107.97 69.5275 
-103.318 -106.521 69.362 -102.191 -105.391 69.4532 -101.18 -104.259 69.8242 
-105.698 -107.817 69.5012 -104.337 -106.167 69.1795 -103.27 -104.947 69.1804 
-102.27 -103.612 69.5619 -101.274 -102.306 69.9849 -106.892 -107.814 69.7374 
-105.487 -105.873 69.3999 -104.35 -104.475 69.122 -103.37 -103.071 69.336 
-102.365 -101.58 69.738 -101.392 -100.527 70.1989 -108.091 -107.831 69.8244 
-106.723 -105.728 69.7484 -105.568 -104.009 69.4135 -104.527 -102.52 69.3625 
-103.518 -101.028 69.6325 -102.546 -99.9232 70.081 -101.652 -99.2972 70.7203 
-109.148 -107.771 69.7825 -107.885 -105.765 69.8984 -106.82 -103.898 69.7874 
-105.831 -102.291 69.7303 -104.801 -100.785 69.8808 -103.846 -99.6285 70.2309 
-102.95 -98.9057 70.7834 -102.1 -98.4019 71.4884 -110.039 -107.698 69.919 
-108.93 -105.87 70.061 -107.938 -104.086 70.1241 -107.028 -102.515 70.2388 
-106.054 -101.019 70.4478 -105.122 -99.7414 70.7221 -104.284 -98.835 71.1119 
-103.43 -98.1281 71.6554 -102.605 -97.5808 72.3011 -110.771 -107.693 70.2425 
-109.814 -106.055 70.41 -108.905 -104.393 70.527 -108.032 -102.908 70.72 
-107.097 -101.495 71.0217 -106.196 -100.152 71.3295 -105.425 -99.0672 71.6246 
-104.659 -98.188 72.0184 -103.837 -97.4288 72.5443 -103.083 -96.9181 73.1473 
-100.868 -109.67 69.7805 -100.499 -107.557 69.9221 -100.105 -109.167 70.3386 
-100.357 -105.396 70.1415 -99.9686 -106.872 70.6737 -99.8 -108.441 71.3436 
-100.358 -103.324 70.337 -99.8726 -104.661 70.9291 -99.6792 -106.162 71.6851 
-99.4531 -107.772 72.3672 -100.431 -101.361 70.5229 -99.8032 -102.614 71.1203 
-99.4973 -104.095 71.9545 -99.2164 -105.665 72.7299 -98.9745 -107.329 73.391 
-100.611 -99.8257 70.97 -99.8624 -100.765 71.4821 -99.4042 -102.128 72.3005 
-99.0912 -103.68 73.1885 -98.9301 -105.289 73.9304 -98.9202 -106.959 74.6748 
-100.981 -98.7575 71.714 -100.128 -99.3803 72.1565 -99.5437 -100.367 72.8527 
-99.0985 -101.737 73.7199 -98.9429 -103.295 74.5547 -99.0733 -104.939 75.3373 
-99.1214 -106.643 76.1533 -101.506 -97.863 72.5153 -100.579 -98.4177 72.9623 
-99.9148 -99.1366 73.6113 -99.3383 -100.118 74.3848 -98.9319 -101.466 75.2075 
-98.9631 -103.045 76.0364 -99.1347 -104.733 76.8601 -99.068 -106.428 77.6107 
-102.095 -97.0985 73.3282 -101.158 -97.6422 73.7656 -100.414 -98.3383 74.4486 
-99.7945 -99.0644 75.2197 -99.1957 -100.054 75.987 -98.865 -101.439 76.7851 
-98.9109 -103.025 77.5972 -98.984 -104.655 78.3236 -98.9119 -106.242 78.888 
-103.016 -96.5003 74.2025 -102.078 -96.84 74.5441 -103.076 -96.3562 75.5059 
-102.16 -96.7889 76.094 -103.156 -96.3875 77.0047 -101.18 -97.5303 75.2205 
-102.216 -96.8579 77.829 -103.178 -96.5584 78.6528 -101.244 -97.5166 76.9795 
-100.425 -98.2791 76.0921 -102.262 -97.1707 79.5337 -103.251 -96.9835 80.3239 
-101.318 -97.6702 78.7133 -100.47 -98.3337 77.8486 -99.7574 -99.0735 76.906 
-102.401 -97.7488 81.0908 -103.444 -97.6297 81.7794 -101.468 -98.1155 80.2516 
-100.608 -98.6543 79.3952 -99.8425 -99.3321 78.56 -99.1798 -100.247 77.6729 
-102.616 -98.3886 82.4816 -103.705 -98.3545 82.9917 -101.665 -98.6526 81.7592 
-100.806 -99.1333 80.886 -100.058 -99.8089 80.0319 -99.3764 -100.69 79.2719 
-98.9195 -101.775 78.4663 -102.942 -99.0874 83.7001 -104.059 -99.1106 84.0914 
-101.898 -99.2453 83.2027 -100.98 -99.637 82.5264 -100.254 -100.304 81.5964 
-99.6896 -101.198 80.6766 -99.1969 -102.223 79.9368 -98.937 -103.379 79.1746 
-103.445 -99.905 84.6965 -104.504 -99.8892 85.0585 -102.308 -100.067 84.308 
-101.266 -100.387 83.9033 -100.477 -100.941 83.1764 -99.9771 -101.763 82.0982 
-99.6009 -102.73 81.1474 -99.2272 -103.782 80.4411 -98.9729 -104.976 79.7055 
-104.002 -100.755 85.4687 -104.921 -100.67 85.8235 -102.885 -101 85.0638 
-101.786 -101.358 84.7246 -100.938 -101.826 84.2537 -100.378 -102.512 83.3751 
-100 -103.399 82.3315 -99.6623 -104.35 81.5076 -99.2959 -105.38 80.8221 
-98.9933 -106.527 80.0808 -104.003 -96.7147 73.7146 -104.001 -96.3278 74.8857 
-105.079 -96.6895 74.3327 -105.201 -96.3244 75.544 -106.385 -96.7273 74.8267 
-104.108 -96.231 76.2075 -106.621 -96.4102 76.0701 -107.609 -97.0682 75.3016 
-105.4 -96.2581 76.8809 -104.209 -96.3162 77.6947 -107.819 -96.9369 76.711 
-108.406 -97.9628 76.0139 -106.889 -96.4401 77.5856 -105.593 -96.4246 78.4889 
-104.301 -96.5675 79.4124 -108.633 -97.9476 77.5612 -109.172 -98.9231 76.8194 
-108.083 -97.086 78.4224 -107.107 -96.7577 79.3659 -105.782 -96.8045 80.2541 
-104.496 -97.0799 81.0697 -109.576 -98.8362 78.2783 -110.234 -99.5654 77.4093 
-109.013 -98.021 79.1565 -108.277 -97.4628 80.0803 -107.216 -97.3261 80.9608 
-105.989 -97.4581 81.6951 -104.755 -97.8274 82.3714 -110.629 -99.5512 78.7346 
-111.156 -100.28 77.8312 -110.076 -98.8379 79.6386 -109.33 -98.297 80.5225 
-108.338 -98.1076 81.4225 -107.293 -98.1376 82.183 -106.168 -98.3149 82.8285 
-105.004 -98.6591 83.5044 -111.365 -100.471 79.1054 -111.743 -101.247 78.2343 
-111.008 -99.7052 80.046 -110.452 -99.0957 80.9333 -109.499 -98.878 81.8433 
-108.423 -98.924 82.694 -107.394 -99.0098 83.3358 -106.292 -99.1749 83.9544 
-105.271 -99.4686 84.6057 -111.925 -101.478 79.4522 -112.312 -102.147 78.6093 
-111.614 -100.755 80.4479 -111.282 -100.037 81.4067 -110.611 -99.6215 82.3251 
[...]
CELL_DATA 2000
SCALARS Distance double
LOOKUP_TABLE default
175.702 174.851 175.099 174.698 173.881 174.156 173.678 173.972 173.482 
172.763 173.078 172.529 172.855 172.315 172.649 172.127 171.548 171.871 
171.283 171.627 171.05 171.413 170.88 171.26 170.796 170.336 170.617 
169.98 170.324 169.713 170.096 169.54 169.96 169.498 169.954 169.593 
169.127 169.366 168.64 168.973 168.335 168.731 168.17 168.596 168.126 
168.607 168.247 168.778 168.492 167.926 168.109 167.318 167.61 166.968 
167.36 166.837 167.251 166.788 167.236 166.868 167.397 167.119 167.682 
167.428 166.851 166.934 166.133 166.334 165.708 166.051 165.567 165.961 
165.502 165.915 165.515 166.019 165.743 166.313 166.093 166.644 166.416 
165.94 165.939 165.127 165.238 164.6 164.869 164.382 164.736 164.262 
164.633 164.181 164.65 164.35 164.939 164.759 165.343 165.164 165.685 
165.489 176.129 176.54 175.999 175.323 177.02 176.43 175.743 175.178 
174.431 177.532 176.919 176.207 175.623 174.863 174.236 173.37 177.971 
177.393 176.652 176.081 175.303 174.669 173.769 173.096 172.166 178.287 
177.769 177.029 176.491 175.721 175.105 174.205 173.502 172.555 171.891 
170.992 178.544 178.068 177.375 176.854 176.118 175.523 174.663 173.961 
173.025 172.321 171.427 170.762 169.867 178.763 178.346 177.706 177.211 
176.489 175.917 175.091 174.431 173.53 172.825 171.931 171.237 170.348 
169.643 168.72 178.864 178.542 177.916 177.498 176.747 176.235 175.398 
174.825 173.973 173.337 172.48 171.78 170.909 170.172 169.281 168.534 
167.656 178.82 178.573 177.94 177.606 176.83 176.39 175.529 175.049 
174.23 173.726 172.949 172.339 171.528 170.799 169.954 169.173 168.332 
167.561 166.757 178.575 177.855 178.041 177.653 177.068 177.246 176.758 
176.979 176.49 176.177 176.399 175.828 176.01 175.428 175.687 175.165 
174.982 175.35 174.71 174.967 174.275 174.555 173.998 174.349 173.893 
173.554 173.958 173.21 173.594 172.779 173.203 172.578 173.093 172.674 
173.124 172.683 172.365 172.566 171.791 172.031 171.202 171.565 170.937 
171.525 171.176 171.81 171.458 171.88 171.335 171.605 171.621 170.975 
170.944 170.277 170.294 169.764 170.043 169.768 170.312 170.075 170.587 
170.117 170.442 169.791 170.966 171.004 170.467 170.423 169.89 169.776 
169.276 169.246 168.849 169.091 168.756 169.195 168.734 169.143 168.505 
168.826 168.148 170.173 170.309 169.739 169.859 169.284 169.36 168.744 
168.774 168.102 168.206 167.533 167.842 167.191 167.644 166.971 167.422 
166.742 167.146 166.525 165.511 165.602 164.992 163.894 165.739 165.051 
163.854 163.307 162.288 165.976 165.197 163.974 163.318 162.301 161.817 
160.981 166.462 165.555 164.34 163.537 162.543 161.962 161.142 160.646 
159.867 167.189 166.222 165.022 164.046 162.988 162.287 161.44 160.877 
160.046 159.533 158.784 167.907 167.025 165.862 164.827 163.685 162.822 
161.898 161.217 160.382 159.775 159.043 158.566 158.079 168.468 167.707 
166.622 165.66 164.546 163.607 162.686 161.841 161.065 160.287 159.661 
159.024 158.628 158.16 157.957 168.959 168.262 167.299 166.42 165.426 
164.515 163.695 162.806 162.133 161.238 160.697 159.899 159.563 158.93 
158.741 158.237 158.117 169.449 168.805 167.977 167.167 166.309 165.448 
164.725 163.884 163.29 162.428 161.916 161.08 160.714 159.995 159.768 
159.147 158.977 158.452 158.356 165.158 163.6 164.346 164.316 162.043 
162.769 162.821 163.622 163.795 160.699 161.29 161.342 162.147 162.404 
163.25 163.567 159.516 160.012 159.988 160.727 160.979 161.851 162.191 
163.061 163.4 158.443 158.841 158.765 159.416 159.643 160.467 160.816 
161.669 162.034 162.895 163.304 157.778 157.924 157.842 158.286 158.5 
159.205 159.597 160.383 160.823 161.62 162.135 162.957 163.533 157.644 
157.546 157.456 157.605 157.779 158.229 158.616 159.277 159.775 160.533 
161.129 161.932 162.604 163.383 164.02 157.78 157.586 157.489 157.457 
157.6 157.773 158.104 158.497 158.965 159.582 160.191 160.979 161.684 
162.505 163.178 163.914 164.473 158.033 157.791 157.718 157.61 157.775 
157.797 158.117 158.251 158.664 158.985 159.542 160.131 160.833 161.597 
162.305 163.065 163.663 164.336 164.83 158.193 158.577 158.178 157.944 
159.276 158.748 158.536 158.132 158.07 160.144 159.563 159.38 158.881 
158.818 158.411 158.435 161.17 160.52 160.36 159.801 159.736 159.252 
159.248 158.838 158.932 162.354 161.643 161.484 160.851 160.782 160.226 
160.233 159.739 159.837 159.44 159.729 163.568 162.858 162.688 162.024 
161.937 161.328 161.344 160.804 160.948 160.475 160.777 160.428 160.943 
164.789 164.075 163.913 163.236 163.156 162.521 162.538 161.97 162.13 
161.647 161.955 161.558 162.015 161.748 162.346 166.043 165.331 165.196 
164.493 164.443 163.784 163.832 163.221 163.379 162.856 163.15 162.731 
163.138 162.818 163.315 163.11 163.667 167.24 166.592 166.48 165.798 
165.754 165.103 165.171 164.559 164.723 164.154 164.423 163.942 164.319 
163.934 164.376 164.077 164.554 164.35 164.84 158.587 159.439 158.934 
158.94 160.493 159.904 159.894 159.435 159.6 161.679 161.042 161.055 
160.496 160.62 160.182 160.439 163.016 162.326 162.401 161.766 161.928 
161.341 161.572 161.108 161.463 164.47 163.764 163.896 163.222 163.452 
162.792 163.053 162.419 162.733 162.241 162.659 165.897 165.25 165.402 
164.755 164.981 164.352 164.619 163.979 164.255 163.643 163.974 163.482 
163.887 167.199 166.637 166.807 166.219 166.415 165.824 166.058 165.481 
165.743 165.156 165.432 164.862 165.19 164.706 165.102 168.391 167.889 
168.088 167.568 167.787 167.221 167.456 166.883 167.162 166.598 166.885 
166.307 166.59 166.044 166.379 165.921 166.321 169.511 169.048 169.266 
168.809 169.067 168.566 168.826 168.283 168.569 168.021 168.319 167.747 
168.001 167.423 167.677 167.18 167.503 167.103 167.474 169.486 169.143 
168.913 168.048 168.876 168.586 167.719 167.41 166.482 168.729 168.379 
167.533 167.162 166.26 165.888 164.993 168.675 168.288 167.449 167.044 
166.149 165.736 164.831 164.46 163.598 168.679 168.265 167.428 166.999 
166.102 165.657 164.724 164.311 163.425 163.082 162.262 168.772 168.31 
167.483 167.015 166.146 165.661 164.751 164.259 163.372 162.951 162.163 
161.816 161.103 168.966 168.467 167.668 167.146 166.326 165.794 164.954 
164.396 163.55 163.018 162.242 161.808 161.131 160.773 160.156 169.216 
168.718 167.979 167.429 166.674 166.094 165.322 164.715 163.92 163.314 
162.546 162.007 161.32 160.877 160.258 159.895 159.337 169.507 169.021 
168.369 167.825 167.157 166.557 165.859 165.204 164.462 163.786 163.045 
162.412 161.736 161.182 160.575 160.094 159.546 159.153 158.698 170.254 
171.28 170.498 169.959 172.367 171.561 171.043 170.223 169.697 173.505 
172.688 172.186 171.348 170.845 170.014 169.543 174.622 173.84 173.368 
172.531 172.053 171.205 170.741 169.91 169.482 175.679 174.959 174.545 
173.736 173.277 172.432 171.963 171.12 170.676 169.869 169.475 176.655 
176.01 175.661 174.915 174.49 173.661 173.185 172.332 171.871 171.058 
170.669 169.893 169.559 177.562 176.972 176.671 176.004 175.628 174.859 
174.403 173.557 173.091 172.257 171.874 171.099 170.792 170.028 169.74 
178.458 177.893 177.638 177.005 176.678 175.967 175.564 174.769 174.329 
173.497 173.106 172.317 172.01 171.26 170.979 170.223 169.947 179.306 
178.803 178.603 178.003 177.721 177.029 176.671 175.918 175.522 174.728 
174.335 173.545 173.201 172.455 172.155 171.428 171.143 170.417 170.172 
179.657 179.931 179.571 179.021 180.131 179.824 179.301 178.857 178.158 
180.286 179.979 179.432 179.061 178.336 177.877 177.083 180.357 180.048 
179.392 179.082 178.341 177.966 177.153 176.729 175.921 180.305 180.013 
179.289 178.976 178.228 177.903 177.12 176.745 175.929 175.53 174.737 
180.274 179.955 179.297 178.922 178.218 177.837 177.093 176.701 175.897 
175.5 174.69 174.326 173.579 180.348 180.009 179.418 179.024 178.363 
177.932 177.209 176.752 175.959 175.496 174.683 174.274 173.519 173.189 
172.51 180.348 180.075 179.44 179.122 178.423 178.058 177.313 176.895 
176.116 175.638 174.847 174.355 173.604 173.177 172.488 172.152 171.511 
180.111 179.938 179.237 179.013 178.256 177.984 177.205 176.898 176.137 
175.773 175.03 174.583 173.85 173.363 172.656 172.209 171.544 171.183 
170.569 179.658 178.603 179.024 178.776 177.53 177.94 177.667 178.083 
177.786 176.42 176.853 176.551 176.955 176.631 177.047 176.737 175.121 
175.663 175.371 175.825 175.487 175.889 175.568 176 175.707 173.589 
174.244 173.981 174.565 174.245 174.713 174.362 174.815 174.521 174.981 
174.669 171.974 172.641 172.396 173.081 172.81 173.39 173.036 173.54 
173.21 173.738 173.444 173.914 173.542 170.502 171.063 170.81 171.475 
171.267 171.917 171.638 172.178 171.846 172.375 172.08 172.622 172.295 
172.746 172.347 169.271 169.702 169.419 169.965 169.772 170.408 170.218 
170.798 170.519 171.028 170.728 171.252 170.954 171.456 171.107 171.547 
171.193 168.191 168.554 168.237 168.672 168.435 168.989 168.809 169.401 
169.165 169.702 169.405 169.921 169.629 170.139 169.838 170.304 169.991 
170.44 170.178 179.994 180.137 179.686 178.929 180.275 179.809 179.024 
178.595 177.859 180.32 179.914 179.105 178.68 177.909 177.516 176.754 
180.064 179.829 178.99 178.672 177.858 177.52 176.688 176.314 175.438 
179.466 179.401 178.552 178.377 177.52 177.319 176.438 176.145 175.17 
174.836 173.864 178.728 178.743 177.965 177.839 176.963 176.819 175.902 
175.721 174.705 174.446 173.404 173.155 172.213 177.991 178.043 177.367 
177.273 176.431 176.246 175.31 175.109 174.098 173.875 172.846 172.633 
171.702 171.53 170.729 177.292 177.343 176.708 176.679 175.893 175.739 
174.836 174.591 173.625 173.332 172.354 172.091 171.206 171.03 170.281 
170.152 169.494 176.685 176.683 176.047 176.019 175.28 175.182 174.359 
174.167 173.294 172.996 172.083 171.734 170.862 170.597 169.857 169.717 
169.084 168.99 168.405 180.682 181.726 181.125 180.888 182.619 182.134 
181.963 181.319 181.033 183.427 182.961 182.781 182.268 182.001 181.41 
181.058 184.261 183.775 183.491 182.963 182.618 182.169 181.814 181.294 
180.792 184.735 184.501 184.191 183.667 183.186 182.666 182.219 181.816 
181.313 180.809 180.146 184.585 184.662 184.458 184.221 183.741 183.23 
182.646 182.154 181.583 181.144 180.49 179.997 179.301 184.417 184.432 
184.318 184.267 183.905 183.617 183.029 182.569 181.92 181.425 180.759 
180.262 179.585 179.116 178.491 184.595 184.458 184.345 184.189 183.874 
183.641 183.116 182.792 182.172 181.76 181.113 180.607 179.951 179.426 
178.815 178.349 177.797 184.682 184.639 184.476 184.319 183.97 183.681 
183.147 182.815 182.229 181.911 181.337 180.952 180.35 179.856 179.249 
178.734 178.179 177.709 177.205 184.501 184.004 184.313 184.33 183.449 
183.734 183.726 184.014 183.811 182.871 183.102 182.935 183.274 183.05 
183.299 182.925 182.069 182.366 182.068 182.405 182.146 182.452 182.106 
182.33 181.967 181.027 181.404 181.107 181.474 181.22 181.555 181.257 
181.504 181.163 181.403 181.092 179.931 180.327 180.055 180.459 180.223 
180.617 180.333 180.639 180.277 180.555 180.209 180.505 180.15 178.828 
179.242 178.96 179.378 179.118 179.56 179.261 179.64 179.237 179.568 
179.165 179.527 179.164 179.49 179.085 177.716 178.142 177.873 178.276 
177.996 178.421 178.126 178.524 178.146 178.479 178.068 178.423 178.072 
178.451 178.106 178.413 178.024 176.663 177.068 176.837 177.215 176.947 
177.325 177.052 177.428 177.123 177.442 177.086 177.379 177.047 177.386 
177.093 177.434 177.112 177.395 177.048 176.027 175.05 175.776 176.181 
173.864 174.706 175.143 175.891 176.28 172.524 173.427 173.895 174.768 
175.217 175.98 176.376 171.215 172.075 172.544 173.459 173.972 174.857 
175.33 176.085 176.457 170.065 170.844 171.308 172.147 172.667 173.577 
174.111 174.978 175.41 176.133 176.444 169.001 169.759 170.228 170.997 
171.479 172.31 172.821 173.711 174.189 175.02 175.397 176.098 176.408 
167.923 168.687 169.141 169.924 170.367 171.152 171.593 172.43 172.898 
173.767 174.219 175.018 175.408 176.098 176.444 166.867 167.59 168.013 
168.799 169.228 170.012 170.416 171.211 171.656 172.505 173.005 173.85 
174.322 175.081 175.474 176.147 176.474 165.909 166.556 166.956 167.689 
168.132 168.884 169.305 170.054 170.495 171.302 171.821 172.675 173.198 
174 174.43 175.145 175.488 176.144 176.434 176.201 175.215 175.638 
175.485 174.144 174.586 174.354 174.831 174.652 172.917 173.433 173.16 
173.639 173.386 173.923 173.727 171.525 172.098 171.811 172.357 172.058 
172.608 172.365 172.947 172.705 170.166 170.676 170.365 170.926 170.603 
171.189 170.892 171.517 171.239 171.845 171.521 168.956 169.375 169.028 
169.507 169.159 169.694 169.352 169.964 169.648 170.298 169.977 170.595 
170.285 167.769 168.171 167.776 168.213 167.822 168.289 167.906 168.435 
168.095 168.695 168.398 169.03 168.785 169.423 169.259 166.577 166.947 
166.501 166.928 166.487 166.943 166.519 167.015 166.654 167.205 166.922 
167.515 167.314 167.953 167.852 168.522 168.488 165.519 165.787 165.312 
165.656 165.197 165.601 165.166 165.627 165.262 165.793 165.523 166.102 
165.914 166.533 166.441 167.122 167.118 167.814 167.826 179.379 179.446 
179.714 180.329 179.397 179.757 180.447 180.75 181.442 179.248 179.685 
180.434 180.835 181.593 181.896 182.529 179.038 179.524 180.256 180.729 
181.472 181.935 182.639 182.93 183.432 178.727 179.275 179.949 180.443 
181.069 181.625 182.348 182.899 183.528 183.77 184.115 178.267 178.883 
179.555 180.072 180.633 181.135 181.816 182.473 183.225 183.73 184.133 
184.276 184.375 177.718 178.351 179.044 179.632 180.235 180.718 181.354 
181.95 182.711 183.33 183.81 184.109 184.142 184.267 184.255 177.188 
177.774 178.436 179.072 179.696 180.271 180.851 181.452 182.089 182.753 
183.233 183.67 183.749 183.923 183.885 184.093 184.232 176.727 177.244 
177.828 178.432 179.006 179.633 180.144 180.787 181.275 181.976 182.394 
182.985 183.166 183.492 183.544 183.763 183.939 184.2 184.454 179.485 
180.468 179.959 179.973 181.586 181.034 181.066 180.513 180.524 182.642 
182.154 182.207 181.671 181.695 181.1 181.039 183.492 183.102 183.176 
182.769 182.857 182.318 182.251 181.567 181.328 184.145 183.861 183.951 
183.657 183.831 183.437 183.433 182.786 182.48 181.706 181.267 184.48 
184.411 184.56 184.385 184.593 184.333 184.393 183.886 183.573 182.813 
182.266 181.494 180.967 184.514 184.63 184.889 184.889 185.087 184.966 
184.994 184.682 184.386 183.784 183.199 182.44 181.823 181.122 180.621 
184.554 184.672 184.98 185.081 185.24 185.245 185.185 185.055 184.747 
184.392 183.828 183.237 182.57 181.914 181.342 180.75 180.312 184.685 
184.752 184.956 185.065 185.13 185.204 185.089 185.065 184.77 184.583 
184.076 183.677 183.008 182.491 181.855 181.362 180.882 180.424 180.062 
178.979 179.429 178.909 178.319 179.938 179.382 178.769 178.224 177.583 
180.384 179.859 179.186 178.65 177.936 177.413 176.677 180.597 180.181 
179.429 178.958 178.131 177.645 176.792 176.347 175.479 180.525 180.233 
179.445 179.058 178.175 177.719 176.8 176.359 175.476 175.042 174.141 
180.276 180.06 179.315 178.992 178.155 177.725 176.864 176.394 175.584 
175.107 174.325 173.793 173.005 179.989 179.799 179.122 178.853 178.111 
177.735 176.979 176.537 175.83 175.347 174.657 174.112 173.405 172.83 
172.174 179.742 179.548 178.917 178.68 178.014 177.713 177.029 176.67 
176.005 175.607 174.938 174.472 173.763 173.242 172.549 172.056 171.45 
179.561 179.353 178.753 178.511 177.885 177.625 176.985 176.69 176.029 
175.703 175.016 174.65 173.921 173.501 172.765 172.335 171.656 171.264 
170.644 180.736 180.938 181.152 181.699 180.892 181.208 181.754 182.031 
182.544 180.856 181.135 181.7 182.002 182.599 182.863 183.405 180.977 
181.21 181.843 182.054 182.725 182.968 183.647 183.819 184.326 180.976 
181.303 181.947 182.254 182.954 183.214 183.9 184.09 184.575 184.638 
184.807 180.72 181.1 181.602 182.121 182.78 183.306 183.955 184.289 
184.658 184.754 184.777 184.767 184.618 180.467 180.749 181.112 181.585 
182.173 182.85 183.526 184.105 184.498 184.718 184.723 184.686 184.555 
184.497 184.448 180.308 180.537 180.898 181.191 181.752 182.262 182.987 
183.574 184.13 184.476 184.668 184.696 184.704 184.599 184.649 184.556 
184.662 180.101 180.393 180.812 181.087 181.65 182.022 182.744 183.199 
183.862 184.206 184.607 184.724 184.911 184.863 184.968 184.859 184.912 
184.808 184.785 
POINT_DATA 1002
SCALARS Distance double
LOOKUP_TABLE default
175.367 176.258 175.482 174.451 174.622 174.279 173.397 173.625 173.19 
172.981 172.215 172.451 171.98 171.78 171.623 170.948 171.246 170.69 
170.483 170.379 170.388 169.658 170.107 169.335 169.118 169.022 169.097 
169.298 168.335 168.939 167.929 167.743 167.653 167.706 167.941 168.239 
167.054 167.786 166.567 166.411 166.361 166.353 166.548 166.871 167.179 
165.965 166.803 165.383 165.177 165.115 165.035 165.161 165.526 165.887 
166.186 165.051 165.968 164.368 164.051 163.922 163.753 163.759 164.135 
164.622 164.987 165.299 176.649 175.867 177.106 176.318 177.64 175.048 
176.801 178.159 175.506 174.037 177.22 178.537 175.939 174.469 172.804 
177.551 178.776 176.319 174.91 173.237 171.626 177.881 178.977 176.697 
175.343 173.738 172.102 170.555 178.185 179.131 177.058 175.717 174.217 
172.637 171.056 169.437 178.314 179.151 177.254 175.933 174.546 173.159 
171.648 170.027 168.382 178.257 179.054 177.252 175.985 174.669 173.476 
172.214 170.725 169.114 167.501 178.416 177.453 177.699 176.588 176.92 
176.235 175.691 175.923 175.209 174.842 174.439 174.587 174.003 173.617 
173.538 172.851 173.229 172.344 171.993 172.127 172.36 171.622 172.247 
170.903 170.362 170.46 170.947 171.07 170.997 171.575 170.311 169.622 
169.314 169.534 169.747 169.536 170.445 170.882 169.964 169.401 168.81 
168.431 168.308 168.15 167.832 169.604 170.035 169.172 168.72 168.118 
167.383 166.791 166.478 166.289 166.108 164.457 164.413 162.815 164.454 
162.697 161.355 164.662 162.807 161.401 160.192 165.214 163.145 161.68 
160.349 159.065 166.072 163.782 162.04 160.606 159.189 158.104 166.889 
164.629 162.648 161.011 159.535 158.411 157.728 167.516 165.467 163.547 
161.868 160.32 159.132 158.347 157.802 168.104 166.281 164.535 163.006 
161.528 160.247 159.314 158.566 157.988 168.712 167.12 165.53 164.113 
162.753 161.469 160.428 159.565 158.804 158.279 163.534 161.965 162.97 
160.554 161.512 162.736 159.297 160.119 161.312 162.532 158.167 158.839 
159.975 161.169 162.407 157.507 157.858 158.808 160.013 161.292 162.713 
157.408 157.457 158.028 159.018 160.301 161.799 163.308 157.553 157.511 
157.838 158.452 159.434 160.844 162.415 163.818 157.835 157.771 158.047 
158.47 159.077 160.122 161.539 162.967 164.21 158.47 158.232 159.033 
158.985 159.815 158.398 159.895 160.727 159.268 158.794 160.943 161.845 
160.248 159.699 159.255 162.146 163.074 161.366 160.736 160.267 159.995 
163.358 164.276 162.563 161.886 161.415 161.167 161.174 164.593 165.501 
163.79 163.119 162.615 162.364 162.339 162.537 165.899 166.732 165.097 
164.445 163.933 163.594 163.495 163.583 163.829 167.146 167.845 166.399 
165.77 165.3 164.939 164.74 164.726 164.822 165.014 159.013 159.322 
159.984 160.408 161.089 159.955 161.633 162.316 161.128 160.78 163.031 
163.702 162.541 162.12 161.82 164.562 165.149 164.099 163.721 163.322 
163.062 166.042 166.502 165.606 165.24 164.899 164.547 164.315 167.37 
167.729 167.012 166.628 166.308 166.024 165.728 165.531 168.571 168.877 
168.326 168.026 167.717 167.464 167.171 166.875 166.732 169.698 169.96 
169.532 169.347 169.108 168.886 168.61 168.225 167.933 167.846 169.713 
168.316 169.401 168.045 169.185 166.797 167.909 169.093 166.647 165.339 
167.863 169.07 166.578 165.224 163.931 167.864 169.106 166.559 165.171 
163.78 162.566 167.962 169.25 166.625 165.257 163.829 162.51 161.416 
168.192 169.46 166.854 165.503 164.106 162.718 161.503 160.478 168.504 
169.685 167.244 165.928 164.538 163.119 161.805 160.655 159.646 171.018 
170.765 172.06 171.862 173.185 170.507 173.02 174.313 171.68 170.353 
174.191 175.366 172.897 171.585 170.287 175.325 176.35 174.123 172.816 
171.492 170.252 176.361 177.26 175.302 174.049 172.693 171.433 170.324 
177.302 178.131 176.355 175.23 173.935 172.649 171.543 170.513 178.253 
178.997 177.364 176.32 175.146 173.911 172.762 171.729 170.697 179.165 