# vtk DataFile Version 4.0
vtk output
ASCII
DATASET POLYDATA
POINTS 1002 float
-104.039 -121.307 74.8392 -104.741 -122.086 74.5282 -104.465 -121.602 73.6447 
-103.7 -120.736 73.9608 -104.185 -120.946 72.79 -103.254 -120.39 75.1501 
-103.42 -119.883 73.1258 -103.876 -120.119 71.9998 -102.956 -119.596 74.2858 
-102.694 -118.989 75.4912 -103.183 -118.795 72.3159 -103.664 -119.039 71.2341 
-102.746 -118.48 73.467 -102.436 -117.981 74.6615 -102.324 -117.251 75.9347 
-102.998 -117.553 71.4962 -103.6 -117.744 70.5683 -102.511 -117.255 72.625 
-102.082 -116.88 73.8312 -101.803 -116.371 75.1332 -101.582 -115.854 76.4856 
-102.748 -116.302 70.7774 -103.539 -116.426 70.0923 -102.118 -116.093 71.7457 
-101.54 -115.873 72.9324 -101.028 -115.614 74.2377 -100.706 -115.258 75.6469 
-100.512 -114.867 77.0228 -102.41 -115.114 70.1769 -103.384 -115.168 69.6571 
-101.543 -115.029 70.9278 -100.86 -114.931 72.0079 -100.252 -114.847 73.2859 
-99.8223 -114.629 74.6745 -99.719 -114.223 76.1143 -99.7884 -113.738 77.4564 
-102.12 -113.961 69.5881 -103.108 -114.02 69.1259 -101.08 -113.964 70.2058 
-100.263 -113.936 71.1334 -99.7141 -113.887 72.3471 -99.3147 -113.728 73.7177 
-99.1708 -113.351 75.1416 -99.2996 -112.849 76.5438 -99.4556 -112.368 77.8332 
-101.838 -112.9 69.0102 -102.703 -113.062 68.5704 -100.885 -112.842 69.6014 
-100.005 -112.791 70.3959 -99.4482 -112.699 71.4414 -99.1679 -112.512 72.7696 
-99.01 -112.173 74.2234 -99.0224 -111.746 75.6299 -99.1289 -111.341 76.973 
-99.1773 -110.998 78.2128 -101.49 -111.977 68.4819 -102.281 -112.245 68.0965 
-100.755 -111.751 69.0883 -100.006 -111.542 69.8455 -99.4037 -111.346 70.6929 
-99.1216 -111.111 71.8256 -99.014 -110.782 73.2794 -98.9608 -110.425 74.7375 
-98.9816 -110.136 76.0768 -98.9866 -109.912 77.3794 -98.9506 -109.708 78.5803 
-105.197 -122.675 73.6234 -104.999 -122.083 72.6687 -105.795 -123.223 72.6298 
-105.671 -122.526 71.673 -106.655 -123.493 71.6555 -104.739 -121.371 71.8101 
-106.627 -122.67 70.8128 -107.766 -123.453 70.7965 -105.517 -121.666 70.9094 
-104.475 -120.457 71.0544 -107.795 -122.501 70.079 -108.991 -123.251 70.0184 
-106.623 -121.6 70.174 -105.418 -120.542 70.2436 -104.386 -119.214 70.3548 
-108.963 -122.207 69.287 -110.174 -122.899 69.2315 -107.775 -121.345 69.4044 
-106.541 -120.403 69.4842 -105.381 -119.223 69.5673 -104.431 -117.808 69.8168 
-110.062 -121.884 68.4446 -111.234 -122.485 68.4524 -108.793 -121.125 68.4969 
-107.479 -120.305 68.5782 -106.288 -119.263 68.6944 -105.317 -117.894 69.0104 
-104.419 -116.432 69.4373 -111.124 -121.524 67.7585 -112.224 -122.123 67.7815 
-109.84 -120.829 67.7165 -108.407 -120.13 67.6963 -107.098 -119.247 67.7725 
-106.071 -118.01 68.064 -105.201 -116.547 68.5812 -104.238 -115.139 69.004 
-112.144 -120.991 67.313 -113.199 -121.649 67.2851 -110.923 -120.278 67.2324 
-109.512 -119.636 67.0831 -108.153 -118.876 67.0526 -106.999 -117.847 67.234 
-105.985 -116.626 67.6424 -104.982 -115.294 68.1547 -103.871 -114.041 68.4836 
-113.079 -120.233 67.0327 -114.082 -120.945 66.9338 -111.91 -119.513 66.9494 
-110.555 -118.946 66.6719 -109.259 -118.301 66.4984 -108.144 -117.406 66.6185 
-107.035 -116.452 66.9178 -105.872 -115.436 67.33 -104.685 -114.26 67.7654 
-103.454 -113.137 68.022 -114.236 -119.628 66.7337 -113.13 -118.848 66.7795 
-114.247 -118.323 66.4881 -112.985 -117.763 66.3024 -114.082 -117.323 66.1 
-111.734 -118.32 66.4224 -112.719 -116.925 65.5825 -113.751 -116.276 65.6905 
-111.408 -117.443 65.5659 -110.289 -117.851 65.9495 -112.379 -115.618 64.9487 
-113.212 -114.906 65.5029 -111.12 -116.327 64.6289 -109.995 -116.763 65.0794 
-109.146 -117.02 65.9287 -111.823 -113.965 64.8265 -112.492 -113.552 65.6438 
-110.836 -114.535 64.17 -109.756 -115.199 64.4381 -108.945 -115.688 65.4234 
-108.095 -116.064 66.3052 -111.141 -112.642 65.2968 -111.836 -112.26 66.0283 
-110.361 -112.907 64.5247 -109.435 -113.395 64.4193 -108.603 -114.128 65.1619 
-107.823 -114.787 66.0657 -106.843 -115.22 66.7228 -110.592 -111.433 66.0847 
-111.305 -110.857 66.5853 -109.852 -111.803 65.4585 -108.972 -112.093 65.0769 
-108.104 -112.601 65.3355 -107.379 -113.285 66.0065 -106.519 -113.866 66.6345 
-105.502 -114.175 67.1757 -110.068 -110.048 66.939 -110.695 -109.568 67.2904 
-109.411 -110.527 66.5067 -108.546 -110.924 66.0782 -107.565 -111.295 65.9724 
-106.808 -111.701 66.3093 -106.111 -112.169 66.792 -105.128 -112.635 67.1872 
-104.118 -112.957 67.5656 -109.416 -108.744 67.7337 -109.995 -108.567 68.0295 
-108.862 -108.995 67.4036 -108.135 -109.334 67.0137 -107.149 -109.749 66.7586 
-106.235 -110.114 66.8684 -105.543 -110.419 67.1934 -104.688 -110.857 67.4061 
-103.603 -111.422 67.5078 -102.733 -111.901 67.7151 -101.395 -111.145 67.8731 
-101.865 -110.529 67.5396 -100.655 -109.656 67.7004 -102.806 -109.732 67.5395 
-101.097 -108.708 67.3771 -100.178 -107.678 67.6671 -103.918 -108.999 67.6696 
-101.999 -107.632 67.4862 -100.584 -106.428 67.3368 -99.8961 -105.484 67.8704 
-104.876 -108.531 67.5536 -103.196 -106.764 67.6431 -101.504 -105.214 67.3627 
-100.391 -104.156 67.5609 -99.7373 -103.478 68.3224 -105.843 -108.139 67.3145 
-104.489 -106.204 67.5103 -102.966 -104.374 67.3727 -101.54 -103.126 67.4861 
-100.529 -102.391 68.1096 -99.8446 -101.753 68.9283 -106.881 -107.744 67.4094 
-105.679 -105.877 67.4942 -104.521 -104.018 67.3931 -103.211 -102.625 67.5682 
-101.925 -101.773 68.1486 -100.941 -101.023 68.8449 -100.287 -100.301 69.5913 
-107.71 -107.55 67.8199 -106.564 -105.878 67.941 -105.596 -104.159 67.8485 
-104.63 -102.667 67.9916 -103.464 -101.605 68.5196 -102.306 -100.689 69.0614 
-101.431 -99.7862 69.5743 -100.863 -99.2243 70.315 -108.331 -107.551 68.2158 
-107.27 -106.114 68.5076 -106.33 -104.581 68.5923 -105.483 -103.074 68.7337 
-104.571 -101.773 69.1465 -103.546 -100.643 69.5695 -102.588 -99.5385 69.8496 
-101.879 -98.7421 70.3189 -101.398 -98.4875 71.1457 -108.958 -107.596 68.5149 
-108.026 -106.317 68.8872 -107.175 -104.891 69.1456 -106.289 -103.463 69.3974 
-105.384 -102.093 69.7543 -104.525 -100.826 70.1244 -103.683 -99.5961 70.344 
-102.913 -98.5417 70.5959 -102.319 -97.9956 71.1756 -101.869 -97.9408 72.0519 
-100.688 -110.757 68.3785 -100.117 -109.07 68.3848 -100.118 -110.314 69.1923 
-99.7463 -107.014 68.5038 -99.6606 -108.47 69.329 -99.5252 -109.913 70.0361 
-99.4211 -104.903 68.7864 -99.295 -106.458 69.4913 -99.1819 -108.005 70.2414 
-99.1096 -109.586 70.9813 -99.2231 -102.843 69.2658 -99.0157 -104.354 69.8349 
-98.9924 -105.997 70.6179 -98.9661 -107.616 71.4822 -98.9828 -109.233 72.3836 
-99.4122 -100.98 69.9084 -98.9621 -102.181 70.4301 -98.953 -103.83 71.245 
-98.9967 -105.574 72.226 -98.9562 -107.232 73.1461 -98.9499 -108.873 73.9859 
-99.9551 -99.6807 70.6803 -99.2273 -100.447 71.2096 -98.9736 -101.752 72.0012 
-99.0242 -103.5 73.0015 -99.0289 -105.27 73.9056 -98.9888 -106.963 74.6682 
-98.9668 -108.635 75.4084 -100.587 -98.9363 71.5647 -99.7415 -99.458 72.1049 
-99.1391 -100.273 72.826 -98.9499 -101.666 73.7444 -98.9914 -103.408 74.6003 
-99.0631 -105.148 75.3003 -99.0593 -106.874 76.0368 -98.9825 -108.522 76.7833 
-101.144 -98.3899 72.505 -100.333 -98.8479 73.0513 -99.5627 -99.3707 73.7141 
-99.0634 -100.315 74.5438 -98.9055 -101.784 75.3651 -98.9853 -103.463 76.0372 
-99.0921 -105.179 76.7378 -99.0358 -106.891 77.5154 -98.9145 -108.439 78.1591 
-101.866 -97.6961 73.3272 -101.077 -98.1216 73.9066 -101.785 -97.3932 74.8199 
-100.954 -97.7811 75.5113 -101.699 -97.1908 76.4932 -100.261 -98.567 74.5684 
-100.896 -97.7848 77.2417 -101.816 -97.442 78.1339 -100.227 -98.4215 76.2957 
-99.5647 -99.2551 75.3768 -101.057 -98.3765 78.8274 -102.195 -98.1773 79.4529 
-100.275 -98.8205 78.0379 -99.6618 -99.4683 77.166 -99.111 -100.453 76.2463 
-101.405 -99.2016 80.1619 -102.59 -99.0482 80.6066 -100.438 -99.5698 79.5555 
-99.7687 -100.063 78.8073 -99.2076 -100.849 77.954 -98.9297 -102.04 76.9829 
-101.764 -99.9388 81.4731 -102.857 -99.7988 81.8811 -100.741 -100.248 80.9556 
-99.942 -100.701 80.283 -99.2934 -101.413 79.5235 -98.9285 -102.477 78.6828 
-98.9672 -103.791 77.7017 -102.12 -100.638 82.735 -103.161 -100.5 83.0764 
-101.119 -100.899 82.3198 -100.257 -101.321 81.7744 -99.5318 -102.042 81.0552 
-99.0243 -103.081 80.281 -98.9018 -104.3 79.4575 -98.9954 -105.602 78.4949 
-102.607 -101.443 83.7032 -103.638 -101.323 83.9324 -101.564 -101.669 83.4272 
-100.6 -102.056 83.1082 -99.8451 -102.75 82.5604 -99.3573 -103.755 81.7374 
-99.1027 -104.892 80.8869 -98.9763 -106.082 80.0587 -98.9115 -107.298 79.1298 
-103.241 -102.376 84.3844 -104.216 -102.253 84.5381 -102.174 -102.559 84.2008 
-101.065 -102.887 84.0408 -100.148 -103.509 83.7527 -99.6713 -104.428 83.0553 
-99.5246 -105.461 82.0684 -99.3442 -106.525 81.1605 -99.0629 -107.641 80.3531 
-98.9063 -108.735 79.4888 -102.636 -97.4615 72.4473 -102.675 -97.1923 73.8084 
-103.566 -97.2657 73.003 -103.678 -97.0107 74.4227 -104.584 -97.4738 73.7143 
-102.668 -96.9617 75.4397 -104.825 -97.1983 75.1597 -105.573 -97.9609 74.4736 
-103.847 -96.8614 76.1524 -102.746 -96.947 77.2388 -106.029 -97.6147 75.8708 
-106.584 -98.5723 75.1194 -105.255 -97.03 76.8431 -104.133 -97.0393 77.9305 
-103.06 -97.4346 78.7905 -107.229 -98.2095 76.3896 -107.668 -99.2691 75.5998 
-106.688 -97.4074 77.3305 -105.662 -97.36 78.3887 -104.458 -97.7878 79.2631 
-103.475 -98.3421 79.9201 -108.336 -98.9896 76.7629 -108.74 -100.017 76.0066 
-107.902 -98.1117 77.6506 -107.092 -97.9032 78.663 -105.879 -98.2911 79.5993 
-104.734 -98.7696 80.3506 -103.766 -99.2278 81.1052 -109.366 -99.8558 77.1348 
-109.748 -100.758 76.4132 -108.861 -99.1205 78.0036 -108.2 -98.7998 79.0085 
-107.271 -98.8748 80.0218 -106.144 -99.153 80.8976 -105.032 -99.5007 81.6942 
-104.013 -99.9275 82.4631 -110.354 -100.684 77.5229 -110.648 -101.479 76.8058 
-109.784 -100.15 78.4097 -109.059 -99.9089 79.4404 -108.373 -99.7069 80.5125 
-107.599 -99.5727 81.4919 -106.567 -99.7538 82.3109 -105.411 -100.169 83.0015 
-104.394 -100.686 83.5546 -111.19 -101.465 77.8751 -111.353 -102.214 77.151 
-110.719 -101.007 78.7733 -109.957 -100.871 79.7995 -109.234 -100.672 80.8545 
[...]
CELL_DATA 2000
SCALARS Distance double
LOOKUP_TABLE default
175.723 174.788 175.129 174.825 173.735 174.115 173.772 174.142 173.763 
172.571 172.978 172.583 172.998 172.588 172.983 172.563 171.341 171.739 
171.295 171.733 171.292 171.732 171.307 171.743 171.361 170.129 170.47 
169.961 170.388 169.918 170.385 169.95 170.432 170.058 170.551 170.238 
168.955 169.238 168.635 169.017 168.501 168.975 168.541 169.049 168.68 
169.207 168.913 169.451 169.201 167.79 168.041 167.378 167.69 167.126 
167.555 167.133 167.645 167.314 167.841 167.563 168.108 167.885 168.44 
168.236 166.652 166.875 166.224 166.477 165.899 166.237 165.799 166.267 
165.962 166.497 166.246 166.784 166.566 167.121 166.942 167.5 167.322 
165.591 165.773 165.153 165.38 164.819 165.086 164.605 164.98 164.629 
165.144 164.894 165.461 165.244 165.811 165.631 166.206 166.061 166.618 
166.472 176.095 176.384 175.888 175.175 176.695 176.178 175.429 174.923 
174.157 177.004 176.488 175.739 175.198 174.399 173.864 173.036 177.302 
176.795 176.056 175.516 174.708 174.132 173.267 172.705 171.842 177.526 
177.06 176.295 175.797 174.983 174.434 173.557 172.966 172.084 171.522 
170.68 177.652 177.228 176.444 175.977 175.146 174.65 173.778 173.234 
172.349 171.79 170.941 170.393 169.56 177.765 177.346 176.586 176.108 
175.27 174.776 173.905 173.403 172.523 172.013 171.158 170.645 169.799 
169.262 168.407 177.874 177.471 176.711 176.245 175.395 174.898 174.019 
173.52 172.65 172.155 171.313 170.825 169.998 169.485 168.633 168.093 
167.252 177.883 177.532 176.736 176.318 175.441 174.984 174.095 173.627 
172.777 172.299 171.5 171.009 170.242 169.719 168.933 168.36 167.542 
166.974 166.191 177.579 176.641 176.887 176.395 175.683 175.904 175.359 
175.604 175.068 174.689 174.931 174.318 174.526 173.929 174.226 173.71 
173.45 173.801 173.114 173.39 172.711 173.042 172.514 172.885 172.42 
172.072 172.415 171.654 172.002 171.283 171.715 171.21 171.678 171.275 
171.647 171.204 170.881 171.1 170.355 170.565 169.874 170.243 169.8 
170.334 170.04 170.513 170.133 170.453 169.982 169.875 170.062 169.46 
169.534 168.918 169.047 168.599 168.983 168.724 169.246 168.938 169.352 
168.875 169.184 168.658 168.905 169.129 168.637 168.78 168.227 168.291 
167.755 167.934 167.546 167.952 167.625 168.088 167.626 167.998 167.419 
167.769 167.225 168.001 168.19 167.685 167.907 167.345 167.522 166.899 
167.069 166.503 166.801 166.34 166.758 166.271 166.675 166.081 166.452 
165.863 166.286 165.82 164.93 164.851 164.383 163.452 164.999 164.358 
163.216 162.777 161.812 165.227 164.549 163.286 162.594 161.373 161.031 
160.139 165.4 164.775 163.54 162.728 161.35 160.687 159.6 159.395 
158.713 165.623 164.981 163.844 163.028 161.695 160.828 159.668 159.103 
158.392 158.208 157.77 166.027 165.317 164.262 163.431 162.27 161.349 
160.316 159.501 158.831 158.287 157.904 157.572 157.29 166.509 165.813 
164.855 164.014 163.028 162.115 161.273 160.394 159.812 159.064 158.672 
158.057 157.737 157.303 157.123 166.942 166.328 165.516 164.739 163.913 
163.044 162.324 161.467 160.924 160.148 159.713 158.986 158.556 157.923 
157.608 157.242 157.197 167.365 166.812 166.149 165.466 164.778 164.001 
163.351 162.543 161.978 161.216 160.736 160.009 159.536 158.81 158.387 
157.818 157.637 157.382 157.474 164.797 163.377 164.176 164.349 161.831 
162.722 162.967 163.795 164.038 160.258 161.169 161.473 162.38 162.68 
163.51 163.81 158.848 159.649 159.97 160.882 161.234 162.125 162.498 
163.353 163.797 157.76 158.333 158.592 159.427 159.843 160.737 161.214 
162.084 162.627 163.485 164.068 157.114 157.386 157.513 158.146 158.594 
159.455 160.069 160.933 161.569 162.393 163.038 163.854 164.464 156.951 
156.955 157.003 157.289 157.674 158.346 159.026 159.888 160.614 161.431 
162.099 162.882 163.533 164.298 164.899 157.148 157.021 157.102 157.079 
157.357 157.666 158.251 158.94 159.693 160.506 161.219 161.995 162.675 
163.43 164.092 164.796 165.383 157.504 157.364 157.502 157.367 157.57 
157.583 157.996 158.356 159.019 159.667 160.412 161.151 161.882 162.629 
163.343 164.052 164.692 165.319 165.852 157.772 158.214 157.925 157.795 
158.725 158.377 158.257 157.963 157.873 159.533 159.001 158.911 158.514 
158.505 158.158 158.268 160.724 160.014 159.956 159.385 159.46 158.977 
159.159 158.797 159.188 162.07 161.324 161.258 160.6 160.675 160.107 
160.292 159.826 160.183 159.906 160.482 163.374 162.668 162.587 161.922 
161.948 161.358 161.498 161 161.311 160.959 161.488 161.287 161.948 
164.618 163.95 163.887 163.23 163.253 162.635 162.774 162.227 162.535 
162.117 162.632 162.355 163 162.794 163.442 165.853 165.202 165.17 
164.523 164.565 163.952 164.114 163.554 163.871 163.399 163.882 163.534 
164.123 163.867 164.457 164.238 164.781 167.101 166.467 166.463 165.816 
165.854 165.249 165.395 164.873 165.169 164.727 165.149 164.776 165.264 
164.959 165.451 165.204 165.67 165.465 165.91 157.892 158.408 158.18 
158.349 159.298 158.843 158.965 158.699 158.912 160.497 159.888 159.984 
159.516 159.746 159.408 159.754 161.822 161.171 161.284 160.706 160.962 
160.47 160.839 160.46 160.949 163.173 162.527 162.66 162.068 162.335 
161.806 162.173 161.697 162.139 161.77 162.291 164.523 163.891 164.029 
163.444 163.711 163.193 163.555 163.063 163.462 163.013 163.455 163.102 
163.587 165.854 165.246 165.402 164.816 165.1 164.579 164.969 164.463 
164.866 164.357 164.758 164.304 164.731 164.366 164.822 167.127 166.572 
166.766 166.203 166.506 165.989 166.396 165.897 166.319 165.793 166.188 
165.662 166.054 165.576 165.987 165.597 166.045 168.274 167.806 168.029 
167.543 167.848 167.373 167.743 167.283 167.667 167.2 167.579 167.092 
167.467 166.954 167.321 166.831 167.223 166.826 167.268 167.452 167.311 
167.013 166.263 167.158 166.843 166.033 165.751 164.949 167.001 166.66 
165.829 165.517 164.698 164.411 163.59 166.977 166.564 165.752 165.358 
164.531 164.182 163.351 163.046 162.241 167.066 166.624 165.827 165.368 
164.528 164.085 163.228 162.842 162.022 161.726 160.983 167.196 166.742 
165.947 165.474 164.627 164.139 163.276 162.808 161.98 161.58 160.808 
160.506 159.786 167.444 166.936 166.185 165.65 164.847 164.298 163.48 
162.946 162.163 161.665 160.903 160.445 159.691 159.332 158.659 167.82 
167.285 166.603 166.011 165.284 164.655 163.907 163.281 162.553 161.968 
161.257 160.689 159.965 159.424 158.772 158.365 157.911 168.225 167.717 
167.086 166.507 165.83 165.199 164.5 163.837 163.142 162.484 161.81 
161.168 160.506 159.872 159.273 158.714 158.303 157.908 157.724 168.13 
169.143 168.445 168.065 170.237 169.507 169.164 168.421 167.982 171.427 
170.625 170.259 169.528 169.123 168.319 167.837 172.702 171.848 171.43 
170.644 170.26 169.47 169.027 168.197 167.774 173.9 173.109 172.698 
171.873 171.492 170.665 170.27 169.421 169.014 168.196 167.841 174.951 
174.245 173.876 173.12 172.756 171.953 171.572 170.716 170.317 169.463 
169.089 168.285 167.963 175.974 175.29 174.944 174.235 173.892 173.168 
172.808 172.015 171.615 170.772 170.383 169.553 169.219 168.433 168.174 
176.941 176.323 176.004 175.308 174.98 174.273 173.947 173.205 172.841 
172.043 171.666 170.848 170.512 169.713 169.443 168.69 168.495 177.724 
177.227 176.953 176.348 176.045 175.374 175.066 174.346 174.014 173.249 
172.905 172.119 171.797 171.008 170.724 169.958 169.728 169.018 168.85 
178.027 178.264 177.868 177.291 178.548 178.104 177.51 177.093 176.453 
178.901 178.409 177.779 177.324 176.672 176.218 175.504 179.259 178.772 
178.101 177.599 176.884 176.412 175.661 175.207 174.437 179.48 179.065 
178.369 177.891 177.11 176.604 175.802 175.33 174.543 174.104 173.336 
179.571 179.189 178.481 178.076 177.305 176.817 175.999 175.489 174.693 
174.219 173.447 173.004 172.251 179.662 179.264 178.562 178.162 177.444 
176.993 176.212 175.705 174.897 174.394 173.592 173.121 172.335 171.909 
171.171 179.653 179.344 178.674 178.29 177.6 177.153 176.399 175.908 
175.102 174.596 173.766 173.266 172.445 171.986 171.223 170.834 170.156 
179.375 179.235 178.615 178.363 177.682 177.303 176.534 176.076 175.268 
174.784 173.971 173.459 172.647 172.133 171.367 170.916 170.239 169.869 
169.273 178.927 178.035 178.408 178.235 177.086 177.456 177.228 177.634 
177.332 176.029 176.403 176.048 176.503 176.172 176.595 176.176 174.822 
175.246 174.833 175.261 174.894 175.35 174.968 175.37 174.92 173.472 
173.976 173.609 174.043 173.661 174.083 173.712 174.14 173.735 174.112 
173.647 172.047 172.6 172.287 172.792 172.404 172.838 172.407 172.858 
172.443 172.892 172.441 172.819 172.331 170.637 171.172 170.862 171.424 
171.05 171.524 171.042 171.49 171.033 171.534 171.117 171.575 171.119 
171.497 171.047 169.3 169.771 169.417 169.974 169.626 170.139 169.696 
170.124 169.668 170.128 169.749 170.237 169.857 170.282 169.876 170.263 
169.907 168.065 168.456 168.056 168.546 168.202 168.725 168.356 168.814 
168.411 168.837 168.471 168.923 168.578 169.024 168.664 169.091 168.761 
169.19 168.926 179.175 179.356 178.92 178.299 179.796 179.233 178.605 
178.107 177.473 180.207 179.744 179.103 178.528 177.831 177.274 176.513 
180.083 179.946 179.276 178.897 178.065 177.575 176.676 176.171 175.264 
179.467 179.531 178.853 178.735 177.821 177.531 176.514 176.149 175.13 
174.75 173.805 178.79 178.829 178.187 178.147 177.3 177.093 176.086 
175.798 174.776 174.473 173.497 173.208 172.323 178.179 178.173 177.551 
177.526 176.807 176.621 175.703 175.376 174.38 174.069 173.133 172.864 
171.992 171.74 170.929 177.6 177.568 176.948 176.938 176.302 176.197 
175.381 175.073 174.078 173.712 172.759 172.491 171.658 171.428 170.638 
170.391 169.629 177.107 177.034 176.438 176.385 175.788 175.716 174.997 
174.768 173.842 173.461 172.484 172.148 171.305 171.083 170.33 170.115 
169.364 169.125 168.404 179.839 181.01 180.274 180.046 182.151 181.503 
181.277 180.556 180.429 183.015 182.572 182.429 181.781 181.553 180.923 
180.753 183.811 183.418 183.417 182.87 182.605 181.935 181.542 180.99 
180.581 184.68 184.289 184.332 183.853 183.617 182.916 182.359 181.654 
181.06 180.539 179.977 185.137 184.98 184.875 184.618 184.332 183.811 
183.197 182.446 181.73 181.048 180.456 179.907 179.357 184.949 185.034 
184.771 184.768 184.369 184.19 183.591 183.12 182.396 181.757 181.119 
180.499 179.952 179.359 178.797 184.6 184.679 184.422 184.43 184.019 
183.96 183.451 183.261 182.666 182.273 181.643 181.128 180.529 179.972 
179.376 178.794 178.208 184.469 184.455 184.295 184.183 183.854 183.681 
183.278 183.106 182.672 182.422 181.88 181.495 180.871 180.42 179.795 
179.308 178.706 178.189 177.654 184.454 184.372 184.398 184.253 184.041 
184.203 184.006 184.03 183.742 183.349 183.693 183.499 183.65 183.33 
183.399 183.107 182.349 182.838 182.664 182.98 182.687 182.886 182.583 
182.735 182.471 181.195 181.744 181.586 182.017 181.723 182.077 181.748 
182.056 181.717 181.981 181.64 180.037 180.57 180.419 180.887 180.592 
180.997 180.629 181.027 180.638 181.021 180.621 180.976 180.593 178.914 
179.418 179.259 179.727 179.463 179.86 179.507 179.871 179.503 179.872 
179.513 179.879 179.531 179.89 179.543 177.802 178.291 178.126 178.59 
178.353 178.758 178.447 178.799 178.477 178.816 178.523 178.85 178.561 
178.876 178.57 178.878 178.529 176.735 177.194 177.038 177.482 177.261 
177.669 177.384 177.758 177.463 177.83 177.56 177.914 177.643 177.963 
177.668 177.959 177.636 177.898 177.541 176.117 175.23 175.928 176.391 
174.175 174.96 175.415 176.147 176.574 172.994 173.826 174.288 175.092 
175.528 176.277 176.68 171.818 172.631 173.112 173.938 174.42 175.207 
175.657 176.381 176.789 170.709 171.479 171.947 172.768 173.282 174.109 
174.608 175.369 175.817 176.514 176.917 169.676 170.396 170.818 171.6 
172.077 172.938 173.447 174.29 174.744 175.51 175.919 176.63 177.002 
168.707 169.387 169.785 170.496 170.92 171.718 172.202 173.069 173.548 
174.379 174.804 175.578 175.976 176.689 177.035 167.777 168.428 168.822 
169.5 169.917 170.626 171.08 171.857 172.35 173.173 173.662 174.461 
174.915 175.656 176.048 176.714 177.023 166.905 167.506 167.882 168.547 
168.976 169.669 170.117 170.819 171.275 172.029 172.525 173.334 173.841 
174.622 175.06 175.745 176.076 176.688 176.943 176.679 175.827 176.174 
176.007 174.823 175.259 175.063 175.463 175.298 173.571 174.114 173.876 
174.389 174.148 174.656 174.428 172.214 172.753 172.469 173.049 172.772 
173.358 173.057 173.619 173.262 170.976 171.42 171.096 171.606 171.313 
171.899 171.598 172.17 171.79 172.321 171.924 169.822 170.225 169.86 
170.288 169.927 170.442 170.101 170.671 170.284 170.831 170.437 170.999 
170.716 168.641 169.038 168.625 169.044 168.612 169.067 168.634 169.152 
168.714 169.276 168.868 169.483 169.2 169.871 169.707 167.52 167.849 
167.408 167.787 167.345 167.752 167.294 167.722 167.256 167.73 167.314 
167.889 167.604 168.3 168.143 168.878 168.75 166.557 166.797 166.354 
166.636 166.199 166.528 166.085 166.444 165.995 166.38 165.976 166.435 
166.151 166.744 166.594 167.297 167.203 167.921 167.815 178.593 178.564 
178.932 179.625 178.457 178.853 179.584 179.987 180.768 178.398 178.784 
179.58 179.984 180.871 181.252 182.058 178.282 178.731 179.555 180.017 
180.951 181.401 182.274 182.55 183.1 178.005 178.52 179.261 179.846 
180.688 181.33 182.16 182.654 183.186 183.356 183.555 177.691 178.186 
178.837 179.397 180.081 180.786 181.512 182.244 182.799 183.247 183.482 
183.619 183.732 177.4 177.88 178.528 178.99 179.605 180.136 180.794 
181.466 182.118 182.721 183.164 183.478 183.711 183.828 184.015 177.071 
177.569 178.222 178.7 179.314 179.756 180.381 180.888 181.58 182.14 
182.776 183.199 183.636 183.836 184.098 184.161 184.318 176.729 177.209 
177.823 178.338 178.941 179.438 180.031 180.531 181.163 181.706 182.343 
182.854 183.371 183.731 184.056 184.225 184.378 184.409 184.458 178.737 
179.831 179.282 179.194 181.003 180.429 180.373 179.687 179.436 182.221 
181.651 181.61 180.907 180.636 179.85 179.487 183.14 182.753 182.72 
182.147 181.929 181.121 180.725 179.877 179.473 183.572 183.412 183.424 
183.117 183.055 182.44 182.136 181.229 180.748 179.839 179.362 183.831 
183.735 183.846 183.695 183.777 183.444 183.305 182.613 182.125 181.165 
180.52 179.624 179.085 184.131 184.042 184.209 184.11 184.207 184.025 
183.913 183.527 183.08 182.37 181.639 180.748 180.043 179.275 178.807 
184.358 184.316 184.427 184.409 184.436 184.332 184.121 183.884 183.431 
183.014 182.364 181.698 180.972 180.207 179.634 179.001 178.642 184.457 
184.447 184.494 184.515 184.523 184.461 184.242 184.005 183.559 183.223 
182.705 182.263 181.702 181.077 180.508 179.831 179.378 178.822 178.491 
178.1 178.491 177.941 177.174 178.691 178.239 177.471 176.955 176.201 
178.736 178.354 177.566 177.135 176.346 175.928 175.168 178.713 178.365 
177.56 177.143 176.264 175.899 175.099 174.787 173.957 178.593 178.31 
177.527 177.124 176.223 175.78 174.938 174.624 173.886 173.532 172.682 
178.38 178.15 177.436 177.095 176.297 175.827 175.04 174.594 173.919 
173.526 172.81 172.32 171.491 178.218 177.98 177.355 177.039 176.358 
175.957 175.27 174.823 174.158 173.699 172.975 172.479 171.652 171.154 
170.356 178.13 177.9 177.329 177.021 176.373 176.026 175.366 175.012 
174.323 173.917 173.121 172.638 171.757 171.266 170.428 170.015 169.31 
178.003 177.822 177.257 176.994 176.329 176.016 175.321 175.019 174.303 
173.963 173.152 172.717 171.846 171.369 170.562 170.111 169.423 169.034 
168.439 179.954 180.327 180.487 181.108 180.406 180.762 181.465 181.651 
182.2 180.301 180.737 181.475 181.847 182.414 182.581 182.974 180.134 
180.572 181.261 181.728 182.362 182.676 183.146 183.277 183.711 179.873 
180.334 180.955 181.445 182.121 182.572 183.232 183.492 184.064 184.152 
184.644 179.533 180.019 180.648 181.124 181.776 182.284 183.012 183.509 
184.203 184.498 184.969 185.026 185.219 179.177 179.67 180.342 180.834 
181.466 181.932 182.539 183.111 183.743 184.339 184.776 185.111 185.186 
185.236 185.069 178.832 179.3 179.938 180.486 181.116 181.603 182.105 
182.574 183.048 183.645 184.076 184.612 184.755 184.993 184.852 184.877 
184.678 178.516 178.925 179.455 180 180.6 181.167 181.702 182.152 
182.595 183.021 183.468 183.926 184.253 184.546 184.597 184.663 184.569 
184.558 184.493 
POINT_DATA 1002
SCALARS Distance double
LOOKUP_TABLE default
175.467 176.286 175.419 174.503 174.445 174.507 173.399 173.364 173.418 
173.366 172.172 172.179 172.181 172.168 172.16 170.869 170.978 170.848 
170.851 170.905 171.021 169.566 169.846 169.45 169.459 169.542 169.73 
169.967 168.304 168.718 168.037 168.018 168.149 168.354 168.659 168.981 
167.102 167.553 166.732 166.613 166.772 167.024 167.314 167.684 168.045 
165.973 166.43 165.6 165.369 165.418 165.7 166.018 166.37 166.775 
167.149 164.918 165.426 164.569 164.292 164.156 164.317 164.67 165.05 
165.478 165.933 166.338 176.584 175.663 176.909 175.963 177.214 174.664 
176.29 177.511 174.968 173.567 176.588 177.808 175.294 173.864 172.373 
176.787 177.985 175.514 174.146 172.663 171.218 176.916 178.057 175.633 
174.294 172.896 171.491 170.118 177.068 178.173 175.777 174.403 173.02 
171.656 170.33 168.953 177.175 178.276 175.893 174.516 173.14 171.792 
170.494 169.174 167.774 177.147 178.228 175.889 174.545 173.227 171.967 
170.743 169.493 168.135 166.719 177.366 176.152 176.408 175.153 175.49 
174.773 174.152 174.427 173.653 173.362 172.825 173.101 172.369 172.113 
172.07 171.322 171.794 170.816 170.667 170.852 170.907 170.185 170.667 
169.561 169.248 169.488 169.782 169.713 169.338 169.622 168.86 168.337 
168.217 168.472 168.564 168.349 168.43 168.666 168.146 167.68 167.254 
167.173 167.234 167.085 166.824 167.479 167.86 167.15 166.744 166.28 
165.98 165.873 165.711 165.45 165.317 164.048 163.787 162.521 163.839 
162.027 160.892 164.103 161.92 160.178 159.351 164.353 162.167 159.968 
158.66 158.133 164.614 162.57 160.354 158.686 157.836 157.347 165.062 
163.114 161.13 159.468 158.345 157.538 156.99 165.638 163.87 162.104 
160.588 159.385 158.293 157.386 156.997 166.201 164.712 163.159 161.712 
160.475 159.283 158.095 157.348 157.25 166.759 165.488 164.136 162.762 
161.464 160.272 159.056 158.014 157.551 157.623 163.563 162.083 163.257 
160.537 161.802 162.986 159.065 160.313 161.592 162.922 157.807 158.909 
160.313 161.743 163.222 157.01 157.729 159.151 160.75 162.222 163.677 
156.87 157.135 158.165 159.771 161.329 162.754 164.174 157.202 157.239 
157.704 158.892 160.424 161.91 163.367 164.742 157.644 157.664 157.812 
158.479 159.693 161.125 162.617 164.053 165.289 158.054 158.081 158.511 
158.546 159.125 158.149 159.338 160.141 158.854 158.519 160.568 161.467 
159.967 159.565 159.398 161.941 162.807 161.268 160.793 160.523 160.634 
163.261 164.057 162.561 162.017 161.689 161.725 162.109 164.534 165.265 
163.87 163.33 162.979 162.941 163.236 163.661 165.809 166.487 165.168 
164.659 164.357 164.282 164.428 164.708 165.006 167.108 167.711 166.474 
165.921 165.608 165.547 165.621 165.745 165.903 166.106 158.002 158.488 
158.738 159.309 159.85 159.105 160.508 161.137 160.139 160.001 161.872 
162.461 161.476 161.276 161.243 163.252 163.809 162.862 162.671 162.575 
162.602 164.615 165.147 164.222 164.051 163.948 163.866 163.899 165.979 
166.439 165.614 165.466 165.394 165.26 165.151 165.146 167.301 167.642 
167.02 166.888 166.835 166.73 166.578 166.435 166.383 168.478 168.704 
168.311 168.214 168.129 168.038 167.971 167.852 167.677 167.609 167.738 
166.544 167.655 166.334 167.489 165.224 166.16 167.357 164.995 163.877 
166.179 167.398 164.922 163.678 162.501 166.297 167.505 165.007 163.658 
162.35 161.216 166.427 167.657 165.12 163.756 162.418 161.176 160.033 
166.726 167.951 165.403 164.019 162.668 161.405 160.13 158.911 167.18 
168.331 165.906 164.546 163.159 161.834 160.535 159.233 158.173 168.794 
168.807 169.833 169.884 170.997 168.805 170.997 172.29 169.9 168.668 
172.259 173.559 171.039 169.845 168.571 173.513 174.632 172.326 171.117 
169.852 168.624 174.593 175.63 173.526 172.419 171.185 169.917 168.73 
175.652 176.642 174.592 173.564 172.445 171.218 170.016 168.915 176.679 
177.506 175.685 174.668 173.611 172.469 171.313 170.211 169.206 177.5 
178.17 176.683 175.772 174.763 173.671 172.578 171.504 170.46 169.518 