# vtk DataFile Version 4.0
vtk output
ASCII
DATASET POLYDATA
POINTS 1002 float
-105.407 -121.491 76.5093 -106.244 -122.426 76.1409 -105.831 -121.968 75.3398 
-105.035 -120.905 75.7147 -105.499 -121.299 74.611 -104.477 -120.553 76.9256 
-104.729 -120.095 74.9929 -105.217 -120.393 74.027 -104.112 -119.895 76.1221 
-103.536 -119.527 77.3902 -104.32 -119.154 74.3694 -104.941 -119.332 73.4431 
-103.788 -118.926 75.3704 -103.182 -118.649 76.5924 -102.794 -117.984 77.8219 
-103.837 -118.146 73.6542 -104.683 -118.187 72.8128 -103.267 -117.872 74.6485 
-102.838 -117.432 75.7991 -102.391 -116.875 77.0363 -102.171 -116.164 78.1509 
-103.46 -116.976 72.9446 -104.406 -116.969 72.3 -102.631 -116.831 73.8387 
-102.187 -116.364 74.9949 -101.769 -115.835 76.2158 -101.385 -115.36 77.3732 
-101.238 -114.883 78.4829 -103.115 -115.71 72.4559 -103.989 -115.818 71.8585 
-102.099 -115.68 73.1546 -101.391 -115.469 74.173 -100.886 -115.135 75.3861 
-100.348 -114.866 76.575 -100.081 -114.517 77.7428 -100.094 -114.028 78.9286 
-102.62 -114.625 71.9902 -103.42 -114.862 71.3255 -101.653 -114.52 72.6642 
-100.791 -114.436 73.491 -100.209 -114.261 74.5617 -99.651 -114.09 75.7543 
-99.2325 -113.868 76.9625 -99.202 -113.438 78.1831 -99.3462 -112.91 79.345 
-102.035 -113.736 71.3803 -102.821 -114.002 70.7736 -101.24 -113.5 72.106 
-100.454 -113.293 72.9034 -99.871 -113.024 73.8233 -99.4454 -112.697 74.9086 
-99.0707 -112.411 76.0968 -98.9304 -112.12 77.3068 -99.0217 -111.787 78.4818 
-99.1395 -111.475 79.5503 -101.52 -112.871 70.7741 -102.314 -113.126 70.3341 
-100.886 -112.545 71.4544 -100.279 -112.166 72.2852 -99.6918 -111.752 73.1716 
-99.2486 -111.298 74.134 -98.9656 -110.857 75.2191 -98.8534 -110.51 76.3742 
-98.9291 -110.275 77.5019 -99.0568 -110.137 78.5694 -99.1294 -110.055 79.5747 
-106.793 -123.008 75.209 -106.365 -122.584 74.3601 -107.494 -123.387 74.1421 
-107.148 -122.875 73.3592 -108.494 -123.438 73.154 -106.05 -121.83 73.6738 
-108.321 -122.638 72.5194 -109.675 -123.262 72.3241 -106.94 -121.916 72.7361 
-105.889 -120.707 73.1023 -109.55 -122.28 71.7361 -110.73 -123.062 71.3812 
-108.115 -121.576 71.9231 -106.811 -120.709 72.1534 -105.759 -119.448 72.538 
-110.529 -122.098 70.7465 -111.666 -122.778 70.3112 -109.185 -121.323 71.0659 
-107.772 -120.611 71.2576 -106.561 -119.553 71.6042 -105.494 -118.218 72.0301 
-111.43 -121.753 69.7336 -112.614 -122.26 69.4396 -110.124 -121.08 70.0602 
-108.721 -120.466 70.3099 -107.346 -119.636 70.6149 -106.13 -118.382 71.0961 
-105.072 -117.02 71.5596 -112.298 -121.168 68.8641 -113.451 -121.641 68.6894 
-111.065 -120.575 69.1091 -109.751 -120.033 69.3855 -108.334 -119.395 69.6649 
-106.916 -118.411 70.0509 -105.691 -117.176 70.5682 -104.588 -115.937 71.0304 
-112.999 -120.645 67.9788 -114.123 -121.075 67.852 -111.862 -120.087 68.2084 
-110.681 -119.536 68.5341 -109.344 -118.939 68.8771 -107.901 -118.159 69.2002 
-106.576 -117.184 69.625 -105.366 -116.07 70.1394 -104.102 -114.958 70.5438 
-113.619 -120.182 67.1594 -114.77 -120.5 67.0976 -112.484 -119.725 67.348 
-111.373 -119.208 67.661 -110.125 -118.607 68.0637 -108.739 -117.884 68.4655 
-107.476 -117.061 68.8916 -106.337 -116.091 69.4265 -105.055 -114.997 69.929 
-103.623 -113.973 70.2156 -114.743 -119.634 66.6044 -113.444 -119.307 66.6776 
-114.671 -118.538 66.3938 -113.221 -118.181 66.3903 -114.459 -117.316 66.241 
-112.189 -118.873 66.8263 -112.861 -116.908 66.1127 -114.072 -116.139 66.0465 
-111.777 -117.738 66.3571 -110.9 -118.33 67.0981 -112.32 -115.671 66.004 
-113.484 -114.929 66.1327 -111.195 -116.445 66.0391 -110.245 -117.172 66.5456 
-109.448 -117.633 67.5286 -111.561 -114.284 66.32 -112.575 -113.553 66.5718 
-110.466 -115.068 66.217 -109.52 -115.813 66.3706 -108.74 -116.427 67.0669 
-108.11 -116.821 68.0798 -110.646 -112.669 66.8516 -111.459 -112.189 67.1506 
-109.713 -113.397 66.7737 -108.83 -114.197 66.7997 -108.105 -114.895 67.0821 
-107.55 -115.461 67.876 -107.024 -115.849 68.7772 -109.861 -111.216 67.4843 
-110.532 -111.003 67.8875 -109.147 -111.705 67.3653 -108.347 -112.441 67.4933 
-107.534 -113.15 67.6737 -106.893 -113.748 68.108 -106.396 -114.27 68.8525 
-105.79 -114.69 69.4863 -109.342 -110.051 68.2919 -109.933 -109.898 68.7413 
-108.758 -110.383 68.0508 -108.047 -110.96 68.1916 -107.123 -111.587 68.4993 
-106.213 -112.105 68.7535 -105.534 -112.581 69.1176 -104.93 -113.078 69.5646 
-104.245 -113.566 69.8971 -108.889 -108.942 69.1097 -109.447 -108.786 69.4884 
-108.289 -109.232 68.8359 -107.581 -109.688 68.8747 -106.664 -110.207 69.1914 
-105.649 -110.669 69.4198 -104.777 -111.098 69.4574 -104.05 -111.573 69.5477 
-103.341 -112.112 69.7399 -102.716 -112.659 69.9796 -101.369 -112.015 70.136 
-101.744 -111.424 69.7103 -100.603 -110.673 69.9653 -102.425 -110.761 69.4331 
-100.964 -109.953 69.3941 -100.042 -109.081 69.9648 -103.243 -110.097 69.3996 
-101.675 -109.086 69.042 -100.394 -108.162 69.2865 -99.6744 -107.348 70.2063 
-104.055 -109.5 69.6247 -102.489 -108.184 69.1224 -101.057 -107.046 68.9033 
-100.067 -106.18 69.5362 -99.4682 -105.484 70.5394 -104.946 -109.004 69.7674 
-103.242 -107.443 69.509 -101.827 -106.037 69.0007 -100.695 -104.953 69.1542 
-99.9277 -104.089 69.8858 -99.2782 -103.496 70.7485 -105.953 -108.572 69.6226 
-104.106 -106.95 69.7944 -102.7 -105.346 69.3936 -101.594 -104.058 69.1872 
-100.593 -102.894 69.4827 -99.8248 -102.044 70.0933 -99.2057 -101.755 70.9498 
-106.932 -108.166 69.4957 -105.172 -106.642 69.9113 -103.768 -104.952 69.8104 
-102.812 -103.49 69.5207 -101.71 -102.157 69.494 -100.623 -101.031 69.7731 
-99.9107 -100.496 70.421 -99.4727 -100.519 71.4292 -107.785 -107.846 69.612 
-106.272 -106.45 70.043 -104.9 -104.825 70.175 -104.05 -103.227 69.984 
-103.132 -101.763 69.8208 -101.892 -100.534 69.9125 -100.883 -99.7783 70.3078 
-100.283 -99.5179 71.0945 -99.8867 -99.569 72.1619 -108.489 -107.672 69.8835 
-107.225 -106.373 70.2528 -105.927 -104.901 70.5017 -105.035 -103.332 70.4746 
-104.315 -101.766 70.3093 -103.281 -100.428 70.3259 -102.173 -99.5365 70.5961 
-101.339 -99.0264 71.1149 -100.696 -98.7551 71.9264 -100.174 -98.7253 72.9217 
-100.694 -111.637 70.6586 -100.076 -110.086 70.7077 -100.212 -111.111 71.494 
-99.5603 -108.397 70.9501 -99.6016 -109.407 71.7089 -99.6351 -110.558 72.4556 
-99.1232 -106.692 71.2427 -98.9066 -107.756 71.9435 -98.8165 -108.93 72.6678 
-98.9533 -110.124 73.4087 -98.753 -104.825 71.4386 -98.3032 -106.034 72.0418 
-97.9909 -107.404 72.7333 -97.9954 -108.779 73.5947 -98.4764 -109.769 74.4425 
-98.5356 -103.011 71.6362 -97.9602 -104.162 72.1856 -97.604 -105.507 72.7994 
-97.3852 -107.289 73.7749 -97.6211 -108.627 74.8125 -98.3493 -109.382 75.6367 
-98.7671 -101.635 72.081 -98.0716 -102.684 72.6471 -97.6462 -103.628 73.2364 
-97.3837 -105.168 74.2498 -97.242 -107.047 75.4312 -97.6964 -108.205 76.2369 
-98.5055 -109.007 76.8277 -99.3024 -100.532 72.788 -98.6604 -101.628 73.3928 
-98.0509 -102.474 74.0156 -97.6224 -103.396 75.0064 -97.32 -104.962 76.2373 
-97.3891 -106.604 77.0379 -98.0587 -107.716 77.4065 -98.7795 -108.777 77.8863 
-99.686 -99.4976 73.5464 -99.2538 -100.569 74.188 -98.6784 -101.61 74.8431 
-98.0333 -102.448 75.7428 -97.5725 -103.46 76.8779 -97.4667 -104.867 77.7094 
-97.843 -106.249 78.0262 -98.5079 -107.446 78.3209 -98.9837 -108.715 78.9042 
-100.041 -98.4048 74.0679 -99.6629 -99.2758 74.7777 -100.129 -98.4414 75.3651 
-99.8066 -99.2711 76.126 -100.634 -98.7154 76.8014 -99.3094 -100.367 75.5004 
-100.177 -99.3257 77.5929 -101.25 -98.7884 78.2669 -99.3851 -100.195 76.9631 
-98.6966 -101.457 76.3406 -100.534 -99.3712 79.0928 -101.633 -98.835 79.6693 
-99.5681 -100.07 78.5238 -98.7986 -101.289 77.8974 -98.0712 -102.491 77.3484 
-100.844 -99.7326 80.5284 -101.986 -99.2804 81.0128 -99.8146 -100.242 80.0594 
-99.132 -101.223 79.4314 -98.4904 -102.557 78.6977 -97.852 -103.668 78.1757 
-101.333 -100.275 81.864 -102.448 -99.8168 82.2849 -100.226 -100.759 81.4375 
-99.5213 -101.485 80.9304 -99.09 -102.691 80.088 -98.5639 -103.912 79.1998 
-98.0649 -105.003 78.579 -101.908 -100.659 83.0795 -102.901 -100.231 83.3976 
-100.884 -101.237 82.6379 -100.042 -101.972 82.2032 -99.5099 -103.026 81.5966 
-99.1083 -104.213 80.6613 -98.7383 -105.273 79.6945 -98.5144 -106.343 78.933 
-102.474 -101.138 84.0684 -103.435 -100.805 84.2405 -101.583 -101.709 83.6966 
-100.78 -102.517 83.2131 -100.06 -103.549 82.7607 -99.4559 -104.651 82.2052 
-99.074 -105.663 81.3657 -98.9252 -106.672 80.3934 -98.9244 -107.727 79.5474 
-103.171 -101.888 84.7362 -104.154 -101.564 84.8152 -102.273 -102.42 84.5146 
-101.53 -103.186 84.0821 -100.832 -104.163 83.5918 -100.071 -105.197 83.2132 
-99.4509 -106.14 82.7624 -99.1771 -107.086 81.9958 -99.1285 -108.127 81.0548 
-99.1344 -109.142 80.2237 -100.801 -97.9894 73.0581 -100.718 -97.7086 74.2776 
-101.771 -97.5279 73.3554 -101.895 -97.2962 74.6895 -102.938 -97.5114 73.9314 
-101.052 -97.9144 75.7713 -103.299 -97.2389 75.3326 -104.153 -97.9163 74.6908 
-102.389 -97.4226 76.3751 -101.749 -98.1639 77.3993 -104.802 -97.4379 75.972 
-105.549 -98.2858 75.314 -103.806 -97.0705 77.007 -102.88 -97.4519 78.0593 
-102.263 -98.1106 78.8979 -106.396 -97.6237 76.4173 -106.911 -98.5171 75.7361 
-105.432 -97.0435 77.4557 -104.108 -97.1249 78.5293 -103.134 -97.6407 79.412 
-102.58 -98.3601 80.2263 -107.612 -98.0632 76.7948 -107.877 -99.1283 76.1868 
-107.048 -97.3785 77.7924 -105.808 -97.4268 78.8474 -104.427 -97.9239 79.6875 
-103.587 -98.425 80.5587 -103.051 -99.0469 81.4985 -108.459 -99.007 77.2025 
-108.705 -100.101 76.6846 -108.162 -98.1776 78.1091 -107.409 -98.06 79.1968 
-106.209 -98.5033 80.0199 -105.105 -98.8896 80.7829 -104.291 -99.1621 81.7708 
-103.57 -99.6133 82.7185 -109.438 -99.9888 77.5719 -109.64 -100.945 77.0748 
-109.179 -99.142 78.3601 -108.642 -98.7896 79.4757 -107.782 -98.9274 80.4906 
-106.84 -99.1288 81.2654 -105.905 -99.2818 82.1192 -104.947 -99.6122 83.035 
-104.089 -100.148 83.758 -110.438 -100.73 77.8795 -110.488 -101.584 77.3323 
-110.323 -99.9052 78.5828 -109.902 -99.4232 79.6186 -109.15 -99.3189 80.8096 
[...]
CELL_DATA 2000
SCALARS Distance double
LOOKUP_TABLE default
177.465 176.524 176.819 176.456 175.512 175.83 175.451 175.783 175.417 
174.406 174.755 174.329 174.706 174.303 174.682 174.24 173.202 173.568 
173.074 173.486 173.007 173.447 172.952 173.365 172.839 171.959 172.302 
171.73 172.136 171.598 172.057 171.53 171.984 171.465 171.907 171.452 
170.727 171.034 170.401 170.754 170.177 170.614 170.111 170.567 170.101 
170.545 170.147 170.613 170.299 169.507 169.796 169.147 169.446 168.842 
169.221 168.73 169.183 168.762 169.224 168.851 169.33 169.03 169.534 
169.28 168.307 168.577 167.942 168.224 167.621 167.941 167.417 167.828 
167.379 167.86 167.45 167.979 167.632 168.204 167.933 168.504 168.27 
167.17 167.398 166.776 167.05 166.473 166.763 166.215 166.55 166.044 
166.462 166.007 166.513 166.131 166.721 166.435 167.075 166.858 167.482 
167.294 177.901 178.199 177.711 176.98 178.439 177.984 177.275 176.76 
175.985 178.669 178.212 177.495 177.013 176.231 175.717 174.895 178.862 
178.428 177.674 177.198 176.404 175.918 175.091 174.581 173.726 178.922 
178.563 177.809 177.355 176.549 176.074 175.256 174.759 173.91 173.389 
172.522 178.852 178.554 177.818 177.433 176.634 176.205 175.386 174.912 
174.051 173.546 172.665 172.162 171.292 178.695 178.432 177.686 177.37 
176.587 176.236 175.433 175.012 174.142 173.654 172.753 172.268 171.394 
170.92 170.067 178.459 178.225 177.48 177.204 176.455 176.155 175.398 
175.028 174.197 173.733 172.866 172.375 171.541 171.045 170.218 169.714 
168.884 178.205 177.973 177.26 177.001 176.295 176.025 175.309 174.982 
174.196 173.782 172.973 172.522 171.764 171.274 170.511 169.95 169.133 
168.571 167.767 177.858 177.018 177.256 176.89 176.061 176.342 175.941 
176.251 175.915 174.963 175.276 174.81 175.195 174.826 175.236 174.899 
173.808 174.108 173.558 173.946 173.503 173.997 173.632 174.124 173.749 
172.553 172.892 172.285 172.65 172.131 172.596 172.205 172.747 172.419 
172.928 172.568 171.164 171.537 170.913 171.322 170.782 171.226 170.799 
171.313 171.016 171.579 171.317 171.795 171.442 169.935 170.187 169.612 
169.965 169.508 169.916 169.517 169.957 169.621 170.167 169.904 170.491 
170.168 170.641 170.199 169.064 169.166 168.672 168.866 168.517 168.805 
168.5 168.804 168.449 168.826 168.475 169.008 168.648 169.221 168.762 
169.267 168.761 168.342 168.429 167.945 168.085 167.708 167.945 167.615 
167.882 167.479 167.741 167.273 167.63 167.171 167.656 167.184 167.717 
167.226 167.766 167.334 166.425 166.209 165.84 164.964 166.134 165.65 
164.634 164.316 163.483 166.184 165.619 164.508 164.006 162.991 162.786 
162.06 166.368 165.738 164.574 163.908 162.713 162.298 161.396 161.364 
160.766 166.629 165.987 164.79 164.007 162.697 162.07 160.995 160.736 
159.998 160.06 159.49 166.847 166.264 165.1 164.269 162.95 162.162 
161.037 160.497 159.628 159.387 158.715 158.755 158.26 167.035 166.503 
165.476 164.657 163.44 162.565 161.509 160.769 159.891 159.289 158.523 
158.189 157.672 157.703 157.504 167.315 166.782 165.92 165.146 164.092 
163.206 162.249 161.427 160.615 159.819 159.054 158.359 157.8 157.447 
157.252 157.278 157.339 167.709 167.167 166.418 165.704 164.803 163.966 
163.1 162.27 161.518 160.685 159.981 159.146 158.587 157.937 157.681 
157.349 157.338 157.302 157.39 166.341 164.932 165.724 165.932 163.518 
164.319 164.556 165.376 165.644 162.181 162.941 163.175 163.989 164.258 
165.092 165.375 160.932 161.651 161.837 162.602 162.82 163.663 163.942 
164.818 165.153 159.635 160.372 160.475 161.223 161.37 162.204 162.492 
163.387 163.77 164.658 165.094 158.429 159.07 159.157 159.826 159.945 
160.741 161.091 162.009 162.518 163.384 163.896 164.717 165.248 157.755 
158.123 158.343 158.736 158.929 159.468 159.882 160.709 161.374 162.265 
162.905 163.669 164.237 164.994 165.592 157.602 157.793 158.157 158.339 
158.666 158.863 159.286 159.766 160.452 161.232 161.978 162.759 163.374 
164.088 164.683 165.43 166.057 157.58 157.755 158.143 158.355 158.77 
158.9 159.31 159.5 160.061 160.533 161.243 161.908 162.572 163.258 
163.865 164.577 165.212 165.946 166.558 157.663 158.115 157.958 158.263 
158.976 158.569 158.819 158.67 158.966 160.066 159.522 159.594 159.297 
159.558 159.375 159.59 161.087 160.548 160.505 160.094 160.266 160.026 
160.301 160.047 160.328 162.161 161.564 161.54 161.019 161.168 160.826 
161.153 160.867 161.222 160.938 161.38 163.392 162.753 162.762 162.146 
162.302 161.845 162.21 161.86 162.272 161.92 162.334 162.079 162.606 
164.568 163.998 164.024 163.427 163.568 163.059 163.408 163.016 163.458 
163.063 163.474 163.097 163.562 163.327 163.9 165.677 165.138 165.218 
164.673 164.845 164.337 164.667 164.248 164.688 164.29 164.719 164.298 
164.74 164.382 164.921 164.674 165.275 166.848 166.291 166.426 165.891 
166.118 165.617 165.952 165.511 165.925 165.521 165.943 165.539 165.964 
165.587 166.073 165.766 166.312 166.068 166.618 157.51 157.7 157.624 
157.935 158.423 158.043 158.347 158.314 158.901 159.607 158.997 159.244 
158.972 159.546 159.507 160.126 161.003 160.31 160.427 159.971 160.357 
160.203 160.72 160.681 161.16 162.333 161.696 161.757 161.181 161.375 
161.008 161.366 161.232 161.703 161.671 162.195 163.552 162.966 163.089 
162.518 162.736 162.17 162.487 162.052 162.53 162.316 162.922 162.834 
163.439 164.842 164.214 164.386 163.848 164.182 163.641 164.038 163.45 
163.904 163.42 163.978 163.695 164.286 164.118 164.641 166.192 165.567 
165.739 165.185 165.539 165.073 165.517 165.023 165.445 164.913 165.344 
164.894 165.375 165.05 165.534 165.293 165.759 167.39 166.879 167.054 
166.538 166.847 166.401 166.817 166.399 166.813 166.352 166.741 166.265 
166.684 166.244 166.696 166.312 166.774 166.462 166.937 167.752 167.372 
167.202 166.41 167.006 166.777 165.927 165.73 164.837 166.764 166.451 
165.581 165.286 164.379 164.127 163.228 166.628 166.26 165.375 165.009 
164.087 163.751 162.829 162.558 161.678 166.568 166.159 165.268 164.852 
163.931 163.531 162.599 162.233 161.315 161.032 160.168 166.634 166.175 
165.324 164.825 163.944 163.466 162.595 162.127 161.258 160.812 159.983 
159.622 158.877 166.833 166.351 165.572 165.004 164.173 163.612 162.816 
162.276 161.489 160.939 160.162 159.652 158.959 158.545 158 167.097 
166.627 165.902 165.33 164.527 163.938 163.18 162.619 161.884 161.294 
160.522 159.94 159.211 158.74 158.174 157.848 157.518 167.391 166.93 
166.242 165.685 164.909 164.323 163.594 163.04 162.366 161.772 161.045 
160.385 159.64 159.048 158.44 158.038 157.677 157.483 157.392 168.463 
169.476 168.707 168.166 170.54 169.754 169.216 168.397 167.831 171.635 
170.833 170.298 169.467 168.919 168.102 167.59 172.768 171.955 171.42 
170.565 170.024 169.209 168.729 167.927 167.47 173.862 173.096 172.566 
171.703 171.158 170.334 169.887 169.097 168.674 167.848 167.415 174.811 
174.148 173.668 172.852 172.32 171.489 171.068 170.29 169.91 169.084 
168.65 167.807 167.419 175.625 175.056 174.678 173.953 173.483 172.666 
172.253 171.486 171.143 170.344 169.914 169.046 168.608 167.823 167.521 
176.38 175.863 175.572 174.957 174.572 173.823 173.402 172.648 172.291 
171.552 171.154 170.315 169.847 169.007 168.645 167.944 167.727 177.118 
176.621 176.352 175.821 175.496 174.862 174.455 173.742 173.334 172.636 
172.255 171.513 171.086 170.259 169.857 169.083 168.822 168.167 167.998 
177.445 177.612 177.238 176.642 177.729 177.358 176.741 176.401 175.785 
177.952 177.512 176.902 176.502 175.86 175.484 174.787 178.284 177.813 
177.196 176.724 176.036 175.572 174.814 174.405 173.665 178.461 178.09 
177.415 176.992 176.225 175.741 174.888 174.426 173.618 173.266 172.555 
178.426 178.131 177.415 177.07 176.252 175.83 174.927 174.47 173.612 
173.223 172.471 172.155 171.429 178.423 178.093 177.418 177.034 176.255 
175.818 174.969 174.5 173.669 173.238 172.479 172.101 171.359 171.003 
170.259 178.502 178.164 177.543 177.127 176.424 175.937 175.179 174.648 
173.871 173.36 172.598 172.148 171.399 170.989 170.255 169.882 169.219 
178.483 178.215 177.591 177.257 176.588 176.173 175.465 174.959 174.2 
173.642 172.849 172.316 171.537 171.071 170.342 169.937 169.282 168.939 
168.372 178.181 177.262 177.589 177.266 176.294 176.606 176.312 176.645 
176.302 175.447 175.677 175.331 175.655 175.335 175.65 175.229 174.482 
174.79 174.32 174.632 174.206 174.587 174.157 174.485 173.962 173.134 
173.627 173.113 173.499 172.967 173.363 172.872 173.286 172.768 173.117 
172.562 171.623 172.169 171.752 172.202 171.717 172.095 171.604 171.985 
171.493 171.863 171.342 171.693 171.202 170.226 170.723 170.375 170.857 
170.444 170.853 170.382 170.755 170.278 170.636 170.152 170.489 170.024 
170.386 169.992 168.924 169.373 168.976 169.48 169.05 169.531 169.043 
169.485 168.994 169.414 168.941 169.322 168.869 169.234 168.847 169.244 
168.939 167.711 168.078 167.616 168.065 167.607 168.088 167.617 168.091 
167.633 168.094 167.662 168.089 167.658 168.057 167.662 168.087 167.788 
168.243 168.02 178.597 178.994 178.444 177.702 179.457 178.887 178.125 
177.489 176.737 179.869 179.391 178.668 177.972 177.154 176.556 175.882 
180.032 179.745 179.069 178.47 177.546 176.927 176.109 175.663 174.921 
179.829 179.743 179.082 178.695 177.681 177.132 176.113 175.71 174.815 
174.471 173.54 179.316 179.347 178.703 178.525 177.551 177.094 175.979 
175.547 174.537 174.207 173.223 172.899 171.947 178.702 178.723 178.107 
178.056 177.239 176.913 175.879 175.401 174.368 173.936 172.961 172.577 
171.642 171.336 170.515 178.202 178.131 177.521 177.475 176.791 176.606 
175.732 175.33 174.337 173.852 172.875 172.415 171.499 171.11 170.287 
169.998 169.259 177.842 177.705 177.08 176.967 176.316 176.185 175.43 
175.161 174.251 173.828 172.852 172.383 171.459 171.035 170.206 169.847 
169.093 168.793 168.091 179.16 180.076 179.618 179.605 181.137 180.613 
180.618 180.069 180.028 182.441 181.863 181.876 181.156 181 180.421 
180.329 183.584 183.204 183.314 182.565 182.29 181.444 181.136 180.599 
180.425 184.223 184.095 184.256 183.855 183.613 182.796 182.299 181.483 
181.102 180.581 180.274 184.611 184.514 184.571 184.441 184.264 183.838 
183.355 182.633 182.085 181.37 180.909 180.333 179.857 184.923 184.814 
184.779 184.633 184.449 184.211 183.81 183.381 182.833 182.259 181.689 
181.054 180.483 179.861 179.299 185.098 185.028 184.962 184.823 184.631 
184.403 184.04 183.686 183.163 182.739 182.168 181.692 181.103 180.529 
179.938 179.33 178.804 185.228 185.138 185.017 184.911 184.7 184.56 
184.235 183.944 183.433 183.008 182.419 182.003 181.446 181.022 180.471 
179.961 179.426 178.878 178.413 185.298 185.141 185.145 184.954 184.841 
184.869 184.623 184.705 184.557 184.505 184.544 184.254 184.305 184.096 
184.267 184.085 183.948 184.142 183.802 183.874 183.534 183.706 183.435 
183.644 183.283 182.978 183.397 183.058 183.268 182.819 183.013 182.62 
182.87 182.47 182.674 182.235 181.821 182.319 182.047 182.367 181.91 
182.153 181.705 181.978 181.582 181.823 181.418 181.625 181.252 180.727 
181.204 180.973 181.318 180.885 181.157 180.711 181.016 180.644 180.936 
180.567 180.807 180.442 180.68 180.323 179.652 180.128 179.88 180.248 
179.819 180.11 179.666 179.995 179.635 179.978 179.618 179.915 179.535 
179.822 179.461 179.725 179.339 178.539 179.01 178.745 179.139 178.736 
179.047 178.624 178.952 178.606 178.961 178.617 178.931 178.544 178.851 
178.493 178.816 178.479 178.738 178.36 177.846 176.828 177.571 178 
175.784 176.521 176.908 177.643 177.985 174.608 175.417 175.769 176.523 
176.858 177.585 177.912 173.233 174.127 174.476 175.31 175.649 176.444 
176.814 177.556 177.922 171.894 172.743 173.139 173.979 174.356 175.193 
175.601 176.428 176.827 177.58 177.921 170.753 171.508 171.946 172.728 
173.156 173.945 174.381 175.2 175.63 176.431 176.793 177.529 177.839 
169.718 170.426 170.83 171.594 172.023 172.803 173.228 174.017 174.443 
175.237 175.639 176.395 176.76 177.468 177.815 168.722 169.395 169.748 
170.474 170.861 171.646 172.044 172.846 173.239 174.046 174.45 175.249 
175.659 176.415 176.806 177.499 177.84 167.778 168.418 168.766 169.423 
169.785 170.498 170.891 171.652 172.049 172.833 173.233 174.042 174.463 
175.281 175.696 176.465 176.816 177.499 177.76 177.452 176.509 176.883 
176.648 175.372 175.834 175.579 176.019 175.801 174.12 174.614 174.345 
174.849 174.601 175.112 174.872 172.877 173.343 173.064 173.572 173.302 
173.827 173.529 174.062 173.71 171.68 172.109 171.794 172.283 171.973 
172.484 172.118 172.639 172.221 172.76 172.324 170.514 170.908 170.535 
170.992 170.621 171.114 170.699 171.193 170.737 171.245 170.807 171.347 
170.951 169.414 169.75 169.332 169.723 169.299 169.74 169.307 169.773 
169.333 169.803 169.382 169.877 169.509 170.042 169.722 168.385 168.671 
168.212 168.537 168.073 168.444 167.998 168.419 168.001 168.449 168.044 
168.507 168.129 168.635 168.31 168.863 168.594 167.374 167.634 167.122 
167.414 166.912 167.245 166.784 167.166 166.75 167.164 166.761 167.193 
166.799 167.271 166.926 167.458 167.186 167.768 167.565 178.86 179.138 
179.307 179.93 179.357 179.566 180.196 180.391 181.053 179.476 179.718 
180.33 180.599 181.309 181.567 182.283 179.568 179.823 180.45 180.715 
181.459 181.784 182.565 182.804 183.398 179.56 179.906 180.616 180.905 
181.697 181.986 182.763 183.017 183.595 183.737 184.082 179.343 179.799 
180.529 181.001 181.831 182.238 182.996 183.232 183.741 183.851 184.197 
184.287 184.568 179.067 179.513 180.165 180.725 181.505 182.14 182.918 
183.366 183.884 184.023 184.349 184.412 184.764 184.831 185.115 178.844 
179.256 179.867 180.329 181.013 181.63 182.395 183.048 183.678 184.066 
184.425 184.569 184.852 184.984 185.268 185.333 185.448 178.568 179.024 
179.636 180.067 180.681 181.165 181.828 182.441 183.092 183.677 184.112 
184.473 184.671 184.906 185.037 185.266 185.343 185.46 185.41 178.912 
179.977 179.407 179.313 181.127 180.513 180.429 179.799 179.572 182.352 
181.711 181.632 180.964 180.759 179.998 179.552 183.416 182.892 182.764 
182.145 181.937 181.22 180.81 179.905 179.319 184.097 183.769 183.634 
183.153 182.913 182.316 181.917 181.128 180.53 179.626 179.061 184.576 
184.309 184.224 183.878 183.701 183.217 182.856 182.152 181.537 180.703 
180.041 179.302 178.815 185.022 184.744 184.587 184.335 184.201 183.915 
183.669 183.094 182.513 181.659 180.921 180.136 179.552 178.97 178.545 
185.288 185.079 184.76 184.546 184.289 184.196 183.998 183.757 183.272 
182.603 181.826 180.998 180.325 179.665 179.209 178.673 178.281 185.31 
185.199 184.854 184.625 184.261 184.139 183.884 183.835 183.439 183.117 
182.395 181.773 181.029 180.408 179.891 179.352 178.948 178.414 178.018 
178.306 178.692 178.18 177.495 178.872 178.478 177.79 177.319 176.562 
178.694 178.439 177.718 177.462 176.744 176.315 175.502 178.38 178.107 
177.322 177.188 176.54 176.351 175.634 175.213 174.374 178.252 177.879 
177.103 176.82 176.195 176.049 175.445 175.219 174.463 174.039 173.135 
178.207 177.885 177.212 176.803 176.155 175.83 175.218 174.98 174.297 
174.007 173.171 172.723 171.768 178.011 177.827 177.232 176.937 176.288 
175.914 175.233 174.863 174.162 173.834 173.09 172.716 171.879 171.378 
170.523 177.724 177.581 176.997 176.831 176.218 175.97 175.304 174.942 
174.223 173.813 173.091 172.694 171.968 171.525 170.774 170.271 169.582 
177.459 177.299 176.718 176.559 175.983 175.809 175.204 174.949 174.269 
173.905 173.171 172.766 172.044 171.642 170.94 170.514 169.837 169.406 
168.801 179.056 179.06 179.346 179.91 179.012 179.311 179.903 180.214 
180.906 179.077 179.334 179.964 180.234 180.932 181.292 182.102 179.123 
179.445 180.113 180.374 181.042 181.329 182.052 182.464 183.184 178.901 
179.369 180.018 180.439 181.075 181.415 182.043 182.392 183.032 183.412 
183.94 178.558 179.036 179.635 180.148 180.731 181.235 181.822 182.288 
182.888 183.283 183.825 184.102 184.482 178.36 178.75 179.347 179.755 
180.305 180.769 181.352 181.901 182.52 183.041 183.574 183.963 184.346 
184.589 184.827 178.231 178.608 179.204 179.553 180.104 180.449 181.059 
181.499 182.185 182.658 183.216 183.611 183.97 184.316 184.574 184.842 
185.008 178.009 178.42 178.963 179.369 179.893 180.279 180.897 181.333 
182.086 182.5 183.13 183.375 183.732 183.933 184.206 184.501 184.785 
185.025 185.204 
POINT_DATA 1002
SCALARS Distance double
LOOKUP_TABLE default
177.114 178.091 177.192 176.153 176.23 176.105 175.111 175.196 175.093 
175.056 173.961 174.062 173.917 173.902 173.766 172.683 172.863 172.581 
172.527 172.431 172.322 171.361 171.655 171.148 171.067 170.999 170.97 
171.067 170.089 170.439 169.756 169.631 169.638 169.668 169.805 170.029 
168.86 169.225 168.494 168.279 168.284 168.368 168.518 168.77 169.042 
167.648 168.049 167.319 167.052 166.924 166.933 167.054 167.329 167.704 
168.067 166.497 166.966 166.183 165.92 165.677 165.534 165.558 165.786 
166.195 166.677 167.14 178.422 177.521 178.656 177.775 178.887 176.53 
177.977 179.147 176.736 175.428 178.164 179.28 176.884 175.594 174.256 
178.248 179.243 177.02 175.747 174.429 173.049 178.174 179.143 177.034 
175.85 174.563 173.163 171.785 177.983 178.961 176.904 175.827 174.627 
173.239 171.861 170.539 177.732 178.686 176.726 175.738 174.633 173.336 
172.027 170.738 169.379 177.503 178.428 176.546 175.614 174.579 173.38 
172.207 171.061 169.737 168.286 177.646 176.622 176.789 175.617 175.782 
175.587 174.431 174.678 174.384 174.508 173.219 173.53 173.026 173.102 
173.289 171.931 172.203 171.708 171.663 171.852 172.118 170.482 170.81 
170.332 170.31 170.429 170.772 171.063 169.272 169.727 169.086 169.11 
169.136 169.304 169.641 169.803 168.502 168.966 168.245 168.223 168.172 
168.044 168.083 168.222 168.263 167.824 168.239 167.513 167.371 167.257 
167.013 166.766 166.666 166.667 166.749 165.56 165.213 164.12 165.072 
163.618 162.714 165.123 163.33 162.03 161.442 165.329 163.273 161.539 
160.626 160.235 165.622 163.421 161.4 160.049 159.325 158.916 165.917 
163.765 161.667 160.048 158.794 158.032 157.839 166.225 164.292 162.267 
160.597 159.033 157.747 157.243 157.434 166.613 164.926 163.064 161.419 
159.832 158.302 157.355 157.162 157.426 167.068 165.577 163.91 162.33 
160.807 159.308 158.156 157.535 157.322 157.427 165.117 163.723 164.83 
162.39 163.416 164.53 161.124 162.003 163.046 164.251 159.761 160.545 
161.567 162.867 164.193 158.538 159.177 160.115 161.597 163.094 164.403 
157.998 158.498 159.116 160.422 162.11 163.515 164.796 157.952 158.526 
158.979 159.77 161.174 162.658 163.955 165.301 157.891 158.591 159.198 
159.758 160.662 161.898 163.165 164.477 165.861 157.675 158.312 158.363 
159.036 159.532 159.113 160.002 160.668 159.748 159.818 160.98 161.619 
160.536 160.52 160.571 162.098 162.771 161.545 161.427 161.517 161.584 
163.394 164.015 162.798 162.565 162.641 162.662 162.759 164.589 165.103 
164.093 163.816 163.847 163.891 163.872 164.059 165.726 166.204 165.34 
165.105 165.084 165.136 165.135 165.217 165.49 166.946 167.395 166.608 
166.409 166.346 166.347 166.35 166.412 166.594 166.856 157.431 157.771 
157.903 158.461 158.908 158.813 159.627 160.289 159.648 160.182 161.017 
161.705 160.643 160.785 161.198 162.371 162.926 161.889 161.599 161.716 
162.198 163.603 164.131 163.297 163.025 162.842 163.035 163.535 164.91 
165.486 164.647 164.604 164.489 164.385 164.518 164.807 166.308 166.784 
166.002 165.97 165.98 165.869 165.782 165.827 165.972 167.548 167.841 
167.308 167.234 167.25 167.21 167.146 167.126 167.139 167.213 167.951 
166.588 167.579 166.168 167.275 165.028 165.912 167.109 164.665 163.446 
165.762 167.016 164.454 163.145 161.899 165.702 166.987 164.343 162.998 
161.656 160.393 165.839 167.079 164.432 163.061 161.729 160.392 159.169 
166.137 167.286 164.743 163.347 162.042 160.7 159.398 158.312 166.459 
167.549 165.112 163.727 162.47 161.144 159.726 158.513 157.702 169.202 
168.973 170.257 170.036 171.333 168.644 171.136 172.442 169.726 168.39 
172.291 173.577 170.837 169.514 168.287 173.424 174.59 171.986 170.656 
169.495 168.244 174.435 175.411 173.15 171.829 170.724 169.515 168.193 
175.326 176.141 174.278 173.025 171.911 170.796 169.434 168.2 176.126 
176.878 175.269 174.171 173.013 171.951 170.718 169.39 168.348 176.863 