# vtk DataFile Version 4.0
vtk output
ASCII
DATASET POLYDATA
POINTS 1002 float
-104.145 -122.544 76.439 -104.984 -123.232 76.2215 -104.91 -122.591 75.6171 
-104.144 -121.696 75.8341 -104.841 -121.794 74.9709 -103.481 -121.506 76.6549 
-104.092 -120.667 75.1877 -104.664 -120.903 74.2872 -103.538 -120.327 76.0734 
-103.009 -119.932 77.0036 -103.867 -119.599 74.4833 -104.492 -119.865 73.6586 
-103.466 -119.069 75.4695 -102.937 -118.632 76.4669 -102.394 -118.246 77.4768 
-103.656 -118.428 73.8203 -104.457 -118.686 73.0928 -103.186 -117.922 74.7798 
-102.691 -117.465 75.8591 -101.929 -117.296 76.8893 -101.417 -116.968 77.8952 
-103.498 -117.196 73.1784 -104.421 -117.506 72.5306 -102.784 -116.835 74.0202 
-102.242 -116.478 75.0889 -101.42 -116.413 76.1261 -100.652 -116.348 77.1554 
-100.381 -115.92 78.2592 -103.26 -116.048 72.5893 -104.312 -116.293 72.1462 
-102.263 -115.846 73.1958 -101.608 -115.593 74.1816 -100.915 -115.46 75.2584 
-100.146 -115.422 76.2655 -99.7325 -115.174 77.4168 -99.6102 -114.763 78.7065 
-103.087 -114.834 72.2876 -104.221 -114.938 72.0494 -101.841 -114.843 72.5592 
-100.988 -114.725 73.2819 -100.433 -114.471 74.381 -99.8651 -114.252 75.4728 
-99.4674 -114.025 76.556 -99.2827 -113.745 77.8276 -99.1221 -113.479 79.1896 
-103.055 -113.47 72.1757 -104.097 -113.607 71.9719 -101.771 -113.55 72.2907 
-100.718 -113.585 72.6983 -100.116 -113.377 73.5741 -99.6903 -113.046 74.7206 
-99.3571 -112.749 75.8701 -99.187 -112.508 77.019 -99.0373 -112.299 78.2944 
-98.8895 -112.086 79.5937 -102.96 -112.223 71.9079 -103.84 -112.544 71.6832 
-101.869 -112.128 72.089 -100.798 -112.129 72.4244 -100.039 -112.033 73.0209 
-99.5728 -111.786 73.9414 -99.2552 -111.484 75.133 -99.0937 -111.224 76.3432 
-99.0173 -111.019 77.5048 -98.9221 -110.829 78.723 -98.8723 -110.629 79.915 
-105.785 -123.569 75.5206 -105.67 -122.898 74.8274 -106.521 -124.033 74.6471 
-106.363 -123.361 73.8894 -107.238 -124.511 73.7494 -105.549 -122.101 74.1371 
-107.16 -123.763 73.0281 -108.211 -124.648 73.0144 -106.318 -122.459 73.2559 
-105.439 -121.125 73.5216 -108.255 -123.751 72.2818 -109.425 -124.358 72.3561 
-107.244 -122.719 72.4025 -106.332 -121.336 72.7031 -105.372 -120.021 72.9486 
-109.442 -123.498 71.4579 -110.579 -124.042 71.5557 -108.317 -122.735 71.5105 
-107.226 -121.575 71.7477 -106.18 -120.288 72.0303 -105.285 -118.956 72.299 
-110.563 -123.337 70.6229 -111.662 -123.864 70.6893 -109.418 -122.621 70.6885 
-108.217 -121.648 70.8491 -106.956 -120.545 71.0287 -105.91 -119.332 71.2802 
-105.163 -117.829 71.7275 -111.737 -123.002 70.0121 -112.753 -123.515 69.9972 
-110.57 -122.298 70.116 -109.345 -121.431 70.2108 -108.048 -120.47 70.3097 
-106.743 -119.435 70.4303 -105.779 -118.082 70.8258 -105.083 -116.426 71.5199 
-112.862 -122.31 69.5794 -113.721 -122.898 69.5058 -111.736 -121.628 69.6699 
-110.426 -120.968 69.6216 -109.193 -120.223 69.6625 -107.948 -119.275 69.8596 
-106.701 -118.064 70.1473 -105.752 -116.532 70.7553 -104.99 -114.925 71.5275 
-113.76 -121.608 69.1453 -114.503 -122.259 69.076 -112.745 -120.94 69.1767 
-111.353 -120.477 68.9445 -110.012 -120.045 68.7979 -108.949 -119.232 69.1338 
-107.83 -118.021 69.6239 -106.641 -116.61 70.0963 -105.652 -115.103 70.7731 
-104.777 -113.686 71.4228 -114.763 -121.357 68.5999 -113.886 -120.681 68.6522 
-114.978 -120.591 68.0764 -113.798 -120.041 68.0272 -115.032 -119.637 67.6829 
-112.521 -120.197 68.3949 -113.466 -118.945 67.5764 -114.712 -117.989 67.5428 
-112.038 -119.584 67.5752 -110.85 -119.903 67.961 -112.897 -117 67.4188 
-113.97 -116.23 67.6649 -111.545 -118.005 67.2211 -110.341 -118.866 67.3921 
-109.591 -119.232 68.1598 -112.297 -115.343 67.6393 -113.182 -115.154 68.1939 
-111.189 -115.845 67.3249 -110.129 -116.744 67.5106 -109.349 -117.59 68.1632 
-108.686 -117.946 68.9761 -111.954 -114.315 68.4002 -112.685 -114.146 69.0388 
-111.016 -114.465 67.8983 -110.1 -114.866 67.9823 -109.331 -115.567 68.575 
-108.522 -116.197 69.1793 -107.571 -116.482 69.6446 -111.729 -112.967 69.3503 
-112.308 -112.668 69.8294 -110.926 -113.301 68.8767 -110.019 -113.72 68.7626 
-109.233 -114.2 69.1397 -108.401 -114.67 69.5715 -107.341 -114.971 69.8427 
-106.338 -115.052 70.2163 -111.283 -111.396 70.1128 -111.787 -111.263 70.5112 
-110.632 -111.668 69.7724 -109.763 -112.188 69.6355 -108.883 -112.794 69.8123 
-108.078 -113.253 70.0911 -107.084 -113.536 70.2272 -105.991 -113.643 70.4059 
-105.21 -113.627 70.8534 -110.649 -110.228 70.7958 -111.17 -110.279 71.2213 
-110.072 -110.212 70.4571 -109.304 -110.419 70.2935 -108.385 -110.861 70.3227 
-107.528 -111.306 70.4545 -106.644 -111.674 70.5425 -105.577 -112.015 70.5855 
-104.644 -112.237 70.7804 -104.125 -112.348 71.2066 -102.95 -111.363 71.3314 
-103.206 -111.038 70.8617 -102.031 -110.121 70.8764 -103.843 -110.571 70.5938 
-102.349 -109.516 70.4671 -101.428 -108.761 70.783 -104.917 -109.912 70.5295 
-103.175 -108.584 70.3394 -101.931 -107.846 70.5435 -101.274 -107.237 71.281 
-106.01 -109.406 70.5267 -104.385 -107.713 70.3479 -102.941 -106.745 70.5533 
-101.94 -106.195 71.2485 -101.239 -105.504 71.9513 -106.962 -109.193 70.5932 
-105.545 -107.461 70.5207 -104.237 -106.131 70.692 -103.046 -105.283 71.3433 
-102.012 -104.542 71.9545 -101.126 -103.623 72.3214 -107.953 -109.082 70.7448 
-106.606 -107.641 70.9549 -105.451 -106.197 71.1044 -104.387 -104.916 71.5166 
-103.246 -103.828 71.9633 -102.136 -102.797 72.2256 -101.214 -101.867 72.5694 
-108.878 -109.072 70.9513 -107.64 -107.837 71.4198 -106.523 -106.421 71.7019 
-105.583 -104.907 71.8815 -104.631 -103.478 72.0543 -103.541 -102.217 72.1917 
-102.472 -101.204 72.4772 -101.597 -100.589 73.0471 -109.597 -109.206 71.2703 
-108.531 -108.008 71.7927 -107.498 -106.567 72.1781 -106.564 -104.986 72.324 
-105.749 -103.422 72.3616 -104.888 -102.009 72.4199 -103.888 -100.872 72.6184 
-102.885 -100.159 73.0859 -102.047 -99.8991 73.7598 -110.216 -109.354 71.6998 
-109.276 -108.171 72.1744 -108.363 -106.726 72.5358 -107.454 -105.19 72.7108 
-106.641 -103.645 72.7895 -105.921 -102.171 72.9051 -105.123 -100.96 73.0979 
-104.186 -100.132 73.4295 -103.246 -99.6943 73.9493 -102.46 -99.5805 74.5925 
-102.06 -110.956 71.5681 -101.282 -109.629 71.356 -101.109 -110.694 72.0234 
-100.868 -108.211 71.5849 -100.52 -109.189 72.1492 -100.21 -110.525 72.6209 
-100.71 -106.519 72.1041 -100.165 -107.578 72.4749 -99.7053 -108.852 72.8725 
-99.5316 -110.353 73.3019 -100.472 -104.485 72.4946 -99.8919 -105.596 72.8224 
-99.359 -106.987 73.2179 -99.0995 -108.552 73.6692 -99.1296 -110.098 74.3526 
-100.298 -102.493 72.7876 -99.6111 -103.429 73.1322 -99.147 -104.824 73.6454 
-98.9337 -106.51 74.2505 -98.9064 -108.201 74.9615 -98.9761 -109.795 75.7275 
-100.534 -101.035 73.2885 -99.6366 -101.709 73.6113 -99.0744 -102.836 74.1341 
-98.9361 -104.438 74.8873 -98.9785 -106.17 75.7042 -98.9671 -107.88 76.445 
-98.9655 -109.542 77.0371 -101.029 -100.225 73.9979 -100.06 -100.684 74.3264 
-99.2869 -101.42 74.8016 -98.9655 -102.69 75.5283 -99.0341 -104.315 76.3897 
-99.093 -105.985 77.1645 -99.0215 -107.687 77.7749 -98.9534 -109.355 78.2666 
-101.525 -99.8202 74.7964 -100.597 -100.135 75.1399 -99.7075 -100.519 75.6417 
-99.0877 -101.315 76.332 -98.9453 -102.69 77.1219 -99.052 -104.321 77.8591 
-99.0763 -105.967 78.494 -99.0082 -107.623 79.0349 -98.9339 -109.211 79.4988 
-102.342 -99.431 75.6767 -101.39 -99.7013 75.9776 -102.347 -99.247 77.0568 
-101.314 -99.5375 77.52 -102.42 -99.1884 78.6482 -100.393 -99.918 76.5002 
-101.279 -99.5297 79.2856 -102.445 -99.3537 80.2343 -100.182 -99.7297 78.2563 
-99.4521 -100.257 77.2528 -101.268 -99.7288 80.9808 -102.395 -99.5081 81.7566 
-100.127 -99.9103 80.0884 -99.278 -100.256 79.1129 -98.9298 -101.237 78.0613 
-101.298 -99.985 82.4916 -102.419 -99.7455 83.1752 -100.293 -100.398 81.6777 
-99.4576 -100.78 80.7888 -98.9661 -101.536 79.7848 -98.9056 -102.852 78.7408 
-101.503 -100.524 83.7175 -102.66 -100.476 84.2599 -100.539 -100.956 83.0028 
-99.8104 -101.484 82.2107 -99.2575 -102.183 81.312 -98.9725 -103.306 80.3126 
-98.996 -104.638 79.3448 -101.95 -101.459 84.6098 -103.031 -101.507 85.0117 
-100.919 -101.735 84.039 -100.074 -102.181 83.4463 -99.4446 -102.83 82.772 
-99.0449 -103.896 81.8793 -98.9482 -105.16 80.8877 -99.0063 -106.377 79.9324 
-102.433 -102.419 85.3953 -103.369 -102.412 85.6828 -101.479 -102.681 84.8994 
-100.508 -103.064 84.3831 -99.6384 -103.563 83.9722 -99.0558 -104.498 83.3585 
-98.8954 -105.75 82.4129 -98.979 -106.916 81.392 -98.9976 -108.033 80.4237 
-102.789 -103.243 86.1931 -103.676 -103.201 86.3428 -101.982 -103.536 85.7794 
-101.161 -104.001 85.1501 -100.257 -104.494 84.6956 -99.4189 -105.243 84.3675 
-98.998 -106.368 83.69 -99.0265 -107.499 82.6855 -99.0877 -108.505 81.6967 
-98.9773 -109.56 80.7943 -103.385 -99.4042 75.1609 -103.363 -99.0731 76.4207 
-104.493 -99.3449 75.8862 -104.573 -98.7537 77.2364 -105.684 -99.3444 76.5839 
-103.457 -98.7662 77.9227 -105.85 -98.6012 77.902 -106.806 -99.4372 77.2058 
-104.683 -98.377 78.6762 -103.546 -98.8513 79.4444 -107.085 -98.8184 78.4728 
-107.774 -99.8546 77.8569 -106.027 -98.3419 79.2228 -104.758 -98.6945 80.0583 
-103.561 -99.2149 80.91 -108.136 -99.5513 79.065 -108.622 -100.638 78.4438 
-107.4 -98.8337 79.8153 -106.206 -98.8681 80.6813 -104.867 -99.251 81.5546 
-103.593 -99.4646 82.4311 -108.979 -100.568 79.5834 -109.483 -101.468 78.8795 
-108.466 -99.7861 80.4834 -107.606 -99.4228 81.4726 -106.373 -99.4877 82.3103 
-105.043 -99.6926 83.0604 -103.747 -99.9677 83.7792 -109.825 -101.482 80.06 
-110.366 -102.197 79.3271 -109.292 -100.811 81.0585 -108.613 -100.275 82.1685 
-107.63 -100.018 82.9976 -106.466 -100.127 83.5721 -105.209 -100.506 84.1758 
-103.987 -100.975 84.7026 -110.673 -102.283 80.5737 -111.081 -102.985 79.8277 
-110.193 -101.647 81.5595 -109.544 -101.137 82.653 -108.624 -100.837 83.4523 
-107.591 -100.826 83.9247 -106.526 -101.122 84.4492 -105.352 -101.568 85.0156 
-104.235 -101.986 85.4054 -111.311 -103.15 81.0227 -111.559 -103.879 80.2462 
-111.027 -102.445 81.9819 -110.544 -101.914 83.0218 -109.685 -101.701 83.8094 
[...]
CELL_DATA 2000
SCALARS Distance double
LOOKUP_TABLE default
177.396 176.58 176.824 176.445 175.621 175.918 175.484 175.766 175.31 
174.538 174.858 174.371 174.7 174.194 174.523 174.031 173.423 173.709 
173.167 173.51 172.992 173.347 172.851 173.207 172.745 172.313 172.551 
171.929 172.259 171.719 172.109 171.615 172.002 171.542 171.929 171.522 
171.22 171.406 170.692 170.978 170.383 170.794 170.294 170.725 170.248 
170.678 170.262 170.719 170.395 170.184 170.315 169.55 169.742 169.088 
169.444 168.942 169.38 168.924 169.36 168.946 169.418 169.109 169.629 
169.403 169.186 169.3 168.528 168.646 167.949 168.199 167.672 168.059 
167.634 168.061 167.683 168.133 167.842 168.346 168.143 168.68 168.508 
168.188 168.304 167.539 167.648 166.929 167.111 166.53 166.84 166.39 
166.797 166.434 166.893 166.613 167.112 166.91 167.436 167.276 167.811 
167.664 177.822 178.197 177.684 177.014 178.569 178.036 177.33 176.82 
176.089 178.956 178.411 177.689 177.14 176.393 175.851 175.064 179.286 
178.785 178.066 177.514 176.748 176.176 175.387 174.817 174.005 179.502 
179.061 178.353 177.858 177.08 176.522 175.702 175.139 174.331 173.768 
172.948 179.707 179.271 178.595 178.118 177.365 176.823 175.983 175.42 
174.579 174.053 173.248 172.706 171.886 179.916 179.505 178.85 178.375 
177.637 177.105 176.284 175.705 174.845 174.282 173.456 172.947 172.154 
171.635 170.838 179.992 179.668 178.987 178.579 177.795 177.328 176.514 
176.003 175.18 174.602 173.759 173.175 172.36 171.848 171.073 170.582 
169.814 179.93 179.662 178.974 178.622 177.812 177.393 176.564 176.152 
175.39 174.929 174.145 173.553 172.714 172.105 171.309 170.789 170.045 
169.56 168.817 179.687 179.043 179.149 178.703 178.359 178.471 177.903 
178.03 177.489 177.284 177.607 176.945 177.13 176.47 176.703 176.196 
175.726 176.208 175.495 175.91 175.209 175.585 175.068 175.447 175.052 
174.391 174.636 173.912 174.288 173.656 174.161 173.727 174.259 173.912 
174.326 173.88 173.636 173.632 172.978 173.012 172.483 172.749 172.457 
172.93 172.689 173.14 172.718 173.043 172.47 172.906 172.998 172.415 
172.398 171.902 171.953 171.679 171.917 171.727 172.026 171.647 171.888 
171.319 171.575 171.024 171.953 172.152 171.567 171.738 171.186 171.367 
170.947 171.209 170.875 171.155 170.704 170.897 170.281 170.461 169.86 
170.166 169.707 171.09 171.202 170.6 170.766 170.156 170.405 169.825 
170.187 169.633 170.059 169.443 169.808 169.081 169.361 168.644 168.962 
168.402 168.84 168.435 167.532 167.416 166.952 165.983 167.546 166.879 
165.761 165.329 164.45 167.874 167.056 165.769 165.14 164.139 163.881 
163.276 168.227 167.385 166.021 165.222 164.123 163.668 163.022 162.888 
162.44 168.55 167.761 166.518 165.62 164.562 163.864 163.201 162.814 
162.349 162.109 161.545 168.92 168.199 167.215 166.324 165.432 164.569 
163.921 163.252 162.736 162.22 161.629 161.194 160.55 169.383 168.727 
167.975 167.184 166.446 165.585 164.917 164.117 163.503 162.791 162.14 
161.494 160.854 160.345 159.891 169.927 169.321 168.705 168.015 167.36 
166.581 165.876 165.073 164.37 163.601 162.923 162.174 161.555 160.88 
160.446 159.965 159.797 170.507 169.946 169.405 168.77 168.158 167.438 
166.743 165.96 165.251 164.464 163.823 163.051 162.514 161.766 161.378 
160.732 160.552 160.099 160.119 167.365 165.83 166.633 166.69 164.383 
165.109 165.212 165.991 166.12 163.287 163.825 163.931 164.592 164.756 
165.505 165.733 162.381 162.841 162.862 163.415 163.508 164.189 164.416 
165.211 165.558 161.293 161.798 161.67 162.275 162.266 162.947 163.122 
163.911 164.291 165.143 165.611 160.186 160.578 160.344 160.931 160.904 
161.635 161.853 162.659 163.096 163.939 164.498 165.318 165.861 159.57 
159.66 159.456 159.748 159.773 160.343 160.689 161.468 162.04 162.861 
163.501 164.296 164.919 165.664 166.214 159.558 159.404 159.298 159.26 
159.315 159.536 159.902 160.485 161.142 161.917 162.634 163.398 164.056 
164.784 165.386 166.072 166.607 159.911 159.651 159.609 159.409 159.45 
159.394 159.639 159.925 160.488 161.121 161.851 162.59 163.283 163.986 
164.617 165.289 165.874 166.506 167.028 160.173 160.598 160.188 159.883 
161.23 160.695 160.336 159.934 159.7 162.06 161.422 161.004 160.453 
160.173 159.822 159.816 162.942 162.31 161.919 161.25 160.959 160.432 
160.456 160.191 160.576 163.812 163.206 162.941 162.287 162.1 161.441 
161.49 161.032 161.437 161.246 161.888 164.837 164.161 163.993 163.378 
163.334 162.71 162.807 162.246 162.595 162.244 162.83 162.666 163.322 
166.058 165.329 165.191 164.531 164.534 163.951 164.077 163.557 163.849 
163.447 163.94 163.674 164.27 164.082 164.674 167.26 166.596 166.5 
165.825 165.823 165.192 165.299 164.767 165.03 164.631 165.074 164.784 
165.33 165.082 165.631 165.41 165.938 168.334 167.762 167.726 167.127 
167.153 166.524 166.618 166.024 166.257 165.794 166.208 165.885 166.402 
166.137 166.646 166.388 166.86 166.631 167.089 160.538 161.382 160.91 
160.955 162.403 161.827 161.81 161.409 161.588 163.472 162.86 162.781 
162.308 162.462 162.143 162.422 164.623 163.964 163.897 163.326 163.457 
163.067 163.359 163.034 163.304 165.915 165.224 165.25 164.581 164.756 
164.202 164.514 164.062 164.36 163.928 164.172 167.233 166.588 166.707 
166.059 166.305 165.67 165.985 165.382 165.69 165.12 165.398 164.882 
165.198 168.5 167.915 168.086 167.523 167.799 167.229 167.503 166.893 
167.134 166.533 166.8 166.234 166.545 166.025 166.394 169.72 169.185 
169.389 168.875 169.16 168.647 168.896 168.322 168.501 167.923 168.148 
167.626 167.92 167.405 167.706 167.215 167.542 170.84 170.38 170.599 
170.144 170.432 169.962 170.227 169.674 169.859 169.26 169.471 168.938 
169.234 168.739 169.025 168.507 168.758 168.285 168.574 170.676 170.573 
170.291 169.582 170.351 170.104 169.327 169.087 168.298 170.115 169.831 
169.029 168.771 167.943 167.711 166.876 170.018 169.654 168.867 168.526 
167.72 167.395 166.546 166.26 165.418 170.005 169.619 168.835 168.447 
167.64 167.253 166.399 166.017 165.146 164.834 164.026 170.039 169.635 
168.87 168.456 167.638 167.209 166.336 165.912 165.046 164.663 163.858 
163.534 162.794 170.199 169.744 169.034 168.563 167.804 167.293 166.466 
165.938 165.132 164.665 163.95 163.527 162.843 162.434 161.766 170.48 
169.998 169.33 168.821 168.124 167.578 166.834 166.233 165.49 164.918 
164.274 163.773 163.176 162.668 162.044 161.551 160.983 170.812 170.336 
169.704 169.179 168.511 167.964 167.271 166.687 165.975 165.379 164.717 
164.184 163.597 163.089 162.507 161.97 161.42 160.928 160.517 171.324 
172.28 171.632 171.265 173.27 172.599 172.245 171.559 171.113 174.331 
173.614 173.252 172.554 172.144 171.389 170.911 175.424 174.699 174.32 
173.59 173.197 172.449 172.021 171.238 170.807 176.464 175.781 175.422 
174.685 174.288 173.53 173.128 172.368 171.963 171.186 170.784 177.468 
176.814 176.505 175.795 175.417 174.647 174.237 173.477 173.088 172.334 
171.941 171.168 170.793 178.441 177.824 177.543 176.877 176.542 175.792 
175.39 174.605 174.211 173.454 173.087 172.327 171.97 171.209 170.91 
179.306 178.76 178.491 177.891 177.591 176.908 176.545 175.776 175.384 
174.602 174.237 173.478 173.14 172.391 172.092 171.372 171.143 180.063 
179.575 179.331 178.793 178.524 177.922 177.609 176.915 176.548 175.785 
175.41 174.643 174.297 173.553 173.246 172.535 172.285 171.614 171.426 
180.408 180.732 180.277 179.689 181.047 180.591 179.962 179.513 178.887 
181.315 180.873 180.219 179.764 179.088 178.66 177.984 181.551 181.115 
180.43 179.977 179.253 178.819 178.087 177.68 176.939 181.691 181.313 
180.602 180.155 179.384 178.935 178.155 177.742 176.965 176.57 175.804 
181.687 181.388 180.715 180.306 179.539 179.063 178.273 177.815 177.041 
176.605 175.83 175.425 174.685 181.661 181.374 180.765 180.405 179.69 
179.232 178.468 177.986 177.242 176.755 175.994 175.505 174.74 174.326 
173.631 181.655 181.362 180.742 180.432 179.737 179.354 178.601 178.173 
177.436 176.988 176.238 175.731 174.94 174.439 173.699 173.306 172.671 
181.531 181.28 180.58 180.335 179.623 179.334 178.585 178.234 177.476 
177.105 176.353 175.934 175.147 174.66 173.886 173.426 172.755 172.393 
171.819 181.12 180.006 180.43 180.141 178.858 179.294 179.049 179.471 
179.199 177.639 178.148 177.909 178.374 178.114 178.517 178.192 176.142 
176.795 176.535 177.141 176.856 177.365 177.018 177.442 177.077 174.592 
175.212 174.942 175.612 175.336 175.974 175.642 176.178 175.814 176.289 
175.936 173.268 173.772 173.507 174.057 173.817 174.425 174.183 174.761 
174.465 174.982 174.651 175.13 174.76 171.963 172.494 172.225 172.735 
172.484 173.016 172.8 173.359 173.135 173.663 173.381 173.852 173.507 
173.936 173.549 170.565 171.126 170.86 171.429 171.159 171.706 171.428 
171.991 171.741 172.327 172.077 172.603 172.292 172.725 172.371 172.766 
172.432 169.292 169.76 169.516 170.055 169.815 170.351 170.056 170.587 
170.298 170.889 170.661 171.264 171.014 171.517 171.2 171.621 171.309 
171.724 171.474 181.565 181.809 181.286 180.416 181.83 181.443 180.572 
180.069 179.222 181.554 181.35 180.566 180.176 179.296 178.844 177.972 
181.069 180.978 180.263 180.054 179.18 178.812 177.812 177.423 176.439 
180.522 180.455 179.735 179.633 178.771 178.527 177.454 177.108 176.027 
175.747 174.83 179.96 179.902 179.17 179.07 178.235 178.038 176.995 
176.656 175.551 175.269 174.363 174.204 173.462 179.384 179.351 178.647 
178.524 177.727 177.539 176.607 176.261 175.207 174.836 173.911 173.719 
172.971 172.872 172.147 178.806 178.802 178.152 178.029 177.26 177.081 
176.251 175.965 175.016 174.603 173.639 173.317 172.5 172.345 171.595 
171.495 170.75 178.239 178.252 177.658 177.561 176.835 176.658 175.886 
175.658 174.82 174.463 173.521 173.11 172.214 171.927 171.154 170.978 
170.261 170.134 169.48 182.273 183.281 182.767 182.583 184.024 183.662 
183.523 182.958 182.573 184.607 184.278 184.097 183.704 183.329 182.762 
182.224 185.113 184.792 184.504 184.138 183.753 183.337 182.841 182.295 
181.716 185.491 185.251 184.967 184.541 184.084 183.662 183.193 182.789 
182.277 181.75 181.17 185.817 185.641 185.519 185.085 184.634 184.06 
183.52 183.075 182.585 182.191 181.645 181.151 180.561 186.151 186.006 
185.978 185.667 185.325 184.726 184.151 183.519 182.968 182.478 181.938 
181.5 180.913 180.468 179.9 186.332 186.241 186.093 185.977 185.65 
185.309 184.764 184.204 183.606 183.001 182.424 181.85 181.254 180.754 
180.181 179.772 179.259 186.276 186.208 185.862 185.839 185.417 185.344 
184.824 184.585 184.006 183.588 182.993 182.435 181.814 181.206 180.602 
180.076 179.548 179.141 178.674 186.079 185.462 185.673 185.523 184.899 
185.011 184.76 185.061 184.978 184.471 184.543 184.257 184.362 184.2 
184.515 184.434 183.865 184.132 183.952 184.005 183.755 183.844 183.669 
183.944 183.756 182.895 183.395 183.34 183.63 183.359 183.43 183.054 
183.204 182.917 183.194 182.85 181.754 182.313 182.253 182.781 182.536 
182.823 182.331 182.491 182.029 182.306 181.939 182.205 181.728 180.587 
181.116 180.963 181.542 181.297 181.763 181.3 181.58 181.057 181.346 
180.944 181.26 180.834 181.035 180.516 179.419 179.907 179.698 180.225 
179.98 180.473 180.097 180.458 179.991 180.31 179.913 180.257 179.875 
180.135 179.668 179.848 179.406 178.336 178.758 178.552 179.004 178.79 
179.238 178.95 179.315 178.933 179.249 178.877 179.221 178.869 179.177 
178.761 178.992 178.571 178.805 178.48 177.705 176.779 177.467 177.893 
175.696 176.486 176.946 177.665 178.11 174.439 175.315 175.808 176.649 
177.111 177.853 178.245 173.126 173.995 174.454 175.39 175.871 176.751 
177.154 177.905 178.228 171.903 172.69 173.077 173.971 174.434 175.397 
175.858 176.735 177.111 177.854 178.186 170.832 171.536 171.907 172.66 
173.088 173.967 174.473 175.4 175.869 176.704 177.084 177.825 178.162 
169.879 170.542 170.946 171.607 172.024 172.751 173.243 174.085 174.604 
175.46 175.889 176.679 177.019 177.762 178.053 168.974 169.621 170.029 
170.691 171.104 171.776 172.215 172.955 173.439 174.245 174.702 175.49 
175.869 176.609 176.939 177.64 177.927 168.11 168.722 169.102 169.762 
170.159 170.839 171.241 171.945 172.369 173.122 173.57 174.343 174.772 
175.51 175.906 176.595 176.962 177.593 177.912 177.754 176.773 177.246 
177.137 175.678 176.178 176.029 176.515 176.311 174.499 175.009 174.822 
175.343 175.128 175.61 175.363 173.262 173.761 173.527 174.078 173.85 
174.38 174.104 174.605 174.29 172.045 172.491 172.195 172.732 172.469 
173.036 172.717 173.255 172.864 173.397 172.985 170.9 171.281 170.921 
171.39 171.07 171.613 171.26 171.797 171.364 171.893 171.456 172.015 
171.655 169.803 170.142 169.731 170.129 169.741 170.214 169.816 170.319 
169.881 170.388 169.974 170.512 170.194 170.777 170.564 168.748 169.052 
168.614 168.954 168.515 168.904 168.444 168.882 168.419 168.914 168.524 
169.076 168.802 169.381 169.193 169.793 169.667 167.764 168.022 167.577 
167.865 167.407 167.717 167.221 167.559 167.062 167.483 167.091 167.636 
167.396 168.009 167.861 168.466 168.357 168.959 168.9 180.545 180.603 
180.888 181.53 180.538 180.902 181.554 181.897 182.603 180.382 180.803 
181.515 181.903 182.627 182.984 183.71 180.213 180.658 181.416 181.853 
182.595 182.982 183.686 184.057 184.746 179.979 180.467 181.19 181.695 
182.417 182.881 183.551 183.969 184.622 185.027 185.628 179.64 180.163 
180.831 181.37 182.04 182.581 183.247 183.753 184.407 184.857 185.457 
185.822 186.259 179.256 179.782 180.439 180.964 181.592 182.127 182.772 
183.35 184.022 184.573 185.161 185.595 186.006 186.305 186.532 178.848 
179.374 180.016 180.554 181.159 181.672 182.258 182.823 183.445 184.067 
184.607 185.151 185.476 185.897 186.058 186.394 186.484 178.411 178.923 
179.51 180.076 180.665 181.21 181.77 182.305 182.872 183.447 183.941 
184.48 184.743 185.195 185.28 185.721 185.791 186.218 186.295 180.685 
181.738 181.237 181.302 182.864 182.368 182.482 181.917 181.902 183.99 
183.525 183.648 183.101 183.055 182.42 182.155 185.07 184.661 184.793 
184.245 184.155 183.511 183.192 182.47 181.982 185.95 185.673 185.832 
185.36 185.267 184.608 184.291 183.518 183.046 182.232 181.736 186.48 
186.365 186.469 186.213 186.106 185.632 185.33 184.648 184.205 183.377 
182.87 182.043 181.604 186.703 186.697 186.726 186.612 186.471 186.222 
185.924 185.507 185.079 184.46 183.918 183.156 182.602 181.876 181.43 
186.722 186.803 186.862 186.791 186.698 186.492 186.248 185.93 185.543 
185.11 184.589 184.016 183.414 182.762 182.208 181.602 181.164 186.594 
186.754 186.87 186.898 186.891 186.762 186.62 186.312 185.985 185.535 
185.05 184.537 183.979 183.429 182.88 182.31 181.832 181.292 180.897 
180.157 180.712 180.119 179.544 181.227 180.652 179.999 179.484 178.871 
181.413 181.004 180.233 179.802 179.07 178.654 177.82 181.213 180.96 
180.147 179.83 178.993 178.664 177.79 177.363 176.345 180.971 180.697 
179.943 179.646 178.858 178.523 177.709 177.306 176.446 175.913 175.049 
180.893 180.567 179.881 179.53 178.849 178.474 177.781 177.352 176.633 
176.13 175.414 174.866 174.212 180.809 180.544 179.899 179.561 178.899 
178.538 177.884 177.503 176.825 176.383 175.67 175.203 174.504 174.06 
173.392 180.609 180.425 179.814 179.552 178.877 178.56 177.87 177.556 
176.867 176.517 175.777 175.371 174.61 174.21 173.488 173.113 172.428 
180.37 180.209 179.634 179.422 178.776 178.492 177.801 177.495 176.812 
176.498 175.793 175.422 174.685 174.28 173.582 173.191 172.559 172.172 
171.584 182.211 182.261 182.567 183.143 182.231 182.537 183.128 183.428 
183.929 182.314 182.57 183.231 183.483 184.106 184.253 184.677 182.372 
182.696 183.428 183.708 184.418 184.565 185.061 185.026 185.278 182.198 
182.64 183.337 183.802 184.518 184.855 185.349 185.409 185.588 185.491 
185.566 181.909 182.355 182.949 183.489 184.15 184.715 185.282 185.579 
185.808 185.756 185.773 185.679 185.78 181.624 182.043 182.576 183.036 
183.622 184.196 184.851 185.373 185.86 185.997 186.167 185.994 186.092 
185.971 186.153 181.289 181.726 182.245 182.676 183.211 183.697 184.319 
184.9 185.54 185.978 186.382 186.434 186.587 186.417 186.535 186.392 
186.481 180.928 181.355 181.865 182.318 182.856 183.317 183.891 184.408 
185.009 185.56 186.052 186.435 186.677 186.777 186.848 186.776 186.791 
186.64 186.559 
POINT_DATA 1002
SCALARS Distance double
LOOKUP_TABLE default
177.062 177.934 177.193 176.22 176.331 176.054 175.207 175.326 175.028 
174.853 174.043 174.248 173.867 173.691 173.555 172.837 173.185 172.623 
172.488 172.378 172.305 171.632 172.125 171.32 171.218 171.143 171.107 
171.158 170.462 171.077 169.985 169.848 169.818 169.786 169.895 170.136 
169.41 170.067 168.781 168.501 168.479 168.478 168.577 168.859 169.217 
168.426 169.067 167.751 167.318 167.199 167.228 167.346 167.606 167.966 
168.345 167.421 168.078 166.77 166.268 166.007 165.968 166.109 166.388 
166.74 167.125 167.526 178.341 177.52 178.731 177.86 179.117 176.611 
178.259 179.494 176.95 175.619 178.606 179.76 177.335 175.96 174.585 
178.821 179.927 177.635 176.273 174.875 173.536 179.066 180.129 177.9 
176.564 175.113 173.752 172.459 179.323 180.298 178.162 176.852 175.44 
173.984 172.635 171.374 179.385 180.294 178.255 176.973 175.719 174.385 
172.911 171.539 170.31 179.308 180.19 178.23 176.954 175.767 174.686 
173.367 171.869 170.522 169.306 179.566 178.575 178.991 177.851 178.239 
177.287 176.733 176.883 176.255 175.871 175.012 175.287 174.745 174.63 
174.705 173.613 174.274 173.114 173.113 173.444 173.59 173.012 173.624 
172.312 172.025 172.238 172.391 172.176 172.362 172.734 171.875 171.525 
171.493 171.453 171.1 170.683 171.363 171.765 170.981 170.707 170.615 
170.522 170.141 169.604 169.295 170.481 171.026 169.959 169.532 169.243 
169.045 168.766 168.341 167.99 167.922 166.597 166.339 165.014 166.311 
164.634 163.702 166.519 164.479 163.308 162.821 166.875 164.672 163.223 
162.541 161.965 167.367 165.316 163.702 162.685 161.828 160.848 167.99 
166.291 164.692 163.374 162.153 160.912 159.896 168.663 167.274 165.775 
164.289 162.851 161.422 160.232 159.549 169.344 168.113 166.697 165.159 
163.667 162.254 160.992 160.117 159.729 170.017 168.857 167.507 166.028 
164.569 163.236 162.055 161.09 160.453 160.178 165.882 164.434 165.324 
163.342 164.021 164.927 162.364 162.886 163.622 164.703 161.072 161.579 
162.338 163.412 164.761 159.819 160.147 160.993 162.234 163.649 165.09 
159.27 159.284 159.894 161.184 162.707 164.156 165.519 159.398 159.23 
159.435 160.382 161.865 163.337 164.683 165.961 159.829 159.602 159.523 
159.965 161.122 162.574 163.944 165.229 166.437 160.516 160.223 161.058 
160.808 161.831 159.981 161.634 162.719 160.575 159.967 162.582 163.532 
161.548 160.76 160.647 163.509 164.399 162.737 162.019 161.695 161.976 
164.579 165.536 163.893 163.377 163.028 163.067 163.454 165.873 166.768 
165.124 164.587 164.271 164.253 164.506 164.854 167.15 167.864 166.479 
165.867 165.447 165.375 165.599 165.891 166.152 168.275 168.865 167.755 
167.227 166.761 166.565 166.687 166.926 167.125 167.308 160.922 161.295 
161.932 162.258 163.023 161.881 163.302 164.094 162.788 162.722 164.5 
165.277 163.892 163.695 163.666 165.899 166.572 165.354 165.025 164.829 
164.589 167.297 167.832 166.928 166.636 166.297 165.948 165.661 168.617 
169.052 168.346 168.126 167.75 167.359 167.095 166.88 169.887 170.223 
169.665 169.471 169.093 168.662 168.426 168.242 167.998 171.031 171.267 
170.881 170.754 170.459 170.025 169.728 169.551 169.284 168.995 170.986 
169.873 170.863 169.579 170.612 168.533 169.305 170.432 168.204 167.096 
169.228 170.399 168.07 166.887 165.659 169.232 170.388 168.047 166.805 
165.507 164.276 169.288 170.443 168.091 166.779 165.427 164.209 163.094 
169.504 170.655 168.311 167.013 165.61 164.363 163.282 162.155 169.838 
170.948 168.65 167.413 166.078 164.785 163.678 162.57 161.41 171.963 
171.95 172.929 172.923 173.962 171.867 173.96 175.074 172.877 171.692 
175.067 176.134 173.936 172.782 171.593 176.146 177.114 175.058 173.875 
172.731 171.568 177.187 178.106 176.185 175.013 173.827 172.708 171.55 
178.185 179.037 177.262 176.181 174.979 173.83 172.725 171.635 179.063 
179.822 178.23 177.284 176.174 175.003 173.882 172.815 171.829 179.846 
180.527 179.09 178.255 177.291 176.185 175.048 173.963 172.962 172.066 