# vtk DataFile Version 4.0
vtk output
ASCII
DATASET POLYDATA
POINTS 1002 float
-104.214 -121.367 74.7698 -104.775 -122.312 74.4146 -104.67 -121.643 73.6459 
-104 -120.559 73.9631 -104.417 -120.872 72.7347 -103.605 -120.071 75.2011 
-103.598 -119.674 73.0645 -103.961 -120.081 71.8 -103.303 -119.082 74.3823 
-103.047 -118.345 75.6807 -103.172 -118.673 72.187 -103.644 -119.034 71.0524 
-102.904 -118.075 73.5437 -102.644 -117.346 74.8826 -102.418 -116.679 76.2238 
-102.96 -117.368 71.4547 -103.603 -117.659 70.503 -102.541 -116.954 72.7408 
-102.075 -116.478 74.0866 -101.658 -115.955 75.4699 -101.375 -115.474 76.8873 
-102.709 -116.037 70.8184 -103.516 -116.319 70.0084 -102.089 -115.755 71.9534 
-101.422 -115.556 73.267 -100.759 -115.273 74.646 -100.395 -114.817 76.1462 
-100.239 -114.28 77.5157 -102.278 -114.954 70.2055 -103.263 -115.124 69.5183 
-101.393 -114.8 71.1371 -100.691 -114.633 72.3737 -100.07 -114.361 73.7719 
-99.683 -113.901 75.2681 -99.543 -113.342 76.7289 -99.5047 -112.815 77.8968 
-101.917 -113.883 69.6376 -102.942 -113.964 69.0342 -100.841 -113.897 70.387 
-100.085 -113.744 71.4833 -99.6815 -113.287 72.9209 -99.3759 -112.702 74.4286 
-99.0899 -112.183 75.8422 -98.8999 -111.752 77.0869 -98.9047 -111.411 78.1115 
-101.636 -112.782 69.1081 -102.548 -112.929 68.5545 -100.637 -112.761 69.7825 
-99.8427 -112.617 70.7412 -99.5082 -112.111 72.1445 -99.2903 -111.439 73.7126 
-98.7806 -110.959 75.0664 -98.2133 -110.662 76.2397 -98.0307 -110.403 77.3339 
-98.2814 -110.18 78.3199 -101.322 -111.828 68.599 -102.129 -112.044 68.1157 
-100.539 -111.616 69.2659 -99.8321 -111.327 70.1491 -99.4357 -110.851 71.4162 
-99.2486 -110.26 72.9808 -98.7363 -109.815 74.3812 -97.8647 -109.58 75.4829 
-97.2949 -109.393 76.5286 -97.4211 -109.188 77.5764 -97.9925 -109.012 78.527 
-105.32 -122.818 73.6105 -105.233 -122.09 72.7123 -106.047 -123.281 72.64 
-105.928 -122.52 71.6343 -106.999 -123.518 71.5415 -105.004 -121.308 71.7062 
-106.795 -122.797 70.5635 -108.127 -123.486 70.5715 -105.774 -121.687 70.7089 
-104.671 -120.44 70.8634 -107.799 -122.879 69.5913 -109.27 -123.422 69.6987 
-106.655 -121.915 69.7531 -105.656 -120.605 70.0491 -104.542 -119.212 70.2799 
-108.873 -122.783 68.5409 -110.281 -123.344 68.6221 -107.569 -121.939 68.6879 
-106.566 -120.678 69.0425 -105.59 -119.224 69.4568 -104.539 -117.777 69.7653 
-109.952 -122.406 67.5044 -111.19 -123.006 67.5273 -108.626 -121.647 67.662 
-107.393 -120.683 67.8918 -106.361 -119.344 68.3082 -105.388 -117.878 68.8409 
-104.378 -116.445 69.2507 -110.973 -121.827 66.7878 -112.124 -122.413 66.7882 
-109.766 -121.078 66.9596 -108.457 -120.383 67.0732 -107.178 -119.427 67.2523 
-106.072 -118.06 67.7514 -105.098 -116.588 68.3508 -104.088 -115.169 68.7777 
-111.92 -121.27 66.2688 -113.08 -121.758 66.3015 -110.746 -120.554 66.3585 
-109.534 -119.881 66.4271 -108.262 -119.156 66.5007 -107.018 -118.047 66.8279 
-105.91 -116.687 67.4096 -104.867 -115.294 67.9686 -103.736 -113.977 68.3387 
-112.801 -120.759 65.7077 -113.949 -121.14 65.8154 -111.564 -120.168 65.6118 
-110.335 -119.492 65.5464 -109.164 -118.757 65.6411 -108.029 -117.783 65.9885 
-106.935 -116.612 66.5355 -105.848 -115.387 67.1578 -104.645 -114.108 67.676 
-103.337 -112.935 67.9681 -114.026 -120.308 65.1786 -112.734 -119.839 64.9562 
-113.994 -119.276 64.6235 -112.564 -118.724 64.2925 -113.876 -117.976 64.458 
-111.311 -119.238 64.6451 -112.381 -117.315 64.0895 -113.641 -116.429 64.4934 
-111.013 -118.081 63.909 -109.954 -118.5 64.5754 -112.074 -115.581 64.0569 
-113.148 -114.772 64.3684 -110.764 -116.495 63.7658 -109.557 -117.185 64.077 
-108.775 -117.514 64.9992 -111.459 -113.775 64.0627 -112.429 -113.289 64.5009 
-110.377 -114.499 63.8301 -109.215 -115.4 64.0961 -108.361 -116.039 64.7971 
-107.748 -116.359 65.6815 -110.807 -112.342 64.6653 -111.813 -112.091 65.278 
-109.827 -112.632 64.1998 -108.85 -113.309 64.3126 -108.008 -114.217 64.9292 
-107.424 -114.856 65.6811 -106.741 -115.188 66.4321 -110.447 -111.227 65.772 
-111.396 -110.954 66.2585 -109.462 -111.336 65.2266 -108.521 -111.569 65.0174 
-107.678 -112.191 65.4019 -107.039 -112.943 66.0713 -106.391 -113.519 66.6629 
-105.508 -113.892 67.1618 -110.176 -110.005 66.7541 -110.943 -109.724 67.073 
-109.287 -110.19 66.4045 -108.316 -110.323 66.1423 -107.34 -110.566 66.2368 
-106.523 -110.933 66.6925 -105.804 -111.418 67.1386 -104.924 -112.029 67.3776 
-103.999 -112.58 67.595 -109.737 -108.624 67.4835 -110.372 -108.499 67.7849 
-108.986 -108.767 67.2411 -108.079 -108.952 67.0565 -107.028 -109.2 66.9943 
-105.997 -109.381 67.1429 -105.108 -109.531 67.3808 -104.21 -110.005 67.4819 
-103.266 -110.818 67.508 -102.534 -111.561 67.7009 -101.275 -110.958 67.9519 
-101.683 -110.179 67.4774 -100.707 -109.514 67.9006 -102.447 -109.132 67.2515 
-101.15 -108.451 67.3247 -100.489 -107.522 68.1169 -103.441 -108.306 67.228 
-101.912 -107.325 66.9747 -100.917 -106.306 67.4971 -100.364 -105.268 68.5246 
-104.499 -108.006 67.2414 -102.979 -106.619 66.9105 -101.664 -105.294 67.1026 
-100.762 -104.101 67.9354 -100.185 -103.262 68.9041 -105.645 -107.79 67.2857 
-104.244 -106.186 67.0715 -102.873 -104.643 67.0988 -101.617 -103.277 67.6461 
-100.73 -102.221 68.3888 -100.114 -101.477 69.2633 -106.814 -107.407 67.4298 
-105.507 -105.666 67.3675 -104.271 -104.101 67.3724 -102.976 -102.793 67.8019 
-101.811 -101.564 68.2937 -100.927 -100.487 68.8574 -100.197 -99.7194 69.6963 
-107.842 -107.173 67.6471 -106.621 -105.369 67.7411 -105.503 -103.766 67.7425 
-104.368 -102.549 68.1185 -103.208 -101.347 68.6115 -102.185 -99.9768 68.9116 
-101.226 -98.8724 69.3966 -100.38 -98.3219 70.2207 -108.687 -107.18 67.9227 
-107.595 -105.518 68.1752 -106.584 -103.911 68.2212 -105.576 -102.583 68.448 
-104.509 -101.377 68.9625 -103.544 -99.9793 69.3047 -102.621 -98.6181 69.5172 
-101.62 -97.7937 70.0466 -100.76 -97.5402 70.9337 -109.4 -107.26 68.2634 
-108.449 -105.821 68.6314 -107.576 -104.314 68.7844 -106.686 -102.854 68.9066 
-105.678 -101.485 69.2843 -104.73 -100.147 69.7191 -103.949 -98.8366 69.9458 
-103.115 -97.8088 70.2425 -102.176 -97.2709 70.9074 -101.367 -97.1153 71.8675 
-100.584 -110.639 68.5746 -100.19 -108.944 68.7592 -99.9772 -110.145 69.449 
-100.042 -106.783 69.1296 -99.6769 -108.256 69.7849 -99.4626 -109.589 70.5704 
-99.8545 -104.618 69.5142 -99.4815 -106.213 70.1407 -99.2146 -107.765 70.9947 
-99.1884 -109.093 72.0523 -99.6286 -102.637 69.8929 -99.2585 -104.139 70.5371 
-99.06 -105.882 71.3794 -99.0045 -107.465 72.5305 -98.8664 -108.709 73.6213 
-99.5546 -100.685 70.3194 -99.1031 -101.985 71.0301 -98.9381 -103.717 71.9032 
-99.0173 -105.613 73.0164 -98.7304 -107.186 74.0878 -98.0864 -108.443 74.8843 
-99.6449 -99.0193 70.7863 -99.1713 -100.049 71.5079 -98.892 -101.578 72.4587 
-98.9892 -103.561 73.6219 -98.9755 -105.442 74.6508 -98.1693 -106.946 75.3773 
-97.2921 -108.241 75.9677 -99.9019 -97.9874 71.4419 -99.4232 -98.7136 72.1084 
-99.083 -99.8993 73.0134 -98.924 -101.704 74.1691 -99.0525 -103.722 75.2287 
-98.7768 -105.425 75.9524 -97.8419 -106.815 76.5194 -97.1988 -108.067 77.0733 
-100.395 -97.4147 72.379 -99.7842 -97.9144 73.0375 -99.4085 -98.7218 73.8507 
-99.0677 -100.091 74.8245 -98.9593 -101.971 75.767 -99.0349 -103.882 76.4883 
-98.7285 -105.467 77.0747 -98.0849 -106.763 77.6332 -97.762 -107.926 78.1273 
-101.437 -96.8405 73.2783 -100.506 -97.2128 73.9912 -101.612 -96.604 74.8141 
-100.683 -97.1119 75.7055 -101.898 -96.7002 76.2382 -99.866 -97.7751 74.838 
-100.984 -97.3801 77.1984 -102.349 -97.1331 77.664 -99.9278 -97.811 76.6582 
-99.3928 -98.6681 75.7296 -101.484 -97.8821 78.6235 -102.811 -97.5272 79.2406 
-100.165 -98.2189 78.1728 -99.3697 -98.7435 77.5013 -99.031 -100.112 76.5395 
-101.969 -98.3182 80.1084 -103.12 -97.9611 80.6445 -100.658 -98.8001 79.6081 
-99.5444 -99.1448 79.0907 -99.0123 -100.139 78.214 -98.962 -102.057 77.2102 
-102.369 -98.8843 81.3785 -103.466 -98.6898 81.7538 -101.237 -99.3544 80.9336 
-99.9701 -99.7776 80.5802 -99.0723 -100.477 79.9904 -98.9095 -102.127 78.9047 
-99.0219 -104.061 77.8277 -102.864 -99.6496 82.5125 -103.967 -99.4512 82.8627 
-101.865 -100.031 82.0145 -100.664 -100.481 81.6594 -99.4332 -101.092 81.431 
-98.903 -102.391 80.698 -99.0191 -104.195 79.4717 -98.8557 -105.691 78.3993 
-103.446 -100.378 83.6285 -104.507 -100.085 83.9078 -102.487 -100.808 83.1129 
-101.46 -101.266 82.5596 -100.231 -101.824 82.2732 -99.3154 -102.823 81.9006 
-99.1432 -104.329 80.954 -99.1275 -105.821 79.7857 -98.5861 -106.975 78.8557 
-104.064 -101.109 84.4364 -105.047 -100.799 84.623 -103.069 -101.58 84.0921 
-102.091 -102.073 83.5869 -101.058 -102.62 83.111 -100.109 -103.434 82.6858 
-99.589 -104.617 81.9826 -99.4257 -105.953 80.9727 -99.1249 -107.157 80.0085 
-98.531 -108.158 79.2215 -102.575 -96.8148 72.3056 -102.652 -96.3952 73.7309 
-103.789 -96.6262 72.8714 -103.832 -96.1472 74.1972 -104.901 -96.6101 73.4307 
-102.806 -96.2235 75.1473 -105.099 -96.2344 74.6527 -106.199 -96.8126 73.8849 
-104.02 -96.1982 75.5581 -103.133 -96.5681 76.5957 -106.709 -96.6025 75.1453 
-107.576 -97.2998 74.3696 -105.574 -96.4201 76.1307 -104.47 -96.6702 77.2498 
-103.61 -97.0386 78.3163 -108.143 -97.2269 75.7512 -108.584 -98.0968 75.0044 
-107.386 -96.7116 76.8047 -106.218 -96.6607 78.054 -105.025 -96.9564 79.1696 
-104.027 -97.3725 79.9769 -109.103 -98.0523 76.3353 -109.458 -98.9868 75.6074 
-108.675 -97.3037 77.4088 -107.913 -96.7834 78.724 -106.753 -96.7869 79.9045 
-105.532 -97.3117 80.6392 -104.413 -97.9908 81.1635 -110.126 -98.8447 76.7337 
-110.519 -99.7627 76.0316 -109.603 -98.1648 77.7949 -109.014 -97.5641 79.1295 
-108.221 -97.1605 80.4073 -107.184 -97.4002 81.236 -106.035 -98.1354 81.6959 
-104.897 -98.8382 82.2226 -111.23 -99.5889 77.0428 -111.485 -100.501 76.3696 
-110.695 -98.9713 78.0547 -110.019 -98.58 79.348 -109.323 -98.1826 80.687 
-108.517 -98.0091 81.7404 -107.535 -98.397 82.3501 -106.429 -99.0236 82.8033 
-105.357 -99.5393 83.3696 -112.043 -100.428 77.3842 -112.163 -101.291 76.7074 
-111.692 -99.7684 78.3484 -111.118 -99.3968 79.5509 -110.464 -99.1274 80.8372 
[...]
CELL_DATA 2000
SCALARS Distance double
LOOKUP_TABLE default
175.854 174.878 175.236 174.885 173.716 174.134 173.735 174.128 173.681 
172.473 172.889 172.464 172.892 172.431 172.827 172.374 171.228 171.605 
171.145 171.588 171.14 171.555 171.106 171.53 171.153 169.999 170.325 
169.789 170.233 169.771 170.235 169.775 170.231 169.827 170.325 169.975 
168.803 169.076 168.461 168.848 168.346 168.825 168.369 168.855 168.43 
168.946 168.584 169.115 168.758 167.626 167.876 167.23 167.541 167.006 
167.424 166.995 167.461 167.064 167.547 167.172 167.692 167.333 167.868 
167.526 166.475 166.71 166.075 166.344 165.795 166.146 165.726 166.158 
165.804 166.245 165.863 166.307 165.896 166.402 166.027 166.617 166.339 
165.402 165.604 164.998 165.233 164.686 164.979 164.539 164.936 164.612 
165.049 164.714 165.086 164.657 165.022 164.606 165.104 164.83 165.475 
165.348 176.244 176.559 176.047 175.3 176.864 176.341 175.552 175.023 
174.183 177.144 176.622 175.843 175.296 174.462 173.879 172.996 177.431 
176.9 176.133 175.599 174.797 174.208 173.334 172.706 171.806 177.643 
177.156 176.338 175.846 175.018 174.503 173.631 173.051 172.14 171.523 
170.62 177.667 177.268 176.416 175.973 175.105 174.641 173.75 173.254 
172.348 171.814 170.907 170.33 169.435 177.593 177.231 176.423 176.008 
175.181 174.722 173.863 173.355 172.466 171.955 171.074 170.561 169.672 
169.124 168.241 177.557 177.192 176.427 176.021 175.232 174.808 174 
173.514 172.653 172.113 171.248 170.721 169.875 169.339 168.468 167.918 
167.068 177.533 177.19 176.425 176.027 175.201 174.812 173.983 173.595 
172.748 172.292 171.443 170.939 170.137 169.599 168.791 168.195 167.349 
166.772 165.977 177.268 176.398 176.611 176.11 175.387 175.621 175.044 
175.32 174.808 174.279 174.536 173.88 174.153 173.584 173.962 173.526 
172.943 173.308 172.614 172.93 172.297 172.678 172.212 172.681 172.293 
171.456 171.83 171.104 171.523 170.876 171.334 170.85 171.348 170.982 
171.458 171.065 170.31 170.45 169.704 169.983 169.35 169.822 169.393 
169.962 169.662 170.185 169.863 170.267 169.843 169.618 169.589 168.908 
168.882 168.264 168.452 168.047 168.515 168.275 168.852 168.58 169.067 
168.643 169.015 168.501 168.952 169 168.396 168.333 167.724 167.681 
167.188 167.366 167.019 167.459 167.12 167.662 167.188 167.681 167.097 
167.545 166.989 168.104 168.249 167.64 167.739 167.098 167.146 166.523 
166.609 166.04 166.273 165.725 166.132 165.546 166.06 165.446 165.991 
165.435 165.985 165.551 164.682 164.403 164.085 163.279 164.269 163.782 
162.792 162.607 161.858 164.375 163.712 162.57 162.138 161.228 161.135 
160.438 164.728 163.964 162.812 162.082 161.031 160.611 159.798 159.72 
159.105 165.213 164.448 163.369 162.497 161.401 160.665 159.754 159.308 
158.628 158.503 157.993 165.739 164.996 163.956 163.093 162.015 161.194 
160.295 159.591 158.873 158.356 157.788 157.549 157.095 166.299 165.563 
164.57 163.706 162.686 161.858 161.052 160.31 159.671 158.938 158.331 
157.697 157.164 156.8 156.429 166.866 166.166 165.295 164.436 163.548 
162.663 161.944 161.162 160.614 159.865 159.317 158.515 157.948 157.232 
156.822 156.383 156.235 167.4 166.77 166.047 165.273 164.541 163.675 
163.016 162.17 161.613 160.839 160.327 159.553 159.046 158.242 157.837 
157.133 156.964 156.505 156.584 164.616 163.307 164.048 164.228 161.969 
162.747 162.955 163.695 163.918 160.592 161.399 161.631 162.409 162.662 
163.431 163.76 159.253 160.023 160.279 161.08 161.395 162.199 162.614 
163.405 163.861 158.069 158.727 158.962 159.743 160.127 160.978 161.505 
162.337 162.862 163.595 164.01 157.061 157.592 157.749 158.46 158.847 
159.732 160.37 161.293 161.915 162.653 163.037 163.661 163.935 156.33 
156.667 156.791 157.342 157.714 158.508 159.212 160.189 160.985 161.787 
162.265 162.777 163.008 163.543 163.848 156.117 156.166 156.33 156.618 
157.023 157.568 158.273 159.124 160.038 160.922 161.638 162.178 162.536 
162.855 163.17 163.629 164.112 156.455 156.258 156.449 156.472 156.89 
157.153 157.786 158.36 159.199 160.026 160.872 161.6 162.196 162.592 
163.005 163.264 163.742 164.132 164.722 156.813 157.447 156.976 156.809 
158.267 157.722 157.595 157.153 157.211 159.34 158.67 158.548 158.018 
158.07 157.706 158.018 160.619 159.874 159.718 159.061 159.051 158.591 
158.86 158.652 159.258 161.864 161.174 161.041 160.329 160.26 159.639 
159.802 159.484 160.042 160.025 160.811 163.053 162.395 162.33 161.666 
161.626 160.932 161.012 160.503 160.96 160.817 161.58 161.592 162.248 
164.34 163.647 163.627 162.969 162.987 162.309 162.377 161.775 162.117 
161.811 162.493 162.405 163.068 162.9 163.26 165.647 164.986 164.994 
164.328 164.374 163.692 163.767 163.131 163.38 162.968 163.506 163.336 
163.956 163.777 164.185 163.838 164.06 166.845 166.262 166.296 165.689 
165.747 165.097 165.175 164.527 164.72 164.209 164.613 164.321 164.848 
164.653 165.098 164.81 165.104 164.702 164.975 157.145 157.961 157.56 
157.698 158.872 158.388 158.447 158.158 158.451 159.953 159.352 159.408 
158.987 159.297 159.05 159.536 161.321 160.61 160.742 160.141 160.499 
160.076 160.594 160.3 160.849 162.803 162.116 162.333 161.671 162.031 
161.46 161.931 161.488 161.973 161.627 162.087 164.205 163.589 163.822 
163.254 163.581 163.021 163.391 162.872 163.27 162.814 163.214 162.832 
163.268 165.562 164.957 165.163 164.645 164.965 164.471 164.82 164.301 
164.669 164.157 164.56 164.073 164.5 164.077 164.555 166.863 166.29 
166.483 165.96 166.291 165.815 166.215 165.714 166.113 165.586 165.996 
165.481 165.896 165.401 165.812 165.389 165.835 168.029 167.537 167.74 
167.258 167.584 167.14 167.557 167.108 167.526 167.031 167.41 166.903 
167.261 166.769 167.106 166.643 166.987 166.602 166.998 167.483 167.303 
166.998 166.192 167.152 166.822 165.989 165.665 164.789 166.955 166.625 
165.754 165.449 164.575 164.239 163.333 166.837 166.443 165.568 165.209 
164.329 164 163.096 162.764 161.891 166.93 166.451 165.64 165.151 
164.302 163.839 162.947 162.533 161.651 161.34 160.551 167.175 166.664 
165.903 165.358 164.545 163.978 163.111 162.543 161.67 161.192 160.399 
160.068 159.337 167.468 166.963 166.206 165.658 164.833 164.266 163.403 
162.815 161.951 161.374 160.585 160.088 159.376 158.956 158.259 167.75 
167.268 166.532 165.975 165.155 164.561 163.711 163.12 162.278 161.697 
160.91 160.375 159.683 159.181 158.539 158.038 157.447 168.034 167.566 
166.888 166.336 165.582 164.958 164.186 163.532 162.765 162.103 161.345 
160.733 160.052 159.537 158.958 158.462 157.949 157.435 157.032 168.23 
169.295 168.535 168.093 170.424 169.654 169.259 168.459 167.999 171.613 
170.82 170.443 169.653 169.22 168.367 167.85 172.826 172.031 171.632 
170.837 170.411 169.585 169.085 168.203 167.702 173.966 173.229 172.851 
172.048 171.617 170.775 170.294 169.43 168.946 168.1 167.715 175.014 
174.338 174.033 173.282 172.889 172.027 171.548 170.657 170.197 169.35 
168.974 168.185 167.912 176.041 175.386 175.118 174.44 174.103 173.302 
172.834 171.941 171.475 170.622 170.261 169.46 169.176 168.417 168.185 
177.016 176.399 176.112 175.486 175.171 174.466 174.04 173.208 172.745 
171.904 171.541 170.751 170.459 169.684 169.414 168.674 168.439 177.852 
177.309 177.005 176.425 176.113 175.485 175.123 174.384 173.971 173.163 
172.796 172.014 171.712 170.947 170.651 169.892 169.616 168.903 168.683 
178.178 178.429 177.982 177.353 178.74 178.243 177.565 177.121 176.461 
179.035 178.535 177.805 177.332 176.63 176.203 175.494 179.265 178.788 
178.041 177.558 176.836 176.382 175.647 175.187 174.404 179.491 179.02 
178.299 177.796 177.059 176.582 175.822 175.342 174.53 174.051 173.251 
179.737 179.271 178.576 178.075 177.325 176.811 176.004 175.493 174.636 
174.154 173.318 172.894 172.136 179.971 179.512 178.803 178.332 177.577 
177.071 176.24 175.686 174.794 174.256 173.391 172.935 172.148 171.772 
171.051 180.132 179.714 178.979 178.526 177.76 177.281 176.457 175.921 
175.035 174.462 173.589 173.057 172.254 171.801 171.061 170.687 170.011 
180.055 179.776 179.043 178.664 177.89 177.438 176.61 176.108 175.234 
174.697 173.827 173.292 172.479 171.973 171.216 170.758 170.063 169.689 
169.074 179.611 178.48 178.969 178.681 177.13 177.741 177.525 177.977 
177.566 175.669 176.292 176.071 176.694 176.352 176.772 176.268 174.291 
174.813 174.553 175.188 174.915 175.456 175.009 175.402 174.87 173.068 
173.499 173.216 173.748 173.51 174.043 173.663 174.089 173.587 173.975 
173.47 171.815 172.276 171.939 172.448 172.167 172.697 172.34 172.773 
172.288 172.675 172.188 172.594 172.138 170.405 170.923 170.517 171.073 
170.72 171.305 170.951 171.455 171.004 171.404 170.921 171.318 170.878 
171.292 170.876 168.986 169.468 169.061 169.592 169.237 169.809 169.481 
170.037 169.665 170.127 169.686 170.08 169.638 170.038 169.634 170.058 
169.703 167.749 168.131 167.764 168.212 167.898 168.392 168.091 168.608 
168.286 168.786 168.406 168.843 168.412 168.812 168.402 168.823 168.487 
168.943 168.688 179.954 179.965 179.561 178.731 180.006 179.546 178.686 
178.273 177.412 180.171 179.711 178.94 178.375 177.531 176.98 176.075 
180.156 179.909 179.278 178.769 177.933 177.26 176.289 175.655 174.726 
179.726 179.713 179.12 178.93 178.046 177.557 176.425 175.83 174.749 
174.279 173.412 179.14 179.122 178.446 178.456 177.556 177.335 176.122 
175.701 174.496 174.139 173.187 172.931 172.126 178.673 178.531 177.75 
177.682 176.822 176.686 175.618 175.275 174.138 173.779 172.837 172.602 
171.794 171.575 170.746 178.266 178.095 177.274 177.071 176.216 176.035 
175.144 174.864 173.909 173.525 172.625 172.295 171.491 171.226 170.409 
170.148 169.325 177.789 177.682 176.913 176.674 175.819 175.564 174.716 
174.478 173.62 173.33 172.44 172.118 171.253 170.956 170.124 169.842 
169.036 168.78 168.059 180.705 181.947 181.198 180.85 183.094 182.474 
182.185 181.31 180.885 183.919 183.511 183.28 182.575 182.103 181.287 
180.87 184.425 184.171 183.95 183.468 182.986 182.327 181.778 181.136 
180.685 184.7 184.537 184.318 183.984 183.559 183.042 182.515 181.91 
181.377 180.793 180.276 184.832 184.709 184.509 184.281 183.951 183.562 
183.152 182.621 182.162 181.522 181.012 180.35 179.818 184.956 184.82 
184.628 184.441 184.158 183.897 183.551 183.195 182.786 182.285 181.782 
181.15 180.601 179.931 179.395 185.025 184.934 184.73 184.559 184.261 
184.047 183.686 183.451 183.023 182.715 182.172 181.741 181.122 180.614 
180.016 179.467 178.916 184.886 184.907 184.693 184.606 184.291 184.116 
183.739 183.523 183.089 182.825 182.281 181.937 181.294 180.91 180.271 
179.885 179.3 178.88 178.335 184.678 184.297 184.496 184.49 183.897 
184.06 183.981 184.212 184.1 183.301 183.532 183.338 183.625 183.505 
183.749 183.563 182.368 182.737 182.502 182.872 182.745 183.091 182.931 
183.159 182.901 181.306 181.73 181.555 181.958 181.827 182.244 182.093 
182.435 182.147 182.386 182.03 180.239 180.707 180.583 181.007 180.832 
181.249 181.037 181.464 181.167 181.508 181.097 181.381 180.99 179.074 
179.608 179.472 179.98 179.759 180.188 179.879 180.311 180.002 180.431 
180.07 180.396 179.992 180.302 179.968 177.893 178.405 178.263 178.797 
178.596 179.052 178.73 179.128 178.807 179.248 178.968 179.362 179.02 
179.324 178.978 179.312 179.03 176.838 177.278 177.148 177.621 177.462 
177.904 177.639 178.009 177.701 178.1 177.853 178.281 178.011 178.357 
178.018 178.335 178.03 178.391 178.116 176.23 175.315 176.042 176.52 
174.146 175.023 175.547 176.317 176.786 172.847 173.764 174.313 175.219 
175.722 176.519 176.93 171.639 172.489 173.022 173.929 174.47 175.357 
175.834 176.609 177.01 170.46 171.296 171.788 172.664 173.199 174.098 
174.643 175.492 175.991 176.733 177.178 169.216 170.058 170.497 171.391 
171.892 172.823 173.376 174.297 174.843 175.688 176.17 176.918 177.324 
168.012 168.812 169.242 170.085 170.572 171.485 172.025 172.985 173.534 
174.471 174.965 175.819 176.234 176.992 177.34 166.911 167.675 168.16 
168.927 169.439 170.241 170.77 171.641 172.183 173.116 173.649 174.561 
175.042 175.862 176.283 177.004 177.377 165.965 166.664 167.2 167.932 
168.472 169.212 169.729 170.484 170.992 171.819 172.367 173.265 173.827 
174.693 175.198 175.968 176.405 177.092 177.471 177.261 176.177 176.655 
176.412 174.951 175.494 175.232 175.673 175.318 173.544 174.163 173.882 
174.409 174.027 174.495 174.148 172.055 172.67 172.371 172.965 172.559 
173.095 172.691 173.277 172.986 170.69 171.206 170.895 171.445 171.051 
171.572 171.108 171.693 171.339 172.047 171.79 169.44 169.895 169.547 
170.032 169.65 170.12 169.651 170.119 169.683 170.319 170.05 170.813 
170.598 168.174 168.626 168.215 168.682 168.255 168.738 168.279 168.722 
168.251 168.744 168.416 169.087 168.909 169.658 169.48 166.909 167.343 
166.928 167.349 166.892 167.331 166.857 167.321 166.857 167.343 166.983 
167.563 167.367 168.043 167.912 168.6 168.439 165.715 166.123 165.785 
166.156 165.763 166.079 165.608 165.948 165.48 165.925 165.568 166.139 
165.94 166.587 166.472 167.12 167.002 167.632 167.509 178.212 178.27 
178.582 179.287 178.358 178.67 179.426 179.731 180.515 178.482 178.811 
179.592 179.894 180.69 181.005 181.781 178.457 178.898 179.687 180.052 
180.819 181.154 181.906 182.218 182.865 178.208 178.748 179.541 180.04 
180.828 181.242 182.003 182.332 182.983 183.203 183.656 177.911 178.444 
179.233 179.79 180.614 181.152 182.001 182.437 183.161 183.378 183.821 
183.879 184.113 177.618 178.143 178.897 179.454 180.218 180.82 181.642 
182.283 183.075 183.517 183.99 184.078 184.227 184.203 184.295 177.249 
177.785 178.464 179.05 179.715 180.326 180.982 181.695 182.383 183.122 
183.634 184.06 184.202 184.281 184.282 184.32 184.429 176.856 177.349 
177.947 178.525 179.141 179.744 180.309 180.936 181.465 182.199 182.678 
183.375 183.629 184.03 184.068 184.241 184.308 184.458 184.629 178.369 
179.467 178.918 178.931 180.714 180.11 180.159 179.528 179.493 181.98 
181.404 181.442 180.801 180.769 180.092 179.923 183.035 182.588 182.579 
182.009 181.905 181.306 181.124 180.418 180.031 183.772 183.49 183.474 
183.01 182.853 182.318 182.13 181.536 181.201 180.402 179.87 184.181 
184.064 184.088 183.781 183.655 183.191 183.039 182.513 182.283 181.565 
181.102 180.205 179.664 184.375 184.351 184.408 184.263 184.167 183.866 
183.707 183.344 183.149 182.614 182.191 181.396 180.799 179.963 179.444 
184.566 184.536 184.628 184.524 184.437 184.226 184.002 183.785 183.521 
183.249 182.811 182.288 181.625 180.931 180.283 179.632 179.135 184.806 
184.772 184.89 184.776 184.724 184.489 184.257 183.982 183.66 183.417 
182.981 182.646 182.022 181.524 180.847 180.301 179.741 179.227 178.777 
177.784 178.292 177.695 176.967 178.773 178.169 177.417 176.811 176.008 
179.104 178.554 177.707 177.174 176.35 175.79 174.911 179.122 178.691 
177.724 177.291 176.381 175.973 175.079 174.578 173.58 178.929 178.553 
177.564 177.167 176.221 175.868 174.991 174.609 173.679 173.151 172.139 
178.792 178.394 177.507 177.054 176.206 175.771 174.987 174.56 173.761 
173.261 172.405 171.81 170.986 178.707 178.355 177.577 177.128 176.376 
175.906 175.208 174.725 174.012 173.474 172.71 172.139 171.396 170.837 
170.189 178.52 178.279 177.559 177.209 176.462 176.077 175.372 174.973 
174.266 173.788 173.018 172.477 171.71 171.199 170.509 170.058 169.438 
178.23 178.063 177.394 177.13 176.394 176.076 175.351 175.032 174.323 
173.956 173.196 172.736 171.949 171.464 170.732 170.288 169.622 169.223 
168.592 180.746 180.865 181.2 181.907 180.68 181.156 181.888 182.304 
182.965 180.389 180.873 181.544 182.082 182.764 183.229 183.767 180.143 
180.575 181.19 181.675 182.344 182.895 183.542 183.949 184.355 179.961 
180.367 180.989 181.38 182.048 182.528 183.267 183.731 184.297 184.515 
184.747 179.73 180.179 180.792 181.195 181.827 182.289 183.037 183.536 
184.2 184.498 184.834 184.866 184.941 179.38 179.87 180.431 180.904 
181.45 181.97 182.611 183.216 183.857 184.342 184.731 184.925 185.053 
185.038 185.064 179.017 179.472 180.01 180.479 181.013 181.512 182.084 
182.663 183.231 183.819 184.232 184.659 184.853 185.053 185.109 185.135 
185.117 178.742 179.135 179.685 180.105 180.708 181.147 181.785 182.224 
182.795 183.224 183.652 184.073 184.356 184.709 184.845 185.045 185.038 
185.084 184.971 
POINT_DATA 1002
SCALARS Distance double
LOOKUP_TABLE default
175.582 176.414 175.569 174.559 174.509 174.517 173.336 173.306 173.312 
173.218 172.028 172.089 172.031 171.955 171.955 170.703 170.895 170.709 
170.684 170.685 170.822 169.379 169.725 169.29 169.316 169.33 169.471 
169.636 168.128 168.558 167.879 167.871 167.922 168.043 168.241 168.4 
166.946 167.377 166.618 166.525 166.594 166.681 166.797 166.965 167.215 
165.81 166.239 165.471 165.299 165.36 165.466 165.447 165.447 165.672 
166.132 164.764 165.205 164.421 164.17 164.154 164.329 164.351 164.176 
164.197 164.623 165.291 176.75 175.825 177.104 176.097 177.392 174.737 
176.38 177.663 175.056 173.596 176.659 177.972 175.364 173.974 172.436 
176.839 178.122 175.517 174.175 172.747 171.242 176.847 178.035 175.567 
174.234 172.844 171.456 170.026 176.813 177.934 175.613 174.368 172.991 
171.568 170.202 168.79 176.832 177.908 175.639 174.447 173.187 171.783 
170.397 169.028 167.589 176.833 177.861 175.612 174.353 173.152 171.909 
170.641 169.377 167.971 166.489 177.113 175.889 176.194 174.783 175.185 
174.462 173.642 174.013 173.217 173.075 172.271 172.547 171.934 171.746 
171.819 170.674 171.149 170.37 170.329 170.481 170.648 169.53 170.254 
168.911 168.775 169.08 169.429 169.515 168.988 169.617 168.21 167.676 
167.697 168.053 168.262 168.157 168.399 168.843 167.805 167.162 166.732 
166.634 166.679 166.629 166.509 167.509 167.964 167.017 166.476 165.937 
165.456 165.087 164.876 164.837 164.96 163.882 163.415 162.542 163.098 
161.867 161.17 163.164 161.451 160.373 159.779 163.641 161.633 160.013 
159.016 158.524 164.248 162.22 160.355 158.901 157.974 157.486 164.808 
162.815 161.014 159.523 158.201 157.194 156.611 165.409 163.498 161.75 
160.398 159.096 157.701 156.602 156.081 166.075 164.405 162.743 161.342 
160.107 158.751 157.396 156.47 156.157 166.729 165.342 163.88 162.429 
161.072 159.806 158.583 157.535 156.891 156.707 163.502 162.202 163.166 
160.833 161.864 162.96 159.462 160.547 161.779 163.107 158.202 159.227 
160.613 162.13 163.354 157.093 157.958 159.362 161.142 162.48 163.282 
156.305 156.982 158.211 160.071 161.748 162.574 163.174 156.118 156.573 
157.52 159.096 160.954 162.218 162.822 163.519 156.504 156.73 157.373 
158.473 160.033 161.634 162.741 163.456 164.255 157.232 157.198 157.917 
158.057 158.833 157.537 159.126 160.065 158.465 158.215 160.436 161.36 
159.596 159.097 159.275 161.731 162.504 160.96 160.227 160.086 160.773 
162.951 163.708 162.311 161.612 161.202 161.601 162.374 164.286 165.03 
163.648 163.006 162.516 162.64 163.247 163.589 165.645 166.27 165.053 
164.424 163.874 163.754 164.129 164.5 164.472 166.875 167.394 166.371 
165.818 165.286 165.004 165.084 165.337 165.462 165.381 157.502 157.952 
158.433 158.783 159.405 158.609 159.872 160.586 159.572 159.713 161.375 
162.005 160.983 160.947 161.127 162.97 163.436 162.658 162.457 162.397 
162.4 164.363 164.819 164.138 163.954 163.769 163.649 163.596 165.692 
166.176 165.437 165.326 165.185 165.056 164.977 164.931 167.005 167.409 
166.754 166.685 166.636 166.521 166.414 166.3 166.209 168.198 168.483 
168.019 167.983 168.007 167.937 167.775 167.597 167.424 167.331 167.759 
166.508 167.645 166.315 167.5 165.148 166.063 167.305 164.887 163.693 
165.964 167.246 164.68 163.425 162.175 166.146 167.403 164.814 163.418 
162.003 160.778 166.449 167.679 165.119 163.707 162.212 160.798 159.624 
166.766 167.962 165.408 163.975 162.53 161.116 159.844 158.663 167.08 
168.211 165.754 164.304 162.858 161.449 160.17 159.039 157.918 168.972 
168.879 170.04 170.046 171.191 168.856 171.227 172.425 170.06 168.748 
172.444 173.613 171.228 169.951 168.559 173.635 174.654 172.477 171.152 
169.785 168.499 174.731 175.662 173.738 172.456 171.04 169.771 168.657 
175.77 176.696 174.857 173.719 172.332 171.058 169.957 168.917 176.736 
177.622 175.834 174.825 173.579 172.328 171.242 170.183 169.144 177.573 
178.368 176.71 175.798 174.751 173.586 172.477 171.42 170.352 169.355 