# vtk DataFile Version 4.0
vtk output
ASCII
DATASET POLYDATA
POINTS 1002 float
-105.429 -118.855 80.2624 -105.947 -119.885 80.1402 -105.846 -119.312 79.3254 
-105.266 -118.19 79.4983 -105.828 -118.431 78.6064 -104.936 -117.627 80.3339 
-105.086 -117.328 78.8517 -105.591 -117.503 77.9658 -104.564 -117.05 79.6387 
-104.425 -116.371 80.5086 -104.632 -116.579 78.1835 -105.094 -116.75 77.1757 
-104.153 -116.33 78.995 -103.841 -115.842 79.8614 -103.825 -115.091 80.8762 
-104.058 -115.924 77.2868 -104.651 -115.997 76.3107 -103.685 -115.569 78.2162 
-103.409 -114.988 79.1295 -103.205 -114.382 80.2511 -103.178 -113.707 81.3016 
-103.711 -114.953 76.3677 -104.396 -115.009 75.5872 -103.284 -114.652 77.2884 
-103.089 -113.968 78.2708 -102.812 -113.359 79.4889 -102.556 -112.895 80.7357 
-102.575 -112.258 81.5759 -103.516 -113.734 75.601 -104.125 -113.991 74.9207 
-102.959 -113.521 76.4432 -102.601 -113.028 77.427 -102.268 -112.457 78.6396 
-101.868 -112.128 80.0473 -101.728 -111.674 81.1156 -101.923 -110.96 81.7542 
-103.168 -112.757 74.8621 -103.761 -113.126 74.2604 -102.562 -112.539 75.6598 
-101.954 -112.286 76.6529 -101.426 -111.847 77.7858 -100.987 -111.506 79.1333 
-100.762 -111.201 80.4294 -100.897 -110.615 81.3313 -101.21 -109.945 82.0436 
-102.672 -112.05 74.1551 -103.437 -112.285 73.7406 -102.022 -111.863 74.8356 
-101.397 -111.674 75.8294 -100.793 -111.281 76.9603 -100.348 -110.792 78.1427 
-100.151 -110.421 79.378 -100.218 -110.005 80.4989 -100.452 -109.464 81.4786 
-100.68 -108.989 82.4166 -102.244 -111.356 73.6038 -103.216 -111.418 73.3898 
-101.482 -111.23 74.0881 -100.977 -110.976 74.9758 -100.585 -110.508 76.1323 
-100.255 -109.883 77.2955 -100.104 -109.335 78.3794 -100.175 -108.913 79.4087 
-100.338 -108.5 80.4575 -100.437 -108.123 81.5922 -100.469 -107.839 82.6773 
-106.435 -120.39 79.3225 -106.356 -119.796 78.444 -107.045 -120.675 78.2556 
-106.809 -120.223 77.4341 -107.802 -120.826 77.1984 -106.249 -118.94 77.7176 
-107.445 -120.411 76.5144 -108.778 -120.85 76.3843 -106.573 -119.483 76.7106 
-105.969 -117.959 76.9693 -108.434 -120.24 75.7037 -109.73 -120.779 75.642 
-107.215 -119.658 75.7437 -106.387 -118.43 75.8985 -105.637 -117 76.1443 
-109.39 -120.021 74.7725 -110.433 -120.691 74.6695 -108.196 -119.443 74.811 
-107.073 -118.61 74.9344 -106.243 -117.275 75.2095 -105.368 -116.044 75.4631 
-110.16 -119.839 73.7679 -111.17 -120.425 73.6609 -109.114 -119.188 73.8951 
-107.91 -118.541 74.0731 -106.85 -117.472 74.3493 -105.978 -116.218 74.6345 
-105.041 -115.115 74.8265 -111.025 -119.362 73.031 -112.105 -119.806 73.0055 
-109.964 -118.798 73.1496 -108.793 -118.293 73.331 -107.59 -117.485 73.5234 
-106.558 -116.358 73.6993 -105.607 -115.313 73.9082 -104.663 -114.247 74.1298 
-111.95 -118.631 72.5676 -112.986 -119.01 72.6237 -110.835 -118.179 72.5786 
-109.675 -117.815 72.6618 -108.512 -117.258 72.7749 -107.408 -116.307 72.8658 
-106.366 -115.324 73.0187 -105.372 -114.363 73.3207 -104.42 -113.269 73.6172 
-112.724 -117.974 72.0945 -113.654 -118.303 72.1939 -111.619 -117.606 72.0005 
-110.429 -117.307 71.9405 -109.323 -116.904 71.977 -108.323 -116.146 72.1334 
-107.314 -115.213 72.3829 -106.301 -114.26 72.7382 -105.334 -113.187 73.1276 
-104.324 -112.153 73.3624 -113.664 -117.53 71.5237 -112.617 -117.219 71.3809 
-113.563 -116.731 70.8222 -112.36 -116.467 70.6132 -113.288 -115.695 70.3247 
-111.339 -116.937 71.1971 -112.022 -115.454 69.9911 -112.868 -114.481 69.8379 
-110.973 -116.181 70.3515 -110.07 -116.589 71.0815 -111.658 -114.27 69.4298 
-112.418 -113.404 69.2284 -110.678 -115.094 69.7394 -109.722 -115.647 70.3193 
-109.031 -115.949 71.2443 -111.207 -113.05 69.0469 -111.969 -112.352 69.0215 
-110.379 -113.784 69.3825 -109.463 -114.431 69.917 -108.703 -114.862 70.7722 
-108.08 -115.064 71.7159 -110.669 -111.649 69.1542 -111.536 -111.066 69.4237 
-109.896 -112.302 69.3212 -109.178 -112.985 69.8207 -108.411 -113.586 70.5819 
-107.732 -113.901 71.5584 -107.079 -114.036 72.3032 -110.252 -110.196 69.6264 
-111.193 -109.743 70.0051 -109.378 -110.764 69.6029 -108.787 -111.408 70.0252 
-108.193 -112.062 70.6448 -107.441 -112.497 71.4588 -106.763 -112.631 72.3053 
-106.094 -112.813 72.8208 -110.013 -108.975 70.2617 -110.863 -108.664 70.6171 
-109.078 -109.429 70.1501 -108.409 -109.967 70.5062 -107.916 -110.524 71.0464 
-107.185 -110.992 71.5423 -106.371 -111.19 72.1532 -105.719 -111.293 72.7545 
-105.045 -111.643 73.1157 -109.734 -107.972 71.0451 -110.408 -107.808 71.3492 
-108.889 -108.269 70.8794 -108.107 -108.665 71.095 -107.494 -109.085 71.5477 
-106.742 -109.529 71.8464 -105.807 -109.895 72.0573 -105.055 -110.104 72.4376 
-104.468 -110.377 72.8563 -103.824 -110.873 73.1449 -102.33 -110.571 73.143 
-102.907 -109.976 72.8412 -101.49 -109.568 72.9107 -103.485 -109.443 72.487 
-102.037 -108.883 72.5371 -101.009 -108.049 72.8509 -104.083 -108.971 72.1528 
-102.578 -108.138 72.1785 -101.552 -107.159 72.4665 -100.751 -106.111 72.9718 
-104.997 -108.415 72.0467 -103.232 -107.295 71.9602 -102.122 -106.186 72.1895 
-101.286 -105.082 72.6661 -100.365 -104.179 73.1514 -106.1 -107.853 72.0454 
-104.277 -106.452 71.9499 -102.88 -105.247 72.0286 -101.99 -104.197 72.5406 
-101.01 -103.185 72.9621 -100.128 -102.369 73.3868 -107.043 -107.468 71.8607 
-105.522 -105.891 72 -104.015 -104.501 71.9443 -102.946 -103.517 72.4026 
-101.992 -102.537 72.9417 -101.051 -101.536 73.2586 -100.462 -100.829 73.8056 
-107.899 -107.212 71.663 -106.645 -105.696 72.0659 -105.299 -104.135 72.0241 
-104.157 -102.99 72.2375 -103.155 -102.024 72.7886 -102.221 -101.002 73.193 
-101.54 -100.212 73.6381 -101.089 -99.7763 74.3895 -108.746 -107.03 71.7316 
-107.598 -105.695 72.2444 -106.426 -104.144 72.3275 -105.383 -102.777 72.345 
-104.38 -101.617 72.6488 -103.375 -100.514 73.0215 -102.604 -99.6781 73.4327 
-102.088 -99.2525 74.1057 -101.587 -99.0226 74.9482 -109.458 -106.956 71.9802 
-108.396 -105.768 72.4947 -107.347 -104.312 72.6742 -106.425 -102.875 72.6956 
-105.53 -101.566 72.8405 -104.519 -100.301 73.0468 -103.593 -99.2638 73.294 
-102.967 -98.7014 73.7972 -102.482 -98.4762 74.5673 -101.937 -98.3133 75.3877 
-101.305 -110.472 73.3935 -100.679 -109.121 73.3447 -100.706 -110.126 74.051 
-100.435 -107.269 73.4829 -100.398 -108.387 74.221 -100.52 -109.514 75.1593 
-100.115 -105.371 73.6646 -100.214 -106.506 74.4698 -100.417 -107.607 75.4676 
-100.414 -108.788 76.4594 -99.7105 -103.516 73.8624 -99.8002 -104.825 74.6863 
-100.102 -105.966 75.7514 -100.315 -107.029 76.8332 -100.285 -108.157 77.6601 
-99.7899 -101.657 74.2393 -99.6163 -102.958 74.9828 -99.7131 -104.386 76.0063 
-99.8895 -105.607 77.1583 -100.204 -106.599 78.0481 -100.338 -107.658 78.6612 
-100.292 -100.223 74.8288 -99.8556 -101.083 75.4445 -99.7243 -102.434 76.3304 
-99.6282 -103.961 77.4534 -99.8539 -105.181 78.4282 -100.389 -106.089 79.009 
-100.548 -107.192 79.6105 -100.746 -99.3052 75.4407 -100.103 -99.7389 75.9778 
-99.8426 -100.617 76.7287 -99.6931 -102.015 77.7834 -99.6596 -103.506 78.8291 
-100.113 -104.59 79.476 -100.634 -105.532 79.9851 -100.632 -106.795 80.7608 
-101.099 -98.561 75.9283 -100.32 -98.8444 76.4729 -99.8952 -99.3639 77.1623 
-99.7615 -100.357 78.1533 -99.666 -101.757 79.2517 -99.8119 -103.064 80.0308 
-100.299 -104.052 80.5364 -100.602 -105.149 81.2053 -100.518 -106.545 82.0454 
-101.809 -97.7684 76.179 -100.954 -98.0309 76.7984 -101.882 -97.3754 77.1711 
-101.188 -97.7665 77.9097 -102.252 -97.3164 78.3992 -100.286 -98.4361 77.5087 
-101.752 -97.8878 79.2142 -102.748 -97.4196 79.7133 -100.694 -98.3792 78.8189 
-99.9766 -99.1277 78.4695 -102.311 -98.0878 80.5287 -103.224 -97.4839 81.0809 
-101.308 -98.6247 80.1609 -100.36 -99.2138 79.9192 -99.8227 -100.253 79.6351 
-102.821 -98.21 81.8871 -103.707 -97.6213 82.518 -101.889 -98.8579 81.3676 
-100.874 -99.4684 81.1263 -100.051 -100.357 80.9801 -99.7271 -101.633 80.607 
-103.364 -98.4354 83.2095 -104.199 -97.939 83.7242 -102.536 -99.0639 82.5772 
-101.562 -99.7144 82.1312 -100.546 -100.545 81.9994 -99.9257 -101.629 81.7929 
-99.9446 -102.823 81.2403 -103.85 -98.8206 84.3017 -104.703 -98.4436 84.5663 
-103.112 -99.3621 83.8128 -102.331 -99.9864 83.2374 -101.398 -100.765 82.9255 
-100.517 -101.73 82.8059 -100.134 -102.783 82.4924 -100.306 -103.92 81.8971 
-104.281 -99.2838 85.2771 -105.247 -99.0667 85.2989 -103.449 -99.7027 85.0763 
-102.777 -100.293 84.5691 -102.17 -101.049 84.0158 -101.463 -101.943 83.688 
-100.765 -102.929 83.4848 -100.41 -104.058 83.196 -100.425 -105.313 82.7023 
-104.753 -99.7351 86.2031 -105.806 -99.6256 86.0466 -103.749 -100.043 86.2818 
-102.967 -100.595 85.9832 -102.522 -101.371 85.317 -102.228 -102.271 84.6272 
-101.737 -103.211 84.1558 -101.076 -104.298 83.926 -100.602 -105.57 83.7441 
-100.455 -106.808 83.332 -102.668 -97.7362 75.316 -102.685 -97.282 76.2461 
-103.544 -97.39 75.4401 -103.737 -97.1448 76.5729 -104.653 -97.4912 75.9327 
-102.873 -97.058 77.4501 -105.034 -97.3098 77.157 -105.899 -97.8315 76.6033 
-104.055 -97.0044 77.934 -103.256 -97.0172 78.8336 -106.42 -97.4903 77.7136 
-107.013 -98.187 77.1521 -105.551 -96.9811 78.434 -104.539 -96.804 79.3461 
-103.751 -96.9882 80.2446 -107.555 -97.8541 78.196 -107.918 -98.7232 77.624 
-107.094 -97.0023 78.8186 -106.202 -96.6216 79.7419 -105.133 -96.7405 80.8123 
-104.286 -97.0744 81.752 -108.43 -98.5834 78.7489 -108.817 -99.3717 78.0678 
-108.248 -97.5071 79.317 -107.795 -96.7241 80.0844 -106.821 -96.7091 81.2407 
-105.717 -96.9964 82.3807 -104.815 -97.3399 83.1982 -109.345 -99.2328 79.1834 
-109.794 -99.8628 78.369 -109.116 -98.3157 79.8915 -108.927 -97.3218 80.5484 
-108.332 -96.944 81.5356 -107.345 -97.1027 82.7462 -106.269 -97.3425 83.6837 
-105.35 -97.7708 84.2068 -110.298 -99.6819 79.3794 -110.634 -100.377 78.604 
-110.004 -98.9301 80.2038 -109.798 -98.0683 80.9484 -109.444 -97.479 81.7826 
-108.784 -97.3687 82.8427 -107.864 -97.5139 83.8578 -106.832 -97.8751 84.5102 
-105.934 -98.4614 84.8836 -111.023 -100.341 79.542 -111.184 -101.16 78.9143 
-110.812 -99.553 80.2955 -110.6 -98.7848 81.116 -110.319 -98.1804 81.9721 
[...]
CELL_DATA 2000
SCALARS Distance double
LOOKUP_TABLE default
177.358 176.487 176.749 176.345 175.508 175.824 175.42 175.679 175.262 
174.42 174.795 174.402 174.711 174.287 174.579 174.189 173.261 173.663 
173.274 173.638 173.185 173.525 173.098 173.47 173.092 172.081 172.466 
172.039 172.445 171.966 172.342 171.874 172.291 171.909 172.339 171.957 
170.904 171.246 170.754 171.161 170.671 171.07 170.588 171.016 170.643 
171.12 170.791 171.199 170.814 169.771 170.052 169.525 169.885 169.408 
169.788 169.315 169.717 169.322 169.82 169.526 170.019 169.701 170.088 
169.759 168.723 168.937 168.39 168.698 168.245 168.596 168.16 168.499 
168.078 168.5 168.181 168.709 168.445 168.943 168.672 169.102 168.883 
167.789 167.929 167.351 167.599 167.141 167.481 167.087 167.416 167.017 
167.34 166.995 167.415 167.17 167.671 167.463 167.966 167.779 168.266 
168.116 177.759 177.955 177.569 176.905 178.055 177.716 177.09 176.666 
175.931 178.21 177.824 177.207 176.811 176.069 175.614 174.816 178.413 
177.992 177.319 176.919 176.174 175.719 174.895 174.446 173.649 178.488 
178.125 177.397 177.012 176.263 175.825 175.019 174.543 173.743 173.297 
172.524 178.407 178.105 177.392 177.047 176.317 175.918 175.138 174.678 
173.88 173.421 172.642 172.191 171.406 178.298 178.008 177.326 177.012 
176.326 175.975 175.231 174.794 173.978 173.525 172.728 172.304 171.527 
171.079 170.297 178.188 177.912 177.229 176.933 176.258 175.965 175.271 
174.888 174.096 173.624 172.822 172.379 171.64 171.212 170.476 170.009 
169.27 178.025 177.789 177.108 176.823 176.127 175.858 175.179 174.885 
174.162 173.756 173 172.538 171.838 171.383 170.714 170.235 169.538 
169.04 168.353 177.694 176.862 177.127 176.776 175.898 176.23 175.854 
176.135 175.771 174.75 175.179 174.797 175.14 174.748 175.097 174.774 
173.507 173.971 173.625 174.022 173.622 174.005 173.667 174.087 173.768 
172.329 172.734 172.401 172.828 172.462 172.859 172.532 172.956 172.675 
173.066 172.704 171.254 171.562 171.147 171.58 171.238 171.692 171.395 
171.837 171.582 171.994 171.685 172.003 171.6 170.317 170.499 169.994 
170.333 169.997 170.467 170.234 170.707 170.459 170.892 170.577 170.958 
170.556 170.88 170.449 169.594 169.654 169.151 169.309 168.986 169.335 
169.17 169.598 169.38 169.767 169.405 169.782 169.343 169.735 169.279 
169.668 169.236 169.034 169.045 168.572 168.618 168.258 168.468 168.251 
168.605 168.345 168.692 168.254 168.581 168.069 168.455 167.983 168.414 
167.988 168.42 168.035 167.248 167.143 166.789 165.991 167.078 166.665 
165.792 165.472 164.664 167.11 166.591 165.613 165.227 164.328 164.085 
163.281 167.308 166.675 165.561 165.017 164.012 163.708 162.852 162.668 
161.882 167.526 166.927 165.761 165.027 163.9 163.428 162.589 162.316 
161.557 161.307 160.596 167.615 167.149 166.113 165.324 164.153 163.463 
162.624 162.222 161.595 161.203 160.551 160.194 159.71 167.743 167.317 
166.511 165.772 164.717 163.888 163.019 162.445 161.866 161.418 160.854 
160.38 159.903 159.591 159.404 168.09 167.622 166.993 166.308 165.441 
164.589 163.746 163.006 162.374 161.808 161.241 160.736 160.228 159.87 
159.618 159.465 159.431 168.559 168.089 167.541 166.913 166.177 165.388 
164.612 163.822 163.168 162.46 161.866 161.213 160.655 160.176 159.833 
159.634 159.535 159.486 159.46 167.099 165.854 166.503 166.615 164.558 
165.23 165.362 166.098 166.377 163.227 163.924 164.077 164.842 165.167 
165.965 166.336 161.853 162.584 162.785 163.58 163.949 164.77 165.199 
165.967 166.319 160.534 161.215 161.471 162.309 162.752 163.596 164.091 
164.873 165.302 165.981 166.334 159.623 160.044 160.308 161.053 161.569 
162.43 162.997 163.814 164.328 165.034 165.459 166.081 166.496 159.329 
159.428 159.609 160.068 160.543 161.3 161.901 162.738 163.316 164.089 
164.584 165.248 165.69 166.316 166.781 159.367 159.325 159.359 159.544 
159.832 160.371 160.902 161.675 162.284 163.088 163.642 164.365 164.845 
165.506 165.985 166.634 167.128 159.398 159.359 159.296 159.339 159.447 
159.755 160.159 160.767 161.372 162.117 162.723 163.444 163.963 164.641 
165.137 165.819 166.343 167.003 167.503 159.381 159.461 159.34 159.293 
159.992 159.606 159.541 159.35 159.461 160.95 160.399 160.355 159.884 
160 159.768 160.158 162 161.465 161.479 160.921 161.016 160.566 
160.902 160.726 161.332 163.061 162.531 162.575 162.057 162.136 161.653 
161.882 161.581 162.061 161.989 162.634 164.176 163.634 163.687 163.157 
163.239 162.735 162.906 162.536 162.895 162.721 163.252 163.237 163.846 
165.254 164.743 164.814 164.3 164.4 163.869 164.036 163.576 163.886 
163.574 164.033 163.884 164.453 164.429 165.043 166.307 165.799 165.873 
165.399 165.515 165.031 165.21 164.747 165.041 164.641 165.049 164.753 
165.277 165.127 165.747 165.686 166.304 167.366 166.85 166.9 166.431 
166.542 166.1 166.285 165.879 166.177 165.802 166.179 165.825 166.271 
166.019 166.578 166.456 167.064 166.973 167.511 159.449 159.71 159.534 
159.587 160.432 160.017 160.125 159.872 160.132 161.613 161.005 161.096 
160.63 160.864 160.618 161.031 162.876 162.274 162.32 161.749 161.893 
161.474 161.781 161.583 162.037 164.045 163.49 163.536 162.968 163.074 
162.569 162.817 162.448 162.842 162.629 163.122 165.237 164.682 164.781 
164.191 164.322 163.774 164.049 163.597 163.999 163.614 164.06 163.781 
164.263 166.383 165.893 166.037 165.48 165.628 165.06 165.327 164.863 
165.275 164.862 165.272 164.856 165.235 164.922 165.345 167.39 166.973 
167.123 166.678 166.829 166.336 166.548 166.106 166.458 166.089 166.482 
166.077 166.412 165.987 166.336 166.008 166.425 168.349 167.935 168.077 
167.681 167.847 167.44 167.646 167.248 167.542 167.194 167.556 167.212 
167.566 167.17 167.514 167.106 167.484 167.132 167.53 168.678 168.486 
168.288 167.621 168.193 167.998 167.231 167.052 166.236 167.847 167.632 
166.793 166.587 165.737 165.564 164.728 167.615 167.315 166.487 166.18 
165.34 165.103 164.316 164.114 163.344 167.648 167.24 166.488 166.034 
165.23 164.844 164.089 163.798 163.029 162.776 162.005 167.823 167.399 
166.698 166.194 165.412 164.901 164.141 163.715 162.938 162.543 161.706 
161.421 160.723 167.962 167.575 166.888 166.435 165.671 165.152 164.388 
163.887 163.136 162.613 161.791 161.28 160.554 160.283 159.872 168.116 
167.715 167.075 166.636 165.947 165.436 164.728 164.199 163.525 162.963 
162.243 161.595 160.882 160.354 159.912 159.701 159.564 168.362 167.935 
167.375 166.917 166.342 165.812 165.197 164.625 164.028 163.457 162.861 
162.209 161.563 160.885 160.361 159.916 159.68 159.538 159.484 169.229 
170.025 169.462 169.108 170.904 170.297 169.974 169.348 168.921 171.9 
171.243 170.937 170.275 169.882 169.153 168.64 172.934 172.273 171.967 
171.288 170.898 170.153 169.646 168.862 168.368 173.937 173.29 172.961 
172.299 171.914 171.191 170.711 169.91 169.427 168.669 168.324 174.913 
174.288 173.949 173.269 172.884 172.191 171.782 171.024 170.601 169.804 
169.456 168.734 168.481 175.793 175.241 174.938 174.271 173.886 173.178 
172.801 172.098 171.745 171.006 170.667 169.914 169.616 168.905 168.634 
176.538 176.057 175.79 175.222 174.868 174.198 173.815 173.125 172.776 
172.098 171.768 171.077 170.758 170.05 169.748 169.043 168.773 177.229 
176.762 176.502 176.01 175.706 175.132 174.786 174.139 173.789 173.114 
172.774 172.104 171.785 171.13 170.84 170.167 169.896 169.207 168.979 
177.537 177.769 177.359 176.791 178.043 177.601 176.986 176.586 175.993 
178.298 177.866 177.222 176.784 176.142 175.751 175.118 178.461 178.071 
177.411 176.994 176.326 175.913 175.245 174.842 174.159 178.579 178.195 
177.522 177.129 176.435 176.05 175.343 174.952 174.216 173.827 173.116 
178.717 178.322 177.653 177.237 176.517 176.11 175.357 174.976 174.203 
173.834 173.083 172.754 172.092 178.801 178.447 177.785 177.387 176.676 
176.223 175.443 174.986 174.192 173.79 173.049 172.711 172.052 171.763 
171.167 178.749 178.46 177.789 177.468 176.776 176.382 175.616 175.13 
174.318 173.837 173.091 172.705 172.06 171.745 171.145 170.855 170.258 
178.605 178.356 177.687 177.408 176.722 176.411 175.678 175.277 174.479 
174.006 173.23 172.797 172.12 171.77 171.151 170.84 170.227 169.934 
169.343 178.296 177.472 177.73 177.369 176.468 176.826 176.46 176.746 
176.377 175.318 175.752 175.421 175.771 175.383 175.704 175.316 174.124 
174.573 174.262 174.676 174.285 174.642 174.217 174.569 174.133 172.91 
173.352 172.99 173.45 173.058 173.479 173.043 173.424 172.987 173.344 
172.915 171.697 172.122 171.721 172.146 171.741 172.192 171.788 172.218 
171.803 172.191 171.788 172.155 171.794 170.519 170.939 170.575 170.932 
170.518 170.902 170.516 170.951 170.571 170.993 170.596 171.003 170.641 
171.066 170.773 169.355 169.784 169.453 169.824 169.418 169.755 169.351 
169.728 169.357 169.765 169.388 169.796 169.435 169.873 169.579 170.055 
169.82 168.231 168.621 168.272 168.675 168.296 168.668 168.282 168.628 
168.256 168.608 168.256 168.628 168.312 168.71 168.451 168.882 168.673 
169.135 168.951 178.694 178.963 178.539 177.882 179.149 178.757 178.079 
177.628 176.86 179.344 178.932 178.224 177.763 176.929 176.476 175.651 
179.517 179.116 178.35 177.87 176.982 176.502 175.629 175.231 174.45 
179.495 179.193 178.339 177.897 176.917 176.482 175.572 175.199 174.389 
174.037 173.269 179.209 179.031 178.141 177.751 176.66 176.268 175.281 
175.021 174.167 173.908 173.069 172.782 171.997 178.734 178.644 177.824 
177.499 176.421 175.971 174.923 174.625 173.742 173.544 172.664 172.448 
171.592 171.428 170.708 178.203 178.134 177.405 177.186 176.26 175.82 
174.818 174.371 173.48 173.149 172.295 172.008 171.151 170.951 170.218 
170.138 169.52 177.749 177.636 176.959 176.799 176.025 175.706 174.824 
174.375 173.495 173.046 172.205 171.785 170.959 170.614 169.888 169.693 
169.099 169.005 168.451 179.274 180.339 179.722 179.566 181.545 180.88 
180.673 179.977 179.765 182.58 182.101 181.944 181.181 180.891 180.171 
179.967 183.119 182.932 182.884 182.375 182.068 181.345 181.028 180.368 
180.147 183.487 183.294 183.211 182.989 182.734 182.322 181.947 181.375 
181.017 180.448 180.121 184.051 183.713 183.486 183.178 182.914 182.693 
182.43 182.096 181.728 181.221 180.792 180.261 179.813 184.393 184.205 
183.921 183.54 183.205 182.887 182.71 182.474 182.288 181.876 181.485 
180.909 180.414 179.85 179.335 184.231 184.275 184.033 183.867 183.522 
183.241 183.001 182.788 182.659 182.395 182.12 181.622 181.14 180.507 
179.964 179.355 178.823 183.975 184.014 183.842 183.817 183.552 183.423 
183.134 182.994 182.751 182.63 182.341 182.096 181.644 181.186 180.623 
180.033 179.473 178.871 178.365 183.906 183.842 183.818 183.714 183.694 
183.736 183.56 183.563 183.425 183.266 183.494 183.369 183.394 183.168 
183.197 183.035 182.611 182.958 182.936 183.118 182.888 182.912 182.644 
182.738 182.595 181.862 182.224 182.186 182.55 182.387 182.542 182.186 
182.263 181.982 182.22 182.088 181.035 181.386 181.21 181.648 181.488 
181.863 181.517 181.685 181.25 181.47 181.221 181.601 181.403 180.157 
180.493 180.226 180.593 180.347 180.804 180.51 180.847 180.394 180.63 
180.249 180.621 180.397 180.799 180.478 179.256 179.602 179.332 179.619 
179.311 179.673 179.404 179.785 179.436 179.707 179.313 179.62 179.351 
179.757 179.497 179.816 179.4 178.312 178.684 178.42 178.721 178.395 
178.697 178.422 178.766 178.502 178.79 178.463 178.714 178.426 178.756 
178.524 178.858 178.532 178.755 178.321 177.68 176.66 177.387 177.754 
175.58 176.311 176.694 177.41 177.751 174.533 175.24 175.617 176.34 
176.739 177.434 177.802 173.472 174.194 174.556 175.272 175.666 176.409 
176.831 177.528 177.883 172.323 173.085 173.447 174.196 174.563 175.316 
175.726 176.497 176.891 177.58 177.871 171.133 171.884 172.249 173.05 
173.446 174.209 174.596 175.36 175.768 176.528 176.9 177.554 177.859 
170.081 170.729 171.089 171.858 172.308 173.094 173.505 174.244 174.632 
175.393 175.813 176.56 176.948 177.593 177.927 169.252 169.792 170.141 
170.79 171.231 171.98 172.415 173.154 173.526 174.266 174.664 175.45 
175.865 176.616 176.959 177.625 177.896 168.513 169.032 169.348 169.916 
170.281 170.947 171.342 172.062 172.427 173.153 173.516 174.287 174.683 
175.475 175.824 176.557 176.812 177.485 177.687 177.335 176.437 176.757 
176.495 175.443 175.801 175.48 175.855 175.546 174.311 174.722 174.36 
174.76 174.39 174.801 174.398 173.143 173.542 173.156 173.563 173.136 
173.563 173.131 173.556 173.101 172.031 172.384 171.977 172.35 171.898 
172.278 171.8 172.228 171.773 172.221 171.773 170.946 171.271 170.824 
171.178 170.724 171.072 170.572 170.922 170.436 170.859 170.429 170.894 
170.5 169.919 170.19 169.697 170.007 169.527 169.89 169.407 169.741 
169.234 169.579 169.143 169.569 169.226 169.692 169.426 169.005 169.211 
168.684 168.9 168.362 168.68 168.206 168.569 168.095 168.425 167.98 
168.352 168.028 168.476 168.258 168.742 168.61 168.154 168.33 167.778 
167.926 167.334 167.555 167.051 167.385 166.958 167.305 166.9 167.244 
166.927 167.338 167.138 167.61 167.482 167.998 167.932 178.623 178.816 
179.015 179.603 178.933 179.175 179.779 180.008 180.672 179.075 179.31 
179.92 180.148 180.81 181.106 181.835 179.22 179.505 180.179 180.359 
180.986 181.21 181.888 182.218 182.826 179.143 179.587 180.357 180.664 
181.297 181.44 181.958 182.182 182.69 183.005 183.386 178.853 179.365 
180.151 180.699 181.407 181.699 182.104 182.22 182.528 182.773 183.143 
183.441 183.737 178.637 179.05 179.764 180.352 181.103 181.61 182.058 
182.26 182.456 182.607 182.91 183.201 183.584 183.822 184.052 178.539 
178.883 179.507 179.975 180.653 181.192 181.702 182.061 182.308 182.501 
182.764 183.022 183.411 183.682 183.949 184.081 184.132 178.346 178.74 
179.277 179.7 180.233 180.718 181.183 181.629 181.958 182.278 182.569 
182.862 183.212 183.503 183.757 183.934 183.976 184.043 183.997 178.647 
179.655 179.092 178.979 180.805 180.194 180.117 179.466 179.351 182.035 
181.439 181.384 180.674 180.513 179.842 179.664 183.013 182.605 182.515 
181.891 181.615 180.947 180.642 180.031 179.701 183.545 183.351 183.23 
182.803 182.432 181.867 181.442 180.884 180.499 179.926 179.495 183.882 
183.744 183.681 183.36 183.039 182.538 182.1 181.569 181.192 180.679 
180.319 179.708 179.254 184.14 184.055 184.059 183.822 183.641 183.178 
182.802 182.226 181.824 181.321 180.987 180.498 180.101 179.469 178.966 
184.165 184.202 184.217 184.16 184.082 183.8 183.5 182.965 182.478 
181.913 181.448 181.025 180.609 180.174 179.677 179.101 178.563 184.054 
184.132 184.173 184.22 184.214 184.133 183.94 183.589 183.113 182.537 
181.93 181.406 180.886 180.512 180.044 179.644 179.132 178.628 178.138 
178.074 178.364 177.903 177.258 178.697 178.196 177.507 177.03 176.301 
179.01 178.533 177.787 177.262 176.438 175.955 175.122 179.061 178.737 
177.975 177.502 176.596 176.057 175.123 174.671 173.834 178.812 178.603 
177.847 177.542 176.661 176.187 175.231 174.706 173.843 173.424 172.692 
178.504 178.275 177.503 177.284 176.489 176.17 175.318 174.853 174.026 
173.542 172.829 172.398 171.726 178.228 177.981 177.216 176.967 176.243 
175.984 175.26 174.913 174.165 173.743 173.03 172.6 171.935 171.492 
170.837 177.918 177.717 177.028 176.773 176.12 175.839 175.196 174.876 
174.2 173.835 173.135 172.751 172.072 171.686 171.049 170.643 170.063 
177.592 177.437 176.85 176.642 176.066 175.799 175.199 174.877 174.241 
173.883 173.223 172.839 172.177 171.794 171.178 170.819 170.273 169.923 
169.442 179.229 179.424 179.655 180.317 179.471 179.805 180.503 180.785 
181.472 179.363 179.762 180.416 180.824 181.463 181.83 182.382 179.226 
179.615 180.248 180.651 181.23 181.635 182.136 182.517 182.902 179.103 
179.484 180.143 180.518 181.143 181.453 181.981 182.26 182.747 183.009 
183.418 178.9 179.315 179.936 180.383 181.059 181.444 182.064 182.291 
182.835 183.012 183.549 183.694 184.101 178.611 179.036 179.564 180.049 
180.646 181.209 181.866 182.335 182.905 183.177 183.646 183.84 184.205 
184.32 184.459 178.33 178.729 179.231 179.64 180.142 180.662 181.265 
181.906 182.54 183.07 183.541 183.844 184.108 184.275 184.345 184.414 
184.304 178.094 178.477 179.026 179.38 179.887 180.239 180.771 181.276 
181.915 182.539 183.129 183.601 183.935 184.14 184.224 184.264 184.206 
184.177 184.065 
POINT_DATA 1002
SCALARS Distance double
LOOKUP_TABLE default
177 177.941 177.133 176.116 176.214 175.922 175.144 175.168 175.002 
174.865 174.075 174.019 173.988 173.872 173.833 172.896 172.87 172.853 
172.716 172.709 172.738 171.634 171.74 171.587 171.46 171.45 171.573 
171.563 170.367 170.608 170.264 170.165 170.142 170.34 170.463 170.418 
169.183 169.524 169.025 168.937 168.846 168.983 169.257 169.384 169.477 
168.103 168.543 167.886 167.827 167.718 167.674 167.89 168.189 168.445 
168.728 167.142 167.682 166.809 166.731 166.707 166.631 166.685 166.937 
167.266 167.628 167.994 178.205 177.371 178.291 177.488 178.388 176.414 
177.599 178.644 176.535 175.262 177.736 178.861 176.624 175.365 174.061 
177.78 178.826 176.679 175.488 174.207 172.964 177.713 178.686 176.686 
175.588 174.341 173.093 171.87 177.626 178.585 176.64 175.654 174.454 
173.142 171.952 170.762 177.528 178.453 176.534 175.603 174.558 173.279 
172.047 170.925 169.742 177.388 178.234 176.409 175.44 174.496 173.433 
172.291 171.181 170.039 168.835 177.462 176.534 176.591 175.566 175.537 
175.465 174.435 174.279 174.392 174.388 173.201 173.043 173.241 173.236 
173.378 171.96 171.986 172.045 172.104 172.258 172.39 170.743 171.034 
170.74 170.932 171.153 171.338 171.331 169.724 170.197 169.52 169.734 
170.039 170.189 170.208 170.131 169.045 169.544 168.688 168.754 169.027 
169.077 168.954 168.87 168.837 168.549 169.01 168.124 167.967 168.037 
167.975 167.714 167.543 167.537 167.59 166.474 166.304 165.197 166.157 
164.918 163.878 166.075 164.608 163.461 162.509 166.239 164.37 163.06 
162.038 161.104 166.571 164.477 162.858 161.853 160.783 159.906 166.844 
164.927 163.06 161.959 160.978 159.897 159.332 167.143 165.548 163.68 
162.321 161.321 160.269 159.547 159.338 167.602 166.236 164.541 163.02 
161.785 160.622 159.797 159.514 159.446 168.121 166.905 165.391 163.907 
162.579 161.236 160.112 159.594 159.501 159.437 165.894 164.6 165.593 
163.298 164.337 165.573 161.95 163.111 164.403 165.625 160.597 161.87 
163.279 164.595 165.692 159.636 160.698 162.145 163.573 164.818 165.87 
159.32 159.876 161.062 162.502 163.878 165.058 166.146 159.321 159.441 
160.183 161.469 162.889 164.161 165.319 166.494 159.314 159.258 159.644 
160.654 161.999 163.285 164.448 165.648 166.89 159.397 159.312 159.678 
159.833 160.47 159.483 160.897 161.487 160.339 160.181 162.015 162.501 
161.53 161.181 161.349 163.082 163.604 162.631 162.251 162.216 162.623 
164.22 164.709 163.761 163.327 163.142 163.328 163.808 165.304 165.75 
164.92 164.522 164.263 164.256 164.518 165.036 166.344 166.831 165.974 
165.655 165.458 165.406 165.486 165.829 166.379 167.378 167.891 166.979 
166.674 166.529 166.546 166.586 166.744 167.164 167.652 159.517 159.691 
159.927 160.437 160.934 160.25 161.649 162.26 161.207 161.139 162.918 
163.453 162.396 162.081 162.127 164.1 164.584 163.593 163.236 163.141 
163.264 165.364 165.765 164.881 164.496 164.419 164.442 164.479 166.551 
166.836 166.197 165.807 165.68 165.73 165.649 165.579 167.533 167.802 
167.288 167.005 166.835 166.862 166.857 166.734 166.696 168.474 168.773 
168.226 168.028 167.906 167.887 167.921 167.922 167.889 167.869 168.906 
167.839 168.714 167.442 168.426 166.414 167.031 168.087 165.909 164.889 
166.831 167.929 165.602 164.513 163.549 166.963 168.054 165.672 164.42 
163.337 162.204 167.184 168.232 165.951 164.615 163.39 162.089 160.825 
167.31 168.346 166.172 164.893 163.658 162.361 160.926 159.914 167.49 
168.515 166.428 165.245 164.048 162.872 161.499 160.225 159.6 169.775 
169.709 170.595 170.592 171.529 169.626 171.61 172.564 170.612 169.411 
172.647 173.593 171.647 170.44 169.09 173.635 174.586 172.606 171.491 
170.204 168.991 174.645 175.512 173.57 172.48 171.38 170.221 169.159 
175.569 176.302 174.602 173.488 172.439 171.419 170.365 169.325 176.304 
177.01 175.499 174.508 173.453 172.438 171.449 170.462 169.459 176.974 
177.705 176.229 175.393 174.461 173.456 172.429 171.48 170.58 169.65 