# vtk DataFile Version 4.0
vtk output
ASCII
DATASET POLYDATA
POINTS 1002 float
-103.208 -122.31 77.147 -103.802 -123.165 76.8829 -103.742 -122.47 76.2549 
-103.214 -121.39 76.5348 -103.755 -121.558 75.6377 -102.832 -120.978 77.4864 
-103.183 -120.308 75.8811 -103.746 -120.496 74.9558 -102.757 -119.909 76.8568 
-102.458 -119.338 77.9026 -103.02 -119.199 75.071 -103.621 -119.415 74.2038 
-102.517 -118.847 76.1133 -102.126 -118.366 77.1898 -101.663 -118.004 78.2876 
-102.777 -118.111 74.2461 -103.459 -118.341 73.5212 -102.19 -117.817 75.2595 
-101.65 -117.484 76.3691 -101.127 -117.229 77.4736 -100.504 -117.138 78.6032 
-102.568 -116.962 73.6157 -103.396 -117.175 73.0311 -101.887 -116.731 74.4933 
-101.174 -116.567 75.5398 -100.553 -116.41 76.6092 -100.01 -116.301 77.7598 
-99.5591 -116.131 78.9656 -102.374 -115.752 73.1177 -103.416 -115.921 72.7166 
-101.539 -115.577 73.7984 -100.749 -115.519 74.7372 -100.033 -115.457 75.753 
-99.5788 -115.269 76.8821 -99.2587 -115.038 78.146 -99.0879 -114.704 79.3904 
-102.209 -114.598 72.6646 -103.42 -114.733 72.4482 -101.153 -114.449 73.1021 
-100.391 -114.357 73.917 -99.7503 -114.301 74.9173 -99.3108 -114.086 76.0212 
-99.1071 -113.761 77.272 -98.9836 -113.461 78.564 -98.9259 -113.142 79.7785 
-102.168 -113.548 72.2654 -103.349 -113.705 72.0901 -100.975 -113.373 72.5667 
-100.217 -113.144 73.2632 -99.7846 -112.921 74.2309 -99.3716 -112.678 75.2786 
-99.079 -112.367 76.4434 -98.9966 -112.066 77.6918 -98.9819 -111.818 78.9274 
-98.9366 -111.585 80.1162 -102.22 -112.581 71.908 -103.201 -112.804 71.6519 
-101.086 -112.324 72.233 -100.279 -111.958 72.8721 -99.9375 -111.521 73.7769 
-99.6171 -111.126 74.7176 -99.1716 -110.826 75.7273 -98.9425 -110.585 76.8779 
-98.9921 -110.365 78.0708 -99.0614 -110.178 79.2616 -99.0216 -110.04 80.4284 
-104.493 -123.452 76.2073 -104.402 -122.76 75.5203 -105.334 -123.689 75.4801 
-105.223 -123.017 74.7045 -106.357 -123.831 74.7375 -104.398 -121.868 74.8413 
-106.246 -123.167 73.9145 -107.491 -123.842 73.9911 -105.203 -122.145 74.0103 
-104.436 -120.778 74.2057 -107.424 -123.066 73.2394 -108.641 -123.677 73.2675 
-106.207 -122.234 73.244 -105.317 -120.972 73.4748 -104.43 -119.615 73.576 
-108.697 -122.689 72.6366 -109.884 -123.263 72.6521 -107.343 -122.042 72.5184 
-106.277 -121.038 72.6419 -105.424 -119.738 72.8764 -104.409 -118.459 72.9495 
-110.002 -122.219 71.9978 -111.144 -122.775 72.0891 -108.574 -121.703 71.7618 
-107.22 -121.05 71.683 -106.269 -119.94 71.9084 -105.421 -118.571 72.1999 
-104.452 -117.204 72.4953 -111.129 -121.844 71.2639 -112.182 -122.409 71.412 
-109.794 -121.357 70.9963 -108.319 -120.94 70.8268 -107.066 -120.137 70.9411 
-106.164 -118.79 71.266 -105.383 -117.271 71.766 -104.5 -115.875 72.2676 
-112.036 -121.439 70.5356 -113.015 -122.005 70.6738 -110.828 -120.965 70.2945 
-109.494 -120.619 70.1545 -108.173 -120.017 70.2598 -107.02 -118.854 70.5146 
-106.105 -117.383 70.9496 -105.304 -115.934 71.5732 -104.408 -114.679 72.022 
-112.882 -120.828 69.991 -113.768 -121.41 70.0691 -111.747 -120.392 69.7603 
-110.511 -120.133 69.5594 -109.32 -119.675 69.6403 -108.177 -118.679 69.9415 
-107.075 -117.38 70.3183 -106.044 -116.073 70.8173 -105.08 -114.799 71.3229 
-104.139 -113.677 71.5929 -113.998 -120.294 69.6363 -112.989 -119.725 69.4948 
-114.111 -119.205 69.238 -112.965 -118.725 68.8909 -113.999 -118.254 68.608 
-111.697 -119.485 69.102 -112.683 -117.822 68.0544 -113.69 -117.232 67.9187 
-111.486 -118.625 68.2311 -110.374 -119.285 68.8565 -112.247 -116.8 67.5731 
-113.28 -116.198 67.8568 -111.056 -117.605 67.4407 -110.053 -118.26 68.0485 
-109.226 -118.51 69.1255 -111.861 -115.714 68.0345 -112.782 -115.323 68.5817 
-110.677 -116.25 67.5457 -109.658 -116.896 67.7745 -108.998 -117.208 68.7697 
-108.164 -117.26 69.7204 -111.527 -114.467 68.9469 -112.247 -114.181 69.4336 
-110.515 -114.711 68.4702 -109.494 -115.192 68.422 -108.786 -115.736 69.0356 
-108.029 -115.972 69.7735 -106.967 -116.021 70.2929 -111.195 -112.818 69.6193 
-111.804 -112.566 70.0117 -110.369 -113.071 69.3574 -109.448 -113.441 69.337 
-108.649 -113.993 69.6691 -107.781 -114.472 70.0655 -106.645 -114.688 70.3178 
-105.65 -114.747 70.7055 -110.887 -111.173 70.1611 -111.468 -111.049 70.5509 
-110.121 -111.502 70.0269 -109.244 -111.928 70.0905 -108.397 -112.308 70.2332 
-107.446 -112.624 70.3099 -106.212 -112.935 70.2795 -105.083 -113.224 70.4298 
-104.466 -113.455 70.9501 -110.566 -110.052 70.8954 -111.127 -110.041 71.284 
-109.814 -110.335 70.7866 -108.914 -110.779 70.8761 -108.012 -111.042 70.8719 
-107.082 -111.017 70.6363 -105.913 -111.069 70.3357 -104.69 -111.449 70.2559 
-103.894 -111.964 70.5632 -103.527 -112.413 71.1227 -102.555 -111.723 71.4805 
-102.965 -111.19 71.0464 -102.022 -110.421 71.5828 -103.516 -110.537 70.6529 
-102.615 -109.83 71.3664 -101.576 -108.763 71.8416 -104.503 -109.871 70.4904 
-103.463 -109.145 71.1905 -102.392 -108.14 71.8402 -101.213 -106.717 72.0017 
-105.712 -109.607 70.7301 -104.578 -108.537 71.1203 -103.486 -107.518 71.7898 
-102.205 -106.002 72.0894 -101.079 -104.589 72.1335 -106.746 -109.843 71.295 
-105.609 -108.399 71.4533 -104.611 -107.024 71.7535 -103.415 -105.444 72.0694 
-102.163 -103.845 72.1705 -101.226 -102.838 72.414 -107.694 -109.997 71.7227 
-106.49 -108.619 72.0991 -105.521 -106.863 72.0885 -104.568 -105.104 72.1234 
-103.434 -103.42 72.1987 -102.369 -102.193 72.3794 -101.539 -101.548 72.8629 
-108.707 -109.745 71.7528 -107.476 -108.687 72.4757 -106.413 -106.901 72.5789 
-105.561 -105.016 72.464 -104.655 -103.355 72.462 -103.662 -101.948 72.5554 
-102.752 -101.046 72.8944 -101.938 -100.574 73.5105 -109.628 -109.415 71.719 
-108.491 -108.564 72.5368 -107.405 -106.974 72.8523 -106.534 -105.089 72.8309 
-105.717 -103.543 72.9239 -104.829 -102.177 73.0706 -103.977 -100.982 73.2477 
-103.176 -100.258 73.6673 -102.361 -99.9073 74.3105 -110.334 -109.299 71.9435 
-109.322 -108.496 72.6896 -108.292 -107.14 73.1005 -107.451 -105.343 73.1603 
-106.686 -103.812 73.3385 -105.826 -102.625 73.6835 -105.001 -101.408 73.8935 
-104.297 -100.363 74.0874 -103.571 -99.791 74.5114 -102.761 -99.5366 75.1331 
-101.571 -111.354 71.8685 -101.039 -109.759 72.0186 -100.599 -110.855 72.4318 
-100.539 -107.804 72.0932 -100.174 -109.036 72.6133 -100.045 -110.264 73.2702 
-100.227 -105.688 72.1666 -99.6983 -107.056 72.6124 -99.6212 -108.374 73.4329 
-99.7201 -109.666 74.179 -100.304 -103.749 72.5523 -99.569 -105.069 72.9014 
-99.1912 -106.473 73.5712 -99.1887 -107.762 74.384 -99.2394 -109.209 75.1127 
-100.578 -102.188 73.114 -99.8508 -103.239 73.5597 -99.3811 -104.622 74.1787 
-99.098 -105.983 74.8611 -98.9156 -107.357 75.5621 -98.8707 -108.955 76.2512 
-100.875 -100.953 73.723 -100.099 -101.684 74.1738 -99.7769 -102.949 74.9003 
-99.6476 -104.421 75.682 -99.307 -105.747 76.3308 -98.9392 -107.152 76.9221 
-98.8931 -108.765 77.5075 -101.239 -100.049 74.4916 -100.293 -100.448 74.8384 
-99.852 -101.465 75.4991 -99.8754 -102.986 76.389 -99.7726 -104.377 77.1615 
-99.32 -105.57 77.7252 -99.0269 -106.961 78.2324 -99.0509 -108.583 78.7506 
-101.662 -99.5252 75.3594 -100.628 -99.6376 75.6995 -99.9324 -100.251 76.2532 
-99.7159 -101.541 77.0501 -99.6684 -102.987 77.8526 -99.3714 -104.177 78.4635 
-99.0371 -105.382 78.9692 -99.0117 -106.861 79.4803 -99.0902 -108.494 79.9842 
-102.497 -99.2747 76.1711 -101.376 -99.2211 76.5583 -102.334 -99.048 77.4834 
-101.296 -99.0924 78.0365 -102.39 -98.9713 79.0445 -100.438 -99.3993 77.1088 
-101.434 -99.2661 79.6878 -102.551 -99.1485 80.7054 -100.483 -99.4945 78.747 
-99.8411 -100.202 77.8392 -101.586 -99.6328 81.3525 -102.662 -99.4315 82.2901 
-100.647 -99.9297 80.3867 -99.9057 -100.4 79.4929 -99.5315 -101.506 78.6088 
-101.741 -99.9924 82.8855 -102.855 -99.8221 83.6322 -100.76 -100.434 81.9672 
-100.059 -100.862 81.0468 -99.4564 -101.577 80.1317 -99.21 -102.823 79.2401 
-102.093 -100.603 84.0856 -103.192 -100.604 84.6396 -100.95 -100.927 83.4062 
-100.191 -101.429 82.5754 -99.6353 -102.038 81.6407 -99.051 -102.967 80.6766 
-98.8751 -104.149 79.7797 -102.527 -101.629 84.9391 -103.463 -101.618 85.4629 
-101.391 -101.76 84.4646 -100.416 -102.104 83.8999 -99.8726 -102.73 83.0823 
-99.361 -103.614 82.1275 -98.8956 -104.619 81.2119 -98.8537 -105.682 80.3385 
-102.817 -102.635 85.716 -103.615 -102.437 86.2841 -101.919 -102.861 85.2208 
-100.926 -103.098 84.8069 -100.183 -103.559 84.2034 -99.7338 -104.382 83.3543 
-99.3023 -105.366 82.52 -99.0157 -106.329 81.7451 -99.0164 -107.356 80.8885 
-103.022 -103.375 86.5276 -103.799 -103.085 87.0365 -102.333 -103.794 85.9588 
-101.566 -104.186 85.4838 -100.741 -104.593 85.0017 -100.111 -105.22 84.3146 
-99.68 -106.072 83.5539 -99.303 -106.994 82.8995 -99.0657 -107.959 82.2045 
-99.0136 -108.996 81.3408 -103.726 -99.439 75.591 -103.593 -99.1613 76.7591 
-104.833 -99.4339 76.2334 -104.904 -99.0599 77.5535 -106.015 -99.5297 77.013 
-103.559 -98.918 78.247 -106.243 -99.0911 78.3535 -107.113 -99.7389 77.718 
-104.982 -98.8664 79.1067 -103.659 -98.926 79.903 -107.413 -99.3399 78.94 
-108.046 -100.162 78.3137 -106.364 -99.0369 79.7588 -105.02 -99.1201 80.6489 
-103.729 -99.2261 81.5297 -108.404 -99.8929 79.4902 -108.874 -100.906 78.9177 
-107.6 -99.3967 80.2879 -106.379 -99.4533 81.2173 -104.978 -99.5572 82.1697 
-103.767 -99.5571 83.0299 -109.268 -100.758 80.1264 -109.69 -101.763 79.4655 
-108.645 -100.03 80.9999 -107.681 -99.812 81.9457 -106.376 -99.8519 82.8207 
-105.017 -99.8801 83.6324 -103.961 -100.067 84.2819 -110.087 -101.645 80.7005 
-110.509 -102.467 79.9279 -109.51 -100.921 81.7202 -108.719 -100.46 82.7571 
-107.693 -100.262 83.5486 -106.442 -100.26 84.187 -105.201 -100.495 84.817 
-104.226 -100.968 85.2737 -110.851 -102.411 81.1976 -111.198 -103.132 80.405 
-110.346 -101.79 82.2341 -109.597 -101.333 83.2886 -108.673 -101.066 84.0508 
-107.658 -100.978 84.5783 -106.525 -101.116 85.1807 -105.39 -101.447 85.8041 
-104.413 -101.884 86.1758 -111.418 -103.241 81.6563 -111.664 -103.946 80.8793 
-111.076 -102.638 82.6124 -110.474 -102.188 83.5722 -109.561 -101.974 84.304 
[...]
CELL_DATA 2000
SCALARS Distance double
LOOKUP_TABLE default
176.946 176.091 176.374 176.034 175.107 175.434 175.038 175.355 174.94 
173.986 174.343 173.892 174.261 173.803 174.166 173.732 172.822 173.15 
172.656 173.041 172.571 172.965 172.528 172.932 172.551 171.71 171.972 
171.434 171.789 171.31 171.708 171.267 171.693 171.313 171.767 171.441 
170.657 170.85 170.228 170.55 170.026 170.431 169.963 170.401 169.996 
170.481 170.152 170.658 170.37 169.671 169.786 169.056 169.306 168.712 
169.111 168.633 169.08 168.665 169.142 168.808 169.332 169.067 169.599 
169.364 168.771 168.823 168.043 168.162 167.524 167.824 167.374 167.784 
167.406 167.84 167.503 167.994 167.735 168.284 168.082 168.631 168.449 
167.927 167.971 167.225 167.246 166.598 166.757 166.311 166.627 166.271 
166.64 166.275 166.704 166.397 166.937 166.727 167.323 167.164 167.742 
167.596 177.323 177.634 177.153 176.493 177.986 177.465 176.773 176.282 
175.554 178.367 177.828 177.111 176.578 175.839 175.307 174.503 178.704 
178.198 177.471 176.924 176.175 175.624 174.832 174.242 173.397 178.959 
178.498 177.762 177.241 176.465 175.947 175.17 174.606 173.779 173.159 
172.322 179.176 178.732 177.991 177.482 176.681 176.185 175.406 174.909 
174.115 173.549 172.726 172.119 171.313 179.338 178.924 178.181 177.692 
176.902 176.4 175.627 175.129 174.345 173.828 173.024 172.488 171.703 
171.135 170.364 179.365 179.015 178.262 177.841 177.08 176.63 175.896 
175.395 174.614 174.062 173.243 172.722 171.945 171.461 170.717 170.188 
169.444 179.264 178.969 178.223 177.865 177.126 176.762 176.073 175.657 
174.919 174.377 173.563 172.981 172.196 171.68 170.941 170.462 169.723 
169.233 168.517 178.952 178.136 178.337 177.902 177.245 177.472 177.007 
177.237 176.818 176.18 176.481 175.982 176.281 175.857 176.165 175.784 
175.094 175.351 174.812 175.142 174.685 175.101 174.719 175.094 174.645 
174.301 174.382 173.798 173.971 173.47 173.854 173.505 173.954 173.556 
173.872 173.332 173.617 173.687 173.054 173.084 172.516 172.73 172.412 
172.804 172.521 172.824 172.34 172.532 171.977 172.655 172.867 172.213 
172.33 171.714 171.871 171.477 171.806 171.506 171.83 171.324 171.531 
170.892 171.147 170.627 171.611 171.808 171.219 171.412 170.865 171.051 
170.585 170.854 170.385 170.709 170.049 170.34 169.553 169.899 169.262 
169.736 169.311 170.887 170.924 170.448 170.546 170.136 170.264 169.832 
169.966 169.386 169.535 168.756 168.946 168.105 168.421 167.766 168.262 
167.858 168.434 168.129 167.355 167.061 166.862 166.178 166.879 166.577 
165.956 165.755 165.049 167.104 166.533 165.904 165.628 165.04 164.661 
163.784 167.791 166.98 166.258 165.753 165.214 164.777 163.963 163.35 
162.353 168.649 167.832 167.069 166.306 165.662 165.075 164.301 163.627 
162.618 161.957 161.124 169.311 168.708 168.036 167.213 166.426 165.638 
164.809 164.059 163.108 162.341 161.477 160.921 160.408 169.694 169.301 
168.77 168.108 167.295 166.436 165.523 164.684 163.812 162.985 162.191 
161.45 160.911 160.424 160.165 170.015 169.671 169.254 168.747 168.035 
167.246 166.333 165.47 164.663 163.844 163.182 162.356 161.833 161.129 
160.842 160.364 160.26 170.461 170.066 169.719 169.251 168.679 167.97 
167.156 166.309 165.562 164.779 164.238 163.461 163.008 162.207 161.871 
161.21 161.069 160.598 160.586 167.237 166.047 166.614 166.558 164.805 
165.381 165.31 165.921 165.94 163.367 164.001 163.888 164.622 164.716 
165.423 165.635 161.887 162.467 162.321 163.108 163.245 164.118 164.397 
165.207 165.527 160.774 161.141 161.047 161.647 161.816 162.626 162.943 
163.84 164.199 165.076 165.455 160.142 160.304 160.277 160.652 160.895 
161.459 161.857 162.531 162.97 163.741 164.222 165.06 165.573 159.875 
159.869 159.796 160.041 160.31 160.788 161.324 161.83 162.387 162.854 
163.393 163.99 164.593 165.337 165.952 159.933 159.748 159.581 159.636 
159.805 160.234 160.806 161.418 162.073 162.537 163.035 163.425 163.927 
164.499 165.117 165.826 166.442 160.258 159.943 159.739 159.562 159.606 
159.794 160.251 160.833 161.487 162.114 162.591 163.048 163.401 163.889 
164.383 165.04 165.661 166.355 166.931 160.446 160.691 160.312 159.92 
161.257 160.697 160.313 159.914 159.777 162.175 161.468 161.13 160.533 
160.428 160.07 160.356 163.237 162.519 162.231 161.548 161.433 160.909 
161.106 160.911 161.459 164.281 163.601 163.358 162.706 162.593 162.003 
162.057 161.684 162.005 161.975 162.48 165.418 164.701 164.496 163.833 
163.758 163.17 163.216 162.693 162.864 162.549 162.913 162.874 163.337 
166.653 165.935 165.771 165.048 164.982 164.353 164.451 163.902 164.112 
163.598 163.918 163.548 164.027 163.854 164.411 167.781 167.168 167.064 
166.385 166.338 165.657 165.739 165.161 165.404 164.904 165.247 164.775 
165.216 164.837 165.391 165.137 165.731 168.742 168.227 168.187 167.638 
167.663 167.042 167.125 166.502 166.696 166.175 166.491 166.062 166.452 
166.077 166.529 166.222 166.727 166.489 166.996 160.901 161.793 161.255 
161.178 162.906 162.275 162.216 161.658 161.73 164.108 163.472 163.448 
162.825 162.91 162.374 162.607 165.27 164.674 164.695 164.107 164.22 
163.647 163.848 163.344 163.63 166.482 165.858 165.922 165.356 165.522 
164.975 165.176 164.623 164.839 164.35 164.638 167.796 167.15 167.255 
166.652 166.874 166.31 166.55 165.964 166.159 165.587 165.828 165.367 
165.728 169.064 168.486 168.636 168.053 168.297 167.723 167.979 167.371 
167.566 166.94 167.153 166.613 166.941 166.517 166.925 170.206 169.716 
169.91 169.409 169.656 169.129 169.357 168.782 168.959 168.35 168.544 
167.973 168.26 167.769 168.113 167.693 168.033 171.26 170.828 171.052 
170.624 170.879 170.412 170.616 170.088 170.243 169.688 169.875 169.34 
169.604 169.096 169.386 168.895 169.16 168.719 168.982 170.678 170.736 
170.44 169.876 170.635 170.39 169.707 169.489 168.759 170.434 170.185 
169.438 169.206 168.371 168.143 167.249 170.337 170.003 169.257 168.941 
168.121 167.783 166.898 166.592 165.751 170.395 169.995 169.27 168.866 
168.081 167.652 166.818 166.402 165.609 165.264 164.534 170.544 170.117 
169.414 168.966 168.187 167.706 166.877 166.418 165.632 165.238 164.496 
164.136 163.389 170.746 170.307 169.629 169.163 168.413 167.885 167.066 
166.54 165.759 165.309 164.58 164.16 163.419 163.007 162.29 170.971 
170.533 169.883 169.418 168.721 168.182 167.414 166.825 166.075 165.534 
164.857 164.352 163.678 163.164 162.501 162.04 161.48 171.242 170.796 
170.192 169.717 169.079 168.548 167.843 167.248 166.533 165.949 165.31 
164.758 164.153 163.578 162.967 162.404 161.862 161.4 160.977 171.231 
172.238 171.6 171.342 173.314 172.644 172.349 171.687 171.325 174.338 
173.686 173.392 172.727 172.37 171.631 171.19 175.355 174.686 174.398 
173.757 173.456 172.734 172.327 171.522 171.101 176.441 175.747 175.457 
174.777 174.499 173.818 173.471 172.702 172.282 171.486 171.122 177.5 
176.86 176.597 175.888 175.577 174.867 174.523 173.808 173.426 172.67 
172.297 171.545 171.245 178.436 177.879 177.654 177.013 176.698 175.972 
175.599 174.861 174.506 173.787 173.473 172.739 172.448 171.705 171.444 
179.309 178.781 178.574 178.002 177.727 177.064 176.712 175.973 175.622 
174.894 174.614 173.911 173.656 172.926 172.649 171.909 171.65 180.163 
179.657 179.467 178.911 178.67 178.058 177.758 177.074 176.743 176.03 
175.73 175.042 174.777 174.093 173.81 173.096 172.805 172.099 171.867 
180.567 180.962 180.488 179.893 181.319 180.861 180.237 179.744 179.077 
181.591 181.16 180.502 180.037 179.321 178.855 178.148 181.797 181.378 
180.692 180.247 179.514 179.053 178.306 177.867 177.145 181.98 181.571 
180.893 180.433 179.702 179.228 178.469 178.007 177.258 176.835 176.133 
182.11 181.747 181.084 180.639 179.906 179.429 178.675 178.189 177.42 
176.951 176.21 175.815 175.147 182.077 181.81 181.13 180.767 180.011 
179.594 178.844 178.402 177.649 177.153 176.374 175.9 175.167 174.81 
174.156 181.815 181.65 180.957 180.704 179.943 179.613 178.857 178.505 
177.782 177.367 176.6 176.101 175.315 174.855 174.143 173.802 173.164 
181.377 181.274 180.586 180.434 179.714 179.476 178.736 178.448 177.724 
177.409 176.672 176.277 175.501 175.038 174.292 173.857 173.194 172.843 
172.251 180.859 179.745 180.229 180.059 178.636 179.091 178.942 179.426 
179.234 177.652 178.018 177.831 178.301 178.123 178.572 178.312 176.629 
177.002 176.697 177.161 176.922 177.415 177.143 177.593 177.292 175.31 
175.803 175.397 175.918 175.599 176.138 175.823 176.336 176.018 176.525 
176.22 173.768 174.335 173.94 174.509 174.188 174.756 174.442 174.97 
174.648 175.184 174.896 175.425 175.101 172.234 172.806 172.493 173.06 
172.788 173.348 173.065 173.591 173.289 173.818 173.556 174.098 173.829 
174.303 173.958 170.829 171.366 171.126 171.681 171.447 171.988 171.714 
172.231 171.942 172.473 172.236 172.789 172.568 173.066 172.775 173.192 
172.864 169.634 170.08 169.869 170.377 170.16 170.675 170.409 170.908 
170.638 171.154 170.947 171.496 171.32 171.838 171.601 172.039 171.745 
172.153 171.892 181.179 181.323 180.854 180.05 181.376 180.955 180.109 
179.674 178.914 181.164 180.886 180.044 179.689 178.931 178.592 177.949 
180.7 180.536 179.708 179.496 178.766 178.557 177.945 177.677 177.007 
180.17 180.039 179.251 179.086 178.352 178.245 177.62 177.529 176.851 
176.597 175.726 179.666 179.555 178.845 178.674 177.941 177.785 177.069 
177.012 176.288 176.218 175.344 175.106 174.122 179.177 179.09 178.427 
178.294 177.587 177.406 176.628 176.447 175.633 175.532 174.681 174.563 
173.616 173.413 172.487 178.7 178.624 177.959 177.849 177.147 177.018 
176.259 176.049 175.197 174.962 174.092 173.913 173.035 172.856 171.963 
171.797 171.007 178.218 178.154 177.494 177.374 176.666 176.548 175.823 
175.662 174.851 174.595 173.719 173.451 172.6 172.363 171.542 171.32 
170.56 170.413 169.788 181.914 183.105 182.383 182.119 184.294 183.596 
183.312 182.557 182.184 185.238 184.704 184.357 183.663 183.222 182.498 
181.97 185.645 185.401 185.013 184.503 183.972 183.384 182.832 182.142 
181.501 185.67 185.563 185.179 184.874 184.304 183.911 183.358 182.867 
182.259 181.583 180.914 185.755 185.583 185.213 184.916 184.371 184.064 
183.549 183.236 182.7 182.215 181.565 180.939 180.307 185.857 185.718 
185.37 185.037 184.533 184.164 183.705 183.397 182.948 182.565 181.979 
181.465 180.83 180.297 179.743 185.721 185.723 185.421 185.207 184.747 
184.406 183.975 183.643 183.256 182.868 182.348 181.843 181.218 180.719 
180.157 179.714 179.224 185.479 185.517 185.289 185.191 184.796 184.565 
184.133 183.884 183.503 183.206 182.738 182.268 181.648 181.104 180.504 
180.056 179.561 179.173 178.713 185.359 185.205 185.243 185.134 185.022 
185.067 184.844 184.873 184.633 184.544 184.773 184.482 184.508 184.131 
184.227 183.958 183.594 184.079 183.801 183.975 183.486 183.616 183.281 
183.527 183.321 182.358 182.962 182.759 183.113 182.636 182.835 182.43 
182.746 182.534 182.862 182.576 181.14 181.71 181.57 182.016 181.655 
181.921 181.518 181.829 181.577 181.965 181.677 181.959 181.502 180.015 
180.531 180.403 180.872 180.61 180.946 180.598 180.905 180.625 180.986 
180.7 181.002 180.582 180.799 180.346 178.932 179.417 179.28 179.75 
179.533 179.922 179.621 179.961 179.674 180.032 179.752 180.059 179.687 
179.908 179.503 179.724 179.388 177.902 178.345 178.204 178.655 178.461 
178.869 178.6 178.962 178.674 179.047 178.775 179.123 178.794 179.052 
178.671 178.902 178.567 178.832 178.546 177.302 176.408 177.104 177.564 
175.345 176.134 176.61 177.344 177.791 174.161 174.999 175.486 176.308 
176.769 177.518 177.919 172.984 173.794 174.262 175.116 175.586 176.417 
176.85 177.603 177.996 171.885 172.644 173.08 173.888 174.348 175.192 
175.657 176.484 176.932 177.692 178.098 170.832 171.564 171.996 172.754 
173.21 173.997 174.47 175.286 175.76 176.579 177.015 177.774 178.122 
169.824 170.521 170.951 171.694 172.162 172.92 173.395 174.158 174.616 
175.402 175.832 176.626 177.001 177.737 178.028 168.897 169.539 169.934 
170.649 171.1 171.87 172.339 173.106 173.54 174.287 174.687 175.446 
175.833 176.593 176.954 177.653 177.96 168.047 168.641 168.994 169.646 
170.047 170.786 171.234 172.017 172.454 173.21 173.605 174.336 174.723 
175.461 175.855 176.588 176.962 177.636 177.956 177.738 176.707 177.163 
176.983 175.583 176.061 175.866 176.332 176.135 174.433 174.899 174.679 
175.168 174.951 175.451 175.257 173.28 173.721 173.443 173.935 173.662 
174.189 173.927 174.495 174.25 172.093 172.524 172.184 172.662 172.334 
172.842 172.512 173.07 172.769 173.381 173.106 170.853 171.276 170.884 
171.36 171.01 171.506 171.165 171.663 171.346 171.894 171.626 172.226 
171.989 169.673 170.031 169.603 170.033 169.653 170.153 169.816 170.331 
170.026 170.542 170.281 170.816 170.583 171.155 170.945 168.641 168.918 
168.48 168.807 168.395 168.811 168.443 168.948 168.634 169.197 168.941 
169.509 169.281 169.819 169.604 170.158 169.994 167.693 167.934 167.475 
167.744 167.304 167.628 167.228 167.628 167.28 167.782 167.514 168.11 
167.915 168.517 168.348 168.896 168.76 169.305 169.247 179.922 180.033 
180.296 180.896 179.983 180.329 180.924 181.229 181.84 179.804 180.198 
180.806 181.186 181.852 182.202 182.889 179.597 179.998 180.639 181.053 
181.809 182.228 183.035 183.346 184.047 179.368 179.8 180.461 180.9 
181.678 182.173 183.026 183.47 184.219 184.486 185.032 179.049 179.543 
180.2 180.686 181.387 181.939 182.689 183.282 183.961 184.455 184.958 
185.269 185.564 178.656 179.179 179.818 180.345 180.964 181.519 182.145 
182.763 183.372 183.978 184.473 184.958 185.263 185.557 185.64 178.264 
178.765 179.377 179.907 180.497 181.027 181.615 182.178 182.81 183.386 
183.979 184.46 184.868 185.185 185.351 185.512 185.502 177.912 178.372 
178.949 179.453 180.034 180.548 181.138 181.674 182.325 182.898 183.563 
184.068 184.564 184.883 185.112 185.263 185.311 185.389 185.4 180.006 
181.018 180.502 180.443 182.052 181.563 181.586 180.983 180.894 183.114 
182.639 182.754 182.19 182.153 181.46 181.286 184.18 183.704 183.799 
183.323 183.323 182.717 182.515 181.776 181.45 185.125 184.711 184.726 
184.29 184.281 183.79 183.61 182.941 182.559 181.806 181.385 185.678 
185.475 185.45 185.114 185.086 184.689 184.596 184.009 183.684 182.903 
182.449 181.683 181.279 185.719 185.75 185.684 185.587 185.506 185.341 
185.296 184.949 184.724 184.047 183.583 182.766 182.29 181.569 181.195 
185.532 185.62 185.536 185.57 185.445 185.479 185.416 185.399 185.243 
184.915 184.458 183.803 183.216 182.52 182.045 181.441 181.079 185.462 
185.481 185.462 185.429 185.352 185.334 185.291 185.339 185.274 185.194 
184.861 184.453 183.863 183.281 182.726 182.185 181.78 181.278 180.947 
179.417 179.829 179.299 178.634 180.217 179.691 179.023 178.496 177.771 
180.541 180.039 179.325 178.834 178.084 177.548 176.72 180.698 180.28 
179.526 179.074 178.287 177.788 176.941 176.41 175.612 180.67 180.339 
179.606 179.212 178.439 177.967 177.142 176.616 175.858 175.386 174.786 
180.598 180.287 179.601 179.251 178.547 178.129 177.392 176.878 176.158 
175.664 175.075 174.669 174.114 180.557 180.25 179.596 179.257 178.604 
178.243 177.591 177.158 176.482 175.996 175.35 174.922 174.302 173.899 
173.19 180.5 180.223 179.597 179.277 178.645 178.31 177.681 177.323 
176.665 176.258 175.573 175.152 174.471 174.049 173.337 172.88 172.147 
180.409 180.161 179.566 179.278 178.675 178.362 177.744 177.398 176.735 
176.362 175.676 175.295 174.627 174.225 173.565 173.099 172.443 171.948 
171.375 182.015 182.45 182.546 183.168 182.684 182.892 183.521 183.7 
184.336 182.692 182.998 183.583 183.899 184.52 184.778 185.27 182.603 
182.951 183.538 183.864 184.414 184.755 185.205 185.462 185.675 182.468 
182.865 183.543 183.868 184.444 184.665 185.057 185.256 185.494 185.655 
185.732 182.207 182.665 183.334 183.815 184.46 184.764 185.17 185.242 
185.444 185.496 185.667 185.742 185.852 181.835 182.292 182.806 183.39 
183.971 184.56 185.01 185.314 185.477 185.534 185.607 185.688 185.81 
185.899 185.941 181.438 181.853 182.26 182.757 183.246 183.876 184.383 
184.928 185.189 185.434 185.439 185.555 185.548 185.722 185.732 185.863 
185.777 181.044 181.441 181.845 182.25 182.726 183.226 183.807 184.334 
184.799 185.109 185.251 185.336 185.31 185.405 185.403 185.557 185.538 
185.627 185.533 
POINT_DATA 1002
SCALARS Distance double
LOOKUP_TABLE default
176.661 177.481 176.697 175.766 175.813 175.676 174.724 174.787 174.625 
174.522 173.52 173.653 173.435 173.352 173.325 172.28 172.533 172.17 
172.111 172.123 172.208 171.104 171.495 170.92 170.844 170.846 170.972 
171.145 169.954 170.524 169.63 169.531 169.515 169.628 169.859 170.109 
168.881 169.611 168.336 168.174 168.197 168.285 168.513 168.834 169.153 
167.979 168.726 167.272 166.966 166.984 167.042 167.186 167.509 167.909 
168.288 167.209 167.847 166.489 166.036 165.936 165.899 165.89 166.12 
166.556 167.032 167.472 177.793 176.97 178.141 177.286 178.532 176.065 
177.667 178.905 176.383 175.071 178.023 179.186 176.724 175.422 174.006 
178.287 179.407 176.977 175.698 174.392 172.941 178.504 179.62 177.185 
175.884 174.641 173.315 171.924 178.651 179.745 177.39 176.133 174.866 
173.53 172.23 170.959 178.652 179.7 177.485 176.369 175.188 173.791 
172.41 171.199 169.996 178.557 179.536 177.461 176.435 175.417 174.154 
172.747 171.434 170.195 168.979 178.765 177.69 177.956 176.772 177.008 
176.562 175.666 175.867 175.512 175.501 174.522 174.895 174.251 174.293 
174.367 173.732 174.279 173.144 173.02 173.206 173.099 173.054 173.522 
172.38 172.032 172.192 172.171 171.754 172.03 172.416 171.56 171.208 
171.2 171.133 170.672 170.255 170.983 171.437 170.649 170.391 170.16 
169.799 169.219 168.772 168.762 170.355 170.871 170.008 169.757 169.352 
168.649 167.823 167.276 167.253 167.561 166.657 166.37 165.509 166.11 
165.39 164.252 166.217 165.389 164.346 162.759 166.903 165.658 164.6 
162.949 161.355 167.947 166.36 164.971 163.339 161.572 160.45 168.828 
167.335 165.587 163.873 162.116 160.746 160.032 169.323 168.165 166.39 
164.598 162.969 161.492 160.499 159.967 169.686 168.759 167.187 165.426 
163.97 162.611 161.4 160.629 160.188 170.16 169.313 167.967 166.318 
164.944 163.804 162.613 161.603 160.979 160.594 165.977 164.658 165.299 
163.095 163.913 164.939 161.553 162.32 163.505 164.751 160.52 161.075 
162.059 163.269 164.581 159.948 160.368 161.25 162.27 163.376 164.714 
159.632 159.815 160.753 161.976 162.923 163.887 165.184 159.65 159.466 
160.139 161.532 162.716 163.471 164.431 165.743 159.996 159.575 159.784 
160.835 162.099 162.964 163.772 164.951 166.294 160.751 160.193 161.131 
160.771 161.872 159.978 161.766 162.892 160.855 160.455 162.905 163.918 
162.027 161.421 161.448 163.984 164.946 163.19 162.565 162.189 162.384 
165.176 166.134 164.33 163.757 163.33 163.079 163.281 166.496 167.33 
165.642 164.976 164.622 164.389 164.29 164.514 167.679 168.336 167.02 
166.355 165.888 165.705 165.651 165.71 165.951 168.668 169.224 168.217 
167.754 167.267 166.936 166.835 166.873 167.008 167.227 161.362 161.655 
162.367 162.806 163.549 162.193 164.064 164.714 163.48 163.061 165.246 
165.852 164.78 164.403 164.084 166.478 167.118 166.044 165.744 165.385 
165.052 167.855 168.418 167.436 167.145 166.766 166.329 166.107 169.187 
169.588 168.87 168.59 168.206 167.729 167.406 167.313 170.374 170.658 
170.172 169.929 169.554 169.118 168.788 168.591 168.437 171.454 171.671 
171.329 171.137 170.783 170.392 170.116 169.911 169.659 169.386 171.006 
170.156 171.048 169.969 170.891 169 169.696 170.718 168.651 167.466 
169.597 170.699 168.479 167.236 165.995 169.691 170.796 168.524 167.242 
165.978 164.856 169.866 170.972 168.687 167.354 166.038 164.882 163.752 
170.085 171.184 168.938 167.616 166.231 165.01 163.849 162.658 170.333 
171.399 169.233 167.996 166.632 165.365 164.198 162.988 161.86 171.819 
171.976 172.922 173.035 173.989 172.04 174.036 174.993 173.108 171.965 
175.034 176.043 174.13 173.132 171.888 176.168 177.116 175.173 174.197 
173.088 171.873 177.3 178.09 176.328 175.235 174.142 173.052 171.969 
178.252 178.969 177.413 176.357 175.209 174.171 173.199 172.178 179.127 
179.834 178.345 177.426 176.356 175.305 174.367 173.405 172.367 180.014 