# vtk DataFile Version 4.0
vtk output
ASCII
DATASET POLYDATA
POINTS 1002 float
-106.699 -124.071 75.1406 -107.335 -125.128 74.6287 -106.794 -124.778 74.0026 
-106.107 -123.647 74.539 -106.244 -124.279 73.45 -105.895 -123.114 75.9059 
-105.489 -123.065 73.9753 -105.835 -123.464 72.9369 -105.172 -122.648 75.3156 
-104.912 -122.184 76.7078 -105.018 -122.131 73.4399 -105.518 -122.357 72.3896 
-104.5 -121.879 74.6691 -104.11 -121.522 76.0906 -103.957 -120.92 77.3017 
-104.601 -120.982 72.8821 -105.054 -121.199 71.7747 -104.055 -120.763 74.0622 
-103.536 -120.494 75.3778 -103.209 -120.065 76.6975 -103.145 -119.462 77.8327 
-104.029 -119.882 72.2238 -104.472 -120.108 71.1486 -103.59 -119.613 73.4509 
-103.135 -119.319 74.6853 -102.712 -119.026 76.008 -102.415 -118.661 77.3323 
-102.363 -118.184 78.5128 -103.438 -118.799 71.561 -104.023 -118.992 70.6668 
-102.947 -118.559 72.757 -102.512 -118.256 73.9457 -102.142 -117.969 75.2215 
-101.773 -117.731 76.7094 -101.526 -117.409 78.088 -101.543 -116.961 79.1821 
-102.937 -117.652 71.0539 -103.687 -117.811 70.3922 -102.335 -117.481 72.1159 
-101.786 -117.266 73.2368 -101.333 -117.003 74.3723 -100.996 -116.741 75.882 
-100.745 -116.464 77.4872 -100.666 -116.105 78.7245 -100.795 -115.692 79.6716 
-102.381 -116.556 70.635 -103.297 -116.682 70.1916 -101.726 -116.419 71.5349 
-101.215 -116.262 72.6498 -100.686 -116.091 73.6898 -100.239 -115.862 75.0061 
-100.017 -115.553 76.6608 -99.9823 -115.208 78.0896 -100.056 -114.864 79.1509 
-100.244 -114.529 80.0667 -101.799 -115.609 70.2139 -102.86 -115.717 69.9546 
-101.068 -115.475 70.9188 -100.676 -115.277 72.025 -100.306 -115.096 73.1325 
-99.8167 -114.957 74.2843 -99.4779 -114.728 75.7574 -99.4573 -114.388 77.2619 
-99.5697 -114.051 78.4834 -99.6809 -113.757 79.5265 -99.8801 -113.47 80.46 
-107.653 -125.961 73.8638 -107.036 -125.639 73.2017 -108.099 -126.636 73.0126 
-107.47 -126.204 72.2406 -108.762 -126.964 71.9226 -106.55 -124.969 72.5724 
-108.24 -126.281 71.0916 -109.616 -127.011 70.8429 -107.072 -125.335 71.4584 
-106.289 -123.911 71.9398 -109.256 -126.097 70.1171 -110.547 -126.849 69.9796 
-107.888 -125.33 70.317 -106.881 -124.177 70.7614 -106.021 -122.653 71.3195 
-110.262 -125.844 69.2384 -111.408 -126.497 69.013 -108.864 -125.143 69.4526 
-107.667 -124.202 69.7605 -106.667 -122.848 70.2721 -105.556 -121.396 70.7658 
-111.09 -125.497 68.17 -112.133 -126.07 67.9268 -109.8 -124.812 68.5576 
-108.557 -123.958 68.9592 -107.522 -122.789 69.4115 -106.345 -121.467 69.907 
-105.089 -120.194 70.3134 -111.799 -125.007 67.2899 -112.83 -125.534 67.1468 
-110.633 -124.315 67.6133 -109.41 -123.503 68.0589 -108.366 -122.499 68.5303 
-107.275 -121.355 69.0276 -106.006 -120.176 69.5709 -104.801 -118.964 70.0463 
-112.529 -124.342 66.8344 -113.589 -124.79 66.6768 -111.405 -123.682 67.0064 
-110.195 -122.934 67.2387 -109.07 -122.123 67.6083 -108.003 -121.173 68.0624 
-106.869 -120.081 68.6573 -105.742 -118.879 69.393 -104.581 -117.682 69.9525 
-113.298 -123.587 66.4946 -114.342 -123.968 66.2285 -112.153 -122.973 66.6454 
-110.912 -122.281 66.644 -109.715 -121.648 66.7938 -108.597 -120.938 67.2091 
-107.505 -119.963 67.7625 -106.516 -118.772 68.5337 -105.528 -117.555 69.3789 
-104.284 -116.505 69.8671 -114.396 -122.987 65.9409 -113.226 -122.405 66.2506 
-114.307 -121.843 65.805 -112.918 -121.043 65.85 -113.981 -120.438 65.7798 
-111.844 -121.659 66.1596 -112.444 -119.66 65.2786 -113.489 -119.032 65.6487 
-111.367 -120.316 65.3067 -110.479 -121.036 65.9697 -111.966 -118.486 64.8554 
-112.902 -117.837 65.5379 -110.946 -119.135 64.507 -110.07 -119.843 65.194 
-109.283 -120.507 66.3115 -111.405 -117.204 65.1085 -112.199 -116.484 65.8317 
-110.553 -117.919 64.5183 -109.769 -118.582 64.9364 -108.948 -119.19 66.082 
-108.122 -119.667 67.0337 -110.76 -115.536 65.9551 -111.519 -114.903 66.4533 
-109.99 -116.279 65.4819 -109.303 -116.97 65.5753 -108.589 -117.549 66.3456 
-107.764 -118.044 67.1656 -107.055 -118.448 67.8233 -110.243 -114.024 66.9137 
-110.983 -113.603 67.2268 -109.442 -114.609 66.71 -108.685 -115.204 66.713 
-107.986 -115.756 67.0223 -107.283 -116.298 67.5033 -106.646 -116.775 68.0686 
-106.102 -117.174 68.743 -109.794 -112.958 67.915 -110.468 -112.668 68.1907 
-109.007 -113.396 67.8076 -108.175 -113.804 67.8081 -107.346 -114.157 67.8503 
-106.559 -114.654 67.9654 -105.929 -115.232 68.3023 -105.439 -115.693 68.8873 
-104.902 -116.085 69.4749 -109.248 -111.946 68.9219 -109.878 -111.749 69.1789 
-108.494 -112.304 68.7929 -107.671 -112.63 68.739 -106.807 -112.789 68.652 
-105.873 -113.054 68.5311 -105.021 -113.634 68.5699 -104.427 -114.273 68.9057 
-103.937 -114.781 69.3612 -103.38 -115.244 69.7061 -101.708 -114.731 69.7696 
-102.2 -114.091 69.5284 -100.825 -113.486 69.7629 -102.742 -113.368 69.2833 
-101.315 -112.508 69.5394 -100.468 -111.74 70.1639 -103.328 -112.549 69.0109 
-101.839 -111.402 69.3253 -100.876 -110.431 69.846 -100.256 -109.698 70.7226 
-104.216 -111.758 68.9296 -102.582 -110.368 69.1605 -101.357 -109.177 69.4965 
-100.511 -108.329 70.2115 -99.8361 -107.82 71.1097 -105.315 -111.339 69.1175 
-103.709 -109.682 69.2622 -102.258 -108.273 69.3569 -101.089 -107.239 69.8284 
-100.208 -106.571 70.6531 -99.578 -106.18 71.5092 -106.297 -111.264 69.3571 
-104.851 -109.443 69.5542 -103.485 -107.766 69.5326 -102.195 -106.509 69.7815 
-101.111 -105.632 70.4865 -100.331 -105.088 71.3289 -99.711 -104.667 72.1194 
-107.193 -111.1 69.4991 -105.85 -109.342 69.7858 -104.663 -107.512 69.7682 
-103.506 -106.012 69.8885 -102.356 -104.931 70.4381 -101.439 -104.283 71.2586 
-100.665 -103.838 72.0531 -99.912 -103.374 72.8271 -108.084 -110.8 69.6078 
-106.874 -109.179 69.9216 -105.828 -107.402 69.9336 -104.829 -105.787 70.008 
-103.703 -104.495 70.3913 -102.662 -103.71 71.0981 -101.779 -103.277 71.946 
-100.878 -102.821 72.7567 -100.089 -102.368 73.5718 -108.86 -110.627 69.7928 
-107.826 -109.123 70.0881 -106.936 -107.478 70.1305 -106.105 -105.909 70.2343 
-105.093 -104.492 70.5384 -104.001 -103.486 71.0657 -103.033 -102.964 71.8516 
-102.069 -102.514 72.7341 -101.106 -101.963 73.5485 -100.432 -101.587 74.3405 
-100.726 -114.575 70.1756 -100.142 -113.157 70.4728 -100.222 -114.302 71.1421 
-100.001 -111.253 71.1304 -99.837 -112.671 71.6395 -100.007 -113.949 72.3936 
-99.7349 -109.274 71.7102 -99.6408 -110.745 72.2902 -99.5931 -112.226 72.914 
-99.6533 -113.731 73.6165 -99.2933 -107.481 72.0488 -99.2965 -108.939 72.7996 
-99.2871 -110.405 73.5238 -99.1987 -112.031 74.2293 -99.2115 -113.605 74.9866 
-99.1213 -105.678 72.4992 -98.979 -107.103 73.245 -99.0654 -108.653 74.1372 
-99.0163 -110.219 74.9246 -98.9304 -111.885 75.6881 -99.0813 -113.351 76.5036 
-99.2038 -103.981 73.201 -98.8733 -105.096 73.895 -98.94 -106.688 74.8367 
-99.0265 -108.368 75.7198 -98.9412 -109.993 76.4596 -98.9614 -111.624 77.1933 
-99.2137 -113.022 77.9049 -99.3911 -102.746 74.0079 -98.9634 -103.475 74.7226 
-98.8877 -104.736 75.6641 -99.0094 -106.418 76.5967 -99.0126 -108.116 77.3722 
-98.9324 -109.757 78.056 -99.0346 -111.377 78.6775 -99.3191 -112.742 79.1717 
-99.7984 -101.954 74.8039 -99.3445 -102.555 75.5362 -99.0533 -103.419 76.4759 
-98.9756 -104.706 77.4181 -99.0092 -106.324 78.2229 -98.9519 -107.985 78.9288 
-98.9101 -109.635 79.5519 -99.0883 -111.202 80.0104 -99.4441 -112.49 80.29 
-100.642 -101.186 75.3913 -100.184 -101.821 76.0778 -101.188 -101.108 76.599 
-100.758 -101.888 77.4644 -101.73 -101.199 77.9758 -99.7043 -102.575 77.0178 
-101.132 -101.908 78.8894 -102.132 -101.369 79.4278 -100.016 -102.598 78.4953 
-99.2158 -103.423 78.0353 -101.441 -102.074 80.3279 -102.609 -101.793 80.7473 
-100.242 -102.575 79.9408 -99.3611 -103.414 79.4789 -99.0281 -104.695 78.9098 
-101.906 -102.568 81.7251 -103.121 -102.352 81.981 -100.711 -102.909 81.3989 
-99.7953 -103.631 80.8624 -99.3025 -104.855 80.2289 -99.0603 -106.394 79.6401 
-102.363 -103.034 83.0272 -103.569 -102.785 83.2618 -101.267 -103.49 82.7282 
-100.455 -104.256 82.2238 -99.9296 -105.394 81.4734 -99.4429 -106.752 80.8346 
-99.0311 -108.18 80.3074 -102.935 -103.506 84.1003 -104.17 -103.363 84.2934 
-101.799 -104.009 83.7647 -100.95 -104.906 83.3727 -100.474 -106.087 82.7195 
-100.061 -107.323 81.9061 -99.503 -108.553 81.3438 -99.1134 -109.869 80.8164 
-103.788 -104.39 84.7764 -104.945 -104.355 84.8014 -102.635 -104.758 84.4976 
-101.602 -105.556 84.1691 -100.925 -106.662 83.7642 -100.606 -107.815 82.9887 
-100.258 -108.913 82.1668 -99.776 -110.09 81.6497 -99.4667 -111.348 81.0902 
-104.663 -105.56 85.1545 -105.667 -105.525 85.0232 -103.66 -105.831 85.0228 
-102.654 -106.45 84.7131 -101.776 -107.333 84.4213 -101.262 -108.285 83.8925 
-101.028 -109.23 83.0029 -100.706 -110.269 82.2557 -100.263 -111.43 81.7821 
-99.9577 -112.545 81.2084 -101.329 -101.088 74.6285 -101.574 -100.638 75.6369 
-102.589 -100.856 74.912 -102.832 -100.476 75.8443 -104.184 -100.869 75.075 
-102.047 -100.582 76.8883 -104.573 -100.55 76.0482 -105.886 -100.828 75.2721 
-103.266 -100.451 77.2964 -102.552 -100.732 78.5102 -106.515 -100.502 76.4844 
-107.3 -100.92 75.7766 -105.187 -100.399 77.8352 -103.882 -100.497 79.2686 
-103.149 -101.012 80.0882 -107.912 -100.763 77.0972 -108.238 -101.639 76.3829 
-107.164 -100.334 78.3745 -105.843 -100.286 79.9121 -104.639 -100.728 80.7775 
-103.855 -101.571 81.2209 -108.72 -101.668 77.5033 -109.037 -102.669 76.7354 
-108.33 -100.883 78.6599 -107.49 -100.503 80.1098 -106.338 -100.706 81.1079 
-105.328 -101.446 81.6132 -104.439 -102.225 82.3353 -109.643 -102.602 77.7034 
-110.021 -103.47 76.9347 -109.195 -101.867 78.7599 -108.542 -101.421 80.0398 
-107.681 -101.358 81.1083 -106.795 -101.74 81.8495 -105.907 -102.321 82.6638 
-104.98 -102.832 83.5943 -110.771 -103.296 77.9151 -111.006 -104.158 77.1681 
-110.373 -102.637 78.9131 -109.733 -102.343 80.0795 -108.942 -102.297 81.1458 
-108.174 -102.396 82.0656 -107.411 -102.678 82.988 -106.541 -103.114 83.8267 
-105.658 -103.673 84.4237 -111.662 -104.062 78.1222 -111.731 -104.958 77.405 
-111.471 -103.333 79.068 -111.023 -103.007 80.191 -110.333 -102.982 81.2749 
[...]
CELL_DATA 2000
SCALARS Distance double
LOOKUP_TABLE default
179.39 178.519 178.794 178.498 177.546 177.862 177.534 177.895 177.631 
176.432 176.807 176.419 176.83 176.502 176.942 176.594 175.173 175.609 
175.184 175.619 175.224 175.697 175.319 175.776 175.371 173.822 174.286 
173.863 174.326 173.909 174.373 173.99 174.464 174.111 174.562 174.239 
172.501 172.92 172.484 172.963 172.532 173.016 172.608 173.119 172.784 
173.303 173.012 173.497 173.221 171.283 171.619 171.137 171.583 171.14 
171.61 171.167 171.681 171.319 171.911 171.631 172.213 171.933 172.456 
172.169 170.126 170.393 169.841 170.249 169.813 170.258 169.839 170.278 
169.91 170.437 170.187 170.789 170.577 171.138 170.898 171.406 171.179 
169.032 169.22 168.6 168.953 168.517 168.969 168.614 169.039 168.703 
169.135 168.892 169.417 169.269 169.825 169.678 170.189 170.028 170.509 
170.369 179.839 180.258 179.704 178.98 180.539 180.06 179.307 178.781 
178.004 180.662 180.23 179.454 179.01 178.203 177.723 176.89 180.776 
180.324 179.519 179.08 178.277 177.844 176.994 176.521 175.627 180.816 
180.429 179.625 179.167 178.361 177.91 177.084 176.602 175.695 175.194 
174.276 180.653 180.384 179.609 179.238 178.419 178.002 177.18 176.714 
175.835 175.298 174.375 173.854 172.982 180.413 180.174 179.421 179.126 
178.308 177.973 177.143 176.769 175.918 175.45 174.564 174.026 173.159 
172.636 171.82 180.207 179.962 179.223 178.922 178.108 177.789 176.962 
176.652 175.829 175.469 174.625 174.187 173.357 172.867 172.06 171.536 
170.732 179.997 179.778 179.058 178.749 177.917 177.577 176.734 176.439 
175.648 175.348 174.552 174.188 173.396 173.002 172.248 171.796 171.024 
170.483 169.689 179.665 178.808 179.077 178.689 177.701 178.044 177.527 
177.904 177.441 176.392 176.748 176.109 176.545 176.046 176.565 176.199 
175.13 175.41 174.752 175.095 174.626 175.141 174.874 175.413 175.157 
173.932 174.208 173.601 173.864 173.431 173.85 173.639 174.148 173.935 
174.405 174.099 172.695 173.013 172.452 172.762 172.323 172.728 172.46 
172.953 172.695 173.167 172.831 173.292 172.952 171.654 171.87 171.395 
171.659 171.242 171.596 171.253 171.713 171.387 171.876 171.521 172.003 
171.67 172.158 171.848 170.964 171.047 170.655 170.787 170.417 170.607 
170.213 170.506 170.102 170.523 170.146 170.655 170.321 170.854 170.528 
171.033 170.662 170.377 170.454 170.034 170.153 169.74 169.872 169.387 
169.538 168.986 169.257 168.752 169.221 168.821 169.412 169.044 169.627 
169.216 169.746 169.313 168.377 168.223 167.816 166.91 168.022 167.612 
166.591 166.296 165.504 167.779 167.348 166.232 165.885 164.925 164.839 
164.163 167.75 167.176 166.025 165.511 164.423 164.184 163.354 163.419 
162.81 168.106 167.375 166.278 165.502 164.386 163.82 162.916 162.69 
162.046 162.101 161.626 168.639 167.912 166.889 165.987 164.878 164.053 
163.116 162.545 161.891 161.619 161.211 161.163 160.862 169.079 168.464 
167.503 166.656 165.55 164.675 163.694 162.96 162.238 161.741 161.316 
161.058 160.809 160.66 160.428 169.426 168.883 168.013 167.248 166.216 
165.366 164.413 163.616 162.853 162.209 161.712 161.317 161.062 160.813 
160.606 160.37 160.165 169.804 169.274 168.517 167.799 166.909 166.092 
165.269 164.441 163.748 162.957 162.443 161.842 161.588 161.204 161.067 
160.719 160.541 160.223 160.111 168.211 166.813 167.553 167.754 165.545 
166.24 166.498 167.271 167.681 164.352 165.069 165.362 166.095 166.521 
167.333 167.813 163.077 163.875 164.21 164.979 165.373 166.181 166.669 
167.49 167.954 161.843 162.584 162.969 163.797 164.223 165.031 165.515 
166.346 166.884 167.673 168.178 160.915 161.432 161.769 162.564 163.086 
163.918 164.461 165.25 165.832 166.635 167.247 168.003 168.568 160.329 
160.614 160.802 161.44 161.975 162.826 163.487 164.29 164.912 165.664 
166.309 167.089 167.735 168.459 169.012 160.031 160.137 160.252 160.633 
161.107 161.812 162.541 163.364 164.079 164.824 165.47 166.202 166.868 
167.621 168.244 168.911 169.416 160.03 160.008 160.197 160.336 160.792 
161.184 161.87 162.522 163.288 164.022 164.715 165.418 166.07 166.788 
167.442 168.145 168.722 169.326 169.797 160.176 160.834 160.443 160.486 
161.821 161.331 161.397 160.944 161.112 162.83 162.339 162.36 161.908 
162.006 161.663 162.03 163.911 163.329 163.273 162.795 162.843 162.506 
162.815 162.682 163.288 165.156 164.484 164.432 163.802 163.879 163.398 
163.734 163.488 164.085 164.019 164.712 166.372 165.734 165.712 165.082 
165.22 164.646 165.02 164.589 165.173 164.916 165.585 165.447 166.103 
167.567 166.921 166.894 166.325 166.483 166.009 166.39 165.976 166.492 
166.12 166.688 166.41 167.013 166.844 167.465 168.892 168.192 168.199 
167.549 167.714 167.219 167.596 167.242 167.723 167.386 167.854 167.527 
168.023 167.787 168.346 168.192 168.747 170.242 169.585 169.663 168.977 
169.163 168.55 168.901 168.443 168.903 168.537 168.977 168.631 169.057 
168.777 169.26 169.064 169.565 169.4 169.847 160.285 160.791 160.526 
160.808 161.679 161.168 161.305 161.21 161.727 162.846 162.212 162.277 
161.882 162.296 162.237 162.821 164.105 163.486 163.645 163.071 163.421 
163.041 163.578 163.417 164.007 165.394 164.808 165.061 164.518 164.87 
164.347 164.769 164.379 164.907 164.696 165.272 166.691 166.117 166.336 
165.867 166.196 165.742 166.077 165.626 166.026 165.698 166.213 165.998 
166.521 167.951 167.391 167.574 167.092 167.4 166.973 167.317 166.875 
167.255 166.857 167.344 167.028 167.56 167.267 167.766 169.163 168.633 
168.843 168.344 168.68 168.217 168.625 168.152 168.592 168.137 168.649 
168.253 168.799 168.421 168.932 168.569 169.071 170.287 169.818 170.041 
169.596 169.943 169.526 169.956 169.517 169.962 169.51 169.985 169.578 
170.082 169.697 170.17 169.781 170.232 169.885 170.363 169.862 169.553 
169.338 168.524 169.253 168.98 168.105 167.863 166.967 169.078 168.718 
167.86 167.519 166.647 166.336 165.456 169.069 168.639 167.799 167.38 
166.542 166.149 165.287 164.905 164.026 169.135 168.697 167.876 167.409 
166.567 166.118 165.276 164.837 163.973 163.545 162.753 169.25 168.804 
168.051 167.56 166.747 166.221 165.4 164.903 164.138 163.647 162.94 
162.474 161.91 169.504 169.009 168.33 167.818 167.081 166.5 165.702 
165.127 164.419 163.926 163.326 162.83 162.263 161.81 161.351 169.876 
169.356 168.709 168.178 167.497 166.912 166.149 165.519 164.785 164.259 
163.657 163.217 162.626 162.169 161.569 161.204 160.742 170.261 169.764 
169.134 168.6 167.946 167.375 166.679 166.039 165.328 164.704 164.067 
163.547 162.944 162.465 161.834 161.395 160.864 160.576 160.261 170.528 
171.476 170.799 170.347 172.497 171.798 171.391 170.618 170.096 173.61 
172.862 172.456 171.684 171.21 170.396 169.911 174.774 174.016 173.618 
172.805 172.36 171.537 171.1 170.289 169.885 175.861 175.172 174.828 
174.032 173.611 172.752 172.329 171.5 171.109 170.306 169.928 176.86 
176.225 175.938 175.23 174.854 174.032 173.589 172.744 172.332 171.525 
171.142 170.347 170 177.875 177.243 176.98 176.309 175.975 175.228 
174.799 173.982 173.54 172.734 172.355 171.569 171.241 170.467 170.212 
178.835 178.267 178.014 177.359 177.032 176.318 175.93 175.157 174.737 
173.936 173.556 172.78 172.475 171.722 171.476 170.741 170.552 179.588 
179.147 178.918 178.353 178.032 177.366 176.996 176.273 175.893 175.129 
174.761 173.987 173.669 172.931 172.675 171.972 171.757 171.072 170.893 
179.872 180.113 179.755 179.242 180.392 179.988 179.421 179.032 178.387 
180.654 180.238 179.598 179.185 178.494 178.086 177.36 180.845 180.442 
179.761 179.332 178.593 178.169 177.421 177.021 176.276 181.016 180.611 
179.934 179.485 178.727 178.264 177.494 177.075 176.324 175.926 175.174 
181.18 180.791 180.135 179.683 178.934 178.427 177.638 177.168 176.408 
175.983 175.23 174.819 174.087 181.31 180.951 180.323 179.895 179.156 
178.647 177.838 177.336 176.558 176.101 175.343 174.896 174.153 173.754 
173.079 181.44 181.093 180.5 180.089 179.368 178.862 178.039 177.525 
176.731 176.267 175.508 175.042 174.278 173.835 173.129 172.772 172.153 
181.543 181.227 180.653 180.274 179.586 179.091 178.287 177.741 176.948 
176.452 175.713 175.233 174.477 173.989 173.253 172.836 172.191 171.865 
171.29 181.364 180.661 180.86 180.465 179.726 180.04 179.647 179.873 
179.374 178.628 178.996 178.603 178.941 178.456 178.662 178.071 177.497 
177.842 177.437 177.83 177.405 177.694 177.142 177.313 176.736 176.376 
176.694 176.221 176.619 176.193 176.586 176.086 176.354 175.777 175.989 
175.462 175.141 175.512 174.953 175.345 174.829 175.28 174.779 175.191 
174.634 174.953 174.383 174.68 174.177 173.75 174.183 173.623 174.022 
173.472 173.887 173.383 173.824 173.337 173.735 173.215 173.544 173.031 
173.365 172.93 172.379 172.79 172.297 172.697 172.21 172.585 172.114 
172.497 172.068 172.467 172.04 172.389 171.926 172.238 171.813 172.17 
171.848 171.163 171.506 171.053 171.433 171 171.377 170.931 171.293 
170.851 171.243 170.829 171.226 170.798 171.148 170.723 171.076 170.742 
171.157 170.924 181.809 182.226 181.72 181.076 182.522 182.062 181.372 
180.891 180.162 182.664 182.283 181.633 181.181 180.461 179.922 179.118 
182.729 182.399 181.813 181.429 180.76 180.244 179.433 178.846 178.01 
182.71 182.453 181.865 181.556 180.87 180.459 179.627 179.117 178.235 
177.716 176.885 182.432 182.324 181.701 181.498 180.749 180.431 179.545 
179.152 178.228 177.822 176.929 176.512 175.633 181.899 181.891 181.263 
181.181 180.445 180.216 179.346 178.993 178.055 177.683 176.748 176.4 
175.463 175.113 174.188 181.344 181.316 180.697 180.651 179.968 179.844 
179.081 178.811 177.939 177.536 176.577 176.161 175.193 174.843 173.916 
173.612 172.762 180.89 180.817 180.204 180.11 179.44 179.344 178.654 
178.515 177.76 177.454 176.542 176.068 175.08 174.621 173.709 173.355 
172.547 172.259 171.533 182.304 183.271 182.826 182.837 184.233 183.85 
183.93 183.362 183.211 185.087 184.776 184.924 184.46 184.336 183.655 
183.347 185.971 185.62 185.772 185.387 185.337 184.75 184.434 183.713 
183.36 186.826 186.502 186.578 186.198 186.145 185.668 185.416 184.769 
184.371 183.684 183.31 187.216 187.131 187.109 186.879 186.728 186.373 
186.117 185.637 185.25 184.632 184.146 183.511 183.019 187.169 187.228 
187.182 187.147 186.967 186.779 186.475 186.169 185.775 185.337 184.812 
184.24 183.631 183.046 182.466 187.195 187.173 187.188 187.138 187.03 
186.894 186.619 186.388 185.983 185.677 185.166 184.74 184.125 183.589 
182.965 182.428 181.888 187.411 187.337 187.386 187.259 187.182 187.003 
186.767 186.519 186.125 185.82 185.324 184.976 184.421 183.996 183.411 
182.916 182.369 181.878 181.406 187.537 187.463 187.551 187.474 186.934 
187.24 187.203 187.348 187.183 186.261 186.566 186.538 186.868 186.766 
186.935 186.699 185.621 185.888 185.787 186.132 186.059 186.363 186.15 
186.316 185.991 184.73 185.13 184.935 185.326 185.165 185.554 185.323 
185.615 185.264 185.474 185.112 183.599 184.082 183.876 184.329 184.089 
184.534 184.258 184.658 184.323 184.636 184.276 184.542 184.199 182.526 
182.972 182.819 183.24 183.019 183.414 183.149 183.548 183.273 183.648 
183.357 183.672 183.351 183.613 183.251 181.49 181.942 181.802 182.232 
182.043 182.41 182.164 182.509 182.264 182.63 182.384 182.735 182.441 
182.741 182.39 182.638 182.252 180.411 180.875 180.713 181.188 181 
181.425 181.177 181.55 181.287 181.657 181.398 181.759 181.455 181.785 
181.437 181.741 181.384 181.647 181.293 179.755 178.895 179.554 180.05 
178.045 178.706 179.159 179.844 180.319 177.02 177.783 178.185 178.901 
179.319 180.053 180.486 175.805 176.635 177.054 177.84 178.242 179.005 
179.449 180.196 180.624 174.676 175.432 175.889 176.68 177.15 177.925 
178.404 179.164 179.633 180.346 180.75 173.667 174.38 174.824 175.577 
176.065 176.848 177.348 178.129 178.586 179.331 179.721 180.427 180.771 
172.618 173.35 173.762 174.523 174.955 175.745 176.2 177.02 177.46 
178.247 178.621 179.351 179.69 180.405 180.74 171.612 172.289 172.689 
173.429 173.84 174.604 175.023 175.827 176.278 177.091 177.522 178.266 
178.65 179.343 179.714 180.396 180.736 170.779 171.353 171.737 172.396 
172.813 173.517 173.944 174.685 175.153 175.941 176.434 177.202 177.648 
178.352 178.748 179.416 179.776 180.414 180.708 180.464 179.535 179.929 
179.741 178.496 178.924 178.69 179.113 178.905 177.375 177.827 177.547 
177.982 177.73 178.23 178.076 176.147 176.642 176.339 176.792 176.496 
176.999 176.813 177.389 177.212 174.849 175.349 175.034 175.528 175.201 
175.716 175.454 176.047 175.8 176.389 176.025 173.608 174.044 173.681 
174.17 173.806 174.343 174.012 174.608 174.278 174.877 174.46 175.019 
174.548 172.464 172.831 172.404 172.818 172.387 172.887 172.498 173.086 
172.714 173.31 172.888 173.438 172.992 173.541 173.162 171.405 171.715 
171.26 171.583 171.1 171.491 171.047 171.555 171.151 171.722 171.298 
171.868 171.445 172.018 171.665 172.26 172 170.465 170.707 170.254 
170.497 170.003 170.283 169.82 170.193 169.776 170.227 169.794 170.294 
169.861 170.442 170.095 170.745 170.499 171.159 170.98 180.605 180.88 
181.059 181.718 181.104 181.325 182.033 182.248 182.943 181.348 181.559 
182.249 182.502 183.214 183.44 184.049 181.561 181.823 182.526 182.741 
183.453 183.673 184.324 184.474 184.985 181.57 181.968 182.749 183.045 
183.817 184.009 184.714 184.808 185.356 185.382 185.794 181.424 181.881 
182.673 183.144 183.981 184.358 185.122 185.285 185.833 185.81 186.168 
186.126 186.404 181.227 181.68 182.366 182.902 183.675 184.283 185.056 
185.518 186.05 186.202 186.48 186.469 186.685 186.663 186.863 180.908 
181.398 181.98 182.496 183.12 183.763 184.453 185.138 185.672 186.121 
186.362 186.568 186.737 186.865 187.083 187.104 187.254 180.472 180.986 
181.542 182.046 182.578 183.137 183.711 184.385 184.921 185.523 185.823 
186.213 186.384 186.702 186.947 187.2 187.41 187.444 187.482 180.603 
181.708 181.046 180.853 182.952 182.247 182.017 181.285 181.024 184.073 
183.474 183.246 182.495 182.169 181.429 181.106 185.018 184.532 184.374 
183.687 183.337 182.57 182.175 181.451 181.062 185.842 185.464 185.44 
184.836 184.564 183.752 183.312 182.502 182.041 181.324 180.892 186.439 
186.209 186.278 185.888 185.731 185.012 184.549 183.662 183.1 182.288 
181.78 181.1 180.685 186.837 186.67 186.713 186.551 186.455 186.026 
185.558 184.801 184.109 183.295 182.662 181.958 181.469 180.876 180.517 
187.156 186.979 186.935 186.835 186.766 186.548 186.171 185.61 184.897 
184.153 183.424 182.746 182.175 181.602 181.178 180.686 180.374 187.339 
187.202 187.088 186.997 186.947 186.816 186.596 186.168 185.595 184.885 
184.175 183.457 182.863 182.258 181.796 181.289 180.931 180.508 180.229 
180.021 180.233 179.845 179.22 180.351 179.993 179.373 178.989 178.234 
180.382 180.032 179.318 179.018 178.289 177.889 177 180.339 180.003 
179.189 178.855 178.041 177.777 176.975 176.598 175.71 180.23 179.94 
179.171 178.756 177.897 177.517 176.734 176.457 175.701 175.332 174.475 
180.093 179.846 179.205 178.82 178.065 177.557 176.787 176.342 175.644 
175.279 174.518 174.082 173.221 179.987 179.754 179.174 178.873 178.224 
177.801 177.082 176.576 175.855 175.366 174.636 174.151 173.358 172.863 
172.122 179.908 179.689 179.125 178.843 178.205 177.887 177.205 176.823 
176.104 175.642 174.897 174.378 173.627 173.091 172.399 171.924 171.374 
179.813 179.625 179.088 178.807 178.163 177.842 177.17 176.852 176.177 
175.811 175.097 174.644 173.916 173.417 172.745 172.264 171.693 171.279 
170.792 182.114 182.02 182.378 183.013 181.921 182.283 182.934 183.306 
183.947 181.823 182.205 182.881 183.247 183.895 184.222 184.819 181.662 
182.08 182.756 183.175 183.827 184.18 184.798 185.109 185.729 181.478 
181.89 182.534 182.981 183.625 184.052 184.696 185.089 185.755 186.084 
186.649 181.255 181.678 182.29 182.734 183.368 183.811 184.491 184.949 
185.668 186.081 186.656 186.895 187.155 180.916 181.364 181.916 182.42 
183.02 183.524 184.191 184.715 185.461 185.957 186.561 186.847 187.092 
187.162 187.163 180.551 180.951 181.41 181.927 182.456 183.045 183.643 
184.285 184.98 185.633 186.26 186.693 186.976 187.09 187.106 187.11 
187.138 180.264 180.586 180.974 181.398 181.863 182.404 182.942 183.592 
184.23 184.976 185.63 186.262 186.654 186.936 187.009 187.065 187.094 
187.162 187.293 
POINT_DATA 1002
SCALARS Distance double
LOOKUP_TABLE default
179.068 179.962 179.142 178.175 178.243 178.256 177.172 177.225 177.259 
177.381 176.026 176.047 176.061 176.19 176.213 174.755 174.719 174.774 
174.842 174.927 174.977 173.385 173.363 173.452 173.505 173.626 173.785 
173.957 172.014 172.129 172.055 172.093 172.228 172.501 172.753 172.956 
170.717 171.004 170.683 170.684 170.725 171.008 171.388 171.66 171.893 
169.46 169.915 169.349 169.41 169.426 169.581 169.976 170.369 170.668 
170.978 168.288 168.895 168.053 168.151 168.283 168.401 168.699 169.135 
169.533 169.884 170.246 180.415 179.556 180.805 179.82 180.995 178.547 
179.878 181.116 178.665 177.401 179.98 181.232 178.7 177.468 176.118 
180.076 181.143 178.822 177.564 176.222 174.747 179.936 180.884 178.818 
177.622 176.359 174.928 173.454 179.704 180.654 178.626 177.482 176.329 
175.068 173.699 172.327 179.529 180.441 178.439 177.261 176.148 175.012 
173.798 172.577 171.278 179.366 180.186 178.283 177.033 175.91 174.888 
173.758 172.636 171.536 170.26 179.445 178.422 178.561 177.152 177.393 
177.009 175.702 176.082 175.475 175.656 174.447 174.863 174.109 174.294 
174.676 173.319 173.617 173.039 173.149 173.479 173.654 172.108 172.365 
171.935 172.001 172.237 172.375 172.467 171.141 171.46 170.939 170.858 
170.908 171.022 171.172 171.375 170.543 170.894 170.287 170.03 169.759 
169.645 169.776 170.02 170.193 169.931 170.309 169.633 169.305 168.83 
168.372 168.245 168.444 168.672 168.787 167.451 167.214 166.068 166.954 
165.609 164.839 166.65 165.095 164.074 163.581 166.637 164.793 163.386 
162.608 162.246 167.122 165.081 163.287 162.081 161.453 161.184 167.788 
165.762 163.796 162.271 161.327 160.857 160.551 168.304 166.422 164.472 
162.819 161.631 160.996 160.578 160.16 168.718 167.021 165.209 163.564 
162.182 161.328 160.868 160.376 159.965 169.176 167.661 166.048 164.553 
163.13 162.021 161.42 160.918 160.333 160.037 166.922 165.732 166.841 
164.641 165.717 167.008 163.409 164.586 165.823 167.181 162.102 163.4 
164.689 166.037 167.44 161.016 162.195 163.669 165.031 166.434 167.874 
160.282 161.116 162.622 164.177 165.535 166.965 168.371 159.974 160.506 
161.707 163.301 164.768 166.114 167.532 168.833 160.09 160.532 161.344 
162.564 164.005 165.379 166.725 168.074 169.264 160.404 160.84 161.263 
161.893 162.311 161.463 162.819 163.364 162.374 162.186 163.809 164.562 
163.197 162.964 163.3 165.085 165.826 164.405 164.038 164.204 164.757 
166.295 167 165.761 165.498 165.529 165.791 166.211 167.47 168.236 
166.921 166.772 166.905 167.045 167.231 167.6 168.871 169.572 168.257 
167.966 168.054 168.213 168.308 168.534 168.905 170.314 170.843 169.806 
169.429 169.311 169.346 169.375 169.491 169.756 170.035 160.418 160.76 
161.198 161.549 162.295 161.611 162.796 163.451 162.49 162.792 164.215 
164.651 163.932 163.848 164.098 165.56 165.974 165.414 165.271 165.194 
165.432 166.819 167.281 166.631 166.549 166.416 166.47 166.74 168.076 
168.499 167.83 167.742 167.663 167.688 167.877 168.066 169.327 169.664 
169.129 169.083 169.052 169.063 169.197 169.325 169.409 170.466 170.732 
170.334 170.369 170.419 170.416 170.478 170.574 170.613 170.676 170.104 
168.737 169.819 168.385 169.556 167.193 168.216 169.463 166.982 165.769 
168.24 169.507 166.945 165.7 164.396 168.348 169.552 167.045 165.713 
164.417 163.11 168.516 169.684 167.291 165.907 164.581 163.418 162.295 
168.828 170.002 167.65 166.306 164.896 163.784 162.781 161.719 169.242 
170.388 168.061 166.785 165.36 164.102 163.092 162.012 160.98 171.175 
171.12 172.137 172.14 173.216 170.917 173.234 174.383 171.998 170.717 
174.436 175.508 173.188 171.899 170.688 175.577 176.501 174.477 173.174 
171.917 170.727 176.6 177.482 175.64 174.451 173.146 171.936 170.766 
177.652 178.496 176.691 175.596 174.354 173.124 172.008 170.953 178.656 
179.358 177.738 176.672 175.526 174.335 173.212 172.208 171.269 179.431 
179.977 178.67 177.693 176.626 175.531 174.42 173.378 172.442 171.562 