# vtk DataFile Version 4.0
vtk output
ASCII
DATASET POLYDATA
POINTS 1002 float
-103.257 -123.032 72.3446 -104.09 -123.878 72.0758 -103.731 -123.539 71.1612 
-102.963 -122.459 71.4194 -103.535 -122.781 70.3684 -102.715 -121.704 72.6867 
-102.873 -121.428 70.6029 -103.5 -121.656 69.7321 -102.51 -120.854 71.7797 
-102.325 -119.976 73.0792 -102.837 -120.163 69.8991 -103.452 -120.469 69.0735 
-102.286 -119.74 70.9182 -101.903 -119.075 72.1927 -101.574 -118.331 73.4427 
-102.62 -118.97 69.1686 -103.232 -119.327 68.2942 -101.904 -118.595 70.1154 
-101.248 -118.142 71.3086 -100.811 -117.554 72.5964 -100.478 -116.966 73.8129 
-102.215 -117.797 68.4125 -102.915 -118.095 67.5641 -101.455 -117.467 69.3543 
-100.621 -117.137 70.4578 -100.047 -116.717 71.763 -99.7047 -116.229 73.0628 
-99.4486 -115.732 74.2728 -101.779 -116.603 67.7207 -102.648 -116.874 67.0169 
-101.056 -116.301 68.6547 -100.233 -116.021 69.669 -99.5376 -115.703 70.8644 
-99.1153 -115.344 72.2531 -98.7164 -115.018 73.583 -98.4461 -114.64 74.7285 
-101.374 -115.546 67.074 -102.441 -115.783 66.5927 -100.622 -115.229 67.9335 
-99.9075 -114.934 68.9572 -99.1056 -114.674 69.9767 -98.5493 -114.363 71.2284 
-98.1117 -114.1 72.6831 -97.6614 -113.904 73.9875 -97.4941 -113.612 75.058 
-101.06 -114.535 66.531 -102.285 -114.698 66.267 -100.153 -114.25 67.1886 
-99.5235 -113.891 68.2413 -98.7451 -113.628 69.2765 -97.9924 -113.382 70.2862 
-97.5587 -113.064 71.5949 -97.2106 -112.812 73.0214 -96.9421 -112.633 74.2346 
-96.9532 -112.406 75.28 -100.935 -113.42 66.2253 -102.194 -113.564 66.0759 
-99.8543 -113.195 66.6396 -99.2029 -112.8 67.5605 -98.6227 -112.421 68.6905 
-97.8695 -112.184 69.6718 -97.3129 -111.92 70.7266 -97.0632 -111.586 72.0405 
-96.8918 -111.332 73.3224 -96.8046 -111.175 74.417 -96.8698 -111.042 75.4498 
-104.822 -124.409 71.2251 -104.583 -123.914 70.3416 -105.682 -124.844 70.3299 
-105.593 -124.151 69.5197 -106.622 -125.133 69.4524 -104.424 -123.045 69.6296 
-106.58 -124.323 68.6479 -107.691 -125.241 68.6201 -105.432 -123.233 68.7789 
-104.295 -121.953 68.9688 -107.601 -124.347 67.7667 -108.929 -125.116 67.8176 
-106.394 -123.363 67.8086 -105.188 -122.196 68.0018 -104.128 -120.824 68.195 
-108.852 -124.005 67.0265 -110.261 -124.598 67.1496 -107.462 -123.227 66.973 
-106.164 -122.236 67.0678 -104.975 -121.018 67.2428 -103.938 -119.578 67.4058 
-110.231 -123.343 66.4929 -111.527 -123.806 66.6571 -108.772 -122.772 66.3647 
-107.301 -122.002 66.3442 -105.969 -120.992 66.4209 -104.866 -119.683 66.6032 
-103.81 -118.215 66.8313 -111.426 -122.794 65.9204 -112.593 -123.227 66.0453 
-110.062 -122.294 65.7645 -108.525 -121.665 65.6219 -106.992 -120.871 65.552 
-105.766 -119.759 65.7385 -104.805 -118.338 66.1448 -103.724 -116.933 66.4746 
-112.372 -122.528 65.1144 -113.472 -122.976 65.1725 -111.104 -121.969 65.0293 
-109.638 -121.329 64.871 -108.028 -120.655 64.6598 -106.578 -119.77 64.7054 
-105.546 -118.491 65.1986 -104.678 -117.028 65.819 -103.59 -115.729 66.1831 
-113.211 -122.217 64.3275 -114.244 -122.683 64.341 -111.996 -121.584 64.3394 
-110.602 -120.882 64.2854 -109.06 -120.239 64.0981 -107.521 -119.53 63.9774 
-106.244 -118.481 64.2457 -105.303 -117.117 64.8759 -104.447 -115.726 65.5254 
-103.407 -114.528 65.9277 -114.382 -121.723 63.8294 -113.215 -121.058 63.9129 
-114.431 -120.208 63.7922 -113.062 -119.457 63.8217 -114.226 -118.644 63.809 
-111.801 -120.289 63.9298 -112.602 -118.024 63.354 -113.667 -117.435 63.3273 
-111.442 -118.8 63.5225 -110.23 -119.62 63.8088 -111.874 -116.887 62.3212 
-112.829 -116.269 62.7068 -110.899 -117.537 62.5248 -109.819 -118.288 63.2279 
-108.646 -119.006 63.6669 -111.139 -115.637 61.7906 -111.972 -114.894 62.6327 
-110.309 -116.318 61.4901 -109.398 -116.974 62.2986 -108.326 -117.582 63.2697 
-107.167 -118.117 63.7243 -110.599 -114.203 62.2927 -111.334 -113.515 63.0385 
-109.811 -114.875 61.6222 -108.955 -115.511 61.82 -107.986 -116.061 62.7685 
-106.871 -116.501 63.5286 -105.896 -116.867 64.0963 -110.157 -112.762 63.1883 
-110.821 -112.267 63.678 -109.359 -113.295 62.6614 -108.466 -113.857 62.4038 
-107.524 -114.45 62.7489 -106.484 -114.934 63.3707 -105.504 -115.24 63.9834 
-104.872 -115.475 64.7362 -109.582 -111.43 64.0754 -110.2 -111.145 64.5111 
-108.804 -111.764 63.6882 -107.906 -112.154 63.3785 -106.98 -112.681 63.3463 
-106.006 -113.279 63.6263 -105.047 -113.699 64.0805 -104.367 -113.903 64.7096 
-103.925 -114.139 65.4071 -108.871 -110.278 64.9308 -109.479 -110.138 65.3593 
-108.128 -110.439 64.5252 -107.281 -110.628 64.1769 -106.407 -110.913 64.0044 
-105.482 -111.394 64.0814 -104.522 -111.956 64.3592 -103.784 -112.337 64.8229 
-103.326 -112.596 65.3915 -102.846 -112.998 65.837 -101.37 -112.268 66.0585 
-102.015 -111.587 65.8285 -100.545 -110.888 66.0101 -102.45 -111.066 65.3503 
-101.042 -110.131 65.545 -99.7837 -109.455 65.8541 -102.935 -110.56 64.7995 
-101.371 -109.392 64.8678 -100.12 -108.59 65.1062 -99.1895 -107.802 65.8451 
-103.835 -109.939 64.4827 -102.012 -108.578 64.4289 -100.517 -107.646 64.468 
-99.606 -106.807 65.2441 -98.8408 -105.815 66.2681 -104.926 -109.475 64.4432 
-103.21 -107.958 64.5364 -101.51 -106.79 64.4913 -100.311 -105.882 65.0151 
-99.4998 -104.8 66.004 -98.6423 -103.748 66.7146 -105.881 -109.326 64.6182 
-104.427 -107.84 64.9461 -102.921 -106.423 65.1031 -101.564 -105.245 65.3468 
-100.466 -104.025 65.8726 -99.4639 -102.784 66.3904 -98.5078 -101.938 66.7979 
-106.764 -109.282 64.9749 -105.403 -107.936 65.3794 -104.102 -106.467 65.7219 
-102.887 -105.029 65.9193 -101.746 -103.548 65.9883 -100.616 -102.073 66.0708 
-99.5292 -101.027 66.3663 -98.6068 -100.567 67.0017 -107.621 -109.226 65.4081 
-106.341 -107.956 65.7835 -105.103 -106.493 66.1048 -103.952 -104.982 66.3383 
-102.92 -103.403 66.3343 -101.919 -101.744 66.1667 -100.891 -100.45 66.2409 
-99.8976 -99.845 66.8178 -99.0552 -99.7131 67.7527 -108.373 -109.169 65.8191 
-107.243 -107.964 66.1528 -106.126 -106.494 66.388 -105.01 -104.937 66.5905 
-103.97 -103.42 66.7059 -103.055 -101.844 66.6656 -102.191 -100.41 66.6773 
-101.308 -99.5568 67.0657 -100.424 -99.2809 67.8466 -99.6623 -99.2588 68.7759 
-100.093 -112.059 66.2657 -99.4148 -110.553 66.4061 -99.1566 -111.699 66.8811 
-98.832 -108.929 66.5199 -98.6394 -110.018 67.2151 -98.6385 -111.168 67.967 
-98.2613 -107.045 66.6759 -97.9878 -108.272 67.358 -98.1189 -109.399 68.2765 
-98.0919 -110.741 69.1025 -97.8648 -104.922 66.951 -97.2536 -106.375 67.3847 
-97.3021 -107.684 68.3003 -97.6086 -108.956 69.3895 -97.485 -110.478 70.1604 
-97.7218 -102.917 67.1823 -96.9976 -104.318 67.5928 -96.6603 -105.863 68.3844 
-96.9386 -107.263 69.5882 -97.2297 -108.692 70.6849 -97.1502 -110.202 71.4093 
-97.7327 -101.328 67.4916 -97.1405 -102.423 68.0666 -96.7481 -103.863 68.8497 
-96.6355 -105.47 69.9608 -96.8459 -107.054 71.171 -97.0606 -108.527 72.0941 
-97.0225 -109.934 72.727 -98.0164 -100.241 68.1909 -97.3297 -101.016 68.8031 
-97.0257 -102.095 69.5927 -96.8502 -103.565 70.5631 -96.7245 -105.343 71.6413 
-96.8215 -107.031 72.6133 -96.9978 -108.416 73.3168 -96.9514 -109.761 73.8678 
-98.6458 -99.5911 69.156 -97.782 -100.136 69.6995 -97.2604 -100.919 70.4199 
-97.036 -102.016 71.2742 -96.8597 -103.572 72.1865 -96.7363 -105.402 73.0738 
-96.8395 -106.997 73.8139 -96.9838 -108.311 74.3936 -96.9379 -109.667 74.9305 
-99.6923 -99.0464 69.9835 -98.8412 -99.441 70.4745 -99.8802 -98.805 71.2187 
-99.2654 -99.4131 71.8532 -100.122 -98.6584 72.6575 -98.0337 -100.084 71.135 
-99.5953 -99.4989 73.4182 -100.212 -98.6946 74.3267 -98.4447 -100.229 72.6595 
-97.3947 -100.943 71.9623 -99.5852 -99.6176 75.0952 -100.255 -98.921 75.923 
-98.6926 -100.41 74.2883 -97.5933 -101.132 73.5844 -97.0257 -102.098 72.8607 
-99.625 -99.9037 76.6454 -100.561 -99.4333 77.3143 -98.792 -100.616 75.8637 
-97.8236 -101.351 75.1985 -97.1064 -102.278 74.5221 -96.8301 -103.726 73.7419 
-100.051 -100.503 78.0337 -101.032 -100.162 78.6038 -99.1653 -101.087 77.2882 
-98.2338 -101.763 76.6284 -97.3928 -102.57 76.0924 -96.9298 -103.867 75.3721 
-96.7894 -105.529 74.5177 -100.545 -101.195 79.2874 -101.414 -100.854 79.7681 
-99.7323 -101.759 78.6234 -98.8607 -102.442 77.9238 -97.9218 -103.155 77.3848 
-97.2032 -104.168 76.8354 -96.9041 -105.618 76.0354 -96.9093 -107.097 75.1424 
-100.916 -101.844 80.3591 -101.772 -101.523 80.7226 -100.132 -102.407 79.8372 
-99.3814 -103.144 79.1966 -98.5784 -103.894 78.544 -97.7643 -104.749 77.9611 
-97.1871 -105.938 77.3538 -96.9927 -107.311 76.5778 -96.9897 -108.568 75.709 
-101.356 -102.59 81.2187 -102.238 -102.332 81.4705 -100.496 -103.084 80.8338 
-99.7251 -103.792 80.347 -99.1086 -104.57 79.7107 -98.5342 -105.392 78.9593 
-97.8894 -106.443 78.3151 -97.3621 -107.716 77.7767 -97.1139 -108.962 77.0936 
-96.9945 -110.06 76.2508 -100.659 -98.9373 69.2407 -100.599 -98.5388 70.3981 
-101.684 -98.5779 69.694 -101.69 -97.8435 70.8312 -102.974 -98.1547 70.1192 
-100.641 -98.0486 71.7231 -103.283 -97.3143 71.3809 -104.391 -98.1126 70.6461 
-101.829 -97.2366 72.3853 -100.772 -97.8313 73.4076 -104.739 -97.7032 72.0644 
-105.386 -98.7866 71.3291 -103.562 -97.0941 73.1117 -102.071 -97.321 74.2201 
-100.979 -98.0545 75.1353 -105.528 -98.8204 72.7657 -106.174 -99.6832 72.0291 
-104.844 -98.0252 73.7318 -103.714 -97.7296 74.83 -102.429 -97.9892 75.7615 
-101.367 -98.6014 76.5664 -106.434 -99.7302 73.4116 -107.257 -100.405 72.6184 
-105.723 -99.1145 74.3067 -104.919 -98.7162 75.3136 -103.928 -98.5995 76.2541 
-102.87 -98.8027 77.0907 -101.844 -99.37 77.9082 -107.675 -100.44 73.9666 
-108.341 -101.173 73.1005 -106.984 -99.7858 74.9187 -106.205 -99.3872 75.9053 
-105.276 -99.2497 76.8781 -104.273 -99.2802 77.7801 -103.214 -99.5772 78.5795 
-102.197 -100.151 79.2559 -108.671 -101.315 74.4031 -109.17 -101.998 73.527 
-108.165 -100.581 75.4422 -107.603 -99.9641 76.496 -106.814 -99.6713 77.5191 
-105.776 -99.664 78.5314 -104.621 -99.857 79.3763 -103.476 -100.268 79.9513 
-102.498 -100.846 80.3768 -109.456 -102.135 74.7606 -109.932 -102.661 73.9288 
-108.947 -101.572 75.8179 -108.498 -100.926 76.9267 -108.013 -100.37 77.9621 
[...]
CELL_DATA 2000
SCALARS Distance double
LOOKUP_TABLE default
175.534 174.622 174.893 174.475 173.578 173.886 173.428 173.746 173.274 
172.455 172.768 172.244 172.595 172.078 172.44 171.907 171.253 171.582 
170.981 171.33 170.742 171.139 170.579 170.986 170.453 169.944 170.3 
169.658 170.011 169.367 169.75 169.179 169.612 169.118 169.551 169.11 
168.637 168.948 168.308 168.662 168.029 168.382 167.805 168.22 167.765 
168.231 167.842 168.288 167.924 167.47 167.675 167.011 167.334 166.743 
167.085 166.506 166.873 166.379 166.856 166.469 166.991 166.631 167.118 
166.779 166.431 166.548 165.814 166.073 165.48 165.828 165.271 165.608 
165.058 165.462 165.019 165.55 165.193 165.753 165.421 165.959 165.675 
165.485 165.536 164.749 164.91 164.278 164.588 164.069 164.404 163.884 
164.202 163.734 164.147 163.809 164.324 164.054 164.59 164.349 164.896 
164.707 176.011 176.462 175.883 175.136 176.901 176.329 175.567 174.953 
174.131 177.296 176.739 175.97 175.371 174.528 173.903 173.037 177.644 
177.092 176.29 175.725 174.867 174.27 173.372 172.765 171.855 177.91 
177.389 176.546 175.998 175.128 174.561 173.658 173.066 172.13 171.526 
170.568 178.057 177.599 176.774 176.241 175.375 174.809 173.917 173.332 
172.418 171.807 170.87 170.235 169.3 178.139 177.73 176.968 176.47 
175.623 175.061 174.155 173.577 172.669 172.095 171.209 170.596 169.714 
169.053 168.185 178.211 177.832 177.109 176.653 175.816 175.284 174.349 
173.783 172.831 172.294 171.404 170.894 170.053 169.487 168.645 168.005 
167.173 178.239 177.902 177.173 176.758 175.91 175.423 174.486 173.944 
172.981 172.434 171.514 171.02 170.169 169.712 168.895 168.394 167.576 
166.996 166.203 177.985 177.086 177.346 176.87 175.95 176.29 175.765 
176.085 175.538 174.63 175.013 174.418 174.829 174.264 174.654 174.088 
173.129 173.551 172.883 173.366 172.818 173.305 172.781 173.174 172.608 
171.609 171.996 171.319 171.783 171.271 171.822 171.378 171.85 171.316 
171.681 171.133 170.337 170.616 170.023 170.339 169.846 170.313 169.916 
170.429 169.94 170.355 169.788 170.2 169.729 169.329 169.538 169.017 
169.222 168.699 169.008 168.562 169.002 168.539 168.964 168.408 168.817 
168.319 168.819 168.441 168.438 168.618 168.073 168.261 167.665 167.899 
167.338 167.693 167.193 167.599 167.076 167.46 166.954 167.404 167.009 
167.545 167.182 167.598 167.738 167.138 167.291 166.632 166.818 166.156 
166.443 165.847 166.243 165.691 166.117 165.593 166.046 165.608 166.121 
165.748 166.273 165.874 164.96 164.832 164.443 163.516 164.653 164.25 
163.242 162.897 161.961 164.538 164.036 162.878 162.488 161.416 161.235 
160.371 164.595 163.967 162.694 162.107 160.907 160.607 159.713 159.659 
158.934 164.838 164.138 162.953 162.137 160.95 160.306 159.429 159.137 
158.502 158.354 157.682 165.256 164.533 163.555 162.675 161.664 160.755 
159.918 159.237 158.596 158.155 157.489 157.164 156.443 165.812 165.098 
164.261 163.441 162.581 161.684 160.873 160.016 159.261 158.522 157.732 
157.14 156.361 155.99 155.417 166.403 165.737 164.974 164.212 163.398 
162.586 161.763 160.946 160.114 159.285 158.404 157.589 156.776 156.141 
155.616 155.263 155.08 166.94 166.346 165.651 164.945 164.16 163.374 
162.543 161.743 160.92 160.106 159.286 158.412 157.664 156.843 156.373 
155.781 155.662 155.313 155.422 164.717 163.288 163.971 163.952 161.839 
162.547 162.567 163.288 163.453 160.375 161.116 161.196 161.938 162.135 
162.928 163.234 158.906 159.635 159.704 160.523 160.728 161.598 161.914 
162.757 163.073 157.502 158.147 158.102 158.93 159.106 160.085 160.449 
161.408 161.792 162.613 162.956 156.221 156.761 156.671 157.367 157.533 
158.444 158.893 159.919 160.473 161.385 161.865 162.614 163.053 155.265 
155.615 155.618 156.133 156.38 157.084 157.607 158.505 159.212 160.153 
160.826 161.624 162.161 162.84 163.324 154.965 154.996 155.087 155.358 
155.684 156.189 156.745 157.457 158.189 159.046 159.821 160.66 161.312 
162.014 162.532 163.163 163.651 155.301 155.078 155.186 155.164 155.481 
155.73 156.252 156.761 157.435 158.15 158.905 159.72 160.434 161.187 
161.77 162.413 162.923 163.529 164.038 155.623 156.142 155.739 155.527 
156.846 156.41 156.279 155.798 155.776 157.695 157.266 157.244 156.693 
156.645 156.208 156.436 158.569 158.16 158.195 157.708 157.663 157.151 
157.288 157.01 157.5 159.579 159.062 159.102 158.644 158.66 158.167 
158.274 157.908 158.333 158.203 158.893 160.858 160.2 160.25 159.669 
159.769 159.219 159.383 158.931 159.314 159.082 159.719 159.66 160.387 
162.169 161.535 161.602 160.975 161.118 160.494 160.693 160.131 160.467 
160.102 160.65 160.499 161.162 161.108 161.739 163.329 162.776 162.846 
162.305 162.459 161.899 162.102 161.519 161.793 161.304 161.748 161.46 
162.058 161.91 162.522 162.404 162.945 164.464 163.911 163.991 163.479 
163.64 163.161 163.388 162.888 163.156 162.644 163.015 162.609 163.141 
162.878 163.483 163.274 163.83 163.618 164.105 155.924 156.495 156.211 
156.313 157.112 156.723 156.694 156.566 156.832 158.059 157.447 157.351 
156.986 157.18 157.152 157.595 159.39 158.639 158.621 157.945 158.119 
157.718 158.13 158.036 158.545 160.808 160.097 160.184 159.46 159.665 
159 159.35 158.882 159.362 159.121 159.661 162.216 161.538 161.666 
161.023 161.258 160.624 160.934 160.323 160.716 160.223 160.721 160.401 
160.977 163.649 162.985 163.144 162.503 162.763 162.161 162.489 161.895 
162.257 161.688 162.103 161.629 162.109 161.777 162.291 164.986 164.407 
164.599 163.999 164.271 163.676 164.017 163.431 163.806 163.225 163.604 
163.051 163.431 162.962 163.361 163.022 163.453 166.15 165.671 165.877 
165.384 165.649 165.137 165.449 164.924 165.272 164.74 165.095 164.54 
164.863 164.306 164.619 164.142 164.506 164.156 164.585 167.012 166.684 
166.498 165.73 166.289 166.108 165.299 165.107 164.243 165.969 165.716 
164.885 164.649 163.737 163.523 162.609 165.804 165.465 164.608 164.281 
163.344 163.037 162.071 161.857 160.969 165.683 165.326 164.43 164.05 
163.086 162.707 161.726 161.397 160.461 160.247 159.378 165.578 165.2 
164.304 163.89 162.926 162.502 161.539 161.143 160.232 159.88 159.007 
158.719 157.88 165.616 165.17 164.337 163.848 162.948 162.439 161.532 
161.056 160.206 159.778 158.99 158.571 157.818 157.415 156.729 165.826 
165.336 164.584 164.031 163.214 162.62 161.783 161.204 160.399 159.878 
159.136 158.677 158.018 157.578 157.003 156.556 156.081 166.137 165.645 
164.973 164.402 163.656 163.021 162.244 161.6 160.841 160.22 159.48 
158.918 158.248 157.809 157.285 156.919 156.518 156.126 155.816 167.726 
168.764 167.993 167.465 169.921 169.103 168.576 167.708 167.108 171.122 
170.303 169.79 168.88 168.259 167.355 166.789 172.285 171.489 170.992 
170.111 169.508 168.567 167.98 167.106 166.625 173.416 172.636 172.156 
171.308 170.748 169.829 169.247 168.34 167.826 166.985 166.521 174.478 
173.755 173.311 172.491 171.972 171.077 170.515 169.604 169.068 168.198 
167.707 166.871 166.411 175.408 174.776 174.381 173.638 173.156 172.309 
171.765 170.866 170.328 169.442 168.951 168.086 167.634 166.795 166.408 
176.238 175.671 175.322 174.664 174.22 173.455 172.929 172.085 171.552 
170.694 170.215 169.358 168.924 168.064 167.675 166.858 166.557 177.004 
176.487 176.177 175.579 175.174 174.474 173.975 173.195 172.677 171.877 
171.413 170.61 170.193 169.364 168.971 168.142 167.808 167.04 166.801 
177.321 177.514 177.129 176.502 177.645 177.28 176.612 176.219 175.489 
177.702 177.364 176.66 176.272 175.477 175.088 174.273 177.7 177.378 
176.666 176.284 175.471 175.05 174.198 173.81 172.993 177.774 177.39 
176.7 176.297 175.52 175.074 174.236 173.779 172.949 172.551 171.771 
178.013 177.55 176.858 176.392 175.636 175.167 174.345 173.861 173.004 
172.55 171.724 171.344 170.57 178.187 177.785 177.059 176.595 175.808 
175.315 174.465 173.965 173.07 172.594 171.713 171.297 170.472 170.125 
169.355 178.048 177.797 177.052 176.715 175.916 175.473 174.598 174.083 
173.173 172.66 171.779 171.307 170.476 170.057 169.278 168.924 168.206 
177.693 177.517 176.789 176.575 175.819 175.497 174.66 174.204 173.32 
172.805 171.965 171.452 170.662 170.158 169.392 168.932 168.218 167.846 
167.209 177.244 176.259 176.609 176.331 175.174 175.568 175.256 175.668 
175.371 173.946 174.395 174.039 174.506 174.175 174.628 174.238 172.623 
173.107 172.724 173.206 172.847 173.349 172.976 173.412 172.951 171.21 
171.752 171.374 171.861 171.474 171.978 171.618 172.115 171.72 172.12 
171.65 169.676 170.278 169.913 170.467 170.056 170.575 170.171 170.71 
170.331 170.845 170.422 170.828 170.352 168.111 168.694 168.312 168.929 
168.539 169.112 168.688 169.228 168.814 169.377 168.975 169.506 169.06 
169.501 169.045 166.644 167.138 166.718 167.309 166.956 167.57 167.213 
167.758 167.363 167.879 167.496 168.028 167.649 168.15 167.75 168.204 
167.838 165.364 165.742 165.314 165.794 165.464 166.035 165.747 166.312 
165.983 166.489 166.134 166.625 166.288 166.779 166.452 166.922 166.613 
167.074 166.818 177.672 178.085 177.479 176.7 178.518 177.89 177.035 
176.451 175.616 178.803 178.233 177.281 176.71 175.774 175.263 174.372 
178.817 178.37 177.329 176.81 175.767 175.302 174.327 173.908 172.998 
178.478 178.22 177.174 176.729 175.611 175.168 174.102 173.727 172.733 
172.423 171.506 177.845 177.752 176.804 176.484 175.381 174.953 173.818 
173.411 172.327 172.025 171.049 170.84 169.942 177.172 177.114 176.286 
176.069 175.071 174.703 173.601 173.144 172.023 171.613 170.607 170.346 
169.472 169.277 168.428 176.621 176.53 175.767 175.581 174.681 174.388 
173.398 172.978 171.925 171.425 170.418 170.01 169.152 168.875 168.079 
167.827 167.016 176.146 176.042 175.301 175.117 174.267 174.017 173.116 
172.791 171.85 171.403 170.436 169.95 169.06 168.67 167.871 167.557 
166.773 166.484 165.733 178.389 179.61 178.944 178.835 180.706 180.151 
180.075 179.423 179.303 181.601 181.156 181.106 180.58 180.482 179.856 
179.642 182.469 182.021 181.947 181.478 181.347 180.878 180.68 180.07 
179.678 183.3 182.895 182.782 182.282 182.049 181.584 181.308 180.874 
180.467 179.881 179.277 183.822 183.597 183.506 183.095 182.808 182.262 
181.848 181.359 180.879 180.42 179.803 179.246 178.54 184.013 183.926 
183.873 183.678 183.435 182.976 182.49 181.908 181.337 180.796 180.183 
179.649 178.987 178.435 177.798 184.067 184.005 183.916 183.872 183.667 
183.425 182.941 182.465 181.843 181.298 180.686 180.113 179.495 178.903 
178.31 177.756 177.221 184.07 183.997 183.824 183.807 183.575 183.48 
183.018 182.721 182.088 181.687 181.079 180.624 180.036 179.481 178.882 
178.303 177.756 177.227 176.731 183.997 183.719 183.792 183.691 183.297 
183.414 183.227 183.432 183.334 182.669 182.852 182.561 182.819 182.612 
182.921 182.701 181.86 182.1 181.756 182.034 181.746 182.065 181.778 
182.105 181.79 180.927 181.218 180.845 181.144 180.815 181.139 180.827 
181.148 180.855 181.17 180.861 179.877 180.232 179.835 180.159 179.781 
180.138 179.8 180.164 179.858 180.228 179.942 180.26 179.891 178.745 
179.148 178.78 179.113 178.715 179.059 178.693 179.076 178.746 179.163 
178.858 179.268 178.918 179.223 178.77 177.614 178.03 177.722 178.069 
177.701 178.014 177.645 177.98 177.647 178.03 177.729 178.14 177.821 
178.19 177.804 178.079 177.644 176.535 176.941 176.67 177.035 176.703 
177.022 176.66 176.97 176.632 176.975 176.682 177.052 176.763 177.12 
176.789 177.104 176.732 176.998 176.614 175.861 174.83 175.574 175.978 
173.648 174.473 174.882 175.643 176.003 172.31 173.215 173.632 174.474 
174.855 175.624 175.962 170.891 171.827 172.285 173.185 173.608 174.436 
174.832 175.589 175.949 169.544 170.424 170.917 171.842 172.332 173.198 
173.646 174.452 174.883 175.624 176.014 168.331 169.129 169.584 170.491 
171.005 171.921 172.4 173.259 173.71 174.528 174.962 175.706 176.084 
167.201 167.947 168.339 169.177 169.644 170.565 171.054 171.973 172.434 
173.312 173.753 174.585 174.99 175.745 176.092 166.143 166.848 167.234 
167.978 168.397 169.225 169.704 170.612 171.123 172.026 172.504 173.353 
173.78 174.586 174.967 175.718 176.044 165.193 165.849 166.264 166.943 
167.357 168.066 168.514 169.325 169.858 170.749 171.288 172.14 172.591 
173.383 173.773 174.552 174.912 175.653 175.958 175.662 174.575 175.02 
174.764 173.416 173.857 173.548 174.01 173.696 172.246 172.68 172.323 
172.75 172.391 172.876 172.546 170.942 171.449 171.051 171.492 171.055 
171.528 171.15 171.684 171.313 169.497 170.042 169.62 170.123 169.625 
170.117 169.653 170.214 169.813 170.378 169.948 168.16 168.609 168.187 
168.653 168.159 168.628 168.123 168.657 168.216 168.812 168.403 168.974 
168.571 167.017 167.372 166.937 167.304 166.809 167.199 166.69 167.145 
166.681 167.218 166.804 167.393 167.023 167.63 167.32 165.911 166.25 
165.771 166.102 165.553 165.893 165.341 165.748 165.267 165.745 165.328 
165.85 165.484 166.068 165.772 166.418 166.184 164.824 165.127 164.619 
164.924 164.342 164.64 164.043 164.404 163.908 164.364 163.983 164.469 
164.142 164.635 164.36 164.913 164.707 165.332 165.17 178.877 178.875 
179.204 179.866 178.85 179.208 179.948 180.278 181.039 178.836 179.221 
180.003 180.373 181.203 181.539 182.287 178.716 179.184 179.952 180.387 
181.172 181.618 182.374 182.707 183.188 178.404 178.955 179.674 180.202 
180.901 181.436 182.161 182.653 183.206 183.409 183.573 177.999 178.555 
179.245 179.813 180.496 181.056 181.779 182.35 183.041 183.405 183.766 
183.731 183.777 177.578 178.119 178.797 179.367 180.078 180.639 181.359 
181.939 182.661 183.192 183.716 183.927 184.094 183.98 184.026 177.121 
177.665 178.305 178.897 179.579 180.19 180.845 181.454 182.044 182.671 
183.142 183.656 183.872 184.1 184.109 184.148 184.174 176.635 177.167 
177.74 178.335 178.924 179.575 180.126 180.785 181.231 181.882 182.22 
182.853 183.062 183.567 183.62 183.933 183.916 184.117 184.126 179.023 
180.031 179.514 179.45 181.189 180.592 180.543 179.918 179.718 182.402 
181.805 181.715 181.05 180.854 180.146 179.806 183.249 182.883 182.774 
182.203 181.953 181.268 180.913 180.159 179.672 183.508 183.405 183.358 
183.093 182.906 182.336 181.935 181.196 180.655 179.885 179.282 183.608 
183.497 183.505 183.469 183.503 183.204 182.919 182.219 181.617 180.792 
180.126 179.386 178.8 183.929 183.714 183.739 183.64 183.775 183.673 
183.572 183.116 182.565 181.766 181.03 180.215 179.587 178.912 178.43 
184.247 184.124 184.183 184.011 184.055 183.917 183.785 183.542 183.063 
182.542 181.815 181.102 180.413 179.713 179.183 178.575 178.155 184.292 
184.356 184.45 184.4 184.36 184.186 183.918 183.656 183.161 182.812 
182.175 181.699 181.038 180.465 179.883 179.301 178.821 178.283 177.877 
178.461 178.816 178.318 177.582 178.989 178.556 177.8 177.324 176.487 
178.982 178.593 177.779 177.419 176.638 176.183 175.262 178.807 178.47 
177.576 177.274 176.52 176.244 175.446 174.92 173.866 178.483 178.222 
177.327 177.019 176.25 176.052 175.356 175.027 174.073 173.439 172.315 
178.122 177.909 177.131 176.81 176.059 175.805 175.139 174.888 174.043 
173.557 172.473 171.865 170.88 177.83 177.632 176.982 176.693 176.008 
175.693 175.019 174.719 173.941 173.514 172.537 171.981 171.017 170.524 
169.77 177.588 177.407 176.81 176.582 175.947 175.662 174.979 174.651 
173.897 173.487 172.63 172.106 171.231 170.698 169.949 169.514 168.892 
177.342 177.18 176.593 176.404 175.786 175.557 174.882 174.59 173.846 
173.482 172.7 172.259 171.476 170.972 170.236 169.746 169.092 168.672 
168.078 178.393 178.757 178.925 179.586 178.87 179.189 179.825 180.055 
180.632 178.646 179.1 179.696 180.101 180.668 180.968 181.487 178.391 
178.8 179.392 179.834 180.455 180.883 181.522 181.826 182.387 178.336 
178.644 179.285 179.626 180.347 180.735 181.533 181.893 182.61 182.802 
183.287 178.335 178.647 179.307 179.637 180.389 180.759 181.595 181.981 
182.76 183.03 183.546 183.612 183.849 178.248 178.601 179.224 179.617 
180.305 180.745 181.465 181.944 182.636 183.066 183.592 183.802 184.05 
184.031 184.091 178.089 178.459 179.045 179.458 180.091 180.544 181.17 
181.65 182.244 182.752 183.297 183.707 184.077 184.21 184.334 184.234 
184.219 177.866 178.25 178.799 179.225 179.829 180.283 180.909 181.344 
181.948 182.368 182.944 183.366 183.845 184.147 184.393 184.448 184.465 
184.336 184.257 
POINT_DATA 1002
SCALARS Distance double
LOOKUP_TABLE default
175.161 176.131 175.312 174.21 174.347 174.059 173.105 173.285 172.972 
172.797 171.918 172.166 171.712 171.554 171.376 170.666 170.93 170.363 
170.154 170.032 169.954 169.307 169.596 169.005 168.735 168.653 168.671 
168.707 167.942 168.374 167.677 167.408 167.276 167.37 167.489 167.578 
166.71 167.329 166.385 166.172 165.94 165.926 166.115 166.29 166.471 
165.607 166.36 165.127 164.931 164.714 164.524 164.611 164.857 165.117 
165.44 164.644 165.453 164 163.711 163.57 163.371 163.311 163.507 
163.8 164.133 164.55 176.591 175.75 177.048 176.19 177.466 174.764 
176.562 177.861 175.162 173.662 176.855 178.217 175.454 173.988 172.47 
177.097 178.419 175.687 174.244 172.743 171.179 177.286 178.47 175.943 
174.498 173.012 171.502 169.932 177.437 178.511 176.185 174.745 173.225 
171.772 170.357 168.856 177.551 178.573 176.34 174.925 173.381 171.889 
170.555 169.251 167.832 177.583 178.562 176.385 175.006 173.529 172.036 
170.619 169.335 168.102 166.798 177.813 176.645 176.803 175.427 175.623 
175.227 173.993 174.276 173.837 173.732 172.385 172.727 172.272 172.35 
172.263 170.878 171.224 170.695 170.849 170.94 170.748 169.748 170.04 
169.447 169.399 169.503 169.382 169.236 168.831 169.118 168.475 168.182 
168.109 168.011 167.835 167.889 167.91 168.29 167.481 167.045 166.793 
166.684 166.537 166.493 166.649 167.019 167.487 166.487 165.933 165.496 
165.257 165.136 165.111 165.223 165.374 164.057 163.9 162.593 163.628 
162.201 161.092 163.372 161.636 160.414 159.61 163.397 161.317 159.771 
158.956 158.241 163.764 161.703 159.834 158.688 157.871 156.94 164.344 
162.562 160.731 159.194 157.915 156.688 155.707 165.021 163.422 161.763 
160.128 158.465 156.822 155.579 154.969 165.706 164.198 162.577 160.951 
159.265 157.485 156.026 155.247 155.029 166.317 164.933 163.351 161.706 
160.106 158.489 157.022 156.075 155.668 155.573 163.216 161.835 162.652 
160.426 161.332 162.424 158.874 159.816 161.041 162.281 157.331 158.106 
159.401 160.907 162.191 156.019 156.67 157.829 159.453 161.062 162.346 
155.122 155.716 156.76 158.239 159.951 161.47 162.671 154.902 155.241 
156.101 157.382 158.954 160.564 161.905 163.023 155.307 155.354 155.854 
156.808 158.122 159.646 161.095 162.314 163.434 155.992 155.923 156.514 
156.796 157.231 156.123 157.775 158.084 157.167 156.651 158.626 159.003 
158.189 157.641 157.577 159.563 160.174 159.121 158.676 158.512 158.916 
160.865 161.538 160.325 159.865 159.612 159.825 160.423 162.206 162.766 
161.736 161.296 160.92 160.874 161.256 161.812 163.359 163.865 162.975 
162.669 162.343 162.12 162.254 162.669 163.091 164.512 165.018 164.106 
163.844 163.655 163.472 163.456 163.716 164.068 164.334 156.21 156.436 
156.843 156.897 157.603 156.754 157.848 158.733 157.315 157.476 159.342 
160.099 158.68 158.369 158.552 160.853 161.474 160.362 159.957 159.728 
159.811 162.29 162.886 161.857 161.558 161.289 161.134 161.223 163.782 
164.28 163.364 163.07 162.841 162.644 162.535 162.573 165.162 165.517 
164.855 164.599 164.387 164.193 163.978 163.782 163.731 166.336 166.6 
166.137 165.96 165.791 165.642 165.452 165.162 164.915 164.873 167.234 
165.944 166.876 165.506 166.488 164.448 165.158 166.264 163.995 162.772 
164.978 166.173 163.692 162.347 161.097 164.83 166.049 163.484 162.086 
160.75 159.54 164.724 165.965 163.359 161.938 160.597 159.353 158.132 
164.825 166.061 163.465 162.024 160.637 159.389 158.231 157.093 165.124 
166.295 163.806 162.375 160.953 159.61 158.414 157.414 156.505 168.459 
168.288 169.548 169.478 170.741 167.964 170.695 171.934 169.2 167.617 
171.843 173.082 170.442 168.886 167.442 172.987 174.182 171.641 170.164 
168.695 167.345 174.101 175.156 172.849 171.429 169.956 168.558 167.223 
175.075 175.997 173.969 172.653 171.215 169.816 168.482 167.2 175.945 
176.775 174.95 173.745 172.391 171.054 169.779 168.513 167.316 176.746 
177.494 175.845 174.729 173.454 172.189 170.999 169.803 168.601 167.51 