# vtk DataFile Version 4.0
vtk output
ASCII
DATASET POLYDATA
POINTS 1002 float
-107.683 -125.045 75.5342 -108.429 -125.902 75.0675 -108.218 -125.255 74.3196 
-107.382 -124.374 74.7279 -107.951 -124.486 73.6595 -106.864 -124.057 76.0141 
-107.055 -123.532 74.0052 -107.628 -123.616 73.0617 -106.552 -123.29 75.1705 
-106.105 -122.84 76.5091 -106.724 -122.473 73.4056 -107.337 -122.561 72.4244 
-106.212 -122.253 74.4383 -105.716 -121.929 75.6938 -105.351 -121.382 77.0204 
-106.4 -121.252 72.7857 -106.975 -121.411 71.728 -105.811 -121.041 73.8475 
-105.222 -120.818 75.0035 -104.728 -120.497 76.2985 -104.482 -119.915 77.5441 
-105.922 -120.107 72.0817 -106.447 -120.339 71.0551 -105.346 -119.886 73.1999 
-104.692 -119.683 74.3361 -104.081 -119.502 75.6242 -103.73 -119.124 76.908 
-103.649 -118.55 78.0878 -105.33 -119.059 71.3833 -105.988 -119.27 70.5043 
-104.748 -118.853 72.5041 -104.159 -118.618 73.5901 -103.554 -118.413 74.8389 
-103.063 -118.159 76.2313 -102.894 -117.693 77.4727 -102.91 -117.187 78.6069 
-104.832 -117.959 70.7651 -105.693 -118.082 70.1752 -104.127 -117.813 71.8327 
-103.557 -117.567 72.9459 -103.062 -117.275 74.0678 -102.508 -117.057 75.4547 
-102.125 -116.754 76.8093 -102.086 -116.3 77.969 -102.14 -115.897 79.0556 
-104.372 -116.823 70.2911 -105.354 -116.856 70.0382 -103.595 -116.769 71.1691 
-102.995 -116.559 72.3687 -102.551 -116.196 73.4867 -102.044 -115.928 74.7311 
-101.479 -115.774 76.0849 -101.259 -115.487 77.2845 -101.338 -115.099 78.4088 
-101.421 -114.796 79.473 -103.866 -115.725 69.9578 -104.903 -115.718 69.9125 
-103.12 -115.752 70.6025 -102.579 -115.616 71.7747 -102.152 -115.238 72.9573 
-101.698 -114.856 74.0932 -101.103 -114.695 75.3384 -100.695 -114.57 76.5279 
-100.699 -114.298 77.669 -100.82 -114.005 78.849 -100.903 -113.813 79.8926 
-109.035 -126.307 74.1396 -108.932 -125.546 73.465 -109.795 -126.622 73.2659 
-109.778 -125.764 72.6043 -110.671 -126.788 72.2942 -108.733 -124.659 72.8478 
-110.586 -125.876 71.5228 -111.56 -126.709 71.0553 -109.616 -124.769 71.8814 
-108.434 -123.711 72.1633 -111.294 -125.825 70.2898 -112.56 -126.373 69.9352 
-110.328 -124.843 70.696 -109.293 -123.766 71.0938 -108.088 -122.659 71.433 
-112.245 -125.55 69.2699 -113.788 -125.817 69.2574 -110.985 -124.784 69.5055 
-110.013 -123.771 69.9548 -108.894 -122.741 70.4354 -107.603 -121.581 70.7734 
-113.492 -125.028 68.4149 -114.957 -125.112 68.5901 -112.001 -124.479 68.4682 
-110.808 -123.577 68.8431 -109.729 -122.662 69.3879 -108.43 -121.681 69.8749 
-107.111 -120.496 70.2216 -114.574 -124.346 67.5792 -115.827 -124.438 67.7425 
-113.183 -123.934 67.5982 -111.823 -123.176 67.8984 -110.585 -122.348 68.3084 
-109.333 -121.517 68.7859 -108.067 -120.484 69.3953 -106.865 -119.256 69.9125 
-115.367 -123.612 67.0143 -116.568 -123.847 67.0866 -114.114 -123.194 67.0208 
-112.831 -122.58 67.2523 -111.472 -121.888 67.5378 -110.095 -121.16 67.7579 
-108.937 -120.251 68.3368 -107.921 -119.1 69.2862 -106.723 -117.885 69.9263 
-116.104 -122.848 66.7675 -117.327 -123.203 66.7099 -114.841 -122.356 66.7307 
-113.664 -121.794 66.7737 -112.432 -121.242 67.0045 -110.951 -120.676 67.1777 
-109.61 -119.931 67.4615 -108.726 -118.895 68.3728 -107.807 -117.686 69.5019 
-106.438 -116.566 70.0125 -117.3 -122.149 66.4704 -115.907 -121.631 66.5061 
-117.071 -120.916 66.074 -115.541 -120.383 65.8304 -116.608 -119.806 65.5431 
-114.565 -121.04 66.2714 -115.018 -119.324 65.0015 -116.018 -118.734 65.3342 
-114.226 -119.82 65.3331 -113.441 -120.482 66.2341 -114.416 -118.185 64.801 
-115.352 -117.407 65.5951 -113.719 -118.738 64.5935 -113.122 -119.254 65.4963 
-112.096 -119.985 66.5932 -113.812 -116.711 65.3401 -114.639 -115.912 66.0451 
-113.031 -117.453 64.8098 -112.455 -118.018 65.2553 -111.588 -118.675 66.3023 
-110.445 -119.397 66.9804 -113.291 -115.159 66.1797 -114.027 -114.52 66.6288 
-112.436 -115.898 65.764 -111.627 -116.56 65.7938 -110.827 -117.22 66.4164 
-109.952 -117.933 67.0869 -109.247 -118.492 67.6621 -112.805 -113.833 67.1489 
-113.501 -113.326 67.4726 -112.039 -114.446 66.9436 -111.134 -115.03 66.8318 
-110.173 -115.613 66.9785 -109.41 -116.276 67.4086 -108.903 -116.853 68.0744 
-108.433 -117.274 68.8749 -112.192 -112.692 68.2175 -112.885 -112.285 68.5022 
-111.519 -113.225 68.1139 -110.794 -113.712 68.02 -109.833 -114.123 67.92 
-108.902 -114.612 67.9909 -108.316 -115.147 68.4162 -107.828 -115.597 69.1495 
-107.168 -116.042 69.7768 -111.498 -111.534 69.2002 -112.202 -111.261 69.4548 
-110.773 -111.98 69.1179 -110.15 -112.442 69.0456 -109.394 -112.788 68.896 
-108.409 -113.132 68.7773 -107.548 -113.578 68.8253 -106.885 -114.043 69.1311 
-106.173 -114.516 69.5668 -105.448 -115.082 69.8399 -103.708 -114.617 69.6261 
-104.163 -113.86 69.4111 -102.778 -113.414 69.5195 -104.898 -113.195 69.2332 
-103.175 -112.541 69.1775 -102.372 -111.92 69.9706 -105.738 -112.604 69.2059 
-103.869 -111.722 69.1543 -102.731 -110.931 69.5867 -102.317 -110.149 70.8797 
-106.682 -112.021 69.3191 -104.799 -110.869 69.4243 -103.366 -109.87 69.5604 
-102.666 -109.062 70.4336 -102.299 -108.377 71.7276 -107.766 -111.539 69.4481 
-105.949 -110.058 69.6409 -104.354 -108.724 69.6787 -103.28 -107.811 70.1286 
-102.697 -107.211 71.1643 -102.183 -106.712 72.2472 -108.685 -111.182 69.6306 
-107.084 -109.512 69.7995 -105.582 -107.847 69.7432 -104.27 -106.643 69.8904 
-103.304 -105.953 70.5923 -102.679 -105.518 71.6773 -102.019 -105.161 72.6511 
-109.41 -110.789 69.8009 -108.016 -109.162 70.065 -106.753 -107.433 69.9998 
-105.519 -105.989 69.938 -104.28 -104.993 70.2576 -103.352 -104.415 71.136 
-102.704 -104.103 72.2566 -102.019 -103.934 73.2014 -110.254 -110.375 69.8672 
-108.997 -108.844 70.2385 -107.863 -107.238 70.3434 -106.8 -105.809 70.364 
-105.608 -104.584 70.4747 -104.43 -103.7 70.9655 -103.561 -103.265 71.9339 
-102.899 -103.115 73.0147 -102.269 -103.087 73.913 -111.143 -110.124 69.9941 
-110.079 -108.643 70.3117 -109.025 -107.118 70.4985 -108.001 -105.804 70.7456 
-106.966 -104.585 71.0096 -105.85 -103.477 71.3 -104.776 -102.791 71.9153 
-103.898 -102.524 72.8705 -103.191 -102.42 73.8347 -102.616 -102.39 74.659 
-102.848 -114.636 69.9869 -102.259 -113.253 70.452 -102.355 -114.57 71.0501 
-102.078 -111.437 71.3493 -101.939 -112.908 71.809 -101.956 -114.235 72.3335 
-101.951 -109.508 72.2346 -101.617 -110.88 72.6029 -101.431 -112.406 72.9291 
-101.479 -113.749 73.4548 -101.684 -107.77 72.7611 -101.167 -108.993 73.1505 
-100.793 -110.476 73.459 -100.722 -112.03 73.9323 -100.864 -113.456 74.6311 
-101.326 -106.121 73.0693 -100.668 -107.283 73.4791 -100.19 -108.733 73.9354 
-100.023 -110.33 74.4731 -100.148 -111.888 75.1315 -100.372 -113.349 75.8582 
-101.132 -104.677 73.5025 -100.323 -105.632 73.8598 -99.8415 -106.968 74.4194 
-99.6895 -108.626 75.1184 -99.7971 -110.252 75.7841 -100.047 -111.761 76.4225 
-100.318 -113.169 77.0795 -101.353 -103.675 74.1908 -100.424 -104.383 74.5256 
-99.8358 -105.357 75.076 -99.677 -106.824 75.8472 -99.7363 -108.549 76.6203 
-99.9205 -110.126 77.2701 -100.171 -111.586 77.8722 -100.441 -112.937 78.4265 
-101.851 -102.932 75.002 -100.993 -103.588 75.4097 -100.261 -104.304 75.9621 
-99.8849 -105.328 76.6895 -99.7642 -106.854 77.4945 -99.7466 -108.532 78.2341 
-99.88 -110.058 78.8588 -100.149 -111.499 79.3592 -100.482 -112.797 79.6983 
-102.556 -101.941 75.6696 -101.887 -102.652 76.1992 -102.582 -101.534 76.8634 
-102.016 -102.438 77.5678 -102.712 -101.375 78.1635 -101.137 -103.458 76.8258 
-102.193 -102.401 78.8479 -103.055 -101.504 79.4234 -101.336 -103.405 78.2839 
-100.453 -104.262 77.542 -102.557 -102.604 80.0157 -103.593 -101.848 80.6215 
-101.595 -103.492 79.5062 -100.657 -104.349 79.0179 -99.9956 -105.402 78.3306 
-103.031 -103.013 81.3247 -104.06 -102.414 81.8374 -102.077 -103.793 80.7133 
-101.083 -104.609 80.235 -100.142 -105.638 79.7932 -99.6942 -107.028 79.134 
-103.433 -103.506 82.6721 -104.453 -103.104 83.0083 -102.575 -104.227 82.0768 
-101.785 -105.079 81.422 -100.759 -106.04 80.9324 -99.8268 -107.31 80.5034 
-99.5986 -108.736 79.8339 -103.979 -104.067 83.6681 -105.035 -103.809 83.9297 
-103.036 -104.728 83.2294 -102.354 -105.686 82.5986 -101.661 -106.63 81.9171 
-100.679 -107.696 81.3989 -99.9142 -109.018 80.9814 -99.8473 -110.334 80.325 
-104.762 -104.851 84.2826 -105.757 -104.617 84.5275 -103.73 -105.435 83.9899 
-102.854 -106.399 83.5859 -102.282 -107.35 82.9467 -101.745 -108.217 82.1956 
-101.005 -109.347 81.6391 -100.416 -110.661 81.2154 -100.304 -111.829 80.584 
-105.496 -105.827 84.7859 -106.38 -105.556 84.9566 -104.551 -106.352 84.6031 
-103.577 -107.198 84.3944 -102.795 -108.083 83.9703 -102.376 -108.831 83.2313 
-102.055 -109.747 82.4303 -101.526 -110.959 81.8267 -101 -112.139 81.319 
-100.801 -113.069 80.6801 -103.305 -101.678 74.9001 -103.247 -101.06 75.9299 
-104.254 -101.039 75.1527 -104.355 -100.412 76.1595 -105.657 -100.568 75.4725 
-103.326 -100.669 77.1405 -106.018 -100.078 76.4405 -107.202 -100.348 75.9292 
-104.659 -100.256 77.3989 -103.625 -100.708 78.5637 -107.662 -99.9716 76.9139 
-108.452 -100.522 76.52 -106.477 -100.106 77.7342 -105.113 -100.478 79.0197 
-104.181 -100.953 79.9984 -108.951 -100.146 77.586 -109.535 -101.058 77.1003 
-108.143 -99.9442 78.2704 -106.854 -100.334 79.521 -105.623 -100.715 80.5811 
-104.777 -101.379 81.1784 -110.174 -100.646 78.1909 -110.636 -101.724 77.4935 
-109.587 -99.997 78.8932 -108.514 -100.22 79.9985 -107.178 -100.708 81.0457 
-106.082 -101.265 81.6025 -105.206 -102.171 82.2249 -111.31 -101.411 78.5141 
-111.636 -102.438 77.6698 -110.887 -100.558 79.3305 -110.053 -100.503 80.2931 
-108.828 -101.007 81.288 -107.593 -101.514 81.9317 -106.536 -102.206 82.537 
-105.669 -103.063 83.3419 -112.231 -102.344 78.6415 -112.509 -103.214 77.7502 
-111.871 -101.558 79.5692 -111.226 -101.299 80.4502 -110.3 -101.612 81.3475 
-109.253 -101.989 82.1796 -108.152 -102.387 82.9347 -107.113 -103.067 83.7091 
-106.314 -103.858 84.2906 -113.05 -103.275 78.7484 -113.284 -104.012 77.8686 
-112.697 -102.65 79.7506 -112.089 -102.337 80.653 -111.338 -102.394 81.4605 
[...]
CELL_DATA 2000
SCALARS Distance double
LOOKUP_TABLE default
180.753 179.815 180.148 179.839 178.792 179.145 178.801 179.162 178.808 
177.668 178.05 177.645 178.042 177.645 178.049 177.639 176.422 176.843 
176.386 176.805 176.351 176.794 176.363 176.804 176.37 175.096 175.531 
175.057 175.492 175.009 175.449 175.006 175.478 175.072 175.523 175.132 
173.79 174.181 173.699 174.141 173.658 174.092 173.632 174.106 173.71 
174.205 173.832 174.308 173.963 172.569 172.882 172.356 172.782 172.304 
172.738 172.264 172.724 172.309 172.822 172.452 172.967 172.614 173.134 
172.821 171.414 171.657 171.07 171.457 170.992 171.413 170.964 171.38 
170.964 171.433 171.074 171.581 171.253 171.77 171.485 172.017 171.78 
170.285 170.479 169.853 170.201 169.771 170.175 169.79 170.158 169.761 
170.151 169.794 170.248 169.942 170.44 170.193 170.721 170.542 171.069 
170.926 181.121 181.409 180.922 180.221 181.705 181.226 180.505 179.988 
179.229 181.836 181.462 180.73 180.252 179.451 178.945 178.127 181.791 
181.48 180.753 180.378 179.575 179.125 178.273 177.78 176.901 181.814 
181.436 180.693 180.322 179.545 179.173 178.365 177.914 177.029 176.508 
175.596 181.883 181.506 180.731 180.296 179.494 179.114 178.355 177.978 
177.166 176.668 175.764 175.212 174.321 181.772 181.501 180.739 180.345 
179.51 179.094 178.293 177.934 177.153 176.761 175.924 175.425 174.558 
174.006 173.162 181.571 181.323 180.591 180.278 179.47 179.097 178.266 
177.879 177.043 176.676 175.861 175.501 174.726 174.282 173.487 172.919 
172.084 181.438 181.15 180.403 180.091 179.29 178.982 178.184 177.841 
177.006 176.595 175.753 175.387 174.667 174.366 173.705 173.27 172.489 
171.871 171.008 181.137 180.145 180.455 180.009 178.919 179.293 178.809 
179.213 178.806 177.666 177.991 177.456 177.899 177.522 178.025 177.711 
176.459 176.741 176.156 176.545 176.184 176.718 176.458 176.948 176.586 
175.233 175.534 174.946 175.287 174.884 175.392 175.135 175.667 175.32 
175.749 175.327 174.091 174.364 173.85 174.131 173.684 174.098 173.776 
174.305 173.987 174.469 174.11 174.538 174.245 173.188 173.378 172.971 
173.17 172.76 172.994 172.602 172.971 172.644 173.131 172.857 173.354 
173.121 173.583 173.344 172.455 172.597 172.23 172.414 172.069 172.216 
171.8 171.952 171.537 171.859 171.552 172.063 171.809 172.37 172.054 
172.565 172.146 171.718 171.86 171.42 171.647 171.264 171.501 171.055 
171.207 170.673 170.851 170.368 170.747 170.35 170.901 170.468 171.06 
170.546 171.12 170.601 169.55 169.388 168.912 167.948 169.335 168.77 
167.657 167.311 166.587 169.352 168.77 167.632 167.084 166.181 166.031 
165.56 169.506 168.887 167.795 167.121 166.072 165.68 165.022 165.053 
164.705 169.871 169.187 168.112 167.338 166.177 165.585 164.696 164.525 
164.032 164.181 163.831 170.268 169.618 168.537 167.714 166.49 165.726 
164.665 164.228 163.536 163.512 163.113 163.283 162.917 170.508 169.958 
168.93 168.158 166.988 166.142 165.07 164.357 163.54 163.157 162.664 
162.644 162.365 162.467 162.216 170.722 170.194 169.289 168.575 167.556 
166.74 165.805 164.98 164.194 163.467 162.895 162.475 162.199 162.108 
162.014 162.019 161.961 171.076 170.52 169.745 169.042 168.168 167.396 
166.606 165.83 165.169 164.358 163.796 163.059 162.712 162.271 162.191 
162.024 162.051 161.982 162.019 169.388 167.933 168.736 169.007 166.736 
167.445 167.832 168.591 169.007 165.787 166.407 166.799 167.515 167.94 
168.673 169.053 164.914 165.489 165.755 166.445 166.757 167.535 167.868 
168.651 168.992 163.975 164.535 164.645 165.291 165.448 166.224 166.493 
167.358 167.728 168.578 168.99 162.971 163.481 163.476 164.08 164.16 
164.882 165.141 165.976 166.408 167.294 167.803 168.65 169.147 162.197 
162.502 162.433 162.897 162.979 163.637 163.979 164.76 165.292 166.105 
166.72 167.531 168.142 168.911 169.46 161.933 161.972 161.938 162.094 
162.212 162.634 163.062 163.748 164.406 165.169 165.872 166.609 167.296 
168.017 168.66 169.334 169.888 162.023 161.959 162.028 161.967 162.148 
162.237 162.662 163.066 163.747 164.402 165.156 165.863 166.567 167.263 
167.933 168.609 169.219 169.825 170.335 162.112 162.401 162.251 162.232 
162.903 162.688 162.783 162.477 162.454 163.633 163.315 163.471 163.155 
163.212 162.817 162.937 164.612 164.151 164.274 163.912 164.032 163.648 
163.804 163.488 163.894 165.791 165.224 165.328 164.839 164.99 164.544 
164.747 164.39 164.784 164.604 165.211 167.019 166.432 166.538 166.001 
166.191 165.669 165.908 165.432 165.794 165.503 166.065 165.952 166.602 
168.238 167.64 167.719 167.204 167.424 166.948 167.239 166.722 167.048 
166.598 167.073 166.831 167.46 167.342 167.978 169.488 168.869 168.945 
168.394 168.634 168.179 168.528 168.064 168.409 167.911 168.314 167.926 
168.482 168.258 168.882 168.719 169.285 170.724 170.136 170.258 169.686 
169.949 169.448 169.808 169.343 169.701 169.231 169.611 169.191 169.676 
169.355 169.907 169.659 170.176 169.964 170.409 162.139 162.283 162.191 
162.313 162.779 162.438 162.474 162.441 162.744 163.72 163.157 163.179 
162.837 163.121 163.061 163.539 164.881 164.253 164.327 163.816 164.108 
163.756 164.211 164.053 164.609 166.128 165.474 165.562 165.042 165.349 
164.926 165.32 164.956 165.415 165.226 165.796 167.453 166.784 166.861 
166.292 166.59 166.167 166.553 166.129 166.487 166.137 166.61 166.458 
167.04 168.725 168.127 168.234 167.636 167.91 167.433 167.849 167.392 
167.763 167.282 167.688 167.366 167.926 167.752 168.329 169.879 169.373 
169.541 168.999 169.26 168.768 169.168 168.724 169.149 168.644 169.041 
168.566 169.066 168.748 169.323 169.078 169.607 170.967 170.52 170.754 
170.281 170.56 170.081 170.427 170.005 170.426 170.011 170.432 169.966 
170.392 169.966 170.45 170.124 170.616 170.344 170.813 171.121 170.781 
170.577 169.756 170.417 170.183 169.305 169.082 168.197 170.17 169.851 
168.975 168.663 167.779 167.535 166.716 170.091 169.701 168.842 168.434 
167.569 167.225 166.434 166.168 165.397 170.069 169.669 168.826 168.388 
167.53 167.119 166.334 165.994 165.24 164.909 164.119 170.121 169.68 
168.868 168.414 167.59 167.144 166.378 165.979 165.265 164.866 164.133 
163.717 163.046 170.326 169.828 169.082 168.563 167.821 167.303 166.59 
166.111 165.444 164.997 164.342 163.877 163.27 162.856 162.441 170.609 
170.117 169.45 168.912 168.247 167.675 166.999 166.431 165.765 165.255 
164.615 164.149 163.555 163.141 162.698 162.412 162.19 170.927 170.451 
169.85 169.34 168.721 168.166 167.495 166.9 166.201 165.633 164.966 
164.457 163.838 163.403 162.905 162.615 162.333 162.194 162.092 171.834 
172.818 172.092 171.583 173.835 173.107 172.618 171.82 171.252 174.899 
174.159 173.704 172.892 172.358 171.517 171.001 176.003 175.252 174.852 
174.045 173.569 172.695 172.198 171.345 170.904 177.154 176.374 175.986 
175.215 174.805 173.966 173.483 172.588 172.111 171.279 170.866 178.328 
177.541 177.119 176.343 175.954 175.186 174.745 173.88 173.377 172.503 
172.069 171.265 170.909 179.369 178.674 178.254 177.486 177.092 176.336 
175.953 175.129 174.666 173.779 173.342 172.508 172.168 171.374 171.085 
180.187 179.619 179.253 178.582 178.215 177.494 177.144 176.358 175.952 
175.082 174.655 173.802 173.453 172.654 172.351 171.576 171.31 180.883 
180.384 180.086 179.523 179.215 178.578 178.243 177.531 177.146 176.352 
175.935 175.107 174.728 173.926 173.597 172.821 172.525 171.789 171.565 
181.175 181.447 181.013 180.423 181.761 181.32 180.71 180.247 179.602 
182.018 181.608 180.964 180.506 179.782 179.341 178.62 182.257 181.833 
181.15 180.691 179.893 179.443 178.642 178.261 177.499 182.489 182.059 
181.35 180.866 180.06 179.547 178.723 178.269 177.491 177.102 176.331 
182.618 182.232 181.504 181.053 180.261 179.752 178.939 178.423 177.628 
177.149 176.359 175.931 175.154 182.679 182.316 181.6 181.176 180.39 
179.926 179.106 178.628 177.793 177.309 176.457 175.987 175.155 174.751 
173.995 182.706 182.38 181.715 181.299 180.551 180.067 179.246 178.748 
177.892 177.414 176.553 176.08 175.235 174.781 173.998 173.616 172.922 
182.613 182.375 181.75 181.416 180.719 180.269 179.474 178.934 178.075 
177.531 176.698 176.197 175.422 174.933 174.194 173.714 173.022 172.612 
171.99 182.301 181.483 181.764 181.452 180.519 180.852 180.518 180.837 
180.438 179.407 179.775 179.36 179.771 179.364 179.712 179.197 178.167 
178.56 178.062 178.494 178.039 178.498 178.004 178.355 177.773 176.823 
177.244 176.717 177.142 176.645 177.109 176.639 177.075 176.559 176.906 
176.376 175.391 175.841 175.322 175.777 175.294 175.736 175.263 175.702 
175.244 175.666 175.213 175.575 175.122 173.962 174.394 173.894 174.372 
173.938 174.405 173.939 174.355 173.873 174.324 173.905 174.373 173.963 
174.349 173.911 172.671 173.034 172.554 172.983 172.572 173.049 172.628 
173.051 172.557 172.963 172.508 173 172.619 173.114 172.708 173.119 
172.709 171.553 171.849 171.381 171.723 171.285 171.705 171.296 171.741 
171.303 171.695 171.238 171.645 171.254 171.736 171.388 171.865 171.51 
171.944 171.635 182.654 182.93 182.485 181.852 183.278 182.778 182.129 
181.648 180.947 183.715 183.156 182.438 181.911 181.156 180.673 179.877 
184.064 183.563 182.715 182.148 181.234 180.769 179.909 179.501 178.639 
183.978 183.723 182.839 182.332 181.281 180.749 179.783 179.409 178.561 
178.199 177.307 183.385 183.363 182.581 182.312 181.349 180.825 179.817 
179.307 178.437 178.065 177.221 176.825 175.891 182.687 182.665 181.957 
181.895 181.136 180.858 179.956 179.438 178.467 177.975 177.062 176.679 
175.752 175.36 174.428 182.215 182.073 181.357 181.264 180.587 180.522 
179.788 179.499 178.519 178.004 176.925 176.475 175.49 175.15 174.236 
173.906 173.077 181.888 181.715 180.996 180.779 180.064 179.965 179.318 
179.206 178.383 177.983 176.901 176.357 175.315 174.899 174.029 173.708 
172.927 172.627 171.925 183.218 184.236 183.658 183.539 185.422 184.788 
184.683 184.012 183.904 186.695 186.092 186.04 185.265 185.117 184.427 
184.36 187.807 187.369 187.393 186.667 186.453 185.679 185.503 184.875 
184.73 188.573 188.324 188.357 187.864 187.599 186.915 186.56 185.923 
185.61 185.046 184.635 188.963 188.851 188.779 188.534 188.248 187.806 
187.361 186.799 186.303 185.751 185.208 184.656 184.021 188.949 188.964 
188.764 188.693 188.409 188.211 187.824 187.415 186.877 186.326 185.7 
185.134 184.495 183.934 183.32 188.64 188.722 188.474 188.502 188.25 
188.23 187.956 187.749 187.289 186.826 186.187 185.613 184.964 184.413 
183.85 183.317 182.825 188.342 188.374 188.158 188.176 187.972 188.018 
187.817 187.775 187.394 187.115 186.511 186.046 185.385 184.878 184.293 
183.817 183.324 182.865 182.427 188.212 187.988 188.058 187.972 187.661 
187.794 187.693 187.802 187.784 187.143 187.395 187.326 187.491 187.42 
187.605 187.591 186.48 186.818 186.735 186.991 186.792 187.057 186.879 
187.229 187.074 185.676 186.092 185.969 186.274 185.952 186.215 185.865 
186.265 186.02 186.479 186.195 184.734 185.209 185.101 185.445 185.118 
185.321 184.923 185.205 184.954 185.369 185.159 185.525 185.18 183.757 
184.239 184.158 184.546 184.265 184.494 184.119 184.346 184.099 184.425 
184.243 184.56 184.271 184.524 184.145 182.776 183.255 183.147 183.568 
183.279 183.588 183.205 183.507 183.219 183.585 183.342 183.673 183.333 
183.614 183.236 183.515 183.171 181.771 182.239 182.086 182.515 182.21 
182.553 182.166 182.508 182.202 182.61 182.343 182.709 182.336 182.63 
182.232 182.559 182.256 182.588 182.303 181.161 180.242 180.958 181.415 
179.212 179.969 180.387 181.117 181.484 178.069 178.883 179.309 180.056 
180.424 181.122 181.461 176.802 177.666 178.122 178.951 179.383 180.11 
180.507 181.161 181.559 175.558 176.381 176.825 177.7 178.177 179.03 
179.484 180.234 180.635 181.306 181.682 174.424 175.196 175.634 176.44 
176.906 177.768 178.246 179.109 179.525 180.301 180.623 181.332 181.621 
173.299 174.072 174.517 175.307 175.758 176.551 177.008 177.841 178.305 
179.125 179.522 180.243 180.566 181.234 181.552 172.23 172.945 173.361 
174.16 174.606 175.414 175.847 176.648 177.106 177.929 178.415 179.187 
179.626 180.284 180.679 181.279 181.656 171.352 171.945 172.33 173.032 
173.479 174.254 174.71 175.496 175.941 176.75 177.227 178.069 178.553 
179.338 179.764 180.447 180.816 181.425 181.739 181.485 180.547 180.901 
180.584 179.457 179.871 179.528 179.886 179.583 178.21 178.689 178.348 
178.773 178.48 178.931 178.766 176.877 177.375 177.046 177.54 177.26 
177.774 177.548 178.089 177.818 175.594 176.053 175.713 176.208 175.888 
176.445 176.134 176.723 176.319 176.873 176.355 174.364 174.803 174.447 
174.898 174.499 174.993 174.578 175.162 174.725 175.293 174.777 175.285 
174.788 173.139 173.568 173.208 173.648 173.216 173.616 173.112 173.581 
173.144 173.705 173.307 173.81 173.394 173.864 173.522 172.003 172.365 
171.987 172.4 171.968 172.343 171.816 172.184 171.714 172.205 171.863 
172.404 172.06 172.546 172.193 172.698 172.425 171.037 171.303 170.887 
171.209 170.746 171.091 170.574 170.923 170.445 170.867 170.503 171.008 
170.671 171.182 170.82 171.345 171.045 171.621 171.421 182.091 182.215 
182.448 183.083 182.433 182.628 183.29 183.511 184.21 182.576 182.855 
183.562 183.801 184.577 184.763 185.456 182.508 182.894 183.638 184.027 
184.873 185.183 185.973 186.06 186.598 182.467 182.805 183.547 183.995 
184.862 185.351 186.201 186.514 187.125 187.123 187.454 182.494 182.812 
183.513 183.909 184.715 185.22 186.017 186.509 187.14 187.444 187.828 
187.841 188.014 182.336 182.75 183.369 183.813 184.495 185.001 185.657 
186.167 186.692 187.173 187.578 187.93 188.168 188.239 188.292 182.029 
182.477 183.038 183.516 184.096 184.632 185.198 185.717 186.161 186.625 
186.981 187.453 187.753 188.117 188.248 188.352 188.332 181.744 182.165 
182.728 183.153 183.703 184.169 184.718 185.212 185.694 186.124 186.494 
186.886 187.197 187.592 187.804 188.097 188.148 188.28 188.275 182.204 
183.225 182.704 182.595 184.337 183.781 183.741 183.076 182.82 185.463 
184.898 184.863 184.263 184.104 183.326 183.046 186.454 185.923 185.801 
185.307 185.18 184.578 184.363 183.609 183.338 187.269 186.794 186.637 
186.175 186.04 185.539 185.327 184.753 184.455 183.795 183.389 187.865 
187.506 187.408 187.014 186.952 186.44 186.209 185.595 185.222 184.655 
184.214 183.607 183.067 188.171 187.968 187.879 187.677 187.686 187.356 
187.153 186.518 186.018 185.334 184.811 184.258 183.751 183.166 182.629 
188.275 188.172 188.059 187.968 187.934 187.853 187.681 187.312 186.758 
186.099 185.424 184.82 184.279 183.765 183.261 182.71 182.209 188.341 
188.288 188.238 188.112 188.018 187.931 187.735 187.565 187.076 186.638 
185.934 185.378 184.759 184.265 183.762 183.273 182.775 182.262 181.792 
181.614 181.911 181.429 180.642 182.006 181.579 180.792 180.337 179.465 
182.163 181.63 180.822 180.411 179.657 179.165 178.294 182.486 181.874 
181.015 180.496 179.77 179.34 178.579 178.024 177.114 182.586 182.14 
181.233 180.72 179.882 179.45 178.652 178.211 177.306 176.765 175.809 
182.314 182.052 181.161 180.788 179.883 179.49 178.602 178.198 177.275 
176.826 175.883 175.408 174.559 181.96 181.744 180.965 180.643 179.822 
179.435 178.589 178.151 177.28 176.81 175.958 175.481 174.702 174.255 
173.597 181.628 181.46 180.811 180.532 179.831 179.443 178.681 178.215 
177.418 176.921 176.155 175.661 174.962 174.479 173.851 173.416 172.864 
181.265 181.154 180.576 180.401 179.762 179.472 178.732 178.33 177.538 
177.093 176.338 175.896 175.208 174.768 174.135 173.7 173.111 172.71 
172.159 183.185 183.321 183.562 184.172 183.332 183.648 184.298 184.582 
185.28 183.291 183.641 184.294 184.636 185.322 185.683 186.428 183.145 
183.559 184.215 184.6 185.241 185.622 186.305 186.749 187.454 182.861 
183.318 183.96 184.443 185.08 185.493 186.089 186.518 187.177 187.668 
188.269 182.568 182.986 183.572 184.089 184.727 185.234 185.802 186.243 
186.81 187.314 187.941 188.405 188.821 182.298 182.695 183.233 183.691 
184.291 184.809 185.39 185.875 186.399 186.894 187.454 187.997 188.471 
188.831 188.958 182.004 182.415 182.96 183.38 183.948 184.401 184.991 
185.462 186.037 186.49 187.02 187.489 187.93 188.369 188.575 188.804 
188.712 181.738 182.135 182.701 183.116 183.678 184.091 184.669 185.117 
185.762 186.213 186.822 187.177 187.601 187.885 188.106 188.357 188.395 
188.522 188.417 
POINT_DATA 1002
SCALARS Distance double
LOOKUP_TABLE default
180.487 181.328 180.448 179.511 179.488 179.522 178.437 178.452 178.456 
178.448 177.264 177.292 177.236 177.247 177.226 175.977 176.001 175.919 
175.902 175.943 175.944 174.616 174.674 174.581 174.529 174.592 174.685 
174.77 173.256 173.442 173.227 173.169 173.201 173.341 173.473 173.649 
171.951 172.318 171.865 171.821 171.804 171.927 172.092 172.281 172.536 
170.704 171.222 170.558 170.555 170.518 170.572 170.728 170.941 171.236 
171.57 169.513 170.123 169.344 169.415 169.404 169.365 169.448 169.653 
169.988 170.403 170.808 181.59 180.729 181.91 181.042 182.166 179.748 
181.18 182.166 179.97 178.639 181.096 182.114 179.986 178.77 177.413 
181.099 182.233 179.886 178.766 177.562 176.114 181.19 182.229 179.907 
178.692 177.609 176.33 174.85 181.089 182.003 179.941 178.686 177.506 
176.346 175.099 173.729 180.881 181.83 179.806 178.666 177.449 176.178 
175.061 174.021 172.714 180.741 181.743 179.59 178.478 177.411 176.161 
174.923 174.021 173.077 171.68 180.929 179.698 179.81 178.376 178.574 
178.354 177.024 177.4 176.969 177.247 175.799 176.182 175.644 175.941 
176.191 174.625 174.897 174.419 174.593 174.874 174.898 173.575 173.804 
173.354 173.286 173.455 173.638 173.796 172.758 173.006 172.586 172.347 
172.178 172.305 172.634 172.939 172.032 172.331 171.904 171.721 171.338 
171.1 171.256 171.543 171.683 171.222 171.605 171.01 170.882 170.566 
170.119 169.89 169.907 169.957 170 168.53 168.21 167.105 168.145 
166.619 166.039 168.262 166.49 165.438 165.21 168.514 166.614 165.116 
164.517 164.395 168.934 166.892 165.03 163.949 163.637 163.464 169.359 
167.321 165.261 163.711 162.955 162.752 162.539 169.637 167.799 165.848 
164.104 162.811 162.232 162.115 161.999 169.939 168.295 166.579 164.991 
163.492 162.388 161.982 161.948 161.939 170.404 168.895 167.317 165.924 
164.596 163.303 162.45 162.145 162.064 162.058 168.167 167.068 168.266 
166.12 167.215 168.342 165.144 166.008 167.054 168.211 164.07 164.727 
165.615 166.814 168.162 162.914 163.447 164.31 165.504 166.909 168.343 
162.057 162.334 163.161 164.47 165.908 167.346 168.742 161.866 161.895 
162.413 163.62 165.135 166.579 167.967 169.276 162.077 162.146 162.407 
163.172 164.457 165.881 167.249 168.587 169.797 162.204 162.477 162.525 
163.066 163.123 162.812 163.762 164.02 163.591 163.238 164.675 165.146 
164.389 164.12 164.059 165.856 166.375 165.456 165.128 164.997 165.302 
167.067 167.616 166.695 166.426 166.174 166.218 166.681 168.24 168.862 
167.854 167.726 167.569 167.406 167.6 168.102 169.507 170.097 169.091 
168.96 168.9 168.762 168.776 169.074 169.472 170.807 171.269 170.463 
170.296 170.172 170.034 170.039 170.217 170.432 170.624 162.158 162.213 
162.481 162.624 163.236 162.589 163.617 164.31 163.303 163.477 164.835 
165.499 164.533 164.495 164.665 166.091 166.795 165.764 165.758 165.712 
165.871 167.469 168.096 167.027 166.985 166.922 166.83 167.131 168.82 
169.261 168.414 168.291 168.274 168.098 168.14 168.511 170.04 170.338 
169.765 169.602 169.612 169.562 169.464 169.597 169.863 171.184 171.382 
171.04 170.877 170.804 170.863 170.873 170.841 170.915 171.073 171.358 
169.972 171.015 169.563 170.677 168.381 169.316 170.521 168.047 166.911 
169.27 170.484 167.943 166.722 165.674 169.256 170.469 167.955 166.696 
165.589 164.46 169.319 170.58 168.033 166.786 165.657 164.552 163.391 
169.59 170.811 168.341 167.092 165.895 164.785 163.692 162.732 169.953 
171.065 168.809 167.596 166.312 165.091 163.974 163.004 162.364 172.544 
172.378 173.534 173.411 174.564 172.069 174.506 175.632 173.2 171.809 
175.623 176.759 174.433 173.08 171.708 176.745 177.962 175.594 174.392 
172.981 171.647 177.921 179.104 176.695 175.578 174.27 172.883 171.682 
179.001 180.004 177.845 176.741 175.544 174.187 172.962 171.865 179.857 
180.705 178.905 177.9 176.795 175.52 174.262 173.137 172.054 180.595 