# vtk DataFile Version 4.0
vtk output
ASCII
DATASET POLYDATA
POINTS 1002 float
-107.381 -123.617 76.6553 -108.069 -124.413 76.2786 -107.649 -124.032 75.4322 
-106.765 -123.277 75.9113 -107.038 -123.636 74.6579 -106.462 -122.724 76.9864 
-106.174 -122.691 75.1151 -106.527 -122.979 73.8703 -105.906 -122.216 76.3175 
-105.7 -121.511 77.3319 -105.85 -121.703 74.2316 -106.305 -121.957 73.1062 
-105.539 -121.286 75.5052 -105.305 -120.693 76.6735 -105.152 -119.963 77.7783 
-105.603 -120.52 73.434 -106.139 -120.717 72.5426 -105.176 -120.19 74.5923 
-104.863 -119.696 75.888 -104.58 -119.1 77.1139 -104.335 -118.533 78.3218 
-105.171 -119.335 72.8426 -105.849 -119.428 72.0861 -104.56 -119.194 73.7747 
-104.172 -118.818 75.0348 -103.864 -118.281 76.405 -103.583 -117.773 77.6537 
-103.407 -117.325 78.8294 -104.706 -118.163 72.2868 -105.488 -118.247 71.5571 
-103.942 -118.125 73.1194 -103.478 -117.851 74.2156 -103.215 -117.323 75.6215 
-102.967 -116.814 76.988 -102.84 -116.38 78.1436 -102.828 -115.941 79.2097 
-104.289 -117.08 71.7066 -105.062 -117.212 71.0669 -103.539 -116.956 72.5472 
-103.029 -116.66 73.5279 -102.758 -116.133 74.7701 -102.471 -115.637 76.2018 
-102.265 -115.273 77.4759 -102.247 -114.897 78.5514 -102.274 -114.514 79.5461 
-103.847 -116.049 71.2406 -104.594 -116.203 70.7334 -103.183 -115.826 72.0515 
-102.63 -115.499 72.9909 -102.25 -115.055 74.0142 -101.882 -114.636 75.2857 
-101.518 -114.361 76.6631 -101.378 -114.093 77.8881 -101.399 -113.756 78.9708 
-101.46 -113.46 79.9273 -103.449 -114.987 70.9298 -104.176 -115.184 70.4963 
-102.862 -114.689 71.6794 -102.257 -114.371 72.5683 -101.687 -114.1 73.4389 
-101.226 -113.857 74.4598 -100.809 -113.658 75.7386 -100.541 -113.477 77.0602 
-100.489 -113.223 78.2868 -100.542 -112.934 79.397 -100.699 -112.695 80.3014 
-108.461 -124.896 75.2111 -108.109 -124.46 74.3613 -109.066 -125.319 74.1205 
-108.82 -124.754 73.4423 -109.965 -125.588 73.2441 -107.602 -123.942 73.6437 
-109.786 -124.775 72.611 -110.916 -125.581 72.3246 -108.494 -123.977 72.7573 
-107.185 -123.172 72.8837 -110.674 -124.646 71.5055 -111.792 -125.326 71.1748 
-109.522 -123.82 71.7845 -108.125 -123.102 71.9617 -106.94 -122.121 72.2044 
-111.487 -124.453 70.3681 -112.853 -124.81 70.2616 -110.362 -123.747 70.6843 
-109.117 -122.943 71.0377 -107.741 -122.095 71.3495 -106.715 -120.842 71.7329 
-112.558 -123.912 69.6546 -114.061 -124.043 69.7615 -111.202 -123.505 69.8051 
-110.038 -122.716 70.2115 -108.707 -121.862 70.5602 -107.428 -120.848 70.8876 
-106.464 -119.502 71.273 -113.705 -123.116 69.1209 -115.016 -123.334 69.2187 
-112.243 -122.825 69.1226 -110.963 -122.202 69.4343 -109.738 -121.41 69.7856 
-108.381 -120.637 70.0458 -107.199 -119.572 70.4346 -106.168 -118.288 70.8301 
-114.552 -122.49 68.4678 -115.656 -122.856 68.4598 -113.193 -122.129 68.4141 
-111.827 -121.619 68.5677 -110.605 -120.949 68.8844 -109.331 -120.325 69.164 
-108.081 -119.534 69.5959 -106.976 -118.35 70.1844 -105.803 -117.145 70.5635 
-115.137 -122.018 67.8279 -116.195 -122.412 67.7416 -113.871 -121.654 67.7547 
-112.523 -121.24 67.7454 -111.283 -120.672 67.9599 -110.072 -120.075 68.2691 
-108.876 -119.411 68.7298 -107.841 -118.366 69.4769 -106.745 -117.083 70.1387 
-105.419 -116.008 70.3974 -116.056 -121.517 67.3321 -114.772 -121.173 67.2813 
-115.753 -120.383 67.0075 -114.33 -120.164 66.6745 -115.372 -119.216 66.5539 
-113.366 -120.892 67.0881 -113.933 -118.985 66.0624 -114.952 -118.066 66.1351 
-112.921 -119.873 66.4315 -112.044 -120.437 67.1185 -113.437 -117.569 65.8947 
-114.355 -116.698 66.1379 -112.509 -118.424 66.0737 -111.634 -119.21 66.6673 
-110.793 -119.773 67.4329 -112.722 -115.917 66.2391 -113.614 -115.124 66.4951 
-111.845 -116.742 66.2315 -111.093 -117.558 66.5646 -110.291 -118.408 67.1681 
-109.523 -119.067 67.9162 -112.065 -114.337 66.7572 -112.956 -113.791 67.0819 
-111.095 -115.1 66.6399 -110.341 -115.934 66.7656 -109.719 -116.801 67.215 
-109.09 -117.587 67.9298 -108.479 -118.094 68.7435 -111.592 -113.153 67.5563 
-112.386 -112.811 67.9847 -110.624 -113.667 67.2803 -109.774 -114.399 67.2635 
-109.191 -115.245 67.6239 -108.732 -115.975 68.2793 -108.199 -116.44 69.0229 
-107.5 -116.761 69.6769 -111.103 -112.116 68.6143 -111.794 -111.775 68.9526 
-110.253 -112.453 68.2976 -109.428 -112.905 68.1485 -108.796 -113.586 68.3847 
-108.297 -114.331 68.9022 -107.731 -114.839 69.3966 -106.968 -115.156 69.8024 
-106.116 -115.536 70.1376 -110.538 -110.837 69.4569 -111.198 -110.493 69.6212 
-109.75 -111.171 69.2779 -108.962 -111.478 69.1031 -108.295 -111.895 69.1578 
-107.678 -112.526 69.4819 -106.954 -113.194 69.7412 -106.099 -113.701 69.8317 
-105.249 -114.137 69.966 -104.583 -114.644 70.2064 -103.34 -113.982 70.5196 
-103.583 -113.392 70.1082 -102.716 -112.516 70.7546 -104.087 -112.781 69.8321 
-102.782 -111.844 70.2098 -102.193 -110.863 71.11 -104.924 -112.077 69.8128 
-103.111 -110.997 69.826 -102.164 -110 70.4376 -101.455 -109.242 71.2927 
-105.935 -111.28 69.857 -103.911 -109.982 69.7391 -102.478 -108.893 69.9606 
-101.517 -108.175 70.5999 -100.646 -107.727 71.3391 -106.847 -110.596 69.7241 
-104.982 -109.12 69.7362 -103.309 -107.814 69.811 -102.077 -107.013 70.2604 
-101.04 -106.582 70.8713 -100.31 -106.207 71.6637 -107.636 -110.166 69.6449 
-106.036 -108.623 69.7386 -104.438 -107.118 69.7933 -103.104 -106.063 70.1831 
-101.962 -105.511 70.7435 -101.043 -105.107 71.441 -100.43 -104.735 72.3197 
-108.478 -109.855 69.7749 -107.068 -108.33 69.9291 -105.663 -106.784 69.9448 
-104.381 -105.469 70.1483 -103.203 -104.622 70.5831 -102.145 -104.121 71.2336 
-101.289 -103.769 72.0858 -100.598 -103.571 72.9774 -109.374 -109.529 69.8956 
-108.102 -108.083 70.168 -106.846 -106.672 70.3256 -105.675 -105.29 70.3917 
-104.539 -104.098 70.4852 -103.422 -103.34 70.9124 -102.405 -102.964 71.7361 
-101.53 -102.816 72.6749 -100.819 -102.815 73.5426 -110.188 -109.236 69.9558 
-109.049 -107.911 70.2811 -107.872 -106.706 70.6737 -106.768 -105.483 70.9219 
-105.732 -104.137 70.8639 -104.692 -103.044 70.9388 -103.658 -102.49 71.5553 
-102.692 -102.301 72.4648 -101.87 -102.257 73.3346 -101.274 -102.299 74.1453 
-102.779 -113.577 71.2088 -102.265 -111.923 71.6562 -102.193 -113.153 72.0987 
-101.608 -110.308 72.0107 -101.543 -111.532 72.5175 -101.433 -112.928 72.9346 
-100.707 -108.843 72.1227 -100.836 -110.008 72.8424 -100.754 -111.412 73.3294 
-100.787 -112.84 73.8165 -100.046 -107.326 72.2728 -100.157 -108.508 73.1358 
-100.294 -109.763 73.8675 -100.272 -111.26 74.4026 -100.361 -112.698 74.99 
-99.9005 -105.707 72.7442 -99.6828 -106.923 73.4834 -99.7276 -108.176 74.3923 
-99.8722 -109.478 75.123 -99.9417 -111.049 75.6817 -100.06 -112.533 76.3301 
-99.9258 -104.296 73.3917 -99.4325 -105.341 73.9492 -99.1346 -106.7 74.7785 
-99.1679 -108.052 75.6667 -99.4944 -109.391 76.3414 -99.7317 -110.958 76.9557 
-99.9329 -112.368 77.6627 -100.031 -103.337 74.0079 -99.3921 -104.051 74.5371 
-98.9356 -105.191 75.2431 -98.7437 -106.702 76.1204 -98.9919 -108.111 76.9116 
-99.4486 -109.436 77.5724 -99.6933 -110.91 78.2871 -99.9366 -112.166 78.961 
-100.464 -102.729 74.6169 -99.7346 -103.234 75.186 -99.2068 -103.949 75.8639 
-98.9478 -105.167 76.6819 -98.978 -106.7 77.5048 -99.2689 -108.077 78.2066 
-99.5673 -109.41 78.8994 -99.7407 -110.82 79.5883 -100.059 -111.96 80.0725 
-101.49 -102.049 75.1661 -100.729 -102.575 75.7497 -101.944 -101.851 76.4037 
-101.214 -102.554 77.0386 -102.387 -101.839 77.6649 -99.9924 -103.117 76.4333 
-101.59 -102.678 78.2737 -102.759 -101.981 78.7954 -100.384 -103.175 77.7515 
-99.5069 -103.834 77.2296 -101.978 -102.815 79.5048 -103.274 -102.229 79.8934 
-100.703 -103.334 79.0404 -99.8538 -103.885 78.5877 -99.3546 -105.073 78.0938 
-102.646 -103.035 80.7932 -103.859 -102.669 81.0559 -101.344 -103.505 80.4025 
-100.262 -104.092 79.9169 -99.6824 -105.099 79.4395 -99.3883 -106.609 78.8793 
-103.268 -103.421 81.986 -104.31 -103.13 82.284 -102.249 -103.835 81.6463 
-101.147 -104.487 81.2098 -100.173 -105.412 80.7004 -99.6667 -106.657 80.185 
-99.5365 -108.08 79.5894 -103.714 -103.789 83.129 -104.787 -103.46 83.4787 
-102.813 -104.277 82.7058 -102.025 -105.018 82.2943 -101.12 -105.948 81.8128 
-100.324 -106.99 81.2837 -99.9138 -108.226 80.7961 -99.7643 -109.578 80.2553 
-104.32 -104.224 84.1659 -105.435 -103.952 84.3533 -103.25 -104.707 83.8083 
-102.47 -105.484 83.362 -101.905 -106.424 82.8246 -101.367 -107.363 82.1894 
-100.861 -108.441 81.6337 -100.409 -109.738 81.2127 -100.095 -110.986 80.7271 
-105.119 -104.976 84.8115 -106.134 -104.79 84.784 -103.988 -105.301 84.7453 
-103.003 -105.934 84.4709 -102.402 -106.811 83.9201 -102.125 -107.691 83.1539 
-101.899 -108.622 82.3987 -101.486 -109.8 81.8535 -100.952 -111.041 81.4399 
-100.632 -112.016 80.9431 -102.232 -101.787 74.3835 -102.499 -101.368 75.497 
-103.371 -101.316 74.7824 -103.569 -100.713 75.8444 -104.749 -100.855 75.1602 
-102.859 -101.068 76.8035 -104.986 -100.161 76.08 -106.257 -100.455 75.4393 
-103.817 -100.433 77.1569 -103.244 -101.092 78.1121 -106.666 -99.8303 76.3736 
-107.509 -100.453 75.8596 -105.349 -100.022 77.4701 -104.313 -100.6 78.5668 
-103.81 -101.344 79.2279 -108.05 -99.9843 76.9118 -108.535 -100.918 76.4297 
-107.172 -99.8066 77.8843 -105.961 -100.303 79.0341 -105.1 -100.972 79.7081 
-104.516 -101.806 80.2439 -109.191 -100.547 77.4326 -109.667 -101.508 76.8245 
-108.626 -99.9657 78.3135 -107.669 -100.142 79.4171 -106.605 -100.796 80.1859 
-105.794 -101.599 80.6636 -105.057 -102.443 81.4092 -110.335 -101.276 77.7474 
-110.729 -102.189 77.0445 -109.848 -100.541 78.599 -109.103 -100.362 79.614 
-108.084 -100.844 80.5231 -107.091 -101.591 81.1326 -106.256 -102.305 81.8303 
-105.489 -102.918 82.7406 -111.279 -102.17 78.0136 -111.505 -103.053 77.3128 
-110.922 -101.43 78.8227 -110.368 -101.042 79.7381 -109.564 -101.209 80.7325 
-108.575 -101.743 81.5826 -107.592 -102.283 82.3006 -106.744 -102.769 83.1171 
-106.039 -103.311 83.8764 -112.013 -103.116 78.2918 -112.179 -103.897 77.6314 
-111.726 -102.469 79.035 -111.311 -102.037 79.8654 -110.801 -101.892 80.8769 
[...]
CELL_DATA 2000
SCALARS Distance double
LOOKUP_TABLE default
180.039 179.126 179.469 179.155 178.084 178.483 178.167 178.496 178.086 
176.926 177.346 176.991 177.413 177.007 177.352 176.903 175.718 176.119 
175.697 176.149 175.731 176.167 175.714 176.105 175.667 174.471 174.857 
174.365 174.805 174.359 174.833 174.4 174.845 174.416 174.847 174.471 
173.207 173.567 173.032 173.445 172.963 173.437 173.01 173.499 173.093 
173.565 173.193 173.668 173.344 171.995 172.307 171.76 172.124 171.622 
172.048 171.597 172.085 171.674 172.193 171.82 172.347 172.012 172.533 
172.22 170.852 171.123 170.566 170.892 170.381 170.748 170.27 170.694 
170.264 170.758 170.394 170.937 170.629 171.176 170.896 171.418 171.157 
169.773 170.004 169.443 169.735 169.223 169.544 169.053 169.413 168.976 
169.404 169.057 169.554 169.294 169.826 169.616 170.138 169.949 170.445 
170.28 180.344 180.494 180.097 179.449 180.77 180.292 179.618 179.173 
178.451 181.049 180.587 179.856 179.366 178.6 178.13 177.343 181.09 
180.746 179.988 179.561 178.756 178.285 177.472 177.001 176.183 181.014 
180.692 179.975 179.615 178.847 178.415 177.602 177.13 176.298 175.823 
174.973 181.013 180.653 179.956 179.6 178.886 178.493 177.708 177.249 
176.408 175.928 175.068 174.588 173.726 180.986 180.66 179.923 179.581 
178.833 178.494 177.713 177.32 176.486 176.032 175.186 174.702 173.856 
173.361 172.529 180.843 180.574 179.818 179.493 178.692 178.375 177.578 
177.256 176.457 176.08 175.288 174.848 174.06 173.552 172.735 172.208 
171.403 180.637 180.397 179.661 179.35 178.55 178.216 177.429 177.108 
176.355 176.027 175.3 174.939 174.229 173.791 173.035 172.487 171.669 
171.113 170.33 180.281 179.306 179.643 179.263 178.154 178.553 178.169 
178.542 178.14 176.934 177.335 176.943 177.378 177.011 177.4 177.023 
175.662 176.069 175.618 176.09 175.728 176.213 175.869 176.289 175.942 
174.292 174.718 174.2 174.692 174.274 174.837 174.503 175.049 174.734 
175.206 174.893 173.047 173.356 172.827 173.245 172.807 173.345 173.033 
173.628 173.389 173.948 173.704 174.176 173.873 172.21 172.315 171.811 
172.014 171.603 171.978 171.733 172.25 172.117 172.66 172.497 172.981 
172.696 173.116 172.716 171.574 171.645 171.149 171.21 170.77 170.96 
170.698 171.096 170.985 171.489 171.327 171.793 171.446 171.865 171.381 
171.813 171.314 170.749 170.943 170.417 170.551 170.019 170.177 169.754 
170.084 169.809 170.312 170.021 170.533 170.06 170.507 169.914 170.369 
169.818 170.331 169.905 169.042 168.814 168.465 167.683 168.793 168.244 
167.259 167.048 166.34 168.92 168.246 167.027 166.589 165.661 165.624 
164.929 168.983 168.353 167.01 166.357 165.169 164.91 164.069 164.125 
163.442 168.923 168.387 167.109 166.362 165.047 164.507 163.55 163.369 
162.697 162.713 162.189 168.977 168.421 167.31 166.534 165.28 164.541 
163.546 163.095 162.448 162.229 161.772 161.715 161.402 169.275 168.656 
167.684 166.893 165.785 164.947 163.975 163.312 162.628 162.213 161.747 
161.524 161.206 161.141 160.947 169.659 169.049 168.153 167.406 166.45 
165.62 164.737 163.93 163.194 162.554 162.007 161.614 161.261 161.076 
160.883 160.819 160.737 169.992 169.429 168.594 167.928 167.11 166.379 
165.646 164.834 164.134 163.302 162.695 162.04 161.668 161.282 161.137 
160.923 160.9 160.778 160.837 168.988 167.714 168.442 168.666 166.457 
167.195 167.421 168.164 168.429 165.108 165.919 166.137 166.901 167.14 
167.926 168.228 163.643 164.505 164.773 165.594 165.857 166.64 166.968 
167.771 168.159 162.352 163.077 163.412 164.246 164.621 165.411 165.804 
166.579 167.031 167.809 168.279 161.489 161.965 162.263 162.984 163.421 
164.224 164.677 165.466 165.951 166.741 167.27 168.03 168.549 160.974 
161.254 161.425 161.957 162.323 163.066 163.539 164.346 164.861 165.676 
166.252 167.055 167.646 168.38 168.915 160.738 160.846 160.937 161.235 
161.508 162.064 162.551 163.284 163.89 164.66 165.311 166.088 166.76 
167.515 168.13 168.797 169.309 160.839 160.78 160.897 160.946 161.193 
161.457 161.938 162.476 163.161 163.842 164.57 165.269 165.976 166.69 
167.364 168.05 168.631 169.223 169.698 161.066 161.657 161.258 161.148 
162.488 161.997 161.864 161.414 161.411 163.36 162.881 162.76 162.234 
162.184 161.811 162.074 164.285 163.771 163.667 163.136 163.084 162.658 
162.905 162.693 163.243 165.408 164.8 164.749 164.131 164.114 163.599 
163.828 163.56 164.092 163.987 164.633 166.596 165.991 165.996 165.362 
165.426 164.795 165.006 164.554 165.021 164.826 165.459 165.371 166.015 
167.699 167.134 167.131 166.599 166.726 166.187 166.427 165.877 166.251 
165.848 166.411 166.216 166.875 166.762 167.397 168.823 168.234 168.229 
167.692 167.827 167.394 167.677 167.248 167.592 167.144 167.593 167.263 
167.857 167.664 168.286 168.132 168.681 170.011 169.42 169.465 168.862 
168.997 168.499 168.783 168.394 168.753 168.379 168.773 168.434 168.923 
168.676 169.223 169.026 169.522 169.331 169.756 161.201 161.653 161.47 
161.735 162.255 161.937 162.09 162.072 162.485 163.019 162.56 162.585 
162.434 162.799 162.868 163.351 163.977 163.408 163.44 163.076 163.413 
163.288 163.801 163.794 164.318 165.128 164.495 164.605 164.118 164.479 
164.138 164.632 164.421 164.977 164.881 165.456 166.397 165.753 165.873 
165.357 165.698 165.307 165.749 165.416 165.902 165.675 166.238 166.115 
166.673 167.667 167.062 167.181 166.636 166.92 166.498 166.905 166.548 
166.988 166.676 167.171 166.96 167.5 167.336 167.824 168.879 168.333 
168.496 167.949 168.219 167.735 168.142 167.734 168.209 167.821 168.29 
167.952 168.437 168.196 168.688 168.48 168.944 170.021 169.535 169.729 
169.236 169.502 169.032 169.419 169.012 169.505 169.11 169.584 169.153 
169.573 169.195 169.634 169.367 169.836 169.62 170.089 169.915 169.46 
169.293 168.535 169.272 168.939 168.16 167.923 167.165 169.216 168.844 
168.04 167.69 166.919 166.631 165.843 169.049 168.736 167.899 167.575 
166.747 166.441 165.592 165.282 164.385 168.954 168.574 167.767 167.405 
166.582 166.248 165.401 165.051 164.145 163.788 162.931 169.144 168.648 
167.932 167.43 166.705 166.218 165.499 165.016 164.277 163.756 163.006 
162.537 161.929 169.444 168.95 168.279 167.757 167.083 166.533 165.877 
165.329 164.726 164.156 163.561 162.932 162.361 161.826 161.42 169.71 
169.246 168.576 168.103 167.419 166.922 166.212 165.718 165.054 164.609 
164.019 163.541 162.963 162.413 161.91 161.452 161.145 170.01 169.531 
168.886 168.394 167.722 167.219 166.499 165.989 165.262 164.82 164.167 
163.811 163.231 162.862 162.345 161.943 161.57 161.23 161.044 170.656 
171.607 170.828 170.255 172.611 171.83 171.326 170.529 170.067 173.708 
172.896 172.426 171.637 171.215 170.442 170.019 174.865 174.051 173.593 
172.78 172.362 171.585 171.152 170.359 169.869 175.946 175.203 174.785 
173.989 173.571 172.756 172.308 171.48 170.993 170.175 169.735 176.915 
176.237 175.862 175.154 174.783 173.996 173.548 172.675 172.19 171.335 
170.932 170.149 169.864 177.855 177.198 176.838 176.182 175.86 175.169 
174.776 173.942 173.454 172.575 172.169 171.38 171.103 170.369 170.144 
178.76 178.15 177.81 177.156 176.836 176.196 175.864 175.134 174.692 
173.846 173.41 172.613 172.314 171.594 171.355 170.639 170.403 179.554 
179.035 178.738 178.124 177.79 177.156 176.828 176.175 175.801 175.048 
174.627 173.835 173.494 172.77 172.522 171.827 171.593 170.886 170.672 
179.871 180.116 179.711 179.098 180.366 179.944 179.299 178.857 178.163 
180.618 180.181 179.491 179.03 178.29 177.865 177.164 180.831 180.403 
179.675 179.201 178.419 177.969 177.225 176.844 176.134 180.969 180.567 
179.833 179.369 178.583 178.107 177.342 176.91 176.167 175.772 175.018 
181.085 180.69 179.985 179.53 178.772 178.288 177.521 177.051 176.287 
175.836 175.067 174.644 173.911 181.209 180.829 180.161 179.712 178.972 
178.487 177.706 177.225 176.429 175.962 175.171 174.726 173.981 173.588 
172.922 181.243 180.931 180.266 179.876 179.126 178.67 177.864 177.385 
176.561 176.087 175.276 174.827 174.066 173.664 172.974 172.624 171.99 
181.107 180.881 180.208 179.905 179.156 178.767 177.966 177.52 176.708 
176.229 175.423 174.943 174.173 173.745 173.042 172.672 172.023 171.69 
171.079 180.766 179.964 180.202 179.87 179.182 179.378 178.966 179.221 
178.809 178.28 178.533 178.039 178.276 177.812 178.09 177.636 177.109 
177.498 177.011 177.3 176.811 177.086 176.619 176.891 176.41 175.782 
176.242 175.814 176.194 175.717 176.046 175.554 175.852 175.335 175.621 
175.112 174.439 174.905 174.488 174.937 174.474 174.874 174.36 174.711 
174.151 174.477 173.931 174.281 173.82 173.109 173.543 173.08 173.56 
173.109 173.575 173.094 173.479 172.931 173.252 172.703 173.056 172.605 
173.019 172.668 171.882 172.226 171.719 172.139 171.689 172.179 171.766 
172.215 171.739 172.069 171.541 171.854 171.405 171.803 171.468 171.92 
171.644 170.814 171.074 170.565 170.866 170.403 170.805 170.414 170.885 
170.475 170.88 170.385 170.715 170.242 170.619 170.266 170.717 170.447 
170.922 170.69 181.143 181.41 180.96 180.345 181.62 181.202 180.614 
180.208 179.631 181.798 181.411 180.853 180.474 179.912 179.476 178.774 
182.023 181.656 181.12 180.703 180.068 179.655 178.869 178.424 177.542 
182.197 181.935 181.414 180.966 180.194 179.712 178.801 178.37 177.418 
177.034 176.142 182.041 181.992 181.472 181.156 180.29 179.776 178.759 
178.266 177.291 176.875 175.981 175.632 174.806 181.513 181.61 181.092 
181.003 180.17 179.772 178.73 178.232 177.24 176.793 175.896 175.501 
174.663 174.318 173.518 180.886 180.962 180.456 180.49 179.795 179.564 
178.609 178.173 177.159 176.724 175.784 175.404 174.533 174.187 173.379 
173.055 172.302 180.378 180.359 179.855 179.876 179.305 179.19 178.395 
178.045 177.069 176.618 175.639 175.24 174.348 174.022 173.22 172.922 
172.183 171.888 171.207 181.759 182.894 182.274 182.108 184.031 183.508 
183.421 182.641 182.361 184.956 184.625 184.698 184.018 183.702 182.825 
182.471 185.688 185.466 185.656 185.219 184.992 184.156 183.635 182.826 
182.52 186.268 186.105 186.29 186.063 186.002 185.369 184.853 183.955 
183.413 182.786 182.551 186.558 186.497 186.581 186.538 186.569 186.26 
185.921 185.147 184.52 183.683 183.201 182.695 182.391 186.655 186.618 
186.609 186.634 186.618 186.596 186.385 186.019 185.48 184.754 184.116 
183.4 182.895 182.391 181.945 186.787 186.709 186.679 186.616 186.53 
186.507 186.287 186.187 185.739 185.397 184.776 184.221 183.601 182.992 
182.44 181.896 181.389 186.883 186.847 186.81 186.721 186.607 186.48 
186.238 186.069 185.655 185.425 184.882 184.575 184.003 183.585 183.021 
182.485 181.939 181.387 180.903 186.837 186.545 186.755 186.764 185.977 
186.31 186.378 186.622 186.554 185.424 185.669 185.745 186.121 186.151 
186.34 186.152 185.139 185.194 185.173 185.478 185.568 185.864 185.7 
185.798 185.469 184.869 184.933 184.737 184.921 184.89 185.231 185.087 
185.259 184.852 184.964 184.607 184.23 184.503 184.201 184.371 184.105 
184.44 184.235 184.541 184.152 184.292 183.864 184.067 183.771 183.231 
183.689 183.426 183.665 183.263 183.534 183.224 183.591 183.271 183.525 
183.123 183.322 182.985 183.23 182.899 182.11 182.63 182.434 182.772 
182.363 182.616 182.235 182.574 182.287 182.617 182.282 182.533 182.173 
182.426 182.071 182.299 181.875 181.037 181.522 181.331 181.723 181.339 
181.641 181.244 181.585 181.299 181.661 181.37 181.659 181.303 181.566 
181.201 181.453 181.061 181.255 180.836 180.441 179.49 180.207 180.612 
178.39 179.135 179.476 180.236 180.572 177.261 178.013 178.372 179.089 
179.455 180.178 180.548 176.095 176.891 177.323 178.051 178.469 179.156 
179.588 180.258 180.668 174.916 175.719 176.169 176.977 177.407 178.171 
178.58 179.311 179.702 180.39 180.729 173.791 174.56 174.975 175.781 
176.182 177.001 177.38 178.195 178.558 179.335 179.664 180.37 180.654 
172.669 173.429 173.828 174.605 174.998 175.77 176.157 176.948 177.354 
178.149 178.538 179.276 179.607 180.279 180.563 171.587 172.297 172.691 
173.461 173.877 174.638 175.041 175.789 176.207 176.981 177.415 178.176 
178.556 179.248 179.547 180.189 180.434 170.687 171.282 171.659 172.357 
172.787 173.538 173.963 174.706 175.101 175.854 176.252 177.038 177.428 
178.185 178.511 179.18 179.431 180.043 180.25 179.98 179.16 179.501 
179.396 178.2 178.599 178.434 178.889 178.778 177.062 177.509 177.261 
177.788 177.599 178.133 177.866 175.874 176.295 175.987 176.506 176.268 
176.833 176.514 177.013 176.566 174.737 175.113 174.776 175.229 174.963 
175.483 175.155 175.622 175.145 175.591 175.114 173.59 173.97 173.579 
174.008 173.667 174.169 173.809 174.277 173.794 174.196 173.697 174.169 
173.803 172.415 172.792 172.354 172.761 172.316 172.792 172.342 172.858 
172.362 172.831 172.324 172.787 172.4 172.943 172.686 171.314 171.638 
171.205 171.543 171.062 171.428 170.92 171.359 170.861 171.349 170.868 
171.374 170.969 171.531 171.253 171.865 171.66 170.367 170.617 170.196 
170.46 169.983 170.247 169.734 170.042 169.571 169.951 169.527 169.956 
169.572 170.078 169.788 170.401 170.213 170.86 170.702 181.256 181.493 
181.666 182.236 181.684 181.922 182.564 182.705 183.31 181.728 182.072 
182.803 183.057 183.752 183.864 184.457 181.719 182.072 182.81 183.197 
183.955 184.256 184.89 184.979 185.377 181.784 182.091 182.757 183.123 
183.821 184.265 184.932 185.256 185.665 185.697 185.828 181.715 182.105 
182.723 183.067 183.674 184.061 184.692 185.118 185.616 185.839 186.015 
185.971 185.999 181.402 181.884 182.516 182.964 183.602 183.968 184.566 
184.903 185.401 185.688 185.962 186.067 186.142 186.118 186.213 181.118 
181.547 182.215 182.701 183.425 183.877 184.508 184.831 185.234 185.466 
185.67 185.879 185.991 186.15 186.269 186.357 186.52 180.963 181.341 
182.002 182.448 183.157 183.647 184.262 184.671 185.004 185.244 185.315 
185.508 185.562 185.837 186.007 186.281 186.486 186.638 186.779 181.307 
182.288 181.77 181.703 183.331 182.778 182.743 182.186 182.04 184.427 
183.857 183.805 183.244 183.11 182.463 182.12 185.314 184.887 184.826 
184.314 184.17 183.527 183.162 182.402 181.867 185.764 185.571 185.565 
185.248 185.148 184.582 184.212 183.434 182.86 182.053 181.475 185.972 
185.88 185.959 185.837 185.836 185.464 185.139 184.452 183.857 183.043 
182.413 181.653 181.139 186.253 186.131 186.258 186.177 186.229 186.009 
185.728 185.229 184.648 183.963 183.309 182.574 181.994 181.318 180.869 
186.596 186.473 186.578 186.486 186.505 186.329 186.048 185.666 185.111 
184.592 183.977 183.379 182.788 182.138 181.616 181.022 180.615 186.826 
186.761 186.793 186.734 186.689 186.553 186.273 185.944 185.427 184.976 
184.418 183.938 183.402 182.85 182.31 181.726 181.255 180.737 180.364 
180.71 181.067 180.536 179.771 181.337 180.847 180.038 179.492 178.629 
181.346 180.985 180.143 179.685 178.809 178.298 177.422 181.065 180.825 
179.962 179.64 178.761 178.388 177.525 177.071 176.174 180.717 180.493 
179.657 179.366 178.487 178.204 177.368 177.063 176.19 175.756 174.817 
180.471 180.227 179.492 179.146 178.33 177.962 177.173 176.862 176.087 
175.721 174.868 174.398 173.563 180.284 180.065 179.436 179.106 178.399 
177.968 177.246 176.818 176.132 175.711 174.992 174.515 173.784 173.303 
172.682 180.083 179.904 179.322 179.072 178.421 178.078 177.391 176.99 
176.31 175.879 175.186 174.719 174.016 173.559 172.925 172.529 171.986 
179.862 179.703 179.12 178.917 178.263 178.017 177.327 177.045 176.342 
176.009 175.275 174.882 174.128 173.729 173.024 172.677 172.041 171.745 
171.139 181.733 181.864 182.126 182.773 181.824 182.166 182.783 183.127 
183.773 181.735 182.093 182.719 183.067 183.681 184.043 184.633 181.64 
182.011 182.671 183.021 183.675 183.988 184.608 184.893 185.437 181.467 
181.874 182.507 182.934 183.62 184.011 184.696 184.981 185.569 185.741 
186.155 181.207 181.627 182.201 182.675 183.325 183.844 184.541 185.001 
185.608 185.89 186.281 186.373 186.548 180.923 181.326 181.875 182.33 
182.945 183.467 184.12 184.676 185.279 185.751 186.166 186.413 186.587 
186.629 186.677 180.647 181.033 181.571 182.009 182.612 183.093 183.699 
184.205 184.775 185.294 185.779 186.178 186.464 186.626 186.73 186.739 
186.795 180.374 180.747 181.254 181.693 182.277 182.758 183.343 183.804 
184.342 184.809 185.335 185.786 186.208 186.486 186.688 186.77 186.831 
186.847 186.875 
POINT_DATA 1002
SCALARS Distance double
LOOKUP_TABLE default
179.798 180.593 179.728 178.885 178.769 178.784 177.797 177.687 177.822 
177.655 176.557 176.536 176.623 176.58 176.475 175.266 175.354 175.272 
175.302 175.262 175.267 173.951 174.11 173.879 173.928 173.974 174.014 
174.135 172.642 172.87 172.505 172.507 172.599 172.709 172.859 173.041 
171.412 171.706 171.227 171.136 171.153 171.276 171.478 171.702 171.919 
170.251 170.6 170.038 169.882 169.795 169.849 170.06 170.351 170.635 
170.918 169.161 169.558 168.918 168.716 168.565 168.571 168.756 169.07 
169.43 169.783 170.14 180.713 179.853 180.918 180.106 181.289 178.898 
180.368 181.493 179.097 177.808 180.379 181.4 179.221 177.952 176.661 
180.3 181.346 179.248 178.075 176.781 175.456 180.315 181.382 179.256 
178.157 176.894 175.551 174.201 180.285 181.294 179.173 178.073 176.913 
175.653 174.357 173.014 180.146 181.09 179.024 177.88 176.784 175.678 
174.538 173.289 171.906 179.958 180.866 178.881 177.746 176.663 175.62 
174.604 173.549 172.27 170.834 180.023 178.951 178.947 177.764 177.753 
177.795 176.49 176.56 176.578 176.662 175.161 175.266 175.206 175.402 
175.544 173.73 173.881 173.713 173.907 174.203 174.456 172.459 172.803 
172.295 172.417 172.778 173.189 173.47 171.685 172.144 171.292 171.226 
171.561 172.017 172.29 172.333 171.11 171.47 170.657 170.366 170.508 
170.893 171.075 170.975 170.839 170.254 170.525 169.89 169.515 169.385 
169.542 169.634 169.474 169.294 169.323 168.246 167.827 166.979 167.613 
166.34 165.706 167.654 165.817 164.829 164.256 167.777 165.605 164.088 
163.293 162.781 167.847 165.708 163.834 162.732 162.07 161.72 168.034 
166.051 164.084 162.724 161.892 161.361 161.129 168.423 166.598 164.71 
163.134 162.03 161.324 160.938 160.78 168.837 167.201 165.556 163.949 
162.503 161.493 160.971 160.744 160.691 169.199 167.748 166.384 165 
163.455 162.128 161.387 161.057 160.901 160.923 167.92 166.689 167.657 
165.366 166.36 167.407 163.895 165.059 166.156 167.344 162.559 163.786 
165.022 166.239 167.513 161.622 162.613 163.869 165.143 166.475 167.825 
161.016 161.641 162.721 164.03 165.414 166.87 168.247 160.747 161.053 
161.834 163.104 164.538 165.985 167.43 168.716 160.907 161.041 161.489 
162.496 163.89 165.287 166.659 168.008 169.172 161.371 161.499 162.107 
162.391 162.97 161.707 163.287 163.828 162.607 162.241 164.201 164.829 
163.519 163.131 163.348 165.373 166.026 164.676 164.15 164.206 164.727 
166.577 167.188 166.041 165.563 165.31 165.55 166.103 167.64 168.272 
167.18 166.959 166.761 166.687 166.999 167.527 168.792 169.406 168.257 
168.045 168.029 167.989 168.105 168.47 168.864 170.065 170.563 169.54 
169.197 169.11 169.122 169.211 169.457 169.745 169.957 161.311 161.731 
161.92 162.163 162.686 162.382 162.837 163.538 162.762 163.257 163.854 
164.541 163.635 163.847 164.301 165.094 165.751 164.871 164.937 165.117 
165.515 166.416 167.026 166.11 166.118 166.196 166.396 166.807 167.746 
168.232 167.384 167.269 167.333 167.44 167.68 168.015 169.023 169.384 
168.72 168.555 168.604 168.694 168.739 168.895 169.155 170.2 170.48 
169.966 169.822 169.88 170.034 170.028 169.955 170.054 170.3 170.022 
168.659 169.702 168.459 169.659 167.365 168.415 169.576 167.248 166.148 
168.22 169.355 167.065 165.931 164.7 168.151 169.359 166.934 165.75 
164.526 163.212 168.439 169.638 167.21 165.974 164.777 163.533 162.275 
168.778 169.92 167.625 166.419 165.241 164.163 162.991 161.821 169.044 
170.169 167.91 166.724 165.496 164.426 163.472 162.432 161.482 171.423 
171.043 172.357 172.093 173.386 170.844 173.211 174.53 171.978 170.826 
174.415 175.652 173.156 171.955 170.679 175.544 176.646 174.4 173.161 
171.81 170.494 176.524 177.579 175.523 174.43 173.057 171.706 170.598 
177.493 178.496 176.502 175.558 174.344 172.967 171.839 170.876 178.463 
179.324 177.477 176.533 175.503 174.232 173.035 172.069 171.122 179.32 
180.02 178.435 177.461 176.492 175.411 174.241 173.208 172.291 171.367 