# vtk DataFile Version 4.0
vtk output
ASCII
DATASET POLYDATA
POINTS 1002 float
-106.067 -122.843 76.7759 -106.896 -123.649 76.1713 -106.258 -123.437 75.6222 
-105.343 -122.57 76.3028 -105.613 -123.09 74.9981 -105.177 -121.933 77.3549 
-104.669 -122.084 75.6522 -105.02 -122.481 74.3526 -104.387 -121.534 76.8895 
-104.331 -120.765 77.9102 -104.083 -121.286 74.8826 -104.499 -121.572 73.6858 
-103.724 -120.837 76.1621 -103.533 -120.174 77.409 -103.535 -119.434 78.519 
-103.558 -120.265 74.1416 -104.04 -120.478 73.0124 -103.157 -119.87 75.3379 
-102.883 -119.3 76.6584 -102.745 -118.703 77.9714 -102.707 -118.146 79.1261 
-103.078 -119.183 73.5068 -103.658 -119.312 72.4488 -102.561 -118.891 74.6349 
-102.219 -118.377 75.89 -102.004 -117.852 77.2607 -101.872 -117.377 78.549 
-101.835 -116.867 79.6887 -102.633 -118.059 72.9425 -103.294 -118.142 71.9911 
-101.944 -117.946 73.9948 -101.455 -117.606 75.1698 -101.181 -117.121 76.5449 
-101.017 -116.638 77.9206 -100.941 -116.137 79.1743 -101.003 -115.612 80.2926 
-102.149 -116.969 72.363 -102.821 -117.089 71.4923 -101.402 -116.907 73.334 
-100.783 -116.743 74.3939 -100.426 -116.384 75.7327 -100.225 -115.915 77.2312 
-100.113 -115.422 78.6169 -100.117 -114.936 79.8678 -100.31 -114.46 80.8923 
-101.614 -116.064 71.7552 -102.263 -116.213 70.9661 -100.95 -115.9 72.6911 
-100.334 -115.694 73.6683 -99.9185 -115.388 74.8681 -99.6824 -114.98 76.369 
-99.5292 -114.541 77.8768 -99.4518 -114.131 79.2565 -99.5323 -113.73 80.4637 
-99.8521 -113.291 81.3347 -101.146 -115.266 71.2302 -101.79 -115.406 70.5687 
-100.594 -115.01 72.1196 -100.067 -114.653 73.0766 -99.6213 -114.265 74.1428 
-99.3424 -113.87 75.4873 -99.2044 -113.469 76.9692 -99.1159 -113.102 78.394 
-99.0814 -112.772 79.7424 -99.2403 -112.418 80.8566 -99.6438 -112.014 81.5925 
-107.27 -124.403 75.2001 -106.624 -124.184 74.4754 -107.6 -125.241 74.2017 
-106.938 -125.001 73.413 -107.983 -125.958 73.2856 -105.986 -123.765 73.8116 
-107.338 -125.605 72.4857 -108.567 -126.401 72.2371 -106.348 -124.459 72.7621 
-105.451 -123.001 73.2191 -107.949 -125.849 71.4009 -109.36 -126.577 71.0205 
-106.827 -124.883 71.7629 -105.932 -123.508 72.1228 -104.992 -121.917 72.5567 
-108.82 -125.741 70.3225 -110.379 -126.346 70.1809 -107.517 -124.88 70.6769 
-106.53 -123.748 71.0295 -105.548 -122.258 71.4316 -104.553 -120.675 71.9179 
-110.004 -125.16 69.7674 -111.586 -125.587 69.9095 -108.522 -124.456 69.8621 
-107.33 -123.543 70.0712 -106.221 -122.363 70.4247 -105.126 -120.893 70.9508 
-104.189 -119.396 71.4951 -111.25 -124.25 69.5172 -112.663 -124.628 69.6745 
-109.765 -123.73 69.4709 -108.362 -123.016 69.454 -107.053 -122.112 69.572 
-105.845 -120.944 70.0589 -104.806 -119.538 70.673 -103.843 -118.166 71.1288 
-112.183 -123.465 69.0504 -113.398 -123.85 69.1576 -110.864 -123.034 69.0528 
-109.43 -122.459 68.9968 -107.945 -121.717 68.8594 -106.643 -120.795 69.0933 
-105.587 -119.61 69.7581 -104.542 -118.255 70.3419 -103.389 -117.063 70.6749 
-112.819 -122.944 68.4003 -113.938 -123.27 68.541 -111.639 -122.558 68.4105 
-110.319 -122.031 68.4192 -108.807 -121.354 68.2402 -107.402 -120.576 68.2187 
-106.373 -119.599 68.7537 -105.417 -118.336 69.512 -104.207 -117.054 70.0155 
-102.9 -116.083 70.289 -113.798 -122.531 67.8646 -112.583 -122.224 67.736 
-113.657 -121.628 67.2824 -112.306 -121.269 67.0988 -113.363 -120.474 66.6924 
-111.299 -121.741 67.7256 -111.894 -120.021 66.4666 -112.822 -119.186 66.1029 
-110.883 -120.634 67.014 -109.824 -121.04 67.64 -111.34 -118.532 66.1252 
-112.188 -117.687 65.9151 -110.436 -119.25 66.5805 -109.36 -119.81 67.0724 
-108.27 -120.266 67.5717 -110.746 -116.677 66.2799 -111.635 -115.894 66.2444 
-109.933 -117.538 66.6488 -109.038 -118.313 67.1136 -107.997 -118.968 67.5007 
-107.088 -119.398 67.9828 -110.205 -114.761 66.6787 -111.197 -114.266 66.7897 
-109.342 -115.528 66.9143 -108.649 -116.429 67.4159 -107.872 -117.28 67.9283 
-107.004 -117.883 68.3313 -106.183 -118.183 68.8253 -109.799 -113.37 67.3333 
-110.84 -113.131 67.5455 -108.807 -113.816 67.3568 -108.116 -114.52 67.6974 
-107.555 -115.349 68.2867 -106.833 -116.039 68.8375 -105.927 -116.47 69.2041 
-104.988 -116.773 69.551 -109.474 -112.402 68.3923 -110.446 -112.223 68.5803 
-108.444 -112.646 68.2975 -107.639 -113.073 68.3956 -107.057 -113.707 68.786 
-106.413 -114.34 69.3109 -105.51 -114.793 69.6622 -104.441 -115.185 69.7928 
-103.499 -115.643 69.9397 -109.064 -111.433 69.5428 -109.916 -111.277 69.6504 
-108.121 -111.587 69.4365 -107.266 -111.834 69.4047 -106.551 -112.295 69.5892 
-105.838 -112.883 69.926 -104.966 -113.362 70.1486 -103.91 -113.754 70.1416 
-102.877 -114.267 70.0709 -102.147 -114.88 70.1825 -101.033 -114.364 70.6672 
-101.411 -113.604 70.3227 -100.491 -112.772 70.9558 -102.167 -112.819 70.2716 
-100.867 -111.74 70.589 -100.212 -110.618 71.4644 -103.191 -112.227 70.4257 
-101.568 -110.827 70.4456 -100.599 -109.493 71.0316 -100.171 -108.527 72.1054 
-104.255 -111.716 70.5346 -102.541 -110.121 70.5075 -101.286 -108.609 70.7169 
-100.637 -107.594 71.6427 -100.129 -106.855 72.5802 -105.252 -111.103 70.3914 
-103.688 -109.436 70.5253 -102.306 -107.846 70.5883 -101.382 -106.824 71.2875 
-100.668 -106.03 72.1601 -99.8755 -105.094 72.721 -106.162 -110.584 70.1683 
-104.875 -108.869 70.3534 -103.588 -107.203 70.464 -102.462 -106.1 71.1225 
-101.469 -105.243 71.9368 -100.537 -104.176 72.4075 -99.7492 -103.16 72.8674 
-107.017 -110.365 70.1808 -105.897 -108.702 70.3468 -104.842 -106.989 70.4171 
-103.773 -105.671 71.038 -102.601 -104.593 71.8415 -101.502 -103.41 72.2821 
-100.657 -102.341 72.6639 -100.097 -101.73 73.3907 -107.894 -110.322 70.3665 
-106.755 -108.833 70.6825 -105.822 -107.188 70.7512 -104.979 -105.697 71.1833 
-103.932 -104.326 71.8219 -102.779 -102.928 72.1778 -101.847 -101.778 72.5087 
-101.182 -101.176 73.2131 -100.693 -100.979 74.1839 -108.768 -110.28 70.507 
-107.597 -108.988 71.0405 -106.655 -107.465 71.2645 -105.942 -105.913 71.5717 
-105.143 -104.394 71.9986 -104.146 -102.84 72.2157 -103.207 -101.508 72.4063 
-102.452 -100.776 73.0084 -101.799 -100.558 73.9606 -101.23 -100.488 74.9468 
-100.463 -114.068 71.4389 -100.044 -112.216 71.866 -100.004 -113.602 72.4165 
-99.8653 -109.973 72.4668 -99.6365 -111.643 72.8699 -99.5302 -113.093 73.4481 
-99.7458 -107.951 73.0117 -99.4139 -109.497 73.3912 -99.1526 -111.194 73.9265 
-99.1309 -112.655 74.6708 -99.43 -106.067 73.2597 -99.171 -107.415 73.8592 
-98.9819 -109.109 74.4943 -98.8814 -110.811 75.2761 -98.9806 -112.247 76.1304 
-99.1344 -104.029 73.4013 -98.8774 -105.278 74.2422 -98.9223 -106.865 75.154 
-98.9711 -108.656 76.005 -98.9563 -110.366 76.812 -98.983 -111.838 77.6149 
-99.3423 -102.33 73.8699 -98.9066 -103.35 74.7025 -98.9044 -104.744 75.7759 
-99.077 -106.396 76.7793 -99.1016 -108.197 77.6017 -98.9965 -109.937 78.3392 
-98.9422 -111.481 79.0806 -99.9209 -101.336 74.6759 -99.3486 -102.001 75.3836 
-99.079 -103.088 76.359 -99.045 -104.495 77.4024 -99.0392 -106.133 78.3307 
-98.9753 -107.906 79.1222 -98.9207 -109.628 79.814 -98.982 -111.162 80.4147 
-100.465 -100.715 75.4914 -99.8357 -101.09 76.1595 -99.3814 -101.835 77.0218 
-99.0903 -102.99 77.9858 -98.9204 -104.435 78.9193 -98.8651 -106.076 79.7748 
-98.9237 -107.786 80.4817 -99.0655 -109.405 81.0013 -99.2949 -110.833 81.3654 
-101.209 -100.06 75.9874 -100.445 -100.258 76.6977 -101.309 -99.5948 77.1641 
-100.541 -99.8845 78.0869 -101.683 -99.4765 78.5755 -99.8102 -100.69 77.5917 
-100.944 -99.9941 79.5799 -102.206 -99.7504 80.0443 -99.9021 -100.527 79.1726 
-99.3407 -101.585 78.6024 -101.528 -100.428 80.9339 -102.664 -100.031 81.4167 
-100.372 -100.883 80.6001 -99.524 -101.638 80.1978 -99.0541 -102.916 79.5547 
-102.049 -100.811 82.2625 -103.109 -100.361 82.7666 -101.004 -101.454 81.7823 
-100.087 -102.093 81.4801 -99.3966 -103.086 81.0466 -98.9552 -104.523 80.4147 
-102.587 -101.326 83.579 -103.686 -101.054 83.8918 -101.548 -101.964 83.0545 
-100.609 -102.659 82.636 -99.9181 -103.495 82.297 -99.4036 -104.771 81.7766 
-99.0498 -106.279 81.1429 -103.293 -102.128 84.5153 -104.371 -101.957 84.6522 
-102.232 -102.577 84.2112 -101.137 -103.208 83.8648 -100.266 -104.011 83.5257 
-99.816 -105.179 82.9868 -99.5552 -106.589 82.2791 -99.2884 -108.004 81.6212 
-104.047 -102.98 85.1908 -105.049 -102.766 85.3547 -103.082 -103.354 84.9715 
-102.023 -103.878 84.7632 -100.92 -104.629 84.5579 -100.191 -105.732 84.1178 
-99.9722 -107.027 83.3301 -99.8618 -108.286 82.5061 -99.5927 -109.551 81.8874 
-104.688 -103.743 85.9456 -105.649 -103.459 86.1509 -103.804 -104.172 85.6555 
-102.957 -104.7 85.3622 -101.998 -105.397 85.126 -101.044 -106.394 84.849 
-100.492 -107.567 84.2808 -100.36 -108.662 83.4184 -100.239 -109.725 82.6101 
-99.9443 -110.88 82.0487 -102.124 -100.023 75.0392 -102.163 -99.5386 76.1063 
-103.21 -99.5856 75.1775 -103.389 -99.1363 76.3124 -104.456 -99.4592 75.4783 
-102.436 -99.1863 77.4131 -104.864 -99.0472 76.6477 -105.804 -99.7033 75.9101 
-103.807 -98.942 77.8206 -102.928 -99.2606 79.0051 -106.498 -99.2167 77.054 
-107.096 -100.094 76.3629 -105.469 -98.8555 78.2763 -104.336 -99.0832 79.5551 
-103.406 -99.5372 80.5432 -107.875 -99.6358 77.4842 -108.129 -100.672 76.7829 
-107.259 -98.9764 78.6496 -106.125 -98.9472 79.9996 -104.891 -99.3591 81.0293 
-103.874 -99.8077 81.9012 -108.748 -100.47 77.8821 -109.019 -101.542 77.1303 
-108.509 -99.59 78.9213 -107.871 -99.185 80.2445 -106.771 -99.3597 81.3861 
-105.541 -99.8392 82.2634 -104.462 -100.37 83.1384 -109.513 -101.539 78.2255 
-109.935 -102.496 77.4356 -109.219 -100.657 79.1439 -108.899 -100.047 80.3487 
-108.287 -99.8398 81.6255 -107.322 -100.097 82.6013 -106.159 -100.641 83.3735 
-105.105 -101.263 84.0934 -110.357 -102.568 78.5652 -110.702 -103.42 77.7764 
-110.006 -101.761 79.4073 -109.655 -101.155 80.4593 -109.222 -100.773 81.7516 
-108.593 -100.683 82.9028 -107.688 -101.01 83.6748 -106.643 -101.577 84.2853 
-105.728 -102.158 84.8732 -111.037 -103.568 78.8784 -111.196 -104.364 78.1261 
-110.853 -102.777 79.6794 -110.591 -102.148 80.6386 -110.195 -101.73 81.8439 
[...]
CELL_DATA 2000
SCALARS Distance double
LOOKUP_TABLE default
178.813 177.995 178.279 177.97 177.018 177.376 177.048 177.357 176.98 
175.859 176.287 175.912 176.315 175.91 176.266 175.862 174.578 175.033 
174.613 175.064 174.631 175.074 174.662 175.094 174.729 173.289 173.725 
173.299 173.731 173.288 173.737 173.333 173.816 173.464 173.946 173.614 
172.041 172.448 172.015 172.43 171.99 172.415 172.02 172.49 172.163 
172.654 172.349 172.827 172.529 170.808 171.194 170.727 171.14 170.683 
171.117 170.717 171.195 170.876 171.374 171.095 171.578 171.319 171.792 
171.562 169.622 169.967 169.493 169.866 169.404 169.807 169.393 169.869 
169.545 170.074 169.806 170.328 170.087 170.595 170.391 170.885 170.699 
168.557 168.837 168.393 168.705 168.266 168.592 168.169 168.567 168.227 
168.729 168.471 169.018 168.795 169.341 169.148 169.69 169.521 170.035 
169.858 179.186 179.502 179.018 178.361 179.845 179.328 178.615 178.131 
177.406 180.135 179.645 178.903 178.39 177.607 177.107 176.291 180.287 
179.852 179.09 178.632 177.818 177.307 176.423 175.908 175.02 180.378 
179.933 179.125 178.718 177.898 177.457 176.551 176.028 175.073 174.58 
173.703 180.489 180.017 179.164 178.716 177.874 177.464 176.589 176.116 
175.166 174.646 173.725 173.275 172.455 180.509 180.098 179.243 178.78 
177.912 177.454 176.578 176.123 175.223 174.739 173.839 173.346 172.488 
172.048 171.247 180.343 180.036 179.221 178.839 177.988 177.524 176.612 
176.124 175.217 174.772 173.925 173.477 172.636 172.141 171.292 170.839 
170.055 180.087 179.83 179.075 178.774 177.981 177.578 176.666 176.164 
175.217 174.758 173.938 173.551 172.795 172.329 171.501 170.96 170.127 
169.675 168.963 179.708 178.822 179.085 178.71 177.765 178.127 177.715 
178.034 177.607 176.443 176.928 176.483 176.907 176.407 176.786 176.249 
174.975 175.507 175.077 175.569 175.067 175.481 174.927 175.314 174.785 
173.482 173.994 173.576 174.127 173.72 174.169 173.715 174.059 173.613 
173.951 173.564 172.131 172.505 172.022 172.581 172.229 172.817 172.493 
172.942 172.582 172.908 172.53 172.847 172.466 171.211 171.321 170.786 
171.113 170.751 171.307 171.072 171.67 171.391 171.854 171.438 171.788 
171.286 171.646 171.148 170.695 170.643 170.125 170.157 169.775 170.041 
169.838 170.312 170.131 170.612 170.249 170.612 170.057 170.381 169.799 
170.205 169.726 170.229 170.21 169.691 169.657 169.201 169.285 168.984 
169.27 169.058 169.445 169.12 169.442 168.909 169.16 168.56 168.874 
168.394 168.84 168.528 167.816 167.564 167.297 166.596 167.631 167.115 
166.212 165.96 165.209 167.964 167.287 166.198 165.639 164.686 164.509 
163.873 168.259 167.636 166.468 165.707 164.556 164.094 163.362 163.317 
162.868 168.326 167.851 166.729 165.968 164.721 164.071 163.22 162.974 
162.493 162.433 161.892 168.368 167.921 166.926 166.208 165.019 164.293 
163.397 162.975 162.432 162.197 161.616 161.371 160.669 168.656 168.124 
167.283 166.531 165.507 164.714 163.888 163.298 162.728 162.286 161.679 
161.243 160.563 160.233 159.769 169.17 168.591 167.876 167.099 166.24 
165.4 164.678 163.96 163.401 162.759 162.133 161.495 160.839 160.342 
159.943 159.7 159.652 169.71 169.17 168.536 167.82 167.068 166.263 
165.591 164.846 164.286 163.558 162.927 162.143 161.482 160.815 160.419 
160.043 159.998 159.85 159.982 167.849 166.668 167.402 167.666 165.333 
166.155 166.453 167.23 167.518 164.039 164.799 165.116 165.949 166.273 
167.066 167.391 162.966 163.581 163.832 164.606 164.95 165.784 166.175 
166.989 167.428 161.81 162.449 162.567 163.335 163.657 164.497 164.964 
165.808 166.339 167.144 167.686 160.498 161.118 161.183 161.994 162.351 
163.246 163.803 164.68 165.304 166.118 166.722 167.484 168.046 159.678 
159.97 160.118 160.711 161.182 162.011 162.684 163.58 164.283 165.13 
165.776 166.554 167.148 167.879 168.435 159.647 159.603 159.813 160.035 
160.528 161.082 161.775 162.548 163.273 164.112 164.786 165.603 166.226 
166.994 167.586 168.296 168.84 159.973 159.835 159.988 160.009 160.371 
160.667 161.234 161.788 162.448 163.161 163.84 164.626 165.302 166.085 
166.727 167.461 168.044 168.713 169.215 160.17 160.44 160.232 160.188 
160.995 160.598 160.582 160.379 160.54 162.025 161.39 161.334 160.922 
161.111 160.931 161.328 163.236 162.571 162.515 161.913 162.062 161.671 
162.058 161.895 162.46 164.4 163.784 163.792 163.188 163.326 162.801 
163.133 162.78 163.305 163.148 163.815 165.663 165.005 165.057 164.461 
164.608 164.076 164.363 163.944 164.414 164.128 164.748 164.592 165.292 
167.024 166.35 166.414 165.779 165.917 165.341 165.583 165.136 165.56 
165.256 165.831 165.609 166.248 166.087 166.739 168.335 167.704 167.777 
167.16 167.301 166.691 166.907 166.374 166.751 166.384 166.926 166.676 
167.265 167.058 167.636 167.477 168.049 169.564 168.978 169.058 168.488 
168.646 168.075 168.302 167.743 168.083 167.624 168.108 167.777 168.315 
168.051 168.562 168.353 168.854 168.709 169.207 160.303 160.681 160.483 
160.558 161.338 160.965 161.071 160.861 161.14 162.379 161.81 161.933 
161.567 161.923 161.706 162.196 163.66 163.012 163.14 162.63 162.986 
162.646 163.121 162.888 163.382 164.94 164.337 164.505 163.955 164.288 
163.829 164.25 163.882 164.313 164.045 164.516 166.184 165.608 165.806 
165.307 165.652 165.183 165.593 165.119 165.541 165.104 165.563 165.243 
165.785 167.477 166.881 167.059 166.561 166.897 166.488 166.921 166.495 
166.94 166.46 166.91 166.451 166.947 166.601 167.153 168.762 168.194 
168.366 167.827 168.13 167.698 168.136 167.768 168.239 167.837 168.275 
167.828 168.257 167.834 168.296 167.962 168.463 169.915 169.438 169.634 
169.13 169.419 168.959 169.378 168.987 169.467 169.087 169.528 169.118 
169.515 169.1 169.505 169.123 169.562 169.236 169.695 169.811 169.555 
169.357 168.622 169.313 169.064 168.29 168.045 167.207 169.162 168.844 
168.028 167.722 166.879 166.608 165.797 169.073 168.714 167.849 167.481 
166.582 166.285 165.454 165.237 164.471 169.024 168.636 167.765 167.337 
166.406 166.019 165.134 164.866 164.032 163.855 163.038 169.06 168.634 
167.814 167.333 166.465 165.966 165.12 164.675 163.848 163.474 162.634 
162.376 161.604 169.223 168.759 168.011 167.491 166.702 166.156 165.392 
164.854 164.107 163.545 162.767 162.23 161.522 161.153 160.635 169.509 
169.022 168.339 167.791 167.047 166.477 165.745 165.206 164.507 163.946 
163.217 162.6 161.915 161.374 160.897 160.528 160.266 169.873 169.383 
168.749 168.192 167.487 166.89 166.183 165.607 164.941 164.38 163.702 
163.101 162.425 161.856 161.338 160.921 160.636 160.352 160.216 170.43 
171.307 170.666 170.245 172.293 171.606 171.208 170.488 170.046 173.379 
172.669 172.3 171.525 171.097 170.337 169.921 174.477 173.791 173.462 
172.682 172.257 171.446 171.025 170.26 169.859 175.558 174.886 174.58 
173.843 173.439 172.634 172.212 171.413 171.019 170.23 169.832 176.641 
175.965 175.661 174.948 174.57 173.799 173.406 172.625 172.26 171.452 
171.063 170.232 169.85 177.665 177.017 176.716 176.036 175.692 174.939 
174.564 173.803 173.464 172.702 172.338 171.507 171.103 170.278 169.951 
178.569 177.972 177.669 177.06 176.765 176.076 175.719 174.959 174.59 
173.855 173.503 172.748 172.356 171.543 171.18 170.414 170.173 179.376 
178.821 178.518 177.963 177.705 177.116 176.81 176.102 175.705 174.953 
174.567 173.851 173.496 172.756 172.41 171.646 171.373 170.666 170.493 
179.702 179.937 179.496 178.868 180.194 179.748 179.118 178.679 178.071 
180.438 180.001 179.364 178.927 178.281 177.864 177.192 180.668 180.236 
179.576 179.141 178.443 178.019 177.268 176.858 176.079 180.852 180.45 
179.777 179.335 178.597 178.139 177.332 176.886 176.061 175.665 174.905 
180.949 180.596 179.928 179.511 178.746 178.274 177.434 176.951 176.112 
175.669 174.898 174.53 173.837 181.016 180.673 180.011 179.619 178.846 
178.39 177.531 177.047 176.193 175.741 174.958 174.558 173.838 173.485 
172.797 181.122 180.763 180.111 179.702 178.959 178.495 177.674 177.166 
176.317 175.827 175.024 174.607 173.868 173.5 172.801 172.452 171.791 
181.226 180.884 180.25 179.836 179.131 178.663 177.916 177.391 176.599 
176.032 175.221 174.702 173.947 173.531 172.846 172.485 171.846 171.501 
170.91 181.053 180.335 180.517 180.056 179.335 179.663 179.217 179.427 
178.916 178.111 178.53 178.107 178.465 177.999 178.239 177.709 176.829 
177.245 176.803 177.246 176.828 177.222 176.738 176.984 176.399 175.562 
175.965 175.498 175.919 175.5 175.966 175.534 175.911 175.344 175.586 
174.975 174.272 174.7 174.249 174.644 174.211 174.647 174.244 174.666 
174.169 174.47 173.879 174.142 173.633 172.956 173.403 172.966 173.385 
172.938 173.37 172.962 173.401 172.965 173.31 172.785 173.053 172.554 
172.871 172.501 171.667 172.092 171.646 172.074 171.614 172.059 171.632 
172.102 171.679 172.102 171.616 171.953 171.46 171.793 171.401 171.791 
171.497 170.468 170.831 170.384 170.774 170.333 170.745 170.332 170.773 
170.365 170.8 170.343 170.735 170.25 170.638 170.226 170.656 170.353 
170.804 170.562 181.518 181.983 181.451 180.802 182.471 181.869 181.122 
180.587 179.792 182.978 182.327 181.437 180.834 179.951 179.443 178.568 
183.227 182.721 181.73 181.096 180.103 179.561 178.662 178.177 177.304 
182.937 182.722 181.759 181.272 180.232 179.697 178.754 178.261 177.361 
176.889 176.011 182.277 182.238 181.394 181.13 180.167 179.756 178.795 
178.329 177.356 176.882 175.913 175.514 174.638 181.598 181.577 180.842 
180.697 179.851 179.584 178.659 178.282 177.255 176.796 175.727 175.318 
174.361 174.08 173.268 180.991 180.965 180.284 180.181 179.406 179.22 
178.352 178.057 177.058 176.634 175.546 175.098 174.095 173.767 172.934 
172.716 171.979 180.417 180.393 179.737 179.653 178.914 178.77 177.962 
177.729 176.825 176.448 175.447 174.97 173.99 173.563 172.721 172.419 
171.693 171.47 170.795 181.99 182.902 182.477 182.537 183.926 183.468 
183.587 183.08 183.128 184.972 184.534 184.644 184.155 184.231 183.712 
183.705 185.917 185.541 185.588 185.129 185.08 184.672 184.618 184.171 
183.948 186.699 186.413 186.424 185.975 185.765 185.329 185.091 184.788 
184.504 184.112 183.606 187.147 187.033 187.05 186.727 186.49 185.978 
185.593 185.141 184.758 184.423 183.948 183.523 182.894 187.226 187.231 
187.215 187.147 186.992 186.659 186.28 185.726 185.244 184.726 184.24 
183.797 183.249 182.772 182.176 187.282 187.201 187.118 187.126 187.031 
186.965 186.687 186.335 185.818 185.279 184.699 184.177 183.62 183.136 
182.575 182.092 181.54 187.513 187.319 187.183 187.063 186.953 186.913 
186.699 186.539 186.062 185.692 185.06 184.605 183.992 183.529 182.95 
182.481 181.92 181.462 180.937 187.593 187.425 187.452 187.237 186.916 
187.176 187.052 187.086 186.922 186.062 186.515 186.465 186.742 186.552 
186.699 186.516 185.06 185.552 185.476 185.936 185.724 186.063 185.759 
186.066 185.772 184.061 184.518 184.385 184.851 184.635 185.048 184.738 
185.11 184.786 185.141 184.8 183.015 183.483 183.31 183.755 183.54 
183.954 183.712 184.083 183.825 184.156 183.867 184.155 183.803 181.881 
182.372 182.168 182.638 182.405 182.862 182.648 183.083 182.865 183.236 
182.951 183.252 182.896 183.159 182.77 180.748 181.215 181.002 181.464 
181.234 181.706 181.496 181.98 181.754 182.204 181.891 182.267 181.872 
182.2 181.792 182.099 181.719 179.719 180.126 179.933 180.342 180.141 
180.573 180.389 180.84 180.625 181.055 180.744 181.13 180.747 181.112 
180.731 181.083 180.736 181.065 180.741 179.134 178.291 178.921 179.313 
177.322 178.021 178.427 179.089 179.508 176.253 177 177.438 178.166 
178.629 179.309 179.759 175.171 175.927 176.379 177.142 177.626 178.384 
178.85 179.545 179.96 174.067 174.84 175.277 176.059 176.508 177.31 
177.755 178.537 178.925 179.653 180.007 172.962 173.713 174.127 174.917 
175.33 176.138 176.554 177.369 177.772 178.546 178.909 179.642 179.996 
171.975 172.639 173.03 173.767 174.183 174.955 175.386 176.176 176.632 
177.412 177.856 178.579 178.978 179.662 180.032 171.097 171.697 172.052 
172.721 173.135 173.86 174.32 175.073 175.567 176.335 176.838 177.578 
178.028 178.706 179.093 179.735 180.087 170.241 170.817 171.126 171.761 
172.141 172.846 173.298 174.046 174.534 175.302 175.791 176.558 177.004 
177.734 178.118 178.799 179.146 179.791 180.115 179.912 178.901 179.343 
179.191 177.824 178.26 178.036 178.526 178.333 176.688 177.123 176.829 
177.306 177.061 177.599 177.373 175.479 175.93 175.584 176.048 175.743 
176.279 176.015 176.571 176.256 174.216 174.673 174.285 174.746 174.372 
174.905 174.589 175.163 174.812 175.349 174.916 172.954 173.384 172.965 
173.409 172.983 173.484 173.109 173.681 173.312 173.869 173.433 173.943 
173.493 171.769 172.13 171.689 172.094 171.656 172.1 171.683 172.191 
171.796 172.346 171.933 172.463 172.044 172.564 172.218 170.734 170.997 
170.529 170.86 170.413 170.803 170.358 170.793 170.351 170.847 170.435 
170.971 170.591 171.134 170.815 171.379 171.156 169.846 170.03 169.536 
169.773 169.3 169.608 169.134 169.493 169.004 169.428 168.991 169.502 
169.153 169.706 169.426 169.992 169.783 170.382 170.244 180.819 181.137 
181.356 182.1 181.33 181.651 182.425 182.655 183.37 181.316 181.746 
182.524 182.881 183.614 183.873 184.546 181.195 181.661 182.476 182.908 
183.702 184.05 184.778 185.015 185.612 181.06 181.523 182.37 182.857 
183.763 184.176 184.997 185.251 185.861 185.986 186.393 180.851 181.34 
182.123 182.689 183.591 184.178 185.035 185.441 186.021 186.187 186.532 
186.614 186.888 180.526 181.043 181.732 182.323 183.082 183.785 184.538 
185.201 185.724 186.137 186.415 186.644 186.908 187.071 187.359 180.143 
180.651 181.286 181.85 182.499 183.14 183.765 184.46 184.956 185.556 
185.879 186.324 186.617 186.972 187.298 187.522 187.742 179.761 180.235 
180.815 181.357 181.956 182.534 183.1 183.69 184.183 184.754 185.173 
185.698 186.095 186.568 186.937 187.311 187.54 187.746 187.772 180.874 
182.128 181.439 181.339 183.405 182.717 182.583 181.894 181.783 184.631 
183.993 183.871 183.15 183.014 182.336 182.207 185.715 185.202 185.142 
184.449 184.291 183.577 183.42 182.728 182.469 186.466 186.161 186.168 
185.661 185.517 184.84 184.585 183.879 183.513 182.796 182.284 186.947 
186.746 186.77 186.497 186.425 185.952 185.663 184.973 184.446 183.692 
183.04 182.349 181.708 187.409 187.18 187.137 186.928 186.864 186.635 
186.434 185.935 185.379 184.58 183.794 183.008 182.299 181.69 181.136 
187.766 187.597 187.444 187.213 187.011 186.871 186.681 186.473 186.022 
185.426 184.614 183.781 182.973 182.278 181.705 181.174 180.721 187.783 
187.78 187.581 187.414 187.079 186.907 186.588 186.501 186.099 185.826 
185.106 184.489 183.63 182.948 182.292 181.745 181.277 180.786 180.35 
180.186 180.637 180.048 179.307 181.076 180.485 179.691 179.101 178.254 
181.459 180.881 180.02 179.42 178.473 177.896 176.922 181.663 181.173 
180.24 179.664 178.652 178.06 177.021 176.459 175.448 181.496 181.202 
180.252 179.779 178.753 178.202 177.167 176.578 175.551 174.983 173.997 
181.026 180.881 180.004 179.669 178.679 178.235 177.237 176.72 175.727 
175.147 174.177 173.596 172.707 180.546 180.417 179.648 179.38 178.464 
178.097 177.143 176.727 175.793 175.31 174.406 173.854 173.029 172.463 
171.777 180.157 180.017 179.319 179.077 178.253 177.906 177.029 176.633 
175.785 175.361 174.563 174.091 173.353 172.843 172.204 171.703 171.189 
179.786 179.657 178.996 178.796 178.063 177.761 176.986 176.6 175.848 
175.429 174.73 174.288 173.624 173.161 172.54 172.093 171.547 171.143 
170.667 181.802 181.723 182.061 182.674 181.628 181.974 182.619 182.981 
183.665 181.574 181.909 182.561 182.923 183.624 184.004 184.703 181.502 
181.871 182.534 182.889 183.56 183.933 184.615 185.005 185.649 181.311 
181.743 182.394 182.816 183.443 183.832 184.437 184.848 185.478 185.889 
186.442 181.044 181.486 182.073 182.549 183.123 183.594 184.14 184.594 
185.162 185.635 186.2 186.596 186.966 180.786 181.2 181.745 182.176 
182.731 183.202 183.787 184.254 184.832 185.287 185.848 186.288 186.725 
187.008 187.183 180.539 180.943 181.491 181.879 182.462 182.884 183.58 
184.013 184.712 185.065 185.647 185.976 186.46 186.77 187.099 187.231 
187.354 180.297 180.695 181.239 181.632 182.217 182.661 183.418 183.916 
184.745 185.109 185.742 185.928 186.371 186.575 186.964 187.179 187.461 
187.505 187.627 
POINT_DATA 1002
SCALARS Distance double
LOOKUP_TABLE default
178.542 179.327 178.572 177.725 177.69 177.644 176.717 176.649 176.706 
176.593 175.497 175.435 175.525 175.503 175.492 174.171 174.129 174.174 
174.197 174.29 174.409 172.876 172.866 172.851 172.843 172.964 173.142 
173.295 171.604 171.656 171.566 171.554 171.668 171.86 172.048 172.248 
170.326 170.444 170.253 170.233 170.366 170.599 170.83 171.083 171.357 
169.133 169.292 169.023 168.939 169.01 169.263 169.56 169.875 170.218 
170.525 168.087 168.292 167.961 167.817 167.755 167.919 168.237 168.593 
168.981 169.365 169.685 179.66 178.825 180.022 179.14 180.374 177.883 
179.423 180.61 178.149 176.793 179.525 180.729 178.326 176.982 175.498 
179.549 180.858 178.305 177.066 175.607 174.117 179.648 180.965 178.296 
177.025 175.679 174.216 172.846 179.686 180.879 178.399 177.043 175.669 
174.325 172.978 171.644 179.546 180.606 178.434 177.134 175.66 174.323 
173.13 171.804 170.429 179.339 180.316 178.343 177.166 175.699 174.293 
173.202 172.055 170.648 169.306 179.47 178.449 178.55 177.385 177.362 
177.312 176.04 175.929 176.027 175.882 174.554 174.446 174.641 174.536 
174.364 172.987 173.018 173.191 173.332 173.279 173.2 171.515 171.865 
171.569 171.932 172.221 172.25 172.145 170.588 171.182 170.261 170.426 
170.862 171.096 170.974 170.743 170.162 170.743 169.628 169.44 169.652 
169.884 169.771 169.43 169.226 169.73 170.217 169.186 168.794 168.723 
168.806 168.675 168.284 167.969 167.988 167.169 166.736 165.885 166.643 
165.261 164.487 166.938 165.016 163.786 163.352 167.3 165.171 163.486 
162.82 162.438 167.454 165.437 163.56 162.62 162.045 161.198 167.591 
165.736 163.888 162.75 161.932 160.874 159.94 167.993 166.269 164.521 
163.261 162.181 160.929 159.89 159.483 168.598 167.04 165.413 164.105 
162.842 161.38 160.211 159.732 159.746 169.187 167.826 166.34 165.023 
163.733 162.21 160.859 160.191 160.075 160.129 166.952 165.631 166.781 
164.284 165.438 166.604 163.114 164.103 165.315 166.613 161.799 162.793 
164.081 165.503 166.906 160.361 161.395 162.872 164.464 165.952 167.314 
159.615 160.382 161.774 163.412 164.981 166.402 167.735 159.717 160.112 
161.094 162.463 163.951 165.434 166.851 168.177 160.046 160.204 160.801 
161.812 163.074 164.501 165.976 167.359 168.599 160.337 160.318 160.67 
160.812 161.509 160.62 161.854 162.717 161.341 161.378 163.146 163.848 
162.549 162.3 162.501 164.36 164.994 163.873 163.558 163.545 163.875 
165.663 166.334 165.153 164.8 164.734 164.969 165.404 167.055 167.685 
166.526 166.075 165.878 166.071 166.459 166.884 168.376 168.946 167.903 
167.476 167.173 167.206 167.503 167.836 168.191 169.613 170.136 169.188 
168.85 168.584 168.496 168.625 168.818 169.035 169.339 160.446 160.671 
160.93 161.299 161.789 161.247 162.345 163.005 162.161 162.367 163.691 
164.287 163.388 163.416 163.583 165.037 165.5 164.791 164.69 164.651 
164.708 166.29 166.765 166.096 166.072 166.022 165.955 166.028 167.59 
168.078 167.299 167.299 167.395 167.406 167.373 167.443 168.916 169.293 
168.594 168.5 168.612 168.713 168.709 168.69 168.759 170.106 170.348 
169.881 169.784 169.852 169.939 169.934 169.902 169.924 170.005 170.032 
168.856 169.78 168.561 169.6 167.456 168.374 169.514 167.154 166.03 
168.257 169.453 166.919 165.676 164.66 168.203 169.421 166.838 165.465 
164.265 163.176 168.28 169.481 166.961 165.599 164.299 162.983 161.746 
168.519 169.672 167.236 165.913 164.669 163.356 161.965 160.859 168.878 
169.981 167.622 166.286 165.039 163.816 162.483 161.3 160.537 171.044 
170.927 171.955 171.94 172.986 170.761 173.084 174.071 171.88 170.654 
174.222 175.144 173.085 171.811 170.615 175.297 176.237 174.226 173.011 
171.819 170.626 176.364 177.325 175.327 174.164 173.049 171.915 170.651 
177.365 178.307 176.422 175.332 174.202 173.146 171.957 170.704 178.246 
179.159 177.399 176.48 175.349 174.222 173.143 171.971 170.867 179.062 