# vtk DataFile Version 4.0
vtk output
ASCII
DATASET POLYDATA
POINTS 1002 float
-105.196 -121.612 75.5348 -105.926 -122.6 75.1572 -105.61 -122.082 74.3243 
-104.829 -120.979 74.6605 -105.293 -121.356 73.5254 -104.489 -120.372 75.9286 
-104.48 -120.099 73.8299 -105.09 -120.298 72.8251 -103.992 -119.647 75.0428 
-103.82 -118.858 76.3115 -104.245 -118.906 73.1189 -104.891 -119.067 72.1493 
-103.568 -118.631 74.182 -103.291 -117.966 75.465 -103.292 -117.058 76.6776 
-103.913 -117.631 72.3663 -104.425 -117.945 71.3237 -103.26 -117.339 73.4298 
-102.833 -116.816 74.6171 -102.741 -116.03 75.9242 -102.633 -115.247 77.0693 
-103.298 -116.511 71.4408 -103.84 -116.845 70.5131 -102.773 -116.104 72.6148 
-102.271 -115.657 73.8302 -101.98 -115.073 75.1304 -101.765 -114.425 76.4271 
-101.547 -113.858 77.5145 -102.672 -115.402 70.6403 -103.452 -115.549 70.0226 
-102.051 -115.09 71.6916 -101.44 -114.752 72.9724 -100.927 -114.394 74.2727 
-100.618 -113.897 75.6546 -100.473 -113.326 76.9221 -100.494 -112.795 77.9585 
-102.179 -114.205 70.1083 -103.106 -114.254 69.6584 -101.397 -114.064 70.9122 
-100.659 -113.887 72.0836 -99.9748 -113.713 73.3338 -99.5804 -113.363 74.6826 
-99.5182 -112.787 76.1122 -99.6713 -112.162 77.3438 -99.8934 -111.601 78.3718 
-101.651 -113.157 69.5586 -102.588 -113.27 69.0971 -100.866 -112.988 70.2716 
-100.189 -112.792 71.3032 -99.5485 -112.617 72.4544 -99.1326 -112.333 73.6708 
-99.0452 -111.838 75.0775 -99.1678 -111.24 76.4943 -99.361 -110.673 77.7119 
-99.5246 -110.188 78.7728 -101.135 -112.336 68.9 -102.039 -112.543 68.421 
-100.423 -112.014 69.6198 -99.9131 -111.624 70.5785 -99.4839 -111.242 71.6584 
-99.1772 -110.842 72.7883 -99.0644 -110.391 74.0602 -99.0516 -109.945 75.4647 
-99.0778 -109.527 76.8203 -99.1308 -109.132 78.0406 -99.2062 -108.785 79.118 
-106.584 -123.153 74.2662 -106.185 -122.656 73.4137 -107.342 -123.659 73.3095 
-106.858 -123.166 72.3887 -108.145 -124.073 72.2094 -105.817 -121.861 72.5966 
-107.706 -123.442 71.2665 -108.986 -124.298 71.1011 -106.41 -122.31 71.4978 
-105.611 -120.7 71.861 -108.69 -123.378 70.295 -109.871 -124.247 70.2131 
-107.259 -122.479 70.3908 -106.16 -121.143 70.7287 -105.371 -119.472 71.1227 
-109.66 -123.164 69.4169 -110.803 -123.956 69.3774 -108.29 -122.344 69.4467 
-106.963 -121.362 69.6473 -105.94 -119.915 70.0168 -104.935 -118.299 70.3325 
-110.624 -122.992 68.3751 -111.793 -123.574 68.4138 -109.309 -122.199 68.4581 
-107.903 -121.325 68.6633 -106.694 -120.133 68.9581 -105.652 -118.545 69.3617 
-104.579 -116.923 69.7728 -111.686 -122.686 67.4492 -112.854 -123.127 67.5296 
-110.38 -121.999 67.5129 -108.898 -121.156 67.7424 -107.49 -120.115 68.0084 
-106.37 -118.675 68.3769 -105.422 -116.949 68.9752 -104.359 -115.388 69.4886 
-112.804 -122.04 66.9296 -113.93 -122.527 66.8416 -111.53 -121.419 66.998 
-110.028 -120.705 67.0977 -108.451 -119.852 67.2765 -107.09 -118.693 67.5454 
-106.075 -117.107 68.0694 -105.153 -115.402 68.7364 -103.97 -114.094 69.0928 
-113.817 -121.22 66.5992 -114.865 -121.832 66.2489 -112.606 -120.571 66.8005 
-111.15 -119.985 66.7568 -109.558 -119.352 66.7331 -108.053 -118.485 66.922 
-106.798 -117.225 67.3198 -105.78 -115.625 67.8967 -104.706 -114.151 68.3648 
-103.386 -113.177 68.4736 -114.966 -120.712 66.0077 -113.84 -119.954 66.4726 
-114.848 -119.588 65.8263 -113.561 -118.925 65.9843 -114.503 -118.533 65.3442 
-112.409 -119.358 66.4728 -112.933 -117.995 65.0407 -113.871 -117.24 64.6612 
-111.837 -118.465 65.6106 -110.731 -118.862 66.2009 -112.041 -116.63 64.3556 
-112.945 -115.74 64.4679 -110.955 -117.423 64.7045 -110.027 -117.846 65.4258 
-109.116 -118.143 66.2518 -111.219 -114.97 64.5629 -112.048 -114.38 65.0629 
-110.132 -115.801 64.516 -109.237 -116.478 65.0075 -108.574 -116.801 65.8605 
-107.708 -117.044 66.6797 -110.72 -113.328 65.3486 -111.458 -112.91 65.8683 
-109.703 -113.936 65.0491 -108.715 -114.683 65.1669 -108.031 -115.169 65.75 
-107.311 -115.396 66.5427 -106.442 -115.562 67.2397 -110.296 -111.533 66.0494 
-110.974 -111.111 66.3962 -109.396 -112.022 65.7807 -108.387 -112.674 65.6885 
-107.518 -113.272 65.9379 -106.747 -113.599 66.5214 -105.912 -113.815 67.1444 
-105.189 -114.011 67.7189 -109.679 -109.742 66.5375 -110.351 -109.44 66.8226 
-108.835 -110.107 66.3569 -107.864 -110.567 66.2477 -106.876 -111.126 66.2895 
-105.961 -111.633 66.6067 -105.121 -112.059 67.0444 -104.375 -112.496 67.4223 
-103.801 -112.883 67.8723 -108.977 -108.335 67.0569 -109.646 -108.253 67.4063 
-108.162 -108.477 66.8174 -107.229 -108.661 66.6535 -106.204 -108.992 66.5618 
-105.153 -109.54 66.6483 -104.23 -110.207 66.902 -103.497 -110.922 67.1442 
-102.889 -111.617 67.3913 -102.394 -112.164 67.8199 -101.075 -111.57 68.1183 
-101.494 -110.945 67.5547 -100.496 -109.965 68.1755 -102.035 -110.099 67.1877 
-100.948 -109.007 67.6764 -100.268 -107.732 68.5267 -102.654 -109.156 66.9445 
-101.465 -107.992 67.2579 -100.636 -106.591 68.019 -100.037 -105.482 68.8031 
-103.513 -108.228 66.7299 -102.183 -107.029 66.9146 -101.151 -105.632 67.4939 
-100.307 -104.385 68.168 -99.6961 -103.643 68.8801 -104.684 -107.451 66.6412 
-103.34 -106.1 66.7331 -102.132 -104.758 67.1216 -100.974 -103.453 67.5961 
-100.05 -102.577 68.1368 -99.5296 -102.044 69.0795 -105.888 -107.065 66.7787 
-104.718 -105.463 66.8125 -103.539 -103.988 67.0286 -102.222 -102.617 67.3272 
-100.985 -101.576 67.6671 -100.121 -100.981 68.4505 -99.6733 -100.583 69.6178 
-106.921 -107.05 67.0711 -105.895 -105.379 67.1599 -104.881 -103.699 67.2453 
-103.639 -102.206 67.4146 -102.37 -100.94 67.6248 -101.301 -100.088 68.2 
-100.489 -99.6496 69.2256 -99.9569 -99.3738 70.2965 -107.809 -107.144 67.437 
-106.818 -105.628 67.671 -105.926 -103.896 67.7327 -104.853 -102.344 67.8187 
-103.697 -100.989 67.9878 -102.713 -99.7795 68.3545 -101.819 -98.9953 69.0976 
-100.955 -98.639 70.027 -100.272 -98.4166 70.9228 -108.576 -107.246 67.8579 
-107.608 -105.93 68.2108 -106.786 -104.258 68.3144 -105.9 -102.655 68.3574 
-104.868 -101.349 68.5563 -103.936 -100.069 68.8582 -103.169 -98.8947 69.281 
-102.354 -98.1928 69.9134 -101.466 -97.8808 70.6944 -100.702 -97.6728 71.5648 
-100.31 -111.123 68.8006 -99.9526 -109.253 69.0081 -99.8203 -110.533 69.7122 
-99.8144 -106.993 69.3363 -99.5842 -108.538 69.9309 -99.5008 -109.903 70.7572 
-99.5249 -104.903 69.6337 -99.3179 -106.365 70.2954 -99.2362 -107.791 71.0378 
-99.2625 -109.254 71.9261 -99.2136 -103.096 69.9862 -98.8455 -104.336 70.8854 
-98.6813 -105.628 71.6359 -98.9362 -106.999 72.4008 -99.1474 -108.65 73.2262 
-99.21 -101.475 70.428 -98.5737 -102.589 71.4543 -97.9908 -103.77 72.3563 
-98.1737 -104.96 73.0543 -98.8017 -106.455 73.7814 -99.0802 -108.253 74.6121 
-99.449 -100.083 70.9116 -98.8078 -101.138 71.8088 -97.8724 -102.374 72.7848 
-97.5544 -103.453 73.5508 -98.1969 -104.648 74.2469 -98.8266 -106.285 75.1014 
-98.9996 -108.029 76.0215 -99.6801 -98.9043 71.4651 -99.246 -99.7921 72.2296 
-98.4777 -101.088 73.153 -97.7817 -102.279 73.9662 -98.0026 -103.255 74.662 
-98.6582 -104.58 75.5103 -98.9175 -106.254 76.5065 -98.9538 -107.816 77.4012 
-99.9239 -97.9486 72.136 -99.5413 -98.5457 72.9012 -99.1758 -99.6529 73.8062 
-98.6055 -100.95 74.6349 -98.4035 -101.998 75.315 -98.7788 -103.096 76.0716 
-99.0446 -104.601 77.0103 -98.9725 -106.198 77.9469 -98.9659 -107.582 78.6717 
-100.7 -97.1784 72.7481 -99.9357 -97.4694 73.5274 -100.91 -96.8815 74.2179 
-100.174 -97.3177 75.1258 -101.342 -96.9193 75.7264 -99.6348 -98.1781 74.488 
-100.627 -97.4911 76.701 -101.837 -97.0004 77.4056 -99.8966 -98.1248 76.116 
-99.3945 -99.3512 75.4289 -101.097 -97.5237 78.5236 -102.203 -96.863 79.4132 
-100.241 -98.2799 77.7046 -99.6553 -99.2202 77.0313 -99.0579 -100.587 76.206 
-101.457 -97.4369 80.4481 -102.545 -96.994 81.0996 -100.578 -98.3142 79.5505 
-99.8281 -99.2872 78.7324 -99.313 -100.429 77.9314 -99.0262 -101.766 76.9681 
-101.904 -97.8516 81.7917 -103.119 -97.7249 82.1517 -100.985 -98.4976 81.205 
-100.145 -99.4618 80.5083 -99.4361 -100.585 79.731 -99.2014 -101.875 78.8111 
-99.192 -103.243 77.8362 -102.573 -98.6533 82.8074 -103.835 -98.5805 83.1271 
-101.566 -99.1329 82.3408 -100.773 -99.936 81.822 -99.9887 -100.948 81.1799 
-99.4472 -102.204 80.373 -99.2737 -103.584 79.5233 -99.1386 -104.927 78.7081 
-103.293 -99.3707 83.9213 -104.45 -99.2896 84.1342 -102.256 -99.8634 83.4393 
-101.494 -100.664 82.8387 -100.863 -101.558 82.1744 -100.242 -102.631 81.4193 
-99.7222 -103.931 80.7131 -99.3112 -105.237 80.1029 -99.0317 -106.442 79.4335 
-103.942 -100.094 84.8349 -104.954 -100.062 84.8509 -102.962 -100.54 84.4838 
-102.172 -101.37 83.8762 -101.592 -102.29 83.1512 -101.104 -103.216 82.3439 
-100.577 -104.314 81.5871 -99.9604 -105.521 81.0414 -99.4162 -106.669 80.5549 
-99.173 -107.746 79.9016 -101.854 -97.2131 71.767 -102.033 -96.7662 73.1208 
-103.249 -96.9199 72.1819 -103.561 -96.4833 73.6447 -104.538 -96.8405 72.7371 
-102.382 -96.5423 74.6352 -104.878 -96.3552 74.1029 -105.828 -96.8761 73.1854 
-103.873 -96.3146 75.0904 -102.805 -96.6024 76.1615 -106.276 -96.3679 74.3932 
-107.259 -97.043 73.564 -105.164 -96.2984 75.4656 -104.168 -96.4994 76.6527 
-103.169 -96.6408 78.0466 -107.814 -96.6986 74.8333 -108.372 -97.6893 74.164 
-106.751 -96.4648 75.9149 -105.579 -96.6875 77.2259 -104.544 -96.7126 78.6471 
-103.496 -96.6664 80.0665 -108.89 -97.6008 75.5279 -109.059 -98.7843 74.8839 
-108.358 -96.9178 76.5589 -107.328 -96.9196 77.909 -106.17 -97.0112 79.216 
-105.068 -96.9776 80.4209 -104.007 -97.1852 81.4537 -109.592 -98.7647 76.1408 
-109.806 -99.8035 75.4282 -109.358 -97.815 77.1137 -108.764 -97.3632 78.4172 
-107.799 -97.3059 79.6788 -106.733 -97.3678 80.682 -105.686 -97.6407 81.603 
-104.693 -98.0935 82.4489 -110.384 -99.7592 76.5558 -110.679 -100.595 75.8064 
-110.096 -98.8884 77.4575 -109.658 -98.2466 78.6099 -108.96 -97.9636 79.8591 
-108.1 -97.9021 80.9306 -107.175 -98.0884 81.8408 -106.217 -98.5074 82.6986 
-105.283 -98.9182 83.4844 -111.185 -100.622 76.8947 -111.397 -101.371 76.136 
-110.912 -99.875 77.7643 -110.498 -99.2706 78.7644 -109.898 -98.9405 79.8929 
[...]
CELL_DATA 2000
SCALARS Distance double
LOOKUP_TABLE default
176.99 176.012 176.333 175.948 174.906 175.265 174.831 175.192 174.747 
173.694 174.081 173.588 173.978 173.491 173.898 173.411 172.356 172.788 
172.248 172.662 172.12 172.559 172.059 172.505 172 170.908 171.358 
170.789 171.248 170.68 171.139 170.618 171.1 170.617 171.072 170.588 
169.501 169.884 169.29 169.745 169.192 169.668 169.153 169.645 169.189 
169.679 169.257 169.711 169.329 168.205 168.512 167.885 168.28 167.737 
168.193 167.703 168.187 167.755 168.264 167.899 168.401 168.083 168.557 
168.283 166.968 167.236 166.582 166.924 166.373 166.79 166.315 166.771 
166.349 166.849 166.501 167.042 166.76 167.298 167.043 167.554 167.311 
165.815 166.031 165.381 165.665 165.112 165.478 165.005 165.424 164.999 
165.466 165.108 165.643 165.363 165.939 165.699 166.264 166.032 166.568 
166.345 177.44 177.828 177.262 176.491 178.182 177.629 176.814 176.243 
175.404 178.446 177.93 177.081 176.519 175.632 175.088 174.203 178.627 
178.142 177.282 176.736 175.825 175.283 174.373 173.837 172.897 178.728 
178.283 177.425 176.907 176.009 175.472 174.567 174.011 173.06 172.482 
171.492 178.761 178.357 177.53 177.042 176.163 175.648 174.752 174.209 
173.26 172.668 171.677 171.08 170.113 178.795 178.408 177.642 177.168 
176.311 175.795 174.887 174.36 173.403 172.847 171.864 171.287 170.324 
169.748 168.829 178.828 178.47 177.738 177.297 176.456 175.944 175.025 
174.484 173.524 172.97 172.002 171.452 170.508 169.957 169.032 168.48 
167.588 178.786 178.482 177.755 177.369 176.534 176.063 175.148 174.622 
173.684 173.128 172.194 171.622 170.702 170.138 169.229 168.672 167.773 
167.24 166.405 178.494 177.639 177.881 177.447 176.621 176.936 176.445 
176.713 176.187 175.285 175.757 175.205 175.577 174.99 175.331 174.764 
173.639 174.209 173.631 174.154 173.551 174.015 173.449 173.857 173.304 
172.141 172.551 171.966 172.476 171.926 172.478 171.98 172.488 171.98 
172.388 171.836 171 171.238 170.633 170.952 170.429 170.894 170.463 
170.998 170.545 171.019 170.473 170.881 170.319 169.826 170.122 169.471 
169.744 169.144 169.51 169.011 169.501 169.018 169.528 168.962 169.433 
168.835 169.314 168.787 168.496 168.837 168.151 168.489 167.781 168.161 
167.492 167.976 167.351 167.904 167.276 167.823 167.201 167.742 167.192 
167.759 167.301 167.336 167.549 166.867 167.127 166.38 166.695 165.915 
166.332 165.582 166.119 165.439 166.044 165.442 166.052 165.536 166.136 
165.706 166.305 165.942 165.059 164.753 164.47 163.636 164.484 164.131 
163.186 162.975 162.142 164.268 163.826 162.768 162.481 161.529 161.4 
160.593 164.188 163.619 162.49 162.081 161.067 160.801 159.896 159.816 
159.1 164.358 163.642 162.517 161.933 160.937 160.479 159.541 159.223 
158.421 158.377 157.839 164.8 163.991 162.94 162.181 161.24 160.579 
159.672 159.091 158.24 157.886 157.297 157.294 157.003 165.4 164.6 
163.673 162.822 161.946 161.123 160.277 159.487 158.67 158.003 157.393 
157.04 156.751 156.717 156.613 166.021 165.302 164.515 163.685 162.886 
161.997 161.217 160.32 159.594 158.735 158.156 157.481 157.165 156.788 
156.676 156.535 156.483 166.618 165.986 165.33 164.578 163.861 162.999 
162.264 161.372 160.72 159.84 159.311 158.487 158.121 157.474 157.293 
156.873 156.801 156.552 156.528 164.989 163.606 164.37 164.546 162.178 
162.982 163.187 163.987 164.27 160.698 161.542 161.78 162.621 162.923 
163.771 164.14 159.26 160.082 160.341 161.195 161.498 162.385 162.767 
163.674 164.113 158.044 158.742 159.008 159.786 160.063 160.922 161.292 
162.25 162.743 163.698 164.226 157.206 157.702 157.97 158.578 158.824 
159.531 159.854 160.755 161.281 162.31 162.945 163.905 164.507 156.734 
157.042 157.305 157.738 158.007 158.486 158.781 159.442 159.961 160.899 
161.63 162.647 163.371 164.272 164.887 156.483 156.657 156.886 157.226 
157.576 157.925 158.286 158.664 159.168 159.805 160.573 161.46 162.3 
163.194 163.907 164.7 165.279 156.431 156.456 156.629 156.885 157.294 
157.645 158.126 158.419 158.932 159.303 160.008 160.641 161.506 162.278 
163.07 163.805 164.441 165.122 165.652 156.543 156.951 156.64 156.701 
157.769 157.239 157.278 157.051 157.388 158.876 158.226 158.23 157.812 
158.115 157.919 158.305 160.039 159.395 159.368 158.852 159.057 158.738 
159.088 158.853 159.186 161.165 160.543 160.518 159.987 160.116 159.702 
159.989 159.693 160.084 159.811 160.262 162.382 161.693 161.687 161.133 
161.28 160.795 161.054 160.662 161.082 160.799 161.348 161.084 161.695 
163.774 163.003 162.993 162.365 162.557 162.026 162.316 161.83 162.231 
161.875 162.434 162.19 162.805 162.574 163.177 165.175 164.435 164.416 
163.745 163.933 163.372 163.693 163.168 163.547 163.095 163.585 163.279 
163.845 163.614 164.159 163.952 164.481 166.425 165.785 165.785 165.156 
165.319 164.767 165.075 164.562 164.924 164.433 164.849 164.452 164.939 
164.638 165.13 164.882 165.358 165.164 165.654 156.747 157.491 157.083 
157.19 158.496 157.997 158.111 157.712 158.003 159.531 159.029 159.141 
158.721 158.976 158.656 159.071 160.646 160.069 160.159 159.733 160.006 
159.668 160.051 159.774 160.222 161.987 161.298 161.432 160.87 161.222 
160.785 161.237 160.842 161.282 160.939 161.377 163.452 162.756 162.967 
162.332 162.747 162.2 162.704 162.179 162.641 162.139 162.578 162.159 
162.634 164.859 164.235 164.45 163.878 164.252 163.756 164.203 163.697 
164.102 163.569 163.978 163.488 163.963 163.528 164.047 166.152 165.599 
165.791 165.266 165.561 165.119 165.493 165.073 165.436 164.97 165.339 
164.88 165.324 164.898 165.376 164.96 165.427 167.322 166.841 167.047 
166.55 166.819 166.355 166.703 166.283 166.679 166.251 166.657 166.211 
166.636 166.208 166.634 166.228 166.624 166.239 166.626 166.765 166.7 
166.342 165.54 166.594 166.248 165.36 165.009 164.082 166.371 166.053 
165.103 164.755 163.765 163.443 162.488 166.206 165.826 164.887 164.482 
163.499 163.128 162.204 161.884 161.01 166.244 165.775 164.886 164.379 
163.443 162.968 162.091 161.697 160.881 160.513 159.695 166.404 165.911 
165.069 164.513 163.628 163.065 162.211 161.712 160.907 160.469 159.675 
159.268 158.519 166.62 166.124 165.337 164.775 163.946 163.354 162.535 
161.955 161.155 160.605 159.821 159.328 158.61 158.207 157.628 166.916 
166.407 165.691 165.116 164.342 163.733 162.947 162.34 161.569 160.963 
160.218 159.626 158.953 158.43 157.876 157.477 157.07 167.282 166.776 
166.126 165.55 164.836 164.203 163.443 162.796 162.036 161.415 160.713 
160.122 159.517 158.94 158.421 157.88 157.448 157.037 156.744 167.515 
168.668 167.868 167.475 169.946 169.082 168.674 167.867 167.437 171.283 
170.397 169.973 169.113 168.653 167.784 167.258 172.593 171.723 171.295 
170.431 169.955 169.037 168.488 167.579 167.072 173.851 172.999 172.561 
171.727 171.279 170.371 169.835 168.87 168.356 167.468 167.071 175.043 
174.233 173.79 172.97 172.542 171.685 171.193 170.25 169.731 168.801 
168.373 167.531 167.198 176.093 175.38 174.974 174.194 173.774 172.941 
172.464 171.572 171.055 170.155 169.69 168.837 168.463 167.664 167.367 
176.978 176.366 176.011 175.332 174.947 174.169 173.694 172.822 172.296 
171.421 170.953 170.122 169.737 168.931 168.615 167.849 167.61 177.77 
177.214 176.893 176.302 175.959 175.283 174.844 174.033 173.509 172.645 
172.176 171.359 170.989 170.199 169.882 169.104 168.842 168.114 167.926 
178.111 178.37 177.904 177.242 178.571 178.126 177.406 176.988 176.297 
178.647 178.242 177.467 177.076 176.315 175.954 175.175 178.69 178.278 
177.487 177.081 176.282 175.906 175.088 174.718 173.863 178.737 178.337 
177.566 177.128 176.328 175.888 175.062 174.637 173.794 173.39 172.566 
178.743 178.38 177.642 177.228 176.437 175.974 175.122 174.65 173.792 
173.361 172.548 172.158 171.398 178.815 178.419 177.711 177.298 176.527 
176.079 175.223 174.728 173.831 173.366 172.527 172.14 171.371 171.02 
170.294 178.991 178.571 177.87 177.406 176.638 176.173 175.365 174.863 
174.003 173.465 172.622 172.147 171.386 170.997 170.288 169.936 169.263 
179.047 178.73 178.019 177.579 176.78 176.304 175.507 175.034 174.244 
173.715 172.913 172.357 171.602 171.105 170.419 169.991 169.342 168.966 
168.357 178.726 177.757 178.119 177.729 176.628 177.052 176.678 176.993 
176.484 175.442 175.875 175.479 175.859 175.384 175.694 175.193 174.175 
174.642 174.227 174.632 174.148 174.522 174.047 174.409 173.933 172.816 
173.324 172.93 173.366 172.862 173.241 172.735 173.169 172.725 173.128 
172.637 171.385 171.92 171.555 172.057 171.608 171.978 171.453 171.833 
171.394 171.853 171.442 171.822 171.344 169.927 170.451 170.075 170.645 
170.279 170.74 170.268 170.612 170.137 170.54 170.15 170.593 170.185 
170.556 170.128 168.566 169.019 168.633 169.166 168.823 169.366 168.954 
169.395 168.896 169.295 168.831 169.284 168.879 169.338 168.942 169.361 
169.004 167.379 167.754 167.386 167.813 167.456 167.933 167.539 168.017 
167.559 167.998 167.523 167.958 167.533 168.002 167.636 168.117 167.798 
168.265 167.995 179.079 179.147 178.776 178.061 179.218 178.782 178.051 
177.702 176.974 179.447 178.938 178.241 177.791 177.111 176.643 175.865 
179.578 179.203 178.593 178.14 177.483 176.904 176.059 175.488 174.598 
179.305 179.179 178.619 178.408 177.734 177.261 176.289 175.666 174.609 
174.112 173.182 178.77 178.744 178.173 178.175 177.479 177.249 176.189 
175.702 174.507 174.037 173.003 172.644 171.743 178.247 178.181 177.584 
177.603 176.935 176.809 175.792 175.402 174.188 173.78 172.717 172.409 
171.488 171.181 170.299 177.803 177.685 177.046 177.011 176.371 176.276 
175.401 175.043 173.922 173.457 172.404 172.071 171.171 170.896 170.018 
169.728 168.903 177.413 177.265 176.579 176.479 175.807 175.734 174.974 
174.736 173.78 173.325 172.307 171.851 170.943 170.596 169.748 169.446 
168.625 168.373 167.66 179.694 180.819 180.172 179.928 182.128 181.489 
181.39 180.476 180.131 183.258 182.839 182.909 182.098 181.798 180.745 
180.342 183.94 183.754 183.85 183.425 183.181 182.365 181.837 180.867 
180.347 184.469 184.268 184.265 184.034 183.784 183.356 182.838 182.135 
181.458 180.639 179.996 184.947 184.738 184.659 184.387 184.118 183.746 
183.301 182.821 182.243 181.583 180.893 180.124 179.459 185.054 184.999 
184.856 184.724 184.471 184.137 183.711 183.248 182.755 182.23 181.661 
180.983 180.316 179.56 178.937 184.909 184.896 184.708 184.723 184.505 
184.385 183.98 183.641 183.097 182.675 182.119 181.63 181.021 180.384 
179.736 179.044 178.472 184.845 184.765 184.6 184.556 184.392 184.326 
184.004 183.779 183.237 182.895 182.29 181.937 181.35 180.923 180.31 
179.76 179.161 178.565 178.043 184.78 184.58 184.667 184.568 184.162 
184.43 184.414 184.464 184.332 183.489 183.885 183.945 184.207 184.041 
184.116 183.854 182.814 183.12 183.1 183.53 183.386 183.636 183.255 
183.398 183.006 182.28 182.449 182.241 182.587 182.427 182.797 182.453 
182.662 182.198 182.399 182.025 181.6 181.85 181.541 181.763 181.497 
181.815 181.527 181.796 181.377 181.571 181.163 181.416 181.093 180.543 
180.993 180.707 181.004 180.651 180.922 180.574 180.862 180.468 180.716 
180.288 180.541 180.17 180.469 180.113 179.286 179.82 179.586 180.023 
179.671 180.002 179.581 179.882 179.444 179.742 179.3 179.598 179.194 
179.513 179.15 179.45 179.049 178.08 178.578 178.368 178.841 178.525 
178.918 178.493 178.825 178.365 178.682 178.242 178.561 178.161 178.497 
178.146 178.48 178.127 178.394 177.985 177.384 176.359 177.137 177.624 
175.167 176.022 176.48 177.303 177.731 173.833 174.74 175.164 176.049 
176.448 177.308 177.677 172.422 173.349 173.766 174.675 175.082 175.97 
176.37 177.217 177.574 171.007 171.913 172.352 173.278 173.735 174.63 
175.083 175.935 176.349 177.141 177.492 169.746 170.548 170.995 171.894 
172.397 173.313 173.8 174.675 175.114 175.936 176.326 177.089 177.44 
168.7 169.391 169.808 170.61 171.1 171.989 172.479 173.374 173.814 
174.679 175.093 175.918 176.32 177.079 177.45 167.729 168.388 168.755 
169.483 169.911 170.727 171.193 172.057 172.515 173.377 173.824 174.676 
175.123 175.944 176.358 177.106 177.449 166.762 167.403 167.739 168.431 
168.813 169.565 170 170.813 171.289 172.127 172.609 173.443 173.906 
174.734 175.159 175.963 176.316 177.055 177.323 176.977 175.956 176.348 
176.098 174.799 175.242 174.955 175.419 175.228 173.568 174.036 173.72 
174.196 173.949 174.517 174.336 172.274 172.771 172.436 172.917 172.604 
173.16 172.917 173.525 173.207 170.924 171.428 171.063 171.575 171.201 
171.749 171.424 172.036 171.696 172.258 171.814 169.611 170.059 169.657 
170.158 169.752 170.284 169.893 170.486 170.113 170.711 170.289 170.83 
170.415 168.411 168.774 168.339 168.774 168.356 168.834 168.417 168.945 
168.548 169.123 168.719 169.288 168.883 169.47 169.15 167.322 167.613 
167.14 167.503 167.06 167.478 167.043 167.504 167.088 167.604 167.211 
167.752 167.367 167.93 167.608 168.241 168.019 166.341 166.566 166.072 
166.356 165.891 166.232 165.773 166.165 165.729 166.19 165.801 166.306 
165.942 166.462 166.148 166.731 166.531 167.186 167.08 179.435 179.489 
179.793 180.425 179.486 179.823 180.503 180.802 181.439 179.517 179.855 
180.605 180.916 181.651 181.875 182.49 179.514 179.899 180.697 181.064 
181.891 182.166 182.864 182.963 183.463 179.384 179.827 180.59 181.075 
181.926 182.375 183.117 183.33 183.775 183.808 184.097 179.183 179.637 
180.348 180.858 181.669 182.251 182.999 183.416 183.806 183.953 184.092 
184.203 184.372 178.919 179.404 180.116 180.606 181.376 181.927 182.634 
183.123 183.494 183.762 183.835 184.019 184.127 184.369 184.583 178.544 
179.081 179.792 180.341 181.077 181.621 182.244 182.706 183.036 183.336 
183.427 183.66 183.791 184.074 184.328 184.596 184.815 178.117 178.655 
179.326 179.925 180.608 181.21 181.752 182.243 182.52 182.852 182.977 
183.253 183.459 183.765 184.072 184.353 184.593 184.787 184.887 179.542 
180.562 180.036 179.949 181.561 181.061 180.991 180.404 180.216 182.538 
182.046 181.975 181.42 181.227 180.61 180.334 183.47 183.019 182.967 
182.415 182.256 181.622 181.358 180.688 180.328 184.175 183.893 183.927 
183.452 183.362 182.717 182.488 181.762 181.411 180.648 180.188 184.556 
184.464 184.576 184.32 184.283 183.8 183.557 182.889 182.485 181.733 
181.231 180.449 179.921 184.796 184.765 184.881 184.782 184.751 184.507 
184.252 183.784 183.293 182.661 182.061 181.382 180.787 180.108 179.574 
184.989 184.983 185.082 185.01 184.993 184.832 184.649 184.312 183.868 
183.316 182.678 182.054 181.415 180.826 180.258 179.685 179.174 185.028 
185.102 185.218 185.203 185.251 185.113 185.04 184.737 184.43 183.898 
183.326 182.657 182.014 181.396 180.838 180.289 179.787 179.245 178.767 
178.95 179.306 178.802 178.103 179.555 179.101 178.381 177.887 177.108 
179.672 179.286 178.549 178.097 177.261 176.766 175.806 179.615 179.312 
178.564 178.186 177.304 176.832 175.816 175.285 174.194 179.397 179.144 
178.382 178.104 177.257 176.836 175.838 175.292 174.25 173.683 172.718 
179.147 178.885 178.12 177.871 177.11 176.775 175.893 175.378 174.413 
173.832 172.933 172.385 171.57 178.898 178.656 177.932 177.657 176.946 
176.648 175.867 175.447 174.539 174.019 173.094 172.589 171.71 171.239 
170.373 178.569 178.403 177.724 177.494 176.784 176.512 175.737 175.392 
174.503 174.071 173.114 172.657 171.709 171.268 170.341 169.918 169.03 
178.182 178.055 177.406 177.24 176.539 176.313 175.53 175.228 174.359 
173.981 173.066 172.632 171.718 171.252 170.365 169.896 169.063 168.62 
167.874 179.661 179.639 179.991 180.671 179.49 179.894 180.611 181.035 
181.822 179.458 179.808 180.538 180.936 181.702 182.164 182.889 179.488 
179.844 180.577 180.92 181.631 182.015 182.695 183.108 183.663 179.455 
179.852 180.579 180.947 181.63 181.971 182.628 182.968 183.59 183.872 
184.351 179.402 179.797 180.513 180.897 181.601 181.965 182.695 183.016 
183.743 183.976 184.569 184.661 184.988 179.282 179.707 180.385 180.795 
181.494 181.915 182.711 183.127 183.945 184.24 184.879 184.975 185.291 
185.212 185.225 179.026 179.493 180.112 180.579 181.212 181.717 182.461 
183.033 183.825 184.322 184.916 185.178 185.435 185.451 185.424 185.276 
185.118 178.726 179.174 179.757 180.227 180.806 181.324 181.974 182.606 
183.315 183.962 184.505 184.963 185.191 185.401 185.388 185.395 185.273 
185.143 185.014 
POINT_DATA 1002
SCALARS Distance double
LOOKUP_TABLE default
176.655 177.605 176.713 175.633 175.692 175.558 174.473 174.554 174.389 
174.298 173.219 173.312 173.077 173.011 172.929 171.835 171.924 171.694 
171.593 171.578 171.497 170.316 170.487 170.217 170.134 170.132 170.144 
170.126 168.851 169.168 168.705 168.656 168.672 168.765 168.867 168.998 
167.519 167.929 167.287 167.222 167.236 167.359 167.576 167.81 168.044 
166.26 166.716 165.968 165.865 165.86 165.953 166.195 166.511 166.81 
167.083 165.117 165.611 164.768 164.602 164.55 164.59 164.786 165.115 
165.475 165.815 166.14 178.004 177.072 178.411 177.406 178.732 175.968 
177.655 178.954 176.186 174.745 177.821 179.108 176.371 174.921 173.457 
177.923 179.155 176.532 175.127 173.658 172.069 177.997 179.135 176.673 
175.288 173.845 172.281 170.686 178.095 179.157 176.836 175.428 173.948 
172.418 170.897 169.393 178.16 179.169 176.962 175.573 174.078 172.547 
171.045 169.586 168.118 178.121 179.072 176.989 175.656 174.218 172.761 
171.277 169.788 168.315 166.888 178.292 177.234 177.395 176.182 176.288 
175.921 174.804 174.764 174.631 174.42 173.062 173.094 173.029 172.995 
172.935 171.5 171.832 171.341 171.412 171.535 171.472 170.385 170.786 
170.02 169.933 170.049 170.055 169.897 169.198 169.498 168.834 168.583 
168.524 168.484 168.35 168.26 167.82 168.174 167.44 167.073 166.827 
166.709 166.638 166.616 166.702 166.658 167.18 166.125 165.577 165.1 
164.826 164.787 164.903 165.091 165.328 164.24 163.844 162.828 163.46 
162.258 161.345 163.117 161.73 160.604 159.835 162.955 161.401 160.075 
159.015 158.455 163.151 161.449 159.968 158.586 157.666 157.402 163.726 
161.949 160.328 158.727 157.413 156.819 156.792 164.5 162.795 161.097 
159.412 157.876 156.895 156.545 156.506 165.284 163.763 162.103 160.455 
158.92 157.677 156.93 156.561 156.386 166.018 164.691 163.134 161.56 
160.149 158.869 157.821 157.133 156.714 156.488 163.754 162.367 163.443 
160.92 162.058 163.273 159.496 160.614 161.829 163.204 158.28 159.254 
160.329 161.724 163.308 157.43 158.208 159.018 160.219 161.906 163.629 
156.909 157.582 158.239 159.091 160.575 162.412 164.077 156.561 157.194 
157.959 158.666 159.75 161.396 163.097 164.551 156.424 156.906 157.789 
158.638 159.497 160.781 162.346 163.771 165.005 156.723 156.778 157.358 
157.586 158.368 157.476 158.729 159.535 158.379 158.498 159.927 160.662 
159.453 159.343 159.43 161.048 161.79 160.586 160.315 160.315 160.514 
162.246 163.112 161.77 161.491 161.364 161.575 161.962 163.654 164.56 
163.082 162.821 162.641 162.693 163.039 163.418 165.093 165.874 164.503 
164.217 164.045 163.957 164.109 164.391 164.671 166.391 167.01 165.874 
165.584 165.428 165.301 165.294 165.417 165.586 165.82 157.036 157.497 
157.947 158.554 158.991 158.289 159.546 160.061 159.327 159.317 160.604 
161.276 160.332 160.365 160.476 162.017 162.671 161.679 161.663 161.691 
161.686 163.583 164.106 163.304 163.264 163.19 163.047 163.004 165.019 
165.456 164.751 164.706 164.644 164.475 164.416 164.472 166.324 166.678 
166.032 165.904 165.873 165.794 165.751 165.808 165.85 167.522 167.766 
167.297 167.132 167.076 167.09 167.091 167.068 167.029 166.995 167.098 
165.913 167.091 165.743 166.949 164.425 165.468 166.699 164.099 162.772 
165.313 166.609 163.883 162.518 161.324 165.405 166.721 163.944 162.506 
161.253 160.07 165.61 166.884 164.195 162.749 161.383 160.089 158.87 
165.879 167.099 164.524 163.122 161.738 160.348 159.029 157.935 166.247 
167.404 164.949 163.557 162.165 160.807 159.504 158.329 157.367 168.269 
168.239 169.5 169.511 170.829 168.275 170.855 172.168 169.556 168.131 
172.149 173.465 170.886 169.427 167.911 173.387 174.705 172.15 170.805 
169.276 167.886 174.611 175.818 173.376 172.103 170.674 169.246 167.99 
175.716 176.749 174.6 173.349 171.945 170.55 169.279 168.122 176.637 
177.551 175.685 174.561 173.175 171.773 170.54 169.396 168.33 177.46 