# vtk DataFile Version 4.0
vtk output
ASCII
DATASET POLYDATA
POINTS 1002 float
-105.331 -123.363 78.8503 -105.76 -124.435 78.3681 -105.161 -124.167 78.0035 
-104.557 -123.085 78.54 -104.452 -123.856 77.6885 -104.813 -122.213 79.3925 
-103.683 -122.792 78.214 -103.766 -123.372 77.0935 -103.927 -121.887 79.091 
-104.1 -121.18 80.0489 -103.076 -122.114 77.5769 -103.335 -122.479 76.2482 
-103.128 -121.356 78.6729 -103.31 -120.632 79.71 -103.296 -120.176 80.823 
-102.909 -120.858 76.8718 -103.201 -121.179 75.6483 -102.656 -120.342 78.0444 
-102.653 -119.729 79.1975 -102.614 -119.324 80.4325 -102.62 -118.847 81.4806 
-102.753 -119.45 76.4129 -102.992 -119.828 75.2439 -102.268 -119.142 77.4903 
-101.942 -118.756 78.6029 -101.809 -118.392 79.9179 -101.79 -117.965 81.1012 
-102.056 -117.303 81.8716 -102.117 -118.411 75.8918 -102.377 -118.786 74.6671 
-101.569 -118.22 76.9887 -101.057 -118.03 78.0345 -100.829 -117.724 79.3215 
-100.771 -117.303 80.6529 -101.006 -116.676 81.5823 -101.465 -116.013 82.2248 
-101.227 -117.715 75.2138 -101.578 -118.032 74.0966 -100.707 -117.515 76.3283 
-100.216 -117.319 77.4075 -100.033 -116.973 78.6462 -99.9658 -116.554 79.9953 
-100.035 -116.061 81.1217 -100.423 -115.476 81.9517 -100.876 -114.967 82.6928 
-100.561 -117.029 74.6594 -100.95 -117.297 73.7389 -100.113 -116.74 75.6652 
-99.6422 -116.411 76.738 -99.4576 -115.951 77.9772 -99.4641 -115.446 79.2756 
-99.4419 -115.035 80.3997 -99.616 -114.658 81.3559 -100.018 -114.264 82.2727 
-100.4 -113.896 83.1123 -100.163 -116.198 74.2546 -100.544 -116.452 73.4688 
-99.8046 -115.841 75.143 -99.3082 -115.443 76.1162 -98.8992 -115.003 77.2958 
-98.8137 -114.502 78.6189 -98.8664 -114.021 79.7631 -98.9957 -113.642 80.6548 
-99.3285 -113.341 81.5423 -99.7344 -113.066 82.5028 -100.074 -112.793 83.3378 
-105.894 -125.245 77.6158 -105.33 -124.921 77.1876 -106.067 -125.987 76.7374 
-105.508 -125.644 76.1152 -106.228 -126.7 75.6578 -104.748 -124.436 76.6448 
-105.661 -126.387 74.8307 -106.62 -127.174 74.5113 -105.033 -125.011 75.2952 
-104.147 -123.732 75.7701 -106.176 -126.654 73.6373 -107.46 -126.999 73.4606 
-105.375 -125.529 73.9794 -104.537 -124.08 74.4446 -103.643 -122.749 74.9659 
-107.086 -126.202 72.626 -108.323 -126.466 72.2932 -106.095 -125.481 72.9838 
-105.16 -124.244 73.471 -104.063 -122.962 73.9714 -103.356 -121.503 74.5292 
-107.818 -125.747 71.5426 -108.859 -126.184 70.9647 -106.848 -125.101 72.0778 
-105.939 -124.082 72.615 -104.835 -122.923 73.1622 -103.748 -121.706 73.568 
-103.054 -120.199 74.0267 -108.372 -125.477 70.5073 -109.383 -125.913 69.9912 
-107.349 -124.863 71.0511 -106.376 -124.004 71.5153 -105.481 -122.855 72.0987 
-104.476 -121.667 72.6271 -103.446 -120.408 72.9652 -102.504 -119.089 73.4328 
-109.086 -124.841 69.8663 -110.091 -125.197 69.574 -107.981 -124.369 70.1976 
-106.765 -123.834 70.4279 -105.761 -122.926 70.8728 -105.005 -121.657 71.6053 
-104.123 -120.375 72.1789 -103.009 -119.184 72.575 -101.877 -118.142 73.1 
-109.841 -123.85 69.5005 -110.771 -124.201 69.3153 -108.786 -123.46 69.6821 
-107.496 -123.182 69.7435 -106.238 -122.688 69.9708 -105.364 -121.623 70.6716 
-104.671 -120.267 71.5072 -103.731 -119.035 72.0668 -102.532 -118.023 72.4746 
-101.386 -117.194 72.9428 -110.728 -123.021 68.9877 -109.738 -122.606 69.2029 
-110.479 -122.019 68.5187 -109.337 -121.692 68.7445 -110.012 -121.201 68.0016 
-108.53 -122.335 69.3155 -108.774 -120.815 68.2337 -109.432 -120.063 67.4678 
-108.083 -121.385 68.9705 -107.173 -122.066 69.4444 -108.273 -119.445 67.8767 
-108.846 -118.537 67.2111 -107.665 -120.139 68.7255 -106.905 -120.7 69.4136 
-106.007 -121.278 69.9677 -107.828 -117.87 68.0639 -108.326 -117.115 67.6534 
-107.33 -118.531 68.7467 -106.656 -119.02 69.4599 -105.833 -119.484 70.1314 
-105.133 -119.949 70.8374 -107.352 -116.403 68.7421 -107.884 -115.8 68.5312 
-106.895 -116.981 69.1851 -106.229 -117.438 69.6725 -105.402 -117.788 70.1946 
-104.724 -118.16 70.8942 -104.228 -118.606 71.5916 -106.85 -114.83 69.4163 
-107.457 -114.353 69.3138 -106.303 -115.371 69.7034 -105.566 -115.904 70.0406 
-104.656 -116.352 70.3814 -103.973 -116.669 70.8759 -103.545 -117.017 71.5258 
-103.069 -117.518 72.0773 -106.326 -113.313 70.0182 -107.005 -112.972 69.9586 
-105.631 -113.709 70.1509 -104.782 -114.146 70.2788 -103.8 -114.687 70.5082 
-103.077 -115.212 70.9354 -102.706 -115.615 71.463 -102.316 -116.075 71.9782 
-101.799 -116.665 72.4577 -105.81 -112.167 70.6754 -106.561 -111.89 70.5753 
-104.98 -112.419 70.7397 -104.026 -112.583 70.5729 -103.01 -112.887 70.4349 
-102.262 -113.489 70.7601 -101.912 -114.152 71.3813 -101.602 -114.719 71.8989 
-101.137 -115.313 72.3459 -100.73 -115.937 72.8758 -99.9662 -115.322 73.626 
-100.091 -114.707 72.9766 -99.4523 -113.946 73.887 -100.486 -114.035 72.4513 
-99.6032 -113.248 73.3017 -99.0208 -112.411 74.3393 -100.944 -113.349 71.9446 
-100.025 -112.544 72.7877 -99.2864 -111.588 73.7941 -98.6377 -110.812 74.6965 
-101.22 -112.553 71.1549 -100.43 -111.807 72.0424 -99.6558 -110.869 73.1597 
-98.8564 -109.876 73.9805 -98.0811 -109.234 74.6509 -101.62 -111.766 70.4672 
-100.716 -110.975 71.0169 -99.9825 -110.201 72.2494 -99.1023 -109.154 73.2635 
-98.1677 -108.272 73.7837 -97.4813 -107.712 74.5242 -102.49 -111.418 70.623 
-101.307 -110.377 70.6461 -100.48 -109.512 71.3745 -99.5808 -108.515 72.5509 
-98.6003 -107.476 73.2433 -97.8223 -106.755 73.7683 -97.4431 -106.236 74.7645 
-103.609 -111.462 71.2225 -102.338 -110.311 71.2732 -101.388 -109.075 71.312 
-100.454 -107.887 71.9769 -99.4445 -106.76 72.8269 -98.6687 -105.906 73.4024 
-98.2141 -105.362 74.1593 -98.0386 -104.956 75.2847 -104.677 -111.409 71.4178 
-103.505 -110.401 71.8502 -102.526 -108.991 71.8234 -101.586 -107.495 71.893 
-100.517 -106.194 72.4158 -99.6528 -105.221 73.0516 -99.1739 -104.636 73.7456 
-98.9035 -104.283 74.7098 -98.7732 -104.046 75.825 -105.622 -111.144 71.2419 
-104.597 -110.263 71.8249 -103.656 -108.949 72.0637 -102.768 -107.374 72.089 
-101.725 -105.928 72.2808 -100.713 -104.794 72.7129 -100.079 -104.074 73.3283 
-99.7423 -103.717 74.1978 -99.5182 -103.526 75.2537 -99.4038 -103.434 76.3005 
-99.6265 -114.938 74.4882 -99.021 -113.499 74.8257 -99.1519 -114.52 75.4128 
-98.4253 -112.032 75.2479 -98.2983 -113.232 75.737 -98.4503 -114.2 76.4506 
-97.9947 -110.445 75.5021 -97.6956 -111.87 76.0773 -97.5294 -113.127 76.7766 
-97.9907 -113.893 77.7758 -97.5633 -108.706 75.57 -97.6115 -110.018 76.4301 
-97.3302 -111.602 77.1874 -97.3144 -112.836 78.2485 -98.0136 -113.419 79.1958 
-97.2686 -107.007 75.7762 -97.5241 -107.968 76.8586 -97.6103 -109.363 77.8183 
-97.3864 -111.033 78.8926 -97.5528 -112.199 79.825 -98.2724 -112.841 80.2828 
-97.5543 -105.537 76.2007 -97.4617 -106.284 77.3188 -97.5518 -107.305 78.4802 
-97.4796 -108.781 79.6336 -97.4963 -110.366 80.52 -97.98 -111.5 80.8724 
-98.7032 -112.369 81.0876 -98.2629 -104.46 76.6661 -97.8548 -105.067 77.7099 
-97.5495 -105.884 78.9269 -97.3375 -106.987 80.1443 -97.4173 -108.414 81.0179 
-97.9274 -109.849 81.3576 -98.6274 -111.021 81.5351 -99.2327 -112.059 81.9613 
-98.983 -103.772 77.0842 -98.5386 -104.239 78.0316 -98.0377 -104.866 79.1837 
-97.6023 -105.697 80.3816 -97.5658 -106.816 81.2499 -98.0586 -108.182 81.6264 
-98.7362 -109.548 81.8582 -99.2608 -110.753 82.3144 -99.6558 -111.824 82.9032 
-99.8016 -103.101 77.229 -99.39 -103.513 78.1185 -100.319 -102.742 78.2512 
-99.8472 -103.185 79.2552 -100.883 -102.322 79.3785 -98.8859 -103.969 79.1997 
-100.393 -102.79 80.4122 -101.5 -102.066 80.4849 -99.3216 -103.592 80.4045 
-98.3702 -104.552 80.413 -101.122 -102.641 81.4799 -102.278 -102.213 81.4184 
-99.9625 -103.31 81.5346 -99.0267 -104.249 81.5108 -98.1853 -105.45 81.3939 
-102.006 -102.798 82.5124 -103.172 -102.523 82.334 -100.777 -103.351 82.6442 
-99.8207 -104.224 82.5675 -99.1759 -105.35 82.2544 -98.5414 -106.71 81.8866 
-102.893 -102.971 83.6008 -104.041 -102.69 83.4337 -101.696 -103.505 83.7384 
-100.59 -104.355 83.6668 -99.916 -105.421 83.318 -99.5268 -106.712 82.7546 
-99.1053 -108.158 82.2244 -103.758 -103.234 84.5921 -104.896 -102.946 84.4747 
-102.702 -103.76 84.6349 -101.634 -104.544 84.5088 -100.661 -105.523 84.2833 
-100.071 -106.75 83.9115 -99.7598 -108.186 83.3428 -99.4909 -109.572 82.777 
-104.661 -103.824 85.2787 -105.775 -103.565 85.1588 -103.706 -104.333 85.2661 
-102.887 -105.082 85.0326 -101.957 -105.932 84.7821 -100.999 -106.973 84.6387 
-100.338 -108.286 84.362 -99.981 -109.638 83.8881 -99.7743 -110.82 83.3926 
-105.564 -104.588 85.7376 -106.603 -104.384 85.5864 -104.628 -105.045 85.7608 
-103.927 -105.825 85.5239 -103.273 -106.685 85.1829 -102.411 -107.55 84.9953 
-101.513 -108.597 84.8409 -100.842 -109.773 84.5277 -100.407 -110.892 84.1614 
-100.164 -111.899 83.7954 -100.098 -102.872 76.1195 -100.598 -102.394 77.0713 
-101 -102.207 75.93 -101.556 -101.588 76.8869 -102.107 -101.646 75.7964 
-101.206 -101.848 78.1447 -102.633 -101.034 76.7639 -103.271 -101.478 75.8465 
-102.143 -100.911 78.0287 -101.805 -101.386 79.3791 -103.881 -100.977 76.8317 
-104.448 -101.693 76.0689 -103.293 -100.371 77.9686 -102.799 -100.504 79.3876 
-102.492 -101.382 80.5266 -105.25 -101.328 76.9698 -105.725 -102.08 76.1776 
-104.779 -100.516 77.9934 -104.21 -100.135 79.3452 -103.711 -100.802 80.5389 
-103.421 -101.872 81.3894 -106.565 -101.882 76.9237 -107.099 -102.513 76.0402 
-106.146 -101.268 77.9812 -105.766 -100.652 79.2209 -105.28 -100.729 80.4392 
-104.819 -101.574 81.4082 -104.447 -102.311 82.3508 -107.894 -102.418 76.7691 
-108.413 -102.996 75.9321 -107.302 -102.104 77.8784 -106.928 -101.693 79.0686 
-106.654 -101.391 80.2689 -106.283 -101.632 81.4404 -105.87 -102.115 82.5446 
-105.409 -102.501 83.581 -109.208 -102.919 76.7321 -109.471 -103.605 76.0471 
-108.644 -102.621 77.7715 -108.125 -102.399 78.9436 -107.823 -102.14 80.1291 
-107.543 -102.071 81.4221 -107.211 -102.168 82.741 -106.828 -102.391 83.8274 
-106.326 -102.877 84.6002 -110.21 -103.56 76.8259 -110.204 -104.353 76.2727 
-109.953 -103.067 77.7101 -109.571 -102.717 78.8172 -109.229 -102.453 79.9985 
[...]
CELL_DATA 2000
SCALARS Distance double
LOOKUP_TABLE default
179.648 178.904 179.131 178.819 178.036 178.333 177.986 178.246 177.947 
176.931 177.354 176.999 177.334 176.991 177.343 177.093 175.687 176.155 
175.796 176.216 175.83 176.27 175.974 176.444 176.177 174.451 174.904 
174.526 174.949 174.538 175 174.675 175.209 174.934 175.431 175.092 
173.166 173.643 173.252 173.682 173.269 173.703 173.377 173.888 173.646 
174.158 173.875 174.311 173.989 171.883 172.334 171.96 172.401 172.007 
172.445 172.113 172.612 172.366 172.889 172.64 173.114 172.842 173.28 
173.051 170.764 171.126 170.773 171.156 170.776 171.186 170.836 171.326 
171.041 171.583 171.305 171.838 171.56 172.09 171.869 172.392 172.223 
169.785 170.091 169.74 170.059 169.669 170.003 169.618 170.041 169.736 
170.246 169.974 170.49 170.213 170.748 170.531 171.121 170.975 171.555 
171.413 180.011 180.285 179.87 179.281 180.46 180.089 179.462 179.068 
178.395 180.559 180.208 179.533 179.158 178.402 178.033 177.251 180.568 
180.261 179.561 179.184 178.376 177.97 177.129 176.781 175.991 180.378 
180.179 179.492 179.183 178.401 177.971 177.118 176.683 175.869 175.527 
174.768 180.031 179.902 179.263 179.053 178.333 177.99 177.173 176.731 
175.881 175.453 174.627 174.284 173.49 179.726 179.576 178.979 178.795 
178.1 177.848 177.06 176.728 175.882 175.477 174.596 174.174 173.309 
172.968 172.192 179.479 179.317 178.704 178.515 177.802 177.571 176.781 
176.522 175.719 175.411 174.581 174.172 173.304 172.864 172.054 171.724 
171.053 179.156 179.032 178.38 178.214 177.493 177.27 176.502 176.244 
175.485 175.219 174.474 174.145 173.353 172.921 172.108 171.681 170.958 
170.659 170.064 178.711 177.704 178.119 177.912 176.664 177.083 176.859 
177.273 177.02 175.485 176.001 175.772 176.21 175.946 176.341 176.046 
174.075 174.71 174.526 175.072 174.818 175.253 174.939 175.336 175.033 
172.776 173.322 173.207 173.775 173.554 174.05 173.714 174.167 173.827 
174.296 174.003 171.791 172.184 172.059 172.536 172.322 172.772 172.403 
172.849 172.454 172.98 172.655 173.209 172.888 170.846 171.206 170.938 
171.399 171.093 171.54 171.101 171.514 171.045 171.539 171.172 171.762 
171.447 172.019 171.671 169.862 170.168 169.759 170.17 169.708 170.171 
169.614 170.098 169.559 170.093 169.681 170.266 169.952 170.543 170.244 
170.8 170.515 169.033 169.221 168.785 169.017 168.456 168.736 168.054 
168.469 167.875 168.481 168.1 168.768 168.495 169.095 168.837 169.397 
169.178 169.739 169.587 168.979 168.469 168.423 167.866 168.078 167.929 
167.295 167.278 166.749 167.698 167.539 166.861 166.767 166.174 166.173 
165.643 167.158 167.028 166.298 166.29 165.653 165.631 164.979 164.992 
164.358 166.771 166.434 165.595 165.588 164.97 165.043 164.366 164.323 
163.544 163.565 162.895 167.024 166.335 165.458 165.054 164.45 164.373 
163.82 163.739 163.007 162.853 162.144 162.165 161.722 167.69 166.94 
166.189 165.396 164.75 164.208 163.676 163.365 162.763 162.484 161.856 
161.669 161.268 161.3 161.184 168.217 167.683 167.091 166.347 165.666 
164.862 164.179 163.534 162.887 162.426 161.842 161.55 161.172 161.078 
160.974 161.048 161.135 168.52 168.14 167.632 167.116 166.459 165.752 
164.974 164.204 163.44 162.767 162.124 161.659 161.249 161.054 160.923 
160.937 161.001 161.125 161.293 169.126 168.047 168.75 169.057 166.915 
167.625 167.92 168.65 168.942 165.788 166.484 166.735 167.461 167.75 
168.502 168.844 164.542 165.322 165.581 166.299 166.6 167.327 167.725 
168.491 168.959 163.142 163.996 164.347 165.152 165.537 166.268 166.743 
167.474 168.005 168.724 169.229 161.974 162.662 163.086 163.916 164.418 
165.232 165.795 166.575 167.162 167.861 168.366 169.014 169.482 161.405 
161.772 162.183 162.809 163.353 164.132 164.738 165.586 166.212 167.008 
167.54 168.198 168.658 169.293 169.806 161.348 161.481 161.848 162.183 
162.688 163.233 163.811 164.537 165.159 165.985 166.582 167.341 167.866 
168.526 169.065 169.711 170.289 161.522 161.567 161.908 162.056 162.498 
162.796 163.31 163.781 164.36 165.012 165.652 166.395 167.034 167.746 
168.356 169.016 169.611 170.238 170.782 161.751 162.292 162.052 162.164 
162.898 162.642 162.761 162.524 162.709 163.575 163.271 163.386 163.132 
163.311 163.125 163.428 164.462 164.032 164.149 163.806 164.016 163.774 
164.102 163.941 164.402 165.584 165.049 165.179 164.709 164.955 164.604 
164.993 164.732 165.219 165.049 165.647 166.772 166.225 166.358 165.847 
166.074 165.652 166.022 165.715 166.211 165.976 166.554 166.395 167.039 
167.963 167.412 167.556 167.049 167.269 166.804 167.106 166.747 167.186 
166.957 167.516 167.347 167.956 167.806 168.411 169.203 168.627 168.798 
168.278 168.553 168.05 168.373 167.893 168.294 167.946 168.477 168.275 
168.868 168.716 169.293 169.137 169.678 170.448 169.884 170.05 169.54 
169.841 169.374 169.757 169.259 169.67 169.186 169.666 169.306 169.85 
169.614 170.152 169.982 170.491 170.342 170.82 161.637 161.637 161.783 
162.137 161.747 161.79 162.106 162.308 162.719 162.147 161.973 162.179 
162.27 162.676 162.924 163.407 162.953 162.543 162.652 162.463 162.806 
162.929 163.501 163.73 164.329 164.032 163.515 163.644 163.192 163.487 
163.291 163.879 163.965 164.698 164.833 165.502 165.147 164.652 164.855 
164.364 164.69 164.266 164.806 164.615 165.367 165.365 166.119 166.122 
166.752 166.243 165.77 166.013 165.592 165.965 165.555 166.05 165.724 
166.387 166.221 166.966 166.867 167.533 167.415 167.987 167.358 166.885 
167.139 166.739 167.121 166.768 167.239 166.931 167.512 167.293 167.966 
167.804 168.46 168.287 168.874 168.691 169.243 168.435 167.997 168.243 
167.858 168.215 167.877 168.315 168.03 168.564 168.354 168.969 168.8 
169.411 169.234 169.804 169.616 170.162 169.972 170.497 168.537 168.318 
168.158 167.633 168.134 167.897 167.228 167.124 166.464 167.931 167.66 
166.851 166.656 165.879 165.791 165.008 167.652 167.387 166.53 166.265 
165.412 165.221 164.4 164.274 163.476 167.483 167.137 166.317 165.974 
165.128 164.831 163.999 163.759 162.951 162.794 162.114 167.619 167.149 
166.409 165.923 165.128 164.676 163.873 163.494 162.72 162.417 161.764 
161.619 161.218 167.91 167.421 166.737 166.196 165.459 164.877 164.122 
163.57 162.874 162.403 161.837 161.501 161.165 161.028 160.928 168.165 
167.715 167.044 166.554 165.864 165.31 164.615 164.009 163.371 162.788 
162.286 161.806 161.507 161.202 161.127 160.99 161.049 168.428 167.979 
167.347 166.863 166.231 165.723 165.111 164.557 163.972 163.392 162.89 
162.367 162.035 161.656 161.541 161.317 161.371 161.24 161.36 169.077 
170.028 169.319 168.938 171.166 170.374 169.961 169.234 168.851 172.288 
171.526 171.086 170.312 169.902 169.167 168.721 173.345 172.63 172.224 
171.442 171.002 170.235 169.775 168.996 168.47 174.393 173.698 173.357 
172.598 172.187 171.374 170.906 170.074 169.56 168.736 168.263 175.417 
174.748 174.428 173.731 173.374 172.589 172.127 171.257 170.744 169.879 
169.431 168.639 168.33 176.363 175.739 175.417 174.775 174.449 173.745 
173.306 172.472 171.945 171.086 170.642 169.851 169.544 168.815 168.593 
177.205 176.643 176.328 175.726 175.41 174.775 174.378 173.613 173.103 
172.268 171.819 171.051 170.745 170.028 169.783 169.077 168.844 177.938 
177.445 177.143 176.588 176.264 175.687 175.327 174.653 174.202 173.417 
172.98 172.217 171.902 171.198 170.939 170.24 169.979 169.289 169.06 
178.226 178.393 178.031 177.441 178.558 178.183 177.565 177.186 176.563 
178.692 178.335 177.684 177.289 176.611 176.265 175.606 178.75 178.43 
177.757 177.368 176.625 176.264 175.546 175.234 174.504 178.807 178.475 
177.806 177.409 176.637 176.243 175.5 175.164 174.45 174.102 173.362 
178.885 178.55 177.884 177.473 176.698 176.26 175.504 175.138 174.451 
174.098 173.399 173.01 172.314 178.878 178.588 177.92 177.552 176.787 
176.344 175.573 175.172 174.477 174.122 173.426 173.056 172.337 171.984 
171.313 178.856 178.552 177.912 177.571 176.857 176.441 175.697 175.272 
174.575 174.182 173.484 173.083 172.344 171.968 171.261 170.959 170.324 
178.994 178.61 178.02 177.627 176.989 176.56 175.876 175.429 174.755 
174.327 173.653 173.204 172.485 172.026 171.32 170.931 170.3 169.995 
169.422 178.948 178.474 178.472 177.928 177.77 177.911 177.383 177.403 
176.856 176.889 177.123 176.648 176.769 176.189 176.257 175.706 176.009 
176.217 175.723 175.92 175.329 175.478 174.886 175.046 174.543 175.167 
175.331 174.763 174.947 174.335 174.52 173.912 174.13 173.604 173.858 
173.396 174.267 174.438 173.832 173.994 173.385 173.543 172.942 173.127 
172.586 172.846 172.363 172.66 172.197 173.293 173.489 172.882 173.054 
172.467 172.637 172.058 172.206 171.636 171.831 171.321 171.593 171.127 
171.435 171.016 172.279 172.501 171.91 172.095 171.512 171.712 171.146 
171.323 170.724 170.89 170.325 170.562 170.087 170.38 169.97 170.299 
169.972 171.249 171.487 170.925 171.126 170.551 170.752 170.182 170.376 
169.775 169.946 169.35 169.563 169.063 169.35 168.94 169.267 168.927 
169.303 169.058 179.533 180.237 179.637 179.054 180.678 180.204 179.515 
178.964 178.244 180.806 180.434 179.689 179.244 178.453 178.003 177.295 
180.915 180.488 179.791 179.364 178.672 178.205 177.555 177.095 176.48 
181.232 180.722 180.145 179.642 179.136 178.593 178.049 177.478 176.885 
176.348 175.714 181.584 181.15 180.674 180.18 179.733 179.192 178.627 
178.027 177.318 176.748 176.014 175.517 174.8 181.726 181.465 181.009 
180.653 180.097 179.671 178.944 178.44 177.533 177.01 176.092 175.666 
174.866 174.496 173.767 181.631 181.501 181.007 180.776 180.088 179.766 
178.91 178.513 177.53 177.054 176.04 175.602 174.722 174.413 173.674 
173.398 172.702 181.37 181.309 180.788 180.615 179.886 179.59 178.721 
178.363 177.46 177.023 176.086 175.58 174.684 174.264 173.506 173.225 
172.552 172.304 171.644 179.906 180.644 180.4 180.627 181.375 181.066 
181.25 181.055 181.139 182.333 181.817 181.863 181.604 181.759 181.489 
181.4 183.574 182.935 182.906 182.35 182.509 182.177 182.313 181.807 
181.639 184.684 184.23 184.276 183.592 183.679 183.153 183.406 182.899 
182.917 182.164 181.951 185.32 185.152 185.265 184.843 184.85 184.371 
184.529 184.091 184.163 183.497 183.235 182.441 182.157 185.599 185.549 
185.6 185.484 185.467 185.254 185.291 185.046 185.051 184.607 184.301 
183.595 183.119 182.474 182.162 185.695 185.661 185.616 185.605 185.605 
185.581 185.608 185.53 185.483 185.25 184.952 184.447 183.911 183.289 
182.806 182.323 182.017 185.664 185.657 185.591 185.585 185.599 185.63 
185.679 185.68 185.605 185.486 185.191 184.89 184.395 183.921 183.378 
182.886 182.458 182.072 181.747 185.611 185.641 185.599 185.586 185.68 
185.654 185.622 185.596 185.616 185.402 185.55 185.481 185.577 185.581 
185.645 185.677 184.767 185.063 184.976 185.245 185.202 185.441 185.403 
185.575 185.502 183.989 184.316 184.209 184.574 184.508 184.866 184.76 
185.058 184.894 185.167 184.974 183.164 183.486 183.304 183.701 183.613 
184.055 183.95 184.296 184.091 184.391 184.166 184.476 184.198 182.3 
182.625 182.394 182.751 182.623 183.088 183.021 183.44 183.266 183.57 
183.326 183.621 183.361 183.627 183.282 181.414 181.759 181.575 181.886 
181.751 182.131 182.069 182.494 182.37 182.723 182.482 182.781 182.505 
182.79 182.493 182.718 182.387 180.516 180.885 180.756 181.101 180.982 
181.321 181.216 181.583 181.45 181.812 181.597 181.915 181.642 181.934 
181.655 181.929 181.659 181.892 181.638 179.959 179.164 179.786 180.213 
178.321 178.964 179.432 180.059 180.483 177.497 178.122 178.556 179.222 
179.673 180.306 180.7 176.609 177.28 177.666 178.317 178.718 179.408 
179.83 180.488 180.871 175.513 176.284 176.681 177.391 177.771 178.446 
178.868 179.562 179.993 180.643 181.007 174.385 175.129 175.56 176.342 
176.781 177.5 177.93 178.623 179.069 179.746 180.142 180.753 181.07 
173.46 174.086 174.521 175.252 175.745 176.493 176.942 177.66 178.081 
178.798 179.2 179.867 180.206 180.797 181.09 172.654 173.232 173.627 
174.29 174.763 175.487 175.937 176.644 177.037 177.757 178.16 178.886 
179.277 179.929 180.27 180.839 181.134 171.837 172.409 172.744 173.385 
173.793 174.508 174.938 175.643 176.029 176.716 177.116 177.841 178.282 
178.991 179.401 180.027 180.372 180.909 181.18 181.025 180.191 180.574 
180.397 179.18 179.626 179.383 179.772 179.433 178.028 178.518 178.246 
178.667 178.281 178.659 178.243 176.822 177.293 176.992 177.456 177.068 
177.473 177.044 177.436 177.01 175.687 176.08 175.704 176.144 175.721 
176.181 175.742 176.2 175.751 176.17 175.682 174.572 174.935 174.495 
174.871 174.405 174.814 174.359 174.827 174.387 174.854 174.364 174.774 
174.282 173.417 173.766 173.297 173.663 173.199 173.565 173.125 173.51 
173.101 173.511 173.078 173.465 173.009 173.415 173.059 172.363 172.628 
172.139 172.459 171.989 172.363 171.921 172.317 171.901 172.301 171.887 
172.255 171.824 172.191 171.828 172.29 172.063 171.466 171.656 171.159 
171.377 170.877 171.169 170.68 171.057 170.587 171.035 170.599 171.051 
170.621 171.025 170.629 171.064 170.786 171.324 171.152 179.724 180.027 
180.148 180.666 180.273 180.413 180.977 181.109 181.688 180.643 180.736 
181.373 181.475 182.154 182.235 182.895 181.044 181.181 181.866 181.966 
182.66 182.747 183.428 183.495 184.09 181.209 181.486 182.125 182.369 
182.976 183.167 183.728 183.902 184.394 184.515 184.842 181.162 181.504 
182.08 182.424 182.953 183.261 183.742 184.017 184.456 184.658 184.943 
185.006 185.093 181.05 181.401 181.981 182.318 182.86 183.151 183.65 
183.934 184.439 184.686 185.082 185.137 185.287 185.18 185.209 180.848 
181.242 181.812 182.201 182.756 183.078 183.57 183.851 184.342 184.646 
185.113 185.303 185.553 185.482 185.517 185.351 185.4 180.54 180.962 
181.466 181.923 182.412 182.856 183.283 183.675 184.058 184.443 184.826 
185.191 185.471 185.644 185.704 185.648 185.61 185.529 185.572 179.643 
180.637 180.037 179.794 181.664 181.056 180.861 180.198 179.942 182.823 
182.139 181.936 181.265 181.041 180.38 180.13 184.027 183.36 183.098 
182.358 182.094 181.448 181.201 180.545 180.149 184.843 184.453 184.216 
183.529 183.154 182.46 182.142 181.53 181.092 180.367 179.714 185.08 
184.993 184.875 184.487 184.111 183.464 183.014 182.385 181.904 181.224 
180.55 179.765 179.088 185.153 185.109 185.101 184.952 184.731 184.278 
183.81 183.193 182.653 181.994 181.369 180.607 179.955 179.22 178.778 
185.38 185.274 185.33 185.2 185.119 184.799 184.43 183.895 183.342 
182.718 182.112 181.424 180.819 180.113 179.642 179.041 178.759 185.618 
185.554 185.622 185.504 185.43 185.176 184.84 184.414 183.875 183.338 
182.728 182.126 181.525 180.906 180.395 179.837 179.464 178.987 178.692 
179 179.101 178.701 177.997 179.239 178.802 178.087 177.681 176.97 
179.418 178.966 178.227 177.785 177.01 176.6 175.778 179.385 179.07 
178.27 177.88 176.996 176.567 175.59 175.211 174.283 178.934 178.824 
178.018 177.779 176.837 176.444 175.364 174.939 173.929 173.653 172.898 
178.405 178.302 177.633 177.459 176.65 176.266 175.261 174.752 173.799 
173.402 172.711 172.484 171.969 178.223 177.982 177.477 177.23 176.637 
176.23 175.431 174.845 174.033 173.497 172.897 172.509 172.02 171.706 
171.169 178.27 177.998 177.526 177.246 176.723 176.359 175.692 175.17 
174.446 173.895 173.301 172.84 172.318 171.886 171.282 170.879 170.25 
178.22 178.026 177.504 177.277 176.698 176.424 175.767 175.398 174.694 
174.263 173.609 173.198 172.591 172.172 171.508 171.051 170.363 169.965 
169.388 179.572 179.464 179.795 180.373 179.51 179.791 180.434 180.685 
181.264 179.505 179.839 180.522 180.836 181.524 181.702 182.327 179.397 
179.758 180.418 180.847 181.548 181.91 182.558 182.797 183.441 179.325 
179.639 180.255 180.673 181.335 181.781 182.353 182.767 183.317 183.752 
184.339 179.256 179.568 180.147 180.519 181.164 181.562 182.125 182.47 
182.958 183.391 183.968 184.481 184.994 179.109 179.451 179.99 180.374 
180.998 181.416 182.043 182.354 182.9 183.159 183.768 184.144 184.783 
185.12 185.496 178.925 179.266 179.771 180.154 180.731 181.192 181.844 
182.278 182.908 183.219 183.842 184.132 184.775 185.049 185.504 185.614 
185.75 178.714 179.052 179.507 179.885 180.4 180.864 181.477 181.997 
182.646 183.124 183.742 184.151 184.708 185.043 185.429 185.615 185.734 
185.76 185.711 
POINT_DATA 1002
SCALARS Distance double
LOOKUP_TABLE default
179.362 180.138 179.447 178.585 178.684 178.513 177.733 177.694 177.641 
177.688 176.637 176.463 176.629 176.704 176.89 175.37 175.232 175.384 
175.479 175.741 175.903 174.116 174.008 174.095 174.139 174.41 174.654 
174.722 172.807 172.685 172.838 172.876 173.119 173.412 173.56 173.686 
171.514 171.453 171.562 171.624 171.842 172.139 172.372 172.596 172.872 
170.413 170.427 170.395 170.373 170.514 170.772 171.005 171.304 171.71 
172.09 169.436 169.493 169.372 169.244 169.239 169.458 169.697 169.938 
170.352 170.865 171.286 180.45 179.715 180.691 179.865 180.828 178.808 
179.935 180.915 178.803 177.599 179.934 180.86 178.818 177.51 176.283 
179.745 180.532 178.801 177.587 176.259 175.069 179.431 180.132 178.616 
177.584 176.351 175.035 173.78 179.168 179.88 178.34 177.346 176.251 
175.048 173.709 172.441 178.907 179.651 178.04 177.028 175.972 174.937 
173.762 172.444 171.28 178.539 179.28 177.697 176.746 175.734 174.751 
173.739 172.561 171.322 170.273 178.316 177.504 177.295 176.452 176.247 
176.621 175.306 174.905 175.559 175.66 173.921 173.401 174.352 174.544 
174.617 172.646 172.284 173.056 173.259 173.343 173.525 171.626 171.468 
171.91 172.005 171.948 172.075 172.368 170.527 170.546 170.667 170.708 
170.594 170.597 170.845 171.131 169.434 169.608 169.32 169.141 168.997 
169.09 169.36 169.655 169.95 168.624 168.869 168.302 167.751 167.273 
167.358 167.855 168.272 168.587 168.997 168.45 167.824 167.327 167.377 
166.688 166.236 166.97 166.24 165.599 165.097 166.263 165.665 165.059 
164.283 163.696 165.685 164.839 164.411 163.631 162.719 162.274 166.05 
164.641 163.874 163.181 162.211 161.504 161.392 167.022 165.498 164.113 
163.047 162.067 161.295 161.009 161.158 167.73 166.524 164.98 163.449 
162.171 161.292 160.934 160.983 161.269 168.069 167.099 165.756 164.189 
162.687 161.518 160.939 160.899 161.126 161.486 168.366 167.185 168.213 
166.036 166.989 168.053 164.836 165.874 166.942 168.183 163.458 164.751 
165.991 167.3 168.536 162.26 163.546 164.963 166.441 167.752 168.811 
161.67 162.626 163.894 165.365 166.838 168.035 169.13 161.62 162.259 
163.186 164.36 165.757 167.154 168.414 169.652 161.814 162.293 162.947 
163.801 164.923 166.278 167.673 168.985 170.199 161.956 162.389 162.534 
163.006 163.159 162.892 163.653 163.917 163.502 163.542 164.529 164.944 
164.268 164.282 164.484 165.676 166.136 165.336 165.266 165.434 165.742 
166.866 167.318 166.534 166.357 166.448 166.754 167.17 168.053 168.52 
167.751 167.525 167.438 167.674 168.122 168.578 169.311 169.781 169.031 
168.878 168.72 168.728 169.031 169.452 169.852 170.562 171.004 170.279 
170.214 170.182 170.112 170.161 170.36 170.645 170.977 161.47 161.925 
161.52 161.928 161.797 162.47 162.2 162.448 162.416 163.148 162.984 
163.43 162.777 163.229 164.129 164.134 164.533 163.819 163.871 164.541 
165.428 165.293 165.617 165.142 165.112 165.436 166.128 166.805 166.404 
166.712 166.344 166.413 166.626 167.101 167.671 168.126 167.542 167.823 
167.473 167.549 167.758 168.156 168.643 169.069 169.43 168.627 168.859 
168.562 168.614 168.786 169.152 169.603 169.991 170.352 170.707 168.674 
167.735 168.547 167.411 168.446 166.54 167.125 168.225 166.02 165.081 
166.815 167.919 165.653 164.567 163.556 166.682 167.851 165.457 164.276 
163.158 162.143 166.916 168.094 165.633 164.296 163.051 161.956 161.199 
167.255 168.383 166.041 164.706 163.368 162.206 161.353 160.949 167.51 
168.606 166.368 165.186 163.957 162.793 161.864 161.31 161.126 169.69 
169.595 170.802 170.728 171.971 169.563 171.883 173.013 170.65 169.496 
172.997 174.028 171.797 170.563 169.269 174.074 175.082 173.003 171.765 
170.393 169.022 175.092 176.081 174.121 173.004 171.616 170.226 169.048 
176.049 176.962 175.116 174.116 172.802 171.421 170.281 169.304 176.921 
177.735 176.018 175.098 173.925 172.585 171.454 170.501 169.544 177.683 
178.398 176.828 175.949 174.939 173.744 172.614 171.641 170.678 169.718 