# vtk DataFile Version 4.0
vtk output
ASCII
DATASET POLYDATA
POINTS 1002 float
-106.362 -121.219 78.1085 -106.937 -122.307 77.7948 -106.441 -122.041 77.1015 
-105.84 -120.8 77.4446 -106.09 -121.491 76.2217 -105.664 -119.985 78.5058 
-105.41 -120.161 76.5592 -105.846 -120.586 75.2702 -105.024 -119.553 77.8049 
-104.81 -118.86 78.9207 -105.001 -119.262 75.6299 -105.502 -119.536 74.4968 
-104.437 -118.931 76.8919 -104.13 -118.311 78.1187 -103.98 -117.628 79.2942 
-104.527 -118.217 74.8683 -105.036 -118.539 73.8562 -103.91 -118.008 76.028 
-103.518 -117.509 77.2119 -103.409 -116.758 78.4265 -103.198 -116.164 79.713 
-104.018 -117.163 74.1188 -104.622 -117.48 73.2033 -103.401 -116.904 75.2569 
-102.914 -116.515 76.4414 -102.772 -115.82 77.5742 -102.625 -115.226 78.8604 
-102.3 -114.872 80.1867 -103.475 -116.131 73.3565 -104.256 -116.292 72.6865 
-102.793 -115.892 74.3487 -102.215 -115.578 75.6311 -101.885 -115.066 76.8458 
-101.772 -114.498 78.0404 -101.561 -114.129 79.3675 -101.369 -113.785 80.567 
-102.917 -115.087 72.8168 -103.839 -115.141 72.3269 -102.096 -114.986 73.5015 
-101.447 -114.788 74.6402 -100.911 -114.484 76.0042 -100.65 -114.028 77.2825 
-100.602 -113.537 78.5517 -100.573 -113.087 79.7852 -100.64 -112.609 80.8261 
-102.45 -114.035 72.4148 -103.404 -114.121 71.9208 -101.532 -114.006 72.956 
-100.828 -113.923 73.801 -100.22 -113.78 75.0446 -99.7601 -113.503 76.4283 
-99.6649 -113.009 77.7602 -99.7881 -112.415 79.0116 -99.9558 -111.862 80.1101 
-100.172 -111.403 81.059 -102.093 -113.046 71.9455 -103.01 -113.195 71.456 
-101.188 -112.979 72.5052 -100.477 -112.906 73.219 -99.8986 -112.797 74.2253 
-99.3863 -112.629 75.5068 -99.1512 -112.271 76.8841 -99.223 -111.708 78.2198 
-99.3974 -111.117 79.4173 -99.6192 -110.64 80.4266 -99.884 -110.299 81.3052 
-107.246 -123.031 77.0244 -106.736 -122.831 76.1032 -107.751 -123.601 75.9841 
-107.253 -123.395 74.8605 -108.526 -124.002 74.7353 -106.46 -122.182 75.0603 
-108.147 -123.613 73.618 -109.53 -124.164 73.535 -107.063 -122.616 73.8669 
-106.291 -121.107 74.1835 -109.252 -123.567 72.6157 -110.607 -124.125 72.4963 
-108.041 -122.653 72.8825 -106.945 -121.46 73.2101 -105.96 -120.012 73.5423 
-110.247 -123.493 71.6665 -111.684 -123.978 71.5054 -109.047 -122.557 71.9841 
-107.854 -121.517 72.3055 -106.615 -120.376 72.5658 -105.559 -118.945 72.8909 
-111.252 -123.247 70.6703 -112.812 -123.565 70.6332 -109.9 -122.522 70.8988 
-108.694 -121.544 71.2607 -107.411 -120.503 71.5112 -106.241 -119.171 71.8346 
-105.282 -117.622 72.3188 -112.447 -122.553 69.9906 -113.903 -122.823 70.0426 
-110.98 -122.135 69.9931 -109.603 -121.45 70.2529 -108.233 -120.521 70.5518 
-106.962 -119.256 70.8536 -105.948 -117.69 71.3969 -104.984 -116.232 71.9822 
-113.564 -121.655 69.6582 -114.775 -122.014 69.598 -112.24 -121.288 69.6156 
-110.809 -120.846 69.6963 -109.289 -120.198 69.9271 -107.829 -119.204 70.1792 
-106.607 -117.828 70.5913 -105.588 -116.34 71.1739 -104.552 -115.076 71.6518 
-114.357 -120.895 69.2759 -115.394 -121.318 69.0829 -113.235 -120.437 69.3613 
-111.933 -120.002 69.3941 -110.426 -119.521 69.5032 -108.901 -118.842 69.6922 
-107.515 -117.834 69.9854 -106.277 -116.546 70.4257 -105.168 -115.218 70.8886 
-104.103 -114.075 71.2336 -115.258 -120.389 68.5892 -114.184 -119.882 68.7782 
-115.053 -119.341 68.0073 -113.826 -118.905 68.0329 -114.734 -118.281 67.4547 
-112.955 -119.395 68.8472 -113.216 -118.036 67.2419 -114.148 -117.205 67.0109 
-112.309 -118.565 67.9612 -111.457 -118.942 68.8757 -112.375 -116.843 66.7445 
-113.278 -115.777 66.7095 -111.465 -117.724 67.157 -110.683 -118.108 68.0593 
-109.904 -118.379 69.0339 -111.55 -114.979 66.6987 -112.452 -114.094 66.8138 
-110.745 -116.147 66.9761 -110.046 -116.984 67.6471 -109.391 -117.275 68.5549 
-108.521 -117.534 69.3828 -111.019 -113.182 67.2029 -111.92 -112.767 67.5421 
-110.277 -114.051 67.3773 -109.662 -115.122 67.9627 -109.049 -115.738 68.6513 
-108.208 -116.034 69.2867 -107.146 -116.36 69.8556 -110.686 -111.977 68.175 
-111.511 -111.744 68.5708 -109.928 -112.394 68.1295 -109.237 -113.168 68.5402 
-108.562 -113.844 69.1249 -107.762 -114.192 69.5994 -106.726 -114.589 69.9387 
-105.759 -115.011 70.3271 -110.261 -110.803 69.1717 -110.992 -110.509 69.4253 
-109.493 -111.046 69.0044 -108.649 -111.485 69.0802 -107.782 -112.034 69.4102 
-106.975 -112.376 69.862 -106.105 -112.699 70.207 -105.193 -113.237 70.3987 
-104.511 -113.745 70.7013 -109.697 -109.309 69.8414 -110.392 -109.033 69.9798 
-108.923 -109.5 69.6937 -107.987 -109.745 69.5711 -106.951 -110.189 69.5521 
-106.048 -110.659 69.7844 -105.284 -111.039 70.2173 -104.506 -111.54 70.5187 
-103.813 -112.176 70.6596 -103.339 -112.742 70.948 -102.034 -112.148 71.272 
-102.323 -111.531 70.8144 -100.957 -111.051 71.033 -102.821 -110.803 70.5842 
-101.17 -110.259 70.532 -100.042 -109.728 70.7987 -103.564 -110.056 70.3356 
-101.751 -109.327 70.1779 -100.29 -108.662 70.1781 -99.6428 -107.933 70.8117 
-104.361 -109.389 69.9324 -102.649 -108.376 69.8618 -101.026 -107.493 69.7244 
-100.023 -106.641 70.1488 -99.6441 -105.855 71.1511 -105.205 -108.739 69.7224 
-103.553 -107.511 69.7852 -102.033 -106.455 69.6615 -100.797 -105.426 69.7436 
-100.051 -104.571 70.5045 -99.6013 -103.9 71.5252 -106.3 -108.183 69.8309 
-104.549 -106.827 70.0175 -103.047 -105.707 70.0651 -101.815 -104.502 69.8922 
-100.804 -103.439 70.0959 -100.039 -102.726 70.903 -99.5181 -102.169 71.8426 
-107.505 -107.9 69.9943 -105.856 -106.446 70.1895 -104.291 -105.277 70.3897 
-103.046 -103.952 70.3237 -101.986 -102.593 70.1436 -100.97 -101.714 70.4977 
-100.166 -101.192 71.3495 -99.6902 -100.772 72.3174 -108.529 -107.781 70.1244 
-107.199 -106.3 70.2449 -105.801 -105.06 70.3909 -104.546 -103.701 70.5038 
-103.488 -102.17 70.4105 -102.415 -101.065 70.4973 -101.352 -100.5 71.114 
-100.587 -100.125 72.0166 -100.176 -99.8666 72.9882 -109.353 -107.642 70.271 
-108.273 -106.231 70.4039 -107.151 -104.961 70.4785 -106.02 -103.629 70.6006 
-104.981 -102.13 70.6768 -103.975 -100.909 70.7861 -102.884 -100.221 71.2322 
-101.879 -99.7826 71.9847 -101.199 -99.4519 72.8201 -100.826 -99.3169 73.7155 
-101.101 -112.007 71.7811 -100.19 -110.84 71.6102 -100.353 -111.865 72.4918 
-99.5941 -109.29 71.594 -99.6945 -110.498 72.526 -99.7934 -111.657 73.4221 
-99.4096 -107.256 71.8683 -99.2759 -108.679 72.7246 -99.2615 -110.041 73.6786 
-99.3005 -111.408 74.6038 -99.3368 -105.123 72.225 -99.0842 -106.559 73.0421 
-98.95 -108.055 74.0086 -98.9791 -109.586 75.0127 -99.0168 -111.09 75.9894 
-99.1912 -103.162 72.5148 -98.978 -104.488 73.359 -98.894 -105.997 74.3923 
-98.9585 -107.536 75.4657 -99.0055 -109.138 76.5008 -99.0163 -110.618 77.4581 
-99.196 -101.454 72.9563 -98.927 -102.547 73.8326 -98.9186 -104.006 74.922 
-99.0556 -105.541 76.032 -99.0825 -107.091 77.0791 -99.0089 -108.691 78.0761 
-99.0814 -110.082 78.8741 -99.5346 -100.271 73.6257 -99.0658 -100.987 74.5359 
-98.9208 -102.153 75.6356 -99.0471 -103.631 76.7157 -99.0687 -105.165 77.718 
-98.9137 -106.757 78.7207 -98.92 -108.329 79.5614 -99.2053 -109.635 80.0841 
-100.152 -99.6403 74.3615 -99.5165 -100.095 75.2804 -99.0884 -100.821 76.3511 
-99.0152 -101.967 77.3662 -99.0342 -103.412 78.2905 -98.8798 -104.958 79.2661 
-98.808 -106.551 80.1731 -99.0592 -108.058 80.7456 -99.477 -109.309 81.0474 
-101.119 -99.047 74.8669 -100.441 -99.4872 75.7675 -101.443 -98.7492 76.2884 
-100.804 -99.2788 77.3592 -101.743 -98.3513 77.8943 -99.744 -99.9704 76.8435 
-101.197 -99.0078 78.931 -102.112 -98.1523 79.4115 -100.109 -99.8542 78.3962 
-99.2835 -100.691 77.8729 -101.661 -99.0281 80.2695 -102.729 -98.4342 80.6403 
-100.564 -99.8255 79.8482 -99.6429 -100.703 79.3039 -99.1538 -101.878 78.7813 
-102.291 -99.3664 81.4208 -103.472 -98.8945 81.7484 -101.111 -100.024 81.1466 
-100.131 -100.871 80.7337 -99.461 -101.979 80.2162 -99.0475 -103.389 79.7503 
-102.942 -99.6825 82.668 -104.052 -99.2924 82.9747 -101.796 -100.286 82.3451 
-100.747 -101.117 82.0253 -99.9494 -102.162 81.629 -99.3641 -103.466 81.1952 
-98.9521 -104.991 80.7427 -103.481 -100.04 83.9824 -104.568 -99.8279 84.182 
-102.481 -100.556 83.5756 -101.515 -101.41 83.1366 -100.61 -102.42 82.7742 
-99.918 -103.577 82.3897 -99.4469 -105.026 81.9458 -99.1508 -106.617 81.4081 
-104.077 -100.612 85.0233 -105.242 -100.517 85.0945 -103.089 -100.99 84.7041 
-102.284 -101.815 84.1904 -101.466 -102.835 83.7246 -100.659 -103.86 83.3123 
-100.087 -105.129 82.8545 -99.752 -106.678 82.3413 -99.5565 -108.138 81.7331 
-104.796 -101.271 85.7073 -105.965 -101.162 85.7075 -103.724 -101.569 85.5577 
-102.936 -102.303 85.1489 -102.312 -103.329 84.6263 -101.609 -104.329 84.1275 
-100.889 -105.424 83.6462 -100.364 -106.823 83.1761 -100.074 -108.255 82.6478 
-99.9368 -109.401 81.9973 -101.748 -98.8371 73.908 -102.016 -98.3912 75.0413 
-102.84 -98.3694 74.2356 -103.04 -97.8271 75.2994 -104.132 -98.1457 74.6956 
-102.234 -97.9404 76.4777 -104.436 -97.7089 75.6778 -105.529 -98.2988 75.277 
-103.24 -97.4549 76.6911 -102.479 -97.5904 78.1758 -106.109 -97.9264 76.2419 
-106.783 -98.7085 75.9028 -104.964 -97.4378 77.0231 -103.72 -97.3243 78.5151 
-103.052 -97.659 79.8358 -107.519 -98.2519 76.8851 -107.902 -99.2056 76.3861 
-106.995 -97.4925 77.5491 -105.823 -97.2875 78.9647 -104.622 -97.5204 80.4121 
-103.955 -98.1078 81.1682 -108.632 -98.7439 77.365 -109.141 -99.6568 76.6567 
-108.406 -97.7494 78.0998 -107.832 -97.2703 79.388 -106.645 -97.4289 80.9161 
-105.517 -97.8996 81.7821 -104.733 -98.5758 82.2648 -109.825 -99.3326 77.6658 
-110.395 -100.091 76.8704 -109.385 -98.4555 78.5141 -109.017 -97.7551 79.6622 
-108.257 -97.6166 81.0869 -107.135 -97.888 82.1367 -106.114 -98.413 82.7208 
-105.291 -99.1376 83.3904 -110.945 -99.9787 77.9375 -111.322 -100.703 77.1496 
-110.445 -99.2928 78.8411 -109.961 -98.649 79.9003 -109.4 -98.3099 81.1161 
-108.56 -98.3369 82.2224 -107.579 -98.6106 83.0385 -106.704 -99.1796 83.7613 
-105.945 -99.9018 84.4919 -111.705 -100.781 78.2202 -111.926 -101.499 77.4596 
-111.379 -100.128 79.1216 -110.972 -99.5139 80.1563 -110.495 -99.1036 81.2585 
[...]
CELL_DATA 2000
SCALARS Distance double
LOOKUP_TABLE default
178.557 177.684 177.948 177.534 176.618 176.977 176.556 176.85 176.427 
175.396 175.813 175.392 175.777 175.335 175.691 175.275 174.131 174.54 
174.097 174.532 174.073 174.491 174.027 174.455 174.032 172.862 173.245 
172.75 173.193 172.718 173.163 172.674 173.121 172.682 173.165 172.795 
171.584 171.935 171.374 171.806 171.309 171.778 171.299 171.751 171.314 
171.798 171.456 171.97 171.667 170.353 170.648 170.036 170.412 169.89 
170.356 169.909 170.383 169.973 170.452 170.117 170.636 170.356 170.873 
170.584 169.198 169.443 168.814 169.112 168.574 168.977 168.558 169.024 
168.669 169.143 168.834 169.329 169.067 169.574 169.32 169.813 169.566 
168.111 168.322 167.702 167.949 167.417 167.744 167.332 167.744 167.421 
167.879 167.608 168.088 167.857 168.341 168.127 168.599 168.399 168.872 
168.707 178.986 179.28 178.824 178.131 179.493 179.06 178.351 177.878 
177.072 179.697 179.247 178.519 178.055 177.247 176.738 175.867 179.918 
179.455 178.722 178.235 177.447 176.922 176.063 175.517 174.637 180.101 
179.66 178.917 178.441 177.649 177.141 176.292 175.738 174.844 174.29 
173.401 180.2 179.792 179.015 178.581 177.767 177.31 176.447 175.937 
175.013 174.474 173.547 173.028 172.138 180.209 179.836 179.05 178.637 
177.834 177.399 176.556 176.062 175.134 174.596 173.645 173.135 172.237 
171.759 170.91 180.124 179.808 179.06 178.673 177.909 177.483 176.687 
176.196 175.312 174.746 173.809 173.247 172.352 171.852 171.016 170.552 
169.749 179.926 179.688 178.98 178.667 177.919 177.548 176.757 176.322 
175.474 174.955 174.064 173.483 172.599 172.029 171.188 170.674 169.872 
169.411 168.649 179.536 178.56 178.92 178.601 177.448 177.854 177.527 
177.914 177.546 176.23 176.668 176.279 176.731 176.347 176.774 176.357 
174.762 175.316 174.877 175.402 174.986 175.478 175.07 175.522 175.074 
173.091 173.672 173.246 173.897 173.55 174.115 173.759 174.222 173.815 
174.215 173.724 171.802 172.098 171.694 172.261 172.055 172.692 172.461 
172.962 172.581 172.969 172.47 172.824 172.279 171.109 171.136 170.704 
170.965 170.758 171.28 171.101 171.645 171.257 171.691 171.123 171.513 
170.918 171.33 170.809 170.457 170.541 170.014 170.149 169.727 170.074 
169.711 170.217 169.744 170.241 169.621 170.069 169.433 169.892 169.352 
169.857 169.434 169.471 169.713 169.087 169.304 168.643 168.931 168.278 
168.712 168.078 168.605 167.974 168.493 167.885 168.377 167.85 168.366 
167.952 168.515 168.191 167.345 167.027 166.743 165.894 166.848 166.439 
165.454 165.192 164.325 166.793 166.282 165.177 164.758 163.708 163.537 
162.75 166.781 166.207 165.025 164.505 163.33 162.952 162.001 161.971 
161.362 166.858 166.192 164.982 164.388 163.223 162.685 161.639 161.334 
160.607 160.666 160.185 167.166 166.379 165.207 164.476 163.414 162.755 
161.754 161.177 160.33 160.066 159.495 159.554 159.126 167.674 166.85 
165.771 164.916 163.944 163.173 162.282 161.523 160.643 160.028 159.343 
159.073 158.646 158.639 158.362 168.196 167.444 166.466 165.618 164.703 
163.885 163.066 162.234 161.406 160.575 159.855 159.237 158.803 158.481 
158.291 158.18 158.151 168.62 167.97 167.086 166.333 165.487 164.706 
163.937 163.116 162.363 161.486 160.818 160.018 159.601 159.004 158.843 
158.452 158.458 158.268 158.409 167.301 165.89 166.695 166.886 164.41 
165.273 165.543 166.35 166.634 162.952 163.824 164.175 165.031 165.397 
166.192 166.563 161.622 162.432 162.802 163.673 164.078 164.946 165.376 
166.198 166.643 160.411 161.153 161.472 162.311 162.712 163.608 164.09 
164.991 165.521 166.352 166.858 159.284 159.939 160.212 161.004 161.43 
162.298 162.852 163.748 164.375 165.248 165.856 166.635 167.154 158.458 
158.893 159.153 159.818 160.309 161.129 161.781 162.636 163.324 164.167 
164.833 165.648 166.238 166.965 167.454 158.206 158.331 158.587 158.974 
159.479 160.149 160.852 161.664 162.379 163.185 163.839 164.644 165.27 
166.049 166.61 167.289 167.761 158.465 158.379 158.644 158.727 159.175 
159.54 160.182 160.823 161.532 162.277 162.93 163.687 164.323 165.102 
165.734 166.464 167.023 167.642 168.114 158.783 159.445 159.056 159.003 
160.198 159.82 159.805 159.377 159.467 160.999 160.623 160.671 160.231 
160.291 159.954 160.305 161.988 161.505 161.594 161.136 161.224 160.819 
161.105 160.928 161.514 163.195 162.6 162.669 162.146 162.283 161.819 
162.098 161.789 162.301 162.203 162.875 164.435 163.825 163.856 163.295 
163.433 162.944 163.225 162.843 163.302 163.068 163.684 163.588 164.279 
165.659 165.038 165.067 164.494 164.628 164.129 164.394 163.98 164.38 
164.085 164.634 164.467 165.125 165.033 165.71 166.919 166.271 166.285 
165.701 165.848 165.347 165.629 165.176 165.535 165.154 165.626 165.401 
166.011 165.902 166.551 166.45 167.034 168.127 167.51 167.485 166.908 
167.035 166.559 166.862 166.432 166.8 166.357 166.764 166.414 166.952 
166.775 167.4 167.285 167.847 167.697 168.159 158.882 159.276 159.148 
159.437 159.909 159.56 159.694 159.699 160.085 160.968 160.341 160.321 
160.024 160.313 160.369 160.859 162.333 161.59 161.567 160.926 161.145 
160.83 161.337 161.309 161.933 163.672 163.004 163.064 162.37 162.611 
162.027 162.515 162.14 162.779 162.6 163.249 164.906 164.307 164.395 
163.819 164.088 163.573 164.025 163.55 164.064 163.668 164.205 163.966 
164.522 166.125 165.548 165.652 165.097 165.347 164.914 165.333 164.957 
165.374 164.956 165.332 164.979 165.442 165.224 165.758 167.303 166.782 
166.939 166.387 166.632 166.148 166.536 166.154 166.582 166.177 166.544 
166.118 166.548 166.226 166.778 166.528 167.077 168.379 167.935 168.137 
167.663 167.923 167.445 167.801 167.376 167.816 167.403 167.84 167.386 
167.839 167.428 167.967 167.641 168.19 167.877 168.335 168.555 168.103 
167.906 167.085 167.878 167.547 166.702 166.438 165.593 167.746 167.389 
166.506 166.151 165.261 164.966 164.093 167.521 167.216 166.332 165.98 
165.046 164.682 163.74 163.444 162.537 167.347 166.997 166.167 165.808 
164.916 164.507 163.574 163.17 162.272 161.933 161.091 167.435 166.969 
166.203 165.751 164.945 164.468 163.623 163.137 162.333 161.871 161.129 
160.688 159.997 167.707 167.201 166.49 165.958 165.224 164.663 163.904 
163.34 162.62 162.099 161.439 160.931 160.295 159.802 159.245 168.016 
167.531 166.877 166.342 165.668 165.082 164.39 163.773 163.092 162.502 
161.849 161.307 160.677 160.173 159.614 159.179 158.782 168.346 167.878 
167.278 166.762 166.131 165.571 164.923 164.329 163.675 163.056 162.381 
161.765 161.094 160.549 159.991 159.559 159.193 158.851 158.668 169.378 
170.444 169.574 168.948 171.55 170.688 170.116 169.246 168.733 172.704 
171.849 171.338 170.467 169.984 169.12 168.623 173.904 173.065 172.587 
171.716 171.241 170.38 169.861 168.969 168.397 175.03 174.272 173.812 
172.967 172.467 171.613 171.086 170.196 169.614 168.709 168.183 175.996 
175.33 174.905 174.143 173.647 172.815 172.283 171.408 170.861 169.959 
169.459 168.59 168.22 176.929 176.273 175.891 175.188 174.753 173.973 
173.468 172.609 172.08 171.207 170.74 169.895 169.521 168.715 168.437 
177.882 177.238 176.875 176.183 175.786 175.058 174.604 173.793 173.276 
172.421 171.947 171.138 170.765 169.992 169.682 168.933 168.688 178.732 
178.169 177.812 177.162 176.752 176.068 175.635 174.898 174.418 173.607 
173.128 172.324 171.939 171.189 170.881 170.146 169.876 169.168 168.965 
179.047 179.197 178.81 178.138 179.318 178.916 178.198 177.807 177.071 
179.407 179.008 178.249 177.84 177.072 176.694 175.942 179.419 179.055 
178.296 177.889 177.098 176.689 175.9 175.531 174.743 179.464 179.069 
178.341 177.933 177.152 176.724 175.911 175.495 174.677 174.294 173.49 
179.657 179.198 178.49 178.029 177.263 176.795 175.974 175.518 174.689 
174.263 173.461 173.071 172.324 179.851 179.422 178.705 178.232 177.457 
176.95 176.114 175.606 174.766 174.305 173.511 173.093 172.345 171.966 
171.273 179.89 179.545 178.813 178.402 177.613 177.141 176.298 175.778 
174.925 174.421 173.621 173.172 172.424 172.015 171.3 170.937 170.275 
179.816 179.523 178.806 178.441 177.66 177.243 176.431 175.959 175.137 
174.624 173.823 173.325 172.571 172.118 171.403 170.994 170.325 169.969 
169.367 179.535 178.71 178.944 178.508 177.695 178.022 177.568 177.821 
177.338 176.55 176.935 176.516 176.822 176.344 176.608 176.119 175.326 
175.751 175.349 175.729 175.285 175.594 175.109 175.37 174.861 173.95 
174.442 173.999 174.481 174.045 174.469 173.99 174.321 173.792 174.071 
173.546 172.505 173 172.563 173.069 172.653 173.147 172.694 173.114 
172.586 172.934 172.393 172.727 172.249 171.228 171.641 171.275 171.702 
171.336 171.782 171.375 171.794 171.307 171.68 171.162 171.528 171.059 
171.447 171.053 170.128 170.492 170.135 170.505 170.113 170.517 170.095 
170.508 170.037 170.417 169.925 170.297 169.854 170.25 169.876 170.291 
169.972 169.064 169.42 169.004 169.356 168.868 169.255 168.766 169.202 
168.729 169.151 168.675 169.069 168.634 169.048 168.693 169.125 168.829 
169.261 169.013 179.981 180.353 179.853 179.174 180.694 180.176 179.438 
178.935 178.145 181.057 180.499 179.676 179.134 178.275 177.788 176.953 
181.325 180.829 179.953 179.358 178.405 177.864 176.98 176.556 175.729 
181.265 180.957 180.078 179.57 178.521 177.951 176.953 176.524 175.652 
175.28 174.386 180.904 180.731 179.877 179.533 178.45 177.946 176.806 
176.383 175.401 175.098 174.168 173.826 172.895 180.466 180.322 179.514 
179.241 178.22 177.773 176.601 176.139 175.063 174.749 173.803 173.525 
172.607 172.318 171.515 180.025 179.909 179.164 178.912 177.991 177.571 
176.492 175.969 174.897 174.453 173.513 173.177 172.305 172.013 171.218 
171.009 170.358 179.542 179.477 178.794 178.596 177.761 177.408 176.445 
175.95 174.946 174.416 173.48 173.021 172.161 171.782 170.982 170.711 
170.025 169.881 169.294 180.546 181.595 181.04 180.974 182.738 182.193 
182.175 181.511 181.408 183.755 183.373 183.497 182.845 182.768 181.995 
181.839 184.592 184.325 184.585 184.14 184.126 183.406 183.175 182.382 
182.095 185.517 185.171 185.381 185.062 185.066 184.576 184.29 183.609 
183.175 182.455 181.993 186.35 186.074 186.139 185.791 185.68 185.276 
184.944 184.449 183.955 183.362 182.808 182.159 181.603 186.544 186.584 
186.585 186.415 186.198 185.811 185.385 184.923 184.408 183.936 183.381 
182.846 182.264 181.67 181.114 186.269 186.444 186.438 186.539 186.344 
186.173 185.72 185.32 184.755 184.306 183.743 183.291 182.708 182.217 
181.632 181.123 180.591 186.134 186.163 186.143 186.243 186.103 186.103 
185.731 185.519 184.984 184.62 184.044 183.616 183.026 182.571 181.971 
181.524 180.964 180.54 180.039 186.199 186.249 186.172 186.088 186.05 
186.114 185.921 185.971 185.885 185.459 185.723 185.507 185.641 185.403 
185.597 185.442 184.607 184.983 184.809 185.068 184.796 184.997 184.751 
185.003 184.755 183.656 184.071 183.909 184.269 184.022 184.29 184.005 
184.265 183.985 184.224 183.876 182.638 183.085 182.906 183.314 183.051 
183.399 183.081 183.42 183.102 183.407 183.034 183.264 182.842 181.581 
182.046 181.878 182.29 182.004 182.358 182.011 182.387 182.074 182.451 
182.097 182.375 181.94 182.176 181.761 180.533 180.989 180.82 181.244 
180.962 181.31 180.959 181.307 181.015 181.406 181.123 181.437 181.046 
181.271 180.853 181.106 180.757 179.514 179.936 179.727 180.156 179.877 
180.259 179.929 180.281 179.99 180.376 180.123 180.479 180.143 180.396 
179.988 180.22 179.865 180.148 179.854 178.876 177.861 178.594 179.022 
176.785 177.534 177.962 178.717 179.143 175.69 176.464 176.898 177.647 
178.082 178.823 179.227 174.494 175.332 175.779 176.571 176.997 177.76 
178.19 178.917 179.328 173.266 174.097 174.542 175.386 175.807 176.627 
177.044 177.846 178.282 179.037 179.446 172.117 172.89 173.308 174.128 
174.56 175.395 175.826 176.655 177.085 177.91 178.326 179.107 179.447 
171.012 171.751 172.136 172.921 173.35 174.17 174.633 175.454 175.909 
176.711 177.133 177.923 178.294 179.038 179.326 169.983 170.659 171.035 
171.774 172.192 172.984 173.444 174.274 174.746 175.56 175.994 176.766 
177.161 177.899 178.258 178.941 179.248 169.119 169.703 170.079 170.735 
171.151 171.869 172.305 173.088 173.541 174.369 174.811 175.622 176.027 
176.795 177.182 177.907 178.275 178.933 179.257 179.056 178.029 178.486 
178.288 176.878 177.356 177.103 177.578 177.248 175.67 176.133 175.815 
176.307 175.948 176.415 175.965 174.417 174.871 174.497 174.978 174.592 
175.071 174.625 175.053 174.529 173.149 173.583 173.177 173.637 173.22 
173.694 173.233 173.685 173.169 173.585 173.066 171.941 172.331 171.906 
172.318 171.867 172.31 171.82 172.269 171.735 172.183 171.658 172.125 
171.681 170.806 171.159 170.706 171.062 170.555 170.949 170.432 170.86 
170.33 170.756 170.228 170.683 170.238 170.768 170.449 169.743 170.054 
169.575 169.873 169.301 169.627 169.06 169.472 168.971 169.401 168.911 
169.313 168.869 169.339 169.042 169.622 169.468 168.79 169.037 168.556 
168.783 168.189 168.409 167.797 168.123 167.628 168.065 167.644 168.061 
167.646 168.053 167.744 168.264 168.132 168.756 168.726 180.559 180.819 
181.017 181.635 180.954 181.249 181.944 182.132 182.764 180.926 181.308 
182.018 182.359 183.061 183.278 183.888 180.786 181.202 181.878 182.311 
183.036 183.444 184.127 184.353 184.842 180.626 181.052 181.769 182.177 
182.932 183.357 184.099 184.46 185.014 185.17 185.508 180.424 180.891 
181.688 182.139 182.962 183.346 184.093 184.42 185 185.234 185.617 
185.735 186.025 180.162 180.644 181.393 181.971 182.776 183.315 184.001 
184.393 184.895 185.175 185.559 185.768 186.077 186.216 186.444 179.884 
180.333 180.955 181.533 182.214 182.879 183.485 184.067 184.499 184.934 
185.286 185.63 185.954 186.192 186.395 186.508 186.54 179.568 180.009 
180.553 181.049 181.622 182.208 182.759 183.37 183.819 184.366 184.738 
185.222 185.566 185.953 186.173 186.377 186.389 186.439 186.326 180.564 
181.628 181.015 180.858 182.745 182.106 181.938 181.304 181.127 183.872 
183.243 183.061 182.396 182.183 181.549 181.327 184.824 184.319 184.151 
183.521 183.281 182.607 182.309 181.664 181.324 185.515 185.159 185.042 
184.538 184.318 183.69 183.343 182.636 182.178 181.512 181.026 186.106 
185.822 185.797 185.372 185.198 184.648 184.303 183.626 183.092 182.351 
181.749 181.09 180.552 186.541 186.393 186.427 186.114 185.956 185.465 
185.096 184.484 183.932 183.217 182.552 181.825 181.219 180.604 180.133 
186.569 186.634 186.636 186.577 186.404 186.096 185.671 185.162 184.586 
183.967 183.317 182.617 181.977 181.306 180.798 180.24 179.853 186.311 
186.453 186.428 186.547 186.413 186.328 185.937 185.588 185.015 184.521 
183.916 183.33 182.721 182.069 181.516 180.916 180.483 179.977 179.611 
179.921 180.186 179.701 178.956 180.468 179.972 179.209 178.679 177.877 
180.7 180.261 179.512 178.956 178.114 177.565 176.699 180.709 180.42 
179.684 179.214 178.309 177.765 176.801 176.283 175.26 180.411 180.281 
179.541 179.232 178.265 177.812 176.75 176.283 175.217 174.713 173.633 
179.954 179.878 179.162 178.956 178.015 177.634 176.571 176.14 175.148 
174.692 173.767 173.213 172.373 179.565 179.438 178.772 178.572 177.756 
177.405 176.478 176.026 175.158 174.711 173.972 173.483 172.799 172.244 
171.645 179.308 179.127 178.487 178.259 177.543 177.24 176.478 176.067 
175.303 174.846 174.147 173.719 173.068 172.637 171.99 171.553 170.933 
179.084 178.905 178.267 178.03 177.336 177.078 176.394 176.097 175.399 
175.016 174.279 173.866 173.131 172.761 172.035 171.695 170.966 170.641 
169.923 180.451 180.569 180.837 181.487 180.543 180.915 181.582 181.885 
182.539 180.345 180.802 181.463 181.871 182.471 182.836 183.418 180.161 
180.583 181.255 181.679 182.286 182.671 183.245 183.628 184.232 180.143 
180.49 181.194 181.538 182.211 182.535 183.209 183.535 184.261 184.576 
185.28 180.141 180.513 181.239 181.574 182.281 182.573 183.297 183.609 
184.399 184.726 185.462 185.702 186.214 180.01 180.434 181.137 181.57 
182.267 182.643 183.313 183.674 184.378 184.79 185.442 185.787 186.174 
186.36 186.455 179.811 180.221 180.844 181.334 181.995 182.494 183.124 
183.566 184.167 184.615 185.194 185.608 185.985 186.205 186.277 186.34 
186.254 179.594 179.971 180.493 180.955 181.544 182.093 182.717 183.249 
183.839 184.314 184.884 185.316 185.796 186.051 186.277 186.282 186.299 
186.208 186.194 
POINT_DATA 1002
SCALARS Distance double
LOOKUP_TABLE default
178.187 179.13 178.356 177.305 177.396 177.114 176.233 176.229 176.135 
176.035 174.979 174.981 174.966 174.907 174.886 173.661 173.754 173.653 
173.603 173.576 173.637 172.323 172.511 172.269 172.235 172.188 172.286 
172.467 170.973 171.269 170.829 170.832 170.832 170.924 171.161 171.377 
169.703 170.089 169.435 169.409 169.489 169.603 169.827 170.083 170.295 
168.541 168.967 168.201 168.09 168.18 168.341 168.561 168.817 169.064 
169.34 167.46 167.909 167.109 166.942 166.966 167.12 167.366 167.648 
167.92 168.215 168.568 179.475 178.644 179.724 178.816 179.942 177.596 
178.988 180.166 177.756 176.392 179.216 180.374 177.965 176.622 175.179 
179.391 180.54 178.146 176.84 175.417 173.939 179.447 180.615 178.21 
176.948 175.556 174.069 172.636 179.45 180.564 178.256 177.04 175.684 
174.166 172.705 171.375 179.414 180.397 178.318 177.157 175.866 174.39 
172.872 171.481 170.195 179.256 180.125 178.272 177.171 175.946 174.613 
173.19 171.736 170.35 169.073 179.229 178.277 178.177 177.11 177.058 
177.197 175.839 175.797 175.889 175.957 174.315 174.175 174.481 174.591 
174.665 172.529 172.571 172.898 173.274 173.412 173.37 171.197 171.64 
171.362 171.91 172.205 172.129 171.915 170.576 171.115 170.343 170.574 
170.827 170.746 170.501 170.343 169.938 170.323 169.534 169.311 169.254 
169.155 168.966 168.836 168.88 168.882 169.211 168.445 167.954 167.576 
167.409 167.36 167.332 167.385 167.592 166.535 166.105 165.044 165.828 
164.431 163.503 165.688 164.017 162.679 162.073 165.577 163.812 162.164 
161.166 160.854 165.594 163.778 162.083 160.675 159.985 159.722 165.972 
164.061 162.407 160.777 159.544 158.962 158.699 166.628 164.719 163.057 
161.388 159.769 158.72 158.26 158.132 167.264 165.51 163.883 162.262 
160.574 159.228 158.467 158.152 158.173 167.769 166.227 164.727 163.206 
161.625 160.258 159.323 158.743 158.483 158.574 166.092 164.686 165.853 
163.284 164.557 165.784 161.946 163.182 164.501 165.848 160.664 161.812 
163.147 164.629 166.092 159.436 160.543 161.941 163.475 165.029 166.452 
158.548 159.48 160.912 162.499 164.006 165.47 166.798 158.318 158.9 
160.063 161.589 163.056 164.463 165.884 167.152 158.651 158.968 159.664 
160.823 162.191 163.55 164.964 166.359 167.561 159.127 159.396 159.817 
160.252 160.531 159.773 161.091 161.379 160.675 160.431 162.048 162.541 
161.647 161.354 161.533 163.215 163.832 162.747 162.46 162.483 162.89 
164.432 165.044 163.926 163.629 163.591 163.837 164.33 165.642 166.293 
165.129 164.834 164.722 164.831 165.239 165.81 166.881 167.585 166.336 
166.082 165.974 165.913 166.136 166.663 167.184 168.068 168.73 167.509 
167.262 167.245 167.186 167.195 167.53 168.011 168.35 158.95 159.373 
159.51 159.802 160.417 159.913 160.806 161.683 160.361 160.67 162.284 
163.034 161.616 161.464 161.883 163.697 164.286 163.215 163.009 163.08 
163.378 164.942 165.492 164.549 164.504 164.569 164.549 164.692 166.214 
166.673 165.802 165.694 165.804 165.753 165.698 165.939 167.46 167.777 
167.146 166.95 166.967 166.976 166.907 167.043 167.356 168.568 168.793 
168.385 168.242 168.215 168.268 168.278 168.336 168.525 168.692 168.688 
167.263 168.36 167.02 168.258 165.827 166.891 168.093 165.609 164.348 
166.668 167.807 165.441 164.091 162.783 166.519 167.719 165.317 163.992 
162.64 161.395 166.673 167.915 165.421 164.099 162.78 161.582 160.413 
167.016 168.192 165.783 164.471 163.144 161.938 160.802 159.673 167.386 
168.471 166.23 164.995 163.708 162.428 161.187 160.048 159.124 170.239 
169.798 171.298 170.971 172.383 169.583 172.195 173.536 170.851 169.522 
173.466 174.714 172.105 170.771 169.295 174.64 175.739 173.333 171.966 
170.525 169.027 175.616 176.638 174.462 173.151 171.736 170.327 169.027 
176.57 177.582 175.491 174.31 172.946 171.563 170.333 169.206 177.565 
178.503 176.493 175.378 174.128 172.76 171.523 170.441 169.402 178.444 