# vtk DataFile Version 4.0
vtk output
ASCII
DATASET POLYDATA
POINTS 1002 float
-106.529 -122.255 74.7502 -107.379 -122.929 74.2037 -106.855 -122.463 73.4702 
-105.999 -121.687 74.0281 -106.362 -121.827 72.7585 -105.783 -121.338 75.3122 
-105.397 -121.03 73.3122 -105.8 -121.071 72.1249 -105.191 -120.718 74.6467 
-105.14 -120.221 75.914 -104.651 -120.244 72.594 -105.167 -120.117 71.5229 
-104.376 -120.073 73.9251 -104.324 -119.639 75.3131 -104.302 -119.153 76.5483 
-103.97 -119.183 71.9293 -104.595 -118.975 70.9846 -103.535 -119.239 73.1544 
-103.327 -119.008 74.5711 -103.251 -118.633 75.9967 -103.217 -118.236 77.2475 
-103.458 -118.001 71.3677 -104.139 -117.824 70.5204 -102.995 -118.125 72.5362 
-102.625 -118.071 73.8284 -102.293 -117.949 75.2864 -102.14 -117.717 76.7603 
-102.248 -117.293 77.9685 -102.905 -116.934 70.7302 -103.699 -116.715 70.0708 
-102.496 -117.007 71.9639 -102.206 -116.898 73.313 -101.724 -116.885 74.6198 
-101.25 -116.99 76.1278 -101.197 -116.767 77.5126 -101.52 -116.244 78.5408 
-102.295 -115.907 70.0901 -103.245 -115.571 69.73 -101.772 -116.051 71.1852 
-101.566 -115.899 72.7223 -101.201 -115.765 74.0693 -100.61 -115.972 75.4424 
-100.273 -116.084 76.913 -100.465 -115.711 78.0706 -100.894 -115.19 78.9726 
-101.842 -114.805 69.7391 -102.835 -114.439 69.5294 -101.135 -115.087 70.5108 
-100.814 -115.104 71.9344 -100.534 -114.957 73.3752 -100.055 -115.011 74.6953 
-99.6388 -115.181 76.1714 -99.6339 -115.021 77.507 -99.9705 -114.578 78.5164 
-100.357 -114.205 79.431 -101.569 -113.697 69.5609 -102.454 -113.431 69.2744 
-100.826 -113.996 70.1745 -100.376 -114.18 71.3212 -100.05 -114.185 72.6371 
-99.6412 -114.166 73.8751 -99.2653 -114.213 75.3038 -99.1698 -114.112 76.8056 
-99.3679 -113.794 78.0146 -99.6635 -113.479 79.0101 -99.9519 -113.286 79.9508 
-107.901 -123.271 73.1324 -107.408 -122.727 72.3474 -108.489 -123.536 71.9348 
-108.057 -122.845 71.2037 -109.261 -123.545 70.8489 -106.955 -121.942 71.7122 
-108.904 -122.607 70.2643 -110.259 -123.088 70.0919 -107.689 -121.815 70.7468 
-106.451 -121.005 71.2057 -109.902 -122.004 69.5128 -111.264 -122.31 69.4102 
-108.558 -121.42 69.8656 -107.186 -120.78 70.3141 -105.853 -119.972 70.6763 
-110.84 -121.437 68.6343 -112.17 -121.671 68.4555 -109.425 -121.022 68.8832 
-107.869 -120.543 69.2155 -106.512 -119.87 69.6949 -105.336 -118.841 70.1992 
-111.748 -121.007 67.727 -113.125 -121.204 67.5074 -110.254 -120.719 67.8859 
-108.474 -120.354 67.957 -106.992 -119.764 68.3688 -106.038 -118.743 69.2196 
-105.004 -117.583 69.8888 -112.703 -120.277 67.1511 -114.071 -120.471 66.9562 
-111.188 -120.071 67.2337 -109.257 -119.886 67.0673 -107.476 -119.464 67.1561 
-106.514 -118.51 67.9968 -105.813 -117.257 69.1044 -104.664 -116.23 69.6819 
-113.545 -119.233 66.7795 -114.834 -119.414 66.6663 -112.115 -119.055 66.7916 
-110.273 -119.002 66.5872 -108.327 -118.867 66.5227 -107.046 -118.176 67.0852 
-106.342 -116.938 68.1437 -105.468 -115.737 69.0772 -104.194 -114.934 69.4875 
-114.218 -118.357 66.3147 -115.458 -118.438 66.3319 -112.837 -118.266 66.2054 
-111.168 -118.223 66.015 -109.374 -118.187 66.0419 -107.953 -117.798 66.5747 
-106.978 -116.792 67.4319 -106.038 -115.517 68.2683 -104.909 -114.496 68.8928 
-103.655 -113.852 69.1982 -115.31 -117.787 65.7609 -113.845 -117.876 65.5411 
-115.01 -117.448 64.9952 -113.168 -117.529 64.6662 -114.355 -116.653 64.4746 
-112.123 -117.863 65.259 -112.278 -116.345 64.2545 -113.462 -115.085 64.4242 
-111.182 -117.252 64.4786 -110.348 -117.692 65.2487 -111.592 -114.561 64.4353 
-112.715 -113.727 64.7257 -110.449 -115.711 64.3704 -109.718 -116.652 64.9192 
-108.977 -117.314 65.8858 -111.276 -113.328 65.0354 -112.177 -112.905 65.3536 
-110.185 -114.062 64.9218 -109.462 -114.989 65.2242 -108.882 -115.91 66.0777 
-107.929 -116.523 66.904 -110.934 -112.293 65.8956 -111.586 -111.811 66.2536 
-110.011 -112.904 65.8381 -109.234 -113.546 66.0432 -108.643 -114.305 66.5771 
-107.734 -115.007 67.2006 -106.693 -115.34 67.7026 -110.251 -110.852 66.829 
-110.854 -110.482 67.2263 -109.444 -111.473 66.7248 -108.618 -112.133 66.8858 
-107.894 -112.793 67.207 -107.001 -113.486 67.4922 -105.975 -113.956 67.7373 
-105.275 -114.18 68.221 -109.381 -109.578 67.7623 -110.101 -109.463 68.128 
-108.554 -109.877 67.4881 -107.693 -110.34 67.3734 -106.84 -110.948 67.4711 
-105.893 -111.739 67.6068 -104.912 -112.496 67.6527 -104.236 -112.972 67.9311 
-103.919 -113.336 68.578 -108.611 -108.744 68.6174 -109.427 -108.671 68.86 
-107.722 -108.787 68.2654 -106.827 -108.84 67.8031 -105.931 -109.064 67.4787 
-104.936 -109.71 67.4323 -103.895 -110.703 67.4501 -103.143 -111.605 67.5564 
-102.827 -112.229 68.0397 -102.686 -112.78 68.7485 -101.542 -112.576 69.0738 
-101.643 -111.837 68.3542 -100.77 -111.553 68.9803 -101.759 -111.081 67.6762 
-100.822 -110.707 68.2132 -100.346 -110.305 69.335 -102.248 -110.078 67.4118 
-101.128 -109.746 67.8308 -100.536 -109.341 68.7861 -100.225 -108.777 70.1621 
-103.246 -108.85 67.4127 -101.961 -108.53 67.8887 -101.099 -108.272 68.7094 
-100.505 -107.616 69.728 -100.023 -106.91 70.8989 -104.396 -107.947 67.4692 
-103.118 -107.367 67.9686 -102.052 -107.134 68.828 -101.042 -106.517 69.5263 
-100.219 -105.573 70.3023 -99.6987 -104.959 71.3611 -105.412 -107.743 67.8587 
-104.21 -106.81 68.1216 -103.13 -106.207 68.8327 -101.919 -105.553 69.4466 
-100.738 -104.595 69.9146 -100.026 -103.825 70.8081 -99.6755 -103.54 72.0419 
-106.38 -107.897 68.5589 -105.241 -106.819 68.6567 -104.237 -105.717 68.9402 
-103.107 -104.736 69.4212 -101.824 -103.814 69.8509 -100.859 -103.125 70.5633 
-100.401 -102.857 71.7578 -100.06 -102.808 73.0346 -107.363 -107.963 69.1026 
-106.287 -106.883 69.2938 -105.389 -105.532 69.3187 -104.443 -104.211 69.533 
-103.287 -103.15 69.9569 -102.161 -102.471 70.5768 -101.439 -102.251 71.5841 
-100.997 -102.277 72.8326 -100.527 -102.269 73.9855 -108.295 -107.856 69.336 
-107.248 -106.788 69.6642 -106.406 -105.451 69.7699 -105.625 -104.069 69.8836 
-104.673 -102.898 70.2135 -103.554 -102.056 70.7275 -102.578 -101.628 71.4844 
-101.911 -101.563 72.5429 -101.372 -101.604 73.7076 -100.845 -101.598 74.7684 
-100.83 -112.744 69.6978 -100.335 -111.545 70.0702 -100.311 -112.93 70.733 
-100.077 -110.086 70.7561 -99.9748 -111.53 71.411 -99.9159 -113.028 71.979 
-99.8579 -108.412 71.5164 -99.6616 -109.898 72.0763 -99.5104 -111.469 72.567 
-99.4713 -113.028 73.1309 -99.5408 -106.506 72.0463 -99.3567 -108.187 72.6389 
-99.1677 -109.726 73.1445 -99.0571 -111.39 73.7268 -99.0742 -113.008 74.4826 
-99.2926 -104.643 72.6004 -99.1149 -106.312 73.218 -99.0408 -108 73.8483 
-98.9472 -109.602 74.5421 -98.8797 -111.329 75.3384 -98.9471 -112.91 76.1419 
-99.347 -103.365 73.4621 -98.9421 -104.518 74.015 -98.9584 -106.175 74.7298 
-99.0535 -107.881 75.5076 -98.9749 -109.576 76.291 -98.9379 -111.248 77.0396 
-99.0794 -112.681 77.6275 -99.708 -102.646 74.4266 -99.0327 -103.306 74.9448 
-98.8464 -104.545 75.6771 -99.0231 -106.18 76.5008 -99.0676 -107.903 77.2406 
-98.9694 -109.62 77.9157 -99.0343 -111.187 78.4798 -99.283 -112.474 78.8275 
-100.163 -102.028 75.2836 -99.4883 -102.577 75.8259 -99.0556 -103.477 76.5433 
-98.9805 -104.776 77.3902 -99.0141 -106.32 78.1496 -98.9435 -108.015 78.7929 
-98.9374 -109.716 79.3582 -99.1382 -111.198 79.7375 -99.4881 -112.373 79.8986 
-100.725 -101.148 75.912 -100.212 -101.747 76.5273 -100.8 -100.875 77.2207 
-100.503 -101.714 77.9196 -101.168 -100.959 78.5433 -99.7402 -102.585 77.2307 
-100.914 -101.978 79.2483 -101.82 -101.39 79.6864 -100.103 -102.777 78.7178 
-99.3358 -103.676 78.0923 -101.476 -102.43 80.3779 -102.615 -101.995 80.7062 
-100.423 -103.049 80.0424 -99.5652 -103.902 79.5796 -99.0766 -104.968 78.9486 
-102.219 -102.932 81.4836 -103.23 -102.526 81.866 -101.037 -103.429 81.1523 
-99.9719 -104.18 80.7897 -99.2591 -105.206 80.3385 -98.9622 -106.53 79.6656 
-102.816 -103.41 82.7405 -103.589 -102.92 83.2189 -101.91 -103.976 82.2487 
-100.893 -104.714 81.7677 -99.9806 -105.673 81.3674 -99.3087 -106.899 80.953 
-98.9702 -108.344 80.269 -103.242 -103.927 83.9774 -104.007 -103.38 84.4552 
-102.555 -104.603 83.3907 -101.797 -105.408 82.7906 -101.003 -106.347 82.2224 
-100.204 -107.44 81.7882 -99.5032 -108.751 81.3716 -99.1493 -110.087 80.6751 
-103.815 -104.535 84.9255 -104.618 -104.009 85.3159 -103.11 -105.213 84.3694 
-102.378 -106.014 83.8415 -101.681 -106.944 83.2734 -101.079 -107.966 82.5817 
-100.42 -109.118 82.0106 -99.7983 -110.378 81.5371 -99.4993 -111.501 80.8274 
-104.514 -105.166 85.5826 -105.258 -104.694 85.8708 -103.833 -105.785 85.0944 
-103.046 -106.527 84.6635 -102.216 -107.416 84.3126 -101.643 -108.415 83.6704 
-101.257 -109.454 82.7732 -100.746 -110.566 82.0908 -100.226 -111.676 81.5657 
-99.9736 -112.586 80.8395 -101.389 -100.844 74.8703 -101.289 -100.409 76.1569 
-102.134 -100.258 75.0293 -102.264 -99.9926 76.4332 -103.393 -100.09 75.3515 
-101.465 -100.228 77.5797 -103.816 -99.8968 76.7445 -105.04 -100.07 75.7378 
-102.692 -99.8814 77.932 -102.054 -100.382 78.9442 -105.528 -99.8026 77.0693 
-106.611 -99.9999 76.0895 -104.352 -99.7049 78.2999 -103.42 -99.9573 79.4252 
-102.936 -100.873 80.1174 -107.095 -99.7805 77.5004 -107.913 -100.207 76.5562 
-106.018 -99.6445 78.7298 -104.936 -99.7503 79.9813 -104.18 -100.438 80.7419 
-103.697 -101.566 81.209 -108.503 -100.075 78.0393 -108.933 -100.796 77.1264 
-107.698 -99.7891 79.2019 -106.552 -99.8655 80.4568 -105.478 -100.323 81.3557 
-104.738 -101.219 81.8713 -104.142 -102.141 82.4743 -109.531 -100.673 78.4462 
-109.666 -101.542 77.5437 -109.185 -100.139 79.5465 -108.322 -100.118 80.7171 
-107.105 -100.492 81.6793 -106.058 -101.158 82.3783 -105.281 -101.892 83.0706 
-104.577 -102.58 83.8465 -110.182 -101.518 78.6476 -110.278 -102.343 77.7703 
-110.116 -100.811 79.6897 -109.726 -100.528 80.7961 -108.789 -100.745 81.7611 
-107.66 -101.306 82.5808 -106.739 -101.93 83.4046 -105.941 -102.491 84.2415 
-105.181 -103.158 84.932 -110.799 -102.449 78.7899 -110.949 -103.118 77.9484 
-110.746 -101.766 79.7625 -110.602 -101.29 80.8291 -110.046 -101.234 81.8146 
[...]
CELL_DATA 2000
SCALARS Distance double
LOOKUP_TABLE default
177.738 176.749 177.155 176.941 175.666 176.108 175.884 176.311 176.072 
174.439 174.939 174.677 175.178 174.93 175.397 175.138 173.092 173.614 
173.314 173.875 173.608 174.161 173.907 174.417 174.162 171.776 172.245 
171.946 172.492 172.237 172.791 172.556 173.119 172.91 173.443 173.234 
170.513 170.936 170.62 171.16 170.932 171.463 171.226 171.765 171.582 
172.164 172.01 172.547 172.36 169.268 169.647 169.263 169.813 169.589 
170.168 169.929 170.456 170.239 170.826 170.698 171.299 171.148 171.672 
171.481 168.113 168.414 167.988 168.457 168.236 168.818 168.635 169.167 
168.953 169.498 169.368 169.982 169.885 170.451 170.296 170.802 170.653 
167.076 167.327 166.91 167.27 167.056 167.552 167.433 167.934 167.769 
168.255 168.12 168.688 168.626 169.21 169.125 169.645 169.537 170.038 
169.969 178.022 178.094 177.728 177.038 178.13 177.768 177.064 176.7 
175.968 178.137 177.78 177.051 176.697 175.952 175.587 174.784 178.045 
177.74 176.982 176.649 175.889 175.545 174.743 174.347 173.48 177.858 
177.6 176.859 176.546 175.757 175.432 174.639 174.294 173.461 173.043 
172.186 177.73 177.448 176.76 176.43 175.607 175.248 174.395 174.111 
173.327 173.023 172.221 171.802 170.97 177.634 177.362 176.664 176.345 
175.487 175.08 174.127 173.8 172.982 172.793 172.078 171.811 171.022 
170.6 169.765 177.388 177.188 176.435 176.183 175.312 174.936 173.976 
173.574 172.729 172.464 171.784 171.587 170.887 170.59 169.785 169.383 
168.585 177.045 176.867 176.126 175.894 175.066 174.738 173.87 173.485 
172.726 172.374 171.74 171.416 170.761 170.429 169.684 169.338 168.558 
168.208 167.485 176.673 175.909 176.103 175.733 174.961 175.254 174.759 
175.043 174.609 173.526 174.035 173.487 173.918 173.425 173.832 173.422 
172.035 172.46 171.944 172.462 172.067 172.6 172.324 172.739 172.429 
171.128 171.25 170.802 171.069 170.808 171.287 171.214 171.718 171.565 
171.861 171.525 170.466 170.575 170.169 170.273 170.011 170.278 170.215 
170.672 170.566 170.955 170.58 170.855 170.415 169.552 169.791 169.315 
169.584 169.18 169.503 169.205 169.651 169.355 169.813 169.328 169.706 
169.144 169.578 169.179 168.629 168.789 168.196 168.484 167.895 168.323 
167.751 168.311 167.743 168.341 167.709 168.237 167.606 168.134 167.683 
168.293 168.019 167.918 167.955 167.315 167.396 166.694 166.905 166.167 
166.586 165.871 166.469 165.793 166.435 165.826 166.468 166.03 166.716 
166.465 167.158 166.974 166.239 165.631 165.588 164.954 165.061 164.913 
164.185 164.268 163.796 164.701 164.374 163.581 163.539 163.052 163.226 
162.948 164.573 164.09 163.266 163.083 162.624 162.635 162.301 162.439 
162.098 164.696 164.073 163.25 162.926 162.495 162.377 161.974 161.887 
161.34 161.414 160.905 165.181 164.424 163.657 163.105 162.647 162.363 
161.924 161.654 160.983 160.756 160.147 160.222 159.926 165.945 165.17 
164.511 163.754 163.216 162.661 162.163 161.71 161.064 160.607 160.023 
159.789 159.616 159.678 159.799 166.716 166.047 165.471 164.71 164.096 
163.359 162.752 162.111 161.504 160.91 160.393 159.963 159.803 159.689 
159.875 159.923 160.161 167.347 166.785 166.216 165.572 164.922 164.207 
163.548 162.83 162.245 161.56 161.086 160.513 160.264 159.983 160.03 
160.035 160.204 160.281 160.402 166.33 165.179 165.905 166.234 164.145 
164.842 165.305 165.971 166.433 163.299 163.926 164.42 165.101 165.623 
166.288 166.791 162.399 163.091 163.502 164.204 164.66 165.397 165.882 
166.611 167.088 161.224 162.034 162.434 163.21 163.6 164.348 164.802 
165.598 166.138 166.899 167.445 160.217 160.832 161.283 162.074 162.568 
163.318 163.831 164.566 165.192 165.967 166.646 167.362 167.976 159.946 
160.116 160.473 161.025 161.61 162.362 163.038 163.757 164.46 165.159 
165.9 166.612 167.299 167.948 168.512 160.214 160.123 160.31 160.49 
160.981 161.549 162.306 163.043 163.827 164.524 165.259 165.936 166.64 
167.292 167.907 168.478 168.982 160.482 160.415 160.55 160.536 160.908 
161.173 161.858 162.423 163.225 163.892 164.631 165.301 166.002 166.664 
167.328 167.918 168.49 168.982 169.467 160.586 160.955 160.76 160.792 
161.699 161.345 161.485 161.127 161.258 162.764 162.276 162.463 162.027 
162.228 161.817 162.152 164.017 163.427 163.542 163.066 163.247 162.844 
163.136 162.854 163.362 165.331 164.708 164.754 164.177 164.303 163.849 
164.116 163.805 164.256 164.095 164.697 166.559 165.995 166.087 165.468 
165.615 165.027 165.32 164.863 165.333 165.037 165.639 165.461 166.096 
167.717 167.196 167.359 166.813 167.028 166.449 166.758 166.216 166.657 
166.23 166.793 166.497 167.109 166.885 167.455 168.897 168.377 168.556 
168.06 168.293 167.808 168.102 167.63 167.991 167.559 167.999 167.659 
168.17 167.915 168.424 168.188 168.632 170.038 169.553 169.72 169.243 
169.456 169.002 169.272 168.856 169.186 168.792 169.159 168.797 169.209 
168.921 169.365 169.123 169.528 169.273 169.616 160.529 160.562 160.59 
160.842 161.065 160.813 161.068 161.069 161.537 162.11 161.613 161.828 
161.534 161.969 161.971 162.622 163.29 162.773 162.953 162.504 162.86 
162.618 163.223 163.225 163.956 164.462 163.946 164.159 163.684 164.01 
163.634 164.139 163.969 164.643 164.628 165.311 165.732 165.188 165.47 
164.958 165.327 164.854 165.298 164.959 165.52 165.374 165.994 165.946 
166.529 166.938 166.469 166.769 166.314 166.707 166.232 166.642 166.181 
166.647 166.325 166.88 166.694 167.26 167.143 167.695 167.982 167.589 
167.873 167.523 167.906 167.544 167.932 167.505 167.901 167.504 167.995 
167.693 168.242 167.996 168.539 168.355 168.898 168.982 168.601 168.895 
168.56 168.947 168.644 169.049 168.699 169.078 168.706 169.137 168.823 
169.324 169.046 169.546 169.285 169.77 169.567 170.051 167.478 167.176 
166.998 166.299 166.9 166.647 165.913 165.742 165.01 166.96 166.521 
165.796 165.44 164.713 164.454 163.707 167.238 166.741 166.025 165.518 
164.782 164.333 163.587 163.22 162.476 167.43 166.99 166.23 165.761 
164.981 164.509 163.732 163.259 162.477 162.061 161.356 167.635 167.162 
166.404 165.912 165.132 164.67 163.919 163.453 162.678 162.174 161.435 
161.033 160.514 168.003 167.477 166.821 166.221 165.516 164.92 164.253 
163.715 163.054 162.482 161.775 161.231 160.698 160.383 160.18 168.436 
167.933 167.373 166.786 166.163 165.493 164.86 164.217 163.642 163.017 
162.412 161.741 161.174 160.675 160.412 160.232 160.25 168.873 168.392 
167.881 167.364 166.815 166.2 165.587 164.917 164.336 163.704 163.174 
162.507 161.959 161.298 160.899 160.513 160.427 160.345 160.419 168.164 
169.21 168.455 167.947 170.31 169.546 169.052 168.208 167.69 171.421 
170.663 170.212 169.365 168.861 168.03 167.678 172.565 171.807 171.403 
170.566 170.105 169.247 168.877 168.14 167.918 173.677 172.969 172.608 
171.801 171.386 170.527 170.153 169.361 169.097 168.391 168.151 174.679 
174.052 173.73 172.995 172.606 171.805 171.437 170.643 170.349 169.594 
169.334 168.596 168.349 175.582 175.023 174.749 174.082 173.726 172.985 
172.629 171.882 171.576 170.837 170.557 169.809 169.549 168.826 168.639 
176.39 175.901 175.692 175.099 174.817 174.111 173.784 173.043 172.732 
172.012 171.723 171.008 170.742 170.032 169.825 169.154 169.021 177.112 
176.682 176.537 176.035 175.835 175.21 174.923 174.204 173.88 173.148 
172.841 172.135 171.872 171.194 170.995 170.336 170.195 169.551 169.447 
177.482 177.935 177.444 176.929 178.35 177.869 177.282 176.834 176.242 
178.63 178.18 177.509 177.093 176.434 176.031 175.338 178.898 178.417 
177.703 177.245 176.538 176.144 175.439 175.036 174.298 179.21 178.717 
178.01 177.477 176.756 176.276 175.581 175.139 174.416 173.978 173.253 
179.485 179.025 178.335 177.813 177.095 176.571 175.875 175.365 174.652 
174.146 173.418 172.963 172.288 179.733 179.284 178.602 178.113 177.409 
176.913 176.216 175.701 174.974 174.435 173.695 173.185 172.502 172.06 
171.445 179.949 179.524 178.852 178.379 177.705 177.225 176.561 176.049 
175.326 174.767 174.013 173.481 172.792 172.324 171.703 171.266 170.676 
180.068 179.709 179.065 178.633 177.99 177.536 176.914 176.42 175.739 
175.158 174.409 173.824 173.129 172.629 172.012 171.554 170.949 170.506 
169.922 179.887 179.29 179.378 178.915 178.562 178.726 178.254 178.354 
177.862 177.566 177.858 177.37 177.601 177.121 177.281 176.788 176.423 
176.742 176.241 176.577 176.114 176.428 175.954 176.155 175.6 175.326 
175.602 175.071 175.391 174.934 175.322 174.898 175.217 174.683 174.866 
174.256 174.178 174.496 173.929 174.228 173.725 174.111 173.703 174.102 
173.64 173.902 173.331 173.503 172.962 172.918 173.288 172.742 173.064 
172.524 172.885 172.428 172.86 172.427 172.807 172.296 172.557 172.026 
172.258 171.808 171.727 172.055 171.571 171.888 171.382 171.697 171.205 
171.575 171.124 171.543 171.08 171.452 170.945 171.258 170.778 171.097 
170.695 170.717 170.963 170.5 170.78 170.311 170.597 170.11 170.403 
169.932 170.282 169.859 170.238 169.807 170.142 169.689 170.012 169.606 
169.97 169.64 180.352 180.801 180.308 179.756 181.257 180.747 180.181 
179.683 179.054 181.763 181.238 180.64 180.092 179.407 178.867 178.084 
182.137 181.736 181.14 180.567 179.794 179.181 178.331 177.775 176.938 
182.07 181.927 181.383 180.996 180.198 179.568 178.629 178.004 177.131 
176.621 175.831 181.6 181.61 181.087 181.002 180.291 179.875 178.914 
178.298 177.322 176.78 175.917 175.479 174.656 181.094 181.053 180.502 
180.525 179.909 179.759 178.902 178.473 177.453 176.918 175.926 175.467 
174.557 174.184 173.336 180.732 180.604 180.028 179.967 179.371 179.289 
178.551 178.314 177.406 176.974 175.969 175.456 174.483 174.043 173.182 
172.848 172.101 180.422 180.282 179.693 179.566 178.947 178.812 178.115 
177.936 177.164 176.872 176.003 175.533 174.597 174.06 173.195 172.757 
172.034 171.713 171.093 180.84 181.753 181.322 181.327 182.64 182.274 
182.335 181.819 181.802 183.462 183.177 183.326 182.849 182.824 182.293 
182.272 184.236 184.017 184.199 183.794 183.746 183.253 183.142 182.692 
182.583 184.803 184.728 184.893 184.583 184.476 184.043 183.874 183.466 
183.285 182.853 182.549 185.03 185.118 185.288 185.138 184.993 184.641 
184.454 184.12 184.006 183.579 183.288 182.69 182.201 185.149 185.249 
185.473 185.425 185.342 185.06 184.869 184.616 184.583 184.308 184.15 
183.556 183.07 182.313 181.753 185.362 185.41 185.69 185.654 185.691 
185.427 185.248 184.972 184.882 184.746 184.643 184.322 183.887 183.228 
182.597 181.879 181.348 185.534 185.608 185.854 185.888 185.965 185.805 
185.632 185.34 185.097 184.914 184.683 184.547 184.13 183.791 183.166 
182.631 182.024 181.46 180.982 185.605 185.447 185.688 185.862 184.775 
185.254 185.474 185.841 185.91 183.993 184.41 184.574 185.159 185.319 
185.703 185.586 183.453 183.683 183.68 184.156 184.314 184.892 184.918 
185.228 185.03 182.801 183.108 182.957 183.3 183.306 183.844 183.893 
184.388 184.264 184.596 184.431 181.755 182.241 182.063 182.472 182.349 
182.84 182.794 183.309 183.164 183.624 183.421 183.897 183.731 180.649 
181.133 181.01 181.455 181.318 181.803 181.702 182.202 182.043 182.49 
182.287 182.759 182.598 183.095 182.869 179.687 180.126 180.05 180.45 
180.327 180.75 180.626 181.092 180.955 181.406 181.268 181.702 181.597 
182.022 181.874 182.224 181.914 178.753 179.204 179.138 179.545 179.416 
179.798 179.636 180.04 179.888 180.337 180.237 180.716 180.651 181.098 
180.973 181.323 181.065 181.305 180.938 178.191 177.403 178.069 178.565 
176.529 177.229 177.731 178.401 178.845 175.606 176.322 176.813 177.523 
177.99 178.642 179.051 174.656 175.379 175.891 176.61 177.113 177.783 
178.24 178.855 179.289 173.731 174.434 174.978 175.713 176.281 176.962 
177.478 178.086 178.575 179.163 179.662 172.837 173.521 174.049 174.803 
175.397 176.14 176.68 177.337 177.813 178.444 178.953 179.584 180.093 
171.946 172.615 173.101 173.851 174.406 175.197 175.72 176.459 176.882 
177.579 177.996 178.74 179.217 179.94 180.373 171.12 171.734 172.198 
172.895 173.407 174.167 174.672 175.434 175.871 176.579 176.957 177.677 
178.089 178.885 179.317 180.082 180.423 170.431 170.966 171.41 172.027 
172.507 173.188 173.675 174.398 174.877 175.588 176.025 176.685 177.089 
177.772 178.193 178.941 179.33 180.048 180.322 180.02 179.053 179.469 
179.281 177.965 178.437 178.264 178.693 178.485 176.891 177.346 177.156 
177.603 177.361 177.815 177.579 175.794 176.256 176.009 176.454 176.153 
176.613 176.342 176.855 176.618 174.603 175.083 174.787 175.251 174.908 
175.364 175.057 175.574 175.322 175.853 175.531 173.397 173.846 173.533 
173.994 173.66 174.109 173.773 174.265 173.962 174.501 174.145 174.644 
174.18 172.252 172.656 172.319 172.748 172.405 172.856 172.494 172.962 
172.578 173.087 172.683 173.202 172.752 173.232 172.784 171.181 171.543 
171.186 171.558 171.169 171.587 171.189 171.645 171.22 171.686 171.247 
171.735 171.327 171.825 171.456 171.935 171.624 170.218 170.525 170.177 
170.477 170.07 170.39 169.972 170.354 169.952 170.363 169.963 170.382 
170.02 170.476 170.182 170.663 170.414 170.896 170.686 177.709 178.098 
178.242 178.908 178.32 178.585 179.286 179.466 180.091 178.402 178.72 
179.456 179.757 180.428 180.582 181.158 178.586 178.848 179.635 179.924 
180.676 180.879 181.526 181.651 182.308 178.807 179.09 179.883 180.165 
180.937 181.158 181.847 182.012 182.709 182.882 183.57 178.861 179.226 
179.964 180.338 181.068 181.385 182.045 182.286 182.932 183.19 183.849 
184.057 184.529 178.81 179.184 179.871 180.285 181.014 181.423 182.114 
182.419 183 183.271 183.818 184.137 184.597 184.78 184.993 178.748 
179.103 179.748 180.142 180.854 181.311 182.058 182.452 183.032 183.275 
183.677 183.95 184.339 184.667 184.973 185.116 185.223 178.649 179.01 
179.597 179.981 180.594 181.074 181.75 182.278 182.842 183.203 183.506 
183.738 183.996 184.325 184.687 185.008 185.287 185.361 185.438 177.707 
178.878 178.21 178.104 180.066 179.411 179.254 178.616 178.497 181.178 
180.578 180.44 179.772 179.568 178.932 178.647 182.399 181.761 181.699 
180.979 180.729 179.987 179.599 178.895 178.385 183.657 183.059 183.017 
182.295 182.014 181.169 180.662 179.834 179.282 178.536 178.03 184.525 
184.14 184.009 183.484 183.157 182.409 181.818 180.916 180.27 179.463 
178.994 178.306 177.988 184.93 184.713 184.525 184.205 183.904 183.381 
182.862 182.047 181.375 180.499 179.966 179.267 178.938 178.348 178.084 
185.142 184.971 184.824 184.594 184.418 184.047 183.723 183.061 182.509 
181.637 181.06 180.264 179.844 179.218 178.885 178.342 178.014 185.301 
185.143 185.011 184.864 184.78 184.564 184.39 183.92 183.485 182.736 
182.15 181.345 180.834 180.129 179.722 179.104 178.731 178.183 177.844 
177.083 177.503 176.984 176.38 177.895 177.412 176.776 176.262 175.498 
177.988 177.67 176.953 176.541 175.681 175.151 174.106 177.651 177.501 
176.741 176.51 175.648 175.231 174.223 173.629 172.623 177.281 177.052 
176.315 176.153 175.47 175.196 174.429 173.873 173.028 172.372 171.662 
177.305 176.873 176.169 175.84 175.315 175.106 174.64 174.236 173.577 
172.924 172.185 171.578 170.935 177.498 177.077 176.421 175.945 175.403 
175.103 174.714 174.459 173.914 173.435 172.652 172.055 171.262 170.75 
170.042 177.492 177.234 176.649 176.257 175.669 175.291 174.788 174.511 
173.957 173.614 172.863 172.38 171.565 171.045 170.311 169.82 169.17 
177.343 177.16 176.637 176.384 175.818 175.495 174.915 174.586 173.975 
173.623 172.921 172.504 171.763 171.307 170.612 170.136 169.498 169.022 
168.444 180.673 180.583 180.948 181.547 180.355 180.78 181.362 181.763 
182.335 180.099 180.52 181.082 181.499 182.056 182.491 183.081 179.841 
180.269 180.859 181.251 181.836 182.223 182.823 183.245 183.846 179.549 
179.998 180.612 181.044 181.678 182.078 182.695 183.051 183.602 183.975 
184.44 179.271 179.709 180.306 180.759 181.381 181.868 182.522 182.948 
183.491 183.789 184.167 184.445 184.72 178.933 179.404 179.965 180.428 
180.995 181.495 182.147 182.686 183.339 183.718 184.153 184.304 184.54 
184.678 184.888 178.44 178.956 179.465 180.003 180.528 181.057 181.653 
182.242 182.942 183.501 184.085 184.359 184.639 184.67 184.818 184.898 
185.111 177.934 178.4 178.858 179.407 179.897 180.482 181.011 181.653 
182.281 182.981 183.599 184.144 184.501 184.722 184.827 184.892 184.993 
185.131 185.308 
POINT_DATA 1002
SCALARS Distance double
LOOKUP_TABLE default
177.556 178.299 177.362 176.549 176.338 176.721 175.441 175.221 175.664 
175.835 174.158 173.939 174.433 174.696 174.886 172.748 172.592 173.037 
173.357 173.671 173.931 171.398 171.339 171.693 171.984 172.332 172.73 
173.044 170.073 170.131 170.391 170.715 170.983 171.435 171.869 172.17 
168.739 168.937 168.979 169.402 169.674 170.066 170.598 170.981 171.294 
167.569 167.836 167.657 168.077 168.429 168.759 169.284 169.775 170.135 
170.533 166.577 166.817 166.587 166.926 167.298 167.582 168.024 168.574 
169.028 169.449 169.928 178.407 177.417 178.46 177.43 178.502 176.347 
177.409 178.501 176.316 175.194 177.313 178.325 176.226 175.127 173.91 
177.166 178.087 176.102 174.947 173.846 172.629 177.094 178.011 176.024 
174.699 173.543 172.596 171.442 176.983 177.91 175.919 174.522 173.163 
172.244 171.398 170.23 176.675 177.581 175.65 174.373 173.039 171.988 
171.124 170.144 168.985 176.347 177.208 175.358 174.194 173.047 172.097 
171.139 170.023 168.887 167.805 176.468 175.497 175.765 174.505 174.619 
174.277 172.986 172.979 172.974 173.028 171.421 171.708 171.429 171.801 
172.146 170.625 171.054 170.364 170.635 171.211 171.344 170.051 170.297 
169.835 169.841 170.177 170.316 170.086 169.028 169.336 168.872 168.839 
168.942 168.951 168.72 168.629 168.007 168.546 167.557 167.261 167.156 
167.136 167.044 167.055 167.366 167.315 167.895 166.627 165.9 165.342 
165.117 165.129 165.307 165.728 166.303 165.599 164.865 164.399 164.149 
163.542 163.45 163.67 162.927 162.69 162.708 163.477 162.657 162.294 
161.925 161.669 163.631 162.648 162.186 161.448 160.654 160.396 164.303 
163.039 162.26 161.333 160.172 159.62 159.766 165.31 163.924 162.69 
161.543 160.322 159.582 159.652 159.983 166.207 164.9 163.466 162.105 
160.871 159.992 159.84 160.138 160.364 166.834 165.611 164.258 162.923 
161.71 160.683 160.123 160.132 160.346 160.5 165.54 164.588 165.789 
163.745 164.932 166.151 162.827 163.939 165.113 166.386 161.612 162.868 
163.998 165.3 166.733 160.493 161.748 163.094 164.408 165.875 167.336 
160.093 160.839 162.25 163.777 165.203 166.63 167.937 160.299 160.544 
161.565 163.111 164.601 165.98 167.314 168.474 160.586 160.77 161.415 
162.599 163.97 165.329 166.702 167.972 169.028 160.676 161.023 161.171 
161.844 162.085 161.593 162.901 163.308 162.647 162.447 164.076 164.67 
163.653 163.444 163.522 165.383 165.943 164.806 164.454 164.454 164.798 
166.663 167.073 166.217 165.825 165.684 165.863 166.262 167.855 168.226 
167.563 167.309 167.142 167.148 167.372 167.696 169.051 169.416 168.764 
168.557 168.442 168.392 168.46 168.68 168.899 170.194 170.505 169.918 
169.688 169.573 169.546 169.542 169.627 169.792 169.896 160.415 160.683 
160.593 161.168 161.438 161.356 162.239 162.657 162.081 162.474 163.428 
163.79 163.199 163.304 163.894 164.626 164.975 164.431 164.405 164.713 
165.324 165.967 166.257 165.822 165.733 165.761 166.088 166.572 167.184 
167.376 167.157 167.145 167.053 167.13 167.425 167.788 168.208 168.363 
168.23 168.333 168.321 168.332 168.527 168.778 169.053 169.236 169.35 
169.244 169.37 169.447 169.47 169.613 169.835 170.025 170.234 167.708 
166.455 167.368 166.121 167.212 165.165 166.232 167.438 165.036 163.942 
166.556 167.722 165.289 164.025 162.798 166.695 167.876 165.442 164.216 
162.958 161.679 166.918 168.115 165.604 164.354 163.189 161.889 160.74 
167.402 168.494 166.145 164.804 163.605 162.371 161.068 160.291 167.905 
168.91 166.814 165.533 164.246 163.08 161.788 160.671 160.278 168.892 
168.767 169.973 169.9 171.058 168.493 171.033 172.175 169.705 168.388 
172.215 173.309 170.963 169.65 168.596 173.387 174.342 172.228 170.972 
169.839 168.859 174.432 175.267 173.375 172.22 171.122 170.089 169.058 
175.374 176.11 174.444 173.364 172.307 171.304 170.283 169.309 176.223 
176.84 175.483 174.529 173.463 172.429 171.439 170.507 169.66 176.987 