# vtk DataFile Version 4.0
vtk output
ASCII
DATASET POLYDATA
POINTS 1002 float
-83.3669 -78.796 68.0907 -82.8179 -78.6044 66.3496 -82.3873 -78.4054 67.2584 
-82.8641 -78.678 69.0766 -82.0241 -78.0085 68.3124 -83.8621 -79.0646 69.9498 
-82.298 -78.5182 69.9973 -81.7151 -77.4497 69.4226 -83.2189 -79.1681 70.8025 
-83.945 -79.9427 71.5416 -81.793 -78.3201 70.9496 -81.3702 -77.047 70.5079 
-82.4698 -79.4273 71.5536 -83.1872 -80.3683 72.2562 -83.6657 -81.5191 72.9823 
-81.3541 -78.268 72.0437 -80.8362 -77.1161 71.6071 -81.9077 -79.648 72.5659 
-82.4921 -80.8556 73.16 -83.031 -82.0071 73.9167 -83.5645 -83.0601 74.8593 
-80.9076 -78.4658 73.1873 -80.223 -77.4793 72.7944 -81.5672 -79.7806 73.8 
-82.1034 -81.089 74.4611 -82.596 -82.3155 75.1996 -83.1638 -83.4434 76.1347 
-83.7745 -84.3347 77.1603 -80.6446 -78.7017 74.3561 -79.9533 -77.6908 73.9904 
-81.3748 -79.9269 75.0317 -81.9178 -81.1997 75.818 -82.3526 -82.4662 76.6421 
-82.8232 -83.7955 77.5389 -83.3244 -84.9497 78.436 -83.7535 -85.9137 79.2043 
-80.7188 -78.8432 75.6132 -80.1715 -77.696 75.1401 -81.3421 -80.1612 76.3853 
-81.8075 -81.5057 77.2216 -82.153 -82.8274 78.0405 -82.4978 -84.298 78.9203 
-82.8138 -85.7199 79.7363 -83.0828 -86.8415 80.3575 -83.2958 -87.8264 80.8203 
-80.9204 -79.0484 76.9436 -80.5902 -77.7879 76.3819 -81.3131 -80.5267 77.7897 
-81.6445 -82.0303 78.7003 -81.9082 -83.444 79.4987 -82.1562 -84.9625 80.2887 
-82.3551 -86.5348 81.0557 -82.5034 -87.8239 81.6405 -82.6508 -88.8447 82.0662 
-82.7841 -89.8099 82.4227 -81.0459 -79.4409 78.3291 -80.9317 -78.1471 77.7829 
-81.1661 -80.9895 79.0614 -81.326 -82.5968 79.9095 -81.5506 -84.0781 80.7389 
-81.7776 -85.585 81.5422 -81.9438 -87.2249 82.3096 -82.0796 -88.7187 82.9217 
-82.2267 -89.9304 83.3853 -82.3599 -91.0124 83.7912 -82.447 -92.0351 84.1325 
-82.1759 -78.0926 65.3597 -81.8815 -77.6383 66.3575 -81.8885 -77.1761 64.6159 
-81.684 -76.4937 65.8014 -81.7408 -76.035 64.0983 -81.6688 -76.9599 67.6332 
-81.2885 -75.4208 65.4297 -81.336 -74.9553 63.6817 -81.2845 -75.8627 67.1915 
-81.3896 -76.321 68.904 -80.6224 -74.4714 65.0538 -80.9781 -73.9338 63.5207 
-80.4111 -75.0227 66.6831 -80.6833 -75.4922 68.3332 -80.9227 -76.1062 70.0168 
-80.4796 -73.274 64.9401 -81.1751 -72.8156 63.791 -79.719 -73.9567 66.2201 
-79.6312 -74.6357 67.6793 -80.1073 -75.3672 69.4795 -80.2355 -76.3474 71.304 
-80.9144 -71.9454 65.2388 -81.5905 -71.6523 64.243 -80.0411 -72.5648 66.323 
-79.3143 -73.2922 67.5279 -79.3684 -74.1397 69.2145 -79.6202 -75.3403 71.2221 
-79.6354 -76.6205 72.8116 -81.199 -70.9126 65.6742 -81.8246 -70.7416 64.6639 
-80.7033 -71.4519 66.8906 -79.9828 -72.1055 68.1339 -79.4385 -72.735 69.5687 
-79.3707 -73.8203 71.3973 -79.3812 -75.331 73.0308 -79.5708 -76.638 74.1026 
-81.3944 -70.3337 66.1479 -82.102 -70.3596 65.1578 -81.0498 -70.7249 67.4946 
-80.6909 -71.372 68.9494 -80.0976 -71.9091 70.2842 -79.6771 -72.6223 71.7081 
-79.5604 -73.9117 73.1654 -79.6331 -75.3669 74.2666 -80.0168 -76.5896 75.1967 
-81.9468 -70.1779 66.7394 -82.6162 -70.473 65.7877 -81.4768 -70.2396 68.0742 
-81.1498 -70.6914 69.6087 -80.7208 -71.266 70.9482 -80.2775 -71.945 72.0675 
-80.0689 -72.9918 73.2036 -80.0554 -74.2999 74.2963 -80.2167 -75.554 75.309 
-80.5742 -76.7784 76.4556 -82.9797 -70.4976 67.1118 -82.4408 -70.1205 68.374 
-83.5257 -70.5512 68.7405 -82.9075 -70.2747 70.2551 -83.7708 -70.9574 70.547 
-81.8557 -70.1227 69.9457 -83.0303 -70.905 72.0887 -83.7678 -71.7239 72.3996 
-82.113 -70.2216 71.8045 -81.3147 -70.4598 71.4174 -83.2172 -71.7189 73.8564 
-84.058 -72.3508 74.3118 -82.3288 -70.8186 73.465 -81.5534 -70.5109 73.0289 
-80.9074 -71.1717 72.5167 -83.7458 -72.3591 75.8147 -84.5846 -72.9181 76.2662 
-82.7796 -71.7019 75.2363 -81.9883 -71.2683 74.651 -81.3808 -71.6255 74.0279 
-80.7294 -72.3804 73.4824 -84.2237 -73.2183 77.8661 -84.9449 -73.8822 78.073 
-83.2582 -72.7184 77.3158 -82.3999 -72.5161 76.588 -81.8726 -72.75 75.8397 
-81.3618 -73.2955 75.0826 -80.6927 -73.7821 74.537 -84.5304 -74.4542 79.6238 
-85.2101 -75.0316 79.6295 -83.6067 -74.0124 79.3 -82.6732 -73.9123 78.6469 
-82.0953 -74.0909 77.8906 -81.7331 -74.4146 77.0802 -81.2627 -74.7295 76.2853 
-80.7019 -75.0453 75.6971 -84.832 -75.7012 81.0093 -85.5037 -76.068 80.9757 
-83.9727 -75.423 80.8506 -83.0477 -75.3573 80.4244 -82.347 -75.4124 79.8458 
-81.9074 -75.536 79.1664 -81.5366 -75.7552 78.4019 -81.1727 -76.0073 77.6689 
-80.8419 -76.3175 77.0194 -85.0708 -76.8828 82.1628 -85.7033 -77.1193 82.1152 
-84.3125 -76.7598 82.0759 -83.4978 -76.7913 81.8254 -82.7899 -76.8139 81.4918 
-82.2322 -76.7994 81.0419 -81.7644 -76.9573 80.4218 -81.4245 -77.2644 79.7713 
-81.2197 -77.5339 79.1368 -81.0621 -77.7923 78.4483 -81.1328 -79.5821 79.6402 
-81.2607 -79.3855 80.4163 -81.1135 -81.3364 81.5532 -81.4034 -79.2206 81.0515 
-81.331 -81.2709 82.2956 -81.0882 -83.229 83.4205 -81.6374 -78.9039 81.595 
-81.5664 -81.1753 82.7888 -81.4128 -83.2875 84.0371 -81.2056 -85.5062 85.2725 
-82.084 -78.5373 82.2072 -81.8972 -80.8577 83.3067 -81.7449 -83.2498 84.4598 
-81.5681 -85.6536 85.7021 -81.3558 -88.4154 86.876 -82.6588 -78.4238 82.6756 
-82.4042 -80.5326 83.8449 -82.1306 -82.9849 84.9804 -81.9403 -85.5622 86.1399 
-81.7165 -88.4355 87.199 -81.3185 -91.4627 88.1733 -83.2716 -78.4166 82.9033 
-83.0078 -80.4005 84.0769 -82.653 -82.7228 85.2825 -82.3345 -85.2681 86.5588 
-82.0752 -88.1118 87.6965 -81.6683 -91.1895 88.6043 -80.9964 -94.0986 89.44 
-83.9672 -78.2694 83.105 -83.6642 -80.1985 84.2067 -83.3395 -82.4664 85.3301 
-82.9096 -84.9684 86.5804 -82.4725 -87.6803 87.9235 -82.0154 -90.6363 89.0348 
-81.353 -93.6528 89.8723 -80.5231 -96.4736 90.4807 -84.6983 -78.1741 83.236 
-84.3403 -79.9215 84.3573 -84.0794 -82.0663 85.4652 -83.7045 -84.5503 86.5483 
-83.126 -87.245 87.7687 -82.5068 -90.0575 89.0293 -81.8118 -92.9944 90.0257 
-80.9725 -95.9786 90.6554 -80.1499 -98.8376 90.9194 -85.3692 -78.2858 83.1809 
-84.9703 -79.8438 84.2831 -84.7028 -81.7465 85.4427 -84.4484 -84.0307 86.5601 
-83.9432 -86.6656 87.6454 -83.2589 -89.4424 88.8013 -82.5071 -92.284 89.881 
-81.6394 -95.2447 90.616 -80.7538 -98.2443 90.9289 -80.0236 -101.058 90.9155 
-81.0337 -81.1137 80.2212 -80.8708 -82.987 82.1259 -80.965 -82.8325 80.8633 
-80.9035 -85.1441 84.1936 -80.8315 -84.857 82.7292 -81.1091 -84.5208 81.6203 
-81.0908 -88.1003 86.3159 -80.9794 -87.5842 85.0096 -81.07 -86.9007 83.5487 
-81.3771 -86.1931 82.5266 -81.05 -91.5828 87.9495 -80.9964 -91.2914 87.256 
-81.0906 -90.4312 85.9108 -81.2596 -89.1638 84.5818 -81.5597 -88.0436 83.477 
-80.6366 -94.6247 89.1629 -80.505 -94.8601 88.734 -80.6798 -94.53 87.8848 
-80.986 -93.2568 86.729 -81.328 -91.4405 85.5116 -81.7086 -89.8786 84.2382 
-80.0756 -97.1932 90.2114 -79.7918 -97.6327 89.645 -79.8527 -97.7802 88.8708 
-80.2646 -97.2161 88.1046 -80.8577 -95.588 87.2579 -81.4524 -93.4215 86.1195 
-81.9025 -91.4645 84.7742 -79.635 -99.7971 90.778 -79.2832 -100.338 90.2374 
-79.1931 -100.477 89.3245 -79.42 -100.237 88.5401 -79.974 -99.3236 88.0877 
-80.7809 -97.535 87.4994 -81.558 -95.197 86.5088 -82.0532 -92.8907 85.2243 
-79.443 -102.318 90.788 -79.0388 -103.168 90.4113 -78.9056 -103.422 89.6227 
-78.9912 -103.133 88.7126 -79.2344 -102.421 88.182 -79.7912 -101.22 87.9376 
-80.6951 -99.3239 87.5343 -81.5677 -96.7947 86.7681 -82.1112 -94.1767 85.5893 
-79.7223 -104.016 90.7076 -79.1117 -105.406 90.4118 -79.5897 -106.74 90.4476 
-78.9168 -108.095 89.9583 -79.5966 -108.883 90.0068 -78.7782 -106.26 89.8824 
-78.9065 -110.142 89.1825 -79.8009 -110.588 88.9892 -78.6692 -108.925 89.2566 
-78.8316 -106.353 89.0412 -79.2601 -111.809 87.7652 -80.2517 -111.943 87.5728 
-78.794 -110.921 88.226 -78.9249 -108.871 88.3929 -79.0111 -105.662 88.2317 
-79.9607 -112.873 86.2539 -80.8799 -112.348 86.4989 -79.2545 -112.211 86.7708 
-79.1934 -110.447 87.437 -79.2113 -107.657 87.6565 -79.2267 -104.423 87.7928 
-80.8374 -112.509 85.3535 -81.6556 -111.362 85.9787 -79.9597 -112.375 85.5787 
-79.5968 -110.823 86.4073 -79.5736 -108.439 86.9466 -79.5032 -105.758 87.2455 
-79.8496 -102.764 87.5989 -81.7531 -110.764 85.06 -82.4459 -109.494 85.8014 
-80.8206 -111.214 84.9855 -80.1117 -110.221 85.6757 -79.939 -108.208 86.3529 
-79.9826 -106.021 86.7253 -80.2166 -103.579 87.1584 -80.861 -100.392 87.3405 
-82.4558 -108.555 85.2283 -82.9857 -107.463 85.9028 -81.6655 -109.296 84.9395 
-80.8035 -109.02 85.2909 -80.3376 -107.606 85.905 -80.3923 -105.707 86.3594 
-80.7039 -103.552 86.779 -81.1853 -100.738 87.0415 -81.7354 -97.3671 86.646 
-82.852 -106.389 85.6764 -83.2823 -105.483 86.1501 -82.276 -107.137 85.3423 
-81.5555 -107.292 85.3426 -80.9631 -106.497 85.6523 -80.8399 -104.969 86.0711 
-81.1371 -102.979 86.4756 -81.5615 -100.42 86.6741 -81.9596 -97.4008 86.3195 
-82.2645 -94.4548 85.3548 -80.5131 -101.346 90.9689 -80.3305 -104.277 90.8702 
-81.117 -101.293 91.1378 -80.9394 -104.024 91.0624 -81.7289 -100.736 91.18 
-80.3506 -106.825 90.67 -81.4782 -103.104 90.959 -82.508 -99.6003 90.9586 
-80.9861 -106.272 90.6954 -80.5043 -108.798 90.059 -82.3105 -101.646 90.7119 
-83.5523 -98.103 90.6596 -81.5051 -104.951 90.4242 -81.1414 -107.908 89.8527 
-80.7313 -110.275 88.8938 -83.4375 -99.9288 90.5266 -84.5342 -96.4085 90.1796 
-82.3578 -103.215 90.274 -81.6407 -106.134 89.608 -81.2567 -108.828 88.7854 
-81.0322 -111.011 87.7653 -84.4308 -97.8528 90.0441 -85.3611 -94.567 89.3418 
-83.408 -101.198 90.1642 -82.4469 -104.035 89.6001 -81.7356 -106.552 88.7493 
-81.4636 -108.893 88.0243 -81.5434 -110.627 87.1344 -85.3833 -95.5412 89.1988 
-86.2515 -92.8147 88.3456 -84.4311 -98.6492 89.7064 -83.4678 -101.601 89.5603 
-82.5823 -104.114 88.8349 -82.0568 -106.371 88.1463 -82.0676 -108.25 87.6232 
-82.3238 -109.313 86.7989 -86.3984 -93.4845 88.1718 -87.076 -91.2845 87.2422 
-85.6026 -96.0164 88.9608 -84.707 -98.7539 89.2846 -83.7712 -101.375 88.9571 
-83.0532 -103.729 88.3313 -82.8181 -105.741 87.8616 -82.9403 -107.08 87.3707 
-83.0569 -107.567 86.62 -87.1814 -91.7622 86.8897 -87.6307 -89.8429 85.9456 
-86.6899 -93.8429 87.8876 -86.058 -96.1201 88.6388 -85.2104 -98.4954 88.8453 
[...]
CELL_DATA 2000
SCALARS Distance double
LOOKUP_TABLE default
131.529 131.621 132.017 132.914 131.679 132.096 133.002 133.424 134.323 
131.765 132.153 133.069 133.501 134.442 134.843 135.779 132.004 132.315 
133.299 133.665 134.697 135.042 136.083 136.419 137.489 132.421 132.667 
133.729 134.049 135.187 135.469 136.605 136.874 138.054 138.333 139.526 
132.996 133.19 134.305 134.598 135.813 136.082 137.283 137.525 138.761 
139.022 140.276 140.501 141.667 133.734 133.878 135.075 135.308 136.613 
136.825 138.101 138.29 139.585 139.815 141.119 141.32 142.496 142.618 
143.627 134.652 134.737 136.003 136.198 137.574 137.756 139.089 139.221 
140.541 140.716 142.051 142.225 143.437 143.507 144.536 144.535 145.461 
135.746 135.758 136.992 137.152 138.478 138.706 140.002 140.203 141.463 
141.669 142.955 143.163 144.394 144.494 145.591 145.563 146.586 146.485 
147.483 130.681 129.504 130.296 130.748 128.435 129.159 129.581 130.377 
130.833 127.369 128.099 128.493 129.25 129.689 130.475 130.933 126.31 
126.987 127.315 128.09 128.479 129.32 129.788 130.614 131.135 125.597 
126.014 126.213 126.837 127.116 127.982 128.477 129.44 130.042 130.91 
131.534 125.302 125.493 125.638 125.941 126.15 126.7 127.191 128.1 
128.867 129.845 130.593 131.414 132.108 125.138 125.268 125.498 125.677 
126.017 126.187 126.67 127.123 127.932 128.766 129.692 130.541 131.31 
132.056 132.8 125.18 125.177 125.501 125.692 126.248 126.394 126.96 
127.066 127.749 128.162 129.07 129.766 130.644 131.339 132.11 132.826 
133.674 125.688 125.461 125.815 125.857 126.486 126.686 127.339 127.467 
128.057 128.232 128.967 129.391 130.265 130.821 131.664 132.258 133.125 
133.825 134.791 126.243 127.356 126.594 126.394 128.685 127.858 127.639 
126.935 126.987 130.083 129.248 128.992 128.209 128.118 127.599 127.752 
131.598 130.71 130.441 129.558 129.351 128.693 128.745 128.324 128.5 
133.295 132.343 132.132 131.118 130.93 130.045 130.099 129.458 129.713 
129.177 129.469 135.104 134.154 134.042 132.972 132.869 131.84 131.956 
131.101 131.422 130.676 131.028 130.355 130.727 136.874 136.008 135.992 
134.976 134.934 133.897 134.018 133.107 133.411 132.582 132.907 132.098 
132.405 131.706 132.087 138.491 137.742 137.796 136.912 136.93 135.968 
136.074 135.161 135.404 134.565 134.858 134.028 134.323 133.509 133.861 
133.137 133.581 139.934 139.287 139.385 138.644 138.733 137.903 138.046 
137.179 137.401 136.539 136.819 135.977 136.319 135.494 135.905 135.085 
135.548 134.767 135.276 136.524 136.86 137.327 138.609 137.205 137.697 
139.038 139.483 140.769 137.544 138.02 139.371 139.897 141.257 141.685 
143.061 138.001 138.384 139.704 140.215 141.622 142.138 143.572 144.068 
145.616 138.569 138.889 140.166 140.599 141.991 142.504 143.971 144.523 
146.067 146.664 148.255 139.135 139.436 140.65 141.06 142.379 142.878 
144.302 144.883 146.402 147.034 148.58 149.205 150.654 139.691 139.95 
141.078 141.476 142.723 143.215 144.556 145.144 146.588 147.265 148.748 
149.432 150.839 151.437 152.681 140.241 140.458 141.49 141.851 143.042 
143.516 144.805 145.354 146.711 147.357 148.759 149.474 150.826 151.507 
152.724 153.3 154.369 140.737 140.946 141.881 142.209 143.303 143.775 
144.999 145.555 146.835 147.442 148.751 149.423 150.722 151.411 152.613 
153.246 154.318 154.866 155.821 136.813 138.859 137.865 138.033 140.98 
139.943 140.073 139.156 139.441 143.358 142.192 142.328 141.246 141.495 
140.607 140.94 146.131 144.878 145.196 143.811 144.066 142.832 143.16 
142.156 142.479 148.912 147.834 148.42 147.033 147.423 145.838 146.125 
144.679 144.985 143.788 144.059 151.279 150.485 151.144 150.156 150.681 
149.333 149.632 148.006 148.178 146.602 146.764 145.418 145.546 153.254 
152.635 153.199 152.502 152.967 152.134 152.464 151.308 151.439 149.935 
149.936 148.342 148.311 146.862 146.807 154.962 154.467 155.022 154.373 
154.748 154.039 154.318 153.575 153.775 152.794 152.836 151.482 151.383 
149.807 149.637 148.087 147.893 156.436 156.075 156.716 156.159 156.596 
155.834 156.1 155.291 155.503 154.728 154.89 153.977 153.997 152.756 
152.6 151.058 150.771 149.158 148.848 157.433 159.053 158.127 157.772 
160.455 159.679 159.333 158.352 157.734 161.396 160.87 160.59 159.828 
159.255 158.142 157.269 161.933 161.595 161.369 160.889 160.46 159.587 
158.724 157.52 156.561 162.155 161.991 161.747 161.462 161.081 160.559 
159.784 158.823 157.769 156.712 155.815 161.874 161.989 161.682 161.604 
161.099 160.863 160.086 159.53 158.491 157.691 156.703 155.885 154.979 
161.065 161.404 161.056 161.219 160.63 160.589 159.772 159.506 158.543 
158.083 157.148 156.567 155.641 154.872 153.735 160.046 160.431 160.102 
160.388 159.871 159.952 159.214 159.075 158.228 157.961 157.131 156.778 
155.883 155.327 154.158 153.334 151.916 159.021 159.398 159.103 159.421 
159.004 159.169 158.546 158.511 157.749 157.604 156.817 156.61 155.712 
155.338 154.148 153.522 152.071 151.286 149.834 157.439 157.906 158.175 
159.095 158.108 158.572 159.554 159.807 160.541 157.828 158.523 159.499 
160.066 160.855 161.076 161.516 157.276 158.032 158.903 159.676 160.461 
161.074 161.59 161.811 162.028 156.621 157.425 158.225 158.948 159.597 
160.338 160.849 161.488 161.787 162.106 162.174 155.62 156.607 157.404 
158.217 158.747 159.404 159.742 160.446 160.738 161.44 161.595 162.009 
161.875 154.392 155.409 156.149 157.156 157.682 158.459 158.694 159.318 
159.494 160.21 160.439 161.121 161.14 161.48 161.139 153.229 154.142 
154.788 155.777 156.334 157.231 157.548 158.232 158.389 159.025 159.243 
159.94 160.107 160.624 160.46 160.635 160.174 152.005 152.918 153.479 
154.435 154.996 155.904 156.323 157.068 157.3 157.935 158.12 158.79 
158.965 159.585 159.541 159.9 159.544 159.645 159.138 141.268 142.445 
142.031 142.436 143.697 143.277 143.746 143.319 143.859 145.019 144.605 
145.137 144.698 145.318 144.905 145.574 146.347 146.003 146.625 146.172 
146.844 146.428 147.194 146.752 147.457 147.551 147.342 148.089 147.716 
148.454 148.033 148.864 148.439 149.259 148.719 149.407 148.647 148.528 
149.378 149.149 149.995 149.672 150.572 150.183 151.095 150.595 151.381 
150.732 151.376 149.713 149.642 150.549 150.405 151.343 151.163 152.153 
151.885 152.858 152.457 153.314 152.737 153.408 152.694 153.243 150.648 
150.688 151.63 151.562 152.537 152.462 153.511 153.382 154.38 154.123 
155.001 154.592 155.301 154.692 155.22 154.482 154.925 151.343 151.526 
152.498 152.562 153.542 153.584 154.644 154.646 155.635 155.497 156.334 
156.095 156.833 156.448 157.028 156.408 156.823 156.076 156.423 140.776 
140.319 141.012 141.917 139.745 140.498 141.446 142.173 143.121 139.161 
139.887 140.801 141.608 142.585 143.372 144.361 138.649 139.31 140.148 
140.913 141.846 142.712 143.715 144.577 145.58 138.229 138.827 139.645 
140.305 141.188 141.965 142.929 143.814 144.817 145.721 146.698 137.938 
138.461 139.285 139.871 140.749 141.407 142.33 143.075 144.023 144.88 
145.861 146.775 147.748 137.735 138.21 138.987 139.539 140.393 141.018 
141.919 142.574 143.458 144.162 145.059 145.901 146.871 147.804 148.775 
137.514 137.977 138.687 139.222 140.006 140.625 141.475 142.145 143.006 
143.665 144.492 145.182 146.034 146.881 147.805 148.767 149.665 137.303 
137.729 138.41 138.904 139.635 140.201 140.96 141.615 142.426 143.148 
143.99 144.675 145.462 146.13 146.903 147.73 148.555 149.529 150.329 
137.443 138.137 138.025 138.566 138.978 138.819 139.356 139.215 139.789 
139.86 139.718 140.257 140.055 140.562 140.437 141.041 140.764 140.645 
141.221 140.974 141.407 141.197 141.751 141.72 142.451 141.718 141.595 
142.213 141.957 142.371 142.067 142.601 142.495 143.311 143.297 144.115 
142.716 142.558 143.147 142.925 143.362 143.065 143.624 143.464 144.341 
144.294 145.187 145.02 145.683 143.656 143.502 144.008 143.811 144.277 
144.05 144.669 144.54 145.423 145.384 146.256 146.105 146.73 146.474 
147.025 144.329 144.295 144.771 144.639 145.153 144.988 145.671 145.579 
146.442 146.415 147.23 147.109 147.705 147.475 148.027 147.833 148.535 
144.688 144.8 145.341 145.347 145.948 145.886 146.612 146.561 147.378 
147.351 148.121 148.027 148.667 148.465 149.093 148.884 149.641 149.486 
150.306 145.034 146.098 145.625 145.82 147.562 146.901 147.101 146.494 
146.616 149.194 148.496 148.711 147.977 148.131 147.378 147.435 150.847 
150.186 150.476 149.698 149.841 149.008 149.047 148.227 148.22 152.55 
151.913 152.319 151.541 151.731 150.809 150.818 149.889 149.839 148.99 
148.918 154.301 153.688 154.175 153.442 153.751 152.817 152.921 151.844 
151.843 150.767 150.696 149.696 149.539 155.993 155.455 155.986 155.318 
155.7 154.866 155.075 154.064 154.16 153.016 153.01 151.767 151.61 
150.383 150.137 157.435 157.06 157.616 157.079 157.451 156.739 156.913 
156.084 156.146 155.234 155.211 154.132 153.95 152.672 152.362 151.055 
150.766 158.496 158.314 158.856 158.533 158.864 158.319 158.378 157.684 
157.601 156.893 156.776 156.007 155.784 154.808 154.437 153.27 152.871 
151.674 151.368 144.663 144.424 144.912 145.755 144.398 144.846 145.851 
146.272 147.275 144.502 144.969 146.069 146.502 147.548 147.9 148.884 
144.442 145.016 146.077 146.662 147.672 148.124 149.038 149.446 150.415 
144.131 144.762 145.681 146.421 147.368 148.033 148.921 149.474 150.43 
150.964 152.032 143.708 144.309 145.095 145.836 146.737 147.529 148.475 
149.201 150.226 150.902 152.037 152.633 153.764 143.262 143.824 144.543 
145.214 146.099 146.882 147.893 148.694 149.788 150.593 151.786 152.554 
153.747 154.361 155.437 142.835 143.364 144.062 144.68 145.561 146.31 
147.358 148.159 149.267 150.096 151.279 152.165 153.399 154.213 155.335 
155.945 156.877 142.471 142.963 143.655 144.226 145.085 145.803 146.847 
147.653 148.748 149.561 150.682 151.572 152.793 153.735 154.929 155.715 
156.688 157.24 157.981 144.094 143.152 143.632 143.713 142.165 142.685 
142.713 143.26 143.522 141.026 141.694 141.813 142.312 142.464 143.127 
143.535 139.676 140.499 140.719 141.365 141.488 142.089 142.336 143.119 
143.511 138.216 139.09 139.292 140.097 140.184 140.93 141.053 141.859 
142.136 143.005 143.303 136.739 137.603 137.759 138.573 138.592 139.397 
139.429 140.34 140.539 141.529 141.826 142.732 142.96 135.271 136.105 
136.257 137.047 137.062 137.792 137.77 138.602 138.738 139.764 140.07 
141.142 141.445 142.357 142.545 133.907 134.655 134.787 135.555 135.606 
136.322 136.316 137.033 137.11 137.983 138.245 139.306 139.67 140.738 
141.042 141.936 142.126 132.705 133.348 133.434 134.126 134.177 134.889 
134.925 135.635 135.712 136.469 136.672 137.574 137.928 138.964 139.364 
140.374 140.693 141.55 141.767 132.083 131.251 132.043 132.751 130.353 
131.172 131.925 132.712 133.446 129.644 130.355 131.169 131.92 132.715 
133.455 134.222 129.256 129.806 130.662 131.314 132.192 132.841 133.676 
134.316 135.096 129.171 129.565 130.435 130.982 131.941 132.498 133.401 
133.928 134.774 135.301 136.119 129.39 129.631 130.508 130.918 131.923 
132.398 133.362 133.808 134.702 135.141 136.028 136.479 137.384 129.83 
129.98 130.847 131.133 132.118 132.497 133.473 133.863 134.79 135.184 
136.113 136.518 137.465 137.88 138.824 130.388 130.487 131.323 131.532 
132.458 132.758 133.705 134.042 134.976 135.335 136.281 136.665 137.62 
138.015 138.943 139.337 140.195 131.07 131.103 131.911 132.032 132.902 
133.119 134.038 134.323 135.267 135.583 136.529 136.868 137.8 138.167 
139.061 139.442 140.265 140.624 141.34 131.765 133.156 132.495 132.607 
134.597 133.94 134.059 133.387 133.56 136.081 135.419 135.607 134.903 
135.086 134.415 134.675 137.77 137.003 137.234 136.499 136.728 136.018 
136.287 135.615 135.921 139.777 138.865 139.08 138.216 138.423 137.67 
137.934 137.261 137.555 136.887 137.179 141.91 140.995 141.244 140.24 
140.405 139.452 139.644 138.88 139.146 138.494 138.77 138.123 138.404 
143.833 143.067 143.392 142.484 142.7 141.625 141.751 140.723 140.904 
140.092 140.353 139.682 139.962 139.33 139.62 145.596 144.876 145.215 
144.497 144.794 143.905 144.05 142.97 143.039 142.001 142.155 141.32 
141.567 140.88 141.149 140.521 140.785 147.565 146.701 147.021 146.255 
146.574 145.831 146.047 145.154 145.203 144.167 144.179 143.206 143.32 
142.517 142.706 142.025 142.223 141.611 141.806 142.496 142.979 143.056 
143.724 143.562 143.637 144.422 144.431 145.222 144.28 144.332 145.242 
145.256 146.179 146.135 147.042 145.209 145.195 146.19 146.184 147.198 
147.178 148.17 148.078 148.978 146.252 146.246 147.312 147.27 148.353 
148.287 149.352 149.255 150.249 150.064 150.957 147.109 147.266 148.451 
148.502 149.726 149.618 150.789 150.587 151.715 151.473 152.535 152.202 
153.151 147.726 148.046 149.412 149.66 151.109 151.123 152.443 152.214 
153.419 153.119 154.285 153.94 154.975 154.516 155.353 148.321 148.709 
150.259 150.643 152.264 152.484 153.899 153.844 155.008 154.81 155.882 
155.655 156.618 156.282 157.019 156.55 157.096 148.97 149.409 151.055 
151.519 153.157 153.52 154.883 155.045 156.079 156.098 156.981 156.963 
157.766 157.649 158.264 157.972 158.393 157.988 158.319 125.669 125.185 
125.447 125.619 125.123 125.168 125.293 125.482 125.609 125.203 125.153 
125.135 125.23 125.257 125.445 125.599 125.356 125.153 124.934 124.965 
124.848 125.045 125.127 125.492 125.92 125.967 125.43 125.096 124.803 
124.631 124.644 124.733 125.019 125.454 125.99 126.702 127.041 126.315 
126.046 125.364 125.273 124.832 125.028 124.916 125.396 125.649 126.393 
126.91 127.723 128.162 127.498 127.353 126.626 126.622 125.951 126.191 
125.708 126.171 125.972 126.651 126.82 127.681 128.066 128.905 129.244 
128.626 128.548 127.939 127.955 127.365 127.531 127.028 127.369 126.995 
127.511 127.367 128.113 128.258 129.142 129.403 130.214 130.408 129.762 
129.709 129.113 129.135 128.586 128.69 128.225 128.464 128.112 128.51 
128.284 128.867 128.841 129.615 129.772 130.587 130.769 131.472 126.175 
126.022 126.357 126.941 125.911 126.188 126.703 127.121 127.763 125.963 
126.113 126.631 126.944 127.646 128.047 128.83 126.462 126.398 126.981 
127.064 127.82 128.089 128.954 129.295 130.161 127.321 127.15 127.742 
127.636 128.323 128.425 129.252 129.513 130.356 130.663 131.458 128.266 
128.071 128.605 128.446 129.004 128.987 129.687 129.851 130.629 130.873 
131.638 131.915 132.68 129.326 129.029 129.524 129.295 129.828 129.696 
130.349 130.356 131.106 131.215 131.98 132.159 132.938 133.182 133.976 
130.53 130.14 130.601 130.281 130.837 130.614 131.281 131.149 131.872 
131.823 132.563 132.612 133.375 133.522 134.297 134.508 135.245 131.72 
131.331 131.734 131.394 131.904 131.666 132.282 132.12 132.751 132.636 
133.268 133.245 133.938 134.019 134.75 134.881 135.573 135.726 136.344 
126.541 127.353 127.135 127.598 128.173 127.943 128.394 128.266 128.85 
129.209 128.836 129.267 129.055 129.631 129.552 130.223 130.527 130.039 
130.484 130.086 130.663 130.419 131.119 131.001 131.75 131.817 131.388 
131.85 131.434 132.016 131.643 132.32 132.04 132.798 132.625 133.427 
133.035 132.629 133.077 132.727 133.285 132.99 133.639 133.342 134.028 
133.764 134.521 134.356 135.174 134.338 133.898 134.349 133.934 134.446 
134.148 134.783 134.568 135.243 135 135.677 135.462 136.219 136.095 
136.891 135.587 135.212 135.679 135.256 135.733 135.339 135.915 135.656 
136.337 136.138 136.813 136.595 137.283 137.121 137.874 137.767 138.5 
136.632 136.357 136.812 136.509 136.969 136.616 137.109 136.803 137.399 
137.191 137.844 137.664 138.32 138.157 138.855 138.734 139.445 139.318 
139.956 144.154 143.838 143.775 143.234 143.114 143.262 142.683 142.719 
142.116 142.051 142.295 141.65 141.891 141.227 141.416 140.796 140.969 
141.144 140.469 140.731 140.095 140.349 139.707 139.965 139.371 140.029 
140.111 139.437 139.62 139.038 139.251 138.628 138.83 138.197 138.48 
137.91 139.186 139.238 138.539 138.657 138.017 138.216 137.548 137.748 
137.034 137.28 136.638 136.985 136.427 138.359 138.425 137.707 137.77 
137.019 137.148 136.39 136.592 135.849 136.092 135.408 135.708 135.12 
135.492 134.971 137.55 137.612 136.913 136.942 136.163 136.176 135.386 
135.471 134.777 134.954 134.344 134.556 133.982 134.247 133.737 134.089 
133.642 136.866 136.861 136.186 136.176 135.432 135.39 134.626 134.609 
133.944 134.027 133.467 133.607 133.052 133.217 132.684 132.94 132.5 
132.85 132.473 
POINT_DATA 1002
SCALARS Distance double
LOOKUP_TABLE default
132.399 131.06 131.132 132.523 131.212 133.823 132.558 131.27 133.93 
135.22 132.634 131.396 134.018 135.383 136.738 132.921 131.699 134.346 
135.73 137.142 138.592 133.385 132.184 134.885 136.335 137.755 139.27 
140.719 134.005 132.802 135.528 137.03 138.487 140.045 141.519 142.768 
134.828 133.574 136.394 137.92 139.356 140.917 142.402 143.574 144.546 
135.81 134.573 137.375 138.959 140.393 141.88 143.363 144.551 145.491 
146.352 136.894 135.774 138.277 139.79 141.262 142.741 144.251 145.575 
146.655 147.618 148.487 129.856 129.904 128.758 128.821 127.731 130.023 
127.753 126.629 128.912 130.137 126.585 125.722 127.612 128.917 130.313 
125.741 125.336 126.318 127.422 129.095 130.723 125.41 125.167 125.772 
126.368 127.789 129.722 131.341 125.234 125.02 125.857 126.431 127.221 
128.795 130.566 132.027 125.283 125.241 125.991 126.902 127.555 128.478 
129.943 131.428 132.878 125.864 125.964 126.304 127.172 127.951 128.67 
129.758 131.096 132.471 134.028 126.905 127.018 128.149 128.414 129.497 
127.492 129.838 130.921 128.729 128.14 131.377 132.502 130.113 129.215 
128.885 133.153 134.234 131.869 130.811 130.276 129.981 135.08 136.002 
133.899 132.844 132.22 131.776 131.329 136.945 137.677 135.954 134.953 
134.263 133.756 133.193 132.696 138.606 139.194 137.842 137 136.272 
135.682 135.14 134.642 134.247 140.063 140.547 139.489 138.872 138.268 
137.666 137.114 136.707 136.371 136.029 137.775 138.184 139.876 138.541 
140.394 142.043 138.815 140.762 142.622 144.524 139.228 141.075 143.036 
145.064 147.269 139.777 141.499 143.408 145.476 147.668 149.84 140.267 
141.911 143.733 145.772 147.966 150.116 152.018 140.715 142.256 144.009 
145.935 148.064 150.224 152.187 153.848 141.174 142.586 144.288 146.125 
148.081 150.143 152.12 153.877 155.395 141.604 142.87 144.456 146.26 
148.128 150.055 151.979 153.751 155.337 156.741 138.933 141.027 140.264 
143.511 142.453 141.774 146.607 145.477 144.274 143.438 149.638 149.027 
147.776 146.334 145.192 151.991 151.818 151.213 149.922 148.291 146.819 
153.909 153.71 153.388 152.805 151.607 149.926 148.199 155.659 155.514 
155.033 154.546 153.986 152.931 151.309 149.415 157.186 157.319 156.97 
156.309 155.666 155.03 154.046 152.464 150.45 158.383 158.823 159.962 
160.26 161.149 158.925 161.207 161.84 160.308 158.542 161.746 162.22 
161.16 159.92 157.72 162.015 162.236 161.487 160.603 158.838 156.761 
161.722 161.67 161.313 160.505 159.158 157.484 155.876 160.826 160.704 
160.627 159.957 158.863 157.616 156.353 154.71 159.77 159.668 159.716 
159.279 158.414 157.414 156.375 154.935 152.846 158.761 158.639 158.784 
158.519 157.849 156.993 156.054 154.721 152.803 150.574 157.205 158.95 
157.576 159.202 157.56 160.52 158.821 157.118 160.487 161.569 158.172 
156.558 159.731 161.178 162.035 157.565 155.758 158.955 160.119 161.262 
162.072 156.517 154.6 158.146 159.153 159.967 160.995 161.727 155.125 
153.463 156.821 158.094 158.848 159.68 160.651 161.052 153.85 152.383 
155.4 156.795 157.77 158.562 159.498 160.18 160.159 152.528 151.11 
154.068 155.531 156.657 157.488 158.323 159.086 159.368 159.114 141.655 
142.838 142.846 144.151 144.098 144.254 145.572 145.391 145.694 146.011 
147.052 146.606 147.258 147.588 147.991 148.377 147.68 148.848 149.265 
149.748 150.048 149.535 148.734 150.234 150.915 151.547 152.001 152.105 
150.665 149.749 151.456 152.35 153.205 153.835 154.12 154.012 151.659 
150.546 152.576 153.59 154.606 155.346 155.839 155.963 155.701 140.131 
141.253 139.577 140.666 138.994 142.424 140.005 138.488 141.738 143.598 
139.444 138.022 141 142.805 144.748 139.021 137.648 140.476 142.093 
143.894 145.816 138.719 137.451 140.12 141.657 143.245 144.938 146.836 
138.463 137.293 139.783 141.281 142.826 144.31 145.936 147.849 138.178 
137.074 139.423 140.817 142.333 143.866 145.306 146.866 148.709 137.94 