# vtk DataFile Version 4.0
vtk output
ASCII
DATASET POLYDATA
POINTS 1002 float
-81.8611 -81.8699 73.8631 -82.0828 -81.3517 72.6746 -81.5477 -80.9597 73.4194 
-81.2776 -81.5957 74.717 -80.8986 -80.6677 74.2669 -81.639 -82.511 75.303 
-80.6507 -81.4231 75.6603 -80.0948 -80.6105 75.0967 -81.1785 -82.2392 76.3431 
-81.616 -83.1012 77.0624 -79.9257 -81.4122 76.6372 -79.3143 -80.626 76.0225 
-80.6993 -82.0435 77.4465 -81.2866 -82.7984 78.2794 -81.6782 -83.7243 79.0594 
-79.3202 -81.3462 77.9063 -78.8973 -80.4638 77.4133 -80.0923 -82.0065 78.6566 
-80.7507 -82.7403 79.4498 -81.1317 -83.7712 80.1999 -81.3968 -84.9238 80.8817 
-78.9817 -81.1927 79.5363 -78.7232 -80.2736 79.1387 -79.5123 -82.0502 80.1002 
-80.0001 -82.9811 80.6423 -80.2734 -84.18 81.1703 -80.5505 -85.4506 81.7909 
-80.8257 -86.5807 82.4396 -78.4153 -81.3568 80.9236 -78.2123 -80.3586 80.4688 
-78.811 -82.3499 81.4233 -79.2018 -83.4056 81.8077 -79.4072 -84.6802 82.1361 
-79.6817 -85.9834 82.6662 -80.0516 -87.0921 83.3782 -80.3229 -88.0838 84.0943 
-77.4014 -81.9469 81.7643 -77.3616 -80.7161 81.2562 -77.7004 -83.038 82.2859 
-78.2523 -83.9927 82.7205 -78.6997 -85.0982 83.1363 -79.0637 -86.3425 83.7171 
-79.4559 -87.4918 84.4634 -79.7178 -88.5761 85.1931 -79.8432 -89.6926 85.7909 
-76.5923 -82.6266 82.607 -76.7516 -81.2124 82.1146 -76.6958 -83.7597 83.0894 
-77.3472 -84.5443 83.5511 -78.1297 -85.4366 84.1464 -78.6459 -86.6818 84.9234 
-79.0026 -88.0254 85.7135 -79.2279 -89.3135 86.3884 -79.2928 -90.5766 86.9156 
-79.3163 -91.7744 87.2808 -76.3932 -83.1661 83.8332 -76.6054 -81.7597 83.3574 
-76.3662 -84.2304 84.2379 -76.9549 -84.8903 84.6265 -77.8508 -85.7116 85.2407 
-78.3894 -87.1052 86.1272 -78.5875 -88.7586 86.97 -78.7445 -90.3077 87.5796 
-78.8471 -91.7036 88.059 -78.8782 -92.9293 88.4459 -78.9133 -93.9536 88.6907 
-81.9551 -80.5644 72.0904 -81.3847 -80.0613 72.8969 -81.7823 -79.6009 71.619 
-81.049 -79.1569 72.4162 -81.4445 -78.6799 71.0786 -80.6075 -79.7676 73.735 
-80.5018 -78.4148 71.8286 -80.9946 -77.9061 70.4738 -80.1107 -78.9302 73.189 
-79.7094 -79.6899 74.5306 -80.026 -77.5565 71.2789 -80.6593 -76.9014 70.1362 
-79.4486 -78.124 72.5666 -79.2038 -78.6967 73.9802 -79.0139 -79.5871 75.5542 
-79.7796 -76.1505 71.0717 -80.4466 -75.4823 70.1727 -78.9854 -76.9419 72.1172 
-78.5546 -77.6037 73.4393 -78.6364 -78.4299 75.1741 -78.7416 -79.4237 77.1853 
-79.5599 -74.5725 71.2092 -80.3535 -74.143 70.4571 -78.8324 -75.4161 72.1002 
-78.1936 -76.3075 73.1982 -78.135 -77.2544 74.8393 -78.4378 -78.3856 77.005 
-78.5183 -79.3662 79.0035 -79.5211 -73.4964 71.6311 -80.6091 -73.3389 71.0036 
-78.8235 -74.1764 72.485 -78.3089 -75.0889 73.4939 -78.0317 -76.0725 74.8322 
-78.0822 -77.3167 76.8098 -78.109 -78.4702 78.8334 -77.8724 -79.4137 80.2277 
-79.967 -73.0064 72.3379 -81.1797 -73.0776 71.7506 -79.0872 -73.406 73.1918 
-78.617 -74.1427 74.224 -78.3388 -75.0075 75.3444 -78.0831 -76.1778 76.8809 
-77.7208 -77.4778 78.6971 -77.3564 -78.468 80.0637 -77.0804 -79.574 81.0298 
-80.6758 -72.8842 73.1893 -81.7387 -73.144 72.5226 -79.6775 -72.9206 74.103 
-79.0005 -73.3243 75.1609 -78.6119 -74.0443 76.172 -78.2561 -75.1205 77.3278 
-77.6438 -76.4535 78.8046 -76.9471 -77.5784 80.1127 -76.6423 -78.5562 81.0418 
-76.657 -79.9688 82.068 -81.617 -73.0687 73.8143 -80.6124 -72.7434 74.8283 
-81.4794 -72.9604 75.5157 -80.4848 -72.6193 76.7067 -81.3717 -73.0704 77.2732 
-79.6506 -72.6589 75.9824 -80.4131 -73.0786 78.2773 -81.3993 -73.7895 78.6784 
-79.5041 -72.6815 77.7524 -78.9029 -73.1079 77.0064 -80.5554 -74.2962 79.5874 
-81.4535 -74.8312 80.0981 -79.4937 -73.6995 79.128 -78.67 -73.5982 78.6087 
-78.3607 -74.1948 77.9702 -80.655 -75.4323 81.2832 -81.349 -75.6362 81.8886 
-79.7006 -75.1676 80.6693 -78.6788 -74.9346 80.1604 -77.9971 -75.0732 79.7217 
-77.7193 -75.6404 79.2435 -80.5359 -76.2281 83.1743 -81.2206 -76.456 83.5425 
-79.7085 -76.1339 82.6334 -78.8343 -76.0764 82.0432 -77.986 -76.1406 81.5572 
-77.2389 -76.4382 81.0947 -76.8476 -76.9353 80.5603 -80.4982 -77.2834 84.6823 
-81.2574 -77.6248 84.8154 -79.567 -77.0289 84.4102 -78.7669 -76.9078 83.931 
-78.1533 -76.9882 83.3563 -77.3609 -77.2668 82.8091 -76.5708 -77.6057 82.2047 
-76.3361 -78.0022 81.5426 -80.651 -78.5705 85.9713 -81.3648 -78.853 86.0502 
-79.6733 -78.2687 85.8306 -78.7559 -78.0576 85.5066 -78.2242 -78.0858 84.9387 
-77.7296 -78.3591 84.3285 -76.9934 -78.686 83.814 -76.4792 -78.9778 83.246 
-76.4586 -79.3798 82.5981 -80.7702 -79.7258 87.2679 -81.3888 -79.9059 87.3126 
-79.9247 -79.5122 87.1663 -79.0245 -79.3592 86.9458 -78.3986 -79.4151 86.4557 
-77.9896 -79.6787 85.7905 -77.4574 -79.9982 85.2926 -76.9312 -80.3059 84.9832 
-76.7131 -80.684 84.5666 -76.6774 -81.192 83.9647 -76.5896 -83.146 85.1188 
-76.7454 -82.5932 85.7827 -76.6429 -84.1697 86.6113 -76.8549 -81.9832 86.1987 
-76.7285 -83.5704 87.0443 -76.9139 -85.1181 87.6494 -77.1681 -81.5091 86.401 
-76.9564 -82.9036 87.3089 -77.0846 -84.603 87.983 -77.5318 -87.0091 89.1492 
-77.7274 -81.2324 86.7607 -77.4433 -82.573 87.7287 -77.4876 -84.2309 88.5677 
-77.8569 -86.7852 89.807 -77.987 -89.8523 91.4815 -78.2567 -80.985 87.4601 
-78.0246 -82.5643 88.5009 -77.8896 -84.302 89.5086 -78.0471 -86.7485 90.7813 
-78.1435 -89.7956 92.3361 -77.8603 -92.5388 93.4959 -78.7625 -80.7359 88.1166 
-78.5435 -82.4694 89.3016 -78.2718 -84.4492 90.4346 -78.0929 -86.7629 91.6999 
-78.0316 -89.5962 93.141 -77.9275 -92.5295 94.2276 -77.7677 -94.9486 94.7037 
-79.4502 -80.6658 88.4144 -79.0807 -82.2789 89.689 -78.7839 -84.3251 90.9181 
-78.481 -86.5503 92.1545 -78.2217 -89.0927 93.5047 -78.1084 -92.0817 94.6925 
-78.1111 -95.0443 95.3718 -78.1368 -97.6696 95.7158 -80.2458 -80.7745 88.4892 
-79.7249 -82.2264 89.7025 -79.386 -84.1324 90.933 -79.1692 -86.2337 92.1637 
-78.9222 -88.5607 93.3963 -78.7192 -91.4154 94.6348 -78.6456 -94.5895 95.6391 
-78.5986 -97.646 96.261 -78.4992 -100.532 96.6088 -80.9586 -80.9086 88.4948 
-80.4404 -82.2717 89.604 -80.0417 -84.0255 90.7443 -79.8276 -85.9739 91.9657 
-79.6239 -88.1763 93.1118 -79.3894 -90.9222 94.2211 -79.2253 -94.0296 95.3645 
-79.0644 -97.0971 96.307 -78.8207 -100.092 96.8697 -78.5465 -103.068 97.0595 
-76.4782 -84.3085 85.5273 -76.9005 -85.2123 86.985 -76.8832 -85.0716 85.8688 
-77.4306 -86.9377 88.5089 -77.6344 -86.5187 87.6359 -77.7648 -86.0083 86.4349 
-77.7155 -89.8703 90.7147 -77.7918 -89.519 89.8152 -78.1134 -88.6416 88.6331 
-78.281 -87.7212 87.3435 -77.5681 -92.6145 92.8486 -77.3373 -92.6252 92.0511 
-77.5118 -92.1113 90.9005 -77.8854 -90.9862 89.5439 -78.2287 -89.7754 88.2339 
-77.4351 -94.7941 94.1082 -77.0809 -94.5856 93.5059 -77.0126 -94.3411 92.669 
-77.2978 -93.6859 91.4485 -77.7362 -92.6952 90.1017 -78.2381 -91.5577 88.8219 
-77.7881 -97.6567 95.1462 -77.4649 -97.1951 94.5578 -77.3397 -96.5879 93.9676 
-77.4625 -95.8128 93.1068 -77.7013 -94.9484 91.8962 -78.0212 -94.1457 90.5786 
-78.4243 -93.0952 89.2975 -78.248 -101.226 96.2306 -78.0423 -101.36 95.6873 
-77.9673 -100.948 95.1238 -78.0015 -99.9066 94.4954 -78.0144 -98.3426 93.6081 
-78.0724 -96.8795 92.4634 -78.2778 -95.7185 91.172 -78.5584 -94.4343 89.7915 
-78.3412 -104.453 96.8216 -78.2008 -105.462 96.3513 -78.1741 -105.901 95.7641 
-78.2243 -105.457 95.1891 -78.1656 -103.797 94.5832 -78.0561 -101.318 93.8636 
-78.1611 -98.9615 92.9563 -78.4188 -97.1027 91.702 -78.6498 -95.4926 90.1637 
-78.3036 -106.53 96.9233 -78.011 -108.228 96.4236 -78.0461 -110.071 96.2108 
-77.4256 -111.568 95.3141 -77.7342 -112.987 95.1988 -77.8051 -109.452 95.7074 
-76.6746 -114.093 94.1676 -77.3244 -115.093 94.2754 -76.986 -112.443 94.4077 
-77.8299 -109.959 95.0285 -76.2125 -116.223 93.4482 -77.2117 -116.525 93.4731 
-76.1922 -114.491 93.3819 -77.171 -112.547 93.83 -77.9678 -109.218 94.5264 
-76.6154 -117.401 92.7096 -77.8044 -116.677 92.6695 -76.1418 -116.127 92.713 
-76.866 -114.014 92.9252 -77.7169 -111.379 93.5715 -77.9794 -106.829 94.1551 
-77.7363 -116.414 91.7172 -78.8507 -115.318 91.9484 -76.9367 -116.242 91.7446 
-77.1703 -114.721 92.112 -77.9312 -112.321 92.8447 -78.1563 -108.473 93.6529 
-78.0856 -103.394 93.8272 -78.9524 -114.128 91.0573 -79.8554 -113.433 91.576 
-78.0423 -114.38 90.8737 -77.7271 -113.858 91.2705 -78.2227 -112.183 92.2874 
-78.6521 -108.906 93.384 -78.555 -104.38 93.7752 -78.4096 -100.133 93.0997 
-79.9228 -111.978 91.1957 -80.5857 -111.484 91.7254 -79.1045 -112.084 90.9188 
-78.4256 -111.828 91.107 -78.4076 -110.746 92.0039 -78.8641 -108.201 93.2019 
-79.0261 -104.393 93.6777 -78.8273 -100.58 92.9963 -78.6601 -97.6772 91.6178 
-80.5859 -109.761 91.8633 -81.0566 -109.08 92.1874 -79.9794 -109.926 91.7079 
-79.2776 -109.626 91.7493 -78.8555 -108.642 92.1778 -78.9744 -106.591 92.9657 
-79.1896 -103.602 93.3273 -79.0887 -100.482 92.6138 -78.8807 -97.9062 91.2101 
-78.819 -95.8384 89.8151 -78.7078 -103.383 97.1555 -78.5833 -106.997 96.9444 
-79.1009 -103.354 97.1169 -79.1674 -107.021 96.9394 -79.7495 -102.921 97.0023 
-78.5942 -110.617 96.2818 -79.8263 -106.329 96.8755 -80.4067 -101.968 96.7716 
-79.2117 -110.358 96.2833 -78.4926 -113.156 95.3073 -80.4548 -104.859 96.8061 
-80.8981 -100.565 96.3591 -79.7131 -109.051 96.2733 -79.0305 -112.03 95.1938 
-78.2247 -114.392 94.2039 -81.139 -102.821 96.6111 -81.2992 -98.8044 95.6194 
-80.5129 -107.066 96.5704 -79.6226 -110.166 95.3788 -78.9211 -112.403 94.0478 
-78.3169 -114.878 93.274 -81.6853 -100.31 95.8106 -81.7254 -96.7397 94.533 
-81.415 -104.528 96.6104 -80.6551 -108.151 96.054 -79.8169 -110.505 94.5408 
-79.3127 -112.6 93.3764 -79.0318 -114.598 92.711 -82.0792 -97.5373 94.5041 
-82.2795 -94.6345 93.4262 -81.8517 -101.292 95.6635 -81.3709 -105.31 96.0847 
-80.7155 -108.465 95.2656 -80.2517 -110.673 94.0444 -80.077 -112.471 93.1876 
-79.9783 -113.531 92.4006 -82.6659 -95.0022 93.3245 -82.9795 -92.8014 92.5272 
-82.2898 -97.884 94.3175 -81.7794 -101.491 95.1557 -81.2341 -105.104 95.2437 
-80.8735 -107.975 94.626 -80.7978 -110.066 93.9011 -80.8226 -111.431 93.1603 
-80.7463 -111.884 92.3237 -83.4687 -93.0074 92.4413 -83.7138 -91.3166 91.7491 
-83.1592 -95.072 93.2632 -82.6748 -97.7942 94.0985 -82.078 -101.002 94.6398 
[...]
CELL_DATA 2000
SCALARS Distance double
LOOKUP_TABLE default
135.737 135.635 135.991 136.657 135.598 135.956 136.701 137.046 137.839 
135.639 135.99 136.825 137.178 138.058 138.374 139.268 135.917 136.157 
137.072 137.39 138.337 138.653 139.593 139.892 140.822 136.537 136.627 
137.566 137.771 138.742 138.99 139.93 140.217 141.159 141.464 142.389 
137.164 137.292 138.155 138.339 139.252 139.45 140.339 140.571 141.495 
141.795 142.757 143.046 143.972 137.494 137.751 138.534 138.809 139.646 
139.905 140.759 140.996 141.923 142.19 143.21 143.477 144.491 144.698 
145.649 137.86 138.055 138.891 139.112 139.966 140.225 141.143 141.42 
142.456 142.724 143.866 144.086 145.233 145.372 146.443 146.514 147.497 
138.651 138.67 139.615 139.64 140.554 140.658 141.679 141.906 143.111 
143.386 144.688 144.901 146.17 146.282 147.459 147.481 148.559 148.504 
149.476 135.18 134.283 134.825 135.025 133.297 133.881 134.058 134.659 
134.912 132.241 132.843 133.003 133.634 133.857 134.533 134.868 131.204 
131.769 131.876 132.508 132.696 133.414 133.762 134.54 135.071 130.207 
130.722 130.748 131.337 131.446 132.174 132.554 133.424 134.074 134.942 
135.698 129.347 129.726 129.735 130.242 130.344 130.959 131.355 132.222 
133.019 134.001 134.886 135.715 136.426 128.988 129.044 129.11 129.422 
129.691 130.106 130.581 131.215 132.068 133.005 133.995 134.895 135.607 
136.308 136.789 129.323 129.039 129.144 129.159 129.582 129.801 130.399 
130.764 131.569 132.239 133.187 134.007 134.719 135.418 135.865 136.534 
137.044 130.079 129.654 129.754 129.528 129.923 129.96 130.55 130.769 
131.475 131.909 132.714 133.323 134.001 134.577 135.04 135.629 136.182 
136.928 137.726 130.549 131.289 130.673 130.304 132.204 131.523 131.186 
130.581 130.426 133.319 132.541 132.187 131.513 131.343 130.861 130.947 
134.711 133.829 133.521 132.658 132.472 131.831 131.926 131.524 131.833 
136.228 135.373 135.202 134.231 134.093 133.196 133.274 132.644 132.963 
132.554 133.001 137.659 136.912 136.831 135.976 135.893 134.98 135.006 
134.197 134.386 133.782 134.078 133.706 134.097 139.078 138.354 138.315 
137.54 137.478 136.686 136.693 135.925 136.021 135.291 135.429 134.82 
135.035 134.685 135.051 140.577 139.846 139.868 139.062 139.042 138.233 
138.283 137.535 137.691 136.945 137.139 136.353 136.6 135.892 136.288 
135.798 136.34 142.026 141.368 141.444 140.675 140.715 139.887 139.99 
139.194 139.413 138.658 138.948 138.175 138.529 137.741 138.223 137.478 
138.085 137.437 138.076 139.29 139.398 139.964 141.071 139.465 140.033 
141.096 141.567 142.469 139.624 140.078 141.054 141.504 142.416 142.91 
144.154 139.985 140.307 141.293 141.586 142.61 142.99 144.416 145.086 
146.991 140.478 140.76 141.868 142.078 143.258 143.496 145.037 145.576 
147.552 148.298 150.196 141.026 141.295 142.48 142.772 144.045 144.322 
145.8 146.278 148.082 148.818 150.651 151.282 152.74 141.647 141.855 
142.976 143.333 144.594 145.015 146.375 146.885 148.412 149.133 150.802 
151.584 153.148 153.673 155.059 142.29 142.453 143.444 143.759 144.919 
145.398 146.679 147.235 148.59 149.257 150.765 151.588 153.196 153.974 
155.506 156.068 157.515 142.827 143.014 143.905 144.171 145.208 145.642 
146.839 147.397 148.667 149.304 150.681 151.475 153.016 153.914 155.461 
156.275 157.685 158.364 159.649 139.598 141.308 140.509 140.507 142.809 
142.145 142.217 141.377 141.399 144.781 143.878 144.279 143.283 143.484 
142.44 142.616 147.763 146.484 147.164 145.861 146.346 144.965 145.261 
143.955 144.225 150.767 149.641 150.204 149.004 149.459 148.101 148.359 
146.898 147.067 145.698 145.886 153.092 152.207 152.494 151.618 151.841 
150.882 150.97 149.806 149.804 148.527 148.561 147.291 147.36 155.496 
154.462 154.845 153.762 154.088 153.042 153.278 152.166 152.252 151.055 
151.099 149.884 149.925 148.673 148.659 158.196 157.185 157.935 156.627 
157.341 155.881 156.525 154.964 155.37 153.768 153.963 152.49 152.603 
151.253 151.249 149.907 149.785 160.482 159.878 160.826 159.893 160.788 
159.541 160.349 158.788 159.322 157.459 157.643 155.746 155.771 154.101 
154.055 152.553 152.371 150.945 150.691 161.792 163.75 162.693 162.332 
165.19 164.41 164.137 163.116 162.505 166.078 165.491 165.102 164.527 
164.176 163.174 162.263 166.766 166.255 165.776 165.21 164.871 164.412 
163.865 162.719 161.335 167.105 166.901 166.505 165.892 165.385 164.931 
164.495 163.888 162.801 161.395 159.563 166.561 166.837 166.433 166.305 
165.659 165.352 164.78 164.377 163.467 162.498 160.846 159.315 157.422 
165.481 165.857 165.318 165.617 164.943 165.114 164.482 164.455 163.61 
163.026 161.543 160.33 158.461 157.078 155.384 164.537 164.752 164.204 
164.393 163.793 164.045 163.483 163.75 163.015 162.903 161.571 160.794 
158.945 157.818 155.989 154.933 153.424 163.602 163.881 163.43 163.537 
163.006 163.073 162.493 162.652 161.919 162.016 160.821 160.487 158.742 
157.971 156.086 155.227 153.606 152.857 151.552 161.688 161.999 162.514 
163.673 162.137 162.811 164.141 164.49 165.346 161.933 162.843 164.223 
164.849 165.785 165.932 166.362 161.276 162.422 163.73 164.623 165.425 
165.96 166.315 166.569 166.796 160.182 161.545 162.902 163.941 164.684 
165.275 165.47 165.975 166.146 166.713 166.888 158.579 160.152 161.565 
162.95 163.904 164.597 164.849 165.13 165.246 165.756 166.022 166.587 
166.527 156.697 158.23 159.415 161.176 162.231 163.572 164.046 164.629 
164.735 165.071 165.298 165.739 165.874 166.098 165.754 155.075 156.267 
157.107 158.721 159.617 161.365 161.987 163.325 163.539 164.365 164.471 
165.068 165.164 165.529 165.344 165.346 164.857 153.902 154.763 155.397 
156.547 157.271 158.724 159.398 160.91 161.327 162.615 162.772 163.801 
163.808 164.573 164.365 164.771 164.296 164.38 163.78 143.331 144.427 
144.072 144.458 145.58 145.248 145.756 145.322 145.805 146.783 146.49 
147.148 146.746 147.36 146.854 147.454 148.015 147.766 148.564 148.239 
148.984 148.507 149.177 148.63 149.285 149.245 149.036 149.929 149.706 
150.585 150.188 150.953 150.419 151.169 150.581 151.342 150.434 150.263 
151.194 151.068 152.079 151.818 152.74 152.271 153.162 152.593 153.522 
152.857 153.738 151.531 151.418 152.351 152.297 153.392 153.298 154.404 
154.106 155.153 154.679 155.711 155.124 156.089 155.369 156.194 152.471 
152.448 153.395 153.412 154.564 154.597 155.865 155.766 156.993 156.679 
157.797 157.304 158.28 157.653 158.475 157.736 158.412 153.24 153.302 
154.275 154.392 155.621 155.776 157.2 157.256 158.664 158.501 159.75 
159.36 160.4 159.812 160.642 159.931 160.617 159.835 160.393 142.832 
142.37 143.023 143.878 141.987 142.569 143.426 144.082 144.963 141.783 
142.257 143.071 143.658 144.538 145.187 146.097 141.611 142.085 142.868 
143.38 144.248 144.818 145.722 146.352 147.287 141.349 141.882 142.715 
143.227 144.094 144.601 145.495 146.045 146.96 147.573 148.51 141.069 
141.611 142.51 143.081 143.984 144.484 145.337 145.84 146.711 147.282 
148.182 148.798 149.704 140.826 141.331 142.195 142.831 143.762 144.345 
145.176 145.668 146.456 146.996 147.835 148.45 149.309 149.947 150.791 
140.646 141.076 141.83 142.443 143.326 144.009 144.862 145.447 146.215 
146.732 147.506 148.068 148.871 149.497 150.294 150.95 151.715 140.58 
140.917 141.584 142.067 142.838 143.484 144.314 145.01 145.828 146.45 
147.236 147.775 148.534 149.068 149.814 150.414 151.149 151.794 152.49 
140.802 141.498 141.34 141.784 142.204 142.052 142.481 142.372 142.941 
142.923 142.759 143.184 143.058 143.615 143.608 144.334 143.767 143.551 
143.983 143.78 144.326 144.288 145.059 145.113 145.912 144.658 144.459 
144.876 144.615 145.101 145.015 145.811 145.893 146.804 146.77 147.473 
145.36 145.27 145.655 145.459 145.893 145.795 146.589 146.691 147.703 
147.734 148.539 148.312 148.835 145.828 145.821 146.216 146.14 146.651 
146.6 147.456 147.542 148.635 148.693 149.598 149.412 149.977 149.627 
150.072 146.223 146.219 146.689 146.693 147.37 147.405 148.365 148.468 
149.573 149.654 150.593 150.48 151.103 150.787 151.249 150.883 151.361 
146.71 146.657 147.209 147.246 148.056 148.175 149.179 149.335 150.344 
150.479 151.343 151.376 152.044 151.885 152.404 152.084 152.558 152.201 
152.684 147.197 148.32 147.723 147.789 149.85 149.111 149.323 148.597 
148.828 151.816 150.951 151.294 150.404 150.673 149.823 150.056 154.013 
153.144 153.528 152.542 152.7 151.722 151.796 150.98 151.113 155.952 
155.282 155.671 154.785 154.896 153.797 153.704 152.681 152.664 151.912 
152.007 157.581 157.037 157.482 156.786 157.05 156.046 156.05 154.807 
154.728 153.609 153.629 152.78 152.784 159.377 158.75 159.347 158.621 
159.068 158.193 158.405 157.266 157.22 155.925 155.784 154.608 154.459 
153.485 153.264 161.355 160.752 161.495 160.714 161.253 160.332 160.616 
159.563 159.543 158.338 158.048 156.788 156.386 155.233 154.828 153.833 
153.447 162.959 162.63 163.366 162.834 163.359 162.558 162.8 161.778 
161.758 160.574 160.299 158.978 158.491 157.159 156.609 155.431 154.94 
153.951 153.546 147.189 147.632 147.658 148.263 148.119 148.191 148.765 
148.811 149.605 148.258 148.596 149.196 149.294 149.958 150.224 151.333 
147.833 148.475 149.148 149.532 150.172 150.501 151.512 152.078 153.429 
147.176 147.872 148.614 149.25 150.013 150.552 151.566 152.196 153.511 
154.177 155.431 146.704 147.263 148.021 148.678 149.584 150.284 151.397 
152.139 153.423 154.163 155.4 156.001 157.065 146.392 146.869 147.57 
148.165 149.095 149.859 151.038 151.874 153.123 153.929 155.111 155.841 
156.961 157.584 158.726 146.056 146.532 147.152 147.715 148.565 149.352 
150.51 151.431 152.647 153.503 154.624 155.427 156.582 157.387 158.646 
159.363 160.617 145.688 146.158 146.749 147.268 148.034 148.77 149.846 
150.797 151.987 152.915 154.013 154.866 156.031 156.944 158.29 159.188 
160.501 161.215 162.285 146.664 145.939 146.515 147.013 145.171 145.698 
146.089 146.828 147.375 144.558 144.926 145.136 145.771 146.17 147.036 
147.441 143.962 144.314 144.373 144.826 145.035 145.744 146.038 146.872 
147.047 142.937 143.522 143.52 144.018 144.119 144.681 144.856 145.504 
145.642 146.353 146.444 141.452 142.247 142.291 142.979 143.067 143.708 
143.814 144.398 144.441 145.037 145.119 145.817 145.99 139.915 140.721 
140.859 141.633 141.749 142.495 142.567 143.244 143.211 143.822 143.807 
144.51 144.678 145.462 145.699 138.611 139.322 139.506 140.237 140.355 
141.094 141.139 141.867 141.832 142.497 142.448 143.145 143.257 144.088 
144.347 145.174 145.391 137.493 138.136 138.297 138.957 139.027 139.694 
139.7 140.406 140.42 141.118 141.154 141.818 141.933 142.674 142.917 
143.76 144.031 144.836 145.031 136.917 136.16 136.948 137.685 135.279 
136.105 136.855 137.647 138.329 134.672 135.291 136.031 136.769 137.478 
138.247 138.95 134.563 134.914 135.627 136.124 136.883 137.499 138.29 
138.972 139.736 134.65 134.923 135.584 135.937 136.69 137.139 137.981 
138.517 139.357 139.894 140.614 134.718 134.976 135.597 135.931 136.636 
137.043 137.842 138.332 139.174 139.663 140.414 140.828 141.483 134.92 
135.086 135.725 135.977 136.691 137.017 137.784 138.203 139.015 139.496 
140.267 140.696 141.384 141.757 142.45 135.271 135.383 136.041 136.216 
136.959 137.182 137.961 138.238 139.041 139.399 140.198 140.585 141.328 
141.699 142.421 142.8 143.539 135.632 135.75 136.385 136.564 137.281 
137.501 138.259 138.497 139.279 139.547 140.346 140.639 141.418 141.72 
142.473 142.803 143.545 143.901 144.589 136.021 136.94 136.559 136.805 
138.087 137.578 137.816 137.424 137.721 139.494 138.849 139.044 138.521 
138.813 138.405 138.724 141.069 140.365 140.552 139.876 140.13 139.59 
139.931 139.472 139.79 142.666 141.987 142.212 141.48 141.709 141.034 
141.352 140.788 141.142 140.602 140.891 144.261 143.611 143.898 143.176 
143.41 142.674 142.936 142.288 142.613 142.03 142.327 141.727 141.962 
145.921 145.259 145.629 144.917 145.205 144.419 144.637 143.889 144.14 
143.512 143.796 143.195 143.43 142.797 143.006 147.691 146.98 147.386 
146.697 147.063 146.283 146.512 145.652 145.821 145.056 145.289 144.658 
144.909 144.282 144.485 143.842 144.05 149.573 148.794 149.149 148.452 
148.825 148.124 148.4 147.568 147.705 146.818 146.957 146.194 146.402 
145.749 145.935 145.297 145.446 144.842 145.024 145.688 146.134 146.192 
146.785 146.694 146.743 147.426 147.409 148.141 147.279 147.385 148.223 
148.215 149.09 149.033 150.002 147.95 148.064 149.056 149.109 150.112 
150.1 151.143 151.101 152.135 148.751 148.857 149.934 150.019 151.117 
151.157 152.264 152.261 153.341 153.256 154.206 149.445 149.66 150.774 
150.942 152.142 152.232 153.491 153.483 154.762 154.622 155.797 155.466 
156.438 149.901 150.246 151.443 151.756 153.131 153.348 154.84 154.892 
156.416 156.292 157.739 157.382 158.592 157.977 158.916 150.315 150.695 
152.049 152.451 154.066 154.433 156.182 156.373 158.026 158.018 159.478 
159.322 160.531 160.156 161.068 160.441 161.129 150.82 151.208 152.688 
153.149 154.924 155.44 157.369 157.747 159.45 159.541 160.815 160.76 
161.707 161.632 162.352 162.162 162.708 162.302 162.742 130.254 129.546 
130.051 130.383 129.18 129.453 129.776 130.2 130.455 129.433 129.321 
129.511 129.692 129.911 130.249 130.528 130.176 129.782 129.795 129.636 
129.755 129.85 130.136 130.477 131.004 131.113 130.602 130.54 130.128 
130.184 129.97 130.223 130.295 130.81 131.178 131.866 132.153 131.591 
131.574 131.036 131.13 130.69 130.927 130.674 131.076 131.14 131.729 
132.086 132.75 133.227 132.685 132.719 132.17 132.312 131.811 132.053 
131.61 131.897 131.616 132.039 132.088 132.713 133.018 133.722 134.216 
133.744 133.782 133.299 133.418 132.979 133.202 132.777 133.009 132.573 
132.863 132.609 133.152 133.206 133.967 134.179 134.949 135.114 134.692 
134.731 134.293 134.37 133.978 134.159 133.821 134.053 133.667 133.903 
133.535 133.954 133.823 134.53 134.619 135.423 135.542 136.248 130.781 
130.861 131.058 131.531 130.896 131.121 131.597 131.811 132.346 131.001 
131.164 131.715 131.923 132.533 132.742 133.396 131.515 131.46 132.044 
132.135 132.808 132.997 133.696 133.886 134.544 132.366 132.189 132.706 
132.616 133.202 133.302 133.976 134.181 134.834 135.007 135.618 133.23 
133.066 133.542 133.36 133.817 133.749 134.333 134.46 135.129 135.299 
135.934 136.08 136.719 134.157 133.932 134.454 134.228 134.698 134.469 
134.998 134.929 135.607 135.68 136.368 136.452 137.085 137.206 137.837 
135.274 134.938 135.463 135.204 135.734 135.453 135.959 135.733 136.327 
136.27 136.936 136.96 137.576 137.618 138.197 138.296 138.859 136.454 
136.073 136.508 136.235 136.739 136.497 136.966 136.708 137.164 137.009 
137.548 137.532 138.109 138.128 138.681 138.708 139.248 139.3 139.809 
130.95 131.717 131.413 131.626 132.552 132.204 132.461 132.188 132.531 
133.587 133.139 133.415 133.086 133.482 133.2 133.651 134.709 134.243 
134.492 134.113 134.517 134.215 134.7 134.418 134.968 135.803 135.357 
135.603 135.204 135.597 135.288 135.797 135.51 136.055 135.794 136.391 
136.954 136.5 136.798 136.347 136.749 136.398 136.956 136.664 137.245 
136.922 137.471 137.2 137.784 138.091 137.696 138.039 137.596 137.986 
137.591 138.139 137.854 138.48 138.162 138.692 138.323 138.833 138.564 
139.164 139.08 138.771 139.114 138.778 139.139 138.79 139.254 138.997 
139.584 139.352 139.88 139.538 139.978 139.642 140.175 139.965 140.61 
139.978 139.69 140.021 139.754 140.129 139.85 140.284 140.036 140.558 
140.363 140.883 140.632 141.058 140.746 141.202 140.966 141.554 141.407 
142.033 146.371 145.874 145.968 145.686 145.426 145.468 145.118 145.243 
144.969 144.845 144.905 144.421 144.593 144.318 144.568 144.402 144.076 
144.175 143.569 143.757 143.422 143.812 143.724 144.064 143.867 143.232 
143.343 142.744 142.872 142.46 142.823 142.687 143.199 143.017 143.345 
142.855 142.454 142.547 142.004 142.09 141.602 141.843 141.51 141.992 
141.69 142.204 141.679 142.002 141.289 141.745 141.832 141.282 141.362 
140.781 140.935 140.388 140.722 140.241 140.727 140.198 140.636 139.978 
140.307 139.663 141.025 141.12 140.541 140.618 139.988 140.072 139.431 
139.593 139.025 139.339 138.856 139.229 138.711 139.022 138.471 138.783 
138.324 140.329 140.393 139.822 139.875 139.274 139.31 138.697 138.734 
138.162 138.291 137.832 138.084 137.673 137.927 137.462 137.694 137.245 
137.562 137.206 
POINT_DATA 1002
SCALARS Distance double
LOOKUP_TABLE default
136.331 135.519 135.363 136.283 135.263 137.36 136.327 135.209 137.498 
138.663 136.439 135.275 137.714 138.967 140.179 136.762 135.719 138.021 
139.282 140.534 141.756 137.407 136.492 138.537 139.674 140.84 142.108 
143.31 137.984 137.021 139.08 140.145 141.206 142.444 143.725 144.885 
138.254 137.212 139.37 140.495 141.643 142.926 144.266 145.488 146.58 
138.705 137.669 139.719 140.814 142.124 143.606 145.071 146.367 147.479 
148.438 139.643 138.648 140.501 141.443 142.782 144.431 146.031 147.413 
148.603 149.601 150.396 134.663 134.452 133.737 133.458 132.701 134.268 
132.375 131.651 133.18 134.126 131.287 130.678 131.972 132.939 134.225 
130.206 129.742 130.756 131.614 133.112 134.889 129.237 129.07 129.77 
130.511 131.945 134.006 135.769 128.832 129.069 129.267 130.042 131.197 
133.069 134.917 136.139 129.221 129.685 129.385 130.1 131.061 132.457 
134.043 135.204 136.256 130.063 130.494 129.986 130.403 131.154 132.217 
133.477 134.489 135.429 136.864 131.094 130.869 131.909 131.798 132.91 
130.897 132.918 134.133 131.849 131.289 134.438 135.566 133.21 132.361 
132.134 136.122 137.001 135.052 134.024 133.444 133.318 137.618 138.362 
136.761 135.871 135.128 134.592 134.332 139.085 139.791 138.246 137.433 
136.781 136.158 135.541 135.238 140.665 141.277 139.858 139.025 138.396 
137.901 137.363 136.9 136.73 142.164 142.641 141.507 140.783 140.166 
139.681 139.265 138.963 138.808 138.72 140.508 140.669 142.039 140.627 
141.996 143.372 140.647 141.892 143.363 145.729 141.013 142.22 143.718 
146.169 149.081 141.59 143.004 144.552 146.844 149.651 151.864 142.131 
143.724 145.412 147.443 149.969 152.341 154.023 142.654 144.147 145.914 
147.804 149.994 152.45 154.662 156.5 143.202 144.478 146.137 147.991 
149.979 152.328 154.818 157.047 159.007 143.679 144.836 146.314 148.069 
149.947 152.125 154.605 156.969 159.047 160.905 141.379 143.018 142.254 
145.245 144.577 143.623 148.485 147.769 146.699 145.465 151.366 150.77 
149.85 148.542 147.205 153.398 152.725 152.032 151.036 149.844 148.645 
155.973 155.17 154.373 153.433 152.29 151.169 149.968 159.093 158.751 
158.116 157.098 155.589 154.018 152.629 151.158 161.549 161.853 161.779 
161.177 159.716 157.646 155.663 153.88 152.082 162.934 163.611 164.721 
164.913 165.948 163.905 165.625 166.67 164.781 163.861 166.477 167.158 
165.234 164.609 163.143 167.071 167.091 165.969 164.96 163.927 161.353 
166.354 166.243 165.879 165.135 164.256 162.236 158.973 164.983 165.224 
164.625 164.335 163.988 162.608 159.81 156.614 164.056 164.338 163.581 
163.185 162.943 162.137 159.993 157.046 154.313 163.258 163.217 162.985 
162.465 161.844 160.992 159.357 156.889 154.329 152.181 161.241 163.384 
161.391 163.676 161.364 165.384 163.508 160.949 165.505 166.478 162.829 
160.068 164.876 165.909 166.568 161.756 158.734 164.14 165.053 165.458 
166.423 159.979 157.033 162.976 164.615 164.892 165.399 166.255 157.688 
155.378 160.59 163.145 164.394 164.932 165.572 165.805 155.744 154.11 
157.899 160.378 162.454 163.782 164.712 165.217 165.018 154.444 153.158 
156.01 157.914 159.919 161.627 162.924 163.804 164.088 163.794 143.676 
144.863 144.746 146.139 145.858 146.27 147.476 147.019 147.834 147.981 
148.808 148.223 149.412 149.712 149.844 150.082 149.435 150.903 151.448 
151.709 151.962 151.28 150.595 152.229 153.115 153.67 154.121 154.495 
152.389 151.619 153.397 154.564 155.545 156.256 156.766 157.017 153.345 
152.459 154.463 155.843 157.199 158.245 158.899 159.185 159.232 142.182 
143.214 141.718 142.778 141.47 144.289 142.529 141.356 143.912 145.418 
142.374 141.106 143.706 145.13 146.623 142.168 140.777 143.606 144.974 
146.387 147.876 141.893 140.541 143.473 144.879 146.165 147.587 149.087 
141.564 140.376 143.13 144.689 145.967 147.243 148.68 150.165 141.291 
140.274 142.639 144.213 145.69 146.995 148.287 149.651 151.073 141.19 