# vtk DataFile Version 4.0
vtk output
ASCII
DATASET POLYDATA
POINTS 1002 float
-84.9955 -79.9045 68.742 -84.9178 -79.2795 67.5189 -84.5323 -79.038 68.2189 
-84.5156 -79.7344 69.4421 -83.9714 -78.9592 68.9119 -84.956 -80.6601 70.0943 
-83.9742 -79.6976 70.3395 -83.323 -79.0141 69.7641 -84.5167 -80.5621 70.9598 
-84.8974 -81.61 71.6414 -83.5056 -79.7847 71.5153 -82.8151 -79.0605 70.88 
-84.1271 -80.5673 72.1632 -84.5569 -81.6382 72.7465 -84.8635 -82.7849 73.3648 
-83.1434 -79.942 72.7849 -82.5695 -78.9874 72.1797 -83.7346 -80.7689 73.46 
-84.182 -81.7698 74.041 -84.5228 -82.9703 74.5899 -84.8448 -84.0526 75.1955 
-82.7529 -80.1158 74.0239 -82.3974 -78.9165 73.5429 -83.2022 -81.186 74.5569 
-83.6327 -82.1584 75.1584 -84.0373 -83.2774 75.8073 -84.416 -84.4015 76.4432 
-84.7607 -85.3609 77.0785 -82.2839 -80.3447 75.2314 -82.1191 -79.0454 74.7923 
-82.5656 -81.6506 75.6283 -82.9797 -82.7413 76.144 -83.4486 -83.8082 76.9154 
-83.9055 -84.9176 77.6994 -84.2725 -85.9303 78.3245 -84.5603 -86.8689 78.8596 
-81.9138 -80.6789 76.3015 -81.8289 -79.3512 75.8306 -82.0777 -82.0777 76.807 
-82.4705 -83.2694 77.3477 -82.9532 -84.3925 78.0996 -83.4129 -85.577 78.9564 
-83.8269 -86.6496 79.6359 -84.1536 -87.6176 80.1126 -84.3966 -88.5749 80.4766 
-81.7632 -81.0664 77.3166 -81.6686 -79.7049 76.8572 -81.8672 -82.5373 77.9786 
-82.2042 -83.7725 78.7077 -82.6527 -84.8827 79.4411 -83.0122 -86.1717 80.169 
-83.3789 -87.4151 80.8385 -83.7963 -88.4169 81.3902 -84.1275 -89.3769 81.7801 
-84.3292 -90.3305 82.0237 -81.7582 -81.4693 78.5039 -81.6463 -80.0993 78.058 
-81.8146 -83.0285 79.1909 -82.046 -84.3748 80.0057 -82.443 -85.4341 80.7572 
-82.7377 -86.6542 81.3376 -82.9659 -88.0734 81.8425 -83.3464 -89.25 82.4132 
-83.7758 -90.2081 82.9541 -84.0465 -91.2019 83.2897 -84.1733 -92.1438 83.4465 
-84.5182 -78.5052 66.8377 -84.1405 -78.2436 67.5965 -84.046 -77.687 66.2365 
-83.6657 -77.3462 67.0006 -83.5274 -76.8056 65.6227 -83.5287 -78.1716 68.3028 
-83.0224 -76.3763 66.3661 -82.8691 -75.8709 64.9523 -83.0448 -77.1922 67.8126 
-82.7888 -78.1975 69.2011 -82.2338 -75.4341 65.7899 -82.1587 -74.8537 64.5124 
-82.486 -76.119 67.4428 -82.385 -77.1164 68.9535 -82.2968 -78.1111 70.4113 
-81.7194 -74.4045 65.6864 -81.8501 -73.6757 64.6968 -81.9714 -75.0452 67.2527 
-82.0858 -75.9128 68.9284 -82.0107 -76.9684 70.3054 -82.1772 -77.9003 71.8097 
-81.8086 -73.1323 66.2739 -82.1326 -72.452 65.4495 -81.7623 -73.8248 67.5131 
-81.7636 -74.6185 69.0048 -81.7105 -75.739 70.3662 -81.8339 -76.8426 71.6937 
-82.0825 -77.8289 73.2601 -82.253 -71.8513 67.1933 -82.6831 -71.435 66.4173 
-81.9007 -72.5489 68.2178 -81.5313 -73.3156 69.3506 -81.2595 -74.4059 70.5145 
-81.2912 -75.7456 71.7692 -81.5768 -76.912 73.1838 -81.8055 -78.0195 74.5973 
-82.7513 -70.8979 68.0844 -83.2406 -70.7364 67.4038 -82.2522 -71.5765 68.9872 
-81.6517 -72.3826 69.9361 -81.1071 -73.3049 70.901 -80.88 -74.5824 72.0495 
-80.9948 -75.9583 73.3806 -81.2678 -77.1593 74.6712 -81.5159 -78.344 75.7919 
-83.2829 -70.3847 68.9104 -83.786 -70.3671 68.3421 -82.7534 -71.0304 69.6598 
-82.1362 -71.9272 70.5251 -81.5119 -72.7569 71.4545 -81.08 -73.732 72.5295 
-80.9023 -74.9964 73.7658 -80.9185 -76.3031 74.9857 -81.1033 -77.5053 76.0442 
-81.3916 -78.7224 77.013 -84.0475 -70.2449 69.568 -83.5162 -70.6528 70.1958 
-84.3175 -70.7542 70.8463 -83.7583 -71.4203 71.5653 -84.51 -71.6352 72.2333 
-82.9237 -71.5705 70.9803 -83.9331 -72.2491 73.147 -84.7168 -72.4751 73.8225 
-83.1217 -72.2774 72.5167 -82.2807 -72.4806 71.9652 -84.1528 -73.0541 74.894 
-85.061 -73.3456 75.4819 -83.2224 -72.9212 74.3213 -82.4472 -73.0498 73.7418 
-81.7258 -73.2975 73.1239 -84.5083 -74.0645 76.5525 -85.3513 -74.3709 76.9914 
-83.4306 -73.8195 76.0909 -82.5286 -73.7816 75.6011 -81.9625 -73.9737 75.0052 
-81.369 -74.3557 74.3563 -84.7937 -75.1181 78.1135 -85.4479 -75.3942 78.3863 
-83.8859 -74.9822 77.7147 -82.8829 -74.9453 77.2588 -82.2251 -74.9901 76.7386 
-81.7118 -75.2026 76.1542 -81.1396 -75.6648 75.5593 -84.9386 -76.1527 79.6146 
-85.5255 -76.496 79.6672 -84.3045 -76.0658 79.3476 -83.4913 -76.2003 78.8856 
-82.7281 -76.274 78.3797 -82.1157 -76.3118 77.8594 -81.481 -76.5479 77.2949 
-81.0535 -76.9897 76.6686 -85.0759 -77.3982 80.8364 -85.6751 -77.7772 80.7006 
-84.5476 -77.2108 80.7876 -83.9385 -77.3499 80.4403 -83.2213 -77.5111 79.9909 
-82.53 -77.5219 79.5637 -81.8733 -77.6269 79.0635 -81.3629 -77.9133 78.4274 
-81.2237 -78.2841 77.6921 -85.2408 -78.7482 81.749 -85.8369 -79.0173 81.5434 
-84.7132 -78.5615 81.8437 -84.1716 -78.6321 81.6534 -83.5155 -78.7834 81.323 
-82.8264 -78.8011 81.0384 -82.2183 -78.8722 80.6932 -81.7529 -79.1142 80.1755 
-81.5305 -79.385 79.5 -81.5458 -79.6848 78.7398 -81.7842 -81.4923 79.7486 
-81.7981 -81.1894 80.505 -81.8165 -83.2945 81.7262 -81.8767 -80.9874 81.1745 
-81.9443 -83.1173 82.3939 -81.6953 -85.1896 83.6433 -82.1026 -80.7077 81.7086 
-82.15 -82.926 82.8785 -81.9276 -84.9966 84.2291 -81.6711 -86.8915 85.3134 
-82.508 -80.4259 82.1048 -82.4284 -82.5629 83.3152 -82.258 -84.6897 84.6964 
-81.9687 -86.6271 85.9518 -82.014 -88.8958 86.7692 -83.1028 -80.3635 82.3125 
-82.8437 -82.2651 83.6327 -82.6413 -84.2909 85.1284 -82.3544 -86.3141 86.4218 
-82.305 -88.7627 87.3549 -82.4727 -91.6723 88.0333 -83.8088 -80.3031 82.5004 
-83.4651 -82.1642 83.7302 -83.1845 -84.0293 85.3142 -82.8711 -86.0218 86.6646 
-82.7018 -88.6 87.5925 -82.7407 -91.6474 88.4107 -82.6397 -94.3884 89.1419 
-84.4532 -80.0898 82.7373 -84.1678 -81.921 83.8445 -83.8999 -83.7924 85.2878 
-83.6071 -85.7228 86.645 -83.3411 -88.2839 87.5828 -83.2039 -91.4171 88.4324 
-83.0207 -94.1753 89.3591 -82.6734 -96.2228 90.0329 -85.0213 -79.9774 82.7727 
-84.8025 -81.5318 83.9504 -84.5927 -83.365 85.2693 -84.3764 -85.3122 86.5155 
-84.1348 -87.7174 87.4799 -83.8984 -90.8067 88.3278 -83.6342 -93.6959 89.2745 
-83.2718 -95.7924 90.1014 -82.8906 -97.6413 90.5265 -85.6171 -80.0449 82.5738 
-85.411 -81.2811 83.8225 -85.1978 -82.9276 85.1356 -84.9742 -84.8784 86.293 
-84.7702 -87.1018 87.2587 -84.5692 -89.9097 88.1533 -84.3144 -92.8823 89.0615 
-83.9814 -95.2026 89.8877 -83.5925 -97.1187 90.4286 -83.2124 -99.3204 90.6419 
-81.7865 -83.1415 80.4147 -81.6725 -85.0593 82.5028 -81.8302 -84.8007 81.1998 
-81.5648 -86.909 84.33 -81.765 -86.6547 83.1493 -82.1353 -86.0692 81.9461 
-81.8199 -88.9246 85.8741 -81.8702 -88.6439 84.7987 -82.1722 -87.9868 83.6847 
-82.4959 -87.2302 82.5173 -82.29 -91.7308 87.3347 -82.1999 -91.3671 86.3792 
-82.294 -90.5336 85.3412 -82.4863 -89.5749 84.1633 -82.6883 -88.769 82.926 
-82.4136 -94.7376 88.6757 -82.2709 -94.638 87.8967 -82.2628 -93.8666 86.9851 
-82.3975 -92.6853 85.8694 -82.6161 -91.462 84.565 -82.9389 -90.3038 83.3977 
-82.2829 -96.8811 89.7409 -82.0504 -97.2657 89.0995 -81.9876 -97.0289 88.2852 
-82.1028 -96.1046 87.3179 -82.385 -94.6923 86.1381 -82.8151 -93.04 84.9838 
-83.3331 -91.4704 83.9894 -82.3959 -98.5524 90.3948 -82.0865 -99.2822 89.9213 
-81.9664 -99.532 89.2009 -81.9788 -99.1237 88.3386 -82.1359 -98.0062 87.3253 
-82.4887 -96.271 86.2841 -83.0367 -94.3034 85.3709 -83.6269 -92.5606 84.4314 
-82.7209 -100.582 90.6389 -82.4014 -101.61 90.3881 -82.2682 -102.096 89.8642 
-82.2149 -101.938 89.14 -82.2127 -101.108 88.2687 -82.3238 -99.596 87.2951 
-82.6284 -97.6056 86.3795 -83.1584 -95.5232 85.5549 -83.748 -93.6629 84.6091 
-83.1108 -102.514 90.6545 -82.6725 -104.129 90.622 -82.8103 -106.227 90.6705 
-82.3628 -107.67 90.5274 -82.518 -109.05 90.5821 -82.4472 -105.049 90.3426 
-82.0357 -109.959 90.0351 -82.697 -110.636 90.0336 -82.0882 -108.116 90.0038 
-82.3469 -105.091 89.764 -82.2145 -111.43 88.9378 -83.2741 -111.903 88.9995 
-81.637 -110.088 89.0258 -81.9668 -107.6 89.2438 -82.3211 -104.319 89.0197 
-82.773 -112.533 87.7918 -83.7556 -112.493 87.9895 -81.7542 -111.326 87.8207 
-81.649 -109.081 88.2894 -82.2102 -106.079 88.6075 -82.4121 -102.795 88.1542 
-83.3483 -112.057 87.222 -84.1674 -111.295 87.4279 -82.4095 -111.409 87.2655 
-82.0192 -109.47 87.6549 -82.3804 -106.805 88.0739 -82.6558 -103.861 87.8901 
-82.5653 -100.745 87.1635 -84.0252 -109.861 87.0494 -84.73 -108.845 87.1824 
-83.2663 -109.845 87.2123 -82.8453 -108.659 87.5658 -82.971 -106.622 87.7856 
-83.1175 -104.175 87.5764 -82.932 -101.441 86.9531 -82.8677 -98.4425 86.2452 
-84.7645 -107.296 86.7845 -85.3167 -106.292 86.8775 -84.1414 -107.602 86.9332 
-83.6809 -107.068 87.2677 -83.5848 -105.777 87.4283 -83.6187 -103.867 87.2363 
-83.4409 -101.487 86.7519 -83.2685 -98.8093 86.0979 -83.4248 -96.0925 85.3873 
-85.3586 -104.917 86.3021 -85.8099 -103.936 86.3809 -84.8549 -105.394 86.3394 
-84.3782 -105.19 86.5399 -84.0756 -104.355 86.6768 -83.9767 -102.91 86.6141 
-83.9121 -100.862 86.4018 -83.8175 -98.4739 85.95 -83.8445 -96.1109 85.2094 
-84.0184 -93.9779 84.3321 -83.7376 -99.6273 90.5326 -83.5429 -103.043 90.6166 
-84.2339 -99.7449 90.3992 -84.089 -103.039 90.6479 -84.6492 -99.5623 90.2222 
-83.2486 -106.634 90.7282 -84.6595 -102.448 90.5546 -85.0147 -98.8703 89.7649 
-84.0188 -106.251 90.7828 -83.2157 -109.108 90.5979 -85.0975 -101.168 89.9934 
-85.4972 -97.4675 89.0238 -84.7452 -105.108 90.5593 -84.0942 -108.429 90.4352 
-83.5847 -110.532 89.9422 -85.5982 -99.1567 89.1474 -86.2776 -95.5296 88.355 
-85.1657 -103.156 89.9099 -84.6574 -106.831 90.05 -84.1804 -109.527 89.6643 
-84.0026 -111.41 88.9654 -86.4623 -96.7071 88.4193 -87.2323 -93.4891 87.7678 
-85.7123 -100.543 89.1185 -85.1019 -104.322 89.5326 -84.6325 -107.335 89.3978 
-84.4446 -109.55 88.897 -84.3814 -111.015 88.1528 -87.4775 -94.2421 87.6658 
-88.0799 -91.6112 86.9666 -86.6419 -97.6312 88.3296 -85.893 -101.291 88.8988 
-85.4372 -104.406 89.1148 -85.1957 -106.706 88.8776 -85.044 -108.328 88.3372 
-84.8938 -109.084 87.6959 -88.3548 -92.0599 86.7052 -88.7916 -89.9852 86.0152 
-87.6428 -94.7996 87.3917 -86.8896 -98.0584 88.0502 -86.4371 -101.183 88.5533 
-86.2038 -103.615 88.6611 -85.9224 -105.304 88.3488 -85.6305 -106.287 87.8444 
-85.4407 -106.561 87.3334 -89.1456 -90.2869 85.7371 -89.4782 -88.6405 85.1643 
-88.5781 -92.3871 86.3667 -87.8797 -95.0043 87.0263 -87.357 -97.8519 87.665 
[...]
CELL_DATA 2000
SCALARS Distance double
LOOKUP_TABLE default
133.704 133.664 134.034 134.76 133.706 134.039 134.819 135.17 135.996 
133.953 134.222 135.11 135.374 136.294 136.566 137.495 134.398 134.628 
135.606 135.819 136.792 137.004 137.985 138.204 139.172 134.936 135.151 
136.134 136.359 137.317 137.537 138.511 138.748 139.744 139.95 140.916 
135.497 135.693 136.638 136.864 137.808 138.036 139.028 139.283 140.342 
140.566 141.594 141.739 142.696 136.073 136.246 137.199 137.395 138.393 
138.581 139.65 139.87 141.031 141.248 142.384 142.507 143.535 143.58 
144.527 136.726 136.86 137.886 138.051 139.161 139.306 140.459 140.615 
141.817 142.013 143.203 143.357 144.449 144.504 145.505 145.484 146.416 
137.548 137.62 138.731 138.863 140.069 140.201 141.403 141.515 142.68 
142.826 143.97 144.152 145.251 145.394 146.425 146.481 147.444 147.401 
148.281 133.008 131.954 132.654 132.979 130.832 131.574 131.909 132.613 
132.964 129.581 130.381 130.725 131.51 131.869 132.619 133.091 128.277 
129.068 129.456 130.313 130.766 131.537 132.012 132.816 133.448 127.265 
127.871 128.334 129.127 129.729 130.511 131.075 131.805 132.417 133.256 
133.992 126.832 127.158 127.65 128.22 128.846 129.56 130.185 130.918 
131.535 132.305 133.014 133.862 134.611 126.894 127.001 127.45 127.774 
128.29 128.791 129.328 130.007 130.618 131.414 132.119 132.949 133.697 
134.511 135.224 127.238 127.195 127.58 127.729 128.187 128.424 128.88 
129.282 129.873 130.531 131.292 132.085 132.881 133.662 134.405 135.152 
135.868 127.784 127.612 127.961 127.973 128.468 128.534 129.042 129.151 
129.756 130.076 130.877 131.437 132.312 132.964 133.775 134.434 135.194 
135.88 136.666 128.252 129.213 128.576 128.457 130.482 129.723 129.598 
128.969 128.968 131.896 131.089 130.964 130.231 130.186 129.552 129.561 
133.434 132.567 132.426 131.63 131.575 130.864 130.872 130.203 130.29 
135.066 134.186 134.047 133.155 133.083 132.3 132.361 131.645 131.779 
131.093 131.361 136.606 135.825 135.77 134.872 134.832 133.936 134.026 
133.235 133.435 132.696 132.948 132.298 132.691 138.037 137.341 137.412 
136.623 136.702 135.811 135.94 135.053 135.265 134.439 134.685 133.933 
134.233 133.64 134.073 139.447 138.793 138.94 138.255 138.431 137.668 
137.84 137.004 137.186 136.335 136.547 135.723 135.982 135.244 135.597 
135.018 135.48 140.788 140.201 140.372 139.765 139.968 139.32 139.508 
138.791 138.955 138.186 138.377 137.589 137.853 137.07 137.418 136.683 
137.116 136.491 136.992 138.117 138.319 138.82 140.138 138.629 139.098 
140.449 140.989 142.348 138.989 139.417 140.743 141.307 142.681 143.183 
144.435 139.409 139.757 141.005 141.564 142.938 143.491 144.774 145.216 
146.494 139.913 140.175 141.336 141.818 143.17 143.732 145.049 145.538 
146.864 147.378 148.879 140.429 140.67 141.763 142.166 143.463 143.984 
145.304 145.807 147.14 147.708 149.223 149.881 151.421 140.859 141.131 
142.17 142.561 143.78 144.279 145.556 146.06 147.358 147.936 149.406 
150.127 151.647 152.284 153.519 141.21 141.493 142.472 142.877 144.012 
144.525 145.731 146.263 147.493 148.084 149.462 150.208 151.671 152.39 
153.614 154.105 155.02 141.555 141.806 142.711 143.093 144.139 144.653 
145.775 146.34 147.478 148.099 149.349 150.122 151.486 152.29 153.494 
154.098 155.013 155.444 156.267 138.459 140.498 139.521 139.722 142.697 
141.696 141.895 140.896 141.112 144.763 143.86 144.068 143.103 143.285 
142.292 142.451 146.907 145.957 146.243 145.257 145.462 144.455 144.587 
143.577 143.693 149.467 148.378 148.834 147.647 147.956 146.756 146.936 
145.774 145.884 144.813 144.944 152.041 151.089 151.631 150.463 150.828 
149.505 149.713 148.343 148.444 147.146 147.234 146.103 146.227 154.017 
153.404 153.885 153.065 153.39 152.319 152.483 151.198 151.23 149.845 
149.827 148.514 148.54 147.385 147.44 155.492 155.076 155.589 155.012 
155.409 154.607 154.84 153.787 153.837 152.565 152.474 151.121 151.014 
149.747 149.695 148.542 148.49 156.877 156.526 157.248 156.727 157.354 
156.612 157.052 156.081 156.284 155.093 155.058 153.71 153.536 152.192 
152.02 150.79 150.646 149.499 149.332 157.965 160.122 158.889 158.523 
162.133 161.089 160.709 159.377 158.728 163.334 162.71 162.324 161.367 
160.657 159.352 158.416 163.971 163.516 163.033 162.465 161.783 160.932 
159.957 158.747 157.585 164.339 164.009 163.414 162.893 162.153 161.611 
160.739 159.936 158.761 157.62 156.283 163.961 164.07 163.47 163.143 
162.299 161.83 160.968 160.419 159.367 158.51 157.148 156.062 154.661 
162.754 163.246 162.728 162.841 162.052 161.836 160.953 160.553 159.557 
158.917 157.638 156.724 155.295 154.317 153.02 161.253 161.85 161.427 
161.813 161.17 161.297 160.487 160.36 159.379 158.974 157.75 157.053 
155.654 154.809 153.473 152.661 151.518 159.719 160.341 159.967 160.456 
159.881 160.212 159.44 159.591 158.615 158.53 157.335 156.959 155.602 
154.993 153.642 152.966 151.765 151.128 150.09 157.92 158.323 158.761 
160.036 158.512 159.128 160.49 160.963 162.092 158.305 159.186 160.606 
161.296 162.457 162.781 163.446 157.497 158.679 160.101 161.148 162.321 
162.941 163.657 163.837 164.181 156.28 157.545 158.845 160.22 161.368 
162.422 163.128 163.743 164.123 164.381 164.501 155.066 156.185 157.263 
158.66 159.737 161.071 161.789 162.791 163.143 163.861 163.956 164.337 
164.066 153.899 154.897 155.737 156.983 157.924 159.282 160.056 161.227 
161.641 162.554 162.651 163.334 163.093 163.442 162.844 152.721 153.626 
154.262 155.374 156.117 157.42 158.167 159.443 159.95 160.975 161.115 
161.877 161.675 162.207 161.707 161.996 161.307 151.691 152.434 152.933 
153.855 154.417 155.566 156.189 157.485 158.013 159.2 159.401 160.291 
160.109 160.732 160.278 160.723 160.117 160.414 159.737 142.027 143.128 
142.756 143.189 144.337 143.948 144.448 144.061 144.628 145.576 145.223 
145.78 145.394 145.992 145.614 146.247 146.731 146.454 147.042 146.721 
147.326 146.983 147.634 147.277 147.943 147.794 147.575 148.21 147.954 
148.616 148.309 149.032 148.699 149.491 149.092 149.877 148.799 148.634 
149.358 149.153 149.936 149.656 150.5 150.182 151.107 150.748 151.68 
151.209 152.044 149.704 149.628 150.433 150.328 151.205 151.018 151.931 
151.693 152.662 152.393 153.347 152.992 153.812 153.335 153.981 150.475 
150.488 151.336 151.358 152.271 152.223 153.143 153.038 154.008 153.869 
154.827 154.572 155.368 154.962 155.551 155.047 155.475 151.124 151.2 
152.053 152.176 153.115 153.189 154.139 154.143 155.162 155.132 156.203 
156.034 156.956 156.543 157.219 156.632 157.122 156.468 156.831 141.574 
141.252 141.818 142.642 140.873 141.482 142.315 142.909 143.783 140.449 
141.073 141.915 142.548 143.42 144.062 144.969 140.123 140.676 141.521 
142.135 143.019 143.671 144.584 145.241 146.125 139.968 140.436 141.258 
141.788 142.656 143.272 144.197 144.858 145.772 146.383 147.207 139.829 
140.303 141.075 141.561 142.351 142.916 143.793 144.459 145.39 146.043 
146.895 147.447 148.199 139.562 140.082 140.81 141.329 142.052 142.588 
143.364 144.004 144.881 145.601 146.473 147.113 147.858 148.39 149.068 
139.26 139.753 140.464 141.001 141.735 142.267 143.003 143.563 144.342 
145.019 145.855 146.588 147.366 147.995 148.655 149.194 149.818 139.07 
139.48 140.18 140.67 141.436 141.964 142.739 143.245 143.982 144.519 
145.269 145.928 146.707 147.412 148.126 148.74 149.359 149.897 150.478 
139.231 139.877 139.805 140.343 140.571 140.514 141.114 141.016 141.619 
141.279 141.244 141.917 141.845 142.498 142.37 142.962 142.042 141.984 
142.695 142.664 143.381 143.287 143.907 143.709 144.223 142.895 142.781 
143.493 143.465 144.249 144.196 144.879 144.684 145.206 144.942 145.451 
143.833 143.668 144.368 144.307 145.133 145.103 145.86 145.689 146.247 
145.959 146.464 146.22 146.816 144.752 144.615 145.313 145.23 146.064 
146.028 146.822 146.685 147.282 147.015 147.528 147.265 147.847 147.642 
148.247 145.488 145.475 146.208 146.182 147.025 146.989 147.792 147.662 
148.285 148.042 148.572 148.325 148.899 148.683 149.263 149.031 149.529 
146.046 146.142 146.948 147.025 147.895 147.92 148.719 148.627 149.255 
149.044 149.576 149.346 149.903 149.702 150.256 150.031 150.507 150.236 
150.647 146.619 148.051 147.416 147.649 149.536 148.931 149.14 148.493 
148.661 150.772 150.303 150.492 149.934 150.058 149.433 149.465 152.062 
151.547 151.814 151.228 151.354 150.743 150.752 150.1 149.982 153.624 
153.054 153.448 152.722 152.896 152.114 152.13 151.38 151.279 150.533 
150.339 155.026 154.637 155.091 154.471 154.675 153.823 153.798 152.887 
152.754 151.896 151.711 150.9 150.693 156.161 155.892 156.398 155.984 
156.287 155.595 155.614 154.667 154.475 153.473 153.213 152.309 152.055 
151.251 151.014 157.404 157.068 157.673 157.271 157.749 157.178 157.416 
156.543 156.455 155.334 155.023 153.905 153.557 152.613 152.304 151.511 
151.227 158.773 158.43 159.097 158.675 159.251 158.727 159.132 158.392 
158.48 157.415 157.149 155.878 155.444 154.242 153.836 152.844 152.5 
151.679 151.368 146.247 146.161 146.656 147.663 146.205 146.654 147.693 
148.207 149.2 146.243 146.709 147.685 148.221 149.174 149.639 150.443 
146.028 146.61 147.484 148.093 148.973 149.518 150.317 150.777 151.62 
145.54 146.219 147.063 147.746 148.633 149.251 150.116 150.638 151.55 
152.072 153.083 145.018 145.685 146.566 147.265 148.207 148.891 149.864 
150.472 151.448 152.004 152.991 153.549 154.478 144.619 145.225 146.111 
146.785 147.714 148.437 149.417 150.161 151.143 151.822 152.739 153.352 
154.217 154.786 155.602 144.29 144.852 145.672 146.324 147.182 147.898 
148.8 149.596 150.537 151.34 152.229 152.948 153.791 154.447 155.325 
155.912 156.807 143.958 144.482 145.207 145.835 146.634 147.329 148.188 
148.943 149.86 150.659 151.573 152.34 153.23 153.963 154.913 155.62 
156.622 157.222 158.163 145.481 144.427 145.045 145.317 143.329 143.998 
144.221 144.921 145.317 141.985 142.801 143.07 143.821 144.166 144.961 
145.384 140.55 141.391 141.678 142.542 142.877 143.75 144.111 144.949 
145.228 139.156 139.973 140.211 141.075 141.373 142.312 142.643 143.568 
143.8 144.62 144.742 137.676 138.528 138.738 139.603 139.863 140.768 
141.072 142.009 142.248 143.113 143.235 144.043 144.174 136.207 137.009 
137.224 138.102 138.371 139.266 139.542 140.442 140.675 141.545 141.706 
142.531 142.697 143.531 143.769 134.957 135.632 135.846 136.637 136.918 
137.775 138.027 138.898 139.08 139.957 140.122 141.002 141.218 142.088 
142.374 143.219 143.508 133.886 134.485 134.69 135.376 135.64 136.392 
136.613 137.392 137.525 138.342 138.479 139.382 139.633 140.59 140.94 
141.854 142.198 143.007 143.267 133.344 132.775 133.432 134.179 132.144 
132.87 133.682 134.334 135.109 131.517 132.227 133.05 133.779 134.567 
135.244 135.996 131.166 131.689 132.49 133.141 133.942 134.638 135.396 
136.077 136.827 131.216 131.526 132.302 132.742 133.578 134.126 134.961 
135.534 136.335 136.947 137.782 131.498 131.7 132.455 132.746 133.596 
133.988 134.897 135.321 136.209 136.65 137.561 138.081 139.029 131.958 
132.06 132.818 133.01 133.852 134.146 135.061 135.42 136.346 136.71 
137.657 138.066 139.068 139.511 140.465 132.635 132.636 133.41 133.489 
134.331 134.501 135.399 135.664 136.592 136.915 137.864 138.242 139.232 
139.65 140.609 140.981 141.8 133.367 133.365 134.115 134.159 134.978 
135.071 135.942 136.1 137.01 137.237 138.17 138.474 139.425 139.806 
140.723 141.108 141.9 142.22 142.878 133.95 135.061 134.581 134.748 
136.28 135.754 135.991 135.464 135.65 137.708 137.064 137.304 136.757 
137.022 136.441 136.64 139.347 138.593 138.786 138.141 138.429 137.857 
138.138 137.502 137.714 141.103 140.312 140.502 139.73 139.98 139.324 
139.645 139.031 139.308 138.626 138.855 142.875 142.104 142.351 141.54 
141.776 140.988 141.27 140.583 140.892 140.23 140.493 139.8 140.065 
144.653 143.884 144.151 143.388 143.645 142.844 143.084 142.299 142.562 
141.842 142.101 141.414 141.659 141.003 141.279 146.493 145.686 145.914 
145.148 145.383 144.642 144.868 144.112 144.331 143.567 143.773 143.028 
143.212 142.53 142.73 142.135 142.371 148.348 147.544 147.745 146.921 
147.099 146.326 146.517 145.8 146.008 145.295 145.48 144.722 144.848 
144.083 144.192 143.521 143.677 143.121 143.308 143.976 144.396 144.508 
145.216 144.991 145.039 145.818 145.883 146.673 145.733 145.766 146.627 
146.63 147.495 147.472 148.293 146.399 146.526 147.439 147.506 148.432 
148.416 149.296 149.194 150.007 146.927 147.133 148.072 148.252 149.209 
149.322 150.258 150.247 151.097 150.959 151.727 147.485 147.687 148.717 
148.896 149.939 150.072 151.102 151.174 152.152 152.086 152.943 152.721 
153.458 148.163 148.358 149.545 149.702 150.932 150.989 152.188 152.167 
153.338 153.25 154.331 154.088 154.988 154.577 155.301 148.871 149.113 
150.395 150.634 152.015 152.156 153.531 153.506 154.823 154.676 155.909 
155.651 156.707 156.285 157.104 156.529 157.142 149.462 149.786 151.049 
151.418 152.808 153.167 154.609 154.832 156.201 156.217 157.436 157.276 
158.304 157.993 158.8 158.333 158.924 158.309 158.729 127.777 127.155 
127.523 127.776 126.682 126.9 127.022 127.53 127.809 126.553 126.51 
126.482 126.776 126.951 127.476 127.71 127.044 126.658 126.588 126.457 
126.518 126.719 126.959 127.426 127.826 128.125 127.499 127.469 126.944 
126.905 126.61 126.747 126.895 127.382 127.846 128.527 129.399 128.734 
128.691 128.052 127.946 127.323 127.273 126.991 127.363 127.607 128.349 
128.805 129.562 130.577 129.944 129.826 129.237 129.131 128.479 128.371 
127.787 127.983 127.84 128.494 128.759 129.555 129.902 130.591 131.684 
131.05 130.887 130.297 130.224 129.648 129.643 129.018 129.169 128.717 
129.228 129.147 129.913 130.056 130.803 130.991 131.646 132.78 132.157 
132.014 131.378 131.321 130.758 130.833 130.294 130.475 129.974 130.355 
130.06 130.699 130.633 131.369 131.396 132.077 132.139 132.75 128.24 
128.314 128.524 129.088 128.393 128.653 129.194 129.419 130.015 128.293 
128.643 129.21 129.501 130.059 130.349 131.036 128.381 128.565 129.179 
129.474 130.109 130.405 131.102 131.445 132.26 129.039 128.913 129.508 
129.589 130.291 130.516 131.266 131.557 132.355 132.715 133.531 130.007 
129.762 130.28 130.151 130.784 130.842 131.56 131.759 132.501 132.805 
133.575 133.941 134.696 130.966 130.722 131.198 131.001 131.543 131.454 
132.079 132.126 132.805 132.98 133.717 134.008 134.79 135.113 135.863 
131.95 131.67 132.143 131.915 132.435 132.259 132.837 132.746 133.394 
133.406 134.135 134.272 135.079 135.307 136.107 136.34 137.052 132.975 
132.668 133.113 132.868 133.369 133.164 133.711 133.56 134.176 134.101 
134.789 134.812 135.571 135.701 136.483 136.662 137.375 137.533 138.142 
128.503 129.328 129.027 129.411 130.301 129.944 130.315 130.083 130.643 
131.404 131.002 131.41 131.08 131.604 131.399 132.045 132.666 132.218 
132.665 132.259 132.771 132.446 133.061 132.864 133.583 133.932 133.522 
133.965 133.557 134.054 133.675 134.25 133.961 134.645 134.464 135.196 
135.088 134.733 135.162 134.804 135.273 134.931 135.467 135.165 135.778 
135.548 136.21 136.039 136.69 136.229 135.872 136.322 135.967 136.435 
136.099 136.61 136.319 136.881 136.641 137.239 137.038 137.645 137.469 
138.081 137.365 137.02 137.49 137.149 137.651 137.292 137.796 137.451 
137.974 137.695 138.264 138.047 138.65 138.45 139.06 138.868 139.478 
138.4 138.103 138.553 138.285 138.8 138.507 139.016 138.664 139.142 
138.798 139.31 139.055 139.64 139.451 140.06 139.869 140.452 140.254 
140.81 145.389 144.9 144.897 144.37 144.191 144.325 143.766 143.814 
143.202 143.248 143.469 142.85 143.013 142.301 142.442 141.753 142.262 
142.451 141.783 141.962 141.213 141.389 140.679 140.901 140.292 141.348 
141.455 140.738 140.878 140.143 140.299 139.615 139.819 139.23 139.481 
138.921 140.555 140.566 139.794 139.86 139.126 139.269 138.608 138.798 
138.186 138.414 137.813 138.069 137.452 139.891 139.84 139.067 139.011 
138.265 138.314 137.66 137.811 137.186 137.371 136.736 136.95 136.326 
136.572 135.994 139.274 139.23 138.507 138.396 137.645 137.57 136.882 
136.922 136.286 136.399 135.768 135.92 135.323 135.516 134.978 135.211 
134.749 138.669 138.639 137.955 137.866 137.109 136.998 136.243 136.2 
135.506 135.55 134.909 135.014 134.432 134.589 134.074 134.271 133.81 
134.055 133.665 
POINT_DATA 1002
SCALARS Distance double
LOOKUP_TABLE default
134.405 133.37 133.338 134.362 133.293 135.517 134.466 133.362 135.633 
136.842 134.843 133.659 136.026 137.227 138.419 135.386 134.154 136.592 
137.763 138.971 140.131 135.917 134.741 137.104 138.26 139.514 140.751 
141.871 136.426 135.329 137.577 138.749 140.08 141.438 142.599 143.622 
136.989 135.905 138.187 139.421 140.785 142.232 143.489 144.523 145.441 
137.69 136.586 138.983 140.316 141.645 143.027 144.356 145.505 146.491 
147.321 138.587 137.474 139.921 141.308 142.588 143.811 145.077 146.323 
147.45 148.395 149.13 132.318 132.308 131.236 131.18 130.082 132.241 
129.884 128.779 131.112 132.258 128.542 127.511 129.945 131.245 132.536 
127.565 126.724 128.9 130.347 131.638 133.083 127.192 126.588 128.202 
129.441 130.774 132.197 133.766 127.231 126.87 127.937 128.738 129.811 
131.274 132.889 134.44 127.491 127.359 128.027 128.605 129.303 130.511 
132.096 133.662 135.115 127.991 128.005 128.406 128.976 129.551 130.419 
131.707 133.138 134.528 135.941 128.762 128.978 129.9 130.293 131.254 
129.526 131.722 132.714 130.879 130.159 133.268 134.324 132.294 131.559 
130.905 134.969 135.907 133.907 133.053 132.476 131.961 136.603 137.312 
135.744 134.85 134.179 133.654 133.232 138.113 138.689 137.526 136.841 
136.132 135.487 134.917 134.556 139.581 140.075 139.13 138.64 138.041 
137.388 136.769 136.264 135.974 140.951 141.341 140.586 140.192 139.695 
139.133 138.614 138.179 137.815 137.562 139.319 139.584 141.517 139.898 
141.871 143.664 140.177 142.158 144.021 145.624 140.482 142.362 144.3 
146.006 147.855 140.915 142.615 144.538 146.313 148.278 150.511 141.404 
142.973 144.805 146.574 148.539 150.861 152.899 141.802 143.31 145.063 
146.804 148.702 150.988 153.099 154.563 142.096 143.522 145.207 146.927 
148.752 150.943 153.09 154.656 155.843 142.374 143.665 145.232 146.89 
148.622 150.68 152.844 154.552 155.835 157.129 140.662 142.917 142.111 
145.005 144.287 143.462 147.245 146.483 145.619 144.684 150.042 149.221 
148.17 147.024 145.949 152.723 152.137 151.134 149.843 148.473 147.286 
154.596 154.344 153.696 152.628 151.23 149.788 148.551 156.076 156.102 
155.786 155.044 153.846 152.354 150.91 149.631 157.666 158.011 157.957 
157.419 156.395 154.939 153.324 151.839 150.477 159.109 159.904 161.367 
162.008 163.032 160.229 163.095 163.879 161.875 159.881 163.578 164.462 
162.431 161.052 158.949 163.992 164.565 162.676 161.359 159.819 157.524 
163.655 163.665 162.764 161.463 160.093 158.197 155.729 162.424 162.179 
162.111 161.29 160.118 158.47 156.254 153.908 160.954 160.632 160.912 
160.499 159.683 158.345 156.442 154.274 152.247 159.443 159.087 159.508 
159.231 158.599 157.571 156.098 154.274 152.388 150.667 157.536 159.651 
157.797 159.951 157.803 161.889 159.82 157.306 162.064 163.431 158.923 
156.274 161.575 163.339 164.207 157.45 155.13 160.178 162.367 163.689 
164.48 155.991 154.09 158.367 160.684 162.327 163.423 163.971 154.625 
152.993 156.61 158.814 160.684 161.923 162.619 162.698 153.271 151.905 
154.903 156.855 158.847 160.332 161.103 161.316 161.119 152.133 151.041 
153.404 154.956 156.77 158.435 159.448 159.786 159.742 159.499 142.367 
143.53 143.489 144.828 144.696 144.991 146.148 145.889 146.368 146.624 
147.332 146.978 147.653 147.964 148.322 148.423 147.986 148.884 149.318 
149.819 150.338 149.5 148.918 150.158 150.773 151.415 152.093 152.617 
150.473 149.73 151.335 152.129 152.899 153.682 154.276 154.552 151.269 
150.432 152.274 153.214 154.099 155.039 155.769 156.067 156.042 141.017 
142.072 140.669 141.708 140.245 143.168 141.269 139.835 142.772 144.325 
140.928 139.608 142.369 143.92 145.513 140.776 139.523 142.072 143.532 
145.144 146.663 140.614 139.352 141.838 143.147 144.704 146.327 147.698 
140.283 139.054 141.538 142.783 144.165 145.777 147.318 148.562 139.926 
138.803 141.185 142.485 143.745 145.12 146.674 148.11 149.297 139.715 