# vtk DataFile Version 4.0
vtk output
ASCII
DATASET POLYDATA
POINTS 1002 float
-84.9157 -80.017 66.8646 -85.0573 -79.5057 65.494 -84.7269 -79.0428 66.3205 
-84.5225 -79.6702 67.7678 -84.2261 -78.7222 67.1665 -84.7512 -80.6064 68.5026 
-84.0314 -79.4275 68.707 -83.5496 -78.5797 67.997 -84.3727 -80.367 69.511 
-84.6278 -81.3829 70.3176 -83.4427 -79.2764 69.6681 -82.9296 -78.3914 68.9632 
-83.9086 -80.2249 70.5157 -84.1639 -81.3655 71.3084 -84.3639 -82.5666 72.0526 
-82.9179 -79.142 70.7965 -82.5292 -78.1501 70.1846 -83.3253 -80.2456 71.5136 
-83.5438 -81.5024 72.2536 -83.6834 -82.8396 72.9921 -83.9494 -83.9849 73.8284 
-82.437 -79.214 72.0859 -82.1451 -78.2141 71.5064 -82.7362 -80.4317 72.6509 
-82.8738 -81.8037 73.2562 -82.9564 -83.1411 73.9907 -83.2244 -84.3114 74.863 
-83.5941 -85.2806 75.7956 -81.8369 -79.6179 73.2883 -81.6384 -78.6043 72.7637 
-82.1267 -80.753 73.8869 -82.2959 -82.1047 74.4713 -82.3913 -83.4197 75.1775 
-82.6255 -84.5696 76.022 -82.9314 -85.6794 76.8518 -83.1333 -86.7722 77.5851 
-81.2715 -80.0283 74.3967 -81.1913 -78.945 74.0192 -81.5556 -81.0872 75.0602 
-81.8156 -82.3187 75.8087 -81.9838 -83.6853 76.5746 -82.2097 -84.9474 77.3914 
-82.4095 -86.2116 78.0986 -82.457 -87.5545 78.645 -82.466 -88.7561 79.1362 
-80.9613 -80.217 75.6284 -80.947 -79.0978 75.3338 -81.22 -81.3739 76.2725 
-81.5087 -82.6236 77.1407 -81.6725 -84.1062 78.0098 -81.848 -85.6226 78.8577 
-82.0078 -87.028 79.5843 -81.9656 -88.4679 80.0565 -81.8592 -89.8146 80.4147 
-81.9031 -90.8268 80.7961 -80.8779 -80.3716 76.9803 -80.8821 -79.238 76.6258 
-81.1079 -81.7459 77.6247 -81.3695 -83.2063 78.4988 -81.4512 -84.8052 79.377 
-81.4769 -86.51 80.2031 -81.5815 -88.0508 80.9881 -81.582 -89.4462 81.5716 
-81.4428 -90.8036 81.9229 -81.4025 -91.9348 82.2127 -81.5422 -92.7254 82.5057 
-84.9241 -78.6741 64.708 -84.5735 -78.1249 65.6062 -84.6834 -77.7576 63.9113 
-84.3113 -77.2103 64.889 -84.4146 -76.7977 63.1489 -83.9614 -77.8397 66.4779 
-84.0771 -76.2602 64.2611 -84.2535 -75.6756 62.6126 -83.6932 -76.9105 65.9044 
-83.1875 -77.701 67.3477 -83.967 -75.0756 63.9415 -84.193 -74.3678 62.461 
-83.4986 -75.7817 65.509 -82.9032 -76.5986 66.8866 -82.5762 -77.4121 68.3661 
-83.9753 -73.7518 64.0096 -84.264 -73.1285 62.6588 -83.3893 -74.4083 65.3501 
-82.6143 -75.2122 66.5332 -82.2348 -76.1851 67.8428 -82.223 -77.1401 69.6167 
-84.21 -72.5726 64.3824 -84.614 -72.1324 63.1553 -83.5248 -73.1216 65.4883 
-82.4788 -73.8176 66.3806 -81.8692 -74.8008 67.447 -81.9022 -75.9391 69.1207 
-81.9124 -77.2035 71.088 -84.6609 -71.6133 65.0167 -85.1463 -71.4409 63.9487 
-83.9915 -72.0831 65.9614 -82.8418 -72.7421 66.6926 -81.8729 -73.6034 67.5544 
-81.6925 -74.6556 69.0193 -81.7814 -75.96 70.9417 -81.5637 -77.5016 72.6824 
-85.084 -71.0256 65.8165 -85.6075 -71.1975 64.8914 -84.5012 -71.2697 66.658 
-83.5148 -71.8932 67.4018 -82.4123 -72.7247 68.2652 -81.8563 -73.6124 69.5193 
-81.788 -74.7372 71.1805 -81.649 -76.2682 72.8708 -81.278 -77.8355 74.2276 
-85.3886 -70.9986 66.5928 -85.9464 -71.4027 65.7585 -84.8448 -70.8996 67.3722 
-84.0632 -71.2624 68.1613 -83.082 -72.0232 69.1388 -82.3152 -72.8779 70.3326 
-81.9562 -73.8353 71.6677 -81.7716 -75.2313 73.1076 -81.4935 -76.8453 74.4785 
-81.1258 -78.163 75.6144 -85.899 -71.5684 67.0494 -85.302 -71.1671 67.8789 
-85.9516 -71.8763 68.4248 -85.2397 -71.5309 69.3416 -86.0712 -72.1706 70.1012 
-84.6029 -71.0583 68.72 -85.2259 -72.0206 71.1711 -86.1234 -72.5164 71.9859 
-84.3927 -71.5279 70.4058 -83.724 -71.4999 69.7922 -85.2428 -72.7513 73.1164 
-86.0638 -73.215 73.6894 -84.3551 -72.3412 72.4093 -83.5357 -72.1245 71.7522 
-82.8733 -72.3408 71.1048 -85.2412 -73.7972 74.8057 -85.9358 -74.2909 75.1508 
-84.4398 -73.4565 74.3401 -83.5642 -73.1459 73.7457 -82.7891 -73.032 73.0636 
-82.2641 -73.2962 72.353 -85.1501 -74.9897 76.3572 -85.7556 -75.4517 76.6214 
-84.4347 -74.6955 76.0414 -83.6 -74.3999 75.5891 -82.7964 -74.1267 74.9139 
-82.2118 -74.2252 74.1508 -81.9066 -74.6563 73.5598 -84.9962 -76.1687 77.9948 
-85.5366 -76.5745 78.1067 -84.3271 -75.8986 77.7742 -83.4846 -75.6909 77.4106 
-82.7283 -75.4386 76.8759 -82.2171 -75.4958 76.1156 -81.8798 -75.9362 75.3861 
-81.6542 -76.3912 74.9026 -84.8447 -77.3277 79.5345 -85.3064 -77.7208 79.4046 
-84.2711 -77.0167 79.5297 -83.421 -76.8771 79.2763 -82.594 -76.7604 78.8809 
-82.1497 -76.789 78.3071 -81.9137 -77.1553 77.5058 -81.6317 -77.5533 76.7568 
-81.3387 -77.8112 76.1784 -84.7015 -78.5114 80.7222 -85.1055 -78.8844 80.4389 
-84.2448 -78.1503 80.9431 -83.5038 -77.9923 80.9037 -82.6104 -78.0034 80.6436 
-82.0355 -78.0853 80.2448 -81.8394 -78.2995 79.5787 -81.6468 -78.5511 78.7089 
-81.3272 -78.6879 77.9175 -81.0357 -78.8599 77.2534 -80.9036 -80.3138 78.1893 
-81.0463 -80.0407 78.8563 -81.044 -82.2691 80.1116 -81.3087 -79.9721 79.6004 
-81.1203 -82.1578 80.8057 -80.9686 -84.8798 82.3222 -81.5372 -79.9453 80.4795 
-81.2382 -82.1255 81.5507 -80.9242 -84.8066 83.1176 -80.3497 -87.1427 84.4702 
-81.6847 -79.7914 81.3095 -81.3567 -82.0141 82.3223 -80.9487 -84.6224 83.7982 
-80.3026 -87.0663 85.3311 -79.5934 -89.1687 86.0738 -82.0527 -79.569 81.8328 
-81.6296 -81.724 82.9248 -81.2026 -84.2523 84.261 -80.5605 -86.8649 85.7914 
-79.8234 -89.4319 86.7725 -79.4655 -92.0537 87.1299 -82.833 -79.3963 82.0746 
-82.2222 -81.4403 83.1833 -81.7438 -83.8485 84.4536 -81.1746 -86.4724 85.8662 
-80.4284 -89.4733 86.969 -79.9147 -92.5293 87.5654 -79.8253 -95.1948 88.0776 
-83.6839 -79.3859 82.0984 -83.0116 -81.3093 83.1384 -82.4153 -83.6715 84.3392 
-81.8755 -86.1078 85.7237 -81.1599 -89.0559 86.912 -80.4919 -92.4336 87.6978 
-80.188 -95.2435 88.3294 -80.0347 -97.3031 89.0453 -84.2756 -79.5991 81.8841 
-83.741 -81.2755 82.9374 -83.1366 -83.5489 84.0676 -82.5491 -85.8819 85.4162 
-81.8337 -88.4182 86.7264 -81.0607 -91.6408 87.7309 -80.5908 -94.7341 88.488 
-80.3512 -96.9408 89.1819 -79.9985 -98.7473 89.828 -84.7006 -79.9123 81.5455 
-84.3166 -81.2854 82.6687 -83.8598 -83.2443 83.8345 -83.3052 -85.501 85.115 
-82.5834 -87.7867 86.3984 -81.7326 -90.5648 87.5313 -81.1123 -93.7232 88.4952 
-80.8164 -96.3617 89.2818 -80.48 -98.4049 89.8933 -79.9224 -100.412 90.3222 
-81.0314 -81.9378 78.8854 -81.0888 -84.4158 81.1075 -81.2345 -83.7952 79.7956 
-80.6006 -86.9364 83.2738 -80.9224 -86.4123 82.0109 -81.2272 -85.599 80.688 
-79.7049 -88.9353 84.9959 -80.0621 -88.6618 83.8399 -80.5615 -88.1668 82.6925 
-81.0608 -87.4115 81.4628 -79.2998 -91.6354 86.3315 -79.412 -91.1508 85.3249 
-79.7807 -90.6128 84.3513 -80.3708 -89.9986 83.339 -81.0328 -89.1486 82.2286 
-79.5937 -95.2174 87.6633 -79.4805 -94.903 86.8912 -79.5017 -94.0907 85.9506 
-79.7807 -92.985 84.968 -80.39 -91.8534 83.9914 -81.074 -90.6687 82.9191 
-79.8064 -97.9561 88.9624 -79.612 -98.4288 88.4846 -79.4388 -98.196 87.5942 
-79.3927 -97.0539 86.5064 -79.7144 -95.3878 85.4529 -80.3665 -93.6586 84.5074 
-80.9932 -92.1217 83.3814 -79.6295 -99.6518 89.8848 -79.3292 -100.598 89.5889 
-79.1037 -101.123 88.8051 -79.0023 -100.812 87.7842 -79.1482 -99.5784 86.7501 
-79.632 -97.5829 85.7895 -80.3144 -95.3482 84.8537 -80.9305 -93.438 83.6742 
-79.3756 -101.421 90.3584 -78.9585 -102.449 90.084 -78.7096 -103.16 89.3297 
-78.6793 -103.331 88.4148 -78.8637 -102.912 87.6554 -79.1807 -101.613 86.8739 
-79.6728 -99.3046 85.988 -80.3558 -96.6485 85.0516 -81.0278 -94.4071 83.9009 
-79.4387 -103.225 90.5712 -78.8728 -104.479 90.3494 -79.0394 -106.258 90.3741 
-78.6456 -107.622 89.8064 -78.9999 -108.604 89.6768 -78.5563 -105.415 89.6377 
-78.6467 -110.232 88.9372 -79.2087 -110.499 88.7253 -78.4876 -108.471 88.7791 
-78.5203 -105.717 88.6083 -78.5599 -112.602 88.0943 -79.395 -112.49 87.9221 
-78.3717 -111.315 87.9241 -78.6465 -108.457 87.8022 -78.8019 -105.496 87.9091 
-78.6013 -114.233 87.2971 -79.7363 -113.528 87.2087 -78.1052 -113.539 87.139 
-78.5667 -110.987 87.0567 -79.096 -107.7 87.3629 -79.1424 -104.764 87.459 
-79.2742 -114.011 86.219 -80.4554 -112.862 86.2645 -78.3701 -114.076 86.1409 
-78.4685 -112.417 86.1703 -79.0757 -109.432 86.5571 -79.3201 -106.249 86.9339 
-79.3725 -102.944 86.7175 -80.3307 -112.565 85.0842 -81.248 -111.359 85.3561 
-79.3331 -113.021 85.0352 -78.9464 -112.262 85.27 -79.1434 -110.121 85.7245 
-79.3044 -107.103 86.1575 -79.4531 -103.652 86.2308 -79.8579 -99.9911 85.8256 
-81.1683 -110.756 84.5653 -81.8114 -109.509 84.9561 -80.3225 -111.374 84.4599 
-79.753 -111.05 84.7868 -79.6456 -109.567 85.3326 -79.6169 -107.029 85.7182 
-79.6775 -103.733 85.7839 -80.1154 -100.129 85.524 -80.6734 -96.893 84.8861 
-81.7216 -108.325 84.6947 -82.2608 -107.114 84.9745 -81.0164 -109.072 84.6003 
-80.4423 -109 84.8451 -80.2686 -107.857 85.3061 -80.2679 -105.749 85.612 
-80.2693 -102.963 85.5572 -80.5489 -99.804 85.2112 -81.0615 -96.8127 84.5901 
-81.4146 -94.4704 83.6477 -80.3578 -101.015 90.4748 -79.8821 -103.984 90.6462 
-80.9237 -101.495 90.5266 -80.5009 -104.321 90.6278 -81.3694 -101.455 90.2435 
-79.541 -106.634 90.3147 -81.092 -104.02 90.3275 -81.6303 -100.616 89.5089 
-80.3226 -106.54 90.1954 -79.6809 -108.412 89.4276 -81.5417 -102.89 89.5983 
-82.1026 -99.0157 88.6516 -81.0782 -106.006 89.9338 -80.5509 -108.086 89.238 
-80.0623 -110.103 88.3779 -82.1161 -100.882 88.7311 -83.034 -96.9692 87.9938 
-81.5453 -104.57 89.3029 -81.1435 -107.296 89.0788 -80.7858 -109.469 88.2127 
-80.3577 -111.72 87.6277 -83.0425 -98.3444 88.0227 -84.0776 -94.881 87.3096 
-82.1201 -102.099 88.5271 -81.5323 -105.357 88.645 -81.1986 -107.933 88.1441 
-81.007 -110.163 87.4869 -80.7775 -111.958 86.9951 -84.1061 -95.8631 87.2394 
-84.955 -93.0514 86.3509 -83.1544 -99.1806 87.8702 -82.3687 -102.523 88.15 
-81.8576 -105.42 87.9764 -81.5766 -107.759 87.4566 -81.4522 -109.599 86.9009 
-81.3781 -110.835 86.2296 -85.0727 -93.8024 86.202 -85.7678 -91.5215 85.2986 
-84.3107 -96.5 87.0643 -83.6006 -99.4838 87.6724 -82.9988 -102.444 87.8324 
-82.4942 -104.951 87.5117 -82.1123 -106.839 86.9592 -81.9299 -108.247 86.3414 
-81.8953 -109.181 85.6201 -85.9626 -92.1078 85.1234 -86.6047 -90.1696 84.3796 
-85.2949 -94.319 85.9858 -84.6931 -96.7549 86.8476 -84.1321 -99.3918 87.4335 
[...]
CELL_DATA 2000
SCALARS Distance double
LOOKUP_TABLE default
132.857 132.803 133.153 133.832 132.754 133.134 133.885 134.233 135.027 
132.737 133.125 133.955 134.335 135.192 135.535 136.407 132.88 133.199 
134.088 134.455 135.365 135.721 136.625 136.968 137.886 133.272 133.486 
134.41 134.693 135.641 135.946 136.883 137.205 138.162 138.5 139.468 
133.81 133.969 134.888 135.115 136.082 136.326 137.301 137.553 138.551 
138.837 139.854 140.147 141.113 134.38 134.508 135.394 135.614 136.598 
136.839 137.878 138.096 139.176 139.378 140.471 140.661 141.706 141.866 
142.814 135.007 135.081 135.975 136.159 137.22 137.438 138.599 138.799 
140.023 140.182 141.409 141.496 142.649 142.669 143.722 143.707 144.667 
135.749 135.769 136.743 136.875 138.074 138.235 139.534 139.681 141.017 
141.16 142.488 142.578 143.805 143.789 144.887 144.8 145.807 145.689 
146.618 132.238 131.224 131.881 132.149 130.139 130.835 131.12 131.777 
132.051 129.089 129.772 130.092 130.744 131.013 131.663 131.977 128.15 
128.786 129.12 129.743 129.998 130.616 130.898 131.609 132.049 127.428 
127.947 128.257 128.795 128.966 129.546 129.754 130.487 130.922 131.772 
132.389 127.097 127.405 127.714 128.047 128.137 128.519 128.63 129.285 
129.724 130.627 131.326 132.238 132.962 127.213 127.291 127.616 127.731 
127.859 127.932 128.026 128.341 128.794 129.521 130.34 131.241 132.108 
132.916 133.636 127.667 127.557 127.842 127.823 128.034 127.955 128.135 
128.132 128.582 128.929 129.769 130.453 131.442 132.195 133.048 133.681 
134.351 128.336 128.086 128.287 128.154 128.38 128.279 128.545 128.48 
128.926 129.031 129.751 130.143 131.079 131.694 132.635 133.237 133.999 
134.48 135.116 128.835 129.614 129.014 128.716 130.601 129.861 129.471 
128.925 128.723 131.794 130.954 130.53 129.785 129.533 129.015 128.939 
133.113 132.262 131.93 131.037 130.8 130.04 129.991 129.407 129.459 
134.469 133.671 133.491 132.601 132.434 131.527 131.443 130.668 130.726 
130.102 130.289 135.836 135.091 135.016 134.215 134.128 133.238 133.126 
132.238 132.232 131.495 131.705 131.124 131.522 137.21 136.513 136.516 
135.764 135.748 134.913 134.857 133.959 133.977 133.137 133.374 132.679 
133.111 132.535 133.033 138.53 137.915 138.007 137.306 137.359 136.553 
136.572 135.71 135.815 134.979 135.255 134.49 134.88 134.196 134.59 
134.004 134.367 139.726 139.213 139.372 138.781 138.897 138.177 138.242 
137.443 137.578 136.812 137.084 136.362 136.671 135.953 136.205 135.526 
135.751 135.179 135.446 136.299 136.625 136.906 138.107 137.141 137.336 
138.513 139.003 140.592 137.692 137.91 139.059 139.467 141.006 141.641 
143.183 138.134 138.433 139.575 139.983 141.415 142.03 143.557 144.074 
145.272 138.566 138.85 139.979 140.406 141.744 142.346 143.819 144.415 
145.743 146.083 147.289 139.133 139.323 140.386 140.76 142.028 142.586 
143.996 144.628 146.046 146.566 147.936 148.32 149.755 139.713 139.884 
140.842 141.155 142.327 142.828 144.159 144.77 146.165 146.81 148.238 
148.845 150.248 150.774 152.074 140.129 140.354 141.224 141.54 142.604 
143.078 144.313 144.893 146.178 146.839 148.183 148.938 150.298 151 
152.196 152.743 153.734 140.42 140.664 141.48 141.815 142.799 143.271 
144.419 144.986 146.16 146.771 147.959 148.71 149.995 150.827 152.056 
152.723 153.741 154.206 155.085 136.509 138.478 137.486 137.7 141.086 
139.868 140.145 138.967 139.21 143.576 142.528 142.764 141.599 141.781 
140.569 140.732 145.473 144.667 144.798 143.943 144.073 143.075 143.198 
142.067 142.206 147.558 146.552 146.778 145.83 146.061 145.159 145.392 
144.429 144.628 143.537 143.675 150.274 149.108 149.654 148.33 148.801 
147.48 147.857 146.67 146.968 145.888 146.075 144.953 144.993 152.697 
151.917 152.639 151.542 152.13 150.713 151.078 149.541 149.757 148.368 
148.526 147.312 147.362 146.165 146.075 154.317 153.95 154.633 154.102 
154.628 153.753 154.027 152.769 152.856 151.379 151.398 149.933 149.918 
148.562 148.461 147.172 146.99 155.627 155.331 155.996 155.665 156.16 
155.655 155.916 155.163 155.296 154.246 154.28 152.908 152.796 151.272 
151.061 149.609 149.36 148.032 147.778 156.633 158.342 157.341 157 
159.845 159.034 158.63 157.597 157.088 160.944 160.403 160.124 159.16 
158.492 157.455 156.787 161.944 161.491 161.397 160.569 159.959 158.847 
158.072 157.052 156.313 162.693 162.448 162.343 161.745 161.187 160.23 
159.425 158.382 157.575 156.528 155.545 162.523 162.723 162.442 162.307 
161.664 161.143 160.251 159.491 158.521 157.65 156.52 155.463 154.086 
161.585 162.023 161.661 161.879 161.253 161.173 160.309 159.908 158.831 
158.202 156.91 156.1 154.61 153.655 152.156 160.447 160.921 160.614 
160.915 160.417 160.539 159.845 159.698 158.692 158.225 156.887 156.2 
154.681 153.902 152.401 151.608 150.269 159.153 159.719 159.423 159.842 
159.368 159.642 158.979 159.062 158.092 157.87 156.536 156.019 154.492 
153.84 152.363 151.7 150.379 149.737 148.576 156.734 157.427 157.558 
158.457 157.823 158.193 159.039 159.173 159.866 157.541 158.358 159.276 
159.587 160.13 160.275 160.792 156.542 157.757 158.909 159.612 160.212 
160.42 160.837 161.066 161.669 155.237 156.536 157.755 158.913 159.713 
160.31 160.714 161.035 161.531 161.937 162.457 153.966 155.142 156.169 
157.483 158.336 159.409 159.878 160.588 160.918 161.54 161.885 162.396 
162.432 152.727 153.787 154.623 155.828 156.625 157.819 158.394 159.382 
159.704 160.53 160.722 161.455 161.445 161.911 161.562 151.539 152.48 
153.204 154.285 155.034 156.166 156.829 157.862 158.295 159.148 159.32 
160.067 160.036 160.68 160.432 160.849 160.396 150.521 151.306 151.914 
152.869 153.529 154.61 155.253 156.338 156.819 157.743 157.93 158.654 
158.582 159.217 158.995 159.566 159.206 159.619 159.102 140.821 141.823 
141.493 141.908 142.923 142.58 143.075 142.733 143.289 144.036 143.72 
144.299 143.998 144.669 144.302 144.96 145.159 144.859 145.498 145.255 
146.02 145.735 146.46 146.051 146.684 146.294 146.023 146.718 146.494 
147.322 147.091 147.88 147.534 148.213 147.773 148.437 147.346 147.163 
147.926 147.752 148.623 148.417 149.261 148.955 149.743 149.347 150.148 
149.678 150.485 148.28 148.184 149.007 148.932 149.846 149.71 150.59 
150.347 151.243 150.945 151.929 151.527 152.458 151.886 152.625 149.129 
149.094 149.951 149.961 150.93 150.89 151.839 151.675 152.663 152.475 
153.617 153.368 154.442 153.933 154.671 153.934 154.384 149.884 149.91 
150.779 150.856 151.861 151.926 152.969 152.923 154.014 153.918 155.148 
155.034 156.213 155.869 156.663 155.972 156.368 155.515 155.752 140.397 
140.143 140.619 141.372 139.909 140.386 141.127 141.639 142.433 139.594 
140.108 140.826 141.369 142.16 142.712 143.519 139.324 139.788 140.498 
141.022 141.802 142.396 143.237 143.807 144.625 139.255 139.626 140.357 
140.766 141.518 142.031 142.868 143.48 144.341 144.917 145.722 139.225 
139.597 140.326 140.716 141.463 141.856 142.623 143.122 143.956 144.564 
145.388 145.971 146.727 139.156 139.508 140.177 140.623 141.376 141.825 
142.567 142.97 143.702 144.189 144.981 145.572 146.348 146.921 147.637 
139.211 139.463 140.071 140.432 141.14 141.637 142.407 142.887 143.595 
144.007 144.703 145.189 145.944 146.511 147.244 147.796 148.476 139.349 
139.578 140.171 140.411 141.046 141.413 142.143 142.64 143.382 143.857 
144.523 144.958 145.625 146.125 146.827 147.379 148.046 148.591 149.219 
139.568 140.186 140.099 140.472 140.863 140.795 141.268 141.033 141.366 
141.623 141.554 142.106 141.888 142.259 141.973 142.383 142.432 142.361 
142.944 142.758 143.163 142.883 143.281 143.067 143.569 143.287 143.192 
143.793 143.617 144.062 143.794 144.204 143.971 144.461 144.272 144.752 
144.188 144.076 144.687 144.499 144.979 144.718 145.161 144.915 145.41 
145.189 145.681 145.432 145.871 144.984 144.942 145.538 145.394 145.872 
145.644 146.101 145.879 146.39 146.167 146.668 146.402 146.863 146.58 
147.037 145.507 145.595 146.175 146.159 146.638 146.494 146.945 146.78 
147.303 147.135 147.662 147.417 147.887 147.598 148.059 147.78 148.238 
145.8 145.97 146.566 146.684 147.23 147.2 147.687 147.576 148.107 
147.999 148.56 148.39 148.886 148.627 149.083 148.802 149.26 148.975 
149.411 146.129 147.069 146.699 146.968 148.294 147.802 148.056 147.591 
147.737 149.571 149.091 149.338 148.793 148.909 148.317 148.298 150.858 
150.381 150.685 150.122 150.256 149.587 149.562 148.865 148.785 152.333 
151.792 152.181 151.551 151.735 151.003 150.984 150.212 150.111 149.38 
149.263 153.867 153.365 153.801 153.155 153.376 152.584 152.575 151.707 
151.574 150.751 150.584 149.827 149.62 155.3 154.871 155.342 154.772 
155.059 154.307 154.385 153.444 153.341 152.34 152.149 151.218 150.976 
150.135 149.856 156.745 156.31 156.819 156.279 156.636 155.986 156.204 
155.356 155.368 154.296 154.109 152.965 152.671 151.615 151.285 150.369 
150.051 158.18 157.778 158.286 157.763 158.111 157.524 157.774 157.104 
157.188 156.302 156.119 155 154.614 153.43 152.986 151.899 151.483 
150.554 150.198 145.8 145.654 146.004 146.702 145.609 145.936 146.657 
147.073 147.93 145.461 145.898 146.659 147.09 147.947 148.371 149.214 
145.076 145.669 146.48 147.033 147.875 148.359 149.167 149.599 150.433 
144.567 145.222 146.048 146.712 147.538 148.148 148.949 149.485 150.338 
150.855 151.82 144.062 144.708 145.508 146.194 147.005 147.685 148.521 
149.175 150.08 150.707 151.704 152.3 153.314 143.577 144.197 144.97 
145.636 146.445 147.129 148.007 148.72 149.681 150.387 151.385 152.075 
153.091 153.735 154.716 143.155 143.725 144.483 145.108 145.91 146.581 
147.47 148.213 149.196 149.952 150.928 151.655 152.641 153.388 154.44 
155.125 156.144 142.831 143.343 144.078 144.649 145.414 146.05 146.898 
147.648 148.61 149.414 150.374 151.133 152.086 152.869 153.95 154.776 
155.923 156.607 157.612 145.28 144.423 144.956 145.127 143.264 144.017 
144.271 144.847 145.047 141.808 142.689 143.031 143.859 144.086 144.698 
144.822 140.504 141.232 141.541 142.458 142.761 143.56 143.646 144.296 
144.342 139.442 140.053 140.263 141.022 141.299 142.121 142.251 142.978 
142.988 143.703 143.782 138.239 138.931 139.07 139.791 139.94 140.689 
140.783 141.523 141.57 142.309 142.397 143.155 143.295 136.919 137.607 
137.691 138.461 138.538 139.295 139.307 140.046 140.095 140.88 141.025 
141.804 141.964 142.697 142.845 135.779 136.335 136.383 137.051 137.132 
137.848 137.868 138.569 138.603 139.391 139.58 140.43 140.654 141.41 
141.563 142.266 142.429 134.825 135.304 135.344 135.868 135.94 136.537 
136.594 137.209 137.255 137.949 138.127 138.972 139.254 140.087 140.295 
141.016 141.179 141.89 142.105 134.319 133.667 134.297 134.844 132.815 
133.568 134.166 134.812 135.385 131.98 132.694 133.345 134.064 134.697 
135.372 135.985 131.536 132.042 132.732 133.321 134.025 134.682 135.381 
136.008 136.664 131.42 131.803 132.515 132.938 133.681 134.179 134.956 
135.5 136.267 136.802 137.572 131.42 131.75 132.482 132.863 133.64 
134.035 134.83 135.254 136.065 136.534 137.368 137.872 138.709 131.643 
131.841 132.595 132.904 133.727 134.081 134.9 135.254 136.058 136.445 
137.269 137.724 138.552 139.033 139.787 132.113 132.198 132.934 133.133 
133.953 134.238 135.076 135.384 136.202 136.521 137.34 137.701 138.52 
138.916 139.682 140.071 140.743 132.632 132.698 133.367 133.518 134.274 
134.511 135.313 135.594 136.403 136.704 137.523 137.84 138.659 138.98 
139.762 140.069 140.787 141.073 141.724 133.103 134.089 133.656 133.854 
135.283 134.746 134.96 134.501 134.77 136.674 136.058 136.265 135.704 
135.969 135.494 135.802 138.181 137.53 137.739 137.09 137.312 136.752 
137.043 136.567 136.889 139.792 139.12 139.373 138.644 138.841 138.158 
138.409 137.854 138.189 137.699 138.033 141.421 140.779 141.104 140.37 
140.608 139.807 140.023 139.307 139.61 139.047 139.407 138.883 139.191 
143.031 142.39 142.738 142.094 142.403 141.651 141.876 141.048 141.259 
140.537 140.835 140.268 140.586 140.034 140.284 144.777 144.034 144.335 
143.68 144.001 143.368 143.648 142.907 143.077 142.256 142.416 141.716 
141.971 141.408 141.666 141.095 141.291 146.678 145.858 146.109 145.33 
145.588 144.915 145.207 144.573 144.805 144.05 144.158 143.344 143.47 
142.797 143.017 142.45 142.653 142.065 142.213 142.906 143.376 143.48 
144.141 143.788 143.943 144.665 144.758 145.462 144.345 144.442 145.283 
145.35 146.167 146.184 146.986 145.109 145.171 146.126 146.142 147.082 
147.039 147.948 147.877 148.751 145.736 145.933 146.912 147.044 148.024 
148.046 148.985 148.929 149.828 149.721 150.54 146.147 146.445 147.456 
147.726 148.768 148.933 149.953 149.983 150.973 150.873 151.788 151.56 
152.349 146.641 146.909 148.074 148.323 149.574 149.748 151.04 151.079 
152.367 152.23 153.422 153.077 154.083 153.578 154.398 147.274 147.548 
148.859 149.118 150.564 150.771 152.327 152.422 153.991 153.896 155.324 
154.985 156.151 155.589 156.489 155.799 156.498 147.872 148.218 149.561 
149.929 151.405 151.783 153.389 153.726 155.344 155.515 156.927 156.832 
157.914 157.571 158.361 157.84 158.426 157.775 158.202 128.329 127.553 
127.965 128.139 126.959 127.189 127.262 127.8 128.08 126.751 126.691 
126.625 126.966 127.228 127.803 128.195 127.073 126.705 126.531 126.511 
126.659 127.035 127.468 128.052 128.634 127.842 127.285 127.113 126.728 
126.738 126.689 126.987 127.389 128.024 128.683 129.435 128.835 128.224 
128.136 127.583 127.591 127.131 127.263 127.167 127.688 128.142 128.995 
129.628 130.405 129.924 129.303 129.261 128.704 128.796 128.235 128.374 
127.861 128.235 128.157 128.983 129.368 130.325 130.73 131.478 131.041 
130.437 130.388 129.832 129.931 129.451 129.674 129.157 129.481 129.071 
129.709 129.699 130.644 130.887 131.779 131.966 132.67 132.09 131.55 
131.508 130.949 130.999 130.536 130.759 130.375 130.706 130.328 130.775 
130.567 131.266 131.354 132.188 132.372 133.097 133.209 133.801 128.843 
128.74 129.081 129.694 128.706 129.028 129.666 129.991 130.614 128.771 
129.005 129.624 129.963 130.621 130.946 131.597 129.206 129.201 129.766 
129.955 130.642 130.969 131.688 131.99 132.675 130.033 129.854 130.39 
130.307 130.95 131.095 131.858 132.123 132.855 133.105 133.781 130.905 
130.726 131.244 131.087 131.648 131.593 132.264 132.383 133.116 133.323 
134.031 134.239 134.931 131.812 131.564 132.055 131.915 132.47 132.36 
132.932 132.891 133.525 133.632 134.347 134.539 135.28 135.464 136.192 
132.912 132.541 133.01 132.772 133.356 133.194 133.771 133.619 134.181 
134.129 134.786 134.897 135.644 135.834 136.584 136.758 137.447 134.02 
133.669 134.1 133.811 134.339 134.122 134.657 134.467 134.989 134.855 
135.448 135.43 136.105 136.207 136.908 137.094 137.77 137.949 138.541 
129.145 129.979 129.668 129.957 130.887 130.55 130.87 130.588 130.983 
131.869 131.493 131.823 131.538 131.984 131.711 132.168 132.955 132.543 
132.876 132.534 132.974 132.71 133.195 132.926 133.402 134.066 133.669 
134.025 133.644 134.038 133.711 134.164 133.912 134.403 134.162 134.672 
135.204 134.797 135.178 134.803 135.174 134.79 135.166 134.867 135.357 
135.145 135.689 135.457 135.999 136.435 135.979 136.351 135.957 136.337 
135.928 136.262 135.884 136.326 136.098 136.68 136.483 137.039 136.788 
137.322 137.662 137.215 137.534 137.126 137.487 137.092 137.432 137.01 
137.391 137.085 137.63 137.452 138.028 137.811 138.305 138.067 138.57 
138.731 138.355 138.604 138.23 138.53 138.195 138.538 138.17 138.515 
138.158 138.596 138.374 138.908 138.739 139.227 139.009 139.449 139.249 
139.722 145.277 144.924 144.863 144.332 144.342 144.37 143.727 143.75 
143.087 143.524 143.637 142.985 143.048 142.349 142.366 141.661 142.618 
142.743 142.135 142.264 141.662 141.684 141.039 141 140.417 141.743 
141.834 141.221 141.397 140.84 140.978 140.361 140.401 139.776 139.833 
139.308 140.907 140.956 140.293 140.467 139.881 140.079 139.399 139.545 
138.821 139.014 138.388 138.627 138.068 140.164 140.139 139.43 139.536 
138.934 139.106 138.424 138.519 137.755 137.912 137.29 137.573 137.066 
137.322 136.805 139.572 139.481 138.758 138.731 138.095 138.194 137.561 
137.619 136.914 136.955 136.367 136.545 136.124 136.361 135.94 136.128 
135.687 139.056 138.973 138.278 138.154 137.46 137.428 136.774 136.809 
136.157 136.204 135.629 135.75 135.3 135.495 135.069 135.276 134.836 
135.058 134.673 
POINT_DATA 1002
SCALARS Distance double
LOOKUP_TABLE default
133.478 132.587 132.51 133.476 132.426 134.546 133.502 132.338 134.681 
135.856 133.54 132.336 134.828 136.072 137.297 133.726 132.583 135.002 
136.269 137.54 138.827 134.156 133.084 135.355 136.573 137.813 139.14 
140.442 134.674 133.678 135.84 137.058 138.28 139.565 140.863 142.039 
135.178 134.289 136.334 137.626 138.959 140.294 141.56 142.702 143.71 
135.782 134.956 136.971 138.36 139.819 141.299 142.642 143.755 144.719 
145.58 136.575 135.719 137.876 139.38 140.87 142.371 143.802 144.98 
145.934 146.775 147.507 131.623 131.516 130.538 130.455 129.428 131.393 
129.438 128.406 130.389 131.263 128.52 127.532 129.408 130.203 131.232 
127.796 126.962 128.464 129.034 130.032 131.505 127.465 126.872 127.887 
128.067 128.795 130.348 132.13 127.543 127.231 127.847 127.85 128.168 
129.425 131.253 132.947 127.903 127.875 128.086 128.176 128.387 129.201 
130.688 132.393 133.812 128.486 128.651 128.478 128.581 128.886 129.513 
130.548 132.008 133.512 134.678 129.37 129.188 130.286 130.114 131.405 
129.114 131.348 132.634 130.132 129.358 132.811 133.899 131.636 130.639 
129.986 134.308 135.206 133.36 132.311 131.386 130.813 135.765 136.543 
134.982 134.049 133.023 132.291 132.016 137.236 137.856 136.552 135.716 
134.812 134.103 133.736 133.586 138.657 139.082 138.134 137.398 136.609 
136.03 135.638 135.271 134.918 139.906 140.195 139.558 139.004 138.328 
137.803 137.424 136.955 136.394 135.944 137.236 137.54 139.55 138.079 
139.926 142.31 138.702 140.403 142.7 144.552 139.18 140.853 143 
144.981 146.292 139.572 141.193 143.196 145.273 146.984 148.6 140.072 
141.522 143.378 145.424 147.452 149.385 151.289 140.581 141.878 143.59 
145.516 147.565 149.711 151.655 153.281 140.928 142.167 143.774 145.581 
147.446 149.551 151.642 153.296 154.628 141.161 142.355 143.88 145.611 
147.295 149.147 151.298 153.234 154.697 155.935 138.653 141.408 140.38 
143.876 143.019 141.954 145.584 144.945 144.264 143.388 147.791 146.97 
146.278 145.645 144.861 150.942 150.241 149.204 148.1 147.169 146.205 
153.528 153.454 152.707 151.336 149.849 148.573 147.32 155.047 155.331 
155.108 154.276 152.968 151.393 149.804 148.271 156.326 156.625 156.534 
156.115 155.505 154.377 152.634 150.762 149.059 157.648 158.059 159.329 
159.726 160.486 158.117 161.007 161.346 159.649 157.723 162.131 162.365 
161.061 159.18 157.326 162.855 162.866 162.049 160.462 158.649 156.76 
162.453 162.256 162.02 160.927 159.376 157.55 155.261 161.368 161.135 
161.169 160.575 159.434 157.693 155.5 153.083 160.265 159.944 160.212 
159.877 159.094 157.561 155.422 153.139 150.994 158.956 158.565 159.055 
158.846 158.227 156.972 155.092 152.981 150.984 149.166 156.63 158.407 
157.257 158.927 157.298 159.793 158.86 156.477 160.052 160.554 157.945 
155.218 159.932 160.662 161.306 156.46 154.05 158.874 160.344 161.146 
162.148 154.935 152.93 157.13 159.018 160.283 161.333 162.18 153.513 
151.75 155.437 157.323 158.856 159.983 160.859 161.303 152.19 150.685 
153.922 155.756 157.424 158.619 159.371 159.887 160.115 151.051 149.835 
152.509 154.167 155.849 157.2 157.983 158.403 158.705 158.806 141.11 
142.21 142.153 143.381 143.241 143.638 144.544 144.329 144.979 145.395 
145.709 145.446 146.249 146.839 147.154 146.923 146.522 147.533 148.195 
148.618 148.879 148.054 147.474 148.811 149.535 150.066 150.559 151.02 
149.034 148.342 149.941 150.795 151.452 152.226 153.016 153.348 149.912 
149.142 150.916 151.944 152.792 153.762 154.876 155.445 155.226 139.891 
140.86 139.684 140.618 139.43 141.91 140.28 139.077 141.585 142.991 
140.013 138.887 141.208 142.62 144.105 139.982 138.9 141.081 142.271 
143.721 145.204 139.912 138.866 141.089 142.223 143.38 144.775 146.194 
139.75 138.856 140.873 142.169 143.313 144.421 145.754 147.102 139.787 
138.993 140.679 141.873 143.185 144.295 145.401 146.685 147.951 139.958 
139.098 140.77 141.693 142.869 144.098 145.185 146.296 147.507 148.689 