# vtk DataFile Version 4.0
vtk output
ASCII
DATASET POLYDATA
POINTS 1002 float
-83.5147 -80.6945 72.4328 -83.8152 -79.6075 71.452 -83.2239 -79.5855 72.1336 
-82.8592 -80.7948 73.1914 -82.5752 -79.6107 72.9188 -83.2955 -81.6737 73.7533 
-82.2897 -80.7729 74.1885 -81.941 -79.607 73.854 -82.8034 -81.6871 74.8122 
-83.481 -82.3734 75.6639 -81.9506 -80.5723 75.5151 -81.5352 -79.5401 75.1599 
-82.474 -81.5956 76.1586 -83.1182 -82.4506 76.9571 -83.6817 -83.4135 77.7013 
-81.8206 -80.4374 77.2218 -81.4029 -79.5919 77.0257 -82.2717 -81.5515 77.6942 
-82.6928 -82.7079 78.3138 -83.0646 -83.9002 78.8762 -83.4174 -85.0977 79.4344 
-81.5513 -80.7322 79.1032 -81.142 -79.9876 79.0492 -81.9287 -81.8217 79.2854 
-82.1566 -83.1525 79.6101 -82.3208 -84.4986 79.9782 -82.6207 -85.7965 80.4719 
-83.1233 -86.848 81.1743 -80.9847 -81.3696 80.7206 -80.5393 -80.559 80.6319 
-81.3423 -82.3916 80.8421 -81.5352 -83.6835 80.9804 -81.7191 -85.0113 81.1854 
-82.0267 -86.3128 81.575 -82.5187 -87.5283 82.2255 -83.0775 -88.5323 82.9798 
-80.4025 -81.9443 81.9585 -79.9291 -80.9885 81.8122 -80.8159 -82.956 82.2392 
-81.0634 -84.144 82.4976 -81.3755 -85.4728 82.7044 -81.7788 -86.8093 83.001 
-82.1478 -88.1433 83.4386 -82.5096 -89.3904 83.969 -82.8381 -90.4833 84.4892 
-79.9757 -82.3551 83.0656 -79.6182 -81.2878 82.919 -80.4044 -83.4357 83.411 
-80.7504 -84.5455 83.8271 -81.1588 -85.9003 84.1773 -81.6213 -87.4653 84.5274 
-81.8976 -88.9859 84.8896 -82.0228 -90.381 85.1828 -82.18 -91.6345 85.4538 
-82.3679 -92.7367 85.7501 -79.6889 -82.7383 84.1462 -79.6006 -81.6378 83.9798 
-79.9514 -83.9262 84.4292 -80.3175 -85.0494 84.7908 -80.808 -86.3282 85.1678 
-81.3119 -88.037 85.6044 -81.5811 -89.8943 86.0981 -81.6434 -91.5315 86.4796 
-81.7259 -92.9469 86.6825 -81.8806 -94.1921 86.8236 -82.0333 -95.2542 86.9758 
-83.5682 -78.6371 70.8086 -83.0482 -78.4335 71.6597 -83.1024 -77.8816 69.9862 
-82.673 -77.5119 71.0534 -82.6195 -77.1692 69.143 -82.3907 -78.3875 72.5546 
-82.2672 -76.6216 70.4326 -82.3533 -75.9646 68.6008 -82.009 -77.3495 72.1077 
-81.6279 -78.4942 73.4766 -82.0348 -75.2736 70.0819 -82.2249 -74.3827 68.4726 
-81.6181 -76.2067 71.6776 -81.2234 -77.3714 73.0935 -81.1799 -78.6117 74.8572 
-81.9362 -73.8155 70.0817 -82.2293 -73.21 68.6836 -81.4617 -74.7261 71.5357 
-80.9639 -75.9028 72.8625 -80.9545 -77.4001 74.6458 -81.1313 -78.8036 76.9747 
-82.0756 -72.856 70.4643 -82.674 -72.5792 69.2969 -81.5439 -73.4646 71.8059 
-80.9735 -74.3597 73.0523 -80.9282 -75.7813 74.677 -81.0948 -77.6032 76.9803 
-80.8517 -79.2332 79.1611 -82.6372 -72.2476 71.3093 -83.5211 -72.137 70.2775 
-81.896 -72.6621 72.5242 -81.1826 -73.3289 73.7067 -80.9729 -74.4043 75.1013 
-81.1739 -76.1478 77.1083 -80.8458 -78.113 79.255 -80.176 -79.7125 80.7961 
-83.4027 -71.8679 72.3764 -84.3307 -71.9214 71.3219 -82.506 -72.1024 73.5463 
-81.6097 -72.6736 74.6702 -81.09 -73.5737 75.8514 -81.188 -75.0012 77.4301 
-81.0462 -76.8875 79.3345 -80.2661 -78.6631 80.9701 -79.6631 -80.0587 82.0702 
-84.0594 -71.8733 73.3238 -84.8846 -72.0408 72.2355 -83.1838 -71.8902 74.5214 
-82.2399 -72.248 75.6676 -81.4511 -73.0032 76.7525 -81.2283 -74.2058 77.9689 
-81.221 -75.8524 79.4742 -80.7119 -77.6204 81.0574 -79.9752 -79.1353 82.3271 
-79.6223 -80.4069 83.2278 -84.8506 -72.2448 73.8014 -84.0429 -72.1204 75.0323 
-84.8936 -72.5735 75.5185 -84.0982 -72.5935 76.791 -84.9929 -73.0487 77.2424 
-83.151 -72.1819 76.3266 -84.1988 -73.2662 78.5351 -85.0144 -73.798 78.841 
-83.2209 -72.7477 78.1756 -82.2053 -72.6171 77.5644 -84.2527 -74.1648 80.1702 
-85.017 -74.7704 80.3677 -83.358 -73.5691 79.9943 -82.3317 -73.3104 79.5175 
-81.5518 -73.5869 78.7257 -84.3412 -75.2184 81.7517 -85.1604 -75.7294 81.9686 
-83.489 -74.6609 81.6586 -82.495 -74.3495 81.3737 -81.6982 -74.5037 80.6986 
-81.3474 -75.0884 79.9557 -84.5255 -76.3124 83.3869 -85.3409 -76.6947 83.5373 
-83.6768 -75.9103 83.2785 -82.6643 -75.632 83.0798 -81.7699 -75.6709 82.5802 
-81.3231 -76.1399 81.8969 -81.0609 -76.8663 81.3766 -84.7008 -77.5354 84.8617 
-85.4136 -77.8972 84.8241 -83.9229 -77.2268 84.844 -82.9342 -76.9851 84.6849 
-81.9258 -76.9225 84.3207 -81.3259 -77.2679 83.7431 -80.9876 -77.9223 83.1695 
-80.4987 -78.562 82.7365 -84.8177 -78.9812 85.9746 -85.4279 -79.331 85.8197 
-84.1378 -78.6969 86.0789 -83.2458 -78.4701 86.0058 -82.2384 -78.3115 85.7642 
-81.5195 -78.5076 85.3202 -81.1476 -79.0981 84.7307 -80.6968 -79.6532 84.2088 
-80.0685 -80.0214 83.7467 -84.9046 -80.4901 86.8764 -85.4534 -80.7546 86.699 
-84.2917 -80.2734 87.0164 -83.4953 -80.1234 86.9957 -82.5649 -79.9686 86.8498 
-81.803 -80.0085 86.5589 -81.377 -80.4491 86.02 -81.0119 -80.9466 85.4156 
-80.4458 -81.1806 84.9456 -79.8693 -81.3404 84.4996 -79.6278 -82.8111 85.0861 
-80.0025 -82.6224 85.5589 -79.6416 -84.2354 86.2588 -80.628 -82.5958 85.9777 
-80.1666 -84.1188 86.7466 -80.0173 -85.9065 87.552 -81.1693 -82.4654 86.5543 
-80.8312 -84.1875 87.2642 -80.654 -85.9321 88.1533 -80.783 -88.1443 88.9868 
-81.5634 -82.0811 87.2523 -81.3666 -84.1561 87.9848 -81.2667 -86.1184 88.7925 
-81.3013 -88.4417 89.6212 -81.3133 -91.1755 90.4111 -82.1027 -81.8152 87.7017 
-81.835 -83.911 88.6518 -81.7484 -86.1193 89.4949 -81.7442 -88.6815 90.2346 
-81.6324 -91.5687 91.0074 -81.4342 -94.504 91.673 -82.9296 -81.8212 87.8866 
-82.4676 -83.7416 88.9769 -82.22 -85.8946 90.0067 -82.1005 -88.5627 90.7796 
-81.9435 -91.6276 91.5715 -81.6944 -94.6242 92.3239 -81.4856 -97.5738 92.6584 
-83.8274 -81.8431 87.9926 -83.3075 -83.6437 89.1235 -82.8703 -85.6802 90.266 
-82.5216 -88.2201 91.1529 -82.2171 -91.2807 91.9717 -81.9428 -94.3606 92.8414 
-81.6721 -97.3443 93.333 -81.4083 -100.449 93.2505 -84.5627 -81.8733 87.9511 
-84.1409 -83.4983 89.153 -83.6885 -85.4435 90.3457 -83.217 -87.8489 91.3352 
-82.7185 -90.733 92.1952 -82.3006 -93.775 93.0701 -81.9553 -96.8032 93.7019 
-81.5627 -99.9982 93.8045 -81.1206 -103.23 93.4999 -85.1477 -82.0012 87.7553 
-84.8091 -83.4159 88.9722 -84.4364 -85.1817 90.1801 -84.0292 -87.4421 91.2317 
-83.5291 -90.1292 92.1902 -82.9976 -93.017 93.1003 -82.5346 -96.0128 93.758 
-82.0514 -99.2421 93.9968 -81.4757 -102.619 93.8848 -80.8919 -105.691 93.5731 
-79.5487 -84.1135 85.3637 -79.5724 -85.7486 86.6112 -79.748 -85.4676 85.6258 
-80.2057 -87.7716 88.0396 -79.9464 -87.3505 86.8808 -80.2627 -86.7875 85.9012 
-81.0055 -90.6341 89.6895 -80.6897 -89.9338 88.5736 -80.5872 -89.1301 87.2737 
-80.8754 -88.4995 86.3275 -81.2811 -94.2882 91.1576 -81.2104 -93.6402 90.4584 
-81.0828 -92.5696 89.2309 -81.018 -91.52 87.8768 -81.2231 -90.7297 86.9443 
-81.3201 -97.9631 92.1028 -81.2197 -97.9105 91.6648 -81.1653 -97.1123 90.9478 
-81.1232 -95.7221 89.7039 -81.1619 -94.2793 88.5032 -81.3453 -92.9192 87.5606 
-81.3209 -101.289 92.6134 -81.1514 -101.766 92.0845 -80.8839 -101.557 91.6274 
-80.8256 -100.482 90.8742 -81.1058 -98.7575 89.9176 -81.3899 -96.7697 89.0234 
-81.5249 -94.7667 87.9704 -80.9975 -104.337 92.9046 -80.9153 -105.021 92.2798 
-80.5861 -105.068 91.7543 -80.2525 -104.421 91.2035 -80.5414 -103.127 90.6202 
-81.2705 -101.208 90.0962 -81.6893 -98.8067 89.3452 -81.7418 -96.3305 88.1497 
-80.5243 -106.945 93.083 -80.3809 -107.746 92.4839 -80.2122 -107.897 91.8974 
-79.8622 -107.399 91.297 -79.8159 -106.455 90.7516 -80.5012 -105.1 90.4406 
-81.3793 -103.071 90.1334 -81.7867 -100.388 89.3739 -81.8593 -97.6015 88.1862 
-80.5137 -108.639 93.3102 -79.9865 -109.778 92.7543 -80.2807 -111.119 92.838 
-79.5821 -112.207 92.1751 -80.167 -113.258 92.0153 -79.7366 -110.367 92.1216 
-79.3167 -114.64 91.2352 -80.0646 -115.319 90.9427 -79.2443 -112.912 91.4202 
-79.5979 -110.262 91.4313 -79.2084 -116.954 90.0246 -80.1393 -116.84 89.8049 
-78.9215 -115.66 90.2705 -79.2521 -112.839 90.5358 -79.4782 -109.468 90.7001 
-79.5396 -118.137 88.7008 -80.6383 -117.207 88.7473 -78.8264 -117.693 88.8735 
-79.0507 -115.314 89.2792 -79.433 -111.673 89.7916 -79.7702 -108.239 90.2415 
-80.3712 -117.836 87.6497 -81.4397 -116.538 88.0492 -79.2603 -117.991 87.6588 
-79.0264 -116.426 88.1487 -79.4694 -113.315 88.8509 -79.9091 -109.836 89.5636 
-80.6016 -106.557 90.1064 -81.3319 -116.549 87.2771 -82.2766 -115.127 87.8113 
-80.1624 -116.938 87.0888 -79.4942 -115.898 87.5343 -79.6886 -113.595 88.3004 
-80.1445 -110.649 88.9818 -80.6892 -107.488 89.5478 -81.3867 -104.021 89.7718 
-82.1761 -114.509 87.4295 -83.0457 -113.057 87.8012 -81.1297 -115.132 87.1913 
-80.3472 -114.47 87.4223 -80.2677 -112.722 88.075 -80.6116 -110.369 88.6716 
-80.9743 -107.573 89.0481 -81.3994 -104.302 89.2085 -81.7629 -100.812 88.9259 
-82.9319 -111.805 87.6882 -83.7395 -110.532 87.8299 -82.0093 -112.586 87.5605 
-81.2774 -112.368 87.6 -81.0508 -111.105 87.9582 -81.2423 -109.178 88.4306 
-81.4891 -106.777 88.7098 -81.6817 -103.882 88.7341 -81.863 -100.727 88.4456 
-81.9808 -97.7546 87.8025 -81.318 -106.047 93.7302 -81.1222 -108.971 93.435 
-81.9216 -106.016 93.6321 -81.7349 -108.73 93.248 -82.3477 -105.465 93.3194 
-81.066 -111.323 92.8186 -82.088 -107.781 92.8484 -82.8466 -104.422 93.1072 
-81.6368 -110.783 92.5092 -81.0078 -113.273 91.7954 -82.761 -106.362 92.6554 
-83.7947 -103.044 93.1487 -82.0174 -109.437 92.14 -81.5345 -112.351 91.4449 
-80.8886 -114.874 90.6387 -83.816 -104.687 92.68 -84.6654 -101.328 93.0209 
-82.8322 -107.744 92.0437 -82.0706 -110.63 91.2833 -81.4713 -113.385 90.4256 
-80.9875 -115.64 89.6416 -84.5385 -102.538 92.4539 -85.144 -99.3322 92.4644 
-83.7382 -105.733 91.9952 -82.9756 -108.657 91.3592 -82.2788 -111.338 90.5526 
-81.7165 -113.645 89.7347 -81.506 -115.409 88.9431 -85.1368 -100.096 91.9746 
-85.7398 -97.3758 91.7606 -84.4002 -103.102 91.7539 -83.7839 -106.201 91.3382 
-83.332 -109.073 90.7893 -82.7904 -111.421 90.0851 -82.3715 -113.161 89.3467 
-82.3095 -114.416 88.5549 -86.0342 -97.8705 91.4496 -86.5462 -95.5699 91.0185 
-85.3041 -100.391 91.4821 -84.5785 -103.22 91.2307 -84.1893 -106.216 90.8721 
-83.9239 -108.875 90.3885 -83.5127 -110.763 89.7646 -83.2312 -111.976 89.0352 
-83.1754 -112.757 88.307 -86.9079 -95.8737 90.7428 -87.2176 -93.8022 90.1006 
-86.3811 -98.0775 91.0882 -85.6515 -100.44 91.0784 -85.0531 -103.048 90.8535 
[...]
CELL_DATA 2000
SCALARS Distance double
LOOKUP_TABLE default
135.214 135.242 135.559 136.271 135.354 135.653 136.446 136.747 137.626 
135.672 135.887 136.801 137.062 138.059 138.322 139.361 136.408 136.427 
137.433 137.591 138.671 138.878 139.947 140.167 141.203 137.501 137.377 
138.336 138.372 139.413 139.554 140.567 140.754 141.751 141.98 143.003 
138.525 138.462 139.307 139.304 140.231 140.304 141.248 141.37 142.34 
142.534 143.596 143.836 144.94 139.254 139.318 140.145 140.196 141.092 
141.13 142.097 142.142 143.19 143.266 144.398 144.534 145.693 145.859 
146.941 139.878 139.966 140.841 140.956 141.89 141.976 142.992 143.075 
144.226 144.297 145.512 145.538 146.716 146.735 147.83 147.869 148.861 
140.599 140.628 141.498 141.623 142.549 142.702 143.687 143.891 145.03 
145.282 146.527 146.687 147.884 147.887 149.003 148.926 149.992 149.888 
150.895 134.537 133.453 134.187 134.547 132.318 133.093 133.5 134.219 
134.615 131.184 131.979 132.413 133.157 133.569 134.307 134.831 130.08 
130.862 131.301 132.056 132.465 133.233 133.809 134.669 135.49 129.247 
129.844 130.296 130.97 131.372 132.111 132.747 133.677 134.65 135.604 
136.646 129.066 129.282 129.746 130.163 130.606 131.14 131.808 132.675 
133.789 134.836 136.015 136.872 137.79 129.581 129.443 129.878 129.966 
130.463 130.686 131.355 131.942 133.077 134.057 135.347 136.26 137.212 
137.885 138.556 130.461 130.16 130.536 130.393 130.879 130.86 131.485 
131.756 132.77 133.504 134.788 135.652 136.691 137.339 138.028 138.572 
139.182 131.401 131.081 131.421 131.178 131.618 131.462 132.014 132.056 
132.887 133.331 134.473 135.197 136.292 136.921 137.721 138.179 138.831 
139.29 139.957 132.023 133.083 132.374 132.094 134.327 133.547 133.265 
132.521 132.289 135.674 134.878 134.636 133.804 133.566 132.795 132.677 
137.071 136.282 136.124 135.274 135.092 134.216 134.134 133.366 133.535 
138.566 137.751 137.674 136.836 136.75 135.855 135.828 134.983 135.194 
134.514 135.009 140.149 139.333 139.325 138.48 138.481 137.589 137.612 
136.745 136.942 136.235 136.676 136.129 136.688 141.697 140.951 141.023 
140.214 140.278 139.391 139.437 138.551 138.72 137.977 138.355 137.761 
138.216 137.691 138.093 143.149 142.489 142.633 141.913 142.026 141.201 
141.255 140.379 140.511 139.738 140.071 139.432 139.847 139.227 139.56 
138.952 139.231 144.522 143.929 144.118 143.481 143.637 142.902 142.986 
142.164 142.282 141.505 141.788 141.127 141.505 140.865 141.168 140.482 
140.703 140.06 140.327 141.157 141.547 141.734 142.599 142.064 142.223 
143.092 143.282 144.318 142.507 142.765 143.718 143.887 144.969 145.211 
146.555 142.851 143.193 144.287 144.554 145.721 145.967 147.351 147.698 
149.3 143.296 143.582 144.743 145.106 146.361 146.709 148.105 148.502 
150.081 150.533 152.177 143.922 144.114 145.23 145.573 146.832 147.258 
148.63 149.13 150.66 151.216 152.809 153.318 154.839 144.54 144.741 
145.788 146.086 147.282 147.686 148.992 149.511 150.954 151.605 153.14 
153.789 155.249 155.79 157.125 144.994 145.26 146.258 146.586 147.709 
148.108 149.337 149.818 151.157 151.775 153.217 153.932 155.343 156.011 
157.294 157.867 159.039 145.343 145.626 146.569 146.935 147.977 148.423 
149.567 150.082 151.326 151.92 153.248 153.926 155.262 155.963 157.219 
157.882 159.047 159.632 160.686 141.322 142.765 142.065 142.212 144.5 
143.629 143.764 143.047 143.259 146.812 145.649 145.788 144.773 144.964 
144.168 144.443 149.695 148.35 148.607 147.207 147.396 146.167 146.456 
145.528 145.911 152.693 151.444 151.933 150.439 150.753 149.107 149.35 
147.926 148.298 147.211 147.575 155.416 154.41 155.073 153.841 154.361 
152.764 153.029 151.258 151.481 149.943 150.226 148.944 149.094 157.746 
156.988 157.698 156.787 157.376 156.179 156.5 154.944 155.079 153.385 
153.519 151.896 151.959 150.438 150.343 159.688 159.138 159.844 159.162 
159.685 158.81 159.062 157.948 158.034 156.721 156.803 155.296 155.298 
153.584 153.388 151.668 151.394 161.304 160.901 161.564 161.057 161.513 
160.823 160.984 160.098 160.085 159.135 159.181 158.162 158.2 156.844 
156.621 154.88 154.435 152.67 152.275 162.344 163.775 162.937 162.562 
164.881 164.207 163.817 163.01 162.468 165.788 165.227 164.892 164.154 
163.58 162.702 161.908 166.503 166.122 165.898 165.227 164.676 163.767 
162.894 161.914 160.976 166.733 166.674 166.501 166.105 165.565 164.808 
163.887 162.884 161.876 160.95 160.103 166.439 166.623 166.397 166.334 
165.754 165.381 164.461 163.725 162.664 161.82 160.924 160.135 159.25 
165.848 166.14 165.86 165.932 165.317 165.203 164.359 163.99 162.992 
162.4 161.412 160.781 159.779 159.038 157.767 164.96 165.39 165.094 
165.271 164.653 164.627 163.84 163.687 162.802 162.473 161.459 160.987 
159.829 159.252 157.865 157.12 155.533 163.717 164.288 163.965 164.341 
163.731 163.867 163.065 163.065 162.187 162.076 161.057 160.766 159.519 
159.052 157.6 156.988 155.424 154.712 153.222 162.402 162.851 163.13 
163.909 162.831 163.414 164.287 164.502 165.041 162.319 163.095 163.99 
164.599 165.223 165.45 165.849 161.782 162.456 163.227 163.985 164.647 
165.277 165.736 166.083 166.401 161.247 161.923 162.562 163.192 163.76 
164.458 164.938 165.587 165.922 166.389 166.551 160.201 161.137 161.718 
162.468 162.941 163.603 164.032 164.669 165.01 165.613 165.816 166.286 
166.285 158.835 159.827 160.351 161.305 161.749 162.634 163.071 163.806 
164.157 164.722 164.931 165.422 165.485 165.877 165.739 157.642 158.499 
158.99 159.849 160.267 161.211 161.679 162.653 163.086 163.854 164.074 
164.584 164.594 165.003 164.859 165.202 164.88 156.489 157.353 157.847 
158.626 159.018 159.799 160.196 161.13 161.57 162.552 162.838 163.592 
163.577 164.069 163.838 164.219 163.861 164.179 163.687 145.822 146.959 
146.595 147.058 148.159 147.791 148.297 147.928 148.48 149.416 149.054 
149.615 149.226 149.843 149.467 150.108 150.697 150.377 151.004 150.604 
151.278 150.906 151.665 151.243 151.946 151.888 151.665 152.363 152.021 
152.756 152.411 153.276 152.902 153.753 153.22 153.927 152.964 152.831 
153.622 153.375 154.224 153.945 154.919 154.593 155.559 155.093 155.895 
155.263 155.919 153.997 153.927 154.845 154.673 155.685 155.483 156.59 
156.304 157.335 156.914 157.776 157.222 157.924 157.252 157.852 154.96 
154.983 155.995 155.927 157.041 156.971 158.165 157.987 159.018 158.651 
159.494 159.038 159.798 159.236 159.893 159.178 159.712 155.764 155.899 
156.911 156.985 158.051 158.175 159.332 159.393 160.371 160.175 160.91 
160.595 161.329 160.988 161.714 161.18 161.733 160.979 161.368 145.311 
144.936 145.548 146.422 144.508 145.156 146.016 146.67 147.574 143.959 
144.659 145.489 146.198 147.073 147.796 148.742 143.426 144.086 144.921 
145.623 146.456 147.197 148.105 148.928 149.923 143.069 143.629 144.486 
145.118 145.958 146.594 147.419 148.189 149.148 150.058 151.055 142.791 
143.31 144.128 144.744 145.616 146.2 146.988 147.571 148.397 149.204 
150.183 151.125 152.09 142.506 142.993 143.719 144.334 145.172 145.839 
146.664 147.229 147.973 148.558 149.385 150.204 151.163 152.108 153.052 
142.33 142.728 143.403 143.907 144.659 145.309 146.136 146.825 147.621 
148.204 148.933 149.529 150.323 151.138 152.052 153.022 153.944 142.299 
142.63 143.308 143.684 144.383 144.855 145.604 146.236 147.06 147.757 
148.549 149.142 149.836 150.421 151.16 151.976 152.85 153.849 154.731 
142.514 143.195 143.102 143.566 143.857 143.838 144.386 144.207 144.649 
144.492 144.54 145.215 145.079 145.549 145.298 145.782 145.229 145.256 
146.044 145.955 146.498 146.228 146.696 146.501 147.147 146.123 146.087 
146.896 146.825 147.435 147.198 147.7 147.469 148.123 147.996 148.701 
147.046 146.988 147.712 147.655 148.27 148.121 148.699 148.516 149.206 
149.045 149.739 149.522 150.064 147.859 147.822 148.442 148.39 148.967 
148.905 149.557 149.5 150.261 150.15 150.837 150.587 151.103 150.796 
151.308 148.465 148.499 149.059 149.038 149.582 149.563 150.229 150.286 
151.087 151.118 151.838 151.668 152.209 151.893 152.455 152.175 152.903 
148.838 148.96 149.508 149.573 150.127 150.157 150.797 150.888 151.647 
151.789 152.541 152.558 153.201 153.023 153.679 153.426 154.212 153.968 
154.798 149.17 150.023 149.683 149.9 151.189 150.687 150.919 150.471 
150.634 152.65 152.032 152.288 151.676 151.869 151.275 151.407 154.383 
153.682 154.038 153.261 153.466 152.686 152.809 152.125 152.273 156.384 
155.632 156.132 155.236 155.496 154.502 154.591 153.677 153.774 153.054 
153.18 158.401 157.737 158.309 157.456 157.782 156.717 156.815 155.682 
155.742 154.748 154.848 154 154.004 160.115 159.636 160.22 159.557 
159.931 159.008 159.135 158.006 158.03 156.899 156.966 155.91 155.93 
154.873 154.725 161.539 161.176 161.763 161.286 161.717 161.025 161.211 
160.244 160.206 159.122 159.045 158.022 157.969 156.934 156.786 155.636 
155.374 162.821 162.503 163.051 162.674 163.103 162.623 162.867 162.147 
162.104 161.131 160.882 159.883 159.635 158.746 158.524 157.601 157.314 
156.24 155.906 148.834 148.587 149.02 149.696 148.416 148.871 149.668 
150.06 150.888 148.22 148.771 149.697 150.14 151.032 151.389 152.306 
147.846 148.523 149.492 150.115 151.026 151.5 152.379 152.829 153.872 
147.328 148.046 148.951 149.72 150.617 151.3 152.176 152.781 153.822 
154.464 155.726 146.806 147.484 148.338 149.088 149.997 150.758 151.716 
152.451 153.563 154.329 155.644 156.399 157.721 146.356 146.983 147.847 
148.525 149.471 150.194 151.233 151.994 153.166 154.001 155.329 156.206 
157.547 158.308 159.467 145.988 146.576 147.441 148.086 149.023 149.731 
150.753 151.533 152.662 153.534 154.789 155.749 157.06 157.982 159.192 
159.917 160.928 145.661 146.225 147.045 147.674 148.542 149.246 150.188 
150.987 152.037 152.932 154.101 155.086 156.351 157.367 158.63 159.534 
160.666 161.335 162.265 148.288 147.261 147.857 147.97 146.03 146.759 
146.903 147.518 147.68 144.661 145.481 145.712 146.404 146.52 147.181 
147.365 143.247 144.085 144.352 145.159 145.301 145.97 146.044 146.779 
146.955 141.809 142.622 142.813 143.706 143.865 144.654 144.689 145.41 
145.492 146.303 146.475 140.386 141.138 141.229 142.091 142.217 143.098 
143.147 143.949 143.981 144.803 144.936 145.797 145.972 139.023 139.721 
139.77 140.526 140.612 141.441 141.515 142.341 142.384 143.222 143.333 
144.225 144.413 145.299 145.506 137.701 138.373 138.407 139.106 139.158 
139.908 139.977 140.756 140.821 141.624 141.742 142.612 142.823 143.731 
143.986 144.874 145.137 136.456 137.068 137.07 137.737 137.751 138.472 
138.518 139.274 139.348 140.118 140.251 141.072 141.31 142.19 142.494 
143.382 143.691 144.558 144.845 135.816 134.985 135.707 136.351 134.204 
134.868 135.507 136.267 137.001 133.729 134.239 134.907 135.511 136.265 
136.994 137.791 133.517 133.956 134.678 135.119 135.864 136.407 137.215 
137.869 138.672 133.333 133.779 134.513 134.973 135.718 136.168 136.944 
137.448 138.268 138.838 139.648 133.319 133.634 134.354 134.787 135.569 
136.04 136.844 137.298 138.131 138.597 139.46 139.941 140.782 133.693 
133.808 134.54 134.771 135.582 135.947 136.819 137.245 138.134 138.566 
139.465 139.893 140.777 141.186 142.017 134.307 134.339 135.067 135.153 
135.932 136.13 136.986 137.311 138.215 138.613 139.521 139.942 140.829 
141.236 142.079 142.452 143.238 134.917 134.957 135.632 135.709 136.418 
136.554 137.33 137.564 138.413 138.74 139.617 140.001 140.864 141.272 
142.108 142.507 143.302 143.661 144.401 135.443 136.495 136.014 136.162 
137.835 137.181 137.331 136.794 136.973 139.551 138.72 138.858 138.123 
138.303 137.69 137.912 141.395 140.549 140.686 139.826 139.976 139.189 
139.389 138.725 138.993 143.233 142.402 142.56 141.691 141.824 140.969 
141.126 140.333 140.55 139.874 140.17 145.201 144.327 144.539 143.604 
143.757 142.847 143.012 142.146 142.326 141.523 141.752 141.076 141.386 
147.188 146.367 146.651 145.696 145.889 144.884 145.073 144.11 144.297 
143.378 143.556 142.734 142.976 142.304 142.617 149.047 148.302 148.633 
147.801 148.042 147.084 147.267 146.26 146.416 145.416 145.536 144.596 
144.751 143.953 144.2 143.536 143.822 150.984 150.162 150.501 149.716 
149.997 149.154 149.344 148.415 148.523 147.531 147.569 146.575 146.618 
145.733 145.876 145.141 145.365 144.709 144.93 145.719 146.213 146.345 
147.108 146.765 146.878 147.702 147.8 148.605 147.558 147.562 148.461 
148.489 149.389 149.408 150.286 148.592 148.538 149.555 149.474 150.517 
150.404 151.413 151.276 152.227 149.614 149.644 150.78 150.745 151.953 
151.806 152.969 152.688 153.742 153.418 154.397 150.465 150.627 151.848 
151.971 153.307 153.324 154.643 154.434 155.595 155.182 156.212 155.749 
156.721 151.152 151.431 152.754 153.008 154.471 154.646 156.11 156.089 
157.386 157.098 158.203 157.726 158.718 158.171 159.066 151.744 152.116 
153.575 153.935 155.536 155.819 157.396 157.512 158.897 158.791 159.954 
159.653 160.662 160.201 161.066 160.476 161.17 152.344 152.767 154.354 
154.791 156.471 156.857 158.451 158.709 160.066 160.139 161.239 161.162 
162.11 161.912 162.732 162.347 162.969 162.383 162.806 131.275 130.347 
130.84 130.924 129.43 129.894 130.015 130.553 130.701 128.808 129.033 
129.128 129.646 129.827 130.345 130.53 128.872 128.649 128.612 128.866 
129.043 129.486 129.674 130.201 130.564 129.661 129.05 128.88 128.665 
128.768 128.892 129.099 129.438 129.853 130.453 131.152 130.799 130.058 
129.866 129.298 129.352 129.037 129.256 129.195 129.652 129.971 130.784 
131.366 132.251 131.991 131.267 131.122 130.461 130.527 129.986 130.232 
129.818 130.259 130.155 130.927 131.238 132.19 132.621 133.401 133.192 
132.504 132.399 131.741 131.798 131.246 131.499 131.027 131.435 131.081 
131.678 131.629 132.429 132.68 133.472 133.762 134.386 134.34 133.729 
133.655 133.014 133.019 132.463 132.648 132.236 132.607 132.277 132.741 
132.496 133.045 133.027 133.676 133.87 134.516 134.742 135.32 131.799 
131.458 131.899 132.525 131.235 131.621 132.245 132.709 133.441 131.125 
131.474 132.152 132.537 133.292 133.732 134.515 131.269 131.5 132.273 
132.576 133.38 133.711 134.492 134.856 135.595 131.853 131.858 132.614 
132.797 133.586 133.866 134.64 134.935 135.683 135.98 136.717 132.784 
132.601 133.205 133.213 133.886 134.076 134.815 135.099 135.889 136.178 
136.98 137.223 137.996 133.765 133.52 133.998 133.866 134.477 134.488 
135.216 135.353 136.168 136.42 137.286 137.558 138.375 138.57 139.288 
134.687 134.427 134.877 134.693 135.327 135.242 136.002 135.964 136.741 
136.808 137.626 137.853 138.68 138.93 139.653 139.816 140.431 135.623 
135.346 135.806 135.596 136.217 136.131 136.86 136.815 137.5 137.463 
138.13 138.226 138.969 139.196 139.93 140.138 140.77 140.9 141.45 
132.248 132.997 132.819 133.302 133.927 133.666 134.16 133.973 134.535 
134.973 134.676 135.16 134.905 135.434 135.25 135.838 136 135.718 
136.191 135.93 136.423 136.183 136.735 136.574 137.199 137.063 136.73 
137.203 136.945 137.449 137.187 137.735 137.524 138.171 138.007 138.694 
138.282 137.854 138.318 137.999 138.535 138.242 138.809 138.564 139.235 
139.054 139.77 139.574 140.262 139.534 139.101 139.533 139.177 139.707 
139.384 139.933 139.651 140.282 140.111 140.824 140.665 141.334 141.127 
141.76 140.652 140.282 140.671 140.354 140.841 140.549 141.049 140.756 
141.291 141.098 141.75 141.648 142.319 142.163 142.764 142.567 143.165 
141.649 141.32 141.67 141.391 141.829 141.595 142.07 141.815 142.294 
142.063 142.634 142.515 143.179 143.085 143.715 143.549 144.122 143.935 
144.512 148.298 147.873 147.828 147.222 147.198 147.247 146.556 146.577 
145.886 146.325 146.441 145.741 145.807 145.078 145.136 144.459 145.353 
145.497 144.87 144.998 144.358 144.37 143.687 143.718 143.082 144.44 
144.529 143.947 144.144 143.597 143.682 142.994 142.987 142.273 142.338 
141.691 143.733 143.708 143.088 143.237 142.659 142.822 142.068 142.155 
141.327 141.455 140.734 140.907 140.273 143.165 143.089 142.403 142.426 
141.749 141.833 141.03 141.101 140.252 140.392 139.667 139.883 139.258 
139.476 138.892 142.587 142.537 141.829 141.77 141.026 140.981 140.188 
140.152 139.394 139.422 138.78 138.885 138.296 138.453 137.873 138.093 
137.552 141.983 141.962 141.299 141.215 140.479 140.348 139.572 139.457 
138.757 138.73 138.14 138.161 137.566 137.596 136.975 137.095 136.546 
136.783 136.32 
POINT_DATA 1002
SCALARS Distance double
LOOKUP_TABLE default
135.868 134.896 134.88 135.932 134.918 137.016 136.112 135.037 137.297 
138.569 136.515 135.469 137.78 139.104 140.414 137.304 136.457 138.484 
139.755 140.988 142.213 138.376 137.676 139.333 140.428 141.525 142.746 
144.056 139.34 138.563 140.211 141.158 142.164 143.336 144.711 146.056 
140.056 139.147 141.043 142.029 143.11 144.302 145.559 146.815 147.956 
140.698 139.792 141.772 142.86 144.091 145.482 146.756 147.838 148.843 
149.79 141.396 140.611 142.402 143.478 144.726 146.276 147.827 149.075 
150.103 151.036 151.865 133.838 133.848 132.678 132.759 131.521 133.896 
131.663 130.373 132.821 133.994 130.557 129.316 131.69 132.889 134.549 
129.667 128.765 130.672 131.761 133.597 135.812 129.421 129.019 130.159 
130.996 132.675 135.106 137.136 129.896 129.838 130.326 130.911 132.165 
134.401 136.547 137.962 130.755 130.8 130.966 131.353 132.2 133.952 
136.019 137.516 138.611 131.696 131.715 131.82 132.075 132.622 133.847 
135.626 137.238 138.414 139.471 132.662 132.77 133.822 134.053 135.112 
132.978 135.474 136.439 134.386 133.34 136.936 137.843 135.967 134.926 
134.142 138.48 139.378 137.61 136.677 135.886 135.56 140.144 140.928 
139.355 138.484 137.679 137.267 137.208 141.785 142.383 141.146 140.338 
139.495 138.99 138.815 138.633 143.304 143.763 142.812 142.124 141.307 
140.734 140.495 140.237 139.812 144.722 145.083 144.33 143.774 143.066 
142.477 142.157 141.868 141.4 140.9 141.962 142.343 143.496 142.928 
144.009 145.452 143.502 144.727 146.175 148.044 143.924 145.438 147.003 
148.879 150.984 144.349 145.96 147.69 149.628 151.745 153.811 144.932 
146.413 148.128 150.079 152.283 154.408 156.309 145.52 146.918 148.521 
150.332 152.462 154.686 156.662 158.415 145.934 147.324 148.889 150.607 
152.541 154.657 156.695 158.535 160.181 146.226 147.55 149.06 150.758 
152.621 154.591 156.547 158.427 160.194 161.696 142.841 144.555 143.901 
146.945 145.867 145.128 150.065 148.814 147.51 146.735 153.294 152.448 
151.006 149.54 148.628 156.139 155.798 154.853 153.242 151.672 150.387 
158.53 158.441 157.908 156.758 155.258 153.641 151.859 160.487 160.531 
160.098 159.195 158.167 157.004 155.264 153.051 162.052 162.168 161.853 
161.012 160.057 159.331 158.281 156.336 153.932 163.292 163.477 164.564 
164.59 165.496 163.394 165.605 166.271 164.489 162.87 166.501 166.746 
165.597 163.955 161.87 166.782 166.679 166.224 164.883 162.839 160.934 
166.414 166.231 165.998 165.043 163.47 161.7 160.153 165.781 165.537 
165.388 164.572 163.472 162.047 160.504 158.697 164.859 164.492 164.649 
163.929 163.032 161.918 160.427 158.571 156.341 163.522 163.146 163.524 
163.032 162.249 161.297 159.97 158.177 156.067 153.875 162.23 163.881 
162.455 163.919 162.134 165.072 163.244 161.593 164.818 165.792 162.546 
161.223 163.904 165.232 166.196 162.016 160.52 163.141 164.25 165.345 
166.234 160.891 159.207 162.263 163.432 164.426 165.268 165.953 159.396 
157.914 160.778 162.221 163.572 164.482 165.052 165.457 158.197 156.824 
159.388 160.651 162.179 163.521 164.229 164.51 164.622 157.048 155.601 
158.305 159.374 160.577 161.969 163.037 163.478 163.536 163.435 146.161 
147.403 147.316 148.658 148.507 148.835 150.003 149.744 150.189 150.511 
151.388 150.964 151.627 152.025 152.468 152.652 152.055 153.058 153.593 
154.221 154.58 153.798 153.049 154.429 155.198 155.978 156.489 156.628 
154.946 154.007 155.804 156.836 157.751 158.29 158.565 158.595 156.007 
154.878 157.045 158.285 159.389 159.932 160.279 160.571 160.532 144.693 
145.794 144.326 145.354 143.849 146.905 144.778 143.253 146.34 147.98 
144.231 142.796 145.758 147.277 149.065 143.864 142.55 145.368 146.754 
148.234 150.151 143.521 142.304 145.003 146.483 147.734 149.232 151.173 
143.158 142.06 144.483 146.037 147.479 148.715 150.215 152.111 142.969 
141.963 144.086 145.413 146.965 148.428 149.664 151.098 152.956 142.96 