# vtk DataFile Version 4.0
vtk output
ASCII
DATASET POLYDATA
POINTS 1002 float
-84.8245 -82.7919 72.5536 -84.8006 -82.1547 71.2656 -84.5617 -81.8511 72.1163 
-84.5646 -82.5534 73.5358 -84.26 -81.5996 73.1008 -84.8206 -83.5317 74.0905 
-84.1235 -82.4607 74.5298 -83.764 -81.5277 74.06 -84.4635 -83.4306 75.1075 
-84.761 -84.4654 75.7818 -83.4448 -82.5933 75.4098 -83.1094 -81.6469 74.9556 
-83.8741 -83.5481 76.0338 -84.2914 -84.5715 76.7729 -84.5226 -85.6918 77.4805 
-82.7607 -82.8132 76.3229 -82.5138 -81.7699 75.9706 -83.1736 -83.8289 76.9288 
-83.6585 -84.8849 77.715 -83.9707 -86.0017 78.5068 -84.126 -87.1558 79.2154 
-82.3152 -83.016 77.5243 -82.1064 -81.9156 77.2604 -82.6332 -84.1066 78.041 
-83.0441 -85.2616 78.7696 -83.3472 -86.4489 79.5413 -83.569 -87.6022 80.2881 
-83.8017 -88.7357 80.9981 -82.0703 -83.3809 79.0317 -81.8512 -82.2885 78.7103 
-82.3085 -84.4517 79.4752 -82.5719 -85.6481 80.0647 -82.7519 -86.9467 80.6979 
-82.9559 -88.1598 81.3305 -83.2332 -89.3343 81.9973 -83.4521 -90.4728 82.602 
-81.8153 -83.9247 80.5197 -81.6289 -82.802 80.0526 -82.0187 -84.9645 81.0179 
-82.2019 -86.1416 81.5161 -82.2735 -87.5353 82.0223 -82.3799 -88.848 82.5176 
-82.6203 -90.0737 83.0386 -82.81 -91.3249 83.5666 -82.8882 -92.4465 83.9874 
-81.4439 -84.4035 81.6968 -81.3532 -83.2258 81.1991 -81.6177 -85.5004 82.2872 
-81.8183 -86.7037 82.8417 -81.9193 -88.2117 83.3585 -81.9902 -89.6984 83.8624 
-82.1423 -90.9928 84.3145 -82.2552 -92.3299 84.7137 -82.2803 -93.6305 85.0646 
-82.3337 -94.6555 85.3314 -81.0739 -84.7471 82.6647 -81.0695 -83.5488 82.2728 
-81.2122 -85.9747 83.2291 -81.4261 -87.2926 83.8586 -81.5848 -88.9088 84.479 
-81.702 -90.6121 85.0962 -81.8453 -92.0598 85.6397 -81.9024 -93.4447 86.0033 
-81.8448 -94.9067 86.2287 -81.8425 -96.1597 86.4141 -81.9663 -97.0401 86.5638 
-84.5626 -81.3317 70.5554 -84.2384 -80.9776 71.4243 -84.2005 -80.475 69.8422 
-83.733 -80.0865 70.7079 -83.7675 -79.6392 69.2011 -83.8745 -80.6785 72.4355 
-83.168 -79.2645 70.0557 -83.295 -78.8137 68.6612 -83.2835 -79.7929 71.7333 
-83.3745 -80.5938 73.469 -82.5974 -78.4593 69.5404 -82.7182 -77.8845 68.1763 
-82.6585 -79.0073 71.1423 -82.8116 -79.7171 72.9075 -82.7793 -80.6647 74.5498 
-81.9919 -77.4997 69.3004 -82.2833 -76.8798 68.0227 -82.0869 -78.1034 70.8312 
-82.2601 -78.8611 72.5531 -82.2978 -79.7389 74.281 -82.2074 -80.7133 75.8169 
-81.7674 -76.4866 69.6935 -82.519 -76.0795 68.6433 -81.6049 -76.9325 70.9756 
-81.8444 -77.7126 72.5192 -81.8796 -78.8078 74.2076 -81.7471 -79.7982 75.802 
-81.7586 -80.8745 77.2484 -82.3435 -75.752 70.7 -83.3596 -75.6574 69.8083 
-81.5901 -75.8927 71.6714 -81.5608 -76.3726 72.8705 -81.6989 -77.575 74.3417 
-81.4768 -78.9357 75.8845 -81.3484 -80.015 77.3059 -81.518 -81.2736 78.6689 
-83.3178 -75.3917 71.7276 -84.1703 -75.5253 70.8716 -82.2387 -75.3413 72.6114 
-81.6128 -75.4539 73.5984 -81.6309 -76.283 74.7824 -81.5635 -77.8127 76.1283 
-81.2851 -79.2117 77.4746 -81.276 -80.3789 78.7466 -81.4073 -81.7476 79.9928 
-84.0581 -75.2901 72.4605 -84.6194 -75.5565 71.6418 -83.1452 -75.1451 73.4209 
-82.176 -75.1027 74.4728 -81.7471 -75.4939 75.539 -81.7295 -76.6917 76.638 
-81.5798 -78.2591 77.8195 -81.3929 -79.5982 79.0262 -81.3581 -80.8333 80.1836 
-81.2731 -82.1835 81.2699 -84.5928 -75.4948 72.854 -84.075 -75.1921 73.8624 
-84.5725 -75.5989 74.3795 -84.1945 -75.2525 75.6734 -84.6823 -75.9849 76.1171 
-83.2478 -75.0283 75.1277 -84.4339 -75.7764 77.4789 -84.8652 -76.7852 77.6384 
-83.5198 -75.2353 77.0677 -82.3868 -75.1839 76.3573 -84.5558 -76.9186 78.9794 
-85.0258 -77.7678 79.2152 -83.7919 -76.1827 78.6968 -82.7257 -75.8746 78.1535 
-81.9936 -76.0129 77.3802 -84.5463 -78.0259 80.8081 -85.1586 -78.4665 81.2516 
-83.8438 -77.5709 80.2881 -82.9699 -77.2264 79.7078 -82.2711 -77.1232 79.0831 
-81.8961 -77.4821 78.4193 -84.6012 -78.7391 82.8898 -85.217 -79.1266 83.053 
-83.8435 -78.5558 82.375 -83.0402 -78.4834 81.6117 -82.4238 -78.46 80.8833 
-82.0604 -78.6093 80.2637 -81.7292 -79.0311 79.6326 -84.6977 -79.754 84.3155 
-85.19 -80.2809 84.1053 -83.9435 -79.4578 84.2127 -83.0901 -79.3929 83.6963 
-82.4492 -79.5289 82.959 -82.0857 -79.8099 82.2659 -81.8131 -80.1016 81.6019 
-81.5334 -80.4083 80.8611 -84.7472 -81.2675 85.1614 -85.1644 -81.7261 84.8873 
-84.0542 -80.9028 85.2905 -83.1871 -80.6605 85.161 -82.4949 -80.6545 84.7447 
-82.0727 -80.983 84.1504 -81.756 -81.3525 83.5162 -81.4779 -81.5293 82.779 
-81.2995 -81.7424 81.9513 -84.77 -82.7117 86.0094 -85.1733 -82.9926 85.7785 
-84.1433 -82.4858 86.1271 -83.3255 -82.2969 86.1141 -82.6311 -82.1944 85.9563 
-82.1867 -82.3689 85.5867 -81.7943 -82.7026 85.0796 -81.39 -82.8402 84.4886 
-81.1053 -82.8612 83.7253 -81.0078 -83.0906 82.901 -80.84 -84.7027 83.6251 
-80.8251 -84.3668 84.4189 -80.886 -86.367 85.241 -81.0102 -84.2849 85.2559 
-80.9244 -86.1855 86.1246 -81.1047 -88.7494 87.1063 -81.4332 -84.3757 85.8776 
-81.1301 -86.1528 86.8217 -81.1021 -88.5892 87.8966 -80.9978 -91.461 88.8169 
-81.9503 -84.3051 86.3582 -81.5629 -86.2079 87.2818 -81.2382 -88.3542 88.4046 
-81.0365 -91.1725 89.3709 -80.5516 -93.9729 89.8825 -82.3797 -84.0684 86.7785 
-82.0638 -86.1222 87.7177 -81.5961 -88.1383 88.8238 -81.2765 -90.6531 89.7877 
-80.9154 -93.7742 90.2515 -80.2746 -96.4267 90.4311 -82.8928 -83.9204 87.0162 
-82.5593 -85.8688 88.0598 -82.0836 -87.8988 89.2008 -81.6448 -90.1304 90.1857 
-81.3571 -93.2498 90.6264 -80.8554 -96.5909 90.7496 -80.1786 -98.9125 90.9966 
-83.6565 -83.8653 87.1124 -83.2458 -85.5608 88.2136 -82.7705 -87.5787 89.3603 
-82.1752 -89.7085 90.3637 -81.7124 -92.5395 90.9009 -81.2811 -96.194 91.0829 
-80.6627 -99.1796 91.361 -80.0171 -100.902 91.6842 -84.408 -83.8646 87.105 
-84.033 -85.2986 88.2449 -83.6323 -87.209 89.3554 -83.0236 -89.3461 90.3121 
-82.2834 -91.8588 90.9103 -81.6487 -95.3111 91.2641 -81.0783 -98.7565 91.7175 
-80.4829 -100.904 92.1445 -79.9087 -102.215 92.1628 -84.9267 -83.9753 86.9138 
-84.6254 -85.1954 88.07 -84.3287 -86.9107 89.1829 -83.9081 -88.9965 90.1667 
-83.1831 -91.3015 90.8087 -82.3191 -94.3086 91.2106 -81.6062 -97.7899 91.8096 
-81.0561 -100.428 92.4904 -80.5297 -101.951 92.6698 -79.9862 -103.307 92.2225 
-80.9363 -86.1528 84.0722 -81.0777 -88.3104 85.8263 -81.137 -87.7617 84.7038 
-81.0561 -91.1345 87.7814 -81.0929 -90.3982 86.5089 -81.2589 -89.5711 85.4137 
-80.4483 -93.8253 89.2741 -80.5657 -93.3002 88.2571 -80.867 -92.4747 87.1233 
-81.3146 -91.5369 86.1212 -79.8107 -96.1315 90.0364 -79.7209 -95.7422 89.3214 
-80.0921 -95.2683 88.4343 -80.7999 -94.467 87.6391 -81.4669 -93.3084 86.7808 
-79.6611 -98.5587 90.6463 -79.3592 -98.1483 89.9739 -79.4882 -97.8681 89.1427 
-80.1149 -97.3795 88.5648 -80.9616 -96.334 88.0867 -81.5714 -94.8947 87.2344 
-79.6115 -100.947 91.3498 -79.3635 -100.929 90.7279 -79.3363 -100.851 89.8089 
-79.6188 -100.472 89.1011 -80.2506 -99.5868 88.7626 -80.9637 -98.2205 88.2928 
-81.475 -96.5697 87.394 -79.442 -102.798 91.7393 -79.1838 -103.496 91.2252 
-79.1436 -103.963 90.4504 -79.256 -103.739 89.6305 -79.5694 -102.854 89.1061 
-80.1419 -101.61 88.724 -80.8191 -100.025 88.1973 -81.3926 -98.1072 87.4206 
-79.3868 -104.289 91.6565 -78.957 -105.509 91.1548 -78.8014 -106.529 90.6108 
-78.8671 -106.689 89.9407 -79.044 -105.87 89.3134 -79.3762 -104.619 88.8101 
-80.0003 -103.199 88.4038 -80.8036 -101.374 88.0346 -81.4895 -99.1795 87.4636 
-79.7482 -105.475 91.5314 -79.1047 -107.025 90.9421 -79.5597 -108.584 90.8418 
-78.965 -110.324 90.4307 -79.5064 -111.795 90.5641 -78.6707 -108.497 90.4778 
-78.9048 -113.37 90.1269 -79.5706 -114.222 90.1885 -78.5464 -111.532 89.9249 
-78.5634 -109.249 89.9479 -78.8395 -115.709 89.3343 -79.8277 -115.599 89.2661 
-78.3824 -114.333 89.2266 -78.4745 -111.765 89.1978 -78.7046 -108.786 89.3173 
-79.1981 -116.714 88.216 -80.4876 -115.681 88.4463 -78.2942 -116.312 88.1577 
-78.3685 -114.038 88.299 -78.6879 -110.658 88.5292 -78.9161 -107.423 88.7199 
-80.2017 -115.953 87.5766 -81.3062 -114.584 88.0847 -78.9424 -116.318 87.3324 
-78.5733 -114.989 87.546 -78.8119 -112.035 87.8756 -78.9714 -108.702 88.0765 
-79.3326 -105.838 88.2633 -81.1707 -114.312 87.3453 -81.8906 -113.019 87.7738 
-80.0928 -114.793 87.0603 -79.4009 -114.129 87.2161 -79.3232 -112.164 87.5718 
-79.3302 -109.402 87.7557 -79.5611 -106.627 87.8972 -80.1803 -104.008 88.0691 
-81.7909 -112.51 87.1892 -82.4079 -111.234 87.4525 -80.9719 -113.034 87.0242 
-80.298 -112.631 87.1389 -80.077 -111.367 87.4345 -80.001 -109.37 87.6245 
-80.0841 -106.912 87.7602 -80.5868 -104.285 87.9231 -81.1604 -101.669 87.8747 
-82.4568 -110.293 87.1265 -83.1292 -109.072 87.3119 -81.6939 -110.993 87.0406 
-81.0343 -110.9 87.1352 -80.7636 -110.085 87.3483 -80.7304 -108.666 87.4858 
-80.7562 -106.653 87.5669 -81.0646 -104.17 87.689 -81.5545 -101.556 87.6478 
-81.8544 -99.1403 87.2412 -80.5256 -103.476 92.4263 -80.2946 -105.853 91.5777 
-81.0312 -103.527 92.2809 -80.7596 -105.885 91.3774 -81.3758 -103.294 91.6493 
-80.0942 -109.047 90.89 -81.1863 -105.389 90.9811 -81.7825 -102.704 91.002 
-80.6186 -108.709 90.8061 -80.0996 -111.925 90.5722 -81.8338 -104.51 90.7686 
-82.5707 -101.599 90.7766 -81.2896 -107.643 90.7627 -80.7498 -110.933 90.4543 
-80.3178 -113.679 89.9703 -82.8021 -103.035 90.7013 -83.7247 -99.7856 90.6656 
-82.1925 -106.231 90.8251 -81.6012 -109.259 90.5463 -81.0318 -112.058 89.8161 
-80.7455 -114.279 89.1487 -84.0077 -100.745 90.4925 -84.9674 -97.7405 90.368 
-83.2196 -104.151 90.6574 -82.6706 -107.259 90.681 -81.9705 -109.916 90.0713 
-81.4355 -112.128 89.3113 -81.3499 -113.732 88.7503 -85.2432 -98.4438 90.1981 
-86.009 -96.2063 89.9351 -84.2941 -101.439 90.2815 -83.6848 -104.674 90.4443 
-83.1744 -107.491 90.2919 -82.4448 -109.662 89.6886 -81.9634 -111.262 89.0802 
-81.9138 -112.403 88.4688 -86.2492 -96.8394 89.7611 -86.7472 -95.1435 89.312 
-85.3349 -99.0674 89.883 -84.5024 -101.843 89.9639 -84.0732 -104.712 90.0431 
-83.6388 -107.07 89.7973 -83.0173 -108.714 89.2635 -82.5955 -109.899 88.6454 
-82.4792 -110.793 87.996 -87.0171 -95.6202 89.0487 -87.3348 -94.0812 88.5047 
-86.295 -97.38 89.3228 -85.3549 -99.484 89.4119 -84.6731 -101.907 89.4957 
[...]
CELL_DATA 2000
SCALARS Distance double
LOOKUP_TABLE default
137.303 137.474 137.729 138.46 137.66 137.931 138.689 138.963 139.78 
137.816 138.103 138.877 139.192 140.045 140.359 141.245 138.031 138.276 
139.077 139.391 140.304 140.644 141.599 141.887 142.813 138.478 138.612 
139.475 139.696 140.684 140.98 142.013 142.293 143.29 143.522 144.496 
139.26 139.273 140.223 140.292 141.333 141.506 142.586 142.798 143.836 
144.048 145.061 145.277 146.263 140.2 140.207 141.199 141.201 142.239 
142.302 143.386 143.498 144.562 144.687 145.73 145.892 146.924 147.079 
148.021 141.004 141.1 142.053 142.144 143.135 143.226 144.297 144.394 
145.511 145.567 146.674 146.712 147.811 147.861 148.908 148.912 149.842 
141.649 141.777 142.68 142.859 143.841 144.025 145.117 145.298 146.491 
146.608 147.808 147.818 148.973 148.928 150.041 149.971 151.011 150.878 
151.815 136.614 135.554 136.293 136.727 134.42 135.164 135.588 136.412 
136.888 133.311 134.005 134.375 135.214 135.726 136.576 137.061 132.208 
132.896 133.234 134.019 134.537 135.405 135.976 136.781 137.291 131.155 
131.791 132.166 132.92 133.461 134.292 134.922 135.738 136.337 137.085 
137.692 130.668 130.948 131.336 131.916 132.499 133.288 133.989 134.792 
135.461 136.191 136.85 137.603 138.376 131.124 130.932 131.24 131.363 
131.868 132.423 133.175 133.951 134.728 135.435 136.135 136.82 137.596 
138.399 139.275 132.074 131.705 131.913 131.641 131.959 132.063 132.714 
133.272 134.148 134.828 135.641 136.242 137.017 137.686 138.54 139.326 
140.154 132.912 132.623 132.796 132.455 132.666 132.442 132.911 133.079 
133.902 134.413 135.346 135.895 136.748 137.27 138.11 138.711 139.54 
140.197 140.919 133.349 134.08 133.567 133.303 135.155 134.467 134.225 
133.574 133.278 136.522 135.734 135.535 134.714 134.458 133.674 133.532 
138.02 137.205 137.075 136.192 135.991 135.078 134.973 134.21 134.412 
139.625 138.785 138.715 137.819 137.696 136.75 136.693 135.827 136.012 
135.358 135.782 141.194 140.424 140.395 139.526 139.466 138.531 138.53 
137.637 137.822 137.062 137.419 136.792 137.21 142.572 141.934 141.97 
141.201 141.183 140.317 140.339 139.486 139.676 138.904 139.233 138.509 
138.862 138.19 138.568 143.858 143.287 143.413 142.734 142.774 141.992 
142.039 141.252 141.443 140.719 141.039 140.325 140.634 139.897 140.179 
139.522 139.893 145.129 144.602 144.79 144.171 144.277 143.56 143.661 
142.922 143.137 142.445 142.766 142.084 142.374 141.639 141.846 141.124 
141.359 140.785 141.154 142.017 142.257 142.546 143.62 142.773 142.949 
144.032 144.414 145.854 143.357 143.55 144.602 144.909 146.29 146.854 
148.445 143.812 144.112 145.18 145.478 146.718 147.224 148.704 149.362 
150.739 144.165 144.519 145.638 145.999 147.168 147.589 148.909 149.52 
150.913 151.475 152.623 144.587 144.876 145.982 146.39 147.557 147.974 
149.173 149.688 151.02 151.637 152.959 153.385 154.469 145.118 145.328 
146.349 146.715 147.862 148.296 149.432 149.893 151.083 151.696 153.034 
153.682 154.931 155.292 156.237 145.595 145.817 146.748 147.071 148.151 
148.577 149.687 150.108 151.17 151.685 152.894 153.631 154.957 155.609 
156.666 156.932 157.604 145.904 146.181 147.029 147.373 148.35 148.805 
149.876 150.332 151.339 151.756 152.796 153.42 154.686 155.486 156.688 
157.215 157.982 158.105 158.55 142.308 143.924 143.142 143.386 146.245 
145.109 145.328 144.387 144.664 148.924 147.722 147.935 146.676 146.883 
145.811 146.08 151.155 150.256 150.444 149.324 149.435 148.252 148.449 
147.349 147.58 152.874 152.142 152.253 151.453 151.526 150.628 150.79 
149.794 150.007 148.893 149.004 154.655 153.823 153.937 153.1 153.236 
152.461 152.726 151.954 152.262 151.311 151.459 150.267 150.226 156.431 
155.673 155.911 155.008 155.279 154.343 154.715 153.871 154.295 153.456 
153.729 152.682 152.69 151.426 151.286 157.756 157.278 157.606 156.997 
157.396 156.58 156.961 156.029 156.368 155.476 155.738 154.829 154.914 
153.821 153.707 152.437 152.232 158.666 158.373 158.735 158.446 158.94 
158.499 158.905 158.182 158.371 157.488 157.547 156.689 156.705 155.839 
155.771 154.733 154.531 153.301 153.016 159.223 160.464 159.645 159.451 
162.272 161.207 160.975 160.038 159.817 164.057 163.116 162.785 161.708 
161.312 160.358 159.887 165.132 164.626 164.289 163.388 162.782 161.784 
161.075 160.134 159.34 165.395 165.297 165.022 164.519 163.871 163.035 
162.113 161.154 160.156 159.285 158.375 165.06 165.238 164.943 164.826 
164.205 163.754 162.793 161.99 160.827 159.953 158.927 158.22 157.409 
164.294 164.66 164.331 164.435 163.818 163.705 162.844 162.383 161.261 
160.506 159.41 158.704 157.86 157.272 156.502 163.26 163.74 163.459 
163.683 163.116 163.147 162.421 162.232 161.314 160.802 159.774 159.134 
158.234 157.665 156.844 156.268 155.338 162.09 162.62 162.373 162.731 
162.229 162.39 161.74 161.742 160.974 160.736 159.81 159.359 158.392 
157.905 156.96 156.467 155.448 154.894 153.803 159.384 159.798 159.864 
160.521 159.8 160.16 160.949 161.246 162.253 159.396 159.983 160.88 
161.488 162.575 163.042 164.001 158.95 159.57 160.515 161.24 162.298 
163.025 163.944 164.453 165.015 158.438 159.139 160.082 160.839 161.801 
162.535 163.306 163.988 164.512 165.03 165.246 157.658 158.453 159.292 
160.22 161.109 161.933 162.571 163.209 163.601 164.222 164.464 164.969 
164.942 156.872 157.558 158.195 159.132 159.905 160.955 161.605 162.397 
162.708 163.273 163.395 163.964 163.954 164.426 164.178 156.234 156.803 
157.26 157.965 158.502 159.506 160.122 161.173 161.567 162.31 162.365 
162.884 162.773 163.274 163.06 163.492 163.128 155.534 156.131 156.506 
157.065 157.385 158.116 158.523 159.526 159.932 160.921 161.078 161.778 
161.671 162.147 161.931 162.343 162.058 162.41 162.011 146.292 147.245 
146.972 147.431 148.267 147.954 148.452 148.202 148.778 149.385 149.018 
149.537 149.285 149.971 149.714 150.358 150.538 150.171 150.705 150.437 
151.183 150.97 151.703 151.349 151.874 151.568 151.29 151.841 151.621 
152.4 152.229 153.039 152.727 153.346 152.847 153.353 152.437 152.255 
152.838 152.701 153.517 153.435 154.321 154.096 154.85 154.412 155.091 
154.53 155.239 153.28 153.14 153.784 153.665 154.483 154.472 155.371 
155.303 156.097 155.87 156.621 156.28 157.035 156.556 157.204 154.152 
154.056 154.758 154.628 155.388 155.364 156.19 156.21 156.937 156.894 
157.549 157.502 158.161 158.036 158.54 158.189 158.439 154.937 154.929 
155.628 155.554 156.226 156.193 156.935 156.958 157.665 157.625 158.211 
158.177 158.745 158.774 159.245 159.137 159.332 158.986 158.974 145.759 
145.311 145.928 146.734 144.962 145.536 146.4 146.982 147.806 144.636 
145.2 146.034 146.661 147.545 148.109 148.937 144.229 144.813 145.558 
146.214 147.049 147.753 148.635 149.255 150.069 143.855 144.395 145.131 
145.709 146.45 147.134 147.991 148.788 149.692 150.353 151.099 143.641 
144.101 144.887 145.378 146.124 146.619 147.398 148.087 149.014 149.822 
150.676 151.292 151.943 143.535 143.932 144.688 145.183 145.972 146.422 
147.173 147.654 148.493 149.164 150.04 150.745 151.465 152.048 152.682 
143.5 143.828 144.489 144.951 145.701 146.226 146.981 147.478 148.247 
148.781 149.582 150.17 150.897 151.488 152.15 152.762 153.456 143.541 
143.812 144.419 144.768 145.439 145.908 146.621 147.169 147.91 148.492 
149.264 149.82 150.542 151.031 151.685 152.213 152.902 153.532 154.236 
143.77 144.426 144.293 144.671 145.073 144.994 145.429 145.239 145.657 
145.74 145.691 146.223 146.041 146.459 146.265 146.759 146.554 146.463 
147.064 146.874 147.299 147.066 147.526 147.413 148.017 147.457 147.363 
147.982 147.774 148.2 147.915 148.363 148.208 148.863 148.786 149.451 
148.212 148.204 148.817 148.688 149.128 148.847 149.299 149.101 149.81 
149.728 150.48 150.28 150.815 148.79 148.822 149.396 149.398 149.864 
149.722 150.183 150.04 150.743 150.711 151.511 151.361 151.922 151.575 
151.957 149.346 149.336 149.85 149.878 150.379 150.364 150.887 150.848 
151.538 151.575 152.377 152.345 152.963 152.69 153.097 152.711 153.129 
149.903 149.875 150.369 150.355 150.919 150.916 151.584 151.571 152.353 
152.358 153.182 153.163 153.842 153.674 154.149 153.845 154.275 153.944 
154.423 150.351 151.33 150.843 150.889 152.664 152.037 152.167 151.506 
151.551 154.17 153.559 153.842 153.076 153.225 152.361 152.398 155.478 
155.033 155.42 154.838 155.139 154.292 154.373 153.344 153.312 156.669 
156.269 156.632 156.227 156.544 156.037 156.158 155.341 155.216 154.217 
154.081 157.979 157.546 157.897 157.383 157.558 157.123 157.172 156.713 
156.555 155.875 155.587 154.793 154.572 159.226 158.888 159.298 158.74 
158.855 158.187 158.119 157.539 157.383 156.858 156.611 156.02 155.747 
155.093 154.838 160.275 160.029 160.45 160.056 160.248 159.603 159.577 
158.761 158.611 157.814 157.625 156.948 156.762 156.153 155.956 155.296 
155.036 161.277 161.012 161.394 161.078 161.33 160.894 161.019 160.346 
160.298 159.38 159.169 158.212 157.971 157.199 157.019 156.387 156.192 
155.503 155.219 150.167 150.022 150.415 151.086 149.766 150.236 151 
151.458 152.328 149.515 150.005 150.844 151.37 152.323 152.825 153.77 
149.235 149.777 150.633 151.211 152.19 152.777 153.736 154.229 155.073 
148.812 149.439 150.267 150.92 151.841 152.533 153.472 154.089 154.93 
155.422 156.227 148.309 148.956 149.76 150.444 151.303 152.047 152.962 
153.696 154.559 155.177 156.002 156.561 157.436 147.851 148.461 149.256 
149.908 150.742 151.453 152.368 153.133 154.058 154.75 155.609 156.243 
157.129 157.763 158.644 147.463 148.033 148.821 149.434 150.249 150.906 
151.793 152.545 153.503 154.251 155.16 155.826 156.717 157.386 158.314 
158.938 159.766 147.15 147.672 148.442 149.022 149.811 150.426 151.253 
151.965 152.885 153.672 154.604 155.343 156.243 156.951 157.899 158.593 
159.53 160.079 160.854 149.614 148.668 149.268 149.428 147.544 148.233 
148.404 148.999 149.123 146.311 147.052 147.256 147.919 148.051 148.66 
148.814 144.99 145.774 145.977 146.718 146.862 147.532 147.644 148.316 
148.477 143.549 144.374 144.537 145.356 145.487 146.252 146.334 147.056 
147.143 147.891 148.022 142.056 142.876 143.014 143.85 143.973 144.79 
144.881 145.659 145.739 146.5 146.608 147.382 147.524 140.605 141.394 
141.559 142.359 142.503 143.28 143.375 144.159 144.268 145.069 145.214 
145.991 146.15 146.908 147.083 139.223 139.976 140.165 140.959 141.128 
141.872 141.935 142.661 142.721 143.544 143.713 144.581 144.784 145.575 
145.757 146.506 146.705 137.976 138.644 138.806 139.574 139.737 140.498 
140.546 141.239 141.229 141.984 142.107 143.012 143.267 144.171 144.412 
145.206 145.419 146.169 146.406 137.39 136.744 137.41 138.159 136.063 
136.737 137.452 138.208 139.017 135.417 136.052 136.725 137.451 138.217 
139.028 139.796 134.953 135.473 136.15 136.767 137.524 138.248 139.038 
139.776 140.515 134.854 135.168 135.865 136.328 137.141 137.72 138.588 
139.183 140.016 140.611 141.447 135.193 135.298 135.999 136.253 137.102 
137.528 138.47 138.952 139.863 140.333 141.23 141.75 142.666 135.766 
135.794 136.503 136.604 137.428 137.672 138.596 138.968 139.905 140.318 
141.231 141.674 142.584 143.056 143.899 136.342 136.385 137.092 137.181 
137.974 138.12 138.983 139.215 140.126 140.445 141.379 141.753 142.674 
143.062 143.907 144.271 144.997 136.914 136.943 137.625 137.73 138.502 
138.658 139.491 139.67 140.546 140.77 141.695 141.986 142.919 143.233 
144.092 144.377 145.122 145.377 146.036 137.472 138.628 138.066 138.189 
139.98 139.332 139.47 138.889 139.096 141.465 140.779 140.942 140.282 
140.5 139.895 140.134 143.02 142.313 142.487 141.802 142.016 141.374 
141.626 140.99 141.223 144.718 143.952 144.141 143.382 143.567 142.886 
143.124 142.505 142.77 142.124 142.371 146.508 145.744 145.993 145.157 
145.332 144.502 144.672 143.975 144.226 143.639 143.925 143.303 143.561 
148.201 147.504 147.788 147.041 147.269 146.398 146.531 145.636 145.789 
145.077 145.348 144.782 145.063 144.463 144.68 149.908 149.158 149.399 
148.726 148.99 148.28 148.472 147.594 147.685 146.775 146.932 146.217 
146.482 145.894 146.121 145.508 145.664 151.818 150.947 151.139 150.341 
150.56 149.882 150.116 149.415 149.549 148.697 148.761 147.905 148.052 
147.344 147.552 146.917 147.073 146.433 146.549 147.243 147.806 147.86 
148.537 148.351 148.449 149.174 149.208 149.903 148.951 149.042 149.852 
149.886 150.641 150.623 151.359 149.704 149.747 150.634 150.648 151.496 
151.453 152.272 152.195 153.01 150.446 150.537 151.449 151.502 152.444 
152.423 153.341 153.233 154.103 153.958 154.764 151.021 151.217 152.199 
152.339 153.411 153.462 154.538 154.437 155.404 155.177 156.027 155.759 
156.499 151.595 151.823 152.989 153.168 154.431 154.533 155.805 155.757 
156.884 156.629 157.567 157.189 158.003 157.578 158.272 152.311 152.549 
153.873 154.086 155.454 155.621 156.962 157.043 158.247 158.134 159.117 
158.803 159.632 159.207 159.921 159.409 159.972 153.033 153.335 154.658 
154.959 156.24 156.523 157.729 158.001 159.115 159.28 160.213 160.164 
160.923 160.706 161.361 161.002 161.51 160.993 161.323 132.814 131.92 
132.371 132.338 130.906 131.332 131.245 131.8 131.869 130.409 130.455 
130.35 130.715 130.831 131.43 131.766 130.914 130.449 130.339 130.194 
130.329 130.602 131.029 131.594 132.183 132.027 131.369 131.261 130.695 
130.722 130.5 130.816 131.073 131.681 132.226 132.918 133.153 132.557 
132.472 131.834 131.744 131.198 131.277 131.117 131.562 131.869 132.589 
133.094 133.816 134.223 133.651 133.591 133.008 132.921 132.296 132.27 
131.797 132.086 132.011 132.685 132.956 133.765 134.12 134.822 135.317 
134.73 134.671 134.104 134.059 133.459 133.455 132.892 133.115 132.783 
133.356 133.334 134.115 134.274 135.019 135.211 135.833 136.372 135.814 
135.754 135.199 135.166 134.594 134.593 134.054 134.211 133.836 134.264 
134.116 134.75 134.771 135.449 135.538 136.158 136.262 136.827 133.22 
132.88 133.319 133.883 132.534 133.007 133.677 134.115 134.814 132.438 
132.768 133.465 133.9 134.615 135.091 135.808 132.789 132.873 133.502 
133.764 134.456 134.872 135.609 136.069 136.789 133.472 133.385 133.939 
133.972 134.626 134.848 135.636 135.981 136.814 137.162 137.97 134.295 
134.126 134.636 134.536 135.138 135.195 135.983 136.202 137.091 137.357 
138.222 138.487 139.31 135.189 134.966 135.445 135.284 135.843 135.797 
136.509 136.637 137.467 137.701 138.523 138.778 139.561 139.828 140.573 
136.118 135.863 136.328 136.133 136.69 136.561 137.21 137.203 137.937 
138.072 138.836 139.054 139.811 140.063 140.805 141.047 141.716 137.074 
136.794 137.259 137.048 137.617 137.454 138.079 137.963 138.626 138.606 
139.321 139.416 140.172 140.349 141.114 141.317 142.025 142.182 142.765 
133.539 134.2 133.954 134.276 135.173 134.79 135.104 134.836 135.327 
136.218 135.86 136.169 135.795 136.209 136.009 136.624 137.182 136.871 
137.198 136.853 137.197 136.927 137.464 137.362 138.075 138.307 137.891 
138.244 137.862 138.238 137.918 138.46 138.276 139.012 138.913 139.698 
139.635 139.148 139.522 139.034 139.455 139.042 139.638 139.375 140.149 
139.969 140.745 140.573 141.27 140.894 140.475 140.841 140.375 140.754 
140.322 140.852 140.58 141.295 141.126 141.822 141.62 142.193 142.015 
142.577 141.979 141.631 141.961 141.591 141.904 141.533 141.931 141.681 
142.254 142.14 142.748 142.598 143.084 142.881 143.35 143.225 143.79 
142.943 142.623 142.909 142.595 142.893 142.572 142.922 142.652 143.125 
142.977 143.541 143.426 143.936 143.744 144.206 144.016 144.548 144.447 
145.043 149.47 148.877 148.973 148.517 148.23 148.307 147.791 147.906 
147.367 147.561 147.612 147.015 147.118 146.538 146.674 146.109 146.75 
146.846 146.179 146.298 145.654 145.792 145.181 145.363 144.78 145.826 
145.928 145.222 145.377 144.685 144.844 144.16 144.359 143.732 143.971 
143.356 145.054 145.049 144.347 144.418 143.734 143.846 143.136 143.291 
142.624 142.866 142.251 142.501 141.875 144.477 144.409 143.722 143.666 
142.978 142.975 142.266 142.314 141.629 141.784 141.172 141.397 140.785 
141.013 140.405 143.904 143.876 143.187 143.101 142.352 142.285 141.524 
141.507 140.783 140.856 140.217 140.377 139.769 139.952 139.335 139.56 
139.007 143.289 143.29 142.609 142.535 141.748 141.65 140.84 140.78 
140.017 140.037 139.36 139.467 138.849 138.99 138.384 138.545 137.989 
138.225 137.774 
POINT_DATA 1002
SCALARS Distance double
LOOKUP_TABLE default
137.974 136.911 137.026 138.19 137.21 139.22 138.396 137.377 139.485 
140.639 138.54 137.534 139.699 140.956 142.145 138.759 137.804 139.937 
141.281 142.564 143.736 139.277 138.359 140.395 141.725 143.038 144.273 
145.484 140.188 139.237 141.208 142.402 143.637 144.838 146.078 147.232 
141.199 140.167 142.213 143.3 144.462 145.593 146.766 147.933 148.902 
141.939 140.91 143.025 144.171 145.427 146.652 147.782 148.89 149.906 
150.723 142.487 141.554 143.618 144.885 146.301 147.752 149.026 150.117 
151.123 152.011 152.716 135.908 135.949 134.809 134.738 133.716 136.08 
133.565 132.657 134.826 136.275 132.47 131.501 133.67 135.118 136.539 
131.407 130.561 132.625 134.092 135.561 136.917 130.884 130.566 131.724 
133.153 134.727 136.1 137.537 131.353 131.462 131.49 132.398 133.979 
135.484 136.827 138.426 132.307 132.46 132.086 132.307 133.444 135.026 
136.42 137.808 139.388 133.108 133.171 132.98 132.939 133.492 134.775 
136.243 137.585 138.938 140.296 133.771 133.826 134.647 134.934 135.889 
133.921 136.383 137.296 135.291 134.169 137.939 138.83 136.906 135.779 
134.973 139.592 140.46 138.618 137.569 136.734 136.332 141.225 141.901 
140.373 139.413 138.613 138.125 137.806 142.678 143.139 142.01 141.17 
140.439 139.98 139.601 139.185 144.048 144.389 143.516 142.801 142.151 
141.743 141.399 140.909 140.448 145.372 145.63 144.952 144.367 143.819 
143.445 143.114 142.615 142.018 141.615 142.885 143.143 144.835 143.691 
145.268 147.466 144.347 145.774 147.834 150.044 144.88 146.318 148.069 
150.217 151.965 145.235 146.804 148.386 150.281 152.252 153.661 145.58 
147.136 148.736 150.403 152.387 154.251 155.502 146.039 147.433 149.022 
150.546 152.309 154.422 156.131 157.083 146.463 147.744 149.281 150.763 
152.21 154.177 156.286 157.587 158.146 146.711 147.917 149.395 150.958 
152.303 153.887 156.008 157.778 158.584 158.923 144.056 146.44 145.493 
149.27 148.103 147.059 151.463 150.608 149.604 148.693 153.005 152.298 
151.681 151.096 150.242 154.809 154.005 153.412 153.094 152.605 151.541 
156.713 156.216 155.624 155.118 154.682 153.913 152.628 158.043 158.071 
157.913 157.357 156.64 155.906 154.935 153.571 158.936 159.236 159.525 
159.287 158.478 157.534 156.688 155.704 154.329 159.819 160.19 161.396 
162.048 163.382 160.7 163.929 164.868 162.388 160.859 165.087 165.446 
163.856 162.114 160.265 165.363 165.383 164.621 163.144 161.094 159.121 
164.974 164.829 164.496 163.501 161.744 159.655 158.015 164.183 163.875 
163.84 163.125 161.917 160.131 158.453 157.123 163.166 162.744 163.032 
162.484 161.665 160.37 158.83 157.43 155.989 161.956 161.575 162.002 
161.659 161.084 160.182 158.889 157.469 155.994 154.371 159.419 160.365 
159.623 160.504 159.285 161.995 160.17 158.744 161.981 163.762 159.805 
158.314 161.582 163.343 164.737 159.31 157.705 161.142 162.692 163.894 
164.913 158.361 156.921 160.22 161.979 163.054 163.867 164.619 157.409 
156.294 158.832 160.679 162.172 162.912 163.416 163.837 156.714 155.697 
157.668 159.02 160.681 161.859 162.336 162.578 162.772 155.987 154.922 
156.824 157.673 158.888 160.235 161.15 161.538 161.687 161.724 146.539 
147.668 147.53 148.667 148.609 149.026 149.784 149.767 150.166 150.726 
150.969 150.883 151.367 152.022 152.369 152.026 151.802 152.535 153.306 
153.799 153.882 152.945 152.572 153.551 154.474 155.196 155.572 155.836 
153.909 153.365 154.506 155.401 156.252 156.86 157.447 157.833 154.899 
154.197 155.473 156.193 156.99 157.585 158.212 158.833 158.96 145.111 
146.135 144.69 145.786 144.415 147.284 145.403 144.093 146.916 148.439 
144.947 143.65 146.327 147.907 149.563 144.593 143.327 145.858 147.171 
148.899 150.619 144.386 143.213 145.687 146.832 148.195 149.954 151.462 
144.201 143.192 145.48 146.752 147.941 149.349 150.824 152.117 144.093 
143.218 145.175 146.45 147.746 149.06 150.343 151.529 152.81 144.127 