# vtk DataFile Version 4.0
vtk output
ASCII
DATASET POLYDATA
POINTS 1002 float
-85.0925 -83.5806 73.9471 -85.1707 -82.9153 72.8272 -84.7791 -82.666 73.718 
-84.7156 -83.3773 74.9502 -84.336 -82.414 74.6764 -85.0223 -84.2976 75.2599 
-84.2977 -83.2206 75.9522 -83.8551 -82.2771 75.5869 -84.6246 -84.2153 76.3111 
-84.9465 -85.1875 76.7952 -83.851 -83.2443 76.9619 -83.3403 -82.369 76.581 
-84.1936 -84.2515 77.3821 -84.5028 -85.3038 77.8759 -84.9062 -86.3325 78.5086 
-83.3115 -83.4853 78.1015 -82.7911 -82.6008 77.7481 -83.7482 -84.465 78.5784 
-84.0653 -85.5377 79.0811 -84.4567 -86.612 79.6229 -84.8724 -87.6696 80.2091 
-82.7343 -83.7891 79.2626 -82.3363 -82.8626 78.9194 -83.1939 -84.7915 79.7687 
-83.6275 -85.9011 80.3666 -84.052 -86.9925 80.8796 -84.4346 -88.0951 81.3254 
-84.6937 -89.2836 81.7814 -82.288 -84.1278 80.3846 -81.979 -83.2305 80.0776 
-82.6329 -85.1371 80.7933 -83.0634 -86.3544 81.3878 -83.5987 -87.5481 82.0188 
-84.0392 -88.671 82.5142 -84.2691 -89.9248 82.9227 -84.4273 -91.2098 83.3246 
-81.8522 -84.5675 81.5834 -81.5401 -83.6685 81.3204 -82.201 -85.5579 81.878 
-82.5367 -86.844 82.2877 -83.0157 -88.2104 82.872 -83.5452 -89.4276 83.5079 
-83.8726 -90.6913 84.0621 -84.0492 -92.0237 84.5144 -84.2556 -93.1416 84.862 
-81.361 -84.9815 82.7223 -81.1024 -83.9973 82.5003 -81.808 -86.0238 83.0095 
-82.2063 -87.3419 83.3463 -82.5613 -88.837 83.7978 -82.9862 -90.1934 84.3887 
-83.3795 -91.4975 85.0083 -83.6538 -92.868 85.5604 -83.8922 -94.0611 85.9921 
-84.1441 -94.9357 86.263 -81.0766 -85.2786 83.6108 -80.9244 -84.2082 83.4531 
-81.5057 -86.4111 83.8986 -81.9819 -87.7764 84.2958 -82.3226 -89.3781 84.7834 
-82.59 -90.8805 85.3562 -82.8863 -92.2234 85.9136 -83.1846 -93.6306 86.3849 
-83.4613 -94.9678 86.8211 -83.7357 -96.0026 87.205 -83.9864 -96.8018 87.4514 
-84.9874 -82.0997 72.2746 -84.5153 -81.7829 73.1884 -84.7145 -81.2904 71.7209 
-84.1536 -80.9283 72.628 -84.3805 -80.4908 71.2268 -83.9458 -81.525 74.1178 
-83.74 -80.0657 72.1199 -84.1225 -79.4734 70.8706 -83.4556 -80.7088 73.5173 
-83.3605 -81.4468 75.0514 -83.4243 -78.9274 71.7973 -84.0342 -78.1831 70.736 
-82.9722 -79.79 73.0123 -82.855 -80.6264 74.5494 -82.8385 -81.5217 76.1966 
-83.3788 -77.6248 71.8169 -84.1186 -77.0585 70.9136 -82.6889 -78.5077 72.7886 
-82.4626 -79.5353 74.1883 -82.4636 -80.4915 75.8726 -82.3888 -81.6102 77.4846 
-83.6741 -76.6713 72.2573 -84.4379 -76.3401 71.4568 -82.8198 -77.2254 73.03 
-82.3034 -78.1637 74.1676 -82.199 -79.1935 75.6777 -82.136 -80.3591 77.2284 
-82.0382 -81.8176 78.7001 -84.2049 -76.098 72.9967 -84.9839 -75.7784 72.2632 
-83.342 -76.4375 73.7135 -82.5566 -77.054 74.6836 -82.0888 -77.9547 75.9213 
-81.9263 -79.0669 77.2011 -81.8501 -80.5789 78.5525 -81.7126 -82.255 79.9924 
-84.7714 -75.6253 73.8034 -85.5671 -75.291 73.1133 -83.9606 -75.9948 74.5678 
-83.1454 -76.4479 75.5621 -82.3647 -77.1403 76.6876 -81.8742 -78.092 77.7036 
-81.76 -79.4416 78.767 -81.6565 -81.1197 80.0846 -81.3586 -82.7037 81.4223 
-85.2759 -75.2742 74.5597 -86.0504 -75.0482 73.8913 -84.482 -75.649 75.3796 
-83.7537 -76.0903 76.4402 -82.9707 -76.6848 77.5763 -82.21 -77.4987 78.5092 
-81.8527 -78.634 79.3582 -81.7861 -80.1106 80.4516 -81.5321 -81.6383 81.6857 
-81.1212 -82.9927 82.717 -86.04 -75.1162 75.1205 -85.1859 -75.3444 75.9627 
-86.0599 -75.3368 76.6449 -85.1353 -75.5734 77.6982 -86.0906 -75.6803 78.363 
-84.3927 -75.7442 77.0555 -85.1861 -76.1032 79.3764 -86.1389 -76.3123 79.8482 
-84.393 -76.1234 78.8044 -83.7061 -76.3349 78.2361 -85.3755 -77.0927 80.6687 
-86.2933 -77.3314 81.0267 -84.5196 -76.9977 80.1861 -83.7347 -76.9715 79.7251 
-82.9067 -77.1347 79.2192 -85.6001 -78.2977 81.9241 -86.4535 -78.5419 82.2509 
-84.683 -78.1896 81.4574 -83.8092 -78.0207 81.003 -82.9456 -77.962 80.6004 
-82.2362 -78.1856 80.0726 -85.6747 -79.4466 83.3635 -86.4305 -79.8022 83.5292 
-84.7718 -79.2668 83.0323 -83.8793 -79.127 82.6099 -83.043 -79.0569 82.1707 
-82.3944 -79.202 81.7067 -82.0086 -79.5643 81.1232 -85.6507 -80.6586 84.6345 
-86.3247 -81.1018 84.6048 -84.8462 -80.3183 84.5415 -84.0399 -80.1721 84.2921 
-83.244 -80.2158 83.9 -82.5561 -80.3778 83.4244 -82.1203 -80.6191 82.9129 
-81.8035 -81.0269 82.3186 -85.7074 -81.998 85.5905 -86.3293 -82.377 85.483 
-85.0037 -81.615 85.6362 -84.3217 -81.419 85.5218 -83.6067 -81.4754 85.2517 
-82.8047 -81.6133 84.8714 -82.1593 -81.7009 84.4236 -81.7358 -81.8884 83.9054 
-81.3672 -82.3509 83.3069 -85.8534 -83.3419 86.4204 -86.4305 -83.5867 86.3027 
-85.2059 -83.0627 86.5003 -84.5842 -82.8956 86.4174 -83.9564 -82.9113 86.1998 
-83.1516 -82.9569 85.958 -82.3186 -82.9035 85.6589 -81.7586 -82.8952 85.2023 
-81.3844 -83.1448 84.6002 -81.0639 -83.6463 83.9769 -81.0987 -85.2144 84.3549 
-81.3084 -84.8123 84.9929 -81.5524 -86.6803 85.4566 -81.581 -84.4767 85.7751 
-81.7545 -86.5758 86.307 -81.8538 -88.6805 86.9891 -81.9203 -84.3379 86.4454 
-81.9352 -86.439 87.1661 -82.0267 -88.8051 87.8506 -81.8271 -91.0457 88.6895 
-82.591 -84.4318 86.7846 -82.2907 -86.3481 87.6907 -82.274 -88.7465 88.4214 
-82.1104 -91.0981 89.1817 -81.8742 -93.5191 90.0545 -83.4872 -84.5637 86.9117 
-83.0093 -86.4219 87.8191 -82.7694 -88.6337 88.6877 -82.5198 -90.9446 89.4474 
-82.2199 -93.3192 90.2829 -82.1375 -96.017 91.0513 -84.2364 -84.5521 87.1108 
-83.8057 -86.476 87.8897 -83.4601 -88.5833 88.8109 -83.0705 -90.7819 89.7853 
-82.5807 -93.0746 90.6769 -82.348 -95.7274 91.4096 -82.3536 -98.5887 91.9406 
-84.8734 -84.5241 87.3364 -84.4813 -86.3625 88.1265 -84.1237 -88.4317 88.9536 
-83.7065 -90.5964 90.0138 -83.0918 -92.8918 91.1247 -82.6336 -95.4945 91.9009 
-82.5394 -98.3643 92.3781 -82.4694 -101.126 92.7155 -85.5417 -84.6193 87.366 
-85.1452 -86.2563 88.295 -84.7405 -88.2041 89.106 -84.3336 -90.3216 90.0099 
-83.7703 -92.6192 91.1349 -83.199 -95.2225 92.0783 -82.9159 -98.0566 92.6173 
-82.7804 -100.868 92.9794 -82.521 -103.429 93.223 -86.1742 -84.7677 87.2315 
-85.8026 -86.2497 88.213 -85.3531 -88.0573 89.0869 -84.9096 -90.0965 89.8863 
-84.4307 -92.2986 90.8427 -83.9129 -94.7643 91.8445 -83.5098 -97.5057 92.5549 
-83.2231 -100.318 93.0032 -82.8939 -103.002 93.3306 -82.4899 -105.422 93.4503 
-81.3591 -86.4825 84.5686 -81.7123 -88.2042 85.8314 -81.7536 -87.9291 84.9794 
-81.6998 -90.5772 87.5924 -81.8088 -90.0931 86.3972 -82.0812 -89.7287 85.5593 
-81.5824 -93.4293 89.4187 -81.5713 -92.9808 88.2059 -81.9065 -92.3149 87.0842 
-82.2922 -91.5792 86.2579 -81.8555 -96.323 90.7174 -81.6306 -96.1216 89.8686 
-81.7482 -95.324 88.7301 -82.1317 -94.1947 87.8018 -82.5103 -93.1061 86.905 
-82.1924 -99.0568 91.5801 -82.0042 -99.0288 90.9815 -81.9722 -98.2931 90.1008 
-82.1698 -97.0569 89.1982 -82.4538 -95.729 88.2902 -82.7802 -94.5917 87.3027 
-82.2374 -101.695 92.3516 -82.0651 -101.805 91.7755 -82.0883 -101.281 91.0844 
-82.2861 -100.233 90.3564 -82.4854 -98.8801 89.4852 -82.6984 -97.4637 88.4822 
-83.0445 -96.1544 87.5917 -82.1651 -104.19 92.9591 -81.8653 -104.541 92.388 
-81.8236 -104.387 91.7097 -82.0747 -103.774 91.1427 -82.362 -102.635 90.5072 
-82.5757 -100.984 89.6106 -82.8813 -99.1618 88.7112 -83.3173 -97.4687 87.9752 
-82.1066 -106.419 93.2254 -81.7513 -107.058 92.6811 -81.5827 -107.264 91.9333 
-81.7288 -107.101 91.3343 -82.0564 -106.39 90.9523 -82.3721 -104.837 90.4603 
-82.7143 -102.692 89.7759 -83.1551 -100.484 89.0835 -83.6124 -98.4887 88.3507 
-82.1882 -108.039 93.3111 -81.8034 -109.143 92.8186 -81.9515 -110.614 92.7474 
-81.5382 -111.834 92.0225 -81.7734 -112.793 91.9269 -81.5259 -109.802 92.0218 
-81.2251 -114.301 91.1526 -81.6643 -114.6 91.0741 -81.3047 -112.574 91.0828 
-81.493 -110.006 91.1647 -81.0945 -116.389 90.2882 -81.9319 -116.073 90.2375 
-80.9826 -115.156 90.1822 -81.3698 -112.617 90.1999 -81.7378 -109.67 90.6644 
-81.6098 -117.434 89.3191 -82.6594 -116.557 89.5228 -80.9561 -116.943 89.2678 
-81.1532 -114.667 89.3087 -81.7351 -111.6 89.8319 -82.1361 -108.368 90.4992 
-82.5625 -116.933 88.5009 -83.439 -115.711 89.0498 -81.589 -117.125 88.3405 
-81.2116 -115.528 88.5187 -81.6986 -112.62 89.0924 -82.3394 -109.446 89.9522 
-82.6162 -106.118 90.2923 -83.4129 -115.493 88.1412 -84.1201 -114.191 88.7713 
-82.5245 -115.997 87.826 -81.7972 -115.001 87.9882 -81.8507 -112.625 88.5659 
-82.542 -109.8 89.4504 -83.0427 -106.806 90.0758 -83.1414 -103.551 89.8772 
-84.1609 -113.704 88.1906 -84.8783 -112.498 88.6629 -83.3843 -114.307 87.9135 
-82.6948 -113.674 87.9824 -82.4445 -111.772 88.3981 -82.8295 -109.423 89.0956 
-83.3785 -106.981 89.7419 -83.6057 -104.104 89.8004 -83.6141 -101.053 89.2061 
-84.9797 -111.503 88.4222 -85.6874 -110.552 88.7038 -84.2171 -112.054 88.2957 
-83.6207 -111.733 88.3487 -83.3477 -110.316 88.5712 -83.4359 -108.341 88.9718 
-83.7124 -106.364 89.3977 -83.9035 -104.092 89.4643 -83.9639 -101.362 89.0037 
-83.988 -98.7761 88.2455 -82.7264 -105.742 93.5841 -82.4999 -108.435 93.4326 
-83.1352 -105.763 93.8072 -83.1116 -108.445 93.6531 -83.7607 -105.382 94.0051 
-82.4466 -110.783 92.8242 -83.878 -107.979 93.7921 -84.3879 -104.371 93.7764 
-83.2712 -110.437 93.0226 -82.4837 -112.425 91.932 -84.4667 -106.678 93.548 
-84.9173 -102.698 93.2049 -84.0258 -109.642 93.2007 -83.4041 -111.605 92.0868 
-82.6045 -113.808 91.0194 -85.0495 -104.56 93.1846 -85.5932 -100.974 92.8675 
-84.5638 -107.997 93.1263 -84.0756 -110.437 92.2983 -83.5345 -112.681 91.1787 
-83.0054 -114.994 90.3394 -85.8681 -102.502 93.0111 -86.4028 -99.6771 92.6353 
-85.2608 -105.674 92.96 -84.651 -108.447 92.3325 -84.1639 -110.961 91.3849 
-83.8129 -113.364 90.6496 -83.5776 -115.008 89.9717 -86.6552 -100.853 92.6248 
-87.1211 -98.4049 91.9649 -86.049 -103.56 92.758 -85.3761 -106.093 92.2958 
-84.8124 -108.481 91.4918 -84.4452 -110.9 90.8425 -84.2473 -112.774 90.3795 
-84.1739 -113.762 89.6651 -87.366 -99.0757 91.8012 -87.8307 -96.7965 91.0025 
-86.7396 -101.622 92.24 -86.0761 -104.01 92.162 -85.5703 -106.099 91.6567 
-85.2423 -108.182 91.0369 -85.0205 -110.102 90.5648 -84.9253 -111.415 90.0577 
-84.9245 -112.17 89.332 -88.2197 -97.0979 90.9 -88.6474 -95.1576 90.1817 
-87.5777 -99.4266 91.4552 -86.8561 -101.814 91.7131 -86.3445 -103.922 91.6569 
[...]
CELL_DATA 2000
SCALARS Distance double
LOOKUP_TABLE default
138.74 138.859 139.113 139.758 138.994 139.269 139.975 140.21 140.944 
139.228 139.472 140.253 140.481 141.281 141.51 142.383 139.624 139.816 
140.674 140.867 141.75 141.936 142.865 143.084 144.053 140.117 140.278 
141.162 141.367 142.324 142.514 143.499 143.664 144.659 144.829 145.807 
140.707 140.81 141.666 141.857 142.824 143.087 144.132 144.354 145.385 
145.525 146.534 146.646 147.643 141.393 141.45 142.291 142.403 143.347 
143.577 144.652 144.944 146.048 146.267 147.332 147.46 148.512 148.584 
149.597 142.043 142.122 142.959 143.071 144.023 144.186 145.272 145.508 
146.661 146.909 148.042 148.247 149.351 149.489 150.542 150.579 151.521 
142.619 142.712 143.532 143.701 144.673 144.883 145.987 146.212 147.377 
147.589 148.736 148.941 150.054 150.26 151.328 151.471 152.441 152.454 
153.312 138.133 137.205 137.839 138.192 136.241 136.866 137.177 137.869 
138.261 135.272 135.871 136.128 136.81 137.183 137.942 138.431 134.321 
134.87 135.074 135.733 136.097 136.865 137.384 138.191 138.796 133.604 
133.976 134.125 134.675 135.025 135.788 136.34 137.167 137.804 138.626 
139.292 133.42 133.508 133.649 133.893 134.2 134.783 135.341 136.136 
136.788 137.628 138.327 139.169 139.89 133.733 133.627 133.823 133.756 
134.04 134.239 134.76 135.28 135.938 136.652 137.386 138.22 139.024 
139.852 140.612 134.245 134.089 134.334 134.173 134.49 134.423 134.905 
135.043 135.666 136.04 136.793 137.424 138.31 139.075 139.937 140.645 
141.348 134.805 134.628 134.88 134.742 135.104 135.012 135.498 135.459 
136.021 136.09 136.776 137.104 137.993 138.568 139.503 140.106 140.871 
141.404 142.007 135.237 136.049 135.49 135.311 137.12 136.423 136.229 
135.676 135.608 138.34 137.592 137.409 136.742 136.692 136.11 136.092 
139.653 138.889 138.749 138.016 137.948 137.29 137.256 136.64 136.608 
141.089 140.303 140.218 139.428 139.348 138.601 138.544 137.857 137.851 
137.218 137.317 142.554 141.802 141.75 140.952 140.895 140.081 140.055 
139.265 139.342 138.615 138.833 138.167 138.516 143.921 143.245 143.224 
142.481 142.474 141.686 141.732 140.915 141.05 140.267 140.526 139.819 
140.168 139.531 139.943 145.204 144.586 144.623 143.937 143.993 143.273 
143.387 142.635 142.78 142.012 142.186 141.483 141.706 141.098 141.361 
140.843 141.168 146.462 145.884 145.993 145.35 145.463 144.792 144.944 
144.259 144.41 143.683 143.788 143.058 143.168 142.519 142.683 142.133 
142.358 141.912 142.217 142.965 143.153 143.454 144.427 143.518 143.763 
144.833 145.197 146.448 144.025 144.211 145.316 145.693 147.031 147.423 
148.789 144.66 144.788 145.847 146.189 147.503 147.968 149.318 149.747 
151.096 145.3 145.446 146.45 146.724 147.949 148.386 149.68 150.146 
151.415 151.937 153.305 145.831 146.036 147.021 147.289 148.437 148.822 
150.076 150.496 151.737 152.19 153.51 154.104 155.532 146.32 146.536 
147.512 147.793 148.883 149.258 150.463 150.896 152.137 152.559 153.844 
154.342 155.749 156.345 157.741 146.801 147.016 147.963 148.243 149.273 
149.631 150.745 151.201 152.391 152.896 154.136 154.664 155.976 156.563 
157.91 158.492 159.717 147.222 147.453 148.345 148.641 149.601 149.952 
150.965 151.399 152.487 153.024 154.193 154.801 156.022 156.669 157.903 
158.557 159.726 160.305 161.314 143.216 144.683 143.96 144.184 146.67 
145.673 145.866 145.099 145.419 149.033 147.888 148.047 147.022 147.342 
146.507 146.864 151.518 150.412 150.663 149.443 149.734 148.658 149.02 
148.062 148.349 153.939 152.993 153.447 152.223 152.509 151.239 151.511 
150.368 150.604 149.544 149.718 156.226 155.432 156.021 154.981 155.293 
154.043 154.204 152.94 153.065 151.873 151.976 150.881 151.012 158.381 
157.679 158.274 157.409 157.765 156.687 156.87 155.635 155.73 154.423 
154.465 153.21 153.271 152.168 152.277 160.312 159.728 160.29 159.537 
159.92 159.012 159.314 158.248 158.475 157.19 157.258 155.839 155.822 
154.508 154.524 153.396 153.416 161.893 161.479 162.029 161.423 161.798 
161.046 161.381 160.556 160.888 159.871 160.023 158.694 158.63 157.176 
157.072 155.733 155.653 154.464 154.347 162.85 164.231 163.426 163.02 
165.367 164.723 164.338 163.439 162.823 166.257 165.784 165.504 164.7 
164.125 163.147 162.456 167.025 166.67 166.526 165.832 165.299 164.396 
163.738 162.778 162.033 167.511 167.355 167.227 166.753 166.19 165.431 
164.68 163.892 163.122 162.226 161.232 167.359 167.505 167.255 167.132 
166.484 166.016 165.111 164.535 163.665 163.042 162.058 161.144 159.872 
166.671 166.994 166.695 166.808 166.146 165.945 164.99 164.625 163.71 
163.326 162.434 161.788 160.621 159.617 158.272 165.838 166.181 165.933 
166.123 165.558 165.468 164.587 164.312 163.416 163.178 162.389 162.026 
161.023 160.262 158.959 157.972 156.693 164.956 165.314 165.036 165.312 
164.801 164.858 164.064 163.884 162.986 162.794 161.988 161.819 160.903 
160.468 159.22 158.47 157.114 156.323 155.167 162.875 163.286 163.527 
164.306 163.609 163.95 164.747 164.862 165.43 163.572 164.211 165.043 
165.239 165.695 165.771 166.18 162.821 163.884 164.853 165.374 165.774 
165.9 166.176 166.38 166.812 161.721 162.862 163.921 164.848 165.369 
165.775 165.994 166.27 166.651 166.988 167.358 160.921 161.809 162.761 
163.73 164.34 165.052 165.312 165.85 166.158 166.683 167.001 167.337 
167.343 160.214 161.038 161.809 162.643 163.185 163.913 164.17 164.858 
165.09 165.852 166.089 166.711 166.685 166.98 166.671 159.176 160.104 
160.752 161.632 162.105 162.823 163.075 163.693 163.89 164.597 164.82 
165.548 165.602 166.116 165.907 166.167 165.822 158.041 158.908 159.484 
160.401 160.86 161.683 161.988 162.66 162.898 163.508 163.756 164.36 
164.525 165.039 165.002 165.357 165.141 165.346 165.003 147.7 148.797 
148.438 148.852 149.936 149.586 150.045 149.671 150.124 151.09 150.762 
151.286 150.919 151.441 151.02 151.51 152.32 152 152.665 152.28 
152.927 152.455 153.039 152.514 153.058 153.606 153.343 154.182 153.824 
154.629 154.118 154.805 154.197 154.806 154.192 154.791 154.752 154.641 
155.567 155.371 156.23 155.847 156.552 156.021 156.648 156.041 156.665 
156.03 156.653 155.681 155.7 156.637 156.616 157.421 157.232 157.864 
157.566 158.201 157.813 158.486 157.945 158.6 157.943 158.546 156.519 
156.574 157.532 157.577 158.391 158.256 158.879 158.675 159.404 159.226 
160.095 159.743 160.515 159.912 160.534 159.823 160.35 157.327 157.396 
158.378 158.46 159.368 159.255 159.983 159.743 160.591 160.456 161.544 
161.359 162.325 161.832 162.478 161.781 162.249 161.527 161.912 147.218 
146.847 147.439 148.28 146.52 147.082 147.935 148.542 149.408 146.276 
146.787 147.623 148.209 149.088 149.681 150.537 146.057 146.558 147.356 
147.91 148.781 149.373 150.25 150.821 151.694 145.729 146.283 147.05 
147.623 148.47 149.074 149.987 150.571 151.456 152.008 152.896 145.306 
145.875 146.617 147.238 148.04 148.699 149.59 150.274 151.193 151.791 
152.621 153.175 153.996 144.964 145.457 146.175 146.766 147.526 148.178 
148.972 149.725 150.613 151.397 152.254 152.881 153.613 154.174 154.913 
144.766 145.177 145.873 146.379 147.131 147.687 148.416 149.049 149.833 
150.644 151.535 152.361 153.175 153.8 154.49 155.042 155.756 144.607 
144.998 145.655 146.119 146.861 147.368 148.104 148.596 149.3 149.905 
150.719 151.538 152.441 153.252 154.048 154.661 155.345 155.888 156.583 
144.679 145.109 145.18 145.764 145.613 145.677 146.363 146.38 147.012 
146.245 146.273 147.027 147.053 147.773 147.715 148.3 146.968 146.988 
147.791 147.801 148.585 148.531 149.166 148.992 149.5 147.697 147.758 
148.639 148.651 149.478 149.401 150.063 149.881 150.421 150.213 150.827 
148.4 148.5 149.452 149.53 150.399 150.334 150.975 150.78 151.321 
151.143 151.81 151.701 152.497 149.138 149.215 150.148 150.285 151.176 
151.212 151.873 151.7 152.232 152.048 152.754 152.694 153.55 153.461 
154.202 149.937 149.959 150.786 150.898 151.746 151.886 152.651 152.602 
153.236 153.04 153.776 153.675 154.574 154.51 155.294 155.075 155.605 
150.667 150.691 151.384 151.457 152.211 152.387 153.241 153.363 154.178 
154.1 154.883 154.755 155.611 155.531 156.324 156.152 156.726 156.398 
156.832 151.208 152.124 151.75 151.902 153.368 152.799 153.065 152.542 
152.778 155.225 154.407 154.766 153.992 154.329 153.638 153.924 157.129 
156.417 156.759 155.925 156.22 155.397 155.656 154.874 155.005 158.637 
158.153 158.521 157.837 158.034 157.25 157.379 156.608 156.688 155.868 
155.823 160.178 159.672 160.23 159.561 159.863 159.019 159.112 158.256 
158.295 157.499 157.493 156.639 156.554 161.914 161.389 162.05 161.397 
161.841 160.976 161.141 160.122 160.127 159.156 159.133 158.267 158.191 
157.333 157.183 163.398 163.036 163.569 163.108 163.453 162.84 162.957 
162.123 162.041 161.065 160.921 159.96 159.81 158.908 158.694 157.829 
157.543 164.422 164.222 164.599 164.308 164.495 164.103 164.097 163.564 
163.388 162.7 162.457 161.655 161.423 160.539 160.279 159.338 159 
158.073 157.688 150.914 150.68 151.15 151.818 150.389 150.89 151.627 
152.086 152.96 150.113 150.628 151.458 151.956 152.975 153.521 154.746 
149.825 150.391 151.334 151.885 153.018 153.61 154.883 155.473 156.664 
149.537 150.138 151.15 151.779 152.918 153.606 154.809 155.494 156.583 
157.164 158.112 149.271 149.876 150.851 151.523 152.552 153.318 154.387 
155.191 156.2 156.908 157.857 158.481 159.513 148.939 149.557 150.427 
151.116 152.017 152.781 153.747 154.588 155.604 156.413 157.449 158.186 
159.322 160.025 161.216 148.535 149.13 149.919 150.599 151.456 152.186 
153.129 153.927 154.973 155.81 156.917 157.748 158.929 159.767 160.993 
161.74 162.8 148.18 148.7 149.458 150.082 150.956 151.65 152.612 
153.361 154.394 155.208 156.285 157.157 158.287 159.228 160.417 161.346 
162.439 163.147 163.946 150.145 148.634 149.585 149.884 147.145 148.002 
148.381 149.313 149.609 146.136 146.694 146.994 147.825 148.221 149.073 
149.338 145.243 145.781 145.91 146.566 146.86 147.685 147.969 148.771 
148.979 143.992 144.702 144.75 145.42 145.525 146.31 146.497 147.332 
147.507 148.352 148.597 142.669 143.372 143.464 144.132 144.177 144.899 
145.005 145.819 145.981 146.835 147.077 147.994 148.328 141.477 142.132 
142.261 142.89 142.96 143.578 143.652 144.356 144.513 145.325 145.585 
146.483 146.832 147.76 148.085 140.24 140.909 140.988 141.685 141.75 
142.395 142.427 143.065 143.146 143.889 144.112 144.996 145.349 146.287 
146.647 147.517 147.777 139.014 139.613 139.632 140.337 140.403 141.119 
141.158 141.821 141.847 142.534 142.675 143.51 143.837 144.792 145.196 
146.113 146.446 147.239 147.478 138.391 137.769 138.333 138.975 137.389 
137.842 138.447 139.017 139.74 137.024 137.516 138.1 138.578 139.215 
139.806 140.51 136.584 137.102 137.707 138.213 138.801 139.325 139.962 
140.556 141.23 136.476 136.782 137.427 137.833 138.483 138.945 139.615 
140.108 140.82 141.348 142.106 136.89 136.968 137.656 137.809 138.536 
138.804 139.589 139.938 140.753 141.142 141.999 142.436 143.331 137.454 
137.514 138.216 138.28 139.029 139.132 139.947 140.137 141.004 141.272 
142.177 142.516 143.458 143.837 144.746 137.93 138.02 138.683 138.82 
139.544 139.689 140.455 140.611 141.419 141.623 142.486 142.772 143.685 
144.031 144.92 145.256 146.038 138.405 138.451 139.048 139.19 139.861 
140.077 140.802 141.036 141.794 142.022 142.825 143.085 143.946 144.259 
145.114 145.428 146.186 146.46 147.107 138.896 139.892 139.403 139.51 
141.088 140.487 140.576 140.088 140.297 142.562 141.833 141.926 141.269 
141.45 140.965 141.255 144.248 143.457 143.574 142.772 142.917 142.251 
142.522 142.011 142.317 145.989 145.206 145.354 144.513 144.629 143.835 
144.062 143.415 143.734 143.146 143.427 147.811 146.996 147.196 146.338 
146.463 145.596 145.766 145.026 145.321 144.675 144.979 144.318 144.577 
149.729 148.884 149.121 148.249 148.422 147.495 147.627 146.765 146.984 
146.28 146.567 145.912 146.16 145.485 145.709 151.602 150.792 151 
150.174 150.362 149.482 149.607 148.679 148.802 147.969 148.181 147.483 
147.709 147.041 147.214 146.556 146.719 153.396 152.62 152.805 151.995 
152.155 151.347 151.474 150.614 150.69 149.807 149.918 149.124 149.302 
148.585 148.733 148.031 148.129 147.476 147.59 148.25 148.857 148.864 
149.553 149.557 149.581 150.359 150.323 151.102 150.209 150.315 151.196 
151.214 152.07 151.993 152.81 150.878 150.992 151.941 152.039 152.97 
152.982 153.861 153.765 154.601 151.671 151.748 152.76 152.839 153.865 
153.898 154.879 154.829 155.751 155.617 156.488 152.478 152.599 153.716 
153.8 154.993 154.979 156.142 156.008 157.083 156.874 157.872 157.619 
158.547 153.224 153.419 154.687 154.863 156.253 156.299 157.647 157.503 
158.729 158.441 159.558 159.196 160.228 159.83 160.761 153.941 154.201 
155.6 155.891 157.419 157.605 159.009 159.005 160.219 160.086 161.199 
160.956 161.978 161.609 162.507 162.055 162.805 154.538 154.899 156.317 
156.76 158.304 158.673 160.021 160.172 161.221 161.274 162.232 162.291 
163.226 163.154 163.936 163.657 164.245 163.845 164.276 134.694 134.064 
134.335 134.32 133.49 133.665 133.519 133.903 133.989 133.189 133.153 
132.906 133.098 133.116 133.624 133.896 133.422 133.096 132.839 132.685 
132.668 132.907 133.246 133.727 134.169 134.145 133.618 133.377 132.924 
132.867 132.765 133.109 133.351 133.884 134.22 134.752 135.076 134.498 
134.262 133.668 133.526 133.178 133.407 133.439 133.946 134.148 134.688 
134.955 135.539 136.038 135.472 135.285 134.654 134.478 133.944 134.023 
133.833 134.251 134.333 134.863 135.017 135.548 135.803 136.388 136.998 
136.456 136.351 135.747 135.641 135.004 135.01 134.562 134.871 134.75 
135.291 135.323 135.86 135.932 136.442 136.643 137.184 137.928 137.427 
137.384 136.851 136.832 136.226 136.225 135.645 135.818 135.491 135.951 
135.872 136.427 136.383 136.854 136.841 137.304 137.446 137.969 135.072 
134.776 135.17 135.713 134.571 134.942 135.526 135.904 136.54 134.507 
134.816 135.44 135.779 136.413 136.796 137.487 134.657 134.826 135.412 
135.716 136.358 136.716 137.401 137.79 138.485 135.155 135.111 135.636 
135.767 136.404 136.691 137.4 137.753 138.45 138.793 139.444 135.966 
135.786 136.306 136.2 136.791 136.864 137.566 137.816 138.543 138.824 
139.491 139.767 140.428 136.822 136.665 137.18 137.002 137.491 137.386 
137.96 138.067 138.765 138.992 139.692 139.91 140.595 140.837 141.55 
137.578 137.472 137.96 137.826 138.238 138.081 138.514 138.497 139.096 
139.257 139.949 140.157 140.841 141.061 141.757 142.005 142.689 138.326 
138.196 138.674 138.544 138.959 138.788 139.199 139.083 139.629 139.659 
140.31 140.439 141.083 141.277 141.915 142.176 142.819 143.084 143.673 
135.417 136.099 135.9 136.279 136.963 136.712 137.155 136.921 137.387 
137.915 137.647 138.126 137.885 138.369 138.106 138.586 138.883 138.617 
139.075 138.853 139.336 139.093 139.545 139.301 139.819 139.821 139.569 
140.015 139.788 140.263 140.032 140.497 140.252 140.758 140.57 141.19 
140.804 140.521 141.007 140.753 141.264 141 141.506 141.233 141.762 
141.531 142.138 141.985 142.637 141.91 141.573 142.072 141.789 142.336 
142.064 142.615 142.32 142.863 142.578 143.148 142.937 143.545 143.397 
143.991 143.018 142.694 143.14 142.855 143.362 143.126 143.682 143.441 
143.991 143.708 144.231 143.957 144.491 144.29 144.846 144.695 145.244 
143.984 143.724 144.115 143.855 144.292 144.085 144.605 144.438 144.993 
144.786 145.297 145.026 145.505 145.244 145.749 145.552 146.089 145.931 
146.47 149.973 149.147 149.207 148.428 148.304 148.334 147.594 147.627 
146.977 147.56 147.54 146.871 146.896 146.377 146.425 146.035 146.877 
146.84 146.164 146.215 145.71 145.848 145.445 145.584 145.147 146.187 
146.157 145.429 145.474 144.87 145.055 144.536 144.787 144.228 144.448 
143.835 145.486 145.448 144.693 144.705 144.047 144.167 143.597 143.78 
143.182 143.377 142.76 142.996 142.451 144.88 144.781 144.022 143.972 
143.307 143.371 142.822 142.928 142.36 142.431 141.831 141.964 141.452 
141.702 141.265 144.443 144.278 143.547 143.39 142.713 142.68 142.11 
142.189 141.618 141.683 141.061 141.138 140.591 140.772 140.324 140.567 
140.11 144.093 143.927 143.242 143.028 142.344 142.186 141.563 141.521 
140.911 140.93 140.299 140.365 139.811 139.961 139.521 139.703 139.272 
139.435 138.966 
POINT_DATA 1002
SCALARS Distance double
LOOKUP_TABLE default
139.338 138.402 138.483 139.521 138.575 140.418 139.714 138.695 140.693 
141.725 140.01 138.982 141.039 142.116 143.312 140.459 139.435 141.558 
142.658 143.826 145.024 140.944 139.974 142.087 143.331 144.513 145.642 
146.76 141.515 140.635 142.542 143.847 145.221 146.424 147.54 148.634 
142.204 141.346 143.157 144.347 145.767 147.158 148.419 149.584 150.578 
142.821 141.967 143.856 145.059 146.413 147.806 149.168 150.47 151.578 
152.409 143.35 142.542 144.428 145.737 147.168 148.553 149.853 151.147 
152.371 153.379 154.152 137.517 137.52 136.581 136.499 135.646 137.516 
135.471 134.703 136.417 137.619 134.44 133.826 135.314 136.562 137.975 
133.667 133.323 134.274 135.491 136.97 138.471 133.54 133.401 133.745 
134.589 135.951 137.449 139.065 133.944 133.858 133.99 134.391 135.307 
136.563 138.151 139.86 134.471 134.411 134.591 134.894 135.439 136.257 
137.564 139.22 140.735 135.006 135.004 135.17 135.556 136.051 136.58 
137.495 138.925 140.368 141.515 135.706 135.762 136.683 136.828 137.853 
136.102 138.101 139.069 137.301 136.676 139.498 140.394 138.65 137.897 
137.199 141.02 141.858 140.139 139.26 138.479 137.879 142.532 143.277 
141.702 140.849 140.061 139.491 139.132 143.931 144.559 143.212 142.511 
141.841 141.253 140.837 140.54 145.271 145.786 144.672 144.097 143.555 
142.946 142.362 141.922 141.627 146.598 147.004 146.112 145.609 145.128 
144.55 143.868 143.276 142.853 142.598 143.756 144.011 145.517 144.428 
146.065 147.767 144.934 146.591 148.441 150.165 145.566 147.046 148.878 
150.639 152.49 146.224 147.565 149.241 150.926 152.687 154.744 146.761 
148.084 149.665 151.327 152.964 154.887 156.971 147.242 148.539 150.029 
151.699 153.392 155.184 157.183 159.075 147.697 148.953 150.33 151.879 
153.601 155.422 157.329 159.225 160.858 148.067 149.275 150.578 151.992 
153.597 155.388 157.265 159.123 160.838 162.253 144.776 146.73 146.095 
149.172 148.245 147.691 151.907 150.92 150.045 149.331 154.59 153.853 
152.761 151.733 150.754 156.971 156.509 155.522 154.333 153.136 152.042 
159.105 158.755 158.037 157.057 155.808 154.459 153.319 161.013 160.76 
160.253 159.662 158.716 157.261 155.755 154.504 162.578 162.508 162.136 
161.765 161.249 160.119 158.522 156.949 155.515 163.726 163.983 164.993 
165.203 165.913 163.837 166.246 166.621 165.071 163.48 167.151 167.311 
166.188 164.649 163.1 167.609 167.619 166.924 165.465 163.939 162.341 
167.292 167.169 166.866 165.666 164.213 162.859 160.986 166.527 166.32 
166.269 165.307 164.009 162.923 161.535 159.354 165.701 165.497 165.577 
164.835 163.634 162.622 161.637 159.909 157.622 164.75 164.628 164.665 
164.173 163.199 162.142 161.214 159.869 157.89 155.837 162.656 164.21 
163.004 164.647 163.19 165.394 164.808 162.734 165.685 166.017 164.125 
161.619 165.638 166.009 166.512 162.859 160.698 164.792 165.686 166.298 
167.151 161.884 160.19 163.554 164.687 165.575 166.611 167.247 161.049 
159.41 162.503 163.51 164.325 165.38 166.284 166.532 159.861 158.265 
161.355 162.466 163.257 164.099 164.991 165.541 165.657 158.605 157.26 
159.996 161.239 162.267 163.179 163.999 164.593 164.882 164.892 148.031 
149.218 149.145 150.399 150.267 150.524 151.624 151.384 151.841 151.965 
152.997 152.583 153.381 153.567 153.59 154.456 153.785 155.1 155.414 
155.441 155.395 155.691 154.791 156.565 157.033 157.215 157.294 157.314 
156.628 155.636 157.6 158.106 158.459 158.938 159.236 159.258 157.467 
156.463 158.511 159.07 159.469 160.294 161.067 161.253 161.099 146.622 
147.666 146.258 147.327 145.979 148.818 147.059 145.794 148.487 149.964 
146.825 145.557 148.188 149.674 151.119 146.47 145.165 147.86 149.367 
150.926 152.327 145.995 144.762 147.39 148.874 150.534 152.124 153.42 
145.617 144.515 146.917 148.274 149.774 151.539 153.106 154.321 145.402 
144.384 146.605 147.874 149.104 150.627 152.447 153.98 155.177 145.211 
144.23 146.355 147.628 148.813 149.989 151.548 153.338 154.832 156.031 