# vtk DataFile Version 4.0
vtk output
ASCII
DATASET POLYDATA
POINTS 1002 float
-84.019 -77.5189 68.6194 -83.8967 -77.0512 67.3122 -83.4167 -76.636 68.1885 
-83.4616 -77.2742 69.4463 -82.8294 -76.2976 68.98 -84.0859 -78.2154 70.0937 
-82.8586 -77.1718 70.3126 -82.2176 -76.1465 69.832 -83.5674 -78.2006 71.0456 
-84.1675 -79.1837 71.8872 -82.3146 -77.1887 71.4245 -81.6795 -76.1197 71.0486 
-83.0687 -78.2228 72.1814 -83.7455 -79.2444 73.0556 -84.168 -80.3564 73.8694 
-81.9178 -77.1539 72.7607 -81.3338 -75.9578 72.4421 -82.5929 -78.2503 73.4639 
-83.2851 -79.2783 74.3026 -83.7158 -80.5311 75.0843 -84.0037 -81.8543 75.8456 
-81.7384 -76.9718 74.1048 -81.2075 -75.7553 73.7154 -82.2106 -78.2629 74.7471 
-82.7617 -79.4529 75.493 -83.1689 -80.8545 76.2324 -83.4365 -82.3916 77.0396 
-83.8398 -83.5905 77.8949 -81.5941 -76.9965 75.5606 -81.0535 -75.9282 75.0967 
-81.9923 -78.3456 76.1643 -82.3425 -79.7753 76.7879 -82.6501 -81.35 77.4284 
-82.8509 -83.0383 78.2177 -83.206 -84.3428 79.134 -83.7435 -85.2065 79.9736 
-81.2055 -77.4275 77.0738 -80.724 -76.4051 76.6029 -81.729 -78.7125 77.6856 
-82.0869 -80.2047 78.3151 -82.3107 -81.8395 78.911 -82.4457 -83.5738 79.5931 
-82.6612 -85.0389 80.4032 -83.1031 -86.0496 81.2034 -83.5637 -86.9351 81.8633 
-80.7352 -77.8996 78.2749 -80.4579 -76.7976 77.8902 -81.2992 -79.2054 78.8669 
-81.8036 -80.7109 79.6294 -82.0544 -82.3463 80.4032 -82.1745 -84.0634 81.1264 
-82.3318 -85.6753 81.8279 -82.6097 -86.986 82.4652 -82.9549 -88.1043 83.021 
-83.2087 -89.2095 83.4961 -80.5318 -78.2208 79.2217 -80.4667 -77.072 78.9552 
-80.9355 -79.569 79.718 -81.4468 -81.1212 80.5245 -81.7403 -82.8487 81.484 
-81.8484 -84.6757 82.3848 -82.0189 -86.4458 83.1751 -82.2625 -88.022 83.7902 
-82.468 -89.4174 84.2064 -82.6123 -90.6978 84.5486 -82.704 -91.838 84.8697 
-83.4082 -76.3271 66.5742 -82.9208 -75.8236 67.5676 -82.813 -75.4916 65.8322 
-82.339 -74.8776 66.879 -82.2001 -74.4508 65.1697 -82.3464 -75.3827 68.4178 
-81.7657 -73.6427 66.2008 -81.7072 -73.1236 64.7621 -81.8277 -74.3539 67.8014 
-81.7134 -75.1765 69.432 -81.3686 -72.1866 65.8471 -81.4159 -71.7159 64.7162 
-81.4153 -73.0035 67.2405 -81.228 -74.0824 69.1318 -81.0888 -75.0611 70.9444 
-81.2285 -70.8548 65.9731 -81.4292 -70.4715 64.9271 -81.303 -71.4521 67.0797 
-81.0448 -72.6052 68.91 -80.5852 -73.8459 70.9741 -80.6812 -74.8154 72.4283 
-81.4112 -69.6144 66.3493 -81.9129 -69.31 65.2533 -81.3844 -70.0399 67.4127 
-81.2635 -70.9408 68.9249 -80.6166 -72.2871 70.9193 -80.2472 -73.5864 72.469 
-80.5979 -74.7365 73.631 -82.0182 -68.3171 66.8325 -82.7629 -68.3232 65.7476 
-81.5967 -68.7032 68.0235 -81.4612 -69.5216 69.3089 -81.0531 -70.7174 70.9175 
-80.4904 -72.1274 72.468 -80.3969 -73.6226 73.6932 -80.6034 -75.0662 75.0588 
-82.86 -67.4433 67.5162 -83.5602 -67.9151 66.4975 -82.1346 -67.541 68.7911 
-81.6314 -68.3749 70.0318 -81.3223 -69.572 71.2729 -81.0117 -70.8072 72.639 
-80.8074 -72.28 73.951 -80.7105 -73.9694 75.2624 -80.5636 -75.4993 76.6556 
-83.5527 -67.4385 68.3711 -84.0566 -68.1579 67.4142 -82.8914 -67.0901 69.6338 
-82.1506 -67.6098 70.9034 -81.5916 -68.7983 71.9939 -81.3264 -69.9708 73.1427 
-81.2604 -71.1436 74.4371 -81.1771 -72.708 75.7066 -80.916 -74.3923 76.9207 
-80.603 -75.8193 78.0304 -84.134 -68.3235 68.9665 -83.7017 -67.6294 70.1591 
-84.2983 -68.7037 70.6914 -83.9069 -68.2118 72.0491 -84.6202 -69.1048 72.5712 
-83.0826 -67.4582 71.5398 -84.2097 -68.9086 74.0462 -85.0329 -69.4653 74.6786 
-83.3585 -68.307 73.4559 -82.3318 -68.2465 72.7694 -84.5356 -69.5832 76.1901 
-85.3822 -69.9826 76.7453 -83.6805 -69.2377 75.4765 -82.6493 -69.1606 74.7135 
-81.7535 -69.4524 73.8955 -84.8131 -70.4383 78.0926 -85.6052 -70.9247 78.3394 
-83.9678 -70.1432 77.5024 -82.9833 -70.0841 76.7437 -82.0507 -70.2316 75.9836 
-81.541 -70.5426 75.1903 -85.0542 -71.7059 79.4947 -85.8027 -72.2659 79.5634 
-84.2306 -71.3047 79.1543 -83.2961 -71.1872 78.5628 -82.3495 -71.2877 77.9474 
-81.752 -71.4904 77.2896 -81.4999 -71.9193 76.4971 -85.2798 -73.2513 80.6987 
-86.0487 -73.7018 80.7572 -84.4442 -72.8545 80.4923 -83.5928 -72.6744 80.0836 
-82.6903 -72.7366 79.6173 -81.9323 -72.8964 79.1059 -81.5592 -73.1367 78.4204 
-81.3027 -73.64 77.6318 -85.4799 -74.7868 81.9179 -86.2683 -75.0713 81.9462 
-84.6018 -74.5281 81.7863 -83.8092 -74.3879 81.4966 -83.0484 -74.3948 81.1463 
-82.2265 -74.4738 80.7734 -81.616 -74.5702 80.2071 -81.2973 -74.7762 79.4318 
-80.9646 -75.2184 78.6563 -85.6393 -76.2445 83.05 -86.3822 -76.426 83.0039 
-84.7805 -76.098 83.0112 -84.0122 -76.0491 82.8085 -83.3671 -76.0703 82.5037 
-82.6172 -76.068 82.2445 -81.8408 -76.0507 81.9216 -81.3609 -76.0936 81.3001 
-81.0692 -76.2655 80.4356 -80.7309 -76.6107 79.5935 -80.6374 -78.2312 80.274 
-80.9053 -77.9981 81.2281 -80.9024 -80.0169 82.0865 -81.1808 -77.8706 82.275 
-81.1226 -80.1035 83.2235 -81.103 -82.4494 84.2188 -81.5144 -77.8 83.0179 
-81.3812 -80.1071 84.085 -81.3418 -82.6519 85.0775 -81.244 -85.1804 86.1093 
-82.1944 -77.8188 83.3072 -81.8595 -80.0509 84.4182 -81.7138 -82.5938 85.5309 
-81.5697 -85.1754 86.6041 -81.3348 -88 87.7267 -83.0599 -77.8816 83.4637 
-82.6648 -80.0826 84.5065 -82.291 -82.5461 85.7729 -81.9943 -85.026 87.0499 
-81.6464 -87.8424 88.1989 -81.3875 -91.003 89.2915 -83.7507 -77.8241 83.7697 
-83.4707 -80.0308 84.7488 -82.9977 -82.5364 86.0229 -82.4959 -85.0031 87.4957 
-82.0207 -87.724 88.7536 -81.6595 -90.95 89.7665 -81.5961 -94.0873 90.591 
-84.4053 -77.715 84.0528 -84.129 -79.7949 85.0655 -83.6902 -82.3095 86.2409 
-83.0976 -84.8805 87.6688 -82.537 -87.5588 89.0316 -82.0526 -90.7651 90.146 
-81.8529 -94.0666 91.0158 -81.9009 -96.9258 91.5321 -85.1985 -77.7268 84.1145 
-84.8185 -79.6131 85.1675 -84.3857 -81.9749 86.2817 -83.8074 -84.5663 87.5643 
-83.239 -87.1897 88.8882 -82.6814 -90.2187 90.1296 -82.2183 -93.5937 91.2577 
-82.0709 -96.655 92.0133 -82.0197 -99.3572 92.223 -85.9886 -77.8325 84.029 
-85.5592 -79.5707 85.0622 -85.1041 -81.7102 86.1383 -84.5531 -84.1878 87.3498 
-84.0019 -86.7508 88.635 -83.469 -89.5058 89.8784 -82.8522 -92.6855 91.1336 
-82.3714 -95.8771 92.2158 -82.1726 -98.7103 92.7154 -81.9837 -101.411 92.6074 
-80.7521 -79.6291 80.6428 -80.9743 -81.7017 82.7036 -81.0891 -81.252 81.3502 
-81.0556 -84.5152 85.0541 -81.0963 -83.6735 83.5801 -81.3718 -83.1617 82.3405 
-81.0851 -87.7993 87.1015 -80.9773 -86.9924 85.9006 -81.1029 -86.0516 84.4443 
-81.445 -85.3316 83.333 -81.1488 -91.1595 88.8863 -80.9461 -90.7364 87.9905 
-80.8914 -89.6872 86.5352 -81.118 -88.557 85.2215 -81.5804 -87.4898 84.2581 
-81.3524 -94.397 90.3546 -81.0856 -94.3516 89.8376 -80.9215 -93.5191 88.6325 
-80.9928 -92.1587 87.1809 -81.3665 -90.7953 86.0876 -81.8726 -89.4054 85.0622 
-81.6593 -97.5144 91.2619 -81.2944 -97.9078 91.0116 -81.0506 -97.5964 90.3447 
-81.0303 -96.2491 89.106 -81.1917 -94.4713 87.8452 -81.5654 -92.7968 86.7474 
-82.0437 -91.1108 85.5264 -81.7582 -100.453 91.7994 -81.293 -101.451 91.4732 
-80.9667 -101.919 91.1209 -80.9914 -101.128 90.3697 -81.0742 -99.0833 89.2638 
-81.1531 -96.7368 88.118 -81.4925 -94.6463 86.956 -82.0495 -92.6523 85.7364 
-81.6184 -103.027 92.1277 -81.0463 -104.585 91.6633 -80.6028 -105.674 91.2501 
-80.6806 -105.678 90.7282 -80.9728 -104.146 89.9917 -80.9984 -101.469 89.0884 
-81.0191 -98.6494 88.0724 -81.4171 -96.1903 86.9992 -82.0648 -93.9476 85.9285 
-81.7156 -104.56 92.3222 -81.0497 -106.709 91.8258 -81.4331 -108.001 91.6748 
-80.6665 -110.146 91.2495 -81.3071 -110.989 90.9054 -80.3708 -108.347 91.3071 
-80.6319 -112.639 90.488 -81.228 -113.201 90.2066 -80.1275 -111.085 90.5714 
-80.2133 -108.941 90.6606 -80.4829 -114.704 89.6548 -81.0978 -114.85 89.4825 
-80.0842 -112.972 89.5542 -80.2128 -110.853 89.6735 -80.6752 -108.242 90.0143 
-80.259 -116.41 88.7729 -81.2514 -115.509 88.5668 -79.7083 -115.101 88.6186 
-80.0564 -112.444 88.6639 -80.7769 -109.681 89.1996 -81.0421 -106.076 89.475 
-80.6824 -116.288 87.8919 -81.8576 -114.473 87.7514 -79.6852 -116.26 87.9076 
-79.7512 -113.996 87.9797 -80.6889 -110.743 88.5554 -81.1908 -107.098 89.0384 
-81.0323 -102.848 88.7911 -81.6681 -113.92 87.3482 -82.6251 -112.051 87.4763 
-80.6498 -114.694 87.3849 -80.2088 -113.564 87.5395 -80.7435 -110.812 88.0223 
-81.3729 -107.299 88.5615 -81.3358 -103.418 88.5044 -81.1693 -99.5751 87.8556 
-82.638 -110.566 87.3096 -83.4115 -109.101 87.6094 -81.9215 -111.349 87.1858 
-81.4022 -110.901 87.2994 -81.3721 -109.102 87.6341 -81.6673 -106.366 88.0029 
-81.7314 -103.135 88.044 -81.5933 -99.8243 87.6039 -81.6924 -96.7464 86.8372 
-83.5191 -107.237 87.4503 -84.2703 -106.157 87.6829 -82.9436 -107.864 87.2578 
-82.5513 -107.694 87.2736 -82.3118 -106.569 87.5004 -82.2147 -104.643 87.6814 
-82.1483 -102.169 87.5836 -82.0571 -99.4523 87.2025 -82.1011 -96.7875 86.5953 
-82.3679 -94.2404 85.7911 -82.2352 -101.468 92.929 -82.2007 -104.545 92.4383 
-82.8016 -101.349 93.1212 -82.9272 -104.264 92.6139 -83.5379 -101.105 93.1773 
-82.0953 -107.764 91.5346 -83.5888 -103.733 92.8137 -83.9982 -100.329 92.7902 
-82.7903 -107.049 91.6391 -81.9055 -110.455 90.6051 -83.9226 -102.438 92.4533 
-84.2655 -98.6531 91.8575 -83.395 -105.916 91.8436 -82.513 -109.22 90.5961 
-81.7439 -112.347 89.87 -84.3331 -100.164 91.5926 -84.9795 -96.5223 91.0255 
-83.9298 -103.921 91.5764 -83.3291 -107.446 90.8026 -82.5132 -110.618 89.8273 
-81.8569 -113.391 89.131 -85.2563 -97.638 90.9858 -86.0857 -94.5179 90.4557 
-84.6059 -101.125 91.1012 -84.1717 -104.818 90.8578 -83.577 -108.235 90.2043 
-82.872 -111.008 89.2215 -82.3194 -113.167 88.3246 -86.3441 -95.3504 90.3958 
-86.9839 -92.6408 89.5369 -85.5534 -98.3193 90.7524 -84.9295 -101.648 90.7336 
-84.4942 -105.069 90.505 -83.9528 -107.972 89.7946 -83.3839 -110.124 88.715 
-82.9532 -111.56 87.8805 -87.2156 -93.1874 89.3197 -87.6246 -90.8266 88.2653 
-86.6095 -95.7549 90.0826 -85.8795 -98.6196 90.3626 -85.3307 -101.677 90.3672 
-84.9229 -104.483 90.0954 -84.4662 -106.696 89.3605 -84.0372 -108.277 88.4919 
-83.691 -109.126 87.913 -87.977 -91.1761 88.0693 -88.3018 -89.2068 87.1209 
-87.592 -93.3412 88.9966 -87.0072 -95.8091 89.6086 -86.382 -98.5298 89.8654 
[...]
CELL_DATA 2000
SCALARS Distance double
LOOKUP_TABLE default
131.619 131.514 131.937 132.712 131.461 131.87 132.752 133.171 134.114 
131.641 131.957 132.949 133.335 134.404 134.764 135.806 132.043 132.296 
133.327 133.664 134.782 135.136 136.235 136.545 137.606 132.536 132.772 
133.812 134.113 135.224 135.556 136.679 137.005 138.138 138.43 139.564 
133.207 133.36 134.464 134.679 135.833 136.076 137.254 137.525 138.741 
139.029 140.253 140.497 141.652 134.059 134.15 135.298 135.46 136.686 
136.844 138.092 138.26 139.541 139.752 141.032 141.245 142.445 142.607 
143.698 134.857 134.969 136.044 136.283 137.511 137.753 139.03 139.211 
140.508 140.671 141.977 142.127 143.373 143.477 144.635 144.693 145.774 
135.584 135.662 136.632 136.902 138.086 138.457 139.743 140.075 141.379 
141.631 142.956 143.139 144.446 144.53 145.754 145.754 146.895 146.857 
147.914 130.91 129.76 130.51 130.796 128.479 129.305 129.63 130.369 
130.679 127.132 127.964 128.319 129.158 129.529 130.31 130.777 125.942 
126.638 126.98 127.828 128.31 129.172 129.709 130.534 131.145 125.151 
125.619 125.955 126.619 127.166 128.009 128.659 129.498 130.12 130.942 
131.603 124.776 125.04 125.384 125.83 126.375 127.046 127.744 128.516 
129.182 129.947 130.606 131.441 132.22 124.792 124.839 125.148 125.429 
125.95 126.45 127.136 127.759 128.465 129.116 129.833 130.558 131.39 
132.218 133.114 125.264 125.058 125.321 125.364 125.867 126.173 126.863 
127.327 128.078 128.592 129.392 129.981 130.89 131.575 132.517 133.229 
134.062 126.114 125.742 126.01 125.795 126.286 126.316 127.012 127.254 
128.053 128.413 129.276 129.74 130.698 131.259 132.233 132.807 133.657 
134.2 134.917 126.75 127.875 127.071 126.703 129.267 128.367 128.042 
127.182 126.98 130.853 129.903 129.658 128.696 128.499 127.643 127.646 
132.542 131.597 131.421 130.432 130.271 129.301 129.246 128.448 128.613 
134.184 133.315 133.19 132.242 132.11 131.128 131.059 130.148 130.253 
129.516 129.82 135.753 134.944 134.881 133.997 133.904 132.965 132.918 
131.994 132.095 131.265 131.552 130.843 131.258 137.349 136.548 136.552 
135.693 135.678 134.772 134.8 133.884 134.016 133.15 133.412 132.644 
133.007 132.33 132.744 138.952 138.184 138.235 137.403 137.462 136.594 
136.713 135.824 136.006 135.113 135.343 134.508 134.785 134.053 134.36 
133.729 134.068 140.454 139.767 139.857 139.093 139.198 138.399 138.569 
137.752 137.964 137.108 137.321 136.449 136.677 135.848 136.095 135.34 
135.599 134.958 135.263 136.156 136.605 136.856 138.016 137.2 137.451 
138.725 139.039 140.506 137.803 138.079 139.378 139.775 141.26 141.679 
143.244 138.424 138.679 139.917 140.34 141.776 142.301 143.803 144.328 
145.888 139.056 139.304 140.5 140.858 142.249 142.744 144.237 144.771 
146.302 146.895 148.541 139.627 139.901 141.091 141.442 142.803 143.252 
144.744 145.235 146.773 147.307 148.947 149.588 151.301 140.179 140.436 
141.588 141.969 143.277 143.76 145.182 145.717 147.191 147.757 149.328 
149.983 151.666 152.341 153.945 140.759 140.975 142.046 142.402 143.624 
144.119 145.446 146.025 147.397 148.027 149.477 150.212 151.792 152.591 
154.154 154.833 156.188 141.3 141.514 142.495 142.812 143.924 144.381 
145.614 146.184 147.484 148.117 149.467 150.197 151.654 152.515 154.009 
154.85 156.176 156.836 157.928 136.348 138.181 137.214 137.419 140.682 
139.379 139.508 138.516 138.913 143.546 142.155 142.266 140.921 141.209 
140.193 140.653 146.411 145.151 145.416 143.92 144.112 142.744 143.087 
142.011 142.406 149.247 148.123 148.651 147.203 147.434 145.837 146.043 
144.66 144.998 143.82 144.118 152.059 151.052 151.784 150.506 150.896 
149.27 149.41 147.779 148.003 146.606 146.885 145.576 145.72 154.667 
153.821 154.637 153.607 154.214 152.779 153.019 151.275 151.367 149.726 
149.876 148.432 148.512 147.109 147.059 156.882 156.249 157.08 156.313 
157.095 156.023 156.528 154.955 155.065 153.219 153.153 151.45 151.37 
149.875 149.74 148.327 148.162 158.627 158.23 159.068 158.551 159.372 
158.681 159.35 158.265 158.533 156.903 156.734 154.83 154.502 152.745 
152.465 150.954 150.717 149.338 149.127 159.7 161.496 160.532 160.3 
163.168 162.348 162.18 161.096 160.686 164.446 163.856 163.624 162.769 
162.316 161.318 160.673 165.327 164.928 164.572 163.857 163.236 162.55 
161.9 161.021 159.965 165.767 165.651 165.331 164.65 163.884 163.186 
162.488 161.889 160.924 159.879 158.28 165.381 165.751 165.557 165.254 
164.471 163.784 162.932 162.338 161.389 160.576 159.035 157.783 155.912 
164.139 164.867 164.657 164.976 164.205 164.004 162.941 162.556 161.412 
160.839 159.314 158.322 156.464 155.304 153.616 162.547 163.299 162.97 
163.597 162.853 163.141 162.027 162.027 160.729 160.494 158.963 158.352 
156.587 155.688 154.013 153.099 151.713 160.981 161.614 161.195 161.798 
161.132 161.561 160.611 160.792 159.603 159.54 158.137 157.792 156.212 
155.615 154.055 153.349 151.973 151.249 150.045 159.627 159.953 160.3 
161.334 160.246 160.606 161.562 161.947 162.929 160.214 160.827 161.677 
162.055 162.864 163.354 164.183 159.291 160.423 161.324 161.967 162.563 
163.081 163.761 164.372 165.033 157.768 159.085 160.08 161.189 161.855 
162.585 163.1 163.756 164.32 164.986 165.395 156.507 157.567 158.469 
159.665 160.486 161.566 162.187 162.99 163.415 164.088 164.362 165.003 
165.006 155.425 156.395 157.13 158.143 158.872 160.018 160.727 161.815 
162.268 163.064 163.18 163.803 163.701 164.262 163.908 154.079 155.149 
155.809 156.819 157.396 158.436 159.025 160.168 160.652 161.662 161.8 
162.52 162.366 162.922 162.607 163.033 162.509 152.698 153.695 154.327 
155.369 155.913 156.929 157.415 158.469 158.908 159.946 160.173 161.016 
160.95 161.58 161.328 161.8 161.391 161.677 161.078 141.853 143.068 
142.663 143.092 144.345 143.961 144.482 144.018 144.534 145.645 145.314 
145.94 145.492 146.098 145.604 146.227 146.913 146.669 147.422 147.024 
147.728 147.25 147.969 147.44 148.127 148.109 147.964 148.847 148.549 
149.338 148.916 149.715 149.245 150.035 149.445 150.153 149.209 149.154 
150.133 149.971 150.832 150.497 151.329 150.968 151.877 151.413 152.264 
151.594 152.365 150.2 150.223 151.277 151.241 152.199 151.952 152.833 
152.545 153.586 153.278 154.343 153.792 154.687 153.93 154.713 151.101 
151.183 152.309 152.38 153.456 153.311 154.278 154.048 155.213 155.039 
156.325 155.936 156.959 156.261 157.009 156.217 156.84 151.927 152.056 
153.208 153.381 154.525 154.53 155.539 155.434 156.601 156.61 157.983 
157.871 158.971 158.447 159.111 158.369 158.854 158.116 158.544 141.334 
140.858 141.554 142.478 140.347 141.042 141.96 142.7 143.674 139.912 
140.554 141.445 142.155 143.11 143.888 144.89 139.521 140.157 141.051 
141.696 142.62 143.323 144.289 145.078 146.076 139.063 139.734 140.651 
141.331 142.265 142.908 143.843 144.521 145.487 146.254 147.235 138.605 
139.234 140.105 140.851 141.778 142.512 143.428 144.116 145.06 145.753 
146.711 147.426 148.355 138.29 138.807 139.6 140.268 141.14 141.904 
142.767 143.557 144.456 145.271 146.228 146.974 147.863 148.528 149.359 
138.121 138.56 139.331 139.854 140.696 141.314 142.141 142.83 143.644 
144.48 145.4 146.332 147.257 148.041 148.825 149.479 150.239 138.01 
138.434 139.21 139.668 140.496 141.001 141.832 142.355 143.123 143.723 
144.528 145.369 146.296 147.252 148.124 148.913 149.646 150.318 151.053 
138.193 138.902 138.842 139.435 139.608 139.56 140.19 140.125 140.727 
140.349 140.252 140.867 140.853 141.531 141.47 142.07 141.229 141.051 
141.642 141.554 142.292 142.283 142.982 142.829 143.359 142.166 142.005 
142.644 142.46 143.209 143.129 143.904 143.765 144.349 144.095 144.663 
143.014 142.938 143.655 143.523 144.275 144.146 144.904 144.742 145.376 
145.121 145.731 145.526 146.319 143.791 143.755 144.501 144.477 145.262 
145.192 145.928 145.769 146.422 146.192 146.873 146.667 147.489 147.344 
148.194 144.521 144.508 145.255 145.284 146.122 146.124 146.901 146.775 
147.44 147.246 147.967 147.824 148.678 148.548 149.38 149.17 149.833 
145.142 145.185 145.935 146.018 146.895 146.97 147.81 147.738 148.41 
148.237 148.915 148.839 149.681 149.663 150.508 150.355 151.031 150.719 
151.267 145.655 146.798 146.319 146.556 148.189 147.627 147.979 147.388 
147.644 149.79 149.16 149.55 148.931 149.217 148.522 148.614 151.498 
150.833 151.177 150.523 150.745 150.057 150.068 149.319 149.187 153.32 
152.618 152.996 152.219 152.425 151.604 151.606 150.756 150.641 149.82 
149.721 155.289 154.58 155.114 154.23 154.573 153.545 153.68 152.562 
152.565 151.494 151.51 150.559 150.593 157.232 156.629 157.269 156.462 
156.916 155.91 156.17 154.969 155.042 153.758 153.759 152.583 152.581 
151.544 151.475 158.893 158.477 159.113 158.508 158.937 158.151 158.392 
157.416 157.449 156.276 156.141 154.909 154.721 153.57 153.341 152.284 
151.992 160.199 159.945 160.54 160.124 160.504 159.922 160.117 159.373 
159.363 158.415 158.186 157.085 156.752 155.62 155.265 154.139 153.742 
152.653 152.239 145.35 145.195 145.641 146.424 145.064 145.518 146.352 
146.814 147.749 144.908 145.414 146.313 146.797 147.785 148.275 149.344 
144.59 145.207 146.149 146.748 147.791 148.344 149.44 149.951 151.06 
144.137 144.811 145.764 146.485 147.541 148.247 149.338 149.978 151.084 
151.656 152.795 143.689 144.341 145.264 146.014 147.038 147.845 148.916 
149.703 150.806 151.548 152.722 153.397 154.631 143.242 143.877 144.737 
145.473 146.455 147.272 148.341 149.18 150.321 151.161 152.395 153.214 
154.511 155.253 156.514 142.759 143.381 144.199 144.92 145.898 146.697 
147.787 148.615 149.79 150.658 151.94 152.836 154.171 155.026 156.311 
157.058 158.192 142.317 142.892 143.714 144.4 145.405 146.182 147.289 
148.095 149.24 150.108 151.354 152.318 153.647 154.604 155.881 156.733 
157.872 158.584 159.54 144.669 143.505 144.216 144.454 142.168 142.942 
143.162 143.961 144.25 140.744 141.53 141.719 142.576 142.88 143.755 
144.062 139.33 140.091 140.229 141.07 141.339 142.292 142.607 143.503 
143.731 138.004 138.719 138.822 139.57 139.729 140.656 140.917 141.915 
142.14 143.061 143.246 136.702 137.427 137.522 138.203 138.268 139.046 
139.199 140.142 140.361 141.362 141.599 142.563 142.803 135.26 136.041 
136.095 136.851 136.883 137.618 137.699 138.5 138.678 139.594 139.872 
140.877 141.202 142.163 142.415 133.788 134.516 134.51 135.307 135.326 
136.146 136.224 137.041 137.189 138.023 138.264 139.197 139.544 140.544 
140.872 141.782 141.987 132.545 133.118 133.105 133.768 133.804 134.565 
134.676 135.516 135.694 136.551 136.773 137.653 137.955 138.912 139.27 
140.229 140.519 141.368 141.566 131.941 131.244 131.885 132.477 130.544 
131.233 131.885 132.487 133.151 129.941 130.602 131.372 131.965 132.65 
133.234 133.999 129.703 130.169 130.984 131.525 132.27 132.802 133.56 
134.172 135.029 129.799 130.109 130.849 131.258 132.014 132.485 133.265 
133.809 134.674 135.282 136.17 129.942 130.237 130.94 131.242 131.971 
132.334 133.142 133.602 134.503 135.032 135.969 136.5 137.404 130.187 
130.413 131.193 131.425 132.197 132.44 133.273 133.612 134.554 134.985 
135.966 136.422 137.375 137.827 138.734 130.703 130.803 131.628 131.791 
132.628 132.801 133.66 133.889 134.83 135.157 136.151 136.529 137.494 
137.885 138.788 139.186 140.012 131.339 131.396 132.159 132.291 133.108 
133.281 134.132 134.337 135.236 135.501 136.451 136.774 137.717 138.059 
138.939 139.278 140.072 140.409 141.114 131.899 133.021 132.526 132.729 
134.392 133.758 133.974 133.439 133.686 136.038 135.275 135.461 134.794 
135.049 134.476 134.748 137.838 137.01 137.182 136.397 136.621 135.941 
136.228 135.609 135.893 139.808 138.905 139.103 138.209 138.407 137.605 
137.869 137.172 137.474 136.814 137.108 141.889 140.978 141.218 140.246 
140.449 139.505 139.74 138.906 139.194 138.459 138.759 138.068 138.354 
143.917 143.063 143.345 142.41 142.639 141.649 141.868 140.902 141.146 
140.273 140.538 139.76 140.015 139.301 139.543 145.959 145.096 145.406 
144.508 144.755 143.821 144.032 143.068 143.261 142.305 142.497 141.604 
141.792 140.981 141.156 140.432 140.622 148.061 147.188 147.502 146.582 
146.817 145.888 146.078 145.156 145.313 144.382 144.517 143.588 143.714 
142.811 142.917 142.073 142.178 141.451 141.607 142.35 143.015 143.03 
143.821 143.872 143.864 144.772 144.713 145.612 144.74 144.791 145.785 
145.774 146.74 146.636 147.536 145.568 145.664 146.695 146.764 147.77 
147.755 148.698 148.582 149.48 146.408 146.528 147.653 147.724 148.857 
148.834 149.922 149.8 150.856 150.651 151.658 147.239 147.413 148.686 
148.807 150.172 150.151 151.5 151.294 152.571 152.253 153.438 153.046 
154.072 148.049 148.282 149.649 149.88 151.387 151.558 153.099 153.062 
154.479 154.193 155.426 154.987 156.029 155.505 156.358 148.792 149.104 
150.504 150.817 152.326 152.664 154.232 154.496 155.949 155.968 157.17 
156.913 157.878 157.431 158.219 157.669 158.33 149.364 149.782 151.184 
151.596 153.088 153.506 155.068 155.456 156.944 157.173 158.429 158.407 
159.403 159.129 159.911 159.446 160.065 159.498 159.993 126.107 125.263 
125.734 125.964 124.692 124.957 125.122 125.658 125.997 124.542 124.505 
124.484 124.836 125.139 125.764 126.225 124.9 124.556 124.39 124.355 
124.538 124.97 125.505 126.134 126.734 125.756 125.182 125.068 124.62 
124.728 124.68 125.195 125.588 126.312 126.829 127.52 126.931 126.251 
126.239 125.631 125.776 125.321 125.704 125.626 126.276 126.57 127.312 
127.745 128.464 128.219 127.503 127.473 126.89 127.081 126.577 126.859 
126.443 126.834 126.745 127.357 127.629 128.366 128.768 129.491 129.509 
128.795 128.709 128.103 128.26 127.822 128.109 127.652 127.897 127.496 
127.895 127.843 128.525 128.776 129.539 129.852 130.529 130.722 130.072 
129.996 129.347 129.437 128.956 129.234 128.827 129.097 128.625 128.922 
128.592 129.146 129.13 129.867 130.025 130.712 130.904 131.491 126.7 
126.557 126.921 127.584 126.608 126.862 127.495 127.854 128.574 126.841 
126.991 127.596 127.846 128.548 128.918 129.704 127.302 127.318 127.903 
128.031 128.696 128.963 129.733 130.105 130.903 128.035 127.912 128.5 
128.475 129.122 129.215 129.932 130.182 130.969 131.319 132.113 128.962 
128.759 129.354 129.218 129.861 129.791 130.456 130.503 131.24 131.455 
132.265 132.573 133.386 129.947 129.723 130.282 130.116 130.704 130.584 
131.187 131.129 131.804 131.868 132.643 132.824 133.629 133.882 134.657 
130.904 130.683 131.186 131.01 131.528 131.387 131.927 131.847 132.47 
132.486 133.205 133.298 134.039 134.188 134.912 135.127 135.827 131.809 
131.597 132.07 131.881 132.378 132.201 132.726 132.592 133.193 133.152 
133.825 133.862 134.535 134.618 135.273 135.417 136.088 136.282 136.942 
127.098 127.987 127.721 128.178 128.977 128.66 129.126 128.909 129.506 
130.097 129.715 130.18 129.908 130.522 130.336 131.047 131.277 130.871 
131.314 131.005 131.629 131.418 132.145 131.96 132.712 132.483 132.062 
132.481 132.139 132.736 132.536 133.272 133.093 133.811 133.615 134.315 
133.764 133.321 133.757 133.339 133.893 133.632 134.354 134.194 134.907 
134.703 135.351 135.159 135.837 135.029 134.633 135.105 134.673 135.195 
134.834 135.497 135.277 135.999 135.789 136.443 136.209 136.871 136.691 
137.408 136.175 135.848 136.323 135.977 136.473 136.124 136.703 136.436 
137.115 136.897 137.567 137.323 137.974 137.757 138.458 138.289 138.998 
137.253 136.941 137.385 137.094 137.56 137.285 137.813 137.579 138.2 
138.002 138.652 138.434 139.059 138.842 139.488 139.321 139.997 139.843 
140.484 144.54 143.916 143.978 143.395 143.149 143.261 142.668 142.74 
142.075 142.305 142.405 141.725 141.876 141.202 141.328 140.634 141.459 
141.522 140.72 140.824 140.06 140.287 139.598 139.82 139.168 140.591 
140.66 139.833 139.83 138.977 139.103 138.39 138.66 138.052 138.34 
137.786 139.714 139.78 138.985 138.97 138.13 138.14 137.428 137.552 
136.97 137.201 136.688 136.986 136.48 138.911 138.921 138.115 138.115 
137.315 137.345 136.662 136.735 136.139 136.249 135.694 135.901 135.377 
135.658 135.099 138.186 138.147 137.332 137.29 136.513 136.538 135.865 
135.959 135.331 135.438 134.807 134.952 134.362 134.579 134.023 134.262 
133.693 137.523 137.457 136.681 136.596 135.858 135.816 135.148 135.172 
134.522 134.587 133.932 134.045 133.44 133.612 133.075 133.267 132.76 
132.947 132.47 
POINT_DATA 1002
SCALARS Distance double
LOOKUP_TABLE default
132.331 131.312 131.216 132.267 131.062 133.541 132.285 131.04 133.708 
135.096 132.549 131.339 134.016 135.492 136.834 133.005 131.788 134.431 
135.903 137.316 138.676 133.527 132.295 134.908 136.337 137.802 139.304 
140.718 134.261 133.069 135.608 136.988 138.442 139.988 141.475 142.767 
135.124 133.99 136.515 137.94 139.356 140.834 142.28 143.584 144.747 
135.797 134.788 137.214 138.81 140.345 141.831 143.273 144.573 145.753 
146.83 136.405 135.561 137.697 139.351 141.074 142.723 144.321 145.751 
146.944 147.995 148.924 130.206 130.113 128.965 128.843 127.635 129.937 
127.419 126.347 128.697 129.956 126.152 125.333 127.372 128.867 130.312 
125.377 124.748 126.34 127.796 129.325 130.73 125.001 124.585 125.781 
127.012 128.438 129.792 131.3 124.94 124.859 125.512 126.565 127.841 
129.126 130.586 132.288 125.384 125.557 125.65 126.449 127.582 128.819 
130.237 131.854 133.413 126.293 126.498 126.362 126.856 127.738 128.845 
130.17 131.694 133.159 134.404 127.464 127.46 128.706 128.94 130.159 
127.73 130.615 131.789 129.423 128.35 132.391 133.453 131.261 130.134 
129.261 134.105 134.999 133.08 131.995 131.054 130.449 135.731 136.531 
134.811 133.826 132.937 132.297 131.915 137.386 138.133 136.541 135.685 
134.894 134.22 133.724 133.387 139.037 139.688 138.287 137.561 136.9 
136.229 135.584 135.052 134.647 140.579 141.1 139.959 139.352 138.799 
138.198 137.538 136.912 136.327 135.828 137.082 137.663 139.307 138.368 
140.151 142.068 138.963 140.811 142.826 144.846 139.541 141.252 143.272 
145.317 147.51 140.176 141.787 143.716 145.732 147.867 150.257 140.733 
142.369 144.261 146.264 148.332 150.652 153.004 141.228 142.81 144.659 
146.634 148.685 150.978 153.378 155.463 141.743 143.174 144.895 146.793 
148.773 150.984 153.427 155.666 157.443 142.223 143.525 145.08 146.874 
148.794 150.844 153.145 155.465 157.405 158.943 138.158 140.675 139.696 
143.731 142.4 141.539 146.886 145.642 144.305 143.427 149.984 149.093 
147.579 146.259 145.319 152.926 152.454 151.151 149.512 148.25 147.095 
155.544 155.454 154.745 153.174 151.426 149.962 148.49 157.752 157.96 
157.89 156.966 155.072 152.976 151.185 149.557 159.511 159.962 160.216 
159.963 158.692 156.46 154.089 152.135 150.475 160.659 161.444 162.401 
163.213 163.904 161.898 164.46 164.981 163.206 161.855 165.351 165.657 
163.912 162.597 161.258 165.954 165.698 164.695 163.055 161.823 159.704 
165.606 164.846 165.114 163.608 162.147 160.214 157.202 164.158 163.422 
164.213 163.297 161.932 160.177 157.568 154.635 162.331 161.899 162.435 
161.931 160.878 159.399 157.331 154.874 152.539 160.626 160.429 160.643 
160.337 159.589 158.366 156.663 154.655 152.646 150.743 159.294 160.961 
159.622 161.251 159.881 162.498 161.364 159.411 162.437 163.676 160.506 
157.969 162.12 163.15 164.471 158.794 156.556 160.957 162.504 163.663 
164.839 157.368 155.61 159.262 161.256 162.82 163.776 164.483 156.221 
154.452 157.815 159.555 161.388 162.613 163.167 163.469 154.784 153.008 
156.433 157.955 159.58 161.006 161.8 162.148 162.222 153.303 151.791 
154.902 156.415 157.889 159.27 160.258 160.808 161.045 160.922 142.238 
143.532 143.439 144.916 144.683 145.003 146.347 145.91 146.563 146.736 
147.758 147.077 148.17 148.461 148.72 149.064 148.194 149.728 150.129 
150.566 150.83 150.215 149.228 151.132 151.649 152.224 152.854 153.119 
151.238 150.146 152.39 153.089 153.777 154.773 155.417 155.538 152.177 
150.993 153.526 154.468 155.294 156.582 157.633 157.84 157.658 140.668 
141.761 140.15 141.217 139.677 142.906 140.773 139.291 142.348 144.081 
140.412 138.864 141.972 143.544 145.248 139.93 138.399 141.615 143.213 
144.778 146.441 139.378 138.042 141.011 142.714 144.364 146.047 147.65 
139.006 137.826 140.42 141.992 143.601 145.41 147.233 148.714 138.852 
137.688 140.139 141.533 142.904 144.436 146.361 148.185 149.586 138.765 
137.579 140.016 141.335 142.633 143.837 145.318 147.218 148.976 150.384 