# vtk DataFile Version 4.0
vtk output
ASCII
DATASET POLYDATA
POINTS 1002 float
-85.2806 -78.9757 64.1687 -85.1636 -78.538 62.6979 -84.8351 -78.1447 63.6284 
-84.725 -78.779 65.043 -84.3001 -77.9197 64.5423 -85.1797 -79.6942 65.5854 
-84.0033 -78.8082 65.8902 -83.4916 -77.9589 65.3361 -84.4892 -79.7271 66.4521 
-84.8742 -80.7172 66.973 -83.2231 -79.0083 66.7608 -82.6971 -78.0593 66.1889 
-83.8055 -79.9078 67.4009 -84.3298 -80.8473 68.0775 -84.7247 -81.8468 68.7484 
-82.6253 -79.1413 67.8643 -82.2451 -78.0431 67.3835 -83.1786 -80.12 68.48 
-83.819 -81.033 69.2593 -84.3362 -82.0342 70.0878 -84.6985 -83.1476 70.8244 
-82.2023 -79.2195 69.1733 -81.9212 -78.0589 68.7505 -82.5809 -80.3325 69.6946 
-83.1805 -81.3178 70.39 -83.748 -82.3484 71.216 -84.0448 -83.585 71.9143 
-84.2278 -84.8776 72.4759 -81.6879 -79.4379 70.3596 -81.3595 -78.2955 69.8805 
-81.9608 -80.6699 70.8791 -82.3744 -81.8158 71.4535 -82.9186 -82.9264 72.1332 
-83.2012 -84.1958 72.7506 -83.2639 -85.6055 73.2146 -83.4395 -86.8383 73.7267 
-81.0432 -79.8746 71.3203 -80.6368 -78.8039 70.76 -81.391 -81.1354 71.9482 
-81.6481 -82.4306 72.5371 -82.0392 -83.6968 73.088 -82.3828 -84.9881 73.6395 
-82.4788 -86.369 74.1152 -82.624 -87.6659 74.5959 -82.9671 -88.6508 75.1924 
-80.4009 -80.5214 72.1962 -79.9734 -79.5333 71.6305 -80.889 -81.7042 72.9155 
-81.1561 -83.026 73.6343 -81.3811 -84.3967 74.2092 -81.7118 -85.7499 74.7268 
-81.9198 -87.1054 75.2556 -82.086 -88.4148 75.7804 -82.4084 -89.5037 76.3233 
-82.7767 -90.3286 76.8491 -79.8234 -81.2503 73.0564 -79.4425 -80.3111 72.5804 
-80.3552 -82.3364 73.7369 -80.6916 -83.6304 74.5341 -80.879 -85.0328 75.2555 
-81.2003 -86.3858 75.8623 -81.5063 -87.7187 76.435 -81.6766 -89.0798 76.99 
-81.9245 -90.3065 77.5159 -82.2551 -91.2794 77.9742 -82.5042 -92.0664 78.3056 
-84.8905 -77.8258 61.9014 -84.6158 -77.3397 62.9473 -84.6724 -76.9043 61.2759 
-84.3175 -76.4087 62.3688 -84.3169 -75.8504 60.7147 -84.0142 -77.0772 63.9098 
-83.8058 -75.4131 61.79 -83.8307 -74.8177 60.1523 -83.5954 -76.1449 63.3263 
-83.083 -77.0355 64.6985 -83.2459 -74.4324 61.2355 -83.4383 -73.786 59.8034 
-83.0851 -75.16 62.8293 -82.6706 -75.9928 64.2135 -82.3082 -76.9784 65.6656 
-82.8006 -73.3574 60.8906 -83.1685 -72.5382 59.785 -82.5943 -74.1717 62.4659 
-82.2726 -74.9529 63.9983 -81.9516 -75.8552 65.4124 -81.9168 -76.909 67.0612 
-82.4512 -72.0574 60.8239 -82.9873 -71.1666 59.9623 -82.106 -73.0842 62.2224 
-81.7422 -73.9777 63.8388 -81.3949 -74.869 65.2843 -81.3908 -75.9175 66.819 
-81.4938 -77.0457 68.4618 -82.3185 -70.8183 61.1241 -83.0161 -70.1579 60.4017 
-81.7927 -71.9186 62.2485 -81.2401 -73.0005 63.6567 -80.6367 -73.9384 64.9681 
-80.4956 -75.0498 66.3451 -80.7903 -76.2567 67.9805 -80.8461 -77.4576 69.5096 
-82.484 -70.0321 61.9354 -83.282 -69.7338 61.2865 -81.8423 -70.9659 62.8211 
-81.1916 -72.1407 63.8822 -80.3177 -73.0518 64.8503 -79.6979 -74.0524 65.8636 
-79.8931 -75.4121 67.3198 -80.274 -76.777 68.9946 -80.1918 -78.1084 70.4377 
-82.824 -69.6964 63.1275 -83.6617 -69.6782 62.4934 -82.1106 -70.3566 63.8774 
-81.4915 -71.5212 64.6881 -80.6794 -72.4465 65.3989 -79.6978 -73.135 66.0779 
-79.3176 -74.3142 67.1314 -79.6793 -75.8975 68.6436 -79.8867 -77.4201 70.1987 
-79.6462 -78.8873 71.5047 -83.5187 -69.6328 64.2049 -82.6555 -69.811 64.9581 
-83.3961 -69.7109 65.9087 -82.5096 -70.1531 66.717 -83.367 -70.0805 67.4128 
-81.9294 -70.7922 65.7031 -82.4701 -70.8016 68.1922 -83.4223 -70.9298 68.7309 
-81.7802 -71.367 67.372 -81.293 -71.9837 66.3621 -82.5045 -71.9007 69.4702 
-83.4075 -72.2949 69.9491 -81.724 -72.0926 68.7977 -81.1361 -72.4311 68.0171 
-80.3873 -72.6424 66.9944 -82.5271 -73.3314 70.8395 -83.3737 -73.7557 71.2879 
-81.7413 -73.194 70.2124 -81.0394 -73.1856 69.6501 -80.2284 -73.1225 68.9352 
-79.4778 -73.4426 67.869 -82.6345 -74.6349 72.4813 -83.5145 -74.8974 72.8935 
-81.826 -74.5206 71.8766 -81.072 -74.4596 71.3158 -80.2239 -74.2776 70.8904 
-79.5168 -74.3412 70.1338 -79.3488 -75.0137 69.1489 -82.8243 -75.8045 74.0827 
-83.7025 -75.9676 74.4192 -81.9771 -75.7825 73.6085 -81.2441 -75.8466 73.0393 
-80.4409 -75.7741 72.6084 -79.6994 -75.7043 72.1843 -79.4307 -76.0936 71.4285 
-79.5946 -76.8244 70.6211 -82.9205 -77.1748 75.2778 -83.711 -77.2889 75.5266 
-82.1068 -77.1354 74.9989 -81.4149 -77.1871 74.6114 -80.7321 -77.1832 74.1768 
-79.9817 -77.1027 73.8335 -79.4563 -77.3145 73.3906 -79.3303 -77.9293 72.6849 
-79.4314 -78.5404 71.9693 -82.8973 -78.6493 76.2317 -83.5761 -78.694 76.3906 
-82.1919 -78.6079 76.1013 -81.5412 -78.6139 75.92 -80.9218 -78.6169 75.6187 
-80.2355 -78.5558 75.3046 -79.5621 -78.6486 74.9968 -79.1211 -79.1168 74.4902 
-78.9853 -79.7295 73.7627 -79.1075 -80.1395 73.0622 -79.2136 -81.6043 73.8292 
-78.8736 -81.4234 74.4591 -79.191 -82.7968 75.1123 -78.8448 -81.0436 75.2822 
-79.0007 -82.5845 75.874 -79.2844 -84.1034 76.5842 -79.1595 -80.5738 76.0273 
-79.1048 -82.3719 76.811 -79.2844 -83.95 77.5222 -79.3479 -86.2205 78.5137 
-79.7464 -80.2888 76.4831 -79.483 -82.2153 77.5893 -79.454 -83.9764 78.5362 
-79.3786 -86.2679 79.5505 -79.4149 -89.2516 80.6227 -80.4561 -80.2293 76.7655 
-80.0759 -82.1257 78.0042 -79.8681 -84.055 79.2324 -79.5938 -86.3772 80.425 
-79.427 -89.3662 81.4984 -79.6561 -92.0708 82.2572 -81.1548 -80.175 77.0435 
-80.7867 -81.9932 78.2451 -80.5051 -84.0278 79.4686 -80.1591 -86.3822 80.8043 
-79.7586 -89.2282 82.0186 -79.7656 -91.9268 82.8558 -79.9994 -94.0051 83.3294 
-81.8023 -80.0771 77.2492 -81.4807 -81.7382 78.5272 -81.1726 -83.7853 79.6111 
-80.8494 -86.195 80.7682 -80.4085 -88.8573 82.0908 -80.1285 -91.4324 83.0971 
-80.2043 -93.6549 83.7112 -80.1622 -95.9257 84.1009 -82.4236 -80.0246 77.3283 
-82.0792 -81.4692 78.7505 -81.7468 -83.3433 79.91 -81.4108 -85.7429 80.7931 
-81.0581 -88.2922 81.9743 -80.6791 -90.7259 83.1572 -80.4991 -93.0804 83.8527 
-80.4231 -95.6533 84.2827 -80.0936 -98.6128 84.6015 -83.0516 -80.0047 77.3681 
-82.6413 -81.2867 78.802 -82.2806 -82.8764 80.1572 -81.9046 -85.0886 80.995 
-81.5936 -87.5717 81.9034 -81.2876 -89.9215 83.1604 -80.9675 -92.3315 84.0464 
-80.743 -95.1452 84.3938 -80.4674 -98.3659 84.6289 -79.9836 -101.619 84.8368 
-79.6782 -82.6451 74.3313 -79.5109 -84.1171 75.6799 -80.068 -83.9797 75.0837 
-79.3708 -86.1259 77.3983 -79.6569 -86.0051 76.5647 -80.2699 -85.593 75.9723 
-79.4456 -88.9791 79.5502 -79.5352 -88.5761 78.4669 -79.974 -87.9239 77.6111 
-80.6435 -87.0982 76.8328 -79.69 -91.9519 81.4436 -79.7545 -91.3774 80.4505 
-80.0468 -90.4565 79.4958 -80.6162 -89.3902 78.6041 -81.1356 -88.448 77.5911 
-79.8685 -94.2779 82.6988 -79.8029 -94.0257 81.8596 -80.011 -93.2312 81.0983 
-80.5281 -92.1365 80.3488 -81.0297 -90.9874 79.376 -81.3645 -89.9574 78.2116 
-79.8514 -96.5432 83.6622 -79.58 -96.8175 82.8937 -79.6497 -96.5266 82.2397 
-80.1369 -95.6898 81.7641 -80.7065 -94.4209 81.0136 -81.1204 -92.9072 79.9146 
-81.5069 -91.4761 78.7303 -79.6735 -99.5303 84.4101 -79.3523 -100.154 83.8364 
-79.4017 -100.231 83.2299 -79.8467 -99.661 82.8867 -80.4089 -98.4336 82.4287 
-80.8624 -96.5795 81.5058 -81.2766 -94.4897 80.3449 -81.7697 -92.6749 79.1731 
-79.479 -102.843 84.794 -79.1829 -103.673 84.462 -79.3377 -103.856 83.985 
-79.8253 -103.332 83.6642 -80.3276 -102.187 83.4053 -80.7395 -100.357 82.8289 
-81.1079 -97.9623 81.8443 -81.5148 -95.5618 80.6651 -82.0059 -93.5917 79.4685 
-79.5755 -105.314 84.9578 -79.0867 -106.638 84.8089 -79.235 -108.525 85.0189 
-78.8779 -109.832 84.7691 -79.0557 -111.204 85.1216 -79.1213 -107.197 84.4581 
-78.7473 -112.574 84.7593 -79.1592 -113.676 85.137 -79.1125 -110.086 84.3407 
-79.64 -106.803 84.0674 -78.9145 -114.706 84.4877 -79.7693 -115.198 84.7268 
-78.9008 -112.575 84.0106 -79.5725 -109.28 83.7561 -80.1578 -105.683 83.76 
-79.7955 -115.172 83.6775 -80.7783 -114.966 83.9194 -79.1061 -114.02 83.2984 
-79.2604 -111.439 83.065 -80.0001 -107.771 83.315 -80.5699 -103.938 83.454 
-80.9911 -114.194 82.7083 -81.6546 -113.557 83.1955 -80.0645 -113.86 82.3757 
-79.5715 -112.441 82.3467 -79.9615 -109.467 82.754 -80.6654 -105.404 83.1797 
-81.0238 -101.415 82.8734 -81.7968 -112.676 82.1719 -82.1794 -111.566 82.8253 
-81.0526 -112.922 81.7477 -80.3419 -112.129 81.868 -80.3921 -109.897 82.4298 
-80.9799 -106.235 82.902 -81.3413 -102.129 82.7042 -81.4217 -98.501 81.8148 
-82.2988 -110.426 82.1099 -82.6558 -109.049 82.6317 -81.7476 -111.203 81.6875 
-81.0927 -110.83 81.7402 -80.9375 -108.942 82.2405 -81.3713 -105.785 82.6119 
-81.6963 -102.169 82.3414 -81.719 -98.7794 81.5064 -81.808 -95.8987 80.4889 
-82.928 -107.459 82.1212 -83.3387 -106.343 82.3605 -82.4734 -108.276 81.8965 
-81.9646 -108.233 81.8864 -81.6993 -106.822 82.1302 -81.8678 -104.23 82.2637 
-82.089 -101.294 81.8763 -82.0764 -98.5536 81.0352 -82.1016 -96.0489 80.1043 
-82.3169 -93.8449 79.225 -80.336 -102.354 84.8843 -80.0435 -105.791 85.0707 
-80.8032 -102.457 85.001 -80.6246 -105.36 85.2626 -81.2558 -101.816 85.1326 
-79.8089 -108.534 85.2802 -81.1476 -104.248 85.4348 -81.7589 -100.585 85.1102 
-80.5548 -107.651 85.5723 -79.8147 -110.95 85.4447 -81.8054 -102.754 85.4571 
-82.5419 -98.9189 84.9128 -81.2441 -106.33 85.7836 -80.81 -109.724 85.6989 
-80.2116 -113.114 85.3158 -82.7723 -100.828 85.2067 -83.4325 -96.9579 84.4606 
-82.0372 -104.699 85.7816 -81.6339 -107.915 85.8699 -81.3208 -111.146 85.4202 
-80.9126 -113.991 84.7678 -83.7013 -98.4303 84.5493 -84.1253 -94.9245 83.686 
-83.026 -102.444 85.367 -82.3999 -105.75 85.7731 -82.0597 -108.438 85.4826 
-81.7764 -111.271 84.8255 -81.5946 -113.247 84.0965 -84.4626 -95.861 83.7097 
-84.828 -92.9773 82.8902 -83.9791 -99.5345 84.6019 -83.3424 -103.097 85.2662 
-82.7867 -105.756 85.2956 -82.4189 -108.12 84.821 -82.1718 -110.341 84.27 
-82.1108 -111.509 83.628 -85.3392 -93.474 82.9997 -85.7488 -91.18 82.2793 
-84.8891 -96.4598 83.8072 -84.3651 -99.8886 84.5434 -83.7976 -102.936 84.8609 
-83.3281 -105.301 84.6675 -82.9891 -107.278 84.2943 -82.7432 -108.663 83.8782 
-82.6386 -109.182 83.2905 -86.3104 -91.429 82.3143 -86.6637 -89.5888 81.6554 
-85.8521 -93.7263 83.0142 -85.3608 -96.5621 83.7082 -84.8738 -99.6046 84.223 
[...]
CELL_DATA 2000
SCALARS Distance double
LOOKUP_TABLE default
131.074 131.048 131.406 132.103 130.995 131.371 132.083 132.457 133.191 
130.977 131.35 132.146 132.503 133.341 133.654 134.509 131.164 131.454 
132.35 132.669 133.617 133.933 134.921 135.184 136.184 131.592 131.799 
132.718 132.979 133.959 134.278 135.307 135.635 136.647 136.933 137.893 
132.035 132.267 133.162 133.406 134.353 134.645 135.655 135.998 136.989 
137.311 138.217 138.513 139.367 132.397 132.665 133.597 133.863 134.834 
135.081 136.091 136.374 137.398 137.671 138.629 138.854 139.772 139.989 
140.902 132.827 133.054 134.064 134.34 135.404 135.633 136.688 136.901 
137.973 138.189 139.244 139.412 140.435 140.57 141.593 141.708 142.687 
133.399 133.562 134.575 134.851 135.95 136.228 137.317 137.548 138.638 
138.851 139.951 140.129 141.211 141.349 142.415 142.524 143.543 143.59 
144.496 130.4 129.43 130.085 130.4 128.387 129.1 129.414 130.059 
130.331 127.218 127.988 128.307 129.021 129.258 129.923 130.214 126.076 
126.789 127.123 127.871 128.134 128.808 129.085 129.826 130.299 125.068 
125.683 126.001 126.728 127.07 127.728 128.051 128.733 129.232 130.057 
130.715 124.151 124.68 124.946 125.652 126.026 126.718 127.066 127.74 
128.218 129.028 129.687 130.549 131.194 123.546 123.851 124.104 124.671 
125.056 125.706 126.016 126.685 127.055 127.914 128.522 129.484 130.14 
130.988 131.561 123.579 123.542 123.834 124.091 124.556 124.954 125.293 
125.705 125.958 126.639 127.175 128.198 128.951 129.93 130.602 131.386 
131.995 124.187 123.899 124.189 124.16 124.687 124.826 125.294 125.363 
125.614 125.796 126.226 126.924 127.764 128.768 129.666 130.521 131.255 
131.945 132.615 124.707 125.528 124.926 124.695 126.467 125.836 125.681 
125.143 125.163 127.56 126.866 126.754 126.2 126.218 125.719 125.711 
128.861 128.073 127.937 127.312 127.301 126.76 126.639 126.088 125.921 
130.344 129.49 129.353 128.588 128.552 127.89 127.794 127.083 126.902 
126.29 126.412 131.942 131.072 130.999 130.133 130.128 129.312 129.324 
128.468 128.459 127.604 127.823 127.243 127.897 133.543 132.719 132.698 
131.848 131.893 131.039 131.126 130.228 130.344 129.431 129.716 128.962 
129.546 129.06 129.826 135.011 134.285 134.286 133.523 133.596 132.816 
132.935 132.1 132.232 131.374 131.616 130.87 131.318 130.747 131.323 
130.887 131.461 136.314 135.688 135.738 135.062 135.178 134.474 134.635 
133.876 134.032 133.223 133.425 132.676 133.018 132.406 132.854 132.342 
132.803 132.358 132.822 133.697 133.719 134.149 135.072 133.85 134.254 
135.214 135.601 136.609 134.085 134.469 135.541 135.882 136.963 137.303 
138.592 134.489 134.807 135.976 136.326 137.527 137.823 139.169 139.599 
141.28 135.047 135.302 136.472 136.829 138.112 138.461 139.847 140.261 
141.905 142.496 144.249 135.61 135.866 136.986 137.338 138.602 139.02 
140.41 140.89 142.44 143.043 144.671 145.285 146.698 136.098 136.37 
137.449 137.81 139.002 139.442 140.762 141.313 142.76 143.408 144.867 
145.526 146.843 147.4 148.543 136.562 136.807 137.83 138.201 139.325 
139.765 140.967 141.524 142.85 143.535 144.874 145.557 146.776 147.402 
148.559 149.144 150.342 137.039 137.237 138.171 138.52 139.574 140.009 
141.107 141.626 142.813 143.48 144.746 145.454 146.655 147.293 148.455 
149.096 150.352 151.015 152.323 134.059 135.45 134.889 135.243 136.981 
136.35 136.754 136.206 136.638 139.027 138.109 138.563 137.837 138.336 
137.684 138.085 141.848 140.601 141.111 139.991 140.513 139.584 140.044 
139.198 139.518 144.823 143.639 144.112 142.831 143.239 142.042 142.437 
141.369 141.692 140.688 140.909 147.18 146.342 146.706 145.66 145.923 
144.783 145.065 143.916 144.187 143.031 143.218 142.099 142.224 149.082 
148.42 148.862 147.985 148.341 147.323 147.72 146.599 146.962 145.696 
145.888 144.565 144.639 143.417 143.47 151.063 150.403 151.123 150.241 
150.882 149.855 150.517 149.396 149.977 148.661 148.935 147.427 147.424 
145.96 145.898 144.63 144.594 153.156 152.568 153.494 152.707 153.525 
152.579 153.331 152.294 152.917 151.72 152.018 150.549 150.466 148.85 
148.598 147.111 146.897 145.648 145.502 154.605 156.838 155.563 155.041 
158.805 157.712 157.291 155.895 155.165 160.61 159.61 159.224 157.998 
157.31 155.874 154.984 162.065 161.292 160.797 159.729 158.927 157.735 
156.806 155.492 154.461 162.534 162.267 161.637 160.94 159.987 159.041 
157.995 156.954 155.863 154.686 153.44 162.001 162.154 161.514 161.264 
160.359 159.779 158.767 157.928 156.806 155.784 154.462 153.295 151.791 
160.948 161.339 160.845 160.867 160.134 159.877 159.017 158.489 157.396 
156.552 155.13 154.061 152.43 151.326 149.75 159.538 160.147 159.797 
160.102 159.482 159.491 158.633 158.418 157.266 156.773 155.243 154.44 
152.677 151.733 150.069 149.189 147.825 157.906 158.608 158.275 158.852 
158.255 158.577 157.641 157.689 156.412 156.206 154.63 154.157 152.41 
151.729 150.076 149.358 148.003 147.35 146.277 154.66 155.222 155.637 
156.855 155.346 156.005 157.243 157.678 158.753 154.999 155.878 157.132 
157.837 158.997 159.478 160.529 154.348 155.358 156.654 157.547 158.764 
159.509 160.654 161.194 162.048 153.46 154.597 155.922 156.969 158.158 
159.059 160.095 160.944 161.78 162.344 162.627 152.213 153.497 154.764 
156.052 157.166 158.226 159.009 159.976 160.577 161.53 161.83 162.365 
162.117 150.799 152.033 153.146 154.592 155.663 156.95 157.623 158.623 
158.986 159.971 160.209 161.114 161.018 161.487 160.979 149.614 150.598 
151.5 152.811 153.797 155.201 155.95 157.085 157.459 158.36 158.557 
159.418 159.432 160.125 159.771 160.156 159.515 148.692 149.473 150.147 
151.189 151.963 153.258 153.996 155.282 155.784 156.826 157.081 157.91 
157.967 158.625 158.392 158.844 158.314 158.601 157.92 137.573 138.763 
138.321 138.722 140.107 139.629 140.09 139.625 140.129 141.493 141.052 
141.551 141.067 141.58 141.108 141.651 142.749 142.419 142.96 142.533 
143.057 142.589 143.169 142.703 143.346 143.887 143.637 144.272 143.924 
144.536 144.096 144.771 144.311 145.064 144.565 145.298 145.022 144.804 
145.569 145.286 146.067 145.664 146.493 146.038 146.937 146.422 147.237 
146.612 147.261 146.127 145.959 146.798 146.627 147.557 147.28 148.245 
147.86 148.872 148.401 149.339 148.688 149.403 148.6 149.157 147.131 
147.025 147.86 147.802 148.798 148.726 149.788 149.585 150.643 150.314 
151.338 150.831 151.696 150.917 151.581 150.622 151.177 148.006 147.969 
148.794 148.792 149.811 149.875 151.041 151.027 152.161 151.981 153.031 
152.717 153.676 153.161 153.951 153.15 153.761 152.746 153.23 137.175 
136.915 137.457 138.297 136.524 137.15 138.021 138.625 139.57 136.103 
136.726 137.646 138.314 139.286 139.936 140.914 135.872 136.377 137.282 
137.928 138.928 139.617 140.597 141.244 142.152 135.792 136.234 137.07 
137.613 138.565 139.234 140.221 140.895 141.806 142.416 143.262 135.679 
136.15 136.964 137.442 138.295 138.875 139.816 140.494 141.435 142.073 
142.94 143.519 144.362 135.536 136.003 136.827 137.316 138.128 138.629 
139.484 140.091 141.013 141.679 142.568 143.191 144.032 144.624 145.452 
135.472 135.864 136.637 137.132 137.941 138.449 139.263 139.798 140.646 
141.253 142.095 142.744 143.551 144.216 145.023 145.666 146.449 135.51 
135.818 136.501 136.928 137.685 138.203 138.999 139.551 140.356 140.916 
141.683 142.255 142.977 143.625 144.373 145.105 145.879 146.578 147.299 
135.772 136.542 136.329 136.75 137.414 137.169 137.573 137.367 137.875 
138.269 138.061 138.46 138.217 138.697 138.561 139.166 139.104 138.925 
139.38 139.124 139.605 139.422 140.052 139.933 140.569 140 139.814 
140.346 140.092 140.628 140.398 141.054 140.891 141.554 141.352 141.905 
140.906 140.735 141.271 141.068 141.628 141.442 142.107 141.949 142.604 
142.372 142.894 142.629 143.129 141.764 141.612 142.11 141.939 142.453 
142.343 142.983 142.932 143.591 143.421 143.932 143.637 144.123 143.88 
144.477 142.559 142.442 142.941 142.761 143.244 143.107 143.725 143.71 
144.425 144.356 144.947 144.694 145.207 144.932 145.554 145.341 146.012 
143.194 143.173 143.69 143.575 144.072 143.922 144.539 144.48 145.252 
145.211 145.924 145.729 146.306 146.038 146.655 146.445 147.124 146.903 
147.491 143.64 144.558 144.14 144.211 145.81 145.195 145.296 144.731 
144.707 147.437 146.652 146.735 145.993 146.048 145.327 145.31 149.093 
148.358 148.429 147.591 147.659 146.857 146.927 146.102 146.103 150.687 
150.027 150.22 149.356 149.411 148.552 148.62 147.797 147.78 146.912 
146.774 152.463 151.796 152.235 151.318 151.494 150.451 150.503 149.531 
149.489 148.562 148.365 147.446 147.173 154.238 153.696 154.316 153.521 
153.905 152.794 152.914 151.665 151.609 150.405 150.213 149.102 148.839 
147.83 147.58 155.706 155.358 156.02 155.518 156.013 155.194 155.393 
154.223 154.148 152.783 152.538 151.173 150.862 149.641 149.355 148.303 
148.056 156.973 156.704 157.365 157.028 157.526 157.012 157.22 156.42 
156.337 155.236 154.937 153.605 153.164 151.787 151.321 150.112 149.709 
148.706 148.361 143.387 143.186 143.602 144.273 142.962 143.407 144.188 
144.638 145.537 142.761 143.228 144.113 144.627 145.684 146.144 147.201 
142.576 143.069 144.011 144.588 145.685 146.267 147.351 147.826 148.796 
142.386 142.902 143.843 144.459 145.502 146.152 147.144 147.763 148.698 
149.258 150.214 142.137 142.684 143.574 144.216 145.191 145.862 146.796 
147.431 148.371 149.021 150.085 150.719 151.859 141.793 142.359 143.155 
143.822 144.718 145.445 146.383 147.065 148.066 148.738 149.905 150.602 
151.849 152.473 153.618 141.383 141.935 142.639 143.293 144.115 144.873 
145.807 146.592 147.616 148.408 149.565 150.389 151.622 152.385 153.519 
154.129 155.096 140.955 141.479 142.14 142.748 143.541 144.255 145.179 
145.974 146.976 147.832 148.901 149.84 150.976 151.933 153.039 153.862 
154.852 155.476 156.356 142.803 141.804 142.418 142.587 140.688 141.362 
141.563 142.173 142.327 139.486 140.195 140.405 141.098 141.286 141.905 
142.073 138.243 138.971 139.179 139.904 140.139 140.828 141.017 141.643 
141.839 136.961 137.726 137.965 138.69 138.94 139.665 139.898 140.561 
140.735 141.386 141.607 135.616 136.413 136.652 137.438 137.673 138.45 
138.67 139.395 139.539 140.216 140.361 141.101 141.333 134.304 135.046 
135.23 136.038 136.245 137.092 137.294 138.096 138.198 138.917 138.985 
139.752 139.937 140.779 141.017 133.161 133.793 133.957 134.652 134.846 
135.63 135.845 136.662 136.787 137.522 137.561 138.304 138.455 139.32 
139.599 140.455 140.679 132.17 132.743 132.944 133.526 133.724 134.349 
134.543 135.255 135.413 136.13 136.212 136.908 137.05 137.854 138.156 
139.036 139.343 140.13 140.311 131.681 131.208 131.821 132.511 130.593 
131.322 132.074 132.649 133.28 129.878 130.624 131.374 132.094 132.751 
133.361 133.999 129.425 129.969 130.689 131.348 132.05 132.733 133.424 
134.081 134.784 129.384 129.719 130.443 130.869 131.624 132.145 132.918 
133.515 134.283 134.895 135.607 129.497 129.776 130.487 130.82 131.572 
131.95 132.732 133.18 133.992 134.499 135.299 135.795 136.542 129.7 
129.909 130.589 130.888 131.608 131.96 132.708 133.103 133.903 134.346 
135.202 135.648 136.499 136.897 137.708 130.14 130.22 130.923 131.083 
131.834 132.061 132.844 133.14 133.972 134.342 135.222 135.639 136.519 
136.933 137.759 138.136 138.891 130.75 130.773 131.502 131.572 132.36 
132.461 133.283 133.439 134.303 134.541 135.422 135.734 136.579 136.948 
137.728 138.126 138.834 139.222 139.854 131.31 132.403 131.941 132.109 
133.477 133.043 133.28 132.809 132.989 134.708 134.14 134.365 133.94 
134.206 133.726 133.919 136.366 135.565 135.711 135.08 135.361 134.912 
135.227 134.713 134.942 138.171 137.393 137.56 136.679 136.868 136.18 
136.516 136.012 136.338 135.781 136.024 139.708 139.132 139.431 138.636 
138.808 137.919 138.141 137.425 137.742 137.159 137.427 136.848 137.091 
141.201 140.628 141.018 140.397 140.673 139.879 140.071 139.221 139.458 
138.695 138.943 138.258 138.476 137.889 138.157 142.91 142.23 142.622 
141.983 142.335 141.647 141.903 141.121 141.34 140.526 140.741 139.921 
140.097 139.337 139.537 138.944 139.222 144.658 143.975 144.328 143.655 
144.001 143.32 143.596 142.867 143.067 142.321 142.504 141.738 141.883 
141.061 141.167 140.402 140.568 139.982 140.225 140.908 141.349 141.446 
142.154 142.044 142.059 142.853 142.851 143.631 142.779 142.833 143.678 
143.681 144.525 144.476 145.311 143.386 143.516 144.384 144.49 145.402 
145.433 146.329 146.255 147.125 143.994 144.131 145.072 145.195 146.223 
146.322 147.35 147.325 148.269 148.141 149.06 144.599 144.798 145.845 
145.983 147.123 147.239 148.429 148.44 149.53 149.384 150.383 150.187 
151.162 145.047 145.37 146.475 146.752 147.948 148.181 149.479 149.611 
150.894 150.802 151.956 151.683 152.733 152.407 153.327 145.392 145.766 
146.913 147.3 148.582 148.953 150.38 150.673 152.164 152.253 153.642 
153.434 154.608 154.176 155.116 154.59 155.292 145.731 146.114 147.312 
147.738 149.146 149.603 151.212 151.618 153.286 153.541 155.089 155.101 
156.378 156.089 157.031 156.486 157.131 156.461 156.9 124.225 123.573 
123.933 124.166 123.512 123.503 123.651 123.955 124.26 124.082 123.748 
123.79 123.704 123.897 124.149 124.567 124.932 124.475 124.441 124.092 
124.123 124.015 124.306 124.605 125.214 125.863 125.335 125.268 124.832 
124.789 124.43 124.54 124.525 125.039 125.429 126.21 126.96 126.319 
126.24 125.718 125.727 125.235 125.304 124.968 125.328 125.415 126.145 
126.55 127.378 128.124 127.467 127.377 126.791 126.856 126.314 126.464 
125.945 126.249 125.967 126.582 126.673 127.497 127.797 128.592 129.186 
128.594 128.506 127.947 128.018 127.513 127.709 127.202 127.5 127.065 
127.583 127.381 128.138 128.163 128.981 129.11 129.843 130.187 129.628 
129.558 129.028 129.091 128.64 128.837 128.411 128.679 128.275 128.686 
128.428 129.075 128.987 129.758 129.727 130.448 130.434 131.054 124.804 
124.753 125.099 125.775 124.812 125.095 125.787 126.122 126.775 125.096 
125.231 125.907 126.181 126.881 127.141 127.766 125.734 125.655 126.265 
126.381 127.076 127.302 127.989 128.192 128.854 126.714 126.454 126.967 
126.857 127.475 127.577 128.282 128.468 129.179 129.362 130.077 127.845 
127.52 127.974 127.681 128.197 128.101 128.783 128.862 129.598 129.73 
130.468 130.632 131.36 128.976 128.648 129.087 128.739 129.178 128.93 
129.533 129.481 130.195 130.233 130.944 131.047 131.774 131.923 132.611 
130.102 129.752 130.172 129.835 130.238 129.93 130.428 130.279 130.915 
130.883 131.53 131.552 132.209 132.327 133.008 133.142 133.748 131.205 
130.843 131.21 130.889 131.266 130.952 131.377 131.161 131.718 131.621 
132.227 132.168 132.761 132.779 133.413 133.523 134.146 134.236 134.762 
125.089 126.039 125.648 125.868 126.994 126.604 126.795 126.449 126.74 
127.934 127.528 127.718 127.374 127.674 127.385 127.805 129.022 128.528 
128.724 128.32 128.658 128.355 128.82 128.558 129.1 130.278 129.731 
129.97 129.457 129.817 129.422 129.919 129.619 130.184 129.927 130.541 
131.561 131.034 131.306 130.79 131.171 130.712 131.2 130.802 131.348 
131.031 131.644 131.411 132.084 132.783 132.296 132.547 132.084 132.455 
132.059 132.537 132.137 132.626 132.235 132.791 132.517 133.189 132.988 
133.672 133.902 133.468 133.706 133.271 133.615 133.262 133.731 133.403 
133.865 133.488 133.956 133.649 134.256 134.069 134.743 134.546 135.144 
134.901 134.529 134.793 134.402 134.753 134.4 134.858 134.542 135.005 
134.656 135.081 134.757 135.274 135.079 135.706 135.556 136.14 135.925 
136.419 142.687 142.049 142.155 141.657 141.263 141.431 140.944 141.063 
140.536 140.377 140.582 140.097 140.29 139.777 139.903 139.346 139.417 
139.623 139.08 139.35 138.818 139.053 138.459 138.627 138.038 138.518 
138.645 138.03 138.26 137.689 137.978 137.346 137.592 136.932 137.211 
136.65 137.727 137.798 137.145 137.251 136.65 136.858 136.241 136.439 
135.756 136.002 135.414 135.783 135.297 136.899 137.004 136.327 136.398 
135.742 135.889 135.279 135.424 134.758 134.892 134.283 134.559 134.102 
134.47 134.047 136.043 136.154 135.478 135.545 134.841 134.966 134.327 
134.493 133.844 133.965 133.332 133.517 133.035 133.345 132.961 133.294 
132.92 135.303 135.361 134.73 134.736 134.042 134.079 133.432 133.554 
132.942 133.066 132.448 132.594 132.08 132.336 131.948 132.263 131.903 
132.226 131.895 
POINT_DATA 1002
SCALARS Distance double
LOOKUP_TABLE default
131.77 130.728 130.728 131.722 130.696 132.822 131.699 130.595 132.831 
133.924 131.761 130.579 132.984 134.213 135.395 132.026 130.892 133.267 
134.606 135.948 137.216 132.484 131.405 133.649 134.965 136.357 137.643 
138.827 132.917 131.789 134.089 135.327 136.679 137.94 139.078 140.205 
133.293 132.114 134.588 135.832 137.122 138.402 139.554 140.692 141.816 
133.76 132.612 135.145 136.484 137.755 139.05 140.286 141.471 142.622 
143.627 134.317 133.272 135.651 137.06 138.411 139.752 141.057 142.296 
143.484 144.526 145.339 129.749 129.782 128.763 128.76 127.643 129.705 
127.564 126.451 128.602 129.473 126.358 125.423 127.451 128.355 129.431 
125.273 124.511 126.379 127.384 128.418 129.853 124.26 123.688 125.311 
126.397 127.423 128.818 130.394 123.61 123.347 124.448 125.417 126.24 
127.506 129.244 130.785 123.676 123.719 124.223 125.005 125.464 126.175 
127.848 129.763 131.262 124.31 124.538 124.589 125.256 125.628 125.755 
126.752 128.696 130.543 131.965 125.279 125.195 126.116 126.203 127.086 
125.653 127.314 128.284 126.751 126.256 128.626 129.677 127.877 127.28 
126.387 130.174 131.186 129.265 128.517 127.591 126.737 131.862 132.783 
130.966 130.16 129.302 128.492 128.247 133.516 134.335 132.722 131.997 
131.229 130.506 130.155 130.243 135.009 135.695 134.338 133.734 133.079 
132.392 131.955 131.851 131.882 136.364 136.889 135.844 135.356 134.82 
134.202 133.686 133.419 133.3 133.233 134.591 134.628 135.998 134.838 
136.18 137.653 135.156 136.632 138.081 140.048 135.585 137.192 138.76 
140.674 143.127 136.124 137.714 139.435 141.354 143.697 145.93 136.658 
138.182 139.915 141.887 144.087 146.235 147.932 137.099 138.595 140.234 
142.143 144.259 146.261 148.035 149.667 137.482 138.914 140.472 142.203 
144.21 146.158 147.914 149.735 151.633 137.867 139.167 140.647 142.208 
144.033 146.001 147.811 149.647 151.686 153.665 135.763 137.294 137.207 
139.386 139.016 138.79 142.378 141.579 140.951 140.396 145.42 144.544 
143.601 142.765 141.921 147.682 147.021 146.21 145.39 144.414 143.325 
149.653 149.26 148.749 148.211 147.297 145.965 144.636 151.903 151.827 
151.572 151.243 150.49 149.032 147.289 145.777 154.189 154.409 154.352 
154.079 153.439 152.137 150.24 148.277 146.647 155.975 156.54 158.01 
158.595 159.816 156.748 160.426 161.594 158.659 156.533 161.86 162.745 
160.11 158.025 155.876 162.199 162.661 160.855 159.002 156.975 154.754 
161.606 161.74 160.742 159.486 157.824 155.639 153.006 160.675 160.433 
160.257 159.406 158.17 156.215 153.554 150.742 159.34 158.849 159.38 
158.815 157.691 155.961 153.574 150.917 148.558 157.646 157.232 157.848 
157.55 156.579 154.993 152.957 150.711 148.609 146.85 154.357 156.594 
154.73 156.705 154.617 158.442 156.327 154.067 158.375 160.187 155.696 
153.299 157.952 159.978 161.811 154.813 152.282 157.274 159.261 161.059 
162.482 153.412 150.958 156.085 158.154 159.624 161.062 161.957 151.744 
149.704 154.297 156.624 158.102 159.242 160.335 160.772 150.358 148.789 
152.409 154.701 156.541 157.747 158.692 159.28 159.272 149.282 148.012 
150.812 152.681 154.622 156.204 157.305 157.917 157.992 157.691 137.965 
139.134 139.196 140.563 140.566 140.578 142.031 141.886 142.064 142.104 
143.346 143.02 143.51 143.606 143.803 144.554 144.095 144.926 145.183 
145.533 145.864 145.772 145.208 146.393 146.897 147.411 147.876 147.977 
146.908 146.277 147.727 148.564 149.286 149.93 150.222 150.023 147.901 
147.225 148.782 149.895 150.917 151.741 152.359 152.524 152.214 136.677 
137.734 136.339 137.382 135.855 138.952 136.946 135.512 138.614 140.296 
136.677 135.431 138.228 139.946 141.555 136.6 135.351 137.94 139.533 
141.192 142.678 136.504 135.185 137.792 139.157 140.765 142.356 143.791 
136.325 135.101 137.656 138.943 140.358 141.923 143.432 144.879 136.17 
135.147 137.419 138.753 140.1 141.486 142.883 144.345 145.851 136.139 