# vtk DataFile Version 4.0
vtk output
ASCII
DATASET POLYDATA
POINTS 1002 float
-84.1114 -85.9955 73.6166 -84.2208 -85.3281 72.4022 -83.6969 -85.2491 72.9735 
-83.6248 -85.9724 74.3678 -83.1809 -85.211 73.7241 -84.0179 -86.7662 75.1078 
-83.1208 -86.0214 75.2728 -82.6366 -85.1122 74.6959 -83.5927 -86.8318 76.0343 
-84.0007 -87.7569 76.8844 -82.5405 -86.0594 76.2889 -82.107 -85.0135 75.775 
-83.0625 -87.0183 77.0125 -83.5422 -87.9453 77.8606 -83.9038 -89.0006 78.6842 
-82.0949 -86.0853 77.468 -81.7633 -85.0851 77.0416 -82.4852 -87.181 78.081 
-82.9226 -88.26 78.8452 -83.333 -89.3127 79.6233 -83.6525 -90.4185 80.3397 
-81.9033 -86.1663 78.94 -81.4998 -85.2609 78.58 -82.149 -87.2393 79.3976 
-82.3701 -88.538 80.0085 -82.7148 -89.7915 80.7057 -83.0999 -90.8942 81.3356 
-83.3896 -92.0471 81.9512 -81.6203 -86.3065 80.4269 -81.0762 -85.3501 79.9962 
-81.9301 -87.3719 80.8581 -82.0456 -88.774 81.3282 -82.2381 -90.3345 81.9617 
-82.6175 -91.5707 82.5968 -82.9531 -92.6855 83.0971 -83.0866 -93.9738 83.5761 
-81.1626 -86.5091 81.5282 -80.6265 -85.4009 81.0165 -81.5588 -87.7692 82.1344 
-81.7583 -89.2115 82.6466 -81.9049 -90.9056 83.1838 -82.1861 -92.3455 83.8444 
-82.5503 -93.4548 84.4355 -82.7267 -94.7515 84.87 -82.6989 -96.172 85.2413 
-80.8634 -86.8103 82.3967 -80.4068 -85.5697 81.9319 -81.2379 -88.3644 83.1601 
-81.4732 -89.918 83.9172 -81.6577 -91.5515 84.4807 -81.8585 -93.1172 85.0153 
-82.1344 -94.3538 85.6228 -82.3795 -95.6531 86.1836 -82.431 -97.1955 86.614 
-82.398 -98.546 86.926 -80.8267 -87.2198 83.3977 -80.4284 -85.917 83.0226 
-81.147 -88.9732 84.1371 -81.3062 -90.6857 85.0442 -81.4623 -92.2498 85.7963 
-81.6766 -93.84 86.3334 -81.8776 -95.3207 86.822 -82.0609 -96.7488 87.3348 
-82.179 -98.3574 87.8157 -82.2091 -99.8881 88.181 -82.2679 -100.98 88.3929 
-83.9156 -84.5809 71.5407 -83.3508 -84.4656 72.1194 -83.5366 -83.7664 70.6356 
-82.9629 -83.5464 71.3745 -83.2072 -82.8943 69.935 -82.8197 -84.3131 73.0145 
-82.6077 -82.5687 70.8926 -82.8584 -81.9669 69.4318 -82.4821 -83.2716 72.5137 
-82.3179 -84.0727 74.1646 -82.196 -81.5717 70.4952 -82.3719 -80.9404 68.9549 
-82.1428 -82.2209 72.161 -82.0984 -82.9971 73.8008 -81.8598 -83.974 75.3639 
-81.8297 -80.4483 70.2616 -82.1361 -79.8238 68.9148 -81.6882 -81.1294 71.8478 
-81.7702 -81.9558 73.5324 -81.6458 -82.9861 75.1434 -81.4299 -84.1592 76.8017 
-81.9552 -79.2738 70.6879 -82.5412 -78.8522 69.6683 -81.4205 -79.9472 71.9456 
-81.259 -80.868 73.5032 -81.2386 -82.008 75.1809 -81.0146 -83.2434 76.8213 
-80.9252 -84.3821 78.4691 -82.5406 -78.4471 71.5824 -83.2459 -78.3266 70.6962 
-81.7198 -78.9637 72.6175 -81.0765 -79.8717 73.9462 -80.845 -81.0327 75.5231 
-80.6538 -82.3339 77.0982 -80.4243 -83.5603 78.5665 -80.4221 -84.5062 79.8828 
-83.1196 -78.1849 72.3704 -83.8169 -78.2615 71.5131 -82.3189 -78.4765 73.3976 
-81.4809 -79.2299 74.6456 -80.9425 -80.2439 76.0499 -80.6738 -81.4452 77.4656 
-80.3784 -82.8051 78.8072 -80.123 -83.9179 80.0067 -80.1281 -84.6679 81.0048 
-83.5878 -78.284 73.0501 -84.2826 -78.4117 72.2366 -82.871 -78.3988 74.0938 
-82.1083 -78.9297 75.3426 -81.4619 -79.7379 76.6208 -81.0737 -80.6928 77.8379 
-80.7775 -81.972 79.0657 -80.3985 -83.3667 80.2829 -80.0888 -84.3126 81.3179 
-80.0993 -84.9521 82.1614 -84.3858 -78.4986 73.6384 -83.6316 -78.4675 74.659 
-84.6134 -78.633 75.467 -83.7943 -78.7412 76.6838 -84.8206 -78.9651 77.3717 
-82.8795 -78.73 75.9316 -83.9967 -79.2502 78.5239 -84.925 -79.66 78.8536 
-83.0162 -79.1492 77.9274 -82.1701 -79.3571 77.2066 -84.22 -80.1559 79.8854 
-85.0643 -80.6293 80.1602 -83.2238 -79.8924 79.5502 -82.2933 -79.9142 78.9706 
-81.6152 -80.1758 78.3222 -84.4571 -81.2787 81.3653 -85.2528 -81.636 81.8288 
-83.4987 -81.0391 80.9936 -82.4514 -80.9014 80.5911 -81.7199 -80.8853 80.0421 
-81.2551 -81.2657 79.4859 -84.5899 -82.3297 83.1999 -85.3798 -82.5837 83.6244 
-83.7613 -82.1747 82.7537 -82.7464 -82.0909 82.3456 -81.8688 -81.9581 81.9263 
-81.3611 -82.1374 81.3922 -80.9002 -82.7627 80.8069 -84.6795 -83.3635 84.8501 
-85.4956 -83.5757 85.0546 -83.9323 -83.1835 84.5718 -83.0909 -83.1176 84.179 
-82.2137 -83.045 83.7672 -81.5582 -83.1286 83.3299 -81.0212 -83.5981 82.7441 
-80.4625 -84.0892 82.0171 -84.8653 -84.5755 86.0752 -85.6366 -84.7379 86.1388 
-84.1319 -84.3939 85.9981 -83.3751 -84.2759 85.7645 -82.5923 -84.2099 85.3741 
-81.9179 -84.2281 84.9447 -81.3012 -84.4723 84.4609 -80.6685 -84.7716 83.7888 
-80.2115 -84.8817 82.9412 -85.0675 -85.9056 87.1049 -85.7167 -86.0006 87.1171 
-84.3972 -85.8176 87.0835 -83.6635 -85.7471 86.9755 -82.8954 -85.6883 86.7343 
-82.2484 -85.6537 86.371 -81.6856 -85.7014 85.9162 -81.0699 -85.7617 85.3609 
-80.5569 -85.723 84.6253 -80.3563 -85.7098 83.7627 -80.7898 -87.2875 84.5321 
-80.7346 -87.094 85.3693 -81.0529 -89.3117 86.3834 -80.929 -87.1719 86.1836 
-81.014 -89.1946 87.209 -81.0421 -91.7114 88.2941 -81.4086 -87.3106 86.846 
-81.1972 -89.2236 87.8822 -81.0898 -91.6169 88.9929 -81.0042 -94.2095 89.9768 
-81.9523 -87.3395 87.3944 -81.6152 -89.1978 88.458 -81.3284 -91.4153 89.4547 
-81.2344 -94.0686 90.4344 -81.2013 -96.8296 91.3412 -82.525 -87.3458 87.7465 
-82.1504 -89.1176 88.8803 -81.762 -91.1398 89.8947 -81.5659 -93.7202 90.7196 
-81.5532 -96.6753 91.5717 -81.3879 -99.5068 92.4098 -83.2836 -87.365 87.9037 
-82.8607 -89.1116 88.9601 -82.3881 -91.0337 90.1231 -82.0056 -93.4319 91.1262 
-81.8861 -96.315 91.9028 -81.7452 -99.2907 92.6374 -81.3867 -102.005 93.2512 
-84.0888 -87.3211 88.0388 -83.6944 -89.0359 88.984 -83.1921 -91.0116 90.0522 
-82.6263 -93.341 91.2719 -82.2405 -95.9525 92.3455 -82.0297 -98.7712 93.0963 
-81.7085 -101.626 93.6242 -81.3493 -104.343 93.8973 -84.7556 -87.2504 88.151 
-84.3945 -88.8024 89.1711 -83.9593 -90.7511 90.1026 -83.3953 -93.1498 91.1446 
-82.7997 -95.6163 92.3533 -82.3676 -98.0941 93.3869 -82.0022 -100.882 94.0167 
-81.6114 -103.824 94.3003 -81.3323 -106.641 94.283 -85.3391 -87.235 88.1615 
-84.9386 -88.5852 89.2767 -84.5435 -90.3259 90.2495 -84.1115 -92.6894 91.1028 
-83.5604 -95.2016 92.0981 -82.985 -97.4467 93.2106 -82.4819 -99.9444 94.071 
-82.0065 -102.966 94.4968 -81.6023 -106.027 94.5697 -81.3353 -108.788 94.3928 
-81.1102 -89.1049 85.12 -81.1191 -91.4155 87.0722 -81.2091 -91.1071 85.9553 
-80.9096 -93.9135 88.9129 -81.0062 -93.438 87.7385 -81.2335 -92.8543 86.8165 
-80.9179 -96.6537 90.5872 -80.8673 -96.1254 89.3771 -81.1304 -95.3674 88.4336 
-81.4723 -94.5714 87.5661 -81.07 -99.5722 92.0354 -80.9738 -99.2339 91.0486 
-81.2098 -98.5082 90.0352 -81.5761 -97.5251 89.2921 -81.7768 -96.4232 88.1976 
-81.0571 -102.389 93.0017 -80.943 -102.376 92.37 -81.1819 -101.904 91.5049 
-81.581 -101.019 90.8449 -81.8276 -99.772 89.9937 -81.913 -98.2537 88.6693 
-81.0785 -105.109 93.5318 -80.8992 -105.539 92.9687 -80.974 -105.401 92.2549 
-81.2699 -104.672 91.6986 -81.5647 -103.513 91.1555 -81.7623 -101.956 90.2073 
-81.9495 -100.116 89.0059 -81.1787 -107.773 93.847 -81.053 -108.733 93.1939 
-80.9839 -109.139 92.4336 -81.0463 -108.684 91.8233 -81.2119 -107.519 91.405 
-81.4298 -105.917 90.8912 -81.7064 -103.962 90.1641 -81.9895 -101.841 89.2724 
-81.161 -110.166 94.0029 -81.047 -111.482 93.3691 -80.9379 -112.387 92.5833 
-80.9116 -112.461 91.856 -81.0258 -111.599 91.3227 -81.2172 -109.987 90.9197 
-81.4814 -107.854 90.5531 -81.8127 -105.45 90.1231 -82.0935 -103.073 89.4321 
-81.1983 -111.694 94.1335 -80.865 -113.293 93.6443 -80.975 -114.437 93.7503 
-80.3233 -115.941 93.1665 -80.7932 -116.599 93.2465 -80.5464 -114.548 92.9178 
-79.9603 -117.805 92.4314 -80.8871 -118.073 92.4874 -79.7007 -116.647 92.2996 
-80.3579 -115.091 92.0874 -80.1586 -119.372 91.2713 -81.1748 -118.987 91.5035 
-79.2393 -118.18 91.1927 -79.54 -116.711 91.3226 -80.5261 -114.838 91.3489 
-80.612 -120.581 90.0659 -81.4605 -119.146 90.6484 -79.5556 -120.057 89.7463 
-79.2448 -118.222 90.072 -80.1065 -116.37 90.5994 -80.9502 -113.695 90.816 
-81.1032 -120.28 89.4099 -81.9269 -118.262 90.154 -80.2565 -121.04 88.8151 
-79.7312 -119.718 88.9727 -80.1275 -117.543 89.7298 -80.958 -114.954 90.2937 
-81.3701 -111.53 90.4997 -81.8883 -118.428 89.2455 -82.7254 -116.686 89.8794 
-81.1293 -119.718 88.6508 -80.6226 -119.425 88.6241 -80.6615 -117.734 89.2248 
-81.1921 -115.334 89.8622 -81.6435 -112.183 90.1928 -81.7699 -108.683 90.2986 
-82.9166 -116.267 89.1327 -83.6275 -114.978 89.6144 -82.1757 -117.316 88.6714 
-81.5961 -117.436 88.5911 -81.3682 -116.44 88.9742 -81.5586 -114.676 89.472 
-81.9424 -112.068 89.831 -82.1516 -108.83 90.0253 -82.1332 -105.745 89.9335 
-83.8576 -114.315 88.9265 -84.3939 -113.259 89.3233 -83.1955 -115.147 88.5738 
-82.5328 -115.335 88.4732 -82.0561 -114.647 88.6709 -81.9107 -113.319 88.9926 
-82.1296 -111.334 89.3201 -82.4422 -108.561 89.5848 -82.5083 -105.611 89.583 
-82.3666 -103.106 89.1583 -81.6452 -109.067 94.4834 -81.6213 -111.868 94.1886 
-82.2905 -109.001 94.4565 -82.3437 -111.533 94.135 -83.0695 -108.439 94.4131 
-81.57 -114.269 93.7826 -83.0538 -110.711 94.0701 -83.6695 -107.359 94.3508 
-82.2874 -113.458 93.6902 -81.5371 -115.995 93.2256 -83.6498 -109.38 94.0224 
-84.1317 -105.837 94.1186 -83.0016 -112.336 93.6269 -82.2253 -114.754 93.101 
-81.6373 -116.999 92.4782 -84.278 -107.379 93.853 -84.6403 -104.145 93.612 
-83.8646 -110.676 93.638 -83.1776 -113.427 93.1256 -82.4193 -115.555 92.4927 
-81.891 -117.392 91.7153 -84.9284 -105.191 93.4546 -85.2427 -102.609 92.9407 
-84.6706 -108.164 93.4852 -84.277 -111.345 93.1731 -83.615 -114.07 92.6675 
-82.8963 -115.855 91.9652 -82.3243 -117.147 91.1011 -85.6425 -103.427 92.9568 
-86.0037 -101.138 92.2916 -85.2918 -105.775 93.1548 -84.9194 -108.469 92.9376 
-84.5157 -111.507 92.6143 -84.0369 -114.005 92.1132 -83.4775 -115.411 91.3778 
-82.9887 -116.192 90.6116 -86.4733 -101.782 92.3948 -86.881 -99.4965 91.6677 
-86.0221 -104.013 92.8004 -85.4438 -106.133 92.6478 -84.908 -108.502 92.2692 
-84.6353 -111.072 91.9099 -84.4302 -113.097 91.3901 -84.0847 -114.219 90.7736 
-83.767 -114.753 90.204 -87.261 -99.9079 91.6295 -87.6904 -97.8319 90.9748 
-86.8434 -102.169 92.2328 -86.288 -104.288 92.3724 -85.5884 -106.225 92.0333 
[...]
CELL_DATA 2000
SCALARS Distance double
LOOKUP_TABLE default
139.359 139.388 139.713 140.458 139.523 139.835 140.653 140.951 141.833 
139.713 140.025 140.909 141.225 142.161 142.47 143.446 140.091 140.303 
141.231 141.525 142.508 142.827 143.818 144.128 145.103 140.784 140.861 
141.801 141.96 142.975 143.229 144.284 144.554 145.582 145.82 146.818 
141.502 141.627 142.556 142.654 143.65 143.812 144.933 145.151 146.296 
146.456 147.537 147.66 148.706 141.981 142.239 143.217 143.409 144.437 
144.581 145.728 145.919 147.145 147.304 148.465 148.537 149.638 149.684 
150.761 142.434 142.687 143.802 144.075 145.272 145.443 146.672 146.815 
148.079 148.219 149.43 149.517 150.676 150.725 151.891 151.881 153.003 
143.149 143.288 144.529 144.79 146.158 146.367 147.7 147.834 149.133 
149.235 150.496 150.551 151.78 151.819 153.077 153.101 154.338 154.25 
155.358 138.674 137.54 138.275 138.635 136.387 137.11 137.488 138.278 
138.719 135.328 136.002 136.378 137.142 137.609 138.396 138.888 134.245 
134.954 135.333 136.084 136.579 137.34 137.865 138.626 139.239 133.241 
133.875 134.277 135.026 135.553 136.354 136.94 137.69 138.334 139.122 
139.897 132.85 133.124 133.533 134.051 134.594 135.345 136.028 136.821 
137.526 138.288 139.036 139.858 140.62 133.209 133.128 133.503 133.634 
134.157 134.598 135.345 136.023 136.851 137.56 138.335 139.049 139.758 
140.507 141.131 133.889 133.675 133.995 133.905 134.395 134.516 135.237 
135.624 136.502 137.051 137.92 138.495 139.253 139.801 140.425 141.007 
141.604 134.628 134.369 134.663 134.504 134.981 134.962 135.625 135.779 
136.575 136.91 137.78 138.241 139.097 139.533 140.252 140.596 141.208 
141.634 142.325 135.169 136.194 135.481 135.235 137.509 136.675 136.426 
135.7 135.605 138.872 138.066 137.841 137.036 136.925 136.222 136.26 
140.228 139.447 139.282 138.482 138.354 137.602 137.596 136.958 137.118 
141.768 140.915 140.841 139.989 139.916 139.081 139.069 138.336 138.491 
137.911 138.238 143.435 142.575 142.561 141.68 141.688 140.776 140.814 
139.942 140.123 139.404 139.756 139.169 139.567 145.001 144.231 144.247 
143.438 143.487 142.619 142.684 141.791 141.954 141.157 141.471 140.789 
141.119 140.484 140.734 146.451 145.754 145.831 145.094 145.196 144.399 
144.496 143.65 143.79 142.987 143.226 142.507 142.749 142.043 142.181 
141.506 141.637 147.85 147.211 147.365 146.681 146.854 146.106 146.265 
145.453 145.626 144.809 145.035 144.254 144.476 143.69 143.828 143.025 
143.147 142.433 142.695 143.744 144.153 144.488 145.841 144.816 145.019 
146.295 146.783 148.333 145.518 145.72 146.921 147.294 148.761 149.313 
150.867 146.128 146.39 147.564 147.894 149.209 149.703 151.187 151.799 
153.344 146.687 146.964 148.118 148.456 149.667 150.089 151.433 152.037 
153.563 154.259 155.796 147.265 147.514 148.614 148.941 150.112 150.5 
151.778 152.289 153.755 154.425 155.979 156.654 158.068 147.809 148.061 
149.1 149.404 150.527 150.908 152.162 152.646 154.05 154.648 156.133 
156.794 158.205 158.804 160.051 148.264 148.535 149.523 149.836 150.889 
151.276 152.462 152.968 154.276 154.875 156.214 156.874 158.181 158.851 
160.078 160.679 161.816 148.666 148.926 149.845 150.17 151.142 151.547 
152.641 153.169 154.379 154.98 156.186 156.821 157.993 158.694 159.867 
160.581 161.715 162.349 163.395 144.061 146.264 145.228 145.556 148.773 
147.645 147.953 146.9 147.242 151.287 150.173 150.411 149.32 149.585 
148.56 148.809 153.851 152.725 152.98 151.779 152.026 150.923 151.206 
150.118 150.308 156.406 155.375 155.781 154.511 154.842 153.558 153.957 
152.709 152.998 151.685 151.771 158.675 157.871 158.395 157.335 157.746 
156.523 156.966 155.684 156.05 154.611 154.704 153.177 153.131 160.67 
160.03 160.652 159.819 160.309 159.294 159.715 158.608 158.951 157.673 
157.783 156.252 156.159 154.565 154.472 162.508 161.991 162.761 162.06 
162.717 161.797 162.294 161.224 161.567 160.399 160.545 159.205 159.139 
157.624 157.462 155.904 155.746 164.117 163.765 164.61 164.123 164.87 
164.163 164.722 163.771 164.121 162.985 163.135 161.862 161.822 160.439 
160.258 158.797 158.534 157.041 156.74 165.179 166.841 165.962 165.747 
168.146 167.479 167.282 166.428 166.038 168.97 168.514 168.18 167.614 
167.227 166.506 165.897 169.452 169.153 168.686 168.167 167.647 167.273 
166.815 166.16 165.335 169.603 169.561 169.245 168.667 168.041 167.539 
167.148 166.799 166.24 165.431 164.367 169.206 169.524 169.458 169.221 
168.687 168.085 167.582 167.149 166.703 166.145 165.225 164.257 162.986 
168.368 168.86 168.81 169.089 168.674 168.509 167.867 167.542 166.911 
166.506 165.604 164.882 163.601 162.673 161.33 167.441 167.886 167.73 
168.159 167.766 168.001 167.33 167.361 166.558 166.432 165.447 165.023 
163.741 163.04 161.644 160.861 159.529 166.51 166.916 166.699 167.067 
166.673 166.943 166.306 166.46 165.634 165.702 164.721 164.593 163.38 
162.952 161.568 160.96 159.584 158.934 157.641 165.106 165.439 165.795 
166.745 165.557 166.032 166.959 167.317 168.078 165.333 165.987 166.832 
167.33 168.035 168.425 168.948 164.692 165.562 166.407 167.024 167.612 
168.125 168.602 169.034 169.354 163.669 164.705 165.621 166.453 167.104 
167.646 168.068 168.51 168.807 169.217 169.358 162.518 163.541 164.385 
165.427 166.167 167.012 167.547 168.061 168.352 168.655 168.753 169.044 
168.973 161.528 162.415 163.137 164.082 164.689 165.731 166.276 167.247 
167.606 168.198 168.245 168.497 168.346 168.53 168.271 160.622 161.467 
162.171 162.952 163.436 164.227 164.584 165.591 165.925 166.969 167.086 
167.77 167.585 167.908 167.596 167.775 167.425 159.6 160.465 161.121 
161.981 162.472 163.145 163.398 164.045 164.253 165.125 165.334 166.25 
166.248 166.898 166.653 167.028 166.681 166.899 166.509 149.178 150.298 
149.926 150.332 151.42 151.057 151.487 151.135 151.619 152.563 152.203 
152.699 152.346 152.938 152.564 153.18 153.758 153.414 154.036 153.681 
154.438 154.047 154.815 154.323 154.994 154.926 154.659 155.416 155.136 
156.048 155.703 156.59 156.093 156.795 156.189 156.779 155.992 155.813 
156.636 156.505 157.482 157.304 158.245 157.877 158.603 158.019 158.584 
157.951 158.529 157.008 156.863 157.688 157.64 158.61 158.583 159.547 
159.387 160.211 159.795 160.462 159.834 160.457 159.785 160.422 158 
157.892 158.724 158.665 159.62 159.613 160.609 160.57 161.535 161.335 
162.206 161.749 162.495 161.829 162.483 161.747 162.326 158.88 158.878 
159.753 159.706 160.636 160.608 161.601 161.61 162.653 162.617 163.619 
163.408 164.252 163.796 164.448 163.8 164.317 163.578 164.013 148.694 
148.354 148.948 149.804 147.946 148.575 149.431 150.066 150.922 147.456 
148.104 148.933 149.632 150.535 151.189 152.047 147.002 147.615 148.434 
149.104 150.023 150.755 151.702 152.339 153.199 146.623 147.213 148.05 
148.659 149.563 150.256 151.249 151.963 152.899 153.498 154.323 146.219 
146.825 147.655 148.291 149.173 149.836 150.79 151.509 152.491 153.168 
154.046 154.603 155.384 145.775 146.365 147.135 147.819 148.675 149.393 
150.292 151.025 151.981 152.728 153.686 154.328 155.165 155.665 156.418 
145.377 145.898 146.594 147.242 148.053 148.802 149.677 150.449 151.365 
152.165 153.155 153.929 154.857 155.451 156.204 156.671 157.37 145.091 
145.53 146.181 146.725 147.479 148.16 148.998 149.766 150.648 151.476 
152.441 153.32 154.293 155.056 155.829 156.383 156.983 157.503 158.137 
145.19 145.804 145.734 146.287 146.563 146.444 147.003 146.916 147.563 
147.354 147.252 147.83 147.699 148.33 148.282 149.035 148.179 148.086 
148.716 148.561 149.181 149.081 149.831 149.833 150.679 149.124 149.014 
149.72 149.515 150.146 149.967 150.722 150.686 151.614 151.604 152.538 
150.153 150.054 150.803 150.579 151.195 150.968 151.711 151.645 152.63 
152.635 153.658 153.572 154.448 151.17 151.098 151.824 151.628 152.198 
151.99 152.726 152.675 153.683 153.704 154.707 154.656 155.462 155.34 
155.959 152.05 152.039 152.711 152.567 153.126 152.953 153.734 153.715 
154.786 154.804 155.774 155.656 156.327 156.184 156.711 156.607 157.078 
152.661 152.759 153.411 153.375 153.99 153.886 154.725 154.746 155.866 
155.925 156.913 156.743 157.345 157.046 157.519 157.326 157.874 157.729 
158.268 153.125 154.206 153.761 153.951 155.684 155.05 155.293 154.637 
154.714 157.318 156.684 156.984 156.226 156.428 155.57 155.686 158.792 
158.28 158.638 157.975 158.243 157.453 157.678 156.768 156.927 160.311 
159.788 160.269 159.629 159.943 159.219 159.429 158.678 158.776 157.936 
157.863 161.966 161.435 162.022 161.377 161.77 160.974 161.152 160.331 
160.356 159.553 159.366 158.517 158.169 163.498 163.06 163.598 163.09 
163.45 162.774 162.882 162.055 162.016 161.139 160.988 160.02 159.698 
158.696 158.345 164.806 164.45 164.9 164.486 164.755 164.227 164.237 
163.568 163.422 162.698 162.565 161.734 161.537 160.471 160.153 159.03 
158.751 165.875 165.612 166.028 165.671 165.951 165.449 165.502 164.818 
164.647 163.921 163.735 163.104 162.973 162.239 161.989 160.972 160.594 
159.497 159.157 152.71 152.311 152.904 153.763 151.984 152.572 153.551 
154.15 155.225 151.83 152.392 153.469 154.041 155.175 155.76 156.852 
151.709 152.313 153.39 153.986 155.04 155.657 156.688 157.298 158.274 
151.389 152.085 153.046 153.748 154.653 155.35 156.281 157.003 158.007 
158.67 159.71 150.85 151.58 152.436 153.207 154.056 154.801 155.726 
156.51 157.612 158.388 159.566 160.226 161.358 150.296 150.956 151.795 
152.546 153.469 154.209 155.21 155.983 157.156 158.002 159.282 160.071 
161.282 161.909 162.956 149.887 150.443 151.278 151.97 152.953 153.702 
154.747 155.516 156.642 157.51 158.752 159.68 160.922 161.737 162.84 
163.432 164.331 149.608 150.095 150.882 151.509 152.451 153.204 154.217 
155.012 156.042 156.903 158.036 159.017 160.258 161.237 162.426 163.215 
164.198 164.721 165.46 151.989 150.643 151.433 151.561 149.15 150.041 
150.251 150.981 151.144 147.685 148.586 148.89 149.664 149.814 150.564 
150.844 146.279 147.163 147.517 148.343 148.542 149.24 149.424 150.278 
150.662 144.903 145.743 146.075 146.964 147.23 147.982 148.145 148.89 
149.172 150.091 150.441 143.596 144.359 144.591 145.467 145.706 146.58 
146.762 147.575 147.793 148.646 148.941 149.818 150.036 142.315 143.036 
143.176 143.968 144.119 144.981 145.138 146.045 146.25 147.186 147.453 
148.355 148.587 149.391 149.546 141.064 141.737 141.853 142.571 142.695 
143.451 143.584 144.409 144.603 145.538 145.82 146.799 147.085 147.971 
148.192 148.961 149.156 139.969 140.543 140.657 141.293 141.422 142.105 
142.245 142.968 143.151 143.961 144.237 145.161 145.501 146.447 146.76 
147.619 147.883 148.649 148.894 139.452 138.831 139.465 140.096 138.114 
138.805 139.47 140.128 140.817 137.524 138.137 138.847 139.49 140.219 
140.889 141.635 137.271 137.729 138.474 138.978 139.738 140.337 141.153 
141.781 142.575 137.26 137.62 138.38 138.775 139.551 140.01 140.869 
141.413 142.302 142.835 143.688 137.454 137.689 138.436 138.768 139.576 
139.965 140.858 141.303 142.248 142.703 143.618 144.07 144.959 137.938 
138.016 138.749 138.935 139.769 140.079 141.025 141.415 142.397 142.785 
143.717 144.095 144.986 145.398 146.254 138.563 138.595 139.313 139.39 
140.201 140.396 141.342 141.662 142.658 143.004 143.928 144.254 145.118 
145.471 146.314 146.685 147.455 139.119 139.187 139.869 139.963 140.721 
140.883 141.754 142.02 142.955 143.273 144.162 144.471 145.297 145.619 
146.433 146.776 147.55 147.859 148.532 139.619 140.693 140.208 140.39 
142.058 141.411 141.602 141.066 141.302 143.691 142.941 143.118 142.426 
142.67 142.083 142.373 145.376 144.646 144.837 144.059 144.237 143.54 
143.8 143.22 143.537 147.089 146.365 146.639 145.84 146.005 145.18 
145.353 144.67 144.944 144.391 144.697 148.934 148.159 148.517 147.72 
147.976 147.059 147.203 146.322 146.53 145.835 146.13 145.546 145.837 
150.918 150.068 150.416 149.639 149.961 149.095 149.264 148.289 148.411 
147.533 147.758 147.05 147.336 146.707 146.982 153.08 152.114 152.392 
151.542 151.843 151.039 151.241 150.332 150.4 149.453 149.545 148.728 
148.925 148.242 148.479 147.848 148.074 155.378 154.348 154.576 153.586 
153.832 152.939 153.161 152.267 152.362 151.404 151.42 150.509 150.584 
149.818 149.972 149.316 149.483 148.871 149.02 149.695 150.224 150.286 
150.987 150.788 150.872 151.672 151.724 152.562 151.488 151.537 152.435 
152.484 153.408 153.433 154.336 152.409 152.401 153.402 153.386 154.392 
154.365 155.336 155.282 156.193 153.424 153.455 154.568 154.523 155.638 
155.523 156.61 156.451 157.494 157.289 158.271 154.332 154.501 155.761 
155.799 157.046 156.931 158.161 157.955 159.179 158.875 160.011 159.609 
160.616 155.132 155.41 156.843 157.025 158.428 158.411 159.728 159.592 
160.903 160.693 161.922 161.54 162.561 162.036 162.867 155.953 156.263 
157.801 158.103 159.636 159.78 161.154 161.12 162.37 162.29 163.455 
163.298 164.251 163.897 164.602 164.098 164.637 156.764 157.112 158.637 
159.017 160.57 160.889 162.314 162.436 163.631 163.6 164.624 164.559 
165.417 165.268 165.888 165.577 165.994 165.56 165.857 134.541 133.754 
134.147 134.191 132.966 133.297 133.29 133.792 133.958 132.504 132.539 
132.446 132.866 133.119 133.709 134.118 132.896 132.434 132.27 132.247 
132.535 132.987 133.564 134.106 134.655 133.995 133.281 133.141 132.593 
132.79 132.756 133.325 133.681 134.274 134.705 135.21 135.144 134.519 
134.452 133.788 133.852 133.403 133.729 133.686 134.161 134.393 134.883 
135.269 135.819 136.208 135.638 135.604 135.043 135.049 134.523 134.631 
134.287 134.566 134.484 134.944 135.112 135.744 136.066 136.755 137.363 
136.754 136.723 136.143 136.144 135.611 135.686 135.231 135.439 135.118 
135.532 135.44 136.094 136.231 136.995 137.198 137.878 138.519 137.945 
137.92 137.308 137.294 136.71 136.792 136.3 136.534 136.127 136.504 
136.23 136.791 136.747 137.457 137.569 138.252 138.36 138.925 135.022 
134.698 135.134 135.747 134.495 134.836 135.426 135.901 136.58 134.638 
134.766 135.334 135.653 136.337 136.789 137.498 135.135 135.105 135.653 
135.754 136.45 136.714 137.458 137.79 138.484 135.708 135.684 136.242 
136.241 136.893 137.001 137.724 137.917 138.604 138.839 139.513 136.317 
136.265 136.837 136.839 137.413 137.467 138.075 138.224 138.872 139.06 
139.72 139.94 140.664 137.142 136.951 137.477 137.416 137.955 137.951 
138.496 138.566 139.197 139.354 140.055 140.234 140.961 141.172 141.932 
138.131 137.837 138.272 138.104 138.631 138.544 139.133 139.09 139.761 
139.798 140.549 140.649 141.397 141.53 142.246 142.437 143.127 139.115 
138.803 139.177 138.941 139.438 139.297 139.9 139.823 140.492 140.473 
141.183 141.222 141.921 141.995 142.65 142.767 143.39 143.559 144.144 
135.42 136.214 135.999 136.461 137.092 136.88 137.39 137.186 137.753 
137.974 137.778 138.313 138.137 138.689 138.509 139.07 138.886 138.668 
139.209 139.049 139.61 139.426 139.965 139.79 140.374 139.888 139.615 
140.176 139.987 140.589 140.372 140.938 140.716 141.335 141.169 141.877 
141.043 140.693 141.269 141.024 141.663 141.416 142.014 141.753 142.406 
142.211 142.967 142.799 143.551 142.305 141.923 142.486 142.181 142.814 
142.539 143.152 142.873 143.525 143.32 144.083 143.925 144.675 144.469 
145.124 143.477 143.16 143.689 143.397 143.989 143.71 144.316 144.032 
144.663 144.435 145.153 145.006 145.737 145.564 146.194 145.96 146.534 
144.452 144.217 144.704 144.493 145.043 144.831 145.418 145.181 145.78 
145.546 146.179 146.013 146.677 146.548 147.169 146.987 147.545 147.325 
147.88 151.968 151.262 151.277 150.508 150.294 150.375 149.52 149.638 
148.882 149.297 149.365 148.556 148.629 147.897 148.032 147.399 148.361 
148.434 147.763 147.816 147.199 147.207 146.57 146.628 146.029 147.478 
147.55 146.899 147.039 146.438 146.545 145.85 145.867 145.142 145.246 
144.656 146.683 146.715 145.978 146.09 145.365 145.573 144.8 144.972 
144.167 144.322 143.654 143.885 143.369 145.931 145.95 145.2 145.196 
144.419 144.475 143.717 143.834 143.11 143.273 142.642 142.87 142.341 
142.61 142.116 145.212 145.221 144.53 144.49 143.78 143.713 143.033 
142.982 142.355 142.367 141.796 141.909 141.377 141.582 141.072 141.337 
140.863 144.62 144.572 143.927 143.876 143.222 143.165 142.518 142.454 
141.817 141.771 141.155 141.169 140.582 140.678 140.137 140.325 139.863 
140.136 139.762 
POINT_DATA 1002
SCALARS Distance double
LOOKUP_TABLE default
140.03 139.058 138.992 140.12 139.054 141.227 140.332 139.187 141.509 
142.766 140.56 139.395 141.838 143.139 144.438 140.956 139.926 142.182 
143.508 144.812 146.064 141.704 140.727 142.747 144.001 145.348 146.59 
147.804 142.455 141.329 143.515 144.694 146.109 147.435 148.589 149.73 
142.938 141.681 144.263 145.539 146.959 148.373 149.591 150.738 151.821 
143.445 142.18 145.026 146.531 147.952 149.331 150.592 151.851 153.091 
154.103 144.243 143.025 145.902 147.55 149.024 150.428 151.735 153.019 
154.368 155.563 156.412 137.974 137.863 136.785 136.685 135.696 137.921 
135.629 134.665 136.825 138.086 134.572 133.504 135.803 137.113 138.4 
133.554 132.669 134.71 136.15 137.562 139.044 133.156 132.733 133.897 
135.182 136.758 138.264 139.807 133.503 133.399 133.858 134.724 136.135 
137.666 139.083 140.387 134.127 134.146 134.36 134.973 136.02 137.357 
138.743 139.937 140.955 134.837 134.905 135.03 135.559 136.35 137.359 
138.628 139.924 140.9 141.77 135.769 135.841 136.978 137.21 138.343 
136.234 138.65 139.627 137.669 136.878 140.066 140.995 139.133 138.265 
137.649 141.687 142.626 140.772 139.848 139.098 138.73 143.416 144.268 
142.586 141.712 140.886 140.39 140.154 145.013 145.727 144.316 143.564 
142.78 142.2 141.828 141.38 146.527 147.102 145.957 145.32 144.608 
143.985 143.497 142.925 142.242 148.009 148.442 147.564 147.044 146.435 
145.838 145.284 144.65 143.912 143.29 144.917 145.258 147.352 145.888 
147.743 149.913 146.624 148.255 150.291 152.405 147.264 148.807 150.569 
152.709 154.926 147.793 149.301 150.897 152.839 155.149 157.32 148.318 
149.734 151.306 153.138 155.295 157.501 159.389 148.823 150.164 151.688 
153.5 155.519 157.593 159.53 161.241 149.223 150.525 151.982 153.722 
155.612 157.518 159.439 161.273 162.941 149.55 150.764 152.139 153.809 
155.613 157.337 159.13 161.04 162.842 164.41 146.526 149.062 148.277 
151.55 150.627 149.857 154.228 153.168 152.289 151.477 156.98 156.144 
155.222 154.367 153.155 159.322 158.891 158.212 157.472 156.319 154.647 
161.388 161.254 160.794 160.151 159.241 157.801 156.039 163.354 163.553 
163.358 162.744 161.821 160.587 159.043 157.315 165.013 165.477 165.594 
165.228 164.407 163.194 161.701 160.044 158.253 166.122 166.761 167.647 
168.039 168.758 167.056 168.751 169.405 167.755 166.879 169.31 169.647 
168.002 167.19 166.383 169.734 169.437 168.697 167.432 166.832 165.515 
169.409 168.782 169.235 168.132 167.191 166.098 164.076 168.398 167.931 
168.627 168.165 167.312 166.241 164.485 162.255 167.339 167.061 167.46 
167.219 166.618 165.757 164.358 162.393 160.295 166.356 166.119 166.409 
166.157 165.553 164.742 163.677 162.119 160.203 158.262 164.797 166.475 
165.057 166.575 165.053 167.838 166.344 164.616 167.588 168.689 165.738 
163.737 167.151 168.107 169.017 164.655 162.626 166.483 167.691 168.413 
168.997 163.353 161.582 165.157 166.874 168.088 168.564 168.706 162.318 
160.689 163.746 165.176 166.792 167.95 168.228 168.11 161.401 159.782 
162.8 163.769 164.818 166.175 167.142 167.393 167.291 160.221 158.803 
161.749 162.873 163.558 164.392 165.444 166.169 166.407 166.353 149.544 
150.686 150.667 151.822 151.774 151.958 153.017 152.902 153.263 153.6 
154.327 154.049 154.771 155.287 155.568 155.61 155.127 156.322 157.061 
157.431 157.394 156.715 156.144 157.597 158.538 159.144 159.239 159.127 
157.742 157.149 158.619 159.623 160.487 161.01 161.147 161.108 158.796 
158.065 159.644 160.604 161.609 162.519 163.104 163.249 163.107 148.099 
149.205 147.76 148.762 147.32 150.329 148.233 146.818 149.81 151.469 
147.798 146.395 149.275 150.989 152.65 147.449 146.028 148.908 150.51 
152.253 153.799 147.001 145.631 148.52 150.096 151.769 153.457 154.889 
146.466 145.233 147.941 149.57 151.217 152.965 154.643 155.969 145.999 
144.903 147.322 148.901 150.565 152.321 154.186 155.747 156.903 145.69 
144.683 146.858 148.26 149.836 151.549 153.459 155.241 156.504 157.548 