# vtk DataFile Version 4.0
vtk output
ASCII
DATASET POLYDATA
POINTS 1002 float
-81.2084 -75.7003 68.6824 -80.8925 -75.1663 67.2519 -80.4166 -75.0654 68.2463 
-80.5482 -75.7691 69.5712 -79.739 -74.9902 69.1121 -81.16 -76.5787 70.0241 
-79.7688 -75.87 70.4137 -79.0927 -74.8521 70.025 -80.5077 -76.696 70.9781 
-81.0145 -77.6294 71.5591 -79.2176 -75.8265 71.5147 -78.6754 -74.6335 71.216 
-79.9125 -76.8518 72.0449 -80.4987 -77.847 72.6759 -80.9738 -78.9644 73.3086 
-78.9035 -75.6627 72.8823 -78.3795 -74.4559 72.5209 -79.4922 -76.9382 73.3159 
-80.0237 -78.205 73.831 -80.4986 -79.4783 74.4535 -81.0251 -80.6157 75.0995 
-78.615 -75.6314 74.1851 -78.1143 -74.4711 73.7714 -79.0901 -77.0569 74.6132 
-79.5281 -78.5818 75.0033 -79.9222 -80.0863 75.5219 -80.5291 -81.3102 76.266 
-81.181 -82.2482 77.0112 -78.3891 -75.9226 75.4377 -77.9771 -74.7433 75.1249 
-78.7538 -77.4178 75.8607 -79.1389 -79.0222 76.287 -79.4378 -80.6064 76.7344 
-79.9138 -82.0126 77.3878 -80.6451 -83.1132 78.197 -81.1961 -84.1566 78.8419 
-78.2671 -76.5232 76.8154 -77.9786 -75.283 76.5736 -78.5569 -78.0552 77.1946 
-78.958 -79.6633 77.7066 -79.3088 -81.1762 78.2285 -79.6015 -82.6716 78.7139 
-80.0544 -84.0998 79.2794 -80.5361 -85.428 79.8546 -80.8258 -86.7035 80.2298 
-78.1877 -77.2845 78.2225 -78.0565 -76.009 77.936 -78.3686 -78.804 78.5962 
-78.7178 -80.4289 79.0896 -79.157 -81.9356 79.6623 -79.4987 -83.4374 80.1133 
-79.743 -85.0835 80.4225 -79.9583 -86.7128 80.7743 -80.1719 -88.1294 81.1496 
-80.4222 -89.2451 81.4017 -78.1916 -78.0236 79.5363 -78.2026 -76.7567 79.17 
-78.2301 -79.482 79.9433 -78.4162 -81.101 80.3387 -78.7502 -82.7009 80.7871 
-79.1265 -84.2812 81.2432 -79.4287 -86.0361 81.5428 -79.6002 -87.8656 81.771 
-79.7387 -89.4151 82.1001 -80.0003 -90.5173 82.4474 -80.3919 -91.2541 82.6671 
-80.088 -74.769 66.3068 -79.7644 -74.3903 67.5013 -79.4708 -74.1111 65.4391 
-79.4202 -73.3879 66.9187 -79.2882 -72.9019 64.9179 -79.307 -73.9739 68.6287 
-79.2291 -72.1637 66.562 -79.1065 -71.4935 64.645 -79.1259 -72.7739 68.3823 
-78.7714 -73.6315 69.7799 -78.7901 -71.0353 66.2944 -78.8085 -70.2964 64.5548 
-78.7786 -71.6899 68.2111 -78.4209 -72.4304 69.726 -78.205 -73.439 71.019 
-78.5555 -69.8736 66.3015 -78.9564 -69.1243 64.8843 -78.3283 -70.6609 68.0685 
-77.8205 -71.3547 69.6854 -77.4164 -72.3169 70.9429 -77.6468 -73.4152 72.2539 
-78.8644 -68.5895 66.7648 -79.4567 -68.0118 65.553 -78.4013 -69.4711 68.2553 
-77.6112 -70.2442 69.8138 -76.6949 -71.1447 71.0902 -76.6151 -72.3525 72.24 
-77.3297 -73.5221 73.6312 -79.2128 -67.6671 67.4578 -79.8974 -67.4127 66.3058 
-78.7424 -68.3951 68.79 -78.0598 -69.2718 70.2755 -76.9181 -70.0925 71.599 
-76.1629 -71.1656 72.6506 -76.5278 -72.4578 73.8271 -77.3974 -73.7853 75.2218 
-79.5893 -67.3333 68.2796 -80.4789 -67.3332 67.1911 -78.9945 -67.6854 69.5018 
-78.5218 -68.518 70.9159 -77.7581 -69.4514 72.2697 -76.8473 -70.3062 73.2892 
-76.5519 -71.357 74.2735 -77.0384 -72.7193 75.4994 -77.6882 -74.3085 76.7656 
-80.3254 -67.3121 69.2386 -81.3375 -67.4114 68.2267 -79.5077 -67.2845 70.344 
-78.9387 -67.7907 71.6373 -78.4458 -68.8427 72.9235 -77.8784 -69.8678 73.8763 
-77.4105 -70.6953 74.7085 -77.3466 -71.7633 75.8111 -77.6556 -73.2878 77.0327 
-78.0114 -75.0451 78.1322 -81.6084 -67.4524 69.905 -80.6239 -67.238 70.9576 
-81.7562 -67.607 71.416 -80.8998 -67.4026 72.5995 -81.7552 -68.1888 72.7537 
-79.7891 -67.1938 72.197 -81.0731 -68.1783 74.1677 -81.8979 -69.0695 74.2431 
-80.1056 -67.5303 74.0146 -79.1371 -67.9389 73.5209 -81.3612 -69.2599 75.7529 
-82.3271 -69.8358 75.8961 -80.4027 -68.5265 75.6519 -79.4489 -68.5379 75.1997 
-78.6712 -69.28 74.4941 -81.8577 -70.2916 77.2559 -82.8291 -70.701 77.4173 
-80.8422 -69.7692 77.1326 -79.8562 -69.5773 76.7235 -79.0562 -69.9868 75.942 
-78.3335 -70.4172 75.2196 -82.4007 -71.5098 78.6992 -83.3085 -71.9331 78.8687 
-81.3971 -71.0667 78.546 -80.3673 -70.8073 78.2858 -79.4445 -70.9694 77.6803 
-78.7579 -71.2282 76.9154 -78.074 -71.3881 76.3001 -82.888 -72.8553 80.2475 
-83.7519 -73.1931 80.3686 -81.8947 -72.4949 80.0302 -80.8975 -72.2119 79.7995 
-79.882 -72.2283 79.4772 -79.0451 -72.4041 78.9689 -78.4925 -72.5256 78.3125 
-78.0246 -72.778 77.635 -83.2558 -74.0562 81.7353 -84.0371 -74.3071 81.7171 
-82.2903 -73.8646 81.5402 -81.3848 -73.7199 81.2017 -80.493 -73.7279 80.8547 
-79.5684 -73.8693 80.5713 -78.8817 -74.0061 80.1799 -78.4857 -74.2107 79.5246 
-78.1996 -74.5892 78.7727 -83.4832 -75.2409 82.9039 -84.1568 -75.4716 82.7716 
-82.6059 -75.1534 82.8137 -81.8055 -75.1907 82.4741 -81.1505 -75.323 81.9812 
-80.4044 -75.4904 81.5858 -79.6086 -75.6217 81.3648 -79.0293 -75.7806 81.0299 
-78.6591 -76.0671 80.4305 -78.3819 -76.4278 79.7564 -78.3771 -78.2818 80.6528 
-78.682 -78.0181 81.2602 -78.6138 -79.9796 82.2391 -79.1112 -77.7453 81.7955 
-79.0258 -79.8533 82.7756 -78.9742 -81.9831 83.6179 -79.6969 -77.5479 82.1126 
-79.5999 -79.7299 83.0921 -79.4281 -82.0251 84.0716 -79.3626 -84.2841 84.755 
-80.4652 -77.434 82.2876 -80.3416 -79.6124 83.2567 -80.0679 -81.9693 84.3251 
-79.8441 -84.3574 85.2137 -79.6179 -86.7842 85.9721 -81.1935 -77.2721 82.6443 
-81.1054 -79.4784 83.528 -80.7959 -81.8183 84.5748 -80.5009 -84.2738 85.4969 
-80.1806 -86.844 86.3336 -79.896 -89.6542 87.1214 -81.705 -77.0022 83.1993 
-81.6548 -79.2363 83.9866 -81.4269 -81.6239 84.9392 -81.1377 -84.1282 85.7999 
-80.8028 -86.8343 86.5347 -80.4743 -89.7688 87.258 -80.4577 -92.8888 87.7915 
-82.2776 -76.7404 83.6491 -82.0919 -78.8741 84.4121 -81.9077 -81.3085 85.2889 
-81.6864 -83.8927 86.1561 -81.368 -86.6948 86.8634 -80.923 -89.7398 87.5274 
-80.7764 -92.9256 88.0454 -81.0316 -96.0396 88.1899 -83.0873 -76.6334 83.8434 
-82.7389 -78.5513 84.6703 -82.4333 -80.8615 85.5339 -82.1726 -83.431 86.4342 
-81.9102 -86.2649 87.2076 -81.4253 -89.361 87.938 -80.9561 -92.632 88.6365 
-80.966 -95.8686 88.9165 -81.2039 -98.8019 88.6532 -83.8728 -76.7308 83.7967 
-83.5486 -78.4164 84.7477 -83.1676 -80.4589 85.6796 -82.7494 -82.8234 86.6066 
-82.4012 -85.5718 87.3812 -81.9877 -88.6692 88.0612 -81.398 -91.987 88.9195 
-81.0119 -95.3452 89.661 -81.025 -98.4628 89.6956 -81.0696 -101.127 89.0876 
-78.2941 -79.7224 81.1471 -78.572 -81.6296 82.6851 -78.3215 -81.3736 81.5146 
-79.0205 -83.8969 83.9288 -78.6648 -83.5204 82.8635 -78.4778 -83.1758 81.7739 
-79.3306 -86.5693 85.2263 -79.1475 -86.1657 84.1794 -78.8005 -85.6603 83.1118 
-78.7191 -85.047 82.1619 -79.4519 -89.7138 86.7377 -79.3765 -89.5402 85.8672 
-79.2886 -88.982 84.7843 -78.974 -88.126 83.7029 -79.0247 -87.1091 82.6221 
-79.9213 -93.2548 87.7525 -79.5173 -93.485 87.3717 -79.5522 -93.2211 86.5554 
-79.4822 -92.2701 85.5209 -79.2348 -90.8462 84.2918 -79.3072 -89.3023 82.965 
-80.7458 -96.6849 88.0032 -80.0413 -97.2027 87.924 -79.6546 -97.3514 87.5203 
-79.7856 -96.7706 86.804 -79.7623 -95.2925 85.8805 -79.5633 -93.1996 84.6602 
-79.5509 -91.1263 83.3044 -81.1821 -99.6533 88.0541 -80.5724 -100.241 87.852 
-79.8209 -100.432 87.6478 -79.7628 -100.152 87.1654 -80.1209 -99.2197 86.618 
-80.1695 -97.2721 85.9601 -79.9936 -94.636 84.948 -79.9022 -92.2695 83.681 
-81.0072 -102.164 88.2176 -80.5719 -102.863 87.7624 -79.8738 -102.951 87.5505 
-79.6422 -102.468 87.1542 -80.1154 -101.79 86.6917 -80.5759 -100.635 86.3806 
-80.6237 -98.3128 85.9438 -80.4917 -95.3551 85.0994 -80.3819 -92.9243 83.919 
-80.788 -103.924 88.6754 -80.3611 -105.113 87.8935 -80.4184 -106.644 88.1012 
-79.8061 -108.062 87.5506 -80.3037 -109.206 87.5299 -79.7987 -105.679 87.5286 
-79.7305 -110.761 86.9038 -80.448 -111.478 86.639 -79.4343 -108.442 87.0659 
-79.507 -105.166 87.1498 -79.7789 -112.781 85.4446 -80.6222 -113.107 85.1267 
-79.4199 -110.773 85.9202 -79.6294 -107.316 86.3971 -79.9233 -104.066 86.6201 
-79.8212 -113.833 83.6473 -80.8963 -113.649 83.7101 -79.2498 -112.186 84.2221 
-79.6524 -109.147 85.2235 -80.2861 -105.846 85.9674 -80.6062 -103.15 86.2904 
-80.2827 -113.691 82.6984 -81.382 -112.805 83.1105 -79.4217 -112.619 83.0118 
-79.5826 -110.205 84.1151 -80.2755 -107.508 85.1884 -80.7699 -104.694 85.7821 
-80.9149 -101.564 86.0723 -81.0752 -111.996 82.5446 -82.0195 -110.681 82.8831 
-80.2575 -111.869 82.6782 -80.1581 -110.309 83.5082 -80.4828 -108.294 84.4545 
-80.7301 -105.818 85.0551 -80.9609 -102.318 85.4823 -80.9508 -98.4992 85.6148 
-81.8833 -109.043 82.3808 -82.762 -107.929 82.5546 -81.1519 -109.615 82.5401 
-81.0126 -109.138 83.1568 -81.1562 -107.817 83.8952 -81.0646 -105.755 84.4035 
-81.0318 -102.46 84.8038 -81.148 -98.4744 85.0516 -80.9234 -95.1786 84.7651 
-82.67 -105.867 82.207 -83.4866 -105.257 82.3631 -81.8921 -106.468 82.3729 
-81.5953 -106.675 82.8753 -81.6778 -106.06 83.5107 -81.5905 -104.444 84.0376 
-81.3718 -101.677 84.4213 -81.3576 -98.1366 84.5871 -81.2708 -94.9799 84.3052 
-80.8545 -92.8261 83.5704 -81.0968 -101.611 89.8769 -81.0788 -104.308 89.2523 
-81.4544 -101.794 90.2608 -81.6551 -104.174 89.4855 -81.8048 -101.514 89.9257 
-81.0281 -106.733 88.3364 -81.9687 -103.449 89.1633 -81.9214 -100.594 89.2226 
-81.6572 -106.235 88.2821 -81.0237 -109.017 87.3961 -82.0469 -102.188 88.5875 
-82.3318 -99.0806 88.719 -81.8871 -105.201 87.9167 -81.4631 -108.263 86.9918 
-81.0907 -111.033 86.2482 -82.5973 -100.572 88.2627 -83.2889 -97.1487 88.492 
-82.2084 -103.709 87.649 -81.7678 -106.849 86.6801 -81.4073 -109.712 85.8024 
-81.2915 -112.076 84.9184 -83.5308 -98.4931 88.2329 -84.2168 -94.8726 88.1953 
-83.0036 -101.871 87.7796 -82.5707 -104.935 86.9104 -81.9896 -107.585 85.8406 
-81.6703 -109.8 84.9185 -81.6456 -111.732 84.0196 -84.2948 -95.843 87.9946 
-84.8557 -92.4795 87.5429 -83.7549 -99.3943 87.9259 -83.4851 -102.698 87.3938 
-83.1128 -105.341 86.4217 -82.4495 -107.244 85.2796 -82.1204 -108.911 84.3557 
-82.1537 -110.307 83.5822 -84.9693 -93.1178 87.2589 -85.4684 -90.3558 86.606 
-84.3602 -96.3131 87.5664 -83.9785 -99.7365 87.4656 -83.9101 -102.853 86.9202 
-83.5616 -105.059 85.8808 -82.9573 -106.523 84.7368 -82.773 -107.692 83.8655 
-82.8749 -108.281 83.1551 -85.7445 -90.8634 86.2779 -86.1482 -88.6579 85.6368 
-85.1613 -93.3786 86.7711 -84.5181 -96.2919 86.9862 -84.231 -99.4914 86.9007 
[...]
CELL_DATA 2000
SCALARS Distance double
LOOKUP_TABLE default
128.765 128.853 129.217 129.977 128.867 129.26 130.08 130.433 131.243 
129.04 129.354 130.272 130.605 131.544 131.83 132.786 129.433 129.679 
130.672 130.951 131.997 132.258 133.325 133.568 134.655 129.943 130.162 
131.191 131.456 132.536 132.799 133.904 134.17 135.326 135.569 136.719 
130.654 130.771 131.855 132.055 133.206 133.423 134.578 134.797 135.989 
136.253 137.488 137.71 138.88 131.667 131.652 132.792 132.877 134.139 
134.268 135.554 135.648 136.91 137.033 138.32 138.511 139.771 139.918 
141.05 132.862 132.785 133.922 133.944 135.22 135.33 136.671 136.766 
138.068 138.118 139.39 139.47 140.733 140.845 142.03 142.089 143.131 
134.085 133.998 135.084 135.086 136.276 136.387 137.642 137.815 139.064 
139.221 140.446 140.565 141.787 141.877 143.071 143.113 144.213 144.173 
145.14 127.937 126.726 127.596 128.059 125.589 126.426 126.924 127.687 
128.087 124.534 125.359 125.909 126.637 127.061 127.747 128.212 123.518 
124.312 124.91 125.681 126.131 126.782 127.198 127.942 128.523 122.813 
123.385 123.976 124.706 125.176 125.829 126.168 126.886 127.383 128.276 
128.966 122.609 122.896 123.445 123.953 124.462 124.956 125.268 125.826 
126.246 127.084 127.799 128.787 129.646 122.778 122.854 123.356 123.661 
124.26 124.554 124.983 125.204 125.616 126.099 126.83 127.692 128.685 
129.65 130.672 123.335 123.173 123.612 123.718 124.365 124.602 125.241 
125.328 125.841 125.908 126.58 127.02 128.03 128.834 129.975 130.849 
131.921 124.319 123.94 124.302 124.136 124.705 124.827 125.565 125.742 
126.418 126.429 127.055 127.138 127.993 128.447 129.558 130.284 131.421 
132.184 133.213 125.077 126.156 125.395 125 127.243 126.499 126.157 
125.418 125.29 128.533 127.718 127.496 126.678 126.58 125.93 126.083 
130.095 129.211 129.074 128.175 128.101 127.324 127.431 126.842 126.999 
131.76 130.881 130.802 129.88 129.816 128.936 128.977 128.249 128.363 
127.703 127.747 133.514 132.613 132.604 131.672 131.661 130.727 130.764 
129.893 130.005 129.202 129.328 128.532 128.696 135.359 134.459 134.498 
133.545 133.582 132.63 132.716 131.784 131.942 131.032 131.249 130.347 
130.626 129.77 130.179 137.066 136.287 136.342 135.454 135.495 134.577 
134.681 133.773 133.961 133.062 133.327 132.423 132.753 131.858 132.271 
131.449 131.964 138.514 137.876 137.958 137.203 137.265 136.445 136.57 
135.725 135.93 135.075 135.349 134.5 134.838 133.995 134.382 133.554 
133.993 133.225 133.71 134.885 135.219 135.626 136.833 135.61 136.009 
137.256 137.674 138.952 136.035 136.42 137.678 138.117 139.442 139.86 
141.17 136.52 136.868 138.129 138.554 139.9 140.349 141.704 142.107 
143.447 137.07 137.386 138.646 139.041 140.383 140.817 142.182 142.621 
143.987 144.412 145.846 137.626 137.921 139.139 139.548 140.862 141.303 
142.644 143.089 144.45 144.91 146.336 146.849 148.401 138.201 138.437 
139.553 139.96 141.215 141.709 143.026 143.521 144.868 145.352 146.756 
147.282 148.796 149.403 150.967 138.806 138.987 140.001 140.331 141.498 
141.975 143.25 143.807 145.137 145.704 147.077 147.646 149.106 149.731 
151.259 151.889 153.304 139.327 139.537 140.491 140.774 141.858 142.251 
143.436 143.957 145.214 145.837 147.141 147.815 149.194 149.916 151.393 
152.112 153.537 154.099 155.26 135.108 137.062 136.078 136.142 139.191 
138.142 138.214 137.198 137.331 141.43 140.359 140.453 139.358 139.465 
138.453 138.653 143.792 142.711 142.931 141.743 141.893 140.709 140.886 
139.84 140.078 146.367 145.276 145.765 144.498 144.89 143.47 143.741 
142.339 142.577 141.36 141.571 149.108 148.077 148.84 147.617 148.318 
146.854 147.366 145.67 145.947 144.254 144.413 142.946 143.043 151.731 
150.874 151.723 150.719 151.484 150.303 150.929 149.453 149.795 147.983 
148.027 146.149 146.076 144.438 144.376 153.973 153.323 154.068 153.325 
153.895 153.057 153.495 152.548 152.857 151.58 151.594 149.854 149.58 
147.682 147.364 145.698 145.492 155.766 155.275 155.871 155.314 155.708 
155.031 155.225 154.527 154.693 153.972 154.07 152.97 152.737 151.089 
150.578 148.754 148.271 146.677 146.365 156.801 158.186 157.324 156.886 
159.568 158.73 158.306 157.324 156.703 160.88 160.163 159.763 158.744 
157.973 156.917 156.114 161.611 161.239 160.781 160.021 159.131 158.104 
157.128 156.196 155.473 161.616 161.53 160.934 160.556 159.66 158.996 
158.034 157.195 156.416 155.627 154.945 161.205 161.279 160.675 160.416 
159.615 159.238 158.509 157.969 157.259 156.546 155.73 154.919 153.81 
160.276 160.651 160.172 160.123 159.455 159.206 158.64 158.317 157.685 
157.164 156.18 155.461 154.111 153.274 151.691 158.727 159.368 158.917 
159.345 158.781 158.941 158.375 158.321 157.6 157.284 156.138 155.555 
154.019 153.296 151.628 150.859 149.267 157.053 157.629 157.117 157.763 
157.262 157.854 157.307 157.669 156.866 156.851 155.616 155.219 153.636 
153.019 151.366 150.695 149.178 148.516 147.209 157.009 157.68 157.729 
158.381 157.903 158.255 158.899 158.977 159.618 157.368 158.141 158.834 
159.241 159.822 160.121 160.787 156.347 157.303 158.049 158.808 159.384 
159.991 160.607 161.102 161.567 155.411 156.28 157.051 157.866 158.487 
159.247 159.792 160.543 161.014 161.542 161.671 154.492 155.408 156.223 
156.999 157.689 158.363 158.854 159.523 159.857 160.596 160.785 161.331 
161.204 153.183 154.309 155.115 156.114 156.846 157.644 158.17 158.704 
158.902 159.385 159.443 160.104 160.068 160.621 160.246 151.629 152.785 
153.482 154.684 155.342 156.504 157.085 157.952 158.206 158.621 158.555 
158.894 158.801 159.315 159.092 159.472 158.858 150.255 151.23 151.811 
152.905 153.421 154.654 155.172 156.441 156.83 157.728 157.75 158.161 
157.974 158.274 158.071 158.376 157.971 158.075 157.365 139.826 141.016 
140.641 141.096 142.316 141.952 142.527 142.046 142.524 143.583 143.285 
143.936 143.542 144.107 143.57 144.088 144.72 144.49 145.19 144.935 
145.622 145.188 145.785 145.222 145.827 145.792 145.577 146.338 146.181 
147.054 146.75 147.508 146.975 147.647 147.061 147.753 146.849 146.659 
147.493 147.387 148.45 148.276 149.258 148.794 149.588 148.972 149.762 
149.127 149.895 147.835 147.737 148.672 148.618 149.801 149.74 150.903 
150.597 151.558 151.011 151.939 151.302 152.243 151.469 152.245 148.72 
148.735 149.799 149.835 151.083 151.103 152.32 152.183 153.24 152.921 
153.959 153.522 154.576 153.933 154.789 153.876 154.448 149.519 149.623 
150.756 150.916 152.185 152.316 153.495 153.48 154.481 154.378 155.377 
155.276 156.312 156.05 156.867 156.251 156.711 155.822 156.071 139.278 
138.687 139.429 140.351 138.068 138.81 139.751 140.551 141.579 137.55 
138.244 139.194 139.959 141.006 141.827 142.861 137.073 137.762 138.672 
139.411 140.406 141.236 142.299 143.104 144.055 136.498 137.222 138.063 
138.825 139.704 140.547 141.548 142.47 143.508 144.288 145.168 135.881 
136.571 137.368 138.136 138.959 139.766 140.662 141.601 142.661 143.646 
144.665 145.406 146.22 135.427 135.988 136.758 137.448 138.286 139.029 
139.882 140.709 141.691 142.704 143.796 144.772 145.687 146.393 147.122 
135.194 135.641 136.385 136.941 137.763 138.418 139.256 139.977 140.859 
141.747 142.761 143.796 144.779 145.693 146.467 147.189 147.888 135.037 
135.461 136.181 136.658 137.43 137.98 138.769 139.39 140.195 140.942 
141.83 142.761 143.706 144.689 145.539 146.404 147.141 147.903 148.632 
135.14 135.642 135.712 136.329 136.13 136.241 136.957 136.974 137.599 
136.727 136.781 137.576 137.64 138.351 138.293 138.913 137.541 137.48 
138.291 138.333 139.145 139.099 139.776 139.649 140.309 138.406 138.338 
139.113 139.127 140 139.975 140.741 140.588 141.283 141.131 141.905 
139.123 139.15 139.94 139.97 140.854 140.868 141.69 141.587 142.305 
142.154 142.928 142.83 143.702 139.787 139.864 140.759 140.806 141.718 
141.735 142.567 142.507 143.245 143.147 143.932 143.864 144.74 144.674 
145.53 140.524 140.603 141.556 141.635 142.564 142.599 143.434 143.385 
144.149 144.07 144.917 144.878 145.833 145.762 146.661 146.494 147.241 
141.242 141.339 142.218 142.357 143.233 143.361 144.201 144.239 145.046 
145.005 145.894 145.885 146.903 146.889 147.857 147.699 148.475 148.184 
148.811 141.862 143 142.549 142.81 144.42 143.781 144.081 143.562 
143.846 146.443 145.523 145.85 145.048 145.376 144.694 144.922 148.649 
147.765 148.146 147.152 147.481 146.508 146.74 145.836 145.922 150.565 
149.89 150.377 149.515 149.858 148.817 148.988 147.884 147.946 146.889 
146.901 152.465 151.812 152.436 151.675 152.117 151.161 151.31 150.178 
150.156 149.029 149.026 147.956 147.966 154.351 153.801 154.5 153.786 
154.338 153.429 153.677 152.515 152.447 151.222 151.116 150.048 150.011 
148.999 148.903 155.733 155.502 156.171 155.718 156.245 155.578 155.921 
154.929 154.941 153.623 153.409 152.129 151.959 150.91 150.746 149.752 
149.481 156.617 156.603 157.248 157.047 157.465 157.116 157.422 156.894 
157.035 156.075 155.892 154.545 154.214 152.91 152.633 151.52 151.212 
150.168 149.789 141.51 141.376 141.835 142.637 141.24 141.702 142.553 
143.029 144.031 141.066 141.57 142.491 143.012 144.157 144.699 146.009 
140.801 141.396 142.406 142.996 144.228 144.868 146.242 146.842 148.159 
140.452 141.129 142.218 142.899 144.121 144.859 146.183 146.927 148.193 
148.827 149.991 140.1 140.79 141.892 142.643 143.798 144.594 145.794 
146.645 147.877 148.683 149.904 150.579 151.805 139.776 140.438 141.478 
142.243 143.327 144.131 145.237 146.104 147.34 148.264 149.613 150.448 
151.767 152.449 153.659 139.447 140.08 141.046 141.783 142.82 143.599 
144.669 145.504 146.752 147.723 149.181 150.148 151.527 152.312 153.435 
154.1 155.024 139.125 139.72 140.643 141.337 142.349 143.095 144.148 
144.944 146.152 147.128 148.59 149.673 151.086 151.973 153.013 153.691 
154.473 155.141 155.865 140.672 139.295 140.185 140.565 138.033 138.84 
139.277 140.112 140.462 136.997 137.68 138.048 138.837 139.198 139.988 
140.262 135.866 136.611 136.854 137.607 137.845 138.647 138.853 139.679 
139.888 134.405 135.287 135.48 136.301 136.42 137.21 137.297 138.138 
138.272 139.196 139.432 132.827 133.717 133.919 134.799 134.914 135.713 
135.738 136.531 136.613 137.513 137.746 138.741 139.072 131.348 132.166 
132.349 133.212 133.335 134.156 134.177 134.96 135.007 135.867 136.092 
137.072 137.437 138.443 138.81 130 130.731 130.864 131.663 131.751 
132.56 132.582 133.378 133.418 134.263 134.452 135.421 135.779 136.816 
137.214 138.202 138.537 128.821 129.439 129.523 130.216 130.278 131.013 
131.064 131.824 131.922 132.719 132.917 133.804 134.132 135.139 135.55 
136.588 136.971 137.932 138.249 128.238 127.502 128.208 128.875 126.756 
127.467 128.161 128.863 129.572 126.247 126.833 127.594 128.212 128.957 
129.615 130.371 126.098 126.518 127.307 127.797 128.605 129.147 129.962 
130.528 131.318 126.119 126.485 127.239 127.64 128.445 128.919 129.773 
130.273 131.099 131.578 132.38 126.151 126.513 127.284 127.643 128.42 
128.82 129.656 130.135 130.993 131.457 132.287 132.731 133.596 126.418 
126.635 127.475 127.762 128.583 128.881 129.716 130.091 130.996 131.419 
132.332 132.736 133.653 134.07 135.017 127.146 127.133 127.976 128.101 
128.963 129.159 130.038 130.297 131.253 131.578 132.583 132.915 133.901 
134.236 135.201 135.565 136.482 128.137 128.016 128.78 128.753 129.569 
129.656 130.548 130.735 131.713 131.972 132.997 133.283 134.282 134.568 
135.51 135.809 136.694 137.003 137.808 128.904 130.159 129.539 129.535 
131.453 130.825 130.9 130.23 130.292 132.994 132.249 132.417 131.696 
131.852 131.118 131.288 134.832 133.953 134.134 133.343 133.572 132.801 
133.026 132.247 132.485 136.876 135.903 136.032 135.142 135.34 134.56 
134.793 134.03 134.265 133.499 133.752 139.041 138.027 138.157 137.135 
137.293 136.387 136.611 135.797 136.031 135.261 135.504 134.76 135.003 
141.2 140.228 140.397 139.34 139.496 138.47 138.697 137.743 137.991 
137.092 137.331 136.512 136.753 135.988 136.21 143.252 142.358 142.547 
141.558 141.684 140.679 140.849 139.891 140.108 139.161 139.366 138.435 
138.631 137.769 137.962 137.168 137.353 145.217 144.371 144.582 143.652 
143.759 142.782 142.857 141.93 142.054 141.19 141.345 140.468 140.609 
139.703 139.827 138.949 139.074 138.273 138.418 139.234 139.965 139.979 
140.793 140.802 140.814 141.706 141.67 142.532 141.615 141.684 142.633 
142.643 143.562 143.487 144.357 142.329 142.458 143.441 143.547 144.56 
144.564 145.575 145.443 146.444 143.068 143.187 144.263 144.388 145.563 
145.628 146.863 146.806 148.056 147.826 148.998 143.971 144.058 145.311 
145.397 146.791 146.832 148.281 148.247 149.665 149.531 150.792 150.488 
151.493 144.941 145.077 146.466 146.613 148.18 148.272 149.876 149.845 
151.32 151.174 152.374 152.123 152.982 152.654 153.288 145.781 146.034 
147.454 147.75 149.371 149.655 151.35 151.48 153.022 152.893 154.071 
153.695 154.456 153.991 154.517 154.14 154.647 146.441 146.795 148.224 
148.631 150.253 150.699 152.425 152.795 154.402 154.499 155.728 155.429 
156.205 155.607 156.117 155.492 155.991 155.522 156.071 124.159 123.15 
123.594 123.599 122.562 122.772 122.801 123.184 123.335 122.34 122.37 
122.409 122.63 122.809 123.131 123.384 122.454 122.268 122.274 122.385 
122.53 122.733 122.861 123.19 123.399 123.07 122.579 122.508 122.39 
122.496 122.526 122.524 122.656 122.703 123.117 123.435 124.04 123.371 
123.208 122.837 122.926 122.704 122.703 122.493 122.474 122.552 122.898 
123.367 124.049 125.096 124.372 124.123 123.628 123.69 123.359 123.473 
123.039 123.089 122.734 123.094 123.18 123.976 124.376 125.27 126.265 
125.472 125.184 124.559 124.574 124.199 124.431 124.037 124.244 123.732 
124.064 123.781 124.493 124.602 125.512 125.78 126.576 127.533 126.731 
126.464 125.711 125.677 125.165 125.421 125.062 125.398 124.975 125.308 
124.91 125.429 125.295 126.036 126.145 126.9 127.064 127.697 124.828 
124.222 124.886 125.628 123.85 124.322 125.033 125.674 126.375 123.844 
124.107 124.732 125.186 125.924 126.471 127.205 123.934 124.186 124.791 
125.074 125.779 126.175 126.969 127.451 128.277 124.081 124.298 124.976 
125.217 125.917 126.196 126.975 127.352 128.213 128.655 129.503 124.68 
124.643 125.361 125.476 126.213 126.412 127.181 127.466 128.304 128.675 
129.531 129.917 130.706 125.755 125.491 126.136 126.042 126.755 126.81 
127.567 127.739 128.539 128.82 129.645 129.987 130.781 131.116 131.849 
126.911 126.599 127.119 126.92 127.55 127.478 128.189 128.223 128.975 
129.119 129.902 130.147 130.928 131.22 131.966 132.26 132.954 127.95 
127.652 128.087 127.867 128.427 128.309 128.969 128.921 129.621 129.642 
130.374 130.489 131.238 131.43 132.159 132.402 133.099 133.357 134 
125.41 126.22 126.06 126.487 126.911 126.802 127.224 127.068 127.48 
127.703 127.506 127.949 127.775 128.237 128.098 128.675 128.774 128.446 
128.957 128.656 129.213 128.966 129.619 129.466 130.208 129.964 129.613 
130.162 129.832 130.45 130.131 130.802 130.536 131.26 131.085 131.851 
131.117 130.788 131.31 131.035 131.646 131.39 132.027 131.757 132.401 
132.17 132.888 132.744 133.554 132.234 131.911 132.407 132.135 132.72 
132.507 133.136 132.911 133.524 133.283 133.952 133.788 134.592 134.502 
135.363 133.316 133.007 133.477 133.2 133.75 133.541 134.178 133.986 
134.637 134.401 135.06 134.853 135.604 135.508 136.334 136.279 137.055 
134.335 134.053 134.488 134.22 134.712 134.518 135.126 134.994 135.677 
135.512 136.185 135.97 136.647 136.489 137.216 137.158 137.887 137.84 
138.49 140.471 139.661 139.704 139.015 138.96 138.913 138.21 138.27 
137.742 138.422 138.337 137.669 137.589 137.04 137.135 136.741 137.769 
137.813 137.158 137.099 136.436 136.457 135.924 136.114 135.623 136.86 
137.02 136.347 136.441 135.666 135.719 134.983 135.167 134.531 134.798 
134.158 135.989 136.06 135.378 135.505 134.748 134.814 134.008 134.123 
133.41 133.634 132.973 133.23 132.587 135.379 135.292 134.595 134.609 
133.92 133.932 133.182 133.192 132.478 132.581 131.932 132.101 131.465 
131.695 131.117 134.926 134.774 134.041 133.949 133.25 133.207 132.486 
132.449 131.728 131.747 131.08 131.162 130.514 130.649 130.048 130.287 
129.787 134.487 134.342 133.597 133.448 132.707 132.602 131.861 131.788 
131.049 131.026 130.33 130.364 129.704 129.771 129.155 129.297 128.789 
129.04 128.637 
POINT_DATA 1002
SCALARS Distance double
LOOKUP_TABLE default
129.547 128.292 128.457 129.649 128.454 130.737 129.681 128.468 130.915 
132.08 129.918 128.737 131.222 132.499 133.782 130.387 129.178 131.717 
133.056 134.426 135.762 130.924 129.729 132.267 133.63 135.033 136.524 
137.874 131.665 130.571 132.98 134.378 135.733 137.207 138.736 140.036 
132.724 131.709 133.992 135.451 136.837 138.165 139.594 140.989 142.134 
133.926 132.956 135.122 136.552 138.016 139.357 140.654 141.958 143.152 
144.116 135.116 134.186 136.216 137.495 138.884 140.297 141.69 143.025 
144.237 145.257 146.051 127.067 127.268 125.848 126.167 124.76 127.342 
125.156 123.692 126.409 127.436 124.096 122.773 125.484 126.506 127.659 
123.295 122.379 124.546 125.506 126.499 127.994 123.023 122.435 124.028 
124.825 125.482 126.763 128.642 123.113 122.792 123.942 124.82 125.316 
126.057 127.675 129.74 123.621 123.6 124.108 125.054 125.857 126.357 
127.33 129.09 131.099 124.607 124.758 124.686 125.328 126.322 127.079 
127.731 128.923 130.665 132.5 125.872 125.713 126.887 126.901 127.945 
125.861 128.314 129.345 127.279 126.608 129.977 130.966 128.937 128.091 
127.601 131.703 132.614 130.73 129.784 129.059 128.432 133.526 134.407 
132.587 131.67 130.842 130.119 129.436 135.448 136.225 134.525 133.636 
132.846 132.141 131.491 130.954 137.19 137.786 136.392 135.572 134.84 
134.202 133.641 133.132 132.731 138.656 139.105 138.032 137.375 136.768 
136.186 135.662 135.214 134.804 134.448 136.025 136.408 138.069 136.817 
138.548 140.245 137.231 138.991 140.792 142.477 137.716 139.445 141.27 
143.058 144.814 138.261 139.968 141.742 143.541 145.371 147.363 138.74 
140.421 142.205 143.992 145.825 147.824 150.027 139.199 140.724 142.507 
144.374 146.248 148.207 150.367 152.516 139.733 141.074 142.701 144.547 
146.5 148.494 150.628 152.794 154.613 140.224 141.519 142.985 144.63 
146.472 148.462 150.638 152.925 154.902 156.276 137.096 139.263 138.286 
141.573 140.528 139.585 144.09 143.136 142.02 141.058 146.935 146.28 
145.263 143.946 142.734 149.945 149.653 149.035 147.812 146.093 144.423 
152.663 152.576 152.238 151.529 150.057 147.942 145.874 154.804 154.75 
154.371 153.888 153.164 151.572 149.237 146.988 156.423 156.401 155.984 
155.328 154.869 154.182 152.466 150.041 147.79 157.715 157.846 159.006 
159.348 160.357 157.736 160.794 161.498 159.156 157.039 161.435 161.91 
160.123 158.129 156.228 161.254 161.689 160.12 158.752 157.239 155.791 
160.895 161.035 159.879 158.856 157.931 156.617 154.792 160.028 159.77 
159.598 158.897 158.178 156.953 154.984 152.574 158.317 158.102 158.418 
158.34 157.9 156.733 154.743 152.349 149.972 156.481 156.584 156.566 
156.815 156.778 155.933 154.199 151.986 149.776 147.789 157.049 158.437 
157.568 158.773 157.379 159.502 158.282 156.451 159.461 160.517 157.183 
155.418 158.694 160.012 161.305 156.249 154.582 157.733 159.05 160.326 
161.421 155.408 153.505 157.027 158.32 159.204 160.05 160.893 154.031 
152.026 155.924 157.601 158.604 158.912 159.378 159.944 152.313 150.557 
154.115 156.003 157.666 158.36 158.403 158.632 158.712 150.83 149.384 
152.302 153.862 155.669 157.17 157.732 157.797 157.793 157.418 140.152 
141.551 141.349 142.96 142.642 143.074 144.256 143.856 144.597 144.656 
145.365 144.948 145.957 146.319 146.388 146.429 146.008 147.231 147.986 
148.232 148.336 147.551 146.999 148.51 149.623 150.185 150.369 150.597 
148.67 147.847 149.806 151.102 152.009 152.507 152.961 153.187 149.697 
148.626 151.04 152.419 153.463 154.272 155.116 155.665 155.529 138.58 
139.557 137.928 138.949 137.33 140.75 138.456 136.868 140.18 142.092 
137.965 136.392 139.6 141.441 143.369 137.314 135.794 138.914 140.604 
142.605 144.557 136.61 135.244 138.185 139.786 141.603 143.784 145.663 
136.114 134.926 137.555 139.124 140.745 142.734 144.876 146.528 135.887 
134.771 137.158 138.581 140.069 141.77 143.785 145.681 147.2 135.728 
134.614 136.932 138.205 139.527 140.994 142.735 144.606 146.338 147.893 