# vtk DataFile Version 4.0
vtk output
ASCII
DATASET POLYDATA
POINTS 1002 float
-81.6397 -83.7524 73.2855 -81.6963 -83.1197 72.0468 -81.2844 -82.8233 72.9262 
-81.1091 -83.573 74.1105 -80.6449 -82.6812 73.6884 -81.4436 -84.5391 74.5461 
-80.3713 -83.5568 74.8267 -79.9431 -82.7173 74.3973 -80.8574 -84.4443 75.3651 
-81.154 -85.4525 75.9129 -79.6958 -83.6496 75.6811 -79.3996 -82.7227 75.3656 
-80.2222 -84.4838 76.2622 -80.7276 -85.4534 76.9491 -81.0817 -86.4865 77.6416 
-79.2915 -83.6215 76.882 -78.9985 -82.5418 76.6315 -79.7756 -84.5958 77.4575 
-80.3249 -85.6078 78.1764 -80.7323 -86.7374 78.8092 -81.0926 -87.7491 79.3943 
-79.077 -83.5408 78.2364 -78.7509 -82.4008 77.9685 -79.5296 -84.7449 78.7988 
-79.9153 -85.8877 79.493 -80.189 -87.1525 79.9723 -80.4919 -88.3472 80.3129 
-80.888 -89.3384 80.7208 -78.902 -83.7742 79.6838 -78.7532 -82.5828 79.418 
-79.2196 -85.1858 80.0959 -79.4161 -86.41 80.6136 -79.5136 -87.666 81.0113 
-79.7676 -89.0303 81.2277 -80.2544 -90.1381 81.5561 -80.7741 -91.0743 82.0255 
-78.7314 -84.3035 81.3311 -78.8874 -83.0429 81.0302 -78.7424 -85.8729 81.5694 
-78.8114 -87.1955 81.7397 -78.9544 -88.3384 81.9898 -79.3124 -89.6869 82.2924 
-79.8635 -90.917 82.6548 -80.4634 -91.8064 83.1498 -80.9642 -92.6443 83.6347 
-78.6658 -84.812 82.8667 -79.0056 -83.59 82.517 -78.4176 -86.3386 83.0922 
-78.3837 -87.7529 83.0992 -78.6518 -88.9612 83.1765 -79.2082 -90.2837 83.5444 
-79.8363 -91.5553 84.0147 -80.3718 -92.4619 84.4526 -80.8345 -93.2394 84.8658 
-81.227 -94.1189 85.1905 -78.8053 -85.2052 83.9402 -79.1471 -84.1287 83.6307 
-78.5193 -86.4919 84.1947 -78.4623 -87.8493 84.3024 -78.7155 -89.2412 84.4194 
-79.226 -90.7304 84.8029 -79.8224 -92.0713 85.3335 -80.323 -93.0128 85.7279 
-80.7193 -93.828 85.9925 -81.0855 -94.8175 86.2249 -81.4124 -95.8732 86.4088 
-81.6057 -82.312 71.4797 -81.0811 -81.9629 72.3729 -81.5846 -81.4435 71.0037 
-80.881 -81.1041 71.8384 -81.4917 -80.5282 70.5134 -80.3538 -81.798 73.1312 
-80.6863 -80.1854 71.3587 -81.4276 -79.4574 70.1286 -80.0285 -80.8546 72.5807 
-79.7023 -81.7329 73.9497 -80.7487 -78.9877 71.1515 -81.6139 -78.232 70.047 
-79.8186 -79.7453 72.2152 -79.4036 -80.5533 73.5651 -79.2306 -81.5983 75.1482 
-81.0776 -77.6916 71.2375 -81.8106 -77.1623 70.0914 -80.0837 -78.4624 72.2849 
-79.3004 -79.2479 73.456 -79.0514 -80.332 75.0365 -78.84 -81.4689 76.5876 
-81.3209 -76.7881 71.4661 -81.935 -76.4069 70.2661 -80.6409 -77.4756 72.7016 
-79.7338 -78.1474 73.8238 -79.1361 -79.0907 75.1999 -78.8845 -80.4471 76.7141 
-78.7267 -81.5502 78.0309 -81.5992 -76.2304 72.0134 -82.3755 -75.8765 70.8846 
-81.0654 -76.9318 73.3198 -80.3818 -77.5819 74.5052 -79.5987 -78.1885 75.7175 
-79.1733 -79.4115 77.1017 -79.0259 -80.8346 78.3538 -78.9629 -81.8705 79.5764 
-82.1541 -75.7877 72.9191 -83.0946 -75.6291 71.8084 -81.4539 -76.3733 74.1637 
-80.8851 -77.1611 75.3012 -80.1747 -77.7399 76.3734 -79.5857 -78.5761 77.6254 
-79.3797 -79.9969 78.8715 -79.3306 -81.292 79.9749 -79.2233 -82.3338 81.1995 
-82.7798 -75.5753 73.8267 -83.6911 -75.7195 72.6441 -81.95 -75.7883 75.0534 
-81.3317 -76.5121 76.108 -80.7406 -77.3627 77.0136 -80.1239 -78.1572 78.0796 
-79.7511 -79.2804 79.3093 -79.6299 -80.6146 80.4335 -79.5326 -81.7557 81.504 
-79.3612 -82.8696 82.6282 -83.5711 -75.7906 74.1494 -82.7109 -75.5412 75.4909 
-83.5311 -75.8902 75.7247 -82.7926 -75.8506 76.9466 -83.7504 -76.3563 77.0892 
-81.968 -75.8415 76.6514 -83.0768 -76.7889 78.1124 -84.0657 -77.273 78.2891 
-82.1419 -76.5002 77.927 -81.3897 -76.7986 77.5444 -83.356 -77.8799 79.5205 
-84.2885 -78.1935 79.8804 -82.3793 -77.6563 79.2127 -81.5849 -77.696 78.8862 
-80.8281 -77.9241 78.4874 -83.613 -78.6397 81.5133 -84.4677 -78.9909 81.793 
-82.5893 -78.5261 81.0557 -81.8049 -78.6945 80.5432 -81.1192 -78.9045 80.0701 
-80.3434 -79.0137 79.6905 -83.8993 -79.4615 83.359 -84.607 -79.9565 83.3075 
-82.8894 -79.1879 83.0931 -82.0396 -79.3492 82.5116 -81.4588 -79.7401 81.825 
-80.7517 -79.9882 81.2998 -80.0438 -80.206 80.9113 -84.1054 -80.5943 84.5819 
-84.7183 -81.0548 84.4423 -83.2072 -80.2486 84.5502 -82.3221 -80.2213 84.1887 
-81.7381 -80.532 83.5047 -81.1515 -80.8598 82.8437 -80.3962 -81.0909 82.4235 
-79.8303 -81.3938 82.0323 -84.2531 -81.7986 85.6137 -84.8717 -82.1105 85.6043 
-83.4297 -81.5883 85.5594 -82.5754 -81.5298 85.3798 -81.9517 -81.6982 84.8986 
-81.4582 -81.9589 84.251 -80.7936 -82.1421 83.7982 -80.0988 -82.3317 83.5027 
-79.645 -82.5947 83.114 -84.4127 -82.9765 86.6747 -85.0249 -83.1421 86.7258 
-83.6271 -82.9211 86.5371 -82.8038 -82.9177 86.3983 -82.1408 -83.0205 86.104 
-81.6759 -83.2583 85.5497 -81.1852 -83.4692 85.0302 -80.5454 -83.5894 84.7267 
-79.9357 -83.7204 84.4324 -79.4879 -83.9001 84.0367 -79.227 -85.2923 84.6204 
-79.699 -85.1671 85.0499 -79.4883 -86.5114 85.5673 -80.2835 -85.1214 85.4901 
-79.9597 -86.5441 86.1763 -79.6542 -87.9808 86.9948 -80.9069 -85.0707 85.8394 
-80.5252 -86.6307 86.7255 -79.9894 -88.0907 87.7565 -79.5417 -89.8878 88.8168 
-81.4071 -84.8683 86.2813 -81.0475 -86.5784 87.1642 -80.5243 -88.2152 88.2364 
-79.9591 -89.9022 89.2997 -79.6098 -91.9681 90.0415 -81.8289 -84.535 86.8924 
-81.4594 -86.2318 87.737 -81.0554 -88.1306 88.6462 -80.6692 -90.0197 89.4971 
-80.311 -91.9512 90.1079 -80.1758 -94.1643 90.556 -82.3992 -84.3454 87.3088 
-81.9619 -85.8722 88.2744 -81.5398 -87.7528 89.1671 -81.3079 -89.9923 89.8455 
-81.0969 -92.1824 90.3018 -80.8087 -94.3593 90.8026 -80.7681 -96.7947 91.4055 
-83.1796 -84.3224 87.4464 -82.6894 -85.7976 88.4426 -82.1643 -87.4466 89.4445 
-81.843 -89.6884 90.2096 -81.6972 -92.2763 90.683 -81.3683 -94.6668 91.2482 
-81.0349 -97.0251 92.0585 -81.0362 -99.5589 92.6499 -84.0285 -84.2723 87.5691 
-83.5532 -85.7833 88.4512 -82.9797 -87.3455 89.4161 -82.4707 -89.3404 90.2994 
-82.2076 -92.0053 90.8984 -81.9167 -94.7063 91.4975 -81.4406 -97.0824 92.4041 
-81.1454 -99.4482 93.2253 -81.1382 -101.878 93.3991 -84.7601 -84.2344 87.6759 
-84.3725 -85.6613 88.5022 -83.8598 -87.227 89.3646 -83.2585 -89.052 90.2493 
-82.7895 -91.5117 90.9414 -82.4967 -94.3177 91.526 -82.0978 -96.8479 92.3262 
-81.6213 -99.141 93.2125 -81.3452 -101.465 93.6503 -81.2217 -103.748 93.4086 
-78.9765 -86.3662 84.8673 -79.3887 -87.6891 85.9387 -78.9262 -87.6346 85.1355 
-79.5217 -89.7039 87.6963 -79.4799 -89.4043 86.4556 -79.0953 -89.238 85.453 
-79.3387 -92.1693 89.5213 -79.4527 -92.1085 88.3204 -79.4881 -91.6252 87.0024 
-79.3299 -91.1115 85.911 -79.6629 -94.4369 90.4293 -79.404 -94.7109 89.8107 
-79.3596 -94.4433 88.6147 -79.4319 -93.6077 87.4439 -79.6486 -92.7304 86.4549 
-80.5178 -96.9515 91.0006 -80.2057 -97.0553 90.5699 -79.8982 -96.8904 89.768 
-79.7114 -96.1332 88.6896 -79.8154 -94.9101 87.7449 -80.1331 -93.7924 86.8414 
-81.0759 -99.9967 91.9792 -81.0268 -100.063 91.2869 -80.8745 -99.7576 90.6254 
-80.7113 -99.0862 89.7859 -80.5731 -97.8223 88.8384 -80.545 -96.1819 87.9489 
-80.6374 -94.7863 87.0341 -81.1473 -102.774 92.7666 -81.089 -103.276 91.9566 
-80.9603 -103.177 91.2923 -80.9756 -102.65 90.6945 -81.1047 -101.671 89.928 
-81.117 -99.9744 89.0242 -81.0432 -97.8993 88.1032 -81.0357 -96.1054 87.1862 
-81.0446 -104.875 92.8565 -80.7764 -105.804 92.1209 -80.4199 -106.158 91.5275 
-80.2446 -105.877 91.0973 -80.4289 -105.185 90.5594 -80.7828 -103.961 89.8399 
-81.0597 -101.99 89.0401 -81.2285 -99.6298 88.2027 -81.344 -97.4922 87.333 
-81.0654 -106.338 92.7653 -80.6141 -107.604 92.0779 -80.6734 -109.214 92.0945 
-79.9778 -110.606 91.4563 -80.2274 -112.129 91.6237 -80.0659 -108.548 91.4792 
-79.437 -113.595 91.0002 -79.9065 -114.512 90.9204 -79.4654 -111.44 90.9986 
-79.6481 -108.698 91.0962 -79.0989 -115.785 90.0556 -79.8659 -115.901 89.7321 
-79.1599 -114.167 90.3328 -79.3415 -111.127 90.4706 -79.5569 -108.048 90.6162 
-79.2205 -116.727 88.6454 -80.3576 -116.309 88.6094 -78.9314 -115.979 89.082 
-79.3122 -113.337 89.4275 -79.3598 -109.85 89.6631 -79.7977 -106.963 89.9523 
-80.0356 -116.566 87.5924 -81.1765 -115.79 87.9903 -79.1574 -116.437 87.8326 
-79.2152 -114.77 88.3474 -79.4303 -111.492 88.6801 -79.5774 -108.214 89.0741 
-80.3272 -105.364 89.3592 -80.9649 -115.404 87.2273 -81.7707 -114.424 87.7313 
-80.0494 -115.59 87.243 -79.5634 -114.746 87.7744 -79.6284 -112.456 88.2461 
-79.8243 -109.234 88.5694 -80.2986 -106.167 88.8712 -80.9634 -103.046 88.785 
-81.5117 -113.555 87.2354 -82.1364 -112.672 87.5978 -80.9147 -113.836 87.1753 
-80.3962 -113.357 87.5828 -80.2009 -112.003 88.1222 -80.3509 -109.587 88.459 
-80.717 -106.577 88.6247 -81.1761 -103.503 88.5287 -81.4299 -100.384 88.0433 
-81.9717 -111.597 87.2808 -82.6124 -110.959 87.4931 -81.4859 -111.816 87.2277 
-81.1412 -111.426 87.4675 -80.952 -110.483 87.8955 -80.9998 -108.863 88.2475 
-81.247 -106.414 88.3854 -81.5399 -103.504 88.2496 -81.7025 -100.616 87.8 
-81.6387 -98.0049 87.1385 -81.4754 -104.154 93.4029 -81.3215 -106.965 92.8522 
-81.8782 -104.534 93.2852 -81.644 -107.328 92.8266 -82.3153 -104.562 93.0882 
-81.0666 -109.863 92.3275 -81.9398 -106.935 92.5007 -82.7835 -104.062 92.7816 
-81.4785 -109.773 92.2394 -80.879 -112.39 91.7141 -82.409 -105.93 92.0916 
-83.3908 -103.212 92.4824 -81.7946 -108.737 91.751 -81.4262 -111.664 91.3704 
-80.7616 -114.2 90.6814 -83.1697 -104.751 91.9331 -84.0119 -101.935 92.1517 
-82.4161 -107.425 91.4805 -81.8279 -110.255 90.9826 -81.3253 -113.03 90.3694 
-80.8549 -115.126 89.6021 -83.8482 -103.129 91.6909 -84.5302 -100.099 91.5557 
-83.2969 -106.122 91.4976 -82.702 -108.858 91.053 -81.9259 -111.362 90.3755 
-81.4949 -113.513 89.732 -81.3992 -115.047 88.97 -84.4607 -100.957 91.1578 
-85.1599 -98.1712 90.8324 -83.918 -104.202 91.2399 -83.6425 -107.283 91.1189 
-83.0959 -109.69 90.6027 -82.433 -111.531 89.944 -82.204 -113.023 89.3715 
-82.0912 -114.06 88.5896 -85.3598 -98.8807 90.6533 -85.9368 -96.6332 90.2211 
-84.6136 -101.752 90.829 -84.1737 -104.912 90.8596 -83.9801 -107.657 90.6225 
-83.6398 -109.678 90.0592 -83.2905 -111.116 89.4901 -83.0055 -112.088 88.9186 
-82.5927 -112.617 88.211 -86.3155 -97.2865 90.1791 -86.5783 -95.4536 89.6173 
-85.6621 -99.5511 90.484 -84.8879 -102.206 90.5589 -84.4249 -104.906 90.4586 
[...]
CELL_DATA 2000
SCALARS Distance double
LOOKUP_TABLE default
136.366 136.367 136.707 137.373 136.328 136.676 137.375 137.732 138.445 
136.441 136.699 137.448 137.776 138.614 138.926 139.797 136.771 136.952 
137.786 138.024 138.999 139.261 140.282 140.506 141.491 137.261 137.405 
138.352 138.552 139.612 139.821 140.884 141.083 142.068 142.252 143.166 
138.033 138.062 139.108 139.254 140.342 140.501 141.504 141.678 142.616 
142.806 143.725 143.901 144.833 139.156 139.047 140.111 140.144 141.206 
141.258 142.207 142.294 143.261 143.408 144.449 144.576 145.637 145.718 
146.755 140.384 140.245 141.212 141.188 142.158 142.144 143.062 143.073 
144.12 144.221 145.427 145.508 146.681 146.683 147.756 147.747 148.749 
141.464 141.361 142.174 142.165 143.015 143.033 143.931 143.975 145.062 
145.197 146.459 146.588 147.767 147.779 148.784 148.759 149.711 149.711 
150.655 135.75 134.896 135.452 135.728 134.04 134.572 134.775 135.375 
135.665 133.152 133.671 133.81 134.382 134.653 135.337 135.742 132.379 
132.809 132.913 133.395 133.61 134.296 134.754 135.516 136.034 131.829 
132.157 132.291 132.617 132.795 133.305 133.784 134.547 135.176 135.901 
136.494 131.495 131.74 132.03 132.252 132.54 132.756 133.226 133.744 
134.502 135.172 135.911 136.507 137.245 131.552 131.614 132.087 132.257 
132.774 132.834 133.321 133.496 134.243 134.731 135.645 136.154 136.991 
137.486 138.383 132.112 131.955 132.455 132.525 133.162 133.24 133.784 
133.804 134.423 134.687 135.592 136.061 137.005 137.426 138.302 138.764 
139.677 132.925 132.671 133.058 133 133.561 133.652 134.23 134.283 
134.846 134.967 135.739 136.099 137.039 137.476 138.353 138.758 139.585 
140.041 140.852 133.48 134.329 133.766 133.6 135.364 134.701 134.548 
134.01 134.029 136.662 135.887 135.747 135.07 135.079 134.574 134.684 
138.166 137.326 137.234 136.43 136.45 135.774 135.888 135.302 135.411 
139.808 138.945 138.894 138.024 138.066 137.296 137.447 136.715 136.877 
136.158 136.365 141.426 140.638 140.616 139.736 139.755 138.955 139.112 
138.376 138.563 137.796 137.999 137.286 137.6 142.864 142.196 142.219 
141.429 141.427 140.632 140.742 140.022 140.202 139.479 139.65 138.936 
139.173 138.548 138.865 144.223 143.59 143.659 142.957 142.995 142.255 
142.355 141.637 141.814 141.098 141.283 140.557 140.769 140.097 140.381 
139.773 140.087 145.582 144.962 145.058 144.388 144.477 143.785 143.918 
143.229 143.421 142.723 142.943 142.218 142.454 141.73 141.999 141.321 
141.617 140.991 141.299 142.139 142.509 142.723 143.538 142.966 143.181 
144.082 144.225 145.157 143.442 143.686 144.67 144.851 145.83 145.992 
147.104 143.893 144.157 145.156 145.426 146.446 146.67 147.726 147.998 
149.161 144.334 144.586 145.553 145.859 146.9 147.218 148.292 148.577 
149.657 149.969 151.118 144.802 145.026 145.971 146.245 147.269 147.618 
148.748 149.105 150.248 150.515 151.674 151.965 153.291 145.32 145.512 
146.447 146.682 147.662 147.974 149.083 149.509 150.735 151.118 152.347 
152.636 153.96 154.325 155.802 145.868 146.041 146.951 147.165 148.1 
148.362 149.38 149.789 150.985 151.506 152.78 153.239 154.512 154.945 
156.282 156.776 158.071 146.368 146.557 147.42 147.641 148.53 148.776 
149.711 150.054 151.139 151.662 152.903 153.5 154.745 155.298 156.497 
157.049 158.19 158.72 159.677 142.252 143.608 142.905 142.931 145.234 
144.372 144.409 143.671 143.765 147.331 146.296 146.444 145.42 145.584 
144.668 144.816 149.553 148.616 148.952 147.814 148.063 146.856 147.071 
145.947 146.15 151.575 150.817 151.297 150.368 150.661 149.493 149.628 
148.412 148.562 147.424 147.599 153.814 152.944 153.55 152.66 153.081 
152.011 152.142 150.927 150.936 149.787 149.833 148.783 148.822 156.414 
155.459 156.164 155.125 155.702 154.548 154.91 153.574 153.708 152.284 
152.297 150.995 150.978 149.855 149.804 158.683 158 158.663 157.781 
158.307 157.265 157.695 156.492 156.806 155.356 155.469 153.833 153.791 
152.237 152.162 150.852 150.784 160.2 159.856 160.393 159.883 160.257 
159.561 159.822 158.995 159.203 158.215 158.305 157.007 156.9 155.319 
155.109 153.506 153.327 151.915 151.786 161.025 162.252 161.507 161.22 
163.632 162.771 162.408 161.602 161.149 164.993 164.216 163.822 162.876 
162.328 161.408 160.776 165.733 165.363 165.058 164.294 163.619 162.602 
161.785 160.88 160.133 165.792 165.728 165.481 165.181 164.536 163.74 
162.667 161.73 160.777 160.084 159.243 165.575 165.594 165.295 165.246 
164.737 164.327 163.301 162.437 161.255 160.531 159.636 159.041 157.995 
165.029 165.219 164.859 164.915 164.447 164.318 163.545 162.937 161.81 
160.992 159.974 159.342 158.381 157.629 156.326 164.064 164.434 164.06 
164.294 163.79 163.887 163.24 163.027 162.098 161.488 160.412 159.715 
158.666 157.963 156.744 155.858 154.464 163.008 163.37 163.001 163.32 
162.813 163.049 162.417 162.511 161.709 161.509 160.474 159.986 158.801 
158.176 156.894 156.163 154.805 153.991 152.726 161.046 161.497 161.652 
162.374 161.793 162.102 162.95 163.068 163.805 161.65 162.174 163.012 
163.479 164.27 164.479 165.082 161.213 161.772 162.429 163.145 163.896 
164.555 165.148 165.466 165.746 160.697 161.266 161.821 162.424 163.072 
163.828 164.458 165.12 165.494 165.802 165.853 159.787 160.608 161.257 
161.902 162.554 163.121 163.709 164.291 164.744 165.285 165.508 165.766 
165.686 158.499 159.47 160.171 161.137 161.891 162.663 163.247 163.725 
164.074 164.51 164.75 165.205 165.224 165.445 165.143 157.411 158.22 
158.871 159.85 160.585 161.66 162.305 163.119 163.452 163.927 164.075 
164.462 164.499 164.805 164.57 164.686 164.201 156.635 157.313 157.915 
158.662 159.258 160.201 160.772 161.801 162.204 163.04 163.234 163.795 
163.837 164.154 163.98 164.089 163.689 163.684 163.183 146.869 147.918 
147.586 147.947 149.021 148.684 149.131 148.727 149.089 150.335 149.911 
150.436 149.993 150.438 149.939 150.315 151.715 151.298 151.783 151.345 
151.819 151.356 151.824 151.282 151.765 152.742 152.514 152.886 152.571 
153.011 152.697 153.279 152.869 153.497 152.934 153.55 153.42 153.341 
153.797 153.57 154.129 153.884 154.676 154.385 155.247 154.768 155.507 
154.851 155.449 154.121 154.059 154.793 154.612 155.487 155.231 156.293 
155.983 157.064 156.618 157.484 156.851 157.474 156.727 157.222 154.986 
154.917 155.807 155.747 156.818 156.74 157.911 157.72 158.789 158.441 
159.284 158.772 159.375 158.708 159.163 158.423 158.841 155.894 155.84 
156.678 156.714 157.724 157.888 158.979 159.079 159.976 159.876 160.544 
160.3 160.846 160.432 160.856 160.252 160.584 159.912 160.219 146.376 
145.858 146.562 147.388 145.226 145.996 146.875 147.563 148.429 144.634 
145.374 146.298 147.028 147.949 148.663 149.678 144.097 144.812 145.717 
146.463 147.398 148.154 149.206 150.015 151.089 143.381 144.183 145.033 
145.852 146.745 147.546 148.519 149.423 150.493 151.35 152.203 142.447 
143.298 144.11 145.042 145.916 146.8 147.679 148.598 149.557 150.548 
151.428 152.227 152.845 141.652 142.347 143.109 144.021 144.909 145.872 
146.769 147.693 148.599 149.544 150.425 151.317 152.051 152.78 153.419 
141.253 141.704 142.372 143.082 143.917 144.832 145.761 146.736 147.697 
148.637 149.561 150.404 151.224 151.979 152.746 153.457 154.229 141.142 
141.442 142.014 142.493 143.208 143.922 144.766 145.689 146.655 147.687 
148.69 149.623 150.503 151.261 152.057 152.787 153.623 154.354 155.165 
141.28 141.796 141.721 142.154 142.427 142.327 142.801 142.703 143.278 
143.146 143.045 143.551 143.406 143.956 143.925 144.699 143.905 143.814 
144.346 144.184 144.71 144.626 145.403 145.507 146.539 144.7 144.592 
145.126 144.972 145.523 145.423 146.256 146.32 147.455 147.57 148.689 
145.561 145.416 145.939 145.758 146.373 146.293 147.239 147.301 148.511 
148.6 149.754 149.727 150.609 146.427 146.309 146.88 146.656 147.333 
147.232 148.268 148.355 149.591 149.683 150.794 150.775 151.647 151.508 
152.199 147.146 147.149 147.816 147.666 148.4 148.292 149.339 149.415 
150.639 150.728 151.803 151.777 152.672 152.561 153.361 153.139 153.833 
147.683 147.794 148.534 148.554 149.355 149.352 150.387 150.482 151.685 
151.765 152.852 152.801 153.74 153.636 154.538 154.374 155.169 154.85 
155.453 148.209 149.505 148.924 149.14 151.346 150.478 150.728 149.971 
150.168 153.573 152.609 152.917 151.905 152.196 151.216 151.439 155.456 
154.794 155.186 154.273 154.604 153.539 153.793 152.673 152.824 156.897 
156.437 156.918 156.328 156.701 155.89 156.11 155.078 155.126 153.992 
153.94 158.622 157.999 158.591 157.969 158.42 157.741 157.977 157.158 
157.184 156.185 156.069 154.959 154.809 160.534 159.938 160.616 159.891 
160.41 159.56 159.804 158.9 158.93 158.034 157.965 157 156.87 
155.79 155.622 161.887 161.629 162.259 161.842 162.348 161.641 161.847 
160.861 160.805 159.779 159.65 158.733 158.587 157.69 157.476 156.489 
156.2 162.651 162.61 163.147 163.056 163.488 163.198 163.373 162.729 
162.634 161.696 161.461 160.441 160.154 159.218 158.891 158.047 157.665 
156.806 156.376 147.858 147.809 148.217 149.148 147.882 148.259 149.242 
149.722 150.947 147.846 148.326 149.332 149.87 151.143 151.74 153.102 
147.592 148.206 149.258 149.903 151.146 151.848 153.144 153.802 154.935 
147.283 147.934 149.036 149.747 150.942 151.696 152.88 153.626 154.702 
155.353 156.334 146.966 147.626 148.687 149.447 150.575 151.359 152.435 
153.201 154.256 155.012 156.137 156.809 157.994 146.554 147.23 148.18 
148.976 150.019 150.858 151.869 152.662 153.687 154.516 155.744 156.609 
157.956 158.67 159.893 146.111 146.753 147.646 148.397 149.396 150.222 
151.244 152.053 153.09 153.931 155.162 156.145 157.549 158.495 159.736 
160.421 161.321 145.751 146.331 147.227 147.9 148.892 149.637 150.683 
151.464 152.557 153.374 154.591 155.537 156.897 157.927 159.184 160.047 
160.951 161.54 162.149 147.095 145.928 146.667 147.022 144.832 145.547 
145.959 146.696 147.105 143.768 144.478 144.862 145.628 145.997 146.738 
147.034 142.584 143.322 143.573 144.403 144.654 145.483 145.66 146.471 
146.668 141.361 142.047 142.193 142.98 143.131 143.976 144.085 144.942 
145.09 146.005 146.279 140.251 140.852 140.967 141.62 141.745 142.467 
142.585 143.36 143.531 144.405 144.705 145.664 146.008 139.148 139.755 
139.825 140.435 140.509 141.164 141.271 141.969 142.138 142.925 143.218 
144.124 144.479 145.403 145.686 137.969 138.595 138.623 139.246 139.257 
139.91 139.97 140.675 140.813 141.577 141.82 142.675 143.002 143.901 
144.197 145.058 145.285 136.822 137.406 137.446 138.036 138.067 138.665 
138.73 139.382 139.527 140.252 140.485 141.289 141.603 142.461 142.785 
143.622 143.891 144.693 144.939 136.215 135.515 136.2 136.846 134.871 
135.542 136.257 136.877 137.508 134.465 134.99 135.766 136.363 137.063 
137.588 138.212 134.508 134.761 135.49 135.97 136.747 137.242 137.924 
138.369 139.032 134.882 134.97 135.597 135.864 136.632 137.035 137.783 
138.176 138.87 139.28 140.008 135.167 135.321 135.918 136.106 136.823 
137.081 137.824 138.124 138.844 139.198 139.954 140.355 141.145 135.274 
135.489 136.109 136.385 137.107 137.357 138.056 138.265 138.953 139.234 
140.007 140.375 141.193 141.562 142.344 135.509 135.628 136.258 136.524 
137.269 137.577 138.275 138.505 139.153 139.392 140.147 140.481 141.317 
141.661 142.442 142.755 143.464 136.007 136.011 136.632 136.76 137.468 
137.712 138.409 138.665 139.328 139.587 140.332 140.653 141.487 141.817 
142.602 142.884 143.587 143.854 144.527 136.537 137.584 137.09 137.18 
138.666 138.164 138.268 137.778 137.939 139.988 139.338 139.457 138.889 
139.029 138.568 138.795 141.662 140.868 141.015 140.255 140.427 139.77 
139.998 139.485 139.762 143.366 142.622 142.814 142.001 142.198 141.385 
141.626 140.896 141.189 140.569 140.881 145.043 144.311 144.552 143.798 
144.005 143.218 143.423 142.643 142.88 142.156 142.429 141.774 142.06 
146.924 146.097 146.372 145.559 145.802 145.003 145.221 144.428 144.632 
143.863 144.07 143.36 143.574 142.929 143.142 148.9 148.067 148.344 
147.475 147.729 146.869 147.127 146.278 146.521 145.668 145.882 145.053 
145.248 144.48 144.655 143.963 144.126 150.83 150.037 150.325 149.464 
149.69 148.824 149.051 148.214 148.442 147.598 147.798 146.935 147.116 
146.258 146.418 145.584 145.715 144.95 145.083 145.855 146.593 146.599 
147.392 147.38 147.423 148.293 148.255 149.083 148.1 148.203 149.118 
149.164 150.058 150.015 150.87 148.792 148.913 149.859 149.96 150.97 
151.022 152.039 151.93 152.836 149.488 149.638 150.682 150.782 151.961 
152.049 153.328 153.266 154.405 154.083 155.021 150.165 150.374 151.579 
151.738 153.107 153.231 154.713 154.721 156.06 155.805 156.867 156.403 
157.335 150.867 151.116 152.466 152.721 154.252 154.479 156.053 156.162 
157.54 157.429 158.497 158.189 159.067 158.675 159.494 151.556 151.873 
153.307 153.653 155.253 155.598 157.196 157.424 158.775 158.782 159.801 
159.627 160.427 160.175 160.864 160.575 161.168 152.085 152.524 153.978 
154.446 156.001 156.465 157.98 158.368 159.675 159.855 160.854 160.793 
161.555 161.362 161.989 161.742 162.247 161.961 162.353 132.77 131.911 
132.314 132.288 131.356 131.558 131.562 131.889 131.894 131.375 131.299 
131.371 131.432 131.468 131.602 131.622 131.721 131.512 131.579 131.514 
131.574 131.467 131.388 131.41 131.477 132.202 131.872 131.772 131.687 
131.705 131.656 131.537 131.376 131.283 131.362 131.629 132.982 132.462 
132.268 131.908 131.869 131.75 131.744 131.579 131.495 131.359 131.543 
131.733 132.297 133.918 133.38 133.28 132.689 132.696 132.237 132.376 
132.003 132.096 131.753 131.938 131.863 132.395 132.638 133.371 134.746 
134.3 134.276 133.795 133.877 133.369 133.544 133.011 133.164 132.622 
132.801 132.461 132.907 132.915 133.616 133.829 134.553 135.541 135.093 
135.056 134.685 134.783 134.456 134.624 134.22 134.325 133.802 133.897 
133.438 133.753 133.562 134.154 134.2 134.89 135.03 135.671 133.236 
132.762 133.253 133.739 132.319 132.788 133.296 133.756 134.259 132.008 
132.413 132.977 133.391 133.947 134.355 134.95 131.88 132.198 132.817 
133.192 133.806 134.148 134.76 135.155 135.796 132.072 132.208 132.826 
133.117 133.755 134.07 134.688 135.037 135.697 136.062 136.684 132.75 
132.629 133.214 133.274 133.908 134.097 134.752 135.027 135.731 136.052 
136.757 137.025 137.65 133.785 133.505 134.05 133.879 134.488 134.456 
135.128 135.235 135.953 136.173 136.911 137.175 137.873 138.081 138.697 
134.891 134.581 135.064 134.813 135.347 135.193 135.792 135.759 136.395 
136.483 137.138 137.347 138.026 138.289 138.931 139.131 139.672 135.945 
135.642 136.064 135.796 136.239 136.041 136.52 136.426 136.945 136.948 
137.502 137.605 138.216 138.427 139.065 139.306 139.871 140.037 140.482 
133.653 134.17 134.103 134.492 134.711 134.64 135.102 135.021 135.522 
135.405 135.262 135.77 135.68 136.243 136.164 136.781 136.215 136.029 
136.525 136.408 136.983 136.907 137.552 137.506 138.227 137.019 136.816 
137.293 137.188 137.794 137.706 138.382 138.304 139.054 139.023 139.826 
137.904 137.614 138.074 137.956 138.655 138.599 139.37 139.241 139.979 
139.869 140.636 140.623 141.395 138.914 138.551 138.963 138.776 139.49 
139.487 140.348 140.286 141.011 140.833 141.471 141.384 142.087 142.11 
142.811 139.867 139.543 139.884 139.666 140.27 140.281 141.111 141.18 
141.928 141.82 142.393 142.223 142.844 142.795 143.522 143.513 144.2 
140.655 140.405 140.703 140.505 141.003 140.985 141.734 141.849 142.645 
142.655 143.304 143.151 143.766 143.629 144.349 144.29 145.029 144.947 
145.59 146.992 146.435 146.391 145.755 145.762 145.772 145.085 145.112 
144.57 144.94 145.023 144.35 144.403 143.821 143.962 143.514 144.057 
144.151 143.49 143.606 143.038 143.201 142.729 142.902 142.417 143.249 
143.292 142.638 142.741 142.197 142.378 141.896 142.084 141.574 141.735 
141.216 142.54 142.552 141.928 141.971 141.425 141.548 141.015 141.183 
140.615 140.818 140.285 140.521 140.064 141.887 141.898 141.295 141.314 
140.72 140.788 140.162 140.266 139.606 139.787 139.209 139.503 139.047 
139.373 138.952 141.319 141.31 140.72 140.694 140.048 140.055 139.372 
139.411 138.724 138.815 138.219 138.433 137.976 138.297 137.895 138.224 
137.793 140.865 140.828 140.28 140.181 139.532 139.424 138.746 138.686 
138.053 138.051 137.498 137.575 137.117 137.304 136.905 137.174 136.776 
137.066 136.657 
POINT_DATA 1002
SCALARS Distance double
LOOKUP_TABLE default
137.023 136.018 136.059 137.042 136.003 138.058 136.987 135.996 138.099 
139.182 137.117 136.213 138.245 139.501 140.712 137.53 136.573 138.715 
140.04 141.31 142.455 138.116 137.097 139.414 140.712 141.904 142.994 
144.052 138.976 138.03 140.237 141.38 142.425 143.524 144.661 145.79 
140.14 139.304 141.226 142.163 143.083 144.28 145.547 146.705 147.772 
141.296 140.557 142.206 143.049 143.978 145.304 146.698 147.799 148.767 
149.711 142.235 141.604 142.996 143.847 144.9 146.31 147.764 148.842 
149.712 150.658 151.598 135.177 135.125 134.391 134.205 133.529 134.999 
133.284 132.649 133.945 135.02 132.499 131.996 132.961 133.928 135.32 
131.983 131.514 132.398 133.032 134.399 135.816 131.729 131.246 132.383 
132.845 133.807 135.307 136.613 131.874 131.543 132.664 133.281 133.843 
135.086 136.546 137.818 132.455 132.346 133.045 133.783 134.294 135.139 
136.556 137.917 139.174 133.218 133.22 133.509 134.135 134.776 135.473 
136.607 137.958 139.187 140.397 134.006 134.079 134.908 135.12 136.066 
134.448 136.477 137.446 135.646 135.145 138.058 138.999 137.172 136.535 
135.988 139.783 140.649 138.848 138.184 137.627 137.018 141.485 142.149 
140.584 139.837 139.319 138.745 138.237 142.956 143.491 142.22 141.479 
140.914 140.376 139.83 139.454 144.325 144.855 143.699 143.068 142.522 
142.007 141.468 141.011 140.68 145.708 146.185 145.145 144.591 144.099 
143.644 143.182 142.713 142.275 141.898 142.918 143.357 144.342 143.913 
144.979 146.151 144.435 145.665 146.85 148.316 144.857 146.181 147.498 
148.834 150.339 145.262 146.545 147.98 149.402 150.738 152.283 145.72 
146.933 148.332 149.937 151.41 152.88 154.717 146.228 147.395 148.661 
150.262 152.012 153.625 155.383 157.313 146.754 147.875 149.034 150.45 
152.25 154.085 155.832 157.637 159.269 147.212 148.296 149.423 150.681 
152.293 154.173 155.984 157.681 159.258 160.511 143.564 145.21 144.455 
147.53 146.597 145.703 150.01 149.324 148.275 147.241 152.108 151.779 
150.889 149.726 148.724 154.448 154.099 153.37 152.172 150.914 149.864 
157.218 156.834 156.18 155.186 153.77 152.211 150.861 159.478 159.304 
158.795 158.121 157.12 155.526 153.644 151.986 160.831 160.881 160.599 
160.083 159.417 158.389 156.8 154.897 153.107 161.742 161.959 163.065 
163.3 164.543 161.978 164.817 165.628 163.361 161.658 165.653 165.924 
164.713 162.797 160.91 165.611 165.844 165.184 163.722 161.495 159.935 
165.331 165.552 164.947 164.084 162.107 160.174 158.81 164.778 164.76 
164.471 163.929 162.63 160.705 159.054 157.292 163.77 163.666 163.638 
163.269 162.532 161.144 159.4 157.555 155.395 162.68 162.682 162.559 
162.249 161.744 160.863 159.428 157.587 155.55 153.477 160.897 162.329 
161.276 162.713 161.402 163.821 162.419 161.144 163.915 165.086 161.768 
160.74 163.111 164.673 165.696 161.301 160.062 162.405 163.711 165.001 
165.794 160.473 158.837 162.009 163.257 164.17 165.068 165.666 159.112 
157.557 160.942 162.733 163.759 164.301 164.889 165.123 158.003 156.68 
159.509 161.318 162.875 163.729 164.205 164.409 164.183 157.263 155.966 
158.486 159.789 161.221 162.525 163.458 163.853 163.681 163.208 147.213 
148.334 148.21 149.51 149.345 149.553 150.882 150.782 150.921 150.846 
152.235 152.132 152.236 152.308 152.327 153.181 152.92 153.249 153.556 
153.983 154.192 153.929 153.419 154.291 154.856 155.626 156.14 156.197 
154.835 154.117 155.624 156.556 157.478 158.095 158.225 158.006 155.804 
155.042 156.79 158.049 159.139 159.763 160.007 159.902 159.59 145.732 
146.745 145.099 146.147 144.434 147.737 145.546 143.926 147.203 148.91 
144.968 143.402 146.642 148.353 150.358 144.185 142.562 145.951 147.647 
149.562 151.564 143.154 141.632 144.996 146.807 148.59 150.523 152.202 
142.259 141.068 143.918 145.819 147.689 149.524 151.231 152.726 141.788 
140.906 143.072 144.766 146.706 148.701 150.461 151.985 153.532 141.634 