# vtk DataFile Version 4.0
vtk output
ASCII
DATASET POLYDATA
POINTS 1002 float
-82.652 -82.1151 70.7205 -82.5825 -81.6429 69.3452 -82.0796 -81.3434 70.1486 
-81.9835 -81.9676 71.4822 -81.4719 -81.0349 71.0599 -82.5012 -82.8326 72.0389 
-81.2912 -81.8853 72.3814 -80.7716 -80.8846 71.9541 -81.7307 -82.9405 72.7841 
-82.0103 -83.9972 73.2176 -80.6756 -81.9714 73.3655 -80.0456 -81.0229 72.7876 
-81.1298 -83.0777 73.8508 -81.3604 -84.2546 74.1963 -81.568 -85.4489 74.624 
-80.0491 -82.2321 74.3773 -79.4164 -81.3201 73.7977 -80.6414 -83.2428 75.0471 
-80.9466 -84.4594 75.572 -81.1606 -85.7632 75.974 -81.4511 -87.0044 76.4274 
-79.4826 -82.4849 75.586 -79.0449 -81.5166 75.1205 -80.0544 -83.4979 76.1571 
-80.477 -84.7872 76.7945 -80.7416 -86.2022 77.3839 -81.0294 -87.5457 77.8689 
-81.2845 -88.7381 78.3116 -79.1997 -82.7668 76.9766 -78.9168 -81.6832 76.5188 
-79.5693 -83.9186 77.4116 -79.9023 -85.4009 77.8409 -80.141 -86.966 78.4202 
-80.407 -88.3074 79.072 -80.7192 -89.4926 79.6458 -80.9688 -90.5946 80.1232 
-79.0457 -83.3729 78.3068 -78.8419 -82.0899 77.89 -79.2686 -84.6679 78.7946 
-79.4425 -86.1871 79.1791 -79.5779 -87.8051 79.5827 -79.7835 -89.1363 80.1591 
-80.1099 -90.2616 80.8082 -80.4659 -91.3947 81.3811 -80.7606 -92.4609 81.8039 
-78.7957 -84.2247 79.6198 -78.7471 -82.731 79.3358 -78.8946 -85.6479 80.063 
-79.0047 -86.9999 80.5664 -79.1363 -88.4053 81.0527 -79.3509 -89.7345 81.5372 
-79.6522 -90.9502 82.0267 -79.9755 -92.2105 82.4965 -80.2568 -93.4342 82.8841 
-80.4809 -94.4448 83.1306 -78.549 -84.9753 80.9954 -78.6924 -83.4165 80.76 
-78.4804 -86.4595 81.2834 -78.5396 -87.6916 81.7022 -78.7315 -88.8914 82.2684 
-79.0117 -90.2481 82.8439 -79.2919 -91.6788 83.2582 -79.5042 -93.1428 83.5304 
-79.6547 -94.5618 83.759 -79.7849 -95.7456 83.9388 -79.9268 -96.6391 84.0418 
-82.2918 -80.8951 68.6049 -81.8653 -80.488 69.5673 -82.1769 -79.8545 68.1384 
-81.7926 -79.463 69.1999 -82.0561 -78.6162 67.7807 -81.2411 -80.143 70.5751 
-81.604 -78.2692 68.8721 -81.8317 -77.3052 67.3996 -81.0402 -79.1966 70.2038 
-80.3682 -79.9733 71.4328 -81.3616 -76.8616 68.6287 -81.8214 -76.0167 67.3345 
-80.7417 -77.9559 69.9278 -80.009 -78.8927 71.0681 -79.5326 -79.9954 72.2774 
-81.4851 -75.4725 68.7887 -82.1524 -74.8905 67.7414 -80.6303 -76.4336 69.9207 
-79.7986 -77.4442 70.9772 -79.2504 -78.5857 72.0562 -79.0281 -80.1232 73.4481 
-81.8498 -74.4091 69.2747 -82.4935 -73.9943 68.2771 -80.9466 -75.1576 70.3032 
-79.9597 -76.0643 71.2547 -79.2607 -77.0567 72.2003 -78.9062 -78.5384 73.3956 
-78.8086 -80.2445 74.9121 -82.0889 -73.6282 69.9099 -82.7862 -73.3434 68.9187 
-81.3226 -74.2667 70.9338 -80.4063 -75.1491 71.8653 -79.5658 -76.0193 72.7324 
-78.9812 -77.1586 73.7405 -78.7044 -78.7699 75.0232 -78.7149 -80.439 76.4612 
-82.3818 -73.1005 70.7913 -83.2477 -73.0382 69.8397 -81.5947 -73.5441 71.7538 
-80.8103 -74.4154 72.6576 -80.0331 -75.3899 73.5252 -79.3055 -76.3693 74.4432 
-78.7917 -77.6587 75.5332 -78.6409 -79.2126 76.7791 -78.7145 -80.8778 78.0718 
-82.934 -72.9705 71.782 -83.828 -73.1255 70.8364 -82.0455 -73.122 72.6697 
-81.2087 -73.8004 73.4805 -80.4921 -74.8388 74.3232 -79.8239 -75.9042 75.2255 
-79.197 -77.051 76.2003 -78.8346 -78.4018 77.2959 -78.78 -79.879 78.47 
-78.7938 -81.5477 79.6469 -83.8514 -73.3496 72.2921 -82.9857 -73.1887 73.2714 
-83.8726 -73.8368 73.558 -83.0194 -73.8358 74.5554 -83.8387 -74.574 74.8395 
-81.9939 -73.4874 74.1096 -82.9813 -74.7723 76.0094 -83.8343 -75.3088 76.5346 
-81.9643 -74.3908 75.5001 -81.0856 -74.3917 74.9532 -82.975 -75.6954 77.7983 
-83.9155 -76.0577 78.3326 -81.9581 -75.5411 77.1455 -81.0741 -75.4634 76.519 
-80.4013 -75.5712 75.9101 -82.9787 -76.812 79.4029 -83.8979 -77.2038 79.7738 
-81.9973 -76.689 78.8589 -81.1441 -76.6603 78.2177 -80.4458 -76.6544 77.5529 
-79.7886 -76.7799 76.8982 -82.9153 -78.1702 80.861 -83.748 -78.4586 81.2425 
-82.0267 -77.9999 80.3743 -81.2245 -77.8478 79.8823 -80.5265 -77.798 79.2666 
-79.8841 -77.9274 78.5769 -79.2816 -78.1249 77.9489 -82.9308 -79.212 82.5438 
-83.6769 -79.3265 82.8706 -82.1243 -79.2586 81.9645 -81.3515 -79.1611 81.4872 
-80.6044 -79.0072 81.0552 -79.9486 -79.1276 80.3845 -79.4483 -79.3853 79.6881 
-79.0514 -79.5755 79.1067 -83.0378 -80.1076 83.9493 -83.6924 -80.2416 84.0356 
-82.3075 -80.3076 83.4629 -81.571 -80.504 82.9283 -80.7879 -80.4507 82.6288 
-80.021 -80.4599 82.1865 -79.5027 -80.7044 81.4547 -79.2159 -80.9297 80.821 
-78.9771 -81.1436 80.2865 -83.0558 -81.519 84.6315 -83.6442 -81.7332 84.5177 
-82.3889 -81.6075 84.4216 -81.7112 -81.8965 83.9892 -80.9978 -82.0458 83.7233 
-80.2182 -82.0372 83.5504 -79.5805 -82.1583 83.0415 -79.2504 -82.3925 82.3762 
-79.0563 -82.6174 81.8884 -78.8453 -82.9441 81.4024 -78.5353 -85.0714 82.2521 
-78.7646 -84.6609 82.8375 -78.3718 -86.7741 83.6885 -79.021 -84.3548 83.2439 
-78.663 -86.5519 84.2115 -78.2634 -88.6387 85.0331 -79.2796 -84.0888 83.7639 
-78.9735 -86.3042 84.6662 -78.5435 -88.5922 85.5849 -78.1826 -90.9951 86.2868 
-79.7328 -83.8694 84.3461 -79.3217 -85.9784 85.2571 -78.8545 -88.2983 86.1946 
-78.4535 -90.8448 86.8585 -78.1984 -93.8025 87.296 -80.4191 -83.8003 84.5829 
-79.8508 -85.7315 85.6688 -79.2523 -87.9097 86.7557 -78.734 -90.4329 87.4646 
-78.5299 -93.4439 87.8121 -78.2718 -96.6691 88.0866 -81.1264 -83.7119 84.6784 
-80.5287 -85.5767 85.7932 -79.9036 -87.6286 86.9913 -79.1916 -90.1349 87.7867 
-78.7594 -93.0625 88.2758 -78.5932 -96.2827 88.6662 -78.1068 -99.1697 88.9519 
-81.7939 -83.5055 84.928 -81.2122 -85.3879 85.9447 -80.7254 -87.3022 87.1572 
-80.0521 -89.8537 87.8605 -79.2699 -92.8561 88.3577 -78.8097 -95.8508 89.06 
-78.4273 -98.6902 89.6098 -77.779 -100.994 89.7794 -82.4795 -83.427 85.0535 
-81.8859 -85.3315 85.9697 -81.471 -87.0094 87.269 -81.0115 -89.3298 88.0139 
-80.2078 -92.4669 88.3036 -79.3819 -95.4238 89.0292 -78.8186 -97.9633 89.9085 
-78.2862 -100.328 90.2793 -77.7243 -102.374 90.2116 -83.1362 -83.5753 84.9063 
-82.5602 -85.4945 85.6856 -82.1054 -87.0084 86.9983 -81.723 -88.8593 88.0079 
-81.1088 -91.7856 88.3318 -80.2649 -94.8495 88.8679 -79.5021 -97.2359 89.8377 
-78.9099 -99.4322 90.4479 -78.4095 -101.725 90.4842 -78.0368 -103.841 90.2908 
-78.2728 -86.6618 82.5375 -78.1074 -88.3024 84.0358 -78.1864 -88.035 82.7916 
-78.0406 -90.5556 85.4937 -78.1106 -89.9411 84.3425 -78.3607 -89.3643 83.2087 
-77.8926 -93.7452 86.8009 -77.9333 -93.137 85.9389 -78.2758 -92.1267 84.777 
-78.6617 -91.039 83.8028 -77.7247 -96.9822 87.7203 -77.3992 -96.8082 87.2537 
-77.6849 -96.0091 86.2851 -78.3054 -94.5528 85.1761 -78.8767 -92.9037 84.2716 
-77.5501 -99.5482 88.4455 -76.9982 -99.4566 88.0587 -76.9378 -99.0264 87.4088 
-77.4561 -98.1073 86.3437 -78.2242 -96.4945 85.3285 -78.9527 -94.643 84.4733 
-77.271 -101.499 89.2217 -76.9444 -101.415 88.6787 -76.9783 -101.011 88.127 
-77.2587 -100.518 87.3076 -77.6596 -99.6205 86.2898 -78.2465 -98.0833 85.3732 
-78.9773 -96.2393 84.5746 -77.1754 -103.086 89.7881 -76.9984 -103.36 89.2183 
-77.3829 -103.324 88.6156 -77.8978 -103.125 87.9712 -78.0583 -102.564 87.1754 
-78.0677 -101.377 86.2703 -78.3726 -99.6178 85.4145 -79.0337 -97.6087 84.6645 
-77.5122 -104.69 89.9848 -77.2341 -105.319 89.482 -77.497 -105.844 88.8379 
-78.0826 -106.229 88.201 -78.4225 -106.056 87.5932 -78.3865 -104.968 86.9159 
-78.3135 -103.13 86.1521 -78.5449 -100.915 85.399 -79.1594 -98.6481 84.7165 
-78.234 -106.311 90.1263 -77.8201 -107.23 89.6735 -78.478 -109.073 89.8395 
-78.048 -110.142 89.0808 -78.4778 -111.464 89.175 -77.5826 -108.078 88.9629 
-77.9443 -112.679 88.1906 -78.3908 -113.159 88.1543 -77.5199 -111.033 88.1294 
-77.6199 -108.894 88.1658 -78.0088 -114.55 87.2027 -78.7147 -114.464 87.1991 
-77.2515 -113.379 87.2069 -76.9757 -111.548 87.2459 -77.7751 -109.272 87.4855 
-78.6302 -115.873 86.1735 -79.4638 -115.28 86.4056 -77.6406 -115.202 86.2446 
-76.656 -113.338 86.3415 -76.8942 -111.281 86.5716 -78.0117 -108.542 86.9322 
-79.4547 -116.191 85.1009 -80.2537 -115.045 85.612 -78.5196 -116.41 85.1073 
-77.4125 -114.862 85.4207 -76.9388 -112.421 85.7485 -77.6205 -109.839 86.1611 
-78.3008 -106.615 86.4043 -80.2255 -115.224 84.3655 -80.9154 -113.859 84.9995 
-79.2897 -116.195 84.2081 -78.3357 -115.642 84.5639 -77.7987 -113.336 85.0821 
-78.0118 -110.446 85.5775 -78.4447 -107.366 85.9011 -78.526 -104.034 85.8206 
-80.9323 -113.5 84.2233 -81.4446 -112.249 84.7821 -80.0343 -114.597 84.0386 
-79.0321 -114.785 84.2571 -78.4723 -113.291 84.6828 -78.5517 -110.601 85.182 
-78.8229 -107.555 85.557 -78.8766 -104.361 85.5457 -78.9037 -101.288 85.1914 
-81.4858 -111.446 84.4384 -81.8535 -110.401 84.8494 -80.7903 -112.316 84.3549 
-79.8524 -112.615 84.5249 -79.1409 -111.745 84.7197 -78.99 -109.71 84.9584 
-79.1602 -107.083 85.2584 -79.2761 -104.196 85.3175 -79.3686 -101.293 85.0072 
-79.6061 -98.7318 84.535 -78.6193 -104.245 90.4255 -78.7826 -107.098 90.3456 
-79.149 -104.525 90.6265 -79.2577 -107.383 90.6031 -79.8083 -104.318 90.8572 
-78.9095 -109.667 90.0829 -79.9941 -106.827 90.781 -80.7494 -103.446 90.8965 
-79.4673 -109.393 90.2066 -78.9226 -111.338 89.2372 -81.0014 -105.523 90.8231 
-81.7549 -102.225 90.7243 -80.378 -108.405 90.2468 -79.7819 -110.538 89.1914 
-79.1163 -112.55 88.1263 -82.0227 -103.925 90.8127 -82.7462 -101.125 90.5199 
-81.2818 -106.82 90.3729 -80.739 -109.377 89.2923 -80.2334 -111.664 88.2358 
-79.7178 -113.73 87.4099 -83.0902 -102.539 90.6392 -83.7054 -100.105 90.1206 
-82.1783 -104.937 90.4759 -81.3407 -107.433 89.5509 -80.9563 -110.076 88.4805 
-80.7233 -112.492 87.7438 -80.4341 -114.157 86.8793 -83.9345 -101.205 89.9769 
-84.3151 -98.705 89.2016 -83.2192 -103.365 90.1981 -82.1744 -105.299 89.6617 
-81.3987 -107.516 88.6903 -81.182 -110.054 87.8953 -81.1026 -112.189 87.2335 
-80.9858 -113.386 86.2049 -84.321 -99.3827 88.7992 -84.6395 -96.877 87.9301 
-83.9282 -101.745 89.3584 -83.2545 -103.669 89.3615 -82.3988 -105.368 88.8125 
-81.815 -107.279 88.0336 -81.5776 -109.366 87.3591 -81.4601 -111.05 86.6366 
-81.4327 -111.961 85.6685 -84.6942 -97.2375 87.5122 -85.1295 -95.0751 86.7814 
[...]
CELL_DATA 2000
SCALARS Distance double
LOOKUP_TABLE default
134.577 134.496 134.891 135.604 134.461 134.837 135.574 135.946 136.664 
134.552 134.899 135.747 136.047 136.86 137.106 137.909 134.814 135.113 
136.082 136.369 137.319 137.511 138.442 138.593 139.57 135.302 135.504 
136.495 136.774 137.811 138.07 139.113 139.293 140.354 140.48 141.536 
136.037 136.133 137.138 137.298 138.38 138.615 139.75 139.988 141.11 
141.296 142.38 142.495 143.524 136.968 137 138.089 138.131 139.275 
139.366 140.559 140.708 141.879 142.043 143.156 143.309 144.384 144.486 
145.508 138.044 138.034 139.166 139.188 140.337 140.382 141.541 141.627 
142.778 142.881 143.999 144.112 145.22 145.34 146.414 146.48 147.446 
139.19 139.153 140.222 140.244 141.293 141.363 142.411 142.544 143.641 
143.789 144.909 145.017 146.127 146.218 147.298 147.373 148.352 148.358 
149.193 133.895 132.933 133.556 133.842 132.006 132.647 132.935 133.507 
133.784 130.972 131.7 132.027 132.621 132.826 133.417 133.747 129.968 
130.63 130.972 131.641 131.827 132.417 132.642 133.381 133.886 129.409 
129.78 130.066 130.597 130.807 131.368 131.572 132.256 132.734 133.626 
134.351 129.284 129.445 129.696 129.947 130.187 130.516 130.771 131.265 
131.741 132.525 133.288 134.222 135.077 129.346 129.413 129.691 129.814 
130.122 130.244 130.569 130.766 131.237 131.716 132.461 133.248 134.153 
135.048 135.976 129.722 129.601 129.897 129.92 130.302 130.38 130.804 
130.871 131.358 131.527 132.21 132.664 133.565 134.267 135.255 136.069 
137.071 130.514 130.196 130.472 130.294 130.673 130.657 131.148 131.216 
131.776 131.851 132.503 132.692 133.528 133.947 134.932 135.538 136.57 
137.289 138.298 131.141 132.098 131.418 131.067 133.151 132.429 132.077 
131.395 131.179 134.401 133.593 133.297 132.502 132.283 131.642 131.627 
135.851 134.985 134.762 133.881 133.719 132.915 132.897 132.249 132.331 
137.34 136.499 136.33 135.459 135.351 134.492 134.476 133.685 133.749 
133.043 133.139 138.827 138.014 137.905 137.062 137 136.16 136.157 
135.331 135.391 134.6 134.727 133.972 134.172 140.298 139.543 139.513 
138.688 138.689 137.844 137.888 137.04 137.132 136.308 136.483 135.693 
135.95 135.183 135.525 141.625 140.993 141.025 140.301 140.355 139.569 
139.666 138.83 138.958 138.107 138.298 137.497 137.789 137.031 137.396 
136.657 137.095 142.793 142.259 142.34 141.738 141.829 141.17 141.302 
140.583 140.741 139.951 140.131 139.329 139.594 138.854 139.226 138.526 
138.962 138.271 138.755 139.905 140.108 140.567 141.684 140.33 140.776 
141.934 142.383 143.517 140.661 141.026 142.193 142.655 143.871 144.284 
145.502 141.159 141.425 142.559 142.963 144.197 144.643 145.895 146.341 
147.682 141.699 141.937 143.004 143.361 144.545 144.978 146.199 146.67 
147.978 148.544 149.962 142.174 142.414 143.417 143.77 144.901 145.319 
146.495 146.942 148.198 148.764 150.182 150.814 152.169 142.627 142.842 
143.805 144.142 145.257 145.664 146.832 147.245 148.455 148.962 150.32 
150.975 152.356 152.918 154 143.078 143.274 144.198 144.515 145.597 
146.002 147.149 147.572 148.739 149.21 150.461 151.064 152.353 152.99 
154.086 154.534 155.325 143.486 143.69 144.564 144.875 145.882 146.286 
147.349 147.806 148.9 149.41 150.567 151.146 152.31 152.914 153.952 
154.487 155.333 155.722 156.444 140.176 141.937 141.089 141.173 143.736 
142.855 142.903 142.069 142.167 145.795 144.795 144.9 143.889 143.993 
143.105 143.279 148.172 147.123 147.455 146.231 146.459 145.231 145.453 
144.389 144.619 150.548 149.619 150.107 148.989 149.332 148.023 148.24 
146.896 147.068 145.855 145.997 152.644 151.876 152.252 151.411 151.657 
150.695 150.809 149.662 149.677 148.427 148.427 147.211 147.233 154.336 
153.73 153.97 153.26 153.421 152.66 152.79 151.903 151.941 150.863 
150.81 149.624 149.559 148.384 148.357 155.644 155.189 155.469 154.855 
155.157 154.433 154.831 153.949 154.29 153.168 153.297 152.016 151.973 
150.701 150.602 149.434 149.352 156.848 156.445 156.873 156.351 156.833 
156.253 156.875 156.176 156.762 155.756 156.049 154.71 154.687 153.23 
153.048 151.691 151.487 150.317 150.15 157.779 159.482 158.377 157.873 
161.087 160.117 159.586 158.447 157.929 162.099 161.521 161.078 160.112 
159.592 158.547 158.072 162.74 162.381 162.081 161.356 160.77 159.972 
159.493 158.639 158.026 163.322 163.059 162.893 162.273 161.623 160.845 
160.188 159.634 159.055 158.302 157.33 163.448 163.478 163.367 163.044 
162.481 161.68 160.83 160.117 159.428 158.921 158.055 157.217 155.913 
162.88 163.205 163.077 163.209 162.808 162.403 161.559 160.789 159.883 
159.237 158.348 157.672 156.45 155.527 154.12 161.974 162.392 162.253 
162.614 162.298 162.36 161.627 161.232 160.198 159.622 158.543 157.916 
156.676 155.885 154.48 153.637 152.361 160.964 161.414 161.246 161.667 
161.335 161.605 160.912 160.872 159.809 159.53 158.319 157.907 156.604 
155.998 154.597 153.869 152.574 151.91 150.87 157.946 158.648 158.796 
159.735 159.131 159.477 160.478 160.586 161.303 159.246 159.805 160.75 
161.076 161.658 161.777 162.138 158.987 159.702 160.606 161.095 161.595 
161.833 162.113 162.299 162.619 158.586 159.291 160.142 160.742 161.267 
161.632 161.975 162.218 162.617 162.832 163.215 158.213 158.866 159.579 
160.148 160.564 161.083 161.407 161.934 162.358 162.797 163.162 163.365 
163.442 157.469 158.335 158.958 159.548 159.804 160.249 160.353 160.991 
161.249 162.088 162.368 163.002 162.979 163.215 162.896 156.011 157.177 
157.779 158.694 158.987 159.506 159.542 159.942 160.018 160.685 160.888 
161.731 161.779 162.392 162.118 162.387 161.953 154.329 155.456 156.004 
157.161 157.562 158.472 158.674 159.224 159.325 159.717 159.846 160.349 
160.463 161.049 160.971 161.427 161.116 161.373 160.943 143.945 145.055 
144.674 145.089 146.274 145.886 146.361 145.945 146.426 147.515 147.153 
147.658 147.254 147.754 147.342 147.86 148.764 148.436 149.011 148.594 
149.14 148.702 149.279 148.848 149.431 149.992 149.751 150.471 150.058 
150.719 150.216 150.896 150.395 151.092 150.559 151.184 151.079 151.006 
151.896 151.602 152.368 151.898 152.63 152.131 152.866 152.33 152.976 
152.366 152.912 151.997 152.08 153.142 153.03 153.893 153.525 154.233 
153.809 154.505 154.062 154.669 154.121 154.596 153.998 154.435 152.833 
153.005 154.225 154.279 155.302 155.027 155.761 155.335 156.021 155.614 
156.278 155.775 156.292 155.66 156.062 155.434 155.798 153.586 153.829 
155.126 155.35 156.526 156.424 157.245 156.857 157.544 157.134 157.871 
157.422 158.083 157.454 157.944 157.182 157.54 156.782 157.04 143.513 
143.202 143.73 144.542 142.923 143.425 144.218 144.808 145.708 142.67 
143.163 143.936 144.489 145.368 145.997 146.925 142.351 142.893 143.65 
144.201 145.042 145.656 146.564 147.203 148.12 141.877 142.491 143.219 
143.836 144.637 145.292 146.168 146.825 147.695 148.352 149.236 141.364 
141.953 142.641 143.293 144.042 144.768 145.619 146.362 147.214 147.89 
148.685 149.375 150.203 141.048 141.502 142.179 142.729 143.451 144.113 
144.927 145.707 146.595 147.359 148.178 148.828 149.567 150.252 151.045 
140.959 141.304 141.988 142.409 143.144 143.636 144.405 145.034 145.899 
146.681 147.599 148.333 149.137 149.72 150.431 151.071 151.851 140.911 
141.247 141.907 142.302 143.038 143.458 144.192 144.646 145.395 146.02 
146.885 147.683 148.579 149.298 150.052 150.601 151.269 151.879 152.618 
141.034 141.55 141.546 142.082 142.142 142.123 142.738 142.701 143.262 
142.798 142.759 143.392 143.391 144.024 143.932 144.442 143.467 143.448 
144.13 144.113 144.809 144.722 145.285 145.097 145.597 144.141 144.176 
145.025 144.997 145.793 145.621 146.204 145.955 146.475 146.305 146.969 
144.901 144.955 145.964 145.998 146.887 146.708 147.248 146.915 147.367 
147.177 147.875 147.837 148.649 145.806 145.829 146.831 146.912 147.78 
147.72 148.231 147.938 148.321 148.084 148.763 148.744 149.616 149.559 
150.242 146.701 146.733 147.592 147.668 148.42 148.45 149.016 148.857 
149.344 149.102 149.795 149.693 150.572 150.514 151.238 151.024 151.502 
147.342 147.452 148.154 148.262 148.927 149.008 149.678 149.655 150.35 
150.198 150.958 150.797 151.605 151.482 152.182 151.997 152.53 152.249 
152.755 147.793 148.656 148.345 148.596 149.926 149.375 149.689 149.222 
149.445 151.646 150.934 151.291 150.598 150.897 150.212 150.364 153.164 
152.626 152.932 152.308 152.589 151.871 152.043 151.221 151.23 154.409 
153.966 154.261 153.764 153.987 153.436 153.571 152.896 152.899 152.055 
151.934 155.918 155.35 155.824 155.176 155.544 154.85 155.066 154.337 
154.372 153.609 153.502 152.672 152.502 157.617 157.065 157.662 156.987 
157.515 156.718 157.108 156.148 156.285 155.238 155.165 154.193 154.024 
153.164 152.966 159.099 158.701 159.223 158.736 159.144 158.598 158.918 
158.226 158.371 157.39 157.311 156.134 155.942 154.805 154.581 153.603 
153.35 160.255 159.985 160.416 160.053 160.297 159.875 159.963 159.554 
159.551 159.062 158.964 158.194 158.004 156.93 156.688 155.477 155.192 
154.045 153.729 147.419 147.136 147.601 148.285 146.938 147.387 148.164 
148.597 149.519 146.745 147.261 148.157 148.612 149.637 150.11 151.229 
146.376 147.033 148.018 148.626 149.692 150.247 151.329 151.837 152.792 
145.917 146.613 147.612 148.36 149.392 150.115 151.102 151.761 152.659 
153.182 153.998 145.527 146.175 147.121 147.863 148.823 149.605 150.531 
151.305 152.208 152.904 153.819 154.39 155.368 145.112 145.755 146.611 
147.33 148.227 148.979 149.897 150.667 151.629 152.397 153.429 154.156 
155.259 155.901 157.003 144.608 145.244 146.03 146.754 147.631 148.386 
149.318 150.078 151.065 151.846 152.919 153.734 154.899 155.698 156.867 
157.531 158.544 144.145 144.714 145.485 146.165 147.068 147.81 148.77 
149.524 150.492 151.274 152.3 153.163 154.318 155.239 156.46 157.29 
158.381 158.971 159.797 146.72 145.353 146.178 146.413 144.058 144.776 
145.089 145.9 146.176 143.258 143.66 143.894 144.605 144.94 145.7 
145.947 142.556 142.937 142.999 143.553 143.836 144.512 144.727 145.403 
145.544 141.302 141.967 141.947 142.597 142.756 143.44 143.584 144.195 
144.23 144.903 145.039 139.748 140.511 140.537 141.307 141.392 142.191 
142.262 142.971 142.935 143.583 143.627 144.41 144.641 138.396 139.063 
139.14 139.85 139.907 140.679 140.705 141.489 141.461 142.198 142.221 
143.003 143.197 144.052 144.295 137.162 137.796 137.828 138.505 138.525 
139.217 139.215 139.931 139.94 140.686 140.77 141.568 141.779 142.627 
142.883 143.697 143.878 135.892 136.502 136.451 137.144 137.142 137.847 
137.869 138.545 138.596 139.275 139.404 140.153 140.395 141.223 141.515 
142.328 142.557 143.293 143.456 135.164 134.319 135.008 135.685 133.83 
134.303 134.946 135.639 136.404 133.595 133.965 134.553 135.061 135.806 
136.456 137.216 133.322 133.73 134.307 134.759 135.451 135.99 136.742 
137.318 138.022 133.101 133.468 134.074 134.505 135.176 135.67 136.384 
136.918 137.637 138.166 138.868 133.108 133.373 134.014 134.347 135.035 
135.433 136.139 136.596 137.332 137.84 138.615 139.115 139.892 133.32 
133.505 134.174 134.416 135.138 135.423 136.168 136.486 137.26 137.649 
138.488 138.946 139.802 140.249 141.043 133.74 133.835 134.536 134.69 
135.444 135.649 136.446 136.679 137.503 137.766 138.626 138.959 139.833 
140.219 141.026 141.404 142.105 134.306 134.355 135.073 135.159 135.917 
136.049 136.845 137.038 137.87 138.103 138.943 139.204 140.029 140.326 
141.099 141.414 142.102 142.415 143.029 134.849 135.921 135.481 135.656 
136.963 136.562 136.799 136.333 136.509 138.133 137.629 137.906 137.476 
137.725 137.223 137.428 139.718 138.965 139.208 138.653 138.959 138.461 
138.733 138.202 138.452 141.636 140.727 140.889 140.122 140.388 139.78 
140.083 139.535 139.822 139.27 139.529 143.63 142.7 142.824 141.921 
142.106 141.339 141.609 140.961 141.253 140.662 140.932 140.351 140.591 
145.643 144.726 144.889 143.916 144.068 143.16 143.384 142.599 142.877 
142.178 142.446 141.792 142.02 141.401 141.612 147.577 146.746 146.954 
146.013 146.156 145.183 145.335 144.443 144.663 143.881 144.137 143.4 
143.614 142.889 143.054 142.396 142.571 149.297 148.594 148.82 148.01 
148.153 147.238 147.315 146.384 146.486 145.657 145.851 145.113 145.328 
144.566 144.702 143.915 144.011 143.324 143.47 144.167 144.801 144.811 
145.561 145.596 145.599 146.428 146.38 147.208 146.268 146.401 147.305 
147.329 148.19 148.117 148.938 146.795 146.997 147.949 148.123 149.043 
149.085 149.924 149.849 150.65 147.474 147.589 148.605 148.763 149.804 
149.909 150.878 150.85 151.751 151.624 152.493 148.371 148.429 149.543 
149.605 150.79 150.832 152.019 151.96 153.095 152.914 153.987 153.691 
154.654 149.225 149.368 150.556 150.673 151.968 152.023 153.364 153.317 
154.665 154.5 155.791 155.458 156.572 156.062 156.948 149.864 150.128 
151.347 151.633 153.013 153.232 154.656 154.733 156.143 156.119 157.486 
157.319 158.476 158.06 158.898 158.295 158.897 150.316 150.658 151.874 
152.3 153.726 154.154 155.629 155.914 157.298 157.452 158.751 158.809 
159.908 159.741 160.475 160.049 160.487 159.94 160.247 130.443 129.613 
130.017 130.178 129.183 129.329 129.422 129.868 130.188 129.088 129.054 
129.036 129.258 129.526 130.01 130.432 129.17 129.009 128.912 128.972 
129.129 129.461 129.873 130.361 130.862 129.649 129.222 129.085 128.936 
129.05 129.182 129.568 129.927 130.477 130.924 131.527 130.625 129.964 
129.817 129.366 129.504 129.337 129.757 129.855 130.454 130.717 131.351 
131.714 132.35 131.723 131.07 130.951 130.359 130.495 130.091 130.505 
130.338 130.946 130.965 131.587 131.711 132.278 132.555 133.135 132.722 
132.153 132.084 131.535 131.644 131.195 131.507 131.221 131.717 131.609 
132.161 132.12 132.583 132.617 133.079 133.321 133.881 133.722 133.172 
133.141 132.623 132.707 132.278 132.493 132.171 132.513 132.345 132.787 
132.711 133.11 133.023 133.372 133.394 133.868 134.113 134.721 131.015 
130.783 131.194 131.809 130.784 131.07 131.697 132.025 132.612 130.971 
131.145 131.73 131.997 132.619 132.906 133.572 131.36 131.397 131.938 
132.098 132.728 132.983 133.684 133.986 134.73 132.032 131.926 132.486 
132.46 133.108 133.217 133.937 134.15 134.871 135.15 135.84 132.845 
132.713 133.284 133.163 133.779 133.749 134.437 134.516 135.203 135.345 
136.008 136.225 136.889 133.603 133.517 134.052 133.951 134.462 134.411 
134.986 135.042 135.675 135.757 136.387 136.496 137.166 137.342 138.032 
134.342 134.249 134.77 134.658 135.117 135.021 135.535 135.552 136.182 
136.25 136.883 136.939 137.562 137.68 138.338 138.514 139.143 135.169 
135.023 135.551 135.391 135.87 135.707 136.255 136.179 136.866 136.853 
137.53 137.493 138.065 138.079 138.638 138.78 139.356 139.544 140.074 
131.442 132.172 131.983 132.363 132.893 132.669 133.028 132.909 133.366 
133.846 133.461 133.795 133.585 134.1 133.999 134.591 135.052 134.583 
134.92 134.518 135.031 134.823 135.5 135.369 136.044 136.173 135.805 
136.163 135.748 136.187 135.873 136.502 136.337 137.043 136.881 137.529 
137.187 136.855 137.225 136.901 137.301 137.002 137.527 137.341 138.003 
137.87 138.536 138.356 138.98 138.291 137.899 138.26 137.918 138.342 
138.049 138.572 138.348 138.988 138.828 139.507 139.347 139.984 139.796 
140.399 139.384 139.014 139.343 138.981 139.4 139.103 139.66 139.422 
140.076 139.866 140.534 140.334 140.953 140.763 141.329 141.152 141.684 
140.317 140.028 140.333 140.018 140.388 140.132 140.654 140.479 141.113 
140.948 141.573 141.369 141.924 141.709 142.215 142.025 142.511 142.347 
142.822 146.64 145.881 145.93 145.185 144.947 145.053 144.392 144.474 
143.924 144.105 144.173 143.698 143.811 143.525 143.555 143.287 143.465 
143.483 143.091 143.238 143.094 143.267 143.105 143.094 142.684 142.888 
142.92 142.458 142.611 142.319 142.655 142.396 142.673 142.131 142.153 
141.36 142.222 142.292 141.738 141.872 141.391 141.686 141.275 141.65 
141.063 141.267 140.418 140.489 139.669 141.521 141.561 140.947 141.054 
140.521 140.725 140.283 140.539 140.002 140.151 139.397 139.46 138.697 
138.835 138.247 140.941 140.893 140.259 140.273 139.729 139.87 139.427 
139.636 139.12 139.229 138.518 138.536 137.809 137.907 137.338 137.54 
137.056 140.499 140.402 139.79 139.695 139.12 139.139 138.644 138.79 
138.249 138.369 137.664 137.703 136.982 137.069 136.505 136.676 136.201 
136.378 135.875 
POINT_DATA 1002
SCALARS Distance double
LOOKUP_TABLE default
135.293 134.256 134.184 135.198 134.108 136.322 135.208 134.07 136.32 
137.355 135.42 134.167 136.616 137.649 138.727 135.756 134.522 137.075 
138.273 139.408 140.581 136.239 135.148 137.494 138.868 140.203 141.456 
142.577 137.016 135.95 138.163 139.489 140.9 142.234 143.458 144.544 
138.037 136.919 139.217 140.452 141.744 143.001 144.24 145.46 146.523 
139.15 138.068 140.316 141.484 142.693 143.904 145.099 146.325 147.462 
148.358 140.249 139.261 141.273 142.296 143.459 144.776 146.052 147.236 
148.34 149.262 149.965 133.249 133.239 132.315 132.391 131.318 133.179 
131.396 130.207 132.298 133.006 130.291 129.412 131.236 131.952 132.973 
129.644 129.179 130.272 130.921 131.848 133.387 129.519 129.162 129.934 
130.364 131.034 132.347 134.137 129.565 129.317 129.998 130.443 130.908 
131.775 133.267 135.062 129.927 129.929 130.206 130.708 131.268 131.904 
132.956 134.477 136.231 130.74 130.88 130.754 131.063 131.679 132.387 
133.222 134.412 135.911 137.572 131.806 131.71 132.781 132.8 133.875 
131.724 134.108 135.225 132.987 132.143 135.628 136.705 134.555 133.621 
132.932 137.168 138.152 136.199 135.306 134.506 133.814 138.729 139.605 
137.825 136.982 136.187 135.486 134.886 140.3 140.993 139.515 138.731 
137.957 137.256 136.711 136.256 141.689 142.196 141.091 140.463 139.807 
139.114 138.531 138.129 137.808 142.896 143.291 142.439 141.961 141.484 
140.936 140.347 139.908 139.646 139.438 141.023 141.245 142.791 141.442 
143.121 144.646 141.733 143.408 145.091 146.777 142.198 143.752 145.438 
147.163 149.115 142.68 144.139 145.75 147.416 149.365 151.416 143.082 
144.495 146.075 147.668 149.52 151.673 153.428 143.486 144.853 146.427 
148.002 149.709 151.742 153.663 154.916 143.904 145.211 146.73 148.296 
149.934 151.753 153.573 155.029 156.034 144.278 145.518 146.921 148.399 
150.016 151.763 153.422 154.867 156.11 157.194 142.002 143.776 142.937 
145.969 144.96 144.087 148.632 147.774 146.654 145.624 151.124 150.578 
149.658 148.422 147.17 153.1 152.541 151.86 150.921 149.703 148.421 
154.671 154.143 153.581 152.933 151.975 150.762 149.507 155.987 155.755 
155.578 155.339 154.602 153.319 151.845 150.466 157.321 157.317 157.433 
157.622 157.337 156.217 154.535 152.773 151.232 158.829 158.986 160.638 
160.735 161.896 159.045 161.94 162.467 160.569 159.175 162.742 163.018 
161.566 160.184 159.135 163.424 163.53 162.517 160.792 159.596 158.45 
163.486 163.334 163.195 161.735 159.969 158.729 156.998 162.8 162.512 
162.949 162.281 160.669 159.024 157.304 155.06 161.868 161.546 162.097 
161.853 160.753 159.184 157.433 155.304 153.087 160.834 160.517 161.043 
160.874 160.021 158.668 157.121 155.271 153.227 151.418 157.823 159.745 
158.384 160.313 158.708 161.384 160.407 158.637 161.54 162.059 160.075 
158.264 161.348 161.908 162.381 159.547 157.957 160.816 161.651 162.376 
163.104 159.106 157.586 160.093 160.795 161.787 162.92 163.468 158.322 
156.508 159.454 159.872 160.405 161.567 162.627 162.849 156.709 154.823 
158.314 159.2 159.561 160.098 161.011 161.708 161.806 154.842 153.329 
156.468 157.91 158.918 159.502 159.949 160.439 160.775 160.774 144.273 
145.479 145.419 146.766 146.642 146.844 148.056 147.853 148.156 148.264 
149.407 149.039 149.577 149.693 149.888 150.815 150.128 151.199 151.391 
151.617 151.785 152.082 151.034 152.8 153.116 153.394 153.595 153.557 
153.134 151.833 154.22 154.669 154.924 155.203 155.217 155.021 154.057 
152.617 155.494 156.202 156.423 156.725 156.917 156.752 156.423 142.982 
143.941 142.689 143.65 142.434 145.07 143.41 142.171 144.753 146.286 
143.103 141.784 144.443 145.936 147.476 142.591 141.261 143.968 145.503 
147.07 148.549 142.012 140.822 143.326 144.838 146.519 148.06 149.455 
141.675 140.652 142.854 144.179 145.769 147.504 148.98 150.274 141.589 
140.639 142.702 143.881 145.159 146.776 148.524 149.915 151.111 141.515 