# vtk DataFile Version 4.0
vtk output
ASCII
DATASET POLYDATA
POINTS 1002 float
-85.2744 -80.4527 66.9107 -85.3095 -79.933 65.639 -84.9075 -79.5375 66.4316 
-84.7318 -80.1918 67.6871 -84.302 -79.3298 67.1619 -84.9976 -81.2502 68.2102 
-84.0612 -80.1375 68.4061 -83.5355 -79.3528 67.8254 -84.4481 -81.089 69.0277 
-84.6487 -82.2247 69.6445 -83.3326 -80.2613 69.2234 -82.7308 -79.4844 68.6407 
-83.9241 -81.0877 69.9436 -84.293 -82.1359 70.7212 -84.5118 -83.2755 71.5185 
-82.7259 -80.4211 70.4104 -82.137 -79.6201 69.8032 -83.4542 -81.2146 71.1555 
-84.0372 -82.1596 72.0321 -84.3521 -83.3326 72.9939 -84.6163 -84.4628 73.931 
-82.455 -80.6278 71.9052 -81.9435 -79.7784 71.2933 -83.137 -81.439 72.6866 
-83.7718 -82.3447 73.5274 -84.1365 -83.5031 74.506 -84.3496 -84.7437 75.5198 
-84.6095 -85.7527 76.4001 -82.3871 -80.8696 73.3606 -82.0224 -79.8735 72.8686 
-82.8814 -81.7975 74.1498 -83.4065 -82.7282 74.9824 -83.715 -83.8751 75.8451 
-83.8297 -85.1816 76.8203 -84.0076 -86.2936 77.7057 -84.2209 -87.185 78.401 
-82.2586 -80.973 74.6114 -82.1328 -79.8325 74.2471 -82.4468 -82.1522 75.2981 
-82.7927 -83.2343 76.1749 -83.087 -84.391 77.0181 -83.1365 -85.7636 77.8874 
-83.2107 -87.0394 78.76 -83.4441 -88.0454 79.4668 -83.6046 -89.0231 80.0072 
-82.1001 -81.0366 75.8227 -82.1527 -79.8664 75.4396 -82.0125 -82.43 76.4102 
-82.1092 -83.7563 77.2643 -82.3901 -84.9726 78.1927 -82.5132 -86.3476 79.0284 
-82.5033 -87.8013 79.8074 -82.6709 -89.0364 80.5188 -82.9241 -90.1124 81.0965 
-83.0289 -91.2048 81.5375 -81.9799 -81.36 77.1799 -82.0483 -80.2002 76.657 
-81.8403 -82.8296 77.7868 -81.7661 -84.3366 78.5599 -81.9114 -85.6777 79.4928 
-82.094 -87.0304 80.3728 -82.1108 -88.521 81.0661 -82.1509 -89.9476 81.6612 
-82.3424 -91.1922 82.2192 -82.5207 -92.3299 82.6918 -82.5876 -93.3772 83.0346 
-84.9819 -79.2294 64.8564 -84.5744 -78.7481 65.7124 -84.5914 -78.4033 64.0743 
-84.173 -77.8343 64.9905 -84.2229 -77.4828 63.3402 -83.9328 -78.4893 66.4969 
-83.7239 -76.9012 64.2836 -83.8395 -76.6013 62.6814 -83.4916 -77.5271 65.8598 
-83.119 -78.4833 67.2327 -83.1434 -76.0801 63.5844 -83.3322 -75.672 62.1456 
-82.936 -76.5993 65.2161 -82.6956 -77.4809 66.6923 -82.3191 -78.5844 68.1077 
-82.5491 -75.1543 63.0759 -82.9237 -74.5843 61.9117 -82.3097 -75.6867 64.6346 
-82.2478 -76.3888 66.1934 -82.0546 -77.4607 67.6716 -81.7806 -78.6733 69.3706 
-82.4293 -74.0407 63.1465 -83.072 -73.6192 62.2422 -81.9834 -74.559 64.4945 
-81.889 -75.1545 65.9932 -81.9 -76.0806 67.4585 -81.6537 -77.3924 69.1767 
-81.6359 -78.7434 71.1103 -82.9939 -73.1268 63.896 -83.7767 -73.063 63.1189 
-82.3028 -73.417 65.0196 -81.8873 -73.9513 66.3901 -81.8353 -74.7382 67.7304 
-81.6902 -75.9169 69.2836 -81.5456 -77.4065 71.169 -81.8052 -78.7579 72.9005 
-83.8451 -72.6711 64.9265 -84.6086 -72.8476 64.1685 -83.0624 -72.6818 65.8836 
-82.345 -73.1048 67.1493 -81.9915 -73.852 68.4376 -81.843 -74.7838 69.7162 
-81.6824 -76.0722 71.2997 -81.771 -77.5509 72.9555 -82.0511 -78.7863 74.2941 
-84.5951 -72.5581 65.8538 -85.3066 -72.7803 65.0949 -83.8299 -72.4112 66.7027 
-83.034 -72.6502 67.8584 -82.4664 -73.3528 69.1672 -82.1983 -74.1821 70.3247 
-82.0217 -75.1368 71.5253 -81.9688 -76.4593 72.9315 -82.0803 -77.8472 74.2651 
-82.14 -79.0175 75.4422 -85.4785 -72.6575 66.4498 -84.6959 -72.4593 67.2795 
-85.5834 -72.6755 67.9776 -84.7281 -72.4895 69.0109 -85.5893 -72.8422 69.8067 
-83.8742 -72.4103 68.339 -84.8156 -72.658 71.0695 -85.5311 -73.212 71.6339 
-84.03 -72.5532 70.3207 -83.2099 -72.8818 69.6935 -84.9272 -73.2771 72.9422 
-85.4974 -74.0205 73.108 -84.3216 -72.9729 72.4105 -83.6028 -73.2472 71.639 
-82.8206 -73.7463 70.9493 -85.0029 -74.4866 74.5012 -85.5826 -75.1855 74.577 
-84.465 -73.9936 74.2227 -83.8722 -73.9649 73.5065 -83.2028 -74.2547 72.6775 
-82.5405 -74.6367 72.0102 -85.1456 -75.7675 76.1926 -85.7954 -76.2492 76.3772 
-84.5119 -75.3149 75.9323 -83.8435 -75.1386 75.3482 -83.2481 -75.1712 74.5589 
-82.7767 -75.3653 73.8054 -82.342 -75.7989 73.2412 -85.3207 -76.8568 77.9718 
-86.0057 -77.1505 78.1678 -84.6475 -76.5297 77.6774 -83.9019 -76.416 77.196 
-83.1922 -76.4587 76.6362 -82.7532 -76.5367 75.9954 -82.5011 -76.8019 75.2184 
-82.2672 -77.2776 74.5917 -85.3703 -77.9983 79.5009 -86.0806 -78.1564 79.6161 
-84.7135 -77.8064 79.2727 -84.0587 -77.7726 78.8727 -83.3468 -77.8922 78.4919 
-82.7614 -77.9588 78.1709 -82.4195 -78.0584 77.5269 -82.2335 -78.3244 76.5991 
-82.1501 -78.6535 75.8693 -85.3195 -79.2225 80.7641 -86.0269 -79.2967 80.7709 
-84.6677 -79.1526 80.6907 -84.0965 -79.2022 80.4218 -83.5011 -79.3661 80.0626 
-82.8969 -79.4298 79.8504 -82.3917 -79.4062 79.5513 -82.0374 -79.5253 78.8223 
-81.8965 -79.7516 77.9142 -81.9501 -79.955 77.1914 -81.8339 -81.6068 78.5074 
-81.6769 -81.4598 79.2356 -81.6508 -83.5395 80.7213 -81.6731 -81.2255 80.0047 
-81.5374 -83.3808 81.4376 -81.4666 -85.5339 82.7532 -81.9869 -80.9415 80.7153 
-81.7235 -83.0073 82.0007 -81.5153 -85.3264 83.3256 -81.2168 -87.3666 84.3567 
-82.4803 -80.846 81.1388 -82.1703 -82.599 82.4269 -81.8938 -84.9314 83.7709 
-81.4549 -87.2844 84.9313 -81.1205 -89.541 85.8361 -83.0309 -80.8627 81.3819 
-82.6376 -82.385 82.7395 -82.3248 -84.4957 84.1261 -81.8727 -87.0714 85.429 
-81.3991 -89.5924 86.4441 -81.2869 -92.1622 87.3269 -83.6363 -80.7136 81.7338 
-83.2077 -82.2181 83.0838 -82.7712 -84.1441 84.3598 -82.2788 -86.7245 85.6732 
-81.7594 -89.4062 86.8561 -81.4698 -91.9591 87.8118 -81.5135 -94.5196 88.6759 
-84.2251 -80.5009 82.0258 -83.8943 -81.957 83.4069 -83.4611 -83.8227 84.5393 
-82.8556 -86.3564 85.6266 -82.2835 -89.0773 86.8904 -81.8755 -91.5511 88.0726 
-81.6931 -93.9524 89.0605 -81.7059 -96.4198 89.7924 -84.8246 -80.4324 82.0343 
-84.5146 -81.7634 83.4369 -84.2082 -83.5128 84.6125 -83.6362 -85.957 85.5339 
-83.0019 -88.6965 86.6545 -82.5475 -91.1899 87.993 -82.2107 -93.463 89.2058 
-81.9858 -95.8026 90.104 -81.881 -98.2838 90.5408 -85.5022 -80.4704 81.9043 
-85.0943 -81.7275 83.2025 -84.8051 -83.2976 84.451 -84.3625 -85.5068 85.4438 
-83.7549 -88.1513 86.4291 -83.2562 -90.7378 87.6694 -82.8768 -93.1079 88.9771 
-82.5291 -95.3825 90.0529 -82.2559 -97.751 90.6896 -82.0418 -100.243 90.8245 
-81.8138 -83.1142 79.2687 -81.6677 -85.2405 81.572 -81.7416 -84.7872 80.0288 
-81.3405 -87.2532 83.5118 -81.5964 -86.9756 82.3215 -81.7186 -86.3907 80.8815 
-81.0175 -89.4312 85.1169 -81.2023 -89.3268 84.2419 -81.5329 -88.8822 83.1579 
-81.8147 -87.9616 81.8176 -81.1269 -92.2754 86.7662 -80.9997 -92.2389 86.009 
-81.1642 -91.9148 85.1355 -81.5749 -90.9385 84.0396 -81.8922 -89.6012 82.5862 
-81.4632 -95.1496 88.3181 -81.2369 -95.3729 87.7223 -81.0471 -95.1612 86.948 
-81.2917 -94.3086 86.02 -81.7039 -92.777 84.7137 -81.9259 -91.1834 83.122 
-81.6751 -97.4107 89.479 -81.534 -97.9657 88.9605 -81.2259 -97.9406 88.3271 
-81.1963 -97.3965 87.6402 -81.5378 -96.1393 86.6185 -81.8234 -94.3372 85.1364 
-82.013 -92.6121 83.5772 -81.7664 -99.4256 90.2102 -81.6792 -100.203 89.6173 
-81.4525 -100.346 88.9669 -81.2859 -100.07 88.4741 -81.4288 -99.334 87.8926 
-81.6705 -97.7938 86.8064 -81.8525 -95.7712 85.3852 -82.1201 -93.8974 83.991 
-81.791 -101.528 90.5441 -81.6524 -102.505 89.9576 -81.5215 -102.826 89.2172 
-81.388 -102.677 88.6389 -81.4058 -102.301 88.2711 -81.5499 -101.265 87.696 
-81.6869 -99.2963 86.7096 -81.8834 -97.0007 85.5381 -82.2052 -95.0038 84.3073 
-81.9464 -103.219 90.6537 -81.5688 -104.646 90.2836 -81.7107 -106.397 90.3293 
-81.2296 -107.753 90.0156 -81.4959 -109.204 90.0199 -81.3658 -105.429 89.6299 
-81.0895 -110.5 89.6445 -81.5416 -111.327 89.3916 -81.0187 -108.318 89.3163 
-81.2795 -105.478 88.8294 -81.241 -112.966 88.6022 -81.7695 -112.909 88.2478 
-80.8866 -111.148 88.6181 -81.024 -108.23 88.3434 -81.3173 -105.209 88.2235 
-81.3911 -114.792 87.1541 -82.1075 -113.873 87.2177 -80.9188 -113.735 87.2732 
-80.9672 -110.89 87.5045 -81.3283 -107.686 87.6901 -81.5108 -104.521 87.8307 
-81.7598 -115.106 86.2078 -82.8125 -113.83 86.6472 -81.0142 -114.922 86.0453 
-81.0511 -112.766 86.5134 -81.5796 -109.623 87.1636 -81.8237 -106.27 87.4297 
-81.714 -102.741 87.2839 -82.6913 -113.946 85.7775 -83.7371 -112.698 86.1727 
-81.5952 -114.166 85.472 -81.2485 -112.943 85.7726 -81.7779 -110.517 86.6198 
-82.2612 -107.285 87.1701 -82.1383 -103.611 87.0414 -81.8768 -100.058 86.4529 
-83.683 -111.915 85.5148 -84.3813 -110.679 85.7361 -82.6508 -112.272 85.3252 
-81.8573 -111.602 85.3892 -81.8711 -110.013 85.9542 -82.3541 -107.39 86.6322 
-82.5018 -103.887 86.7592 -82.255 -100.37 86.2572 -82.1042 -97.4332 85.3829 
-84.2537 -109.261 85.4283 -84.6938 -108.082 85.5399 -83.5552 -109.75 85.4087 
-82.7672 -109.376 85.4125 -82.3165 -108.264 85.5592 -82.3797 -106.308 85.925 
-82.5845 -103.399 86.1528 -82.5507 -100.228 85.8605 -82.3996 -97.5575 85.0982 
-82.4086 -95.3626 84.0987 -82.4476 -100.611 90.8314 -82.4503 -103.678 90.601 
-83.0518 -100.759 90.6917 -83.2202 -103.717 90.5507 -83.6933 -100.462 90.5838 
-82.3019 -106.837 90.231 -83.9297 -103.21 90.6047 -84.1568 -99.6626 90.3614 
-83.0993 -106.68 90.1758 -82.0782 -109.333 89.7276 -84.3034 -102.125 90.3621 
-84.4443 -98.4729 89.6867 -83.7693 -105.893 90.2066 -82.7469 -108.764 89.4334 
-82.0399 -110.799 88.841 -84.4929 -100.505 89.5734 -84.8568 -96.9849 88.7902 
-84.1954 -104.382 89.9425 -83.4821 -107.654 89.3617 -82.6821 -109.786 88.4431 
-82.3343 -111.716 87.8692 -84.9207 -98.4812 88.7271 -85.6114 -95.3019 88.1004 
-84.4959 -102.131 89.2605 -84.1387 -105.72 89.2246 -83.5759 -108.507 88.4677 
-83.145 -110.454 87.7761 -82.9921 -112.292 87.3231 -85.7816 -96.3332 88.1157 
-86.5123 -93.6247 87.409 -85.0358 -99.5147 88.5592 -84.56 -102.898 88.7463 
-84.243 -106.169 88.4649 -83.954 -108.79 87.9109 -83.8364 -110.611 87.4555 
-83.8356 -111.959 86.9039 -86.7743 -94.3311 87.38 -87.2296 -92.0931 86.38 
-86.0224 -97.0364 87.9844 -85.2194 -99.9536 88.1907 -84.6941 -102.919 88.1359 
-84.4515 -105.802 87.8869 -84.3738 -108.1 87.5303 -84.423 -109.577 87.0239 
-84.4748 -110.437 86.3406 -87.5152 -92.554 86.2729 -87.7162 -90.7059 85.1405 
-87.0544 -94.852 87.2052 -86.2812 -97.431 87.6693 -85.5125 -99.9371 87.7451 
[...]
CELL_DATA 2000
SCALARS Distance double
LOOKUP_TABLE default
133.343 133.226 133.611 134.266 133.105 133.498 134.191 134.574 135.291 
133.071 133.436 134.221 134.583 135.422 135.747 136.622 133.286 133.559 
134.484 134.781 135.787 136.067 137.128 137.359 138.446 133.892 134.024 
135.092 135.279 136.419 136.629 137.81 138.03 139.221 139.408 140.545 
134.752 134.817 135.912 136.055 137.209 137.385 138.546 138.761 139.924 
140.165 141.27 141.463 142.445 135.548 135.643 136.614 136.818 137.872 
138.12 139.192 139.442 140.518 140.786 141.849 142.092 143.074 143.233 
144.125 136.24 136.327 137.206 137.399 138.402 138.672 139.749 140.021 
141.109 141.357 142.439 142.664 143.718 143.885 144.883 144.963 145.909 
137.026 137.045 137.995 138.07 139.16 139.3 140.494 140.674 141.9 
142.063 143.255 143.384 144.532 144.642 145.749 145.823 146.872 146.877 
147.845 132.701 131.645 132.323 132.579 130.507 131.219 131.495 132.177 
132.431 129.37 130.06 130.326 131.05 131.329 132.028 132.336 128.229 
128.902 129.124 129.858 130.156 130.903 131.246 131.98 132.442 127.12 
127.732 127.924 128.643 128.948 129.726 130.125 130.897 131.401 132.212 
132.925 126.449 126.77 126.988 127.53 127.877 128.575 129.045 129.816 
130.401 131.214 131.979 132.879 133.782 126.609 126.509 126.765 126.923 
127.336 127.748 128.305 128.901 129.576 130.304 131.139 132 132.958 
133.84 134.716 127.386 127.041 127.277 127.101 127.511 127.588 128.195 
128.499 129.23 129.71 130.565 131.265 132.253 133.084 134.018 134.767 
135.514 128.294 127.926 128.103 127.799 128.123 128.012 128.582 128.689 
129.421 129.658 130.458 130.884 131.807 132.475 133.434 134.146 134.957 
135.576 136.283 128.833 129.611 129.011 128.65 130.562 129.858 129.503 
128.894 128.672 131.707 130.937 130.64 129.91 129.778 129.149 129.171 
132.967 132.206 132.045 131.249 131.203 130.463 130.541 129.879 130.022 
134.394 133.609 133.59 132.788 132.795 132.006 132.056 131.331 131.436 
130.788 130.987 136.041 135.206 135.257 134.426 134.461 133.632 133.659 
132.871 132.96 132.247 132.462 131.848 132.242 137.722 136.923 136.98 
136.149 136.2 135.344 135.416 134.56 134.718 133.904 134.179 133.448 
133.85 133.257 133.781 139.246 138.542 138.608 137.845 137.928 137.114 
137.258 136.417 136.658 135.815 136.127 135.304 135.65 134.926 135.328 
134.776 135.24 140.594 139.98 140.083 139.415 139.558 138.833 139.032 
138.27 138.536 137.764 138.061 137.267 137.543 136.749 137.041 136.344 
136.711 136.159 136.583 137.593 137.788 138.246 139.548 138.129 138.509 
139.809 140.391 141.817 138.612 138.906 140.121 140.645 142.049 142.64 
143.926 139.118 139.393 140.511 140.946 142.288 142.868 144.222 144.69 
145.94 139.584 139.87 140.936 141.303 142.551 143.101 144.498 145.039 
146.388 146.821 148.235 140.046 140.333 141.395 141.713 142.866 143.337 
144.679 145.29 146.682 147.24 148.608 149.17 150.624 140.489 140.778 
141.831 142.161 143.261 143.648 144.872 145.433 146.801 147.44 148.794 
149.404 150.74 151.398 152.738 140.91 141.173 142.16 142.529 143.595 
143.997 145.126 145.615 146.89 147.514 148.876 149.516 150.836 151.45 
152.731 153.362 154.577 141.342 141.554 142.445 142.788 143.79 144.229 
145.302 145.798 146.963 147.566 148.852 149.537 150.849 151.507 152.754 
153.365 154.542 155.123 156.197 137.869 139.904 138.878 138.985 142.234 
141.163 141.296 140.144 140.244 144.312 143.441 143.67 142.595 142.704 
141.505 141.616 146.325 145.46 145.829 144.909 145.205 144.074 144.219 
142.958 143.063 148.792 147.763 148.323 147.253 147.789 146.659 147.017 
145.706 145.811 144.428 144.457 151.374 150.476 151.204 150.079 150.695 
149.474 149.956 148.628 148.823 147.318 147.26 145.782 145.729 153.53 
152.94 153.715 152.876 153.42 152.363 152.764 151.577 151.806 150.38 
150.315 148.701 148.51 147.017 146.927 155.313 154.891 155.646 155.06 
155.543 154.741 155.051 154.13 154.379 153.241 153.251 151.751 151.498 
149.872 149.62 148.17 148.04 156.883 156.545 157.289 156.812 157.308 
156.624 156.921 156.149 156.43 155.579 155.736 154.543 154.359 152.813 
152.446 150.88 150.581 149.193 148.993 157.963 159.721 158.722 158.387 
161.414 160.471 160.07 158.986 158.383 162.833 162.096 161.69 160.607 
159.894 158.756 157.976 163.788 163.381 163.093 162.137 161.38 160.219 
159.38 158.276 157.501 164.26 164.155 164.032 163.374 162.659 161.621 
160.747 159.669 158.836 157.774 156.858 164.33 164.406 164.264 163.995 
163.359 162.681 161.833 160.94 160.035 159.011 157.913 156.823 155.516 
163.963 164.193 163.864 163.86 163.198 162.967 162.182 161.726 160.807 
160.009 158.749 157.677 156.154 155.082 153.559 163.01 163.474 163.046 
163.205 162.459 162.457 161.635 161.591 160.671 160.342 159.015 158.219 
156.54 155.546 153.907 152.99 151.58 161.506 162.19 161.781 162.171 
161.421 161.55 160.624 160.712 159.702 159.704 158.391 158.029 156.358 
155.663 153.979 153.216 151.782 151.063 149.865 157.935 158.369 158.696 
159.721 158.638 159.111 160.204 160.488 161.431 158.563 159.296 160.45 
160.888 161.772 162.031 162.751 157.899 158.98 160.212 160.951 161.743 
162.126 162.619 162.984 163.471 156.712 157.986 159.241 160.386 161.255 
161.872 162.226 162.589 162.9 163.418 163.839 155.462 156.618 157.721 
159.071 160.061 161.1 161.626 162.134 162.414 162.816 163.234 163.738 
164.085 154.416 155.369 156.223 157.419 158.293 159.584 160.265 161.268 
161.673 162.312 162.645 163.164 163.467 163.882 163.898 153.383 154.298 
155.012 155.983 156.649 157.761 158.345 159.557 160.009 161.123 161.402 
162.286 162.383 163.045 162.918 163.355 162.954 152.175 153.142 153.82 
154.774 155.372 156.274 156.743 157.7 158.087 159.183 159.486 160.59 
160.679 161.589 161.387 162.054 161.603 162.066 161.436 141.854 142.973 
142.576 142.956 144.118 143.755 144.193 143.79 144.282 145.243 144.944 
145.484 145.096 145.653 145.242 145.824 146.391 146.136 146.813 146.46 
147.124 146.705 147.372 146.902 147.545 147.584 147.38 148.189 147.877 
148.663 148.263 149.023 148.552 149.291 148.755 149.46 148.704 148.611 
149.518 149.3 150.168 149.842 150.677 150.258 151.067 150.571 151.359 
150.783 151.487 149.672 149.698 150.671 150.583 151.484 151.287 152.164 
151.88 152.751 152.357 153.204 152.701 153.468 152.83 153.439 150.544 
150.638 151.659 151.665 152.589 152.496 153.403 153.268 154.236 154.004 
154.952 154.546 155.375 154.8 155.456 154.732 155.225 151.368 151.502 
152.548 152.611 153.563 153.535 154.481 154.442 155.518 155.447 156.554 
156.291 157.22 156.709 157.397 156.718 157.219 156.449 156.84 141.413 
141.011 141.647 142.484 140.446 141.163 142.028 142.712 143.564 139.904 
140.573 141.437 142.174 143.047 143.753 144.606 139.559 140.117 140.963 
141.613 142.492 143.189 144.058 144.77 145.661 139.311 139.831 140.663 
141.237 142.101 142.706 143.564 144.219 145.099 145.831 146.765 139.043 
139.554 140.344 140.932 141.772 142.366 143.199 143.792 144.624 145.277 
146.145 146.902 147.814 138.824 139.27 140 140.563 141.356 141.976 
142.789 143.417 144.232 144.847 145.649 146.295 147.111 147.874 148.737 
138.739 139.09 139.783 140.246 140.991 141.537 142.296 142.927 143.735 
144.412 145.225 145.847 146.599 147.217 147.984 148.742 149.583 138.791 
139.065 139.739 140.106 140.825 141.247 141.94 142.442 143.174 143.835 
144.658 145.37 146.149 146.756 147.442 148.052 148.789 149.562 150.39 
139.053 139.781 139.608 140.019 140.514 140.389 140.859 140.662 141.1 
141.209 141.14 141.685 141.528 141.967 141.736 142.154 141.948 141.867 
142.467 142.354 142.827 142.597 142.991 142.778 143.296 142.824 142.667 
143.247 143.127 143.631 143.444 143.877 143.653 144.202 144.057 144.758 
143.822 143.594 144.081 143.89 144.363 144.224 144.737 144.577 145.188 
145.037 145.757 145.623 146.302 144.816 144.581 144.978 144.705 145.117 
144.966 145.566 145.477 146.176 146.047 146.748 146.609 147.25 147.077 
147.612 145.641 145.481 145.834 145.566 145.959 145.783 146.453 146.386 
147.17 147.049 147.731 147.557 148.164 147.996 148.576 148.365 148.933 
146.204 146.159 146.524 146.36 146.797 146.665 147.368 147.332 148.147 
148.051 148.732 148.533 149.145 148.949 149.623 149.419 150.126 149.851 
150.536 146.562 147.368 146.965 146.973 148.605 147.998 148.094 147.473 
147.462 150.087 149.437 149.595 148.859 148.945 148.17 148.208 151.647 
151.002 151.232 150.474 150.567 149.774 149.803 149.012 148.987 153.558 
152.8 153.235 152.309 152.485 151.5 151.516 150.611 150.539 149.706 
149.547 155.639 154.953 155.574 154.613 154.928 153.726 153.801 152.576 
152.557 151.425 151.308 150.264 150.061 157.352 156.918 157.538 156.88 
157.193 156.202 156.226 155.028 154.975 153.729 153.647 152.359 152.172 
150.919 150.676 158.823 158.449 159.043 158.566 158.87 158.155 158.114 
157.176 156.979 155.976 155.794 154.712 154.475 153.224 152.884 151.591 
151.244 160.355 159.933 160.551 160.035 160.42 159.732 159.79 158.886 
158.672 157.702 157.419 156.514 156.224 155.267 154.881 153.75 153.285 
152.074 151.639 146.351 146.116 146.517 147.131 145.837 146.288 147.022 
147.464 148.307 145.604 146.061 146.878 147.388 148.338 148.816 149.763 
145.361 145.856 146.693 147.258 148.245 148.815 149.794 150.264 151.232 
144.997 145.567 146.37 147.002 147.952 148.631 149.631 150.224 151.236 
151.773 152.946 144.533 145.144 145.918 146.574 147.467 148.214 149.252 
149.99 151.097 151.75 152.957 153.616 154.914 144.053 144.664 145.446 
146.089 146.962 147.685 148.738 149.559 150.753 151.553 152.784 153.536 
154.78 155.5 156.659 143.583 144.185 144.983 145.633 146.519 147.207 
148.227 149.038 150.215 151.11 152.332 153.207 154.412 155.235 156.408 
157.112 158.18 143.154 143.726 144.527 145.182 146.073 146.761 147.718 
148.498 149.575 150.482 151.646 152.6 153.796 154.733 155.959 156.811 
158.004 158.669 159.735 145.811 144.623 145.371 145.51 143.184 144.035 
144.312 145.039 145.194 142.027 142.672 142.997 143.786 144.069 144.75 
144.936 141.172 141.67 141.853 142.535 142.844 143.588 143.823 144.489 
144.662 140.12 140.734 140.823 141.443 141.646 142.364 142.591 143.305 
143.447 144.138 144.266 138.887 139.561 139.706 140.354 140.506 141.179 
141.348 142.042 142.157 142.847 142.933 143.662 143.781 137.739 138.364 
138.506 139.174 139.309 139.994 140.11 140.792 140.877 141.547 141.626 
142.321 142.44 143.172 143.312 136.612 137.212 137.248 137.916 137.979 
138.703 138.77 139.491 139.545 140.247 140.343 141.05 141.209 141.902 
142.061 142.739 142.877 135.499 136.044 136.017 136.619 136.634 137.325 
137.392 138.113 138.179 138.89 139.003 139.754 139.971 140.718 140.934 
141.583 141.72 142.336 142.471 134.923 134.251 134.849 135.397 133.587 
134.198 134.753 135.354 135.988 132.904 133.555 134.194 134.781 135.437 
136.043 136.755 132.307 132.923 133.636 134.256 134.969 135.563 136.271 
136.857 137.559 131.955 132.447 133.17 133.744 134.502 135.108 135.846 
136.415 137.128 137.687 138.42 131.889 132.24 132.968 133.407 134.177 
134.699 135.484 136.025 136.807 137.342 138.159 138.679 139.479 132.108 
132.318 133.062 133.361 134.151 134.529 135.352 135.785 136.633 137.114 
137.993 138.504 139.353 139.808 140.516 132.571 132.666 133.404 133.59 
134.402 134.665 135.53 135.84 136.725 137.085 137.968 138.396 139.224 
139.67 140.361 140.751 141.306 133.117 133.177 133.874 134.006 134.796 
135.007 135.873 136.135 137.02 137.301 138.15 138.457 139.234 139.573 
140.249 140.59 141.173 141.499 142.047 133.607 134.572 134.182 134.389 
135.598 135.188 135.465 135.056 135.331 136.848 136.281 136.558 136.151 
136.501 136.09 136.422 138.587 137.726 137.903 137.302 137.639 137.245 
137.648 137.236 137.573 140.693 139.697 139.81 138.878 139.087 138.449 
138.83 138.423 138.821 138.383 138.679 142.64 141.807 141.981 140.981 
141.101 140.139 140.37 139.7 140.079 139.608 139.943 139.453 139.7 
144.324 143.627 143.899 143.086 143.26 142.274 142.391 141.449 141.698 
140.999 141.338 140.754 141.006 140.443 140.652 146.083 145.336 145.661 
144.92 145.195 144.347 144.492 143.52 143.648 142.768 143.027 142.297 
142.561 141.854 142.023 141.385 141.564 147.989 147.194 147.522 146.734 
147.037 146.238 146.446 145.547 145.641 144.713 144.845 144.04 144.256 
143.506 143.666 142.89 142.995 142.308 142.464 143.183 143.812 143.842 
144.615 144.531 144.571 145.374 145.388 146.191 145.16 145.275 146.102 
146.161 146.996 147.011 147.852 145.83 145.929 146.858 146.915 147.852 
147.873 148.834 148.797 149.741 146.69 146.747 147.82 147.832 148.95 
148.912 150.053 149.954 151.049 150.874 151.871 147.521 147.673 148.823 
148.914 150.157 150.182 151.488 151.397 152.656 152.407 153.527 153.166 
154.136 148.166 148.443 149.653 149.882 151.198 151.382 152.8 152.882 
154.288 154.152 155.415 155.037 156.11 155.568 156.454 148.719 149.061 
150.371 150.686 152.131 152.414 153.975 154.178 155.709 155.737 157.102 
156.912 158.074 157.647 158.582 157.928 158.626 149.21 149.613 150.987 
151.402 152.96 153.374 155.085 155.406 157.037 157.14 158.491 158.425 
159.548 159.387 160.334 159.955 160.651 159.976 160.419 128.264 127.346 
127.857 128.004 126.555 126.948 127.142 127.688 127.989 126.383 126.389 
126.576 126.937 127.318 127.823 128.24 127.037 126.621 126.72 126.67 
126.991 127.278 127.702 128.158 128.665 128.107 127.527 127.522 127.132 
127.282 127.192 127.478 127.7 128.183 128.692 129.413 129.194 128.604 
128.543 128.042 128.104 127.735 127.915 127.748 128.17 128.383 129.183 
129.705 130.646 130.306 129.683 129.609 129.06 129.141 128.686 128.924 
128.521 128.956 128.772 129.579 129.778 130.831 131.178 132.094 131.459 
130.831 130.77 130.171 130.261 129.78 130.076 129.674 130.145 129.829 
130.545 130.479 131.433 131.587 132.509 132.669 133.387 132.549 131.984 
131.946 131.359 131.426 130.926 131.18 130.809 131.234 130.972 131.553 
131.443 132.178 132.235 132.993 133.113 133.76 133.874 134.438 128.775 
128.552 128.916 129.483 128.533 128.78 129.362 129.701 130.346 128.744 
128.871 129.437 129.681 130.359 130.686 131.406 129.214 129.21 129.771 
129.871 130.548 130.792 131.543 131.83 132.553 130.05 129.877 130.492 
130.39 131.054 131.112 131.857 132.044 132.791 133.013 133.727 131.185 
130.88 131.479 131.264 131.897 131.789 132.494 132.504 133.244 133.344 
134.084 134.245 134.967 132.411 132.033 132.499 132.249 132.811 132.674 
133.324 133.251 133.937 133.92 134.629 134.693 135.409 135.522 136.176 
133.601 133.2 133.577 133.253 133.768 133.575 134.198 134.084 134.708 
134.634 135.256 135.268 135.925 136.002 136.629 136.691 137.221 134.685 
134.335 134.718 134.362 134.85 134.58 135.17 134.981 135.554 135.395 
135.92 135.855 136.426 136.483 137.08 137.149 137.673 137.684 138.129 
129.118 129.84 129.616 129.93 130.699 130.41 130.788 130.533 130.916 
131.709 131.341 131.713 131.449 131.883 131.606 132.021 132.802 132.382 
132.685 132.383 132.802 132.566 132.986 132.718 133.165 133.965 133.5 
133.771 133.376 133.753 133.481 133.935 133.676 134.138 133.894 134.482 
135.195 134.711 135.005 134.53 134.889 134.507 134.989 134.688 135.227 
134.935 135.544 135.335 136.082 136.355 135.929 136.223 135.784 136.131 
135.712 136.165 135.823 136.376 136.08 136.693 136.45 137.16 137.001 
137.76 137.34 136.989 137.251 136.913 137.245 136.903 137.314 136.995 
137.489 137.21 137.767 137.546 138.188 138.045 138.752 138.625 139.292 
138.219 137.893 138.139 137.848 138.182 137.917 138.332 138.071 138.539 
138.276 138.776 138.546 139.116 138.98 139.64 139.555 140.209 140.072 
140.641 145.744 145.117 145.176 144.495 144.241 144.382 143.646 143.7 
142.978 143.258 143.443 142.816 142.878 142.294 142.338 141.9 142.288 
142.495 142.07 142.207 141.862 141.886 141.566 141.536 141.164 141.402 
141.586 141.251 141.529 141.313 141.51 141.163 141.196 140.642 140.642 
140.034 140.647 140.76 140.342 140.65 140.356 140.742 140.296 140.521 
139.789 139.878 139.107 139.263 138.675 139.977 140.042 139.508 139.696 
139.222 139.574 139.057 139.392 138.702 138.874 138.134 138.277 137.717 
137.957 137.544 139.305 139.376 138.815 138.882 138.29 138.442 137.865 
138.128 137.563 137.802 137.213 137.374 136.843 137.042 136.62 136.882 
136.476 138.637 138.716 138.197 138.225 137.632 137.63 137.021 137.103 
136.574 136.771 136.276 136.48 135.946 136.149 135.643 135.915 135.479 
135.778 135.368 
POINT_DATA 1002
SCALARS Distance double
LOOKUP_TABLE default
133.987 133.073 132.973 133.877 132.831 134.937 133.788 132.699 134.911 
136.028 133.826 132.693 135.054 136.307 137.535 134.162 133.009 135.468 
136.845 138.24 139.57 134.905 133.767 136.213 137.581 139.01 140.42 
141.651 135.782 134.71 137.052 138.366 139.697 141.073 142.325 143.365 
136.441 135.498 137.623 138.947 140.27 141.596 142.886 144.017 145.001 
137.045 136.182 138.138 139.452 140.854 142.213 143.517 144.758 145.879 
146.853 137.913 136.987 139.034 140.316 141.721 143.13 144.43 145.656 
146.839 147.905 148.783 132.062 131.937 130.941 130.784 129.802 131.767 
129.598 128.714 130.601 131.622 128.399 127.579 129.38 130.49 131.63 
127.223 126.563 128.155 129.313 130.577 132.003 126.531 126.259 127.218 
128.264 129.562 131.069 132.872 126.743 126.831 127.029 127.771 128.886 
130.289 132.066 133.942 127.556 127.776 127.541 127.973 128.848 129.963 
131.449 133.25 134.865 128.452 128.66 128.307 128.528 129.252 130.169 
131.246 132.731 134.324 135.683 129.39 129.194 130.253 130.134 131.305 
129.186 131.377 132.443 130.416 129.74 132.801 133.661 131.961 131.238 
130.65 134.367 135.158 133.605 132.823 132.111 131.549 136.098 136.871 
135.31 134.474 133.685 133.087 132.754 137.803 138.497 137.043 136.253 
135.529 134.946 134.51 134.291 139.33 139.915 138.694 138.052 137.474 
136.978 136.465 135.984 135.716 140.699 141.171 140.226 139.759 139.291 
138.847 138.364 137.807 137.34 137.084 138.714 138.947 140.992 139.246 
141.242 143.225 139.671 141.454 143.459 145.1 140.148 141.719 143.698 
145.516 147.21 140.619 142.046 143.893 145.911 147.746 149.757 141.092 
142.479 144.079 146.074 148.071 150.013 152.108 141.487 142.917 144.392 
146.154 148.182 150.136 152.078 154.034 141.809 143.187 144.687 146.308 
148.216 150.237 152.14 153.98 155.722 142.159 143.372 144.816 146.408 
148.183 150.165 152.149 153.979 155.672 157.204 140.014 142.491 141.391 
144.615 143.912 142.816 146.671 146.207 145.503 144.345 149.416 148.889 
148.279 147.281 145.817 152.264 151.94 151.264 150.334 148.866 147.107 
154.455 154.432 153.893 153.142 151.951 150.139 148.293 156.191 156.3 
155.904 155.362 154.637 153.172 151.193 149.383 157.732 157.955 157.678 
157.188 156.747 155.83 154.084 152.071 150.299 158.961 159.485 160.73 
161.21 162.312 159.528 162.774 163.419 161.094 159.071 163.96 163.992 
162.553 160.503 158.577 164.522 164.274 163.621 161.817 159.936 158.006 
164.426 164.297 163.846 162.615 161.08 159.102 156.643 163.862 163.738 
163.308 162.445 161.495 159.859 157.298 154.53 162.831 162.465 162.452 
161.625 160.845 159.686 157.513 154.822 152.377 161.28 160.778 161.238 
160.583 159.679 158.597 156.905 154.667 152.457 150.519 157.652 159.486 
157.981 159.88 158.068 161.264 159.953 157.683 161.536 162.529 159.318 
156.707 161.382 162.325 163.011 157.946 155.495 160.475 161.924 162.437 
163.257 156.425 154.479 158.805 160.917 162.05 162.762 163.689 155.215 
153.565 157.041 159.045 160.848 162.132 163.048 163.668 154.124 152.466 
155.708 157.211 158.792 160.401 161.685 162.425 162.668 152.845 151.219 
154.5 155.918 157.111 158.372 159.699 160.668 161.077 161.074 142.235 
143.339 143.349 144.581 144.429 144.662 145.826 145.479 146.05 146.254 
147.11 146.592 147.51 147.82 148.052 148.445 147.723 149.021 149.467 
149.793 150.038 149.674 148.722 150.445 151.049 151.526 151.893 152.153 
150.707 149.594 151.64 152.378 153.074 153.664 154.065 154.194 151.621 
150.425 152.657 153.48 154.361 155.281 155.917 156.15 156.032 140.838 
141.874 140.326 141.295 139.722 142.919 140.708 139.286 142.312 143.916 
140.362 139.036 141.825 143.345 144.92 140.101 138.8 141.53 142.955 
144.398 145.986 139.766 138.568 141.171 142.619 144.03 145.452 147.005 
139.481 138.426 140.758 142.145 143.608 145.065 146.435 147.902 139.367 
138.427 140.506 141.714 143.034 144.568 146.047 147.323 148.736 139.404 
138.545 140.449 141.526 142.585 143.909 145.502 146.906 148.107 149.532 