# vtk DataFile Version 4.0
vtk output
ASCII
DATASET POLYDATA
POINTS 1002 float
-84.3564 -79.5108 69.2796 -84.2269 -78.9906 67.9438 -83.7371 -78.8431 68.756 
-83.8906 -79.3456 70.2519 -83.2067 -78.7703 69.7414 -84.4326 -80.0352 70.8694 
-83.3979 -79.2496 71.436 -82.6892 -78.6764 70.9419 -84.0063 -79.8927 72.0028 
-84.3611 -80.9399 72.6353 -82.8652 -79.2636 72.7302 -82.1768 -78.5686 72.1961 
-83.5244 -79.9364 73.274 -83.9271 -81.024 73.8051 -84.135 -82.3195 74.394 
-82.2288 -79.4549 73.9138 -81.6888 -78.5601 73.4637 -82.8591 -80.2693 74.4773 
-83.3379 -81.3472 74.9984 -83.6188 -82.636 75.5021 -83.8122 -83.7911 76.0457 
-81.6065 -79.7466 75.1332 -81.2015 -78.7438 74.8533 -82.0777 -80.7698 75.5536 
-82.5126 -81.8679 76.0864 -82.9122 -83.0668 76.6145 -83.1905 -84.2589 77.1073 
-83.3687 -85.4636 77.6012 -81.1196 -80.0685 76.5346 -80.6707 -79.1205 76.1791 
-81.509 -81.2279 76.8286 -81.7839 -82.4452 77.2318 -82.1503 -83.6067 77.7306 
-82.5079 -84.8362 78.2189 -82.6644 -86.2167 78.6553 -82.758 -87.6023 79.0384 
-80.6946 -80.5201 77.792 -80.1933 -79.6505 77.2415 -81.1297 -81.7031 78.2254 
-81.3527 -83.0899 78.6179 -81.6069 -84.348 79.0136 -81.9485 -85.6124 79.4056 
-82.0867 -87.106 79.8117 -82.0875 -88.5866 80.1638 -82.1848 -89.7626 80.4022 
-80.2538 -81.1713 78.7593 -79.8602 -80.2836 78.2147 -80.6633 -82.3228 79.3193 
-80.9286 -83.8047 79.8597 -81.1489 -85.2352 80.3258 -81.4591 -86.5525 80.6748 
-81.6403 -88.0708 81.0076 -81.6329 -89.6208 81.3631 -81.698 -90.8311 81.6319 
-81.8952 -91.7278 81.7775 -79.8279 -81.928 79.6811 -79.6292 -80.9401 79.286 
-80.103 -83.0437 80.1703 -80.3861 -84.4748 80.7229 -80.6263 -86.0094 81.2776 
-80.8855 -87.4222 81.7453 -81.1233 -88.9348 82.1204 -81.2293 -90.5717 82.4556 
-81.3166 -91.9548 82.7332 -81.519 -92.9935 82.9275 -81.7531 -93.9055 83.0534 
-83.8099 -78.2211 67.2275 -83.2486 -78.0595 68.081 -83.3877 -77.3835 66.6151 
-82.8216 -77.0895 67.5643 -82.929 -76.6191 66.098 -82.6909 -77.9508 69.1293 
-82.3928 -76.1614 67.1293 -82.3686 -75.7906 65.5764 -82.2875 -76.8509 68.6927 
-82.1628 -77.7694 70.377 -81.9011 -75.2258 66.7368 -81.8682 -74.6431 65.2145 
-81.9042 -75.7887 68.4175 -81.8066 -76.5723 70.067 -81.7473 -77.5287 71.7538 
-81.5129 -74.1001 66.6927 -81.7279 -73.4235 65.3313 -81.4185 -74.7642 68.3759 
-81.4108 -75.4507 70.0978 -81.5163 -76.3143 71.6823 -81.4228 -77.4724 73.2584 
-81.4636 -73.043 67.1612 -82.0595 -72.5604 65.8964 -80.969 -73.6703 68.6753 
-80.7261 -74.4228 70.3234 -81.0058 -75.2507 71.8663 -81.1999 -76.3599 73.239 
-80.8988 -77.7755 74.6839 -81.8271 -72.3504 67.9144 -82.7161 -72.0891 66.7293 
-80.9197 -72.7793 69.1993 -80.165 -73.4659 70.5346 -80.107 -74.3206 71.9365 
-80.5187 -75.3396 73.1858 -80.5015 -76.7503 74.3993 -80.2046 -78.3038 75.8134 
-82.458 -71.9947 68.7903 -83.4317 -71.9034 67.738 -81.3876 -72.2732 69.869 
-80.3422 -72.7979 70.8533 -79.7131 -73.548 71.9577 -79.7402 -74.4231 73.1192 
-79.8832 -75.6356 74.1978 -79.7681 -77.2568 75.4441 -79.7241 -78.8793 76.8811 
-83.1252 -71.8917 69.7104 -84.0231 -71.9507 68.7754 -82.0981 -72.0559 70.6876 
-81.0869 -72.4548 71.5237 -80.249 -73.0571 72.3809 -79.76 -73.7734 73.3881 
-79.5814 -74.7004 74.3938 -79.4754 -76.0779 75.4818 -79.4419 -77.7818 76.7983 
-79.5404 -79.4521 78.141 -84.0151 -72.0264 70.3199 -83.0681 -71.9981 71.3493 
-83.9868 -72.2054 71.9364 -83.026 -72.2645 73.093 -83.9447 -72.6002 73.6057 
-82.0748 -72.2423 72.3483 -82.9637 -72.7812 74.833 -83.8558 -73.3651 75.1406 
-82.0947 -72.5896 74.2425 -81.2197 -72.7333 73.2556 -82.919 -73.6596 76.3364 
-83.7899 -74.4135 76.5081 -82.0488 -73.2116 76.0561 -81.3602 -73.2044 75.2899 
-80.5281 -73.4094 74.194 -83.0495 -74.7424 77.7986 -83.8838 -75.4084 78.0326 
-82.1093 -74.2018 77.559 -81.3999 -74.0762 77.0574 -80.7643 -74.137 76.1677 
-79.9865 -74.26 75.139 -83.2913 -75.7945 79.5011 -84.0953 -76.2961 79.7221 
-82.352 -75.3578 79.1495 -81.5324 -75.2799 78.5724 -80.8951 -75.3527 77.8542 
-80.1986 -75.2808 77.0489 -79.6003 -75.4258 76.1661 -83.446 -76.8853 81.1567 
-84.2646 -77.2827 81.2304 -82.5107 -76.5624 80.8874 -81.6832 -76.5309 80.3012 
-80.9951 -76.6792 79.551 -80.3155 -76.625 78.9165 -79.7181 -76.5685 78.2592 
-79.4135 -76.9975 77.4464 -83.5234 -78.091 82.4532 -84.3385 -78.3983 82.431 
-82.5625 -77.8755 82.3104 -81.7487 -77.8493 81.9422 -81.0849 -77.9507 81.3586 
-80.3823 -77.9238 80.7805 -79.7727 -77.8422 80.2807 -79.4688 -78.13 79.6102 
-79.4244 -78.8021 78.7827 -83.5912 -79.3581 83.4098 -84.3421 -79.5676 83.3682 
-82.6735 -79.2564 83.3017 -81.8737 -79.2868 83.0859 -81.2458 -79.3539 82.7787 
-80.5562 -79.2924 82.3948 -79.8653 -79.1863 81.9764 -79.4765 -79.3898 81.4473 
-79.3972 -79.9714 80.7089 -79.4627 -80.5799 79.9042 -79.4533 -82.3481 80.6616 
-79.3323 -82.0895 81.4123 -79.2388 -84.0432 82.1278 -79.3484 -81.5527 82.2076 
-79.2374 -83.9379 82.8999 -79.1633 -86.0626 83.6178 -79.5398 -81.0264 82.8772 
-79.3952 -83.5498 83.6348 -79.2486 -86.125 84.3539 -79.1063 -88.4326 84.9499 
-80.0548 -80.8698 83.3519 -79.6636 -83.1139 84.2621 -79.4289 -85.82 85.0918 
-79.1909 -88.4596 85.6527 -79.0027 -90.8654 85.991 -80.8166 -80.9721 83.6432 
-80.2006 -82.919 84.6487 -79.661 -85.3135 85.6988 -79.3758 -88.0076 86.4116 
-79.1632 -90.6533 86.6697 -79.1358 -93.0905 86.8017 -81.5207 -80.9762 83.8323 
-80.995 -82.867 84.8156 -80.2421 -84.9151 85.9772 -79.7289 -87.3356 86.8883 
-79.476 -90.1234 87.3261 -79.3199 -92.8489 87.4725 -79.3665 -95.3604 87.4965 
-82.1948 -80.8418 84.0048 -81.7541 -82.7353 84.9255 -81.1272 -84.6681 86.0944 
-80.483 -86.7887 87.0089 -80.0365 -89.5236 87.5469 -79.6679 -92.5348 88.014 
-79.4327 -95.2231 88.2567 -79.3117 -97.6951 88.0876 -83.019 -80.7509 84.1458 
-82.4619 -82.5487 84.9796 -81.9238 -84.459 86.1241 -81.3862 -86.3951 87.0843 
-80.8498 -88.9266 87.5151 -80.2868 -92.1025 88.0898 -79.8005 -94.9959 88.8544 
-79.4677 -97.3253 88.9903 -79.1047 -99.6209 88.4529 -83.8572 -80.7889 84.1777 
-83.2429 -82.4173 84.9366 -82.6373 -84.2551 85.9609 -82.1571 -86.0575 87.0595 
-81.6764 -88.2575 87.5832 -81.0419 -91.3383 87.9509 -80.4268 -94.5112 88.8981 
-79.993 -96.8701 89.6452 -79.5765 -98.8104 89.3488 -79.0192 -101.017 88.4746 
-79.5466 -83.5409 81.036 -79.3423 -85.4571 82.5447 -79.7979 -84.8994 81.4911 
-79.2747 -87.8204 84.0664 -79.6557 -87.098 82.9505 -80.109 -86.5242 81.9885 
-79.1048 -90.63 85.3561 -79.4833 -89.9409 84.4239 -79.8934 -89.0319 83.3338 
-80.3234 -88.1916 82.5118 -79.0748 -93.3358 86.3078 -79.2147 -93.1794 85.6573 
-79.5388 -92.3357 84.6742 -79.9544 -91.0452 83.7675 -80.5109 -89.8807 83.0268 
-79.3555 -95.806 86.9829 -79.2521 -96.1089 86.4613 -79.2527 -95.8602 85.6732 
-79.5798 -94.7076 84.8522 -80.135 -93.1092 84.2025 -80.7288 -91.7232 83.4426 
-79.3214 -98.4277 87.4557 -79.193 -98.9402 86.9094 -78.9711 -99.0728 86.202 
-79.1316 -98.5066 85.4821 -79.7227 -97.0545 84.9803 -80.3671 -95.1892 84.4508 
-80.9037 -93.4482 83.6897 -78.8251 -100.898 87.7298 -78.5367 -101.857 87.1645 
-78.2094 -102.222 86.5033 -78.2488 -102.039 85.8087 -78.8553 -101.13 85.3631 
-79.6535 -99.3358 84.9931 -80.4126 -97.0506 84.4946 -81.0728 -94.834 83.8359 
-78.4193 -102.75 87.7845 -77.848 -104.278 87.2858 -77.3596 -105.072 86.7206 
-77.267 -105.179 86.049 -77.7657 -104.747 85.5886 -78.5377 -103.485 85.2699 
-79.4053 -101.29 84.8976 -80.4131 -98.6087 84.5277 -81.2779 -96.0245 83.9822 
-78.5962 -103.572 87.8114 -77.848 -105.7 87.4055 -78.3072 -106.716 87.4156 
-77.6487 -108.782 87.254 -78.3097 -109.877 87.4088 -77.1672 -107.206 86.9894 
-77.6114 -111.552 87.1273 -78.274 -112.248 87.2046 -77.0745 -109.899 86.67 
-76.8334 -107.8 86.3044 -77.248 -113.627 86.683 -78.1685 -113.52 86.4455 
-76.9803 -112.318 86.2849 -77.0563 -110.27 85.8516 -77.1518 -107.776 85.7108 
-77.3894 -114.747 85.9526 -78.7303 -113.799 85.6542 -76.6994 -114.28 85.8124 
-77.186 -112.506 85.4223 -77.6007 -110.015 85.32 -77.7865 -107.023 85.3697 
-78.8593 -114.773 85.184 -79.9422 -113.138 85.2375 -77.5211 -115.291 85.0862 
-77.2892 -114.161 84.8524 -77.8471 -111.661 84.7535 -78.0635 -108.629 84.9172 
-78.46 -105.161 85.0174 -80.4681 -113.675 84.6092 -80.9421 -111.632 85.0015 
-79.3454 -114.957 84.2889 -78.2637 -114.647 84.1175 -78.0978 -112.434 84.0993 
-78.3627 -109.352 84.36 -78.7383 -106.09 84.7175 -79.5326 -102.383 84.79 
-81.2412 -111.532 84.3507 -81.604 -109.525 84.7759 -80.6074 -113.117 83.9536 
-79.5811 -113.478 83.7747 -78.8404 -111.92 83.79 -78.8311 -109.101 84.0456 
-79.2905 -106.139 84.5271 -80.0278 -102.894 84.7949 -80.8102 -99.2607 84.5578 
-81.7651 -108.705 84.2819 -82.3609 -107.122 84.5725 -81.2073 -110.076 84.0433 
-80.5146 -110.692 83.9688 -79.8413 -109.859 83.987 -79.6163 -107.712 84.0741 
-79.9379 -105.231 84.3636 -80.5653 -102.622 84.6329 -81.2228 -99.5134 84.4514 
-81.6458 -96.3647 83.8252 -79.5033 -100.725 88.7975 -79.1151 -103.357 87.8446 
-80.0634 -100.438 88.8247 -79.6699 -103.012 87.7475 -80.6412 -100.002 88.521 
-78.8411 -106.654 87.3454 -80.4392 -102.25 87.7284 -81.4513 -99.1037 88.2663 
-79.42 -105.915 87.2724 -78.8839 -109.576 87.2795 -81.5538 -100.984 87.9664 
-82.4484 -97.8236 88.2691 -80.3406 -104.459 87.4517 -79.4729 -108.023 87.0428 
-78.9737 -111.282 86.7563 -82.631 -99.3969 88.1042 -83.3313 -96.4167 88.1174 
-81.5521 -102.764 87.7422 -80.3347 -105.94 87.0742 -79.5689 -109.083 86.2755 
-79.1045 -111.935 85.8109 -83.5633 -97.564 87.8484 -84.2313 -94.9797 87.6339 
-82.7082 -100.804 87.7205 -81.5931 -103.923 87.2679 -80.4709 -106.669 86.3889 
-79.7933 -109.39 85.5823 -79.6775 -111.693 85.3693 -84.7071 -95.7721 87.5241 
-85.3206 -93.6003 87.1265 -83.8935 -98.5264 87.5524 -83.0161 -101.535 87.3399 
-82.0174 -104.21 86.8437 -81.0004 -106.568 86.0502 -80.4528 -108.761 85.541 
-80.5679 -110.513 85.3725 -85.9411 -94.2537 87.2121 -86.3353 -92.2721 86.6201 
-85.2107 -96.5122 87.458 -84.353 -99.0004 87.3448 -83.5667 -101.501 87.095 
-82.7269 -103.75 86.5998 -81.9093 -105.695 85.9599 -81.4883 -107.392 85.5601 
-81.497 -108.738 85.247 -86.8712 -92.8048 86.602 -87.0735 -90.9342 85.9364 
-86.3607 -94.8551 87.0791 -85.55 -96.9114 87.1408 -84.7257 -98.9902 86.9784 
[...]
CELL_DATA 2000
SCALARS Distance double
LOOKUP_TABLE default
133.341 133.431 133.735 134.477 133.647 133.905 134.684 134.951 135.776 
133.952 134.199 135.029 135.255 136.129 136.383 137.308 134.297 134.54 
135.419 135.66 136.569 136.812 137.759 138.001 138.925 134.771 134.943 
135.832 136.065 136.988 137.251 138.198 138.463 139.391 139.609 140.501 
135.4 135.514 136.423 136.568 137.517 137.704 138.676 138.907 139.884 
140.103 141.055 141.235 142.174 136.061 136.192 137.166 137.284 138.309 
138.397 139.437 139.529 140.592 140.716 141.787 141.908 142.941 143.027 
143.977 136.735 136.863 137.867 138.039 139.117 139.269 140.365 140.444 
141.538 141.594 142.718 142.788 143.903 143.936 144.96 144.915 145.822 
137.505 137.57 138.527 138.696 139.743 139.992 141.086 141.306 142.377 
142.529 143.606 143.74 144.847 144.94 145.998 145.985 146.951 146.833 
147.745 132.625 131.538 132.261 132.672 130.481 131.166 131.561 132.344 
132.845 129.435 130.121 130.475 131.23 131.714 132.545 133.1 128.325 
129.056 129.445 130.178 130.646 131.427 131.987 132.828 133.437 127.383 
128.007 128.48 129.186 129.715 130.441 131.041 131.805 132.473 133.263 
133.951 127.01 127.325 127.792 128.323 128.861 129.545 130.177 130.945 
131.643 132.406 133.109 133.864 134.57 127.287 127.275 127.654 127.857 
128.266 128.739 129.273 130.026 130.679 131.528 132.176 132.995 133.644 
134.465 135.165 128 127.771 128.078 127.974 128.274 128.364 128.76 
129.197 129.766 130.495 131.117 131.95 132.585 133.461 134.181 135.064 
135.832 128.899 128.575 128.845 128.576 128.867 128.669 129.038 129.039 
129.571 129.861 130.504 131.032 131.734 132.454 133.265 134.116 135.003 
135.837 136.674 129.504 130.411 129.769 129.434 131.456 130.749 130.428 
129.756 129.457 132.633 131.88 131.611 130.866 130.607 129.87 129.649 
133.905 133.123 132.894 132.135 131.969 131.184 131.005 130.207 130.127 
135.33 134.492 134.309 133.494 133.398 132.632 132.562 131.719 131.608 
130.814 130.902 136.914 136.05 135.945 135.042 134.983 134.155 134.179 
133.353 133.334 132.431 132.439 131.703 132.008 138.498 137.696 137.653 
136.765 136.735 135.855 135.908 135.06 135.136 134.235 134.308 133.414 
133.658 132.988 133.525 139.945 139.242 139.223 138.436 138.432 137.618 
137.688 136.856 136.955 136.081 136.203 135.329 135.582 134.805 135.273 
134.663 135.291 141.232 140.619 140.62 139.929 139.952 139.243 139.355 
138.614 138.742 137.915 138.033 137.195 137.428 136.69 137.107 136.468 
136.994 136.428 136.978 138.006 138.119 138.583 139.647 138.246 138.732 
139.899 140.351 141.531 138.499 138.899 140.115 140.629 141.927 142.378 
143.648 139.033 139.265 140.43 140.88 142.228 142.762 144.093 144.529 
145.76 139.709 139.882 140.95 141.267 142.517 143.028 144.363 144.894 
146.125 146.555 147.715 140.27 140.495 141.516 141.799 142.912 143.313 
144.533 145.072 146.317 146.84 148.02 148.465 149.634 140.768 140.973 
141.965 142.283 143.362 143.708 144.809 145.232 146.416 146.962 148.22 
148.755 149.977 150.41 151.54 141.348 141.472 142.381 142.669 143.725 
144.101 145.166 145.528 146.593 147.059 148.299 148.916 150.247 150.773 
151.924 152.257 153.168 141.922 142.037 142.842 143.063 144.013 144.387 
145.415 145.817 146.8 147.214 148.304 148.925 150.253 150.959 152.196 
152.634 153.491 153.692 154.304 138.297 139.9 139.125 139.291 141.783 
140.856 141.008 140.218 140.501 143.937 142.918 143.087 142.104 142.353 
141.54 141.877 146.128 145.185 145.459 144.379 144.596 143.554 143.814 
142.95 143.229 148.181 147.389 147.84 146.851 147.149 145.974 146.161 
145.043 145.271 144.322 144.547 150.161 149.46 150.046 149.218 149.657 
148.577 148.809 147.566 147.745 146.567 146.786 145.715 145.881 152.042 
151.44 152.057 151.363 151.845 150.965 151.271 150.192 150.398 149.192 
149.357 148.13 148.243 147.066 147.088 153.58 153.172 153.761 153.246 
153.7 152.989 153.297 152.455 152.727 151.745 151.923 150.741 150.771 
149.501 149.438 148.203 148.078 154.66 154.461 155.045 154.753 155.24 
154.7 155.018 154.325 154.643 153.884 154.154 153.172 153.216 151.996 
151.885 150.599 150.439 149.155 148.938 155.313 156.739 155.946 155.88 
158.665 157.646 157.492 156.519 156.171 160.485 159.6 159.271 158.183 
157.655 156.616 156.004 161.472 161.049 160.694 159.802 159.188 158.13 
157.483 156.396 155.728 161.785 161.69 161.523 160.949 160.454 159.585 
158.98 157.937 157.227 156.106 155.289 161.878 161.967 162.025 161.676 
161.329 160.681 160.066 159.234 158.391 157.428 156.411 155.394 154.301 
161.53 161.949 162.112 162.097 161.787 161.369 160.618 159.963 158.932 
158.193 157.057 156.24 155.06 154.138 152.944 160.485 161.22 161.326 
161.798 161.463 161.467 160.588 160.159 158.949 158.377 157.206 156.625 
155.528 154.78 153.6 152.684 151.47 159.058 159.829 159.76 160.52 
160.139 160.608 159.733 159.709 158.437 158.106 156.864 156.534 155.477 
155.051 153.909 153.205 151.902 151.08 149.836 155.245 155.409 155.652 
156.51 155.396 155.736 156.616 157.149 158.396 155.207 155.646 156.495 
157.127 158.376 159.112 160.266 154.978 155.471 156.285 156.872 157.861 
158.733 159.78 160.578 161.219 154.595 155.216 156.014 156.59 157.3 
157.984 158.675 159.6 160.211 161.033 161.381 153.936 154.659 155.397 
156.131 156.77 157.362 157.791 158.419 158.837 159.704 160.158 161.013 
161.327 153.307 153.939 154.599 155.334 155.984 156.684 157.141 157.653 
157.915 158.469 158.785 159.607 159.955 160.82 160.951 152.813 153.393 
154.032 154.605 155.18 155.823 156.312 156.927 157.221 157.694 157.843 
158.379 158.558 159.313 159.431 160.204 160.048 152.149 152.843 153.456 
154.064 154.525 155.066 155.407 156.009 156.292 156.888 157.048 157.529 
157.594 158.088 158.135 158.725 158.647 159.197 158.861 142.424 143.463 
143.09 143.394 144.577 144.206 144.6 144.161 144.56 145.756 145.409 
145.907 145.47 145.943 145.472 145.953 146.888 146.625 147.256 146.885 
147.456 146.951 147.436 146.909 147.354 147.915 147.735 148.471 148.255 
148.951 148.522 149.028 148.447 148.908 148.342 148.878 148.868 148.733 
149.482 149.4 150.172 149.938 150.498 150.016 150.511 149.984 150.667 
150.126 150.881 149.742 149.651 150.363 150.33 151.089 151.015 151.62 
151.338 151.848 151.505 152.218 151.908 152.724 152.238 152.845 150.573 
150.506 151.199 151.148 151.861 151.837 152.486 152.345 152.878 152.664 
153.275 153.172 153.866 153.728 154.212 153.816 154.023 151.416 151.368 
152.07 151.968 152.625 152.57 153.248 153.19 153.813 153.642 154.186 
154.031 154.561 154.497 154.896 154.748 154.924 154.594 154.674 142.009 
141.589 142.191 142.979 141.2 141.75 142.559 143.186 144.04 140.983 
141.446 142.226 142.788 143.671 144.297 145.181 140.694 141.23 141.981 
142.513 143.351 143.948 144.838 145.446 146.284 140.27 140.843 141.616 
142.217 143.015 143.617 144.46 145.086 145.931 146.521 147.306 140.1 
140.497 141.296 141.843 142.681 143.252 144.058 144.664 145.502 146.143 
146.961 147.534 148.278 140.179 140.465 141.21 141.645 142.503 142.993 
143.804 144.298 145.101 145.699 146.543 147.164 147.926 148.467 149.15 
140.165 140.489 141.13 141.566 142.352 142.854 143.645 144.104 144.868 
145.372 146.201 146.775 147.559 148.089 148.755 149.274 149.934 140.041 
140.371 140.962 141.397 142.122 142.641 143.389 143.89 144.613 145.132 
145.941 146.507 147.314 147.792 148.436 148.869 149.475 150.02 150.708 
140.159 140.801 140.666 141.138 141.716 141.506 142.041 141.808 142.357 
142.66 142.523 143.112 142.839 143.316 143.067 143.58 143.445 143.391 
143.952 143.81 144.198 143.976 144.385 144.237 144.77 144.258 144.124 
144.593 144.475 144.844 144.709 145.149 145.046 145.682 145.553 146.205 
145.214 144.998 145.438 145.167 145.563 145.359 145.924 145.85 146.639 
146.575 147.34 147.1 147.642 146.066 145.941 146.423 146.136 146.566 
146.266 146.865 146.729 147.53 147.515 148.258 148.148 148.622 148.356 
148.672 146.64 146.65 147.14 147.037 147.505 147.322 147.913 147.758 
148.459 148.367 148.99 148.895 149.326 149.162 149.495 149.27 149.64 
147.028 147.085 147.533 147.577 148.081 148.111 148.765 148.75 149.454 
149.318 149.882 149.644 150.077 149.854 150.315 150.119 150.651 150.396 
150.919 147.367 148.113 147.757 147.867 149.308 148.705 148.853 148.37 
148.54 150.881 150.171 150.372 149.655 149.895 149.262 149.457 152.24 
151.742 151.983 151.323 151.57 150.858 151.058 150.29 150.303 153.277 
152.942 153.255 152.794 153.03 152.465 152.59 151.895 151.786 150.962 
150.676 154.469 154.06 154.485 154.015 154.275 153.749 153.815 153.22 
153.065 152.326 151.974 151.149 150.787 155.802 155.39 155.835 155.339 
155.597 155.003 155.024 154.362 154.22 153.519 153.308 152.502 152.243 
151.354 151.104 156.968 156.644 156.99 156.592 156.77 156.271 156.263 
155.611 155.457 154.729 154.594 153.876 153.788 152.963 152.791 151.823 
151.565 158.045 157.711 157.978 157.58 157.66 157.247 157.229 156.745 
156.628 155.994 155.817 155.146 155.018 154.38 154.226 153.464 153.153 
152.223 151.831 147.177 147.062 147.378 147.922 146.807 147.238 147.875 
148.243 149.036 146.432 146.958 147.681 148.167 149.059 149.559 150.541 
146.03 146.614 147.417 147.959 148.883 149.497 150.504 151.048 151.886 
145.572 146.231 147.082 147.684 148.574 149.231 150.189 150.849 151.685 
152.179 152.869 145.031 145.733 146.57 147.261 148.092 148.803 149.689 
150.419 151.281 151.888 152.67 153.156 153.975 144.502 145.168 145.965 
146.666 147.454 148.19 149.041 149.83 150.747 151.469 152.369 152.963 
153.875 154.4 155.306 144.048 144.657 145.432 146.075 146.849 147.528 
148.363 149.141 150.097 150.914 151.899 152.632 153.586 154.234 155.163 
155.711 156.53 143.659 144.225 144.984 145.583 146.343 146.968 147.772 
148.489 149.418 150.248 151.249 152.084 153.053 153.823 154.758 155.451 
156.344 156.877 157.649 146.664 145.587 146.29 146.487 144.221 145.047 
145.289 146.026 146.17 142.879 143.656 143.864 144.67 144.827 145.59 
145.702 141.52 142.327 142.479 143.238 143.34 144.124 144.23 145.045 
145.191 139.866 140.8 140.937 141.809 141.896 142.668 142.737 143.517 
143.643 144.503 144.683 138.192 139.036 139.144 140.112 140.259 141.171 
141.262 142.056 142.135 142.943 143.096 143.977 144.165 136.836 137.489 
137.572 138.383 138.563 139.471 139.603 140.481 140.544 141.402 141.519 
142.405 142.601 143.48 143.681 135.6 136.218 136.293 136.994 137.163 
137.921 138.029 138.802 138.833 139.696 139.82 140.785 141.021 141.952 
142.191 143.041 143.254 134.371 134.962 135 135.713 135.85 136.6 
136.677 137.348 137.322 138.033 138.137 139.061 139.373 140.37 140.69 
141.581 141.826 142.649 142.877 133.734 132.975 133.628 134.303 132.27 
132.875 133.525 134.3 135.134 131.685 132.23 132.838 133.527 134.332 
135.164 135.958 131.291 131.766 132.397 132.923 133.648 134.367 135.161 
135.92 136.614 131.157 131.524 132.217 132.616 133.335 133.841 134.661 
135.263 136.09 136.682 137.494 131.327 131.545 132.262 132.568 133.346 
133.715 134.584 135.025 135.966 136.428 137.381 137.854 138.81 131.764 
131.851 132.553 132.746 133.548 133.841 134.728 135.102 136.044 136.468 
137.423 137.874 138.813 139.276 140.16 132.354 132.376 133.061 133.15 
133.915 134.119 134.979 135.294 136.206 136.583 137.495 137.913 138.806 
139.256 140.105 140.547 141.322 132.986 132.998 133.666 133.706 134.418 
134.538 135.351 135.588 136.497 136.801 137.731 138.049 138.957 139.296 
140.17 140.529 141.341 141.692 142.424 133.556 134.681 134.155 134.253 
135.985 135.364 135.486 134.901 135.026 137.519 136.802 136.962 136.267 
136.435 135.779 135.985 139.121 138.409 138.584 137.854 138.053 137.329 
137.569 136.879 137.156 140.72 140.024 140.221 139.494 139.674 138.963 
139.2 138.53 138.815 138.13 138.402 142.417 141.696 141.992 141.213 
141.411 140.599 140.778 140.09 140.377 139.773 140.068 139.382 139.618 
144.132 143.425 143.76 143.048 143.33 142.471 142.615 141.732 141.93 
141.262 141.594 141.004 141.282 140.582 140.793 145.856 145.104 145.338 
144.701 144.988 144.329 144.528 143.672 143.77 142.911 143.129 142.481 
142.797 142.188 142.418 141.723 141.91 147.78 146.902 147.079 146.268 
146.473 145.83 146.083 145.44 145.601 144.787 144.881 144.083 144.281 
143.644 143.888 143.271 143.446 142.781 142.943 143.711 144.219 144.32 
145.028 144.668 144.823 145.562 145.666 146.383 145.16 145.302 146.132 
146.236 147.043 147.085 147.851 145.859 145.939 146.888 146.938 147.864 
147.863 148.751 148.695 149.546 146.531 146.695 147.694 147.806 148.816 
148.823 149.794 149.722 150.652 150.531 151.405 146.986 147.274 148.34 
148.596 149.723 149.829 150.904 150.861 151.871 151.733 152.661 152.453 
153.268 147.548 147.81 149.118 149.362 150.731 150.836 152.107 152.067 
153.252 153.096 154.167 153.866 154.756 154.362 155.084 148.35 148.615 
150.17 150.413 151.985 152.059 153.444 153.387 154.695 154.598 155.867 
155.588 156.627 156.091 156.847 156.231 156.798 149.082 149.476 151.049 
151.48 153.034 153.296 154.596 154.67 155.878 155.961 157.276 157.278 
158.463 158.089 158.889 158.183 158.669 157.902 158.218 128.807 127.837 
128.319 128.427 127.043 127.364 127.437 128.017 128.318 126.697 126.717 
126.747 127.145 127.501 128.093 128.553 127.048 126.676 126.645 126.696 
127.02 127.427 127.916 128.449 128.957 128.049 127.396 127.303 126.925 
127.089 127.134 127.511 127.887 128.407 128.943 129.575 129.237 128.582 
128.482 127.856 127.831 127.441 127.607 127.632 128.115 128.514 129.27 
129.794 130.593 130.294 129.736 129.666 129.068 128.984 128.372 128.384 
128.008 128.394 128.476 129.285 129.68 130.59 130.978 131.702 131.323 
130.765 130.708 130.168 130.125 129.54 129.553 129.009 129.297 129.058 
129.745 129.891 130.743 131.048 131.757 132.023 132.556 132.405 131.826 
131.763 131.204 131.182 130.643 130.701 130.197 130.435 130.08 130.569 
130.474 131.115 131.239 131.849 132.062 132.582 132.81 133.309 129.379 
129.083 129.548 130.225 128.979 129.334 130.036 130.462 131.166 129.133 
129.335 129.971 130.318 131.045 131.469 132.245 129.509 129.582 130.153 
130.34 131.03 131.389 132.219 132.652 133.484 130.157 130.078 130.677 
130.68 131.342 131.505 132.323 132.679 133.558 133.93 134.692 131.084 
130.867 131.46 131.349 132.002 131.992 132.746 132.914 133.772 134.059 
134.862 135.122 135.834 132.041 131.809 132.288 132.156 132.747 132.704 
133.384 133.437 134.222 134.389 135.215 135.401 136.173 136.345 137.093 
132.863 132.669 133.09 132.942 133.478 133.415 134.053 134.065 134.791 
134.895 135.711 135.865 136.676 136.799 137.538 137.66 138.335 133.66 
133.468 133.949 133.765 134.318 134.18 134.802 134.738 135.421 135.462 
136.229 136.374 137.174 137.323 138.03 138.124 138.708 138.797 139.296 
129.795 130.607 130.347 130.696 131.528 131.206 131.547 131.298 131.719 
132.609 132.195 132.532 132.207 132.636 132.398 132.888 133.83 133.362 
133.675 133.26 133.661 133.363 133.856 133.618 134.147 134.996 134.58 
134.875 134.439 134.785 134.423 134.876 134.607 135.138 134.915 135.512 
136.125 135.717 136.047 135.622 135.965 135.564 135.998 135.672 136.203 
135.938 136.548 136.345 137.028 137.382 136.926 137.303 136.832 137.192 
136.75 137.194 136.843 137.405 137.09 137.697 137.419 138.078 137.889 
138.578 138.591 138.205 138.572 138.127 138.438 137.973 138.346 138.01 
138.564 138.311 138.909 138.609 139.178 138.924 139.544 139.387 140.011 
139.506 139.263 139.591 139.286 139.549 139.146 139.411 139.076 139.537 
139.363 139.947 139.746 140.246 139.977 140.468 140.288 140.859 140.739 
141.287 146.573 146.072 146.062 145.45 145.437 145.454 144.733 144.74 
144.049 144.617 144.716 143.966 143.966 143.216 143.293 142.687 143.666 
143.81 143.085 143.142 142.338 142.411 141.721 141.919 141.304 142.752 
142.838 142.098 142.201 141.385 141.464 140.662 140.844 140.15 140.412 
139.693 141.909 141.946 141.169 141.234 140.454 140.503 139.69 139.77 
139.044 139.241 138.599 138.79 138.118 141.068 141.124 140.405 140.412 
139.695 139.671 138.919 138.89 138.176 138.25 137.664 137.816 137.259 
137.37 136.791 140.299 140.357 139.773 139.765 139.123 139.044 138.32 
138.218 137.487 137.474 136.844 136.959 136.399 136.548 135.969 136.101 
135.528 139.717 139.722 139.212 139.205 138.608 138.533 137.806 137.671 
136.894 136.811 136.106 136.151 135.531 135.663 135.072 135.23 134.659 
134.825 134.307 
POINT_DATA 1002
SCALARS Distance double
LOOKUP_TABLE default
134.047 132.978 132.999 134.162 133.135 135.224 134.421 133.389 135.472 
136.638 134.791 133.679 135.877 137.044 138.247 135.155 134.062 136.317 
137.519 138.719 139.814 135.617 134.637 136.728 137.924 139.158 140.3 
141.395 136.292 135.276 137.364 138.466 139.644 140.856 142.015 143.119 
137.01 135.9 138.201 139.368 140.483 141.655 142.86 143.956 144.864 
137.682 136.626 138.912 140.246 141.487 142.65 143.858 144.999 145.931 
146.677 138.405 137.486 139.499 140.824 142.193 143.456 144.719 145.971 
147.03 147.897 148.666 131.9 131.886 130.831 130.785 129.831 132.016 
129.75 128.728 130.894 132.236 128.694 127.558 129.894 131.156 132.574 
127.776 126.823 128.977 130.28 131.692 133.159 127.383 126.833 128.227 
129.388 130.869 132.373 133.801 127.618 127.42 127.971 128.61 129.827 
131.346 132.815 134.322 128.285 128.304 128.341 128.517 129.159 130.315 
131.693 133.252 134.973 129.145 129.257 129.111 129.156 129.446 130.111 
131.09 132.423 134.126 135.914 130.115 130.053 131.069 131.129 132.174 
130.109 132.342 133.389 131.366 130.351 133.642 134.689 132.703 131.842 
130.827 135.148 136.157 134.142 133.354 132.494 131.508 136.85 137.74 
135.841 134.972 134.216 133.297 132.516 138.503 139.255 137.61 136.759 
135.997 135.198 134.434 134.03 139.971 140.613 139.2 138.492 137.818 
137.054 136.361 135.958 135.839 141.276 141.811 140.618 140.042 139.536 
138.877 138.173 137.755 137.612 137.536 139.001 139.215 140.729 139.375 
141.115 142.755 139.572 141.405 143.269 144.927 140.054 141.669 143.619 
145.399 146.961 140.718 142.085 143.806 145.673 147.312 148.877 141.235 
142.6 144.057 145.744 147.541 149.214 150.817 141.647 143.018 144.474 
145.903 147.61 149.52 151.205 152.604 142.155 143.346 144.816 146.213 
147.673 149.628 151.603 152.97 153.938 142.683 143.694 145.004 146.429 
147.766 149.486 151.656 153.335 154.175 154.808 139.974 141.87 141.184 
144.135 143.263 142.618 146.503 145.746 144.788 144.044 148.712 148.314 
147.399 146.306 145.472 150.797 150.636 150.031 149.009 147.933 146.963 
152.716 152.669 152.241 151.554 150.648 149.506 148.272 154.211 154.372 
154.077 153.59 153.053 152.089 150.738 149.316 155.248 155.694 155.669 
155.325 155.029 154.397 153.183 151.758 150.261 155.893 156.711 157.625 
158.613 159.767 157.162 160.427 161.269 158.781 157.028 161.457 161.696 
160.203 158.586 156.844 161.923 161.743 161.193 159.973 158.389 156.457 
162.242 161.655 161.915 160.884 159.348 157.447 155.342 161.96 160.984 
162.143 161.311 159.666 157.794 155.946 153.91 160.724 159.755 161.3 
160.953 159.508 157.686 156.154 154.505 152.405 159.018 158.408 159.545 
159.581 158.68 157.143 155.783 154.515 152.727 150.588 155.049 156.031 
155.166 156.03 155.011 157.809 155.913 154.714 157.562 159.772 155.802 
154.431 157.159 158.88 160.701 155.429 153.936 156.829 157.93 159.231 
160.712 154.625 153.259 156.153 157.345 158.113 159.18 160.592 153.945 
152.726 155.241 156.573 157.519 158.13 159.059 160.223 153.517 152.202 
154.642 155.671 156.707 157.453 157.964 158.668 159.415 152.816 151.433 
154.043 154.898 155.662 156.518 157.186 157.646 158.106 158.433 142.781 
143.809 143.804 145.01 144.921 144.987 146.299 146.052 146.417 146.431 
147.53 147.088 147.945 148.01 147.874 148.593 148.072 149.297 149.619 
149.464 149.396 149.544 148.998 150.321 150.91 150.978 151.109 151.513 
150.42 149.819 151.134 151.824 152.138 152.444 153.115 153.552 151.289 
150.62 151.898 152.56 153.083 153.423 153.967 154.522 154.566 141.44 
142.357 140.974 141.924 140.705 143.4 141.715 140.534 143.042 144.575 
141.446 140.105 142.786 144.23 145.715 140.982 139.729 142.424 143.839 
145.316 146.765 140.785 139.79 142.126 143.498 144.842 146.353 147.771 
140.823 139.927 142.027 143.361 144.56 145.908 147.374 148.64 140.719 
139.851 141.852 143.18 144.398 145.653 147.049 148.261 149.371 140.546 
139.729 141.623 142.896 144.096 145.35 146.826 148.072 148.982 150.077 