# vtk DataFile Version 4.0
vtk output
ASCII
DATASET POLYDATA
POINTS 1002 float
-85.751 -82.4803 71.1933 -85.8304 -81.8273 70.2024 -85.2557 -81.7096 70.6953 
-85.147 -82.3875 71.7696 -84.7456 -81.4551 71.3994 -85.6832 -83.1718 72.4242 
-84.6696 -82.217 72.6762 -84.3004 -81.2697 72.2865 -85.1421 -83.1688 73.2254 
-85.6912 -83.9632 74.0206 -84.3513 -82.1307 73.849 -83.8574 -81.3526 73.3327 
-84.7918 -83.1188 74.4262 -85.2483 -84.0992 75.0506 -85.6612 -84.9691 75.7533 
-84.1086 -82.1799 75.1679 -83.4572 -81.5533 74.6245 -84.6037 -83.0629 75.8064 
-84.9798 -84.1502 76.3867 -85.2883 -85.2038 76.8949 -85.5506 -86.2244 77.415 
-83.8381 -82.3058 76.5958 -83.1708 -81.709 76.046 -84.3776 -83.1348 77.148 
-84.7026 -84.2589 77.7047 -84.9928 -85.4561 78.2092 -85.263 -86.6197 78.6716 
-85.4927 -87.7294 79.1539 -83.4306 -82.65 77.902 -82.8821 -81.9491 77.2717 
-83.9616 -83.5427 78.4226 -84.2718 -84.7135 78.8892 -84.5314 -85.9809 79.4148 
-84.9109 -87.2092 79.9711 -85.2244 -88.3736 80.4773 -85.4066 -89.4154 80.9079 
-82.9317 -83.2579 78.8835 -82.5554 -82.3124 78.2765 -83.3807 -84.3028 79.5057 
-83.7906 -85.4684 80.0467 -84.0678 -86.7039 80.56 -84.4033 -87.9383 81.1269 
-84.806 -89.1077 81.7062 -85.0626 -90.1691 82.1732 -85.1914 -91.1283 82.5102 
-82.6152 -83.8634 79.7637 -82.377 -82.6778 79.2961 -82.8757 -85.11 80.4046 
-83.3225 -86.2401 81.1237 -83.79 -87.2921 81.7584 -84.0923 -88.47 82.2693 
-84.3717 -89.7445 82.7941 -84.6629 -90.9223 83.3445 -84.8581 -91.9793 83.7842 
-84.9875 -92.9502 84.0919 -82.5822 -84.3384 80.8092 -82.4066 -83.0507 80.4224 
-82.646 -85.7468 81.3759 -82.9134 -86.9429 82.1228 -83.4754 -87.8482 82.8783 
-83.9421 -88.8621 83.4306 -84.1528 -90.2455 83.8616 -84.3428 -91.7171 84.3982 
-84.5652 -93.0102 84.9787 -84.7268 -94.1335 85.4112 -84.837 -95.0861 85.6743 
-85.5141 -81.0948 69.5369 -84.9987 -80.8175 70.1919 -85.228 -80.1526 68.9624 
-84.7124 -79.7502 69.7515 -84.937 -79.111 68.4626 -84.505 -80.4819 70.9815 
-84.241 -78.7878 69.2514 -84.4644 -78.331 67.8975 -84.1105 -79.4835 70.5854 
-83.9318 -80.3918 71.8406 -83.5469 -78.1401 68.6371 -83.8503 -77.7089 67.3778 
-83.4708 -78.6741 70.1334 -83.3913 -79.4998 71.5193 -83.2803 -80.6123 72.8979 
-82.878 -77.363 68.1683 -83.4263 -76.7148 67.2108 -82.7711 -77.9638 69.6446 
-82.8198 -78.6231 71.2857 -82.737 -79.6768 72.6916 -82.8138 -80.862 74.2304 
-82.4731 -76.2106 68.1501 -83.3454 -75.6257 67.4122 -82.2177 -76.9484 69.3588 
-82.3667 -77.7059 71.0508 -82.3963 -78.631 72.6163 -82.3925 -79.8857 73.9934 
-82.61 -81.0292 75.5994 -82.4515 -75.3051 68.6864 -83.5827 -75.105 67.962 
-81.9238 -75.7933 69.6238 -81.9922 -76.6526 71.0168 -82.0919 -77.6635 72.6165 
-82.0928 -78.8332 74.0025 -82.1987 -80.0997 75.3559 -82.389 -81.2093 76.8625 
-82.8898 -74.9762 69.7235 -84.1089 -75.0362 68.9314 -82.0845 -75.0545 70.5433 
-81.8482 -75.6759 71.5376 -81.7754 -76.757 72.8906 -81.7085 -77.9254 74.3237 
-81.7722 -79.1253 75.576 -81.9145 -80.3043 76.8201 -82.1201 -81.4327 78.1072 
-83.6261 -74.9194 70.9516 -84.7571 -74.9998 70.113 -82.7012 -74.8213 71.763 
-82.16 -75.0998 72.5264 -81.7636 -75.964 73.5492 -81.4629 -77.1045 74.8771 
-81.4375 -78.2673 76.1133 -81.5435 -79.4388 77.1693 -81.6973 -80.5738 78.2528 
-82.0232 -81.7337 79.3636 -84.7085 -74.9354 71.7744 -83.7199 -74.8943 72.6805 
-84.6731 -75.1073 73.2519 -83.9121 -75.2182 74.1475 -84.7692 -75.6058 74.5678 
-82.9594 -74.9501 73.4721 -84.1296 -75.8039 75.6026 -85.0199 -76.1556 76.0775 
-83.1768 -75.4262 75.0923 -82.2807 -75.4203 74.3499 -84.3117 -76.385 77.3125 
-85.191 -76.7461 77.6888 -83.3112 -75.9942 76.8968 -82.3368 -75.8934 76.3041 
-81.6518 -76.3409 75.5699 -84.4828 -77.2137 78.855 -85.2833 -77.6709 79.0442 
-83.53 -76.7174 78.6578 -82.5739 -76.487 78.1869 -81.8524 -76.8126 77.4987 
-81.4451 -77.5191 76.7988 -84.7911 -78.4333 80.1005 -85.5359 -78.7839 80.3053 
-83.9097 -77.9493 80.0187 -82.9801 -77.5815 79.7011 -82.335 -77.6841 79.0265 
-81.8723 -78.2098 78.349 -81.5277 -78.829 77.7743 -85.1768 -79.6258 81.4619 
-85.8569 -79.8206 81.6778 -84.3636 -79.348 81.3315 -83.3729 -79.0587 81.1258 
-82.6505 -79.005 80.5762 -82.2738 -79.302 79.8412 -81.8624 -79.716 79.2641 
-81.5814 -80.1058 78.7763 -85.4522 -80.6606 82.8895 -86.0664 -80.8494 82.9697 
-84.7617 -80.4915 82.7546 -83.8301 -80.3703 82.5956 -82.9477 -80.3388 82.3198 
-82.4894 -80.5059 81.7688 -82.1882 -80.8113 81.073 -81.8803 -81.061 80.4617 
-81.8225 -81.3192 79.9016 -85.6431 -81.7384 84.0587 -86.2223 -81.9376 84.0079 
-85.0645 -81.5772 83.9764 -84.3528 -81.5514 83.7939 -83.5473 -81.6261 83.6573 
-82.9524 -81.7675 83.4838 -82.5903 -82.0191 83.0146 -82.2998 -82.2641 82.3248 
-82.183 -82.4195 81.6429 -82.2751 -82.6499 81.0019 -82.6203 -84.3958 81.9232 
-82.5359 -84.1329 82.6186 -82.5757 -86.2272 83.6966 -82.4785 -84.0178 83.3011 
-82.4889 -86.1398 84.3814 -82.4191 -88.3513 85.5011 -82.7073 -83.8705 83.9504 
-82.5899 -86.0578 84.8961 -82.4871 -88.2602 86.0606 -82.7576 -90.2822 86.9475 
-83.1761 -83.6216 84.4044 -83.1132 -85.8581 85.2417 -82.9079 -88.0318 86.3453 
-83.091 -90.0728 87.4259 -83.3678 -92.0508 87.9824 -83.6919 -83.3977 84.5125 
-83.7731 -85.6241 85.3684 -83.6243 -87.7522 86.4725 -83.6425 -89.827 87.6614 
-83.6388 -92.1372 88.5254 -83.2212 -94.381 89.0667 -84.2746 -83.1667 84.5779 
-84.2762 -85.3661 85.4324 -84.2184 -87.5281 86.6002 -84.2333 -89.6253 87.8152 
-84.0104 -92.2517 88.8424 -83.2649 -94.9726 89.732 -82.5684 -97.1298 90.4382 
-84.8843 -82.9523 84.8204 -84.7292 -84.9743 85.6803 -84.6078 -87.2029 86.8524 
-84.6709 -89.3765 88.0458 -84.489 -92.1192 89.0201 -83.5747 -95.2204 90.0822 
-82.6798 -97.5883 91.0932 -82.5335 -99.2713 91.6191 -85.4569 -82.9217 85.0022 
-85.2533 -84.623 85.9323 -85.0225 -86.7197 87.0884 -84.9945 -88.9231 88.2807 
-84.9476 -91.5994 89.1756 -84.159 -94.8292 90.1604 -83.0724 -97.4849 91.3635 
-82.7764 -99.1409 92.1024 -83.1522 -100.68 92.1225 -86.0465 -83.033 84.9766 
-85.8605 -84.4618 85.9606 -85.5791 -86.2839 87.0983 -85.363 -88.3478 88.3147 
-85.2875 -90.8014 89.2544 -84.7803 -93.9044 90.1025 -83.7316 -96.8615 91.2804 
-83.1164 -98.7822 92.2901 -83.3418 -100.206 92.4761 -83.7229 -102.053 92.0655 
-82.6168 -85.958 82.4617 -82.4775 -87.9779 84.3696 -82.5998 -87.4844 83.1329 
-82.5702 -90.1395 86.0632 -82.614 -89.5416 84.9488 -82.9806 -88.6154 83.8705 
-83.1199 -92.0546 87.2352 -82.954 -91.7698 86.3578 -83.1298 -90.8019 85.4612 
-83.6027 -89.6012 84.5076 -83.2314 -94.0904 88.3053 -83.2291 -93.9639 87.5299 
-83.2959 -93.4821 86.8243 -83.6023 -92.3153 86.0188 -83.963 -91.0631 84.9879 
-82.5939 -96.8015 89.7277 -82.7869 -96.5645 88.9753 -83.0831 -96.3806 88.3402 
-83.428 -95.7266 87.6412 -83.8121 -94.4185 86.6781 -84.1226 -92.933 85.5365 
-82.3775 -99.5356 91.0966 -82.307 -99.6503 90.4604 -82.5409 -99.5684 89.8619 
-83.0035 -99.1508 89.2634 -83.495 -98.1753 88.4629 -83.9583 -96.5634 87.4149 
-84.3154 -94.6603 86.2198 -82.9608 -101.62 91.7729 -82.5688 -102.469 91.3509 
-82.3647 -102.804 90.8161 -82.5854 -102.415 90.253 -83.0079 -101.495 89.6859 
-83.5078 -100.163 88.9662 -84.0529 -98.2647 87.9913 -84.4717 -96.0537 86.7678 
-83.5343 -103.422 91.7623 -83.0368 -104.832 91.5488 -82.5593 -105.717 91.1488 
-82.4713 -105.598 90.5218 -82.6496 -104.565 89.9878 -82.9206 -103.195 89.5919 
-83.4171 -101.614 89.0582 -84.0537 -99.5188 88.212 -84.5457 -97.1424 87.0383 
-83.7707 -104.906 91.5733 -83.2431 -106.785 91.3956 -83.1886 -108.539 91.2011 
-82.4653 -110.574 91.1294 -82.6088 -111.785 90.9831 -82.6399 -108.329 91.2407 
-81.9591 -113.721 90.7233 -82.5368 -113.907 90.5406 -82.0838 -111.949 90.7374 
-82.4031 -108.912 90.614 -81.9054 -115.752 89.8969 -82.7472 -115.228 89.7653 
-81.7324 -114.956 89.8752 -82.1868 -112.104 89.7543 -82.5016 -108.128 89.8233 
-82.2711 -116.602 88.9331 -83.2275 -115.758 89.0296 -81.6204 -116.588 88.8269 
-81.8704 -114.612 88.822 -82.3615 -110.57 89.0378 -82.5829 -106.377 89.4284 
-83.2726 -116.015 88.2702 -84.0647 -114.9 88.6239 -82.2335 -116.383 88.0183 
-81.8475 -115.394 88.1135 -82.1892 -112.249 88.4907 -82.4936 -108.039 88.9099 
-82.8265 -104.487 89.2126 -84.3508 -114.165 88.004 -84.8349 -112.861 88.4776 
-83.4502 -114.783 87.6609 -82.6309 -114.437 87.7504 -82.4944 -112.465 88.2107 
-82.6986 -109.01 88.6064 -82.9628 -105.447 88.8164 -83.4769 -102.396 88.7717 
-84.9308 -111.777 87.9704 -85.3428 -110.495 88.3857 -84.3156 -112.556 87.6923 
-83.6049 -112.573 87.7454 -83.2235 -111.43 88.1216 -83.2364 -108.881 88.4583 
-83.4084 -105.648 88.554 -83.759 -102.604 88.4303 -84.2224 -99.8 87.9467 
-85.3324 -109.319 87.9804 -85.8197 -108.22 88.2563 -84.7811 -110.046 87.8644 
-84.2384 -110.171 87.945 -83.8843 -109.471 88.1582 -83.8096 -107.666 88.3187 
-83.9228 -104.949 88.3034 -84.1707 -102.097 88.0927 -84.4955 -99.5355 87.5832 
-84.7406 -97.1932 86.7211 -83.9372 -102.309 92.2677 -83.9253 -105.38 91.7902 
-84.1419 -102.713 92.6959 -84.1499 -105.647 92.471 -84.3746 -103.058 93.0398 
-83.4992 -108.84 91.4523 -84.3475 -105.566 93.0683 -84.5573 -102.879 92.7414 
-83.9953 -108.481 92.2043 -83.3126 -111.435 91.1367 -84.4754 -104.899 92.7715 
-84.8868 -101.685 91.8879 -84.3556 -107.742 92.7643 -84.0985 -110.423 91.6552 
-83.469 -113.008 90.5085 -84.9015 -103.153 91.8196 -85.6533 -99.5582 91.1059 
-84.6028 -106.523 92.387 -84.5931 -109.194 92.0075 -84.2565 -111.624 90.7647 
-83.6173 -114.064 89.7043 -85.7791 -100.491 91.0365 -86.6756 -97.2963 90.5144 
-85.0827 -104.202 91.526 -84.9215 -107.411 91.7346 -84.8233 -109.79 91.0844 
-84.3185 -112.108 89.9511 -83.9626 -114.106 89.1668 -86.839 -97.9246 90.4904 
-87.6591 -95.4712 89.8884 -85.9137 -101.138 90.9062 -85.3639 -104.636 91.199 
-85.311 -107.344 91.14 -85.0769 -109.448 90.4358 -84.6547 -111.421 89.5934 
-84.6269 -112.665 89.0099 -87.8975 -95.9638 89.8708 -88.5549 -93.9563 89.2281 
-87.0442 -98.4115 90.4127 -86.2154 -101.461 90.7606 -85.8746 -104.364 90.9401 
-85.824 -106.562 90.7498 -85.5587 -108.384 90.1694 -85.3062 -109.794 89.5441 
-85.3169 -110.46 88.957 -88.8462 -94.3294 89.1057 -89.3353 -92.4942 88.5487 
-88.2433 -96.3281 89.7163 -87.4811 -98.7139 90.2387 -86.8282 -101.303 90.5794 
[...]
CELL_DATA 2000
SCALARS Distance double
LOOKUP_TABLE default
137.031 136.895 137.269 137.944 136.913 137.218 137.955 138.308 139.122 
137.175 137.395 138.236 138.492 139.4 139.678 140.585 137.671 137.826 
138.754 138.944 139.922 140.121 141.073 141.259 142.164 138.319 138.44 
139.39 139.549 140.535 140.717 141.701 141.858 142.816 142.936 143.888 
138.989 139.125 140.076 140.22 141.198 141.354 142.36 142.524 143.564 
143.699 144.739 144.808 145.803 139.599 139.768 140.74 140.912 141.933 
142.074 143.114 143.243 144.322 144.478 145.577 145.703 146.731 146.762 
147.685 140.24 140.384 141.393 141.58 142.661 142.842 143.933 144.064 
145.132 145.262 146.343 146.503 147.564 147.666 148.641 148.629 149.535 
141.04 141.116 142.161 142.294 143.404 143.584 144.706 144.874 145.947 
146.075 147.129 147.268 148.368 148.504 149.61 149.645 150.697 150.598 
151.582 136.426 135.444 136.052 136.283 134.406 135.048 135.309 135.935 
136.243 133.336 133.981 134.246 134.931 135.257 135.943 136.394 132.273 
132.885 133.128 133.844 134.201 134.93 135.387 136.165 136.791 131.251 
131.798 132.011 132.73 133.134 133.89 134.385 135.153 135.785 136.644 
137.403 130.435 130.803 130.966 131.627 132.091 132.879 133.457 134.208 
134.851 135.66 136.423 137.308 138.088 130.201 130.212 130.331 130.716 
131.205 131.918 132.609 133.36 134.052 134.792 135.534 136.356 137.137 
137.985 138.718 130.724 130.382 130.511 130.448 130.9 131.27 132.01 
132.635 133.42 134.086 134.843 135.551 136.318 137.082 137.834 138.622 
139.359 131.688 131.221 131.387 131.018 131.392 131.337 131.987 132.289 
133.093 133.598 134.412 134.991 135.776 136.395 137.159 137.833 138.608 
139.345 140.151 132.298 133.186 132.518 132.075 134.197 133.502 133.157 
132.397 132.084 135.402 134.644 134.378 133.585 133.324 132.582 132.541 
136.741 135.96 135.732 134.908 134.689 133.897 133.847 133.232 133.482 
138.108 137.346 137.185 136.352 136.184 135.345 135.317 134.611 134.83 
134.316 134.741 139.572 138.794 138.753 137.906 137.834 136.945 136.956 
136.168 136.382 135.751 136.121 135.625 136.081 141.145 140.373 140.439 
139.598 139.627 138.71 138.764 137.899 138.109 137.38 137.717 137.088 
137.473 136.962 137.421 142.665 141.971 142.085 141.325 141.415 140.559 
140.657 139.779 140.003 139.198 139.546 138.793 139.171 138.48 138.902 
138.353 138.865 144.044 143.438 143.57 142.912 143.037 142.302 142.452 
141.664 141.93 141.146 141.531 140.735 141.142 140.33 140.748 140.01 
140.496 139.9 140.447 141.566 141.697 142.219 143.49 141.978 142.442 
143.75 144.277 145.638 142.384 142.803 144.09 144.575 145.941 146.479 
147.847 142.769 143.215 144.487 144.944 146.258 146.772 148.149 148.685 
149.977 143.08 143.534 144.797 145.303 146.592 147.09 148.438 148.984 
150.358 150.815 152.023 143.452 143.814 145.013 145.543 146.846 147.389 
148.733 149.284 150.707 151.236 152.603 152.935 154.131 143.924 144.188 
145.277 145.741 147.022 147.598 148.961 149.553 150.979 151.583 153.023 
153.516 154.802 155.085 156.211 144.404 144.632 145.624 146.006 147.194 
147.747 149.068 149.706 151.084 151.766 153.17 153.826 155.116 155.6 
156.661 156.987 157.913 144.837 145.064 145.988 146.321 147.392 147.883 
149.085 149.717 150.985 151.714 153.016 153.791 155.043 155.712 156.753 
157.216 158.044 158.414 159.182 141.918 143.834 142.915 143.083 145.998 
144.98 145.127 144.148 144.336 148.238 147.23 147.398 146.313 146.44 
145.442 145.632 150.344 149.443 149.666 148.629 148.751 147.647 147.759 
146.743 146.89 152.303 151.461 151.737 150.842 151.087 150.031 150.196 
149.027 149.145 148.024 148.135 154.387 153.47 153.824 152.933 153.384 
152.431 152.851 151.669 151.928 150.571 150.702 149.387 149.48 156.564 
155.696 156.18 155.225 155.82 154.869 155.503 154.436 154.907 153.579 
153.805 152.285 152.34 150.851 150.844 158.401 157.829 158.458 157.678 
158.315 157.412 158.008 157.049 157.506 156.43 156.676 155.379 155.409 
153.891 153.757 152.201 152.017 159.757 159.477 160.231 159.784 160.476 
159.786 160.288 159.412 159.685 158.737 158.838 157.853 157.832 156.684 
156.504 155.095 154.771 153.25 152.913 160.657 162.408 161.463 161.317 
164.271 163.346 163.215 162.131 161.736 165.793 165.137 165.043 164.043 
163.569 162.348 161.587 166.683 166.382 166.371 165.685 165.18 164.063 
163.112 161.86 160.832 167.035 166.971 166.934 166.634 166.175 165.406 
164.362 163.188 161.919 160.819 159.772 166.889 167.039 166.842 166.802 
166.309 165.982 165.019 164.169 162.805 161.731 160.5 159.641 158.686 
166.11 166.531 166.232 166.393 165.832 165.788 164.964 164.522 163.303 
162.434 161.111 160.248 159.162 158.458 157.424 164.842 165.433 165.137 
165.515 164.982 165.138 164.417 164.29 163.26 162.715 161.414 160.675 
159.424 158.772 157.619 156.973 155.731 163.46 164.046 163.757 164.256 
163.773 164.12 163.435 163.578 162.615 162.427 161.144 160.673 159.288 
158.776 157.476 156.969 155.683 155.089 153.794 160.586 161.087 161.278 
162.292 161.693 161.874 162.851 163.08 164.118 161.939 162.407 163.35 
163.614 164.495 164.77 165.577 161.342 162.297 163.309 163.894 164.647 
164.983 165.59 165.908 166.425 160.049 161.285 162.361 163.43 164.238 
164.868 165.338 165.723 166.105 166.489 166.812 158.644 159.794 160.751 
162.082 162.984 164.071 164.581 165.216 165.441 165.945 166.169 166.651 
166.725 157.499 158.404 159.136 160.332 161.166 162.488 163.133 164.139 
164.373 165.037 165.101 165.727 165.736 166.251 165.994 156.607 157.33 
157.916 158.814 159.487 160.642 161.324 162.494 162.906 163.778 163.87 
164.526 164.48 165.064 164.848 165.264 164.789 155.778 156.451 156.962 
157.702 158.256 159.14 159.733 160.762 161.251 162.225 162.455 163.227 
163.228 163.824 163.651 164.093 163.72 164.002 163.468 145.334 146.483 
146.103 146.53 147.689 147.331 147.844 147.423 147.952 148.907 148.597 
149.214 148.82 149.426 148.979 149.621 150.105 149.854 150.591 150.261 
150.957 150.516 151.196 150.748 151.481 151.261 151.061 151.885 151.666 
152.466 152.087 152.804 152.355 153.12 152.694 153.5 152.387 152.202 
153.035 152.918 153.796 153.562 154.352 153.973 154.779 154.374 155.231 
154.783 155.55 153.474 153.307 154.105 154.017 154.917 154.811 155.707 
155.481 156.398 156.074 156.989 156.55 157.301 156.749 157.282 154.434 
154.341 155.111 155.042 155.918 155.88 156.844 156.777 157.83 157.676 
158.704 158.34 159.091 158.491 158.928 158.271 158.569 155.186 155.204 
155.951 155.951 156.774 156.81 157.773 157.847 158.971 159.022 160.158 
159.993 160.82 160.282 160.688 159.933 160.153 159.445 159.689 144.847 
144.448 145.068 145.934 144.027 144.645 145.5 146.17 147.077 143.626 
144.214 145.051 145.719 146.636 147.324 148.246 143.311 143.847 144.677 
145.294 146.227 146.902 147.848 148.505 149.416 143.053 143.572 144.386 
144.955 145.858 146.514 147.483 148.143 149.076 149.693 150.582 142.735 
143.283 144.058 144.641 145.47 146.118 147.025 147.734 148.684 149.365 
150.279 150.879 151.742 142.39 142.912 143.652 144.249 145.054 145.692 
146.52 147.206 148.077 148.846 149.766 150.517 151.396 152.021 152.832 
142.175 142.596 143.307 143.84 144.659 145.275 146.109 146.717 147.486 
148.161 148.974 149.81 150.682 151.518 152.332 153.022 153.756 142.112 
142.449 143.112 143.548 144.323 144.899 145.75 146.343 147.101 147.637 
148.321 148.984 149.757 150.62 151.439 152.316 153.062 153.813 154.472 
142.306 142.881 142.819 143.287 143.437 143.402 143.935 143.882 144.48 
144.061 144.011 144.62 144.579 145.264 145.219 145.912 144.796 144.723 
145.396 145.343 146.097 146.058 146.793 146.691 147.287 145.558 145.499 
146.203 146.174 146.989 146.964 147.757 147.623 148.223 147.987 148.485 
146.302 146.268 146.989 146.984 147.843 147.877 148.76 148.664 149.323 
149.014 149.509 149.215 149.823 147.057 147.058 147.844 147.809 148.654 
148.693 149.579 149.611 150.324 150.131 150.625 150.311 150.873 150.679 
151.432 147.822 147.878 148.753 148.718 149.509 149.479 150.234 150.294 
150.971 150.969 151.492 151.341 151.878 151.723 152.43 152.331 153.085 
148.585 148.678 149.576 149.595 150.33 150.278 150.908 150.893 151.515 
151.532 152.143 152.105 152.741 152.664 153.396 153.315 154.071 153.938 
154.575 149.336 150.721 150.132 150.279 152.044 151.443 151.525 150.95 
150.981 153.547 152.838 152.94 152.228 152.259 151.587 151.565 155.161 
154.482 154.706 153.872 153.996 153.094 153.099 152.242 152.207 156.62 
156.091 156.432 155.725 155.966 155.07 155.159 154.089 154.014 152.989 
152.907 158.142 157.6 158.042 157.401 157.713 156.984 157.181 156.251 
156.236 155.069 154.905 153.768 153.639 159.858 159.292 159.845 159.135 
159.501 158.718 158.956 158.147 158.235 157.254 157.118 155.937 155.706 
154.545 154.378 161.419 160.998 161.58 160.992 161.385 160.604 160.801 
159.937 159.988 159.095 158.967 157.972 157.679 156.596 156.286 155.23 
155.003 162.652 162.38 162.914 162.535 162.9 162.338 162.492 161.738 
161.701 160.816 160.595 159.64 159.266 158.302 157.883 156.952 156.583 
155.691 155.395 148.936 148.869 149.416 150.404 148.853 149.374 150.405 
150.888 151.806 148.855 149.337 150.334 150.881 151.887 152.328 153.275 
148.823 149.295 150.222 150.781 151.802 152.361 153.363 153.836 154.786 
148.608 149.171 150.061 150.641 151.617 152.22 153.198 153.782 154.711 
155.244 156.147 148.166 148.821 149.7 150.378 151.312 151.971 152.88 
153.504 154.391 155.015 155.959 156.56 157.574 147.716 148.327 149.168 
149.887 150.798 151.545 152.433 153.109 153.979 154.638 155.637 156.334 
157.474 158.113 159.247 147.399 147.916 148.684 149.326 150.197 150.951 
151.862 152.598 153.502 154.207 155.242 156.014 157.231 157.994 159.203 
159.817 160.849 147.121 147.601 148.288 148.855 149.655 150.354 151.267 
152.022 152.962 153.707 154.73 155.56 156.765 157.666 158.905 159.679 
160.737 161.294 162.137 147.93 146.564 147.383 147.842 145.837 146.243 
146.603 147.384 147.89 145.542 145.758 145.94 146.38 146.788 147.517 
148 144.795 145.3 145.37 145.792 146.005 146.561 146.93 147.639 
148.024 143.37 144.176 144.273 144.961 145.094 145.714 145.905 146.565 
146.802 147.551 147.788 141.873 142.669 142.86 143.659 143.861 144.607 
144.743 145.42 145.499 146.222 146.342 147.159 147.326 140.63 141.333 
141.57 142.301 142.53 143.291 143.444 144.149 144.175 144.848 144.888 
145.66 145.829 146.678 146.908 139.5 140.185 140.406 141.088 141.247 
141.959 142.069 142.794 142.837 143.513 143.547 144.249 144.419 145.228 
145.525 146.357 146.65 138.376 139.052 139.245 139.913 140.021 140.673 
140.728 141.413 141.481 142.18 142.274 142.965 143.142 143.894 144.193 
145.016 145.353 146.155 146.425 137.813 137.182 137.894 138.65 136.47 
137.218 137.974 138.695 139.397 135.807 136.504 137.285 138.006 138.74 
139.41 140.089 135.429 135.954 136.765 137.398 138.202 138.822 139.555 
140.153 140.859 135.415 135.754 136.529 137.014 137.829 138.383 139.164 
139.716 140.464 141.009 141.726 135.624 135.854 136.567 136.901 137.656 
138.097 138.88 139.392 140.19 140.709 141.49 141.961 142.686 135.977 
136.129 136.838 137.045 137.783 138.06 138.851 139.231 140.09 140.537 
141.401 141.834 142.644 143.026 143.781 136.446 136.548 137.267 137.405 
138.157 138.327 139.135 139.383 140.277 140.605 141.515 141.864 142.714 
143.061 143.858 144.196 144.945 136.908 137.018 137.704 137.85 138.577 
138.744 139.52 139.74 140.592 140.881 141.757 142.063 142.88 143.182 
143.948 144.276 145.016 145.347 146.025 137.341 138.278 137.912 138.165 
139.427 138.946 139.225 138.809 139.074 140.827 140.225 140.492 139.973 
140.266 139.782 140.06 142.354 141.692 141.95 141.353 141.641 141.073 
141.373 140.843 141.155 144.031 143.269 143.527 142.87 143.162 142.531 
142.807 142.217 142.522 141.99 142.303 145.9 145.048 145.277 144.518 
144.809 144.11 144.381 143.709 143.973 143.377 143.667 143.126 143.397 
147.765 146.939 147.142 146.332 146.585 145.822 146.089 145.347 145.593 
144.891 145.141 144.513 144.769 144.194 144.443 149.606 148.781 148.995 
148.181 148.404 147.617 147.853 147.087 147.313 146.56 146.763 146.045 
146.248 145.6 145.825 145.243 145.487 151.617 150.704 150.933 150.049 
150.25 149.419 149.616 148.837 149.033 148.274 148.438 147.68 147.809 
147.095 147.243 146.621 146.815 146.263 146.469 147.148 147.535 147.661 
148.322 148.019 148.116 148.87 148.949 149.715 148.665 148.726 149.587 
149.632 150.523 150.526 151.379 149.371 149.469 150.43 150.487 151.482 
151.472 152.408 152.311 153.14 150.009 150.183 151.208 151.357 152.419 
152.486 153.494 153.425 154.338 154.15 154.995 150.644 150.84 151.928 
152.121 153.268 153.416 154.554 154.563 155.635 155.478 156.497 156.202 
157.143 151.38 151.576 152.795 152.95 154.249 154.373 155.733 155.764 
157.087 156.946 158.159 157.865 158.933 158.504 159.367 152.178 152.425 
153.798 153.973 155.415 155.536 157.067 157.14 158.671 158.585 159.929 
159.642 160.73 160.313 161.145 160.626 161.222 152.934 153.269 154.72 
155.005 156.471 156.708 158.222 158.462 159.995 160.132 161.468 161.351 
162.357 162.023 162.755 162.294 162.812 162.259 162.616 131.688 130.765 
131.263 131.374 130.269 130.492 130.572 130.957 131.075 130.462 130.307 
130.299 130.341 130.366 130.716 130.975 131.201 130.779 130.669 130.343 
130.22 130.201 130.38 130.805 131.325 132.178 131.652 131.526 130.964 
130.767 130.349 130.428 130.479 131.025 131.447 132.181 133.212 132.666 
132.604 131.99 131.87 131.21 131.256 130.892 131.4 131.482 132.285 
132.562 133.352 134.254 133.706 133.68 133.124 133.122 132.482 132.552 
131.986 132.374 132.15 132.882 132.934 133.735 133.876 134.616 135.304 
134.757 134.734 134.205 134.254 133.727 133.837 133.302 133.559 133.196 
133.737 133.646 134.369 134.406 135.128 135.198 135.881 136.333 135.82 
135.822 135.283 135.337 134.837 134.972 134.5 134.712 134.306 134.684 
134.478 135.076 135.059 135.756 135.788 136.467 136.49 137.125 132.279 
131.956 132.437 133.039 131.666 132.131 132.799 133.228 133.83 131.615 
131.946 132.673 133.062 133.75 134.09 134.732 131.952 132.071 132.785 
133.055 133.784 134.091 134.795 135.097 135.807 132.676 132.569 133.178 
133.274 133.957 134.197 134.942 135.234 135.997 136.27 136.996 133.714 
133.419 133.94 133.805 134.408 134.463 135.191 135.431 136.242 136.517 
137.265 137.472 138.117 134.904 134.526 135.022 134.73 135.282 135.094 
135.729 135.77 136.541 136.773 137.541 137.758 138.405 138.558 139.147 
136.104 135.708 136.163 135.854 136.361 136.082 136.599 136.434 137.059 
137.126 137.852 138.035 138.715 138.868 139.482 139.609 140.208 137.285 
136.873 137.246 136.931 137.366 137.106 137.547 137.319 137.822 137.727 
138.362 138.421 139.107 139.218 139.868 139.979 140.595 140.698 141.269 
132.658 133.391 133.167 133.475 134.138 133.888 134.188 134 134.405 
135.037 134.703 135.032 134.767 135.209 135.035 135.585 136.121 135.715 
136.088 135.739 136.213 135.947 136.517 136.328 136.926 137.268 136.856 
137.219 136.858 137.312 137.016 137.556 137.323 137.898 137.69 138.266 
138.348 137.975 138.309 137.966 138.373 138.08 138.582 138.354 138.931 
138.707 139.29 139.057 139.678 139.383 139.025 139.388 139.045 139.471 
139.141 139.642 139.374 139.98 139.763 140.403 140.153 140.779 140.537 
141.204 140.441 140.077 140.472 140.141 140.62 140.292 140.821 140.5 
141.09 140.837 141.482 141.264 141.892 141.656 142.269 142.059 142.694 
141.469 141.131 141.5 141.205 141.674 141.42 141.958 141.688 142.233 
141.957 142.514 142.292 142.868 142.684 143.255 143.075 143.651 143.48 
144.057 147.716 146.993 146.979 146.375 146.364 146.355 145.883 145.917 
145.701 145.708 145.771 145.385 145.506 145.366 145.527 145.447 144.946 
145.062 144.601 144.862 144.635 145.018 144.846 145.114 144.702 144.156 
144.246 143.661 143.899 143.491 143.965 143.658 144.155 143.657 143.937 
143.224 143.462 143.484 142.877 142.963 142.442 142.731 142.307 142.759 
142.257 142.657 141.99 142.276 141.627 142.891 142.867 142.279 142.267 
141.698 141.787 141.255 141.487 140.942 141.259 140.658 140.989 140.409 
140.761 140.303 142.359 142.335 141.727 141.695 141.062 141.077 140.44 
140.53 139.898 140.078 139.485 139.748 139.223 139.553 139.114 139.512 
139.154 141.795 141.786 141.158 141.122 140.449 140.421 139.73 139.734 
139.053 139.127 138.531 138.71 138.228 138.478 138.058 138.364 137.987 
138.379 138.05 
POINT_DATA 1002
SCALARS Distance double
LOOKUP_TABLE default
137.654 136.808 136.633 137.523 136.531 138.659 137.602 136.611 138.744 
139.968 137.976 136.942 139.135 140.325 141.465 138.564 137.51 139.726 
140.908 141.992 143.038 139.25 138.201 140.361 141.521 142.678 143.783 
144.846 139.927 138.843 141.053 142.184 143.379 144.64 145.799 146.769 
140.535 139.421 141.761 142.991 144.173 145.42 146.676 147.723 148.566 
141.2 140.101 142.447 143.78 145.032 146.197 147.417 148.603 149.602 
150.44 142.049 140.972 143.24 144.527 145.815 146.999 148.194 149.496 
150.735 151.758 152.554 135.838 135.687 134.809 134.653 133.759 135.59 
133.536 132.717 134.553 135.633 132.406 131.7 133.446 134.607 135.924 
131.29 130.767 132.341 133.619 134.933 136.503 130.356 130.188 131.255 
132.681 134.075 135.548 137.223 130.099 130.323 130.543 131.822 133.328 
134.758 136.3 137.891 130.733 131.122 130.71 131.452 132.761 134.177 
135.599 137.059 138.556 131.817 132.134 131.619 131.855 132.661 133.863 
135.202 136.532 137.889 139.381 132.949 132.793 133.82 133.896 134.877 
132.783 135.161 136.171 134.079 133.113 136.552 137.503 135.488 134.505 
133.929 137.987 138.836 137.021 136.047 135.404 135.164 139.561 140.323 
138.714 137.769 137.055 136.69 136.512 141.237 141.878 140.521 139.651 
138.876 138.4 138.064 137.846 142.802 143.319 142.219 141.509 140.814 
140.322 139.919 139.533 139.328 144.196 144.621 143.716 143.179 142.672 
142.306 141.968 141.542 141.171 140.991 142.737 142.932 144.805 143.225 
145.099 147.018 143.646 145.405 147.326 149.199 144.035 145.784 147.59 
149.534 151.199 144.265 146.096 147.899 149.83 151.714 153.164 144.507 
146.271 148.176 150.128 152.171 153.935 155.304 144.88 146.448 148.353 
150.359 152.457 154.456 156.027 157.306 145.302 146.694 148.444 150.41 
152.489 154.577 156.327 157.631 158.804 145.695 146.97 148.516 150.3 
152.249 154.32 156.243 157.694 158.809 159.936 143.964 146.177 145.245 
148.499 147.524 146.557 150.635 149.867 148.864 147.861 152.552 152.029 
151.367 150.363 149.218 154.703 154.226 153.907 153.288 152.142 150.756 
157.089 156.758 156.487 156.125 155.319 153.967 152.309 159.098 159.195 
159.001 158.546 157.856 156.864 155.408 153.565 160.538 161.068 161.174 
160.7 159.819 158.849 157.793 156.323 154.436 161.507 162.358 163.374 
164.323 165.127 162.98 165.975 166.286 164.842 162.9 166.894 166.876 
166.25 164.463 161.993 167.148 167.086 166.764 165.517 163.125 160.659 
166.885 166.7 166.495 165.67 163.88 161.428 159.427 166.014 165.622 
165.804 165.204 164.03 162.014 159.905 158.166 164.669 164.242 164.735 
164.414 163.646 162.121 160.123 158.258 156.442 163.235 162.909 163.373 
163.22 162.684 161.531 159.795 157.962 156.218 154.397 160.326 162.015 
160.933 162.687 161.47 163.87 163.075 161.281 164.303 165.327 162.544 
160.211 164.317 165.333 166.122 161.11 158.839 163.439 164.967 165.726 
166.479 159.45 157.657 161.709 163.816 164.968 165.641 166.394 158.119 
156.731 159.854 161.951 163.643 164.517 165.157 165.667 157.152 155.945 
158.487 160.136 161.9 163.185 163.919 164.379 164.511 156.263 155.131 
157.478 158.814 160.264 161.601 162.589 163.187 163.397 163.261 145.689 
146.927 146.834 148.233 148.003 148.375 149.557 149.164 149.856 150.051 
150.847 150.308 151.375 151.645 151.899 152.032 151.449 152.782 153.247 
153.528 153.942 153.133 152.585 153.948 154.665 155.156 155.667 156.099 
154.212 153.634 154.981 155.834 156.639 157.415 157.898 157.915 155.187 
154.49 155.945 156.841 157.877 158.993 159.716 159.665 159.206 144.234 
145.282 143.832 144.824 143.427 146.397 144.394 143.059 145.94 147.575 
144.091 142.785 145.551 147.195 148.781 143.845 142.532 145.227 146.799 
148.459 149.994 143.477 142.198 144.856 146.331 147.95 149.648 151.198 
143.063 141.91 144.418 145.893 147.341 148.945 150.709 152.286 142.817 
141.801 144.042 145.519 146.921 148.203 149.78 151.564 153.153 142.732 