# vtk DataFile Version 4.0
vtk output
ASCII
DATASET POLYDATA
POINTS 1002 float
-83.315 -84.0859 74.1318 -83.3525 -83.4542 73.0539 -82.8558 -83.2731 73.6183 
-82.8047 -83.998 74.7989 -82.4446 -83.0099 74.4126 -83.2263 -84.8904 75.3946 
-82.3719 -83.8617 75.7273 -82.0293 -82.7998 75.4065 -82.7226 -84.9369 76.1554 
-83.0609 -85.9751 76.7175 -81.9299 -83.8036 76.8003 -81.5604 -82.7279 76.446 
-82.3062 -84.9291 77.2122 -82.576 -86.104 77.6094 -82.8148 -87.224 78.1379 
-81.5239 -83.9012 77.9097 -81.1896 -82.743 77.6012 -81.9002 -85.023 78.3687 
-82.1821 -86.1639 78.8215 -82.3855 -87.3726 79.3109 -82.7228 -88.3737 80.0134 
-81.2453 -84.1067 79.2672 -81.01 -82.923 79.0279 -81.5281 -85.2592 79.5755 
-81.7923 -86.3375 80.0548 -82.0293 -87.516 80.6803 -82.3825 -88.6369 81.4068 
-82.8047 -89.5311 82.1222 -80.9192 -84.3993 80.7749 -80.8528 -83.3063 80.4197 
-81.1335 -85.5011 80.9977 -81.4068 -86.5833 81.3132 -81.6496 -87.8008 81.9336 
-81.9979 -89.045 82.6903 -82.36 -90.108 83.3112 -82.5297 -91.1082 83.6855 
-80.364 -84.7725 81.9183 -80.4676 -83.7141 81.4403 -80.6066 -85.7845 82.3396 
-81.0452 -86.8414 82.685 -81.3227 -88.185 83.2006 -81.5302 -89.675 83.8456 
-81.7657 -90.9594 84.3502 -81.8624 -92.0756 84.6371 -81.8135 -93.1813 84.7944 
-79.7128 -85.2247 82.7102 -79.8626 -84.0927 82.2823 -80.0704 -86.2605 83.3154 
-80.7407 -87.2773 83.8929 -81.1199 -88.6649 84.4474 -81.1349 -90.4214 85.005 
-81.1314 -92.0283 85.4249 -81.1747 -93.3047 85.69 -81.2022 -94.4472 85.896 
-81.2456 -95.4807 86.0725 -79.271 -85.7487 83.5538 -79.3634 -84.5446 83.2169 
-79.7282 -86.8836 84.1622 -80.5119 -87.9019 84.8439 -80.9377 -89.2041 85.4291 
-80.8073 -91.0642 85.9341 -80.5914 -93.017 86.3683 -80.5797 -94.5629 86.73 
-80.7118 -95.7934 87.0644 -80.8968 -96.8828 87.3384 -81.0746 -97.7793 87.4922 
-82.9789 -82.7241 72.3661 -82.517 -82.4063 72.9852 -82.5041 -81.8755 71.6215 
-82.0935 -81.4284 72.3227 -82.0762 -80.8449 70.9422 -82.161 -82.0415 73.9011 
-81.6803 -80.2784 71.851 -81.853 -79.5477 70.6941 -81.7916 -81.065 73.4417 
-81.7505 -81.8434 75.0276 -81.2635 -78.9234 71.8471 -81.6346 -78.1836 70.9228 
-81.3444 -79.9607 73.1805 -81.4014 -80.9438 74.7688 -81.2366 -81.7373 76.1827 
-80.7052 -77.6514 72.1017 -81.3315 -77.0922 71.256 -80.8223 -78.6521 73.1148 
-80.9977 -79.8888 74.5763 -80.7981 -80.8133 76.0528 -80.7907 -81.6779 77.4476 
-80.3913 -76.7078 72.3841 -81.4524 -76.2911 71.6415 -80.3893 -77.4556 73.1636 
-80.7193 -78.656 74.4441 -80.3512 -79.8369 76.0012 -80.145 -80.7882 77.4109 
-80.6395 -81.924 78.8919 -80.8431 -76.0484 72.8917 -82.1871 -75.7677 72.2626 
-80.4258 -76.6145 73.5454 -80.7232 -77.6317 74.6572 -80.2687 -78.8737 76.1983 
-79.5432 -80.0073 77.6173 -79.9934 -81.1161 78.9071 -80.6942 -82.3729 80.2414 
-81.7703 -75.7373 73.675 -83.0196 -75.6756 73.0574 -80.9646 -76.1126 74.3491 
-80.9269 -76.9767 75.3654 -80.5639 -78.1366 76.753 -79.5459 -79.2822 78.0799 
-79.4549 -80.3815 79.2182 -80.3265 -81.5129 80.3437 -80.5203 -82.7396 81.3789 
-82.6026 -75.8232 74.547 -83.5696 -75.9538 73.8968 -81.6764 -75.9419 75.3036 
-81.2196 -76.5734 76.2972 -80.8875 -77.5843 77.4751 -80.0916 -78.6305 78.5583 
-79.5746 -79.6628 79.5447 -80.0328 -80.7377 80.6261 -80.4538 -81.8541 81.6528 
-80.0303 -83.1137 82.4622 -83.4809 -76.2109 75.2384 -82.6209 -76.0338 76.0457 
-83.5171 -76.3829 76.7639 -82.7322 -76.291 77.768 -83.64 -76.6398 78.2904 
-81.7984 -76.2654 77.0681 -82.8587 -76.7219 79.4399 -83.6516 -77.2621 79.6769 
-81.8916 -76.6445 78.9115 -81.2367 -77.0163 78.1782 -82.8964 -77.4753 80.887 
-83.6224 -78.1714 81.0543 -82.0267 -77.1244 80.5122 -81.2957 -77.3623 79.7637 
-80.7221 -77.976 79.0514 -83.003 -78.4979 82.2976 -83.8049 -79.1065 82.5916 
-82.1791 -77.9859 81.9699 -81.5609 -77.9266 81.2165 -81.01 -78.3705 80.3122 
-80.2559 -79.0191 79.8209 -83.2676 -79.6212 83.8473 -84.056 -80.0635 84.1482 
-82.3764 -79.2146 83.5502 -81.7427 -79.0385 82.9883 -81.3674 -79.2648 82.0095 
-80.859 -79.7152 81.2477 -80.2762 -80.204 80.9384 -83.448 -80.8096 85.2666 
-84.1268 -81.1631 85.4113 -82.5993 -80.5052 85.0778 -81.8328 -80.3075 84.7962 
-81.3566 -80.4544 84.0732 -81.0017 -80.8427 83.1609 -80.6285 -81.1452 82.5982 
-80.4214 -81.419 82.1865 -83.469 -82.1425 86.2651 -84.0985 -82.4237 86.3005 
-82.7286 -81.8676 86.1891 -81.9717 -81.557 86.0964 -81.3544 -81.5267 85.6603 
-80.9187 -81.9429 84.8311 -80.5394 -82.3608 84.1406 -80.211 -82.5173 83.6814 
-80.0449 -82.7027 83.1052 -83.4853 -83.5603 86.9995 -84.112 -83.7277 87.0264 
-82.791 -83.3755 86.96 -82.0978 -83.0477 86.9628 -81.4917 -82.8225 86.7157 
-81.076 -83.0885 85.9897 -80.7618 -83.6194 85.2242 -80.3246 -83.9013 84.799 
-79.8088 -83.978 84.4082 -79.4548 -84.1768 83.8091 -79.1971 -85.912 84.4762 
-79.5347 -85.652 85.075 -79.6538 -87.374 85.9611 -80.2199 -85.5461 85.5222 
-80.0825 -87.1809 86.5091 -79.9015 -88.7341 87.3753 -80.8481 -85.5074 85.8041 
-80.6901 -87.2029 86.909 -80.0533 -88.6776 88.0039 -79.4715 -90.4726 88.6313 
-81.0861 -85.1953 86.3684 -81.0051 -87.3214 87.3511 -80.322 -88.9321 88.5949 
-79.482 -90.7085 89.4392 -79.2587 -93.2429 89.9446 -81.223 -84.7048 87.2588 
-81.0222 -87.0671 88.1273 -80.5604 -89.1577 89.1933 -79.8639 -91.1165 90.006 
-79.5328 -93.6305 90.6041 -79.6433 -96.5709 91.2018 -81.649 -84.5705 87.8037 
-81.2471 -86.5531 88.8673 -80.8783 -88.7766 89.8276 -80.4773 -91.1914 90.3349 
-80.1863 -93.9383 90.7383 -80.0828 -96.7675 91.4316 -79.8837 -99.4851 92.1576 
-82.3077 -84.7882 87.8266 -81.8162 -86.3375 89.0335 -81.3791 -88.1443 90.1765 
-81.0447 -90.611 90.6907 -80.8027 -93.769 90.8408 -80.6364 -96.8359 91.3449 
-80.3377 -99.409 92.2143 -79.7838 -101.904 92.8918 -83.0436 -84.9379 87.7884 
-82.54 -86.3593 88.8971 -81.9992 -87.8611 90.1008 -81.5235 -89.967 90.8993 
-81.1632 -93.0444 91.244 -80.945 -96.4048 91.603 -80.741 -99.1951 92.2678 
-80.2814 -101.629 93.0113 -79.6257 -104.194 93.4128 -83.7659 -84.961 87.8447 
-83.3122 -86.2977 88.8741 -82.7265 -87.7456 89.9625 -82.1058 -89.6401 90.8162 
-81.5675 -92.3087 91.4509 -81.1865 -95.471 92.0454 -80.9702 -98.46 92.6144 
-80.6813 -101.101 93.1462 -80.1215 -103.712 93.541 -79.4699 -106.356 93.6023 
-79.4965 -87.2155 84.9977 -79.9703 -88.6547 86.5206 -80.2041 -88.3733 85.6485 
-79.7794 -90.2103 87.744 -80.2194 -89.9341 86.9493 -80.6402 -89.5942 86.1922 
-79.3473 -92.7601 88.9645 -79.5938 -92.1466 88.0266 -79.9451 -91.7013 87.2506 
-80.4025 -91.4529 86.6014 -79.526 -96.409 90.4993 -79.4616 -95.7288 89.5088 
-79.3521 -94.8355 88.4978 -79.5325 -94.2827 87.647 -80.0455 -93.8175 87.039 
-79.687 -99.9213 91.8303 -79.6825 -99.8573 91.1486 -79.5461 -98.9957 90.2352 
-79.3969 -97.8806 89.142 -79.6073 -96.9173 88.2355 -80.0708 -95.8603 87.5637 
-79.3981 -102.719 92.6478 -79.348 -103.265 92.1288 -79.4724 -102.965 91.5261 
-79.5385 -101.811 90.6948 -79.6944 -100.323 89.6854 -80.0129 -98.8433 88.8865 
-80.3526 -97.3497 88.1141 -79.1408 -105.245 93.1347 -78.9086 -106.044 92.5368 
-78.9601 -106.144 91.919 -79.1425 -105.356 91.388 -79.462 -103.851 90.7142 
-79.9424 -102.038 90.0176 -80.3878 -100.282 89.404 -80.6733 -98.5866 88.5416 
-79.029 -107.629 93.3111 -78.7764 -108.585 92.695 -78.699 -108.892 91.934 
-78.7139 -108.459 91.3496 -78.9176 -107.311 90.9399 -79.4319 -105.514 90.5388 
-80.0934 -103.477 90.1441 -80.6247 -101.538 89.6186 -80.918 -99.6394 88.7152 
-79.0294 -109.252 93.2991 -78.6989 -110.604 92.7697 -78.6811 -111.855 92.6085 
-78.2368 -113.141 91.9361 -78.3936 -113.832 91.8327 -78.5399 -111.372 91.9942 
-77.4752 -115.173 91.1338 -78.1857 -115.339 91.1883 -77.8527 -113.86 91.1059 
-78.4283 -111.418 91.1852 -76.9642 -116.73 90.3568 -78.388 -116.318 90.5304 
-76.8107 -115.99 90.1656 -77.7672 -113.904 90.2944 -78.4769 -110.76 90.6723 
-77.5465 -117.24 89.4697 -79.1985 -116.257 89.8378 -76.576 -117.1 89.1714 
-77.2246 -115.629 89.3656 -78.3013 -112.832 89.9845 -78.8981 -109.171 90.4719 
-78.9876 -116.271 88.8375 -80.2387 -114.988 89.4138 -77.7379 -116.542 88.4528 
-77.6323 -115.573 88.6571 -78.4536 -113.51 89.4209 -79.088 -110.437 90.0746 
-79.575 -106.827 90.3024 -80.3757 -114.265 88.7184 -81.1542 -113.003 89.276 
-79.3865 -114.796 88.363 -78.7775 -114.174 88.4788 -78.935 -112.664 89.0979 
-79.3194 -110.486 89.7039 -79.7259 -107.585 89.9649 -80.2716 -104.402 89.9679 
-81.419 -111.998 88.7956 -81.9763 -110.926 89.1867 -80.6984 -112.701 88.5826 
-79.938 -112.525 88.6348 -79.5537 -111.459 88.9662 -79.5736 -109.843 89.3366 
-79.8436 -107.623 89.509 -80.364 -104.856 89.5344 -80.8196 -102.075 89.3322 
-82.2761 -109.866 88.8247 -82.7506 -109.007 89.0858 -81.6793 -110.58 88.7072 
-80.9237 -110.773 88.7266 -80.2938 -110.183 88.8478 -80.0612 -108.945 89.0013 
-80.179 -107.126 89.0762 -80.5491 -104.713 89.0437 -80.9591 -102.115 88.8401 
-81.1227 -99.7829 88.3112 -79.7329 -106.656 93.6809 -79.3452 -109.49 93.346 
-80.2095 -106.604 93.7838 -80.0605 -109.24 93.5315 -80.9271 -106.071 93.8865 
-79.219 -111.812 92.6866 -80.9372 -108.403 93.7052 -81.6579 -104.959 93.7628 
-80.1616 -111.181 92.9443 -79.3063 -113.431 91.9202 -81.6497 -106.933 93.588 
-82.3437 -103.363 93.4479 -80.9656 -109.974 93.147 -80.277 -112.4 92.0829 
-79.4487 -114.555 91.1989 -82.3953 -105.023 93.3584 -83.1348 -101.494 93.1083 
-81.6747 -108.251 93.1994 -80.9547 -110.82 92.3329 -80.3416 -113.055 91.2576 
-79.7916 -115.004 90.574 -83.2225 -102.828 93.0266 -83.9106 -99.4371 92.533 
-82.6114 -106.14 93.1788 -81.9119 -108.803 92.6872 -81.1335 -111.019 91.6397 
-80.6665 -112.986 90.7921 -80.4378 -114.418 90.1804 -83.9064 -100.407 92.291 
-84.602 -97.3674 91.695 -83.3961 -103.659 92.7593 -82.965 -106.413 92.765 
-82.2781 -108.629 92.0749 -81.6179 -110.592 91.2333 -81.3244 -112.122 90.6569 
-81.206 -112.927 90.0127 -84.6689 -98.059 91.4155 -85.4077 -95.585 90.9716 
-84.0321 -100.992 91.9362 -83.6249 -103.738 92.3052 -83.1788 -105.99 92.0917 
-82.6483 -107.967 91.4693 -82.3185 -109.639 90.9958 -82.1429 -110.687 90.537 
-82.0054 -111.047 89.8409 -85.7007 -96.0994 90.7887 -86.3329 -94.1985 90.4653 
-84.9901 -98.5248 91.2055 -84.3962 -101.054 91.6783 -83.8949 -103.273 91.8204 
[...]
CELL_DATA 2000
SCALARS Distance double
LOOKUP_TABLE default
138.014 137.984 138.323 139.036 138.1 138.383 139.137 139.452 140.243 
138.335 138.589 139.396 139.661 140.492 140.76 141.597 138.706 138.914 
139.79 140.019 140.911 141.119 142.01 142.221 143.148 139.357 139.441 
140.374 140.515 141.451 141.618 142.572 142.755 143.771 143.953 144.99 
140.212 140.227 141.133 141.194 142.103 142.218 143.193 143.379 144.457 
144.665 145.744 145.887 146.843 140.908 141.002 141.811 141.926 142.799 
142.914 143.904 144.067 145.192 145.395 146.513 146.653 147.613 147.659 
148.467 141.352 141.51 142.301 142.507 143.455 143.631 144.706 144.864 
146.044 146.209 147.378 147.479 148.507 148.5 149.409 149.33 150.196 
141.837 141.938 142.832 143.035 144.129 144.342 145.498 145.687 146.854 
147.055 148.213 148.372 149.453 149.488 150.506 150.434 151.444 151.285 
152.264 137.363 136.273 136.974 137.287 135.069 135.828 136.196 136.953 
137.368 133.917 134.626 135.055 135.866 136.364 137.109 137.588 132.947 
133.533 133.954 134.767 135.367 136.152 136.673 137.363 137.904 132.145 
132.594 132.914 133.689 134.317 135.182 135.765 136.47 136.988 137.731 
138.45 131.675 131.869 132.094 132.691 133.315 134.168 134.834 135.568 
136.101 136.817 137.534 138.424 139.315 131.835 131.671 131.872 132.101 
132.762 133.38 134.19 134.792 135.415 135.991 136.718 137.545 138.496 
139.376 140.179 132.57 132.164 132.364 132.234 132.885 133.184 134.099 
134.488 135.216 135.541 136.248 136.848 137.81 138.631 139.521 140.188 
140.758 133.534 133.083 133.273 132.958 133.492 133.549 134.398 134.65 
135.404 135.581 136.213 136.554 137.418 138.074 139.018 139.645 140.308 
140.755 141.247 134.129 135.05 134.347 133.941 136.128 135.386 135.073 
134.332 134.198 137.293 136.564 136.333 135.583 135.498 134.854 134.998 
138.527 137.796 137.608 136.873 136.745 136.119 136.165 135.688 135.841 
139.947 139.134 138.992 138.198 138.083 137.364 137.359 136.786 136.907 
136.44 136.634 141.549 140.69 140.618 139.733 139.724 138.867 138.957 
138.167 138.374 137.688 138.016 137.43 137.872 143.082 142.32 142.303 
141.46 141.498 140.646 140.786 139.952 140.184 139.395 139.726 139.033 
139.458 138.883 139.374 144.406 143.774 143.791 143.082 143.105 142.364 
142.435 141.708 141.851 141.161 141.383 140.736 141.01 140.425 140.714 
140.236 140.545 145.62 145.048 145.109 144.484 144.534 143.863 143.915 
143.227 143.329 142.679 142.882 142.276 142.536 141.917 142.146 141.529 
141.736 141.229 141.484 142.273 142.605 142.886 143.977 143.1 143.351 
144.444 144.789 145.919 143.531 143.865 144.995 145.322 146.4 146.653 
147.619 143.843 144.234 145.42 145.848 146.977 147.202 148.184 148.348 
149.513 144.229 144.542 145.727 146.216 147.458 147.792 148.869 149.036 
150.242 150.555 152.131 144.768 144.981 146.083 146.517 147.761 148.214 
149.372 149.694 150.896 151.278 152.753 153.293 154.874 145.335 145.518 
146.51 146.862 147.981 148.446 149.572 150.046 151.233 151.763 153.141 
153.75 155.2 155.784 157.099 145.861 146.038 146.948 147.237 148.229 
148.619 149.649 150.137 151.284 151.907 153.245 153.95 155.341 155.983 
157.254 157.786 158.919 146.343 146.522 147.385 147.633 148.548 148.854 
149.797 150.202 151.272 151.868 153.143 153.897 155.246 155.985 157.223 
157.851 158.952 159.488 160.485 142.5 144.265 143.402 143.632 146.195 
145.353 145.592 144.734 145.027 147.827 147.136 147.351 146.649 146.895 
146.131 146.389 149.812 148.854 149.097 148.283 148.519 147.831 148.105 
147.425 147.703 152.682 151.405 151.868 150.516 150.854 149.669 150.025 
149.146 149.559 148.794 149.104 155.545 154.515 155.202 153.83 154.326 
152.701 153.07 151.579 152.009 150.867 151.275 150.277 150.467 157.728 
157.084 157.794 156.94 157.497 156.252 156.558 155.001 155.204 153.703 
153.964 152.679 152.876 151.663 151.666 159.529 159.026 159.708 159.119 
159.652 158.881 159.161 158.081 158.117 156.796 156.783 155.453 155.509 
154.218 154.211 152.873 152.722 161.112 160.727 161.412 160.896 161.4 
160.743 161.021 160.208 160.274 159.261 159.183 158.026 157.942 156.756 
156.688 155.436 155.259 153.884 153.584 162.102 163.514 162.759 162.456 
164.517 164.007 163.761 162.964 162.424 165.171 164.812 164.6 164.057 
163.556 162.721 161.974 165.647 165.348 165.1 164.709 164.308 163.698 
163.009 162.122 161.234 165.824 165.679 165.337 165.056 164.66 164.303 
163.772 163.091 162.227 161.259 160.219 165.496 165.604 165.194 165.071 
164.549 164.418 163.92 163.631 162.864 162.142 161.055 160.1 158.98 
164.697 165.022 164.653 164.715 164.13 164.086 163.491 163.456 162.746 
162.442 161.408 160.741 159.577 158.769 157.665 163.681 164.094 163.826 
164.059 163.574 163.584 162.952 162.906 162.201 162.077 161.162 160.796 
159.684 159.131 157.991 157.331 156.179 162.68 163.077 162.863 163.199 
162.827 162.97 162.379 162.354 161.63 161.524 160.672 160.434 159.401 
159.016 157.872 157.398 156.203 155.642 154.422 162.073 162.395 162.694 
163.477 162.598 162.988 163.775 163.965 164.51 162.47 163.096 163.919 
164.208 164.727 164.839 165.204 161.815 162.72 163.584 164.157 164.636 
164.917 165.245 165.42 165.685 160.871 161.875 162.772 163.577 164.083 
164.57 164.81 165.204 165.444 165.75 165.857 159.748 160.827 161.742 
162.683 163.298 163.893 164.127 164.556 164.714 165.207 165.338 165.681 
165.539 158.344 159.497 160.34 161.506 162.182 163.031 163.311 163.81 
163.889 164.362 164.461 164.943 164.876 165.129 164.758 156.998 157.977 
158.675 159.884 160.542 161.672 162.01 162.798 162.841 163.432 163.462 
164.018 163.998 164.374 164.095 164.227 163.752 156.096 156.762 157.333 
158.267 158.892 159.958 160.395 161.316 161.442 162.179 162.201 162.893 
162.912 163.462 163.293 163.552 163.151 163.221 162.752 146.852 147.983 
147.588 147.941 149.123 148.765 149.173 148.744 149.102 150.256 149.906 
150.355 149.98 150.384 149.936 150.325 151.443 151.053 151.507 151.158 
151.659 151.26 151.769 151.281 151.825 152.586 152.229 152.685 152.352 
152.958 152.612 153.298 152.852 153.559 153.018 153.741 153.525 153.29 
153.814 153.567 154.289 154.013 154.84 154.47 155.299 154.834 155.641 
155.09 155.84 154.293 154.163 154.805 154.692 155.552 155.397 156.336 
156.055 156.959 156.573 157.428 156.961 157.736 157.165 157.81 154.972 
154.917 155.642 155.66 156.63 156.634 157.669 157.525 158.509 158.223 
159.155 158.746 159.572 159.027 159.693 159.045 159.56 155.576 155.578 
156.332 156.452 157.483 157.643 158.754 158.775 159.814 159.691 160.688 
160.437 161.315 160.858 161.515 160.893 161.385 160.698 161.088 146.414 
146.062 146.648 147.481 145.686 146.279 147.112 147.727 148.587 145.364 
145.927 146.763 147.356 148.234 148.849 149.735 145.099 145.638 146.46 
147.023 147.882 148.5 149.453 150.072 150.983 144.851 145.373 146.165 
146.714 147.506 148.112 149.025 149.748 150.744 151.36 152.177 144.634 
145.125 145.909 146.427 147.183 147.714 148.501 149.207 150.159 150.973 
151.87 152.458 153.102 144.425 144.906 145.681 146.194 146.969 147.441 
148.159 148.688 149.488 150.252 151.159 151.962 152.72 153.272 153.825 
144.168 144.654 145.375 145.921 146.688 147.224 147.957 148.421 149.112 
149.649 150.429 151.174 152.009 152.751 153.434 153.955 154.479 143.915 
144.361 145.014 145.542 146.242 146.842 147.583 148.163 148.861 149.346 
149.998 150.543 151.277 151.997 152.765 153.459 154.085 154.584 155.076 
144.017 144.543 144.53 145.079 145.096 145.068 145.602 145.627 146.262 
145.707 145.64 146.194 146.184 146.847 146.9 147.621 146.482 146.325 
146.908 146.844 147.553 147.567 148.342 148.344 149.003 147.303 147.142 
147.693 147.615 148.342 148.344 149.143 149.127 149.805 149.68 150.19 
147.913 147.872 148.418 148.399 149.153 149.173 150.004 149.971 150.662 
150.512 151.048 150.851 151.393 148.366 148.412 149.088 149.134 150.005 
150.042 150.957 150.898 151.635 151.432 152.002 151.768 152.357 152.18 
152.832 148.899 148.95 149.783 149.875 150.862 150.945 151.908 151.882 
152.634 152.446 153.022 152.781 153.375 153.184 153.825 153.65 154.21 
149.549 149.597 150.467 150.603 151.573 151.74 152.635 152.719 153.401 
153.341 153.886 153.755 154.335 154.196 154.811 154.63 155.144 154.898 
155.267 150.185 151.43 150.908 151.144 152.638 152.161 152.448 151.952 
152.246 153.96 153.431 153.736 153.229 153.509 153.022 153.245 155.475 
154.903 155.263 154.625 154.853 154.243 154.385 153.872 153.945 157.02 
156.494 156.957 156.298 156.569 155.762 155.856 155.089 155.141 154.511 
154.511 158.565 158.062 158.578 157.998 158.354 157.584 157.727 156.806 
156.859 155.963 155.999 155.179 155.134 160.077 159.624 160.141 159.598 
159.948 159.283 159.434 158.647 158.678 157.811 157.772 156.857 156.733 
155.83 155.645 161.31 161.023 161.535 161.107 161.427 160.81 160.897 
160.184 160.162 159.442 159.342 158.539 158.277 157.386 157.025 156.187 
155.865 162.183 162.05 162.55 162.323 162.666 162.198 162.276 161.591 
161.536 160.819 160.748 159.99 159.763 158.853 158.418 157.481 157.02 
156.244 155.888 149.915 149.958 150.33 151.12 149.993 150.374 151.148 
151.524 152.309 149.921 150.357 151.123 151.534 152.316 152.715 153.572 
149.666 150.184 150.926 151.43 152.223 152.698 153.568 154.043 155.003 
149.223 149.817 150.547 151.138 151.954 152.536 153.443 154 154.973 
155.501 156.498 148.699 149.314 150.073 150.712 151.565 152.217 153.154 
153.798 154.795 155.413 156.445 157.003 158.028 148.242 148.806 149.567 
150.22 151.093 151.801 152.737 153.439 154.413 155.125 156.179 156.883 
157.964 158.552 159.542 147.882 148.382 149.069 149.691 150.518 151.269 
152.199 152.96 153.901 154.652 155.676 156.492 157.616 158.385 159.418 
159.987 160.81 147.549 148.011 148.614 149.173 149.922 150.645 151.564 
152.367 153.328 154.1 155.092 155.918 157.036 157.92 159.023 159.753 
160.622 161.11 161.743 149.164 148.275 148.84 149.22 147.777 148.102 
148.35 148.902 149.26 147.304 147.674 147.777 148.127 148.318 148.898 
149.195 146.207 146.946 147.039 147.5 147.505 147.971 148.113 148.757 
148.965 144.631 145.543 145.708 146.465 146.457 147.035 147.022 147.633 
147.73 148.418 148.524 143.21 143.99 144.171 144.977 145.07 145.792 
145.801 146.452 146.463 147.129 147.181 147.888 147.973 141.94 142.671 
142.82 143.54 143.652 144.376 144.467 145.17 145.22 145.862 145.887 
146.539 146.63 147.356 147.519 140.649 141.387 141.545 142.248 142.322 
143.006 143.076 143.812 143.92 144.626 144.694 145.313 145.396 146.06 
146.255 146.988 147.212 139.518 140.157 140.355 141.006 141.093 141.707 
141.721 142.405 142.501 143.28 143.429 144.138 144.255 144.893 145.063 
145.761 146.01 146.728 146.936 139.05 138.546 139.165 139.832 137.813 
138.578 139.262 139.897 140.508 137.051 137.807 138.562 139.252 139.856 
140.477 141.076 136.664 137.199 137.995 138.601 139.284 139.849 140.491 
141.098 141.84 136.656 137.005 137.763 138.218 138.975 139.434 140.163 
140.656 141.454 142.031 142.843 136.778 137.053 137.762 138.122 138.89 
139.288 140.07 140.487 141.297 141.773 142.585 143.077 143.78 137.018 
137.214 137.912 138.185 138.93 139.276 140.053 140.45 141.245 141.677 
142.459 142.891 143.611 144.007 144.651 137.401 137.531 138.223 138.408 
139.127 139.376 140.12 140.452 141.233 141.63 142.413 142.811 143.545 
143.913 144.606 144.948 145.609 137.836 137.945 138.619 138.767 139.47 
139.645 140.361 140.587 141.345 141.66 142.45 142.806 143.555 143.897 
144.589 144.931 145.593 145.929 146.538 138.295 139.317 138.886 139.1 
140.516 140.005 140.234 139.76 139.982 141.842 141.277 141.518 140.986 
141.21 140.68 140.884 143.354 142.672 142.913 142.325 142.565 141.983 
142.186 141.618 141.853 145.166 144.336 144.561 143.821 144.065 143.397 
143.613 142.984 143.207 142.644 142.926 146.992 146.212 146.445 145.624 
145.862 145.042 145.24 144.479 144.662 144.02 144.247 143.717 143.989 
148.562 147.903 148.146 147.467 147.732 146.947 147.142 146.255 146.371 
145.54 145.679 145.028 145.241 144.732 144.991 150.221 149.451 149.671 
149.025 149.305 148.69 148.941 148.179 148.3 147.38 147.432 146.561 
146.677 146.008 146.225 145.717 145.978 152.246 151.293 151.477 150.625 
150.847 150.172 150.432 149.817 150.011 149.258 149.321 148.415 148.428 
147.561 147.651 146.984 147.178 146.68 146.905 147.527 147.861 147.984 
148.61 148.455 148.471 149.202 149.217 149.971 149.343 149.28 150.121 
150.027 150.874 150.802 151.672 150.223 150.231 151.107 151.059 151.945 
151.854 152.749 152.639 153.493 150.855 151.003 151.883 151.977 152.901 
152.916 153.856 153.78 154.685 154.506 155.335 151.344 151.572 152.591 
152.753 153.848 153.901 155.001 154.939 155.997 155.817 156.793 156.487 
157.364 151.936 152.173 153.431 153.621 154.971 155.037 156.342 156.252 
157.457 157.261 158.365 158.073 159.026 158.62 159.397 152.723 152.961 
154.375 154.608 156.073 156.248 157.628 157.657 158.865 158.755 159.823 
159.629 160.541 160.23 160.916 160.489 160.983 153.556 153.849 155.275 
155.564 156.962 157.241 158.533 158.748 159.853 159.942 160.866 160.859 
161.647 161.525 162.115 161.818 162.193 161.787 162.058 133.517 132.593 
133.089 133.135 131.873 132.226 132.266 132.678 132.726 131.687 131.721 
131.706 131.897 131.897 132.313 132.506 132.095 131.831 131.76 131.599 
131.522 131.627 131.768 132.23 132.637 132.832 132.428 132.388 131.983 
131.909 131.608 131.697 131.752 132.172 132.594 133.27 133.765 133.266 
133.312 132.838 132.902 132.378 132.484 132.104 132.475 132.487 133.227 
133.587 134.519 134.913 134.318 134.402 133.896 134.089 133.571 133.762 
133.201 133.481 133.135 133.77 133.85 134.807 135.117 136.055 136.135 
135.534 135.596 135.059 135.249 134.785 135.03 134.527 134.768 134.284 
134.737 134.569 135.398 135.556 136.482 136.672 137.391 137.249 136.722 
136.765 136.24 136.364 135.909 136.128 135.713 135.965 135.524 135.873 
135.57 136.213 136.208 137.052 137.168 137.898 137.931 138.465 134.077 
133.655 134.169 134.779 133.276 133.748 134.385 134.901 135.583 133.154 
133.511 134.216 134.618 135.357 135.806 136.534 133.314 133.556 134.312 
134.615 135.375 135.715 136.471 136.841 137.56 133.881 133.884 134.618 
134.806 135.549 135.816 136.561 136.877 137.64 137.953 138.696 135.031 
134.71 135.37 135.276 135.971 136.057 136.777 137.014 137.807 138.116 
138.922 139.188 139.936 136.417 135.99 136.525 136.225 136.817 136.657 
137.298 137.331 138.089 138.328 139.159 139.444 140.196 140.422 141.077 
137.583 137.226 137.619 137.344 137.832 137.605 138.147 138.001 138.65 
138.706 139.485 139.699 140.453 140.665 141.296 141.483 142.056 138.563 
138.222 138.547 138.301 138.767 138.572 139.105 138.908 139.487 139.376 
140.06 140.113 140.841 140.965 141.61 141.729 142.295 142.436 142.981 
134.474 135.242 135.03 135.387 136.052 135.832 136.226 135.994 136.398 
136.946 136.687 137.072 136.832 137.218 137.017 137.475 137.918 137.611 
137.998 137.719 138.108 137.848 138.297 138.125 138.675 139.02 138.635 
139.067 138.738 139.212 138.862 139.349 139.045 139.63 139.432 140.098 
140.235 139.811 140.262 139.904 140.459 140.096 140.639 140.242 140.802 
140.495 141.16 140.961 141.669 141.372 141.016 141.446 141.116 141.642 
141.343 141.876 141.534 142.019 141.684 142.233 142.017 142.664 142.516 
143.158 142.358 142.081 142.51 142.231 142.699 142.439 142.92 142.655 
143.104 142.81 143.272 143.03 143.586 143.437 144.038 143.907 144.463 
143.273 143.03 143.478 143.235 143.696 143.438 143.895 143.636 144.101 
143.834 144.31 144.042 144.558 144.344 144.91 144.752 145.312 145.154 
145.669 148.922 148.319 148.389 148.065 147.903 147.907 147.648 147.737 
147.621 147.534 147.571 147.293 147.367 147.167 147.332 147.119 146.882 
147.073 146.69 146.873 146.464 146.684 146.228 146.497 145.944 145.969 
146.208 145.714 146.005 145.47 145.746 145.126 145.388 144.725 145.011 
144.363 145.171 145.276 144.733 144.933 144.398 144.645 144.066 144.271 
143.646 143.838 143.252 143.492 142.979 144.569 144.576 144.014 144.065 
143.513 143.646 143.099 143.272 142.702 142.87 142.294 142.484 141.937 
142.193 141.693 143.997 143.994 143.401 143.413 142.801 142.85 142.226 
142.342 141.724 141.911 141.3 141.515 140.893 141.126 140.534 140.846 
140.354 143.45 143.415 142.806 142.794 142.165 142.16 141.48 141.498 
140.805 140.915 140.281 140.479 139.883 140.082 139.5 139.719 139.232 
139.556 139.212 
POINT_DATA 1002
SCALARS Distance double
LOOKUP_TABLE default
138.669 137.741 137.633 138.668 137.654 139.774 138.831 137.819 139.915 
141.044 139.121 138.069 140.241 141.323 142.429 139.555 138.5 140.698 
141.797 142.915 144.104 140.273 139.301 141.297 142.363 143.559 144.844 
146.026 141.112 140.226 142.017 142.999 144.22 145.596 146.795 147.712 
141.673 140.83 142.653 143.73 144.988 146.373 147.574 148.475 149.221 
142.033 141.198 143.2 144.514 145.879 147.273 148.496 149.459 150.302 
151.072 142.59 141.729 143.875 145.313 146.67 148.021 149.355 150.517 
151.548 152.488 153.236 136.716 136.575 135.529 135.384 134.297 136.632 
134.2 133.259 135.584 136.879 133.145 132.443 134.522 135.998 137.146 
132.199 131.799 133.404 135.032 136.271 137.552 131.614 131.618 132.472 
134.072 135.406 136.632 138.422 131.787 132.107 132.218 133.598 134.906 
135.941 137.583 139.484 132.606 133.002 132.702 133.739 134.967 135.784 
137.022 138.828 140.252 133.646 133.958 133.569 134.209 135.252 136 
136.861 138.372 139.855 140.82 134.787 134.611 135.756 135.795 136.836 
134.819 137.067 137.98 136.141 135.538 138.345 139.261 137.415 136.681 
136.279 139.799 140.783 138.837 138 137.4 137.045 141.49 142.376 
140.568 139.77 139.104 138.621 138.385 143.098 143.775 142.325 141.606 
140.987 140.466 140.096 139.895 144.452 144.993 143.827 143.165 142.537 
142.034 141.652 141.287 140.963 145.701 146.169 145.178 144.601 143.983 
143.469 143.145 142.814 142.341 141.909 143.185 143.568 145.179 144.147 
145.621 146.961 144.638 146.202 147.381 148.521 144.92 146.707 148.029 
149.15 150.876 145.24 147.026 148.649 149.936 151.648 153.877 145.725 
147.29 148.972 150.502 152.257 154.361 156.391 146.232 147.577 149.08 
150.669 152.538 154.639 156.607 158.307 146.708 147.908 149.205 150.667 
152.526 154.683 156.71 158.452 160.005 147.162 148.288 149.454 150.738 
152.42 154.494 156.57 158.397 160.014 161.445 144.434 146.448 145.895 
148.002 147.605 147.186 150.047 149.249 148.71 148.426 153.303 152.265 
151.061 150.317 149.946 156.376 155.936 154.789 153.373 152.349 151.539 
158.496 158.523 158.043 156.853 155.395 154.155 152.941 160.288 160.354 
160.091 159.36 158.149 156.816 155.563 154.136 161.9 162.061 161.797 
161.185 160.288 159.125 157.898 156.613 155.033 162.971 163.417 164.163 
164.452 164.942 163.424 165.05 165.528 164.305 162.951 165.475 165.944 
164.781 163.849 162.242 165.624 165.91 164.915 164.288 163.194 161.261 
165.284 165.299 164.678 164.058 163.426 161.987 159.931 164.493 164.306 
164.192 163.53 162.898 161.928 160.321 158.492 163.491 163.253 163.502 
163.037 162.3 161.415 160.151 158.592 156.897 162.492 162.299 162.611 
162.376 161.731 160.865 159.746 158.317 156.717 155.002 161.816 163.308 
162.075 163.594 162.141 164.434 163.568 161.714 164.607 165.149 162.891 
160.855 164.306 165.005 165.591 161.895 159.878 163.545 164.409 165.025 
165.723 160.721 158.659 162.624 163.738 164.245 164.88 165.417 159.124 
157.259 161.187 162.745 163.462 163.972 164.541 164.678 157.56 156.184 
159.353 161.096 162.198 162.873 163.552 163.912 163.705 156.551 155.559 
157.899 159.436 160.663 161.476 162.264 162.93 163.046 162.712 147.227 
148.378 148.345 149.576 149.451 149.569 150.696 150.625 150.799 150.79 
151.843 151.865 151.988 152.2 152.325 152.986 152.912 153.235 153.662 
154.043 154.32 153.978 153.691 154.49 155.153 155.714 156.148 156.463 
154.828 154.367 155.618 156.557 157.306 157.866 158.281 158.471 155.563 
154.994 156.543 157.738 158.723 159.507 160.105 160.342 160.277 145.848 
146.872 145.467 146.499 145.096 147.967 146.19 144.811 147.604 149.133 
145.916 144.575 147.278 148.768 150.462 145.631 144.35 146.951 148.295 
150.018 151.757 145.397 144.16 146.702 147.899 149.314 151.149 152.709 
145.164 143.954 146.486 147.726 148.856 150.299 152.035 153.422 144.846 
143.706 146.118 147.465 148.687 149.798 151.195 152.802 154.081 144.534 