# vtk DataFile Version 4.0
vtk output
ASCII
DATASET POLYDATA
POINTS 1002 float
-84.8439 -84.6001 72.1607 -84.7868 -83.8844 70.9085 -84.4958 -83.5103 71.7529 
-84.4716 -84.3772 73.0334 -84.1267 -83.2767 72.6342 -84.8858 -85.3453 73.5546 
-84.1058 -84.3127 74.0457 -83.6924 -83.2987 73.6273 -84.5594 -85.2668 74.5658 
-84.9574 -86.1812 75.096 -83.6835 -84.4845 75.2289 -83.1697 -83.5498 74.7205 
-84.2638 -85.3452 75.815 -84.7479 -86.2395 76.3403 -85.0214 -87.3917 76.8315 
-83.1576 -84.7524 76.3543 -82.6499 -83.8142 75.7747 -83.8068 -85.6505 77.0763 
-84.4238 -86.4751 77.7386 -84.7984 -87.6023 78.2484 -84.9813 -88.9127 78.7343 
-82.7219 -84.9557 77.4217 -82.3184 -84.0145 76.9583 -83.2613 -86.0662 78.1339 
-83.8735 -87.0064 78.9337 -84.3526 -87.9934 79.6325 -84.6393 -89.2496 80.1689 
-84.8234 -90.4123 80.621 -82.5287 -85.2647 78.8306 -82.2086 -84.3341 78.5258 
-82.874 -86.5219 79.3771 -83.3378 -87.7178 80.059 -83.8011 -88.6938 80.7897 
-84.1576 -89.8087 81.4714 -84.3962 -91.0311 81.9692 -84.5639 -92.0892 82.2904 
-82.4767 -85.8137 80.4525 -82.2441 -84.8257 80.1908 -82.6074 -87.101 80.9181 
-82.8686 -88.431 81.462 -83.2635 -89.5244 81.9739 -83.6145 -90.6335 82.5533 
-83.9018 -91.9126 83.1583 -84.12 -93.1121 83.5647 -84.2738 -94.1079 83.7392 
-82.421 -86.4158 81.8072 -82.3207 -85.3531 81.5595 -82.3414 -87.7265 82.2275 
-82.3731 -89.1033 82.7711 -82.6771 -90.2961 83.2148 -83.0016 -91.4871 83.566 
-83.2676 -92.8736 84.0557 -83.5992 -94.2046 84.6236 -83.8979 -95.2723 84.9805 
-84.0722 -96.1292 85.0726 -82.2823 -86.932 82.8969 -82.3138 -85.8434 82.6512 
-82.0801 -88.2658 83.24 -81.9555 -89.7253 83.7321 -82.1674 -91.0444 84.2441 
-82.4937 -92.2881 84.5963 -82.6725 -93.7139 84.8848 -82.941 -95.164 85.3473 
-83.4038 -96.3471 85.8868 -83.777 -97.2792 86.2053 -83.9425 -98.063 86.2578 
-84.5786 -82.9356 70.2902 -84.271 -82.5161 71.2127 -84.2908 -82.0625 69.7253 
-83.8301 -81.735 70.6879 -83.731 -81.2841 69.1042 -83.8351 -82.2951 72.1518 
-83.056 -81.0587 70.0583 -83.0328 -80.3415 68.5137 -83.2503 -81.5515 71.6662 
-83.2852 -82.3516 73.1568 -82.3688 -80.0789 69.5131 -82.6909 -79.1658 68.3382 
-82.402 -80.8109 71.081 -82.602 -81.5257 72.6777 -82.6756 -82.6464 74.2343 
-82.2953 -78.7694 69.4911 -82.8646 -77.9658 68.7272 -81.9033 -79.6909 70.6949 
-81.8674 -80.5164 72.226 -82.0635 -81.674 73.837 -82.194 -82.9707 75.4026 
-82.6329 -77.42 70.0419 -83.2223 -76.8913 69.4005 -82.061 -78.3183 70.9283 
-81.6772 -79.1925 72.1949 -81.6703 -80.3332 73.7171 -81.7869 -81.901 75.2976 
-81.9202 -83.2444 76.8952 -82.9417 -76.2968 70.8474 -83.5732 -76.1454 70.1411 
-82.3959 -77.0211 71.6894 -81.9622 -77.9583 72.7788 -81.7916 -78.9472 74.0898 
-81.7098 -80.456 75.5252 -81.6122 -82.1914 77.0846 -81.8169 -83.586 78.7029 
-83.2572 -75.6925 71.7238 -83.9843 -75.9047 70.9588 -82.6717 -76.0581 72.6241 
-82.2492 -77.0255 73.6636 -82.0878 -78.0771 74.7995 -81.9769 -79.2842 75.998 
-81.6572 -80.9188 77.3702 -81.5392 -82.5965 78.9246 -81.9137 -84.0319 80.3868 
-83.7363 -75.672 72.6393 -84.4821 -76.0303 71.865 -83.1085 -75.6604 73.5568 
-82.604 -76.3895 74.5472 -82.3407 -77.5539 75.5494 -82.2573 -78.7135 76.5582 
-81.9852 -80.0003 77.6915 -81.6402 -81.5324 79.0645 -81.7233 -83.0929 80.4983 
-82.116 -84.5253 81.705 -84.5818 -76.0957 73.3375 -83.9254 -75.8347 74.2611 
-84.8207 -76.3752 74.9296 -84.2606 -76.3711 75.9263 -85.0646 -76.9315 76.4416 
-83.3382 -76.0572 75.2562 -84.5157 -77.1903 77.4664 -85.2458 -77.6548 77.902 
-83.6778 -76.8281 76.8929 -82.8337 -77.0118 76.2165 -84.6693 -78.1284 79.0182 
-85.5354 -78.4394 79.5111 -83.8947 -77.7951 78.4755 -83.1165 -77.8429 77.8441 
-82.5501 -78.2877 77.1735 -84.9423 -79.1601 80.6768 -85.9034 -79.3808 81.1516 
-84.0749 -78.9438 80.1353 -83.3165 -78.8411 79.5722 -82.7154 -79.113 78.9101 
-82.3195 -79.5411 78.2287 -85.2606 -80.2983 82.2532 -86.0512 -80.5654 82.5323 
-84.4316 -80.216 81.7898 -83.6097 -80.1381 81.3002 -82.898 -80.1525 80.7642 
-82.3931 -80.4304 80.0913 -81.9804 -80.8982 79.4801 -85.4219 -81.5159 83.6411 
-86.0174 -81.8852 83.6645 -84.7967 -81.3963 83.3834 -84.0466 -81.458 82.9429 
-83.2337 -81.4615 82.4952 -82.6225 -81.5213 81.9696 -82.2162 -81.8681 81.3573 
-81.8874 -82.4449 80.8665 -85.5223 -82.7975 84.8415 -86.0662 -83.1735 84.6824 
-84.9776 -82.5371 84.8516 -84.3391 -82.5624 84.565 -83.5644 -82.6956 84.1478 
-82.8869 -82.7629 83.7251 -82.4853 -82.984 83.1869 -82.2479 -83.4679 82.6071 
-82.1117 -84.0296 82.1294 -85.6676 -84.1066 85.814 -86.2115 -84.3693 85.5912 
-85.0668 -83.8247 85.9957 -84.4148 -83.7294 85.9294 -83.7103 -83.8577 85.6459 
-83.0466 -84.0059 85.3194 -82.5748 -84.1926 84.8878 -82.3184 -84.583 84.2954 
-82.2187 -85.0738 83.6927 -82.2372 -85.498 83.1538 -82.1067 -87.0553 83.9192 
-82.0164 -86.7655 84.5568 -81.7937 -88.626 85.4584 -82.0136 -86.3933 85.1743 
-81.8214 -88.3961 86.0884 -81.8562 -90.698 87.0179 -82.2108 -85.9636 85.7967 
-81.9784 -88.0774 86.5682 -82.1156 -90.4887 87.4173 -82.213 -93.1364 88.198 
-82.623 -85.6662 86.329 -82.3299 -87.7748 87.0845 -82.3457 -90.1757 87.7778 
-82.53 -92.8617 88.5566 -82.3229 -95.6607 89.1613 -83.1902 -85.5022 86.633 
-82.8621 -87.6068 87.5194 -82.6477 -89.9146 88.3372 -82.588 -92.4156 89.146 
-82.544 -95.3066 89.7933 -82.2523 -98.2773 90.1563 -83.8557 -85.3233 86.8242 
-83.4849 -87.4128 87.6985 -83.2196 -89.6664 88.7324 -82.8165 -91.9419 89.7528 
-82.558 -94.6706 90.4389 -82.4724 -97.9213 90.7527 -82.2886 -101.019 90.8857 
-84.5885 -85.2522 86.9253 -84.1457 -87.1566 87.7707 -83.9129 -89.2848 88.8166 
-83.5288 -91.423 89.953 -82.979 -93.9513 90.7006 -82.7113 -97.2162 91.0116 
-82.5743 -100.709 91.1565 -82.2985 -103.699 91.2409 -85.3274 -85.3778 86.8038 
-84.857 -87.0353 87.7344 -84.5239 -88.9304 88.7792 -84.2851 -90.9053 89.8901 
-83.8256 -93.2695 90.6346 -83.3588 -96.4114 90.9707 -83.0728 -100.024 91.217 
-82.7144 -103.405 91.4054 -82.2633 -106.191 91.4264 -85.9787 -85.5354 86.5526 
-85.5664 -87.0282 87.5208 -85.1203 -88.7482 88.5864 -84.839 -90.5473 89.705 
-84.552 -92.6886 90.4892 -84.1407 -95.6152 90.85 -83.7799 -99.1531 91.1817 
-83.4016 -102.677 91.5263 -82.8727 -105.795 91.6169 -82.3487 -108.426 91.4445 
-81.9055 -88.4265 84.277 -81.6661 -90.4171 85.9645 -81.7075 -90.0833 84.6916 
-81.8011 -92.9232 87.5564 -81.6615 -92.4169 86.404 -81.8171 -91.7402 85.1941 
-81.8942 -95.6065 88.6561 -81.7642 -95.0923 87.9582 -81.9964 -94.207 86.8876 
-82.2179 -93.1884 85.693 -81.8359 -98.3467 89.5615 -81.7111 -97.8847 89.0646 
-82.1366 -96.9836 88.4435 -82.4406 -95.825 87.3478 -82.4391 -94.6833 85.9992 
-81.9619 -101.246 90.4371 -81.7946 -100.938 89.9237 -82.158 -100.177 89.4874 
-82.5801 -99.0175 88.7567 -82.5322 -97.6153 87.4901 -82.5197 -96.2971 86.2287 
-82.0657 -104.106 90.9937 -81.9672 -104.061 90.5248 -82.1397 -103.663 89.9924 
-82.4665 -102.802 89.4516 -82.5618 -101.278 88.5931 -82.5789 -99.3997 87.5172 
-82.9024 -97.7132 86.6403 -81.9625 -106.807 91.2154 -81.8871 -106.989 90.7746 
-81.9385 -106.878 90.097 -82.0754 -106.453 89.4914 -82.2607 -105.315 88.996 
-82.5097 -103.289 88.3761 -82.9269 -100.912 87.7203 -83.4155 -98.8581 87.0632 
-81.9155 -109.357 91.2249 -81.7432 -109.841 90.8118 -81.7044 -109.904 90.0635 
-81.7063 -109.604 89.2876 -81.8535 -108.816 88.882 -82.2025 -107.257 88.6485 
-82.7053 -104.875 88.3116 -83.2571 -102.179 87.8768 -83.6879 -99.8356 87.2235 
-82.2238 -111.313 91.087 -81.8321 -112.456 90.8104 -82.1737 -114.241 90.5644 
-81.8138 -115.64 90.1983 -82.1642 -116.712 90.0459 -81.6674 -113.07 90.1867 
-81.8484 -118.314 89.436 -82.4585 -118.447 89.405 -81.6609 -116.413 89.3806 
-81.5994 -112.983 89.249 -82.3136 -120.06 88.4786 -83.292 -119.436 88.494 
-81.7917 -119.087 88.5275 -81.7166 -115.916 88.5204 -81.6931 -112.114 88.6304 
-83.2981 -120.6 87.482 -84.1837 -119.407 87.5819 -82.2982 -120.392 87.6955 
-81.974 -117.875 87.9466 -82.0144 -114.117 88.1939 -82.021 -110.636 88.4928 
-84.132 -119.737 86.7575 -84.6803 -118.277 87.0093 -83.0774 -120.081 86.9936 
-82.3086 -118.341 87.3999 -82.2572 -115.126 87.7254 -82.3507 -111.851 88.0706 
-82.4622 -108.529 88.3551 -84.56 -117.874 86.4924 -85.0858 -116.544 86.8769 
-83.7245 -118.492 86.5803 -82.8327 -117.487 86.9478 -82.508 -115 87.2568 
-82.5892 -112.173 87.5571 -82.717 -109.174 87.9258 -82.9817 -105.651 88.1077 
-85.0001 -115.547 86.6837 -85.6591 -114.465 87.0713 -84.257 -116.165 86.602 
-83.5054 -115.7 86.792 -83.1118 -113.943 87.0653 -83.1257 -111.554 87.3688 
-83.1792 -108.912 87.6868 -83.2731 -105.798 87.8501 -83.508 -102.542 87.6955 
-85.5946 -112.851 87.0488 -86.2254 -111.959 87.2966 -84.8977 -113.345 86.9392 
-84.2408 -113.137 86.9588 -83.8591 -112.01 87.106 -83.8723 -110.16 87.4231 
-83.9569 -107.876 87.7518 -83.8814 -105.216 87.7831 -83.8295 -102.423 87.4426 
-83.8897 -99.9702 86.887 -82.9123 -108.799 91.4505 -82.8116 -111.712 90.9151 
-83.5549 -108.664 91.3276 -83.4959 -111.451 90.7896 -84.0112 -107.987 91.1188 
-82.7625 -114.434 90.4004 -84.0702 -110.524 90.8322 -84.3752 -106.732 90.9422 
-83.5845 -113.985 90.49 -82.895 -116.508 90.0677 -84.5322 -108.824 90.7833 
-85.0352 -104.867 90.8132 -84.3648 -112.757 90.6684 -83.9372 -115.816 90.275 
-83.4302 -117.806 89.5437 -85.1023 -106.45 90.5031 -85.9921 -102.618 90.6666 
-84.8289 -110.508 90.4335 -84.7632 -114.106 90.2644 -84.3612 -116.589 89.7065 
-84.114 -118.21 88.7135 -85.9337 -103.807 90.3269 -86.8624 -100.395 90.4043 
-85.2657 -107.671 90.1109 -85.1941 -111.31 89.9592 -84.9867 -114.196 89.6439 
-84.5879 -116.213 88.9834 -84.5609 -117.553 87.9789 -86.9211 -101.21 90.1935 
-87.5335 -98.4641 89.887 -86.1255 -104.693 90.1487 -85.7379 -108.231 89.9529 
-85.5923 -111.153 89.6011 -85.2279 -113.437 89.1084 -84.9789 -115.168 88.4492 
-85.0523 -116.221 87.591 -87.8726 -98.932 89.7089 -88.1778 -96.887 89.1573 
-87.2785 -101.728 90.0439 -86.6559 -105.04 90.1054 -86.3005 -108.065 89.7881 
-86.0562 -110.453 89.2157 -85.8448 -112.421 88.7048 -85.7992 -113.872 88.1767 
-85.797 -114.543 87.5405 -88.6963 -97.1625 88.9435 -88.8631 -95.5896 88.4197 
-88.3473 -99.1949 89.4558 -87.7234 -101.88 89.8225 -87.0776 -104.786 89.8047 
[...]
CELL_DATA 2000
SCALARS Distance double
LOOKUP_TABLE default
138.137 138.209 138.538 139.297 138.423 138.691 139.515 139.793 140.614 
138.813 139.033 139.944 140.157 141.078 141.256 142.177 139.243 139.484 
140.452 140.692 141.687 141.858 142.853 142.992 144.006 139.721 139.924 
140.921 141.21 142.269 142.506 143.546 143.722 144.763 144.908 145.912 
140.524 140.545 141.597 141.771 142.928 143.137 144.256 144.428 145.513 
145.673 146.724 146.818 147.77 141.668 141.558 142.63 142.649 143.836 
143.941 145.101 145.207 146.31 146.445 147.555 147.676 148.73 148.73 
149.665 142.822 142.736 143.714 143.72 144.794 144.893 145.98 146.084 
147.122 147.242 148.314 148.493 149.608 149.723 150.754 150.694 151.59 
143.784 143.758 144.61 144.654 145.594 145.73 146.749 146.901 147.915 
148.033 149.045 149.206 150.287 150.509 151.596 151.724 152.691 152.616 
153.445 137.428 136.422 137.1 137.481 135.379 136.096 136.468 137.173 
137.633 134.169 134.983 135.379 136.147 136.59 137.371 137.94 132.973 
133.719 134.127 134.973 135.431 136.28 136.836 137.715 138.347 132.227 
132.677 133.028 133.731 134.191 135.045 135.636 136.578 137.271 138.161 
138.856 131.978 132.168 132.455 132.865 133.298 133.921 134.538 135.399 
136.208 137.139 137.976 138.803 139.648 132.01 132.042 132.3 132.523 
132.976 133.341 133.976 134.55 135.406 136.204 137.172 138.015 138.98 
139.787 140.774 132.362 132.199 132.438 132.507 133.01 133.257 133.96 
134.315 135.162 135.68 136.64 137.335 138.351 139.154 140.192 141.004 
141.986 133.096 132.751 132.99 132.84 133.35 133.452 134.204 134.467 
135.324 135.665 136.55 137.008 137.949 138.598 139.623 140.414 141.429 
142.188 143.05 133.683 134.736 133.963 133.616 136.035 135.194 134.89 
134.084 133.969 137.401 136.593 136.374 135.511 135.394 134.657 134.791 
138.847 138.024 137.884 137.041 136.951 136.166 136.266 135.627 135.897 
140.475 139.589 139.508 138.625 138.592 137.76 137.855 137.145 137.38 
136.772 137.084 142.125 141.287 141.272 140.378 140.416 139.513 139.628 
138.802 139.02 138.308 138.613 137.997 138.405 143.622 142.905 142.976 
142.181 142.292 141.421 141.557 140.667 140.865 140.044 140.353 139.633 
140.07 139.458 140.027 145.021 144.382 144.53 143.842 144.007 143.252 
143.406 142.583 142.758 141.931 142.211 141.454 141.88 141.215 141.762 
141.187 141.797 146.364 145.787 145.971 145.353 145.526 144.868 145.029 
144.322 144.497 143.756 143.998 143.28 143.634 142.99 143.443 142.879 
143.379 142.872 143.366 144.286 144.364 144.777 145.756 144.465 144.887 
145.931 146.388 147.618 144.666 145.045 146.109 146.573 147.841 148.429 
149.863 145.015 145.33 146.411 146.811 148.055 148.62 150.066 150.721 
152.147 145.449 145.725 146.819 147.191 148.423 148.887 150.261 150.875 
152.341 152.958 154.332 145.905 146.149 147.195 147.588 148.819 149.282 
150.571 151.086 152.437 153.079 154.497 155.133 156.489 146.372 146.589 
147.556 147.917 149.089 149.597 150.837 151.348 152.546 153.121 154.42 
155.155 156.549 157.248 158.533 146.804 147.032 147.946 148.254 149.316 
149.79 150.966 151.504 152.636 153.167 154.342 155.022 156.389 157.183 
158.561 159.214 160.388 147.157 147.414 148.285 148.59 149.549 149.968 
151.036 151.559 152.641 153.179 154.285 154.917 156.218 157.012 158.436 
159.192 160.465 161.009 162.046 144.529 146.013 145.276 145.384 147.972 
146.997 147.127 146.251 146.418 150.327 149.245 149.441 148.297 148.447 
147.445 147.64 152.615 151.651 151.927 150.797 150.968 149.761 149.885 
148.766 148.889 154.794 153.887 154.224 153.227 153.515 152.386 152.542 
151.248 151.258 150.018 150.057 157.04 156.145 156.583 155.568 155.996 
154.941 155.273 154.004 154.026 152.574 152.476 151.199 151.267 159.14 
158.406 158.934 158.006 158.471 157.475 157.901 156.753 156.889 155.43 
155.278 153.775 153.702 152.472 152.578 160.961 160.394 160.952 160.226 
160.641 159.812 160.159 159.242 159.436 158.23 158.143 156.649 156.472 
155.029 154.978 153.758 153.743 162.593 162.13 162.733 162.122 162.551 
161.795 162.071 161.262 161.455 160.545 160.589 159.392 159.246 157.82 
157.618 156.22 156.033 154.777 154.554 163.656 165.372 164.352 163.893 
167.013 166.124 165.707 164.495 163.763 168.31 167.696 167.427 166.325 
165.512 164.163 163.224 169.169 168.837 168.726 167.928 167.188 165.874 
164.76 163.461 162.498 169.473 169.476 169.403 168.984 168.324 167.327 
166.151 164.9 163.741 162.639 161.639 168.987 169.384 169.261 169.277 
168.57 168.037 166.806 165.918 164.616 163.69 162.531 161.582 160.386 
167.942 168.506 168.324 168.682 167.974 167.847 166.613 166.106 164.758 
164.155 162.916 162.218 160.948 160.066 158.726 166.808 167.308 167.034 
167.486 166.857 166.987 165.915 165.668 164.427 164.022 162.83 162.325 
161.07 160.391 159.03 158.245 156.953 165.581 166.079 165.672 166.125 
165.492 165.772 164.841 164.854 163.765 163.584 162.482 162.132 160.927 
160.369 159.016 158.354 157.029 156.41 155.269 163.74 164.128 164.45 
165.384 164.107 164.693 165.683 166.053 166.928 163.651 164.514 165.664 
166.247 167.165 167.476 168.173 162.787 163.862 165.141 166.08 167.15 
167.651 168.332 168.543 169.01 161.663 162.77 163.897 165.194 166.317 
167.333 168.031 168.528 168.834 169.105 169.261 160.509 161.503 162.36 
163.647 164.633 166.006 166.718 167.726 167.949 168.56 168.513 168.943 
168.758 159.378 160.29 161.02 162.094 162.949 164.2 164.933 166.077 
166.408 167.271 167.28 167.911 167.748 168.166 167.831 158.272 159.128 
159.789 160.766 161.515 162.621 163.316 164.376 164.788 165.675 165.842 
166.583 166.615 167.149 166.986 167.251 166.861 157.304 158.043 158.603 
159.492 160.099 161.143 161.712 162.778 163.127 164.077 164.219 165.098 
165.178 165.954 165.897 166.396 166.07 166.271 165.717 147.6 148.649 
148.327 148.756 149.79 149.446 149.934 149.567 150.056 150.985 150.656 
151.209 150.831 151.387 150.979 151.54 152.066 151.838 152.449 152.149 
152.754 152.369 152.962 152.54 153.119 152.961 152.821 153.479 153.335 
154.03 153.748 154.404 154.002 154.65 154.187 154.816 153.869 153.701 
154.438 154.356 155.229 155.047 155.864 155.503 156.296 155.843 156.67 
156.104 156.874 154.896 154.704 155.544 155.445 156.491 156.357 157.359 
157.049 157.967 157.574 158.553 158.099 159.05 158.39 159.159 155.881 
155.772 156.652 156.616 157.69 157.664 158.727 158.558 159.511 159.232 
160.212 159.925 160.926 160.505 161.311 160.624 161.174 156.681 156.688 
157.539 157.613 158.594 158.708 159.709 159.756 160.715 160.641 161.607 
161.457 162.427 162.183 163 162.549 163.091 162.403 162.731 147.088 
146.658 147.278 148.113 146.218 146.851 147.693 148.334 149.215 145.75 
146.397 147.235 147.898 148.78 149.457 150.36 145.354 145.952 146.795 
147.43 148.295 148.982 149.894 150.595 151.448 145.1 145.632 146.485 
147.049 147.898 148.509 149.423 150.121 151.045 151.671 152.429 144.869 
145.392 146.228 146.788 147.63 148.176 149.052 149.688 150.663 151.323 
152.2 152.681 153.38 144.621 145.119 145.91 146.496 147.331 147.905 
148.722 149.323 150.225 150.93 151.866 152.477 153.245 153.667 154.348 
144.448 144.88 145.633 146.166 146.988 147.567 148.364 148.945 149.743 
150.422 151.29 152.031 152.845 153.449 154.124 154.6 155.258 144.338 
144.738 145.465 145.929 146.718 147.245 148.041 148.582 149.348 149.928 
150.711 151.395 152.195 152.905 153.628 154.243 154.879 155.417 156.033 
144.496 145.121 145.091 145.661 145.739 145.745 146.375 146.321 146.914 
146.386 146.38 147.064 147.052 147.715 147.632 148.233 147.196 147.108 
147.83 147.792 148.547 148.482 149.16 148.993 149.568 148.106 147.995 
148.724 148.647 149.456 149.394 150.165 149.996 150.612 150.351 150.915 
148.939 148.88 149.612 149.568 150.385 150.35 151.153 151.03 151.677 
151.429 151.975 151.722 152.319 149.736 149.689 150.466 150.449 151.303 
151.283 152.091 151.995 152.65 152.455 153.006 152.775 153.344 153.141 
153.74 150.578 150.535 151.366 151.345 152.237 152.213 153.033 152.93 
153.594 153.41 153.996 153.787 154.381 154.169 154.757 154.531 155.054 
151.348 151.382 152.215 152.243 153.095 153.111 153.901 153.847 154.529 
154.379 155.006 154.807 155.433 155.214 155.806 155.561 156.077 155.797 
156.237 151.962 153.13 152.684 152.904 154.226 153.835 154.116 153.63 
153.794 155.506 155.003 155.33 154.833 155.06 154.506 154.598 157.055 
156.47 156.859 156.221 156.527 155.863 156.027 155.316 155.3 158.414 
157.998 158.403 157.848 158.181 157.498 157.701 156.894 156.903 156.021 
155.876 159.619 159.252 159.678 159.243 159.545 159.036 159.202 158.548 
158.52 157.681 157.484 156.562 156.317 161.273 160.707 161.298 160.634 
160.983 160.327 160.501 159.883 159.881 159.171 158.966 158.119 157.811 
156.932 156.638 163.235 162.665 163.405 162.603 163.022 162.065 162.254 
161.345 161.427 160.581 160.493 159.589 159.312 158.382 158.041 157.177 
156.86 164.829 164.516 165.203 164.662 165.03 164.192 164.284 163.302 
163.318 162.352 162.303 161.291 161.047 159.974 159.592 158.591 158.207 
157.341 156.997 151.569 151.261 151.851 152.689 150.984 151.537 152.397 
152.959 153.79 150.839 151.333 152.186 152.698 153.578 154.109 155.047 
150.583 151.17 151.997 152.519 153.387 153.935 154.936 155.518 156.561 
150.024 150.75 151.572 152.233 153.081 153.714 154.702 155.376 156.425 
157.028 157.937 149.439 150.127 150.979 151.698 152.586 153.308 154.283 
155.044 156.062 156.77 157.676 158.241 159.083 149.071 149.648 150.512 
151.155 152.064 152.775 153.745 154.53 155.528 156.299 157.232 157.902 
158.84 159.457 160.558 148.779 149.334 150.142 150.743 151.582 152.26 
153.168 153.943 154.913 155.713 156.688 157.436 158.468 159.204 160.405 
161.143 162.427 148.421 148.984 149.709 150.312 151.055 151.725 152.556 
153.323 154.26 155.077 156.068 156.879 157.954 158.796 160.025 160.899 
162.187 162.978 164.099 150.765 149.492 150.238 150.451 148.193 148.964 
149.16 149.901 150.157 146.756 147.634 147.88 148.633 148.871 149.654 
149.987 145.193 146.139 146.463 147.325 147.567 148.36 148.622 149.467 
149.731 143.661 144.569 144.883 145.831 146.094 146.969 147.163 148.023 
148.202 149.066 149.192 142.224 143.063 143.331 144.244 144.487 145.39 
145.553 146.45 146.59 147.481 147.612 148.46 148.605 140.894 141.658 
141.926 142.761 142.995 143.809 143.934 144.775 144.903 145.82 145.999 
146.899 147.105 147.963 148.221 139.719 140.388 140.644 141.417 141.667 
142.41 142.516 143.225 143.306 144.142 144.349 145.288 145.559 146.476 
146.764 147.651 147.946 138.698 139.277 139.479 140.176 140.407 141.124 
141.242 141.89 141.934 142.64 142.815 143.687 144.003 144.935 145.266 
146.177 146.49 147.372 147.641 138.193 137.599 138.249 138.956 136.867 
137.632 138.392 139.066 139.82 136.119 136.898 137.715 138.443 139.191 
139.893 140.598 135.725 136.3 137.163 137.798 138.564 139.228 139.954 
140.621 141.309 135.828 136.151 136.99 137.427 138.223 138.725 139.515 
140.08 140.887 141.449 142.249 136.141 136.354 137.113 137.425 138.222 
138.582 139.415 139.846 140.744 141.221 142.131 142.597 143.479 136.522 
136.658 137.379 137.62 138.42 138.709 139.553 139.898 140.81 141.225 
142.169 142.598 143.504 143.918 144.772 137.077 137.11 137.844 137.976 
138.801 139.004 139.867 140.127 141.032 141.37 142.311 142.695 143.605 
143.985 144.837 145.21 146.016 137.754 137.75 138.48 138.541 139.349 
139.477 140.332 140.52 141.411 141.664 142.585 142.894 143.798 144.125 
144.97 145.303 146.097 146.438 147.18 138.355 139.531 138.99 139.118 
140.794 140.207 140.366 139.818 139.988 142.295 141.555 141.707 141.105 
141.327 140.758 140.974 144.114 143.219 143.34 142.568 142.804 142.166 
142.447 141.825 142.075 146.023 145.128 145.235 144.343 144.513 143.746 
144.02 143.36 143.647 142.985 143.243 147.85 147.009 147.152 146.273 
146.4 145.531 145.709 144.964 145.22 144.563 144.822 144.164 144.411 
149.689 148.833 149.019 148.178 148.366 147.466 147.612 146.723 146.905 
146.147 146.388 145.72 145.96 145.309 145.541 151.571 150.699 150.867 
150.042 150.259 149.423 149.598 148.685 148.821 147.929 148.106 147.324 
147.538 146.842 147.058 146.409 146.632 153.423 152.574 152.711 151.875 
152.034 151.243 151.386 150.576 150.679 149.836 149.943 149.105 149.231 
148.446 148.594 147.902 148.086 147.465 147.673 148.433 148.849 148.987 
149.701 149.404 149.474 150.22 150.307 151.059 150.14 150.165 150.995 
150.979 151.805 151.798 152.626 150.886 150.957 151.868 151.881 152.79 
152.729 153.628 153.531 154.4 151.582 151.681 152.613 152.729 153.713 
153.761 154.725 154.651 155.566 155.41 156.262 152.329 152.423 153.45 
153.541 154.68 154.736 155.864 155.804 156.85 156.684 157.666 157.399 
158.28 153.096 153.249 154.479 154.587 155.983 155.985 157.365 157.188 
158.431 158.152 159.324 159.002 160.088 159.631 160.535 153.834 154.061 
155.419 155.685 157.24 157.43 158.961 158.894 160.222 159.935 161.149 
160.815 161.982 161.575 162.575 161.99 162.768 154.534 154.809 156.161 
156.546 158.072 158.501 160.001 160.272 161.547 161.563 162.679 162.551 
163.624 163.388 164.326 163.919 164.632 164.065 164.604 133.108 132.362 
132.763 132.9 131.958 132.147 132.22 132.571 132.698 131.878 131.89 
131.921 132.062 132.16 132.446 132.697 132.073 131.914 131.948 131.944 
132.042 132.117 132.341 132.636 133.096 132.742 132.293 132.299 132.115 
132.204 132.135 132.264 132.394 132.761 133.167 133.719 133.896 133.216 
133.157 132.691 132.717 132.415 132.415 132.333 132.533 132.831 133.349 
133.831 134.432 135.117 134.447 134.347 133.738 133.711 133.156 133.086 
132.646 132.725 132.694 133.198 133.556 134.295 134.689 135.389 136.172 
135.585 135.473 134.905 134.877 134.293 134.267 133.615 133.674 133.223 
133.683 133.689 134.519 134.768 135.61 135.836 136.54 137.186 136.61 
136.503 135.954 135.939 135.43 135.495 134.917 135.037 134.446 134.812 
134.499 135.231 135.246 136.101 136.217 136.949 137.046 137.64 133.68 
133.446 133.882 134.533 133.212 133.631 134.286 134.752 135.438 133.197 
133.46 134.129 134.536 135.264 135.7 136.428 133.601 133.641 134.286 
134.512 135.258 135.603 136.369 136.758 137.511 134.221 134.174 134.745 
134.818 135.495 135.711 136.467 136.781 137.562 137.903 138.669 134.893 
134.793 135.314 135.314 135.915 136.024 136.716 136.944 137.716 138.019 
138.815 139.124 139.907 135.772 135.534 136.049 135.929 136.528 136.514 
137.176 137.269 137.995 138.213 138.994 139.292 140.08 140.387 141.144 
136.833 136.512 136.994 136.769 137.338 137.216 137.84 137.814 138.478 
138.565 139.285 139.494 140.255 140.543 141.297 141.591 142.286 137.85 
137.549 137.959 137.724 138.2 138.039 138.56 138.483 139.062 139.083 
139.74 139.854 140.571 140.763 141.503 141.75 142.465 142.707 143.344 
134.05 134.933 134.652 135.057 135.845 135.559 135.957 135.737 136.256 
136.835 136.514 136.909 136.638 137.113 136.951 137.538 137.91 137.564 
137.988 137.655 138.116 137.845 138.419 138.274 138.96 139.043 138.675 
139.137 138.796 139.292 138.946 139.517 139.261 139.98 139.824 140.597 
140.271 139.86 140.334 139.978 140.507 140.162 140.722 140.424 141.106 
140.918 141.682 141.516 142.232 141.511 141.117 141.582 141.209 141.72 
141.373 141.891 141.585 142.171 141.989 142.678 142.558 143.223 143.062 
143.673 142.63 142.303 142.739 142.413 142.877 142.557 143.027 142.707 
143.203 142.972 143.574 143.461 144.104 143.986 144.577 144.426 145.015 
143.643 143.35 143.755 143.472 143.907 143.639 144.103 143.812 144.285 
143.997 144.534 144.342 144.961 144.836 145.447 145.306 145.884 145.744 
146.328 150.627 149.89 149.973 149.365 149.073 149.184 148.567 148.666 
148.022 148.256 148.343 147.638 147.752 147.015 147.185 146.478 147.383 
147.475 146.672 146.75 145.918 146.069 145.316 145.554 144.885 146.467 
146.543 145.722 145.76 144.915 144.995 144.262 144.432 143.799 144.014 
143.413 145.677 145.67 144.889 144.865 144.054 144.065 143.333 143.45 
142.816 142.995 142.377 142.58 141.989 145.04 144.972 144.209 144.134 
143.341 143.286 142.506 142.543 141.833 141.99 141.34 141.548 140.935 
141.173 140.643 144.44 144.365 143.586 143.497 142.696 142.615 141.811 
141.757 140.992 141.031 140.375 140.526 139.967 140.167 139.671 139.909 
139.49 143.867 143.782 143.017 142.896 142.097 141.986 141.2 141.106 
140.362 140.303 139.659 139.692 139.172 139.296 138.845 139.02 138.609 
138.841 138.492 
POINT_DATA 1002
SCALARS Distance double
LOOKUP_TABLE default
138.868 137.757 137.788 138.961 137.882 140.067 139.233 138.155 140.354 
141.424 139.713 138.574 140.888 141.995 143.115 140.167 138.992 141.48 
142.697 143.872 145.036 140.614 139.561 141.986 143.345 144.601 145.822 
146.883 141.462 140.552 142.719 144.084 145.343 146.6 147.756 148.677 
142.663 141.794 143.77 145.026 146.198 147.395 148.676 149.762 150.561 
143.753 142.923 144.731 145.888 147.033 148.139 149.414 150.738 151.766 
152.448 144.601 143.831 145.482 146.576 147.788 148.93 150.071 151.38 
152.674 153.639 154.252 136.742 136.775 135.752 135.766 134.623 136.865 
134.562 133.326 135.812 137.095 133.274 132.324 134.548 135.937 137.479 
132.44 131.924 133.375 134.653 136.321 138.017 132.146 131.871 132.786 
133.74 135.227 137.082 138.834 132.116 132.05 132.644 133.507 134.69 
136.309 138.133 139.978 132.437 132.604 132.768 133.626 134.755 136.047 
137.571 139.357 141.244 133.218 133.471 133.321 133.967 135.023 136.198 
137.411 138.871 140.645 142.399 134.363 134.311 135.537 135.738 136.833 
134.623 137.211 138.161 136.175 135.386 138.703 139.681 137.74 136.941 
136.475 140.387 141.36 139.437 138.604 138.024 137.647 142.118 142.9 
141.313 140.501 139.781 139.258 138.937 143.699 144.272 143.114 142.453 
141.721 141.096 140.707 140.57 145.177 145.617 144.717 144.193 143.577 
142.979 142.563 142.372 142.348 146.57 146.907 146.167 145.698 145.201 
144.716 144.303 144.039 143.921 143.871 145.16 145.304 146.811 145.44 
147.054 148.996 145.661 147.23 149.243 151.356 146.03 147.548 149.391 
151.568 153.525 146.433 147.999 149.728 151.671 153.79 155.691 146.818 
148.338 150.126 151.865 153.783 155.928 157.86 147.254 148.601 150.333 
152.058 153.723 155.765 157.966 159.784 147.678 148.911 150.442 152.127 
153.728 155.588 157.828 159.901 161.489 147.997 149.185 150.556 152.113 
153.689 155.448 157.633 159.859 161.647 163.011 146.073 148.113 147.202 
150.633 149.583 148.561 152.972 152.182 151.145 149.955 155.175 154.533 
153.837 152.651 151.175 157.579 157.004 156.459 155.53 153.903 152.356 
159.788 159.443 158.974 158.281 156.868 155.073 153.684 161.622 161.457 
161.032 160.485 159.557 158.018 156.337 154.92 163.29 163.298 162.909 
162.283 161.607 160.617 159.119 157.413 155.776 164.675 165.101 166.348 
166.934 167.763 165.097 168.399 168.772 166.956 164.496 169.348 169.393 
168.437 166.183 163.617 169.693 169.34 169.17 167.371 164.913 162.704 
169.124 168.502 168.969 167.577 165.481 163.465 161.436 167.896 167.433 
167.957 167.001 165.272 163.53 161.764 159.659 166.601 166.395 166.611 
166.011 164.744 163.279 161.695 159.765 157.679 165.251 165.104 165.172 
164.706 163.822 162.746 161.439 159.663 157.632 155.783 163.545 165.142 
163.712 165.24 163.383 166.681 164.934 162.65 166.832 167.991 164.015 
161.712 166.489 168.14 168.873 162.6 160.696 165.092 167.383 168.579 
169.056 161.233 159.615 163.266 165.556 167.225 168.052 168.439 160.039 
158.49 161.804 163.793 165.462 166.548 167.251 167.563 158.865 157.466 
160.475 162.284 163.888 165.028 165.962 166.641 166.764 157.804 156.646 
159.148 160.688 162.179 163.328 164.315 165.269 165.793 165.663 147.897 
149.089 148.965 150.287 150.121 150.431 151.564 151.273 151.78 151.954 
152.681 152.249 153.106 153.379 153.56 153.539 153.103 154.225 154.766 
155.075 155.323 154.47 154.042 155.313 156.158 156.679 157.146 157.555 
155.609 155.045 156.558 157.61 158.324 158.916 159.614 159.998 156.667 
155.936 157.687 158.832 159.756 160.475 161.261 161.918 162.03 146.461 
147.478 146.036 147.043 145.578 148.563 146.574 145.102 148.092 149.69 
146.185 144.78 147.629 149.168 150.827 145.937 144.588 147.336 148.734 
150.371 151.942 145.655 144.366 147.096 148.463 149.963 151.659 153.004 
145.337 144.163 146.741 148.16 149.547 151.171 152.773 153.965 145.141 
144.043 146.422 147.803 149.134 150.551 152.153 153.617 154.8 145.031 