# vtk DataFile Version 4.0
vtk output
ASCII
DATASET POLYDATA
POINTS 1002 float
-84.2229 -79.149 64.3988 -83.9917 -78.6702 63.0881 -83.4488 -78.5538 63.8838 
-83.7527 -79.0236 65.3137 -83.0101 -78.3854 64.8056 -84.2891 -79.8536 65.8777 
-83.3526 -78.9235 66.3587 -82.7102 -78.1609 65.8072 -83.9395 -79.7681 67.0234 
-84.3116 -80.7861 67.6996 -82.9086 -78.9353 67.3884 -82.354 -78.004 66.8852 
-83.565 -79.7978 68.2252 -84.0501 -80.7773 69.0829 -84.4233 -81.7987 69.8754 
-82.3833 -79.0278 68.5363 -81.9047 -78.0035 68.1426 -83.0255 -80.0099 69.3275 
-83.5947 -80.9537 70.3198 -84.0354 -81.983 71.2038 -84.395 -83.0555 71.9389 
-82.0363 -79.1114 70.0395 -81.6166 -78.1665 69.5647 -82.5446 -80.205 70.6566 
-82.9782 -81.321 71.4473 -83.3854 -82.4118 72.2747 -83.827 -83.5709 73.036 
-84.1383 -84.7764 73.7538 -81.8468 -79.3414 71.6459 -81.4705 -78.483 71.0314 
-82.2838 -80.3354 72.2565 -82.5483 -81.6581 72.7981 -82.745 -83.0104 73.3925 
-83.1775 -84.2217 74.0884 -83.6167 -85.447 74.8572 -83.8601 -86.6286 75.6637 
-81.4588 -79.8126 73.036 -81.2106 -78.8529 72.5315 -81.8834 -80.6853 73.6104 
-82.2285 -81.9738 74.1319 -82.3638 -83.5906 74.6812 -82.6641 -84.9328 75.3618 
-83.1246 -86.0664 76.0954 -83.3933 -87.2664 76.8334 -83.5571 -88.3552 77.5761 
-80.9754 -80.295 74.2794 -80.9154 -79.1476 74.0082 -81.3047 -81.2695 74.6485 
-81.7685 -82.4572 75.1834 -82.068 -84.1217 75.8961 -82.3257 -85.6518 76.7322 
-82.7088 -86.7454 77.5145 -82.959 -87.9016 78.126 -83.0388 -89.1707 78.6735 
-83.1922 -90.2082 79.2295 -80.8041 -80.6359 75.4564 -80.847 -79.3925 75.2823 
-81.0151 -81.8337 75.6958 -81.4202 -83.0819 76.2232 -81.7657 -84.6852 77.0693 
-82.0201 -86.3464 78.0323 -82.3435 -87.5591 78.8861 -82.5978 -88.6846 79.498 
-82.6491 -90.0951 79.921 -82.6967 -91.4203 80.31 -82.8774 -92.3521 80.692 
-83.3455 -78.1534 62.3505 -82.7663 -78.0181 63.2138 -82.8287 -77.4769 61.7453 
-82.3038 -77.2309 62.6882 -82.5419 -76.5574 61.1907 -82.4311 -77.7021 64.2151 
-82.0375 -76.1536 62.2268 -82.1952 -75.4932 60.5743 -82.0588 -76.7116 63.7967 
-82.2997 -77.2419 65.3629 -81.6841 -74.9125 61.8105 -81.8161 -74.3195 60.2173 
-81.6674 -75.4866 63.43 -81.9334 -76.1187 65.0668 -82.0134 -76.9667 66.628 
-81.5036 -73.5171 61.8088 -81.9423 -73.0541 60.5345 -81.2171 -74.0917 63.1915 
-81.3668 -74.8826 64.7395 -81.5739 -75.8972 66.4184 -81.5391 -77.0251 67.9436 
-81.836 -72.1758 62.3246 -82.5661 -71.9907 61.2522 -81.1843 -72.5974 63.4116 
-80.9821 -73.443 64.6365 -81.0627 -74.6546 66.2441 -81.1015 -75.9345 67.8281 
-81.2468 -77.212 69.3124 -82.3938 -71.2553 62.9192 -83.2131 -71.3324 61.8866 
-81.5779 -71.4254 63.9767 -81.1734 -72.0745 65.0337 -81.0353 -73.2174 66.4529 
-80.8526 -74.5504 68.022 -80.8966 -75.9318 69.3775 -81.1547 -77.4099 70.8691 
-82.9904 -70.718 63.4618 -83.7962 -70.9369 62.4673 -82.107 -70.7544 64.6076 
-81.6175 -71.2338 65.7106 -81.4817 -72.1456 67.005 -81.1582 -73.2881 68.5223 
-80.8467 -74.5822 69.8368 -80.9383 -76.0716 71.0943 -81.0495 -77.6608 72.5944 
-83.7175 -70.3768 64.1693 -84.4203 -70.6821 63.2066 -82.826 -70.357 65.3593 
-82.1564 -70.7995 66.4957 -81.9474 -71.6317 67.6342 -81.7272 -72.6121 68.9897 
-81.2585 -73.7139 70.3191 -81.0164 -75.0357 71.4953 -81.0508 -76.5059 72.8121 
-80.9858 -77.9838 74.1931 -84.7351 -70.3514 64.7624 -83.9802 -70.1465 66.0072 
-85.0183 -70.3878 66.6655 -84.2605 -70.4074 68.0124 -85.1462 -70.9078 68.4825 
-83.0911 -70.4258 67.2579 -84.4455 -71.1045 69.6895 -85.2665 -71.6306 70.0331 
-83.4289 -70.9522 69.0885 -82.5082 -71.2338 68.2952 -84.6855 -71.9808 71.1363 
-85.5825 -72.4297 71.5561 -83.7322 -71.7586 70.6411 -82.8456 -71.9275 69.9969 
-82.2362 -72.2691 69.4132 -85.0499 -73.1414 72.6681 -85.9297 -73.5135 73.1092 
-84.0885 -72.8773 72.2072 -83.1396 -72.8267 71.7029 -82.4148 -73.0671 71.1601 
-81.8325 -73.3629 70.7313 -85.3596 -74.5145 74.2544 -86.1278 -74.6999 74.6489 
-84.4868 -74.3788 73.8241 -83.493 -74.1424 73.4867 -82.6337 -74.0834 73.0589 
-81.9913 -74.3542 72.5082 -81.4232 -74.6466 72.0094 -85.5926 -75.6427 75.8701 
-86.2765 -75.7054 76.1808 -84.8657 -75.7475 75.4051 -83.944 -75.646 75.092 
-82.9934 -75.3703 74.8917 -82.2902 -75.4542 74.4409 -81.744 -75.7924 73.8419 
-81.2898 -76.0651 73.3281 -85.8012 -76.6503 77.3587 -86.4317 -76.7535 77.49 
-85.1883 -76.8164 76.9476 -84.4327 -76.9412 76.5305 -83.5004 -76.7666 76.3613 
-82.6958 -76.686 76.1429 -82.1206 -76.9485 75.6412 -81.6187 -77.2097 75.1292 
-81.2064 -77.4671 74.6968 -85.9422 -77.9545 78.4613 -86.5337 -78.0681 78.4251 
-85.3725 -78.076 78.2224 -84.7657 -78.2692 77.8315 -83.9869 -78.2624 77.5866 
-83.1617 -78.1782 77.4502 -82.5084 -78.3048 77.1054 -81.9809 -78.4849 76.6187 
-81.4866 -78.5908 76.2174 -81.0804 -78.8676 75.8111 -81.0278 -80.5465 76.5036 
-81.3679 -80.1962 77.0384 -81.5149 -82.1447 77.9342 -81.8019 -80.1183 77.4702 
-81.7945 -82.027 78.5415 -81.8336 -84.2571 79.9546 -82.2847 -80.1429 77.952 
-82.1092 -82.0668 79.0975 -81.9689 -84.213 80.6467 -81.7083 -86.6529 82.1889 
-82.8473 -80.0439 78.439 -82.5283 -82.0585 79.6534 -82.2255 -84.0865 81.2239 
-81.9242 -86.4799 82.7569 -81.6824 -89.1029 83.8149 -83.5555 -79.9909 78.6803 
-83.0903 -81.9512 80.0301 -82.6516 -83.8753 81.6474 -82.2857 -86.1343 83.1272 
-82.0868 -88.892 84.1633 -82.0558 -91.6413 84.8942 -84.3188 -80.0357 78.7868 
-83.7784 -81.9457 80.0957 -83.2524 -83.7472 81.8068 -82.7809 -85.8497 83.3652 
-82.4713 -88.5792 84.411 -82.3997 -91.55 85.2327 -82.3695 -94.3883 85.978 
-84.98 -79.9303 79.0165 -84.4918 -81.9416 80.0822 -84.0101 -83.7298 81.7131 
-83.5235 -85.7078 83.4344 -83.0425 -88.3418 84.61 -82.7311 -91.3204 85.5026 
-82.5838 -94.3227 86.3954 -82.3928 -97.3233 86.9862 -85.5865 -79.7044 79.2532 
-85.173 -81.735 80.1686 -84.7823 -83.5953 81.5732 -84.383 -85.5222 83.2888 
-83.8905 -88.0685 84.6213 -83.3786 -91.0076 85.5575 -82.9581 -93.9883 86.5573 
-82.614 -97.0848 87.3827 -82.2721 -100.215 87.6302 -86.2097 -79.5922 79.2838 
-85.8419 -81.4479 80.2306 -85.4809 -83.2994 81.49 -85.0987 -85.2025 83.0341 
-84.643 -87.6314 84.3961 -84.1507 -90.5238 85.3594 -83.6253 -93.462 86.3284 
-83.0582 -96.4983 87.3627 -82.5389 -99.6949 87.9569 -82.1103 -102.762 87.955 
-81.1315 -81.9943 76.8144 -81.639 -83.9065 78.7415 -81.39 -83.5175 77.4018 
-81.6557 -86.3589 81.172 -81.6123 -85.8233 79.8268 -81.5888 -85.2132 78.3582 
-81.3722 -89.0007 83.1903 -81.3071 -88.5202 82.1769 -81.4418 -87.8075 80.8401 
-81.7002 -87.0535 79.3837 -81.5876 -91.642 84.4944 -81.2043 -91.2601 83.7656 
-81.1873 -90.5653 82.7044 -81.5075 -89.6419 81.4843 -81.9528 -88.5797 80.2084 
-82.0428 -94.5336 85.6635 -81.6077 -94.2505 85.1519 -81.355 -93.5996 84.2291 
-81.4632 -92.6241 83.0812 -81.8405 -91.3236 81.9991 -82.2561 -89.9091 80.844 
-82.1433 -97.8449 86.6873 -81.8134 -97.8944 86.4346 -81.5589 -97.4103 85.891 
-81.4995 -96.4208 84.8013 -81.6775 -94.9811 83.6305 -82.0205 -93.2704 82.581 
-82.3495 -91.5636 81.3318 -81.9904 -101.224 87.251 -81.6624 -101.836 87.0355 
-81.435 -101.819 86.905 -81.3571 -100.983 86.2604 -81.3902 -99.3944 85.1523 
-81.6452 -97.4003 84.1467 -82.0376 -95.2908 83.0895 -82.3714 -93.2287 81.714 
-81.7916 -104.157 87.5325 -81.4154 -105.273 87.1776 -81.1421 -105.846 87.0622 
-81.1036 -105.476 86.7722 -81.1438 -103.977 85.9909 -81.2893 -101.722 85.1679 
-81.6982 -99.236 84.4655 -82.1648 -96.739 83.4202 -82.5191 -94.37 82.0186 
-81.7104 -106.049 87.9137 -81.2456 -107.689 87.5035 -81.1935 -109.302 87.8801 
-80.4715 -111.015 87.5614 -80.6122 -112.227 87.6361 -80.7661 -108.909 87.1638 
-79.7146 -113.6 87.0329 -80.3152 -114.267 86.5424 -79.9124 -111.954 86.9856 
-80.6217 -109.271 86.8171 -79.643 -114.884 85.208 -80.6625 -115.012 84.7601 
-79.2523 -113.81 85.8901 -80.0211 -111.712 86.1733 -80.8295 -108.284 86.1885 
-80.4171 -115.152 83.1279 -81.3937 -114.919 83.5804 -79.4024 -114.534 83.9015 
-79.642 -113.055 85.0469 -80.6009 -110.127 85.5242 -81.0859 -106.003 85.5174 
-81.3302 -114.938 82.5265 -82.0627 -114.143 83.5598 -80.2058 -114.73 82.6057 
-79.8134 -113.697 83.9247 -80.5291 -111.274 85.0441 -81.2254 -107.32 85.3098 
-81.4868 -103.035 85.1136 -82.0489 -113.479 83.1547 -82.7245 -112.02 83.8377 
-81.1029 -113.963 82.8666 -80.4519 -113.359 83.5648 -80.7385 -111.454 84.6363 
-81.4305 -107.942 85.1353 -81.8494 -103.686 85.0376 -82.0412 -99.9072 84.4701 
-82.8088 -110.368 83.5894 -83.4946 -108.837 83.7256 -82.036 -111.377 83.5649 
-81.4062 -111.288 83.8565 -81.3471 -109.907 84.3572 -81.7263 -107.214 84.6517 
-82.0933 -103.578 84.5779 -82.3458 -99.9563 84.1249 -82.4814 -96.9314 83.2214 
-83.6157 -106.864 83.4341 -84.2213 -105.83 83.4146 -83.0061 -107.782 83.652 
-82.4986 -107.979 83.9791 -82.2937 -107.038 84.2182 -82.3399 -105.092 84.2014 
-82.3993 -102.48 83.9395 -82.5105 -99.5553 83.4861 -82.7143 -96.7637 82.7719 
-82.8457 -94.3699 81.7875 -82.2534 -103.093 88.2192 -81.8915 -106.325 88.1511 
-82.6522 -102.993 88.3025 -82.3863 -105.976 88.1831 -83.4149 -102.457 88.328 
-81.525 -109.407 87.8869 -83.2197 -105.085 88.2398 -84.2398 -101.582 88.2309 
-82.1367 -108.648 87.6652 -81.1686 -112.033 87.2209 -84.01 -103.934 88.2114 
-84.7553 -100.276 87.6488 -82.9833 -107.299 87.7079 -81.8272 -110.708 86.8065 
-81.0266 -113.603 86.0458 -84.5401 -102.339 87.6405 -85.2554 -98.2776 86.7097 
-83.8619 -105.837 87.8153 -82.7508 -108.823 86.9303 -81.6407 -111.697 85.9756 
-81.2937 -113.918 84.9968 -85.2108 -99.8514 86.7267 -86.1546 -95.7945 85.8752 
-84.5913 -103.863 87.3876 -83.9037 -106.925 87.116 -82.7449 -109.333 86.2554 
-81.8761 -111.647 85.5529 -81.8621 -113.425 84.6428 -86.2402 -96.8521 85.8804 
-87.1859 -93.4562 85.0539 -85.3578 -100.878 86.614 -84.782 -104.453 86.8413 
-84.1032 -106.947 86.3631 -83.1627 -108.963 85.7845 -82.6171 -110.825 85.2861 
-82.6456 -111.95 84.5488 -87.2918 -94.1886 84.959 -87.983 -91.5897 84.0183 
-86.377 -97.5434 85.7839 -85.5525 -101.126 86.2896 -85.0171 -104.058 86.228 
-84.5294 -106.209 85.7761 -83.9997 -107.946 85.3093 -83.6893 -109.08 84.7995 
-83.59 -109.316 84.1974 -88.1248 -92.1562 83.8432 -88.6004 -90.1035 82.9138 
-87.4638 -94.7364 84.7687 -86.6345 -97.7409 85.5141 -85.8927 -100.667 85.862 
[...]
CELL_DATA 2000
SCALARS Distance double
LOOKUP_TABLE default
130.585 130.623 130.965 131.728 130.775 131.084 131.921 132.223 133.087 
130.991 131.294 132.203 132.522 133.493 133.757 134.742 131.293 131.556 
132.509 132.853 133.895 134.217 135.258 135.52 136.534 131.839 131.988 
132.989 133.247 134.327 134.631 135.693 135.998 137.038 137.313 138.336 
132.638 132.702 133.738 133.876 134.968 135.162 136.241 136.468 137.552 
137.818 138.928 139.172 140.257 133.478 133.544 134.52 134.65 135.69 
135.87 136.965 137.143 138.278 138.46 139.631 139.832 140.979 141.16 
142.223 134.255 134.318 135.194 135.331 136.302 136.532 137.663 137.916 
139.14 139.324 140.537 140.662 141.818 141.933 143.013 143.121 144.116 
135.037 135.056 135.912 135.988 136.981 137.16 138.37 138.645 139.992 
140.234 141.525 141.644 142.815 142.864 143.973 144.006 145.076 145.076 
146.069 129.869 128.807 129.498 129.871 127.791 128.455 128.815 129.54 
129.983 126.727 127.435 127.785 128.501 128.942 129.699 130.188 125.584 
126.317 126.666 127.425 127.864 128.665 129.179 129.945 130.484 124.731 
125.245 125.556 126.243 126.654 127.516 128.078 128.941 129.526 130.303 
130.963 124.507 124.661 124.882 125.262 125.608 126.312 126.905 127.809 
128.487 129.34 130.03 130.875 131.687 124.721 124.652 124.782 124.858 
125.152 125.522 126.127 126.806 127.576 128.352 129.111 129.935 130.768 
131.674 132.559 125.112 124.939 125.044 124.956 125.258 125.378 126.015 
126.394 127.228 127.731 128.548 129.151 130.007 130.799 131.74 132.593 
133.45 125.691 125.424 125.59 125.383 125.736 125.699 126.353 126.549 
127.405 127.706 128.543 128.882 129.717 130.239 131.186 131.895 132.836 
133.538 134.325 126.173 127.165 126.451 126.134 128.454 127.63 127.32 
126.538 126.347 129.787 128.99 128.733 127.887 127.711 126.953 126.996 
131.172 130.353 130.156 129.333 129.196 128.42 128.467 127.801 128.014 
132.773 131.873 131.754 130.856 130.785 129.948 130.005 129.299 129.484 
128.865 129.093 134.467 133.594 133.578 132.638 132.643 131.689 131.762 
130.914 131.105 130.381 130.624 129.955 130.24 136.054 135.29 135.358 
134.519 134.587 133.652 133.723 132.788 132.959 132.125 132.406 131.63 
131.959 131.238 131.662 137.521 136.843 136.965 136.243 136.366 135.549 
135.636 134.744 134.878 134.029 134.287 133.498 133.821 133.058 133.426 
132.75 133.215 138.901 138.29 138.454 137.806 137.983 137.265 137.409 
136.597 136.742 135.915 136.144 135.364 135.65 134.895 135.189 134.482 
134.819 134.227 134.635 135.568 135.811 136.152 137.27 136.218 136.505 
137.664 138.089 139.519 136.723 136.999 138.178 138.558 139.985 140.522 
142.105 137.24 137.534 138.736 139.106 140.476 140.976 142.5 143.092 
144.613 137.795 138.065 139.255 139.634 140.941 141.415 142.825 143.41 
144.896 145.508 146.979 138.388 138.629 139.758 140.116 141.369 141.817 
143.15 143.684 145.105 145.733 147.241 147.876 149.393 138.909 139.17 
140.232 140.58 141.778 142.21 143.523 144.015 145.412 145.969 147.46 
148.106 149.671 150.324 151.848 139.332 139.61 140.624 140.985 142.126 
142.572 143.848 144.368 145.747 146.3 147.73 148.335 149.832 150.523 
152.046 152.719 154.132 139.717 139.983 140.949 141.311 142.393 142.847 
144.039 144.595 145.889 146.521 147.859 148.516 149.878 150.589 151.999 
152.765 154.146 154.841 156.069 135.792 137.534 136.641 136.742 139.897 
138.73 138.878 137.784 137.948 142.57 141.364 141.609 140.29 140.47 
139.221 139.466 145.099 144.042 144.34 143.113 143.303 141.978 142.16 
140.897 141.149 147.508 146.523 146.865 145.739 145.932 144.723 144.86 
143.622 143.758 142.548 142.682 150.024 149.036 149.541 148.355 148.668 
147.37 147.571 146.269 146.414 145.141 145.217 143.968 143.981 152.559 
151.665 152.386 151.248 151.808 150.411 150.782 149.237 149.473 147.95 
148.094 146.633 146.654 145.25 145.193 154.875 154.172 155.015 154.121 
154.888 153.709 154.258 152.724 152.981 151.272 151.385 149.728 149.758 
148.145 148.041 146.494 146.342 156.82 156.336 157.202 156.583 157.412 
156.61 157.263 156.088 156.342 154.768 154.716 153.042 152.936 151.311 
151.13 149.476 149.174 147.589 147.314 158.044 160.001 158.897 158.541 
161.786 160.842 160.553 159.354 158.846 162.912 162.371 162.078 161.203 
160.699 159.54 158.758 163.028 162.941 162.548 162.226 161.688 161.036 
160.211 159.093 157.85 162.678 162.661 162.196 162.169 161.714 161.556 
160.864 160.171 158.94 157.738 156.178 162.5 162.39 161.985 161.806 
161.502 161.438 161.063 160.648 159.647 158.633 157.123 155.87 154.305 
161.98 162.201 161.881 161.775 161.436 161.341 161.015 160.802 159.961 
159.222 157.739 156.654 155.014 153.915 152.369 160.521 161.239 160.928 
161.347 160.852 161.046 160.406 160.468 159.465 159.17 157.62 156.925 
155.144 154.315 152.638 151.789 150.25 158.631 159.435 159.1 159.873 
159.345 159.905 159.076 159.384 158.203 158.222 156.671 156.36 154.605 
154.08 152.392 151.777 150.255 149.576 148.227 158.018 158.361 158.796 
159.924 158.458 159.006 160.152 160.636 161.655 158.379 159 160.016 
160.621 161.601 162.152 162.823 157.908 158.78 159.708 160.324 161.079 
161.751 162.406 162.926 163.101 156.754 158.014 159.085 159.907 160.534 
161.09 161.545 162.188 162.519 162.912 162.854 155.165 156.576 157.771 
159.021 159.813 160.503 160.808 161.291 161.54 162.124 162.326 162.662 
162.596 153.628 154.895 155.951 157.417 158.349 159.495 159.901 160.521 
160.61 161.143 161.289 161.887 161.911 162.283 161.966 152.257 153.343 
154.167 155.506 156.355 157.732 158.286 159.307 159.457 160.137 160.155 
160.772 160.715 161.256 160.89 161.227 160.521 151.006 151.951 152.627 
153.755 154.467 155.726 156.31 157.492 157.802 158.745 158.831 159.559 
159.483 160.022 159.679 160.008 159.361 159.538 158.731 140.207 141.353 
141 141.475 142.576 142.236 142.816 142.408 142.964 143.857 143.541 
144.221 143.834 144.475 144.012 144.635 145.138 144.872 145.622 145.287 
145.998 145.572 146.263 145.788 146.487 146.341 146.16 146.993 146.72 
147.516 147.129 147.897 147.456 148.243 147.749 148.49 147.463 147.367 
148.319 148.125 149.049 148.714 149.618 149.187 150.099 149.594 150.455 
149.844 150.575 148.518 148.499 149.534 149.45 150.478 150.271 151.332 
151.014 152.106 151.62 152.612 151.95 152.788 152.023 152.736 149.461 
149.519 150.57 150.605 151.675 151.633 152.795 152.7 153.964 153.686 
154.811 154.221 155.098 154.325 155.063 154.237 154.882 150.266 150.387 
151.431 151.557 152.666 152.752 153.982 154.068 155.43 155.419 156.637 
156.306 157.176 156.556 157.219 156.497 157.092 156.301 156.793 139.701 
139.293 139.914 140.773 138.844 139.48 140.313 140.986 141.905 138.378 
139.013 139.849 140.513 141.424 142.143 143.13 137.969 138.574 139.42 
140.061 140.988 141.687 142.679 143.403 144.396 137.569 138.181 139 
139.635 140.533 141.245 142.236 142.972 143.937 144.637 145.559 137.093 
137.727 138.506 139.168 139.988 140.719 141.657 142.463 143.428 144.166 
145.035 145.728 146.606 136.677 137.23 137.988 138.629 139.415 140.113 
140.964 141.779 142.739 143.582 144.499 145.213 146.045 146.744 147.621 
136.491 136.902 137.631 138.163 138.948 139.558 140.346 141.055 141.93 
142.799 143.77 144.626 145.519 146.223 147.039 147.739 148.577 136.469 
136.801 137.48 137.9 138.65 139.165 139.918 140.489 141.234 141.966 
142.842 143.777 144.728 145.614 146.452 147.173 147.933 148.637 149.401 
136.674 137.292 137.214 137.688 137.933 137.864 138.4 138.301 138.844 
138.669 138.576 139.193 139.086 139.679 139.535 140.094 139.528 139.406 
140.094 139.974 140.603 140.416 140.94 140.762 141.331 140.467 140.321 
141.01 140.904 141.533 141.352 141.836 141.611 142.157 142.056 142.834 
141.468 141.282 141.904 141.777 142.376 142.237 142.742 142.521 143.086 
142.947 143.786 143.774 144.734 142.456 142.264 142.795 142.622 143.171 
143.051 143.647 143.477 144.145 143.975 144.847 144.797 145.786 145.734 
146.566 143.247 143.134 143.566 143.42 143.909 143.834 144.516 144.449 
145.26 145.127 146.031 145.92 146.88 146.795 147.64 147.463 148.108 
143.745 143.74 144.117 144.057 144.538 144.536 145.286 145.341 146.273 
146.26 147.216 147.119 148.052 147.922 148.769 148.572 149.27 148.983 
149.572 144.065 144.871 144.457 144.516 146.407 145.616 145.747 145.061 
145.144 148.5 147.578 147.815 146.775 146.927 145.983 146.127 150.363 
149.699 150.055 149.093 149.255 148.129 148.229 147.172 147.264 152.023 
151.438 151.906 151.187 151.423 150.453 150.503 149.405 149.408 148.324 
148.289 153.967 153.256 153.812 153.046 153.431 152.527 152.684 151.631 
151.641 150.516 150.44 149.298 149.155 155.745 155.236 155.833 155.12 
155.589 154.666 154.919 153.841 153.905 152.758 152.678 151.485 151.275 
150.088 149.831 156.887 156.716 157.361 156.987 157.5 156.816 157.073 
156.099 156.124 155.008 154.878 153.696 153.417 152.19 151.809 150.637 
150.273 157.816 157.711 158.45 158.27 158.854 158.457 158.745 158.045 
158.055 157.107 156.941 155.828 155.506 154.279 153.821 152.58 152.095 
150.961 150.546 143.845 143.588 143.998 144.631 143.284 143.773 144.582 
145.032 146.063 143.073 143.58 144.555 145.071 146.221 146.763 148.03 
142.912 143.467 144.54 145.123 146.299 146.882 148.069 148.674 149.808 
142.611 143.265 144.326 145.047 146.168 146.837 147.905 148.553 149.643 
150.294 151.432 142.168 142.851 143.838 144.66 145.725 146.512 147.524 
148.248 149.367 150.116 151.419 152.087 153.388 141.754 142.37 143.302 
144.089 145.154 145.968 147.017 147.786 148.956 149.814 151.225 152.083 
153.455 154.092 155.181 141.428 141.979 142.873 143.582 144.653 145.438 
146.532 147.296 148.451 149.343 150.713 151.738 153.089 153.947 154.953 
155.549 156.285 141.139 141.661 142.509 143.171 144.191 144.964 146.028 
146.81 147.879 148.756 149.981 151.047 152.334 153.35 154.375 155.119 
155.866 156.436 157.144 143.349 142.234 142.913 142.999 140.856 141.649 
141.818 142.49 142.591 139.601 140.309 140.534 141.251 141.413 142.082 
142.269 138.415 139.106 139.265 139.984 140.171 140.883 141.067 141.784 
142.034 137.032 137.797 137.855 138.631 138.741 139.561 139.736 140.531 
140.726 141.512 141.736 135.629 136.353 136.401 137.137 137.19 138.017 
138.153 139.053 139.24 140.119 140.312 141.143 141.336 134.351 135.029 
135.122 135.769 135.835 136.519 136.617 137.424 137.584 138.5 138.714 
139.647 139.88 140.737 140.955 133.104 133.788 133.898 134.554 134.615 
135.249 135.301 135.984 136.077 136.869 137.048 137.977 138.262 139.232 
139.532 140.398 140.647 131.938 132.569 132.671 133.317 133.34 133.983 
133.98 134.664 134.719 135.448 135.58 136.388 136.646 137.591 137.956 
138.926 139.26 140.115 140.374 131.372 130.664 131.383 132.051 129.779 
130.601 131.268 131.998 132.642 128.957 129.735 130.464 131.175 131.816 
132.553 133.248 128.544 129.111 129.922 130.497 131.206 131.815 132.575 
133.271 134.058 128.527 128.902 129.7 130.152 130.932 131.411 132.229 
132.785 133.644 134.222 135.015 128.707 128.957 129.674 130.041 130.831 
131.268 132.121 132.603 133.485 133.971 134.817 135.283 136.107 129.087 
129.206 129.914 130.132 130.94 131.271 132.164 132.577 133.496 133.922 
134.81 135.219 136.103 136.525 137.428 129.664 129.704 130.456 130.547 
131.386 131.56 132.477 132.75 133.703 134.035 134.969 135.319 136.239 
136.615 137.536 137.928 138.789 130.284 130.33 131.074 131.16 131.967 
132.102 132.967 133.168 134.08 134.341 135.265 135.562 136.479 136.807 
137.708 138.061 138.902 139.238 139.968 130.847 131.975 131.475 131.656 
133.277 132.66 132.847 132.343 132.568 134.897 134.102 134.247 133.608 
133.862 133.326 133.591 136.716 135.856 135.977 135.163 135.377 134.715 
135.017 134.429 134.717 138.554 137.712 137.856 136.981 137.14 136.35 
136.611 135.94 136.254 135.619 135.907 140.494 139.625 139.818 138.892 
139.027 138.15 138.348 137.599 137.891 137.218 137.525 136.849 137.125 
142.48 141.652 141.926 140.96 141.107 140.1 140.241 139.366 139.618 
138.893 139.204 138.51 138.79 138.081 138.336 144.355 143.617 143.972 
143.108 143.317 142.281 142.372 141.339 141.5 140.654 140.937 140.212 
140.488 139.76 139.978 139.263 139.476 146.222 145.468 145.845 145.087 
145.372 144.465 144.574 143.517 143.564 142.58 142.749 141.951 142.196 
141.457 141.644 140.893 141.033 140.332 140.488 141.222 141.851 141.883 
142.65 142.535 142.601 143.456 143.473 144.353 143.141 143.293 144.197 
144.294 145.218 145.261 146.163 143.781 143.928 144.919 145.036 146.023 
146.107 147.093 147.105 148.04 144.701 144.749 145.906 145.929 147.097 
147.074 148.237 148.17 149.304 149.159 150.225 145.738 145.818 147.076 
147.116 148.45 148.407 149.751 149.604 150.891 150.657 151.83 151.541 
152.584 146.508 146.766 148.015 148.246 149.605 149.769 151.178 151.203 
152.551 152.387 153.561 153.237 154.187 153.822 154.596 147.013 147.392 
148.681 149.047 150.455 150.784 152.266 152.495 153.944 153.974 155.241 
154.989 155.951 155.47 156.149 155.639 156.164 147.485 147.901 149.319 
149.721 151.27 151.64 153.284 153.583 155.211 155.343 156.783 156.649 
157.764 157.314 158.069 157.381 157.885 157.176 157.586 125.68 125.108 
125.409 125.522 124.651 124.864 124.895 125.252 125.407 124.313 124.388 
124.344 124.639 124.783 125.195 125.489 124.423 124.159 124.042 124.152 
124.363 124.7 125.082 125.46 125.958 125.253 124.606 124.417 124.116 
124.313 124.45 124.9 125.196 125.703 126.087 126.729 126.457 125.715 
125.525 124.874 124.927 124.666 124.989 125.086 125.505 125.826 126.392 
126.911 127.637 127.573 126.946 126.825 126.146 126.118 125.551 125.672 
125.371 125.641 125.678 126.187 126.58 127.346 127.883 128.646 128.6 
128.03 127.959 127.381 127.377 126.793 126.866 126.312 126.501 126.13 
126.6 126.62 127.437 127.769 128.669 129.009 129.722 129.673 129.095 
129.041 128.475 128.482 127.962 128.07 127.557 127.765 127.262 127.666 
127.374 128.097 128.14 129.043 129.24 130.038 130.18 130.795 126.12 
125.977 126.305 126.886 125.914 126.215 126.827 127.171 127.841 125.997 
126.21 126.852 127.168 127.853 128.182 128.881 126.438 126.448 127.073 
127.264 127.947 128.219 128.895 129.228 129.953 127.261 127.099 127.686 
127.65 128.293 128.399 129.054 129.279 129.984 130.325 131.088 128.213 
128.019 128.559 128.388 128.932 128.873 129.485 129.56 130.246 130.445 
131.191 131.494 132.242 129.115 128.928 129.402 129.227 129.676 129.552 
130.096 130.088 130.741 130.823 131.512 131.681 132.395 132.654 133.358 
130.022 129.779 130.203 130.014 130.471 130.308 130.851 130.762 131.396 
131.382 132.016 132.064 132.704 132.866 133.565 133.798 134.48 131.002 
130.687 131.093 130.852 131.366 131.173 131.763 131.603 132.22 132.101 
132.686 132.615 133.187 133.228 133.884 134.059 134.766 134.954 135.582 
126.451 127.236 126.987 127.422 128.165 127.845 128.259 128.086 128.652 
129.209 128.833 129.202 128.948 129.48 129.357 129.956 130.34 129.943 
130.324 129.959 130.456 130.231 130.856 130.704 131.353 131.5 131.123 
131.547 131.145 131.62 131.295 131.919 131.704 132.416 132.216 132.935 
132.619 132.281 132.714 132.357 132.81 132.475 133.045 132.813 133.519 
133.336 134.061 133.86 134.571 133.693 133.365 133.786 133.473 133.93 
133.624 134.155 133.91 134.561 134.4 135.112 134.956 135.64 135.456 
136.116 134.765 134.418 134.813 134.509 134.981 134.715 135.272 135.017 
135.636 135.424 136.101 135.95 136.636 136.481 137.124 136.942 137.559 
135.808 135.465 135.816 135.51 135.96 135.735 136.313 136.115 136.737 
136.512 137.132 136.933 137.575 137.429 138.064 137.913 138.508 138.335 
138.909 143.309 142.731 142.787 142.148 141.86 142.021 141.326 141.398 
140.691 140.842 141.042 140.368 140.491 139.825 139.954 139.411 139.826 
140.014 139.375 139.529 138.891 139.064 138.533 138.752 138.251 138.882 
139.034 138.393 138.545 137.86 138.053 137.426 137.733 137.181 137.48 
136.88 138.052 138.144 137.495 137.593 136.872 136.988 136.276 136.521 
135.933 136.286 135.744 136.039 135.466 137.343 137.37 136.7 136.734 
136.013 136.053 135.356 135.462 134.901 135.126 134.66 134.925 134.426 
134.673 134.158 136.717 136.699 135.985 135.96 135.213 135.232 134.565 
134.647 134.106 134.252 133.781 133.963 133.454 133.652 133.106 133.365 
132.875 136.123 136.087 135.359 135.274 134.507 134.472 133.807 133.881 
133.332 133.474 132.946 133.107 132.54 132.705 132.12 132.323 131.809 
132.101 131.7 
POINT_DATA 1002
SCALARS Distance double
LOOKUP_TABLE default
131.308 130.24 130.208 131.383 130.281 132.496 131.59 130.456 132.794 
133.975 131.838 130.683 133.185 134.506 135.751 132.153 131.047 133.541 
134.965 136.307 137.55 132.769 131.705 134.051 135.394 136.726 138.088 
139.378 133.637 132.576 134.814 136.047 137.289 138.646 140.055 141.345 
134.425 133.439 135.505 136.756 138.099 139.451 140.802 142.085 143.245 
135.095 134.236 136.068 137.34 138.9 140.427 141.738 142.919 144.04 
145.068 135.84 135.04 136.805 138.075 139.702 141.38 142.771 143.94 
145.067 146.127 147.017 129.162 129.128 128.135 128.106 127.135 129.216 
127.069 125.983 128.184 129.43 125.905 124.871 127.028 128.386 129.726 
124.968 124.363 125.803 127.137 128.715 130.141 124.662 124.506 125.025 
126.003 127.58 129.17 130.784 124.797 124.868 124.895 125.544 126.842 
128.313 129.856 131.668 125.159 125.317 125.182 125.703 126.805 128.047 
129.292 130.88 132.679 125.804 125.956 125.816 126.217 127.144 128.273 
129.313 130.551 132.132 133.703 126.764 126.79 127.946 128.162 129.26 
127.014 129.551 130.552 128.491 127.632 130.96 132.007 129.961 129.141 
128.63 132.656 133.66 131.65 130.747 130.13 129.697 134.471 135.274 
133.612 132.674 131.87 131.32 130.861 136.129 136.763 135.477 134.676 
133.824 133.189 132.713 132.308 137.642 138.163 137.126 136.499 135.736 
135.078 134.597 134.157 133.816 139.069 139.476 138.654 138.173 137.559 
136.936 136.421 135.935 135.476 135.167 136.499 136.794 138.521 137.247 
138.956 141.087 137.817 139.475 141.529 143.707 138.368 140.029 141.93 
144.049 146.093 138.895 140.509 142.292 144.259 146.389 148.461 139.438 
140.948 142.656 144.508 146.557 148.786 150.941 139.905 141.36 143.033 
144.888 146.849 148.982 151.253 153.36 140.277 141.696 143.327 145.19 
147.17 149.182 151.342 153.552 155.495 140.609 141.967 143.521 145.273 
147.211 149.207 151.253 153.411 155.487 157.235 137.585 140.087 138.966 
142.925 141.824 140.627 145.504 144.602 143.493 142.371 147.977 147.119 
146.084 145.01 143.901 150.677 149.976 148.914 147.721 146.519 145.238 
153.389 153.103 152.355 151.087 149.621 148.152 146.582 155.785 155.89 
155.689 154.748 153.125 151.425 149.713 147.842 157.747 158.094 158.272 
157.848 156.449 154.592 152.808 150.883 148.807 159.162 159.794 161.056 
161.687 162.626 160.189 162.811 163.308 161.746 160.175 162.713 163.069 
162.128 161.2 159.273 162.209 162.759 161.673 161.35 160.056 157.509 
162.206 162.54 161.542 161.298 160.553 158.352 155.527 161.863 161.544 
161.58 161.191 160.568 158.783 156.104 153.426 160.324 159.707 160.61 
160.381 159.664 158.185 155.912 153.432 151.068 158.288 157.907 158.702 
158.744 158.129 156.842 155.006 152.913 150.842 148.861 157.671 159.568 
157.859 159.608 157.926 161.297 159.483 157.745 160.976 162.546 159.129 
156.864 160.531 161.75 162.936 158.063 155.351 160.077 161.01 161.89 
162.739 156.33 153.835 158.937 160.438 160.989 161.752 162.496 154.542 
152.524 157.001 159.125 160.151 160.704 161.424 161.824 152.979 151.279 
154.996 157.087 158.66 159.572 160.202 160.534 160.327 151.606 150.14 
153.308 155.114 156.746 158.016 158.917 159.342 159.175 158.593 140.541 
141.853 141.669 143.191 142.871 143.407 144.565 144.141 144.911 145.114 
145.916 145.363 146.391 146.701 146.984 147.209 146.457 147.861 148.307 
148.694 149.062 148.443 147.497 149.312 149.985 150.574 151.039 151.274 
149.563 148.501 150.605 151.53 152.497 153.259 153.549 153.553 150.502 
149.388 151.657 152.782 154.092 155.318 155.872 155.888 155.761 139.091 
140.113 138.681 139.651 138.205 141.179 139.188 137.747 140.714 142.384 
138.791 137.374 140.287 141.967 143.691 138.382 136.955 139.832 141.485 
143.263 144.864 137.847 136.48 139.293 140.845 142.649 144.379 145.87 
137.369 136.185 138.752 140.206 141.85 143.726 145.398 146.873 137.155 
136.137 138.373 139.722 141.117 142.829 144.761 146.404 147.849 137.114 