# vtk DataFile Version 4.0
vtk output
ASCII
DATASET POLYDATA
POINTS 1002 float
-84.9805 -86.2713 73.5081 -85.1317 -85.6765 72.26 -84.8386 -85.3191 73.1298 
-84.6883 -85.985 74.5319 -84.5803 -84.964 74.2194 -84.8493 -86.9827 74.999 
-84.2198 -85.7978 75.4783 -84.0463 -84.8241 75.0429 -84.4069 -86.9002 75.9691 
-84.5746 -87.9348 76.5028 -83.383 -85.8689 76.0313 -83.2142 -84.8261 75.606 
-83.6911 -86.9652 76.6687 -83.9822 -88.0722 77.3538 -84.141 -89.1071 77.943 
-82.6338 -85.9975 76.7915 -82.6179 -84.7419 76.5652 -82.8786 -87.1685 77.3049 
-83.2888 -88.2749 78.0735 -83.5685 -89.3496 78.849 -83.761 -90.4187 79.4917 
-82.4293 -86.0483 78.2269 -82.4276 -84.759 77.9595 -82.467 -87.3092 78.5598 
-82.7153 -88.4802 79.0541 -82.9838 -89.6607 79.7423 -83.1905 -90.8415 80.4693 
-83.4446 -91.9786 81.0856 -82.2285 -86.2737 79.608 -82.0909 -85.1023 79.2415 
-82.2637 -87.4795 80.0514 -82.3163 -88.6818 80.4152 -82.4177 -90.0474 80.791 
-82.5414 -91.4264 81.3564 -82.7624 -92.6134 81.9737 -83.0387 -93.6639 82.5128 
-81.5779 -86.6678 80.5909 -81.4735 -85.5644 80.4064 -81.711 -87.8577 81.026 
-81.827 -89.0525 81.5554 -81.9121 -90.4786 81.9631 -81.9848 -92.0345 82.3754 
-82.1396 -93.2661 82.8882 -82.3862 -94.2177 83.3913 -82.6054 -95.1638 83.8819 
-80.9878 -87.0115 81.6759 -81.0597 -85.9868 81.6415 -81.0745 -88.2561 81.8957 
-81.284 -89.5533 82.4015 -81.5016 -90.94 83.0266 -81.6367 -92.4861 83.5877 
-81.7618 -93.8204 84.0859 -81.9511 -94.792 84.5209 -82.1204 -95.7394 84.9136 
-82.213 -96.7771 85.3242 -80.9006 -87.3628 82.9425 -81.0747 -86.4527 82.7995 
-80.8627 -88.5683 83.1173 -80.9924 -89.9614 83.4463 -81.221 -91.3719 84.0138 
-81.3973 -92.8312 84.7077 -81.5063 -94.2685 85.3413 -81.6572 -95.5042 85.8286 
-81.7969 -96.6644 86.1742 -81.8193 -97.8805 86.4414 -81.7891 -98.993 86.6832 
-85.102 -84.8502 71.6087 -84.7886 -84.4243 72.5528 -85.0528 -83.9211 70.9997 
-84.6737 -83.4885 71.9695 -84.9914 -82.9483 70.4568 -84.4952 -84.0812 73.6696 
-84.5345 -82.4779 71.4244 -84.9294 -81.9242 70.0027 -84.2662 -83.1465 73.0559 
-83.9153 -83.9114 74.5282 -84.4258 -81.3825 71.021 -84.7747 -80.7923 69.5879 
-83.9918 -82.0713 72.5372 -83.5971 -82.8654 74.028 -83.0946 -83.712 75.2935 
-84.329 -80.3308 70.8768 -84.664 -79.6634 69.4131 -83.8754 -81.026 72.3622 
-83.2623 -81.7969 73.7236 -82.7796 -82.5999 75.0321 -82.5186 -83.5165 76.4211 
-84.4139 -79.479 71.2125 -84.9883 -78.8737 69.8579 -83.9692 -80.1725 72.6534 
-83.2425 -80.9138 73.8503 -82.5096 -81.726 74.9336 -82.2169 -82.573 76.249 
-82.2144 -83.6869 77.8003 -84.8567 -78.9436 72.0091 -85.7058 -78.5995 70.7902 
-84.2272 -79.4723 73.3169 -83.4936 -80.0931 74.4178 -82.5968 -80.8961 75.2828 
-82.0367 -81.8188 76.3092 -81.9195 -82.8762 77.7419 -81.8065 -84.1826 79.2316 
-85.4874 -78.742 72.8822 -86.4004 -78.65 71.7446 -84.6268 -79.0178 74.064 
-83.7835 -79.3825 75.1357 -82.8749 -79.9784 76.0269 -82.1567 -80.8993 76.8839 
-81.8452 -82.0422 78.0349 -81.6807 -83.3665 79.4404 -81.3892 -84.7357 80.6863 
-86.081 -78.7557 73.6056 -86.8842 -78.7757 72.5477 -85.1623 -78.8939 74.7 
-84.1755 -79.0828 75.7464 -83.2048 -79.4137 76.7553 -82.43 -80.1133 77.7002 
-82.0016 -81.1872 78.6702 -81.7935 -82.5345 79.8279 -81.5567 -83.9854 81.0118 
-81.2676 -85.303 81.9837 -86.8383 -78.8791 73.9506 -86.0416 -78.9623 75.0396 
-86.8537 -79.1882 75.4148 -86.0411 -79.3952 76.4851 -86.8148 -79.7671 76.8176 
-85.0192 -79.1502 76.112 -85.9589 -80.0346 77.9034 -86.5762 -80.4997 78.1774 
-84.9574 -79.681 77.571 -83.888 -79.3869 77.2112 -85.7414 -80.7881 79.4194 
-86.3239 -81.2611 79.7562 -84.958 -80.4261 79.0919 -83.8653 -80.1305 78.7624 
-82.9303 -79.8924 78.354 -85.5705 -81.629 81.1273 -86.2622 -82.0549 81.4403 
-84.9192 -81.2599 80.7562 -84.0467 -81.1003 80.3377 -83.0378 -80.9138 79.9417 
-82.3352 -80.8067 79.413 -85.502 -82.5596 82.7182 -86.2123 -82.9677 82.8289 
-84.8269 -82.1636 82.4822 -84.1336 -82.0269 82.0005 -83.2889 -82.0424 81.4723 
-82.5144 -81.9694 81.0103 -82.0399 -82.0711 80.4652 -85.4247 -83.6004 84.0379 
-86.037 -84.0416 83.9824 -84.7669 -83.1897 84.017 -84.1053 -83.0242 83.6476 
-83.411 -83.0742 83.0713 -82.7307 -83.14 82.5501 -82.2013 -83.2665 82.0666 
-81.8229 -83.5737 81.5567 -85.3419 -84.7607 85.2308 -85.8689 -85.1982 85.0992 
-84.7907 -84.3524 85.3251 -84.173 -84.2352 85.0651 -83.5043 -84.2934 84.5535 
-82.8698 -84.2955 84.0768 -82.3573 -84.403 83.5665 -81.9515 -84.7178 83.0062 
-81.5747 -85.042 82.5019 -85.3076 -85.968 86.2792 -85.8156 -86.3098 86.1182 
-84.8343 -85.602 86.4214 -84.3113 -85.5263 86.2331 -83.6762 -85.6761 85.7601 
-83.0082 -85.6524 85.3699 -82.4535 -85.5658 84.9786 -82.0639 -85.7828 84.365 
-81.7395 -86.125 83.763 -81.3875 -86.3176 83.3001 -81.2215 -87.5957 84.0208 
-81.5551 -87.573 84.4725 -81.4221 -89.0764 85.4056 -81.8247 -87.3927 84.9931 
-81.6943 -89.1576 85.8622 -81.4377 -90.7913 86.8648 -82.0884 -87.0549 85.7148 
-81.9125 -88.9862 86.4867 -81.7468 -90.9593 87.4018 -81.3409 -92.5831 88.2888 
-82.5209 -86.9774 86.2607 -82.1808 -88.6669 87.198 -82.0532 -90.8303 88.063 
-81.7564 -92.8213 88.8551 -81.3074 -94.6272 89.6263 -83.1582 -87.117 86.5378 
-82.6171 -88.562 87.6097 -82.3299 -90.4887 88.6582 -82.1178 -92.7838 89.4195 
-81.6731 -94.8689 90.1141 -81.2869 -97.0776 90.8167 -83.8513 -87.015 86.9431 
-83.2271 -88.5299 87.8884 -82.7041 -90.2167 89.0383 -82.4132 -92.4849 89.8838 
-82.0409 -94.9115 90.5334 -81.5855 -97.1669 91.2544 -81.3129 -99.6081 91.7504 
-84.4459 -86.8607 87.3211 -83.8908 -88.3881 88.2228 -83.2881 -90.0528 89.3216 
-82.8654 -92.1555 90.2196 -82.4969 -94.7133 90.8144 -82.0183 -97.1434 91.5544 
-81.6261 -99.4346 92.204 -81.4153 -101.895 92.3101 -84.9572 -87.0055 87.3281 
-84.5105 -88.3437 88.3369 -83.977 -89.94 89.4427 -83.5138 -91.8763 90.4055 
-83.108 -94.3268 90.9827 -82.5886 -96.9038 91.6425 -82.0206 -99.1822 92.4579 
-81.6212 -101.454 92.7898 -81.3916 -103.91 92.5232 -85.4945 -87.2697 87.1387 
-85.1216 -88.4156 88.2025 -84.6575 -89.834 89.3509 -84.1872 -91.587 90.3999 
-83.7508 -93.8065 91.064 -83.2272 -96.3675 91.6589 -82.5606 -98.7603 92.5174 
-81.9145 -100.916 93.1317 -81.4635 -103.226 93.0652 -81.1836 -105.651 92.6123 
-81.0658 -88.6801 84.4114 -81.1801 -90.3183 85.9957 -80.9842 -90.0654 84.7477 
-81.0476 -92.1439 87.5115 -80.9613 -91.8288 86.4142 -81.0364 -91.6194 85.1226 
-81.0024 -94.3391 89.005 -80.8762 -94.0639 88.0481 -80.9583 -93.6993 86.8363 
-81.1646 -93.2351 85.7109 -81.1124 -97.1585 90.4092 -81.0519 -97.1554 89.7402 
-81.0252 -96.7559 88.633 -81.055 -95.8718 87.4406 -81.2466 -94.9345 86.4274 
-81.0846 -100.12 91.3988 -80.9888 -100.505 91.0315 -81.0073 -100.415 90.2989 
-81.0022 -99.5488 89.1519 -81.0754 -98.1066 88.0709 -81.351 -96.6429 87.0579 
-81.0847 -102.698 91.8864 -80.6024 -103.221 91.5696 -80.3064 -103.303 91.1904 
-80.4303 -102.902 90.4209 -80.7476 -101.909 89.4642 -81.1013 -100.27 88.5735 
-81.48 -98.3254 87.4996 -81.1792 -104.948 92.0431 -80.5681 -105.527 91.6918 
-79.753 -105.504 91.4084 -79.4859 -105.182 90.9233 -79.9593 -104.802 90.2489 
-80.581 -104.001 89.6037 -81.054 -102.28 88.8373 -81.4573 -99.9443 87.7268 
-81.0795 -106.901 92.0984 -80.72 -107.684 91.7372 -79.9435 -107.809 91.4728 
-79.2592 -107.475 91.0487 -79.3258 -107.046 90.445 -79.9121 -106.637 89.9349 
-80.4369 -105.76 89.4955 -80.8622 -103.845 88.8076 -81.3231 -101.272 87.7991 
-80.8417 -108.101 92.4395 -80.6161 -109.289 91.9468 -80.4285 -110.241 92.4434 
-79.9284 -111.179 91.847 -80.056 -111.778 92.3136 -80.2043 -109.937 91.5931 
-79.2696 -112.722 91.3942 -79.9772 -113.188 91.5809 -79.4752 -112.005 91.2461 
-79.5997 -110.137 91.1673 -79.2072 -114.605 90.4938 -80.2897 -114.799 90.4642 
-78.7972 -114.079 90.4969 -79.1911 -112.648 90.502 -79.2898 -109.835 90.4706 
-79.8403 -116.4 89.5436 -80.691 -115.674 89.5956 -78.8261 -116.125 89.5886 
-78.7392 -114.801 89.6129 -79.2537 -112.128 89.6444 -79.5401 -109.058 89.8012 
-80.5392 -116.708 88.7634 -81.0599 -115.171 89.0641 -79.5743 -117.18 88.6866 
-78.8202 -116.082 88.76 -79.0604 -113.564 88.8803 -79.5904 -110.59 89.1105 
-79.9582 -108.133 89.4382 -81.114 -115.661 88.1846 -81.697 -114.109 88.6239 
-80.3645 -116.67 87.8757 -79.4584 -116.251 87.9138 -79.2297 -114.246 88.2664 
-79.6556 -111.48 88.6375 -80.0111 -108.999 88.942 -80.3505 -106.682 89.0871 
-81.8871 -114.349 87.895 -82.6262 -113.101 88.2663 -81.0906 -115.333 87.493 
-80.2029 -115.438 87.3291 -79.7399 -114.276 87.6988 -79.988 -112.023 88.2884 
-80.3496 -109.411 88.6232 -80.5448 -106.898 88.6751 -80.8649 -104.204 88.4283 
-82.7975 -112.883 87.8578 -83.4961 -111.834 88.0825 -81.9519 -113.676 87.5922 
-81.0442 -113.9 87.3453 -80.4229 -113.312 87.4537 -80.4334 -111.753 87.9461 
-80.7931 -109.342 88.3302 -81.0305 -106.618 88.3499 -81.1938 -103.955 88.0788 
-81.469 -101.366 87.5113 -81.1988 -105.668 93.0811 -80.9968 -108.16 93.0008 
-81.5775 -105.417 93.5392 -81.5635 -107.809 93.3679 -82.1869 -104.879 93.6549 
-80.9106 -110.322 93.0303 -82.1082 -106.993 93.1727 -82.7984 -104.12 93.4514 
-81.6479 -109.86 93.1188 -80.9273 -111.882 92.6708 -82.6701 -105.933 92.9219 
-83.6091 -103.311 93.3411 -82.082 -108.736 92.6126 -81.6669 -111.247 92.3944 
-80.9932 -113.169 91.5738 -83.6835 -104.893 93.0783 -84.5286 -102.479 93.1134 
-82.7331 -107.403 92.4357 -82.0839 -109.832 91.8771 -81.5899 -112.128 91.2846 
-81.059 -114.101 90.4284 -84.6099 -103.721 92.881 -85.1823 -101.444 92.3217 
-83.7593 -106.066 92.6196 -82.8732 -108.314 91.8372 -82.2578 -110.528 91.1709 
-81.7281 -112.534 90.5836 -81.2563 -114.062 89.8575 -85.1765 -102.251 92.0206 
-85.8222 -100.09 91.3465 -84.4449 -104.448 92.2822 -83.6715 -106.638 91.8474 
-83.1712 -108.89 91.2177 -82.8618 -110.961 90.822 -82.3541 -112.384 90.3081 
-81.8594 -113.316 89.4794 -85.9588 -100.584 91.1275 -86.6752 -98.5267 90.5748 
-85.1402 -102.676 91.5602 -84.3324 -104.69 91.549 -83.8226 -106.833 91.141 
-83.7638 -109.121 90.817 -83.6745 -110.896 90.5271 -83.2252 -111.862 89.8579 
-82.7942 -112.513 88.9673 -86.9229 -98.884 90.3407 -87.4341 -97.017 89.8111 
-86.2271 -100.94 90.833 -85.4458 -102.868 91.1377 -84.7329 -104.664 91.0625 
[...]
CELL_DATA 2000
SCALARS Distance double
LOOKUP_TABLE default
140.069 140.215 140.436 141.1 140.329 140.6 141.264 141.544 142.264 
140.223 140.595 141.246 141.644 142.392 142.732 143.481 140.214 140.495 
141.208 141.587 142.424 142.83 143.684 143.995 144.816 140.705 140.781 
141.632 141.778 142.708 142.974 143.944 144.248 145.189 145.447 146.37 
141.427 141.494 142.394 142.456 143.369 143.475 144.433 144.636 145.629 
145.879 146.854 147.088 148.018 141.996 142.133 142.946 143.14 143.987 
144.155 145.054 145.226 146.215 146.415 147.415 147.605 148.531 148.71 
149.565 142.588 142.625 143.371 143.555 144.424 144.662 145.625 145.849 
146.898 147.091 148.15 148.274 149.24 149.308 150.197 150.275 151.139 
143.438 143.321 144.082 144.097 145.029 145.173 146.234 146.449 147.577 
147.802 148.926 149.081 150.133 150.168 151.161 151.122 152.106 152.046 
153.005 139.478 138.602 139.207 139.576 137.689 138.303 138.684 139.352 
139.72 136.77 137.367 137.707 138.41 138.79 139.431 139.668 135.839 
136.439 136.713 137.385 137.728 138.43 138.705 139.302 139.577 134.984 
135.55 135.891 136.455 136.774 137.376 137.681 138.308 138.654 139.325 
139.887 134.608 134.931 135.451 135.845 136.261 136.627 136.949 137.4 
137.801 138.427 139.036 139.824 140.574 134.983 134.958 135.522 135.692 
136.192 136.367 136.704 136.919 137.302 137.732 138.356 139.034 139.823 
140.575 141.29 135.81 135.59 136.024 135.982 136.406 136.446 136.761 
136.842 137.182 137.426 138.008 138.508 139.324 139.961 140.777 141.354 
142.023 136.652 136.413 136.726 136.558 136.869 136.76 137.038 136.999 
137.341 137.443 137.995 138.317 139.114 139.622 140.507 141.025 141.809 
142.231 142.914 137.176 138.046 137.479 137.269 139.069 138.435 138.177 
137.577 137.346 140.127 139.498 139.241 138.553 138.248 137.64 137.442 
141.23 140.581 140.409 139.698 139.454 138.692 138.472 137.829 137.768 
142.514 141.791 141.697 140.965 140.858 140.059 139.931 139.106 139.055 
138.36 138.485 143.858 143.154 143.088 142.354 142.312 141.549 141.513 
140.695 140.689 139.875 140.002 139.308 139.615 145.108 144.48 144.466 
143.778 143.772 143.04 143.051 142.288 142.335 141.555 141.694 140.956 
141.238 140.591 140.976 146.335 145.74 145.816 145.17 145.248 144.538 
144.61 143.855 143.945 143.188 143.339 142.625 142.871 142.222 142.533 
141.934 142.25 147.565 147.006 147.14 146.546 146.689 146.037 146.164 
145.446 145.558 144.811 144.941 144.226 144.419 143.778 144.037 143.441 
143.707 143.115 143.357 144.194 144.582 144.828 145.789 144.923 145.203 
146.202 146.543 147.629 145.303 145.548 146.564 146.938 148.103 148.452 
149.55 145.822 145.991 146.982 147.311 148.512 148.931 150.134 150.405 
151.504 146.426 146.56 147.493 147.746 148.874 149.311 150.557 150.962 
152.113 152.385 153.558 147.005 147.156 148.043 148.247 149.263 149.637 
150.827 151.311 152.518 152.917 154.078 154.447 155.687 147.495 147.683 
148.548 148.757 149.714 150.016 151.126 151.563 152.778 153.25 154.457 
154.887 156.077 156.506 157.674 147.905 148.116 148.959 149.202 150.132 
150.434 151.482 151.872 153.02 153.489 154.683 155.179 156.337 156.805 
157.878 158.317 159.287 148.287 148.492 149.304 149.56 150.45 150.778 
151.76 152.161 153.208 153.676 154.777 155.315 156.427 156.954 157.963 
158.419 159.294 159.725 160.516 144.244 145.909 144.997 144.953 147.794 
146.828 146.821 145.858 145.921 149.685 148.753 148.791 147.825 147.897 
146.955 147.126 151.71 150.745 150.919 149.897 150.07 149.035 149.227 
148.258 148.495 153.99 153.022 153.523 152.384 152.817 151.525 151.816 
150.551 150.781 149.693 149.899 156.245 155.438 156.147 155.199 155.845 
154.601 154.984 153.489 153.675 152.231 152.372 151.128 151.207 158.21 
157.602 158.215 157.567 158.075 157.3 157.602 156.528 156.645 155.286 
155.347 153.878 153.887 152.461 152.378 159.817 159.383 159.905 159.344 
159.638 159.017 159.134 158.494 158.583 157.808 157.918 156.816 156.83 
155.37 155.203 153.637 153.404 161.061 160.8 161.361 160.899 161.213 
160.513 160.604 159.847 159.935 159.311 159.516 158.898 159.047 158.08 
157.945 156.527 156.162 154.605 154.265 161.867 163.143 162.447 162.203 
164.103 163.568 163.305 162.636 162.108 164.692 164.279 164.039 163.599 
163.185 162.364 161.56 165.332 164.864 164.681 164.268 164.075 163.431 
162.768 161.718 160.849 166.001 165.678 165.594 165.064 164.876 164.299 
163.769 162.882 161.998 161.016 160.305 166.004 166.178 166.188 165.927 
165.551 165.031 164.348 163.664 162.746 161.967 161.144 160.464 159.823 
165.382 165.819 165.845 166.039 165.61 165.383 164.57 164.056 163.106 
162.48 161.609 161.05 160.296 159.749 158.837 164.796 165.12 165.104 
165.39 165.041 165.065 164.377 164.109 163.284 162.796 161.94 161.378 
160.502 159.978 158.963 158.369 157.113 164.29 164.562 164.462 164.679 
164.34 164.415 163.832 163.769 163.067 162.849 162.009 161.587 160.555 
160.031 158.863 158.318 157.05 156.438 155.149 161.804 162.14 162.395 
163.153 162.331 162.721 163.59 163.767 164.291 162.117 162.691 163.586 
164.094 164.762 164.781 165.005 161.781 162.285 163.007 163.733 164.452 
164.973 165.32 165.333 165.487 161.644 162.026 162.585 163.062 163.622 
164.287 164.714 165.228 165.413 165.66 165.826 161.202 161.816 162.354 
162.742 163.113 163.517 163.892 164.425 164.734 165.208 165.334 165.704 
165.705 160.218 161.059 161.558 162.239 162.51 162.995 163.25 163.743 
164.141 164.598 164.873 165.134 165.133 165.333 165.195 159.166 159.948 
160.411 161.179 161.462 162.11 162.304 162.958 163.326 164.016 164.419 
164.818 164.906 164.959 164.82 164.856 164.717 158.206 158.923 159.392 
160.097 160.488 161.085 161.344 161.914 162.201 162.959 163.339 164.109 
164.278 164.676 164.512 164.603 164.361 164.44 164.247 148.755 149.829 
149.448 149.792 150.996 150.597 150.991 150.567 150.969 152.217 151.828 
152.277 151.84 152.288 151.841 152.305 153.396 153.065 153.545 153.146 
153.621 153.199 153.699 153.251 153.753 154.446 154.207 154.723 154.393 
154.926 154.552 155.13 154.697 155.285 154.788 155.344 155.381 155.228 
155.834 155.569 156.221 155.909 156.643 156.238 156.961 156.44 157.085 
156.485 157.032 156.242 156.171 156.892 156.709 157.475 157.252 158.093 
157.797 158.596 158.167 158.826 158.266 158.77 158.135 158.539 157.002 
157.026 157.827 157.766 158.61 158.502 159.352 159.165 159.893 159.62 
160.201 159.837 160.271 159.764 160.084 159.493 159.792 157.627 157.734 
158.554 158.624 159.505 159.551 160.407 160.315 160.938 160.702 161.164 
160.935 161.384 161.084 161.457 160.963 161.256 160.676 160.969 148.327 
148.001 148.559 149.368 147.611 148.201 149.006 149.616 150.476 147.163 
147.762 148.529 149.183 150.044 150.727 151.636 146.775 147.316 148.049 
148.663 149.477 150.204 151.131 151.88 152.792 146.528 146.997 147.723 
148.235 148.989 149.619 150.482 151.267 152.196 152.971 153.815 146.286 
146.764 147.473 147.963 148.699 149.213 149.989 150.628 151.467 152.25 
153.101 153.891 154.676 145.946 146.449 147.111 147.656 148.382 148.934 
149.703 150.243 150.999 151.584 152.34 153.075 153.876 154.687 155.464 
145.655 146.095 146.723 147.235 147.909 148.51 149.276 149.917 150.702 
151.243 151.935 152.448 153.152 153.845 154.637 155.445 156.201 145.557 
145.892 146.519 146.91 147.529 148.016 148.694 149.354 150.146 150.854 
151.611 152.151 152.789 153.278 153.949 154.615 155.362 156.14 156.836 
145.776 146.445 146.32 146.728 147.112 147.031 147.466 147.288 147.698 
147.849 147.792 148.342 148.096 148.478 148.257 148.767 148.716 148.67 
149.349 149.077 149.453 149.099 149.545 149.434 150.153 149.539 149.537 
150.19 150.049 150.403 150.078 150.451 150.272 150.975 150.967 151.717 
150.236 150.202 150.674 150.664 151.015 150.895 151.317 151.197 151.902 
151.858 152.622 152.488 153.02 150.943 150.793 151.138 151.052 151.496 
151.467 152.128 152.097 152.911 152.835 153.577 153.407 153.935 153.681 
154.122 151.627 151.467 151.827 151.649 152.233 152.166 153.065 153.055 
153.991 153.877 154.561 154.336 154.811 154.58 155.053 154.849 155.423 
152.154 152.102 152.557 152.443 153.118 153.087 154.046 154.091 155.031 
154.94 155.556 155.291 155.717 155.461 155.976 155.799 156.433 156.261 
156.896 152.559 153.658 153.089 153.14 155.101 154.408 154.512 153.813 
153.906 156.427 155.867 155.973 155.311 155.475 154.769 154.94 157.435 
157.06 157.219 156.692 156.834 156.279 156.437 155.804 155.85 158.455 
158.082 158.388 157.9 158.116 157.577 157.74 157.155 157.145 156.474 
156.271 159.777 159.298 159.706 159.168 159.494 158.93 159.223 158.571 
158.685 157.845 157.679 156.777 156.488 161.334 160.803 161.265 160.648 
160.979 160.364 160.661 160.084 160.309 159.562 159.529 158.486 158.232 
157.136 156.879 162.78 162.35 162.837 162.283 162.626 161.941 162.111 
161.446 161.526 160.966 160.938 160.248 160.011 159.038 158.701 157.638 
157.369 163.787 163.549 163.929 163.648 163.989 163.522 163.647 162.922 
162.783 162.052 161.85 161.296 161.076 160.481 160.152 159.345 158.976 
158.063 157.761 152.333 152.151 152.599 153.393 151.945 152.451 153.396 
153.89 154.848 151.775 152.294 153.273 153.87 154.879 155.364 156.176 
151.553 152.11 152.998 153.642 154.553 155.193 155.958 156.456 157.082 
151.144 151.778 152.565 153.227 154.007 154.688 155.41 156.04 156.722 
157.266 157.991 150.587 151.251 151.994 152.674 153.428 154.098 154.872 
155.503 156.303 156.892 157.77 158.325 159.267 150.082 150.683 151.422 
152.07 152.845 153.523 154.368 155.046 155.937 156.563 157.509 158.127 
159.174 159.759 160.8 149.725 150.248 150.985 151.558 152.312 152.952 
153.769 154.508 155.401 156.153 157.09 157.82 158.872 159.608 160.731 
161.338 162.302 149.451 149.932 150.629 151.16 151.848 152.428 153.148 
153.85 154.688 155.501 156.441 157.278 158.335 159.199 160.371 161.168 
162.226 162.753 163.47 151.801 150.896 151.426 151.51 149.726 150.423 
150.521 151.078 151.213 148.335 149.161 149.401 150.065 150.193 150.785 
150.998 147.021 147.786 148.079 148.868 149.059 149.721 149.846 150.532 
150.751 145.925 146.568 146.771 147.517 147.683 148.437 148.513 149.261 
149.374 150.179 150.346 144.832 145.475 145.587 146.24 146.303 147 
147.043 147.803 147.897 148.722 148.878 149.697 149.832 143.618 144.293 
144.364 145.016 145.018 145.652 145.659 146.353 146.476 147.26 147.472 
148.265 148.453 149.201 149.355 142.447 143.062 143.112 143.74 143.737 
144.362 144.367 145.029 145.15 145.902 146.147 146.932 147.173 147.901 
148.091 148.798 149.003 141.432 141.96 141.991 142.53 142.516 143.095 
143.116 143.762 143.885 144.609 144.839 145.624 145.889 146.653 146.878 
147.588 147.806 148.514 148.756 140.91 140.168 140.857 141.411 139.312 
140.033 140.621 141.311 141.877 138.747 139.27 139.906 140.537 141.194 
141.844 142.504 138.666 138.951 139.591 140.023 140.768 141.308 142.079 
142.625 143.359 138.806 139.01 139.62 139.915 140.665 141.086 141.903 
142.356 143.133 143.59 144.346 139.02 139.187 139.785 140.015 140.733 
141.089 141.898 142.292 143.062 143.452 144.201 144.639 145.396 139.298 
139.445 140.052 140.225 140.921 141.2 141.996 142.338 143.116 143.446 
144.186 144.552 145.308 145.715 146.433 139.553 139.72 140.327 140.512 
141.191 141.427 142.189 142.479 143.252 143.547 144.296 144.606 145.364 
145.702 146.442 146.766 147.429 139.839 139.967 140.57 140.764 141.437 
141.68 142.404 142.677 143.41 143.694 144.425 144.731 145.481 145.804 
146.544 146.844 147.525 147.786 148.405 140.263 141.271 140.802 140.981 
142.452 141.903 142.055 141.602 141.864 143.689 143.128 143.28 142.756 
142.987 142.548 142.846 145.029 144.416 144.594 144.02 144.236 143.728 
143.995 143.551 143.843 146.6 145.89 146.093 145.411 145.628 145.028 
145.28 144.755 145.037 144.569 144.867 148.277 147.577 147.808 147.034 
147.217 146.493 146.706 146.093 146.359 145.828 146.136 145.643 145.951 
149.84 149.245 149.548 148.812 148.996 148.175 148.322 147.577 147.779 
147.174 147.445 146.938 147.238 146.745 147.014 151.37 150.78 151.155 
150.517 150.786 150 150.158 149.3 149.433 148.657 148.837 148.231 
148.479 147.994 148.254 147.768 147.979 153.124 152.396 152.759 152.107 
152.416 151.732 151.945 151.155 151.279 150.414 150.493 149.693 149.824 
149.218 149.44 148.962 149.187 148.69 148.855 149.508 149.863 150.02 
150.66 150.144 150.342 151.031 151.192 151.85 150.622 150.719 151.486 
151.599 152.348 152.437 153.156 151.421 151.419 152.299 152.269 153.144 
153.109 153.962 153.919 154.75 152.244 152.307 153.249 153.243 154.221 
154.152 155.153 154.998 155.95 155.744 156.623 152.875 153.051 154.008 
154.143 155.204 155.287 156.448 156.383 157.496 157.218 158.201 157.81 
158.686 153.389 153.636 154.7 154.897 156.118 156.29 157.641 157.714 
159.005 158.85 159.954 159.58 160.529 160.023 160.845 153.872 154.194 
155.441 155.7 157.106 157.328 158.821 158.962 160.318 160.287 161.388 
161.208 162.125 161.818 162.579 162.111 162.694 154.377 154.763 156.145 
156.501 157.949 158.295 159.731 160.037 161.28 161.422 162.367 162.365 
163.127 163.068 163.697 163.517 163.942 163.588 163.835 136.503 135.588 
136.041 136.041 134.644 135.03 134.999 135.557 135.632 134.223 134.234 
134.187 134.567 134.725 135.232 135.467 134.699 134.262 134.223 134.137 
134.372 134.58 134.925 135.305 135.785 135.663 135.089 135.058 134.629 
134.819 134.646 134.956 135.025 135.457 135.835 136.456 136.605 136.098 
136.056 135.59 135.682 135.34 135.529 135.317 135.574 135.644 136.134 
136.567 137.217 137.514 137.028 137.01 136.545 136.616 136.219 136.386 
136.038 136.229 135.976 136.329 136.417 137.066 137.432 138.136 138.449 
137.975 138.02 137.542 137.652 137.191 137.385 136.977 137.212 136.812 
137.102 136.872 137.432 137.537 138.316 138.549 139.264 139.342 138.916 
139 138.578 138.709 138.261 138.425 138.009 138.224 137.835 138.072 
137.739 138.128 138.05 138.711 138.872 139.608 139.767 140.38 136.936 
136.581 137.014 137.54 136.231 136.696 137.311 137.721 138.313 136.034 
136.399 137.075 137.521 138.191 138.572 139.156 136.328 136.416 137.068 
137.363 138.088 138.47 139.106 139.411 139.942 137.031 136.954 137.536 
137.561 138.213 138.445 139.147 139.427 140.042 140.253 140.844 137.757 
137.683 138.204 138.133 138.639 138.693 139.345 139.568 140.305 140.501 
141.172 141.304 141.946 138.536 138.372 138.857 138.763 139.241 139.189 
139.761 139.864 140.61 140.83 141.585 141.732 142.358 142.44 142.994 
139.527 139.212 139.655 139.464 140.007 139.879 140.469 140.404 141.066 
141.17 141.906 142.102 142.757 142.866 143.383 143.428 143.901 140.577 
140.227 140.609 140.352 140.889 140.735 141.335 141.198 141.761 141.695 
142.3 142.408 143.061 143.215 143.785 143.844 144.321 144.333 144.796 
137.328 137.901 137.767 138.181 138.644 138.412 138.806 138.708 139.206 
139.462 139.209 139.566 139.394 139.862 139.772 140.262 140.247 140.022 
140.404 140.201 140.644 140.477 140.966 140.841 141.354 141.144 140.858 
141.316 141.087 141.574 141.334 141.832 141.631 142.191 142.039 142.638 
142.209 141.867 142.348 142.084 142.603 142.322 142.808 142.559 143.11 
142.944 143.554 143.399 143.979 143.208 142.917 143.355 143.129 143.615 
143.354 143.782 143.517 143.993 143.836 144.411 144.294 144.85 144.689 
145.197 144.079 143.82 144.216 144.042 144.511 144.31 144.725 144.458 
144.876 144.677 145.209 145.1 145.667 145.533 146.049 145.874 146.382 
144.95 144.664 145.034 144.844 145.316 145.157 145.623 145.391 145.818 
145.57 146.058 145.896 146.46 146.339 146.892 146.735 147.255 147.077 
147.591 151.746 151.277 151.345 150.87 150.559 150.732 150.199 150.269 
149.598 149.695 149.868 149.277 149.434 148.728 148.822 148.124 148.781 
148.903 148.279 148.479 147.887 147.979 147.342 147.393 146.839 147.87 
147.934 147.291 147.514 147.056 147.229 146.699 146.721 146.152 146.219 
145.757 147.115 147.089 146.463 146.601 146.158 146.389 145.884 146.021 
145.392 145.5 144.927 145.117 144.643 146.536 146.482 145.893 145.9 
145.379 145.499 144.935 145.089 144.455 144.62 144.017 144.215 143.683 
143.921 143.436 145.955 145.965 145.401 145.384 144.792 144.78 144.142 
144.176 143.567 143.692 143.163 143.322 142.804 142.968 142.466 142.696 
142.264 145.315 145.368 144.838 144.861 144.285 144.234 143.58 143.5 
142.873 142.906 142.399 142.53 142.03 142.145 141.604 141.762 141.304 
141.576 141.232 
POINT_DATA 1002
SCALARS Distance double
LOOKUP_TABLE default
140.661 139.746 139.801 140.847 140.001 141.795 140.955 140.033 141.995 
143.007 140.799 139.842 141.987 143.199 144.241 140.848 139.958 141.98 
143.309 144.548 145.664 141.542 140.62 142.511 143.638 144.891 146.133 
147.317 142.325 141.34 143.32 144.283 145.385 146.617 147.817 148.923 
142.74 141.914 143.779 144.867 146.017 147.248 148.385 149.395 150.381 
143.225 142.631 144.152 145.345 146.669 148.014 149.192 150.147 151.053 
151.987 144.109 143.579 144.916 146.024 147.337 148.728 150.04 151.17 
152.169 153.102 153.93 138.892 138.93 137.988 137.995 137.087 139.13 
137.022 136.204 138.109 139.134 136.094 135.223 137.029 138.052 138.934 
135.338 134.397 136.247 137.053 137.943 139.088 135.066 134.367 135.956 
136.588 137.21 138.255 139.768 135.448 135.142 136.06 136.566 136.964 
137.735 139.083 140.622 136.187 136.107 136.445 136.72 137.004 137.585 
138.711 140.183 141.53 136.95 136.905 137.048 137.121 137.28 137.746 
138.66 139.978 141.366 142.535 137.678 137.814 138.649 138.846 139.715 
137.875 139.938 140.731 138.944 137.929 141.077 141.886 140.216 139.207 
138.283 142.414 143.246 141.605 140.759 139.831 139.055 143.807 144.523 
143.049 142.287 141.499 140.741 140.213 145.113 145.692 144.482 143.789 
143.083 142.427 141.918 141.587 146.418 146.9 145.92 145.345 144.698 
144.059 143.534 143.164 142.851 147.702 148.098 147.302 146.85 146.299 
145.679 145.088 144.639 144.311 143.961 145.046 145.478 146.846 145.822 
147.308 148.735 146.187 147.688 149.317 150.601 146.702 148.061 149.791 
151.3 152.617 147.302 148.48 150.085 151.801 153.244 154.819 147.869 
148.963 150.35 152.051 153.71 155.285 156.962 148.335 149.444 150.739 
152.294 153.996 155.672 157.278 158.788 148.713 149.832 151.123 152.587 
154.185 155.875 157.471 158.891 160.191 149.062 150.138 151.383 152.779 
154.263 155.892 157.523 158.899 160.1 161.265 145.837 147.805 146.826 
149.723 148.849 148.02 151.916 151.123 150.243 149.422 154.541 154.12 
153.217 151.995 150.932 156.964 156.947 156.478 155.268 153.774 152.418 
158.89 158.801 158.488 157.852 156.828 155.451 153.801 160.481 160.352 
159.771 159.151 158.756 158.181 156.871 154.95 161.739 161.872 161.423 
160.626 160.034 159.766 159.202 157.775 155.775 162.604 163.004 163.826 
163.88 164.605 163.037 164.357 165.117 163.886 162.639 165.125 165.761 
164.568 163.777 161.897 166.158 166.09 165.508 164.559 162.982 161.125 
166.291 165.636 166.119 165.03 163.46 161.805 160.509 165.534 164.981 
165.711 165.003 163.683 162.185 160.843 159.542 164.852 164.559 164.929 
164.484 163.647 162.53 161.114 159.555 157.799 164.279 164.036 164.26 
163.835 163.182 162.379 161.128 159.434 157.61 155.75 161.552 163.037 
161.841 163.295 161.867 164.445 162.922 161.573 164.55 165.297 162.373 
161.408 163.737 165.079 165.592 162.307 161.226 163.087 164.052 165.02 
165.634 161.923 160.463 162.842 163.42 164.212 164.978 165.395 160.797 
159.399 161.962 162.734 163.606 164.611 165.036 164.976 159.656 158.449 
160.786 161.645 162.543 163.838 164.815 164.873 164.618 158.672 157.503 
159.856 160.831 161.563 162.506 163.682 164.345 164.323 164.15 149.108 
150.177 150.205 151.412 151.374 151.388 152.701 152.578 152.724 152.756 
153.92 153.693 154.021 154.124 154.223 155.014 154.637 155.247 155.521 
155.754 155.885 156.042 155.473 156.458 156.971 157.448 157.691 157.688 
157.009 156.254 157.639 158.337 158.979 159.369 159.426 159.202 157.823 
156.938 158.66 159.538 160.187 160.52 160.723 160.673 160.386 147.777 
148.794 147.435 148.377 147.025 149.851 147.887 146.58 149.326 150.96 
147.486 146.262 148.781 150.331 152.107 147.246 146.078 148.443 149.75 
151.369 153.118 146.971 145.812 148.205 149.452 150.771 152.267 153.923 
146.569 145.461 147.796 149.148 150.512 151.719 153.04 154.67 146.258 
145.25 147.345 148.59 150.095 151.504 152.59 153.832 155.415 146.172 