# vtk DataFile Version 4.0
vtk output
ASCII
DATASET POLYDATA
POINTS 1002 float
-83.9994 -82.231 70.7694 -84.1228 -81.6048 69.5087 -83.5832 -81.436 70.2085 
-83.5022 -82.1167 71.5779 -83.0226 -81.2827 71.0163 -83.956 -82.9201 72.2854 
-82.9463 -82.0091 72.5494 -82.4649 -81.1361 71.9944 -83.4889 -82.8513 73.2464 
-83.9076 -83.6984 73.999 -82.324 -81.9368 73.6725 -81.9472 -81.0063 73.1323 
-82.862 -82.8357 74.3242 -83.3299 -83.7508 75.0204 -83.5796 -84.7635 75.7023 
-81.7534 -81.9175 74.8296 -81.4839 -80.9002 74.2803 -82.1559 -82.9289 75.4514 
-82.5728 -83.9422 76.0543 -82.8288 -85.0315 76.6743 -82.9893 -86.1804 77.325 
-81.221 -81.966 75.9489 -80.959 -80.9386 75.3794 -81.5402 -83.1096 76.5902 
-81.8657 -84.2595 77.184 -82.0834 -85.4008 77.7496 -82.2551 -86.5789 78.3676 
-82.4291 -87.7067 79.0269 -80.5769 -82.1943 77.065 -80.3298 -81.2021 76.486 
-80.8904 -83.3879 77.7196 -81.2195 -84.6555 78.386 -81.4521 -85.8387 79.03 
-81.6488 -87.0113 79.6467 -81.8002 -88.2292 80.2209 -81.8704 -89.3644 80.7639 
-79.9288 -82.5953 78.097 -79.7459 -81.5278 77.5193 -80.167 -83.8119 78.7467 
-80.4688 -85.1449 79.4356 -80.7261 -86.4101 80.18 -80.9883 -87.5782 80.9214 
-81.2129 -88.8555 81.5118 -81.2434 -90.1794 81.9386 -81.2141 -91.3198 82.3225 
-79.4519 -83.0316 78.9812 -79.3048 -81.8094 78.4344 -79.5851 -84.3053 79.6244 
-79.7718 -85.6568 80.3061 -79.9562 -87.0585 81.0371 -80.1665 -88.3409 81.8178 
-80.4556 -89.6152 82.5291 -80.611 -91.0302 83.0251 -80.5885 -92.3446 83.3641 
-80.6366 -93.345 83.6889 -79.1192 -83.4902 79.8972 -78.9938 -82.1545 79.3863 
-79.1784 -84.8161 80.5127 -79.2539 -86.1333 81.1923 -79.3597 -87.6033 81.8991 
-79.4623 -89.091 82.5799 -79.6505 -90.4195 83.2395 -79.8808 -91.7822 83.8389 
-79.9916 -93.2005 84.2886 -80.0618 -94.3789 84.6265 -80.2477 -95.2075 84.9358 
-83.8988 -80.8602 68.7929 -83.2728 -80.6397 69.5233 -83.5557 -80.0442 68.094 
-82.8671 -79.7829 68.8355 -83.1047 -79.2339 67.334 -82.6823 -80.4248 70.3616 
-82.3839 -78.9223 68.1357 -82.5972 -78.5056 66.5975 -82.2955 -79.4826 69.7738 
-82.1559 -80.2052 71.424 -81.8929 -78.0354 67.6024 -82.1054 -77.6555 66.1651 
-81.8252 -78.4844 69.303 -81.7564 -79.1382 71.0106 -81.6558 -79.9796 72.6657 
-81.4988 -76.9041 67.3952 -81.8016 -76.3703 66.1317 -81.3637 -77.4431 69.0036 
-81.2015 -78.0352 70.6735 -81.1337 -78.8386 72.2835 -81.1316 -79.8594 73.8425 
-81.3073 -75.472 67.4626 -81.8248 -74.9291 66.3609 -81.0444 -76.2668 68.9315 
-80.7231 -77.0103 70.3653 -80.4524 -77.7731 71.7853 -80.5006 -78.8356 73.359 
-80.5408 -80.0373 74.9649 -81.3666 -74.1961 67.7925 -82.0972 -73.9737 66.8497 
-80.9097 -74.9701 69.2072 -80.4812 -75.911 70.4186 -79.9948 -76.7775 71.393 
-79.8455 -77.8769 72.7994 -79.9655 -79.1837 74.5558 -79.9354 -80.3672 76.163 
-81.6635 -73.524 68.4223 -82.4637 -73.6672 67.6298 -81.0239 -73.9189 69.8085 
-80.4604 -74.7069 71.0325 -79.8571 -75.6194 71.6585 -79.5041 -76.799 72.5973 
-79.5051 -78.2492 74.3028 -79.5082 -79.5079 76.0103 -79.4028 -80.5715 77.317 
-82.1042 -73.4432 69.1979 -82.8324 -73.747 68.5281 -81.4075 -73.4671 70.4629 
-80.7148 -73.8433 71.792 -79.9784 -74.5112 72.4597 -79.4606 -75.6034 73.026 
-79.3296 -77.1405 74.4181 -79.2585 -78.5874 76.1366 -79.0884 -79.6488 77.4036 
-78.9932 -80.7404 78.3702 -82.782 -73.8167 69.7199 -82.0974 -73.6379 70.6784 
-82.7396 -74.2402 70.9369 -82.0611 -74.1988 72.081 -82.632 -74.9102 72.2931 
-81.3606 -73.6541 72.0788 -81.9885 -74.9633 73.6372 -82.6572 -75.4543 74.2075 
-81.2647 -74.2349 73.4556 -80.4848 -73.9279 73.1661 -82.0911 -75.6021 75.7828 
-82.9775 -75.7816 76.5658 -81.2131 -75.1311 75.1123 -80.3231 -74.5863 74.525 
-79.6929 -74.6986 73.7997 -82.3202 -76.1764 78.0459 -83.2548 -76.351 78.573 
-81.3186 -75.9997 77.3037 -80.3566 -75.666 76.4689 -79.6664 -75.5734 75.6919 
-79.3667 -76.146 74.9847 -82.3851 -77.1066 79.7354 -83.2105 -77.4364 79.9993 
-81.4511 -76.8724 79.3138 -80.518 -76.7002 78.6914 -79.8015 -76.7111 78.0111 
-79.3989 -77.0939 77.3762 -79.2282 -77.7973 76.7238 -82.3435 -78.3825 81.0771 
-83.067 -78.7276 81.2607 -81.5617 -78.0508 80.8427 -80.7171 -77.8232 80.5019 
-79.9725 -77.8473 80.0497 -79.4328 -78.1467 79.493 -79.0662 -78.562 78.7949 
-78.9365 -79.0501 78.0246 -82.3864 -79.6397 82.3944 -83.0395 -79.8851 82.509 
-81.7376 -79.4116 82.2124 -80.9841 -79.2499 81.9409 -80.2152 -79.2324 81.6096 
-79.5854 -79.404 81.1563 -79.0688 -79.6155 80.4826 -78.7358 -79.8069 79.6529 
-78.7369 -80.1654 78.8878 -82.4787 -80.78 83.5901 -83.0879 -80.9108 83.6301 
-81.9161 -80.7191 83.4645 -81.2534 -80.7415 83.2117 -80.4926 -80.791 82.9149 
-79.8384 -80.8699 82.5851 -79.3194 -80.9791 82.0834 -78.8826 -81.0719 81.3671 
-78.6711 -81.2476 80.5669 -78.7565 -81.6338 79.8669 -78.8421 -83.6009 80.9111 
-78.7236 -83.2355 81.6497 -78.6422 -85.4088 82.8188 -78.8035 -82.9104 82.4497 
-78.6818 -85.1974 83.6791 -78.4435 -87.3548 84.6335 -79.116 -82.6681 83.138 
-78.8964 -84.8555 84.3415 -78.6538 -87.2516 85.3026 -78.4254 -89.3713 86.0031 
-79.5324 -82.5033 83.6412 -79.2234 -84.4835 84.8026 -78.9445 -86.9722 85.759 
-78.7707 -89.365 86.5241 -78.5425 -91.4554 87.3113 -80.0547 -82.432 83.9508 
-79.6421 -84.2426 85.1515 -79.3126 -86.627 86.2157 -79.1051 -89.2636 87.0547 
-78.8885 -91.5151 87.9551 -78.6052 -93.7073 88.8675 -80.7805 -82.373 84.1784 
-80.2538 -84.1715 85.3337 -79.8475 -86.3453 86.5724 -79.5562 -89.0193 87.5759 
-79.2346 -91.5273 88.5228 -78.886 -93.7914 89.5132 -78.7433 -96.3035 90.2862 
-81.5279 -82.2238 84.4289 -81.0007 -84.0833 85.4461 -80.5177 -86.1592 86.646 
-80.1593 -88.6542 87.773 -79.7534 -91.3416 88.7655 -79.2835 -93.7709 89.844 
-79.0323 -96.2532 90.7773 -79.0984 -98.9273 91.3354 -82.1332 -82.0743 84.6067 
-81.6758 -83.8758 85.5857 -81.1829 -85.9462 86.6535 -80.7807 -88.2416 87.7417 
-80.3832 -90.9161 88.713 -79.8886 -93.5736 89.7906 -79.4922 -95.9957 90.9533 
-79.3973 -98.515 91.782 -79.4494 -101.062 92.1708 -82.7241 -82.0273 84.6522 
-82.2943 -83.6535 85.6574 -81.815 -85.6562 86.6834 -81.3789 -87.7912 87.7408 
-80.9941 -90.2695 88.7081 -80.5652 -93.078 89.6724 -80.1228 -95.6363 90.8246 
-79.8351 -97.9178 91.9155 -79.714 -100.306 92.5778 -79.5856 -102.714 92.8037 
-78.8455 -85.0922 81.5158 -78.4785 -86.9509 83.4306 -78.8036 -86.4775 82.1804 
-78.1871 -89.0505 85.174 -78.3461 -88.5128 84.0787 -78.8339 -87.9899 82.9156 
-78.1405 -91.3558 86.6095 -78.0019 -91.0015 85.7711 -78.3654 -90.3716 84.7505 
-78.9172 -89.7254 83.5845 -78.2671 -93.7772 88.1694 -77.9817 -93.6627 87.3252 
-78.0868 -93.0936 86.367 -78.5253 -92.198 85.2488 -79.0308 -91.2941 84.1109 
-78.5254 -96.5198 89.7987 -78.3065 -96.4525 89.0888 -78.2518 -95.9343 88.0719 
-78.4312 -94.9041 86.8586 -78.7391 -93.7197 85.6604 -79.2151 -92.6988 84.6536 
-78.927 -99.4795 91.0113 -78.7423 -99.537 90.6262 -78.6351 -99.1196 89.8879 
-78.6437 -98.1811 88.6672 -78.7046 -96.7788 87.339 -78.9197 -95.3719 86.1986 
-79.3936 -94.2304 85.2154 -79.2733 -102.014 91.8354 -79.0183 -102.419 91.5139 
-78.7956 -102.339 91.0678 -78.746 -101.859 90.1887 -78.7682 -100.7 88.9926 
-78.8228 -98.9293 87.8213 -79.0822 -97.1465 86.7277 -79.5469 -95.6668 85.6558 
-79.3697 -103.944 92.4743 -79.0726 -104.708 92.0305 -78.757 -105.008 91.5061 
-78.6506 -105.015 90.8276 -78.7562 -104.453 90.0078 -78.8498 -102.932 89.1228 
-78.974 -100.735 88.1415 -79.3 -98.5361 87.0599 -79.7677 -96.7013 85.9704 
-79.3747 -105.272 92.9784 -79.0613 -106.577 92.5427 -79.0699 -108.26 92.6904 
-78.7897 -109.727 92.1191 -78.9642 -111.392 91.9367 -78.7649 -107.372 91.8513 
-78.7848 -113.184 91.3005 -79.126 -114.139 91.0849 -78.707 -110.641 91.18 
-78.6264 -107.726 90.9866 -78.8674 -116.136 90.4417 -79.5371 -116.201 90.4474 
-78.7654 -114.04 90.3008 -78.8435 -110.649 90.184 -78.7793 -107.521 90.2435 
-79.2282 -117.706 89.6617 -80.3055 -117.094 89.8753 -78.6298 -116.436 89.4537 
-78.8655 -113.119 89.438 -79.1005 -109.505 89.6592 -78.9839 -106.368 89.704 
-80.1921 -117.291 88.9516 -81.1613 -116.128 89.2658 -79.0135 -116.966 88.731 
-78.7138 -114.462 88.7837 -79.1012 -110.799 89.1113 -79.2181 -107.445 89.3324 
-79.0591 -104.196 89.0217 -81.1378 -115.117 88.4728 -81.656 -113.687 88.8142 
-80.1203 -115.568 88.325 -79.326 -114.228 88.4147 -79.2548 -111.264 88.6561 
-79.3549 -107.911 88.8367 -79.2965 -104.693 88.6825 -79.2593 -101.479 88.0492 
-81.5392 -112.276 88.2622 -81.8926 -110.96 88.5813 -80.9583 -113.022 88.1827 
-80.3405 -112.494 88.3634 -80.0286 -110.443 88.5539 -79.8532 -107.571 88.542 
-79.672 -104.563 88.3086 -79.6463 -101.592 87.8006 -79.7118 -98.9013 86.9731 
-81.7822 -109.558 88.1832 -82.2348 -108.526 88.4352 -81.321 -110.214 88.0812 
-80.9295 -109.976 88.2442 -80.7532 -108.523 88.4802 -80.5963 -106.242 88.4536 
-80.3014 -103.739 88.1103 -80.1486 -101.227 87.5674 -80.2047 -98.8622 86.8223 
-80.2415 -96.8611 85.8943 -79.7933 -102.727 93.133 -79.6236 -105.576 93.1286 
-80.2555 -102.65 93.184 -80.3084 -105.612 93.1228 -80.9783 -102.472 93.0524 
-79.4883 -108.73 92.5712 -81.2081 -105.265 93.1797 -81.5897 -101.956 92.7013 
-80.4011 -108.546 92.5623 -79.5626 -111.459 91.6543 -81.6788 -104.344 92.8931 
-81.945 -100.812 91.9446 -81.2604 -107.742 92.7885 -80.4922 -110.693 91.6957 
-79.8614 -113.529 90.8965 -81.8763 -102.656 91.938 -82.5192 -99.0288 91.1167 
-81.5424 -106.252 92.4746 -81.1442 -109.363 91.9114 -80.645 -112.256 90.9757 
-80.4007 -115.12 90.4537 -82.617 -100.359 91.0653 -83.4928 -97.0336 90.6024 
-81.9217 -103.972 91.591 -81.5242 -107.243 91.6407 -81.1788 -110.225 91.0751 
-80.9709 -113.182 90.5231 -81.0594 -115.401 90.0106 -83.8114 -98.0071 90.6396 
-84.4276 -95.2942 90.0775 -82.9995 -101.28 91.0263 -82.3107 -104.493 91.1825 
-81.8492 -107.318 90.9689 -81.5143 -110.103 90.5827 -81.4179 -112.534 90.1587 
-81.5707 -113.726 89.5333 -84.7995 -95.9985 90.0774 -85.0949 -93.8808 89.2433 
-84.2335 -98.7094 90.6652 -83.4713 -101.705 90.908 -82.8162 -104.369 90.8219 
-82.3949 -106.693 90.5801 -82.1124 -108.918 90.2885 -81.9793 -110.533 89.8226 
-81.9637 -111.111 89.1743 -85.4516 -94.3476 89.1335 -85.6506 -92.6315 88.2735 
-85.1201 -96.492 89.9176 -84.5375 -99.0864 90.4173 -83.8315 -101.699 90.5324 
[...]
CELL_DATA 2000
SCALARS Distance double
LOOKUP_TABLE default
135.553 135.539 135.884 136.615 135.598 135.93 136.727 137.066 137.888 
135.759 136.055 136.886 137.225 138.087 138.41 139.246 136.015 136.278 
137.118 137.429 138.306 138.624 139.478 139.778 140.612 136.321 136.571 
137.44 137.724 138.64 138.911 139.809 140.058 140.946 141.201 142.092 
136.683 136.909 137.811 138.093 139.076 139.34 140.318 140.516 141.481 
141.662 142.634 142.809 143.743 137.106 137.314 138.22 138.492 139.5 
139.803 140.835 141.086 142.102 142.298 143.326 143.48 144.475 144.563 
145.477 137.555 137.766 138.682 138.929 139.926 140.225 141.268 141.575 
142.612 142.888 143.929 144.171 145.201 145.351 146.301 146.339 147.211 
138.089 138.273 139.24 139.438 140.44 140.681 141.733 142.021 143.091 
143.374 144.42 144.7 145.736 145.996 146.984 147.139 148.038 148.072 
148.904 134.921 133.913 134.556 134.843 132.807 133.493 133.778 134.484 
134.847 131.66 132.349 132.648 133.391 133.779 134.529 134.984 130.573 
131.216 131.515 132.258 132.671 133.449 133.928 134.711 135.224 129.567 
130.164 130.455 131.163 131.556 132.321 132.777 133.605 134.128 134.963 
135.505 128.701 129.194 129.5 130.163 130.544 131.228 131.601 132.383 
132.881 133.797 134.401 135.273 135.864 128.246 128.474 128.786 129.318 
129.753 130.315 130.639 131.239 131.669 132.528 133.211 134.167 134.872 
135.696 136.308 128.404 128.302 128.586 128.843 129.329 129.707 130.057 
130.426 130.794 131.437 132.156 133.071 133.915 134.759 135.435 136.159 
136.747 129.024 128.716 128.958 128.93 129.398 129.54 129.919 130.057 
130.39 130.758 131.453 132.208 133.162 133.954 134.725 135.362 135.948 
136.608 137.233 129.487 130.287 129.694 129.473 131.274 130.632 130.442 
129.876 129.83 132.491 131.744 131.549 130.888 130.713 130.221 130.169 
134.052 133.153 132.966 132.109 131.865 131.129 130.961 130.493 130.576 
135.739 134.838 134.683 133.711 133.503 132.514 132.396 131.578 131.768 
131.233 131.742 137.255 136.469 136.348 135.463 135.326 134.339 134.307 
133.353 133.606 132.838 133.371 132.808 133.473 138.663 137.932 137.883 
137.085 137.039 136.164 136.2 135.33 135.546 134.776 135.136 134.499 
134.908 134.445 134.905 140.071 139.376 139.429 138.668 138.734 137.904 
138.015 137.185 137.394 136.625 136.872 136.153 136.369 135.761 136.026 
135.633 136.039 141.411 140.795 140.921 140.25 140.4 139.644 139.804 
139.005 139.22 138.438 138.695 137.897 138.126 137.316 137.573 136.89 
137.291 136.833 137.366 138.386 138.422 138.983 140.277 138.732 139.181 
140.564 141.1 142.449 139.243 139.594 140.917 141.44 142.831 143.304 
144.549 139.767 140.088 141.285 141.765 143.096 143.639 144.945 145.383 
146.608 140.261 140.552 141.673 142.085 143.36 143.891 145.263 145.774 
147.112 147.508 148.826 140.799 141.041 142.123 142.464 143.706 144.19 
145.597 146.14 147.564 148.026 149.393 149.797 151.218 141.327 141.566 
142.598 142.913 144.086 144.537 145.884 146.46 147.874 148.436 149.799 
150.295 151.676 152.194 153.659 141.765 142.022 142.996 143.333 144.426 
144.864 146.091 146.659 147.988 148.627 149.97 150.581 151.92 152.519 
153.905 154.526 155.882 142.173 142.401 143.318 143.656 144.694 145.126 
146.259 146.786 148.011 148.645 149.959 150.645 151.977 152.642 153.949 
154.612 155.871 156.519 157.641 138.827 140.643 139.79 140.019 142.715 
141.731 141.852 140.993 141.217 144.804 143.823 143.932 142.944 143.12 
142.251 142.528 146.919 145.948 146.161 145.125 145.345 144.327 144.583 
143.652 143.927 149.225 148.218 148.579 147.492 147.795 146.683 146.922 
145.839 146.026 145.045 145.254 151.779 150.757 151.321 150.15 150.579 
149.311 149.559 148.281 148.391 147.218 147.331 146.348 146.55 154.364 
153.461 154.209 153.091 153.676 152.336 152.678 151.168 151.283 149.783 
149.84 148.56 148.698 147.67 147.844 156.614 155.964 156.731 155.878 
156.48 155.395 155.809 154.431 154.62 152.981 153.01 151.368 151.395 
150.004 150.073 148.941 148.979 158.342 157.952 158.648 158.075 158.575 
157.831 158.203 157.265 157.516 156.248 156.297 154.696 154.577 152.918 
152.771 151.318 151.199 149.994 149.885 159.392 161.029 160.093 159.739 
162.695 161.753 161.348 160.271 159.679 164.359 163.496 163.145 161.939 
161.253 160.072 159.34 165.813 165.154 164.931 163.783 163.01 161.688 
160.826 159.66 158.774 166.747 166.398 166.132 165.322 164.443 163.281 
162.184 161.055 160.03 158.916 157.706 166.708 166.837 166.399 166.042 
165.048 164.259 162.974 162.064 160.818 159.916 158.61 157.514 155.986 
165.514 166.134 165.67 165.805 164.859 164.46 163.167 162.47 161.093 
160.35 158.939 158.101 156.556 155.536 153.982 163.708 164.513 164.134 
164.67 163.917 163.972 162.821 162.416 161.013 160.384 158.89 158.185 
156.649 155.857 154.35 153.493 152.165 161.984 162.68 162.327 162.975 
162.349 162.756 161.755 161.768 160.42 160.069 158.542 157.989 156.465 
155.828 154.405 153.718 152.449 151.752 150.679 159.326 159.633 160.013 
161.013 159.88 160.338 161.416 161.713 162.67 159.949 160.6 161.727 
162.088 162.984 163.27 164.156 159.373 160.437 161.646 162.286 163.083 
163.421 164.144 164.593 165.453 158.099 159.425 160.623 161.782 162.604 
163.264 163.832 164.374 165.137 165.767 166.475 156.795 157.951 158.988 
160.336 161.214 162.322 162.877 163.725 164.3 165.169 165.78 166.455 
166.598 155.801 156.718 157.6 158.714 159.566 160.717 161.316 162.366 
162.801 163.885 164.277 165.301 165.344 165.965 165.454 154.842 155.721 
156.502 157.461 158.229 159.218 159.809 160.755 161.135 162.13 162.402 
163.463 163.498 164.354 163.944 164.424 163.678 153.784 154.654 155.319 
156.286 156.941 157.922 158.455 159.351 159.698 160.535 160.768 161.638 
161.743 162.541 162.349 162.897 162.384 162.687 162.019 142.697 143.916 
143.462 143.855 145.251 144.79 145.243 144.763 145.263 146.554 146.177 
146.712 146.239 146.779 146.284 146.847 147.755 147.478 148.101 147.712 
148.305 147.845 148.465 147.963 148.601 148.918 148.701 149.433 149.11 
149.799 149.384 150.113 149.655 150.427 149.875 150.599 150.061 149.906 
150.768 150.512 151.326 150.936 151.762 151.355 152.266 151.795 152.646 
152.001 152.694 151.143 151.058 152.002 151.868 152.776 152.49 153.357 
153.02 153.969 153.622 154.551 154.045 154.788 154.082 154.672 152.145 
152.117 153.065 153.035 153.965 153.841 154.745 154.547 155.539 155.297 
156.293 155.893 156.698 156.098 156.716 155.996 156.532 153.037 153.073 
154.006 154.026 154.94 154.91 155.846 155.807 156.905 156.833 157.978 
157.679 158.587 158.005 158.649 157.958 158.486 157.779 158.241 142.277 
142.044 142.583 143.458 141.715 142.324 143.193 143.787 144.707 141.279 
141.931 142.792 143.445 144.329 144.996 145.918 140.895 141.501 142.365 
143.004 143.886 144.557 145.467 146.16 147.073 140.571 141.149 141.996 
142.607 143.503 144.143 145.088 145.74 146.673 147.314 148.212 140.199 
140.779 141.564 142.203 143.057 143.747 144.694 145.395 146.358 146.984 
147.866 148.454 149.315 139.877 140.387 141.126 141.723 142.508 143.203 
144.07 144.872 145.815 146.601 147.492 148.132 148.937 149.532 150.364 
139.703 140.125 140.856 141.347 142.113 142.677 143.46 144.158 145.011 
145.866 146.772 147.611 148.448 149.134 149.912 150.547 151.354 139.607 
139.986 140.691 141.139 141.901 142.383 143.138 143.652 144.406 145.067 
145.907 146.756 147.646 148.499 149.316 150.044 150.8 151.476 152.231 
139.77 140.363 140.316 140.858 141.039 140.966 141.567 141.506 142.101 
141.797 141.712 142.358 142.287 142.94 142.815 143.371 142.542 142.492 
143.186 143.137 143.836 143.71 144.294 144.08 144.602 143.298 143.244 
143.998 143.99 144.754 144.65 145.278 145.049 145.591 145.358 146.002 
144.184 144.076 144.87 144.846 145.677 145.594 146.277 146.066 146.647 
146.402 147.067 146.9 147.696 145.139 145.038 145.839 145.778 146.601 
146.525 147.229 147.064 147.678 147.472 148.156 147.996 148.79 148.656 
149.425 146.05 146.003 146.789 146.725 147.464 147.401 148.085 147.989 
148.657 148.511 149.235 149.085 149.878 149.742 150.513 150.328 150.975 
146.903 146.893 147.644 147.588 148.234 148.175 148.831 148.805 149.57 
149.518 150.351 150.213 151.035 150.849 151.619 151.419 152.104 151.845 
152.426 147.627 148.847 148.295 148.324 150.101 149.493 149.521 148.904 
148.871 151.85 150.989 151.117 150.256 150.283 149.515 149.535 153.993 
153.065 153.306 152.218 152.348 151.274 151.382 150.411 150.473 155.826 
155.183 155.489 154.54 154.694 153.59 153.709 152.575 152.625 151.494 
151.425 157.249 156.826 157.249 156.555 156.739 155.827 155.89 154.876 
154.844 153.728 153.542 152.371 152.118 158.625 158.244 158.805 158.233 
158.522 157.722 157.786 156.866 156.796 155.788 155.558 154.43 154.082 
152.942 152.628 159.95 159.636 160.223 159.772 160.115 159.438 159.509 
158.657 158.572 157.63 157.435 156.372 156.043 154.883 154.503 153.39 
153.066 161.134 160.89 161.473 161.12 161.485 160.931 160.998 160.254 
160.128 159.298 159.099 158.178 157.879 156.809 156.4 155.257 154.829 
153.752 153.37 147.338 147.31 147.776 148.616 147.276 147.732 148.579 
148.998 149.836 147.228 147.67 148.477 148.932 149.845 150.332 151.456 
147.054 147.551 148.357 148.843 149.805 150.353 151.574 152.189 153.511 
146.665 147.254 148.091 148.698 149.707 150.329 151.526 152.222 153.495 
154.168 155.294 146.169 146.777 147.615 148.341 149.38 150.14 151.267 
152.032 153.162 153.929 154.984 155.676 156.631 145.753 146.301 147.121 
147.827 148.848 149.675 150.764 151.596 152.65 153.451 154.489 155.255 
156.292 156.977 157.976 145.458 145.952 146.743 147.365 148.305 149.082 
150.114 150.969 152.023 152.872 153.957 154.773 155.899 156.654 157.749 
158.386 159.35 145.203 145.678 146.407 146.979 147.8 148.505 149.43 
150.263 151.286 152.192 153.294 154.21 155.358 156.232 157.354 158.118 
159.119 159.714 160.56 146.407 144.994 145.883 146.349 144.003 144.585 
145 145.875 146.381 143.493 143.85 144.131 144.699 145.163 145.97 
146.424 142.826 143.356 143.572 143.99 144.237 144.843 145.213 145.987 
146.295 141.635 142.442 142.673 143.272 143.329 143.877 144.017 144.749 
145.007 145.78 145.95 140.215 141.088 141.324 142.101 142.126 142.754 
142.738 143.452 143.628 144.452 144.663 145.388 145.495 138.808 139.637 
139.848 140.662 140.748 141.435 141.433 142.107 142.227 143.034 143.268 
144.073 144.236 144.933 145.059 137.476 138.229 138.397 139.187 139.307 
140.055 140.132 140.823 140.933 141.662 141.85 142.649 142.842 143.624 
143.791 144.529 144.73 136.31 136.95 137.08 137.774 137.872 138.616 
138.731 139.5 139.65 140.392 140.548 141.276 141.452 142.218 142.436 
143.226 143.479 144.244 144.499 135.77 135.138 135.802 136.472 134.444 
135.134 135.802 136.476 137.182 133.92 134.515 135.236 135.834 136.556 
137.231 138.036 133.774 134.193 134.997 135.445 136.228 136.741 137.588 
138.208 139.053 133.909 134.212 135.033 135.399 136.234 136.615 137.456 
137.916 138.756 139.273 140.027 134.15 134.385 135.142 135.488 136.302 
136.683 137.489 137.882 138.666 139.08 139.817 140.247 140.943 134.479 
134.638 135.334 135.603 136.356 136.71 137.476 137.874 138.644 139.043 
139.802 140.161 140.896 141.248 141.974 134.891 134.996 135.665 135.843 
136.564 136.808 137.549 137.862 138.64 139.024 139.844 140.223 141.025 
141.338 142.094 142.378 143.092 135.335 135.419 136.067 136.207 136.917 
137.096 137.833 138.042 138.806 139.091 139.913 140.282 141.114 141.478 
142.243 142.546 143.241 143.503 144.144 135.803 136.861 136.38 136.559 
138.12 137.545 137.72 137.215 137.433 139.483 138.88 139.053 138.469 
138.682 138.15 138.372 140.877 140.28 140.486 139.863 140.072 139.475 
139.697 139.124 139.35 142.358 141.733 141.997 141.348 141.579 140.926 
141.152 140.519 140.749 140.152 140.429 143.953 143.285 143.579 142.916 
143.183 142.495 142.73 142.039 142.26 141.602 141.855 141.278 141.594 
145.63 144.925 145.21 144.532 144.81 144.124 144.372 143.665 143.877 
143.161 143.362 142.713 142.968 142.425 142.711 147.355 146.635 146.921 
146.201 146.467 145.754 145.992 145.295 145.509 144.797 144.963 144.243 
144.412 143.786 144.014 143.482 143.709 149.066 148.376 148.69 147.954 
148.213 147.446 147.647 146.905 147.099 146.399 146.567 145.842 145.954 
145.244 145.384 144.78 144.972 144.433 144.605 145.263 145.68 145.798 
146.468 146.15 146.254 146.996 147.092 147.853 146.784 146.839 147.653 
147.706 148.557 148.608 149.481 147.452 147.556 148.47 148.511 149.466 
149.459 150.444 150.414 151.388 148.034 148.219 149.236 149.382 150.456 
150.498 151.572 151.524 152.588 152.481 153.481 148.651 148.844 149.941 
150.148 151.325 151.486 152.649 152.691 153.806 153.75 154.828 154.665 
155.626 149.29 149.527 150.689 150.91 152.162 152.37 153.664 153.782 
155.029 155.011 156.188 156.059 157.124 156.851 157.705 149.794 150.136 
151.343 151.66 152.966 153.247 154.662 154.872 156.322 156.363 157.719 
157.563 158.735 158.423 159.34 158.894 159.543 150.149 150.564 151.79 
152.227 153.573 153.995 155.462 155.848 157.402 157.667 159.157 159.169 
160.421 160.142 161.072 160.58 161.209 160.619 161.038 129.161 128.525 
128.973 129.33 128.272 128.448 128.716 129.151 129.419 128.611 128.409 
128.482 128.614 128.745 129.117 129.304 129.434 128.971 128.904 128.616 
128.568 128.566 128.687 129.054 129.475 130.453 129.911 129.862 129.318 
129.212 128.75 128.767 128.706 129.146 129.548 130.312 131.543 130.979 
131.002 130.428 130.413 129.742 129.71 129.197 129.497 129.506 130.26 
130.664 131.543 132.683 132.108 132.145 131.604 131.673 131.058 131.074 
130.397 130.543 130.154 130.722 130.817 131.684 132.005 132.819 133.787 
133.243 133.261 132.737 132.811 132.289 132.371 131.772 131.892 131.339 
131.721 131.492 132.227 132.323 133.162 133.335 134.041 134.793 134.302 
134.316 133.818 133.876 133.392 133.507 133.009 133.177 132.658 132.953 
132.569 133.116 133.004 133.737 133.799 134.51 134.578 135.174 129.691 
129.844 130.018 130.537 129.905 130.151 130.623 130.835 131.361 129.836 
130.134 130.655 130.898 131.42 131.672 132.307 130.063 130.174 130.792 
130.975 131.59 131.793 132.457 132.72 133.454 130.876 130.7 131.316 
131.297 131.961 132.071 132.768 132.952 133.657 133.897 134.58 132.018 
131.703 132.232 132.021 132.607 132.566 133.231 133.323 133.986 134.136 
134.759 134.963 135.57 133.161 132.823 133.26 132.983 133.468 133.302 
133.886 133.856 134.487 134.525 135.13 135.214 135.816 135.969 136.591 
134.255 133.892 134.257 133.963 134.393 134.175 134.691 134.568 135.154 
135.104 135.704 135.692 136.294 136.334 136.959 137.063 137.687 135.332 
134.95 135.279 134.949 135.367 135.106 135.598 135.402 135.934 135.811 
136.369 136.313 136.886 136.88 137.462 137.501 138.084 138.166 138.726 
129.86 130.7 130.351 130.571 131.591 131.228 131.444 131.137 131.494 
132.611 132.205 132.498 132.1 132.451 132.153 132.679 133.773 133.342 
133.704 133.265 133.668 133.251 133.776 133.502 134.213 134.884 134.52 
134.893 134.507 134.935 134.535 135.054 134.712 135.378 135.153 135.894 
135.867 135.564 135.944 135.637 136.056 135.74 136.228 135.943 136.539 
136.316 136.975 136.779 137.41 136.865 136.539 136.945 136.653 137.098 
136.809 137.285 137.021 137.568 137.37 137.987 137.815 138.425 138.217 
138.794 137.926 137.576 137.977 137.671 138.145 137.863 138.377 138.088 
138.626 138.371 138.974 138.788 139.429 139.238 139.838 139.602 140.168 
138.948 138.627 139.003 138.703 139.156 138.904 139.436 139.191 139.745 
139.469 140.041 139.802 140.434 140.247 140.877 140.659 141.217 140.962 
141.483 146.141 145.313 145.393 144.77 144.506 144.632 144.149 144.206 
143.848 143.634 143.855 143.522 143.688 143.411 143.514 143.311 142.744 
142.972 142.656 142.984 142.715 142.976 142.633 142.866 142.517 141.948 
142.096 141.661 141.992 141.648 142.043 141.61 141.939 141.414 141.759 
141.261 141.195 141.297 140.744 140.96 140.487 140.844 140.39 140.761 
140.231 140.555 140.01 140.369 139.871 140.457 140.528 139.94 140.054 
139.488 139.705 139.197 139.525 139.038 139.373 138.846 139.158 138.634 
138.986 138.501 139.804 139.825 139.245 139.289 138.706 138.791 138.227 
138.417 137.905 138.199 137.69 138.002 137.459 137.778 137.263 137.633 
137.186 139.231 139.218 138.631 138.637 138.051 138.075 137.493 137.56 
137.009 137.164 136.648 136.88 136.362 136.63 136.126 136.44 136.011 
136.387 136.037 
POINT_DATA 1002
SCALARS Distance double
LOOKUP_TABLE default
136.209 135.263 135.189 136.257 135.173 137.382 136.365 135.26 137.564 
138.721 136.545 135.477 137.752 138.951 140.072 136.818 135.756 137.996 
139.175 140.315 141.455 137.144 136.068 138.364 139.567 140.69 141.84 
142.987 137.52 136.466 138.776 140.094 141.297 142.461 143.607 144.642 
137.96 136.897 139.187 140.545 141.872 143.143 144.379 145.447 146.35 
138.445 137.326 139.646 140.95 142.315 143.655 144.997 146.234 147.228 
148.062 139.05 137.895 140.228 141.451 142.805 144.158 145.454 146.763 
147.962 148.93 149.726 134.314 134.169 133.259 133.055 132.11 134.113 
131.885 130.988 133.009 134.218 130.781 129.956 131.884 133.125 134.443 
129.761 128.99 130.83 131.959 133.251 134.694 128.839 128.28 129.906 
130.902 131.945 133.451 135.061 128.311 128.155 129.218 130.143 130.875 
132.192 133.994 135.563 128.446 128.618 129.008 129.769 130.265 131.248 
133.034 134.723 136.021 129.09 129.369 129.344 129.85 130.145 130.768 
132.349 134.11 135.346 136.481 130.006 129.989 130.869 131.042 131.913 
130.301 132.282 133.284 131.327 130.516 133.899 134.98 132.724 131.548 
130.823 135.641 136.603 134.516 133.276 132.37 132.117 137.169 137.998 
136.239 135.229 134.42 134.036 133.967 138.635 139.362 137.852 137.03 
136.345 135.878 135.5 135.264 140.134 140.721 139.521 138.833 138.185 
137.655 137.087 136.525 136.293 141.532 141.983 141.099 140.582 140 
139.479 138.953 138.34 137.857 137.728 139.541 139.685 141.612 140.004 
142.01 143.731 140.44 142.313 144.176 145.746 140.874 142.546 144.434 
146.233 147.85 141.308 142.842 144.699 146.662 148.447 150.186 141.817 
143.248 145.035 147.065 148.972 150.764 152.709 142.303 143.68 145.336 
147.288 149.277 151.154 153.115 155.158 142.667 144.021 145.582 147.361 
149.324 151.317 153.294 155.311 157.181 143.006 144.284 145.781 147.42 
149.259 151.3 153.321 155.237 157.071 158.677 140.782 142.806 141.976 
144.938 144.058 143.333 147.166 146.385 145.598 144.825 149.644 148.932 
148.075 147.102 146.157 152.448 151.879 150.932 149.674 148.402 147.44 
155.233 154.952 154.203 152.904 151.279 149.846 148.815 157.509 157.457 
157.036 156.195 154.771 152.99 151.359 150.053 159.173 159.268 159.009 
158.574 157.79 156.338 154.414 152.55 151.004 160.331 160.782 161.984 
162.505 163.608 160.769 164.389 165.088 162.554 160.448 165.996 166.361 
164.419 162.073 159.968 166.843 167.041 165.56 163.362 161.133 158.998 
166.632 166.456 165.726 163.864 161.709 159.624 157.215 165.321 164.772 
165.062 163.797 161.853 159.729 157.471 154.99 163.453 162.906 163.634 
163.066 161.616 159.586 157.365 155.12 152.948 161.689 161.362 161.845 
161.577 160.639 159.022 157.03 155.009 153.094 151.311 158.98 160.738 
159.192 161.096 159.365 162.432 161.352 159.142 162.751 163.784 160.828 
158.16 162.772 163.742 164.918 159.296 156.856 161.758 163.294 164.474 
166.03 157.715 155.829 159.967 161.927 163.421 165.015 166.302 156.624 
154.958 158.476 160.271 161.763 163.233 164.594 165.144 155.591 153.981 
157.301 158.924 160.246 161.41 162.578 163.336 163.365 154.397 152.977 
155.976 157.556 158.896 159.962 160.941 161.724 162.001 161.798 143.104 
144.279 144.37 145.726 145.663 145.73 147.148 146.858 147.268 147.345 
148.436 147.979 148.727 148.927 149.129 149.696 149.085 150.175 150.504 
150.916 151.244 150.943 150.162 151.673 152.137 152.656 153.236 153.467 
152.075 151.197 152.995 153.668 154.277 154.985 155.44 155.464 153.084 
152.16 154.042 154.869 155.71 156.64 157.262 157.397 157.292 141.746 
142.903 141.486 142.587 141.077 144.092 142.133 140.632 143.66 145.239 
141.743 140.316 143.225 144.778 146.39 141.392 140.008 142.859 144.432 
146.057 147.579 140.94 139.652 142.364 143.954 145.701 147.323 148.704 
140.574 139.411 141.868 143.298 144.965 146.785 148.376 149.738 140.393 
139.309 141.604 142.871 144.218 145.856 147.68 149.296 150.711 140.26 