# vtk DataFile Version 4.0
vtk output
ASCII
DATASET POLYDATA
POINTS 1002 float
-85.4915 -83.4682 73.9285 -85.6235 -82.6021 73.0132 -85.1169 -82.384 73.6219 
-84.9052 -83.3092 74.5248 -84.4567 -82.2663 74.2141 -85.3667 -84.2763 75.0001 
-84.3439 -83.1558 75.2893 -83.7449 -82.2885 74.8906 -84.8381 -84.0807 75.766 
-85.3799 -84.8561 76.4681 -83.9424 -83.062 76.4029 -83.2204 -82.3723 75.8914 
-84.4579 -83.8853 76.8981 -84.8701 -84.8388 77.4602 -85.3372 -85.7794 78.1233 
-83.5649 -83.1337 77.7584 -82.8855 -82.4879 77.2974 -84.1958 -83.802 78.2878 
-84.4753 -84.9244 78.7471 -84.7298 -86.1894 79.1542 -85.0509 -87.3211 79.5774 
-82.9389 -83.4759 79.0247 -82.5738 -82.6653 78.7356 -83.6413 -84.0802 79.4351 
-84.092 -85.1695 79.9514 -84.2675 -86.5837 80.3691 -84.5176 -87.7811 80.7022 
-84.7962 -88.7783 81.1399 -82.32 -83.894 80.0473 -82.2878 -82.8391 79.7751 
-82.7976 -84.682 80.319 -83.4166 -85.7448 80.8213 -83.8106 -87.0579 81.4771 
-84.172 -88.1115 82.0538 -84.5218 -89.0533 82.5584 -84.7794 -90.0737 83.0943 
-82.0338 -84.1725 80.928 -82.0424 -82.998 80.5816 -82.2785 -85.1762 81.2957 
-82.7533 -86.3286 81.7987 -83.1859 -87.6397 82.4843 -83.7009 -88.6148 83.2652 
-84.2518 -89.4741 83.9713 -84.5516 -90.6415 84.5011 -84.7037 -91.8149 84.8836 
-81.8873 -84.441 81.9331 -81.809 -83.2482 81.6129 -82.1175 -85.5401 82.4014 
-82.4724 -86.6712 83.018 -82.7365 -87.9683 83.6354 -83.1026 -89.1268 84.2502 
-83.715 -90.1397 84.9513 -84.1478 -91.4342 85.5569 -84.2649 -92.8416 85.9237 
-84.3419 -93.8961 86.1414 -81.7109 -84.8352 83.186 -81.6544 -83.6219 82.9083 
-81.9196 -86.0375 83.5975 -82.2649 -87.14 84.2057 -82.5254 -88.2601 84.7949 
-82.7359 -89.4783 85.1893 -83.1533 -90.7722 85.6303 -83.5678 -92.2444 86.2045 
-83.7017 -93.8002 86.657 -83.7385 -95.0596 86.9352 -83.8689 -95.8857 87.16 
-85.3825 -81.7415 72.4469 -84.883 -81.4274 73.1611 -85.0403 -80.9926 71.8184 
-84.4796 -80.6025 72.6319 -84.5523 -80.1958 71.1724 -84.0581 -81.3479 73.772 
-83.8508 -79.744 72.0526 -83.9639 -79.1969 70.6416 -83.5178 -80.4964 73.2872 
-83.1382 -81.4389 74.354 -83.1477 -78.72 71.5017 -83.4843 -78.1529 70.3771 
-82.9162 -79.5603 72.7826 -82.6298 -80.4508 73.8895 -82.6355 -81.4433 75.3619 
-82.7023 -77.6261 71.1907 -83.3824 -77.1722 70.4459 -82.3674 -78.4308 72.3423 
-82.2815 -79.3298 73.5913 -82.3721 -80.1939 75.0451 -82.5853 -81.3516 76.966 
-82.7635 -76.4925 71.4186 -83.7204 -76.1894 70.852 -82.0298 -77.0941 72.2916 
-81.9051 -78.0532 73.5375 -82.1594 -78.978 74.9983 -82.4709 -79.9573 76.742 
-82.5412 -81.3544 78.4881 -83.2411 -75.4809 72.1438 -84.2539 -75.4007 71.5163 
-82.1008 -75.7789 72.8447 -81.5936 -76.6225 73.8701 -81.8075 -77.819 75.2165 
-82.1426 -78.8602 76.7127 -82.3245 -79.9934 78.2048 -82.2638 -81.4909 79.506 
-83.8202 -74.9714 72.9715 -84.7012 -75.1054 72.2675 -82.5874 -74.9964 73.6779 
-81.6909 -75.5202 74.5153 -81.652 -76.6752 75.6536 -81.8804 -77.9333 76.9821 
-81.9127 -78.9936 78.2373 -81.9189 -80.2373 79.3775 -81.897 -81.754 80.4974 
-84.2992 -75.045 73.6879 -85.0036 -75.2705 73.006 -83.2738 -74.9207 74.4452 
-82.2677 -75.1547 75.2625 -81.9129 -75.9433 76.2497 -81.9967 -77.0602 77.466 
-81.8699 -78.1388 78.6833 -81.6582 -79.2695 79.7115 -81.6421 -80.6536 80.7046 
-81.6768 -82.1628 81.8002 -84.9048 -75.5198 74.2056 -84.1857 -75.2993 75.0013 
-84.9089 -75.8311 75.6866 -84.2916 -75.6248 76.7631 -85.0039 -76.0777 77.5167 
-83.2847 -75.2709 75.9665 -84.5044 -75.8392 78.9229 -85.0942 -76.3578 79.4078 
-83.5994 -75.6616 78.0357 -82.5927 -75.6659 77.0127 -84.687 -76.1916 80.858 
-85.3125 -76.8825 81.0848 -83.8669 -75.9229 80.2603 -82.9765 -76.0965 79.1919 
-82.3626 -76.4455 78.164 -84.9296 -77.0379 82.306 -85.6604 -77.6922 82.6076 
-84.0339 -76.5576 81.893 -83.0811 -76.5696 81.1563 -82.5033 -76.8827 80.2528 
-82.1562 -77.4121 79.4155 -85.1054 -78.222 83.6448 -85.8093 -78.7115 83.9535 
-84.2791 -77.8027 83.1581 -83.2871 -77.6772 82.5501 -82.5672 -77.7789 81.9534 
-82.1882 -78.0563 81.3284 -81.8206 -78.595 80.5243 -85.1291 -79.4265 84.939 
-85.812 -79.8293 85.0331 -84.465 -79.1701 84.562 -83.7025 -79.1536 83.9344 
-82.9843 -79.2415 83.3393 -82.5029 -79.3411 82.8648 -82.0581 -79.599 82.2756 
-81.6728 -80.0636 81.467 -85.2755 -80.62 86.0045 -85.976 -80.9496 85.9578 
-84.6165 -80.4385 85.8461 -84.0063 -80.4887 85.3871 -83.4139 -80.6383 84.8034 
-82.904 -80.7648 84.2529 -82.4497 -80.9412 83.7382 -81.9848 -81.2339 83.1755 
-81.6832 -81.6412 82.4889 -85.5826 -81.875 86.8822 -86.2398 -82.0832 86.8185 
-84.8755 -81.7523 86.8123 -84.2261 -81.7897 86.5201 -83.6446 -81.9001 86.1284 
-83.0897 -82.002 85.6812 -82.6105 -82.1732 85.1284 -82.2204 -82.4422 84.6234 
-81.8831 -82.7686 84.1772 -81.6727 -83.1662 83.5941 -81.621 -84.8882 84.4576 
-81.7645 -84.4645 85.1165 -81.7202 -86.4408 85.9721 -82.0141 -84.0703 85.5459 
-82.0005 -86.0026 86.4656 -81.9983 -88.2168 87.2766 -82.2751 -83.756 85.9942 
-82.2451 -85.6284 86.8761 -82.3456 -87.7615 87.6739 -82.3269 -90.1355 88.4519 
-82.6896 -83.5344 86.6024 -82.5105 -85.42 87.5228 -82.5393 -87.441 88.293 
-82.529 -89.7093 89.0167 -82.507 -92.2994 89.7515 -83.3017 -83.4346 87.0165 
-83.0572 -85.3194 88.0742 -82.876 -87.3369 89.0248 -82.6043 -89.3965 89.8335 
-82.4807 -91.9463 90.6141 -82.5216 -94.735 91.2071 -83.9239 -83.3501 87.2471 
-83.6902 -85.1766 88.2436 -83.4832 -87.2213 89.3241 -83.0129 -89.2852 90.2972 
-82.5471 -91.5803 91.3149 -82.4639 -94.3886 92.1194 -82.4435 -97.1256 92.4389 
-84.5701 -83.2297 87.5501 -84.2287 -84.9062 88.475 -84.0082 -86.8132 89.5115 
-83.6744 -89.0602 90.3711 -83.1045 -91.4371 91.3533 -82.7078 -93.9482 92.496 
-82.5346 -96.6805 93.1189 -82.3254 -99.275 93.1259 -85.3097 -83.2057 87.741 
-84.8585 -84.7128 88.7362 -84.4753 -86.3099 89.8447 -84.2413 -88.4475 90.6521 
-83.877 -91.1706 91.2765 -83.3991 -93.7792 92.3189 -82.97 -96.1742 93.34 
-82.5635 -98.7068 93.6135 -82.2441 -101.269 93.3473 -86.0139 -83.2909 87.6997 
-85.5717 -84.7218 88.6752 -85.0842 -86.1211 89.815 -84.7815 -87.8477 90.8057 
-84.5269 -90.4952 91.3827 -84.1558 -93.4796 92.1042 -83.6913 -95.9139 93.2107 
-83.1134 -98.0997 93.908 -82.5559 -100.553 93.8055 -82.2477 -103.097 93.3311 
-81.6536 -86.3347 84.8237 -81.6922 -88.198 86.4609 -81.8656 -87.7331 85.3136 
-81.913 -90.2493 87.8922 -81.8182 -89.8192 86.9894 -82.1919 -88.914 85.8733 
-82.2432 -92.4157 89.1414 -81.9705 -92.1069 88.4475 -82.1484 -91.1869 87.3808 
-82.502 -90.0996 86.2159 -82.4357 -94.7966 90.4162 -82.1923 -94.4733 89.7477 
-82.2294 -93.8438 88.833 -82.561 -92.7559 87.6054 -82.8389 -91.5983 86.4634 
-82.3614 -97.2972 91.6944 -82.1612 -96.9 90.9991 -82.1356 -96.5037 90.272 
-82.4392 -95.9232 89.2551 -82.7788 -94.7117 88.0186 -83.1002 -93.354 86.9457 
-82.1632 -99.76 92.6007 -81.9461 -99.5234 92.0079 -81.8557 -99.1698 91.3704 
-82.0723 -98.9749 90.6769 -82.3876 -98.1362 89.7569 -82.6817 -96.5756 88.5626 
-83.1222 -95.0653 87.4631 -82.0607 -102.174 92.9478 -81.8445 -102.421 92.4874 
-81.691 -102.249 91.8463 -81.8171 -102.096 91.2195 -82.0877 -101.496 90.7442 
-82.3015 -99.9403 90.0174 -82.608 -98.0505 88.8985 -83.1292 -96.4529 87.8027 
-82.1017 -104.388 92.9141 -81.9207 -105.226 92.486 -81.6929 -105.526 91.8263 
-81.6953 -105.476 91.0781 -81.9789 -104.945 90.7007 -82.2552 -103.506 90.5474 
-82.483 -101.353 90.0286 -82.834 -99.2237 89.0943 -83.3256 -97.4445 88.0829 
-82.2537 -105.766 92.8813 -82.1145 -107.277 92.3689 -82.3366 -108.39 92.2655 
-81.9625 -110.112 91.5155 -82.2899 -110.744 91.4973 -81.7963 -108.347 91.6969 
-81.5512 -112.755 90.4372 -82.0835 -112.927 90.6038 -81.419 -111.401 90.5693 
-81.5352 -108.798 90.8152 -81.2382 -115.138 89.2962 -81.97 -114.592 89.6921 
-81.0367 -114.129 89.3956 -81.2916 -111.712 89.7875 -81.7237 -108.464 90.2364 
-81.3312 -116.347 88.2918 -82.2759 -114.82 89.0225 -80.9923 -116.133 88.2254 
-81.2094 -113.889 88.8573 -81.727 -110.698 89.5989 -82.1708 -107.142 90.2378 
-81.9474 -115.587 87.7921 -83.1023 -113.595 88.788 -81.2446 -116.403 87.3122 
-81.2666 -114.879 87.8098 -81.7191 -111.883 88.8468 -82.2924 -108.54 89.8055 
-82.5562 -104.87 90.2894 -83.06 -113.614 87.9204 -84.0746 -111.785 88.8577 
-82.0074 -114.82 87.2363 -81.5845 -114.158 87.2894 -81.8312 -111.736 88.0953 
-82.3888 -108.855 89.2303 -82.8569 -105.655 90.0149 -82.9246 -102.182 89.9122 
-84.1932 -111.316 88.3339 -84.7558 -109.729 89.0099 -83.2818 -112.403 87.8304 
-82.5535 -112.179 87.7583 -82.4675 -110.396 88.1661 -82.811 -108.041 88.9711 
-83.1922 -105.549 89.7715 -83.3677 -102.597 89.8549 -83.3251 -99.7019 89.1 
-84.9449 -108.688 88.6957 -85.1794 -107.304 89.1271 -84.4339 -109.63 88.4132 
-83.7914 -109.645 88.4551 -83.4974 -108.456 88.7726 -83.6104 -106.613 89.2254 
-83.7391 -104.693 89.6629 -83.7488 -102.435 89.6872 -83.7339 -99.8679 89.0352 
-83.7563 -97.6264 88.0398 -82.4754 -103.14 93.6206 -82.4845 -105.793 93.1079 
-82.9498 -102.939 93.9677 -82.967 -105.48 93.4618 -83.6749 -102.546 94.1638 
-82.6896 -108.257 92.4982 -83.6949 -104.895 93.7633 -84.3995 -101.94 93.9972 
-83.2802 -107.741 92.8792 -82.9095 -110.339 91.8207 -84.4337 -103.879 93.7785 
-84.9476 -100.916 93.4243 -83.9938 -106.755 93.2371 -83.6715 -109.393 92.1802 
-82.9577 -112.066 91.0117 -85.1231 -102.233 93.3805 -85.5113 -99.3323 92.5914 
-84.7274 -105.082 93.4465 -84.3461 -107.73 92.5259 -83.8123 -110.432 91.3129 
-83.0041 -112.983 90.2226 -85.8581 -100.119 92.6236 -86.2885 -97.4232 91.7791 
-85.5546 -102.91 93.3286 -85.1115 -105.496 93.0193 -84.5108 -108.135 91.7551 
-83.9281 -110.733 90.6318 -83.4551 -112.584 89.7847 -86.6364 -97.8953 91.73 
-87.2553 -95.5511 91.1552 -86.3073 -100.59 92.6118 -86.0291 -103.19 93.1726 
-85.4255 -105.61 92.5206 -84.7372 -108.065 91.2656 -84.3597 -110.06 90.4072 
-84.2048 -111.204 89.6921 -87.5519 -95.8262 90.9278 -88.3042 -93.9218 90.6172 
-86.9682 -98.2281 91.4995 -86.7237 -100.82 92.3593 -86.4 -103.134 92.6593 
-85.7317 -105.21 91.9549 -85.1215 -107.115 91.0369 -84.8508 -108.521 90.3619 
-84.7763 -109.354 89.675 -88.6282 -94.1041 90.2505 -89.2664 -92.6015 89.9879 
-87.8834 -96.0322 90.5343 -87.3872 -98.3103 91.1072 -87.1114 -100.528 91.7282 
[...]
CELL_DATA 2000
SCALARS Distance double
LOOKUP_TABLE default
138.855 138.717 139.114 139.782 138.64 139.009 139.721 140.096 140.844 
138.815 139.085 139.904 140.169 140.997 141.296 142.155 139.307 139.466 
140.377 140.545 141.444 141.631 142.551 142.777 143.69 139.938 140.043 
140.899 141.074 141.981 142.184 143.131 143.311 144.246 144.4 145.295 
140.504 140.615 141.35 141.529 142.403 142.682 143.683 143.929 144.92 
145.057 146.005 146.089 147.042 140.978 141.106 141.85 141.983 142.876 
143.118 144.185 144.472 145.555 145.756 146.79 146.901 147.938 147.995 
149.02 141.529 141.623 142.482 142.581 143.554 143.717 144.801 145.027 
146.115 146.356 147.422 147.654 148.737 148.91 149.959 150.013 150.943 
142.305 142.322 143.27 143.336 144.374 144.493 145.567 145.711 146.734 
146.911 147.931 148.2 149.286 149.59 150.652 150.849 151.774 151.814 
152.6 138.233 137.271 137.876 138.101 136.238 136.895 137.108 137.709 
137.955 135.062 135.791 136.01 136.67 136.868 137.552 137.966 133.863 
134.542 134.776 135.514 135.731 136.425 136.806 137.663 138.353 132.957 
133.394 133.566 134.268 134.584 135.308 135.73 136.534 137.261 138.223 
139.071 132.548 132.672 132.706 133.163 133.504 134.222 134.767 135.55 
136.285 137.192 138.086 139.003 139.759 132.619 132.498 132.442 132.525 
132.755 133.276 133.903 134.676 135.463 136.289 137.112 138.003 138.775 
139.614 140.231 133.048 132.79 132.759 132.532 132.654 132.793 133.39 
133.979 134.864 135.576 136.385 137.097 137.817 138.605 139.294 140.08 
140.734 133.692 133.383 133.447 133.081 133.217 133.017 133.535 133.769 
134.673 135.179 136.07 136.565 137.292 137.833 138.567 139.24 140.026 
140.734 141.512 134.163 135 134.361 133.955 136.144 135.364 134.978 
134.208 133.835 137.467 136.669 136.403 135.492 135.2 134.314 134.213 
138.826 138.058 137.893 137.036 136.825 135.901 135.82 135.02 135.246 
140.282 139.475 139.315 138.502 138.306 137.487 137.389 136.647 136.77 
136.17 136.488 141.783 140.982 140.833 139.974 139.811 138.957 138.902 
138.153 138.285 137.644 137.882 137.326 137.635 143.156 142.45 142.387 
141.572 141.523 140.622 140.668 139.803 140.02 139.251 139.554 138.826 
139.13 138.495 138.886 144.45 143.803 143.841 143.131 143.196 142.403 
142.518 141.685 141.893 141.093 141.387 140.617 140.935 140.176 140.533 
139.878 140.346 145.766 145.147 145.249 144.591 144.706 144.021 144.162 
143.451 143.616 142.891 143.09 142.385 142.644 141.964 142.289 141.617 
142.01 141.393 141.851 142.884 143.081 143.497 144.607 143.302 143.702 
144.798 145.288 146.488 143.59 143.922 144.983 145.459 146.657 147.196 
148.46 144.036 144.277 145.352 145.725 146.941 147.397 148.67 149.194 
150.532 144.558 144.78 145.878 146.21 147.456 147.815 149.064 149.464 
150.802 151.346 152.783 145.05 145.281 146.33 146.705 147.922 148.342 
149.544 149.909 151.137 151.63 153.053 153.662 155.065 145.555 145.758 
146.734 147.073 148.199 148.672 149.841 150.294 151.452 151.932 153.24 
153.868 155.251 155.84 157.016 146.08 146.27 147.203 147.464 148.486 
148.88 149.995 150.482 151.656 152.175 153.445 154.03 155.351 155.943 
157.109 157.593 158.539 146.551 146.762 147.647 147.898 148.817 149.144 
150.139 150.595 151.719 152.294 153.556 154.189 155.487 156.063 157.203 
157.656 158.578 158.978 159.79 143.137 144.895 144.038 144.154 146.863 
145.95 146.104 145.165 145.32 148.918 148.027 148.258 147.246 147.367 
146.379 146.507 151.047 150.165 150.496 149.478 149.61 148.51 148.542 
147.527 147.61 153.313 152.39 152.774 151.761 151.989 150.855 150.93 
149.717 149.75 148.657 148.801 155.558 154.685 155.025 154.037 154.307 
153.271 153.517 152.31 152.43 151.082 151.176 149.987 150.202 157.487 
156.804 157.132 156.226 156.465 155.533 155.887 154.906 155.191 153.92 
153.966 152.569 152.597 151.42 151.566 159.049 158.573 159.03 158.27 
158.569 157.669 158.039 157.188 157.6 156.583 156.7 155.353 155.211 
153.853 153.763 152.654 152.665 160.352 160.05 160.675 160.128 160.571 
159.771 160.135 159.302 159.715 158.862 159.112 157.967 157.869 156.46 
156.226 154.888 154.735 153.621 153.515 161.225 162.707 161.92 161.672 
163.988 163.355 163.149 162.252 161.697 164.978 164.493 164.327 163.613 
163.12 162.101 161.338 165.754 165.401 165.287 164.695 164.298 163.437 
162.769 161.692 160.899 166.05 166.002 165.939 165.575 165.205 164.52 
163.89 163.003 162.212 161.188 160.252 165.684 165.939 165.836 165.884 
165.448 165.133 164.386 163.83 162.974 162.245 161.225 160.257 159.02 
165.019 165.342 165.169 165.407 164.929 164.922 164.082 163.86 162.935 
162.605 161.626 160.974 159.719 158.731 157.348 164.214 164.606 164.429 
164.667 164.226 164.25 163.481 163.32 162.444 162.278 161.44 161.115 
160.034 159.287 157.923 156.97 155.696 163.066 163.642 163.458 163.85 
163.429 163.567 162.885 162.777 161.979 161.806 161.04 160.836 159.912 
159.432 158.173 157.408 156.086 155.325 154.26 161.156 161.452 161.731 
162.585 161.717 162.005 162.827 163.128 163.881 161.818 162.221 163.022 
163.341 164.085 164.324 164.913 161.469 162.156 162.966 163.429 164.102 
164.44 164.996 165.231 165.647 160.548 161.538 162.382 163.122 163.697 
164.214 164.63 165.074 165.405 165.742 165.898 159.294 160.389 161.283 
162.286 162.906 163.576 163.881 164.417 164.657 165.2 165.345 165.703 
165.602 158.074 159.035 159.85 161.002 161.778 162.679 163.077 163.607 
163.771 164.284 164.435 164.952 164.934 165.224 164.982 157.11 157.817 
158.374 159.445 160.183 161.364 161.921 162.732 162.879 163.386 163.383 
163.918 163.871 164.371 164.153 164.474 164.116 156.402 156.902 157.231 
157.995 158.504 159.621 160.164 161.283 161.495 162.278 162.146 162.742 
162.524 163.118 162.846 163.381 162.991 163.406 162.925 147.057 148.125 
147.783 148.162 149.188 148.868 149.293 148.93 149.333 150.327 149.998 
150.484 150.1 150.566 150.162 150.642 151.483 151.214 151.796 151.396 
151.922 151.476 152.051 151.62 152.242 152.476 152.333 153.008 152.741 
153.346 152.928 153.576 153.145 153.919 153.446 154.186 153.408 153.272 
153.985 153.863 154.584 154.334 155.077 154.737 155.612 155.224 156.101 
155.535 156.203 154.454 154.252 154.948 154.817 155.609 155.499 156.373 
156.201 157.15 156.9 157.816 157.405 158.08 157.444 157.867 155.407 
155.274 155.917 155.793 156.562 156.511 157.46 157.433 158.458 158.347 
159.261 158.981 159.625 159.135 159.502 158.87 159.128 156.019 156.042 
156.631 156.639 157.374 157.423 158.38 158.469 159.542 159.557 160.495 
160.31 160.946 160.541 160.91 160.36 160.615 160.014 160.277 146.592 
146.281 146.832 147.639 145.994 146.529 147.31 147.869 148.675 145.656 
146.216 146.978 147.536 148.323 148.903 149.746 145.293 145.849 146.63 
147.198 147.99 148.557 149.378 149.987 150.838 145.042 145.523 146.305 
146.857 147.688 148.254 149.098 149.655 150.479 151.054 151.842 144.879 
145.315 146.04 146.55 147.355 147.942 148.811 149.401 150.239 150.76 
151.535 152.043 152.812 144.667 145.123 145.81 146.29 147.018 147.573 
148.379 149.03 149.865 150.484 151.252 151.782 152.543 153.066 153.864 
144.433 144.88 145.588 146.062 146.782 147.258 147.993 148.56 149.344 
149.999 150.759 151.393 152.121 152.74 153.505 154.106 154.829 144.305 
144.68 145.391 145.853 146.601 147.057 147.781 148.241 148.978 149.514 
150.253 150.843 151.54 152.183 152.896 153.598 154.302 154.932 155.489 
144.504 145.177 145.063 145.575 145.919 145.778 146.313 146.224 146.789 
146.711 146.538 147.047 146.963 147.549 147.463 147.999 147.437 147.284 
147.726 147.663 148.263 148.233 148.85 148.702 149.221 148.062 147.921 
148.36 148.319 148.972 148.98 149.703 149.603 150.188 149.954 150.45 
148.774 148.561 149.074 149.014 149.776 149.775 150.568 150.488 151.103 
150.902 151.371 151.152 151.652 149.556 149.335 149.874 149.827 150.654 
150.663 151.46 151.366 151.947 151.763 152.227 152.035 152.547 152.383 
152.984 150.178 150.061 150.579 150.613 151.421 151.509 152.279 152.221 
152.776 152.595 153.1 152.915 153.5 153.325 153.965 153.788 154.404 
150.658 150.62 151.178 151.255 152.054 152.186 152.959 152.963 153.554 
153.426 153.998 153.853 154.505 154.338 154.965 154.767 155.306 155.12 
155.575 151.096 152.331 151.694 151.815 153.813 153.17 153.33 152.612 
152.775 154.961 154.583 154.785 154.174 154.247 153.566 153.617 155.782 
155.55 155.828 155.44 155.523 154.94 154.905 154.263 154.196 156.781 
156.44 156.785 156.405 156.579 156.084 156.122 155.525 155.517 154.83 
154.761 157.976 157.593 157.975 157.506 157.711 157.163 157.24 156.693 
156.758 156.179 156.19 155.46 155.349 159.184 158.818 159.244 158.783 
159.035 158.432 158.526 157.881 157.93 157.354 157.356 156.771 156.643 
155.952 155.735 160.538 160.1 160.588 160.097 160.455 159.854 160.09 
159.365 159.504 158.714 158.711 157.93 157.756 157.056 156.804 156.175 
155.943 162.002 161.549 162.058 161.535 161.934 161.345 161.663 161.009 
161.274 160.494 160.582 159.589 159.382 158.332 157.996 157.17 156.912 
156.316 156.132 150.974 151.067 151.328 152.087 151.093 151.407 152.158 
152.576 153.463 150.957 151.352 152.033 152.525 153.32 153.84 154.568 
150.588 151.077 151.681 152.242 152.987 153.574 154.294 154.768 155.394 
150.054 150.604 151.201 151.79 152.563 153.199 154.027 154.536 155.271 
155.655 156.383 149.516 150.079 150.735 151.307 152.098 152.765 153.682 
154.308 155.154 155.607 156.369 156.762 157.542 149.06 149.613 150.317 
150.876 151.632 152.282 153.158 153.892 154.767 155.403 156.17 156.683 
157.443 157.91 158.709 148.665 149.198 149.89 150.455 151.171 151.789 
152.589 153.308 154.155 154.88 155.666 156.32 157.111 157.721 158.607 
159.129 160.041 148.297 148.796 149.435 149.996 150.688 151.297 152.07 
152.743 153.57 154.262 155.059 155.737 156.571 157.291 158.28 158.987 
160.044 160.577 161.527 150.531 150.045 150.359 150.541 149.276 149.729 
149.777 150.274 150.486 148.068 148.689 148.679 149.315 149.471 150.145 
150.357 146.813 147.42 147.42 148.057 148.197 148.976 149.225 149.933 
150.045 145.615 146.261 146.331 146.882 146.993 147.67 147.914 148.691 
148.849 149.495 149.489 144.218 145.009 145.145 145.821 145.922 146.543 
146.698 147.391 147.527 148.209 148.215 148.849 148.851 142.758 143.535 
143.664 144.482 144.598 145.362 145.461 146.175 146.254 146.913 146.918 
147.538 147.546 148.225 148.337 141.479 142.128 142.204 142.962 143.072 
143.89 143.999 144.806 144.893 145.627 145.668 146.3 146.336 146.961 
147.086 147.783 147.973 140.354 140.915 140.954 141.593 141.695 142.416 
142.551 143.316 143.445 144.215 144.329 145.049 145.156 145.81 145.955 
146.606 146.807 147.478 147.672 139.754 139.083 139.716 140.355 138.497 
139.117 139.798 140.402 141.103 137.88 138.565 139.292 139.905 140.621 
141.215 141.943 137.233 137.925 138.688 139.37 140.099 140.738 141.455 
142.067 142.804 136.912 137.389 138.155 138.762 139.528 140.183 140.937 
141.57 142.321 142.943 143.698 137.091 137.313 138.068 138.433 139.24 
139.728 140.551 141.104 141.919 142.502 143.312 143.886 144.624 137.549 
137.653 138.4 138.592 139.407 139.69 140.529 140.901 141.742 142.207 
143.06 143.582 144.393 144.86 145.537 138.096 138.16 138.886 139.022 
139.807 140 140.798 141.044 141.847 142.173 143.005 143.427 144.262 
144.705 145.446 145.811 146.43 138.644 138.706 139.39 139.507 140.235 
140.4 141.144 141.35 142.119 142.371 143.172 143.481 144.289 144.648 
145.399 145.755 146.404 146.715 147.286 139.129 140.099 139.707 139.906 
141.157 140.728 140.964 140.535 140.747 142.428 141.882 142.135 141.646 
141.889 141.419 141.651 143.905 143.265 143.506 142.921 143.196 142.651 
142.932 142.402 142.664 145.459 144.779 144.988 144.356 144.612 144.036 
144.345 143.785 144.082 143.49 143.747 147.186 146.397 146.611 145.882 
146.102 145.464 145.738 145.195 145.491 144.937 145.178 144.579 144.813 
149.144 148.263 148.5 147.637 147.865 147.058 147.297 146.615 146.883 
146.303 146.536 145.965 146.155 145.601 145.829 151.033 150.227 150.427 
149.58 149.78 148.928 149.139 148.314 148.54 147.791 148.003 147.328 
147.5 146.897 147.075 146.561 146.78 152.694 151.999 152.167 151.401 
151.531 150.757 150.898 150.132 150.291 149.522 149.67 148.9 149.017 
148.291 148.411 147.797 147.964 147.461 147.656 148.286 148.641 148.768 
149.42 149.158 149.221 149.935 150.006 150.713 149.844 149.865 150.642 
150.648 151.428 151.423 152.17 150.544 150.601 151.401 151.421 152.23 
152.231 153.027 152.972 153.698 151.179 151.284 152.12 152.181 153.031 
153.06 153.906 153.871 154.632 154.514 155.183 151.82 151.943 152.925 
152.996 154.059 154.032 155.082 154.926 155.855 155.595 156.39 156.094 
156.805 152.52 152.668 153.849 153.983 155.343 155.347 156.69 156.451 
157.616 157.175 158.174 157.647 158.534 157.985 158.741 153.2 153.424 
154.724 155.002 156.509 156.716 158.16 158.13 159.332 159.056 160.083 
159.641 160.575 159.993 160.789 160.084 160.681 153.716 154.054 155.357 
155.804 157.296 157.724 159.079 159.309 160.344 160.398 161.266 161.227 
162.05 161.838 162.538 162.07 162.567 161.883 162.194 133.661 133.025 
133.328 133.392 132.641 132.789 132.786 133.086 133.284 132.627 132.599 
132.599 132.638 132.742 133.087 133.48 133.004 132.798 132.842 132.671 
132.672 132.704 132.976 133.407 133.97 133.779 133.357 133.368 133.059 
132.973 132.757 132.816 133.002 133.51 134.047 134.778 134.878 134.275 
134.193 133.709 133.578 133.152 133.079 132.958 133.354 133.72 134.538 
135.06 135.89 136.042 135.411 135.289 134.675 134.564 133.952 133.909 
133.462 133.82 133.832 134.68 135.021 135.959 136.308 137.087 137.099 
136.526 136.425 135.819 135.758 135.117 135.151 134.555 134.899 134.61 
135.389 135.446 136.374 136.548 137.343 137.534 138.212 138.091 137.562 
137.506 136.941 136.92 136.343 136.41 135.858 136.138 135.774 136.392 
136.295 137.092 137.114 137.834 137.89 138.519 138.648 139.25 134.109 
133.889 134.273 134.896 133.859 134.159 134.842 135.196 135.913 134.08 
134.263 134.957 135.236 135.963 136.287 137.015 134.55 134.587 135.215 
135.402 136.11 136.393 137.143 137.442 138.186 135.33 135.178 135.75 
135.748 136.435 136.609 137.41 137.661 138.465 138.691 139.434 136.364 
136.085 136.641 136.457 137.134 137.113 137.933 138.056 138.898 139.058 
139.806 139.956 140.619 137.461 137.156 137.673 137.437 138.065 137.947 
138.692 138.699 139.483 139.561 140.29 140.377 141.014 141.105 141.675 
138.533 138.229 138.696 138.445 138.978 138.834 139.449 139.424 140.09 
140.142 140.821 140.892 141.533 141.568 142.125 142.141 142.642 139.549 
139.268 139.702 139.433 139.889 139.684 140.197 140.105 140.683 140.692 
141.316 141.392 142.024 142.094 142.656 142.652 143.122 143.095 143.543 
134.449 135.249 134.966 135.318 136.25 135.886 136.241 135.957 136.418 
137.338 136.947 137.298 136.957 137.373 137.118 137.641 138.467 138.045 
138.388 138.033 138.422 138.103 138.56 138.354 138.947 139.668 139.206 
139.522 139.126 139.513 139.164 139.619 139.334 139.924 139.743 140.43 
140.848 140.42 140.745 140.31 140.686 140.286 140.752 140.434 141.038 
140.812 141.505 141.304 141.957 141.884 141.542 141.909 141.54 141.928 
141.51 141.937 141.58 142.145 141.92 142.582 142.392 143.003 142.769 
143.301 142.803 142.511 142.889 142.629 143.055 142.723 143.125 142.757 
143.23 142.975 143.573 143.405 143.994 143.782 144.289 144.042 144.543 
143.69 143.403 143.771 143.549 143.997 143.763 144.189 143.882 144.299 
144.015 144.529 144.342 144.913 144.733 145.254 145.022 145.515 145.283 
145.81 150.373 149.994 150.151 149.994 149.374 149.695 149.569 149.712 
149.311 148.524 148.902 148.705 149.052 148.632 148.748 148.092 147.745 
147.994 147.648 147.982 147.509 147.812 147.206 147.37 146.738 147.037 
147.204 146.71 146.905 146.345 146.616 146.062 146.349 145.787 146.012 
145.441 146.219 146.391 145.802 145.953 145.328 145.525 144.977 145.243 
144.717 144.973 144.383 144.626 144.009 145.398 145.523 144.937 145.042 
144.421 144.555 143.984 144.209 143.662 143.904 143.293 143.516 142.893 
143.144 142.575 144.686 144.765 144.247 144.292 143.728 143.751 143.157 
143.256 142.665 142.846 142.229 142.434 141.833 142.068 141.548 141.805 
141.338 144.042 144.11 143.637 143.695 143.184 143.17 142.573 142.537 
141.912 141.941 141.335 141.443 140.882 141.068 140.586 140.832 140.403 
140.653 140.234 
POINT_DATA 1002
SCALARS Distance double
LOOKUP_TABLE default
139.504 138.59 138.471 139.369 138.314 140.475 139.347 138.26 140.448 
141.61 139.652 138.536 140.715 141.831 143.027 140.212 139.176 141.27 
142.351 143.476 144.572 140.747 139.895 141.742 142.936 144.111 145.157 
146.159 141.206 140.413 142.101 143.37 144.746 145.907 146.954 148.016 
141.703 140.821 142.645 143.886 145.303 146.62 147.847 149.018 150.03 
142.349 141.421 143.397 144.622 145.897 147.148 148.5 149.868 150.997 
151.808 143.2 142.297 144.265 145.464 146.617 147.691 148.956 150.406 
151.689 152.643 153.353 137.638 137.521 136.658 136.51 135.55 137.295 
135.315 134.323 136.208 137.104 133.992 133.278 135.023 135.966 137.351 
132.917 132.682 133.793 134.938 136.288 138.148 132.422 132.544 132.785 
133.939 135.427 137.145 138.972 132.534 132.786 132.377 133.109 134.668 
136.3 137.897 139.461 133.058 133.305 132.692 132.9 134.165 135.764 
137.097 138.462 139.964 133.789 133.986 133.498 133.465 134.245 135.612 
136.838 137.945 139.299 140.821 134.715 134.582 135.706 135.81 136.922 
134.547 137.281 138.202 136.125 134.934 138.697 139.584 137.707 136.649 
135.884 140.146 141.119 139.105 138.111 137.413 137.019 141.682 142.551 
140.674 139.659 138.94 138.506 138.126 143.119 143.8 142.363 141.536 
140.813 140.309 139.85 139.419 144.493 145.06 143.913 143.314 142.708 
142.159 141.694 141.263 140.922 145.889 146.351 145.368 144.84 144.335 
143.809 143.305 142.938 142.671 142.44 143.918 144.137 145.771 144.301 
145.959 147.739 144.531 146.119 147.895 149.751 144.999 146.529 148.179 
149.94 151.912 145.535 147.105 148.739 150.279 152.193 154.252 145.978 
147.479 149.186 150.712 152.426 154.549 156.402 146.46 147.766 149.354 
150.987 152.664 154.635 156.576 158.077 146.985 148.169 149.525 151.11 
152.88 154.797 156.626 158.133 159.416 147.415 148.545 149.742 151.154 
152.9 154.897 156.772 158.217 159.393 160.569 145.001 147.082 146.234 
149.266 148.429 147.444 151.482 150.743 149.662 148.525 153.781 153.063 
152.166 150.97 149.76 156.029 155.272 154.59 153.803 152.525 151.251 
157.99 157.384 156.745 156.335 155.444 153.94 152.612 159.664 159.445 
158.888 158.495 157.98 156.686 155.016 153.671 161.083 161.288 160.993 
160.539 160.124 159.245 157.686 155.986 154.555 162.031 162.656 163.441 
163.978 164.553 162.824 164.961 165.431 164.052 162.501 165.824 166.018 
165.084 163.772 162.052 166.173 165.967 165.825 164.715 163.199 161.402 
165.683 165.413 165.655 164.868 163.589 162.15 160.139 164.943 164.711 
164.889 164.25 163.14 162.093 160.651 158.38 164.175 163.763 164.18 
163.623 162.589 161.624 160.619 158.845 156.551 162.999 162.443 163.21 
162.913 162.142 161.229 160.284 158.846 156.836 154.875 160.88 162.295 
161.195 162.539 161.432 163.661 162.706 161.329 163.835 164.77 162.445 
160.642 163.757 164.726 165.505 161.535 159.475 163.175 164.171 165.006 
165.718 160.166 158.25 162.158 163.396 164.089 164.891 165.437 158.699 
157.281 160.692 162.494 163.351 163.888 164.539 164.836 157.48 156.577 
158.951 160.913 162.363 162.936 163.339 163.748 163.885 156.658 155.976 
157.563 159.006 160.581 161.549 161.966 162.281 162.521 162.579 147.407 
148.531 148.441 149.635 149.493 149.717 150.869 150.623 150.953 151.033 
152.152 151.677 152.371 152.447 152.68 153.172 152.581 153.704 153.973 
154.319 154.77 154.069 153.58 154.722 155.339 155.934 156.595 156.948 
155.114 154.673 155.67 156.45 157.346 158.181 158.68 158.619 156.043 
155.512 156.603 157.427 158.516 159.522 160.088 160.115 159.782 146.02 
147.072 145.753 146.763 145.468 148.096 146.42 145.082 147.753 149.125 
146.049 144.752 147.424 148.798 150.217 145.77 144.607 147.101 148.544 
149.956 151.271 145.571 144.461 146.782 148.185 149.707 151.059 152.281 
145.34 144.203 146.522 147.756 149.202 150.691 152.011 153.342 145.1 
143.999 146.327 147.501 148.725 150.11 151.484 152.872 154.306 144.944 
143.976 146.133 147.346 148.5 149.712 150.942 152.2 153.622 154.983 