# vtk DataFile Version 4.0
vtk output
ASCII
DATASET POLYDATA
POINTS 1002 float
-84.4314 -84.3659 68.769 -84.5574 -83.7213 67.6195 -84.127 -83.5205 68.2347 
-83.9819 -84.2716 69.4907 -83.6341 -83.4093 68.9478 -84.2982 -85.1814 70.1519 
-83.5446 -84.2758 70.4437 -83.1335 -83.4228 69.8764 -83.9524 -85.1239 71.1352 
-84.2207 -86.0595 71.8831 -83.0575 -84.3494 71.5948 -82.6214 -83.5261 70.9578 
-83.5669 -85.1456 72.3313 -83.9061 -86.0295 73.0555 -84.0859 -87.065 73.72 
-82.4634 -84.4352 72.6729 -82.1222 -83.5779 72.0546 -82.9521 -85.2814 73.4466 
-83.3489 -86.181 74.1784 -83.5434 -87.2255 74.773 -83.6881 -88.3611 75.3203 
-81.9295 -84.5636 73.7665 -81.7035 -83.6429 73.2975 -82.2129 -85.5617 74.3965 
-82.521 -86.6121 75.0859 -82.7718 -87.6625 75.6994 -82.9454 -88.7487 76.2471 
-83.0676 -89.8451 76.7687 -81.5105 -84.883 75.1216 -81.271 -83.9261 74.6485 
-81.6577 -85.9883 75.619 -81.7638 -87.1965 76.1518 -81.9922 -88.3096 76.7214 
-82.2689 -89.3164 77.3026 -82.4213 -90.392 77.8411 -82.4888 -91.4624 78.2883 
-80.9763 -85.3339 76.3145 -80.688 -84.3481 75.7011 -81.1728 -86.471 76.9357 
-81.2169 -87.7408 77.4956 -81.3661 -88.9379 78.04 -81.6868 -89.9506 78.5852 
-81.919 -91.0188 79.087 -81.9998 -92.2004 79.5061 -82.0869 -93.2386 79.8388 
-80.3202 -85.691 77.0115 -80.066 -84.688 76.3981 -80.5445 -86.8449 77.732 
-80.6286 -88.177 78.4468 -80.7642 -89.5093 79.157 -81.0822 -90.635 79.8042 
-81.374 -91.7029 80.2952 -81.5221 -92.9111 80.6791 -81.6428 -94.0688 81.0258 
-81.8045 -94.9675 81.3201 -79.8045 -85.9088 77.5829 -79.6221 -84.8968 77.0788 
-79.9578 -87.0866 78.2289 -80.0026 -88.5215 78.9334 -80.1068 -90.0606 79.7408 
-80.4298 -91.3922 80.5961 -80.7914 -92.4946 81.2558 -81.0271 -93.6187 81.6899 
-81.2157 -94.7833 82.0704 -81.4131 -95.7832 82.4331 -81.5835 -96.5615 82.7097 
-84.408 -82.9984 66.8654 -83.9496 -82.7086 67.523 -84.1966 -82.1567 66.0387 
-83.6358 -81.8253 66.6959 -83.8234 -81.2193 65.1339 -83.3919 -82.5106 68.2546 
-83.1108 -80.9995 65.7612 -83.3245 -80.3734 64.2335 -83.0077 -81.6351 67.4596 
-82.8508 -82.5166 69.2019 -82.6197 -80.2421 64.9777 -82.8595 -79.5586 63.4703 
-82.4987 -80.8712 66.6841 -82.5048 -81.6201 68.5299 -82.3587 -82.6215 70.349 
-82.322 -79.3022 64.5224 -82.4596 -78.5026 62.9341 -82.1432 -79.998 66.207 
-82.0881 -80.6717 67.9999 -82.0627 -81.5933 69.8424 -81.8937 -82.637 71.6155 
-82.0316 -78.1823 64.3489 -82.2418 -77.3717 62.8173 -81.9075 -78.9253 65.9766 
-81.7369 -79.5915 67.6366 -81.6578 -80.479 69.4239 -81.6186 -81.6025 71.2747 
-81.4645 -82.7433 73.0374 -81.8978 -77.2099 64.6434 -82.4676 -76.6186 63.3599 
-81.639 -77.9144 65.9869 -81.444 -78.6172 67.369 -81.2849 -79.5058 69.0459 
-81.3058 -80.6636 70.9884 -81.2555 -81.8737 72.8423 -80.9785 -83.0925 74.3996 
-82.2447 -76.5675 65.5499 -83.0535 -76.369 64.4335 -81.659 -77.0808 66.5732 
-81.3002 -77.8255 67.5429 -81.0819 -78.758 68.9542 -81.0854 -79.8888 70.9011 
-81.1198 -81.0752 72.8296 -80.828 -82.254 74.3127 -80.365 -83.4874 75.4251 
-82.8923 -76.286 66.6951 -83.6162 -76.4617 65.5934 -82.1457 -76.4854 67.62 
-81.5313 -77.1329 68.3503 -81.1392 -78.0567 69.4595 -81.0152 -79.1035 71.2364 
-81.0034 -80.2094 73.1207 -80.7426 -81.3395 74.5257 -80.2125 -82.5355 75.4647 
-79.7774 -83.7617 76.2489 -83.6548 -76.4879 67.319 -83.004 -76.2813 68.4254 
-83.6514 -76.7422 68.8335 -82.9924 -76.8111 69.8441 -83.5577 -77.5121 70.1498 
-82.2194 -76.6261 69.2597 -82.8237 -77.9037 71.2542 -83.4364 -78.4846 71.7496 
-82.177 -77.3354 70.9214 -81.5361 -77.4063 70.2611 -82.6902 -78.8332 73.1931 
-83.3892 -79.1204 73.8403 -82.0722 -78.2639 72.8793 -81.5245 -77.9179 72.5851 
-81.1423 -78.3022 71.9344 -82.6559 -79.3523 75.4761 -83.3447 -79.6632 75.8971 
-82.0416 -78.9459 75.123 -81.4583 -78.5373 74.8599 -81.0181 -78.5928 74.4545 
-80.9072 -79.3002 73.7898 -82.5441 -80.1348 77.3653 -83.1814 -80.6307 77.4334 
-82.0101 -79.6938 77.2178 -81.3837 -79.4394 76.7865 -80.6823 -79.3624 76.2309 
-80.3671 -79.6796 75.706 -80.5149 -80.465 75.1152 -82.3538 -81.3736 78.6309 
-82.9682 -81.8723 78.5581 -81.8942 -80.8275 78.7786 -81.3499 -80.6024 78.4874 
-80.4987 -80.5968 77.7137 -79.7802 -80.6246 77.0084 -79.6727 -80.9816 76.4985 
-79.9422 -81.7372 75.9567 -82.2762 -82.6204 79.6629 -82.8538 -82.9999 79.5989 
-81.819 -82.0908 79.9038 -81.3308 -81.7558 79.9169 -80.567 -81.6987 79.3679 
-79.7089 -81.6561 78.5666 -79.2464 -81.7501 77.8978 -79.2722 -82.2741 77.2809 
-79.503 -83.0538 76.6677 -82.3615 -83.6755 80.7695 -82.8669 -83.9452 80.6799 
-81.8891 -83.2755 80.9618 -81.3419 -82.9273 81.0751 -80.6195 -82.7359 80.8599 
-79.8656 -82.583 80.3079 -79.357 -82.5464 79.6093 -79.1829 -82.9082 78.8596 
-79.227 -83.6071 78.0933 -79.3795 -84.3247 77.4507 -79.5026 -85.7545 78.2709 
-79.3854 -85.236 78.8453 -79.5219 -86.9897 79.8691 -79.3372 -84.5942 79.611 
-79.502 -86.6441 80.5387 -79.5443 -88.7946 81.7417 -79.3406 -84.0101 80.4819 
-79.4651 -86.2403 81.302 -79.5419 -88.6281 82.4208 -79.5347 -90.9232 83.6432 
-79.4675 -83.8129 81.2946 -79.4185 -85.9239 82.206 -79.5026 -88.4107 83.2596 
-79.4986 -90.7442 84.4634 -79.4732 -93.1328 85.3952 -79.9183 -83.9787 81.8548 
-79.5294 -85.8736 82.9313 -79.5416 -88.1701 84.1344 -79.5236 -90.4243 85.3901 
-79.3954 -92.8843 86.3249 -79.4011 -95.6905 86.8942 -80.7282 -84.1678 82.1438 
-80.1027 -85.9321 83.2506 -79.8845 -87.9546 84.5303 -79.821 -89.9995 85.8968 
-79.5712 -92.4384 86.917 -79.4708 -95.466 87.5155 -79.588 -98.4781 88.0631 
-81.56 -84.3228 82.2191 -81.0337 -85.8877 83.3868 -80.6291 -87.7334 84.542 
-80.4639 -89.6365 85.8271 -80.1666 -91.9603 86.9146 -79.8996 -94.962 87.5546 
-79.9827 -98.1273 88.1304 -80.0826 -100.774 88.8741 -82.1663 -84.5526 82.1075 
-81.8397 -85.8513 83.4036 -81.429 -87.532 84.502 -81.1919 -89.4165 85.6226 
-80.966 -91.6695 86.74 -80.6144 -94.4317 87.4651 -80.4997 -97.3914 87.9516 
-80.61 -100.121 88.6408 -80.5326 -102.372 89.4343 -82.6426 -84.7919 81.9091 
-82.3858 -85.9271 83.215 -82.0062 -87.4394 84.3322 -81.7097 -89.2716 85.3649 
-81.5734 -91.4939 86.5162 -81.3199 -94.0657 87.4844 -81.0098 -96.6449 88.0568 
-80.9325 -99.0988 88.5954 -80.932 -101.478 89.2983 -80.7199 -103.64 89.9257 
-79.61 -87.0041 78.8637 -79.4969 -88.6554 80.6273 -79.5852 -88.5795 79.5264 
-79.4742 -90.8448 82.6644 -79.3768 -90.6906 81.387 -79.5583 -90.4339 80.2819 
-79.531 -93.1948 84.5088 -79.4551 -93.0695 83.4929 -79.461 -92.723 82.2387 
-79.8188 -92.1354 81.232 -79.5133 -95.8049 86.0458 -79.6194 -95.5675 85.2208 
-79.6966 -95.024 84.3109 -79.895 -94.302 83.1781 -80.2818 -93.4326 82.1325 
-79.4606 -98.7724 87.5312 -79.5505 -98.5454 86.6722 -79.8171 -97.7566 85.9058 
-80.1311 -96.6727 85.0734 -80.3948 -95.6078 83.9375 -80.655 -94.5848 82.7443 
-79.6339 -101.368 88.8566 -79.4089 -101.472 88.1927 -79.6268 -100.954 87.2853 
-80.1233 -99.7936 86.5785 -80.5613 -98.3532 85.7595 -80.7839 -96.9896 84.5425 
-80.9388 -95.7974 83.2253 -79.9795 -103.202 89.6867 -79.4984 -103.599 89.4063 
-79.4885 -103.57 88.5788 -79.9305 -102.952 87.7999 -80.4864 -101.694 87.2504 
-80.8925 -100.061 86.3924 -81.0704 -98.3846 85.0626 -81.1852 -96.9363 83.6628 
-80.2271 -104.67 90.1 -79.7116 -105.248 90.0068 -79.558 -105.47 89.4218 
-79.8295 -105.32 88.6535 -80.2617 -104.631 88.1564 -80.7063 -103.354 87.6826 
-81.0552 -101.562 86.7162 -81.2226 -99.579 85.3477 -81.351 -97.8665 83.9652 
-80.483 -105.774 90.4375 -79.9484 -106.793 90.3534 -80.1732 -108.086 90.7256 
-79.6552 -109.162 90.4648 -79.9246 -110.223 90.8866 -79.6251 -107.351 89.9759 
-79.4517 -111.608 90.5257 -79.9832 -112.147 90.8328 -79.4677 -109.929 89.83 
-79.7077 -107.521 89.2316 -79.6902 -113.992 90.1481 -80.5349 -113.904 90.1954 
-79.2428 -112.776 89.5426 -79.5172 -110.049 88.8842 -79.9689 -107.155 88.5539 
-80.4972 -115.667 89.1308 -81.2048 -114.776 89.0978 -79.5216 -115.149 88.8699 
-79.215 -112.594 88.4112 -79.7105 -109.188 88.2079 -80.3109 -106.216 88.1666 
-81.2597 -115.573 88.1092 -81.6321 -114.08 88.2064 -80.3858 -115.904 88.0691 
-79.5916 -114.114 87.9805 -79.6731 -110.862 87.8698 -80.2723 -107.662 87.8288 
-80.7865 -104.649 87.5702 -81.7153 -113.751 87.5276 -82.1055 -112.333 87.7203 
-81.1404 -114.608 87.4956 -80.4466 -113.85 87.6405 -80.2776 -111.389 87.7401 
-80.63 -108.422 87.5804 -80.9602 -105.476 87.1753 -81.1527 -102.402 86.4554 
-82.24 -111.35 87.1523 -82.8006 -110.41 87.3315 -81.6878 -112.153 87.0524 
-81.1481 -112.104 87.1315 -80.9714 -110.598 87.3623 -81.2105 -108.155 87.3691 
-81.3564 -105.51 86.8914 -81.3204 -102.722 86.0839 -81.3289 -100.032 85.0868 
-82.9015 -109.135 86.7566 -83.459 -108.58 86.8559 -82.3205 -109.622 86.6533 
-81.7726 -109.769 86.5474 -81.4943 -108.954 86.5865 -81.6086 -107.101 86.6999 
-81.7211 -104.847 86.4607 -81.5919 -102.524 85.7234 -81.4909 -100.196 84.7426 
-81.533 -98.1557 83.7118 -80.9412 -103.464 90.2468 -80.8138 -105.86 90.8345 
-81.1494 -102.999 90.7282 -81.2859 -105.456 91.1988 -81.5425 -102.403 90.8664 
-80.6706 -108.293 91.0218 -81.8543 -104.601 91.0619 -82.0577 -101.798 90.3012 
-81.3721 -107.873 91.0236 -80.5847 -110.326 90.9165 -82.2775 -103.476 90.3729 
-82.5082 -101.106 89.3797 -81.997 -106.693 90.6457 -81.3862 -109.841 90.5661 
-80.7674 -112.008 90.5883 -82.6569 -102.341 89.5607 -83.0365 -100.123 88.5398 
-82.4588 -104.952 90.1684 -82.0948 -108.27 90.2203 -81.5072 -111.15 90.1397 
-81.1796 -113.163 89.8593 -83.2937 -101.117 88.7432 -83.7293 -98.6927 87.6719 
-83.0694 -103.339 89.6723 -82.8486 -105.98 90.0355 -82.2773 -109.01 89.8874 
-81.686 -111.473 89.5343 -81.5285 -113.133 88.941 -83.989 -99.454 87.6789 
-84.3404 -96.9766 86.6015 -83.7939 -101.828 88.8385 -83.6683 -104.036 89.6085 
-83.1848 -106.494 89.6553 -82.4535 -108.982 89.3046 -82.0363 -110.889 88.8607 
-82.022 -112.01 88.3003 -84.5123 -97.5198 86.425 -84.8313 -95.3686 85.5103 
-84.3194 -99.9126 87.5697 -84.2592 -102.193 88.6209 -83.9457 -104.38 89.0673 
-83.3197 -106.593 88.9531 -82.8969 -108.553 88.717 -82.8376 -109.902 88.3934 
-82.8548 -110.502 87.8785 -85.0515 -95.7982 85.3129 -85.3994 -94.0653 84.6278 
-84.7663 -97.8415 86.2253 -84.662 -99.9782 87.2645 -84.4953 -102.08 88.0403 
[...]
CELL_DATA 2000
SCALARS Distance double
LOOKUP_TABLE default
136.131 136.109 136.437 137.131 136.237 136.516 137.3 137.587 138.406 
136.512 136.762 137.62 137.878 138.756 138.996 139.864 136.802 137.065 
137.92 138.225 139.105 139.378 140.223 140.469 141.298 137.165 137.366 
138.198 138.489 139.369 139.679 140.527 140.797 141.61 141.865 142.664 
137.75 137.851 138.732 138.877 139.807 140.007 140.941 141.15 142.053 
142.242 143.12 143.287 144.127 138.329 138.492 139.402 139.541 140.495 
140.615 141.601 141.726 142.718 142.835 143.807 143.904 144.849 144.905 
145.797 138.641 138.931 139.781 140.089 140.991 141.259 142.211 142.432 
143.425 143.586 144.571 144.677 145.643 145.72 146.66 146.681 147.556 
138.851 139.132 139.936 140.294 141.166 141.556 142.505 142.892 143.916 
144.227 145.239 145.422 146.381 146.497 147.44 147.526 148.433 148.442 
149.266 135.533 134.561 135.186 135.456 133.415 134.135 134.407 135.104 
135.477 132.148 132.909 133.207 133.985 134.384 135.179 135.688 130.957 
131.674 132.005 132.777 133.24 134.069 134.626 135.451 136.01 129.861 
130.577 130.965 131.676 132.156 132.948 133.54 134.389 135.003 135.799 
136.39 128.871 129.553 130.022 130.717 131.174 131.902 132.445 133.291 
133.947 134.809 135.48 136.263 136.938 128.393 128.774 129.279 129.845 
130.316 130.949 131.459 132.227 132.933 133.808 134.605 135.415 136.142 
136.881 137.531 128.729 128.685 129.142 129.354 129.842 130.237 130.797 
131.386 132.178 132.957 133.902 134.675 135.49 136.147 136.761 137.406 
137.914 129.587 129.309 129.678 129.554 129.995 130.069 130.651 130.984 
131.822 132.426 133.434 134.13 134.998 135.585 136.174 136.693 137.145 
137.72 138.165 130.223 131.154 130.54 130.273 132.167 131.514 131.267 
130.641 130.486 133.393 132.643 132.459 131.736 131.623 130.999 131.091 
134.822 134.009 133.889 133.089 133.064 132.321 132.478 131.871 132.27 
136.285 135.502 135.429 134.629 134.626 133.861 133.999 133.358 133.721 
133.24 133.799 137.669 136.957 136.94 136.196 136.202 135.433 135.448 
134.78 134.941 134.524 134.911 134.668 135.171 138.951 138.309 138.345 
137.688 137.754 137.012 136.982 136.189 136.146 135.567 135.736 135.497 
135.865 135.782 136.198 140.171 139.576 139.647 139.058 139.175 138.528 
138.551 137.748 137.65 136.844 136.863 136.335 136.614 136.383 136.794 
136.692 137.119 141.385 140.82 140.944 140.366 140.514 139.912 139.989 
139.275 139.231 138.409 138.39 137.651 137.854 137.344 137.747 137.427 
137.89 137.684 138.154 138.879 138.711 139.23 140.247 138.66 139.162 
140.284 140.851 142.148 138.809 139.212 140.394 140.964 142.349 142.966 
144.434 139.289 139.505 140.683 141.169 142.613 143.224 144.749 145.342 
146.823 140.029 140.107 141.198 141.559 142.99 143.559 145.1 145.68 
147.165 147.715 149.19 140.77 140.856 141.848 142.113 143.415 143.931 
145.388 145.989 147.401 147.999 149.44 150.083 151.623 141.341 141.52 
142.486 142.728 143.879 144.3 145.607 146.178 147.503 148.125 149.478 
150.197 151.69 152.474 153.966 141.764 142.013 142.975 143.269 144.317 
144.685 145.849 146.351 147.631 148.211 149.534 150.18 151.566 152.358 
153.778 154.602 155.852 142.13 142.385 143.296 143.637 144.603 144.988 
146.022 146.515 147.726 148.341 149.669 150.282 151.571 152.209 153.46 
154.237 155.438 156.229 157.248 139.305 140.652 140.061 140.411 142.574 
141.682 141.956 141.275 141.673 144.923 143.881 144.175 143.141 143.456 
142.668 143.111 147.345 146.353 146.756 145.62 145.929 144.799 145.153 
144.252 144.67 149.768 148.815 149.318 148.251 148.628 147.442 147.721 
146.562 146.839 145.848 146.105 152.324 151.361 151.951 150.861 151.302 
150.136 150.432 149.204 149.381 148.176 148.292 147.212 147.305 154.737 
153.947 154.584 153.55 154.002 152.843 153.193 151.948 152.178 150.84 
150.924 149.581 149.586 148.39 148.409 156.606 156.128 156.741 155.988 
156.39 155.438 155.775 154.688 154.989 153.724 153.88 152.418 152.385 
150.896 150.794 149.503 149.44 157.971 157.706 158.302 157.816 158.192 
157.519 157.812 157.019 157.303 156.359 156.557 155.343 155.313 153.817 
153.578 152.043 151.78 150.468 150.285 158.892 160.394 159.534 159.209 
161.872 161.013 160.62 159.676 159.146 163.301 162.507 162.172 161.143 
160.556 159.503 158.841 164.619 163.982 163.77 162.752 162.109 160.942 
160.167 159.122 158.376 165.435 165.199 165.085 164.292 163.581 162.415 
161.433 160.354 159.495 158.564 157.689 165.219 165.564 165.51 165.267 
164.557 163.665 162.524 161.459 160.41 159.526 158.578 157.673 156.511 
164.115 164.788 164.704 165.08 164.467 164.187 163.07 162.3 161.102 
160.275 159.156 158.342 157.079 156.154 154.717 162.792 163.405 163.176 
163.801 163.259 163.549 162.578 162.38 161.163 160.654 159.363 158.689 
157.272 156.475 154.967 154.133 152.732 161.563 162.032 161.652 162.183 
161.639 162.091 161.249 161.449 160.318 160.232 158.911 158.549 157.071 
156.467 154.937 154.233 152.849 152.18 151.046 158.777 159.01 159.447 
160.422 159.061 159.68 160.812 161.118 161.948 158.762 159.589 160.779 
161.383 162.291 162.551 163.268 158.07 159.025 160.138 161.065 162.047 
162.669 163.413 163.752 164.422 157.221 158.15 159.117 160.149 161.136 
162.107 162.922 163.607 164.194 164.67 165.102 156.3 157.241 158.146 
159.092 160.001 161.011 161.82 162.761 163.283 164.032 164.268 164.862 
164.851 155.081 156.166 157.06 158.099 158.952 159.906 160.607 161.51 
161.97 162.803 162.997 163.713 163.668 164.21 163.905 153.639 154.743 
155.536 156.768 157.573 158.718 159.335 160.269 160.645 161.442 161.677 
162.398 162.503 163.058 162.931 163.237 162.833 152.399 153.285 153.92 
155.067 155.768 157.041 157.621 158.769 159.107 160.047 160.264 161.095 
161.288 161.975 162.002 162.405 162.134 162.256 161.746 142.6 143.681 
143.336 143.777 144.841 144.487 144.965 144.6 145.085 146.056 145.721 
146.244 145.842 146.357 145.964 146.516 147.222 146.97 147.577 147.186 
147.759 147.332 148.009 147.585 148.302 148.275 148.118 148.825 148.537 
149.209 148.823 149.612 149.226 150.118 149.618 150.37 149.274 149.166 
149.969 149.786 150.59 150.301 151.171 150.868 151.817 151.453 152.27 
151.688 152.275 150.228 150.174 151.073 150.977 151.928 151.725 152.689 
152.424 153.381 153.076 153.901 153.459 154.078 153.476 154.023 151.059 
151.091 152.057 152.094 153.156 153.087 154.13 153.936 154.917 154.626 
155.493 155.072 155.783 155.23 155.858 155.252 155.89 151.76 151.857 
152.849 153.019 154.144 154.246 155.315 155.268 156.233 156.075 156.983 
156.691 157.516 157.029 157.748 157.13 157.774 157.139 157.706 142.153 
141.871 142.386 143.179 141.539 142.084 142.838 143.418 144.274 141.092 
141.686 142.429 143.036 143.847 144.505 145.407 140.69 141.227 141.972 
142.581 143.372 144.031 144.889 145.607 146.508 140.498 140.916 141.633 
142.153 142.947 143.558 144.406 145.078 145.96 146.672 147.544 140.394 
140.787 141.474 141.902 142.673 143.197 144.06 144.658 145.545 146.176 
147.049 147.705 148.545 140.22 140.648 141.329 141.762 142.492 142.974 
143.802 144.363 145.247 145.831 146.692 147.279 148.1 148.71 149.493 
140.052 140.452 141.119 141.567 142.262 142.753 143.51 144.077 144.906 
145.515 146.345 146.938 147.73 148.304 149.051 149.63 150.333 140.012 
140.33 140.975 141.364 142.033 142.482 143.184 143.721 144.478 145.096 
145.874 146.514 147.276 147.899 148.632 149.21 149.886 150.43 151.06 
140.246 140.947 140.79 141.2 141.645 141.528 141.963 141.792 142.237 
142.281 142.222 142.741 142.599 143.063 142.871 143.369 142.978 142.874 
143.481 143.408 143.974 143.77 144.278 144.068 144.641 143.822 143.624 
144.225 144.187 144.878 144.738 145.296 145.04 145.58 145.39 146.005 
144.667 144.468 145.021 144.975 145.726 145.667 146.3 146.069 146.576 
146.343 146.93 146.781 147.412 145.447 145.297 145.888 145.81 146.574 
146.535 147.229 147.053 147.579 147.333 147.907 147.737 148.405 148.228 
148.826 146.271 146.151 146.831 146.718 147.459 147.393 148.092 147.967 
148.541 148.329 148.922 148.745 149.436 149.266 149.894 149.631 150.113 
147.149 147.065 147.769 147.656 148.307 148.224 148.851 148.786 149.392 
149.272 149.896 149.758 150.444 150.299 150.93 150.696 151.176 150.856 
151.258 147.88 149.081 148.508 148.481 150.086 149.583 149.531 149.001 
148.941 151.295 150.652 150.662 150.044 150.043 149.469 149.463 152.945 
152.169 152.354 151.491 151.61 150.78 150.85 150.107 150.101 154.654 
153.983 154.317 153.464 153.66 152.669 152.731 151.743 151.719 150.821 
150.735 156.322 155.72 156.157 155.424 155.659 154.749 154.74 153.714 
153.566 152.559 152.392 151.466 151.313 158.15 157.536 158.114 157.336 
157.65 156.704 156.711 155.657 155.461 154.396 154.133 153.136 152.879 
151.982 151.744 159.848 159.409 160.059 159.379 159.724 158.772 158.796 
157.679 157.529 156.365 156.126 154.96 154.641 153.557 153.204 152.288 
151.952 161.037 160.868 161.454 161.085 161.362 160.682 160.636 159.702 
159.522 158.467 158.267 157.092 156.782 155.498 155.062 153.852 153.41 
152.427 152.051 147.664 147.737 148.141 148.93 147.819 148.214 149.049 
149.361 150.014 147.931 148.287 149.085 149.452 150.182 150.433 151.148 
147.919 148.317 148.996 149.408 150.13 150.538 151.342 151.702 152.625 
147.565 148.105 148.684 149.178 149.838 150.378 151.243 151.799 152.786 
153.253 154.243 146.932 147.559 148.151 148.737 149.418 150.025 150.939 
151.616 152.696 153.309 154.354 154.821 155.834 146.349 146.913 147.576 
148.188 148.97 149.615 150.57 151.286 152.398 153.13 154.247 154.857 
155.919 156.429 157.531 145.983 146.443 147.116 147.686 148.505 149.178 
150.126 150.873 151.924 152.733 153.85 154.633 155.738 156.413 157.498 
158.106 159.165 145.729 146.143 146.762 147.278 148.032 148.691 149.578 
150.339 151.308 152.146 153.209 154.105 155.231 156.081 157.168 157.908 
158.901 159.549 160.402 146.819 145.765 146.438 146.879 145.217 145.593 
145.924 146.536 147 144.757 145.18 145.402 145.768 146.075 146.694 
147.157 143.678 144.471 144.672 145.18 145.26 145.788 146.064 146.814 
147.189 142.198 143.116 143.357 144.121 144.135 144.767 144.834 145.602 
145.865 146.703 146.892 140.918 141.686 141.964 142.717 142.845 143.5 
143.569 144.271 144.454 145.279 145.472 146.249 146.294 139.803 140.502 
140.764 141.457 141.656 142.291 142.436 143.059 143.222 143.914 144.091 
144.824 144.945 145.639 145.713 138.672 139.364 139.579 140.28 140.429 
141.112 141.218 141.907 142.024 142.716 142.839 143.522 143.654 144.344 
144.504 145.179 145.357 137.603 138.234 138.423 139.076 139.169 139.822 
139.85 140.563 140.638 141.41 141.534 142.271 142.408 143.107 143.297 
144.004 144.24 144.918 145.131 137.114 136.582 137.207 137.885 135.91 
136.607 137.263 137.916 138.547 135.259 135.915 136.591 137.242 137.856 
138.509 139.158 134.901 135.397 136.122 136.66 137.347 137.893 138.584 
139.198 139.964 134.803 135.197 135.93 136.358 137.11 137.561 138.333 
138.811 139.615 140.154 140.952 134.803 135.151 135.863 136.248 136.981 
137.415 138.217 138.685 139.509 139.962 140.747 141.198 141.917 134.994 
135.218 135.935 136.233 136.966 137.329 138.13 138.583 139.436 139.894 
140.689 141.089 141.814 142.191 142.871 135.425 135.525 136.234 136.421 
137.183 137.429 138.241 138.578 139.445 139.85 140.68 141.062 141.808 
142.16 142.867 143.202 143.863 135.92 135.991 136.652 136.796 137.53 
137.73 138.507 138.771 139.583 139.921 140.722 141.078 141.811 142.16 
142.852 143.207 143.872 144.193 144.783 136.381 137.384 136.94 137.14 
138.609 138.043 138.235 137.776 138.023 140.042 139.377 139.514 138.938 
139.161 138.705 138.988 141.542 140.891 141.048 140.337 140.497 139.897 
140.162 139.71 140.041 142.938 142.383 142.654 141.971 142.148 141.385 
141.577 140.954 141.261 140.8 141.144 144.31 143.745 144.05 143.514 
143.792 143.109 143.291 142.523 142.729 142.09 142.382 141.897 142.209 
145.897 145.189 145.427 144.853 145.159 144.633 144.903 144.244 144.418 
143.671 143.851 143.201 143.458 142.95 143.245 147.652 146.877 147.081 
146.339 146.59 145.983 146.292 145.737 145.989 145.328 145.474 144.744 
144.894 144.259 144.495 143.989 144.261 149.372 148.643 148.874 148.087 
148.3 147.545 147.798 147.151 147.428 146.82 147.017 146.331 146.432 
145.725 145.848 145.253 145.447 144.961 145.162 145.754 146.109 146.214 
146.809 146.589 146.656 147.345 147.393 148.103 147.233 147.268 148.041 
148.052 148.851 148.853 149.67 147.847 147.963 148.814 148.857 149.742 
149.724 150.619 150.562 151.44 148.32 148.543 149.482 149.637 150.629 
150.69 151.701 151.648 152.636 152.484 153.417 148.806 149.052 150.111 
150.318 151.429 151.584 152.741 152.798 153.942 153.834 154.887 154.622 
155.541 149.384 149.638 150.821 151.048 152.296 152.469 153.759 153.876 
155.164 155.172 156.343 156.165 157.136 156.777 157.553 149.955 150.253 
151.506 151.821 153.213 153.461 154.904 155.03 156.425 156.442 157.698 
157.588 158.603 158.327 159.096 158.68 159.287 150.437 150.791 152.067 
152.485 153.968 154.383 155.954 156.229 157.706 157.778 159.069 158.971 
160.023 159.763 160.538 160.147 160.716 160.272 160.738 129.421 128.47 
128.885 128.939 127.999 128.032 127.981 128.474 128.748 128.424 127.932 
127.724 127.74 127.973 128.488 129.036 129.515 128.759 128.517 127.973 
128.09 128.074 128.652 129.099 129.907 130.746 130.02 129.894 129.147 
129.213 128.7 129.174 129.142 130.005 130.322 131.271 131.978 131.292 
131.249 130.575 130.674 130.058 130.408 130.037 130.749 130.749 131.687 
131.892 132.787 133.238 132.562 132.503 131.876 131.976 131.446 131.741 
131.318 131.832 131.634 132.388 132.442 133.28 133.419 134.163 134.396 
133.793 133.719 133.105 133.171 132.669 132.943 132.544 132.954 132.664 
133.229 133.151 133.875 133.95 134.677 134.751 135.377 135.396 134.884 
134.842 134.281 134.334 133.838 134.085 133.692 134.062 133.724 134.167 
133.962 134.558 134.549 135.244 135.298 135.939 135.944 136.494 129.964 
129.576 130.065 130.66 129.453 129.816 130.475 130.83 131.429 129.729 
129.886 130.586 130.811 131.471 131.733 132.432 130.481 130.367 131.042 
131.104 131.802 131.943 132.669 132.896 133.672 131.674 131.299 131.869 
131.726 132.407 132.421 133.147 133.255 134.002 134.194 134.934 133.062 
132.571 133.01 132.682 133.269 133.136 133.816 133.812 134.512 134.594 
135.296 135.445 136.123 134.368 133.9 134.255 133.857 134.325 134.064 
134.639 134.524 135.151 135.143 135.795 135.867 136.527 136.635 137.255 
135.525 135.103 135.423 135.043 135.442 135.122 135.596 135.374 135.918 
135.81 136.41 136.403 137.035 137.087 137.696 137.756 138.305 136.604 
136.202 136.506 136.148 136.532 136.206 136.638 136.348 136.833 136.625 
137.175 137.068 137.659 137.633 138.219 138.23 138.768 138.783 139.27 
130.436 131.058 130.936 131.336 131.764 131.564 131.963 131.857 132.328 
132.746 132.383 132.786 132.566 133.088 132.956 133.545 133.974 133.512 
133.91 133.547 134.073 133.834 134.46 134.303 134.964 135.205 134.766 
135.146 134.752 135.224 134.908 135.483 135.274 135.921 135.767 136.409 
136.353 135.946 136.307 135.946 136.376 136.048 136.531 136.282 136.861 
136.708 137.337 137.191 137.78 137.445 137.055 137.401 137.06 137.483 
137.16 137.6 137.299 137.796 137.606 138.213 138.096 138.702 138.532 
139.064 138.465 138.107 138.44 138.125 138.548 138.247 138.684 138.359 
138.797 138.535 139.08 138.948 139.569 139.441 139.991 139.784 140.267 
139.408 139.082 139.407 139.123 139.536 139.277 139.706 139.413 139.812 
139.521 139.981 139.803 140.378 140.276 140.844 140.687 141.17 140.957 
141.426 146.51 145.721 145.876 145.511 145.063 145.216 144.965 145.105 
144.982 144.4 144.647 144.455 144.62 144.406 144.628 144.44 143.503 
143.883 143.66 143.985 143.599 143.854 143.381 143.744 143.27 142.515 
142.842 142.515 142.953 142.505 142.825 142.19 142.49 141.889 142.305 
141.796 141.746 141.875 141.434 141.747 141.329 141.65 141.101 141.321 
140.745 141.012 140.564 140.932 140.566 141.13 141.172 140.653 140.786 
140.34 140.571 140.114 140.324 139.823 140.023 139.576 139.85 139.479 
139.827 139.479 140.472 140.538 139.989 140.063 139.536 139.681 139.179 
139.381 138.87 139.101 138.612 138.887 138.446 138.765 138.356 138.724 
138.355 139.795 139.864 139.323 139.382 138.816 138.896 138.325 138.463 
137.904 138.109 137.588 137.86 137.395 137.705 137.275 137.607 137.221 
137.603 137.289 
POINT_DATA 1002
SCALARS Distance double
LOOKUP_TABLE default
136.751 135.863 135.781 136.781 135.768 137.865 137.002 135.943 138.12 
139.238 137.345 136.252 138.518 139.636 140.723 137.604 136.555 138.816 
139.985 141.052 142.124 137.943 137.001 139.053 140.242 141.36 142.422 
143.45 138.615 137.64 139.643 140.731 141.855 142.949 143.994 144.941 
139.225 138.125 140.37 141.479 142.599 143.705 144.774 145.786 146.669 
139.446 138.354 140.675 141.934 143.225 144.457 145.556 146.606 147.592 
148.412 139.6 138.601 140.765 142.063 143.522 145.004 146.258 147.334 
148.384 149.325 150.066 134.957 134.822 133.907 133.68 132.662 134.724 
132.39 131.397 133.556 134.876 131.238 130.24 132.39 133.779 135.229 
130.259 129.089 131.403 132.68 134.166 135.618 129.317 128.214 130.495 
131.629 133.032 134.649 136.177 128.798 128.174 129.729 130.729 132.026 
133.747 135.425 136.83 129.091 128.93 129.544 130.258 131.408 133.105 
134.86 136.191 137.267 129.916 129.922 130.036 130.41 131.292 132.774 
134.432 135.71 136.627 137.544 130.835 130.873 131.759 131.913 132.832 
131.017 133.187 134.165 132.281 131.577 134.682 135.624 133.806 133.112 
132.753 136.206 137.032 135.407 134.675 134.219 134.201 137.638 138.343 
136.983 136.223 135.452 135.158 135.38 138.952 139.564 138.448 137.834 
136.896 136.097 135.959 136.263 140.215 140.738 139.776 139.305 138.517 
137.542 136.954 136.933 137.191 141.509 141.909 141.111 140.657 140.008 
139.171 138.46 138.15 138.161 138.322 139.716 139.656 141.373 139.672 
141.529 143.546 139.819 141.696 143.828 145.932 140.239 141.997 144.153 
146.271 148.272 140.914 142.446 144.532 146.622 148.61 150.697 141.65 
142.984 144.818 146.817 148.77 150.949 153.232 142.256 143.556 145.101 
146.904 148.792 150.88 153.251 155.42 142.674 143.998 145.401 147.05 
148.943 150.876 152.951 155.139 157 142.975 144.244 145.57 147.098 
149.035 151.036 152.808 154.627 156.55 158.197 140.87 142.807 142.195 
145.296 144.428 143.752 147.836 147.142 146.224 145.488 150.344 149.781 
148.965 147.979 147.056 153.051 152.465 151.666 150.671 149.498 148.326 
155.565 155.142 154.406 153.513 152.356 150.923 149.515 157.402 157.26 
156.771 156.153 155.309 153.982 152.257 150.615 158.72 158.789 158.53 
158.137 157.623 156.746 155.22 153.264 151.466 159.763 160.123 161.301 
161.62 162.7 160.122 163.207 164 161.693 159.862 164.745 165.118 
163.365 161.278 159.372 165.742 165.452 164.774 162.612 160.42 158.704 
165.504 164.706 165.288 163.613 161.356 159.464 157.577 164.16 163.484 
164.452 163.664 161.943 160.018 157.995 155.673 162.578 162.319 162.797 
162.537 161.544 160.016 158.065 155.765 153.469 161.203 161.17 161.18 
160.946 160.275 159.149 157.578 155.579 153.471 151.61 158.376 160.209 
158.454 160.387 158.35 161.851 160.04 157.905 161.922 163.109 159.138 
157.173 161.246 162.985 164.153 158.145 156.35 160.074 162.101 163.691 
164.743 157.234 155.324 159.065 160.871 162.501 163.667 164.398 155.949 
153.976 158.005 159.791 161.169 162.252 163.081 163.532 154.312 152.635 
156.355 158.363 159.857 160.917 161.87 162.567 162.702 152.914 151.654 
154.541 156.412 158.094 159.376 160.507 161.495 161.952 161.754 142.92 
144.115 144.012 145.338 145.177 145.445 146.652 146.343 146.746 146.883 
147.92 147.409 148.166 148.372 148.778 149.03 148.393 149.53 149.936 
150.535 151.047 150.08 149.356 150.804 151.444 152.139 152.784 152.988 
151.092 150.242 152.053 152.934 153.699 154.311 154.613 154.638 151.945 
150.997 153.142 154.28 155.183 155.875 156.297 156.444 156.496 141.633 
142.607 141.376 142.272 140.974 143.637 141.817 140.49 143.203 144.705 
141.378 140.207 142.727 144.19 145.775 141.167 140.123 142.358 143.761 
145.272 146.837 141.074 139.989 142.187 143.478 144.944 146.424 147.892 
140.887 139.789 142.031 143.262 144.671 146.131 147.527 148.887 140.684 
139.686 141.788 142.97 144.304 145.749 147.162 148.505 149.766 140.623 