# vtk DataFile Version 4.0
vtk output
ASCII
DATASET POLYDATA
POINTS 1002 float
-85.0925 -83.8351 72.9062 -85.0236 -83.3014 71.6763 -84.7192 -82.9372 72.4508 
-84.8401 -83.5203 73.8247 -84.4043 -82.6032 73.311 -85.2633 -84.3965 74.4353 
-84.5867 -83.3367 74.8483 -84.105 -82.4165 74.3162 -85.0007 -84.2426 75.4141 
-85.3426 -85.2158 75.947 -84.2724 -83.3327 75.9902 -83.7713 -82.4006 75.4792 
-84.6377 -84.2723 76.4661 -84.9458 -85.2726 76.9027 -85.2124 -86.3632 77.3952 
-83.8352 -83.422 77.1054 -83.303 -82.4893 76.5635 -84.1487 -84.4418 77.5691 
-84.4313 -85.4778 77.9849 -84.7421 -86.6042 78.4906 -85.0108 -87.6706 79.0578 
-83.2921 -83.6282 78.0098 -82.7832 -82.6423 77.4575 -83.6199 -84.7362 78.5897 
-83.9322 -85.8475 79.1503 -84.3041 -87.0115 79.7553 -84.5989 -88.1439 80.353 
-84.8137 -89.1273 80.824 -82.7915 -83.9909 78.8599 -82.4507 -82.8354 78.4167 
-83.082 -85.2551 79.5168 -83.4854 -86.4359 80.2826 -83.9424 -87.6126 81.0214 
-84.2345 -88.7903 81.6365 -84.4134 -89.8431 82.0934 -84.6215 -90.7775 82.4327 
-82.5209 -84.3696 79.9234 -82.3711 -83.0957 79.6165 -82.6356 -85.8163 80.5041 
-82.9706 -87.1259 81.32 -83.4691 -88.3054 82.1529 -83.7848 -89.4925 82.7869 
-83.9548 -90.6225 83.242 -84.2146 -91.6223 83.6417 -84.5137 -92.4881 83.9968 
-82.479 -84.7493 81.24 -82.3943 -83.5198 80.9771 -82.4734 -86.2063 81.6808 
-82.5784 -87.6495 82.3231 -82.8931 -88.9574 83.0957 -83.2055 -90.19 83.8078 
-83.4385 -91.3826 84.3473 -83.7619 -92.4998 84.7988 -84.1527 -93.4678 85.2326 
-84.4374 -94.2467 85.5828 -82.4969 -85.2581 82.6708 -82.4114 -84.1186 82.3463 
-82.5165 -86.5842 83.0525 -82.5016 -88.0478 83.4882 -82.5503 -89.564 84.033 
-82.7301 -90.9807 84.7184 -83.0418 -92.2218 85.4181 -83.4345 -93.3869 85.9754 
-83.8109 -94.4942 86.3987 -84.0882 -95.4288 86.7501 -84.2582 -96.1585 87.0127 
-84.8565 -82.4479 71.1765 -84.4629 -82.0373 71.9397 -84.657 -81.4853 70.7653 
-84.1452 -81.0686 71.5251 -84.33 -80.4963 70.245 -84.0052 -81.6918 72.7428 
-83.6667 -80.1365 71.0283 -83.9087 -79.5034 69.694 -83.5282 -80.8254 72.3134 
-83.5823 -81.546 73.7432 -83.0977 -79.1605 70.5277 -83.5485 -78.5069 69.4569 
-82.9705 -79.9981 71.9193 -83.0312 -80.8106 73.3551 -83.1475 -81.6137 74.941 
-82.7506 -78.0453 70.3415 -83.453 -77.5297 69.578 -82.4941 -78.8808 71.6092 
-82.6029 -79.9071 73.1284 -82.5752 -80.8938 74.5797 -82.5967 -81.7448 76.0619 
-82.9084 -76.9924 70.6196 -83.7545 -76.6396 69.9395 -82.3888 -77.575 71.6783 
-82.3792 -78.5148 73.1455 -82.2719 -79.7411 74.5233 -82.0083 -80.9127 75.8011 
-82.1385 -81.8194 77.1396 -83.4791 -76.2593 71.3314 -84.3225 -76.0051 70.6101 
-82.7667 -76.6553 72.3006 -82.4253 -77.2783 73.6198 -82.1803 -78.2767 74.8988 
-81.754 -79.6559 75.9945 -81.6458 -80.9094 77.1784 -82.0211 -81.9081 78.4188 
-84.1282 -75.88 72.3023 -84.8968 -75.7565 71.5257 -83.4035 -76.1964 73.2748 
-82.8091 -76.7268 74.4658 -82.3257 -77.4009 75.6112 -81.8213 -78.4444 76.577 
-81.5192 -79.822 77.6089 -81.7087 -81.0544 78.7437 -82.1253 -82.1854 79.8521 
-84.6818 -75.7658 73.2477 -85.3825 -75.8037 72.4412 -84.0215 -75.9243 74.2277 
-83.3966 -76.4584 75.3242 -82.8005 -77.1683 76.3277 -82.24 -77.9092 77.1876 
-81.8224 -78.9474 78.1435 -81.7379 -80.22 79.2244 -81.9619 -81.4424 80.2529 
-82.24 -82.7093 81.2632 -85.4374 -75.8666 73.7892 -84.7508 -75.7637 74.7585 
-85.5931 -75.9237 75.171 -84.8833 -75.928 76.2363 -85.8084 -76.254 76.5588 
-84.1131 -76.0586 75.8564 -85.074 -76.5298 77.6738 -86.0386 -76.9618 78.0123 
-84.2574 -76.5142 77.2854 -83.5199 -76.8897 76.8452 -85.3314 -77.3829 79.1801 
-86.2867 -77.7084 79.5416 -84.4789 -77.319 78.6641 -83.7582 -77.5768 78.104 
-82.965 -77.793 77.6515 -85.6186 -78.2159 80.659 -86.5275 -78.5029 80.9799 
-84.7542 -78.1762 80.1673 -84.0588 -78.3854 79.513 -83.3284 -78.5602 78.9752 
-82.4859 -78.6316 78.6051 -85.8861 -79.3379 81.9528 -86.7744 -79.663 82.2411 
-85.0428 -79.1795 81.586 -84.3489 -79.3138 81.0737 -83.6871 -79.4872 80.538 
-82.9201 -79.5403 80.1613 -82.1831 -79.7367 79.7823 -86.1671 -80.7129 83.1845 
-87.0535 -80.9343 83.4239 -85.3274 -80.4968 82.8893 -84.6635 -80.5056 82.5053 
-84.0299 -80.6747 82.0395 -83.3185 -80.7178 81.663 -82.6216 -80.7659 81.3484 
-82.1341 -81.0364 80.8802 -86.4509 -81.8821 84.4185 -87.2778 -81.9996 84.5391 
-85.5963 -81.7347 84.238 -84.9475 -81.6983 83.9389 -84.3967 -81.8834 83.4572 
-83.7608 -82.0247 82.9998 -83.0853 -82.0246 82.7206 -82.5361 -82.1375 82.4103 
-82.2592 -82.404 81.8954 -86.6626 -82.9063 85.4978 -87.3715 -83.0125 85.505 
-85.8475 -82.801 85.4691 -85.1713 -82.7465 85.3425 -84.6648 -82.9107 84.937 
-84.1735 -83.1851 84.3781 -83.6237 -83.3176 84.0172 -83.048 -83.4169 83.8285 
-82.5926 -83.6388 83.514 -82.4004 -83.8905 82.9816 -82.4828 -85.556 83.9498 
-82.5856 -85.3939 84.5651 -82.5575 -87.209 85.5507 -82.9874 -85.1345 84.9586 
-82.8449 -87.0842 85.961 -82.6844 -88.9803 86.8448 -83.5673 -84.8899 85.1258 
-83.4493 -86.8566 86.1387 -83.1866 -88.8458 86.9769 -82.9813 -90.8077 87.9349 
-84.0571 -84.7081 85.3287 -84.0171 -86.6647 86.2699 -83.8446 -88.7053 87.1186 
-83.5857 -90.6581 88.0558 -83.4568 -92.7982 89.0848 -84.4732 -84.4188 85.8171 
-84.3891 -86.4429 86.5904 -84.3036 -88.5807 87.4217 -84.0802 -90.5476 88.4244 
-83.9156 -92.7358 89.3928 -83.8584 -95.228 90.1139 -84.9519 -84.1196 86.3243 
-84.8309 -86.1102 87.0649 -84.719 -88.3216 87.8091 -84.4588 -90.3439 88.8521 
-84.1894 -92.5694 89.8674 -84.0978 -95.2792 90.4803 -83.9667 -97.9477 90.9323 
-85.5504 -84.0483 86.4892 -85.4093 -85.8775 87.3355 -85.2988 -87.9944 88.1044 
-84.986 -90.0058 89.1116 -84.5709 -92.2171 90.1942 -84.3248 -94.9882 90.8813 
-84.1394 -97.9017 91.3045 -83.763 -100.39 91.8163 -86.2824 -84.1083 86.4438 
-86.0351 -85.7881 87.3334 -85.8945 -87.7308 88.1911 -85.5907 -89.6563 89.1859 
-85.1029 -91.8011 90.2757 -84.725 -94.4695 91.115 -84.4402 -97.3944 91.6632 
-83.9905 -100.111 92.1949 -83.3833 -102.416 92.6786 -87.0118 -84.1657 86.4066 
-86.6836 -85.6925 87.3027 -86.4588 -87.4405 88.2003 -86.1629 -89.264 89.162 
-85.6632 -91.3616 90.1892 -85.1842 -93.8961 91.1135 -84.8376 -96.6496 91.8312 
-84.3822 -99.3891 92.446 -83.7276 -101.989 92.9492 -83.0691 -104.29 93.1406 
-82.5347 -86.835 84.42 -82.536 -88.6929 86.1418 -82.5534 -88.3082 84.8536 
-82.5656 -90.784 87.6444 -82.4899 -90.5385 86.7013 -82.4894 -90.0726 85.2565 
-82.8489 -92.9074 88.9406 -82.4571 -92.9768 88.4222 -82.4119 -92.6693 87.1841 
-82.4981 -91.89 85.7796 -83.3384 -95.1894 89.9646 -82.6986 -95.1561 89.713 
-82.4791 -95.0478 88.9269 -82.6612 -94.4534 87.7136 -82.8448 -93.3501 86.514 
-83.6296 -97.915 90.7604 -83.0169 -97.5406 90.5508 -82.6398 -97.1012 90.0694 
-82.9085 -96.5972 89.2878 -83.2971 -95.7358 88.3416 -83.38 -94.5529 87.2185 
-83.5023 -100.676 91.6305 -83.0693 -100.451 91.3521 -82.6494 -99.8075 90.8705 
-82.7793 -98.9807 90.259 -83.332 -98.0824 89.621 -83.6542 -97.0253 88.7882 
-83.7026 -95.7785 87.6518 -83.0876 -103.023 92.4834 -82.8291 -103.255 92.1223 
-82.5543 -103.028 91.5526 -82.4947 -102.235 90.8973 -82.8205 -101.015 90.3368 
-83.2401 -99.7137 89.7593 -83.5298 -98.3949 88.9444 -83.7938 -96.9306 87.9012 
-82.6829 -105.106 92.9046 -82.4764 -105.65 92.4617 -82.404 -105.92 91.8362 
-82.4141 -105.628 91.1704 -82.5344 -104.476 90.6525 -82.7501 -102.802 90.2456 
-83.0377 -101.175 89.7333 -83.4302 -99.5898 89.02 -83.8778 -97.8619 88.1076 
-82.6612 -106.917 92.9277 -82.2693 -107.778 92.4427 -82.4755 -109.64 92.1944 
-82.0362 -110.614 91.5698 -82.3934 -112.033 91.4817 -82.1547 -108.421 91.785 
-81.8398 -113.308 90.8952 -82.3579 -114.105 90.9419 -81.9439 -111.42 90.9337 
-82.2925 -108.728 91.1044 -81.799 -115.585 90.1671 -82.5943 -115.793 90.1205 
-81.6921 -114.217 90.2975 -82.2067 -111.534 90.3991 -82.5225 -108.074 90.5973 
-82.1951 -116.841 88.9752 -83.1087 -116.33 89.183 -81.6208 -116.121 89.3313 
-81.942 -113.782 89.7357 -82.5832 -110.149 90.0568 -82.7109 -106.255 90.308 
-82.8769 -116.613 88.1125 -83.6637 -115.445 88.7262 -82.0273 -116.551 88.1829 
-81.7656 -114.808 88.7634 -82.3962 -111.52 89.4015 -82.9346 -107.635 89.914 
-82.913 -104.096 90.0451 -83.5928 -115.257 88.0976 -84.294 -113.843 88.6479 
-82.7852 -115.665 87.8636 -82.1251 -114.46 88.1063 -82.2794 -111.812 88.7045 
-83.0285 -108.475 89.4361 -83.3368 -105.138 89.8351 -83.2659 -102.146 89.6269 
-84.3649 -113.245 88.3607 -85.0707 -111.964 88.6152 -83.6279 -113.853 88.2262 
-82.9638 -113.116 88.2312 -82.7242 -111.055 88.4715 -83.172 -108.407 89.0525 
-83.7048 -105.632 89.593 -83.7719 -102.798 89.5464 -83.7346 -100.13 88.9464 
-85.1692 -110.742 88.4952 -85.8218 -109.759 88.6128 -84.4458 -111.295 88.5101 
-83.8691 -110.955 88.5467 -83.5755 -109.518 88.6029 -83.6687 -107.441 88.8888 
-84.0065 -105.216 89.3029 -84.1759 -102.808 89.3242 -84.1391 -100.277 88.7753 
-84.1645 -97.9951 87.93 -83.3549 -104.741 93.2562 -83.1293 -107.647 92.8747 
-83.8874 -104.849 93.2071 -83.8433 -107.793 92.8228 -84.5716 -104.452 93.1561 
-83.1214 -110.253 92.1843 -84.5943 -107.153 92.9129 -85.3499 -103.557 93.2179 
-83.902 -110.026 92.2992 -83.14 -112.19 91.6304 -85.3934 -105.82 93.0701 
-86.1913 -102.333 93.2078 -84.6062 -108.915 92.4395 -83.9185 -111.5 91.7675 
-83.2221 -113.886 91.0835 -86.274 -104.16 93.0917 -86.9199 -101.019 92.8887 
-85.3956 -107.149 92.5061 -84.5937 -109.952 91.7189 -84.0326 -112.767 91.1598 
-83.5352 -115.059 90.3783 -86.9519 -102.511 92.8185 -87.4238 -99.5952 92.249 
-86.2566 -105.239 92.5638 -85.3852 -107.859 91.7141 -84.752 -110.669 91.0905 
-84.3468 -113.188 90.6965 -83.9593 -114.736 89.8388 -87.3918 -100.667 92.1204 
-87.9376 -97.827 91.394 -86.8778 -103.353 92.3773 -86.2359 -105.807 91.9342 
-85.6419 -108.283 91.2262 -85.2281 -110.631 90.8103 -84.8244 -112.311 90.3535 
-84.4759 -113.305 89.4776 -88.0144 -98.4287 91.1341 -88.682 -95.8601 90.4767 
-87.4286 -101.082 91.6681 -86.934 -103.622 91.8415 -86.5689 -106.038 91.5314 
-86.2941 -108.221 91.008 -85.896 -109.879 90.5141 -85.4425 -110.969 89.8791 
-85.1831 -111.682 89.1281 -88.9373 -96.2208 90.1902 -89.5048 -94.1461 89.6095 
-88.2903 -98.5333 90.74 -87.6818 -100.973 91.1903 -87.3053 -103.438 91.3758 
[...]
CELL_DATA 2000
SCALARS Distance double
LOOKUP_TABLE default
138.277 138.343 138.656 139.404 138.537 138.817 139.633 139.907 140.72 
138.896 139.131 139.989 140.212 141.034 141.27 142.088 139.287 139.542 
140.398 140.609 141.426 141.628 142.478 142.702 143.583 139.598 139.894 
140.77 141.019 141.891 142.087 143.028 143.216 144.214 144.356 145.302 
139.969 140.215 141.169 141.428 142.441 142.656 143.74 143.916 145.021 
145.13 146.151 146.18 147.099 140.599 140.716 141.728 141.937 143.051 
143.297 144.47 144.698 145.833 145.98 147.001 147.062 148.004 148.011 
148.921 141.516 141.509 142.53 142.633 143.746 143.957 145.12 145.388 
146.514 146.732 147.759 147.881 148.864 148.925 149.914 149.902 150.842 
142.616 142.542 143.562 143.557 144.642 144.728 145.859 146.041 147.192 
147.398 148.526 148.669 149.77 149.843 150.934 150.944 151.971 151.882 
152.79 137.653 136.74 137.332 137.642 135.756 136.381 136.633 137.301 
137.722 134.658 135.332 135.593 136.269 136.639 137.423 138.003 133.575 
134.191 134.483 135.211 135.625 136.376 136.923 137.765 138.402 132.753 
133.163 133.395 134.099 134.604 135.402 135.973 136.742 137.327 138.145 
138.734 132.397 132.53 132.688 133.144 133.657 134.413 135.059 135.821 
136.382 137.119 137.682 138.478 139.097 132.571 132.466 132.683 132.771 
133.265 133.695 134.371 134.978 135.593 136.236 136.827 137.536 138.218 
138.982 139.738 133.16 132.924 133.244 133.109 133.626 133.693 134.35 
134.597 135.243 135.632 136.3 136.853 137.629 138.283 139.126 139.817 
140.685 133.934 133.661 133.996 133.816 134.324 134.269 134.891 134.905 
135.519 135.611 136.278 136.58 137.402 137.898 138.796 139.37 140.271 
140.896 141.801 134.474 135.323 134.754 134.549 136.309 135.667 135.512 
134.963 134.918 137.536 136.777 136.641 136.018 136.031 135.48 135.507 
138.952 138.136 138.006 137.27 137.278 136.662 136.708 136.105 136.103 
140.387 139.597 139.491 138.716 138.709 138.006 138.065 137.383 137.422 
136.744 136.828 141.867 141.065 141.007 140.223 140.252 139.512 139.614 
138.871 138.985 138.218 138.367 137.654 137.927 143.436 142.624 142.614 
141.799 141.879 141.116 141.282 140.521 140.695 139.903 140.09 139.322 
139.59 138.908 139.281 144.922 144.201 144.219 143.443 143.533 142.784 
142.972 142.233 142.439 141.662 141.865 141.086 141.349 140.621 140.97 
140.312 140.729 146.215 145.612 145.661 144.988 145.079 144.399 144.575 
143.896 144.112 143.394 143.625 142.873 143.162 142.416 142.785 142.066 
142.488 141.808 142.257 143.372 143.644 144.081 145.255 143.942 144.379 
145.571 146.011 147.177 144.27 144.681 145.871 146.325 147.481 147.894 
149.04 144.646 145.002 146.159 146.618 147.801 148.211 149.358 149.775 
151.023 145.066 145.369 146.465 146.9 148.105 148.547 149.741 150.142 
151.398 151.862 153.231 145.497 145.773 146.829 147.22 148.408 148.859 
150.075 150.515 151.759 152.242 153.594 154.12 155.489 145.943 146.186 
147.215 147.583 148.741 149.175 150.362 150.811 152.016 152.526 153.825 
154.412 155.765 156.317 157.571 146.439 146.63 147.595 147.938 149.039 
149.475 150.601 151.054 152.187 152.701 153.931 154.546 155.855 156.487 
157.735 158.267 159.343 146.929 147.104 147.985 148.284 149.295 149.708 
150.759 151.217 152.271 152.789 153.929 154.557 155.787 156.469 157.672 
158.306 159.384 159.89 160.794 143.598 145.5 144.552 144.589 147.473 
146.552 146.635 145.62 145.678 149.442 148.59 148.838 147.803 147.9 
146.789 146.885 151.512 150.665 151.102 150.125 150.39 149.2 149.299 
148.094 148.221 153.735 152.855 153.32 152.413 152.781 151.734 151.937 
150.691 150.782 149.515 149.614 156.001 155.135 155.546 154.61 154.9 
153.978 154.231 153.236 153.412 152.203 152.259 150.937 150.95 158.099 
157.357 157.802 156.856 157.1 156.079 156.282 155.355 155.596 154.647 
154.774 153.595 153.546 152.223 152.135 159.854 159.307 159.81 159.046 
159.366 158.366 158.558 157.493 157.677 156.705 156.844 155.861 155.833 
154.696 154.533 153.294 153.122 161.27 160.877 161.373 160.852 161.236 
160.512 160.773 159.817 159.956 158.878 158.92 157.858 157.816 156.774 
156.642 155.539 155.331 154.154 153.91 162.16 163.467 162.647 162.253 
164.71 163.923 163.524 162.674 162.178 165.912 165.187 164.875 163.997 
163.535 162.566 161.883 166.932 166.382 166.182 165.398 164.968 163.981 
163.271 162.144 161.17 167.392 167.182 166.959 166.509 166.042 165.285 
164.468 163.443 162.34 161.196 160.024 167.149 167.274 166.972 166.868 
166.291 165.915 165.003 164.316 163.136 162.187 160.912 159.893 158.748 
166.487 166.792 166.546 166.602 165.98 165.774 164.82 164.426 163.328 
162.724 161.553 160.688 159.503 158.581 157.518 165.631 166.038 165.854 
166.056 165.485 165.353 164.398 164.072 163.05 162.698 161.732 161.187 
160.1 159.279 158.111 157.271 156.189 164.566 165.053 164.778 165.17 
164.602 164.715 163.794 163.61 162.576 162.342 161.421 161.16 160.166 
159.648 158.425 157.707 156.459 155.78 154.68 162.262 162.76 162.946 
163.664 163.029 163.42 164.275 164.334 164.923 163.015 163.59 164.525 
164.819 165.452 165.497 166.007 162.74 163.433 164.311 164.827 165.455 
165.786 166.312 166.489 166.943 162.229 163.005 163.759 164.371 164.881 
165.449 165.97 166.504 166.99 167.252 167.452 161.42 162.326 163.035 
163.689 164.071 164.649 165.049 165.802 166.296 166.95 167.146 167.385 
167.202 160.225 161.285 161.994 162.837 163.243 163.821 164.123 164.771 
165.188 165.958 166.203 166.735 166.565 166.791 166.433 158.824 159.881 
160.511 161.564 162.048 162.883 163.242 163.902 164.263 164.9 165.164 
165.696 165.639 165.976 165.676 165.908 165.553 157.581 158.455 158.975 
159.973 160.448 161.47 161.887 162.822 163.184 163.964 164.187 164.75 
164.716 165.073 164.821 165.088 164.751 164.985 164.574 147.42 148.515 
148.143 148.532 149.68 149.327 149.803 149.381 149.845 150.846 150.534 
151.075 150.697 151.201 150.771 151.272 151.998 151.71 152.318 151.994 
152.59 152.174 152.73 152.257 152.798 153.17 152.889 153.572 153.288 
154.038 153.662 154.36 153.842 154.473 153.902 154.515 154.315 154.087 
154.827 154.592 155.454 155.183 156.025 155.577 156.281 155.694 156.345 
155.736 156.38 155.345 155.224 156.041 155.873 156.795 156.61 157.543 
157.23 157.996 157.496 158.135 157.57 158.211 157.628 158.238 156.22 
156.222 157.154 157.096 158.114 157.98 158.998 158.745 159.625 159.189 
159.899 159.346 160.004 159.433 160.06 159.446 159.959 156.941 157.046 
158.052 158.16 159.275 159.287 160.371 160.216 161.165 160.828 161.625 
161.132 161.83 161.255 161.88 161.255 161.746 161.063 161.393 146.98 
146.541 147.164 147.976 146.014 146.667 147.493 148.179 149.071 145.56 
146.164 147.002 147.678 148.597 149.303 150.223 145.18 145.756 146.576 
147.217 148.123 148.826 149.78 150.472 151.382 144.75 145.34 146.107 
146.766 147.6 148.316 149.226 149.988 150.936 151.639 152.536 144.346 
144.876 145.598 146.238 147.007 147.71 148.52 149.32 150.23 151.085 
152.023 152.771 153.634 144.107 144.527 145.224 145.764 146.519 147.122 
147.864 148.559 149.377 150.249 151.183 152.103 153.009 153.792 154.596 
143.986 144.344 145.007 145.467 146.212 146.723 147.444 147.982 148.705 
149.405 150.257 151.164 152.095 153.021 153.873 154.665 155.414 143.878 
144.222 144.84 145.267 145.976 146.461 147.172 147.644 148.307 148.83 
149.546 150.273 151.124 152.04 152.935 153.843 154.65 155.429 156.132 
143.987 144.505 144.477 144.985 145.094 145.061 145.621 145.573 146.137 
145.699 145.672 146.267 146.25 146.854 146.789 147.34 146.406 146.311 
146.949 146.932 147.607 147.547 148.131 147.989 148.484 147.321 147.128 
147.798 147.714 148.469 148.379 149.008 148.821 149.322 149.127 149.667 
148.223 148.082 148.727 148.636 149.369 149.286 149.894 149.706 150.172 
149.975 150.533 150.418 151.149 148.888 148.88 149.486 149.473 150.107 
150.093 150.636 150.52 150.976 150.816 151.426 151.339 152.171 152.095 
152.965 149.462 149.489 150.107 150.111 150.692 150.7 151.258 151.208 
151.794 151.679 152.453 152.36 153.335 153.231 154.179 153.989 154.766 
150.084 150.1 150.731 150.71 151.287 151.265 151.899 151.884 152.662 
152.623 153.586 153.532 154.606 154.501 155.468 155.249 155.991 155.696 
156.284 150.645 151.624 151.208 151.277 152.746 152.234 152.376 151.835 
151.867 154.451 153.677 153.959 153.169 153.315 152.553 152.608 156.42 
155.671 156.036 155.098 155.325 154.332 154.477 153.515 153.585 157.923 
157.491 157.877 157.17 157.344 156.437 156.552 155.586 155.708 154.669 
154.709 159.228 158.839 159.336 158.802 159.041 158.288 158.353 157.524 
157.612 156.762 156.838 155.825 155.775 160.871 160.335 160.979 160.368 
160.851 160.056 160.29 159.34 159.423 158.525 158.572 157.736 157.673 
156.727 156.525 162.546 162.072 162.708 162.152 162.719 162.029 162.429 
161.484 161.617 160.506 160.46 159.424 159.294 158.38 158.144 157.236 
156.92 163.834 163.541 164.047 163.689 164.126 163.713 164.051 163.457 
163.559 162.664 162.512 161.419 161.155 160.066 159.775 158.768 158.442 
157.503 157.16 150.378 150.244 150.678 151.36 150.048 150.503 151.201 
151.625 152.4 149.806 150.283 151.016 151.48 152.357 152.853 153.972 
149.467 150.017 150.842 151.366 152.35 152.878 154.043 154.641 155.869 
149.021 149.645 150.56 151.207 152.258 152.877 153.98 154.618 155.714 
156.367 157.349 148.574 149.199 150.126 150.863 151.903 152.65 153.659 
154.37 155.327 156.034 156.985 157.649 158.61 148.189 148.773 149.645 
150.373 151.353 152.147 153.105 153.87 154.793 155.54 156.539 157.279 
158.398 159.067 160.221 147.843 148.388 149.195 149.867 150.788 151.546 
152.493 153.259 154.214 154.984 156.034 156.843 158.038 158.853 160.103 
160.802 161.927 147.54 148.042 148.811 149.419 150.294 150.992 151.92 
152.663 153.626 154.412 155.457 156.309 157.465 158.385 159.614 160.518 
161.675 162.385 163.298 149.618 148.364 149.148 149.475 147.245 147.911 
148.237 149.018 149.332 146.256 146.861 147.114 147.825 148.168 148.894 
149.134 145.104 145.805 145.997 146.701 146.964 147.72 147.958 148.644 
148.767 143.827 144.571 144.756 145.48 145.648 146.428 146.612 147.385 
147.489 148.184 148.26 142.595 143.326 143.542 144.227 144.365 145.062 
145.184 145.954 146.067 146.83 146.919 147.653 147.789 141.356 142.096 
142.317 143.031 143.171 143.82 143.888 144.555 144.641 145.384 145.521 
146.293 146.468 147.229 147.429 140.183 140.853 141.03 141.753 141.871 
142.575 142.619 143.284 143.325 144.015 144.144 144.907 145.125 145.913 
146.148 146.903 147.117 139.177 139.739 139.865 140.486 140.564 141.226 
141.267 141.956 142.014 142.717 142.846 143.582 143.801 144.581 144.845 
145.623 145.868 146.607 146.831 138.661 137.992 138.679 139.321 137.276 
137.998 138.693 139.329 139.952 136.747 137.355 138.079 138.696 139.324 
139.944 140.597 136.547 136.964 137.649 138.157 138.815 139.365 140.045 
140.657 141.385 136.587 136.875 137.51 137.867 138.543 138.982 139.723 
140.236 141.024 141.561 142.318 136.743 136.971 137.625 137.876 138.574 
138.884 139.661 140.061 140.886 141.336 142.137 142.582 143.329 137.031 
137.187 137.875 138.086 138.819 139.056 139.827 140.122 140.924 141.288 
142.084 142.483 143.252 143.653 144.389 137.465 137.546 138.216 138.39 
139.132 139.35 140.11 140.35 141.118 141.398 142.182 142.505 143.29 
143.639 144.398 144.748 145.449 137.976 138.016 138.657 138.776 139.496 
139.679 140.428 140.641 141.407 141.644 142.442 142.701 143.513 143.78 
144.561 144.831 145.55 145.818 146.462 138.484 139.609 139.069 139.201 
140.911 140.303 140.428 139.865 140.041 142.29 141.662 141.805 141.179 
141.335 140.76 140.964 143.765 143.086 143.266 142.612 142.795 142.144 
142.344 141.739 141.968 145.398 144.634 144.803 144.113 144.326 143.662 
143.896 143.228 143.471 142.817 143.053 147.154 146.331 146.472 145.707 
145.904 145.212 145.446 144.794 145.045 144.39 144.622 143.94 144.141 
148.985 148.13 148.282 147.446 147.629 146.851 147.057 146.343 146.564 
145.918 146.143 145.502 145.68 145.001 145.155 150.879 150.003 150.145 
149.279 149.437 148.623 148.812 148.023 148.21 147.464 147.665 146.99 
147.179 146.51 146.639 145.963 146.088 152.797 151.926 152.046 151.142 
151.238 150.4 150.545 149.771 149.932 149.159 149.317 148.568 148.735 
148.021 148.151 147.438 147.522 146.849 146.954 147.628 148.251 148.251 
148.933 148.945 148.96 149.701 149.674 150.429 149.597 149.675 150.476 
150.486 151.277 151.246 152.041 150.223 150.335 151.191 151.253 152.099 
152.113 152.976 152.933 153.776 150.863 150.997 151.934 152.015 152.982 
153.004 154.007 153.964 154.95 154.804 155.699 151.533 151.69 152.785 
152.895 154.085 154.091 155.31 155.204 156.363 156.151 157.185 156.878 
157.792 152.325 152.476 153.772 153.924 155.365 155.416 156.841 156.728 
158.026 157.766 158.905 158.534 159.543 159.105 160.008 153.21 153.393 
154.817 155.045 156.619 156.787 158.268 158.271 159.557 159.425 160.586 
160.325 161.376 160.962 161.881 161.363 162.126 153.963 154.257 155.651 
156.029 157.553 157.915 159.303 159.489 160.61 160.677 161.721 161.763 
162.803 162.676 163.556 163.175 163.828 163.297 163.758 133.806 133.005 
133.377 133.401 132.459 132.656 132.621 132.995 133.154 132.38 132.337 
132.271 132.359 132.451 132.873 133.252 132.747 132.507 132.468 132.275 
132.288 132.376 132.72 133.175 133.71 133.457 133.038 132.997 132.667 
132.669 132.482 132.719 132.868 133.366 133.752 134.278 134.461 133.876 
133.772 133.312 133.333 133.02 133.202 133.087 133.435 133.565 134.023 
134.349 134.886 135.571 134.95 134.817 134.225 134.237 133.805 133.999 
133.708 133.975 133.818 134.164 134.24 134.769 135.089 135.774 136.575 
136.032 135.931 135.338 135.338 134.829 135.021 134.623 134.899 134.542 
134.857 134.637 135.146 135.202 135.936 136.188 136.947 137.478 136.993 
136.939 136.42 136.432 135.942 136.098 135.685 135.947 135.558 135.87 
135.526 135.987 135.827 136.509 136.562 137.323 137.456 138.107 134.292 
133.931 134.392 134.988 133.741 134.112 134.74 135.155 135.795 133.858 
134.065 134.688 134.992 135.648 136.035 136.733 134.227 134.298 134.841 
135.024 135.634 135.954 136.673 137.065 137.794 134.719 134.711 135.183 
135.243 135.794 136.002 136.7 137.051 137.805 138.157 138.842 135.367 
135.271 135.793 135.714 136.278 136.299 136.977 137.17 137.925 138.21 
138.931 139.212 139.892 136.255 136.051 136.627 136.465 137.042 136.935 
137.552 137.573 138.255 138.414 139.124 139.357 140.072 140.327 141.036 
137.296 137.018 137.513 137.326 137.828 137.706 138.217 138.17 138.721 
138.784 139.405 139.585 140.274 140.528 141.235 141.488 142.135 138.312 
138.009 138.368 138.149 138.556 138.421 138.882 138.801 139.302 139.27 
139.822 139.894 140.526 140.725 141.402 141.659 142.294 142.517 143.054 
134.694 135.39 135.198 135.546 136.191 135.954 136.329 136.114 136.532 
137.11 136.808 137.198 136.956 137.411 137.202 137.738 138.136 137.784 
138.143 137.86 138.32 138.114 138.671 138.503 139.118 139.164 138.82 
139.174 138.849 139.292 139.046 139.603 139.433 140.052 139.904 140.529 
140.219 139.86 140.263 139.921 140.393 140.089 140.641 140.401 141.016 
140.836 141.487 141.327 141.988 141.357 140.974 141.395 141.043 141.534 
141.227 141.779 141.498 142.08 141.838 142.467 142.295 142.985 142.837 
143.527 142.424 142.098 142.472 142.152 142.577 142.312 142.82 142.594 
143.139 142.906 143.468 143.272 143.907 143.792 144.474 144.357 144.987 
143.31 143.062 143.394 143.13 143.485 143.253 143.694 143.526 144.052 
143.891 144.428 144.239 144.794 144.658 145.274 145.205 145.819 145.718 
146.256 149.437 148.825 148.817 148.214 148.321 148.286 147.722 147.659 
147.144 147.693 147.783 147.236 147.21 146.637 146.634 146.13 146.776 
147.007 146.419 146.558 145.858 145.964 145.297 145.467 144.89 145.841 
146.017 145.401 145.571 144.83 144.979 144.234 144.446 143.816 144.091 
143.559 145.113 145.16 144.53 144.595 143.913 143.978 143.313 143.42 
142.835 143.019 142.506 142.771 142.307 144.493 144.485 143.815 143.813 
143.133 143.168 142.549 142.629 142.064 142.164 141.605 141.762 141.237 
141.516 141.064 143.931 143.886 143.207 143.144 142.426 142.417 141.749 
141.846 141.241 141.379 140.765 140.891 140.292 140.481 139.994 140.297 
139.92 143.47 143.386 142.747 142.614 141.904 141.779 141.079 141.057 
140.432 140.519 139.941 140.049 139.492 139.61 139.135 139.33 138.969 
139.255 138.956 
POINT_DATA 1002
SCALARS Distance double
LOOKUP_TABLE default
138.944 137.945 137.943 139.084 138.003 140.185 139.365 138.245 140.454 
141.524 139.786 138.659 140.819 141.833 142.909 140.184 139.021 141.227 
142.237 143.369 144.476 140.481 139.294 141.649 142.803 144.049 145.229 
146.206 140.872 139.745 142.157 143.521 144.9 146.118 147.111 147.985 
141.533 140.523 142.785 144.217 145.677 146.927 147.964 148.943 149.838 
142.475 141.554 143.586 144.872 146.274 147.597 148.757 149.875 150.93 
151.763 143.6 142.696 144.614 145.728 146.979 148.329 149.656 150.902 
152.03 152.958 153.652 137.074 136.983 136.166 135.998 135.109 136.92 
134.893 133.977 135.89 137.108 133.706 133.045 134.854 136.133 137.53 
132.741 132.478 133.742 135.221 136.567 137.888 132.375 132.342 132.954 
134.282 135.679 136.906 138.254 132.688 132.69 132.992 133.855 134.981 
136.128 137.452 138.95 133.399 133.397 133.653 134.239 134.962 135.793 
136.986 138.452 139.98 134.192 134.219 134.403 134.922 135.517 136.082 
136.964 138.259 139.681 141.155 135.015 135.058 135.899 136.048 136.982 
135.434 137.303 138.326 136.575 136.087 138.783 139.751 137.936 137.326 
136.713 140.26 141.153 139.434 138.759 138.114 137.441 141.784 142.665 
140.979 140.345 139.742 139.101 138.561 143.427 144.218 142.636 142.026 
141.478 140.867 140.305 139.907 144.962 145.589 144.27 143.695 143.198 
142.642 142.088 141.655 141.352 146.288 146.77 145.734 145.235 144.797 
144.344 143.892 143.509 143.193 142.922 144.502 144.821 146.445 145.126 
146.771 148.319 145.411 147.08 148.595 150.21 145.704 147.365 148.961 
150.523 152.338 146.061 147.633 149.32 150.945 152.73 154.631 146.462 
147.969 149.627 151.283 153.056 155.004 156.838 146.863 148.323 149.935 
151.527 153.244 155.182 157.116 158.765 147.296 148.629 150.17 151.703 
153.336 155.22 157.171 158.927 160.342 147.732 148.931 150.329 151.781 
153.335 155.123 157.024 158.828 160.406 161.641 145.557 147.657 146.694 
149.799 149.063 147.951 151.991 151.52 150.593 149.359 154.242 153.733 
153.094 152.128 150.863 156.54 155.862 155.111 154.49 153.622 152.296 
158.702 158.174 157.272 156.469 155.833 154.87 153.475 160.464 160.273 
159.661 158.749 157.821 156.888 155.748 154.382 161.835 161.83 161.614 
161.054 160.075 158.875 157.694 156.491 155.127 163.011 163.104 164.297 
164.38 165.46 163.101 165.729 166.551 164.524 162.993 166.873 167.38 
165.952 164.438 162.395 167.299 167.504 166.709 165.474 163.509 161.132 
167.021 166.928 166.598 165.57 163.98 161.935 159.682 166.431 166.106 
166.188 165.158 163.744 162.277 160.46 158.374 165.582 165.21 165.554 
164.72 163.328 162.095 160.838 159.012 156.953 164.375 164.12 164.384 
163.881 162.797 161.62 160.563 159.106 157.165 155.264 162.143 163.694 
162.457 164.122 162.526 165.021 164.139 162.396 165.326 166.018 163.779 
162.061 165.029 166.021 166.906 163.191 161.445 164.32 165.307 166.595 
167.479 162.354 160.468 163.571 164.335 165.517 166.785 167.181 161.042 
159.175 162.595 163.571 164.475 165.582 166.251 166.274 159.438 157.87 
161.063 162.493 163.67 164.653 165.266 165.412 165.352 158.068 156.812 
159.43 160.862 162.314 163.578 164.339 164.551 164.509 164.401 147.761 
148.937 148.849 150.198 149.995 150.277 151.412 151.133 151.617 151.711 
152.59 152.277 152.958 153.199 153.285 153.808 153.431 154.325 154.838 
155.051 155.093 155.028 154.493 155.653 156.395 156.853 156.949 157 
156.158 155.393 156.948 157.793 158.451 158.694 158.771 158.869 157.124 
156.154 158.193 159.21 160.003 160.432 160.584 160.671 160.651 146.411 
147.322 145.893 146.789 145.364 148.371 146.342 144.977 147.877 149.545 
145.954 144.612 147.436 149.059 150.741 145.459 144.183 146.912 148.456 
150.168 151.905 144.991 143.867 146.347 147.768 149.342 151.188 152.982 
144.726 143.731 145.958 147.255 148.575 150.223 152.144 153.906 144.578 
143.651 145.72 146.96 148.122 149.423 151.131 153.016 154.702 144.438 