# vtk DataFile Version 4.0
vtk output
ASCII
DATASET POLYDATA
POINTS 1002 float
-81.4133 -84.0538 70.8679 -81.271 -83.6545 69.4876 -81.0381 -83.0846 70.4716 
-81.2108 -83.6323 71.9482 -80.7888 -82.6681 71.5448 -81.5566 -84.7505 72.4318 
-80.8978 -83.4302 73.0817 -80.4769 -82.4848 72.6886 -81.2478 -84.6415 73.5087 
-81.4788 -85.815 73.9941 -80.3745 -83.4534 74.1759 -79.9643 -82.4467 73.8816 
-80.7574 -84.6705 74.6546 -81.0899 -85.8561 75.1869 -81.3158 -86.9185 75.762 
-79.7616 -83.5506 75.2526 -79.3317 -82.437 75.1402 -80.1443 -84.7925 75.6943 
-80.5765 -85.9212 76.43 -80.9908 -87.0148 77.1926 -81.2999 -88.1751 77.8846 
-79.3867 -83.6424 76.5981 -79.0188 -82.5625 76.5233 -79.7286 -84.9424 76.8245 
-80.0573 -86.1601 77.4794 -80.4642 -87.3086 78.3651 -80.8272 -88.6743 79.1483 
-81.0711 -89.9866 79.7577 -79.3077 -83.9117 78.2436 -79.1333 -82.9738 78.0047 
-79.5511 -85.1765 78.4414 -79.7376 -86.6072 78.8182 -79.9093 -87.9154 79.4341 
-80.0895 -89.333 80.042 -80.2637 -90.7958 80.5769 -80.4987 -91.8882 81.1003 
-79.2558 -84.4271 79.7953 -79.2642 -83.53 79.4789 -79.3215 -85.6111 80.1649 
-79.4118 -87.1522 80.5611 -79.4995 -88.6425 80.9799 -79.5568 -89.9833 81.312 
-79.6014 -91.3823 81.5613 -79.8024 -92.6062 81.946 -80.2114 -93.5037 82.4892 
-79.1531 -84.9753 81.0743 -79.2385 -84.02 80.856 -79.0677 -86.1281 81.4635 
-79.0056 -87.6119 81.985 -79.0569 -89.188 82.4941 -79.2352 -90.5537 82.8811 
-79.4052 -91.8708 83.1016 -79.5769 -93.2239 83.2902 -79.8961 -94.3918 83.6295 
-80.311 -95.366 84.0602 -79.1611 -85.4313 82.2096 -79.2629 -84.4407 82.0666 
-79.0263 -86.5687 82.4828 -78.8482 -87.9094 82.9428 -78.751 -89.4214 83.4674 
-78.9097 -90.9499 83.9648 -79.2676 -92.4696 84.4108 -79.5883 -94.0463 84.7324 
-79.8155 -95.5264 84.9536 -80.0262 -96.7491 85.1622 -80.2038 -97.7722 85.3324 
-81.072 -82.8636 68.8803 -80.6588 -82.3454 69.8107 -80.8112 -81.9541 68.3128 
-80.1075 -81.5442 69.1314 -80.3958 -80.932 67.7718 -80.2915 -82.0028 70.8662 
-79.5395 -80.4258 68.5689 -80.0636 -79.7818 67.4192 -79.6623 -81.2091 70.2077 
-80.0144 -81.7771 72.1758 -79.4914 -79.0197 68.421 -80.2365 -78.6052 67.4416 
-79.2955 -79.8624 69.8452 -79.5226 -80.7926 71.8062 -79.5104 -81.5377 73.6766 
-80.1493 -77.8487 68.7502 -80.889 -77.5709 67.778 -79.649 -78.3796 69.9982 
-79.3908 -79.3237 71.7451 -79.1045 -80.3433 73.5877 -78.8884 -81.3854 75.112 
-80.9693 -77.0844 69.2856 -81.6293 -76.7376 68.2527 -80.4472 -77.4916 70.5032 
-79.8236 -78.1133 72.0145 -79.0931 -79.0256 73.656 -78.685 -80.1929 75.0773 
-78.816 -81.5961 76.4734 -81.5805 -76.445 69.9249 -82.3063 -76.2017 68.8881 
-81.0889 -76.891 71.1335 -80.4846 -77.4546 72.4899 -79.5704 -78.16 73.9618 
-78.9257 -79.1207 75.2463 -78.9367 -80.5338 76.4868 -79.1836 -82.1359 77.9809 
-82.149 -75.9746 70.7779 -82.9778 -76.0637 69.766 -81.5464 -76.1991 71.9128 
-81.0471 -76.7801 73.1094 -80.2813 -77.5899 74.4565 -79.5304 -78.4498 75.7203 
-79.3153 -79.5931 76.8234 -79.3963 -81.1487 78.145 -79.3638 -82.7055 79.6188 
-82.802 -75.8582 71.7458 -83.6061 -76.2167 70.7543 -82.0871 -75.7479 72.7864 
-81.5592 -76.1376 73.8073 -80.9658 -77.0211 74.9863 -80.2688 -78.014 76.2583 
-79.8467 -78.9972 77.3545 -79.7061 -80.2704 78.4926 -79.5424 -81.7807 79.8555 
-79.352 -83.1957 81.1188 -83.7037 -76.191 72.3013 -82.9607 -75.8097 73.3445 
-83.8376 -76.3095 73.6659 -83.2561 -76.2009 74.6582 -84.1042 -76.851 74.8465 
-82.3058 -75.8731 74.3123 -83.6772 -77.0592 75.9589 -84.48 -77.6989 76.293 
-82.633 -76.6534 75.6761 -81.7018 -76.6003 75.3651 -84.035 -77.905 77.6991 
-84.7135 -78.5413 78.0478 -82.9726 -77.6367 77.2811 -81.8738 -77.5871 76.9514 
-81.0162 -77.6992 76.6635 -84.1585 -78.7887 79.5619 -84.7269 -79.5065 79.6535 
-83.2282 -78.4548 79.2107 -82.0901 -78.527 78.7258 -81.1656 -78.6342 78.3128 
-80.4588 -78.7435 77.9002 -84.2222 -80.0706 81.0947 -84.7984 -80.667 81.0678 
-83.4135 -79.5991 80.9454 -82.37 -79.4928 80.5287 -81.436 -79.5864 79.9879 
-80.7182 -79.6864 79.4966 -80.1341 -79.874 79.0316 -84.4138 -81.4049 82.4742 
-85.0204 -81.7663 82.4715 -83.6086 -81.0368 82.3687 -82.6201 -80.7657 82.1246 
-81.7253 -80.678 81.7029 -81.0154 -80.7667 81.1686 -80.3544 -80.9681 80.7298 
-79.8284 -81.2943 80.347 -84.6052 -82.4935 83.8504 -85.1978 -82.7629 83.7735 
-83.7884 -82.2614 83.7563 -82.7928 -82.0249 83.5865 -81.9016 -81.849 83.3555 
-81.273 -81.9097 82.8945 -80.6862 -82.1688 82.3629 -80.0435 -82.4506 82.0078 
-79.5667 -82.7768 81.6487 -84.6913 -83.5062 85.1104 -85.2507 -83.7563 84.8973 
-83.9158 -83.3446 85.0994 -82.962 -83.1989 84.9582 -82.0708 -83.0461 84.8263 
-81.4663 -83.084 84.4919 -81.0402 -83.3882 83.8806 -80.5193 -83.7026 83.3751 
-79.9246 -83.906 83.0615 -79.4828 -84.1355 82.6465 -79.4081 -85.5524 83.2808 
-79.794 -85.3812 83.8697 -79.6314 -86.9247 84.6391 -80.3496 -85.2948 84.2449 
-80.0827 -86.9093 85.2081 -79.7594 -88.5723 86.0854 -80.9032 -85.1329 84.6362 
-80.6492 -86.933 85.5431 -80.2355 -88.6976 86.5616 -79.9027 -90.5616 87.3265 
-81.3174 -84.7752 85.3145 -81.184 -86.7843 86.0143 -80.8736 -88.7916 86.8484 
-80.4884 -90.7614 87.6833 -80.086 -92.8166 88.3904 -81.7564 -84.4971 85.911 
-81.6485 -86.4414 86.7207 -81.4593 -88.6124 87.37 -81.1614 -90.846 87.9935 
-80.698 -92.968 88.7225 -80.0355 -95.0507 89.5125 -82.4483 -84.5026 86.1136 
-82.1958 -86.2449 87.1301 -81.9526 -88.2362 87.9752 -81.6229 -90.5229 88.591 
-81.2194 -92.9452 89.0884 -80.5679 -95.1491 89.7795 -79.8394 -97.3078 90.431 
-83.3604 -84.5596 86.242 -82.9524 -86.1963 87.2416 -82.5681 -87.9974 88.1825 
-82.0562 -90.0011 89.0887 -81.5701 -92.4684 89.6724 -81.0206 -95.0606 90.0659 
-80.3127 -97.4485 90.5665 -79.7079 -99.7419 90.9128 -84.2482 -84.5553 86.362 
-83.8308 -86.0052 87.452 -83.3976 -87.735 88.312 -82.7706 -89.5972 89.1856 
-82.0953 -91.838 90.0089 -81.5051 -94.5614 90.4774 -80.8237 -97.339 90.805 
-80.097 -99.8245 91.1527 -79.5415 -101.988 91.2745 -84.9288 -84.6464 86.2123 
-84.5889 -85.783 87.5491 -84.2178 -87.285 88.5932 -83.648 -89.1283 89.328 
-82.8951 -91.2837 90.0111 -82.168 -93.8861 90.6008 -81.4458 -96.8334 91.0448 
-80.6506 -99.6074 91.5004 -79.912 -101.842 91.8211 -79.3576 -103.625 91.7566 
-79.2593 -86.7032 83.5194 -79.4154 -88.2275 85.0264 -79.0687 -87.9915 83.8549 
-79.572 -90.1729 86.5126 -79.2761 -89.7282 85.3643 -78.8767 -89.4562 84.2771 
-79.7289 -92.6657 87.7785 -79.5803 -92.2561 86.8505 -79.227 -91.6271 85.7312 
-78.849 -91.208 84.7392 -79.6407 -95.2663 89.0009 -79.6083 -95.3697 88.2286 
-79.5725 -94.8735 87.3138 -79.2482 -94.0321 86.2205 -79.1089 -93.2346 85.282 
-79.3711 -97.6559 90.0896 -79.1691 -98.1338 89.3823 -79.2816 -98.1882 88.6594 
-79.3177 -97.5889 87.7819 -79.2959 -96.6116 86.7152 -79.4689 -95.3485 85.7957 
-79.3034 -100.154 90.6812 -78.8671 -100.598 90.1098 -78.6106 -100.8 89.4389 
-78.662 -100.555 88.7939 -78.8765 -99.9827 87.8915 -79.2507 -98.9299 86.9493 
-79.658 -97.2682 86.0857 -79.2794 -102.628 90.9194 -78.9207 -103.154 90.4717 
-78.373 -103.339 89.8936 -78.0168 -103.106 89.2629 -78.114 -102.681 88.5022 
-78.5091 -102.054 87.6486 -79.091 -100.767 86.9331 -79.676 -98.7854 86.185 
-79.0815 -104.51 91.1705 -78.8847 -105.36 90.6811 -78.4725 -105.86 90.2379 
-77.952 -105.843 89.6251 -77.8052 -105.436 88.8377 -78.0306 -104.792 88.0549 
-78.3822 -103.783 87.4067 -78.9372 -102.127 86.8452 -79.6405 -99.9412 86.184 
-79.0588 -105.446 91.7396 -78.7569 -106.707 90.972 -78.9719 -107.557 91.2892 
-78.6391 -109.261 90.5332 -79.0905 -110.26 90.5527 -78.5482 -107.853 90.4695 
-78.6564 -112.154 89.9268 -79.0993 -112.842 89.8342 -78.3363 -110.592 89.9787 
-78.1656 -108.474 89.9318 -78.3017 -114.527 89.1817 -78.8667 -114.357 88.9932 
-77.9563 -113.327 89.1156 -77.9638 -111.215 89.1123 -77.9259 -108.47 89.0739 
-77.7052 -115.974 88.0919 -78.8401 -115.18 87.8963 -77.0507 -115.501 88.0354 
-77.4417 -113.696 88.0017 -78.1185 -111.048 88.2213 -78.1404 -107.838 88.2759 
-77.8037 -116.75 86.9243 -79.2882 -115.592 87.1084 -76.5112 -116.903 86.8528 
-76.6974 -115.57 87.0153 -78.0218 -113.074 87.52 -78.6304 -109.895 87.8745 
-78.3473 -106.621 87.7324 -78.7123 -116.406 86.3278 -79.9305 -114.897 86.8571 
-77.2456 -117.115 85.9464 -76.7776 -116.445 86.1264 -77.8072 -114.324 86.858 
-78.7604 -111.273 87.4806 -78.6446 -107.963 87.4909 -78.4817 -104.903 87.1703 
-79.7416 -114.734 86.1628 -80.5614 -113.139 86.606 -78.6098 -115.794 85.6339 
-77.8184 -115.817 85.5443 -78.0526 -114.446 86.0809 -78.6655 -111.865 86.6983 
-78.6907 -108.725 86.8669 -78.5841 -105.604 86.7236 -79.0134 -102.676 86.5268 
-80.5765 -112.51 85.9003 -81.205 -111.145 86.0922 -79.7625 -113.55 85.5831 
-79.0046 -113.924 85.4345 -78.7228 -113.262 85.6548 -78.8001 -111.421 85.9759 
-78.7459 -108.747 86.0716 -78.724 -105.815 86.0428 -79.1733 -102.929 86.0308 
-79.843 -100.189 85.8578 -79.6939 -103.848 92.4666 -79.6028 -105.541 92.3854 
-80.3485 -103.97 92.8308 -80.4713 -105.637 92.502 -80.9812 -103.867 92.3067 
-79.6926 -107.71 91.6231 -81.0966 -105.495 91.7667 -81.452 -103.203 91.3079 
-80.5083 -107.753 91.5128 -79.6859 -110.367 90.585 -81.4786 -104.668 90.8699 
-82.1329 -102.029 90.6983 -81.0151 -107.348 90.9761 -80.2172 -109.965 90.4436 
-79.4962 -112.359 89.6437 -82.1517 -103.318 90.3825 -83.0642 -100.808 90.3453 
-81.5239 -106.165 90.4873 -80.8284 -109.005 90.2695 -80.0573 -111.326 89.4812 
-79.5272 -113.291 88.6247 -83.0652 -101.957 89.9272 -83.9075 -99.5835 89.7334 
-82.3072 -104.506 90.0405 -81.657 -107.34 90.0231 -80.9743 -109.938 89.5071 
-80.3987 -112 88.5675 -79.9288 -113.907 87.7503 -83.9297 -100.504 89.2996 
-84.6697 -98.1062 88.9868 -83.1745 -102.853 89.4576 -82.4927 -105.281 89.4974 
-81.8972 -107.858 89.3437 -81.3329 -110.219 88.7746 -80.8192 -112.2 88.0049 
-80.368 -113.836 87.4015 -84.7541 -98.7732 88.6663 -85.4396 -96.5401 88.2983 
-84.0611 -101.122 88.8918 -83.3674 -103.337 88.9164 -82.7328 -105.532 88.8614 
-82.1911 -107.765 88.6784 -81.6427 -109.779 88.1982 -81.13 -111.391 87.6264 
-80.7853 -112.533 87.1351 -85.5289 -97.0867 87.9886 -86.106 -95.2472 87.5663 
-84.9523 -99.255 88.3286 -84.3444 -101.442 88.4385 -83.6985 -103.482 88.3785 
[...]
CELL_DATA 2000
SCALARS Distance double
LOOKUP_TABLE default
135.115 135.236 135.524 136.308 135.489 135.736 136.573 136.857 137.715 
135.795 136.034 136.882 137.175 138.081 138.337 139.217 136.1 136.332 
137.169 137.481 138.428 138.735 139.716 139.942 140.944 136.617 136.725 
137.615 137.828 138.821 139.11 140.171 140.47 141.578 141.826 142.92 
137.562 137.482 138.465 138.49 139.568 139.686 140.807 141.004 142.132 
142.407 143.496 143.761 144.726 138.741 138.593 139.563 139.515 140.623 
140.651 141.821 141.86 142.983 143.06 144.115 144.277 145.259 145.443 
146.354 139.842 139.725 140.585 140.571 141.582 141.682 142.801 142.913 
144.016 144.048 145.097 145.088 146.137 146.147 147.216 147.24 148.306 
140.827 140.723 141.505 141.484 142.377 142.489 143.483 143.696 144.74 
144.949 146.029 146.145 147.285 147.287 148.475 148.395 149.57 149.456 
150.545 134.462 133.481 134.128 134.492 132.372 133.062 133.409 134.192 
134.689 131.189 131.849 132.179 133.049 133.611 134.467 135.029 130.312 
130.732 131.014 131.801 132.44 133.38 134.034 134.825 135.36 130.058 
130.172 130.454 130.875 131.502 132.28 133.008 133.822 134.416 135.162 
135.795 130.227 130.227 130.599 130.711 131.277 131.647 132.323 132.907 
133.549 134.244 134.97 135.774 136.675 130.56 130.524 130.951 131.025 
131.57 131.711 132.291 132.533 133.147 133.578 134.37 135.066 136.088 
136.894 137.929 131.153 130.964 131.344 131.366 131.894 132.024 132.601 
132.728 133.327 133.503 134.266 134.7 135.733 136.425 137.526 138.224 
139.153 132.041 131.696 131.992 131.828 132.287 132.33 132.933 133.073 
133.737 133.864 134.592 134.817 135.727 136.208 137.254 137.88 138.841 
139.416 140.21 132.667 133.567 132.921 132.591 134.611 133.905 133.627 
132.959 132.819 135.972 135.139 134.955 134.147 134.037 133.376 133.447 
137.561 136.684 136.55 135.653 135.574 134.764 134.822 134.166 134.316 
139.118 138.311 138.215 137.331 137.252 136.391 136.416 135.656 135.776 
135.093 135.242 140.649 139.883 139.884 139.024 138.986 138.099 138.108 
137.286 137.385 136.635 136.808 136.098 136.359 142.223 141.482 141.566 
140.735 140.75 139.861 139.882 139.016 139.119 138.31 138.509 137.757 
138.058 137.37 137.785 143.724 143.063 143.163 142.407 142.425 141.598 
141.614 140.786 140.895 140.094 140.308 139.533 139.835 139.113 139.492 
138.852 139.282 145.065 144.498 144.616 143.942 143.975 143.213 143.243 
142.469 142.596 141.849 142.084 141.345 141.643 140.909 141.24 140.545 
140.894 140.271 140.623 141.517 141.879 142.151 143.118 142.288 142.579 
143.619 143.887 144.948 142.703 143.018 144.099 144.41 145.516 145.787 
146.901 143.119 143.44 144.547 144.892 146.042 146.356 147.51 147.785 
148.949 143.578 143.866 144.989 145.35 146.533 146.88 148.072 148.389 
149.566 149.852 151.006 144.146 144.355 145.449 145.795 146.968 147.345 
148.515 148.895 150.059 150.414 151.535 151.841 152.921 144.817 144.958 
145.981 146.263 147.372 147.73 148.828 149.237 150.346 150.788 151.89 
152.282 153.34 153.673 154.706 145.428 145.596 146.55 146.794 147.821 
148.117 149.132 149.485 150.52 150.973 152.066 152.542 153.631 154.038 
155.084 155.419 156.387 145.843 146.088 146.979 147.273 148.23 148.534 
149.476 149.778 150.719 151.109 152.136 152.641 153.747 154.262 155.361 
155.777 156.769 157.045 157.851 141.63 143.215 142.361 142.34 145.055 
144.09 144.05 143.154 143.212 147.069 146.062 146.068 145.021 145.028 
144.115 144.274 149.22 148.224 148.42 147.271 147.355 146.16 146.266 
145.294 145.547 151.348 150.465 150.878 149.828 150.168 148.843 149.032 
147.649 147.876 146.745 147.019 153.296 152.558 153.028 152.23 152.716 
151.702 152.033 150.686 150.889 149.46 149.694 148.383 148.533 155.126 
154.469 154.938 154.236 154.651 153.929 154.247 153.365 153.533 152.404 
152.52 151.239 151.322 149.928 149.868 156.803 156.257 156.772 156.111 
156.492 155.734 155.974 155.209 155.357 154.563 154.646 153.732 153.758 
152.629 152.528 151.161 150.942 158.164 157.775 158.285 157.83 158.273 
157.597 157.868 157.003 157.172 156.291 156.438 155.587 155.669 154.753 
154.692 153.595 153.37 152.085 151.8 158.924 160.024 159.349 159.101 
161.343 160.574 160.418 159.619 159.247 162.831 162.073 161.921 161.034 
160.669 159.68 158.978 163.799 163.428 163.227 162.476 162.002 161.082 
160.369 159.254 158.312 163.996 163.989 163.797 163.404 162.864 162.211 
161.551 160.63 159.739 158.538 157.544 164.006 164.018 163.873 163.658 
163.215 162.812 162.307 161.7 160.994 159.957 158.903 157.693 156.668 
163.891 163.997 163.829 163.693 163.321 163.058 162.653 162.307 161.72 
161.016 159.945 158.87 157.595 156.603 155.542 163.185 163.597 163.381 
163.506 163.089 163.04 162.56 162.438 161.77 161.397 160.256 159.506 
158.058 157.221 155.928 155.241 154.166 161.971 162.569 162.354 162.752 
162.317 162.528 161.957 162.04 161.248 161.1 159.898 159.423 157.94 
157.324 155.955 155.396 154.258 153.715 152.637 159.129 159.807 159.706 
160.174 160.182 160.331 160.808 160.754 161.371 159.845 160.434 161.051 
161.277 161.834 161.983 162.712 159.054 159.829 160.594 161.229 161.822 
162.203 162.728 163.087 163.576 158.369 159.023 159.774 160.572 161.305 
161.922 162.378 162.802 163.115 163.528 163.759 157.758 158.369 158.973 
159.724 160.45 161.233 161.797 162.325 162.619 162.985 163.243 163.603 
163.828 156.944 157.649 158.162 158.876 159.414 160.236 160.773 161.55 
161.909 162.45 162.665 163.092 163.3 163.675 163.747 155.979 156.724 
157.231 157.965 158.4 159.135 159.529 160.344 160.688 161.476 161.654 
162.301 162.326 162.898 162.814 163.287 163.017 155.047 155.735 156.217 
156.969 157.416 158.113 158.46 159.14 159.442 160.175 160.385 161.075 
161.063 161.666 161.467 162.043 161.729 162.231 161.798 146.276 147.321 
147.002 147.46 148.44 148.097 148.592 148.275 148.751 149.472 149.188 
149.669 149.416 149.955 149.606 150.028 150.231 150.098 150.625 150.479 
151.115 150.843 151.368 150.901 151.291 150.892 150.801 151.509 151.466 
152.317 152.112 152.803 152.331 152.818 152.245 152.701 151.838 151.626 
152.493 152.467 153.556 153.449 154.325 153.884 154.454 153.86 154.392 
153.806 154.348 152.994 152.751 153.608 153.562 154.68 154.7 155.654 
155.386 155.991 155.501 156.083 155.567 156.208 155.574 156.073 153.936 
153.849 154.624 154.626 155.589 155.689 156.561 156.506 157.101 156.855 
157.453 157.171 157.883 157.436 157.977 157.248 157.528 154.54 154.616 
155.364 155.459 156.293 156.421 157.181 157.221 157.797 157.734 158.336 
158.302 159.037 158.9 159.457 158.981 159.184 158.459 158.506 145.756 
145.298 145.936 146.776 144.791 145.478 146.384 147.043 147.932 144.135 
144.891 145.806 146.612 147.587 148.247 149.038 143.421 144.139 144.959 
145.869 146.854 147.766 148.629 149.242 149.808 142.946 143.483 144.216 
144.974 145.876 146.847 147.767 148.638 149.317 149.874 150.389 142.796 
143.169 143.872 144.382 145.193 145.93 146.82 147.687 148.528 149.288 
150.017 150.561 151.277 142.826 143.131 143.796 144.165 144.89 145.409 
146.202 146.876 147.718 148.503 149.407 150.162 151.048 151.619 152.423 
142.879 143.19 143.843 144.144 144.808 145.186 145.895 146.392 147.129 
147.781 148.621 149.461 150.395 151.227 152.052 152.677 153.335 142.834 
143.206 143.879 144.205 144.87 145.173 145.853 146.197 146.876 147.311 
148.008 148.666 149.479 150.368 151.194 152.047 152.703 153.366 153.892 
142.96 143.487 143.52 144.067 143.985 144.05 144.688 144.673 145.15 
144.484 144.52 145.215 145.318 145.955 145.803 146.204 145.113 145.066 
145.797 145.91 146.735 146.678 147.2 146.878 147.207 145.879 145.834 
146.67 146.681 147.6 147.542 148.166 147.882 148.196 147.843 148.209 
146.636 146.705 147.683 147.694 148.57 148.466 149.039 148.798 149.115 
148.798 149.15 148.914 149.526 147.351 147.49 148.491 148.616 149.39 
149.333 149.784 149.594 149.944 149.707 150.152 149.912 150.542 150.391 
151.171 148.023 148.166 149.055 149.241 149.946 149.971 150.407 150.276 
150.716 150.573 151.195 151.01 151.709 151.48 152.189 152.03 152.71 
148.53 148.705 149.469 149.675 150.378 150.463 151.004 150.923 151.457 
151.381 152.101 152.057 152.833 152.669 153.33 153.077 153.652 153.443 
153.963 148.949 149.906 149.578 149.924 151.146 150.685 151.06 150.626 
150.874 152.538 152.033 152.394 151.882 152.117 151.543 151.588 153.927 
153.423 153.771 153.247 153.47 152.852 152.887 152.197 152.148 155.526 
154.934 155.386 154.726 154.982 154.25 154.301 153.557 153.567 152.848 
152.877 157.213 156.668 157.232 156.542 156.889 155.988 156.063 155.109 
155.134 154.337 154.428 153.687 153.688 158.57 158.2 158.679 158.256 
158.612 157.935 158.021 157.05 156.992 156.032 156.048 155.243 155.224 
154.41 154.215 159.719 159.359 159.709 159.399 159.695 159.331 159.436 
158.803 158.677 157.837 157.683 156.855 156.722 155.898 155.653 154.786 
154.474 160.947 160.52 160.87 160.419 160.703 160.289 160.45 159.961 
159.884 159.233 159.001 158.291 158.052 157.311 157.021 156.188 155.83 
154.985 154.682 148.52 148.085 148.654 149.41 147.677 148.243 149.106 
149.704 150.661 147.428 147.956 148.956 149.539 150.63 151.153 152.143 
147.223 147.791 148.837 149.473 150.631 151.204 152.222 152.639 153.537 
146.859 147.518 148.489 149.239 150.32 151.076 152.07 152.644 153.525 
154.001 154.983 146.396 147.062 147.946 148.713 149.684 150.541 151.514 
152.288 153.214 153.876 154.897 155.528 156.616 145.974 146.591 147.438 
148.127 149.065 149.856 150.859 151.662 152.68 153.458 154.571 155.348 
156.512 157.148 158.116 145.609 146.191 147.026 147.656 148.585 149.305 
150.325 151.089 152.14 152.929 154.075 154.94 156.177 156.972 158.064 
158.571 159.385 145.294 145.844 146.66 147.261 148.142 148.836 149.798 
150.567 151.572 152.382 153.474 154.38 155.61 156.545 157.741 158.465 
159.428 159.841 160.602 147.888 146.768 147.403 147.465 145.547 146.242 
146.352 146.94 146.993 144.32 145.003 145.151 145.804 145.888 146.489 
146.644 143.128 143.773 143.917 144.611 144.751 145.374 145.481 146.151 
146.366 141.936 142.555 142.659 143.377 143.527 144.207 144.255 144.906 
144.98 145.771 145.969 140.744 141.335 141.349 142.055 142.146 142.901 
142.914 143.588 143.542 144.284 144.394 145.289 145.512 139.555 140.139 
140.084 140.703 140.685 141.422 141.44 142.177 142.148 142.839 142.89 
143.703 143.933 144.848 145.115 138.339 138.944 138.913 139.469 139.391 
139.987 139.977 140.692 140.758 141.477 141.556 142.278 142.451 143.293 
143.571 144.478 144.756 137.124 137.716 137.71 138.302 138.253 138.785 
138.742 139.338 139.417 140.123 140.264 140.979 141.118 141.868 142.083 
142.943 143.241 144.147 144.45 136.435 135.482 136.295 136.979 134.609 
135.349 136.087 136.904 137.585 134.104 134.637 135.371 136.081 136.846 
137.532 138.157 133.852 134.299 134.988 135.526 136.284 136.894 137.603 
138.18 138.845 133.609 134.072 134.761 135.229 135.924 136.441 137.149 
137.702 138.41 138.976 139.69 133.548 133.891 134.617 135.023 135.721 
136.154 136.861 137.339 138.073 138.592 139.332 139.865 140.578 133.837 
133.998 134.701 134.978 135.703 136.04 136.8 137.188 138 138.406 
139.214 139.621 140.396 140.82 141.574 134.303 134.377 135.022 135.185 
135.896 136.138 136.923 137.249 138.126 138.49 139.383 139.7 140.535 
140.824 141.635 141.96 142.766 134.805 134.851 135.484 135.581 136.296 
136.448 137.237 137.472 138.342 138.673 139.584 139.931 140.797 141.085 
141.902 142.163 142.971 143.249 144.026 135.32 136.507 135.928 136.046 
137.902 137.243 137.368 136.749 136.902 139.369 138.677 138.826 138.176 
138.341 137.685 137.868 141.068 140.219 140.356 139.655 139.859 139.195 
139.38 138.709 138.949 143.079 142.109 142.205 141.301 141.486 140.744 
140.954 140.254 140.47 139.835 140.14 144.944 144.138 144.251 143.287 
143.39 142.492 142.67 141.874 142.076 141.371 141.643 141.046 141.357 
146.589 145.896 146.113 145.274 145.373 144.452 144.555 143.671 143.822 
143.022 143.25 142.575 142.877 142.255 142.513 148.496 147.665 148.008 
147.149 147.362 146.424 146.529 145.581 145.666 144.791 144.943 144.201 
144.459 143.81 144.08 143.405 143.602 150.657 149.758 150.132 149.212 
149.511 148.519 148.678 147.625 147.676 146.665 146.724 145.877 146.047 
145.371 145.611 144.97 145.168 144.474 144.621 145.394 145.965 146.044 
146.761 146.446 146.602 147.385 147.464 148.245 146.94 147.099 147.974 
148.104 148.982 149.043 149.903 147.725 147.771 148.791 148.835 149.855 
149.871 150.847 150.817 151.717 148.825 148.816 150.023 149.952 151.171 
151.03 152.18 151.981 153.033 152.799 153.747 149.926 150.023 151.329 
151.338 152.678 152.58 153.894 153.633 154.833 154.43 155.505 155.053 
156.013 150.785 151.041 152.32 152.511 153.809 153.965 155.334 155.357 
156.662 156.396 157.505 157.015 157.956 157.404 158.198 151.418 151.773 
153.017 153.308 154.55 154.86 156.242 156.559 157.965 158.044 159.195 
158.922 159.783 159.307 159.982 159.426 159.93 151.939 152.328 153.566 
153.902 155.151 155.51 156.929 157.353 158.837 159.134 160.341 160.324 
161.149 160.881 161.478 161.056 161.496 160.927 161.185 131.982 131.056 
131.54 131.718 130.403 130.71 130.914 131.438 131.805 130.056 130.195 
130.345 130.757 131.185 131.709 132.132 129.977 129.976 130.036 130.266 
130.586 131.094 131.518 132.032 132.383 130.321 130.102 130.127 130.063 
130.195 130.489 130.844 131.365 131.776 132.279 132.749 131.168 130.721 
130.734 130.36 130.372 130.271 130.545 130.825 131.339 131.768 132.369 
132.847 133.546 132.269 131.726 131.696 131.152 131.113 130.707 130.927 
130.866 131.409 131.602 132.249 132.587 133.277 133.757 134.454 133.333 
132.811 132.759 132.187 132.138 131.608 131.787 131.512 132.009 131.966 
132.541 132.632 133.196 133.503 134.128 134.598 135.203 134.288 133.805 
133.775 133.25 133.238 132.698 132.847 132.467 132.885 132.703 133.206 
133.088 133.538 133.556 134.093 134.359 135.007 135.381 135.995 132.579 
132.318 132.737 133.367 132.326 132.56 133.151 133.539 134.165 132.59 
132.688 133.213 133.442 134.091 134.426 135.128 132.879 132.987 133.556 
133.684 134.363 134.54 135.273 135.527 136.274 133.307 133.333 133.999 
134.116 134.866 134.985 135.714 135.824 136.526 136.723 137.432 134.113 
133.972 134.62 134.621 135.34 135.469 136.174 136.3 136.95 137.067 
137.734 137.903 138.593 135.005 134.876 135.442 135.328 135.901 135.912 
136.538 136.671 137.338 137.491 138.172 138.298 138.978 139.105 139.771 
135.706 135.653 136.184 136.102 136.617 136.53 137.098 137.095 137.778 
137.888 138.625 138.755 139.431 139.528 140.141 140.258 140.866 136.411 
136.3 136.827 136.764 137.322 137.256 137.851 137.779 138.432 138.432 
139.142 139.224 139.884 139.961 140.516 140.599 141.139 141.289 141.862 
132.987 133.75 133.528 133.854 134.517 134.273 134.584 134.386 134.805 
135.459 135.108 135.428 135.147 135.59 135.446 136.085 136.594 136.177 
136.53 136.132 136.596 136.335 137.003 136.897 137.661 137.729 137.34 
137.712 137.32 137.769 137.444 138.059 137.879 138.601 138.489 139.196 
138.842 138.449 138.798 138.449 138.861 138.573 139.112 138.923 139.569 
139.427 140.085 139.967 140.656 139.998 139.581 139.909 139.518 139.896 
139.586 140.083 139.896 140.521 140.381 141.037 140.883 141.561 141.453 
142.187 141.122 140.741 141.082 140.666 141.017 140.637 141.073 140.828 
141.415 141.294 141.967 141.849 142.525 142.391 143.085 142.989 143.686 
142.151 141.834 142.19 141.818 142.142 141.757 142.106 141.803 142.269 
142.126 142.741 142.702 143.377 143.318 143.975 143.876 144.512 144.417 
145.023 147.874 147.249 147.274 146.654 146.47 146.511 145.872 145.989 
145.408 145.829 145.803 145.247 145.275 144.801 144.818 144.273 145.33 
145.349 144.985 144.91 144.527 144.39 143.876 143.743 143.145 144.741 
144.912 144.682 144.736 144.31 144.177 143.529 143.366 142.664 142.577 
141.942 144.041 144.251 143.951 144.209 143.669 143.716 142.88 142.827 
141.997 141.999 141.304 141.335 140.739 143.385 143.478 142.993 143.255 
142.665 142.82 141.99 142.003 141.177 141.224 140.544 140.623 140 
140.085 139.506 142.833 142.796 142.184 142.288 141.711 141.825 141.142 
141.151 140.432 140.444 139.808 139.86 139.235 139.295 138.667 138.793 
138.238 142.349 142.254 141.618 141.585 141.024 141.045 140.461 140.443 
139.785 139.765 139.121 139.152 138.534 138.564 137.947 137.99 137.428 
137.551 137.061 
POINT_DATA 1002
SCALARS Distance double
LOOKUP_TABLE default
135.804 134.763 134.781 135.99 134.939 137.132 136.281 135.25 137.452 
138.564 136.574 135.566 137.795 139 140.092 136.861 135.877 138.077 
139.416 140.738 142.005 137.44 136.537 138.549 139.84 141.262 142.738 
144.022 138.474 137.678 139.487 140.673 141.914 143.227 144.53 145.632 
139.63 138.918 140.59 141.8 142.998 144.045 145.08 146.172 147.262 
140.63 139.982 141.499 142.664 143.948 145.108 146.144 147.191 148.289 
149.369 141.56 140.943 142.327 143.307 144.481 145.795 147.187 148.529 
149.709 150.715 151.557 133.846 133.76 132.842 132.588 131.69 133.882 
131.274 130.608 132.679 134.275 130.318 130.015 131.454 133.192 134.641 
130.19 129.974 130.86 132.201 133.639 134.973 130.524 130.189 131.089 
131.89 132.888 134.125 135.814 130.867 130.631 131.468 132.161 132.832 
133.727 135.261 137.193 131.402 131.433 131.77 132.45 133.198 133.956 
135.117 136.825 138.564 132.26 132.436 132.319 132.778 133.576 134.443 
135.382 136.687 138.255 139.707 133.309 133.198 134.199 134.322 135.315 
133.363 135.784 136.821 134.76 133.992 137.45 138.415 136.42 135.546 
134.935 139.073 139.871 138.128 137.214 136.493 135.904 140.708 141.373 
139.876 138.961 138.155 137.511 137.013 142.369 142.93 141.626 140.752 
139.938 139.269 138.75 138.417 143.894 144.35 143.231 142.421 141.672 
141.078 140.583 140.175 139.888 145.253 145.596 144.706 143.992 143.319 
142.801 142.378 141.972 141.574 141.221 142.39 142.844 144.124 143.321 
144.695 146.028 143.763 145.217 146.641 148.036 144.183 145.7 147.213 
148.681 150.135 144.618 146.17 147.732 149.277 150.747 152.144 145.13 
146.601 148.136 149.682 151.224 152.639 153.987 145.755 147.061 148.456 
149.898 151.464 152.99 154.399 155.739 146.329 147.568 148.839 150.105 
151.563 153.179 154.734 156.128 157.302 146.684 147.926 149.2 150.395 
151.664 153.191 154.883 156.476 157.71 158.546 143.135 145.015 144.004 
147.146 146.048 145.036 149.495 148.624 147.399 146.367 151.773 151.372 
150.515 149.188 148.078 153.767 153.555 153.231 152.364 151.123 149.89 
155.662 155.396 155.012 154.51 153.735 152.714 151.373 157.38 157.286 
156.804 156.116 155.454 154.76 153.812 152.41 158.651 158.833 158.71 
158.097 157.312 156.556 155.699 154.574 153.138 159.578 159.826 160.675 
161.23 162.134 160.205 162.867 163.5 161.676 160.135 163.927 163.977 
162.896 161.445 159.538 164.07 163.949 163.401 162.304 160.918 158.774 
164.045 164.034 163.51 162.739 161.889 160.189 157.756 163.92 163.725 
163.528 162.927 162.304 160.981 158.674 156.362 163.155 162.681 163.076 
162.668 162.095 160.922 158.873 156.635 154.796 161.881 161.356 162.035 
161.848 161.365 160.295 158.484 156.473 154.769 153.222 159.267 160.278 
159.883 160.838 159.832 161.318 160.639 159.07 161.687 162.513 159.784 
158.317 161.369 162.424 163.257 158.977 157.822 160.571 161.985 162.737 
163.359 158.318 157.144 159.634 161.154 162.263 162.867 163.51 157.492 
156.202 158.686 159.931 161.243 162.231 162.907 163.49 156.484 155.258 
157.726 158.796 159.867 160.965 161.776 162.305 162.654 155.471 154.416 
156.704 157.827 158.765 159.704 160.497 160.928 161.178 161.365 146.551 
147.773 147.643 148.879 148.803 149.129 149.888 149.729 150.247 150.493 
150.683 150.288 151.311 151.796 151.821 151.44 150.955 152.412 153.238 
153.384 153.258 152.488 152.076 153.559 154.707 155.04 154.951 154.981 
153.696 153.217 154.647 155.844 156.422 156.527 156.785 156.872 154.643 
153.954 155.544 156.586 157.265 157.631 158.215 158.661 158.405 145.124 
146.137 144.635 145.665 144.078 147.353 144.935 143.396 146.822 148.589 
144.092 142.779 145.855 147.892 149.412 143.582 142.48 144.98 146.801 
148.617 149.929 143.45 142.462 144.589 146.016 147.652 149.324 150.803 
143.483 142.535 144.46 145.628 146.968 148.541 150.363 151.982 143.556 
142.547 144.494 145.476 146.585 147.841 149.487 151.342 152.838 143.516 