# vtk DataFile Version 4.0
vtk output
ASCII
DATASET POLYDATA
POINTS 1002 float
-84.9304 -82.4013 72.1419 -84.9724 -81.714 71.0674 -84.5513 -81.4651 71.8226 
-84.5061 -82.2929 72.9524 -83.9296 -81.3847 72.4819 -84.7714 -83.3469 73.3996 
-83.9379 -82.3959 73.7608 -83.3014 -81.4695 73.1832 -84.4194 -83.3485 74.3563 
-84.7455 -84.3555 75.0062 -83.3261 -82.6934 74.7305 -82.8521 -81.6737 74.2471 
-83.9181 -83.5234 75.3619 -84.4321 -84.3795 76.0814 -84.8589 -85.4132 76.7966 
-82.8305 -82.9716 75.9499 -82.5429 -81.8426 75.5536 -83.3129 -83.8537 76.4824 
-83.931 -84.5837 77.1529 -84.4337 -85.6278 77.8581 -84.7645 -86.8544 78.4578 
-82.4638 -83.0739 77.1574 -82.2302 -81.9697 76.7697 -82.8206 -84.1667 77.6752 
-83.393 -85.0522 78.2889 -83.8894 -86.1199 78.9166 -84.1894 -87.4495 79.5014 
-84.449 -88.6258 80.0068 -82.0869 -83.3756 78.3608 -81.8883 -82.3582 78.0984 
-82.386 -84.5563 78.8288 -82.8999 -85.6919 79.4433 -83.3731 -86.8713 80.0198 
-83.6036 -88.2005 80.5534 -83.8673 -89.4026 81.0827 -84.2442 -90.3775 81.5472 
-81.7145 -84.1508 79.7993 -81.5892 -83.055 79.672 -81.9056 -85.3273 80.0714 
-82.2882 -86.4696 80.5546 -82.7523 -87.6611 81.0647 -83.0171 -88.9678 81.5362 
-83.2676 -90.1545 82.0657 -83.7031 -91.1657 82.5694 -84.0765 -92.1799 82.9265 
-81.4721 -84.9647 81.2149 -81.394 -83.7172 81.0761 -81.5612 -86.2154 81.3648 
-81.7516 -87.2944 81.6727 -82.1014 -88.3549 82.0908 -82.4237 -89.6389 82.4969 
-82.6971 -90.9046 82.9553 -83.1079 -91.9508 83.4507 -83.5151 -93.0019 83.8194 
-83.6899 -94.1353 84.0358 -81.3592 -85.4271 82.2651 -81.3173 -84.1673 82.0475 
-81.4012 -86.7426 82.4492 -81.4909 -87.9122 82.7227 -81.7253 -88.9627 83.1474 
-82.0437 -90.2154 83.5915 -82.3234 -91.6279 83.9759 -82.6285 -92.8266 84.3479 
-82.9636 -93.8659 84.6614 -83.1586 -94.9846 84.8563 -83.1945 -96.0799 84.9882 
-84.6046 -80.985 70.4354 -84.0591 -80.7317 71.1884 -84.1296 -80.2125 69.7194 
-83.5721 -79.9789 70.465 -83.7857 -79.1941 69.058 -83.3712 -80.5879 71.7813 
-83.2004 -78.9534 69.7811 -83.4541 -77.9074 68.5516 -82.9261 -79.7843 71.0868 
-82.8277 -80.5152 72.5385 -82.6797 -77.5896 69.2603 -83.0128 -76.6777 68.254 
-82.4788 -78.7179 70.5422 -82.4151 -79.5649 72.0284 -82.5016 -80.5777 73.792 
-82.3175 -76.2572 69.122 -83.0009 -75.7764 68.3674 -81.9744 -77.2859 70.2795 
-81.9355 -78.3967 71.7304 -82.0708 -79.4941 73.4178 -82.2213 -80.7573 75.1968 
-82.7792 -75.2657 69.573 -83.666 -75.0121 68.9963 -82.0574 -75.9669 70.4866 
-81.7211 -77.007 71.7397 -81.7183 -78.2085 73.2089 -81.8591 -79.6492 74.8706 
-81.9408 -81.0411 76.5571 -83.6528 -74.4541 70.4461 -84.3834 -74.1825 69.9053 
-82.8275 -75.1157 71.1801 -82.1243 -75.982 72.1806 -81.7671 -76.9169 73.4 
-81.7401 -78.2999 74.8349 -81.771 -79.994 76.4936 -81.696 -81.5281 78.1876 
-84.2021 -73.8006 71.3866 -84.767 -73.5758 70.8013 -83.5312 -74.5363 72.0979 
-82.7476 -75.4576 72.9796 -82.0744 -76.1557 74.0732 -81.8138 -77.0819 75.3366 
-81.7983 -78.712 76.7818 -81.669 -80.5151 78.3818 -81.4779 -82.1348 79.8921 
-84.4836 -73.6219 72.2113 -85.0317 -73.5369 71.5725 -83.9218 -74.2142 72.9835 
-83.2388 -75.1028 73.8845 -82.439 -75.7973 74.9749 -81.9094 -76.4093 76.1921 
-81.8196 -77.6317 77.4261 -81.7482 -79.3907 78.7241 -81.5071 -81.1077 80.0481 
-81.3361 -82.6813 81.1894 -85.0386 -73.9912 72.7311 -84.4397 -74.2261 73.5856 
-85.1724 -74.7845 74.1638 -84.5661 -75.0064 75.2153 -85.3929 -75.417 75.8605 
-83.8388 -74.8168 74.5861 -84.7567 -75.6185 77.0003 -85.624 -75.8978 77.6037 
-83.8881 -75.3785 76.4217 -83.0499 -75.4783 75.7622 -84.9006 -76.3362 78.7198 
-85.8261 -76.6893 79.1843 -83.9961 -76.0235 78.2419 -83.034 -75.9122 77.7384 
-82.2463 -76.0782 77.0596 -85.0558 -77.381 80.2939 -85.9434 -77.7275 80.6875 
-84.1675 -77.1019 79.8357 -83.2734 -76.9096 79.3877 -82.4047 -76.8916 78.9217 
-81.9101 -77.1013 78.2589 -85.2487 -78.5215 81.7774 -86.0168 -78.7289 82.1802 
-84.4451 -78.3998 81.2984 -83.6572 -78.345 80.784 -82.8482 -78.3031 80.3505 
-82.1666 -78.3701 79.9284 -81.8403 -78.7196 79.3652 -85.4341 -79.764 83.063 
-86.1413 -79.8626 83.4229 -84.7217 -79.717 82.6465 -83.9807 -79.7244 82.1917 
-83.2086 -79.697 81.7846 -82.4572 -79.7021 81.4063 -81.8933 -79.938 80.9657 
-81.6062 -80.4498 80.4958 -85.5457 -81.1702 84.0843 -86.2472 -81.2022 84.3225 
-84.8861 -81.139 83.7941 -84.1831 -81.1067 83.4674 -83.3951 -81.0043 83.2072 
-82.6328 -80.9206 82.9511 -82.0142 -81.0925 82.503 -81.5925 -81.5312 81.9584 
-81.3788 -82.0945 81.5331 -85.5354 -82.5001 85.0045 -86.2342 -82.4913 85.098 
-84.9111 -82.5045 84.8592 -84.2933 -82.5164 84.6013 -83.5635 -82.457 84.3585 
-82.8121 -82.3516 84.2195 -82.2195 -82.4448 83.9337 -81.7945 -82.7897 83.3589 
-81.4917 -83.2107 82.7689 -81.3343 -83.6649 82.3672 -81.3129 -85.2891 82.9969 
-81.4021 -84.9113 83.4233 -81.1983 -86.5186 84.1631 -81.6527 -84.6687 83.9976 
-81.3505 -86.3415 84.7816 -80.9883 -88.1379 85.6362 -82.0051 -84.4003 84.6443 
-81.6987 -86.2741 85.4063 -81.2456 -88.0326 86.2803 -81.029 -90.2521 87.0137 
-82.4463 -84.1228 85.0725 -82.1359 -86.0963 85.8932 -81.6917 -87.9297 86.7661 
-81.4035 -90.0675 87.5161 -81.4177 -92.5032 88.0758 -83.0693 -84.0153 85.267 
-82.6573 -85.8682 86.2012 -82.1951 -87.7616 87.1698 -81.8105 -89.8809 87.9936 
-81.7134 -92.3557 88.609 -81.7362 -94.7985 89.1469 -83.7862 -83.9575 85.5364 
-83.2903 -85.6765 86.5114 -82.7533 -87.5867 87.5323 -82.2349 -89.6856 88.504 
-81.9554 -92.1377 89.2338 -81.8939 -94.782 89.7614 -81.8522 -97.53 90.1642 
-84.4071 -83.8199 85.8659 -83.9133 -85.4061 86.8899 -83.3707 -87.3575 87.8202 
-82.7572 -89.4588 88.799 -82.2984 -91.7428 89.7111 -82.1388 -94.4068 90.2993 
-82.0978 -97.4301 90.6074 -81.9831 -100.623 90.767 -84.9865 -83.7169 86.0029 
-84.48 -85.1297 87.0953 -84.0109 -87.0315 87.983 -83.4313 -89.1857 88.8405 
-82.8316 -91.2866 89.8346 -82.5078 -93.7082 90.5714 -82.4505 -96.7996 90.8774 
-82.3629 -100.253 91.0214 -82.1108 -103.454 91.1259 -85.6673 -83.6827 85.9765 
-85.1048 -84.9798 87.0358 -84.6566 -86.7248 87.9472 -84.1962 -88.8545 88.7584 
-83.5994 -90.885 89.7707 -83.0658 -92.9948 90.6508 -82.8146 -95.8641 90.9908 
-82.7055 -99.4143 91.1241 -82.4858 -102.855 91.3697 -82.1333 -105.591 91.5733 
-81.2749 -86.6231 83.3047 -81.0543 -88.0628 84.6336 -81.2932 -88.071 83.6512 
-80.8749 -90.178 86.1827 -81.1192 -89.9089 85.1618 -81.4734 -89.4641 84.1519 
-81.0674 -92.5835 87.4756 -81.0195 -92.333 86.6763 -81.4241 -91.6436 85.7824 
-81.8146 -90.8505 84.7512 -81.4848 -94.8312 88.5688 -81.1904 -94.6291 87.8456 
-81.3195 -94.0315 87.1037 -81.8235 -93.2066 86.313 -82.148 -92.4051 85.2071 
-81.7257 -97.6429 89.705 -81.5342 -97.3587 88.9932 -81.4014 -96.6671 88.118 
-81.6694 -95.7731 87.3748 -82.1142 -94.8832 86.5819 -82.3827 -93.9006 85.4775 
-81.7843 -101.222 90.5044 -81.7415 -101.294 90.0436 -81.6902 -100.655 89.2329 
-81.6743 -99.4097 88.3097 -81.9007 -97.9807 87.5625 -82.2471 -96.5649 86.7306 
-82.5785 -95.15 85.6746 -81.7941 -104.489 90.8799 -81.6985 -105.14 90.558 
-81.7831 -105.097 90.04 -81.8044 -104.099 89.2537 -81.8195 -102.286 88.48 
-82.0247 -100.134 87.782 -82.3531 -98.0746 86.8769 -82.723 -96.3466 85.8157 
-81.7707 -106.753 91.2486 -81.5481 -107.694 90.7994 -81.5752 -108.217 90.3041 
-81.6973 -107.992 89.6977 -81.7809 -106.732 89.0805 -81.9501 -104.497 88.5847 
-82.2306 -101.819 87.9462 -82.4996 -99.3781 86.9753 -82.7902 -97.5021 85.9124 
-81.8851 -107.877 91.917 -81.5173 -109.059 91.3294 -81.7318 -109.802 91.9236 
-81.3305 -111.293 91.1171 -81.6911 -111.76 91.4014 -81.3276 -110.07 90.609 
-81.1796 -113.76 90.5712 -81.7245 -113.565 90.6621 -81.1016 -112.631 90.1832 
-81.3601 -110.638 89.8437 -81.2458 -115.448 89.7567 -82.1469 -114.499 89.9688 
-80.9217 -115.234 89.4878 -81.1241 -113.224 89.1654 -81.5256 -110.319 89.1494 
-82.0244 -115.551 88.7117 -83.0817 -114.536 89.3027 -81.2097 -116.295 88.4503 
-81.0783 -115.339 88.3675 -81.4613 -112.475 88.5191 -81.8392 -108.689 88.7866 
-83.2302 -114.84 87.9438 -83.915 -113.824 88.8815 -82.2599 -115.643 87.409 
-81.5612 -115.655 87.5347 -81.6107 -113.699 87.9785 -82.0635 -110.053 88.4584 
-82.2631 -105.82 88.5185 -84.0449 -113.551 87.8865 -84.4027 -112.144 88.723 
-83.3981 -114.385 87.1264 -82.5112 -114.572 87.071 -82.0327 -113.346 87.5794 
-82.2909 -110.306 88.1279 -82.6104 -106.357 88.287 -82.563 -102.562 87.8215 
-84.5542 -111.326 88.0264 -84.9921 -109.843 88.4471 -84.085 -112.364 87.4905 
-83.4055 -112.678 87.2619 -82.7328 -111.799 87.4876 -82.6274 -109.346 87.8549 
-82.8958 -105.926 87.9681 -82.8915 -102.625 87.5687 -82.728 -99.8531 86.7649 
-85.2275 -108.658 87.8443 -85.8188 -107.6 87.9717 -84.6591 -109.493 87.7027 
-84.1071 -109.842 87.6197 -83.5512 -109.299 87.6508 -83.2707 -107.496 87.7298 
-83.3634 -104.754 87.6895 -83.3512 -102.031 87.314 -83.0899 -99.8267 86.5701 
-82.9926 -97.9167 85.7172 -82.3639 -105.773 92.0022 -82.2221 -107.902 92.4714 
-82.7114 -105.602 92.2375 -82.8099 -107.546 92.7209 -83.3168 -104.917 92.1368 
-82.2734 -109.597 92.3078 -83.5812 -106.711 92.55 -84.0554 -103.559 91.7593 
-83.0776 -109.036 92.4051 -82.4144 -111.231 91.4978 -84.2933 -105.14 92.0171 
-84.7697 -101.571 91.324 -83.8525 -108.034 92.2038 -83.2841 -110.414 91.5271 
-82.6376 -112.66 90.7535 -85.0951 -102.844 91.4565 -85.6493 -99.3851 91.0562 
-84.5447 -106.136 91.721 -83.9715 -108.983 91.4009 -83.5133 -111.49 90.8585 
-83.2118 -113.438 90.2992 -86.1703 -100.45 91.1932 -86.6433 -97.4656 90.8178 
-85.548 -103.594 91.3707 -84.7538 -106.51 91.1405 -84.1569 -109.27 90.7157 
-83.946 -111.68 90.4066 -83.9029 -113.214 89.866 -87.108 -98.3632 90.8889 
-87.4178 -95.8789 90.272 -86.6655 -101.174 91.2324 -85.9163 -103.819 91.0976 
-85.0945 -106.248 90.6043 -84.5934 -108.639 90.1857 -84.4011 -110.616 89.9245 
-84.3616 -111.761 89.4593 -87.7376 -96.5248 90.1812 -88.0273 -94.516 89.4784 
-87.4186 -98.9462 90.7306 -86.9408 -101.421 90.9086 -86.3199 -103.593 90.6666 
-85.7158 -105.563 90.1825 -85.2245 -107.378 89.751 -84.9498 -108.772 89.433 
-84.9252 -109.595 89.0103 -88.3653 -94.9429 89.306 -88.6826 -93.3305 88.7151 
[...]
CELL_DATA 2000
SCALARS Distance double
LOOKUP_TABLE default
136.96 136.961 137.306 137.999 136.994 137.36 138.178 138.471 139.291 
137.255 137.53 138.448 138.73 139.636 139.903 140.836 137.779 137.954 
138.88 139.099 140.03 140.284 141.254 141.539 142.526 138.34 138.506 
139.407 139.606 140.555 140.761 141.768 142.008 143.057 143.291 144.287 
138.988 139.068 139.989 140.162 141.188 141.382 142.459 142.64 143.726 
143.904 144.958 145.106 146.083 139.965 139.88 140.838 140.867 141.929 
142.076 143.181 143.37 144.438 144.614 145.636 145.801 146.794 146.928 
147.874 141.078 140.984 141.923 141.863 142.848 142.885 143.907 144.057 
145.084 145.277 146.276 146.459 147.44 147.61 148.564 148.694 149.574 
141.966 141.994 142.855 142.879 143.757 143.787 144.706 144.79 145.796 
145.941 147.002 147.144 148.181 148.294 149.27 149.371 150.269 150.342 
151.139 136.318 135.26 135.957 136.253 134.127 134.854 135.13 135.832 
136.173 132.938 133.698 133.989 134.694 135.011 135.788 136.335 131.683 
132.429 132.731 133.53 133.883 134.659 135.208 136.107 136.852 130.786 
131.224 131.48 132.24 132.679 133.523 134.103 135.012 135.777 136.718 
137.478 130.718 130.695 130.907 131.253 131.738 132.403 133.054 133.909 
134.704 135.662 136.511 137.386 138.168 131.162 130.969 131.199 131.159 
131.625 131.857 132.504 133.035 133.85 134.664 135.622 136.511 137.457 
138.239 139.146 131.606 131.471 131.748 131.669 132.124 132.119 132.686 
132.838 133.562 134.043 135.017 135.782 136.854 137.641 138.637 139.359 
140.274 132.096 131.935 132.267 132.216 132.709 132.697 133.233 133.227 
133.828 134.011 134.864 135.388 136.451 137.152 138.172 138.87 139.758 
140.44 141.217 132.577 133.656 132.942 132.794 135.033 134.197 134.002 
133.313 133.28 136.45 135.624 135.41 134.624 134.5 133.845 133.812 
137.879 137.052 136.862 136.046 135.887 135.127 135.043 134.382 134.405 
139.384 138.543 138.406 137.551 137.454 136.607 136.576 135.772 135.867 
135.161 135.436 140.901 140.098 140.038 139.186 139.178 138.301 138.36 
137.483 137.639 136.827 137.144 136.459 136.949 142.373 141.63 141.645 
140.855 140.906 140.081 140.172 139.328 139.466 138.654 138.893 138.194 
138.588 138.027 138.548 143.771 143.099 143.16 142.449 142.531 141.778 
141.868 141.087 141.196 140.419 140.589 139.875 140.163 139.574 139.997 
139.533 140.044 145.028 144.449 144.535 143.918 144.027 143.352 143.453 
142.722 142.839 142.094 142.283 141.555 141.831 141.152 141.511 140.945 
141.388 140.952 141.442 142.295 142.305 142.722 143.603 142.524 142.875 
143.851 144.162 145.151 142.881 143.216 144.274 144.558 145.589 145.871 
147.025 143.272 143.596 144.668 145.012 146.059 146.352 147.462 147.853 
149.132 143.751 143.995 145.03 145.38 146.452 146.788 147.886 148.267 
149.517 149.991 151.329 144.32 144.501 145.486 145.771 146.847 147.179 
148.302 148.674 149.906 150.368 151.719 152.206 153.595 144.844 145.035 
145.96 146.23 147.255 147.587 148.676 149.06 150.228 150.703 151.987 
152.542 153.917 154.485 155.91 145.279 145.478 146.33 146.621 147.577 
147.941 148.969 149.372 150.444 150.917 152.069 152.665 153.948 154.647 
156.037 156.734 158.109 145.701 145.865 146.647 146.913 147.806 148.179 
149.172 149.599 150.629 151.071 152.117 152.643 153.791 154.501 155.817 
156.657 158.03 158.785 159.994 142.627 143.895 143.345 143.545 145.41 
144.712 144.942 144.325 144.512 147.369 146.473 146.762 145.928 146.195 
145.396 145.561 149.574 148.637 148.994 148.013 148.334 147.35 147.59 
146.6 146.751 151.786 150.89 151.242 150.281 150.553 149.585 149.84 
148.829 149.007 147.92 148.025 154.146 153.215 153.681 152.603 152.884 
151.793 152.026 151.039 151.258 150.237 150.323 149.199 149.212 156.633 
155.757 156.509 155.361 155.901 154.499 154.826 153.441 153.7 152.502 
152.649 151.491 151.459 150.304 150.25 158.889 158.237 159.119 158.264 
159.011 157.794 158.261 156.693 156.924 155.314 155.431 153.963 153.934 
152.588 152.456 151.273 151.191 160.692 160.265 161.032 160.539 161.211 
160.539 161.006 159.945 160.126 158.672 158.66 157.029 156.9 155.274 
155.046 153.575 153.352 152.152 152.027 161.766 163.171 162.378 162.073 
164.334 163.689 163.439 162.615 162.248 165.379 164.884 164.762 163.96 
163.585 162.696 162.126 166.064 165.846 165.886 165.295 164.91 164.001 
163.36 162.376 161.435 166.229 166.218 166.209 166.095 165.796 165.201 
164.483 163.553 162.578 161.447 160.124 166.074 166.126 165.911 166.004 
165.746 165.651 165.034 164.46 163.432 162.483 161.128 159.902 158.309 
165.482 165.76 165.493 165.592 165.258 165.319 164.781 164.592 163.594 
163.008 161.582 160.65 158.97 157.853 156.218 164.301 164.874 164.651 
164.992 164.575 164.742 164.103 164.082 163.052 162.754 161.305 160.715 
159.025 158.207 156.54 155.665 154.272 162.888 163.506 163.238 163.809 
163.327 163.752 162.999 163.184 162.079 161.969 160.545 160.177 158.6 
158.033 156.492 155.814 154.485 153.816 152.773 161.793 162.185 162.481 
163.245 162.254 162.781 163.594 163.762 164.33 161.871 162.701 163.606 
163.974 164.493 164.683 165.179 160.939 162.064 163.078 163.792 164.363 
164.698 165.128 165.419 165.837 159.752 160.91 161.92 162.963 163.628 
164.316 164.775 165.252 165.695 165.987 166.226 158.777 159.74 160.666 
161.686 162.353 163.253 163.685 164.52 164.932 165.63 165.903 166.206 
166.158 157.911 158.797 159.646 160.55 161.197 161.978 162.327 163.133 
163.395 164.359 164.556 165.402 165.319 165.772 165.41 156.921 157.799 
158.512 159.473 160.08 160.899 161.242 161.886 162.055 162.757 162.869 
163.703 163.656 164.427 164.124 164.655 164.153 155.982 156.725 157.269 
158.177 158.678 159.619 159.983 160.785 161.006 161.632 161.749 162.284 
162.285 162.824 162.682 163.213 162.909 163.319 162.847 146.19 147.269 
146.845 147.138 148.453 148.009 148.346 147.898 148.3 149.646 149.251 
149.654 149.192 149.644 149.199 149.698 150.759 150.457 150.938 150.53 
151.044 150.619 151.184 150.708 151.213 151.819 151.594 152.192 151.839 
152.422 152.036 152.669 152.243 152.807 152.253 152.716 152.85 152.695 
153.425 153.147 153.808 153.437 154.102 153.722 154.369 153.88 154.431 
153.819 154.369 153.797 153.716 154.499 154.363 155.085 154.807 155.487 
155.153 155.888 155.484 156.224 155.657 156.384 155.704 156.444 154.639 
154.607 155.386 155.36 156.132 155.993 156.731 156.503 157.355 157.074 
158.042 157.595 158.547 157.901 158.774 157.995 158.741 155.38 155.391 
156.188 156.216 157.059 157.002 157.832 157.702 158.656 158.54 159.662 
159.447 160.531 160.078 160.972 160.315 161.001 160.207 160.702 145.835 
145.601 146.105 146.884 145.251 145.818 146.602 147.164 147.993 144.847 
145.416 146.164 146.783 147.609 148.256 149.11 144.527 145.043 145.776 
146.329 147.127 147.788 148.66 149.335 150.172 144.258 144.771 145.533 
146.022 146.812 147.365 148.231 148.865 149.726 150.358 151.17 143.941 
144.481 145.24 145.778 146.553 147.098 147.927 148.507 149.356 149.942 
150.758 151.354 152.159 143.631 144.142 144.868 145.426 146.164 146.753 
147.516 148.144 148.945 149.577 150.386 150.981 151.778 152.359 153.132 
143.399 143.853 144.574 145.078 145.825 146.354 147.09 147.663 148.408 
149.062 149.852 150.544 151.351 151.99 152.755 153.317 154.014 143.238 
143.645 144.355 144.83 145.603 146.094 146.863 147.33 148.055 148.561 
149.291 149.928 150.713 151.443 152.226 152.899 153.595 154.149 154.763 
143.372 143.929 143.92 144.494 144.553 144.516 145.159 145.147 145.78 
145.337 145.197 145.833 145.832 146.545 146.505 147.097 146.24 146.03 
146.569 146.513 147.246 147.279 147.966 147.824 148.315 146.996 146.874 
147.389 147.294 148.025 148.032 148.813 148.713 149.267 149.011 149.482 
147.541 147.529 148.179 148.16 148.997 148.957 149.792 149.64 150.242 
149.969 150.45 150.219 150.813 148.139 148.112 148.894 148.973 149.945 
149.988 150.856 150.7 151.288 150.982 151.468 151.209 151.822 151.657 
152.34 148.877 148.823 149.599 149.698 150.642 150.811 151.661 151.663 
152.259 152.04 152.557 152.29 152.927 152.717 153.41 153.198 153.78 
149.564 149.565 150.263 150.351 151.146 151.338 152.11 152.263 152.922 
152.916 153.542 153.401 154.073 153.865 154.521 154.276 154.823 154.54 
154.968 150.09 151.152 150.686 150.86 152.473 151.878 152.074 151.522 
151.721 154.051 153.376 153.565 152.857 153.005 152.42 152.617 155.405 
154.923 155.133 154.448 154.566 153.83 153.974 153.346 153.498 156.473 
156.112 156.415 155.915 156.107 155.441 155.595 154.864 155.019 154.281 
154.33 157.903 157.351 157.825 157.248 157.609 156.967 157.186 156.479 
156.602 155.873 155.901 155.097 154.979 159.629 159.04 159.579 158.916 
159.38 158.651 158.935 158.113 158.166 157.363 157.289 156.556 156.388 
155.616 155.365 161.026 160.643 161.063 160.588 160.941 160.397 160.641 
159.91 159.912 158.992 158.816 157.917 157.7 156.904 156.642 155.877 
155.579 162.088 161.814 162.165 161.796 162.011 161.631 161.764 161.318 
161.305 160.63 160.449 159.556 159.31 158.354 158.083 157.169 156.854 
156.03 155.701 149.807 149.614 150.07 150.818 149.414 149.865 150.666 
151.163 152.093 149.245 149.685 150.485 151.016 152.017 152.597 153.652 
148.92 149.451 150.228 150.821 151.827 152.491 153.567 154.147 155.027 
148.426 149.027 149.842 150.511 151.527 152.248 153.29 153.943 154.811 
155.315 156.052 148.021 148.573 149.451 150.119 151.161 151.899 152.91 
153.579 154.434 155.013 155.856 156.392 157.365 147.724 148.25 149.1 
149.749 150.736 151.48 152.446 153.138 153.986 154.613 155.53 156.195 
157.31 157.944 159.072 147.36 147.916 148.679 149.337 150.214 150.964 
151.863 152.602 153.461 154.154 155.098 155.847 156.984 157.782 158.946 
159.601 160.541 146.935 147.484 148.203 148.843 149.67 150.383 151.252 
151.982 152.863 153.604 154.565 155.366 156.455 157.323 158.444 159.268 
160.248 160.866 161.624 149.153 148.087 148.719 148.918 146.954 147.585 
147.738 148.438 148.684 145.741 146.408 146.519 147.217 147.488 148.254 
148.545 144.378 145.151 145.29 145.991 146.216 147.015 147.329 148.093 
148.262 142.902 143.737 143.914 144.694 144.844 145.664 145.886 146.752 
146.922 147.668 147.726 141.525 142.284 142.433 143.229 143.337 144.172 
144.293 145.187 145.33 146.198 146.318 147.1 147.248 140.349 141.001 
141.117 141.79 141.878 142.631 142.749 143.576 143.724 144.583 144.771 
145.638 145.874 146.704 146.95 139.257 139.881 139.992 140.575 140.628 
141.259 141.378 142.116 142.299 143.079 143.283 144.116 144.389 145.281 
145.576 146.416 146.633 138.151 138.776 138.872 139.463 139.478 140.06 
140.122 140.809 140.988 141.74 141.942 142.705 142.937 143.788 144.092 
144.988 145.26 146.065 146.244 137.55 136.776 137.534 138.231 135.988 
136.72 137.423 138.175 138.832 135.457 136.013 136.699 137.377 138.092 
138.794 139.502 135.293 135.659 136.326 136.811 137.562 138.166 138.981 
139.616 140.415 135.278 135.6 136.257 136.618 137.378 137.838 138.691 
139.231 140.083 140.633 141.408 135.275 135.59 136.264 136.609 137.372 
137.78 138.632 139.083 139.926 140.387 141.178 141.65 142.415 135.492 
135.678 136.394 136.665 137.452 137.814 138.674 139.083 139.93 140.322 
141.123 141.518 142.326 142.752 143.578 136.014 136.058 136.772 136.922 
137.724 137.983 138.855 139.183 140.048 140.386 141.213 141.559 142.385 
142.759 143.591 143.985 144.771 136.632 136.636 137.281 137.373 138.135 
138.336 139.194 139.453 140.31 140.577 141.402 141.7 142.529 142.868 
143.682 144.032 144.783 145.129 145.797 137.155 138.186 137.689 137.811 
139.471 138.839 138.991 138.46 138.693 141.042 140.29 140.454 139.788 
140.052 139.488 139.787 142.743 141.962 142.125 141.37 141.596 140.944 
141.225 140.633 140.897 144.458 143.68 143.841 143.067 143.254 142.538 
142.779 142.118 142.359 141.731 141.969 146.233 145.427 145.602 144.794 
144.999 144.233 144.491 143.753 144.012 143.279 143.521 142.84 143.101 
148.055 147.258 147.468 146.617 146.832 146.021 146.295 145.531 145.813 
145.033 145.265 144.485 144.7 143.996 144.239 149.775 149.075 149.328 
148.516 148.707 147.872 148.074 147.307 147.545 146.815 147.027 146.257 
146.405 145.628 145.77 145.084 145.28 151.321 150.724 151.015 150.317 
150.515 149.715 149.837 149.03 149.16 148.441 148.621 147.936 148.086 
147.325 147.404 146.626 146.718 146.057 146.229 146.93 147.485 147.525 
148.251 148.249 148.237 149.021 148.994 149.774 148.952 149.035 149.872 
149.869 150.664 150.596 151.361 149.466 149.646 150.514 150.656 151.5 
151.511 152.299 152.217 152.989 150.058 150.185 151.115 151.263 152.214 
152.308 153.225 153.204 154.089 153.954 154.79 150.831 150.922 151.966 
152.032 153.112 153.145 154.224 154.21 155.265 155.164 156.143 155.903 
156.766 151.526 151.72 152.827 152.982 154.16 154.224 155.434 155.401 
156.609 156.487 157.605 157.361 158.313 157.957 158.766 151.993 152.307 
153.42 153.745 154.992 155.252 156.585 156.703 158.059 157.996 159.257 
158.985 160.022 159.591 160.406 159.935 160.593 152.297 152.679 153.823 
154.249 155.587 156.005 157.473 157.794 159.285 159.432 160.802 160.687 
161.781 161.386 162.179 161.629 162.205 161.64 162.052 132.029 131.543 
131.804 131.959 131.111 131.356 131.417 131.758 131.974 130.707 130.907 
130.908 131.173 131.236 131.697 131.964 130.771 130.669 130.691 130.731 
130.717 130.959 131.172 131.717 132.175 131.556 131.082 131.12 130.83 
130.868 130.716 130.904 131.118 131.669 132.181 132.882 132.693 132.058 
132.021 131.556 131.67 131.27 131.472 131.258 131.748 131.945 132.708 
133.133 133.9 133.861 133.188 133.069 132.538 132.666 132.262 132.529 
132.138 132.512 132.336 132.945 133.121 133.858 134.213 134.902 135.027 
134.355 134.226 133.614 133.704 133.288 133.604 133.25 133.602 133.255 
133.681 133.547 134.152 134.287 134.976 135.236 135.884 136.112 135.519 
135.416 134.795 134.827 134.348 134.61 134.283 134.636 134.309 134.646 
134.364 134.811 134.732 135.354 135.462 136.153 136.314 136.953 132.453 
132.398 132.668 133.299 132.494 132.718 133.321 133.632 134.362 132.581 
132.833 133.45 133.714 134.395 134.733 135.49 132.773 132.932 133.531 
133.796 134.456 134.791 135.542 135.904 136.699 133.385 133.283 133.806 
133.896 134.535 134.83 135.607 135.985 136.802 137.155 137.933 134.368 
134.105 134.603 134.407 135 135.039 135.807 136.081 136.915 137.257 
138.031 138.354 139.063 135.337 135.115 135.626 135.376 135.905 135.725 
136.363 136.406 137.168 137.402 138.181 138.467 139.2 139.473 140.162 
136.221 136.009 136.471 136.311 136.772 136.617 137.096 137.022 137.622 
137.725 138.467 138.689 139.47 139.695 140.427 140.621 141.284 137.189 
136.886 137.265 137.063 137.472 137.342 137.779 137.688 138.205 138.213 
138.888 139.039 139.82 140.029 140.778 140.951 141.604 141.742 142.32 
132.8 133.681 133.397 133.886 134.75 134.401 134.875 134.644 135.249 
135.863 135.493 135.938 135.669 136.222 136.032 136.643 137.055 136.632 
137.052 136.728 137.259 137.021 137.622 137.433 138.066 138.284 137.861 
138.266 137.88 138.39 138.092 138.699 138.465 139.115 138.905 139.559 
139.419 139.061 139.471 139.099 139.569 139.246 139.813 139.563 140.194 
139.979 140.615 140.405 141.033 140.497 140.164 140.599 140.265 140.728 
140.404 140.929 140.661 141.256 141.038 141.661 141.452 142.07 141.86 
142.471 141.569 141.241 141.68 141.371 141.854 141.545 142.069 141.777 
142.352 142.099 142.712 142.491 143.114 142.9 143.505 143.285 143.858 
142.575 142.282 142.698 142.425 142.903 142.642 143.168 142.905 143.455 
143.194 143.754 143.524 144.102 143.912 144.493 144.299 144.84 144.619 
145.111 149.002 148.341 148.467 147.986 147.632 147.78 147.372 147.452 
146.922 147.048 147.112 146.649 146.761 146.209 146.29 145.655 146.495 
146.535 145.884 145.934 145.189 145.352 144.615 144.836 144.151 145.69 
145.824 145.025 145.045 144.112 144.207 143.386 143.631 142.951 143.25 
142.643 144.718 144.861 144.054 144.083 143.162 143.172 142.385 142.505 
141.889 142.091 141.545 141.799 141.299 143.918 143.944 143.216 143.184 
142.383 142.332 141.608 141.652 141.045 141.163 140.582 140.763 140.236 
140.519 140.092 143.332 143.284 142.63 142.537 141.815 141.693 140.953 
140.919 140.237 140.319 139.671 139.816 139.218 139.457 138.987 139.34 
138.971 142.812 142.762 142.132 142.049 141.348 141.208 140.429 140.297 
139.537 139.512 138.855 138.932 138.374 138.514 138.049 138.282 137.907 
138.243 137.903 
POINT_DATA 1002
SCALARS Distance double
LOOKUP_TABLE default
137.592 136.652 136.637 137.692 136.555 138.716 137.836 136.594 139.009 
140.151 138.162 137.013 139.349 140.552 141.808 138.691 137.636 139.791 
140.956 142.259 143.514 139.196 138.192 140.339 141.539 142.812 144.106 
145.244 139.82 138.957 140.955 142.272 143.572 144.801 145.973 147.038 
140.868 140.077 141.831 143.005 144.272 145.476 146.635 147.779 148.809 
142.012 141.151 142.894 143.824 144.898 146.087 147.27 148.419 149.499 
150.419 142.822 141.928 143.735 144.645 145.652 146.843 148.08 149.196 
150.2 151.112 151.891 135.666 135.57 134.546 134.449 133.39 135.374 
133.259 132.167 134.261 135.4 131.865 131.02 133.073 134.318 135.911 
130.793 130.55 131.786 133.182 134.813 136.611 130.749 130.861 131.185 
132.248 133.737 135.567 137.358 131.303 131.327 131.55 132.146 133.126 
134.693 136.611 138.408 131.788 131.709 132.159 132.668 133.249 134.318 
136.048 137.911 139.597 132.313 132.269 132.706 133.269 133.769 134.473 
135.807 137.504 139.106 140.575 133.15 133.367 134.453 134.775 135.874 
133.869 136.226 137.255 135.233 134.404 137.68 138.705 136.683 135.75 
134.98 139.248 140.203 138.293 137.391 136.592 136.034 140.847 141.656 
140.021 139.223 138.469 137.859 137.541 142.391 143.076 141.699 141.001 
140.295 139.637 139.186 139.041 143.834 144.406 143.259 142.639 141.969 
141.328 140.807 140.499 140.456 145.111 145.571 144.664 144.161 143.563 
142.989 142.535 142.155 141.883 141.827 143.134 143.207 144.472 143.539 
144.811 146.177 143.959 145.329 146.631 148.274 144.298 145.753 147.1 
148.659 150.47 144.704 146.093 147.515 149.048 150.85 152.671 145.238 
146.52 147.935 149.463 151.213 153.102 155.018 145.709 146.938 148.313 
149.788 151.44 153.316 155.341 157.382 146.064 147.222 148.577 150.022 
151.528 153.247 155.292 157.491 159.464 146.424 147.458 148.742 150.203 
151.669 153.161 154.973 157.2 159.41 161.114 144.082 145.587 145.16 
147.662 147.042 146.388 149.983 149.341 148.623 147.762 152.223 151.524 
150.796 150.105 149.158 154.757 154.069 153.064 152.222 151.454 150.363 
157.511 157.272 156.376 155.05 153.839 152.661 151.358 159.833 160.027 
159.752 158.671 157.068 155.399 153.753 152.265 161.508 161.766 161.851 
161.427 160.292 158.633 156.682 154.715 153.084 162.681 162.951 163.884 
164.237 164.886 163.133 165.537 165.72 164.518 163.111 166.288 166.19 
165.839 164.382 162.599 166.182 166.32 166.162 165.39 163.688 161.463 
165.882 166.026 165.674 165.405 164.312 162.313 159.626 165.378 165.048 
165.223 164.88 164.066 162.419 160.031 157.267 164.202 163.658 164.38 
164.129 163.31 161.796 159.719 157.339 155.022 162.667 162.345 162.853 
162.758 162.126 160.821 159.039 157.056 155.089 153.347 161.592 163.178 
161.79 163.38 161.599 164.231 163.13 160.894 164.316 164.941 162.178 
159.757 163.937 164.846 165.606 160.81 158.702 162.785 164.175 165.313 
166.172 159.723 157.917 161.477 162.812 164.081 165.412 166.132 158.762 
157.062 160.464 161.662 162.52 163.597 164.669 165.164 157.58 156.126 
159.201 160.584 161.491 162.168 162.855 163.457 163.761 156.474 155.351 
157.758 159.082 160.29 161.248 161.842 162.171 162.429 162.548 146.58 
147.536 147.695 148.801 148.867 148.704 150.091 149.985 150.076 150.156 
151.302 150.997 151.43 151.631 151.772 152.49 151.976 152.792 153.052 
153.331 153.323 153.624 152.956 154.166 154.472 154.79 154.995 154.983 
154.573 153.869 155.305 155.791 156.206 156.683 157.012 157.173 155.384 
154.67 156.208 156.891 157.526 158.351 159.111 159.536 159.628 145.358 
146.381 145.069 146.009 144.678 147.422 145.563 144.304 146.924 148.485 
145.267 144.015 146.503 147.958 149.54 145.035 143.727 146.301 147.639 
149.101 150.543 144.686 143.415 146.002 147.361 148.787 150.187 151.549 
144.33 143.15 145.593 146.901 148.29 149.764 151.215 152.577 144.081 
142.969 145.315 146.571 147.802 149.138 150.659 152.185 153.51 143.888 