# vtk DataFile Version 4.0
vtk output
ASCII
DATASET POLYDATA
POINTS 1002 float
-77.6149 -79.7924 71.1092 -77.7557 -78.9288 69.9313 -77.1305 -78.8649 70.7528 
-77.0414 -79.7602 72.0949 -76.5401 -78.7878 71.7146 -77.6155 -80.6593 72.629 
-76.5809 -79.6988 73.2591 -76.1517 -78.655 72.9313 -77.1407 -80.6941 73.7724 
-77.7573 -81.7477 74.4034 -76.2362 -79.6961 74.6748 -75.7874 -78.6683 74.5059 
-76.6907 -80.82 74.993 -77.201 -81.9904 75.5126 -77.6447 -83.2351 76.0526 
-75.6958 -79.8994 76.246 -75.1455 -78.9393 76.1493 -76.1559 -81.1396 76.33 
-76.5346 -82.4249 76.6057 -76.911 -83.7159 77.0479 -77.2223 -84.995 77.4766 
-74.9533 -80.2485 77.587 -74.3467 -79.3366 77.4079 -75.4977 -81.5424 77.6929 
-75.8102 -82.9956 77.8138 -76.1923 -84.3355 78.1649 -76.6228 -85.6652 78.5937 
-76.9782 -86.9894 79.0242 -74.3622 -80.7986 78.6786 -73.7438 -79.8612 78.5072 
-74.9893 -81.9837 78.9506 -75.2834 -83.501 79.1502 -75.5863 -84.9898 79.4473 
-76.1469 -86.3837 79.8806 -76.6076 -87.8316 80.288 -76.9166 -89.1927 80.7008 
-73.9872 -81.6748 79.9842 -73.5249 -80.5875 79.9093 -74.5708 -82.7281 80.2428 
-74.9807 -84.0754 80.5275 -75.2302 -85.6417 80.7995 -75.6821 -87.1546 81.1461 
-76.1923 -88.6634 81.5076 -76.488 -90.1453 81.839 -76.7302 -91.4168 82.1789 
-73.7772 -82.6357 81.4853 -73.7032 -81.3953 81.4022 -74.0102 -83.6778 81.6161 
-74.4773 -84.8389 81.8075 -74.9461 -86.3593 82.0453 -75.3217 -88.0064 82.3225 
-75.7007 -89.5951 82.6084 -76.0129 -91.146 82.882 -76.2573 -92.5683 83.1562 
-76.5427 -93.7763 83.4189 -73.8147 -83.3723 82.7331 -74.1266 -82.1197 82.549 
-73.5724 -84.4308 82.8254 -73.8297 -85.5315 82.8839 -74.5051 -87.023 83.0499 
-75.0629 -88.8086 83.3553 -75.3606 -90.5709 83.6667 -75.6256 -92.2517 83.9176 
-75.9289 -93.8552 84.149 -76.2263 -95.2878 84.3576 -76.499 -96.5039 84.512 
-77.4739 -77.929 69.3737 -76.7922 -77.8203 70.2124 -77.0738 -76.8667 68.8311 
-76.3777 -76.6821 69.6662 -76.6551 -75.7989 68.2858 -76.1812 -77.6987 71.1671 
-75.945 -75.4823 69.1424 -76.3246 -74.5435 67.8712 -75.7356 -76.523 70.6332 
-75.7632 -77.605 72.4689 -75.6631 -73.9974 68.8769 -76.1686 -73.0042 67.8069 
-75.2752 -75.2016 70.2634 -75.2957 -76.5147 72.1147 -75.37 -77.7818 74.2682 
-75.7019 -72.3517 69.0271 -76.3108 -71.5838 68.0891 -75.0955 -73.5895 70.2416 
-74.9226 -75.1828 72.0224 -75.0834 -76.8208 74.2049 -74.7766 -78.1695 76.0921 
-76.0489 -71.1792 69.5352 -76.8097 -70.6422 68.6423 -75.3453 -72.1554 70.5668 
-74.8991 -73.6738 72.1562 -75.0017 -75.532 74.3393 -74.7501 -77.1853 76.2664 
-73.9965 -78.5022 77.4977 -76.6081 -70.6601 70.3818 -77.58 -70.1222 69.5152 
-75.8351 -71.4366 71.2653 -75.2279 -72.5785 72.5397 -75.0749 -74.2163 74.545 
-74.8537 -75.9373 76.5845 -73.9804 -77.3796 77.9067 -73.3661 -78.8527 78.8415 
-77.3237 -70.5335 71.4262 -78.4193 -69.9878 70.57 -76.4137 -71.2417 72.2772 
-75.7063 -72.0608 73.3317 -75.2908 -73.2891 74.9856 -74.9659 -74.8432 76.9193 
-74.1391 -76.2548 78.3805 -73.31 -77.6472 79.3718 -73.3096 -79.427 80.3503 
-78.0573 -70.7098 72.3502 -79.1079 -70.2725 71.5142 -77.0594 -71.2941 73.2545 
-76.236 -71.8596 74.3181 -75.6189 -72.693 75.7555 -75.1825 -74.0185 77.4155 
-74.5148 -75.439 78.7919 -73.6487 -76.7158 79.7898 -73.4002 -78.2518 80.7137 
-73.8215 -80.2027 81.6726 -78.9993 -71.0566 72.8056 -77.9735 -71.4909 73.7674 
-78.8257 -71.9405 74.1805 -77.9341 -72.2378 75.4188 -78.7993 -72.6773 75.9338 
-77.0157 -71.8709 74.9689 -78.0312 -72.9553 77.4105 -78.9219 -73.4523 77.8391 
-76.9989 -72.4522 77.0087 -76.1526 -72.3179 76.4781 -78.1077 -73.9606 79.2108 
-78.8933 -74.6305 79.3221 -77.0398 -73.297 79.0492 -76.0831 -72.9912 78.7158 
-75.5176 -73.3275 78.0998 -78.098 -75.3314 80.6339 -78.8133 -76.0156 80.6921 
-77.1773 -74.5667 80.664 -76.228 -74.0892 80.5346 -75.5671 -74.2569 80.06 
-75.0204 -74.8376 79.384 -78.309 -76.6746 82.299 -79.0308 -77.1562 82.4475 
-77.4999 -76.0536 82.2297 -76.607 -75.5497 82.0692 -75.892 -75.5387 81.5978 
-75.1947 -75.9202 80.9043 -74.3256 -76.3037 80.2838 -78.6924 -77.8962 84.0532 
-79.3032 -78.2788 84.023 -77.9413 -77.4881 83.9897 -76.9777 -77.13 83.7322 
-76.1165 -77.0629 83.1743 -75.4857 -77.3063 82.3758 -74.7402 -77.5621 81.6396 
-73.9239 -77.7958 81.1471 -78.8686 -79.4225 85.209 -79.3296 -79.8563 84.9584 
-78.2351 -79.0173 85.359 -77.2558 -78.708 85.239 -76.1842 -78.6233 84.7817 
-75.5047 -78.8172 84.02 -75.1456 -79.0994 83.136 -74.7327 -79.3335 82.4643 
-74.2349 -79.671 82.0671 -78.9034 -81.3092 85.9587 -79.3276 -81.7273 85.7014 
-78.3601 -80.8381 86.1974 -77.5238 -80.4301 86.2585 -76.4799 -80.2233 86.049 
-75.6651 -80.3158 85.5515 -75.3329 -80.626 84.7523 -75.241 -80.9595 83.8708 
-75.0331 -81.2826 83.262 -74.6071 -81.6817 82.9145 -74.2896 -83.5409 83.5674 
-74.8835 -83.2426 83.9434 -74.2851 -84.8673 84.6268 -75.2891 -82.9555 84.475 
-74.8838 -84.8007 85.1894 -74.5826 -86.5568 85.9275 -75.4867 -82.6499 85.3346 
-75.3364 -84.762 85.9254 -75.0631 -86.7794 86.6192 -75.1778 -89.1796 87.2516 
-75.7412 -82.3039 86.2352 -75.7893 -84.648 86.8016 -75.4917 -87.009 87.3189 
-75.4526 -89.5183 87.8632 -75.5431 -92.5613 88.2667 -76.2751 -82.0785 86.801 
-76.3276 -84.4459 87.5094 -76.0063 -87.0646 88.0479 -75.7023 -89.7339 88.5235 
-75.7356 -92.7791 88.9097 -75.6293 -96.0978 89.0909 -77.0941 -82.1456 87.0542 
-76.9142 -84.3041 87.9024 -76.5405 -86.883 88.6495 -76.0335 -89.6591 89.2368 
-75.8974 -92.7742 89.6533 -75.8718 -96.2651 89.8134 -75.7213 -99.5695 89.8172 
-77.9774 -82.4732 87.12 -77.6426 -84.3156 88.1116 -77.1575 -86.5801 88.9975 
-76.5414 -89.3182 89.7007 -76.2041 -92.5143 90.1798 -76.0939 -96.1637 90.3461 
-75.9438 -99.7665 90.3685 -75.8069 -102.8 90.3909 -78.7021 -82.9098 87.0441 
-78.4817 -84.4458 88.2539 -78.0031 -86.2545 89.2018 -77.3207 -88.8299 89.8176 
-76.8306 -92.1431 90.2917 -76.5498 -95.869 90.5366 -76.2606 -99.5763 90.6334 
-76.0187 -102.789 90.8247 -75.832 -105.39 90.9269 -79.2585 -83.3062 86.8953 
-79.2421 -84.6388 88.3289 -78.9165 -86.0017 89.3979 -78.2314 -88.2345 89.8449 
-77.6347 -91.6101 90.1597 -77.2629 -95.4799 90.5499 -76.8548 -99.155 90.8344 
-76.4475 -102.317 91.1459 -76.1572 -104.944 91.4614 -75.867 -107.174 91.3997 
-73.6871 -84.6843 83.7986 -73.8996 -86.1374 84.9284 -73.5028 -85.8516 83.8793 
-74.6837 -88.5528 86.3258 -74.1462 -87.9414 85.1191 -74.0722 -87.4574 83.9802 
-75.2752 -92.127 87.6315 -74.9567 -91.3377 86.6774 -74.7608 -90.3562 85.4515 
-74.8365 -89.5255 84.3255 -75.3333 -95.988 88.5202 -75.1445 -95.4379 87.9719 
-75.1424 -94.2384 87.1157 -75.1925 -92.826 85.9491 -75.2329 -91.6401 84.7658 
-75.4453 -99.6149 89.2157 -75.2343 -99.3494 88.7121 -75.2803 -98.4113 88.2043 
-75.439 -96.8032 87.361 -75.4818 -95.1422 86.2403 -75.481 -93.6611 85.0548 
-75.6569 -103.081 89.8466 -75.5325 -103.094 89.2208 -75.5391 -102.625 88.6783 
-75.6722 -101.304 88.0547 -75.7914 -99.424 87.2426 -75.8284 -97.5202 86.3119 
-75.8332 -95.6437 85.2493 -75.6389 -106.086 90.3446 -75.5002 -106.512 89.5824 
-75.4464 -106.596 88.8823 -75.4992 -105.896 88.2768 -75.6653 -104.209 87.6662 
-75.9202 -102.05 87.07 -76.1148 -99.7858 86.3616 -76.1674 -97.4528 85.4046 
-75.5002 -108.266 90.6675 -75.1702 -109.078 89.7013 -74.9499 -109.568 88.7992 
-74.9 -109.517 88.1377 -75.0496 -108.48 87.6302 -75.4137 -106.527 87.2278 
-75.8812 -104.177 86.8673 -76.2196 -101.618 86.3055 -76.372 -98.9449 85.4586 
-75.6419 -109.367 91.0233 -75.1214 -110.675 89.8703 -75.4577 -111.663 89.7544 
-74.9648 -113.004 88.4156 -75.5216 -114.06 87.9848 -74.6728 -111.497 88.6294 
-74.9631 -115.404 86.803 -75.4402 -116.34 86.2894 -74.4983 -113.621 87.1436 
-74.4348 -111.859 87.6609 -74.2389 -117.828 85.1973 -74.7756 -117.953 84.6428 
-74.136 -116.031 85.5434 -74.2778 -113.825 86.1215 -74.5113 -111.589 87.0407 
-73.1842 -119.35 83.468 -74.4282 -118.46 83.1074 -72.9485 -118.578 83.8944 
-73.8231 -116.251 84.4162 -74.5378 -113.404 85.5063 -74.8706 -110.26 86.6866 
-73.6137 -119.208 82.0681 -75.2724 -118.031 82.1905 -72.5001 -119.58 82.4693 
-73.0976 -118.282 83.0419 -74.4331 -115.338 84.0004 -75.0395 -111.746 85.4188 
-75.3785 -108.036 86.5461 -75.3107 -117.876 81.4272 -76.5277 -116.928 81.9569 
-73.9121 -118.444 81.6041 -73.5145 -118.141 82.2757 -74.3672 -116.171 83.1602 
-75.1585 -112.818 84.3746 -75.4804 -109.099 85.6711 -75.8856 -105.351 86.3882 
-76.6058 -116.007 81.4459 -77.3259 -115.157 82.1419 -75.5958 -116.377 81.3189 
-74.8205 -116.266 81.8743 -74.8526 -115.161 82.8069 -75.3137 -112.722 83.9005 
-75.6247 -109.475 85.0399 -75.9392 -105.952 85.8239 -76.2856 -102.335 85.9271 
-77.2078 -113.776 81.9786 -77.8225 -112.876 82.6389 -76.4755 -114.171 81.6568 
-75.7964 -114.068 81.8958 -75.5 -113.3 82.6501 -75.6463 -111.573 83.6946 
-75.9245 -108.986 84.7564 -76.1931 -105.896 85.4638 -76.4642 -102.548 85.5686 
-76.5885 -99.2884 85.165 -76.2175 -107.102 91.9118 -76.0443 -109.183 91.2602 
-76.6804 -106.702 92.0925 -76.4824 -108.647 90.9992 -77.1725 -106.261 91.7224 
-75.8887 -111.464 89.5594 -76.9725 -108.154 90.4641 -77.6935 -105.771 91.0469 
-76.2482 -110.726 89.1185 -75.8996 -113.76 87.5341 -77.6113 -107.58 90.1542 
-78.2095 -104.725 90.4666 -76.7423 -109.983 89.0222 -76.1431 -112.628 87.2824 
-75.7896 -115.586 85.776 -78.283 -106.134 89.9626 -78.6997 -102.974 89.9775 
-77.4873 -109.026 89.2475 -76.6333 -111.496 87.6546 -76.1493 -114.007 85.7754 
-75.5322 -116.562 84.2781 -78.9645 -103.919 89.6392 -79.3435 -101.125 89.5383 
-78.2534 -107.014 89.1724 -77.4043 -110.051 88.0347 -76.8257 -112.536 86.3854 
-76.3903 -114.754 84.7073 -75.8116 -116.787 83.2956 -79.8184 -101.889 89.4056 
-80.1531 -99.4487 89.1909 -79.0989 -104.496 89.0235 -78.2038 -107.617 88.122 
-77.6627 -110.604 86.9643 -77.3349 -112.908 85.6464 -76.9342 -114.854 84.2639 
-76.6473 -116.365 82.9679 -80.6448 -100.057 89.1339 -80.8262 -97.5795 88.697 
-80.1157 -102.383 89.06 -79.1926 -105.003 88.4001 -78.5021 -107.926 87.5081 
-78.2114 -110.481 86.5382 -77.8545 -112.478 85.388 -77.51 -114.098 84.1279 
-77.4078 -115.076 82.9708 -81.1449 -97.8861 88.4238 -81.2529 -95.4227 87.871 
-80.9302 -100.29 88.7338 -80.3069 -102.687 88.5666 -79.5443 -105.226 88.0332 
[...]
CELL_DATA 2000
SCALARS Distance double
LOOKUP_TABLE default
130.386 130.5 130.802 131.597 130.777 131.017 131.892 132.17 133.129 
131.32 131.446 132.364 132.57 133.566 133.847 134.877 132.023 132.101 
133.007 133.144 134.11 134.325 135.335 135.605 136.584 132.624 132.765 
133.644 133.808 134.747 134.913 135.912 136.118 137.167 137.363 138.416 
133.213 133.335 134.279 134.447 135.461 135.598 136.647 136.795 137.941 
138.106 139.301 139.416 140.595 134.16 134.114 135.175 135.219 136.348 
136.422 137.563 137.651 138.852 138.993 140.251 140.394 141.606 141.693 
142.82 135.476 135.304 136.345 136.262 137.344 137.386 138.54 138.643 
139.855 139.976 141.222 141.357 142.577 142.684 143.827 143.876 144.951 
136.814 136.643 137.51 137.385 138.255 138.297 139.346 139.548 140.766 
140.971 142.228 142.359 143.605 143.689 144.92 144.951 146.147 146.097 
147.235 129.674 128.558 129.312 129.722 127.37 128.144 128.555 129.378 
129.916 126.171 126.927 127.312 128.166 128.741 129.668 130.402 125.043 
125.724 126.078 126.91 127.531 128.508 129.361 130.328 131.167 124.221 
124.7 125.043 125.74 126.406 127.365 128.381 129.4 130.378 131.177 
131.892 123.992 124.163 124.534 124.936 125.613 126.387 127.516 128.551 
129.716 130.524 131.282 131.851 132.461 124.41 124.3 124.739 124.802 
125.467 125.876 126.971 127.837 129.113 129.957 130.813 131.33 131.901 
132.464 133.262 125.293 125.012 125.5 125.338 125.978 126.044 126.997 
127.515 128.74 129.473 130.434 130.93 131.522 131.976 132.736 133.46 
134.53 126.363 126.029 126.499 126.252 126.831 126.719 127.502 127.714 
128.775 129.283 130.29 130.709 131.389 131.705 132.42 132.997 134.049 
134.858 135.975 127.098 128.245 127.515 127.251 129.546 128.746 128.522 
127.756 127.584 131.087 130.197 130.008 129.132 129.001 128.217 128.248 
132.681 131.827 131.668 130.739 130.623 129.761 129.852 129.122 129.437 
134.229 133.418 133.34 132.444 132.37 131.478 131.576 130.812 131.087 
130.442 130.787 135.966 135.086 135.149 134.213 134.258 133.31 133.435 
132.593 132.814 132.073 132.271 131.63 131.812 137.799 136.965 137.131 
136.194 136.317 135.316 135.436 134.503 134.685 133.839 134.016 133.189 
133.361 132.626 132.917 139.417 138.747 138.955 138.172 138.296 137.378 
137.426 136.485 136.59 135.723 135.924 135.063 135.331 134.456 134.857 
134.053 134.608 140.925 140.304 140.559 139.881 140.035 139.234 139.28 
138.391 138.469 137.61 137.832 137.014 137.348 136.528 136.956 136.16 
136.686 135.938 136.496 137.618 137.88 138.254 139.173 138.167 138.566 
139.621 139.854 140.861 138.543 138.934 140.111 140.4 141.553 141.781 
143.128 138.997 139.373 140.655 141.003 142.268 142.529 143.895 144.266 
145.858 139.559 139.864 141.182 141.597 142.948 143.272 144.622 144.985 
146.521 147.025 148.664 140.275 140.475 141.718 142.12 143.483 143.897 
145.234 145.637 147.1 147.623 149.262 149.801 151.413 141.002 141.195 
142.341 142.663 143.933 144.351 145.644 146.112 147.501 148.086 149.66 
150.314 151.937 152.497 154.006 141.563 141.851 142.983 143.279 144.44 
144.772 145.95 146.404 147.726 148.355 149.868 150.59 152.172 152.867 
154.37 154.948 156.268 141.96 142.342 143.522 143.875 144.989 145.258 
146.277 146.638 147.835 148.47 149.964 150.735 152.312 153.028 154.509 
155.155 156.468 157.001 158.056 137.777 139.221 138.46 138.365 140.906 
139.946 139.859 139.038 139.053 143.363 142.06 142.105 140.863 140.974 
139.985 140.236 146.319 144.961 145.254 143.7 143.912 142.427 142.717 
141.514 141.843 149.193 148.012 148.491 147.089 147.408 145.784 145.993 
144.41 144.625 143.261 143.442 151.941 150.858 151.415 150.228 150.677 
149.258 149.48 147.839 147.918 146.287 146.34 144.858 144.891 154.579 
153.6 154.223 153.121 153.691 152.432 152.804 151.269 151.388 149.678 
149.696 147.988 147.965 146.349 146.294 156.841 156.097 156.716 155.821 
156.386 155.356 155.796 154.499 154.68 153.101 153.12 151.424 151.389 
149.638 149.508 147.78 147.601 158.54 158.061 158.551 157.952 158.34 
157.668 157.985 157.142 157.274 156.106 156.04 154.631 154.51 152.964 
152.775 151.071 150.76 149.019 148.702 159.42 160.402 159.806 159.419 
161.147 160.648 160.281 159.647 159.168 161.885 161.408 160.996 160.369 
159.883 159.317 158.805 162.29 162.088 161.684 161.068 160.469 159.912 
159.42 158.881 158.192 162.005 162.183 161.929 161.63 161.052 160.506 
159.937 159.41 158.77 158.093 157.107 161.475 161.695 161.57 161.627 
161.281 161.005 160.466 159.947 159.243 158.597 157.669 156.859 155.671 
161.063 161.184 160.978 161.143 160.902 160.983 160.554 160.313 159.551 
159.002 157.998 157.314 156.158 155.326 153.977 160.442 160.657 160.271 
160.468 160.077 160.346 159.9 160.027 159.286 159.048 157.998 157.495 
156.296 155.642 154.292 153.458 151.948 159.455 159.801 159.348 159.602 
159.086 159.364 158.839 159.109 158.435 158.486 157.547 157.293 156.138 
155.641 154.305 153.607 152.113 151.284 149.782 159.508 159.73 159.96 
160.466 159.558 159.944 160.415 160.709 161.143 159.182 159.62 159.988 
160.399 160.841 161.293 161.773 158.689 159.25 159.662 159.964 160.268 
160.735 161.194 161.781 162.093 157.789 158.661 159.273 159.715 159.986 
160.239 160.49 160.978 161.281 161.81 161.828 156.583 157.581 158.245 
159.067 159.448 159.926 160.105 160.416 160.615 160.991 161.168 161.476 
161.433 155.579 156.427 157.022 157.842 158.253 159.038 159.351 159.939 
160.159 160.522 160.71 160.978 161.102 161.249 161.167 154.615 155.495 
156.093 156.771 157.157 157.818 158.203 158.951 159.315 159.933 160.116 
160.528 160.569 160.874 160.779 160.927 160.605 153.199 154.309 154.909 
155.812 156.213 156.879 157.214 157.875 158.252 158.943 159.167 159.721 
159.677 160.112 159.906 160.268 159.919 160.11 159.6 142.513 144.002 
143.587 144.214 145.394 145.114 145.752 145.267 145.688 146.338 146.291 
146.88 146.62 146.988 146.541 146.862 147.009 147.014 147.61 147.521 
148.019 147.744 148.268 147.831 148.445 147.875 147.735 148.443 148.312 
149.13 148.925 149.898 149.515 150.536 149.902 150.788 149.016 148.796 
149.628 149.415 150.477 150.324 151.651 151.431 152.796 152.285 153.369 
152.506 153.259 150.227 150.071 151.016 150.793 151.904 151.801 153.168 
153.171 154.599 154.444 155.593 155.029 155.77 154.864 155.396 151.368 
151.352 152.432 152.253 153.341 153.216 154.462 154.518 155.83 155.908 
157.015 156.855 157.611 157.09 157.59 156.803 157.227 152.329 152.497 
153.671 153.623 154.65 154.548 155.631 155.672 156.832 156.934 157.92 
157.923 158.625 158.472 158.969 158.607 158.984 158.39 158.686 141.753 
141.039 141.919 143.094 140.355 141.161 142.2 143.253 144.44 139.656 
140.429 141.325 142.288 143.38 144.479 145.479 138.998 139.72 140.584 
141.415 142.393 143.395 144.429 145.415 146.267 138.53 139.148 140.038 
140.752 141.694 142.504 143.502 144.426 145.427 146.283 147.164 138.152 
138.732 139.594 140.282 141.23 141.927 142.858 143.623 144.614 145.494 
146.5 147.314 148.245 137.696 138.277 139.05 139.788 140.721 141.476 
142.377 143.063 143.95 144.737 145.709 146.593 147.547 148.386 149.313 
137.276 137.773 138.45 139.146 140.003 140.841 141.733 142.515 143.355 
144.105 144.996 145.813 146.714 147.564 148.427 149.338 150.269 137.05 
137.422 138.039 138.57 139.318 140.055 140.877 141.718 142.547 143.403 
144.286 145.13 146.008 146.775 147.541 148.344 149.14 150.154 151.087 
137.181 137.773 137.688 138.174 138.454 138.37 138.886 138.775 139.388 
139.114 139.112 139.696 139.553 140.112 140.058 140.809 139.701 139.799 
140.508 140.407 140.949 140.798 141.476 141.541 142.438 140.34 140.434 
141.262 141.237 141.856 141.669 142.336 142.294 143.259 143.338 144.33 
141.168 141.171 142.024 142.019 142.74 142.601 143.332 143.253 144.265 
144.313 145.389 145.328 146.162 142.048 142.025 142.817 142.813 143.597 
143.528 144.363 144.304 145.313 145.351 146.371 146.36 147.133 146.996 
147.609 142.765 142.793 143.513 143.559 144.376 144.418 145.36 145.373 
146.379 146.376 147.282 147.238 147.938 147.844 148.473 148.375 149.103 
143.343 143.399 144.089 144.175 144.999 145.153 146.149 146.314 147.331 
147.383 148.225 148.127 148.809 148.665 149.399 149.301 150.208 150.108 
151.078 143.889 145.136 144.541 144.685 146.684 145.959 146.131 145.453 
145.681 148.444 147.65 147.863 147.069 147.333 146.623 146.937 150.524 
149.601 149.884 148.939 149.182 148.369 148.671 147.949 148.178 152.968 
151.962 152.39 151.233 151.498 150.391 150.625 149.718 149.889 149.072 
149.067 155.207 154.434 154.955 153.915 154.267 153.006 153.235 151.96 
152.107 150.944 150.93 149.871 149.711 156.777 156.341 156.813 156.198 
156.578 155.687 155.944 154.752 154.89 153.52 153.547 152.122 152.014 
150.663 150.494 157.923 157.632 158.071 157.687 158.055 157.561 157.833 
157.107 157.201 156.176 156.134 154.877 154.773 153.337 153.168 151.677 
151.487 158.925 158.709 159.193 158.847 159.211 158.804 159.064 158.587 
158.646 157.986 157.815 156.99 156.763 155.806 155.588 154.388 154.108 
152.698 152.388 143.605 143.481 143.967 144.846 143.255 143.835 144.811 
145.337 146.352 142.948 143.584 144.607 145.255 146.354 146.926 148.051 
142.588 143.259 144.304 145.017 146.178 146.868 148.098 148.71 150.025 
142.148 142.863 143.928 144.699 145.902 146.669 147.973 148.712 150.142 
150.843 152.347 141.673 142.393 143.465 144.286 145.498 146.344 147.649 
148.511 149.969 150.86 152.417 153.202 154.595 141.274 141.944 143.019 
143.82 145.02 145.878 147.131 148.056 149.471 150.521 152.091 153.095 
154.515 155.23 156.277 140.963 141.588 142.643 143.403 144.574 145.39 
146.582 147.466 148.82 149.899 151.489 152.631 154.128 155.009 156.116 
156.67 157.46 140.687 141.281 142.271 143.008 144.109 144.915 146.04 
146.892 148.175 149.221 150.809 151.999 153.591 154.579 155.77 156.427 
157.249 157.729 158.409 142.86 141.624 142.38 142.639 140.42 141.089 
141.305 142.099 142.361 139.522 139.98 140.114 140.769 140.988 141.786 
142.044 138.686 139.142 139.145 139.658 139.757 140.432 140.625 141.439 
141.672 137.364 138.072 137.994 138.61 138.558 139.191 139.241 139.999 
140.162 141.021 141.222 135.742 136.524 136.455 137.217 137.129 137.854 
137.803 138.556 138.635 139.482 139.664 140.546 140.752 134.293 134.968 
134.924 135.629 135.584 136.322 136.298 137.054 137.103 137.93 138.108 
138.995 139.229 140.105 140.356 132.927 133.589 133.532 134.192 134.15 
134.838 134.845 135.567 135.627 136.406 136.569 137.443 137.71 138.609 
138.893 139.765 140.058 131.53 132.179 132.088 132.779 132.72 133.432 
133.436 134.162 134.229 134.971 135.114 135.932 136.194 137.097 137.428 
138.325 138.647 139.508 139.82 130.762 129.795 130.572 131.249 128.999 
129.647 130.296 131.122 131.902 128.557 129.025 129.68 130.304 131.107 
131.88 132.703 128.451 128.803 129.501 129.911 130.685 131.258 132.107 
132.779 133.579 128.471 128.805 129.521 129.865 130.607 131.017 131.825 
132.342 133.172 133.738 134.53 128.58 128.864 129.595 129.918 130.688 
131.032 131.846 132.229 133.074 133.501 134.353 134.817 135.662 128.902 
129.07 129.831 130.072 130.893 131.185 132.055 132.371 133.259 133.58 
134.465 134.812 135.701 136.087 136.95 129.425 129.501 130.236 130.398 
131.187 131.44 132.289 132.612 133.498 133.83 134.714 135.03 135.907 
136.232 137.092 137.424 138.223 130.024 130.057 130.724 130.827 131.528 
131.726 132.489 132.798 133.63 134.008 134.867 135.243 136.095 136.444 
137.277 137.6 138.391 138.682 139.417 130.591 131.775 131.186 131.285 
133.307 132.526 132.581 131.929 132.069 135.095 134.243 134.301 133.419 
133.483 132.785 133.007 136.813 136.052 136.196 135.296 135.333 134.402 
134.517 133.82 134.133 138.6 137.776 138.001 137.181 137.309 136.361 
136.412 135.499 135.693 135.024 135.381 140.76 139.764 140.023 139.084 
139.311 138.355 138.462 137.467 137.571 136.709 136.966 136.307 136.646 
143.006 142.044 142.331 141.305 141.544 140.488 140.634 139.563 139.653 
138.656 138.822 137.994 138.264 137.575 137.858 145.131 144.243 144.569 
143.619 143.857 142.807 142.929 141.811 141.875 140.787 140.89 139.922 
140.106 139.275 139.497 138.768 138.978 147.374 146.416 146.794 145.835 
146.134 145.106 145.266 144.14 144.193 143.045 143.09 142.023 142.12 
141.171 141.313 140.469 140.621 139.86 140.007 140.815 141.521 141.567 
142.429 142.292 142.347 143.284 143.32 144.264 143.186 143.215 144.224 
144.238 145.252 145.241 146.213 144.272 144.269 145.44 145.365 146.541 
146.413 147.588 147.397 148.509 145.491 145.525 146.939 146.857 148.3 
148.059 149.502 149.158 150.557 150.098 151.355 146.646 146.819 148.426 
148.513 150.175 150.044 151.616 151.314 152.782 152.367 153.649 153.093 
154.142 147.567 147.92 149.611 149.945 151.68 151.823 153.343 153.266 
154.538 154.353 155.408 155.115 155.931 155.51 156.151 148.276 148.752 
150.466 150.973 152.695 153.069 154.52 154.653 155.755 155.718 156.56 
156.435 157.084 156.872 157.387 157.086 157.527 148.897 149.423 151.133 
151.702 153.375 153.863 155.287 155.572 156.674 156.726 157.548 157.419 
158.039 157.83 158.352 158.122 158.601 158.307 158.707 126.147 125.064 
125.584 125.655 124.212 124.584 124.708 125.259 125.536 123.833 123.943 
124.087 124.48 124.805 125.309 125.669 124.065 123.848 123.935 124.064 
124.334 124.682 124.979 125.463 125.876 124.866 124.368 124.362 124.146 
124.293 124.351 124.559 124.84 125.235 125.789 126.471 125.968 125.344 
125.295 124.811 124.873 124.571 124.718 124.648 125.045 125.352 126.135 
126.7 127.584 127.136 126.489 126.427 125.856 125.916 125.417 125.564 
125.168 125.519 125.466 126.203 126.565 127.477 127.932 128.667 128.316 
127.668 127.596 127.002 127.066 126.552 126.743 126.255 126.558 126.219 
126.755 126.792 127.537 127.86 128.557 128.908 129.469 129.452 128.848 
128.787 128.182 128.221 127.7 127.891 127.449 127.745 127.343 127.714 
127.466 127.956 127.99 128.564 128.807 129.39 129.7 130.295 126.77 
126.315 126.867 127.61 126.141 126.524 127.247 127.781 128.572 126.248 
126.494 127.163 127.533 128.318 128.823 129.66 126.543 126.708 127.413 
127.622 128.38 128.706 129.545 129.995 130.821 127.163 127.148 127.881 
127.981 128.708 128.898 129.682 130.004 130.836 131.204 131.957 128.129 
127.936 128.555 128.515 129.148 129.242 129.932 130.182 130.986 131.317 
132.11 132.383 133.09 129.072 128.882 129.378 129.243 129.811 129.756 
130.401 130.484 131.258 131.509 132.344 132.614 133.364 133.567 134.245 
129.868 129.712 130.218 130.075 130.685 130.556 131.242 131.142 131.883 
131.916 132.719 132.896 133.669 133.867 134.54 134.715 135.319 130.735 
130.539 131.11 130.945 131.592 131.476 132.169 132.063 132.739 132.659 
133.333 133.36 134.051 134.182 134.839 135 135.585 135.73 136.244 
127.328 128.135 127.95 128.448 129.086 128.82 129.291 129.105 129.702 
130.173 129.85 130.324 130.033 130.6 130.455 131.19 131.283 130.969 
131.461 131.14 131.667 131.42 132.087 132.002 132.753 132.327 132.036 
132.523 132.262 132.777 132.504 133.082 132.912 133.608 133.535 134.273 
133.408 133.071 133.56 133.303 133.849 133.583 134.138 133.909 134.58 
134.448 135.233 135.132 135.967 134.555 134.195 134.706 134.408 134.992 
134.689 135.256 134.971 135.633 135.471 136.295 136.188 137.045 136.925 
137.759 135.604 135.31 135.797 135.554 136.124 135.861 136.406 136.104 
136.697 136.511 137.285 137.231 138.059 137.979 138.724 138.623 139.334 
136.479 136.25 136.674 136.515 137.04 136.893 137.424 137.201 137.728 
137.526 138.179 138.124 138.879 138.868 139.571 139.505 140.167 140.097 
140.803 142.727 142.121 142.138 141.515 141.346 141.447 140.838 140.89 
140.33 140.415 140.57 140.052 140.219 139.813 139.872 139.504 139.568 
139.647 139.226 139.476 139.269 139.438 139.166 139.172 138.734 138.951 
138.913 138.475 138.71 138.54 138.85 138.551 138.698 138.105 138.136 
137.379 138.425 138.36 137.807 137.96 137.606 137.951 137.482 137.772 
137.014 137.201 136.338 136.486 135.688 137.845 137.814 137.175 137.233 
136.678 136.897 136.293 136.532 135.758 135.95 135.142 135.343 134.636 
134.834 134.212 137.239 137.226 136.588 136.567 135.925 135.978 135.344 
135.439 134.77 134.85 134.18 134.28 133.666 133.822 133.242 133.436 
132.853 136.693 136.666 136.071 136.006 135.359 135.299 134.648 134.639 
134.015 134.051 133.449 133.499 132.894 132.961 132.352 132.477 131.882 
132.064 131.488 
POINT_DATA 1002
SCALARS Distance double
LOOKUP_TABLE default
131.089 130.02 130.053 131.268 130.183 132.436 131.603 130.548 132.808 
134.147 132.191 131.226 133.303 134.59 135.897 132.893 131.955 133.943 
135.088 136.332 137.528 133.453 132.468 134.593 135.713 136.94 138.236 
139.491 134.087 133.087 135.301 136.495 137.739 139.148 140.525 141.773 
135.17 134.225 136.272 137.476 138.723 140.097 141.513 142.786 143.907 
136.519 135.688 137.35 138.417 139.735 141.111 142.465 143.759 144.942 
146.009 137.724 137.032 138.289 139.129 140.497 142.072 143.508 144.849 
146.157 147.346 148.357 128.954 128.934 127.789 127.714 126.611 129.021 
126.46 125.446 127.767 129.439 125.272 124.416 126.51 128.323 130.326 
124.421 123.835 125.446 127.27 129.558 131.258 124.24 123.907 124.948 
126.453 128.833 130.764 131.831 124.759 124.572 125.226 126.236 128.233 
130.281 131.402 132.478 125.711 125.602 126.037 126.678 128.085 129.912 
131.117 132.054 133.682 126.779 126.713 127.013 127.448 128.389 129.86 
131.105 131.951 133.26 135.208 127.805 127.967 128.968 129.308 130.367 
128.295 130.923 131.977 129.8 128.916 132.587 133.484 131.501 130.577 
130.07 134.189 135.019 133.251 132.363 131.793 131.403 136.056 136.828 
135.206 134.321 133.625 133.029 132.387 138.015 138.558 137.324 136.425 
135.566 134.868 134.156 133.543 139.673 140.025 139.181 138.388 137.469 
136.741 136.169 135.672 135.358 141.218 141.538 140.793 140.137 139.319 
138.624 138.136 137.745 137.454 137.25 138.576 138.941 140.005 139.307 
140.619 141.962 139.753 141.279 142.764 144.663 140.235 141.982 143.548 
145.378 147.545 140.737 142.579 144.292 146.036 148.161 150.301 141.373 
143.048 144.828 146.591 148.684 150.954 152.997 142.082 143.573 145.185 
146.928 148.995 151.316 153.555 155.477 142.683 144.187 145.565 147.11 
149.153 151.472 153.744 155.823 157.51 143.128 144.757 146.025 147.249 
149.161 151.596 153.885 155.909 157.677 158.988 139.084 140.752 139.744 
143.47 142.097 141.085 146.76 145.541 144.105 142.966 149.747 148.981 
147.716 146.167 144.751 152.54 151.972 151.092 149.645 147.953 146.324 
155.276 154.865 154.248 153.086 151.449 149.698 147.882 157.549 157.336 
156.972 156.185 154.789 153.14 151.345 149.308 159.133 158.984 158.712 
158.287 157.365 155.984 154.425 152.572 150.413 160.147 160.149 160.921 
160.886 161.649 159.819 161.704 162.316 160.412 159.429 162.259 162.306 
161.102 159.905 158.938 161.995 161.725 161.544 160.525 159.399 157.989 
161.373 161.335 161.348 160.957 159.933 158.419 156.62 160.855 161.005 
160.714 160.651 160.065 158.674 156.922 154.95 160.12 160.207 159.845 
159.684 159.381 158.429 156.91 155.072 152.868 159.083 159.083 158.848 
158.573 158.274 157.669 156.563 154.96 152.899 150.582 159.399 160.345 
159.456 160.043 159.187 160.877 159.642 158.729 160.295 161.371 159.39 
157.96 159.968 160.558 161.671 158.643 156.776 159.799 160.206 160.721 
161.465 157.334 155.649 158.773 159.788 160.335 160.8 161.249 156.308 
154.787 157.434 158.571 159.71 160.444 160.897 161.171 155.397 153.667 
156.583 157.467 158.588 159.661 160.257 160.566 160.613 153.871 152.065 
155.466 156.601 157.587 158.595 159.26 159.529 159.638 159.52 142.876 
144.76 144.374 146.212 145.599 146.286 147.067 146.353 147.365 147.318 
147.631 147.05 148.142 148.562 148.94 148.534 148.05 149.177 150.089 
151.063 151.626 149.815 149.195 150.547 151.721 153.158 154.183 154.313 
151.216 150.284 152.032 153.149 154.648 156.006 156.603 156.405 152.57 
151.265 153.525 154.481 155.771 157.083 157.967 158.27 158.101 140.849 
142.037 140.237 141.215 139.618 143.353 140.461 138.894 142.302 144.491 
139.81 138.297 141.486 143.397 145.407 139.342 137.958 140.965 142.634 
144.482 146.4 138.901 137.604 140.543 142.187 143.761 145.61 147.499 
138.331 137.158 139.924 141.702 143.25 144.85 146.677 148.472 137.834 
136.839 139.189 140.903 142.601 144.225 145.921 147.553 149.267 137.597 