# vtk DataFile Version 4.0
vtk output
ASCII
DATASET POLYDATA
POINTS 1002 float
-82.5552 -85.6565 74.6903 -82.4865 -84.9993 73.4448 -82.0756 -84.6952 74.2611 
-82.2037 -85.4451 75.6416 -81.7551 -84.3805 75.2508 -82.6031 -86.5193 76.0763 
-81.8635 -85.2588 76.6797 -81.2893 -84.1819 76.2132 -82.2722 -86.451 77.1715 
-82.6281 -87.6148 77.6346 -81.428 -85.18 77.6843 -80.7511 -84.1222 77.247 
-81.8511 -86.4855 78.256 -82.1788 -87.7578 78.8133 -82.6219 -88.863 79.3403 
-81.1013 -85.2683 78.9617 -80.453 -84.2838 78.6191 -81.425 -86.6733 79.3816 
-81.6148 -88.054 79.9209 -82.0609 -89.204 80.5085 -82.6272 -90.1946 81.0999 
-80.8563 -85.6698 80.5361 -80.2363 -84.7736 80.1287 -81.1502 -87.0148 80.8892 
-81.2009 -88.4477 81.2404 -81.5659 -89.666 81.7063 -82.1664 -90.7268 82.2918 
-82.6342 -91.7122 82.8556 -80.3459 -86.2759 81.8165 -79.7961 -85.3806 81.4551 
-80.7449 -87.503 82.3198 -80.8992 -88.9146 82.8046 -81.2399 -90.2052 83.2073 
-81.8019 -91.4187 83.6092 -82.2184 -92.5513 84.0606 -82.4783 -93.5777 84.4323 
-79.7046 -86.788 82.8111 -79.3557 -85.8679 82.7318 -80.1044 -88.0001 83.2074 
-80.3986 -89.5164 83.8894 -80.7833 -90.9289 84.5734 -81.3047 -92.1971 84.9912 
-81.6924 -93.4883 85.2439 -81.937 -94.6787 85.5026 -82.1856 -95.7199 85.7197 
-79.3622 -87.283 84.0436 -79.24 -86.3419 84.0773 -79.6103 -88.5406 84.2037 
-79.8287 -90.243 84.6913 -80.1124 -91.8853 85.3988 -80.5667 -93.0942 85.9787 
-81.0076 -94.2626 86.2617 -81.3544 -95.5984 86.4501 -81.6863 -96.8397 86.692 
-81.9908 -97.8692 86.9191 -79.4099 -87.9694 85.4542 -79.4385 -86.9559 85.2975 
-79.4826 -89.289 85.6711 -79.4967 -91.0589 85.98 -79.5365 -92.8513 86.3447 
-79.8602 -94.0583 86.7133 -80.3986 -94.9695 87.0369 -80.9146 -96.2278 87.3243 
-81.348 -97.6962 87.6224 -81.6899 -98.9387 87.9192 -81.9305 -99.8791 88.1548 
-82.0971 -84.1782 72.7261 -81.7512 -83.708 73.6754 -81.8121 -83.1403 72.2088 
-81.5304 -82.5207 73.2937 -81.6726 -81.9208 71.963 -81.39 -83.3363 74.7344 
-81.2384 -81.2421 73.0352 -81.478 -80.6719 71.7748 -81.0235 -82.1556 74.3199 
-80.7212 -83.2417 75.7019 -80.6904 -79.999 72.7395 -81.2422 -79.3858 71.6029 
-80.4238 -80.8398 73.8832 -80.1784 -82.2078 75.2089 -80.0777 -83.359 76.8055 
-80.3907 -78.7983 72.6895 -81.3218 -78.046 71.766 -79.7346 -79.4744 73.6075 
-79.6139 -80.7944 74.812 -79.646 -82.4271 76.4203 -79.8508 -83.621 78.2811 
-80.8143 -77.823 73.1611 -81.7082 -76.9952 72.3045 -79.791 -78.4201 73.9491 
-79.3211 -79.2617 74.965 -79.4306 -80.886 76.4241 -79.5672 -82.5946 78.1611 
-79.6887 -84.0316 79.9407 -81.4893 -77.2394 73.9121 -82.1328 -76.4809 73.0132 
-80.6557 -77.922 74.7744 -79.8497 -78.4233 75.7409 -79.5275 -79.4303 77.0147 
-79.487 -81.0636 78.5285 -79.429 -82.8376 80.1299 -79.375 -84.4956 81.5969 
-82.0001 -76.8276 74.7652 -82.6443 -76.3024 73.8816 -81.4538 -77.569 75.675 
-80.8198 -78.2171 76.6382 -80.1842 -78.911 77.763 -79.697 -80.0015 79.0823 
-79.4091 -81.5276 80.5449 -79.2914 -83.3078 81.9849 -79.235 -84.9781 83.1613 
-82.5376 -76.435 75.7309 -83.3289 -76.2412 74.8839 -81.9361 -77.0142 76.6 
-81.4864 -77.8759 77.4682 -81.0067 -78.8141 78.3844 -80.3626 -79.7519 79.4673 
-79.7613 -80.8388 80.7828 -79.4997 -82.2884 82.2109 -79.4599 -83.9785 83.4817 
-79.4252 -85.5584 84.465 -83.5434 -76.2215 76.4578 -82.6745 -76.3849 77.3819 
-83.7232 -76.4298 78.0041 -82.8298 -76.7613 78.9947 -83.8631 -77.2109 79.4076 
-81.9996 -77.1228 78.2463 -83.0824 -77.799 80.4021 -84.0851 -78.2671 80.7672 
-82.1534 -77.7839 79.797 -81.6014 -78.3412 79.0172 -83.4609 -78.9935 81.7414 
-84.4085 -79.1644 82.2632 -82.4625 -78.9255 81.2096 -81.7789 -79.1735 80.537 
-81.1646 -79.594 79.8792 -83.8375 -80.1003 83.264 -84.6644 -80.1929 83.8632 
-82.8531 -80.1316 82.6941 -82.0256 -80.1591 82.1894 -81.3248 -80.4135 81.5501 
-80.4915 -80.6734 81.0432 -84.107 -81.3839 84.8668 -84.7908 -81.571 85.3063 
-83.2464 -81.4273 84.2744 -82.3478 -81.3644 83.8578 -81.5566 -81.3719 83.378 
-80.7689 -81.6381 82.7775 -80.0078 -81.9128 82.4292 -84.2843 -82.7813 86.2564 
-84.9045 -83.0191 86.4507 -83.5588 -82.7883 85.7756 -82.7131 -82.7993 85.3183 
-81.8844 -82.7343 84.9355 -81.1692 -82.8738 84.4031 -80.5166 -83.1759 83.9582 
-79.9129 -83.507 83.7597 -84.4161 -84.2004 87.3918 -85.0558 -84.4235 87.4275 
-83.7175 -84.1202 87.1347 -82.9396 -84.1572 86.7284 -82.1721 -84.1938 86.3176 
-81.5362 -84.3208 85.8264 -81.0115 -84.5891 85.3191 -80.4608 -84.8819 85.0369 
-79.8783 -85.1941 84.8541 -84.5307 -85.686 88.417 -85.1849 -85.8064 88.4064 
-83.8141 -85.5742 88.3435 -83.0462 -85.5318 88.1323 -82.3381 -85.5661 87.793 
-81.7911 -85.7185 87.3167 -81.361 -85.9963 86.7447 -80.901 -86.2953 86.2772 
-80.3476 -86.5545 86.0143 -79.8089 -86.7758 85.7589 -79.7334 -88.445 86.5528 
-80.1535 -88.3468 86.8987 -80.1215 -90.3041 87.8559 -80.6891 -88.1436 87.1815 
-80.5907 -90.1614 88.0742 -80.4993 -92.1505 88.9912 -81.2138 -87.8701 87.6428 
-81.0957 -89.9585 88.4669 -81.0296 -92.0043 89.2542 -80.8535 -93.9093 90.0466 
-81.6471 -87.5557 88.2646 -81.5778 -89.7443 89.0674 -81.4866 -91.9446 89.8347 
-81.404 -94.0417 90.6164 -81.2894 -96.1811 91.3076 -82.0638 -87.2892 88.8489 
-82.0268 -89.4755 89.6614 -81.9189 -91.8221 90.431 -81.7862 -94.147 91.3596 
-81.7754 -96.5876 92.0714 -81.7128 -99.0067 92.5884 -82.6317 -87.1787 89.2444 
-82.5191 -89.2151 90.1471 -82.4077 -91.495 90.8928 -82.1382 -93.9113 91.8869 
-82.0606 -96.5784 92.7672 -82.0703 -99.2735 93.1968 -81.8434 -101.627 93.652 
-83.3789 -87.1805 89.4261 -83.1508 -89.0331 90.4446 -82.993 -91.0858 91.2793 
-82.6175 -93.4115 92.2301 -82.3383 -96.1418 93.2064 -82.3095 -99.0516 93.7474 
-82.1045 -101.64 94.1326 -81.6687 -103.878 94.6939 -84.1529 -87.1998 89.4806 
-83.8607 -88.8624 90.5675 -83.6433 -90.6711 91.5251 -83.2428 -92.8655 92.4521 
-82.8088 -95.5797 93.398 -82.6449 -98.561 94.0876 -82.4267 -101.367 94.5855 
-81.9326 -103.821 95.191 -81.4572 -106.089 95.6955 -84.8542 -87.1877 89.4929 
-84.5299 -88.6623 90.6347 -84.2701 -90.2405 91.6611 -83.9064 -92.2738 92.5467 
-83.4394 -94.9545 93.3846 -83.1697 -97.9244 94.1259 -82.9399 -100.797 94.7708 
-82.4032 -103.478 95.4737 -81.7849 -105.959 96.1096 -81.4133 -108.205 96.3255 
-79.6757 -89.8352 87.0488 -79.9127 -91.9924 88.6044 -79.5228 -91.5969 87.5458 
-80.1263 -93.8281 89.7401 -79.4965 -93.7955 89.1847 -79.2809 -93.491 87.8158 
-80.5754 -95.7298 90.7501 -79.8141 -95.507 90.2725 -79.3694 -95.3567 89.2772 
-79.4135 -94.8879 87.8252 -81.2016 -98.5197 92.0531 -80.6221 -97.8798 91.4179 
-80.1862 -97.3276 90.4649 -80.0072 -96.7009 89.1567 -80.0743 -95.8465 87.9167 
-81.5276 -101.631 93.3644 -81.2163 -101.283 92.873 -80.9923 -100.678 91.9331 
-80.878 -99.785 90.6919 -80.8202 -98.5052 89.4377 -80.7895 -97.1947 88.2986 
-81.4362 -104.322 94.4258 -81.2613 -104.583 94.0481 -81.1028 -104.504 93.3165 
-80.9564 -103.965 92.2742 -80.9897 -102.677 91.1867 -81.1665 -100.748 90.0173 
-81.2634 -98.9627 88.7553 -81.2359 -106.797 95.2779 -81.1195 -107.437 94.6901 
-81.0241 -107.707 93.9956 -80.7576 -107.479 93.2097 -80.5052 -106.665 92.3928 
-80.7273 -104.917 91.4783 -81.2351 -102.552 90.3291 -81.5494 -100.468 89.0698 
-81.1661 -109.108 95.8305 -80.9914 -109.972 95.0023 -80.9524 -110.435 94.1302 
-80.8878 -110.202 93.4331 -80.5467 -109.499 92.8149 -80.3218 -108.273 92.1068 
-80.7067 -106.164 91.2733 -81.3468 -103.636 90.3208 -81.7427 -101.496 89.2607 
-81.3844 -110.724 96.1959 -81.0153 -111.816 95.3987 -81.3547 -112.933 95.5523 
-80.5948 -114.162 94.6467 -81.0498 -114.85 94.7568 -80.6781 -112.711 94.3279 
-79.9179 -116.373 93.8193 -80.6348 -117.028 93.7372 -79.9883 -115.045 93.589 
-80.6917 -112.839 93.4512 -79.6476 -118.734 92.435 -80.5915 -119.076 92.2883 
-79.2504 -117.322 92.5977 -80.1226 -115.016 92.7632 -80.8 -112.153 92.8571 
-80.136 -120.291 90.5732 -80.9864 -119.783 91.0428 -79.2007 -119.359 90.7861 
-79.4883 -117.293 91.5671 -80.5097 -114.287 92.1041 -80.5962 -111.087 92.2023 
-80.8834 -120.357 89.4074 -81.5548 -119.137 90.5601 -79.8728 -120.244 88.9617 
-79.3756 -118.937 89.87 -80.0913 -116.465 91.0588 -80.6981 -112.896 91.4742 
-80.59 -109.294 91.4718 -81.5184 -119.448 89.3424 -82.2319 -117.856 90.4665 
-80.6883 -119.971 88.4058 -79.933 -119.252 88.796 -80.0771 -117.472 90.1724 
-80.8226 -114.299 91.0218 -81.1041 -110.238 91.0601 -81.1252 -106.582 90.8315 
-82.2237 -117.679 89.73 -83.0774 -116.028 90.3532 -81.472 -118.635 88.988 
-80.8199 -118.329 88.9186 -80.6358 -116.87 89.8369 -81.1309 -114.282 90.7985 
-81.6179 -110.619 91.0023 -81.6879 -106.854 90.6725 -81.6951 -103.842 90.0867 
-83.1505 -114.971 90.042 -84.0218 -113.661 90.218 -82.4046 -115.965 89.7832 
-81.8427 -116.023 89.662 -81.5123 -114.931 89.9699 -81.607 -112.865 90.496 
-81.9717 -109.984 90.711 -82.1297 -106.774 90.451 -82.0618 -103.952 89.8524 
-81.9975 -101.724 89.0398 -81.6951 -108.741 96.5688 -81.7634 -111.145 96.2393 
-82.1527 -108.828 96.4839 -82.2054 -111.031 95.9529 -82.8416 -108.289 96.3105 
-81.8517 -113.045 95.4482 -82.8091 -110.242 95.6838 -83.6625 -107.357 96.11 
-82.2618 -112.636 95.0528 -81.6574 -114.774 94.5106 -83.5506 -109.039 95.4369 
-84.2382 -106.265 95.5162 -82.84 -111.65 94.8294 -82.1464 -114.142 94.0731 
-81.3262 -116.771 93.3655 -84.0646 -107.584 94.8565 -84.5807 -104.748 94.6238 
-83.6507 -110.356 94.7582 -83.0145 -113.045 94.0716 -82.0576 -115.683 93.132 
-81.2792 -118.13 92.2467 -84.5612 -105.635 94.1717 -85.3156 -102.731 94.0268 
-84.2527 -108.654 94.3786 -84.0822 -111.615 94.2609 -83.3468 -114.173 93.4432 
-82.2613 -116.28 92.4904 -81.6665 -117.987 91.6683 -85.5879 -103.375 93.7747 
-86.4949 -100.724 93.6719 -84.8919 -106.334 93.8335 -84.7001 -109.438 93.9665 
-84.4927 -112.186 93.659 -83.7088 -114.208 92.8275 -82.829 -115.696 92.0809 
-82.4057 -116.931 91.3838 -86.7793 -101.288 93.3541 -87.4543 -99.0382 93.0349 
-85.9159 -103.87 93.4061 -85.2793 -106.694 93.4321 -85.0226 -109.437 93.3605 
-84.7342 -111.718 92.8719 -84.1884 -113.4 92.1724 -83.6847 -114.612 91.584 
-83.3546 -115.514 90.9775 -87.5463 -99.4507 92.5365 -87.9325 -97.5713 92.0235 
-86.9086 -101.649 92.842 -86.1778 -104.097 92.9684 -85.6298 -106.553 92.9603 
[...]
CELL_DATA 2000
SCALARS Distance double
LOOKUP_TABLE default
138.734 138.844 139.159 139.956 139.022 139.351 140.217 140.507 141.388 
139.222 139.562 140.507 140.833 141.788 142.053 143.006 139.715 139.909 
140.945 141.203 142.232 142.491 143.497 143.746 144.749 140.613 140.657 
141.761 141.855 142.941 143.059 144.126 144.305 145.394 145.588 146.644 
141.51 141.593 142.65 142.774 143.863 143.936 145.037 145.108 146.27 
146.377 147.529 147.602 148.646 142.234 142.324 143.242 143.485 144.543 
144.798 145.929 146.095 147.254 147.358 148.5 148.564 149.618 149.627 
150.59 143.102 143.032 143.9 144.019 145.102 145.383 146.596 146.887 
148.05 148.251 149.3 149.444 150.435 150.544 151.515 151.552 152.496 
144.253 144.06 145.006 144.915 146.079 146.146 147.426 147.595 148.775 
148.938 149.941 150.102 151.072 151.261 152.298 152.443 153.483 153.5 
154.461 137.997 136.903 137.631 138.053 135.878 136.556 136.961 137.729 
138.191 134.881 135.53 135.868 136.622 137.041 137.842 138.333 133.818 
134.44 134.642 135.42 135.797 136.665 137.175 138.043 138.737 132.962 
133.394 133.471 134.097 134.418 135.339 135.968 136.936 137.723 138.656 
139.59 132.698 132.851 133.013 133.202 133.498 134.088 134.826 135.784 
136.754 137.724 138.711 139.642 140.583 132.948 132.965 133.383 133.277 
133.677 133.709 134.424 134.951 136.003 136.848 137.932 138.824 139.818 
140.645 141.482 133.476 133.425 133.985 133.925 134.484 134.342 134.999 
135.05 135.957 136.385 137.442 138.145 139.211 139.991 140.962 141.626 
142.448 134.232 134.05 134.544 134.53 135.131 135.144 135.803 135.8 
136.541 136.648 137.516 137.883 138.893 139.518 140.577 141.24 142.192 
142.735 143.582 134.877 135.902 135.236 135.086 137.115 136.337 136.166 
135.58 135.639 138.568 137.698 137.538 136.783 136.84 136.281 136.431 
140.143 139.267 139.154 138.295 138.322 137.621 137.785 137.154 137.267 
141.789 140.918 140.876 139.989 140.014 139.206 139.332 138.612 138.746 
138.032 138.175 143.511 142.651 142.686 141.784 141.849 140.967 141.085 
140.258 140.413 139.622 139.829 139.096 139.447 145.162 144.39 144.474 
143.63 143.718 142.84 142.958 142.085 142.256 141.411 141.675 140.884 
141.277 140.572 141.078 146.684 145.995 146.111 145.362 145.46 144.66 
144.773 143.948 144.118 143.299 143.568 142.789 143.17 142.449 142.9 
142.233 142.684 148.157 147.506 147.67 146.965 147.107 146.352 146.5 
145.721 145.923 145.145 145.427 144.67 145.025 144.305 144.704 144.02 
144.415 143.745 144.101 145.14 145.491 145.861 147.034 145.81 146.202 
147.368 147.831 149.069 146.162 146.548 147.74 148.169 149.411 149.849 
151.042 146.559 146.939 148.175 148.59 149.884 150.276 151.577 151.905 
153.206 147.004 147.357 148.6 149.038 150.362 150.792 152.165 152.559 
153.994 154.313 155.776 147.524 147.825 149.036 149.458 150.755 151.22 
152.567 153.082 154.532 155.05 156.514 156.921 158.291 148.085 148.353 
149.51 149.892 151.129 151.569 152.833 153.366 154.748 155.399 156.847 
157.444 158.77 159.21 160.403 148.607 148.879 149.964 150.327 151.473 
151.893 153.065 153.565 154.852 155.503 156.922 157.616 158.982 159.54 
160.758 161.182 162.324 149.054 149.34 150.351 150.704 151.749 152.155 
153.226 153.716 154.901 155.537 156.878 157.613 158.978 159.653 160.91 
161.458 162.621 163.063 164.139 145.246 147.277 146.209 146.162 149.423 
148.427 148.522 147.323 147.332 151.349 150.51 150.707 149.715 149.757 
148.572 148.599 153.433 152.44 152.631 151.738 151.832 150.843 150.79 
149.732 149.739 156.073 154.838 155.096 153.883 154.092 152.934 152.999 
151.844 151.807 150.759 150.798 158.725 157.652 158.101 156.78 157.174 
155.699 156.003 154.46 154.619 153.119 153.194 151.92 152.034 160.916 
160.158 160.765 159.78 160.312 159.026 159.439 157.889 158.172 156.442 
156.567 154.818 154.862 153.351 153.426 162.863 162.234 162.908 162.198 
162.778 161.877 162.261 161.109 161.303 159.914 159.931 158.312 158.164 
156.463 156.29 154.764 154.675 164.664 164.128 164.763 164.172 164.703 
164.02 164.351 163.494 163.588 162.549 162.444 161.214 160.926 159.495 
159.103 157.601 157.259 155.861 155.629 165.758 167.131 166.309 165.852 
168.042 167.477 167.088 166.285 165.728 168.755 168.266 167.925 167.311 
166.805 166.026 165.332 169.447 168.997 168.64 168.056 167.583 166.947 
166.287 165.453 164.565 169.763 169.556 169.136 168.669 168.152 167.65 
167.062 166.336 165.421 164.485 163.402 169.549 169.598 169.164 168.908 
168.346 168.058 167.572 167.079 166.247 165.317 164.089 163.112 161.866 
169.073 169.256 168.936 168.797 168.279 168.085 167.68 167.456 166.818 
166.103 164.852 163.77 162.313 161.386 160.056 168.334 168.695 168.494 
168.552 168.104 167.97 167.486 167.39 166.784 166.435 165.272 164.402 
162.814 161.806 160.318 159.493 158.202 167.209 167.744 167.519 167.905 
167.447 167.587 166.909 166.941 166.091 166.03 164.84 164.428 162.852 
162.105 160.501 159.72 158.355 157.66 156.488 165.906 166.355 166.589 
167.263 166.387 166.821 167.503 167.711 168.142 166.121 166.65 167.27 
167.689 168.163 168.409 168.796 165.581 166.234 166.791 167.298 167.753 
168.2 168.668 169.019 169.428 164.555 165.458 166.101 166.78 167.317 
167.783 168.245 168.684 169.12 169.513 169.738 163.242 164.219 164.955 
165.935 166.705 167.408 167.96 168.331 168.649 168.998 169.199 169.545 
169.521 162.172 162.963 163.617 164.632 165.438 166.531 167.212 167.937 
168.189 168.528 168.54 168.86 168.833 169.147 168.994 161.291 162 
162.504 163.33 163.918 165.011 165.616 166.724 167.028 167.766 167.714 
168.147 168.008 168.374 168.22 168.524 168.242 160.192 161 161.404 
162.198 162.608 163.501 163.939 164.961 165.297 166.255 166.357 167.076 
167.004 167.503 167.343 167.694 167.409 167.653 167.206 149.596 150.845 
150.445 150.915 152.118 151.737 152.23 151.809 152.29 153.367 153.033 
153.577 153.156 153.669 153.224 153.754 154.556 154.301 154.949 154.559 
155.157 154.688 155.314 154.824 155.481 155.65 155.494 156.266 155.975 
156.708 156.281 157.028 156.529 157.317 156.758 157.519 156.699 156.6 
157.485 157.307 158.207 157.899 158.802 158.358 159.246 158.703 159.538 
158.913 159.637 157.79 157.706 158.659 158.537 159.553 159.401 160.478 
160.186 161.192 160.694 161.564 160.951 161.7 161.011 161.609 158.82 
158.817 159.763 159.689 160.654 160.64 161.751 161.74 162.84 162.582 
163.47 162.948 163.68 163.045 163.673 162.924 163.389 159.58 159.737 
160.639 160.669 161.491 161.552 162.511 162.723 163.791 163.917 164.804 
164.615 165.277 164.864 165.445 164.888 165.364 164.612 164.92 149.017 
148.54 149.257 150.236 148.058 148.777 149.759 150.5 151.49 147.532 
148.264 149.208 149.984 150.963 151.727 152.689 146.936 147.669 148.547 
149.354 150.294 151.127 152.082 152.879 153.811 146.396 147.055 147.875 
148.635 149.548 150.4 151.368 152.217 153.157 153.954 154.854 146.008 
146.578 147.377 148.015 148.906 149.679 150.675 151.511 152.481 153.279 
154.176 154.955 155.85 145.693 146.226 147 147.582 148.431 149.117 
150.08 150.865 151.838 152.618 153.501 154.262 155.132 155.941 156.874 
145.386 145.883 146.588 147.172 147.962 148.638 149.523 150.278 151.197 
151.973 152.84 153.589 154.411 155.194 156.07 156.941 157.86 145.123 
145.554 146.187 146.723 147.462 148.116 148.944 149.674 150.533 151.301 
152.164 152.928 153.758 154.493 155.291 156.086 156.909 157.812 158.616 
145.197 145.72 145.697 146.255 146.41 146.326 146.922 146.874 147.544 
147.184 147.086 147.717 147.637 148.324 148.28 149.026 148.086 147.927 
148.57 148.458 149.143 149.089 149.834 149.815 150.592 149.146 148.951 
149.595 149.373 150.025 149.906 150.674 150.655 151.501 151.457 152.261 
150.021 149.993 150.657 150.453 151.046 150.84 151.606 151.559 152.518 
152.478 153.376 153.203 153.936 150.515 150.661 151.344 151.368 151.977 
151.858 152.605 152.56 153.562 153.566 154.525 154.375 155.095 154.829 
155.449 150.91 151.022 151.699 151.876 152.623 152.7 153.554 153.579 
154.596 154.624 155.581 155.478 156.165 155.933 156.512 156.294 156.959 
151.412 151.425 152.089 152.251 153.155 153.35 154.395 154.522 155.6 
155.649 156.604 156.508 157.2 156.961 157.531 157.314 157.987 157.849 
158.603 151.889 153.103 152.492 152.68 154.95 154.097 154.419 153.614 
153.927 156.983 156.171 156.531 155.634 155.962 155.06 155.333 158.654 
158.061 158.352 157.635 157.865 157.089 157.3 156.445 156.585 160.275 
159.665 160.001 159.281 159.47 158.771 158.967 158.271 158.394 157.563 
157.533 162.208 161.519 162.04 161.132 161.423 160.481 160.742 159.926 
160.136 159.299 159.254 158.318 158.081 164.024 163.523 164.141 163.347 
163.685 162.668 162.868 161.884 162.062 161.13 161.115 160.075 159.806 
158.748 158.436 165.374 165.109 165.7 165.232 165.542 164.789 164.851 
163.947 163.921 163.02 162.917 161.944 161.685 160.587 160.272 159.181 
158.947 166.445 166.246 166.764 166.483 166.778 166.305 166.372 165.672 
165.584 164.738 164.552 163.632 163.355 162.381 162.071 161.061 160.801 
159.779 159.572 151.773 151.826 152.091 152.818 151.717 152.118 152.918 
153.353 154.492 151.526 152.047 153.044 153.514 154.688 155.231 156.502 
151.32 151.936 153.1 153.686 154.879 155.41 156.566 157.114 158.188 
150.966 151.68 152.808 153.611 154.757 155.44 156.433 157.028 158.004 
158.616 159.692 150.469 151.189 152.173 153.077 154.158 155.035 155.993 
156.709 157.646 158.347 159.483 160.216 161.489 150.016 150.658 151.588 
152.383 153.449 154.32 155.374 156.17 157.205 157.965 159.146 159.963 
161.269 162.062 163.282 149.654 150.254 151.187 151.88 152.933 153.707 
154.807 155.603 156.711 157.517 158.697 159.565 160.826 161.713 162.915 
163.693 164.699 149.323 149.912 150.81 151.487 152.464 153.218 154.248 
155.062 156.128 156.981 158.091 159 160.179 161.136 162.329 163.222 
164.303 165.004 165.879 151.261 150.464 151.068 151.316 149.287 150.103 
150.358 150.968 151.079 147.861 148.748 148.997 149.792 149.864 150.541 
150.658 146.426 147.271 147.481 148.319 148.447 149.197 149.298 150.082 
150.333 144.966 145.81 146.001 146.825 146.986 147.769 147.932 148.712 
148.947 149.784 150.057 143.442 144.301 144.495 145.35 145.501 146.312 
146.449 147.287 147.504 148.384 148.629 149.464 149.654 141.884 142.731 
142.908 143.811 143.988 144.822 144.907 145.724 145.856 146.798 147.038 
147.988 148.196 149.027 149.2 140.419 141.168 141.308 142.2 142.426 
143.31 143.442 144.205 144.274 145.108 145.328 146.316 146.613 147.543 
147.766 148.592 148.81 139.256 139.817 139.921 140.663 140.895 141.767 
141.992 142.783 142.891 143.619 143.799 144.674 145.029 145.981 146.317 
147.172 147.421 148.233 148.489 138.749 138.192 138.743 139.353 137.632 
138.207 138.858 139.454 140.255 137.202 137.725 138.453 139.011 139.812 
140.46 141.326 137.077 137.458 138.239 138.712 139.526 140.068 140.894 
141.504 142.278 137.214 137.477 138.246 138.627 139.459 139.885 140.692 
141.158 141.955 142.464 143.257 137.452 137.671 138.391 138.703 139.515 
139.89 140.702 141.078 141.903 142.314 143.198 143.633 144.529 137.723 
137.931 138.642 138.884 139.647 139.966 140.776 141.137 141.985 142.375 
143.283 143.696 144.606 145.005 145.841 138.047 138.237 138.973 139.171 
139.915 140.15 140.941 141.249 142.107 142.482 143.383 143.795 144.677 
145.076 145.877 146.243 146.968 138.465 138.602 139.336 139.517 140.263 
140.463 141.241 141.486 142.325 142.638 143.514 143.884 144.744 145.125 
145.925 146.278 147.02 147.344 148.053 139 140.169 139.638 139.837 
141.56 140.892 141.051 140.528 140.773 143.181 142.4 142.539 141.858 
142.09 141.528 141.797 144.95 144.123 144.283 143.479 143.684 142.976 
143.237 142.62 142.903 146.815 145.96 146.166 145.315 145.512 144.685 
144.893 144.153 144.402 143.769 144.066 148.747 147.874 148.101 147.247 
147.485 146.6 146.786 145.906 146.097 145.332 145.59 144.957 145.264 
150.678 149.815 150.037 149.195 149.464 148.607 148.828 147.891 148.05 
147.135 147.342 146.56 146.829 146.165 146.445 152.615 151.758 151.99 
151.131 151.389 150.564 150.815 149.937 150.1 149.15 149.289 148.396 
148.599 147.813 148.043 147.338 147.56 154.575 153.732 153.986 153.101 
153.326 152.473 152.713 151.88 152.069 151.167 151.262 150.334 150.433 
149.591 149.748 148.985 149.155 148.435 148.604 149.411 150.016 150.102 
150.913 150.631 150.729 151.581 151.679 152.554 151.379 151.42 152.327 
152.39 153.345 153.411 154.352 152.3 152.317 153.348 153.317 154.371 
154.336 155.383 155.332 156.295 153.146 153.282 154.415 154.464 155.609 
155.547 156.644 156.515 157.544 157.375 158.318 153.819 154.064 155.242 
155.458 156.664 156.766 157.927 157.866 158.96 158.767 159.8 159.519 
160.472 154.5 154.754 156.025 156.268 157.599 157.779 159.12 159.164 
160.472 160.328 161.549 161.213 162.285 161.822 162.723 155.207 155.497 
156.874 157.15 158.656 158.863 160.434 160.511 162.053 161.969 163.388 
163.11 164.295 163.802 164.706 164.086 164.774 155.794 156.173 157.56 
157.973 159.547 159.956 161.654 161.927 163.534 163.584 164.951 164.838 
165.946 165.68 166.503 166.02 166.577 165.95 166.352 134.018 133.124 
133.483 133.493 132.563 132.687 132.641 133.088 133.333 132.442 132.324 
132.263 132.456 132.758 133.187 133.584 132.842 132.475 132.408 132.314 
132.56 132.81 133.199 133.543 133.9 133.7 133.155 133.075 132.694 
132.811 132.771 133.027 133.206 133.456 133.806 134.223 134.7 134.141 
134.088 133.565 133.641 133.267 133.431 133.232 133.414 133.46 133.863 
134.276 134.987 135.67 135.141 135.148 134.653 134.795 134.306 134.491 
133.99 134.178 133.801 134.207 134.222 134.996 135.347 136.206 136.709 
136.155 136.212 135.734 135.928 135.484 135.707 135.204 135.4 134.876 
135.211 134.918 135.584 135.646 136.483 136.691 137.392 137.829 137.269 
137.351 136.848 137.031 136.589 136.802 136.364 136.558 136.097 136.353 
135.991 136.459 136.345 136.994 137.07 137.693 137.807 138.313 134.599 
134.149 134.72 135.456 133.922 134.333 135.046 135.598 136.272 134.014 
134.207 134.794 135.222 135.917 136.415 137.107 134.324 134.398 134.916 
135.119 135.817 136.186 136.983 137.406 138.223 134.819 134.827 135.445 
135.46 136.158 136.311 137.139 137.441 138.309 138.668 139.487 135.609 
135.495 136.179 136.121 136.777 136.798 137.515 137.702 138.51 138.814 
139.627 139.941 140.696 136.63 136.394 136.946 136.846 137.407 137.396 
137.997 138.094 138.793 139.021 139.804 140.105 140.899 141.177 141.933 
137.641 137.364 137.757 137.577 138.073 138.004 138.633 138.637 139.352 
139.411 140.174 140.338 141.139 141.4 142.187 142.443 143.157 138.528 
138.271 138.637 138.401 138.898 138.751 139.435 139.385 140.174 140.137 
140.895 140.873 141.605 141.707 142.453 142.672 143.369 143.598 144.193 
135.113 135.951 135.73 136.159 136.742 136.563 136.996 136.813 137.333 
137.561 137.338 137.799 137.635 138.182 138.063 138.715 138.669 138.305 
138.815 138.532 139.119 138.935 139.612 139.511 140.24 139.894 139.52 
140.062 139.721 140.333 140.016 140.68 140.462 141.199 141.078 141.852 
141.037 140.688 141.192 140.939 141.55 141.286 141.914 141.626 142.31 
142.101 142.869 142.741 143.538 142.249 141.833 142.287 141.994 142.583 
142.391 143.035 142.821 143.474 143.25 143.962 143.79 144.546 144.422 
145.167 143.48 143.081 143.53 143.151 143.703 143.427 144.078 143.876 
144.561 144.372 145.07 144.885 145.595 145.429 146.133 145.995 146.679 
144.505 144.233 144.683 144.378 144.892 144.595 145.179 144.937 145.584 
145.409 146.102 145.952 146.649 146.477 147.154 146.975 147.642 147.484 
148.141 151.029 150.395 150.526 150.155 149.83 149.823 149.267 149.469 
148.962 149.27 149.225 148.53 148.58 147.998 148.179 147.617 148.443 
148.54 147.833 147.868 147.207 147.287 146.681 146.83 146.228 147.437 
147.6 146.923 147.059 146.332 146.445 145.698 145.854 145.154 145.379 
144.733 146.549 146.643 145.972 146.089 145.349 145.455 144.638 144.768 
143.992 144.222 143.555 143.841 143.214 145.791 145.832 145.152 145.198 
144.49 144.523 143.779 143.787 143.053 143.128 142.486 142.683 142.086 
142.331 141.711 145.135 145.122 144.44 144.429 143.727 143.742 143.068 
143.072 142.395 142.369 141.688 141.73 141.087 141.246 140.633 140.852 
140.276 144.636 144.55 143.88 143.782 143.053 143.009 142.307 142.351 
141.671 141.712 140.973 140.976 140.226 140.296 139.652 139.83 139.312 
139.539 139.121 
POINT_DATA 1002
SCALARS Distance double
LOOKUP_TABLE default
139.467 138.367 138.372 139.641 138.523 140.762 139.892 138.653 141.12 
142.286 140.142 138.873 141.49 142.758 143.976 140.715 139.561 141.982 
143.229 144.51 145.764 141.699 140.581 142.875 143.971 145.181 146.495 
147.677 142.502 141.451 143.752 144.97 146.175 147.457 148.639 149.627 
143.023 142.231 144.204 145.679 147.145 148.447 149.6 150.62 151.528 
143.845 143.232 144.834 146.273 147.842 149.167 150.291 151.418 152.513 
153.453 145.106 144.422 146.07 147.338 148.676 149.811 150.851 152.077 
153.401 154.538 155.396 137.257 137.269 136.185 136.218 135.236 137.4 
135.14 134.271 136.251 137.477 133.914 133.274 134.874 136.27 137.781 
132.999 132.622 133.506 134.879 136.76 138.63 132.94 132.538 133.108 
133.885 135.72 137.787 139.72 133.423 132.889 133.791 134.141 135.254 
137.044 138.971 140.767 133.968 133.576 134.567 135.1 135.761 136.862 
138.428 140.241 141.882 134.61 134.514 135.06 135.77 136.543 137.324 
138.365 139.891 141.603 143.094 135.51 135.593 136.607 136.816 137.925 
136.093 138.355 139.426 137.445 136.985 140.023 140.983 139.087 138.436 
137.938 141.751 142.639 140.859 140.099 139.466 138.84 143.568 144.329 
142.745 141.946 141.214 140.565 140.087 145.277 145.884 144.58 143.833 
143.098 142.459 142.004 141.742 146.828 147.343 146.232 145.572 144.917 
144.342 143.905 143.604 143.357 148.349 148.783 147.837 147.256 146.678 
146.179 145.764 145.409 145.102 144.788 146.212 146.585 148.309 146.921 
148.603 150.299 147.318 148.985 150.648 152.182 147.738 149.473 151.198 
152.889 154.55 148.158 149.909 151.708 153.594 155.504 157.278 148.642 
150.312 152.049 153.95 156.058 157.986 159.615 149.165 150.727 152.351 
154.106 156.195 158.294 160.037 161.565 149.64 151.091 152.604 154.244 
156.214 158.364 160.294 161.951 163.462 150.033 151.384 152.774 154.305 
156.16 158.268 160.309 162.136 163.782 165.178 147.311 149.664 148.594 
151.569 150.892 149.79 153.571 152.756 151.849 150.735 156.396 155.325 
154.198 152.952 151.735 159.289 158.624 157.58 156.237 154.674 153.177 
161.577 161.438 160.885 159.864 158.427 156.611 154.804 163.569 163.589 
163.32 162.59 161.466 159.913 157.983 156.091 165.361 165.37 165.162 
164.581 163.598 162.274 160.602 158.736 156.958 166.741 166.831 167.828 
167.78 168.524 166.662 168.504 169.248 167.5 166.263 169.252 169.855 
168.173 167.087 165.522 169.574 169.867 168.592 167.703 166.411 164.34 
169.358 169.429 168.566 167.888 167.138 165.208 162.729 168.986 168.813 
168.468 167.805 167.354 165.978 163.385 160.838 168.294 167.903 168.207 
167.642 167.022 165.994 163.862 161.211 158.915 167.047 166.684 167.224 
166.925 166.176 165.096 163.452 161.258 159.043 157.112 165.806 167.228 
166.038 167.205 165.928 168.084 166.828 165.62 167.787 168.627 166.268 
164.866 167.288 168.193 169.196 165.25 163.559 166.795 167.879 168.675 
169.501 163.857 162.32 165.768 167.562 168.452 168.831 169.275 162.724 
161.485 164.283 166.274 167.81 168.315 168.485 168.749 161.804 160.594 
162.998 164.487 166.098 167.185 167.651 167.898 168.022 160.611 159.377 
161.805 163.031 164.311 165.492 166.402 166.97 167.171 167.044 149.973 
151.331 151.235 152.65 152.475 152.715 153.979 153.651 154.108 154.188 
155.28 154.743 155.594 155.776 155.986 156.467 155.744 157.059 157.481 
157.837 158.138 157.593 156.764 158.403 159.17 159.765 160.143 160.342 
158.767 157.844 159.626 160.643 161.635 162.184 162.375 162.391 159.848 
158.775 160.684 161.666 162.957 163.939 164.298 164.381 164.257 148.298 
149.505 147.819 149.01 147.348 150.765 148.439 146.813 150.18 151.947 
147.76 146.241 149.448 151.259 153.045 147.168 145.782 148.701 150.499 
152.352 154.081 146.787 145.459 148.18 149.843 151.688 153.409 155.045 
146.434 145.188 147.783 149.333 151.069 152.764 154.338 156.019 146.029 
144.943 147.303 148.803 150.437 152.092 153.672 155.232 156.966 145.694 
144.737 146.84 148.247 149.787 151.379 153.027 154.581 156.066 157.7 