# vtk DataFile Version 4.0
vtk output
ASCII
DATASET POLYDATA
POINTS 1002 float
-85.7848 -82.1422 70.2774 -85.8863 -81.6054 69.1872 -85.3185 -81.2782 69.7665 
-85.1986 -81.8885 70.9125 -84.8038 -80.8351 70.5332 -85.6523 -82.7984 71.5414 
-84.7341 -81.557 71.8519 -84.3078 -80.5063 71.4912 -85.0917 -82.6538 72.3397 
-85.5578 -83.5497 73.1023 -84.3451 -81.3045 73.0466 -83.7351 -80.4567 72.4933 
-84.6981 -82.4088 73.5321 -84.9889 -83.4928 74.1104 -85.4231 -84.4045 74.8335 
-83.8248 -81.2529 74.2036 -83.1021 -80.5581 73.5505 -84.381 -82.2002 74.885 
-84.5871 -83.3479 75.4635 -84.8287 -84.4882 75.9868 -85.183 -85.5758 76.5105 
-83.1683 -81.3761 75.3255 -82.6141 -80.6105 74.7604 -83.8445 -82.2688 76.0361 
-84.2088 -83.4279 76.7447 -84.3857 -84.6355 77.3434 -84.6615 -85.8754 77.803 
-84.924 -87.0443 78.2461 -82.6678 -81.5666 76.5123 -82.3538 -80.6075 75.9769 
-83.1111 -82.5858 77.1053 -83.5531 -83.8865 77.7567 -83.8954 -85.1314 78.4959 
-84.2443 -86.2501 79.1938 -84.5354 -87.4196 79.7331 -84.7245 -88.4376 80.1927 
-82.3666 -81.7806 77.6522 -82.1149 -80.6795 77.1522 -82.5663 -82.9068 78.1914 
-82.823 -84.3226 78.7801 -83.2315 -85.7251 79.5153 -83.7353 -86.7835 80.3857 
-84.1513 -87.8158 81.1791 -84.3905 -88.9008 81.7413 -84.5887 -89.7735 82.1129 
-82.0552 -82.0593 78.8119 -81.8023 -80.9115 78.4269 -82.2899 -83.2 79.2603 
-82.4714 -84.5526 79.8713 -82.7538 -86.04 80.6604 -83.2007 -87.2576 81.5193 
-83.6478 -88.324 82.352 -83.967 -89.5022 83.0485 -84.2113 -90.5626 83.4939 
-84.4669 -91.3335 83.7196 -81.7583 -82.417 80.0715 -81.5891 -81.275 79.7213 
-82.089 -83.5534 80.4376 -82.4044 -84.8181 81.0088 -82.6336 -86.2938 81.854 
-82.8704 -87.7035 82.7089 -83.1475 -88.9352 83.3854 -83.4281 -90.2258 84.0001 
-83.7174 -91.4863 84.5407 -84.0089 -92.4334 84.8567 -84.269 -93.0927 84.9767 
-85.5438 -80.8883 68.4579 -85.0414 -80.3672 69.1869 -85.2172 -79.9798 67.7969 
-84.7702 -79.3349 68.6562 -84.9681 -78.9649 67.2496 -84.4839 -79.8586 70.0287 
-84.3914 -78.3406 68.1038 -84.6094 -77.9874 66.7217 -84.0383 -78.9282 69.4557 
-83.8039 -79.6556 70.8974 -83.7644 -77.3949 67.5636 -84.0737 -76.9674 66.2981 
-83.3932 -78.0086 68.8794 -83.2128 -78.7868 70.2993 -83.1388 -79.6952 71.8793 
-83.1703 -76.3389 67.3334 -83.7634 -75.8724 66.3175 -82.6966 -76.9331 68.5358 
-82.6235 -77.6633 69.9461 -82.7272 -78.5902 71.532 -82.6459 -79.6619 73.1458 
-83.0484 -75.2572 67.5617 -83.9516 -74.9408 66.7942 -82.3537 -75.7497 68.5563 
-82.1857 -76.4008 69.8716 -82.4116 -77.1962 71.4624 -82.4323 -78.26 73.0262 
-82.3112 -79.4807 74.4873 -83.4101 -74.3529 68.0253 -84.4915 -74.2377 67.4243 
-82.5084 -74.673 68.8563 -82.0962 -75.2631 70.0104 -82.1484 -76.0259 71.4881 
-82.1783 -76.8936 73.0005 -82.0466 -78.0189 74.3434 -82.0371 -79.3549 75.7135 
-84.0817 -73.6896 68.6016 -85.2165 -73.6676 68.1129 -83.0077 -73.8515 69.3721 
-82.3522 -74.2664 70.4637 -82.1396 -75.0484 71.795 -82.0252 -75.9586 73.1503 
-81.8376 -76.8882 74.3711 -81.7528 -78.0543 75.6197 -81.7864 -79.4722 77.037 
-84.9126 -73.3356 69.3749 -85.9803 -73.3073 68.9324 -83.7392 -73.4257 70.1305 
-82.8565 -73.5698 71.2406 -82.4141 -74.0956 72.5338 -82.185 -75.0613 73.74 
-81.9608 -76.1085 74.7691 -81.7942 -77.1503 75.8239 -81.7175 -78.3893 77.1017 
-81.6433 -79.8314 78.483 -86.0564 -73.3069 70.2277 -84.8995 -73.4158 70.9502 
-85.9133 -73.72 71.9703 -84.8754 -73.6495 73.0485 -85.7444 -73.9745 73.9968 
-83.759 -73.3825 72.0587 -85.0377 -73.6017 75.2691 -85.9282 -73.721 75.9634 
-83.9178 -73.4212 74.3705 -82.9802 -73.441 73.4224 -85.3829 -73.4753 77.1803 
-86.3117 -73.6419 77.6285 -84.2121 -73.5412 76.4791 -83.1987 -73.5936 75.6395 
-82.5683 -74.1108 74.673 -85.538 -74.0113 78.6679 -86.383 -74.4403 78.9732 
-84.4742 -74.0636 78.1312 -83.4478 -74.1886 77.4166 -82.7796 -74.5186 76.5847 
-82.33 -75.3018 75.62 -85.4376 -75.2795 79.8862 -86.2059 -75.7654 80.174 
-84.6157 -75.1606 79.4635 -83.7146 -75.2107 78.8745 -82.9961 -75.3596 78.1731 
-82.5769 -75.8768 77.3732 -82.1589 -76.5687 76.5193 -85.4183 -76.6792 81.0986 
-86.1651 -77.0233 81.3647 -84.7521 -76.535 80.7178 -84.0178 -76.4875 80.2739 
-83.1972 -76.4735 79.7369 -82.6885 -76.7461 79.0727 -82.4029 -77.3076 78.3527 
-82.0067 -77.8507 77.6675 -85.5621 -77.9094 82.3467 -86.2765 -78.166 82.4563 
-84.9074 -77.8073 82.0546 -84.2566 -77.7729 81.7015 -83.4007 -77.703 81.3532 
-82.6753 -77.788 80.8276 -82.4115 -78.2141 80.1295 -82.1903 -78.7688 79.5063 
-81.8203 -79.2819 78.9841 -85.7062 -79.0861 83.4446 -86.363 -79.3465 83.3499 
-85.02 -78.9361 83.3488 -84.3683 -78.9084 83.0847 -83.5866 -78.9035 82.8415 
-82.7721 -78.9384 82.5122 -82.3764 -79.2235 81.8465 -82.2755 -79.7571 81.1105 
-81.9983 -80.3134 80.6199 -81.6563 -80.8091 80.2158 -81.616 -82.4659 81.1868 
-81.8158 -82.08 81.6309 -81.8504 -83.8083 82.6919 -82.2036 -81.5726 81.9909 
-82.1247 -83.4889 83.0782 -82.0742 -85.2732 84.2524 -82.4001 -80.9739 82.6456 
-82.4485 -83.0012 83.5634 -82.3252 -84.99 84.7073 -82.1531 -86.9283 85.7477 
-82.539 -80.4909 83.498 -82.6139 -82.4741 84.3836 -82.5493 -84.5729 85.397 
-82.4002 -86.6736 86.3987 -82.3577 -88.9625 87.1369 -83.0833 -80.2586 83.9772 
-82.9441 -82.1249 85.0189 -82.8273 -84.2315 86.0837 -82.5722 -86.328 87.1645 
-82.5146 -88.7174 88.0016 -82.5839 -91.3485 88.6083 -83.8637 -80.1305 84.1702 
-83.5876 -81.8626 85.223 -83.4284 -84.0229 86.3363 -82.9989 -86.1101 87.574 
-82.5868 -88.3028 88.6993 -82.4939 -90.9723 89.5092 -82.4666 -93.7002 90.0361 
-84.5693 -80.0737 84.4026 -84.2353 -81.5881 85.4298 -84.1087 -83.6711 86.4826 
-83.7774 -85.9078 87.6804 -83.1244 -87.9862 88.9297 -82.6184 -90.3514 90.0022 
-82.4208 -93.1217 90.7032 -82.304 -95.8804 90.9644 -85.2816 -80.207 84.483 
-84.8659 -81.532 85.5651 -84.6357 -83.2898 86.6545 -84.447 -85.4818 87.7801 
-83.9855 -87.6853 88.9287 -83.3514 -89.8657 90.0352 -82.8718 -92.3838 90.9236 
-82.6056 -95.2327 91.3364 -82.4061 -98.1183 91.27 -85.9992 -80.4736 84.3056 
-85.5796 -81.7329 85.3828 -85.2069 -83.1914 86.5189 -84.9189 -85.0748 87.6404 
-84.6161 -87.2846 88.7167 -84.2042 -89.4975 89.7726 -83.7149 -91.8055 90.759 
-83.256 -94.4862 91.3993 -82.8811 -97.4679 91.4984 -82.5513 -100.414 91.2338 
-81.8376 -83.6923 81.6547 -82.0189 -85.1843 83.41 -82.231 -84.9985 82.2021 
-81.9831 -86.9309 85.1064 -82.1851 -86.8394 84.1973 -82.5137 -86.578 83.0152 
-81.9648 -89.0095 86.4855 -81.8133 -89.0369 85.9118 -82.1808 -88.8749 85.0566 
-82.6161 -88.3138 83.9173 -82.3339 -91.4731 87.8243 -81.8547 -91.4299 87.2611 
-81.771 -91.3772 86.6516 -82.2016 -90.8659 85.6873 -82.7115 -89.8641 84.515 
-82.5109 -94.1007 89.3251 -82.2968 -94.0183 88.6704 -82.0202 -93.826 88.0481 
-82.049 -93.4444 87.1461 -82.4047 -92.5163 86.0075 -82.9033 -91.3057 84.9407 
-82.2469 -96.6383 90.4777 -82.2438 -96.8181 89.895 -82.2432 -96.5708 89.2764 
-82.258 -96.0848 88.4749 -82.3767 -95.2145 87.4366 -82.7026 -94.0119 86.3842 
-83.2005 -92.7258 85.4572 -82.1043 -99.1902 90.927 -81.9042 -99.7683 90.4652 
-81.8954 -99.7545 89.8885 -82.0588 -99.257 89.2223 -82.2765 -98.2514 88.4946 
-82.5691 -96.8395 87.6863 -83.0096 -95.3427 86.8016 -83.5339 -93.8647 85.8659 
-82.1721 -101.766 90.9287 -81.7974 -102.726 90.5572 -81.555 -103.042 90.0298 
-81.5832 -102.716 89.3727 -81.843 -101.768 88.8113 -82.2242 -100.172 88.3697 
-82.6969 -98.2445 87.7901 -83.2464 -96.3768 86.9719 -83.8014 -94.6506 86.0117 
-82.3018 -103.664 90.9456 -81.8755 -105.194 90.6064 -81.9467 -106.735 90.7066 
-81.4501 -108.416 90.2241 -81.745 -109.165 90.3074 -81.4694 -106.146 90.1615 
-81.1583 -111.171 89.3268 -81.8317 -111.182 89.2876 -81.0847 -109.376 89.5226 
-81.2693 -106.223 89.4806 -81.2541 -113.516 87.7128 -82.063 -112.791 87.9448 
-80.8622 -112.248 88.2216 -81.0575 -109.198 88.7152 -81.3992 -105.49 88.8037 
-81.7467 -114.703 86.3728 -82.4326 -113.121 87.2491 -81.0606 -114.324 86.5268 
-81.0099 -111.733 87.5667 -81.3798 -107.994 88.2627 -81.7854 -103.957 88.4516 
-82.4672 -114.033 86.2072 -83.0857 -112.004 87.3208 -81.6678 -114.597 85.6217 
-81.2601 -113.031 86.4103 -81.4973 -109.826 87.6397 -81.8978 -105.78 88.1799 
-82.3029 -101.65 88.1719 -83.2309 -112.156 86.712 -83.9165 -110.212 87.4871 
-82.3922 -113.104 85.9195 -81.7789 -112.424 86.0364 -81.8138 -110.181 87.1037 
-82.1648 -106.745 87.9165 -82.5053 -102.715 87.9628 -82.9039 -99.076 87.5925 
-84.0099 -109.692 87.0978 -84.7252 -108.036 87.4576 -83.1471 -110.633 86.6442 
-82.4392 -110.368 86.4795 -82.3335 -108.871 87.0012 -82.6491 -106.32 87.7151 
-82.9235 -102.976 87.8384 -83.2075 -99.5351 87.3878 -83.5632 -96.7289 86.7328 
-84.8556 -106.718 87.1813 -85.4669 -105.462 87.3193 -84.0813 -107.509 87.0833 
-83.3313 -107.473 87.0224 -83.0396 -106.498 87.1689 -83.2675 -104.683 87.5248 
-83.5485 -102.207 87.6555 -83.7183 -99.4257 87.2505 -83.9507 -96.8348 86.506 
-84.1827 -94.7347 85.7189 -82.8283 -100.805 91.3632 -82.522 -104.055 91.1547 
-83.1761 -100.911 91.5107 -82.9923 -104.015 91.4283 -83.7562 -100.502 91.53 
-82.3721 -106.731 91.0308 -83.7485 -103.352 91.4859 -84.5368 -99.3077 91.2981 
-83.1442 -106.315 91.3578 -82.5456 -108.569 90.6528 -84.5481 -101.629 91.2433 
-85.3443 -97.5158 90.9559 -83.8945 -105.316 91.3014 -83.3925 -107.7 90.8691 
-82.7072 -110.054 89.648 -85.389 -99.1972 90.9985 -86.1326 -95.8296 90.5485 
-84.5757 -103.128 91.024 -83.9761 -106.28 90.6782 -83.3231 -108.601 89.8419 
-82.68 -110.983 88.5843 -86.2798 -97.0793 90.6121 -86.859 -94.4135 89.7952 
-85.5091 -100.381 90.8869 -84.8122 -103.815 90.585 -84.0971 -106.625 89.8728 
-83.3198 -108.772 89.0142 -82.9816 -110.608 88.161 -87.0165 -95.2775 89.6547 
-87.5385 -92.8474 88.6896 -86.4044 -98.0431 90.3876 -85.8479 -101.059 90.5945 
-85.3108 -104.012 90.1923 -84.5634 -106.347 89.4283 -83.9418 -107.955 88.7034 
-83.8321 -109.254 88.0817 -87.7388 -93.3323 88.3852 -88.3208 -91.1906 87.6138 
-87.1249 -95.8163 89.2293 -86.6032 -98.4643 89.9322 -86.2402 -101.176 90.2061 
-85.8202 -103.658 89.8734 -85.2705 -105.423 89.1807 -84.9035 -106.586 88.5025 
-84.7968 -107.529 87.9216 -88.6651 -91.5135 87.3308 -89.2112 -89.8605 86.783 
[...]
CELL_DATA 2000
SCALARS Distance double
LOOKUP_TABLE default
136.38 136.168 136.586 137.26 136.105 136.461 137.192 137.572 138.354 
136.233 136.541 137.353 137.647 138.477 138.803 139.654 136.451 136.76 
137.658 137.942 138.822 139.063 139.936 140.202 141.08 136.754 137.023 
137.954 138.28 139.241 139.499 140.422 140.619 141.556 141.752 142.686 
137.207 137.401 138.313 138.598 139.61 139.928 140.95 141.187 142.199 
142.371 143.39 143.51 144.47 137.752 137.916 138.816 139.019 140.009 
140.315 141.403 141.72 142.814 143.056 144.135 144.297 145.324 145.378 
146.299 138.367 138.502 139.421 139.571 140.548 140.784 141.899 142.212 
143.377 143.663 144.789 145.019 146.103 146.247 147.241 147.24 148.113 
139.11 139.182 140.131 140.235 141.256 141.42 142.583 142.827 144.062 
144.299 145.464 145.668 146.772 146.977 148.039 148.159 149.099 149.055 
149.858 135.774 134.743 135.353 135.541 133.691 134.308 134.51 135.132 
135.404 132.624 133.247 133.419 134.064 134.312 135.029 135.422 131.476 
132.116 132.23 132.91 133.13 133.886 134.273 135.092 135.594 130.448 
130.954 131.039 131.675 131.9 132.674 133.113 133.955 134.513 135.333 
135.921 129.92 130.115 130.177 130.595 130.841 131.51 132.016 132.845 
133.468 134.295 134.914 135.721 136.36 129.936 129.846 129.845 129.982 
130.211 130.653 131.182 131.876 132.529 133.292 133.896 134.691 135.313 
136.175 136.858 130.313 130.039 129.989 129.886 130.076 130.265 130.783 
131.258 131.941 132.518 133.143 133.758 134.374 135.134 135.859 136.721 
137.481 130.968 130.573 130.564 130.254 130.44 130.365 130.854 131.083 
131.792 132.175 132.883 133.273 133.946 134.431 135.2 135.868 136.723 
137.473 138.288 131.451 132.337 131.593 131.102 133.483 132.652 132.149 
131.343 130.992 134.647 133.877 133.461 132.564 132.197 131.43 131.368 
135.787 135.072 134.777 133.937 133.622 132.779 132.682 132.038 132.233 
136.986 136.266 136.055 135.282 135.056 134.237 134.14 133.429 133.563 
133.011 133.278 138.267 137.527 137.387 136.635 136.517 135.712 135.654 
134.902 135.027 134.398 134.641 134.072 134.35 139.627 138.88 138.827 
138.075 138.081 137.275 137.281 136.465 136.579 135.893 136.17 135.546 
135.857 135.23 135.595 141.009 140.304 140.326 139.598 139.681 138.917 
138.983 138.153 138.232 137.474 137.717 137.098 137.461 136.844 137.221 
136.6 137.06 142.313 141.696 141.758 141.095 141.184 140.498 140.591 
139.84 139.92 139.142 139.32 138.652 138.998 138.425 138.835 138.249 
138.669 138.1 138.578 139.595 139.71 140.159 141.251 139.848 140.303 
141.411 141.91 143.085 140.002 140.442 141.568 142.082 143.29 143.794 
144.988 140.318 140.655 141.81 142.284 143.537 144.031 145.286 145.74 
146.999 140.845 141.066 142.189 142.597 143.87 144.337 145.617 146.072 
147.385 147.858 149.249 141.431 141.605 142.624 142.988 144.229 144.703 
145.979 146.426 147.686 148.19 149.552 150.138 151.525 141.992 142.146 
143.077 143.381 144.548 145.032 146.322 146.795 148.014 148.459 149.699 
150.287 151.611 152.262 153.506 142.54 142.685 143.569 143.807 144.863 
145.3 146.54 147.077 148.306 148.77 149.926 150.41 151.627 152.239 
153.481 154.097 155.227 143.04 143.204 144.046 144.266 145.207 145.566 
146.651 147.188 148.353 148.933 150.058 150.587 151.708 152.263 153.437 
154.042 155.189 155.759 156.804 139.899 141.573 140.785 140.945 143.459 
142.606 142.818 141.946 142.153 145.382 144.562 144.881 143.989 144.282 
143.318 143.585 147.397 146.531 146.919 146.087 146.501 145.586 145.907 
144.869 145.103 149.732 148.739 149.166 148.211 148.685 147.805 148.202 
147.217 147.411 146.335 146.459 152.123 151.219 151.721 150.661 151.126 
150.105 150.528 149.505 149.729 148.62 148.696 147.612 147.721 154.149 
153.503 154.076 153.197 153.649 152.637 153.018 151.931 152.164 150.984 
151.074 149.895 149.979 148.89 149.002 155.878 155.389 156.033 155.363 
155.84 155.003 155.352 154.378 154.586 153.458 153.521 152.315 152.335 
151.178 151.202 150.115 150.091 157.471 157.077 157.81 157.251 157.806 
157.062 157.429 156.555 156.772 155.776 155.838 154.71 154.65 153.481 
153.371 152.249 152.101 151.031 150.841 158.566 160.349 159.354 158.993 
161.907 161.109 160.798 159.676 159.046 163.019 162.507 162.301 161.387 
160.734 159.516 158.641 163.72 163.45 163.341 162.7 162.128 161.076 
160.134 158.919 157.922 164.016 163.993 163.931 163.547 163.072 162.295 
161.427 160.321 159.237 158.055 156.965 163.833 164.063 163.993 163.884 
163.423 162.996 162.237 161.447 160.373 159.27 158.022 156.9 155.713 
163.254 163.652 163.542 163.652 163.137 163.018 162.289 161.935 160.938 
160.165 158.826 157.786 156.406 155.454 154.282 162.314 162.85 162.664 
162.956 162.375 162.446 161.664 161.628 160.701 160.364 159.095 158.327 
156.851 155.967 154.655 153.921 152.862 161.005 161.645 161.35 161.831 
161.206 161.457 160.607 160.745 159.811 159.803 158.669 158.295 156.909 
156.228 154.86 154.168 153.03 152.457 151.507 158.557 158.984 159.313 
160.315 159.237 159.708 160.731 161.009 161.839 159.097 159.849 160.955 
161.365 162.137 162.334 162.91 158.377 159.419 160.582 161.366 162.131 
162.492 162.926 163.148 163.524 157.402 158.448 159.499 160.591 161.382 
162.139 162.489 162.916 163.108 163.494 163.713 156.478 157.416 158.305 
159.339 160.133 161.085 161.542 162.19 162.32 162.81 162.897 163.41 
163.485 155.37 156.358 157.125 158.133 158.876 159.839 160.443 161.193 
161.483 161.961 162.014 162.456 162.483 162.996 162.945 154.091 155.049 
155.672 156.76 157.388 158.495 159.083 160.065 160.477 161.143 161.254 
161.646 161.588 161.982 161.894 162.344 162.116 153.076 153.782 154.273 
155.203 155.722 156.817 157.312 158.469 158.866 159.889 160.056 160.754 
160.665 161.108 160.904 161.297 161.022 161.392 160.947 143.537 144.624 
144.246 144.591 145.796 145.416 145.839 145.393 145.788 147 146.655 
147.149 146.713 147.161 146.683 147.188 148.142 147.868 148.443 148.068 
148.571 148.1 148.633 148.198 148.826 149.217 148.987 149.641 149.37 
149.987 149.562 150.147 149.687 150.355 149.928 150.58 150.251 150.047 
150.744 150.567 151.321 151.011 151.705 151.264 151.974 151.524 152.252 
151.734 152.333 151.184 151.046 151.775 151.678 152.526 152.346 153.152 
152.82 153.586 153.181 153.965 153.487 154.188 153.552 154.1 151.953 
151.911 152.69 152.693 153.616 153.547 154.437 154.221 155.066 154.762 
155.624 155.231 156.028 155.462 156.088 155.361 155.846 152.568 152.607 
153.422 153.547 154.537 154.602 155.556 155.459 156.367 156.189 157.152 
156.89 157.795 157.325 158.016 157.343 157.84 157.068 157.457 143.123 
142.854 143.36 144.152 142.644 143.114 143.885 144.417 145.268 142.492 
142.944 143.729 144.2 145.026 145.562 146.434 142.384 142.819 143.637 
144.095 144.922 145.381 146.211 146.728 147.567 142.316 142.723 143.513 
143.991 144.831 145.303 146.124 146.573 147.39 147.868 148.672 142.273 
142.657 143.395 143.844 144.653 145.162 145.984 146.476 147.283 147.749 
148.546 148.992 149.74 142.248 142.619 143.352 143.744 144.509 144.969 
145.759 146.265 147.04 147.567 148.345 148.858 149.592 150.029 150.678 
142.244 142.602 143.328 143.707 144.448 144.858 145.616 146.056 146.788 
147.266 147.999 148.551 149.297 149.824 150.472 150.889 151.439 142.247 
142.584 143.258 143.644 144.345 144.77 145.509 145.945 146.673 147.077 
147.769 148.214 148.938 149.468 150.169 150.645 151.206 151.582 152.059 
142.459 143.088 142.985 143.446 143.808 143.651 144.121 144.02 144.532 
144.649 144.424 144.881 144.735 145.287 145.184 145.736 145.557 145.291 
145.704 145.519 146.076 145.99 146.613 146.463 146.964 146.437 146.174 
146.525 146.322 146.845 146.783 147.456 147.372 147.938 147.681 148.082 
147.179 146.973 147.296 147.112 147.617 147.552 148.245 148.21 148.849 
148.661 149.118 148.797 149.208 147.771 147.626 147.982 147.858 148.417 
148.36 149.078 149.027 149.702 149.558 150.083 149.83 150.271 149.969 
150.4 148.317 148.205 148.635 148.557 149.196 149.18 149.94 149.895 
150.579 150.436 150.988 150.778 151.248 150.993 151.392 151.101 151.432 
148.839 148.788 149.308 149.267 149.956 149.962 150.727 150.72 151.407 
151.31 151.881 151.701 152.189 151.946 152.331 152.033 152.315 152.005 
152.256 149.24 150.211 149.779 149.899 151.355 150.928 151.179 150.582 
150.68 152.475 152.119 152.43 151.917 152.036 151.397 151.437 153.549 
153.205 153.506 153.087 153.215 152.677 152.697 152.096 152.073 154.733 
154.311 154.601 154.14 154.299 153.794 153.875 153.316 153.328 152.686 
152.59 156.078 155.608 155.947 155.361 155.538 154.936 155.044 154.489 
154.54 153.938 153.84 153.134 152.913 157.463 157.042 157.507 156.882 
157.121 156.361 156.439 155.724 155.719 155.091 154.943 154.295 153.986 
153.31 152.971 158.794 158.443 159 158.486 158.843 158.102 158.241 
157.337 157.299 156.395 156.209 155.385 155.05 154.3 153.896 153.244 
152.885 160.061 159.742 160.26 159.869 160.239 159.728 159.95 159.205 
159.221 158.22 158.03 156.924 156.601 155.552 155.166 154.262 153.884 
153.161 152.841 149.048 148.887 149.234 149.859 148.744 149.053 149.637 
150.095 150.873 148.704 148.985 149.557 149.902 150.634 151.148 151.985 
148.507 148.931 149.542 149.889 150.579 150.98 151.799 152.289 153.123 
147.972 148.568 149.206 149.756 150.455 150.932 151.709 152.175 153.024 
153.482 154.329 147.38 147.967 148.625 149.268 150.012 150.648 151.44 
152.025 152.853 153.386 154.243 154.729 155.602 146.952 147.466 148.164 
148.736 149.506 150.138 150.952 151.618 152.453 153.104 153.945 154.551 
155.419 155.985 156.882 146.593 147.094 147.777 148.333 149.069 149.67 
150.437 151.088 151.895 152.595 153.437 154.136 155.007 155.684 156.613 
157.246 158.178 146.228 146.709 147.312 147.88 148.543 149.176 149.881 
150.541 151.29 151.994 152.818 153.56 154.452 155.2 156.168 156.905 
157.923 158.565 159.5 148.585 147.89 148.321 148.436 146.976 147.534 
147.654 148.124 148.266 145.86 146.501 146.645 147.24 147.392 147.947 
148.144 144.705 145.354 145.496 146.146 146.3 146.951 147.126 147.764 
147.899 143.462 144.157 144.268 144.957 145.074 145.766 145.901 146.61 
146.717 147.368 147.379 142.139 142.844 142.935 143.663 143.738 144.459 
144.517 145.266 145.335 146.076 146.102 146.754 146.76 140.893 141.533 
141.615 142.312 142.391 143.089 143.103 143.81 143.81 144.584 144.616 
145.392 145.443 146.159 146.264 139.713 140.312 140.359 141.022 141.118 
141.791 141.842 142.456 142.429 143.074 143.08 143.846 143.947 144.767 
144.935 145.716 145.904 138.554 139.115 139.111 139.755 139.839 140.539 
140.647 141.278 141.298 141.834 141.819 142.419 142.521 143.282 143.521 
144.354 144.628 145.396 145.606 137.913 137.084 137.795 138.432 136.248 
136.971 137.652 138.403 139.166 135.509 136.188 136.917 137.659 138.479 
139.235 140.017 135.059 135.592 136.336 136.981 137.791 138.547 139.36 
140.074 140.725 134.958 135.336 136.056 136.523 137.276 137.899 138.705 
139.41 140.127 140.728 141.286 135.09 135.365 136.081 136.395 137.127 
137.541 138.345 138.886 139.694 140.23 140.922 141.378 142.013 135.412 
135.587 136.313 136.531 137.282 137.563 138.385 138.753 139.615 140.016 
140.828 141.199 141.952 142.31 143.057 135.873 135.984 136.679 136.833 
137.562 137.793 138.605 138.916 139.767 140.1 140.923 141.252 142.049 
142.379 143.16 143.48 144.218 136.31 136.43 137.072 137.21 137.883 
138.082 138.842 139.134 139.947 140.269 141.048 141.369 142.125 142.477 
143.234 143.588 144.295 144.604 145.223 136.715 137.603 137.265 137.501 
138.689 138.252 138.517 138.104 138.348 139.97 139.455 139.746 139.246 
139.528 139.043 139.338 141.349 140.787 141.089 140.564 140.87 140.334 
140.632 140.12 140.437 142.879 142.213 142.489 141.928 142.247 141.714 
142.01 141.463 141.734 141.22 141.508 144.589 143.822 144.053 143.386 
143.693 143.115 143.432 142.859 143.119 142.541 142.792 142.273 142.569 
146.37 145.569 145.765 145.017 145.276 144.619 144.923 144.314 144.586 
143.964 144.197 143.604 143.879 143.363 143.676 148.158 147.356 147.54 
146.751 146.955 146.228 146.465 145.818 146.07 145.447 145.664 145.036 
145.245 144.681 144.936 144.448 144.713 149.896 149.139 149.333 148.537 
148.705 147.912 148.065 147.344 147.536 146.908 147.118 146.496 146.654 
146.031 146.182 145.651 145.847 145.396 145.597 146.204 146.472 146.627 
147.255 146.875 146.969 147.644 147.774 148.494 147.442 147.511 148.262 
148.3 149.065 149.128 149.882 147.95 148.115 148.955 149.032 149.847 
149.842 150.627 150.604 151.352 148.393 148.597 149.499 149.691 150.596 
150.675 151.523 151.479 152.284 152.18 152.942 149.015 149.152 150.154 
150.296 151.34 151.448 152.466 152.461 153.408 153.275 154.143 153.914 
154.682 149.759 149.917 151.064 151.164 152.376 152.41 153.63 153.578 
154.734 154.568 155.612 155.318 156.213 155.804 156.542 150.4 150.659 
151.871 152.118 153.445 153.602 154.961 154.955 156.232 156.063 157.214 
156.925 157.939 157.516 158.348 157.78 158.425 150.912 151.223 152.389 
152.78 154.11 154.528 155.956 156.232 157.556 157.562 158.682 158.502 
159.494 159.216 160.08 159.631 160.275 159.635 160.067 131.135 130.516 
130.943 131.271 130.064 130.37 130.627 131.101 131.448 129.916 129.97 
130.073 130.424 130.695 131.245 131.629 130.375 130.038 130.008 129.989 
130.174 130.528 130.963 131.515 132.07 131.389 130.794 130.73 130.281 
130.39 130.302 130.757 131.064 131.8 132.254 133.026 132.502 131.907 
131.844 131.262 131.313 130.89 131.221 131.176 131.903 132.219 133.134 
133.487 134.296 133.549 132.984 132.921 132.376 132.416 131.935 132.136 
131.845 132.349 132.452 133.282 133.648 134.501 134.796 135.484 134.64 
134.064 134.037 133.46 133.524 133.026 133.221 132.812 133.16 132.988 
133.604 133.795 134.585 134.925 135.635 135.899 136.497 135.724 135.199 
135.228 134.642 134.716 134.175 134.374 133.918 134.228 133.878 134.332 
134.23 134.872 135.036 135.733 135.992 136.621 136.863 137.445 131.658 
131.766 131.961 132.526 131.987 132.135 132.67 132.867 133.467 132.226 
132.38 132.949 133.091 133.676 133.856 134.501 132.623 132.664 133.269 
133.4 134.006 134.14 134.779 134.96 135.67 133.439 133.22 133.782 
133.79 134.43 134.515 135.159 135.288 135.995 136.196 136.934 134.586 
134.19 134.655 134.467 135.101 135.057 135.714 135.731 136.418 136.553 
137.303 137.484 138.175 135.742 135.345 135.738 135.444 136.024 135.869 
136.515 136.405 137.041 137.037 137.75 137.882 138.603 138.716 139.333 
136.794 136.454 136.841 136.522 137.026 136.822 137.413 137.262 137.843 
137.732 138.354 138.375 139.066 139.162 139.804 139.861 140.423 137.779 
137.494 137.911 137.598 138.038 137.785 138.285 138.118 138.652 138.528 
139.087 139.023 139.635 139.657 140.275 140.326 140.886 140.925 141.441 
131.881 132.785 132.443 132.757 133.706 133.365 133.68 133.415 133.826 
134.709 134.303 134.566 134.285 134.654 134.46 134.887 135.889 135.387 
135.628 135.214 135.54 135.262 135.69 135.51 135.985 137.158 136.638 
136.909 136.4 136.73 136.286 136.723 136.406 136.939 136.698 137.219 
138.349 137.881 138.162 137.709 138.066 137.597 138.018 137.589 138.108 
137.774 138.328 138.013 138.52 139.461 139.018 139.285 138.897 139.276 
138.898 139.309 138.897 139.334 138.973 139.478 139.166 139.67 139.338 
139.834 140.558 140.125 140.402 140.005 140.388 140.047 140.469 140.108 
140.496 140.133 140.556 140.262 140.738 140.459 140.934 140.641 141.14 
141.605 141.225 141.527 141.137 141.5 141.148 141.55 141.211 141.594 
141.239 141.623 141.303 141.737 141.467 141.923 141.669 142.13 141.894 
142.381 148.473 148.019 148.123 147.804 147.496 147.632 147.288 147.356 
146.884 146.867 147.039 146.623 146.735 146.211 146.292 145.743 146.054 
146.279 145.778 145.95 145.392 145.541 145 145.12 144.589 145.11 
145.344 144.784 144.994 144.426 144.653 144.139 144.336 143.802 143.934 
143.355 144.171 144.366 143.791 143.976 143.399 143.639 143.116 143.388 
142.836 143.052 142.439 142.61 142.012 143.319 143.457 142.891 143.031 
142.446 142.63 142.058 142.303 141.709 141.97 141.354 141.607 141.034 
141.269 140.756 142.591 142.663 142.099 142.188 141.599 141.717 141.115 
141.272 140.653 140.845 140.243 140.49 139.965 140.255 139.792 140.058 
139.596 141.966 141.993 141.429 141.462 140.867 140.915 140.302 140.383 
139.78 139.894 139.324 139.481 138.976 139.212 138.775 139.064 138.641 
138.906 138.462 
POINT_DATA 1002
SCALARS Distance double
LOOKUP_TABLE default
137.005 136.196 135.941 136.816 135.751 137.961 136.819 135.748 137.944 
139.16 137.059 135.895 138.184 139.309 140.497 137.329 136.133 138.588 
139.701 140.803 141.945 137.611 136.522 138.927 140.213 141.359 142.511 
143.607 138.073 137.03 139.261 140.648 141.994 143.249 144.416 145.391 
138.65 137.58 139.729 141.043 142.523 143.931 145.23 146.332 147.179 
139.279 138.245 140.337 141.584 143.074 144.539 145.901 147.183 148.213 
148.952 140.027 139.064 141.092 142.342 143.828 145.288 146.568 147.853 
149.086 150.004 150.62 135.188 134.933 134.112 133.884 133.08 134.716 
132.781 132.014 133.596 134.627 131.557 130.863 132.357 133.439 134.758 
130.449 130.038 131.116 132.232 133.674 135.113 129.864 129.864 130.226 
131.188 132.633 134.102 135.531 129.817 130.134 129.862 130.552 131.812 
133.146 134.446 135.967 130.172 130.637 129.984 130.387 131.415 132.6 
133.686 134.994 136.621 130.914 131.357 130.613 130.731 131.452 132.515 
133.539 134.617 135.994 137.558 132.085 131.785 133.147 133.031 134.277 
131.639 134.33 135.341 133.029 131.929 135.549 136.474 134.459 133.385 
132.739 136.779 137.709 135.842 134.871 134.169 133.785 138.099 138.999 
137.287 136.426 135.669 135.246 134.898 139.545 140.341 138.843 138.116 
137.304 136.768 136.499 136.179 141.028 141.663 140.408 139.794 139.043 
138.354 138.032 137.857 137.632 142.399 142.881 141.851 141.295 140.688 
140.035 139.575 139.39 139.263 139.116 140.609 140.755 142.392 140.895 
142.586 144.28 141.045 142.77 144.52 146.168 141.35 143.04 144.807 
146.536 148.298 141.816 143.404 145.17 146.88 148.746 150.711 142.314 
143.746 145.54 147.233 148.952 150.965 152.907 142.832 144.088 145.814 
147.616 149.199 150.953 152.922 154.697 143.373 144.503 146.002 147.808 
149.501 151.085 152.85 154.678 156.316 143.843 144.926 146.196 147.761 
149.496 151.182 152.863 154.606 156.294 157.812 141.721 143.709 143.028 
145.702 145.235 144.588 147.73 147.33 146.943 146.197 150.193 149.58 
149.15 148.52 147.525 152.76 152.215 151.589 150.85 149.822 148.749 
154.852 154.625 154.114 153.359 152.287 151.119 150.075 156.631 156.626 
156.283 155.672 154.737 153.546 152.347 151.189 158.301 158.512 158.293 
157.726 156.932 155.858 154.557 153.216 151.904 159.596 160.18 161.282 
161.876 162.569 160.349 163.089 163.409 161.949 159.919 163.869 163.895 
163.078 161.373 159.126 164.226 163.936 163.705 162.447 160.48 158.122 
164.034 163.539 163.722 162.847 161.433 159.226 156.736 163.394 162.837 
163.205 162.491 161.544 159.857 157.414 155.082 162.328 161.785 162.28 
161.653 160.867 159.714 157.732 155.42 153.473 160.833 160.405 160.9 
160.454 159.736 158.852 157.462 155.547 153.622 152.001 158.278 160.079 
158.611 160.45 158.667 161.676 160.447 158.198 161.979 162.765 159.631 
157.323 161.683 162.74 163.284 158.412 156.484 160.474 162.003 162.733 
163.318 157.365 155.594 159.152 160.791 161.845 162.393 162.989 156.124 
154.401 157.897 159.593 160.96 161.66 162 162.471 154.631 153.248 
156.269 158.007 159.658 160.825 161.291 161.487 161.737 153.476 152.509 
154.719 156.186 157.754 159.196 160.159 160.558 160.678 160.664 143.89 
145.008 144.977 146.265 146.147 146.247 147.557 147.299 147.629 147.612 
148.754 148.379 149.024 149.066 149.228 149.836 149.441 150.341 150.606 
150.776 151.067 150.872 150.446 151.534 152.098 152.419 152.735 152.961 
151.828 151.286 152.636 153.416 153.949 154.396 154.772 154.841 152.627 
151.955 153.623 154.596 155.305 155.95 156.538 156.788 156.649 142.602 
143.592 142.37 143.383 142.181 144.684 143.27 142.03 144.538 145.859 
143.161 141.964 144.482 145.749 147.029 143.047 141.941 144.334 145.682 
146.947 148.2 142.987 141.894 144.156 145.473 146.803 148.104 149.338 
142.979 141.874 144.092 145.284 146.524 147.798 149.136 150.307 142.955 
141.905 144.053 145.203 146.366 147.48 148.724 150.035 151.08 142.893 