# vtk DataFile Version 4.0
vtk output
ASCII
DATASET POLYDATA
POINTS 1002 float
-85.1264 -84.5397 72.4357 -85.2621 -83.9636 71.3275 -84.8452 -83.6784 72.1906 
-84.594 -84.3667 73.2643 -84.2338 -83.5227 72.9946 -84.977 -85.2501 73.6293 
-83.9703 -84.3137 74.0911 -83.5498 -83.4451 73.7323 -84.5441 -85.0426 74.5943 
-84.9567 -85.9052 75.1789 -83.4007 -84.3074 75.0487 -83.0008 -83.3319 74.6208 
-84.0754 -84.9405 75.7072 -84.6768 -85.6616 76.389 -84.8391 -86.7257 76.9766 
-82.9442 -84.2479 76.2124 -82.6331 -83.1485 75.7931 -83.5318 -84.9785 76.8938 
-84.2149 -85.6391 77.6354 -84.4552 -86.7778 78.1714 -84.4532 -88.0587 78.6177 
-82.5284 -84.1591 77.4506 -82.3066 -83.055 77.0707 -82.9045 -85.1292 77.9633 
-83.4888 -85.9386 78.6145 -83.8134 -87.0938 79.1869 -83.8797 -88.4644 79.6672 
-84.1193 -89.5193 80.1895 -82.0868 -84.2497 78.6164 -81.9042 -83.2211 78.2317 
-82.3314 -85.3669 79.0146 -82.7436 -86.4307 79.4642 -83.0771 -87.6349 80.0188 
-83.2144 -88.9526 80.641 -83.4976 -90.003 81.2619 -83.904 -90.8386 81.7861 
-81.62 -84.5823 79.6555 -81.4604 -83.5318 79.2908 -81.8852 -85.739 80.1443 
-82.2317 -86.9032 80.6053 -82.5262 -88.1807 81.0818 -82.667 -89.5331 81.6943 
-82.8773 -90.6221 82.3292 -83.2392 -91.5089 82.7856 -83.481 -92.5128 83.0533 
-81.2036 -84.9341 80.6399 -81.1074 -83.7928 80.3814 -81.4947 -86.1662 81.1574 
-81.8603 -87.3183 81.7808 -82.1167 -88.579 82.3297 -82.219 -90.1006 82.8431 
-82.3421 -91.4618 83.3652 -82.5864 -92.4747 83.736 -82.798 -93.4822 83.8992 
-82.8521 -94.6193 83.9979 -80.9434 -85.1945 81.6874 -80.9405 -84.032 81.5178 
-81.1614 -86.5102 82.0544 -81.5003 -87.7186 82.6322 -81.7182 -88.9634 83.2675 
-81.7422 -90.6152 83.7966 -81.7945 -92.3434 84.237 -81.9997 -93.6176 84.5969 
-82.2027 -94.6168 84.7993 -82.2784 -95.6611 84.8889 -82.2791 -96.6936 84.9854 
-85.0871 -83.2941 70.6947 -84.6889 -82.9024 71.6905 -84.8135 -82.5527 70.0767 
-84.367 -82.0907 71.1789 -84.4526 -81.6598 69.6456 -84.03 -82.631 72.5877 
-83.9596 -81.1834 70.7897 -84.2156 -80.5984 69.543 -83.6526 -81.741 72.1497 
-83.2695 -82.4185 73.3571 -83.8044 -79.9696 70.6796 -84.2668 -79.4012 69.7362 
-83.2766 -80.7628 71.7712 -82.8412 -81.4458 72.9682 -82.6611 -82.1972 74.2663 
-83.8371 -78.4579 70.8281 -84.4573 -78.1951 70.04 -83.158 -79.3306 71.6752 
-82.5052 -80.3722 72.6709 -82.2086 -81.1589 73.9261 -82.2794 -82.0203 75.4747 
-83.8254 -77.1329 71.1003 -84.7354 -77.1652 70.3784 -83.0716 -77.702 71.9188 
-82.4364 -78.8866 72.7599 -81.976 -79.9892 73.7873 -81.8999 -80.9546 75.2102 
-81.9952 -82.0589 76.8187 -84.0755 -76.358 71.4899 -85.2421 -76.4439 70.8393 
-83.1074 -76.64 72.3647 -82.5255 -77.544 73.2446 -82.1152 -78.6569 74.1092 
-81.8428 -79.7219 75.2726 -81.7764 -80.9932 76.7511 -81.6813 -82.3151 78.1435 
-84.753 -76.0599 72.0629 -85.9018 -76.078 71.4692 -83.6529 -76.2658 72.9477 
-82.9579 -76.8873 73.9028 -82.5264 -77.7693 74.7593 -82.1217 -78.6221 75.7438 
-81.8347 -79.7715 77.0475 -81.6308 -81.251 78.3735 -81.3611 -82.5983 79.4517 
-85.5122 -76.0475 72.8058 -86.4966 -76.0123 72.2239 -84.4683 -76.2217 73.6671 
-83.7039 -76.6394 74.6403 -83.166 -77.3673 75.517 -82.5933 -78.0852 76.3954 
-82.0764 -78.8688 77.5363 -81.7439 -80.1372 78.8125 -81.4505 -81.6057 79.8806 
-81.1454 -82.8658 80.7241 -86.4196 -76.172 73.4675 -85.3898 -76.2924 74.2892 
-86.1532 -76.5445 74.9697 -85.1285 -76.5637 75.9458 -85.8084 -76.9841 76.4217 
-84.4993 -76.4553 75.3059 -84.9155 -76.9158 77.5086 -85.6771 -77.5382 77.754 
-84.4083 -76.6847 77.0404 -83.8857 -76.9659 76.2929 -85.0228 -77.616 79.0273 
-85.8103 -78.2438 79.2789 -84.3829 -77.2455 78.6881 -83.8576 -77.4189 78.0131 
-83.2228 -77.8015 77.1572 -85.2803 -78.522 80.6098 -85.9783 -78.9543 80.9202 
-84.5798 -78.2554 80.2137 -83.8679 -78.265 79.6171 -83.1065 -78.4246 78.8631 
-82.4623 -78.5496 78.1582 -85.4044 -79.4545 82.0185 -86.1191 -79.7809 82.2579 
-84.6887 -79.3415 81.6102 -83.9367 -79.3273 81.0705 -83.0931 -79.2923 80.4725 
-82.3409 -79.2911 79.9243 -81.9195 -79.5251 79.4073 -85.4634 -80.6646 83.1281 
-86.2425 -80.957 83.297 -84.6258 -80.5221 82.8369 -83.8156 -80.4302 82.4702 
-83.0397 -80.2926 82.0553 -82.3169 -80.2694 81.5875 -81.8152 -80.4989 81.1092 
-81.5693 -80.9683 80.553 -85.4984 -82.1133 84.105 -86.2176 -82.3249 84.2168 
-84.6369 -81.9324 83.9264 -83.7223 -81.7306 83.7474 -82.9133 -81.4938 83.5619 
-82.2665 -81.4441 83.1819 -81.7845 -81.6885 82.6215 -81.4693 -82.0272 82.0492 
-81.2612 -82.3957 81.419 -85.4264 -83.4423 85.0036 -86.0155 -83.6028 84.9909 
-84.7168 -83.2855 84.9336 -83.8693 -83.1089 84.8292 -83.0165 -82.896 84.7627 
-82.3366 -82.8154 84.5381 -81.8674 -83.0175 83.9893 -81.537 -83.2839 83.3652 
-81.2617 -83.4347 82.8113 -81.037 -83.6406 82.1891 -80.8895 -85.1139 82.7983 
-81.0756 -84.87 83.5091 -80.932 -86.621 84.2184 -81.395 -84.8419 84.062 
-81.1823 -86.5655 84.9368 -80.9481 -88.5825 85.6916 -81.7328 -84.7846 84.5824 
-81.5672 -86.6096 85.4242 -81.1902 -88.6266 86.3648 -80.9574 -90.902 87.1377 
-82.1082 -84.5617 85.2039 -81.9675 -86.5448 85.9053 -81.5882 -88.5951 86.821 
-81.178 -90.8446 87.6706 -81.1141 -93.394 88.4137 -82.6564 -84.4049 85.6261 
-82.4186 -86.3786 86.3798 -82.036 -88.4821 87.2355 -81.561 -90.6544 88.0898 
-81.3724 -93.1691 88.7977 -81.3636 -95.9936 89.4451 -83.418 -84.4048 85.7553 
-83.0465 -86.2095 86.6077 -82.5738 -88.3569 87.4797 -82.0186 -90.4687 88.4041 
-81.6987 -92.8441 89.2004 -81.6428 -95.7427 89.8238 -81.4547 -98.7092 90.3607 
-84.222 -84.4461 85.8502 -83.7974 -86.0032 86.7379 -83.2917 -88.1189 87.5691 
-82.6475 -90.2937 88.492 -82.1101 -92.497 89.4541 -81.8702 -95.2837 90.2076 
-81.6854 -98.434 90.759 -81.3291 -101.22 91.2558 -84.8904 -84.5414 85.8849 
-84.4632 -85.868 86.8203 -84.0483 -87.7737 87.6715 -83.4727 -89.9814 88.5144 
-82.791 -92.1233 89.4927 -82.2555 -94.6527 90.3744 -81.9079 -97.7657 90.9854 
-81.558 -100.781 91.5534 -81.1881 -103.154 92.1253 -85.4445 -84.7097 85.7533 
-84.998 -85.9314 86.6553 -84.6641 -87.5628 87.5922 -84.2477 -89.5939 88.4733 
-83.6346 -91.672 89.4203 -82.9506 -93.9599 90.3431 -82.3823 -96.8489 90.971 
-81.934 -99.9637 91.5265 -81.5318 -102.613 92.2846 -81.215 -104.592 92.9436 
-80.9122 -86.4988 83.0277 -80.9249 -88.2268 84.4957 -81.1335 -87.9539 83.3729 
-80.9415 -90.5631 86.1365 -81.0869 -90.0146 84.8836 -81.3517 -89.4108 83.9334 
-81.0205 -93.4208 87.8422 -81.0495 -93.0472 86.787 -81.1095 -92.211 85.5279 
-81.3202 -91.2831 84.5654 -81.1036 -96.3302 89.1873 -80.9413 -96.4209 88.6375 
-80.8502 -95.8645 87.5025 -80.8901 -94.6716 86.1366 -81.2426 -93.4019 85.0637 
-81.0805 -99.1212 90.1097 -80.6916 -99.3325 89.7923 -80.5015 -99.0614 89.0816 
-80.5771 -97.994 87.859 -80.9109 -96.467 86.5325 -81.4382 -94.979 85.4681 
-80.9928 -101.777 90.9735 -80.5671 -101.976 90.5788 -80.2849 -101.713 89.9929 
-80.3864 -100.766 89.1145 -80.794 -99.2354 88.0365 -81.2692 -97.5953 86.9097 
-81.7255 -96.0642 85.8071 -80.9277 -103.928 91.8704 -80.6739 -104.371 91.3981 
-80.457 -104.35 90.7905 -80.4632 -103.742 90.0249 -80.7803 -102.466 89.188 
-81.1884 -100.696 88.323 -81.5133 -98.8338 87.258 -81.8405 -97.1457 86.0179 
-80.9521 -105.447 92.6719 -80.8037 -106.154 92.0585 -80.6951 -106.557 91.4113 
-80.6336 -106.557 90.7768 -80.7662 -106.036 90.0537 -81.0633 -104.681 89.3328 
-81.326 -102.497 88.5413 -81.5431 -100.145 87.4367 -81.8452 -98.2064 86.1343 
-81.2018 -106.465 93.513 -80.941 -107.356 92.7165 -81.2275 -108.487 93.3357 
-80.8141 -109.555 91.9804 -81.1251 -110.699 92.3431 -80.7433 -108.144 91.7261 
-80.4269 -112.151 91.0348 -80.9638 -112.873 91.341 -80.281 -110.409 90.9276 
-80.5322 -108.632 91.08 -80.1702 -114.625 90.5742 -81.0587 -114.447 90.7419 
-79.6166 -112.948 90.3367 -79.8829 -110.787 90.5188 -80.4877 -108.82 90.5795 
-80.4834 -115.858 90.0264 -81.5269 -114.819 89.9957 -79.5537 -115.04 89.9083 
-79.4566 -112.859 89.9806 -80.1301 -110.871 90.1465 -80.7747 -108.379 89.9375 
-81.2442 -115.415 88.9213 -82.2037 -114.077 89.0708 -80.2332 -115.65 88.9458 
-79.8559 -114.295 89.2249 -80.2589 -112.334 89.5502 -80.8106 -110.006 89.5862 
-81.1375 -106.498 89.2536 -82.1321 -114.102 88.0502 -82.9154 -112.842 88.4666 
-81.155 -114.805 87.9129 -80.5963 -114.429 88.2845 -80.7619 -112.927 88.8627 
-81.1246 -110.539 89.1213 -81.2863 -107.228 88.9557 -81.3817 -103.449 88.385 
-82.9561 -112.483 87.8222 -83.5549 -111.311 88.1827 -82.071 -113.21 87.5909 
-81.317 -113.227 87.7707 -81.177 -112.241 88.2979 -81.4071 -110.072 88.6553 
-81.5339 -106.932 88.5586 -81.5526 -103.542 88.0425 -81.6385 -100.587 87.1587 
-83.6326 -110.367 87.8492 -84.0981 -109.328 87.9964 -82.9105 -111.019 87.7319 
-82.1173 -111.063 87.7588 -81.7006 -110.299 88.0064 -81.7159 -108.563 88.2303 
-81.815 -105.962 88.1177 -81.8461 -103.104 87.621 -81.8822 -100.62 86.8065 
-82.0178 -98.5631 85.8399 -81.6005 -104.852 93.3038 -81.6328 -106.968 93.9966 
-82.1366 -105.087 93.2044 -82.086 -107.377 93.7576 -82.6168 -104.878 92.591 
-81.6223 -109.035 93.7317 -82.3958 -107.07 92.7877 -83.0096 -103.73 91.8477 
-81.949 -109.195 93.3039 -81.526 -110.801 92.5194 -82.7843 -105.603 91.8071 
-83.5759 -101.831 91.2675 -82.2946 -108.572 92.3943 -81.9351 -110.303 92.1348 
-81.5533 -112.171 91.3297 -83.5697 -103.348 91.1952 -84.4442 -99.8882 90.7647 
-82.9687 -106.949 91.7717 -82.6183 -109.414 91.8216 -82.2505 -111.1 91.1253 
-81.885 -113.065 90.5417 -84.6858 -101.018 90.7686 -85.4399 -98.2342 90.2839 
-83.9432 -104.51 91.3308 -83.5203 -107.729 91.7157 -83.162 -109.976 91.2314 
-82.7304 -111.648 90.4262 -82.4117 -113.113 89.8353 -85.852 -98.9491 90.3611 
-86.349 -96.7708 89.7091 -85.0512 -101.853 90.8418 -84.3572 -105.081 91.2733 
-83.9457 -107.931 91.2079 -83.5589 -109.991 90.5694 -83.1872 -111.347 89.9187 
-82.9949 -112.279 89.2546 -86.8447 -97.159 89.722 -87.1025 -95.4139 88.8796 
-86.2019 -99.4768 90.3193 -85.3191 -102.232 90.6732 -84.6359 -105.027 90.7608 
-84.2499 -107.433 90.5093 -83.9456 -109.122 90.0852 -83.6941 -110.201 89.5363 
-83.5881 -110.946 88.8216 -87.6258 -95.6309 88.7826 -87.7789 -94.1934 87.9538 
-87.2224 -97.5104 89.5589 -86.4825 -99.7844 90.0817 -85.6594 -102.188 90.2814 
[...]
CELL_DATA 2000
SCALARS Distance double
LOOKUP_TABLE default
138.593 138.586 138.873 139.465 138.557 138.868 139.516 139.825 140.542 
138.614 138.909 139.663 139.958 140.776 141.05 141.869 138.847 139.097 
139.938 140.209 141.101 141.372 142.258 142.48 143.318 139.225 139.431 
140.273 140.532 141.412 141.71 142.605 142.881 143.753 143.968 144.824 
139.69 139.854 140.676 140.889 141.755 142.019 142.932 143.22 144.146 
144.403 145.313 145.517 146.393 140.201 140.339 141.191 141.365 142.292 
142.468 143.453 143.653 144.678 144.883 145.879 146.051 146.974 147.111 
147.952 140.739 140.857 141.737 141.934 142.925 143.109 144.132 144.3 
145.362 145.541 146.6 146.733 147.701 147.769 148.634 148.681 149.476 
141.36 141.422 142.289 142.486 143.475 143.717 144.719 144.951 145.975 
146.219 147.286 147.489 148.5 148.578 149.473 149.461 150.281 150.251 
151.03 138.037 137.176 137.769 138.039 136.224 136.871 137.16 137.733 
137.968 135.29 135.899 136.183 136.797 137.021 137.618 137.91 134.53 
135 135.225 135.801 136.007 136.613 136.879 137.579 138.033 133.933 
134.255 134.35 134.851 135.016 135.596 135.842 136.518 136.969 137.784 
138.392 133.5 133.64 133.587 133.976 134.114 134.652 134.919 135.528 
135.978 136.743 137.404 138.238 138.908 133.442 133.323 133.235 133.36 
133.555 133.92 134.304 134.764 135.263 135.868 136.566 137.337 138.102 
138.838 139.484 133.862 133.534 133.543 133.365 133.669 133.734 134.265 
134.47 135.052 135.385 136.085 136.661 137.492 138.161 138.898 139.484 
140.084 134.58 134.193 134.311 133.99 134.347 134.204 134.782 134.778 
135.39 135.46 136.094 136.387 137.177 137.705 138.518 139.041 139.707 
140.164 140.757 135.062 135.869 135.252 134.889 136.728 136.123 135.824 
135.207 134.988 137.638 137.009 136.781 136.201 136.085 135.489 135.426 
138.841 138.08 137.937 137.266 137.239 136.638 136.627 136.012 135.981 
140.28 139.48 139.41 138.628 138.628 137.91 137.906 137.226 137.186 
136.555 136.6 141.659 140.943 140.888 140.155 140.125 139.379 139.327 
138.571 138.52 137.814 137.891 137.306 137.591 142.989 142.297 142.249 
141.557 141.512 140.812 140.751 140.01 139.969 139.234 139.334 138.697 
138.987 138.465 138.864 144.325 143.656 143.644 142.929 142.908 142.182 
142.172 141.44 141.469 140.738 140.87 140.202 140.464 139.886 140.204 
139.703 140.022 145.514 144.961 144.988 144.34 144.353 143.635 143.668 
142.93 143.024 142.295 142.469 141.775 142.025 141.382 141.656 141.056 
141.314 140.781 141.058 141.848 142.164 142.421 143.379 142.578 142.829 
143.839 144.134 145.268 142.994 143.273 144.329 144.644 145.801 146.131 
147.385 143.433 143.707 144.785 145.128 146.287 146.645 147.855 148.265 
149.614 143.935 144.169 145.233 145.575 146.726 147.096 148.264 148.665 
149.932 150.471 151.901 144.51 144.683 145.687 146.004 147.121 147.503 
148.633 149.025 150.223 150.729 152.116 152.751 154.213 145.125 145.249 
146.163 146.429 147.48 147.857 148.955 149.351 150.479 150.959 152.26 
152.912 154.363 155.031 156.401 145.676 145.799 146.612 146.851 147.816 
148.18 149.245 149.644 150.723 151.163 152.339 152.956 154.297 155.053 
156.406 157.085 158.263 146.113 146.246 146.96 147.202 148.073 148.449 
149.456 149.889 150.924 151.36 152.419 152.959 154.136 154.858 156.126 
156.918 158.126 158.791 159.815 142.041 143.579 142.813 142.999 145.467 
144.531 144.673 143.907 144.186 147.685 146.629 146.788 145.767 145.977 
145.161 145.454 150.143 149.095 149.481 148.229 148.479 147.247 147.488 
146.509 146.8 152.58 151.679 152.317 151.166 151.577 150.14 150.324 
148.902 149.084 147.96 148.202 154.875 154.091 154.74 153.867 154.316 
153.176 153.295 151.879 151.833 150.46 150.495 149.363 149.457 157.029 
156.322 156.906 156.108 156.502 155.583 155.708 154.559 154.449 153.138 
152.995 151.727 151.65 150.514 150.451 158.889 158.34 158.933 158.206 
158.636 157.73 157.989 156.885 156.98 155.691 155.664 154.279 154.172 
152.812 152.651 151.426 151.269 160.401 160.005 160.577 160.054 160.501 
159.81 160.163 159.248 159.53 158.363 158.54 157.127 157.106 155.536 
155.313 153.789 153.504 152.209 152 161.384 162.731 161.895 161.485 
163.755 163.056 162.598 161.862 161.4 164.662 164.011 163.546 162.831 
162.412 161.717 161.171 165.642 165.071 164.687 163.813 163.321 162.637 
162.251 161.481 160.755 166.168 166.009 165.754 165.002 164.376 163.57 
163.147 162.514 162.013 161.025 159.975 165.793 166.094 165.889 165.707 
165.102 164.522 163.95 163.381 162.884 162.149 161.175 159.99 158.533 
164.987 165.381 165.172 165.378 164.933 164.838 164.282 163.975 163.307 
162.785 161.698 160.823 159.248 158.141 156.494 164.154 164.527 164.315 
164.565 164.18 164.342 163.825 163.86 163.067 162.821 161.545 160.944 
159.269 158.446 156.726 155.878 154.414 163.121 163.606 163.351 163.686 
163.212 163.456 162.806 163.014 162.107 162.124 160.79 160.457 158.802 
158.212 156.574 155.908 154.51 153.863 152.744 161.484 162.068 162.269 
163.003 162.227 162.782 163.655 163.676 164.101 161.625 162.62 163.583 
164.064 164.492 164.509 164.812 160.449 161.662 162.695 163.623 164.135 
164.525 164.755 165.025 165.446 159.214 160.34 161.431 162.575 163.384 
164.018 164.336 164.684 165.003 165.494 165.85 158.226 159.142 160.141 
161.304 162.341 163.278 163.876 164.3 164.56 164.914 165.16 165.603 
165.621 157.423 158.205 158.997 160.015 160.918 162.08 162.8 163.66 
163.953 164.43 164.5 164.876 164.851 165.153 164.93 156.574 157.35 
157.996 158.859 159.511 160.549 161.139 162.227 162.578 163.444 163.5 
164.079 163.961 164.356 164.136 164.407 164.091 155.64 156.402 156.98 
157.797 158.34 159.189 159.654 160.564 160.92 161.845 162.033 162.822 
162.787 163.347 163.122 163.516 163.18 163.484 163.061 146.53 147.432 
147.092 147.388 148.529 148.115 148.493 148.106 148.549 149.814 149.364 
149.8 149.343 149.842 149.435 149.967 151.052 150.69 151.123 150.683 
151.143 150.759 151.311 150.926 151.45 152.025 151.822 152.255 151.918 
152.35 152.014 152.586 152.267 152.882 152.451 152.984 152.78 152.686 
153.213 152.985 153.535 153.236 153.923 153.609 154.368 153.96 154.645 
154.099 154.712 153.501 153.448 154.119 153.978 154.695 154.48 155.303 
155.045 155.931 155.569 156.399 155.882 156.622 155.996 156.688 154.257 
154.239 155.015 154.948 155.737 155.627 156.466 156.358 157.284 157.115 
158.071 157.717 158.608 158.029 158.798 158.083 158.728 154.99 155.027 
155.848 155.854 156.652 156.603 157.393 157.368 158.271 158.295 159.347 
159.292 160.358 160.027 160.902 160.251 160.862 160.054 160.474 146.22 
146.027 146.448 147.098 145.74 146.241 146.919 147.356 148.104 145.381 
145.925 146.639 147.134 147.863 148.397 149.271 145.156 145.623 146.386 
146.858 147.576 148.086 148.905 149.557 150.461 145.104 145.505 146.308 
146.721 147.48 147.862 148.609 149.142 150.001 150.669 151.463 144.998 
145.43 146.192 146.669 147.461 147.858 148.58 148.949 149.698 150.218 
150.994 151.573 152.228 144.845 145.247 145.912 146.426 147.164 147.721 
148.458 148.919 149.611 150.02 150.711 151.166 151.816 152.301 152.905 
144.826 145.126 145.737 146.121 146.778 147.307 148.039 148.632 149.368 
149.885 150.569 150.986 151.607 151.983 152.562 152.999 153.613 144.895 
145.159 145.753 146.032 146.648 147.01 147.7 148.2 148.956 149.53 
150.281 150.804 151.475 151.862 152.427 152.75 153.293 153.718 154.325 
145.095 145.645 145.585 145.98 146.229 146.172 146.653 146.521 146.909 
146.903 146.818 147.366 147.258 147.738 147.522 147.95 147.626 147.535 
148.107 148.024 148.575 148.397 148.867 148.636 149.142 148.343 148.264 
148.871 148.805 149.399 149.252 149.765 149.558 150.079 149.894 150.459 
149.075 148.991 149.635 149.594 150.243 150.114 150.66 150.458 151.007 
150.836 151.425 151.233 151.727 149.817 149.732 150.352 150.34 151.005 
150.949 151.515 151.356 151.892 151.745 152.327 152.178 152.664 152.404 
152.716 150.5 150.446 151.007 150.999 151.607 151.624 152.189 152.136 
152.648 152.563 153.094 153.004 153.474 153.282 153.599 153.293 153.546 
151.074 151.073 151.608 151.596 152.148 152.166 152.725 152.73 153.262 
153.233 153.757 153.704 154.194 154.054 154.441 154.178 154.503 154.177 
154.531 151.533 152.439 152.037 152.114 153.41 153.008 153.129 152.637 
152.683 154.376 154.025 154.223 153.728 153.792 153.238 153.263 155.369 
155.017 155.282 154.837 154.949 154.398 154.413 153.831 153.825 156.64 
156.158 156.483 155.958 156.146 155.581 155.666 155.049 155.053 154.411 
154.372 158.163 157.633 158.067 157.399 157.682 156.954 157.147 156.424 
156.518 155.765 155.717 154.966 154.841 159.626 159.198 159.733 159.131 
159.488 158.707 158.909 158.077 158.186 157.352 157.308 156.427 156.214 
155.379 155.118 160.982 160.613 161.171 160.719 161.105 160.477 160.625 
159.838 159.818 158.999 158.878 158.023 157.76 156.834 156.47 155.59 
155.237 162.258 161.919 162.418 162.038 162.406 161.925 162.081 161.409 
161.326 160.522 160.304 159.48 159.185 158.322 157.94 157.016 156.597 
155.699 155.318 151.282 151.091 151.525 152.177 150.826 151.306 151.99 
152.428 153.092 150.468 151.001 151.673 152.183 152.852 153.323 153.991 
149.923 150.548 151.219 151.812 152.491 153.022 153.715 154.213 154.949 
149.259 149.918 150.627 151.303 152.047 152.642 153.39 153.932 154.758 
155.277 156.179 148.669 149.274 150.004 150.699 151.519 152.192 153.029 
153.632 154.528 155.113 156.095 156.642 157.633 148.195 148.746 149.457 
150.11 150.946 151.661 152.562 153.258 154.195 154.863 155.85 156.497 
157.501 158.089 159.047 147.8 148.316 149.016 149.606 150.406 151.093 
151.99 152.744 153.694 154.449 155.414 156.147 157.139 157.846 158.856 
159.47 160.418 147.486 147.969 148.671 149.202 149.952 150.566 151.401 
152.138 153.07 153.873 154.829 155.615 156.59 157.381 158.435 159.204 
160.263 160.864 161.768 150.654 149.512 150.198 150.392 148.242 148.948 
149.142 149.9 150.119 147.012 147.663 147.851 148.623 148.907 149.645 
149.819 145.867 146.477 146.642 147.365 147.656 148.427 148.63 149.285 
149.309 144.704 145.342 145.462 146.153 146.341 147.121 147.283 148.022 
148.041 148.673 148.629 143.433 144.127 144.208 144.907 144.97 145.712 
145.769 146.559 146.599 147.342 147.352 148.007 148.032 142.12 142.815 
142.893 143.593 143.623 144.302 144.294 145.018 145.078 145.868 145.99 
146.73 146.827 147.475 147.561 140.925 141.549 141.647 142.296 142.341 
142.968 142.957 143.605 143.67 144.419 144.61 145.391 145.574 146.27 
146.377 147.021 147.139 139.876 140.438 140.541 141.126 141.166 141.731 
141.705 142.304 142.354 143.073 143.279 144.068 144.306 145.031 145.181 
145.832 145.952 146.616 146.794 139.313 138.569 139.308 139.975 137.752 
138.531 139.25 139.955 140.561 137.153 137.776 138.481 139.176 139.788 
140.467 141.046 136.944 137.333 137.963 138.488 139.113 139.718 140.375 
141.024 141.734 136.976 137.237 137.824 138.161 138.82 139.248 140.008 
140.531 141.377 141.931 142.758 137.092 137.313 137.936 138.185 138.896 
139.195 140.005 140.391 141.271 141.735 142.594 143.063 143.822 137.335 
137.495 138.166 138.386 139.116 139.377 140.147 140.477 141.281 141.69 
142.479 142.92 143.634 144.067 144.7 137.769 137.838 138.497 138.666 
139.362 139.593 140.284 140.578 141.291 141.665 142.403 142.808 143.511 
143.896 144.54 144.911 145.512 138.302 138.322 138.92 139.026 139.666 
139.833 140.479 140.698 141.382 141.681 142.431 142.779 143.531 143.858 
144.555 144.852 145.506 145.794 146.413 138.769 139.681 139.265 139.396 
140.763 140.263 140.413 139.962 140.126 142.053 141.456 141.613 141.071 
141.239 140.745 140.931 143.48 142.825 142.995 142.38 142.593 141.995 
142.205 141.635 141.867 145.012 144.318 144.504 143.835 144.086 143.458 
143.73 143.075 143.317 142.679 142.945 146.599 145.911 146.114 145.4 
145.62 144.974 145.246 144.629 144.873 144.216 144.426 143.793 144.031 
148.145 147.509 147.737 147.029 147.21 146.514 146.723 146.1 146.318 
145.708 145.892 145.267 145.445 144.842 145.038 149.648 149.045 149.318 
148.645 148.844 148.116 148.289 147.591 147.778 147.128 147.31 146.685 
146.867 146.252 146.429 145.818 145.988 151.17 150.563 150.878 150.235 
150.489 149.77 149.956 149.203 149.364 148.636 148.788 148.113 148.279 
147.659 147.838 147.224 147.374 146.75 146.885 147.561 148.092 148.142 
148.771 148.577 148.68 149.345 149.385 150.037 149.047 149.167 149.891 
149.967 150.691 150.721 151.472 149.629 149.723 150.549 150.598 151.452 
151.469 152.351 152.324 153.186 150.299 150.412 151.364 151.408 152.394 
152.389 153.4 153.345 154.301 154.168 155.009 150.942 151.124 152.164 
152.29 153.362 153.422 154.515 154.497 155.535 155.394 156.306 156.053 
156.848 151.476 151.743 152.822 153.06 154.203 154.378 155.569 155.644 
156.817 156.725 157.794 157.516 158.454 158.037 158.833 151.871 152.217 
153.337 153.676 154.93 155.218 156.591 156.766 158.143 158.119 159.365 
159.131 160.204 159.802 160.681 160.127 160.788 152.193 152.579 153.777 
154.19 155.587 155.989 157.563 157.877 159.447 159.54 160.865 160.715 
161.749 161.47 162.284 161.896 162.487 161.934 162.31 134.672 134.045 
134.468 134.76 133.684 133.959 134.239 134.617 134.897 133.669 133.733 
133.92 134.152 134.363 134.73 134.982 133.907 133.783 133.795 133.868 
133.992 134.256 134.536 134.894 135.269 134.338 134.037 133.902 133.785 
133.813 133.948 134.236 134.56 135.011 135.361 135.859 135.034 134.551 
134.4 134.052 134.059 133.938 134.169 134.333 134.733 135.087 135.54 
135.962 136.445 135.958 135.376 135.256 134.763 134.823 134.467 134.676 
134.5 134.785 134.855 135.209 135.54 135.999 136.481 137.001 136.931 
136.36 136.245 135.723 135.788 135.381 135.598 135.249 135.491 135.204 
135.488 135.424 135.892 136.136 136.775 137.158 137.788 137.842 137.33 
137.237 136.723 136.752 136.339 136.519 136.185 136.421 136.076 136.338 
136.037 136.464 136.382 137.048 137.196 137.939 138.147 138.781 135.165 
135.225 135.427 135.959 135.37 135.557 136.087 136.287 136.861 135.447 
135.669 136.236 136.468 137.045 137.238 137.84 135.658 135.748 136.302 
136.568 137.181 137.426 138.018 138.239 138.885 136.23 136.122 136.611 
136.701 137.335 137.549 138.18 138.405 139.051 139.311 139.991 136.91 
136.799 137.27 137.19 137.781 137.836 138.493 138.623 139.293 139.496 
140.195 140.431 141.079 137.501 137.447 137.932 137.866 138.382 138.377 
138.973 139.035 139.679 139.806 140.498 140.684 141.366 141.526 142.122 
138.186 138.056 138.53 138.459 138.942 138.931 139.472 139.52 140.119 
140.217 140.862 141.017 141.687 141.851 142.479 142.59 143.153 139.048 
138.812 139.243 139.091 139.579 139.5 140.047 140.03 140.619 140.659 
141.274 141.379 142.012 142.165 142.784 142.934 143.506 143.614 144.132 
135.406 136.197 135.906 136.179 137.072 136.737 137.009 136.742 137.037 
138.038 137.648 137.898 137.594 137.9 137.609 137.929 139.124 138.677 
138.91 138.521 138.824 138.506 138.87 138.583 139.053 140.263 139.822 
140.085 139.62 139.915 139.508 139.904 139.584 140.086 139.841 140.428 
141.314 140.938 141.237 140.826 141.145 140.7 141.082 140.694 141.183 
140.895 141.449 141.228 141.796 142.299 141.937 142.236 141.912 142.269 
141.914 142.275 141.889 142.292 141.974 142.466 142.229 142.772 142.56 
143.115 143.313 142.927 143.211 142.881 143.25 142.963 143.337 143.005 
143.347 143.019 143.437 143.201 143.73 143.538 144.099 143.889 144.432 
144.299 143.941 144.205 143.861 144.201 143.92 144.315 144.02 144.377 
144.036 144.414 144.142 144.642 144.466 145.021 144.846 145.352 145.147 
145.595 150.544 149.992 150.034 149.459 149.332 149.452 148.946 148.911 
148.258 148.579 148.75 148.305 148.38 147.786 147.699 147.032 147.82 
147.972 147.479 147.64 147.044 147.115 146.428 146.433 145.804 147.09 
147.206 146.621 146.742 146.039 146.179 145.454 145.632 144.983 145.15 
144.576 146.352 146.449 145.835 145.891 145.135 145.162 144.404 144.555 
143.956 144.205 143.668 143.872 143.307 145.671 145.71 145.097 145.126 
144.423 144.375 143.643 143.644 143.062 143.222 142.737 142.933 142.382 
142.551 141.983 145.118 145.087 144.476 144.448 143.796 143.742 143.06 
143.008 142.389 142.441 141.906 142.041 141.482 141.626 141.049 141.236 
140.749 144.619 144.583 143.988 143.913 143.281 143.192 142.542 142.463 
141.827 141.805 141.211 141.26 140.684 140.771 140.213 140.347 139.864 
140.079 139.694 
POINT_DATA 1002
SCALARS Distance double
LOOKUP_TABLE default
139.145 138.31 138.328 139.149 138.283 140.103 139.176 138.213 140.225 
141.3 139.342 138.29 140.475 141.63 142.682 139.662 138.594 140.815 
142.016 143.131 144.146 140.04 139.044 141.121 142.304 143.501 144.632 
145.698 140.481 139.55 141.511 142.636 143.861 145.083 146.228 147.259 
140.989 140.069 142.107 143.262 144.467 145.711 146.849 147.85 148.752 
141.516 140.636 142.71 143.961 145.177 146.449 147.645 148.613 149.445 
150.238 142.118 141.33 143.237 144.482 145.717 147.037 148.378 149.482 
150.33 151.076 151.781 137.476 137.508 136.547 136.561 135.569 137.412 
135.569 134.737 136.423 137.232 134.698 134.161 135.414 136.188 137.22 
133.911 133.734 134.447 135.191 136.15 137.541 133.281 133.491 133.577 
134.325 135.246 136.542 138.133 133.202 133.641 133.229 133.865 134.728 
135.82 137.34 138.836 133.764 134.185 133.669 134.113 134.823 135.611 
136.829 138.312 139.551 134.633 134.926 134.542 134.836 135.401 135.95 
136.727 137.98 139.266 140.307 135.631 135.495 136.485 136.393 137.312 
135.59 137.327 138.279 136.625 136.045 138.638 139.609 137.85 137.246 
136.595 140.197 141.036 139.4 138.636 137.84 137.126 141.598 142.346 
140.872 140.106 139.242 138.482 138.071 142.949 143.674 142.204 141.462 
140.689 139.982 139.544 139.351 144.349 144.957 143.638 142.885 142.173 
141.549 141.085 140.767 140.497 145.581 146.009 145.038 144.386 143.735 
143.168 142.695 142.298 141.907 141.541 142.677 143.048 144.417 143.533 
144.94 146.454 143.993 145.464 147.005 148.701 144.438 145.93 147.471 
149.096 151.05 144.904 146.362 147.893 149.434 151.273 153.387 145.413 
146.749 148.259 149.755 151.485 153.598 155.664 145.952 147.128 148.569 
150.045 151.643 153.659 155.841 157.706 146.411 147.476 148.849 150.325 
151.807 153.573 155.67 157.715 159.373 146.75 147.721 149.026 150.5 
151.953 153.504 155.341 157.376 159.292 160.784 143.646 145.535 144.841 
147.906 146.929 146.164 150.685 149.861 148.656 147.651 153.311 152.965 
151.917 150.412 149.201 155.585 155.335 154.657 153.32 151.776 150.519 
157.728 157.413 156.766 155.707 154.325 152.892 151.546 159.594 159.485 
159.016 158.189 157.048 155.628 154.005 152.409 161.051 161.089 160.933 
160.545 159.862 158.718 156.985 154.96 153.15 162.32 162.32 163.557 
163.298 164.417 162.182 164.329 165.249 163.022 162.04 165.643 166.041 
164.096 162.856 161.864 166.348 166.121 165.273 163.764 162.828 161.356 
165.818 165.447 165.504 164.534 163.559 162.271 159.908 164.885 164.634 
164.816 164.481 163.838 162.532 160.303 157.545 164.066 163.766 163.998 
163.732 163.269 162.104 160.012 157.503 155.138 162.99 162.611 163.001 
162.646 162.052 161.013 159.27 157.135 155.091 153.305 161.352 163.139 
161.717 163.495 161.475 164.338 162.898 160.513 164.363 164.781 161.585 
159.263 163.612 164.436 165.056 160.187 158.207 162.536 164.011 164.566 
165.393 159.048 157.434 161.204 163.296 164.33 164.791 165.303 158.144 
156.698 159.81 161.754 163.362 164.176 164.541 164.714 157.216 155.813 
158.637 160.097 161.577 162.804 163.529 163.821 163.88 156.182 154.928 
157.547 158.847 160.03 161.165 162.141 162.699 162.854 162.812 146.834 
147.695 147.771 148.882 148.936 148.905 150.277 150.23 150.245 150.38 
151.566 151.362 151.532 151.656 151.904 152.543 152.177 152.665 152.862 
153.248 153.502 153.349 152.824 153.758 154.191 154.726 155.139 155.302 
154.181 153.505 154.836 155.5 156.227 156.852 157.219 157.358 155.038 
154.234 155.832 156.551 157.357 158.281 159.096 159.522 159.522 145.821 
146.692 145.571 146.463 145.191 147.608 146.124 144.832 147.335 148.65 
145.917 144.722 147.12 148.278 149.793 145.879 144.713 147.131 148.194 
149.36 150.855 145.701 144.584 147.001 148.254 149.298 150.442 151.691 
145.46 144.494 146.58 147.914 149.212 150.327 151.37 152.394 145.426 
144.561 146.327 147.432 148.776 150.121 151.266 152.192 153.107 145.49 
144.636 146.345 147.275 148.396 149.699 151.03 152.135 152.959 153.819 