# vtk DataFile Version 4.0
vtk output
ASCII
DATASET POLYDATA
POINTS 1002 float
-85.0789 -82.1124 72.6568 -85.2312 -81.4128 71.5329 -84.7125 -81.2131 72.2482 
-84.4757 -81.9857 73.3837 -83.9832 -81.1208 72.8953 -84.8194 -82.9396 73.8018 
-83.7545 -81.979 74.0634 -83.1454 -81.1614 73.5058 -84.2146 -82.9145 74.5802 
-84.5419 -83.9556 75.0535 -83.017 -82.1104 74.83 -82.4355 -81.2304 74.313 
-83.5725 -83.0298 75.4216 -83.9666 -84.1115 75.9834 -84.3477 -85.1728 76.5615 
-82.419 -82.2403 75.9008 -81.9796 -81.2647 75.5562 -82.907 -83.2495 76.3965 
-83.2976 -84.3982 76.9657 -83.7228 -85.5432 77.5442 -84.1843 -86.5702 78.1015 
-82.0109 -82.3924 77.3144 -81.6948 -81.4513 77.1134 -82.3394 -83.4762 77.5567 
-82.5886 -84.7418 77.9354 -82.9377 -86.0171 78.4153 -83.4622 -87.1259 78.9381 
-83.8676 -88.2108 79.4674 -81.557 -82.8493 78.7441 -81.3006 -81.9489 78.4735 
-81.8336 -83.8786 78.8825 -82.0257 -85.1618 79.0113 -82.2461 -86.5432 79.2961 
-82.6948 -87.747 79.7402 -83.1452 -88.8862 80.2951 -83.3981 -90.0678 80.8853 
-80.7808 -83.6052 79.7693 -80.5884 -82.5956 79.3773 -81.1197 -84.5489 80.0774 
-81.4988 -85.6951 80.227 -81.7913 -87.0962 80.42 -82.1577 -88.3732 80.7991 
-82.5735 -89.5305 81.3124 -82.8261 -90.7763 81.8788 -83.0278 -91.9234 82.4211 
-79.8822 -84.3384 80.4777 -79.7663 -83.1611 80.1353 -80.2849 -85.2357 80.8991 
-80.9255 -86.149 81.2594 -81.4593 -87.4965 81.6091 -81.8245 -88.9349 82.0636 
-82.1999 -90.1493 82.5726 -82.4754 -91.4097 83.0478 -82.6225 -92.6795 83.4769 
-82.8549 -93.6531 83.8667 -79.3187 -84.8786 81.2873 -79.2221 -83.5878 81.0678 
-79.7565 -85.8063 81.6166 -80.5401 -86.5389 82.0445 -81.2732 -87.7471 82.5899 
-81.6469 -89.3809 83.219 -81.8983 -90.8069 83.8012 -82.1855 -92.0848 84.2515 
-82.3602 -93.4307 84.59 -82.479 -94.5724 84.8691 -82.7101 -95.341 85.1272 
-85.0329 -80.5707 70.9117 -84.4474 -80.3151 71.642 -84.797 -79.6151 70.3947 
-84.1447 -79.2929 71.1702 -84.5371 -78.5982 69.9798 -83.5994 -80.2143 72.3056 
-83.8121 -78.2366 70.8111 -84.2185 -77.5935 69.5489 -83.2477 -79.1408 71.8926 
-82.7193 -80.2002 72.9595 -83.3608 -77.2016 70.3724 -83.8278 -76.516 69.171 
-82.832 -78.0221 71.553 -82.3865 -79.0284 72.5799 -82.0692 -80.172 73.8749 
-82.9111 -76.0144 69.9727 -83.5537 -75.2347 69.0844 -82.2708 -76.8879 71.1161 
-81.9181 -77.8225 72.24 -81.7584 -78.9839 73.5446 -81.6711 -80.2523 75.3074 
-82.833 -74.6737 70.0074 -83.6069 -73.9812 69.357 -81.9937 -75.6297 70.9126 
-81.4493 -76.6085 72.0024 -81.3465 -77.7907 73.314 -81.3601 -79.2362 75.0941 
-81.3913 -80.61 76.9813 -83.1441 -73.5957 70.5966 -83.91 -73.1711 69.9688 
-82.3111 -74.4684 71.3542 -81.5329 -75.4641 72.2766 -81.1668 -76.5853 73.4141 
-81.0853 -78.1312 75.0264 -81.0638 -79.7291 76.8591 -80.9657 -81.1221 78.3218 
-83.5388 -73.0579 71.5465 -84.2927 -72.8821 70.8965 -82.841 -73.7263 72.2882 
-82.077 -74.6674 73.1172 -81.4705 -75.6278 74.0214 -81.1192 -76.9707 75.281 
-80.8636 -78.6836 76.907 -80.6372 -80.1879 78.3185 -80.2757 -81.5877 79.302 
-83.9252 -72.9503 72.5898 -84.7208 -72.9024 71.9612 -83.2625 -73.3933 73.311 
-82.5835 -74.2192 74.1171 -81.9258 -75.1086 74.9087 -81.4198 -76.1411 75.8436 
-80.9652 -77.646 77.1638 -80.5123 -79.2373 78.53 -80.0688 -80.5741 79.5231 
-79.5881 -81.9906 80.2889 -84.6791 -73.0675 73.3744 -83.8782 -73.2408 74.0755 
-84.741 -73.4531 74.7129 -83.9011 -73.7071 75.5453 -84.8438 -74.0387 76.0537 
-83.1374 -73.8127 74.8981 -83.9718 -74.4362 76.9827 -84.8846 -74.9189 77.4086 
-83.052 -74.3981 76.4385 -82.3986 -74.7192 75.7385 -84.0633 -75.6677 78.2829 
-84.8627 -76.1804 78.6276 -83.1171 -75.407 77.8534 -82.2926 -75.4922 77.2829 
-81.7842 -75.7248 76.5667 -84.1391 -77.1513 79.5718 -84.8237 -77.4736 79.9332 
-83.2871 -76.8772 79.1869 -82.3753 -76.726 78.7744 -81.6905 -76.7494 78.2658 
-81.2517 -77.0215 77.6841 -84.1479 -78.2877 81.1877 -84.7692 -78.4733 81.5309 
-83.3755 -78.1819 80.7297 -82.4812 -78.0692 80.3232 -81.6866 -78.0418 79.9835 
-81.0687 -78.2157 79.5635 -80.6447 -78.6212 79.0416 -84.1192 -79.2022 82.8271 
-84.7356 -79.4425 82.9863 -83.3637 -79.1284 82.4195 -82.4987 -79.1372 81.9341 
-81.7076 -79.2372 81.5745 -80.9971 -79.4604 81.2452 -80.3623 -79.7083 80.7688 
-80.0201 -80.04 80.1361 -84.136 -80.3719 83.9878 -84.7631 -80.6398 83.9966 
-83.3818 -80.2408 83.7554 -82.5556 -80.2505 83.337 -81.8142 -80.3981 82.9183 
-81.1109 -80.6575 82.548 -80.3384 -80.8495 82.1506 -79.708 -80.9905 81.6168 
-79.4697 -81.3605 80.928 -84.2076 -81.7631 84.8023 -84.8231 -81.9292 84.7998 
-83.474 -81.658 84.6759 -82.702 -81.644 84.4016 -82.0335 -81.7333 84.0438 
-81.4003 -81.9089 83.6178 -80.6276 -82.0335 83.1914 -79.8385 -82.0882 82.8286 
-79.3121 -82.3442 82.3613 -79.1316 -82.9229 81.7022 -79.1765 -84.8536 82.3267 
-79.2919 -84.2191 83.0614 -79.7481 -86.2458 83.7509 -79.6459 -83.6242 83.5623 
-79.9858 -85.7463 84.416 -80.4082 -87.966 85.176 -80.2636 -83.3737 83.8243 
-80.3643 -85.2329 84.7182 -80.6553 -87.667 85.6887 -80.5076 -90.0646 86.5217 
-81.052 -83.3592 84.222 -80.8936 -85.0186 85.0005 -81.0203 -87.3416 86.0257 
-80.8872 -89.9281 87.018 -80.36 -92.0851 87.7177 -81.7494 -83.3107 84.7686 
-81.503 -84.9753 85.576 -81.4137 -87.1357 86.5381 -81.3325 -89.7672 87.5855 
-80.9545 -92.1516 88.3579 -80.5935 -94.0739 88.7874 -82.3268 -83.2352 85.1669 
-82.0468 -84.9151 86.1091 -81.812 -86.9196 87.118 -81.6363 -89.4515 88.154 
-81.3948 -92.0853 89.0094 -81.1306 -94.4868 89.4904 -81.0625 -96.785 89.8599 
-83.0081 -83.2028 85.4163 -82.6226 -84.8671 86.3789 -82.2947 -86.7297 87.4534 
-81.9726 -89.028 88.4992 -81.6759 -91.6617 89.3979 -81.4676 -94.4396 89.9913 
-81.3981 -97.2889 90.4065 -81.4144 -100.03 90.8617 -83.7895 -83.1966 85.5917 
-83.3536 -84.8101 86.5387 -82.9562 -86.5884 87.599 -82.5458 -88.6919 88.6559 
-82.1131 -91.1727 89.5724 -81.8144 -93.9761 90.2337 -81.7154 -97.0582 90.7446 
-81.681 -100.125 91.2412 -81.5798 -102.802 91.6165 -84.4976 -83.2052 85.6722 
-84.1044 -84.705 86.6374 -83.6953 -86.4019 87.6436 -83.2735 -88.3679 88.6792 
-82.7826 -90.7195 89.6472 -82.329 -93.455 90.3574 -82.0867 -96.4767 90.9221 
-81.9847 -99.5763 91.5385 -81.8341 -102.409 92.0198 -81.57 -104.763 92.1092 
-79.5514 -86.129 82.5529 -80.2649 -87.6351 84.0729 -80.2933 -87.0146 82.8869 
-80.513 -89.7968 85.7356 -80.8466 -89.0107 84.6107 -81.1264 -88.1428 83.4902 
-80.0829 -92.1052 87.1828 -80.5127 -91.8173 86.4868 -81.2243 -90.9127 85.4438 
-81.5603 -89.9554 84.2921 -80.0273 -93.9265 88.223 -79.9371 -94.0708 87.7842 
-80.5667 -93.8674 87.1683 -81.2856 -92.9029 86.1533 -81.6579 -91.7311 84.9745 
-80.6522 -96.31 89.3056 -80.2209 -95.9951 88.7122 -80.2049 -95.9527 88.1522 
-80.7314 -95.5073 87.4633 -81.3669 -94.4198 86.5266 -81.8465 -93.1543 85.4306 
-81.2259 -99.9237 90.5563 -80.942 -99.4044 89.987 -80.6201 -98.8303 89.1763 
-80.6167 -98.1887 88.3985 -81.0466 -97.2465 87.7052 -81.6118 -95.991 86.8535 
-82.0671 -94.6324 85.7687 -81.4081 -103.422 91.4335 -81.2803 -103.612 91.1056 
-81.1075 -103.293 90.3906 -80.9509 -102.366 89.4618 -81.0243 -100.967 88.7393 
-81.3467 -99.3721 88.0952 -81.7703 -97.6633 87.1701 -82.167 -95.9836 86.0171 
-81.3161 -105.799 91.7557 -81.1355 -106.7 91.4223 -81.0675 -107.266 90.9254 
-81.0848 -106.964 90.1666 -81.1595 -105.529 89.4644 -81.275 -103.423 88.9579 
-81.4809 -101.137 88.2947 -81.8459 -98.8748 87.3041 -82.2981 -96.8859 86.1875 
-81.2123 -107.159 92.0256 -80.8285 -108.409 91.3937 -80.694 -109.873 91.5366 
-80.1005 -111.304 90.7657 -80.2389 -112.904 91.0381 -80.5473 -109.627 90.8248 
-79.5151 -114.421 90.2665 -80.1716 -115.529 90.606 -79.6813 -112.491 90.0032 
-80.5461 -110.346 90.1931 -79.6462 -116.875 89.5674 -80.6112 -116.876 89.8338 
-79.1209 -115.131 89.2715 -79.8185 -112.755 89.3136 -80.8433 -109.719 89.5876 
-80.4533 -117.689 88.4239 -81.2935 -116.805 88.9457 -79.4997 -116.845 88.3327 
-79.5216 -114.555 88.6067 -80.5032 -111.503 88.9723 -81.1819 -107.654 89.2028 
-81.3143 -116.932 87.6709 -81.9985 -115.709 88.5537 -80.4387 -116.983 87.3985 
-80.0296 -115.496 87.957 -80.5375 -112.681 88.5411 -81.1819 -108.923 88.8063 
-81.3869 -104.83 88.7887 -82.1018 -115.321 87.6858 -82.7648 -113.967 88.476 
-81.3088 -115.826 87.1606 -80.8121 -115.09 87.5192 -80.9993 -112.967 88.2179 
-81.4385 -109.556 88.4891 -81.6032 -105.511 88.4157 -81.663 -101.811 88.0494 
-83.0057 -113.143 87.8752 -83.5623 -111.777 88.3212 -82.2398 -113.838 87.4539 
-81.6153 -113.439 87.5004 -81.5616 -111.825 87.9857 -81.8557 -109.087 88.2856 
-82.0134 -105.541 88.1688 -82.0582 -101.961 87.7605 -82.1662 -99.0644 87.0704 
-83.905 -110.407 87.9329 -84.2786 -109.284 88.1501 -83.3002 -111.065 87.7481 
-82.6238 -110.842 87.7027 -82.297 -109.549 87.8882 -82.3679 -107.385 88.0848 
-82.4827 -104.667 88.0071 -82.5564 -101.715 87.597 -82.6734 -99.0199 86.8999 
-82.7444 -96.9322 86.0265 -81.6802 -104.983 92.6404 -81.3322 -107.556 92.5238 
-81.8331 -104.883 93.1379 -81.6782 -107.506 92.9463 -82.2543 -104.305 93.3234 
-81.0112 -110.45 91.8972 -82.4329 -106.776 93.1659 -83.0518 -103.373 93.2247 
-81.6845 -110.123 92.0994 -80.8681 -113.107 91.2031 -83.3474 -105.731 93.2647 
-83.8159 -102.237 92.847 -82.6598 -108.979 92.3834 -81.7044 -111.913 91.1677 
-80.9519 -114.712 90.6032 -83.8729 -104.322 92.8489 -84.3505 -100.581 92.0564 
-83.4751 -107.65 92.7349 -82.6663 -110.251 91.4993 -81.7175 -112.733 90.514 
-81.3013 -115.228 89.9605 -84.2802 -102.07 91.861 -85.1295 -98.4376 91.2731 
-83.8372 -105.676 92.3761 -83.457 -108.533 91.9366 -82.716 -110.816 90.8118 
-82.0688 -113.055 90.0736 -81.9296 -114.877 89.4835 -85.2164 -99.4536 91.1373 
-86.2352 -96.4174 90.8411 -84.3663 -102.836 91.5283 -83.9635 -105.978 91.7262 
-83.6566 -108.607 91.1724 -83.1848 -110.836 90.3164 -82.8157 -112.573 89.7708 
-82.7252 -113.602 89.2215 -86.4259 -97.188 90.756 -87.1484 -94.7581 90.295 
-85.4919 -100.023 91.0067 -84.7345 -102.926 91.2215 -84.3528 -105.644 91.1839 
-84.1422 -108.06 90.667 -83.8695 -109.915 90.027 -83.6021 -111.049 89.4958 
-83.5066 -111.634 88.9112 -87.3158 -95.2828 90.0329 -87.6556 -93.2912 89.2765 
-86.7079 -97.6534 90.5289 -85.9229 -100.183 90.7883 -85.2496 -102.633 90.9206 
[...]
CELL_DATA 2000
SCALARS Distance double
LOOKUP_TABLE default
137.154 137.059 137.436 138.07 136.925 137.335 138.034 138.393 139.091 
136.903 137.27 138.067 138.421 139.229 139.54 140.37 137.161 137.402 
138.271 138.569 139.464 139.77 140.683 140.971 141.887 137.777 137.852 
138.726 138.903 139.804 140.067 140.992 141.302 142.24 142.536 143.45 
138.585 138.595 139.428 139.484 140.349 140.492 141.407 141.644 142.6 
142.885 143.849 144.117 145.057 139.211 139.328 140.107 140.197 141.028 
141.124 142.045 142.185 143.188 143.365 144.405 144.603 145.639 145.825 
146.816 139.577 139.789 140.542 140.743 141.558 141.753 142.695 142.891 
143.948 144.106 145.203 145.325 146.421 146.538 147.594 147.686 148.653 
139.992 140.153 140.96 141.138 141.999 142.218 143.227 143.509 144.665 
144.908 146.074 146.211 147.332 147.42 148.501 148.559 149.553 149.555 
150.431 136.539 135.563 136.181 136.419 134.57 135.175 135.378 136.006 
136.235 133.574 134.17 134.343 134.947 135.149 135.81 136.132 132.512 
133.127 133.273 133.893 134.068 134.719 135.036 135.788 136.317 131.448 
132.01 132.099 132.748 132.903 133.602 133.927 134.709 135.298 136.153 
136.922 130.688 131.035 131.107 131.61 131.784 132.427 132.809 133.609 
134.289 135.196 136.07 136.94 137.786 130.499 130.56 130.735 130.934 
131.222 131.568 132.034 132.631 133.402 134.26 135.232 136.135 137.025 
137.805 138.487 130.868 130.703 130.998 130.968 131.403 131.456 131.989 
132.221 132.976 133.561 134.55 135.363 136.288 137.046 137.714 138.374 
138.887 131.599 131.302 131.617 131.478 131.963 131.918 132.469 132.487 
133.136 133.393 134.261 134.833 135.758 136.4 137.105 137.662 138.186 
138.751 139.281 132.164 133.087 132.434 132.184 134.155 133.441 133.207 
132.603 132.521 135.372 134.598 134.366 133.689 133.601 133.038 133.032 
136.74 135.928 135.739 134.951 134.859 134.187 134.199 133.607 133.693 
138.207 137.407 137.322 136.467 136.415 135.596 135.637 134.912 135.065 
134.438 134.749 139.685 138.939 138.933 138.116 138.099 137.254 137.306 
136.508 136.68 135.961 136.257 135.671 136.108 141.099 140.421 140.436 
139.693 139.67 138.893 138.926 138.184 138.334 137.628 137.837 137.184 
137.439 136.948 137.304 142.424 141.803 141.836 141.147 141.136 140.403 
140.437 139.738 139.876 139.215 139.37 138.699 138.817 138.21 138.389 
137.974 138.299 143.692 143.108 143.181 142.53 142.572 141.868 141.946 
141.249 141.397 140.723 140.863 140.171 140.259 139.577 139.713 139.132 
139.416 138.998 139.415 140.295 140.356 140.818 141.986 140.592 140.951 
142.145 142.718 144.078 141.059 141.256 142.337 142.866 144.265 144.904 
146.272 141.698 141.806 142.789 143.123 144.472 145.085 146.562 147.11 
148.342 142.303 142.464 143.459 143.675 144.933 145.396 146.921 147.475 
148.883 149.202 150.338 142.827 143.037 144.055 144.317 145.49 145.891 
147.301 147.869 149.337 149.798 151.09 151.311 152.574 143.386 143.562 
144.552 144.836 145.955 146.348 147.609 148.162 149.527 150.134 151.47 
151.966 153.306 153.694 155.164 143.959 144.122 145.064 145.317 146.388 
146.742 147.921 148.395 149.656 150.235 151.54 152.168 153.54 154.183 
155.644 156.237 157.666 144.45 144.644 145.541 145.799 146.798 147.134 
148.23 148.663 149.846 150.365 151.61 152.207 153.543 154.249 155.69 
156.443 157.835 158.465 159.603 140.637 142.316 141.49 141.652 144.44 
143.409 143.497 142.566 142.735 146.683 145.676 145.857 144.709 144.859 
143.815 144.088 148.672 147.85 148.2 147.213 147.512 146.305 146.567 
145.392 145.687 150.511 149.705 150.052 149.368 149.814 148.944 149.242 
148.071 148.228 147.019 147.161 152.832 151.742 152.06 151.176 151.614 
150.935 151.312 150.488 150.622 149.534 149.55 148.387 148.42 155.716 
154.503 155.057 153.703 154.202 152.996 153.466 152.46 152.793 151.779 
151.92 150.779 150.805 149.609 149.601 158.358 157.481 158.269 157.056 
157.724 156.222 156.757 155.204 155.647 154.24 154.561 153.253 153.367 
152.06 152 150.738 150.631 160.194 159.749 160.482 159.878 160.561 
159.62 160.142 158.779 159.101 157.52 157.71 156.156 156.188 154.706 
154.539 153.141 152.886 151.64 151.437 161.155 162.447 161.693 161.466 
163.797 162.951 162.74 162.008 161.708 165.349 164.403 164.03 163.212 
162.964 162.191 161.566 166.567 165.902 165.403 164.476 163.97 163.276 
162.762 161.827 160.724 166.861 166.724 166.274 165.617 164.886 164.167 
163.503 162.794 161.848 160.715 159.282 166.419 166.606 166.239 166.044 
165.381 164.883 164.123 163.464 162.489 161.583 160.21 159.042 157.503 
165.68 165.985 165.655 165.721 165.184 165.04 164.345 163.927 162.895 
162.116 160.664 159.662 158.044 157.051 155.571 164.685 165.138 164.841 
165.053 164.506 164.572 163.838 163.756 162.697 162.254 160.75 159.937 
158.239 157.345 155.801 155.018 153.734 163.37 163.973 163.666 164.079 
163.462 163.677 162.788 162.885 161.749 161.643 160.207 159.755 158.133 
157.426 155.899 155.166 153.895 153.244 152.195 161.206 161.672 161.852 
162.553 161.879 162.278 163.127 163.224 163.962 161.788 162.394 163.336 
163.672 164.463 164.657 165.437 161.471 162.268 163.254 163.717 164.36 
164.77 165.412 165.885 166.462 160.592 161.742 162.823 163.538 164.083 
164.44 164.779 165.34 165.81 166.458 166.7 159.132 160.449 161.503 
162.727 163.396 164.035 164.25 164.635 164.906 165.519 165.857 166.389 
166.363 157.856 158.874 159.709 161.021 161.777 162.927 163.31 163.993 
164.159 164.687 164.909 165.466 165.546 165.91 165.66 156.966 157.734 
158.375 159.331 159.992 161.126 161.66 162.693 162.981 163.763 163.878 
164.496 164.466 164.958 164.707 165.045 164.611 155.94 156.78 157.331 
158.156 158.69 159.568 160.058 161.016 161.402 162.333 162.535 163.298 
163.256 163.806 163.527 163.937 163.502 163.838 163.307 144.958 146.128 
145.717 146.107 147.395 146.966 147.407 146.958 147.392 148.716 148.291 
148.76 148.305 148.798 148.333 148.836 150.021 149.653 150.189 149.721 
150.273 149.804 150.414 149.909 150.487 151.241 150.975 151.646 151.228 
151.886 151.398 152.111 151.595 152.299 151.694 152.3 152.399 152.217 
153.012 152.707 153.492 153.089 153.89 153.399 154.193 153.609 154.342 
153.636 154.284 153.508 153.405 154.256 154.046 154.893 154.645 155.533 
155.181 156.042 155.545 156.379 155.76 156.551 155.78 156.481 154.473 
154.488 155.36 155.232 156.076 155.948 156.93 156.764 157.764 157.394 
158.309 157.791 158.664 158.042 158.806 158.016 158.617 155.237 155.37 
156.257 156.233 157.062 157.033 158.085 158.109 159.3 159.12 160.141 
159.7 160.55 160.031 160.755 160.151 160.671 159.927 160.283 144.495 
144.169 144.741 145.614 143.87 144.421 145.281 145.901 146.844 143.555 
144.112 144.927 145.545 146.469 147.148 148.124 143.226 143.787 144.591 
145.174 146.035 146.713 147.667 148.399 149.359 142.965 143.496 144.345 
144.878 145.715 146.289 147.17 147.871 148.808 149.565 150.494 142.737 
143.257 144.095 144.652 145.493 146.023 146.848 147.421 148.283 148.97 
149.875 150.642 151.573 142.465 142.968 143.704 144.311 145.104 145.73 
146.535 147.123 147.926 148.514 149.324 149.999 150.867 151.674 152.604 
142.224 142.654 143.304 143.85 144.577 145.224 146.009 146.694 147.508 
148.152 148.923 149.508 150.241 150.925 151.744 152.617 153.506 142.095 
142.444 143.076 143.506 144.207 144.731 145.475 146.106 146.905 147.622 
148.441 149.098 149.809 150.367 151.027 151.721 152.499 153.412 154.246 
142.251 142.894 142.789 143.264 143.64 143.527 144.052 143.895 144.407 
144.382 144.309 144.871 144.727 145.228 145.065 145.608 145.171 145.093 
145.687 145.537 146.022 145.857 146.378 146.293 146.959 146.117 145.999 
146.666 146.431 146.93 146.67 147.214 147.086 147.818 147.775 148.541 
147.042 146.976 147.657 147.464 147.982 147.682 148.247 148.039 148.827 
148.733 149.544 149.394 150.005 147.727 147.744 148.305 148.283 148.769 
148.66 149.227 149.114 149.883 149.804 150.585 150.419 150.99 150.726 
151.191 148.241 148.263 148.727 148.751 149.244 149.284 149.927 149.979 
150.769 150.786 151.543 151.42 151.985 151.721 152.215 151.947 152.562 
148.697 148.722 149.228 149.21 149.822 149.832 150.639 150.695 151.604 
151.627 152.445 152.342 152.988 152.753 153.346 153.072 153.766 153.524 
154.295 149.109 150.226 149.686 149.78 151.819 151.091 151.279 150.507 
150.568 153.48 152.802 153.067 152.271 152.425 151.493 151.556 154.916 
154.345 154.602 154.001 154.238 153.457 153.537 152.567 152.56 156.501 
155.837 156.15 155.484 155.766 155.119 155.271 154.468 154.402 153.464 
153.325 158.325 157.664 158.157 157.304 157.643 156.768 156.988 156.137 
156.171 155.238 155.073 154.098 153.862 159.908 159.483 160.087 159.42 
159.812 158.886 159.07 158.047 158.115 157.091 157.036 155.951 155.745 
154.632 154.35 161.182 160.89 161.483 161.103 161.527 160.902 161.055 
160.149 160.103 159.093 158.99 157.958 157.787 156.661 156.384 155.188 
154.877 162.418 162.104 162.656 162.327 162.764 162.343 162.558 161.895 
161.831 160.945 160.717 159.773 159.499 158.545 158.225 157.192 156.83 
155.713 155.371 148.834 148.539 149.041 149.856 148.199 148.736 149.671 
150.289 151.386 148.005 148.495 149.54 150.179 151.429 152.018 153.129 
147.95 148.433 149.546 150.163 151.473 152.1 153.273 153.713 154.635 
147.856 148.41 149.508 150.161 151.365 152.06 153.166 153.752 154.689 
155.132 156.077 147.614 148.234 149.228 149.948 150.985 151.749 152.729 
153.451 154.378 155.03 156.017 156.621 157.707 147.24 147.874 148.735 
149.469 150.395 151.19 152.135 152.91 153.865 154.61 155.64 156.395 
157.499 158.206 159.249 146.811 147.421 148.203 148.884 149.747 150.524 
151.485 152.3 153.295 154.085 155.106 155.916 157.01 157.839 158.93 
159.633 160.584 146.421 146.985 147.748 148.358 149.175 149.884 150.807 
151.63 152.61 153.46 154.422 155.279 156.296 157.218 158.338 159.222 
160.308 160.967 161.88 148.25 147.216 147.833 147.914 145.954 146.705 
146.879 147.47 147.558 144.64 145.397 145.695 146.426 146.619 147.159 
147.311 143.453 144.117 144.383 145.203 145.525 146.209 146.355 146.917 
147.128 142.305 142.947 143.107 143.878 144.173 144.999 145.187 145.859 
145.95 146.658 146.926 141.096 141.773 141.924 142.616 142.798 143.584 
143.752 144.529 144.615 145.364 145.535 146.389 146.699 139.892 140.564 
140.737 141.42 141.543 142.23 142.319 143.055 143.154 143.936 144.103 
144.952 145.226 146.12 146.4 138.763 139.374 139.498 140.189 140.297 
140.968 141.019 141.683 141.766 142.501 142.681 143.501 143.756 144.632 
144.902 145.777 146.008 137.73 138.257 138.311 138.942 139.04 139.704 
139.788 140.432 140.542 141.212 141.409 142.144 142.396 143.187 143.442 
144.28 144.53 145.383 145.624 137.181 136.542 137.138 137.742 135.97 
136.55 137.175 137.77 138.437 135.474 136.034 136.686 137.246 137.919 
138.515 139.202 135.148 135.611 136.288 136.804 137.514 138.069 138.808 
139.346 140.042 135.156 135.438 136.117 136.503 137.249 137.744 138.56 
139.069 139.845 140.28 140.978 135.447 135.604 136.276 136.507 137.248 
137.603 138.439 138.901 139.731 140.166 140.892 141.269 141.952 135.852 
135.959 136.638 136.798 137.537 137.756 138.556 138.884 139.717 140.103 
140.862 141.217 141.898 142.257 142.955 136.343 136.399 137.077 137.208 
137.96 138.128 138.911 139.12 139.935 140.205 141.007 141.279 142.007 
142.272 142.979 143.304 144.04 136.891 136.919 137.564 137.665 138.388 
138.551 139.316 139.507 140.297 140.515 141.323 141.544 142.311 142.502 
143.222 143.434 144.164 144.446 145.177 137.382 138.326 137.919 138.073 
139.348 138.906 139.109 138.684 138.898 140.603 140.031 140.249 139.77 
140.032 139.585 139.84 142.114 141.431 141.625 141.015 141.278 140.773 
141.075 140.589 140.855 143.705 143.018 143.211 142.501 142.707 142.094 
142.382 141.867 142.177 141.651 141.9 145.33 144.644 144.891 144.144 
144.326 143.599 143.816 143.211 143.501 142.981 143.256 142.701 142.89 
147.065 146.347 146.652 145.882 146.1 145.291 145.473 144.725 144.956 
144.336 144.612 144.052 144.274 143.668 143.809 148.855 148.138 148.467 
147.7 147.946 147.117 147.295 146.46 146.643 145.887 146.123 145.468 
145.72 145.086 145.276 144.604 144.747 150.579 149.905 150.236 149.515 
149.768 148.966 149.125 148.284 148.418 147.611 147.782 147.05 147.263 
146.589 146.793 146.113 146.268 145.574 145.721 146.481 147.048 147.114 
147.818 147.611 147.712 148.46 148.5 149.249 148.139 148.282 149.101 
149.178 149.993 150.023 150.873 148.712 148.856 149.763 149.865 150.767 
150.819 151.735 151.758 152.673 149.39 149.514 150.513 150.618 151.641 
151.689 152.688 152.682 153.643 153.61 154.51 150.145 150.276 151.36 
151.473 152.62 152.684 153.821 153.777 154.839 154.709 155.71 155.542 
156.472 150.833 151.051 152.205 152.383 153.621 153.745 155.019 155.031 
156.266 156.116 157.282 157.003 158.094 157.728 158.673 151.312 151.658 
152.851 153.181 154.498 154.76 156.152 156.287 157.677 157.642 158.968 
158.755 159.966 159.58 160.593 160.049 160.8 151.645 152.048 153.248 
153.707 155.085 155.547 157.066 157.409 158.926 159.06 160.446 160.389 
161.596 161.385 162.363 161.956 162.64 162.028 162.448 131.569 130.811 
131.216 131.384 130.459 130.606 130.727 131.102 131.334 130.672 130.504 
130.563 130.639 130.822 131.143 131.477 131.382 130.954 130.909 130.687 
130.749 130.808 131.081 131.429 131.931 132.366 131.797 131.635 131.176 
131.078 130.872 131.004 131.153 131.6 132.03 132.662 133.414 132.82 
132.637 132.022 131.839 131.355 131.364 131.218 131.581 131.814 132.456 
132.875 133.572 134.425 133.865 133.749 133.116 132.987 132.326 132.313 
131.835 132.138 132.029 132.66 132.855 133.616 133.915 134.639 135.405 
134.872 134.803 134.241 134.199 133.578 133.607 133.001 133.244 132.858 
133.407 133.318 134.045 134.149 134.879 135.07 135.742 136.371 135.856 
135.798 135.28 135.277 134.759 134.822 134.291 134.468 134.027 134.424 
134.19 134.777 134.721 135.355 135.409 136.015 136.157 136.727 132.137 
131.966 132.365 133.026 131.872 132.221 132.878 133.285 133.926 131.981 
132.185 132.813 133.157 133.826 134.189 134.829 132.453 132.456 133.055 
133.208 133.882 134.156 134.862 135.173 135.88 133.178 133.068 133.631 
133.616 134.246 134.36 135.069 135.297 136.042 136.315 137.039 134.01 
133.828 134.319 134.231 134.78 134.811 135.466 135.61 136.339 136.543 
137.266 137.49 138.174 135.002 134.716 135.164 134.948 135.439 135.359 
135.963 136.04 136.745 136.899 137.614 137.777 138.457 138.63 139.283 
136.074 135.766 136.225 135.909 136.39 136.134 136.693 136.602 137.265 
137.331 138.029 138.157 138.827 138.965 139.6 139.745 140.342 137.026 
136.789 137.236 136.98 137.435 137.16 137.637 137.426 137.976 137.907 
138.528 138.584 139.221 139.336 139.949 140.075 140.645 140.767 141.284 
132.49 133.371 133.063 133.389 134.251 133.955 134.273 134.016 134.427 
135.127 134.811 135.132 134.891 135.321 135.115 135.616 136.171 135.76 
136.079 135.766 136.222 136.019 136.56 136.363 136.931 137.339 136.904 
137.242 136.828 137.279 136.987 137.564 137.341 137.925 137.712 138.321 
138.465 138.08 138.45 138.046 138.474 138.121 138.671 138.406 139.005 
138.748 139.33 139.117 139.749 139.554 139.193 139.58 139.222 139.635 
139.29 139.773 139.507 140.083 139.847 140.424 140.165 140.741 140.538 
141.153 140.59 140.264 140.652 140.329 140.746 140.41 140.853 140.56 
141.089 140.878 141.462 141.244 141.799 141.554 142.105 141.906 142.475 
141.504 141.234 141.605 141.349 141.778 141.499 141.953 141.643 142.135 
141.873 142.433 142.233 142.794 142.578 143.097 142.868 143.389 143.194 
143.728 148.208 147.735 147.728 147.152 147.105 147.136 146.477 146.5 
145.813 146.279 146.36 145.65 145.736 145.076 145.13 144.514 145.327 
145.423 144.707 144.853 144.28 144.417 143.894 143.937 143.399 144.466 
144.504 143.815 143.923 143.353 143.565 143.059 143.251 142.682 142.787 
142.199 143.743 143.749 143.09 143.119 142.486 142.613 142.006 142.24 
141.613 141.862 141.217 141.449 140.878 143.033 143.063 142.407 142.427 
141.756 141.786 141.106 141.199 140.559 140.739 140.162 140.39 139.875 
140.131 139.678 142.343 142.368 141.731 141.74 141.076 141.072 140.394 
140.4 139.778 139.845 139.339 139.476 139.057 139.228 138.834 139.028 
138.632 141.754 141.741 141.149 141.115 140.484 140.436 139.786 139.748 
139.128 139.153 138.622 138.742 138.307 138.485 138.09 138.268 137.868 
138.038 137.643 
POINT_DATA 1002
SCALARS Distance double
LOOKUP_TABLE default
137.78 136.875 136.81 137.719 136.65 138.714 137.639 136.49 138.747 
139.815 137.685 136.537 138.881 140.063 141.235 137.987 136.962 139.145 
140.37 141.62 142.81 138.613 137.762 139.582 140.69 141.922 143.181 
144.362 139.415 138.584 140.262 141.21 142.325 143.557 144.813 146.003 
139.992 139.062 140.921 141.906 143.025 144.218 145.444 146.664 147.785 
140.318 139.358 141.322 142.436 143.746 145.079 146.316 147.509 148.614 
149.564 140.787 139.837 141.777 142.899 144.348 145.903 147.243 148.44 
149.559 150.491 151.242 135.934 135.801 134.958 134.768 133.987 135.57 
133.758 132.98 134.507 135.373 132.647 131.915 133.419 134.281 135.457 
131.471 130.963 132.183 133.11 134.395 136.047 130.676 130.43 131.18 
131.993 133.326 135.151 137.017 130.58 130.494 130.955 131.538 132.578 
134.308 136.242 137.819 131.043 131.074 131.378 131.883 132.552 133.804 
135.546 137.081 138.247 131.795 131.932 132.018 132.499 133.032 133.829 
135.156 136.578 137.662 138.654 132.766 132.743 133.754 133.831 134.884 
133.052 135.083 136.151 134.188 133.569 136.552 137.519 135.587 134.808 
134.224 138.153 138.952 137.266 136.397 135.709 135.268 139.717 140.39 
138.933 138.103 137.422 136.914 136.595 141.16 141.751 140.435 139.648 
139.032 138.554 138.051 137.678 142.501 143.024 141.85 141.129 140.538 
140.063 139.498 138.908 138.587 143.802 144.253 143.243 142.628 142.085 
141.573 140.955 140.327 139.906 139.76 141.291 141.406 143.265 141.546 
143.486 145.487 141.899 143.57 145.743 147.591 142.568 143.904 145.947 
148.003 149.439 143.255 144.557 146.342 148.481 150.171 151.409 143.773 
145.141 146.777 148.791 150.748 152.357 153.962 144.29 145.596 147.131 
148.926 150.871 152.799 154.77 156.767 144.837 146.07 147.503 149.134 
150.916 152.842 154.988 157.183 159.054 145.297 146.494 147.835 149.358 
151.052 152.871 154.926 157.166 159.163 160.596 142.393 144.57 143.53 
146.974 146.031 145.018 148.992 148.642 147.873 146.815 150.69 150.477 
150.329 149.535 148.343 153.13 152.364 152.005 151.608 150.732 149.582 
156.426 155.623 154.627 153.772 153.006 152.03 150.811 159.261 159.132 
158.432 157.226 155.953 154.734 153.348 151.85 160.941 161.253 161.313 
160.698 159.397 157.794 156.048 154.232 152.584 161.933 162.213 163.203 
163.448 164.751 162.57 165.021 166.284 163.633 162.703 166.409 167.013 
164.785 163.504 162.095 166.757 166.82 165.661 164.22 162.798 160.67 
166.247 166.195 165.716 164.773 163.386 161.3 158.677 165.519 165.333 
165.204 164.638 163.636 161.681 159.028 156.44 164.57 164.159 164.441 
163.881 163.008 161.464 159.122 156.581 154.391 163.201 162.757 163.238 
162.721 161.783 160.478 158.7 156.591 154.536 152.763 161.097 162.536 
161.395 162.915 161.342 163.946 162.94 161.095 164.172 165.285 162.782 
160.549 164.057 164.866 166.096 161.908 159.331 163.792 164.412 165.07 
166.273 160.121 157.958 162.492 163.915 164.436 165.223 166.082 158.558 
157.066 160.464 162.386 163.64 164.413 165.102 165.461 157.593 156.249 
158.987 160.54 162.067 163.248 163.986 164.32 164.35 156.508 155.068 
157.902 159.193 160.455 161.696 162.672 163.124 163.15 163.015 145.326 
146.532 146.528 147.842 147.818 147.85 149.217 149.117 149.227 149.32 
150.631 150.321 150.727 150.871 151.056 151.981 151.43 152.334 152.604 
152.865 152.984 153.247 152.528 153.815 154.338 154.737 154.989 155.064 
154.446 153.557 155.084 155.792 156.481 156.921 157.239 157.361 155.468 
154.401 156.177 156.981 158.032 158.791 159.224 159.537 159.529 143.91 
144.99 143.609 144.667 143.337 146.19 144.337 142.996 145.781 147.441 
144.031 142.653 145.408 146.922 148.644 143.809 142.437 145.2 146.543 
148.051 149.737 143.529 142.248 144.953 146.332 147.676 149.129 150.766 
143.132 142.017 144.455 145.91 147.367 148.743 150.108 151.733 142.816 
141.843 143.969 145.312 146.81 148.352 149.682 150.94 152.566 142.677 
141.767 143.737 144.917 146.2 147.71 149.267 150.486 151.662 153.275 