# vtk DataFile Version 4.0
vtk output
ASCII
DATASET POLYDATA
POINTS 1002 float
-84.0616 -85.9039 73.7729 -84.0568 -85.3276 72.5428 -83.6689 -85.1533 73.2589 
-83.6828 -85.7904 74.5571 -83.2263 -85.0584 74.0737 -83.9936 -86.7166 75.056 
-83.1184 -85.8377 75.3858 -82.7154 -84.964 75.0004 -83.4573 -86.7837 75.7854 
-83.6646 -87.8596 76.299 -82.4384 -85.9613 76.3113 -82.1392 -84.9148 75.9541 
-82.7254 -86.9922 76.6254 -82.9937 -88.0704 77.0591 -83.2401 -89.0575 77.7267 
-81.8817 -86.1375 77.3258 -81.6054 -85.0379 77.0001 -82.1004 -87.1904 77.7026 
-82.3369 -88.2743 78.1073 -82.6674 -89.3156 78.7321 -82.9708 -90.2232 79.446 
-81.4678 -86.3934 78.5024 -81.1805 -85.2857 78.2451 -81.7386 -87.42 78.926 
-81.913 -88.468 79.4173 -82.1654 -89.6274 79.9754 -82.4576 -90.7012 80.5773 
-82.6396 -91.7404 81.0649 -80.9833 -86.6767 79.741 -80.7817 -85.5796 79.3832 
-81.2841 -87.7824 80.169 -81.5063 -88.8765 80.7127 -81.669 -90.1315 81.2475 
-81.8777 -91.3854 81.7141 -82.0168 -92.5208 82.082 -82.0756 -93.6779 82.3641 
-80.4464 -87.0266 80.7286 -80.3402 -85.9993 80.2136 -80.6284 -88.2233 81.2369 
-80.8535 -89.492 81.7951 -81.0323 -90.8496 82.342 -81.2342 -92.208 82.7646 
-81.4219 -93.4104 83.1039 -81.5081 -94.5676 83.3985 -81.572 -95.7016 83.6506 
-79.9677 -87.5634 81.5612 -79.8792 -86.5793 81.0659 -80.052 -88.7499 82.0816 
-80.1966 -90.113 82.6031 -80.374 -91.5533 83.1545 -80.5987 -92.9761 83.645 
-80.8759 -94.2754 84.0673 -81.0942 -95.4878 84.4926 -81.2161 -96.6617 84.8593 
-81.3277 -97.6596 85.1062 -79.5277 -88.241 82.5384 -79.4723 -87.2198 82.1562 
-79.5806 -89.3887 82.9517 -79.6876 -90.6947 83.328 -79.8594 -92.1095 83.7607 
-80.0718 -93.5677 84.2911 -80.3438 -95.0107 84.8455 -80.6505 -96.3905 85.4156 
-80.8954 -97.6764 85.9456 -81.0634 -98.7745 86.3102 -81.219 -99.5959 86.4956 
-83.8408 -84.5987 71.8329 -83.3064 -84.4598 72.5146 -83.5702 -83.7296 71.1712 
-82.957 -83.5599 71.8632 -83.2615 -82.7812 70.5971 -82.8583 -84.2739 73.4231 
-82.6628 -82.5206 71.3807 -82.9334 -81.8618 70.108 -82.5795 -83.2718 72.9205 
-82.4442 -83.9861 74.506 -82.3141 -81.4873 70.9783 -82.6159 -80.8407 69.7501 
-82.2967 -82.2319 72.5805 -82.2093 -82.9813 74.1752 -81.895 -83.8441 75.6115 
-81.9532 -80.3719 70.7033 -82.4385 -79.675 69.6852 -81.8426 -81.2247 72.242 
-81.8074 -82.1448 73.9179 -81.5869 -82.9647 75.4204 -81.333 -83.9851 76.845 
-81.86 -79.2658 70.8788 -82.5322 -78.7155 70.095 -81.5023 -80.1319 72.123 
-81.2663 -81.2652 73.6672 -81.0397 -82.2488 75.2036 -80.947 -83.1239 76.694 
-80.9188 -84.266 78.1145 -82.0863 -78.5112 71.634 -82.8701 -78.1764 70.9736 
-81.5841 -79.2051 72.6052 -81.0784 -80.2976 73.831 -80.4952 -81.3892 75.1217 
-80.275 -82.2983 76.4651 -80.4411 -83.3631 77.8274 -80.5107 -84.6651 79.0764 
-82.475 -78.1679 72.6992 -83.3484 -77.9602 72.0501 -81.9002 -78.6927 73.5529 
-81.3568 -79.615 74.56 -80.5081 -80.6135 75.5573 -79.7828 -81.4622 76.5618 
-79.7167 -82.4712 77.6754 -79.9606 -83.8012 78.8216 -80.019 -85.2146 79.9425 
-82.9588 -78.0901 73.7297 -83.8713 -77.9733 73.0164 -82.2661 -78.4627 74.5625 
-81.7477 -79.2405 75.4608 -81.0153 -80.1945 76.3063 -80.0565 -80.9761 77.0933 
-79.4598 -81.7794 77.9768 -79.4293 -82.9551 78.9902 -79.5639 -84.3863 80.034 
-79.5801 -85.8273 81.0918 -83.8246 -78.1841 74.3487 -82.9352 -78.3051 75.2633 
-83.8311 -78.4535 75.8151 -82.968 -78.6307 76.7596 -83.8778 -78.8318 77.2435 
-82.2416 -78.8262 76.1564 -83.044 -79.3196 78.0218 -83.9412 -79.6248 78.4798 
-82.2529 -79.4185 77.5134 -81.6507 -79.8192 76.9574 -83.1433 -80.4995 79.2317 
-83.9982 -80.7628 79.7284 -82.3247 -80.4299 78.7066 -81.6626 -80.641 78.2114 
-80.8715 -80.8218 77.7066 -83.2346 -81.6408 80.6924 -84.0176 -81.8124 81.1123 
-82.3912 -81.534 80.1766 -81.7395 -81.6136 79.5848 -81.0108 -81.6681 79.0863 
-80.0343 -81.598 78.5735 -83.2623 -82.6103 82.173 -83.9659 -82.8896 82.4073 
-82.4086 -82.3903 81.8689 -81.6865 -82.4204 81.3015 -81.1306 -82.559 80.6877 
-80.3298 -82.5156 80.2293 -79.544 -82.5517 79.6437 -83.1991 -83.8617 83.4368 
-83.8764 -84.1644 83.6041 -82.4184 -83.5222 83.3053 -81.6386 -83.406 82.9432 
-81.0761 -83.5696 82.3241 -80.5417 -83.6397 81.873 -79.835 -83.6234 81.4744 
-79.4068 -83.8881 80.7596 -83.1319 -85.2018 84.6488 -83.8371 -85.3165 84.8364 
-82.4367 -85.019 84.4978 -81.7612 -84.8886 84.2755 -81.1526 -84.9775 83.7763 
-80.6536 -85.0657 83.272 -80.1025 -84.9788 83.0108 -79.5552 -85.043 82.58 
-79.3683 -85.4091 81.8009 -83.1496 -86.269 85.8297 -83.8601 -86.2423 85.982 
-82.479 -86.3111 85.6375 -81.9147 -86.3297 85.4533 -81.3559 -86.4145 85.1274 
-80.7875 -86.5239 84.6373 -80.2605 -86.4749 84.2643 -79.7384 -86.4118 83.999 
-79.345 -86.6013 83.5079 -79.2759 -86.945 82.7922 -79.1363 -88.5768 83.5803 
-79.0641 -88.3366 84.2362 -78.7954 -90.0734 84.9445 -79.2919 -88.0263 84.7956 
-78.8998 -89.8427 85.4963 -78.7033 -91.5649 86.084 -79.7218 -87.8511 85.2151 
-79.2476 -89.545 86.0003 -79.0379 -91.4345 86.6113 -79.0698 -93.2327 87.1918 
-80.2286 -87.8229 85.6407 -79.6542 -89.3343 86.5635 -79.476 -91.3088 87.2283 
-79.4964 -93.3839 87.8428 -79.463 -95.4212 88.5745 -80.8629 -87.751 86.0886 
-80.1928 -89.2169 87.0357 -79.9134 -91.2382 87.7708 -79.9643 -93.5265 88.4623 
-79.7392 -95.7162 89.2721 -79.4442 -98.0939 90.0524 -81.5271 -87.6342 86.3989 
-80.9413 -89.131 87.2731 -80.5071 -91.1714 87.9775 -80.4785 -93.5456 88.7337 
-80.2357 -95.8252 89.6745 -79.719 -98.2278 90.507 -79.5222 -101.03 91.0399 
-82.0975 -87.535 86.5821 -81.6607 -89.0569 87.4297 -81.2051 -91.0511 88.1253 
-80.9944 -93.345 88.8484 -80.7884 -95.6624 89.7802 -80.3318 -98.1662 90.6275 
-80.0547 -101.036 91.128 -80.0783 -103.98 91.4095 -82.7194 -87.4098 86.7556 
-82.2957 -88.947 87.5903 -81.8521 -90.8782 88.3768 -81.4784 -92.9823 89.1666 
-81.1836 -95.2267 89.9899 -80.8574 -97.8709 90.7006 -80.6598 -100.897 91.1197 
-80.6637 -103.906 91.3837 -80.5697 -106.506 91.6414 -83.4439 -87.3007 86.892 
-82.9749 -88.8148 87.6771 -82.488 -90.6915 88.4797 -82.031 -92.624 89.3878 
-81.6127 -94.6938 90.2486 -81.2433 -97.3294 90.8776 -81.0503 -100.454 91.2398 
-81.0388 -103.524 91.485 -80.929 -106.193 91.7804 -80.5432 -108.361 92.0622 
-79.1007 -89.786 83.936 -78.7268 -91.3834 85.2493 -79.1643 -91.0653 84.2073 
-78.7826 -92.982 86.4272 -78.9135 -92.7475 85.4434 -79.3722 -92.4594 84.4498 
-79.2689 -95.0387 87.7666 -79.1446 -94.6799 86.7985 -79.2717 -94.375 85.7347 
-79.6313 -94.0216 84.8873 -79.4993 -97.9303 89.3736 -79.555 -97.5074 88.4373 
-79.4747 -96.9691 87.3467 -79.5299 -96.402 86.3314 -79.866 -95.7486 85.5415 
-79.4135 -101.33 90.7255 -79.5544 -101.225 90.0293 -79.6169 -100.567 89.0597 
-79.5684 -99.6077 88.0334 -79.7161 -98.5766 87.0975 -80.1533 -97.488 86.261 
-79.653 -104.587 91.3699 -79.4156 -104.905 90.9964 -79.4309 -104.491 90.2855 
-79.5672 -103.315 89.4502 -79.7195 -101.871 88.5965 -80.0132 -100.458 87.7496 
-80.4784 -99.042 86.9043 -80.0847 -107.228 91.6019 -79.5376 -107.731 91.3344 
-79.2317 -107.681 90.7925 -79.3764 -106.746 90.1586 -79.7167 -105.16 89.5151 
-79.98 -103.493 88.8129 -80.3087 -101.905 88.1122 -80.7354 -100.301 87.3343 
-80.1434 -109.175 91.8954 -79.6422 -109.707 91.5179 -79.2202 -109.877 90.9377 
-79.1824 -109.43 90.3493 -79.5166 -108.203 89.835 -79.8492 -106.513 89.2725 
-80.1178 -104.775 88.7165 -80.5143 -103.027 88.2247 -80.9408 -101.244 87.5376 
-79.9323 -110.484 92.4314 -79.5609 -111.253 91.9585 -79.3908 -112.635 92.4232 
-79.1446 -113.402 91.6134 -79.3005 -114.662 91.8798 -79.2491 -111.669 91.219 
-78.9749 -115.742 90.8498 -79.4079 -116.304 90.9929 -79.0285 -113.967 90.6593 
-79.1106 -111.726 90.4712 -78.7858 -117.932 89.8256 -79.5551 -117.63 90.0011 
-78.7567 -116.657 89.8613 -79.0379 -114.055 89.9344 -79.2599 -111.112 89.9145 
-78.9964 -119.238 88.8084 -80.0954 -118.345 89.1643 -78.5409 -118.66 88.8465 
-78.8044 -116.326 89.1934 -79.1833 -113.073 89.3841 -79.5434 -109.657 89.375 
-79.9224 -119.007 88.2082 -80.9303 -117.736 88.6938 -79.0353 -118.958 88.0109 
-78.8707 -117.212 88.3118 -79.1388 -114.431 88.6956 -79.47 -111.137 88.8235 
-79.8401 -107.733 88.8322 -80.9815 -117.526 88.0107 -81.7175 -116.155 88.4182 
-80.0257 -117.859 87.7231 -79.476 -116.661 87.7942 -79.5131 -114.55 88.1441 
-79.7509 -111.962 88.4266 -80.0242 -108.817 88.5343 -80.3075 -105.658 88.5058 
-81.8768 -115.724 87.8552 -82.5036 -114.562 88.1501 -80.9704 -116.215 87.6857 
-80.2368 -115.5 87.7125 -80.09 -113.919 87.9532 -80.3257 -111.946 88.287 
-80.5776 -109.339 88.5011 -80.7556 -106.258 88.4606 -80.8736 -103.472 88.1388 
-82.7281 -113.94 87.7287 -83.2985 -113.092 87.9909 -81.8959 -114.327 87.6395 
-81.1048 -113.9 87.7236 -80.7584 -112.754 87.9159 -80.8651 -111.211 88.1806 
-81.1068 -109.119 88.415 -81.2621 -106.371 88.3836 -81.2985 -103.597 87.9804 
-81.2648 -101.361 87.3067 -80.5527 -108.543 92.4918 -79.9501 -110.83 92.8814 
-80.6856 -108.267 92.9301 -80.4012 -110.785 93.1188 -81.1666 -107.608 93.1987 
-79.7168 -113.184 92.7081 -81.2743 -110.236 93.148 -81.8946 -106.673 93.2499 
-80.553 -113.21 92.7109 -79.9903 -114.879 92.0278 -82.2124 -109.003 93.1684 
-82.6873 -105.486 93.1066 -81.4849 -112.391 92.6731 -80.8928 -114.402 92.0072 
-80.3168 -115.779 91.1537 -83.061 -107.356 93.1337 -83.4439 -104.256 92.772 
-82.2628 -110.624 92.7763 -81.5203 -113.112 91.992 -81.1201 -114.817 91.1793 
-80.6367 -116.603 90.2387 -83.7339 -105.885 92.8226 -84.0074 -103.013 92.2556 
-83.042 -108.714 92.7705 -82.1374 -111.151 92.037 -81.6209 -113.335 91.1315 
-81.3786 -115.312 90.3362 -81.1096 -116.846 89.5187 -84.1699 -104.296 92.1932 
-84.4052 -101.425 91.5288 -83.7095 -107.118 92.4278 -82.9802 -109.306 91.998 
-82.3681 -111.328 91.2054 -81.9962 -113.479 90.46 -81.7154 -115.013 89.7932 
-81.6387 -115.764 89.0935 -84.6198 -102.131 91.3635 -84.8845 -99.5666 90.6541 
-84.2458 -105.074 91.8196 -83.7149 -107.52 91.7493 -83.2629 -109.35 91.2955 
-82.9429 -111.243 90.7598 -82.5288 -112.906 90.1696 -82.233 -113.759 89.4753 
-82.3186 -114.206 88.7558 -85.283 -99.8936 90.5293 -85.5327 -97.941 89.8389 
-84.9272 -102.466 91.1249 -84.391 -105.11 91.3261 -83.9236 -107.223 91.1546 
[...]
CELL_DATA 2000
SCALARS Distance double
LOOKUP_TABLE default
139.374 139.461 139.745 140.441 139.586 139.865 140.563 140.855 141.58 
139.736 140.012 140.716 140.987 141.716 142.017 142.786 140.006 140.23 
140.999 141.209 141.984 142.22 143.063 143.328 144.196 140.501 140.639 
141.499 141.636 142.497 142.636 143.561 143.753 144.724 144.902 145.821 
141.086 141.217 142.098 142.241 143.161 143.28 144.249 144.391 145.406 
145.547 146.504 146.6 147.475 141.591 141.76 142.613 142.818 143.75 
143.949 144.934 145.114 146.131 146.281 147.259 147.341 148.247 148.286 
149.161 142.115 142.247 143.103 143.298 144.234 144.479 145.475 145.731 
146.751 146.97 147.976 148.115 149.097 149.148 150.121 150.095 151.033 
142.809 142.857 143.73 143.843 144.766 144.961 145.935 146.204 147.215 
147.507 148.54 148.79 149.848 150.016 151.088 151.142 152.173 152.09 
153.02 138.729 137.729 138.398 138.759 136.667 137.346 137.705 138.448 
138.871 135.627 136.277 136.642 137.391 137.84 138.577 139.015 134.613 
135.241 135.618 136.369 136.863 137.585 138.045 138.739 139.236 133.66 
134.22 134.575 135.345 135.894 136.661 137.175 137.836 138.348 139.054 
139.686 133.075 133.39 133.718 134.343 134.908 135.689 136.265 136.983 
137.514 138.217 138.841 139.604 140.287 133.126 133.116 133.463 133.75 
134.323 134.856 135.446 136.074 136.595 137.316 137.905 138.726 139.392 
140.189 140.819 133.695 133.469 133.832 133.837 134.432 134.631 135.23 
135.512 135.988 136.444 136.98 137.719 138.397 139.247 139.933 140.706 
141.346 134.494 134.189 134.518 134.388 134.951 134.991 135.611 135.651 
136.13 136.186 136.663 137.002 137.685 138.34 139.136 139.878 140.64 
141.335 142.056 135.048 135.956 135.328 135.104 136.966 136.31 136.124 
135.545 135.523 138.087 137.382 137.219 136.617 136.619 136.103 136.152 
139.415 138.63 138.505 137.799 137.816 137.237 137.273 136.703 136.642 
140.855 140.077 139.993 139.207 139.213 138.527 138.582 137.906 137.844 
137.15 137.115 142.237 141.529 141.471 140.714 140.68 139.965 140.018 
139.32 139.347 138.548 138.545 137.808 138.039 143.609 142.916 142.912 
142.175 142.166 141.427 141.488 140.794 140.923 140.174 140.287 139.458 
139.655 138.973 139.415 144.999 144.326 144.389 143.668 143.757 142.991 
143.126 142.362 142.565 141.821 142.047 141.263 141.491 140.713 141.043 
140.427 140.91 146.297 145.699 145.791 145.155 145.302 144.625 144.819 
144.085 144.296 143.539 143.764 143.016 143.254 142.513 142.792 142.1 
142.47 141.895 142.346 143.295 143.471 143.846 144.808 143.769 144.079 
145.037 145.392 146.344 144.183 144.419 145.349 145.657 146.657 146.989 
148.044 144.692 144.873 145.783 146.022 147.069 147.395 148.582 148.899 
150.178 145.239 145.411 146.307 146.497 147.544 147.877 149.155 149.535 
150.887 151.214 152.615 145.728 145.938 146.82 147.016 148.007 148.344 
149.605 150.084 151.453 151.877 153.209 153.621 155.047 146.138 146.37 
147.247 147.487 148.448 148.771 149.94 150.436 151.756 152.295 153.595 
154.087 155.433 155.982 157.445 146.555 146.753 147.619 147.881 148.851 
149.178 150.275 150.713 151.923 152.47 153.741 154.328 155.663 156.277 
157.701 158.321 159.689 147.008 147.173 147.999 148.247 149.191 149.533 
150.573 150.987 152.083 152.581 153.766 154.379 155.689 156.386 157.768 
158.47 159.784 160.383 161.466 143.556 145.052 144.35 144.476 146.582 
145.873 146.002 145.307 145.484 148.282 147.464 147.623 146.868 147.053 
146.364 146.62 150.467 149.426 149.665 148.679 148.922 148.051 148.338 
147.596 147.922 153.057 151.944 152.372 151.132 151.493 150.269 150.609 
149.549 149.906 149.021 149.347 155.696 154.712 155.392 154.163 154.685 
153.253 153.626 152.205 152.542 151.302 151.628 150.558 150.809 158.189 
157.375 158.187 157.187 157.791 156.517 156.862 155.402 155.613 154.173 
154.379 153.073 153.268 152.074 152.185 160.359 159.736 160.454 159.719 
160.222 159.293 159.535 158.377 158.427 157.123 157.112 155.808 155.825 
154.591 154.603 153.393 153.326 162.015 161.603 162.136 161.611 161.936 
161.282 161.419 160.601 160.585 159.569 159.43 158.277 158.111 156.962 
156.841 155.717 155.575 154.396 154.172 162.94 164.159 163.406 163.014 
165.257 164.539 164.075 163.303 162.749 166.207 165.612 165.186 164.366 
163.769 162.924 162.248 166.888 166.51 166.286 165.556 165.01 164.045 
163.294 162.344 161.498 167.305 167.119 166.998 166.541 166.056 165.256 
164.409 163.415 162.392 161.429 160.376 167.304 167.37 167.146 166.959 
166.374 165.928 165.007 164.289 163.134 162.233 161.031 160.139 159.027 
166.71 167.051 166.765 166.793 166.098 165.866 164.933 164.52 163.467 
162.798 161.634 160.767 159.62 158.772 157.735 165.835 166.248 166.012 
166.188 165.543 165.426 164.559 164.299 163.434 163.014 162.063 161.35 
160.241 159.376 158.264 157.47 156.436 165.026 165.37 165.126 165.354 
164.783 164.797 164.004 163.884 163.085 162.895 162.054 161.641 160.563 
159.875 158.63 157.882 156.686 156.032 154.949 162.978 163.308 163.584 
164.298 163.443 163.899 164.799 164.923 165.5 163.38 164.016 165.071 
165.399 166.056 166.033 166.384 163.042 163.853 164.941 165.523 166.187 
166.392 166.655 166.669 166.868 162.468 163.364 164.354 165.12 165.704 
166.189 166.406 166.667 166.81 166.997 167.202 161.741 162.678 163.574 
164.354 164.833 165.416 165.616 166.122 166.298 166.726 166.894 167.182 
167.219 160.685 161.764 162.627 163.5 163.964 164.516 164.694 165.21 
165.422 166.006 166.162 166.622 166.546 166.854 166.597 159.271 160.435 
161.239 162.351 162.886 163.626 163.83 164.344 164.541 165.101 165.295 
165.772 165.697 166.012 165.741 166.019 165.717 157.914 158.915 159.621 
160.779 161.368 162.362 162.649 163.376 163.556 164.205 164.427 164.955 
164.994 165.259 165.064 165.232 165.011 165.219 164.992 147.502 148.576 
148.192 148.525 149.722 149.346 149.769 149.331 149.749 150.949 150.583 
151.089 150.65 151.134 150.67 151.151 152.249 151.909 152.514 152.06 
152.605 152.117 152.656 152.155 152.672 153.562 153.292 154.041 153.602 
154.259 153.715 154.356 153.783 154.416 153.805 154.402 154.776 154.623 
155.487 155.175 155.943 155.466 156.209 155.642 156.397 155.742 156.47 
155.738 156.413 155.766 155.76 156.668 156.549 157.374 157.082 157.857 
157.462 158.251 157.754 158.524 157.895 158.62 157.87 158.528 156.529 
156.633 157.601 157.644 158.578 158.429 159.268 158.989 159.802 159.459 
160.239 159.8 160.515 159.964 160.613 159.927 160.481 157.204 157.344 
158.408 158.562 159.674 159.648 160.635 160.405 161.3 160.977 161.823 
161.428 162.174 161.7 162.335 161.798 162.318 161.686 162.071 147.095 
146.748 147.316 148.106 146.366 146.936 147.727 148.329 149.174 146.054 
146.585 147.369 147.941 148.787 149.418 150.333 145.662 146.265 147.059 
147.631 148.472 149.056 149.948 150.593 151.549 145.019 145.728 146.516 
147.244 148.105 148.762 149.621 150.223 151.105 151.786 152.755 144.441 
145.035 145.76 146.532 147.393 148.239 149.131 149.856 150.693 151.34 
152.226 152.962 153.921 144.2 144.605 145.266 145.827 146.609 147.403 
148.306 149.188 150.086 150.866 151.738 152.452 153.352 154.085 154.947 
144.052 144.438 145.069 145.493 146.186 146.741 147.533 148.303 149.198 
150.098 151.04 151.901 152.817 153.554 154.372 155.031 155.747 143.788 
144.214 144.821 145.29 145.959 146.432 147.112 147.659 148.403 149.171 
150.067 151.036 152.014 152.935 153.803 154.502 155.196 155.782 156.425 
143.803 144.237 144.269 144.861 144.841 144.801 145.423 145.452 146.081 
145.473 145.441 146.068 146.09 146.75 146.711 147.27 146.07 146.052 
146.711 146.758 147.445 147.414 147.99 147.885 148.471 146.786 146.705 
147.423 147.446 148.203 148.153 148.772 148.64 149.275 149.211 150.04 
147.651 147.538 148.295 148.26 149.053 148.972 149.626 149.475 150.163 
150.096 151.021 151.028 152.035 148.496 148.447 149.221 149.181 149.942 
149.848 150.5 150.359 151.093 151.048 152.052 152.092 153.166 153.101 
153.948 149.233 149.261 150.035 150.045 150.771 150.708 151.379 151.265 
152.085 152.053 153.156 153.198 154.334 154.261 155.104 154.855 155.404 
149.854 149.93 150.66 150.739 151.449 151.472 152.206 152.177 153.099 
153.121 154.303 154.369 155.555 155.477 156.341 156.04 156.579 156.191 
156.626 150.376 151.363 150.975 151.184 152.69 152.097 152.38 151.855 
152.042 154.727 153.808 154.16 153.325 153.597 152.838 152.981 157.017 
156.103 156.464 155.44 155.731 154.722 154.967 153.984 154.132 158.925 
158.274 158.679 157.781 158.019 156.992 157.208 156.192 156.43 155.353 
155.503 160.645 160.09 160.669 159.907 160.209 159.218 159.326 158.343 
158.497 157.6 157.739 156.719 156.706 162.347 161.846 162.503 161.881 
162.311 161.402 161.491 160.407 160.393 159.465 159.503 158.675 158.57 
157.622 157.334 163.673 163.352 163.83 163.483 163.869 163.321 163.434 
162.515 162.386 161.349 161.251 160.333 160.206 159.273 158.923 157.934 
157.479 164.52 164.327 164.591 164.417 164.67 164.47 164.6 164.113 
163.979 163.173 162.971 162.087 161.945 160.982 160.69 159.567 159.084 
157.987 157.521 150.075 149.978 150.352 151.041 149.958 150.283 150.97 
151.355 152.27 149.984 150.3 151.009 151.356 152.35 152.879 154.218 
149.891 150.304 151.067 151.457 152.51 153.056 154.456 155.089 156.512 
149.558 150.109 150.922 151.468 152.542 153.195 154.549 155.265 156.605 
157.218 158.374 149.118 149.705 150.539 151.207 152.263 153.052 154.301 
155.145 156.364 157.108 158.207 158.859 159.965 148.759 149.294 150.125 
150.785 151.8 152.61 153.756 154.657 155.787 156.65 157.746 158.56 
159.746 160.499 161.679 148.478 148.974 149.766 150.384 151.334 152.09 
153.148 154.004 155.081 155.963 157.071 157.991 159.238 160.179 161.456 
162.204 163.193 148.196 148.675 149.398 149.994 150.858 151.579 152.548 
153.361 154.392 155.257 156.358 157.29 158.523 159.552 160.853 161.818 
162.903 163.531 164.206 149.353 148.146 148.903 149.251 147.158 147.711 
148.051 148.834 149.238 146.731 146.952 147.137 147.683 148.089 148.86 
149.265 146.458 146.694 146.791 147.013 147.226 147.756 148.122 148.86 
149.166 145.644 146.224 146.364 146.695 146.725 147.034 147.157 147.716 
147.944 148.657 148.832 144.402 145.137 145.273 145.92 145.901 146.375 
146.287 146.76 146.788 147.414 147.544 148.25 148.39 143.233 143.877 
143.967 144.628 144.615 145.241 145.135 145.708 145.627 146.233 146.284 
146.97 147.123 147.838 148.032 142.17 142.772 142.86 143.412 143.406 
143.948 143.892 144.453 144.405 145.006 145.04 145.712 145.867 146.593 
146.819 147.543 147.776 141.054 141.685 141.776 142.349 142.349 142.854 
142.808 143.304 143.284 143.823 143.874 144.49 144.645 145.35 145.595 
146.338 146.599 147.313 147.537 140.433 139.648 140.42 141.132 138.858 
139.601 140.325 141.084 141.728 138.258 138.882 139.573 140.273 140.951 
141.648 142.223 137.879 138.392 139.058 139.615 140.272 140.908 141.556 
142.175 142.74 137.714 138.109 138.797 139.232 139.903 140.386 141.082 
141.616 142.285 142.79 143.385 137.822 138.059 138.747 139.09 139.823 
140.2 140.942 141.341 142.065 142.475 143.148 143.554 144.198 138.143 
138.262 138.89 139.138 139.863 140.205 140.947 141.307 142.007 142.366 
143.045 143.418 144.109 144.484 145.175 138.561 138.623 139.204 139.352 
140.015 140.278 140.971 141.297 141.957 142.307 142.97 143.349 144.064 
144.451 145.183 145.532 146.213 139.053 139.076 139.666 139.731 140.374 
140.51 141.182 141.38 142.052 142.303 143.008 143.326 144.095 144.455 
145.229 145.57 146.271 146.565 147.176 139.557 140.633 140.12 140.205 
141.815 141.282 141.393 140.83 140.934 143.04 142.506 142.679 142.1 
142.208 141.605 141.718 144.405 143.793 144.001 143.422 143.6 142.965 
143.075 142.431 142.566 145.983 145.274 145.483 144.823 145.063 144.419 
144.625 143.916 144.062 143.357 143.547 147.634 146.921 147.159 146.431 
146.671 145.963 146.204 145.51 145.714 144.975 145.146 144.423 144.653 
149.294 148.578 148.852 148.146 148.397 147.651 147.842 147.103 147.273 
146.578 146.732 146.039 146.195 145.532 145.747 151.092 150.287 150.527 
149.808 150.063 149.358 149.558 148.789 148.922 148.145 148.262 147.544 
147.659 147.003 147.137 146.546 146.727 153.032 152.16 152.337 151.508 
151.702 150.975 151.2 150.488 150.677 149.881 150 149.158 149.239 
148.457 148.544 147.88 148.003 147.442 147.596 148.236 148.697 148.775 
149.46 149.316 149.346 150.114 150.15 150.951 150.127 150.118 150.965 
150.931 151.796 151.781 152.657 150.975 151.022 151.942 151.894 152.789 
152.724 153.658 153.606 154.529 151.642 151.822 152.794 152.867 153.818 
153.788 154.799 154.734 155.786 155.633 156.597 152.161 152.415 153.482 
153.682 154.804 154.867 156.045 156.007 157.226 157.069 158.197 157.878 
158.872 152.765 152.999 154.258 154.488 155.89 156.007 157.423 157.397 
158.751 158.616 159.841 159.578 160.649 160.261 161.214 153.512 153.746 
155.154 155.432 157.021 157.25 158.809 158.865 160.218 160.129 161.286 
161.133 162.153 161.931 162.821 162.491 163.215 154.223 154.527 155.906 
156.3 157.826 158.271 159.761 160.071 161.285 161.376 162.334 162.334 
163.204 163.177 163.963 163.829 164.42 164.137 164.497 134.443 133.623 
134.066 134.186 133.025 133.297 133.357 133.805 133.936 132.967 132.907 
132.89 133.07 133.142 133.561 133.783 133.552 133.174 133.132 132.909 
132.931 132.986 133.242 133.62 134.131 134.492 133.991 133.967 133.487 
133.482 133.15 133.388 133.425 134.036 134.364 135.146 135.497 134.99 
134.99 134.467 134.448 133.942 134.078 133.855 134.386 134.529 135.333 
135.623 136.408 136.534 136.014 136.035 135.517 135.516 134.969 135.034 
134.649 135.023 134.983 135.667 135.874 136.632 136.877 137.542 137.575 
137.059 137.08 136.575 136.601 136.059 136.131 135.653 135.948 135.702 
136.264 136.269 136.96 137.116 137.809 137.99 138.626 138.545 138.059 
138.053 137.588 137.617 137.134 137.22 136.758 137.015 136.682 137.151 
136.978 137.572 137.549 138.212 138.316 139.008 139.138 139.791 134.952 
134.712 135.101 135.636 134.501 134.896 135.447 135.799 136.331 134.382 
134.726 135.358 135.685 136.259 136.554 137.154 134.674 134.762 135.439 
135.692 136.348 136.589 137.203 137.473 138.129 135.557 135.317 135.911 
135.944 136.627 136.778 137.401 137.585 138.187 138.46 139.089 136.711 
136.337 136.784 136.599 137.204 137.199 137.818 137.869 138.432 138.566 
139.164 139.414 140.05 137.788 137.426 137.769 137.503 138 137.887 
138.481 138.417 138.978 138.942 139.518 139.606 140.255 140.45 141.11 
138.847 138.456 138.774 138.449 138.893 138.71 139.288 139.171 139.742 
139.612 140.158 140.099 140.692 140.76 141.375 141.53 142.115 139.999 
139.567 139.897 139.495 139.925 139.649 140.217 140.039 140.612 140.432 
140.933 140.789 141.293 141.255 141.772 141.824 142.315 142.451 142.929 
135.31 135.997 135.821 136.186 136.685 136.514 136.917 136.765 137.191 
137.492 137.246 137.669 137.511 137.985 137.816 138.297 138.472 138.155 
138.567 138.327 138.823 138.639 139.165 138.991 139.566 139.438 139.153 
139.557 139.288 139.765 139.54 140.08 139.888 140.471 140.323 140.95 
140.37 140.083 140.475 140.233 140.701 140.502 141.053 140.856 141.437 
141.244 141.845 141.7 142.314 141.4 141.06 141.435 141.137 141.595 
141.4 141.992 141.844 142.471 142.261 142.852 142.629 143.232 143.062 
143.678 142.405 142.11 142.486 142.152 142.568 142.31 142.887 142.764 
143.451 143.307 143.93 143.686 144.262 144.031 144.64 144.457 145.061 
143.231 143.042 143.438 143.176 143.553 143.28 143.763 143.629 144.291 
144.237 144.899 144.737 145.288 145.058 145.605 145.417 145.99 145.817 
146.354 149.189 148.535 148.566 147.974 147.876 147.942 147.463 147.464 
147.083 147.145 147.322 147.02 147.095 146.853 146.84 146.694 146.328 
146.575 146.35 146.618 146.423 146.583 146.355 146.479 146.28 145.597 
145.775 145.476 145.805 145.542 145.893 145.551 145.854 145.462 145.764 
145.363 144.975 145.082 144.673 144.89 144.515 144.839 144.465 144.827 
144.414 144.746 144.3 144.614 144.161 144.322 144.424 143.961 144.103 
143.65 143.846 143.45 143.746 143.397 143.703 143.296 143.56 143.12 
143.407 143.004 143.708 143.752 143.28 143.387 142.923 143.044 142.602 
142.814 142.443 142.731 142.316 142.574 142.073 142.355 141.901 142.264 
141.891 143.278 143.214 142.729 142.751 142.285 142.35 141.875 142.006 
141.568 141.795 141.339 141.573 141.023 141.265 140.736 141.09 140.681 
141.119 140.767 
POINT_DATA 1002
SCALARS Distance double
LOOKUP_TABLE default
140.026 139.032 139.066 140.144 139.174 141.156 140.28 139.307 141.268 
142.32 140.453 139.451 141.418 142.466 143.574 140.788 139.784 141.76 
142.78 143.948 145.069 141.35 140.373 142.363 143.373 144.535 145.693 
146.706 141.933 140.955 143.014 144.11 145.269 146.419 147.406 148.318 
142.396 141.425 143.512 144.728 145.97 147.16 148.202 149.14 150.031 
142.926 141.998 143.991 145.203 146.502 147.786 148.987 150.107 151.121 
151.953 143.651 142.781 144.618 145.695 146.911 148.236 149.602 150.959 
152.204 153.199 153.911 138.091 138.039 137.058 136.944 136.001 138.136 
135.888 134.995 137.098 138.291 134.845 134.003 136.124 137.371 138.477 
133.815 133.166 135.069 136.493 137.665 138.907 133.194 132.87 134.15 
135.511 136.797 138.083 139.537 133.289 133.225 133.911 134.914 135.92 
137.073 138.561 140.079 133.898 133.967 134.315 135.076 135.708 136.343 
137.527 139.104 140.617 134.707 134.815 134.955 135.588 136.176 136.512 
137.138 138.392 139.915 141.391 135.627 135.655 136.588 136.69 137.624 
136.03 137.836 138.805 137.135 136.697 139.252 140.191 138.431 137.884 
137.241 140.79 141.588 139.941 139.271 138.596 137.699 142.211 142.916 
141.414 140.689 140.098 139.351 138.589 143.626 144.288 142.905 142.182 
141.599 141.077 140.438 139.943 145.067 145.645 144.478 143.891 143.31 
142.79 142.278 141.762 141.427 146.387 146.862 145.923 145.51 145.058 
144.522 143.984 143.503 143.115 142.871 144.239 144.432 145.757 144.693 
145.992 147.287 145.066 146.291 147.691 149.156 145.574 146.712 148.207 
149.853 151.529 146.141 147.209 148.715 150.549 152.263 154.059 146.619 
147.703 149.113 150.991 152.824 154.549 156.541 146.983 148.143 149.502 
151.209 153.073 154.895 156.865 158.938 147.356 148.52 149.895 151.431 
153.134 155.023 157.079 159.169 160.967 147.777 148.868 150.189 151.639 
153.183 154.988 157.066 159.169 161.019 162.417 145.164 146.704 146.142 
148.406 147.762 147.258 150.72 149.871 149.137 148.623 153.59 152.811 
151.803 150.893 150.208 156.497 156.101 155.154 153.928 152.812 151.871 
159.099 158.976 158.309 157.134 155.787 154.544 153.397 161.18 161.094 
160.605 159.699 158.457 157.099 155.837 154.582 162.668 162.567 162.152 
161.505 160.559 159.283 157.957 156.736 155.412 163.741 163.814 164.927 
164.882 165.967 163.534 165.994 166.666 164.69 163.092 166.88 167.125 
165.993 164.359 162.44 167.36 167.437 166.758 165.425 163.454 161.295 
167.318 167.161 166.761 165.608 163.998 161.962 159.848 166.679 166.295 
166.303 165.235 163.965 162.447 160.504 158.519 165.777 165.439 165.586 
164.746 163.705 162.642 161.112 159.118 157.163 164.9 164.744 164.706 
164.066 163.209 162.349 161.181 159.406 157.374 155.527 162.784 164.234 
162.915 164.556 162.871 165.614 164.633 162.65 166.035 166.525 164.291 
162.197 165.913 166.621 166.823 163.616 161.6 165.17 166.04 166.562 
167.052 162.826 160.802 164.291 165.048 165.769 166.571 167.064 161.671 
159.589 163.391 164.219 164.822 165.685 166.237 166.344 160.055 158.176 
161.999 163.277 164.001 164.807 165.401 165.461 165.424 158.523 157.049 
160.294 161.82 162.857 163.816 164.667 164.923 164.816 164.8 147.869 
148.935 148.927 150.181 150.062 150.195 151.509 151.28 151.581 151.631 
152.943 152.528 153.093 153.144 153.199 154.41 153.754 154.776 154.916 
155.015 155.042 155.713 154.868 156.347 156.718 157.006 157.183 157.196 
156.706 155.732 157.595 158.191 158.672 159.083 159.315 159.358 157.466 
156.395 158.638 159.511 160.111 160.63 161.01 161.227 161.261 146.556 
147.527 146.164 147.122 145.817 148.537 146.821 145.529 148.168 149.66 
146.452 145.01 147.91 149.344 150.844 145.727 144.325 147.374 149.037 
150.486 151.991 145.057 143.945 146.5 148.312 150.05 151.548 153.148 
144.817 143.843 145.928 147.402 149.209 151.006 152.669 154.247 144.657 
143.659 145.737 146.898 148.305 150.086 152.035 153.755 155.121 144.329 