# vtk DataFile Version 4.0
vtk output
ASCII
DATASET POLYDATA
POINTS 1002 float
-81.4493 -88.6126 73.0541 -81.5146 -87.9275 71.9526 -81.1551 -87.7016 72.7787 
-81.0073 -88.4969 73.8659 -80.6384 -87.568 73.5417 -81.3453 -89.4972 74.2166 
-80.4233 -88.5845 74.6463 -79.9625 -87.6358 74.1871 -80.9031 -89.5241 75.0362 
-81.1795 -90.6965 75.4811 -79.7444 -88.9673 75.5175 -79.4597 -87.8512 75.0692 
-80.402 -89.7712 76.0269 -80.8659 -90.794 76.4951 -81.0247 -92.0881 77.0065 
-79.37 -89.4014 76.7801 -79.4244 -88.0259 76.5583 -79.89 -90.2669 77.2741 
-80.6225 -91.0809 77.838 -80.9026 -92.3412 78.3669 -81.0632 -93.6584 78.8596 
-79.4818 -89.664 78.4254 -79.5563 -88.2394 78.3669 -79.688 -90.7617 78.7574 
-80.3437 -91.627 79.2365 -80.782 -92.8569 79.7643 -80.9378 -94.3594 80.2759 
-81.2166 -95.6831 80.716 -79.6033 -89.991 80.1175 -79.5317 -88.7082 80.0288 
-79.7346 -91.2263 80.3448 -80.0906 -92.2988 80.5731 -80.3823 -93.5655 80.8112 
-80.504 -95.1358 81.1958 -80.7817 -96.6432 81.6897 -81.0658 -97.9928 82.0738 
-79.5096 -90.537 81.7234 -79.5554 -89.3606 81.4951 -79.5803 -91.8302 81.9311 
-79.758 -93.0526 81.9719 -79.8387 -94.3042 81.8526 -79.8048 -95.7704 81.855 
-80.0224 -97.3027 82.1878 -80.4 -98.7402 82.6432 -80.502 -100.094 82.9079 
-79.5272 -91.1401 83.1583 -79.8021 -90.021 82.7745 -79.349 -92.4701 83.3859 
-79.3402 -93.7923 83.3577 -79.3889 -95.0366 83.1213 -79.3514 -96.3878 82.8973 
-79.4527 -97.8869 82.9568 -79.7881 -99.3888 83.2853 -79.9876 -100.809 83.5667 
-79.8962 -102.068 83.6342 -79.7976 -91.7235 84.2214 -80.1291 -90.6512 83.7744 
-79.4419 -93.0442 84.4779 -79.1988 -94.4059 84.4845 -79.1935 -95.6942 84.3351 
-79.2973 -97.0958 84.1742 -79.3983 -98.712 84.1574 -79.5801 -100.363 84.3506 
-79.7408 -101.897 84.5697 -79.6963 -103.238 84.5945 -79.5458 -104.311 84.4519 
-81.4047 -87.0502 71.4014 -81.0372 -86.7538 72.3031 -81.3531 -85.9731 70.9586 
-80.8975 -85.5829 71.9535 -81.304 -84.7087 70.7362 -80.4234 -86.5128 73.0463 
-80.7137 -84.2251 71.8228 -81.3206 -83.4351 70.6947 -80.1674 -85.2201 72.701 
-79.7542 -86.375 73.6751 -80.7487 -82.943 71.8615 -81.6021 -82.3986 70.7863 
-80.0047 -83.8765 72.6532 -79.5838 -84.9523 73.4592 -79.4683 -86.3316 74.8164 
-81.187 -82.0229 72.1152 -82.1341 -81.6019 71.1178 -80.3091 -82.8528 72.9332 
-79.6661 -83.8371 73.6875 -79.4374 -84.9285 74.9939 -79.4965 -86.4631 76.7299 
-81.7792 -81.4526 72.6426 -82.7217 -81.0424 71.648 -80.9562 -82.2767 73.5547 
-80.2814 -83.2653 74.3054 -79.6969 -84.1872 75.4992 -79.4227 -85.3341 77.2079 
-79.4561 -86.9529 78.7314 -82.3818 -81.2283 73.2383 -83.3091 -80.9944 72.2064 
-81.5328 -81.9299 74.316 -80.9888 -82.9272 75.1406 -80.4511 -83.9252 76.1043 
-79.8106 -84.8843 77.6512 -79.4812 -86.1415 79.169 -79.5 -87.7364 80.3112 
-83.0731 -81.4533 73.77 -83.8913 -81.4651 72.7879 -82.1421 -81.795 74.9292 
-81.4767 -82.5572 75.9168 -81.111 -83.6297 76.7298 -80.6238 -84.7118 77.9231 
-80.0916 -85.7825 79.38 -79.8645 -87.094 80.5356 -79.8432 -88.5721 81.5781 
-83.7658 -81.9484 74.3095 -84.4081 -82.0446 73.4314 -82.9185 -81.9851 75.395 
-82.0736 -82.3615 76.4887 -81.5529 -83.2545 77.3565 -81.2321 -84.4598 78.2564 
-80.8665 -85.5895 79.455 -80.5679 -86.7168 80.6128 -80.4029 -88.0136 81.5959 
-80.2653 -89.3485 82.6689 -84.5325 -82.4475 74.6431 -83.8876 -82.4125 75.6089 
-84.6234 -82.8595 75.9146 -83.9972 -82.9996 76.9505 -84.6664 -83.5468 77.1583 
-83.0585 -82.499 76.7538 -84.1028 -83.9046 78.3296 -84.6925 -84.5844 78.4549 
-83.2794 -83.2813 78.2078 -82.2677 -83.0246 77.8727 -84.1868 -84.9694 79.837 
-84.7082 -85.6775 79.9511 -83.5348 -84.2869 79.7769 -82.5893 -83.9939 79.4448 
-81.7482 -84.1391 78.8191 -84.2478 -86.0169 81.5037 -84.7793 -86.6353 81.595 
-83.6894 -85.3201 81.4128 -82.9121 -84.9998 81.1189 -82.0455 -85.1513 80.4908 
-81.4203 -85.424 79.8247 -84.462 -87.0848 83.1875 -85.0012 -87.5513 83.1549 
-83.7939 -86.5006 83.0784 -83.0625 -86.0776 82.7564 -82.3311 -86.1106 82.1847 
-81.711 -86.3967 81.4659 -81.1909 -86.6036 80.9039 -84.8604 -88.1251 84.6533 
-85.2776 -88.542 84.5142 -84.1002 -87.7455 84.6372 -83.1734 -87.3966 84.3363 
-82.4685 -87.2628 83.8016 -81.9665 -87.4422 83.1071 -81.5014 -87.7082 82.3913 
-80.9921 -87.8791 81.884 -85.1493 -89.1617 85.8432 -85.4527 -89.6077 85.7463 
-84.4948 -88.8673 85.8747 -83.4656 -88.7 85.6938 -82.5934 -88.6116 85.2685 
-82.1041 -88.6828 84.6838 -81.6714 -88.9043 83.9861 -81.1957 -89.1028 83.3332 
-80.7352 -89.2188 82.9139 -85.1788 -90.2904 86.887 -85.5283 -90.6532 86.8999 
-84.6425 -90.0403 86.8336 -83.761 -89.9545 86.7139 -82.8318 -89.9653 86.4371 
-82.237 -90.0242 86.0145 -81.7923 -90.1508 85.4822 -81.28 -90.3065 84.862 
-80.8424 -90.4175 84.3233 -80.4968 -90.5066 83.9949 -80.2666 -91.9952 84.8266 
-80.5906 -91.8767 85.1084 -80.5124 -93.7427 85.612 -80.9029 -91.7754 85.5717 
-80.8338 -93.6836 86.0465 -80.7797 -95.8507 86.3959 -81.3786 -91.6715 86.1679 
-81.1359 -93.5603 86.6666 -81.0878 -95.8721 87.0044 -80.7895 -97.9436 87.4863 
-81.9155 -91.5871 86.6952 -81.559 -93.4303 87.2679 -81.3449 -95.7135 87.6754 
-81.0826 -98.0143 88.1104 -80.5181 -99.8719 88.5899 -82.4193 -91.521 87.1223 
-82.0335 -93.3197 87.7732 -81.6726 -95.4405 88.2709 -81.3745 -97.8322 88.6811 
-80.8805 -100.02 89.0935 -80.2113 -102.085 89.3314 -83.1171 -91.458 87.447 
-82.576 -93.217 88.2132 -82.1202 -95.1193 88.8563 -81.7452 -97.4182 89.239 
-81.3191 -99.9227 89.51 -80.6219 -102.306 89.7426 -79.908 -104.733 89.8342 
-83.9634 -91.4248 87.6356 -83.2575 -93.1413 88.4625 -82.7039 -94.8765 89.2632 
-82.2364 -96.9296 89.7676 -81.7824 -99.5625 89.9314 -81.1499 -102.266 90.0059 
-80.3048 -104.813 90.1428 -79.6151 -107.27 90.2285 -84.6784 -91.4631 87.8002 
-83.994 -93.0482 88.618 -83.3919 -94.7161 89.3872 -82.8658 -96.5504 90.0011 
-82.2866 -99.0791 90.2952 -81.6497 -101.981 90.3098 -80.8935 -104.622 90.3005 
-80.1027 -107.052 90.4059 -79.5329 -109.315 90.4328 -85.2478 -91.5793 87.957 
-84.7325 -92.9037 88.836 -84.1604 -94.4907 89.5205 -83.6231 -96.2359 90.0555 
-82.9582 -98.5619 90.4476 -82.1714 -101.497 90.627 -81.4456 -104.267 90.5989 
-80.7904 -106.62 90.5524 -80.1972 -108.848 90.5523 -79.7389 -110.93 90.412 
-79.9615 -93.3404 85.1389 -80.2394 -95.3268 85.8286 -79.5689 -94.8046 85.2839 
-80.3919 -97.4648 86.8052 -79.8323 -96.8104 86.1454 -79.3422 -96.2071 85.3505 
-80.1967 -99.5472 88.0233 -79.8853 -99.0551 87.3672 -79.6269 -98.4604 86.4874 
-79.4319 -97.8075 85.3893 -79.8964 -101.911 88.8532 -79.6407 -101.678 88.3567 
-79.5342 -101.354 87.6547 -79.602 -100.775 86.6183 -79.573 -99.8222 85.4263 
-79.6976 -104.832 89.3275 -79.5026 -104.792 88.7904 -79.2125 -104.619 88.2985 
-79.1808 -104.204 87.5604 -79.4726 -103.325 86.6234 -79.6224 -101.898 85.5669 
-79.4528 -107.744 89.784 -79.4534 -107.964 89.1141 -79.1874 -107.868 88.57 
-78.804 -107.421 88.0379 -78.913 -106.696 87.3589 -79.3855 -105.513 86.6637 
-79.6602 -103.733 85.7414 -79.2288 -110.074 90.0947 -79.2184 -110.577 89.4051 
-79.1516 -110.774 88.6951 -78.8394 -110.49 88.1498 -78.697 -109.774 87.5788 
-79.0131 -108.849 87.0813 -79.4315 -107.394 86.5919 -79.6152 -105.29 85.715 
-79.2531 -111.88 90.0993 -78.9917 -112.601 89.4719 -78.843 -113.15 88.6794 
-78.6862 -113.36 88.005 -78.6565 -112.912 87.4132 -78.8806 -112.016 86.9253 
-79.2139 -110.823 86.6768 -79.4264 -108.934 86.2938 -79.4799 -106.494 85.4523 
-79.7135 -113.088 89.9776 -79.1432 -114.163 89.4627 -79.6124 -115.286 89.1879 
-78.949 -116.583 88.6606 -79.3825 -117.26 88.2536 -78.6773 -115.07 88.7406 
-78.7636 -118.793 87.8524 -79.2083 -118.729 87.2326 -78.3203 -117.749 88.0497 
-78.3145 -115.824 87.953 -78.7543 -120.337 86.5534 -79.2689 -119.719 85.9533 
-78.1882 -119.95 87.1204 -77.8999 -118.371 87.2018 -78.2594 -115.922 87.1908 
-78.8927 -121.152 84.6152 -79.5563 -120.285 84.7114 -78.306 -121.237 85.1626 
-77.8524 -119.99 85.8801 -77.9965 -117.868 86.2275 -78.5805 -115.114 86.5266 
-79.1888 -121.072 83.1549 -80.0472 -120.113 84.0385 -78.4926 -121.657 82.9158 
-78.0523 -120.866 83.8039 -77.9772 -118.92 84.9268 -78.4495 -116.598 85.6614 
-78.9881 -113.855 86.2459 -79.7732 -120.005 82.7542 -80.7146 -119.219 83.7753 
-78.869 -120.893 81.9679 -78.3617 -120.985 82.3494 -78.2082 -119.574 83.6429 
-78.4261 -117.39 84.8424 -78.9158 -114.923 85.6479 -79.2642 -112.028 86.1586 
-80.542 -118.69 82.759 -81.4183 -118.177 83.5428 -79.5757 -119.321 82.1275 
-78.9158 -119.842 82.2586 -78.6631 -119.345 83.1585 -78.7061 -117.633 84.2278 
-78.9975 -115.23 85.0682 -79.278 -112.397 85.5685 -79.3817 -109.366 85.6825 
-81.2428 -117.673 82.8053 -82.0154 -117.207 83.4076 -80.3993 -117.955 82.461 
-79.7282 -118.165 82.6986 -79.3494 -117.961 83.3564 -79.2187 -116.897 84.0293 
-79.3295 -114.887 84.6142 -79.5096 -112.17 85.0294 -79.505 -109.244 85.0856 
-79.4369 -106.576 84.8315 -80.3899 -111.053 90.4572 -80.3951 -113.227 89.9369 
-81.0802 -110.899 90.5153 -81.0753 -112.932 89.9082 -81.5206 -110.439 90.3666 
-80.2073 -115.29 89.0066 -81.4942 -112.24 89.7006 -81.6597 -109.58 89.7488 
-80.8289 -114.828 88.9139 -79.8739 -116.912 87.8849 -81.6279 -111.084 89.1069 
-81.9537 -108.392 89.0938 -81.3072 -114.03 88.7831 -80.5044 -116.317 87.7477 
-79.7171 -118.031 86.7555 -82.0134 -109.617 88.5855 -82.8541 -107.32 89.0536 
-81.6076 -112.634 88.3915 -81.1345 -115.416 87.7535 -80.438 -117.287 86.6374 
-79.9093 -118.861 85.7147 -83.0034 -108.356 88.5991 -83.9575 -106.396 89.235 
-82.2152 -110.859 88.1019 -81.7437 -113.7 87.7139 -81.2286 -115.992 86.7976 
-80.6755 -117.786 85.7393 -80.3284 -119.294 84.9941 -84.0284 -107.145 88.6468 
-84.6209 -105.092 88.8498 -83.2336 -109.326 88.1504 -82.6411 -111.742 87.7922 
-82.1761 -113.954 87.1866 -81.5372 -115.891 86.0489 -81.0434 -117.746 85.1682 
-80.8824 -118.958 84.6186 -84.6419 -105.513 88.2037 -84.9422 -103.432 87.9787 
-84.1189 -107.747 88.0852 -83.618 -110.063 87.8537 -83.2769 -112.105 87.5704 
-82.6801 -113.736 86.719 -81.9057 -115.447 85.5599 -81.5629 -117.122 84.8495 
-81.5619 -118.042 84.321 -85.0868 -103.777 87.4877 -85.3198 -102.007 87.1535 
-84.7471 -105.849 87.6885 -84.3524 -108.151 87.6431 -84.1146 -110.366 87.5263 
[...]
CELL_DATA 2000
SCALARS Distance double
LOOKUP_TABLE default
139.178 139.241 139.53 140.193 139.289 139.612 140.334 140.626 141.404 
139.499 139.76 140.617 140.868 141.742 141.987 142.899 140.149 140.22 
141.202 141.338 142.361 142.515 143.567 143.707 144.771 141.219 141.138 
142.158 142.151 143.243 143.317 144.477 144.573 145.764 145.822 147.013 
142.418 142.312 143.33 143.257 144.314 144.307 145.398 145.495 146.623 
146.795 147.95 148.109 149.235 143.625 143.507 144.518 144.446 145.458 
145.398 146.342 146.35 147.269 147.446 148.431 148.762 149.782 150.096 
151.014 144.857 144.713 145.675 145.598 146.553 146.485 147.347 147.265 
148.072 148.069 148.971 149.156 150.196 150.49 151.497 151.707 152.526 
146.028 145.903 146.787 146.703 147.576 147.504 148.334 148.246 149.092 
149.001 149.982 149.955 151.122 151.177 152.396 152.422 153.488 153.383 
154.241 138.557 137.644 138.28 138.61 136.694 137.336 137.629 138.268 
138.575 135.781 136.357 136.582 137.212 137.457 138.18 138.633 135.13 
135.506 135.68 136.18 136.398 137.045 137.516 138.38 139.176 134.941 
135.065 135.279 135.517 135.811 136.192 136.716 137.392 138.275 139.194 
140.249 135.143 135.113 135.445 135.486 135.949 136.036 136.649 136.949 
137.846 138.496 139.598 140.432 141.508 135.633 135.493 135.905 135.887 
136.474 136.494 137.188 137.256 138.103 138.394 139.426 139.98 141.061 
141.755 142.783 136.432 136.161 136.57 136.456 137.023 137.059 137.754 
137.863 138.659 138.831 139.742 140.046 141.042 141.502 142.516 143.102 
144.089 137.412 137.086 137.458 137.214 137.687 137.61 138.227 138.335 
139.096 139.313 140.163 140.42 141.315 141.632 142.558 142.981 143.916 
144.438 145.332 138.064 139.059 138.42 138.14 140.134 139.476 139.245 
138.549 138.339 141.398 140.674 140.54 139.769 139.602 138.868 138.833 
142.84 142.074 142.032 141.222 141.15 140.301 140.286 139.551 139.707 
144.369 143.599 143.602 142.802 142.8 141.958 141.975 141.151 141.281 
140.571 140.811 145.96 145.203 145.265 144.435 144.456 143.621 143.663 
142.859 142.972 142.219 142.425 141.726 141.972 147.539 146.845 146.992 
146.17 146.204 145.321 145.358 144.535 144.666 143.908 144.11 143.38 
143.622 142.913 143.181 149.007 148.394 148.569 147.861 147.91 147.076 
147.086 146.252 146.375 145.611 145.827 145.083 145.317 144.586 144.848 
144.152 144.465 150.355 149.786 149.927 149.323 149.387 148.682 148.699 
147.936 148.035 147.307 147.509 146.792 147.001 146.27 146.489 145.798 
146.081 145.444 145.789 146.741 147.015 147.33 148.307 147.406 147.649 
148.647 148.99 150.094 147.926 148.112 149.096 149.389 150.542 150.904 
152.062 148.446 148.653 149.621 149.879 150.993 151.365 152.561 152.896 
153.942 148.944 149.153 150.122 150.384 151.433 151.785 152.937 153.341 
154.437 154.703 155.653 149.522 149.669 150.621 150.865 151.879 152.185 
153.263 153.662 154.777 155.148 156.172 156.412 157.404 150.135 150.254 
151.138 151.359 152.329 152.605 153.607 153.959 155.031 155.451 156.521 
156.871 157.872 158.165 159.174 150.671 150.814 151.64 151.845 152.744 
153.008 153.932 154.255 155.25 155.676 156.742 157.168 158.171 158.525 
159.468 159.824 160.748 151.13 151.305 152.118 152.309 153.156 153.386 
154.245 154.528 155.447 155.848 156.882 157.352 158.372 158.766 159.674 
160.022 160.886 161.255 162.063 146.908 148.503 147.693 147.697 150.29 
149.382 149.374 148.499 148.463 152.238 151.276 151.264 150.271 150.209 
149.276 149.219 154.098 153.226 153.283 152.283 152.302 151.221 151.222 
150.152 150.114 155.846 155.051 155.245 154.348 154.555 153.508 153.689 
152.483 152.569 151.269 151.229 157.719 156.918 157.288 156.408 156.78 
155.822 156.148 155.06 155.289 154.002 154.056 152.583 152.504 159.612 
158.919 159.424 158.594 159.042 158.108 158.438 157.435 157.674 156.614 
156.774 155.502 155.462 153.937 153.775 161.221 160.736 161.26 160.642 
161.074 160.306 160.599 159.665 159.834 158.845 159.027 158.015 158.118 
156.837 156.653 155.116 154.804 162.508 162.174 162.653 162.225 162.605 
162.072 162.369 161.664 161.843 160.946 161.081 160.15 160.312 159.29 
159.236 157.879 157.479 155.941 155.483 163.308 164.449 163.776 163.456 
165.44 164.898 164.619 163.851 163.428 166.185 165.89 165.802 165.072 
164.669 163.792 163.266 166.489 166.518 166.629 166.207 165.858 165.049 
164.458 163.551 162.833 166.369 166.569 166.648 166.677 166.338 165.941 
165.26 164.587 163.808 162.961 162.106 166.046 166.21 166.073 166.311 
165.974 165.971 165.322 165.01 164.258 163.73 162.948 162.171 161.307 
165.588 165.686 165.343 165.567 165.282 165.452 165.024 164.898 164.299 
163.974 163.301 162.803 161.955 161.236 160.186 165.075 165.113 164.68 
164.811 164.553 164.8 164.59 164.644 164.208 163.988 163.324 162.963 
162.055 161.544 160.343 159.703 158.354 164.628 164.631 164.231 164.241 
163.974 164.154 163.996 164.186 163.827 163.794 163.089 162.838 161.824 
161.402 160.103 159.553 158.121 157.56 156.228 163.369 163.734 163.91 
164.521 163.804 164.171 164.757 164.931 165.401 163.338 164.026 164.646 
165.01 165.373 165.59 165.923 162.374 163.272 164.045 164.733 165.16 
165.437 165.626 165.896 166.128 161.586 162.229 162.999 163.918 164.585 
165.14 165.378 165.587 165.738 166.009 166.169 161.401 161.665 162.174 
162.865 163.59 164.391 164.822 165.253 165.383 165.658 165.833 166.073 
166.11 161.099 161.49 161.816 162.236 162.79 163.452 163.988 164.555 
164.737 165.132 165.233 165.658 165.779 165.99 165.829 160.067 160.836 
161.191 161.779 162.213 162.803 163.333 163.854 164.126 164.44 164.458 
164.854 164.941 165.44 165.451 165.628 165.348 158.787 159.615 160.052 
160.858 161.286 162.053 162.535 163.225 163.573 163.953 163.963 164.153 
164.101 164.493 164.567 165.026 164.977 165.121 164.845 151.627 152.691 
152.346 152.663 153.574 153.391 153.796 153.413 153.715 154.269 154.216 
154.788 154.55 154.953 154.5 154.801 155.074 154.985 155.734 155.589 
156.201 155.803 156.207 155.657 156.022 156.051 155.936 156.782 156.669 
157.46 157.136 157.697 157.167 157.622 157.025 157.487 156.877 156.904 
157.793 157.786 158.613 158.4 158.993 158.615 159.115 158.652 159.137 
158.567 158.983 157.412 157.607 158.566 158.725 159.542 159.437 159.912 
159.682 160.111 159.923 160.435 160.111 160.534 159.976 160.272 157.813 
158.081 159.105 159.395 160.23 160.217 160.574 160.374 160.673 160.64 
161.202 161.185 161.75 161.422 161.787 161.195 161.459 158.228 158.487 
159.496 159.847 160.679 160.772 161.102 160.918 161.138 161.093 161.686 
161.828 162.583 162.522 163.056 162.648 162.96 162.363 162.597 151.139 
150.626 151.34 152.173 149.961 150.757 151.603 152.305 153.006 149.197 
150.025 150.875 151.657 152.378 153.025 153.644 148.389 149.205 150.062 
150.903 151.731 152.424 153.139 153.714 154.427 147.656 148.381 149.217 
150.082 151.003 151.811 152.701 153.337 154.147 154.663 155.424 147.156 
147.71 148.462 149.244 150.126 151.02 151.973 152.845 153.799 154.465 
155.225 155.668 156.268 146.928 147.324 147.986 148.571 149.332 150.106 
150.951 151.923 152.932 153.935 154.855 155.479 156.011 156.357 156.771 
146.819 147.173 147.812 148.23 148.918 149.436 150.144 150.886 151.789 
152.863 153.927 154.916 155.645 156.117 156.432 156.741 157.115 146.636 
147.049 147.706 148.115 148.793 149.178 149.823 150.271 151.008 151.784 
152.766 153.835 154.76 155.582 156.067 156.446 156.713 157.074 157.514 
146.664 147.066 147.198 147.827 147.452 147.63 148.363 148.428 148.984 
147.895 148.032 148.816 148.968 149.631 149.582 150.035 148.537 148.559 
149.365 149.484 150.282 150.277 150.858 150.665 151.189 149.316 149.297 
150.13 150.174 151.069 151.058 151.78 151.585 152.195 151.992 152.793 
150.027 150.061 150.866 150.954 151.829 151.899 152.654 152.547 153.154 
152.997 153.732 153.731 154.63 150.591 150.667 151.355 151.52 152.285 
152.505 153.257 153.336 153.965 153.891 154.547 154.544 155.296 155.382 
155.998 151.026 151.118 151.709 151.869 152.572 152.822 153.638 153.852 
154.663 154.698 155.458 155.381 156.098 156.016 156.575 156.472 156.807 
151.382 151.486 152.103 152.235 153.013 153.19 154.122 154.32 155.312 
155.441 156.367 156.349 157.113 156.938 157.489 157.208 157.586 157.288 
157.634 151.781 153.01 152.434 152.652 154.763 154.005 154.3 153.523 
153.753 156.461 155.868 156.253 155.442 155.689 154.777 154.969 157.735 
157.376 157.81 157.279 157.533 156.755 156.882 156.009 156.154 159.096 
158.626 159.092 158.635 158.901 158.33 158.415 157.746 157.827 157.108 
157.191 160.882 160.213 160.692 160.042 160.364 159.681 159.791 159.097 
159.148 158.548 158.616 157.979 157.918 162.626 162.02 162.374 161.715 
162.015 161.315 161.52 160.679 160.733 159.897 159.912 159.232 159.157 
158.48 158.226 163.874 163.493 163.664 163.152 163.258 162.781 162.984 
162.424 162.546 161.696 161.62 160.673 160.508 159.674 159.406 158.635 
158.275 164.561 164.428 164.568 164.184 164.134 163.72 163.761 163.503 
163.652 163.255 163.186 162.4 162.098 161.153 160.822 159.911 159.567 
158.703 158.359 151.493 151.353 151.774 152.638 151.223 151.692 152.634 
153.158 154.287 151.028 151.583 152.58 153.161 154.263 154.864 155.932 
150.716 151.341 152.322 153.006 154.058 154.733 155.717 156.315 157.202 
150.334 150.975 151.897 152.619 153.627 154.382 155.361 156.022 156.954 
157.537 158.54 149.927 150.565 151.476 152.167 153.168 153.905 154.93 
155.631 156.66 157.322 158.474 159.11 160.335 149.525 150.153 151.089 
151.773 152.795 153.499 154.531 155.225 156.284 157.018 158.239 159.033 
160.368 161.035 162.19 149.188 149.777 150.712 151.397 152.412 153.127 
154.119 154.82 155.832 156.603 157.808 158.711 160.072 160.936 162.138 
162.724 163.543 148.927 149.47 150.365 151.019 151.983 152.692 153.629 
154.342 155.307 156.096 157.279 158.221 159.591 160.541 161.756 162.489 
163.299 163.765 164.229 150.926 149.999 150.56 150.706 148.824 149.528 
149.664 150.28 150.457 147.538 148.277 148.449 149.131 149.238 149.948 
150.158 146.355 147.02 147.173 147.863 147.942 148.636 148.763 149.576 
149.82 145.137 145.796 145.863 146.575 146.634 147.312 147.366 148.123 
148.314 149.198 149.453 143.864 144.478 144.457 145.183 145.235 145.974 
146.013 146.727 146.84 147.668 147.912 148.813 149.055 142.767 143.262 
143.193 143.773 143.775 144.51 144.593 145.356 145.468 146.236 146.443 
147.29 147.561 148.425 148.669 141.724 142.235 142.154 142.615 142.523 
143.101 143.151 143.908 144.08 144.876 145.097 145.896 146.172 146.99 
147.273 148.087 148.355 140.512 141.111 141.034 141.565 141.441 141.937 
141.904 142.54 142.701 143.484 143.744 144.56 144.842 145.655 145.951 
146.75 147.039 147.829 148.12 139.772 138.892 139.635 140.298 138.279 
138.832 139.458 140.181 140.794 137.942 138.342 138.899 139.463 140.12 
140.728 141.342 137.674 138.058 138.606 139.047 139.71 140.22 140.92 
141.435 142.159 137.447 137.826 138.428 138.823 139.497 139.944 140.676 
141.142 141.907 142.408 143.209 137.422 137.718 138.393 138.723 139.446 
139.825 140.593 140.997 141.78 142.223 143.045 143.53 144.347 137.688 
137.857 138.576 138.816 139.58 139.88 140.692 141.026 141.85 142.2 
143.04 143.441 144.294 144.715 145.506 138.195 138.253 138.954 139.108 
139.856 140.089 140.889 141.192 142.04 142.364 143.222 143.547 144.402 
144.748 145.567 145.904 146.638 138.807 138.81 139.458 139.544 140.253 
140.411 141.17 141.415 142.242 142.564 143.431 143.765 144.615 144.927 
145.737 146.032 146.787 147.056 147.747 139.343 140.396 139.899 140.01 
141.641 141.065 141.222 140.664 140.821 143.115 142.44 142.658 142.015 
142.194 141.556 141.747 144.868 144.02 144.232 143.545 143.771 143.063 
143.239 142.561 142.81 147.036 145.942 146.035 145.173 145.389 144.674 
144.877 144.151 144.363 143.701 144 149.382 148.279 148.327 147.176 
147.285 146.36 146.575 145.806 146.035 145.318 145.576 144.92 145.202 
151.283 150.512 150.675 149.592 149.64 148.483 148.595 147.611 147.82 
147.012 147.255 146.535 146.776 146.098 146.322 152.7 152.15 152.414 
151.71 151.842 150.855 150.88 149.777 149.834 148.861 149.019 148.22 
148.423 147.698 147.885 147.186 147.356 154.217 153.533 153.795 153.226 
153.493 152.814 152.942 151.996 151.972 150.914 150.908 149.987 150.102 
149.337 149.499 148.772 148.907 148.191 148.312 149.061 149.726 149.758 
150.52 150.357 150.449 151.269 151.308 152.118 151.009 151.102 151.991 
152.067 152.93 152.941 153.744 151.924 151.91 152.942 152.931 153.956 
153.88 154.818 154.67 155.521 153.073 153.031 154.219 154.145 155.385 
155.207 156.386 156.072 157.144 156.739 157.71 153.991 154.147 155.379 
155.494 156.827 156.792 158.094 157.865 159.074 158.665 159.743 159.19 
160.131 154.449 154.819 156.047 156.452 157.82 158.08 159.379 159.427 
160.584 160.458 161.44 161.132 161.919 161.47 162.145 154.789 155.177 
156.482 156.983 158.464 158.897 160.266 160.487 161.597 161.645 162.476 
162.396 162.954 162.786 163.206 163.017 163.435 155.359 155.67 157.098 
157.524 159.093 159.535 160.964 161.263 162.373 162.485 163.234 163.176 
163.579 163.437 163.674 163.612 163.901 163.915 164.242 137.22 136.239 
136.7 136.707 135.443 135.777 135.777 136.245 136.329 134.979 135.139 
135.092 135.395 135.415 135.881 135.99 134.8 134.808 134.691 134.815 
134.71 135.007 135.05 135.568 135.832 134.956 134.751 134.556 134.488 
134.291 134.389 134.405 134.77 135.152 135.696 136.29 135.537 135.088 
134.849 134.521 134.339 134.176 134.264 134.395 134.924 135.316 136.065 
136.495 137.18 136.404 135.824 135.593 135.067 134.971 134.57 134.767 
134.623 135.223 135.393 136.177 136.458 137.09 137.383 137.874 137.361 
136.763 136.576 135.987 135.96 135.47 135.712 135.41 135.943 135.9 
136.566 136.673 137.2 137.336 137.731 137.976 138.435 138.316 137.756 
137.631 137.051 137.049 136.548 136.752 136.406 136.805 136.645 137.134 
137.098 137.521 137.516 137.875 137.953 138.418 138.655 139.266 137.745 
137.261 137.78 138.355 136.9 137.371 137.967 138.433 139.036 136.606 
137.069 137.709 138.138 138.768 139.2 139.867 136.478 136.83 137.533 
137.949 138.64 139.03 139.714 140.12 140.806 136.86 136.912 137.592 
137.86 138.597 138.961 139.698 140.062 140.767 141.105 141.769 137.639 
137.525 138.111 138.126 138.788 138.991 139.735 140.079 140.838 141.163 
141.857 142.125 142.797 138.312 138.281 138.838 138.783 139.347 139.338 
139.972 140.166 140.931 141.26 142.01 142.282 142.946 143.193 143.851 
138.893 138.872 139.465 139.462 140.031 139.971 140.527 140.537 141.233 
141.433 142.211 142.459 143.128 143.342 143.935 144.197 144.794 139.7 
139.547 140.137 140.076 140.662 140.62 141.194 141.161 141.825 141.886 
142.639 142.764 143.426 143.542 144.074 144.254 144.792 145.07 145.633 
138.249 138.826 138.754 139.208 139.49 139.358 139.812 139.734 140.243 
140.33 140.116 140.592 140.42 140.944 140.846 141.461 141.235 141.012 
141.502 141.295 141.829 141.651 142.267 142.175 142.879 142.132 141.898 
142.364 142.19 142.723 142.568 143.175 143.052 143.734 143.653 144.384 
143.143 142.834 143.289 143.053 143.585 143.428 144.048 143.95 144.626 
144.533 145.224 145.156 145.899 144.219 143.907 144.366 144.057 144.558 
144.322 144.919 144.802 145.486 145.408 146.088 145.997 146.69 146.659 
147.415 145.17 144.941 145.372 145.109 145.528 145.286 145.776 145.645 
146.273 146.231 146.923 146.859 147.553 147.476 148.208 148.178 148.916 
146.005 145.818 146.219 146.002 146.357 146.146 146.549 146.421 146.974 
146.956 147.646 147.655 148.39 148.352 149.096 149.029 149.764 149.681 
150.341 150.888 150.496 150.462 149.938 149.936 149.933 149.273 149.312 
148.668 149.281 149.266 148.511 148.521 147.818 147.926 147.342 148.603 
148.601 147.91 147.834 147.194 147.168 146.663 146.729 146.26 147.884 
147.931 147.384 147.365 146.873 146.778 146.344 146.256 145.797 145.735 
145.172 147.21 147.222 146.714 146.829 146.436 146.499 146.076 146.015 
145.451 145.323 144.645 144.557 143.908 146.702 146.599 146.012 146.115 
145.713 145.919 145.484 145.577 144.91 144.845 144.029 143.959 143.231 
143.269 142.729 146.33 146.145 145.485 145.455 144.979 145.132 144.671 
144.816 144.141 144.142 143.302 143.255 142.489 142.537 141.957 142.112 
141.638 146.017 145.815 145.153 145.008 144.467 144.467 143.958 144.009 
143.351 143.338 142.565 142.528 141.821 141.829 141.245 141.325 140.804 
140.961 140.448 
POINT_DATA 1002
SCALARS Distance double
LOOKUP_TABLE default
139.795 138.832 138.909 139.89 138.925 140.898 140.022 138.921 141.093 
142.225 140.341 139.24 141.491 142.647 143.829 141.083 140.131 142.185 
143.411 144.649 145.84 142.205 141.327 143.19 144.358 145.665 146.983 
148.22 143.409 142.524 144.379 145.375 146.466 147.743 149.129 150.362 
144.594 143.762 145.556 146.443 147.214 148.134 149.42 150.802 151.883 
145.787 145.027 146.649 147.46 148.143 148.864 149.919 151.252 152.441 
153.26 146.899 146.162 147.677 148.408 149.138 150 151.088 152.365 
153.576 154.454 155.014 137.934 138 137.003 137.008 136.075 137.882 
135.993 135.28 136.749 137.742 135.25 134.865 135.801 136.647 138.162 
135.088 134.878 135.505 136.132 137.374 139.297 135.38 135.177 135.872 
136.476 137.345 138.825 140.679 135.926 135.8 136.416 137.139 137.953 
139.018 140.441 142.066 136.76 136.741 137.03 137.627 138.501 139.529 
140.685 142.003 143.482 137.76 137.738 137.858 138.176 138.879 139.912 
141.05 142.212 143.461 144.808 138.696 138.806 139.677 139.947 140.781 
138.986 141.298 142.117 140.378 139.447 142.81 143.597 141.992 141.083 
140.332 144.394 145.12 143.608 142.804 142.042 141.473 146.098 146.666 
145.307 144.456 143.734 143.145 142.658 147.773 148.18 147.107 146.203 
145.419 144.848 144.34 143.871 149.231 149.613 148.704 147.922 147.137 
146.571 146.064 145.549 145.127 150.516 150.937 150.036 149.423 148.754 
148.217 147.743 147.2 146.721 146.399 147.666 147.929 149.331 148.301 
149.714 151.24 148.837 150.155 151.763 153.188 149.381 150.647 152.183 
153.741 154.903 149.862 151.126 152.529 154.104 155.472 156.592 150.394 
151.61 152.906 154.359 155.874 157.178 158.451 150.949 152.078 153.303 
154.617 156.127 157.571 158.876 160.204 151.463 152.513 153.646 154.85 
156.293 157.817 159.137 160.4 161.645 151.939 152.956 154.002 155.091 
156.408 157.956 159.353 160.539 161.725 162.824 148.516 150.302 149.308 
152.289 151.206 150.115 154.207 153.359 152.346 151.208 156.048 155.486 
154.826 153.903 152.604 158.125 157.7 157.166 156.464 155.511 154.064 
160.192 159.967 159.471 158.688 157.88 156.942 155.39 161.821 161.777 
161.489 160.846 159.977 159.232 158.189 156.39 163.062 163.085 162.961 
162.667 162.025 161.252 160.46 159.068 156.988 164.043 164.229 165.083 
165.389 165.854 164.246 166.433 166.273 165.589 164.18 166.854 166.345 
166.605 165.387 163.818 166.516 166.254 166.58 165.836 164.565 163.052 
165.866 166.025 165.843 165.505 164.636 163.583 162.219 165.172 165.572 
164.995 165.01 164.562 163.71 162.618 161.038 164.6 165.055 164.272 
164.398 164.368 163.702 162.571 160.988 159.012 164.24 164.593 163.855 
163.799 163.801 163.322 162.254 160.66 158.671 156.687 163.25 164.446 
163.517 164.561 163.343 165.275 164.183 162.496 165.206 165.65 163.143 
161.49 164.82 165.464 165.772 162.063 161.213 163.801 165.146 165.531 
165.915 161.728 161.271 162.741 164.238 165.091 165.534 166.056 161.478 
160.553 162.25 163.388 164.348 164.782 165.391 165.893 160.484 159.168 
161.618 162.781 163.837 164.203 164.4 165.041 165.422 159.199 157.999 
160.479 161.768 163.063 163.826 163.867 164.046 164.622 164.891 152.006 
153.096 152.975 154.106 153.645 154.19 154.904 154.263 155.36 155.314 
155.794 155.173 156.51 156.74 156.574 156.849 156.136 157.711 158.166 
158.197 158.107 157.732 156.769 158.806 159.332 159.496 159.667 159.65 
158.327 157.148 159.646 160.184 160.233 160.621 161.028 160.932 158.775 
157.524 160.221 160.831 160.718 161.079 161.916 162.314 162.12 150.476 
151.541 149.863 150.869 149.156 152.402 150.054 148.384 151.705 153.032 
149.18 147.606 150.956 152.538 153.853 148.361 147.004 150.115 151.946 
153.625 154.969 147.77 146.699 149.261 151.007 152.972 154.806 155.904 
147.509 146.581 148.686 150.054 151.796 154.033 155.731 156.403 147.432 
146.446 148.5 149.572 150.812 152.764 154.989 156.222 156.679 147.272 