# vtk DataFile Version 4.0
vtk output
ASCII
DATASET POLYDATA
POINTS 1002 float
-84.1549 -79.9292 70.2255 -84.1204 -79.4187 68.9019 -83.5744 -79.2339 69.5967 
-83.5239 -79.8305 70.9352 -82.8484 -79.1012 70.3073 -83.924 -80.7011 71.5968 
-82.7006 -79.7648 71.6029 -82.0773 -78.9431 71.0376 -83.1771 -80.7362 72.203 
-83.5074 -81.7752 72.8955 -82.0267 -79.6504 72.4532 -81.519 -78.7463 72.0599 
-82.4862 -80.7044 72.9518 -82.7877 -81.9489 73.5534 -83.2192 -82.9977 74.357 
-81.7464 -79.5537 73.7911 -81.3126 -78.5385 73.5491 -82.2101 -80.653 74.1911 
-82.4361 -82.0054 74.7281 -82.715 -83.3166 75.4564 -83.2773 -84.2096 76.3549 
-81.6189 -79.5005 75.3518 -81.2368 -78.3939 75.1101 -82.1022 -80.7725 75.7184 
-82.3813 -82.1247 76.2927 -82.5099 -83.5579 76.9918 -82.8908 -84.6946 77.7812 
-83.3928 -85.4868 78.6006 -81.3715 -79.5164 76.6049 -80.965 -78.493 76.3627 
-81.764 -80.9925 76.9722 -82.0567 -82.4683 77.5931 -82.209 -83.8514 78.3939 
-82.4638 -85.1375 79.1724 -82.8395 -86.1364 79.875 -83.0816 -87.0088 80.5037 
-81.0387 -79.8318 77.5977 -80.5028 -78.9522 77.4025 -81.3967 -81.2911 78.0082 
-81.5631 -82.9381 78.6741 -81.6723 -84.3503 79.5483 -81.8959 -85.6358 80.4224 
-82.1849 -86.8213 81.1146 -82.3631 -87.8496 81.6453 -82.4144 -88.8513 82.07 
-80.7323 -80.5304 78.6209 -80.1774 -79.631 78.3611 -81.1197 -81.8534 79.1651 
-81.243 -83.4921 79.9661 -81.2593 -85.0142 80.8877 -81.3929 -86.3375 81.7679 
-81.6043 -87.6144 82.4571 -81.7244 -88.8089 82.9365 -81.7668 -89.901 83.2887 
-81.8251 -90.9266 83.5545 -80.5806 -81.3639 79.7204 -80.2224 -80.3157 79.2605 
-80.8104 -82.6084 80.4123 -80.8639 -84.091 81.293 -80.8586 -85.6206 82.2205 
-80.9394 -87.0491 83.0341 -81.0859 -88.4295 83.6453 -81.1789 -89.7661 84.0874 
-81.2224 -90.9893 84.446 -81.3077 -92.0784 84.7414 -81.4397 -93.018 84.9417 
-83.5754 -78.8675 68.044 -82.9544 -78.6421 68.7811 -82.9202 -78.2761 67.2363 
-82.4327 -77.8868 68.1242 -82.4776 -77.4657 66.621 -82.3221 -78.3629 69.5882 
-82.15 -76.8702 67.7222 -82.2144 -76.3749 66.1996 -81.9793 -77.382 69.0964 
-81.6735 -78.0412 70.4817 -81.7412 -75.724 67.4413 -81.8978 -75.1302 65.9961 
-81.5638 -76.2639 68.8426 -81.2929 -76.923 70.1522 -81.164 -77.7432 71.7328 
-81.2592 -74.5763 67.3771 -81.7618 -73.9303 66.2225 -80.8598 -75.2358 68.7244 
-80.5772 -75.849 69.9985 -80.6675 -76.6676 71.4891 -80.9845 -77.561 73.3414 
-81.2748 -73.5267 67.7546 -82.0431 -73.0256 66.8261 -80.5362 -74.2974 68.9231 
-79.9148 -74.9799 70.0681 -79.9097 -75.7242 71.3076 -80.4466 -76.7075 73.0214 
-80.838 -77.6239 74.9166 -81.7144 -72.7566 68.3616 -82.5148 -72.5504 67.5238 
-80.9066 -73.4335 69.4231 -80.0574 -74.221 70.4756 -79.5744 -74.9064 71.4086 
-79.7887 -75.8522 72.7457 -80.1804 -76.9958 74.6481 -80.3394 -77.9723 76.3332 
-82.186 -72.2999 69.0094 -82.9975 -72.37 68.3013 -81.4195 -72.7051 69.9648 
-80.673 -73.4811 71.0246 -80.0067 -74.191 71.8502 -79.6593 -74.95 72.7867 
-79.6074 -76.0954 74.4615 -79.6143 -77.3554 76.3383 -79.773 -78.4674 77.5708 
-82.6682 -72.0516 69.8037 -83.4993 -72.2964 69.2377 -81.8497 -72.1544 70.5978 
-81.1602 -72.7523 71.6176 -80.6204 -73.5335 72.4785 -80.1318 -74.2455 73.1826 
-79.6674 -75.1358 74.4595 -79.3175 -76.3566 76.2912 -79.2816 -77.6682 77.7146 
-79.6641 -78.957 78.5023 -83.5169 -72.0603 70.6325 -82.6115 -71.8423 71.2918 
-83.5502 -71.984 72.1744 -82.5732 -71.8975 73.0862 -83.5577 -72.2803 73.8416 
-81.7181 -72.067 72.2508 -82.5539 -72.3494 74.9841 -83.5834 -72.8438 75.5687 
-81.655 -72.2636 74.1705 -81.098 -72.7916 73.2419 -82.685 -73.0187 76.7285 
-83.7551 -73.4424 77.2712 -81.7094 -72.8375 75.9972 -81.1248 -73.1469 74.9746 
-80.6996 -73.6956 73.9242 -83.0271 -73.7883 78.3769 -83.9821 -74.1859 78.8792 
-81.9857 -73.6244 77.6781 -81.2594 -73.8524 76.7406 -80.7954 -74.2272 75.6787 
-80.2103 -74.5706 74.8669 -83.2917 -74.845 79.975 -84.0726 -75.2508 80.2944 
-82.3633 -74.5985 79.4189 -81.54 -74.7157 78.6409 -80.9824 -75.0034 77.7147 
-80.3669 -75.1998 76.9184 -79.65 -75.589 76.4984 -83.3571 -76.1968 81.3313 
-84.1119 -76.5158 81.4717 -82.565 -75.9104 81.0161 -81.8134 -75.8445 80.4773 
-81.2521 -75.9638 79.7086 -80.7378 -76.0477 78.8284 -80.0312 -76.2524 78.2225 
-79.3988 -76.8778 77.9573 -83.45 -77.6012 82.4524 -84.2263 -77.8046 82.5073 
-82.6765 -77.4164 82.2863 -81.9901 -77.3336 81.9608 -81.4545 -77.329 81.4257 
-81.0661 -77.2861 80.5476 -80.6572 -77.3 79.5857 -80.1167 -77.6749 79.0185 
-79.6882 -78.3657 78.7703 -83.6336 -78.9166 83.5351 -84.3491 -79.0359 83.5172 
-82.8713 -78.8556 83.4422 -82.1934 -78.8831 83.2295 -81.6364 -78.9337 82.9346 
-81.2102 -78.9126 82.3598 -80.9814 -78.8679 81.3694 -80.8321 -79.0145 80.4029 
-80.5595 -79.4566 79.8563 -80.2746 -79.9792 79.5616 -80.6487 -81.7816 80.6972 
-80.902 -81.5674 81.1748 -80.7381 -83.5437 82.7232 -81.1033 -81.26 81.7591 
-81.0397 -83.6072 83.4998 -80.3482 -85.408 84.6899 -81.042 -80.9867 82.6227 
-81.0795 -83.5908 84.296 -80.6242 -85.8321 85.5522 -79.8278 -87.3609 86.1822 
-81.0352 -80.7963 83.6015 -80.9723 -83.3315 85.0594 -80.7508 -86.0425 86.1766 
-80.0996 -88.0006 86.9435 -79.5037 -89.6355 87.8068 -81.3947 -80.6596 84.2047 
-81.2018 -82.861 85.5826 -81.0191 -85.7026 86.576 -80.5204 -88.2981 87.391 
-79.793 -90.1603 88.5013 -79.4206 -92.3329 89.6504 -81.9341 -80.5231 84.4263 
-81.6992 -82.4477 85.7719 -81.4852 -85.0139 86.8241 -81.1006 -87.9865 87.7014 
-80.3966 -90.3993 88.8892 -79.805 -92.5347 90.1084 -79.6514 -95.2285 90.8848 
-82.5386 -80.3626 84.6004 -82.2045 -82.1672 85.8837 -81.8978 -84.424 86.9897 
-81.564 -87.2762 87.9433 -81.0018 -90.14 89.0952 -80.4042 -92.5799 90.2577 
-80.1642 -95.1524 91.0455 -80.1491 -97.959 91.5519 -83.2667 -80.2444 84.7204 
-82.8291 -81.9135 85.9961 -82.3778 -83.9991 87.096 -81.9886 -86.5649 88.0362 
-81.5164 -89.4447 89.1216 -80.9502 -92.2252 90.2314 -80.6568 -94.9131 91.0334 
-80.6768 -97.6853 91.643 -80.6116 -100.217 92.2212 -84.0066 -80.2234 84.6732 
-83.5722 -81.6861 85.9485 -83.0628 -83.5993 87.05 -82.5912 -85.9825 87.9258 
-82.1379 -88.6814 88.9127 -81.5808 -91.5024 90.0429 -81.133 -94.3418 90.9506 
-81.0511 -97.1633 91.6342 -81.0823 -99.774 92.2974 -80.8556 -101.912 92.8304 
-80.5911 -83.0753 81.5151 -80.1539 -84.8305 83.4659 -80.3619 -84.4357 82.3442 
-79.5921 -86.6079 85.0241 -79.6316 -86.153 83.9429 -80.2072 -85.9226 83.141 
-79.3942 -88.9532 86.6843 -79.2961 -88.2613 85.361 -79.5464 -87.8136 84.4411 
-80.2682 -87.5215 83.874 -79.4303 -92.182 88.867 -79.5032 -91.5796 87.5395 
-79.4241 -90.6004 86.0412 -79.6872 -89.7836 85.0334 -80.4135 -89.1737 84.4482 
-79.4856 -95.6604 90.5633 -79.6226 -95.5994 89.8134 -79.6105 -94.5616 88.45 
-79.4488 -93.0005 86.7619 -79.7729 -91.7496 85.5526 -80.5211 -90.7917 84.8867 
-79.7285 -98.6473 91.4115 -79.559 -98.9674 91.0361 -79.586 -98.4295 90.3185 
-79.4572 -96.8904 88.9692 -79.4187 -95.0248 87.263 -79.8971 -93.5211 86.051 
-80.6218 -92.2691 85.3264 -80.089 -100.985 92.1465 -79.6371 -101.389 91.7777 
-79.5031 -101.289 91.1892 -79.494 -100.447 90.376 -79.4029 -98.7442 89.1004 
-79.5459 -96.7367 87.6421 -80.107 -95.0272 86.5851 -80.7736 -93.5396 85.763 
-80.2956 -102.777 92.8204 -79.7529 -103.32 92.4897 -79.5246 -103.539 91.7999 
-79.5644 -103.393 90.955 -79.5299 -102.402 90.0606 -79.4515 -100.386 88.9943 
-79.7123 -98.1212 87.912 -80.3303 -96.2244 87.0115 -80.9641 -94.577 86.0786 
-80.5759 -103.943 93.0672 -79.8916 -104.907 92.8358 -80.2068 -106.168 92.4947 
-79.5555 -107.493 91.9884 -80.1081 -108.89 91.3895 -79.5008 -105.633 92.2701 
-79.545 -110.557 90.7919 -80.3403 -111.774 90.436 -79.3588 -108.612 91.3014 
-79.5386 -106.123 91.3342 -79.7409 -113.235 89.7451 -80.6335 -113.844 89.5646 
-79.2483 -111.603 90.0607 -79.4405 -109.159 90.2967 -79.6187 -105.936 90.3107 
-80.0351 -114.642 88.5236 -80.9611 -114.433 88.4672 -79.1969 -113.524 88.7947 
-79.1558 -111.444 89.1089 -79.4393 -108.254 89.3584 -79.4848 -104.266 89.4611 
-80.5519 -114.588 87.3389 -81.4722 -113.695 87.6361 -79.5519 -114.054 87.568 
-79.2186 -112.332 88.1468 -79.4016 -109.446 88.6169 -79.4597 -105.517 88.8577 
-79.5049 -101.488 88.695 -81.203 -113.229 87.0159 -82.0595 -112.01 87.5038 
-80.285 -113.223 87.0255 -79.878 -111.912 87.6944 -79.9705 -109.442 88.3987 
-79.9152 -105.935 88.6398 -79.803 -102.126 88.4784 -80.0005 -98.8479 87.9177 
-81.7988 -110.748 87.4614 -82.5877 -109.535 87.7692 -81.0064 -111.071 87.3635 
-80.6281 -110.211 87.8048 -80.7213 -108.282 88.4616 -80.6893 -105.474 88.6772 
-80.4272 -102.231 88.3809 -80.4372 -99.2316 87.8067 -80.7178 -96.7307 87.012 
-82.3811 -107.548 87.898 -83.0998 -106.553 87.9444 -81.6596 -107.994 87.8606 
-81.2259 -107.548 88.0376 -81.2135 -106.185 88.3834 -81.2412 -104.12 88.4851 
-81.0229 -101.646 88.1318 -80.8966 -99.1519 87.4976 -81.0687 -96.9042 86.7225 
-81.2965 -94.8827 85.8455 -81.2418 -102.111 92.958 -81.0721 -104.227 92.9793 
-81.6006 -102.159 92.7993 -81.5709 -104.39 92.6847 -81.8446 -101.945 92.1784 
-80.9046 -106.589 92.2638 -81.8218 -104.236 92.0249 -82.095 -101.077 91.3341 
-81.5387 -106.737 92.0749 -80.9549 -109.314 91.2684 -82.0805 -103.282 91.2843 
-82.7295 -99.4457 90.936 -81.8168 -106.316 91.5706 -81.5102 -109.001 91.1615 
-81.0771 -111.778 90.3608 -82.805 -101.433 91.0092 -83.6238 -97.4646 90.7707 
-82.2737 -105.035 91.0583 -81.8786 -107.859 90.7628 -81.429 -110.533 90.1359 
-81.1776 -112.979 89.4167 -83.6666 -99.0104 90.685 -84.3173 -95.3994 90.0051 
-83.1488 -102.892 90.9194 -82.7458 -106.142 90.6495 -82.131 -108.629 90.0417 
-81.6216 -110.834 89.3828 -81.5525 -112.691 88.5877 -84.3472 -96.3633 89.7603 
-84.9413 -93.3271 88.86 -83.8771 -100.031 90.4881 -83.6748 -103.726 90.7246 
-83.3777 -106.608 90.3955 -82.747 -108.573 89.7483 -82.3082 -110.161 88.9786 
-82.2285 -111.468 88.1459 -85.1367 -93.8862 88.7071 -85.7682 -91.4411 87.9537 
-84.5053 -96.9453 89.5448 -84.1527 -100.492 90.2105 -84.135 -103.867 90.4373 
-83.9658 -106.303 90.1284 -83.4783 -107.809 89.4111 -83.0994 -108.892 88.6027 
-82.8869 -109.585 88.0135 -86.1051 -91.824 87.8398 -86.6511 -89.8708 87.2302 
-85.4158 -94.2208 88.5462 -84.7449 -97.1091 89.236 -84.4381 -100.288 89.7523 
[...]
CELL_DATA 2000
SCALARS Distance double
LOOKUP_TABLE default
133.955 133.845 134.263 134.97 133.668 134.12 134.841 135.274 135.997 
133.628 133.987 134.755 135.157 135.951 136.358 137.197 134.009 134.173 
135.068 135.292 136.246 136.503 137.514 137.801 138.85 134.688 134.773 
135.762 135.893 136.978 137.107 138.248 138.398 139.576 139.741 140.877 
135.314 135.451 136.404 136.629 137.708 137.926 139.045 139.238 140.381 
140.568 141.676 141.82 142.821 135.886 136.016 136.95 137.201 138.291 
138.573 139.695 139.948 141.071 141.31 142.403 142.582 143.566 143.66 
144.534 136.595 136.658 137.672 137.834 139.033 139.239 140.487 140.66 
141.883 142.041 143.226 143.35 144.427 144.465 145.416 145.391 146.273 
137.497 137.516 138.606 138.7 139.928 140.1 141.372 141.552 142.784 
142.941 144.116 144.244 145.334 145.395 146.385 146.369 147.301 147.23 
148.121 133.252 132.109 132.837 133.121 130.993 131.692 131.989 132.691 
132.962 129.969 130.639 130.944 131.595 131.879 132.544 132.891 128.928 
129.615 129.913 130.572 130.828 131.485 131.854 132.595 133.168 128.029 
128.581 128.856 129.501 129.733 130.401 130.765 131.562 132.196 133.061 
133.817 127.668 127.894 128.179 128.59 128.864 129.363 129.724 130.458 
131.143 132.084 132.929 133.796 134.53 127.846 127.808 128.103 128.248 
128.611 128.817 129.184 129.592 130.221 131.037 131.949 132.9 133.736 
134.499 135.153 128.313 128.124 128.353 128.371 128.767 128.862 129.26 
129.376 129.856 130.293 131.089 131.93 132.852 133.707 134.458 135.14 
135.811 128.975 128.656 128.783 128.67 129.009 129.089 129.537 129.612 
130.042 130.17 130.764 131.247 132.101 132.867 133.718 134.454 135.183 
135.858 136.623 129.444 130.143 129.54 129.199 131.108 130.361 130.006 
129.446 129.37 132.332 131.486 131.149 130.415 130.302 129.817 129.904 
133.705 132.827 132.521 131.688 131.538 130.886 130.908 130.411 130.474 
135.183 134.295 134.044 133.148 133.012 132.235 132.245 131.57 131.629 
131.029 131.191 136.707 135.861 135.712 134.783 134.703 133.828 133.886 
133.08 133.184 132.407 132.587 131.97 132.398 138.179 137.42 137.378 
136.516 136.5 135.616 135.701 134.846 134.969 134.114 134.255 133.507 
133.83 133.339 133.893 139.6 138.903 138.942 138.176 138.237 137.424 
137.546 136.708 136.842 135.957 136.066 135.219 135.439 134.799 135.238 
134.823 135.376 140.999 140.349 140.459 139.749 139.892 139.147 139.353 
138.566 138.786 137.9 138.085 137.135 137.386 136.538 136.98 136.319 
136.895 136.366 136.938 138.093 138.206 138.833 140.22 138.383 139.034 
140.63 141.189 142.515 138.748 139.303 140.984 141.66 143.197 143.493 
144.531 139.337 139.749 141.321 142.002 143.623 144.142 145.347 145.44 
146.437 139.945 140.312 141.694 142.293 143.82 144.471 145.819 146.177 
147.28 147.447 148.731 140.422 140.794 142.029 142.563 143.93 144.59 
145.986 146.566 147.84 148.197 149.457 149.825 151.303 140.868 141.192 
142.335 142.801 144.043 144.639 145.976 146.665 148.034 148.63 149.93 
150.4 151.75 152.284 153.746 141.357 141.623 142.691 143.079 144.23 
144.729 145.959 146.611 147.943 148.679 150.005 150.661 151.948 152.567 
153.936 154.58 155.943 141.826 142.075 143.054 143.404 144.457 144.895 
146.009 146.575 147.799 148.516 149.815 150.569 151.847 152.571 153.874 
154.62 155.95 156.628 157.78 138.45 140.519 139.489 139.626 142.582 
141.556 141.587 140.687 140.896 144.392 143.421 143.291 142.483 142.647 
141.959 142.263 146.449 145.314 145.237 144.185 144.305 143.574 143.951 
143.328 143.669 149.148 147.876 148.217 146.713 146.927 145.57 145.885 
144.997 145.431 144.726 145.015 151.977 150.916 151.655 150.227 150.666 
148.869 149.001 147.373 147.577 146.522 146.85 146.049 146.24 154.469 
153.683 154.477 153.51 154.059 152.643 152.721 150.875 150.71 149.039 
149.089 147.956 148.172 147.258 147.342 156.634 155.996 156.678 155.946 
156.426 155.506 155.682 154.312 154.113 152.356 152.084 150.489 150.48 
149.298 149.403 148.361 148.335 158.384 157.926 158.495 157.887 158.273 
157.545 157.806 156.862 156.89 155.509 155.225 153.556 153.25 151.769 
151.678 150.495 150.457 149.339 149.195 159.336 160.475 159.819 159.437 
161.509 160.873 160.597 159.817 159.261 162.851 162.054 161.854 161.033 
160.604 159.614 158.886 164.169 163.469 163.185 162.365 161.943 161.003 
160.267 159.142 158.088 164.674 164.431 163.987 163.441 162.822 162.144 
161.29 160.355 159.121 157.982 156.498 164.294 164.436 163.96 163.755 
163.023 162.637 161.707 161.04 159.713 158.731 157.13 156.037 154.458 
163.485 163.799 163.388 163.407 162.744 162.566 161.728 161.256 160.018 
159.141 157.564 156.532 155.001 154.018 152.72 162.362 162.835 162.421 
162.659 162.015 162.08 161.287 161.112 159.981 159.356 157.837 156.918 
155.396 154.507 153.236 152.43 151.351 160.854 161.482 160.997 161.462 
160.75 161.066 160.189 160.346 159.22 159.029 157.563 156.993 155.44 
154.759 153.421 152.785 151.648 151.02 149.983 159.38 159.679 159.94 
160.551 159.658 160.169 160.904 161.026 161.584 159.114 159.991 160.952 
161.354 162.061 162.17 162.891 158.197 159.269 160.393 161.2 162.026 
162.486 163.212 163.507 164.167 157.276 158.333 159.47 160.46 161.324 
162.085 162.686 163.354 163.875 164.392 164.638 156.123 157.302 158.388 
159.5 160.436 161.27 161.845 162.501 162.868 163.574 163.803 164.349 
164.243 154.547 155.831 156.804 158.18 159.188 160.331 161.075 161.756 
162.124 162.58 162.757 163.273 163.294 163.717 163.453 153.059 154.139 
154.928 156.307 157.217 158.72 159.57 160.782 161.279 161.94 162.04 
162.401 162.323 162.7 162.495 162.824 162.381 151.978 152.778 153.384 
154.453 155.142 156.525 157.249 158.79 159.357 160.633 160.789 161.535 
161.316 161.743 161.381 161.755 161.289 161.586 160.936 142.345 143.451 
143.12 143.58 144.523 144.243 144.776 144.444 144.971 145.61 145.344 
145.948 145.661 146.279 145.92 146.52 146.722 146.475 147.157 146.896 
147.628 147.298 148.029 147.609 148.323 147.793 147.599 148.373 148.179 
149.041 148.751 149.617 149.225 150.06 149.576 150.351 148.816 148.663 
149.526 149.431 150.423 150.228 151.18 150.859 151.778 151.371 152.228 
151.692 152.434 149.788 149.679 150.584 150.584 151.682 151.616 152.627 
152.387 153.323 153.036 154 153.6 154.472 153.841 154.558 150.643 
150.607 151.51 151.595 152.752 152.837 153.943 153.798 154.747 154.512 
155.539 155.313 156.35 155.908 156.745 156.025 156.671 151.361 151.399 
152.295 152.442 153.612 153.836 155.061 155.081 156.117 155.928 156.953 
156.797 157.888 157.666 158.559 158.08 158.689 158 158.43 141.844 
141.485 142.074 142.905 141.177 141.723 142.523 143.117 143.943 140.886 
141.421 142.193 142.749 143.562 144.162 145.009 140.54 141.097 141.862 
142.423 143.236 143.818 144.677 145.268 146.116 140.227 140.741 141.506 
142.071 142.889 143.493 144.363 144.965 145.824 146.384 147.185 140.091 
140.5 141.237 141.73 142.523 143.118 143.967 144.608 145.467 146.081 
146.895 147.439 148.201 140.042 140.413 141.089 141.504 142.241 142.767 
143.583 144.188 145.017 145.655 146.476 147.103 147.885 148.438 149.164 
139.926 140.315 140.933 141.337 142.009 142.498 143.295 143.852 144.681 
145.24 146.029 146.628 147.401 148.031 148.756 149.335 149.996 139.781 
140.153 140.745 141.136 141.759 142.228 142.972 143.548 144.382 144.957 
145.741 146.255 146.964 147.512 148.2 148.814 149.469 150.072 150.683 
139.927 140.564 140.447 140.892 141.35 141.172 141.604 141.441 141.917 
142.187 142.026 142.462 142.218 142.665 142.526 143.112 143.055 142.922 
143.389 143.089 143.45 143.269 143.856 143.837 144.531 143.978 143.859 
144.37 144.033 144.309 144.025 144.554 144.565 145.347 145.331 145.967 
144.778 144.732 145.234 144.99 145.266 144.923 145.407 145.322 146.157 
146.171 146.903 146.715 147.199 145.302 145.329 145.758 145.709 146.07 
145.871 146.4 146.28 147.117 147.079 147.859 147.669 148.175 147.893 
148.347 145.669 145.687 146.083 146.129 146.619 146.609 147.257 147.247 
148.077 148.067 148.834 148.663 149.183 148.886 149.334 149.077 149.585 
146.026 146.019 146.465 146.512 147.14 147.202 147.967 148.033 148.86 
148.914 149.657 149.586 150.134 149.902 150.367 150.095 150.599 150.345 
150.84 146.354 147.27 146.817 146.936 148.637 148.024 148.264 147.629 
147.787 150.279 149.603 149.917 149.191 149.387 148.619 148.737 151.98 
151.312 151.618 150.899 151.075 150.29 150.35 149.566 149.624 153.652 
153.026 153.353 152.612 152.774 151.956 151.958 151.138 151.095 150.365 
150.344 155.26 154.723 155.179 154.434 154.672 153.752 153.758 152.782 
152.674 151.808 151.703 150.969 150.831 156.826 156.378 157.021 156.357 
156.784 155.842 155.956 154.79 154.66 153.52 153.348 152.398 152.226 
151.394 151.161 158.401 158.005 158.765 158.227 158.835 158.054 158.388 
157.23 157.188 155.784 155.534 154.239 153.982 152.92 152.652 151.726 
151.434 159.907 159.58 160.313 159.893 160.495 159.975 160.434 159.628 
159.764 158.483 158.232 156.688 156.271 154.861 154.453 153.308 152.924 
151.978 151.636 146.254 146.306 146.482 147.035 146.365 146.554 147.105 
147.41 148.258 146.365 146.646 147.258 147.528 148.369 148.794 149.849 
146.17 146.631 147.352 147.698 148.537 148.939 149.98 150.465 151.563 
145.74 146.356 147.148 147.683 148.515 149.024 149.994 150.549 151.62 
152.148 153.191 145.214 145.861 146.646 147.317 148.144 148.807 149.729 
150.409 151.42 152.077 153.093 153.679 154.677 144.734 145.331 146.085 
146.754 147.584 148.305 149.244 150.006 151.021 151.755 152.753 153.435 
154.43 155.086 156.116 144.334 144.877 145.624 146.236 147.066 147.747 
148.69 149.468 150.513 151.304 152.324 153.039 154.029 154.739 155.806 
156.528 157.633 143.991 144.5 145.243 145.825 146.639 147.269 148.146 
148.888 149.882 150.73 151.764 152.568 153.56 154.307 155.358 156.147 
157.297 158.062 159.158 145.898 145.403 145.766 145.946 144.615 145.165 
145.35 145.767 145.938 143.459 144.196 144.413 145.016 145.148 145.653 
145.798 142.118 142.932 143.18 143.923 144.062 144.683 144.734 145.344 
145.45 140.738 141.558 141.805 142.613 142.772 143.478 143.496 144.13 
144.139 144.848 144.952 139.373 140.17 140.377 141.191 141.336 142.109 
142.142 142.823 142.806 143.486 143.558 144.313 144.454 138.012 138.798 
138.981 139.762 139.885 140.644 140.688 141.413 141.422 142.134 142.209 
142.952 143.111 143.857 144.021 136.647 137.42 137.615 138.389 138.533 
139.247 139.292 139.973 139.979 140.702 140.785 141.58 141.765 142.552 
142.75 143.471 143.642 135.412 136.095 136.294 137.041 137.213 137.931 
137.995 138.642 138.623 139.278 139.321 140.105 140.305 141.171 141.434 
142.225 142.44 143.135 143.319 134.868 134.292 134.943 135.686 133.571 
134.299 135.028 135.764 136.544 132.83 133.541 134.271 135.031 135.799 
136.577 137.31 132.32 132.89 133.631 134.301 135.074 135.812 136.565 
137.284 137.951 132.115 132.518 133.25 133.791 134.6 135.212 136.002 
136.616 137.343 137.958 138.672 132.233 132.461 133.178 133.563 134.411 
134.906 135.761 136.245 137.042 137.526 138.341 138.874 139.723 132.632 
132.735 133.452 133.667 134.511 134.869 135.769 136.166 137.031 137.423 
138.306 138.741 139.659 140.109 140.955 133.153 133.221 133.925 134.053 
134.853 135.096 135.978 136.293 137.186 137.527 138.435 138.823 139.745 
140.146 140.983 141.342 142.036 133.696 133.753 134.428 134.532 135.282 
135.474 136.313 136.575 137.445 137.742 138.62 138.973 139.852 140.237 
141.035 141.38 142.052 142.349 142.937 134.217 135.251 134.806 134.96 
136.341 135.898 136.115 135.621 135.84 137.552 137.058 137.36 136.86 
137.135 136.608 136.89 139.094 138.4 138.691 138.145 138.454 137.944 
138.244 137.717 138.011 141.035 140.143 140.345 139.587 139.846 139.259 
139.563 139.057 139.372 138.853 139.166 142.994 142.151 142.357 141.443 
141.649 140.81 141.076 140.416 140.744 140.205 140.546 140.026 140.36 
144.694 143.994 144.267 143.473 143.71 142.801 143.014 142.127 142.383 
141.659 141.967 141.392 141.704 141.192 141.483 146.373 145.651 145.933 
145.248 145.527 144.783 144.997 144.137 144.294 143.426 143.612 142.876 
143.114 142.516 142.76 142.239 142.463 148.203 147.412 147.662 146.905 
147.158 146.465 146.701 145.977 146.132 145.308 145.405 144.576 144.716 
143.989 144.183 143.551 143.743 143.176 143.353 144.023 144.506 144.608 
145.321 145.025 145.156 145.949 146.012 146.749 145.618 145.734 146.589 
146.674 147.476 147.488 148.257 146.357 146.43 147.36 147.403 148.293 
148.281 149.151 149.113 149.998 147.093 147.221 148.233 148.298 149.304 
149.255 150.229 150.135 151.119 151.019 151.937 147.658 147.896 148.959 
149.168 150.281 150.352 151.425 151.35 152.397 152.258 153.246 153.025 
153.844 148.184 148.449 149.587 149.86 151.084 151.298 152.525 152.581 
153.755 153.644 154.738 154.477 155.422 155.009 155.776 148.79 149.06 
150.296 150.558 151.888 152.142 153.556 153.726 155.129 155.101 156.373 
156.12 157.212 156.774 157.677 157.091 157.823 149.356 149.693 150.947 
151.281 152.616 152.962 154.446 154.787 156.349 156.521 157.925 157.805 
158.944 158.602 159.534 159.046 159.798 159.161 159.73 129.051 128.314 
128.732 128.873 127.779 128.056 128.166 128.565 128.742 127.561 127.634 
127.756 128.01 128.216 128.549 128.862 127.856 127.614 127.703 127.772 
127.998 128.188 128.473 128.814 129.298 128.672 128.151 128.124 127.918 
128.078 128.089 128.288 128.482 128.881 129.355 130.011 129.705 129.095 
129.002 128.552 128.639 128.371 128.507 128.414 128.723 128.996 129.678 
130.219 131.014 130.787 130.17 130.115 129.558 129.654 129.184 129.361 
128.952 129.252 129.117 129.789 130.077 130.997 131.394 132.167 131.944 
131.321 131.315 130.726 130.824 130.309 130.517 130.038 130.358 129.98 
130.561 130.504 131.38 131.586 132.44 132.624 133.254 133.096 132.516 
132.515 131.937 131.987 131.463 131.606 131.175 131.457 131.118 131.578 
131.398 132.08 132.12 132.9 133.015 133.679 133.734 134.272 129.591 
129.423 129.821 130.445 129.264 129.636 130.298 130.708 131.352 129.362 
129.571 130.251 130.607 131.331 131.666 132.342 129.837 129.854 130.509 
130.698 131.444 131.722 132.45 132.735 133.457 130.588 130.472 131.063 
131.083 131.758 131.93 132.654 132.896 133.624 133.9 134.61 131.505 
131.286 131.79 131.683 132.255 132.309 132.999 133.171 133.918 134.128 
134.851 135.057 135.71 132.49 132.208 132.642 132.443 132.966 132.885 
133.535 133.594 134.336 134.488 135.226 135.379 136.046 136.171 136.792 
133.462 133.155 133.567 133.336 133.878 133.706 134.319 134.228 134.885 
134.933 135.628 135.77 136.437 136.56 137.171 137.278 137.88 134.444 
134.113 134.53 134.291 134.853 134.67 135.259 135.079 135.628 135.525 
136.119 136.173 136.829 136.951 137.578 137.674 138.251 138.35 138.903 
129.846 130.741 130.373 130.573 131.635 131.289 131.527 131.179 131.495 
132.606 132.213 132.474 132.134 132.494 132.202 132.66 133.757 133.299 
133.597 133.165 133.552 133.221 133.722 133.452 134.002 134.914 134.504 
134.845 134.396 134.779 134.368 134.855 134.541 135.106 134.837 135.428 
135.952 135.601 135.936 135.589 135.957 135.595 136.03 135.702 136.222 
135.94 136.51 136.266 136.868 137.015 136.635 136.972 136.623 136.998 
136.677 137.113 136.828 137.339 137.062 137.61 137.339 137.913 137.686 
138.285 138.131 137.752 138.135 137.736 138.135 137.746 138.19 137.878 
138.414 138.161 138.735 138.461 139.023 138.746 139.321 139.088 139.679 
139.15 138.848 139.251 138.918 139.319 138.935 139.336 138.98 139.462 
139.208 139.773 139.554 140.109 139.853 140.386 140.132 140.684 140.465 
141.036 145.765 145.386 145.476 145.245 144.883 144.985 144.635 144.806 
144.413 144.138 144.27 143.74 144.004 143.527 143.765 143.229 143.195 
143.31 142.631 142.93 142.422 142.755 142.217 142.453 141.869 142.312 
142.334 141.627 141.81 141.32 141.632 141.14 141.392 140.797 141.038 
140.467 141.565 141.557 140.897 140.945 140.433 140.625 140.124 140.327 
139.713 139.931 139.331 139.626 139.101 140.81 140.864 140.228 140.269 
139.659 139.775 139.162 139.32 138.665 138.854 138.241 138.499 137.958 
138.265 137.751 140.05 140.117 139.494 139.551 138.872 138.939 138.223 
138.33 137.649 137.826 137.241 137.466 136.926 137.16 136.61 136.895 
136.382 139.408 139.413 138.81 138.823 138.167 138.159 137.448 137.444 
136.771 136.868 136.319 136.515 136.004 136.19 135.627 135.814 135.278 
135.563 135.145 
POINT_DATA 1002
SCALARS Distance double
LOOKUP_TABLE default
134.655 133.652 133.56 134.576 133.402 135.682 134.384 133.22 135.565 
136.748 134.359 133.309 135.525 136.766 138.079 134.854 133.869 135.995 
137.221 138.561 139.913 135.601 134.597 136.834 138.111 139.42 140.754 
141.97 136.159 135.19 137.455 138.839 140.191 141.538 142.743 143.755 
136.702 135.767 137.993 139.431 140.821 142.207 143.471 144.49 145.364 
137.507 136.514 138.812 140.301 141.735 143.101 144.378 145.439 146.327 
147.137 138.53 137.45 139.786 141.193 142.629 143.995 145.258 146.373 
147.349 148.233 149 132.548 132.405 131.377 131.297 130.308 132.267 
130.316 129.287 131.223 132.149 129.246 128.257 130.18 131.087 132.331 
128.246 127.593 129.084 129.941 131.272 132.99 127.851 127.567 128.447 
129.069 130.166 131.996 133.807 128.012 127.964 128.453 128.941 129.546 
130.954 132.902 134.502 128.4 128.581 128.655 129.2 129.644 130.381 
131.938 133.721 135.155 128.993 129.357 128.961 129.419 129.996 130.489 
131.426 132.948 134.49 135.906 129.984 129.647 130.801 130.641 131.887 
129.736 131.937 133.176 130.875 130.301 133.372 134.571 132.257 131.488 
130.941 134.946 136.035 133.819 132.965 132.286 131.664 136.606 137.485 
135.587 134.705 133.994 133.277 132.828 138.173 138.883 137.359 136.559 
135.843 135.073 134.419 134.247 139.657 140.263 139 138.358 137.726 
136.96 136.167 135.733 135.734 141.129 141.607 140.593 140.087 139.618 
139.02 138.281 137.715 137.493 137.458 139.373 139.669 141.623 139.945 
142.282 143.647 140.256 142.761 144.557 145.396 140.718 142.999 145.118 
146.375 147.545 141.203 143.167 145.303 147.045 148.427 150.229 141.566 
143.324 145.307 147.36 149.124 150.826 152.86 141.927 143.517 145.294 
147.337 149.415 151.258 153.174 155.21 142.353 143.796 145.382 147.209 
149.293 151.316 153.276 155.364 157.261 142.745 144.066 145.513 147.139 
149.055 151.105 153.127 155.227 157.266 158.816 140.567 142.483 141.717 
144.138 143.257 142.974 146.413 145.166 144.497 144.389 149.679 148.569 
147.053 146.112 145.799 152.853 152.445 150.997 148.963 147.664 147.097 
155.346 155.243 154.498 152.677 150.499 149.115 148.312 157.44 157.256 
156.784 155.77 153.901 151.862 150.474 149.431 159.082 158.969 158.599 
158.04 156.868 154.917 152.982 151.588 150.359 160.116 160.266 161.05 
161.314 162.176 160.222 162.687 163.702 161.574 160.03 164.03 164.783 
162.849 161.419 159.367 164.484 164.759 163.452 162.174 160.29 157.722 
164.067 164.059 163.332 162.291 160.666 158.196 155.486 163.276 163.125 
162.825 162.08 160.825 158.58 155.929 153.598 162.113 161.856 161.884 
161.349 160.451 158.685 156.261 154.007 152.112 160.491 160.225 160.402 
159.981 159.258 157.968 156.048 154.02 152.243 150.596 159.213 160.497 
159.334 160.684 158.963 161.541 160.334 158.054 161.847 162.808 159.429 
157.123 161.427 162.816 164.024 158.462 156.263 160.534 162.02 163.234 
164.377 157.199 154.921 159.521 161.267 162.259 163.121 163.918 155.388 
153.341 157.839 160.219 161.753 162.371 162.791 163.184 153.7 152.146 
155.709 158.117 160.388 161.708 162.052 162.137 162.173 152.498 151.297 
153.965 155.764 157.88 159.815 160.855 161.05 160.965 160.74 142.688 
143.932 143.737 145.062 144.774 145.338 146.199 145.862 146.589 146.916 
147.371 146.94 147.908 148.399 148.782 148.493 147.955 149.267 149.959 
150.505 150.901 149.551 148.952 150.543 151.469 152.123 152.715 153.079 
150.543 149.879 151.666 152.844 153.577 154.279 155.017 155.328 151.409 
150.652 152.587 154.013 154.984 155.696 156.656 157.388 157.526 141.242 
142.296 140.921 141.957 140.657 143.322 141.652 140.352 142.974 144.395 
141.291 139.981 142.649 144.09 145.552 140.954 139.751 142.278 143.746 
145.259 146.665 140.8 139.725 141.962 143.335 144.825 146.323 147.703 
140.717 139.687 141.756 143.01 144.408 145.822 147.291 148.668 140.545 
139.549 141.541 142.734 144.144 145.495 146.777 148.142 149.466 140.367 
139.428 141.326 142.414 143.771 145.236 146.499 147.624 148.841 150.107 