# vtk DataFile Version 4.0
vtk output
ASCII
DATASET POLYDATA
POINTS 1002 float
-85.1687 -82.0294 69.7627 -85.1387 -81.3923 68.3902 -84.7747 -81.038 69.2089 
-84.7182 -81.7898 70.6526 -84.3182 -80.7163 70.1066 -85.1391 -82.7901 71.3557 
-84.2939 -81.5617 71.6992 -83.8472 -80.472 71.1696 -84.7509 -82.6455 72.4601 
-85.2054 -83.6526 73.3523 -84.0274 -81.3964 73.0499 -83.5043 -80.3732 72.4684 
-84.4806 -82.5673 73.7896 -84.9365 -83.6623 74.6835 -85.3008 -84.7595 75.6228 
-83.7748 -81.4479 74.5539 -83.1549 -80.4899 73.8387 -84.2355 -82.636 75.3388 
-84.594 -83.8614 76.1044 -84.8677 -85.0816 76.9058 -85.0179 -86.3623 77.7564 
-83.2509 -81.7919 75.8373 -82.7239 -80.7457 75.1812 -83.6883 -82.9949 76.6975 
-83.9953 -84.26 77.4941 -84.194 -85.5891 78.1743 -84.2972 -87.0046 78.9227 
-84.3555 -88.3863 79.7172 -82.6748 -82.2898 77.0718 -82.4677 -81.0513 76.6312 
-82.9109 -83.6379 77.7781 -83.1856 -84.9106 78.6482 -83.4277 -86.2304 79.4528 
-83.555 -87.7113 80.211 -83.5913 -89.1995 80.9554 -83.6361 -90.5154 81.5896 
-82.3179 -82.8831 78.5386 -82.3591 -81.5065 78.0998 -82.3343 -84.4069 79.1273 
-82.5164 -85.7711 79.9031 -82.7834 -87.0689 80.7659 -82.9496 -88.5537 81.6079 
-82.9501 -90.092 82.3381 -82.8767 -91.4748 82.8454 -82.8464 -92.6496 83.1786 
-81.9813 -83.6135 79.951 -82.0957 -82.1669 79.3537 -81.9312 -85.2175 80.6919 
-82.0428 -86.6863 81.4707 -82.2282 -88.0361 82.2327 -82.3266 -89.5388 82.9848 
-82.288 -91.1271 83.6729 -82.1744 -92.5579 84.1477 -82.0573 -93.7822 84.3713 
-81.9997 -94.809 84.5015 -81.5341 -84.3937 81.0859 -81.6635 -82.9047 80.4292 
-81.4689 -86.0022 81.962 -81.5212 -87.5166 82.8394 -81.5848 -88.9467 83.5701 
-81.545 -90.4862 84.1978 -81.4377 -92.1047 84.7803 -81.3663 -93.6088 85.2668 
-81.3466 -94.9334 85.5746 -81.3349 -96.0583 85.7159 -81.3428 -96.947 85.7933 
-84.8698 -80.5352 67.5778 -84.4988 -80.063 68.4689 -84.5768 -79.5751 66.8183 
-84.0198 -79.0912 67.7434 -84.0879 -78.5973 66.1917 -83.9268 -79.7329 69.4511 
-83.2654 -78.1359 67.12 -83.4918 -77.5125 65.8623 -83.2483 -78.8402 68.785 
-83.3108 -79.5729 70.5683 -82.666 -76.9353 66.8035 -83.2642 -76.178 65.8938 
-82.4782 -77.8104 68.181 -82.61 -78.698 69.9573 -82.852 -79.5552 71.8535 
-82.658 -75.5074 66.8584 -83.5516 -74.8566 66.1344 -82.1238 -76.3682 67.8947 
-82.0833 -77.4292 69.4672 -82.2018 -78.5863 71.3174 -82.4433 -79.6553 73.2784 
-83.0662 -74.3163 67.2472 -84.0576 -73.8877 66.5819 -82.2757 -74.9078 68.1094 
-81.9719 -75.8122 69.4075 -81.8468 -77.1439 71.049 -81.8505 -78.5855 72.9125 
-82.1875 -79.7974 74.8706 -83.6314 -73.489 68.0166 -84.6405 -73.1954 67.3511 
-82.7231 -73.8928 68.8391 -82.2148 -74.5227 69.9372 -81.8831 -75.6165 71.2757 
-81.6 -77.1629 72.8409 -81.7879 -78.6966 74.7006 -82.2503 -80.0218 76.5389 
-84.3019 -72.8263 69.0522 -85.2831 -72.6468 68.3218 -83.381 -73.1921 69.8948 
-82.7617 -73.7816 70.8783 -82.2963 -74.6272 71.9859 -81.7787 -75.8332 73.1985 
-81.6327 -77.3993 74.7251 -82.0172 -78.9763 76.4751 -82.2873 -80.4808 78.0294 
-84.9874 -72.3344 70.0983 -85.8913 -72.3096 69.2923 -84.1188 -72.6388 70.9689 
-83.4665 -73.2939 71.8791 -82.9406 -74.1576 72.8676 -82.3133 -75.0604 73.8972 
-81.823 -76.2617 75.0865 -81.8484 -77.8654 76.5718 -82.0781 -79.5188 78.0576 
-82.0107 -81.1471 79.2918 -85.9114 -72.1439 70.8165 -85.0424 -72.2197 71.758 
-85.9824 -72.2714 72.5019 -85.1872 -72.5438 73.4244 -86.1716 -72.8287 74.1359 
-84.2844 -72.775 72.663 -85.346 -73.3455 75.0217 -86.3673 -73.7789 75.6528 
-84.3966 -73.3986 74.3197 -83.6534 -73.7626 73.6201 -85.4424 -74.4421 76.6568 
-86.4383 -74.9373 77.1942 -84.3976 -74.3175 76.044 -83.6249 -74.505 75.4033 
-82.9814 -74.7312 74.6873 -85.5319 -75.7794 78.3123 -86.4695 -76.2238 78.7693 
-84.5111 -75.4911 77.8097 -83.6453 -75.4481 77.2488 -82.9503 -75.5066 76.5874 
-82.3074 -75.6886 75.8128 -85.639 -77.367 79.8431 -86.5192 -77.6602 80.2478 
-84.7573 -77.0822 79.3956 -83.9547 -76.8778 78.9296 -83.1587 -76.7884 78.4193 
-82.4114 -76.8111 77.8198 -81.9515 -77.154 77.1434 -85.6547 -78.982 81.2832 
-86.46 -79.1529 81.6165 -84.8592 -78.8251 80.8718 -84.1771 -78.6499 80.4627 
-83.4238 -78.5344 80.0879 -82.5561 -78.4749 79.7278 -81.9691 -78.5661 79.2302 
-81.8883 -78.952 78.5938 -85.5372 -80.4429 82.6806 -86.2504 -80.5752 82.8835 
-84.7649 -80.3633 82.3912 -84.0818 -80.2786 82.0781 -83.4055 -80.2191 81.7681 
-82.5791 -80.1734 81.5052 -81.8558 -80.1502 81.1686 -81.6027 -80.3108 80.5553 
-81.7566 -80.6916 79.8267 -85.364 -81.8088 83.9455 -85.9962 -81.9133 84.0065 
-84.6272 -81.7609 83.8268 -83.9031 -81.7451 83.6664 -83.2418 -81.7595 83.4278 
-82.5417 -81.7642 83.1484 -81.8419 -81.7229 82.8659 -81.3978 -81.7742 82.3881 
-81.3146 -82.0565 81.6321 -81.458 -82.483 80.8952 -81.1481 -84.6395 81.9565 
-81.0507 -84.2427 82.5886 -80.69 -86.6126 83.8083 -81.1192 -83.8517 83.3986 
-80.7335 -86.373 84.6057 -80.099 -88.6439 85.7603 -81.4025 -83.6338 84.023 
-80.9653 -86.1323 85.3021 -80.1827 -88.5892 86.6099 -79.3084 -90.6408 87.4786 
-81.9106 -83.6 84.3749 -81.3657 -85.9467 85.6707 -80.5001 -88.412 87.1409 
-79.4818 -90.6126 88.246 -78.8334 -92.7977 88.855 -82.5327 -83.5557 84.6968 
-81.8934 -85.7676 85.942 -81.0203 -88.1024 87.4258 -79.9583 -90.3892 88.7622 
-79.22 -92.754 89.4932 -78.9551 -95.2814 90.0288 -83.1803 -83.4277 84.9914 
-82.4796 -85.5189 86.2584 -81.6355 -87.7508 87.6578 -80.5913 -90.0818 89.0948 
-79.7561 -92.6054 90.0342 -79.3864 -95.2054 90.595 -79.2639 -97.8232 91.1688 
-83.9045 -83.3159 85.1179 -83.1573 -85.2592 86.4369 -82.3223 -87.423 87.7757 
-81.3156 -89.8025 89.1575 -80.3547 -92.4387 90.2939 -79.789 -95.0133 91.0745 
-79.5647 -97.5305 91.7309 -79.4152 -100.264 92.2174 -84.6821 -83.2663 85.1251 
-83.9433 -85.0681 86.4189 -83.1234 -87.1342 87.7402 -82.1812 -89.4797 89.0267 
-81.1734 -92.1479 90.2078 -80.3821 -94.7084 91.2247 -79.9419 -97.0486 92.0863 
-79.6522 -99.7405 92.704 -79.3676 -102.831 92.9166 -85.3882 -83.2673 85.0968 
-84.7206 -84.9271 86.3141 -83.9571 -86.8608 87.6102 -83.0921 -89.0676 88.8614 
-82.1433 -91.6197 90.0183 -81.2697 -94.1888 91.1265 -80.6549 -96.4768 92.1348 
-80.1765 -99.0283 92.8699 -79.6594 -102.228 93.2131 -79.177 -105.499 93.1777 
-80.9888 -86.3427 82.7877 -80.3674 -88.3429 84.5921 -80.8941 -87.9888 83.6987 
-79.5257 -90.3837 86.3246 -80.0592 -90.0565 85.249 -80.8143 -89.5947 84.4714 
-78.8002 -92.6889 87.9814 -79.1778 -92.4394 86.8564 -79.8375 -92.0002 85.892 
-80.6681 -91.3226 85.1292 -78.677 -95.3821 89.5152 -78.7893 -95.2435 88.7141 
-79.2216 -94.7742 87.6277 -79.7652 -93.9912 86.6154 -80.5136 -93.0754 85.7327 
-78.9477 -98.2358 90.7813 -78.8408 -98.287 90.3137 -79.1166 -97.8238 89.4819 
-79.4708 -96.8672 88.3239 -79.8251 -95.7557 87.2154 -80.4843 -94.7103 86.253 
-79.1829 -101.052 91.7656 -78.9574 -101.403 91.2762 -79.0249 -101.144 90.6903 
-79.362 -100.216 89.794 -79.6504 -98.8738 88.7012 -79.9959 -97.5417 87.6845 
-80.6106 -96.2718 86.6867 -79.2121 -103.922 92.4379 -79.0244 -104.55 91.7854 
-78.8989 -104.588 91.1818 -79.0661 -103.97 90.5874 -79.4234 -102.693 89.8289 
-79.7991 -101.039 88.9994 -80.2502 -99.3393 88.1133 -80.776 -97.667 86.9925 
-79.0054 -106.762 92.7564 -78.9104 -107.56 92.0424 -78.7678 -107.827 91.3111 
-78.7568 -107.538 90.789 -79.0315 -106.57 90.3279 -79.4768 -104.922 89.8002 
-79.9893 -102.87 89.2255 -80.4798 -100.734 88.379 -80.8905 -98.7199 87.1341 
-78.7413 -108.943 92.9932 -78.5919 -110.069 92.3654 -78.3689 -111.785 92.6478 
-78.0833 -112.911 91.7443 -78.1609 -113.966 92.0765 -78.4581 -110.711 91.4673 
-77.4634 -115.585 90.899 -77.9534 -116.104 91.1061 -77.7017 -113.693 90.6805 
-78.3219 -110.819 90.709 -76.9356 -117.953 89.8956 -77.819 -117.708 89.99 
-76.8168 -116.488 89.7829 -77.6067 -113.607 89.8985 -78.4882 -110.17 90.2447 
-77.1286 -118.734 88.937 -78.2657 -117.733 89.1855 -76.506 -118.144 88.8995 
-76.9934 -115.745 89.0067 -78.1076 -112.291 89.4229 -78.9758 -108.621 89.8713 
-78.2223 -117.842 88.1485 -79.2849 -116.592 88.7419 -77.2789 -117.946 88.0057 
-77.1054 -116.526 88.1941 -77.8789 -113.636 88.5912 -78.899 -110.007 89.2029 
-79.6104 -106.342 89.5672 -79.5121 -116.332 87.7477 -80.3161 -114.993 88.5352 
-78.6244 -116.719 87.309 -78.0036 -115.955 87.4991 -78.1655 -113.939 88.0443 
-78.9745 -110.731 88.6869 -79.785 -107.077 89.1993 -80.263 -103.69 89.1269 
-80.5441 -114.258 87.8565 -81.1915 -112.852 88.5011 -79.8529 -114.889 87.2864 
-79.1924 -114.43 87.2631 -78.9875 -112.975 87.8177 -79.4478 -110.481 88.4808 
-80.1277 -107.185 88.8843 -80.5597 -103.894 88.7968 -80.7439 -101.089 88.1256 
-81.4939 -111.462 88.1495 -82.0903 -110.261 88.5074 -80.9335 -112.199 87.7529 
-80.3921 -112.011 87.6122 -80.0891 -110.893 87.9276 -80.2669 -109.029 88.4082 
-80.7015 -106.483 88.6012 -80.9728 -103.632 88.3406 -81.0395 -101.033 87.6563 
-81.1211 -98.8434 86.719 -79.3559 -106.116 93.2839 -78.8899 -109.587 93.1666 
-79.9393 -106.378 93.2436 -79.5784 -109.549 93.3145 -80.8054 -106.04 93.1851 
-78.6885 -112.015 92.9994 -80.6385 -108.735 93.4782 -81.5483 -105.012 93.0244 
-79.5334 -111.496 93.3256 -78.7814 -113.696 92.4239 -81.578 -107.288 93.348 
-82.0667 -103.424 92.5563 -80.6089 -110.451 93.4969 -79.6422 -112.817 92.6446 
-78.797 -115.34 91.2577 -82.2502 -105.302 92.6903 -82.719 -101.462 91.8837 
-81.5247 -108.945 93.1701 -80.5248 -111.616 92.6742 -79.6431 -113.907 91.4263 
-78.8665 -116.22 90.1986 -82.9846 -102.82 91.8508 -83.6869 -99.3581 91.2122 
-82.2653 -106.668 92.3836 -81.389 -109.866 92.3483 -80.5345 -112.159 91.5887 
-79.904 -114.11 90.6328 -79.473 -115.725 89.7237 -83.9576 -100.218 91.0924 
-84.7545 -97.3945 90.4444 -83.1257 -103.681 91.6008 -82.3152 -107.15 91.8078 
-81.5729 -109.904 91.5303 -81.0114 -111.889 90.9651 -80.6462 -113.375 90.306 
-80.4158 -114.447 89.462 -85.0152 -97.9565 90.2297 -85.7399 -95.6992 89.4838 
-84.1987 -100.719 90.8482 -83.425 -103.831 91.2453 -82.7638 -106.835 91.3013 
-82.2265 -109.294 91.0313 -81.8438 -110.996 90.5635 -81.5558 -112.053 89.9164 
-81.3206 -112.68 89.1592 -86.0438 -96.1188 89.2223 -86.6643 -94.229 88.4917 
-85.3307 -98.3182 89.9128 -84.6411 -100.807 90.4928 -84.0553 -103.46 90.8712 
[...]
CELL_DATA 2000
SCALARS Distance double
LOOKUP_TABLE default
135.556 135.554 135.931 136.721 135.635 135.985 136.863 137.22 138.157 
135.962 136.222 137.224 137.514 138.584 138.869 139.956 136.523 136.737 
137.84 138.066 139.21 139.437 140.568 140.801 141.903 137.118 137.353 
138.467 138.74 139.868 140.112 141.2 141.429 142.506 142.746 143.817 
137.806 137.962 139.041 139.311 140.427 140.711 141.806 142.051 143.15 
143.377 144.495 144.694 145.767 138.737 138.762 139.856 139.98 141.161 
141.338 142.548 142.732 143.963 144.137 145.358 145.49 146.614 146.691 
147.668 139.73 139.76 140.891 140.962 142.211 142.286 143.57 143.656 
144.953 145.077 146.348 146.456 147.603 147.629 148.602 148.564 149.402 
140.587 140.696 141.824 141.988 143.222 143.374 144.599 144.721 145.909 
146.056 147.218 147.386 148.475 148.583 149.557 149.55 150.422 150.312 
151.113 134.829 133.713 134.445 134.794 132.52 133.277 133.617 134.402 
134.811 131.273 132.011 132.321 133.169 133.601 134.458 135.022 130.16 
130.75 130.989 131.822 132.283 133.213 133.806 134.758 135.484 129.433 
129.761 129.899 130.536 130.97 131.883 132.525 133.518 134.258 135.273 
136.077 129.205 129.263 129.341 129.649 130.006 130.689 131.335 132.258 
133.046 134.055 134.927 135.933 136.82 129.429 129.285 129.392 129.39 
129.72 130.028 130.642 131.265 132.061 132.921 133.869 134.866 135.887 
136.834 137.796 129.962 129.71 129.885 129.71 130.087 130.099 130.71 
130.944 131.691 132.185 133.102 133.927 135.027 135.99 137.05 137.909 
138.82 130.647 130.357 130.573 130.352 130.766 130.675 131.297 131.321 
132.016 132.151 132.932 133.388 134.412 135.226 136.341 137.202 138.147 
138.905 139.706 131.13 132.002 131.369 131.103 133.173 132.39 132.149 
131.494 131.379 134.575 133.693 133.454 132.694 132.629 131.968 131.979 
136.099 135.179 134.937 134.095 134.018 133.313 133.332 132.658 132.673 
137.716 136.784 136.601 135.674 135.599 134.784 134.808 134.06 134.086 
133.372 133.496 139.404 138.492 138.418 137.459 137.456 136.522 136.602 
135.702 135.813 134.945 135.155 134.421 134.881 141.053 140.221 140.219 
139.327 139.388 138.475 138.609 137.669 137.839 136.883 137.134 136.274 
136.721 136.062 136.709 142.555 141.834 141.869 141.086 141.167 140.361 
140.505 139.666 139.837 138.95 139.154 138.294 138.614 137.9 138.377 
137.845 138.422 143.9 143.279 143.362 142.673 142.787 142.064 142.23 
141.477 141.666 140.864 141.059 140.236 140.484 139.722 140.072 139.442 
139.898 139.41 139.936 140.958 140.98 141.515 142.741 141.212 141.664 
142.973 143.516 144.827 141.62 141.997 143.329 143.854 145.241 145.672 
146.829 142.143 142.455 143.73 144.227 145.608 146.099 147.301 147.602 
148.656 142.7 142.982 144.176 144.611 145.924 146.424 147.658 148.045 
149.157 149.467 150.682 143.217 143.499 144.627 145.023 146.252 146.718 
147.952 148.392 149.585 149.962 151.206 151.616 153.003 143.705 143.969 
145.038 145.414 146.572 147.015 148.213 148.685 149.911 150.372 151.623 
152.08 153.397 153.909 155.291 144.199 144.428 145.43 145.776 146.877 
147.297 148.45 148.924 150.134 150.65 151.884 152.396 153.625 154.167 
155.449 156.06 157.379 144.662 144.877 145.804 146.127 147.163 147.567 
148.665 149.128 150.283 150.815 152.012 152.565 153.738 154.285 155.468 
156.09 157.352 158.032 159.278 141.383 143.183 142.382 142.714 145.15 
144.281 144.573 143.807 144.151 147.018 146.183 146.363 145.622 145.933 
145.229 145.525 148.908 148.042 148.265 147.42 147.723 146.977 147.323 
146.574 146.837 151.135 150.171 150.642 149.601 150.039 149.005 149.384 
148.447 148.76 147.897 148.131 153.597 152.663 153.329 152.271 152.852 
151.66 152.043 150.8 151.032 149.928 150.136 149.201 149.376 155.976 
155.188 155.917 154.99 155.604 154.522 154.921 153.633 153.797 152.438 
152.55 151.351 151.497 150.456 150.528 158.146 157.511 158.284 157.475 
158.08 157.133 157.575 156.442 156.678 155.32 155.419 154.007 154.097 
152.786 152.817 151.6 151.5 160.063 159.584 160.372 159.706 160.276 
159.457 159.883 158.945 159.242 158.107 158.235 156.905 156.925 155.53 
155.463 154.063 153.857 152.512 152.234 161.312 163.07 162.072 161.613 
164.386 163.624 163.175 162.161 161.49 165.385 164.788 164.397 163.543 
162.913 161.875 161.086 166.109 165.722 165.397 164.666 164.048 163.15 
162.391 161.367 160.459 166.237 166.21 165.916 165.49 164.82 164.11 
163.274 162.456 161.536 160.566 159.475 165.802 166.004 165.692 165.631 
164.974 164.59 163.692 163.087 162.105 161.374 160.305 159.378 158.158 
165.152 165.416 165.088 165.162 164.569 164.442 163.648 163.283 162.327 
161.754 160.686 159.968 158.778 157.893 156.596 164.258 164.656 164.336 
164.504 163.924 163.915 163.191 163.052 162.195 161.836 160.773 160.195 
158.957 158.255 156.909 156.132 154.796 163.034 163.573 163.247 163.612 
163.026 163.17 162.403 162.433 161.578 161.479 160.437 160.088 158.795 
158.238 156.82 156.19 154.81 154.191 152.975 161.327 161.856 162.179 
163.161 162.189 162.654 163.659 163.842 164.511 162.141 162.865 163.891 
164.219 164.859 164.969 165.437 161.482 162.572 163.699 164.293 164.887 
165.125 165.498 165.702 166.035 160.261 161.599 162.823 163.832 164.491 
164.952 165.19 165.499 165.709 166.041 166.143 158.858 160.154 161.288 
162.62 163.411 164.273 164.534 164.99 165.08 165.488 165.572 165.892 
165.784 157.566 158.66 159.55 160.882 161.695 162.893 163.331 164.11 
164.245 164.758 164.818 165.221 165.169 165.412 165.165 156.403 157.323 
157.994 159.125 159.828 161.064 161.628 162.696 163.009 163.779 163.89 
164.415 164.35 164.701 164.445 164.667 164.255 155.352 156.142 156.687 
157.617 158.196 159.272 159.833 160.952 161.391 162.38 162.61 163.351 
163.326 163.8 163.529 163.823 163.385 163.596 163.058 145.166 146.305 
145.921 146.343 147.538 147.152 147.653 147.228 147.725 148.804 148.453 
149.02 148.605 149.16 148.705 149.241 150.022 149.745 150.375 150.001 
150.597 150.171 150.772 150.297 150.877 151.163 150.967 151.684 151.369 
152.009 151.611 152.264 151.85 152.526 152.026 152.63 152.226 152.108 
152.915 152.687 153.396 153.033 153.722 153.349 154.116 153.705 154.414 
153.838 154.393 153.181 153.146 154.008 153.895 154.685 154.415 155.169 
154.838 155.707 155.355 156.234 155.703 156.391 155.656 156.184 154.009 
154.046 154.934 154.932 155.803 155.671 156.552 156.321 157.341 157.056 
158.143 157.671 158.569 157.818 158.474 157.572 158.12 154.718 154.807 
155.7 155.79 156.735 156.751 157.779 157.714 158.899 158.758 160.002 
159.672 160.72 160.088 160.832 159.967 160.526 159.578 160.056 144.709 
144.356 144.939 145.78 143.983 144.574 145.415 146.038 146.949 143.639 
144.218 145.07 145.675 146.574 147.224 148.164 143.345 143.909 144.786 
145.368 146.258 146.858 147.763 148.419 149.336 143.079 143.627 144.513 
145.107 146.012 146.58 147.458 148.041 148.915 149.556 150.438 142.884 
143.375 144.231 144.82 145.726 146.323 147.201 147.767 148.619 149.184 
150.02 150.633 151.476 142.784 143.218 144.036 144.557 145.438 146.018 
146.899 147.486 148.342 148.909 149.717 150.262 151.032 151.633 152.418 
142.693 143.122 143.909 144.39 145.243 145.771 146.648 147.197 148.057 
148.615 149.424 149.959 150.689 151.216 151.921 152.522 153.248 142.564 
142.991 143.732 144.222 145.034 145.575 146.434 146.98 147.825 148.353 
149.154 149.667 150.401 150.889 151.562 152.067 152.736 153.316 153.989 
142.717 143.319 143.292 143.88 143.998 143.944 144.58 144.543 145.207 
144.838 144.728 145.408 145.315 146.039 145.968 146.655 145.798 145.699 
146.422 146.241 146.95 146.841 147.573 147.456 148.081 146.599 146.678 
147.485 147.327 147.991 147.795 148.49 148.376 149.052 148.873 149.418 
147.173 147.401 148.354 148.358 149.078 148.867 149.515 149.333 150.034 
149.866 150.473 150.203 150.673 147.899 148.038 149.1 149.187 150.029 
149.915 150.579 150.388 151.078 150.906 151.566 151.302 151.799 151.44 
151.842 148.924 148.924 149.94 149.976 150.839 150.806 151.501 151.388 
152.049 151.93 152.589 152.398 152.923 152.588 152.983 152.594 152.983 
149.892 149.91 150.758 150.788 151.558 151.573 152.272 152.234 152.893 
152.821 153.459 153.345 153.89 153.659 154.074 153.732 154.111 153.751 
154.176 150.554 151.589 151.195 151.382 152.76 152.275 152.537 152.038 
152.184 154.244 153.648 153.969 153.343 153.554 152.895 152.969 155.721 
155.193 155.553 154.926 155.17 154.425 154.493 153.696 153.658 157.152 
156.644 157.036 156.473 156.735 156.06 156.112 155.289 155.172 154.338 
154.21 158.709 158.176 158.622 157.989 158.275 157.585 157.667 156.869 
156.723 155.849 155.612 154.807 154.6 160.119 159.739 160.252 159.667 
159.992 159.233 159.347 158.472 158.358 157.407 157.129 156.208 155.9 
155.097 154.801 161.234 161.008 161.577 161.2 161.599 160.976 161.131 
160.261 160.163 159.137 158.848 157.792 157.426 156.455 156.095 155.244 
154.895 162.268 162.06 162.639 162.382 162.833 162.427 162.649 161.976 
161.913 160.971 160.679 159.584 159.176 158.074 157.653 156.645 156.255 
155.356 154.997 150.189 149.88 150.445 151.203 149.51 150.096 150.929 
151.471 152.341 149.19 149.763 150.669 151.25 152.242 152.791 153.805 
148.831 149.457 150.39 151.031 152.072 152.702 153.744 154.299 155.265 
148.338 149.042 149.979 150.703 151.718 152.447 153.467 154.135 155.112 
155.687 156.651 147.821 148.522 149.467 150.22 151.22 151.995 153.009 
153.753 154.765 155.457 156.498 157.117 158.151 147.377 148.031 148.946 
149.682 150.668 151.453 152.479 153.261 154.307 155.068 156.142 156.881 
157.937 158.589 159.526 146.968 147.586 148.432 149.14 150.067 150.86 
151.86 152.695 153.734 154.565 155.616 156.433 157.465 158.231 159.179 
159.824 160.643 146.571 147.155 147.941 148.602 149.462 150.221 151.165 
152.012 153.021 153.908 154.937 155.814 156.832 157.666 158.651 159.398 
160.31 160.911 161.712 149.297 147.581 148.678 149.006 145.835 146.886 
147.347 148.37 148.657 144.625 145.309 145.728 146.715 147.155 148.075 
148.356 143.805 144.281 144.497 145.26 145.682 146.59 146.932 147.778 
147.987 142.707 143.33 143.402 144.091 144.333 145.16 145.42 146.285 
146.449 147.307 147.447 141.283 142.024 142.091 142.845 142.961 143.759 
143.881 144.716 144.81 145.679 145.802 146.713 146.903 139.928 140.613 
140.691 141.428 141.503 142.282 142.344 143.145 143.205 144.035 144.164 
145.061 145.292 146.223 146.488 138.714 139.334 139.372 140.044 140.072 
140.795 140.827 141.597 141.658 142.466 142.601 143.468 143.711 144.638 
144.94 145.859 146.13 137.561 138.13 138.122 138.743 138.739 139.395 
139.402 140.111 140.17 140.947 141.088 141.934 142.168 143.078 143.379 
144.314 144.617 145.515 145.77 136.925 136.113 136.824 137.452 135.307 
136.03 136.684 137.394 138.06 134.558 135.273 135.98 136.667 137.35 
138.033 138.719 134.024 134.618 135.36 136.007 136.715 137.371 138.082 
138.747 139.49 133.874 134.252 134.955 135.469 136.209 136.809 137.586 
138.204 139.012 139.632 140.453 134.013 134.25 134.918 135.245 136.019 
136.47 137.35 137.867 138.769 139.296 140.184 140.721 141.59 134.277 
134.46 135.179 135.398 136.224 136.517 137.443 137.825 138.773 139.199 
140.111 140.569 141.467 141.952 142.83 134.688 134.81 135.586 135.772 
136.627 136.859 137.747 138.038 138.928 139.281 140.161 140.564 141.453 
141.897 142.794 143.243 144.095 135.244 135.311 136.07 136.224 137.042 
137.26 138.087 138.342 139.169 139.465 140.323 140.666 141.565 141.948 
142.859 143.26 144.129 144.515 145.293 135.814 136.989 136.458 136.646 
138.389 137.721 137.899 137.354 137.597 140.148 139.294 139.442 138.715 
138.934 138.36 138.632 142.112 141.202 141.364 140.457 140.665 139.868 
140.129 139.467 139.749 144.053 143.191 143.387 142.469 142.674 141.776 
142.035 141.185 141.455 140.681 140.959 145.985 145.149 145.374 144.474 
144.638 143.756 143.971 143.148 143.404 142.56 142.796 141.969 142.231 
147.835 147.076 147.355 146.489 146.661 145.71 145.845 144.988 145.204 
144.442 144.671 143.868 144.069 143.259 143.504 149.497 148.826 149.134 
148.422 148.681 147.785 147.915 146.926 147.061 146.196 146.412 145.649 
145.854 145.077 145.257 144.494 144.718 151.14 150.434 150.71 150.082 
150.381 149.692 149.884 149.002 149.087 148.135 148.258 147.401 147.577 
146.793 146.948 146.189 146.338 145.63 145.819 146.608 147.157 147.237 
147.988 147.81 147.869 148.668 148.706 149.521 148.518 148.596 149.475 
149.488 150.357 150.351 151.237 149.281 149.364 150.336 150.369 151.321 
151.295 152.241 152.189 153.126 150.111 150.182 151.185 151.254 152.291 
152.323 153.371 153.313 154.316 154.181 155.106 150.845 150.988 151.979 
152.105 153.208 153.324 154.512 154.526 155.653 155.5 156.482 156.223 
157.072 151.335 151.608 152.667 152.896 154.124 154.311 155.653 155.739 
157.014 156.913 157.996 157.716 158.61 158.224 158.968 151.74 152.067 
153.283 153.612 155.028 155.312 156.807 156.961 158.326 158.292 159.435 
159.237 160.191 159.839 160.607 160.119 160.714 152.25 152.574 153.918 
154.3 155.821 156.221 157.774 158.077 159.444 159.538 160.629 160.558 
161.479 161.306 162.087 161.738 162.311 161.775 162.17 130.638 129.947 
130.333 130.52 129.417 129.683 129.827 130.278 130.633 129.202 129.271 
129.35 129.641 129.975 130.517 131.05 129.421 129.249 129.256 129.289 
129.531 129.927 130.49 131.072 131.699 130.116 129.705 129.671 129.394 
129.48 129.583 130.058 130.569 131.288 131.836 132.508 131.184 130.617 
130.614 130.079 130.072 129.75 130.021 130.225 130.923 131.474 132.283 
132.769 133.481 132.372 131.774 131.815 131.222 131.271 130.656 130.79 
130.477 131.001 131.242 132.098 132.588 133.414 133.821 134.514 133.519 
132.936 132.959 132.436 132.56 131.988 132.139 131.556 131.897 131.654 
132.368 132.57 133.436 133.791 134.543 134.859 135.498 134.631 134.053 
134.044 133.533 133.645 133.195 133.38 132.896 133.153 132.737 133.229 
133.103 133.837 133.968 134.723 134.944 135.609 135.847 136.451 131.114 
131.044 131.333 131.941 131.213 131.382 132.001 132.271 132.972 131.631 
131.677 132.273 132.428 133.102 133.377 134.136 132.214 132.167 132.718 
132.777 133.413 133.584 134.325 134.603 135.404 132.962 132.804 133.339 
133.3 133.943 133.997 134.735 134.893 135.698 135.932 136.732 133.905 
133.647 134.182 134.032 134.685 134.635 135.353 135.399 136.164 136.306 
137.078 137.27 138.014 134.917 134.648 135.169 134.961 135.563 135.437 
136.064 136.03 136.687 136.776 137.48 137.64 138.346 138.529 139.233 
135.876 135.641 136.141 135.938 136.48 136.313 136.851 136.728 137.282 
137.275 137.919 138.035 138.737 138.888 139.585 139.747 140.433 136.798 
136.572 137.05 136.855 137.363 137.192 137.705 137.532 138.051 137.924 
138.523 138.525 139.22 139.317 140.022 140.14 140.807 140.938 141.567 
131.415 132.246 131.94 132.288 133.284 132.888 133.255 132.96 133.458 
134.457 134.01 134.378 134.019 134.527 134.26 134.857 135.721 135.241 
135.607 135.192 135.674 135.368 135.966 135.722 136.36 137.034 136.551 
136.949 136.485 136.962 136.565 137.142 136.848 137.495 137.25 137.922 
138.316 137.873 138.315 137.874 138.39 137.94 138.5 138.098 138.719 
138.409 139.085 138.842 139.548 139.539 139.136 139.591 139.212 139.731 
139.349 139.882 139.483 140.033 139.671 140.288 140.011 140.691 140.472 
141.16 140.729 140.349 140.79 140.435 140.904 140.578 141.059 140.744 
141.233 140.921 141.454 141.182 141.789 141.576 142.217 142.022 142.636 
141.843 141.509 141.932 141.592 142.016 141.683 142.117 141.818 142.289 
142.018 142.526 142.274 142.823 142.61 143.192 143.013 143.586 143.405 
143.946 149.07 147.949 148.113 147.242 146.865 146.915 146.075 146.239 
145.527 146.193 146.025 145.307 145.306 144.84 144.896 144.521 145.69 
145.513 144.836 144.798 144.486 144.529 144.3 144.236 143.864 144.948 
144.92 144.151 144.245 143.823 144.102 143.821 143.976 143.461 143.413 
142.73 144.087 144.099 143.297 143.378 142.773 143.124 142.703 143.121 
142.524 142.71 141.884 141.953 141.188 143.344 143.323 142.599 142.561 
141.886 142.017 141.488 141.822 141.264 141.549 140.806 140.956 140.208 
140.372 139.782 142.707 142.678 142.006 141.948 141.254 141.231 140.588 
140.714 140.136 140.352 139.736 139.906 139.264 139.416 138.86 139.062 
138.588 142.111 142.074 141.399 141.359 140.649 140.602 139.879 139.888 
139.228 139.35 138.771 138.942 138.395 138.547 138.028 138.19 137.719 
137.916 137.472 
POINT_DATA 1002
SCALARS Distance double
LOOKUP_TABLE default
136.294 135.201 135.176 136.327 135.161 137.545 136.472 135.277 137.793 
139.137 136.922 135.692 138.281 139.682 141.054 137.601 136.279 139.001 
140.354 141.674 142.988 138.184 136.897 139.622 140.987 142.267 143.585 
144.887 138.81 137.718 140.135 141.532 142.905 144.288 145.622 146.8 
139.763 138.735 141.003 142.354 143.766 145.227 146.57 147.659 148.553 
140.79 139.671 142.129 143.51 144.856 146.246 147.582 148.668 149.489 
150.173 141.637 140.461 143.054 144.49 145.805 147.076 148.342 149.511 
150.502 151.282 151.892 134.114 134.049 132.979 132.806 131.777 133.999 
131.452 130.594 132.707 134.102 130.208 129.683 131.31 132.835 134.486 
129.399 129.224 130.096 131.509 133.236 135.058 129.174 129.224 129.459 
130.47 132.034 133.876 135.851 129.465 129.605 129.545 130.165 131.299 
132.86 134.877 136.938 130.068 130.22 130.129 130.594 131.378 132.403 
134.05 136.159 138.058 130.792 130.937 130.867 131.308 131.997 132.68 
133.718 135.475 137.395 138.992 131.667 131.654 132.689 132.831 134.003 
131.966 134.247 135.478 133.289 132.637 135.815 137.008 134.753 134.018 
133.346 137.532 138.613 136.461 135.588 134.822 134.096 139.338 140.267 
138.389 137.523 136.7 135.922 135.455 141.063 141.835 140.261 139.52 
138.79 138.034 137.452 137.261 142.61 143.226 141.939 141.307 140.696 
140.033 139.402 138.993 138.884 144.005 144.473 143.477 142.952 142.437 
141.871 141.28 140.776 140.454 140.361 142.059 142.133 144.04 142.412 
144.384 146.066 142.809 144.776 146.576 147.856 143.283 145.106 146.954 
148.383 149.736 143.799 145.454 147.222 148.807 150.288 152.028 144.268 
145.823 147.488 149.159 150.799 152.538 154.448 144.693 146.159 147.743 
149.419 151.167 152.91 154.748 156.683 145.119 146.483 147.998 149.619 
151.374 153.12 154.85 156.756 158.709 145.513 146.785 148.229 149.777 
151.463 153.209 154.891 156.67 158.64 160.497 143.458 145.353 144.916 
147.14 146.605 146.288 149.138 148.527 148.049 147.641 151.646 151.149 
150.449 149.662 148.986 154.32 154.026 153.39 152.298 151.144 150.286 
156.805 156.633 156.162 155.22 153.881 152.631 151.581 159.06 159 
158.618 157.957 156.871 155.518 154.153 152.725 160.999 161.074 160.768 
160.276 159.507 158.34 156.93 155.318 153.536 162.452 162.778 163.989 
164.115 165.059 162.643 165.202 165.905 163.884 162.228 166.073 166.36 
164.925 163.351 161.61 166.202 166.155 165.476 164.067 162.422 160.594 
165.66 165.598 165.218 164.233 162.789 161.123 159.215 164.997 164.869 
164.614 163.883 162.841 161.37 159.585 157.548 164.109 163.804 163.909 
163.258 162.446 161.318 159.653 157.647 155.54 162.815 162.493 162.828 
162.357 161.613 160.698 159.317 157.431 155.393 153.502 161.049 163.052 
161.484 163.443 161.658 164.494 163.512 161.269 164.731 165.36 162.95 
160.24 164.647 165.294 165.854 161.62 158.937 163.912 164.925 165.363 
165.922 159.92 157.73 162.341 163.994 164.693 165.193 165.609 158.344 
156.637 160.401 162.357 163.654 164.399 164.871 165.037 157.002 155.579 
158.647 160.451 162.094 163.296 163.986 164.204 164.104 155.853 154.63 
157.216 158.735 160.329 161.767 162.785 163.221 163.173 162.89 145.518 
146.737 146.665 148.059 147.895 148.169 149.412 149.112 149.595 149.724 
150.718 150.244 151.004 151.202 151.399 151.949 151.307 152.397 152.64 
152.962 153.227 153.081 152.302 153.729 154.079 154.462 154.936 155.087 
154.068 153.186 154.889 155.453 155.991 156.679 157.097 156.998 154.895 
153.956 155.851 156.685 157.533 158.512 159.251 159.375 159.065 144.142 
145.163 143.77 144.796 143.388 146.292 144.474 143.06 145.945 147.491 
144.198 142.782 145.691 147.147 148.66 143.906 142.555 145.439 146.911 
148.323 149.772 143.67 142.432 145.121 146.625 148.075 149.466 150.831 
143.557 142.367 144.886 146.315 147.766 149.193 150.499 151.778 143.444 
142.272 144.73 146.118 147.519 148.894 150.195 151.383 152.612 143.261 