# vtk DataFile Version 4.0
vtk output
ASCII
DATASET POLYDATA
POINTS 1002 float
-84.3307 -87.5846 74.3342 -84.4775 -86.6855 73.2216 -83.9723 -86.6331 73.8598 
-83.7769 -87.6525 75.0364 -83.2991 -86.7349 74.5303 -84.1563 -88.634 75.6147 
-83.1069 -87.849 75.8021 -82.6189 -86.9078 75.3459 -83.5945 -88.7798 76.4323 
-83.9576 -89.7493 77.1131 -82.5013 -88.0555 76.8411 -82.0564 -87.1163 76.4173 
-83.0407 -88.9645 77.4189 -83.4333 -89.9122 78.0941 -83.7776 -90.9112 78.7985 
-82.0034 -88.2364 78.169 -81.5831 -87.3585 77.7029 -82.5446 -89.1289 78.6958 
-82.9361 -90.1178 79.248 -83.207 -91.2277 79.8456 -83.5592 -92.2879 80.5302 
-81.5015 -88.4953 79.5193 -81.1735 -87.6032 79.1099 -81.9819 -89.3976 80.0101 
-82.3355 -90.4695 80.4952 -82.5654 -91.7109 80.9568 -82.8441 -92.934 81.509 
-83.1935 -93.95 82.1586 -80.9306 -88.9505 80.7616 -80.7055 -87.937 80.4341 
-81.3679 -89.931 81.1761 -81.6593 -91.077 81.6732 -81.8648 -92.3798 82.1514 
-82.1475 -93.6631 82.5956 -82.4653 -94.7535 83.1033 -82.7998 -95.6794 83.6575 
-80.2676 -89.5472 81.8301 -80.0606 -88.4329 81.4234 -80.7791 -90.6173 82.2995 
-81.1246 -91.8226 82.8627 -81.3153 -93.1145 83.4537 -81.6356 -94.3349 83.9248 
-81.9479 -95.4543 84.2826 -82.2141 -96.4819 84.6725 -82.5252 -97.467 85.109 
-79.6505 -90.069 82.6683 -79.4552 -88.9546 82.1822 -80.1997 -91.1742 83.2874 
-80.639 -92.4622 83.9842 -80.8551 -93.8101 84.6815 -81.2262 -94.9611 85.2526 
-81.6286 -96.0509 85.6081 -81.8333 -97.2601 85.8724 -82.0295 -98.4804 86.1827 
-82.2808 -99.5804 86.4977 -79.3143 -90.4297 83.4632 -79.1721 -89.3779 83.0419 
-79.7453 -91.542 84.0848 -80.1115 -92.9491 84.8279 -80.2768 -94.4956 85.5685 
-80.6476 -95.7362 86.2109 -81.2169 -96.7666 86.671 -81.5373 -98.0567 86.9769 
-81.6534 -99.574 87.251 -81.8054 -100.949 87.4996 -81.9666 -102.019 87.6486 
-84.3236 -85.7984 72.5246 -83.6822 -85.7489 73.171 -84.0014 -84.9601 71.7375 
-83.2528 -84.9036 72.4169 -83.4669 -84.1153 70.8895 -82.988 -85.7905 73.9453 
-82.7786 -84.0186 71.683 -82.9834 -83.1383 70.1484 -82.707 -84.8198 73.412 
-82.4 -85.8637 74.9055 -82.4983 -82.9872 71.1742 -82.8026 -82.0274 69.758 
-82.3881 -83.8264 72.9954 -82.1694 -84.7573 74.5604 -81.8112 -86.0737 75.9942 
-82.4147 -81.7889 71.0276 -82.7599 -80.8238 69.8742 -82.0441 -82.8056 72.7743 
-81.5956 -83.715 74.3353 -81.366 -84.9347 75.6514 -81.3102 -86.3482 77.312 
-82.3172 -80.5003 71.2509 -82.7687 -79.657 70.4383 -81.8396 -81.7127 72.7531 
-81.0109 -82.8052 74.2849 -80.6065 -83.8805 75.5067 -80.934 -85.162 77.0469 
-81.0718 -86.52 78.8946 -82.3155 -79.4805 71.7918 -83.061 -78.9337 71.1803 
-81.8452 -80.6208 72.9704 -81.0485 -81.9166 74.4245 -80.2665 -83.0375 75.6422 
-80.4431 -84.0987 76.9815 -80.9596 -85.2785 78.7014 -80.7118 -86.7741 80.2673 
-82.6491 -79.1411 72.4919 -83.6342 -78.9035 71.863 -82.0461 -79.9217 73.4436 
-81.5256 -81.0937 74.7511 -80.7369 -82.2949 76.01 -80.2705 -83.3433 77.1629 
-80.5241 -84.2856 78.5485 -80.6069 -85.5359 80.0101 -80.03 -87.2619 81.2026 
-83.2311 -79.4178 73.182 -84.2049 -79.3394 72.4684 -82.4508 -79.8592 74.0318 
-81.9785 -80.6749 75.1893 -81.4282 -81.7038 76.4876 -80.6039 -82.7696 77.6035 
-80.0794 -83.6683 78.6479 -80.0539 -84.592 79.8453 -79.8981 -86.0358 81.0496 
-79.45 -87.8311 82.0971 -84.1251 -79.9401 73.6269 -83.2409 -80.1518 74.4416 
-84.1243 -80.6417 74.9647 -83.3131 -81.006 75.9052 -84.2102 -81.342 76.5684 
-82.5112 -80.668 75.4828 -83.3265 -81.7513 77.8923 -84.2143 -81.8854 78.7462 
-82.5158 -81.5442 77.2873 -81.9756 -81.4145 76.8762 -83.1319 -82.1945 80.3804 
-83.989 -82.2929 81.1397 -82.339 -82.217 79.5918 -81.7426 -82.2104 78.902 
-81.1791 -82.3522 78.2277 -82.8822 -82.6341 82.4987 -83.7328 -82.9343 82.9063 
-82.1049 -82.6926 81.8095 -81.4538 -82.9013 81.0006 -80.7082 -83.0658 80.1103 
-80.1072 -83.3036 79.2297 -82.8804 -83.53 83.9505 -83.6735 -83.9521 84.1553 
-82.0655 -83.4523 83.4153 -81.4075 -83.6674 82.6937 -80.6064 -83.8265 81.9162 
-79.7279 -83.9073 81.0219 -79.5301 -84.1361 80.2289 -83.0452 -84.7792 85.2746 
-83.7068 -85.1207 85.4184 -82.2328 -84.6578 84.8182 -81.5053 -84.7815 84.14 
-80.8503 -84.875 83.5352 -80.0238 -84.8157 82.9472 -79.4252 -84.905 82.17 
-79.4977 -85.3479 81.4352 -83.1134 -86.1015 86.5132 -83.699 -86.3139 86.6137 
-82.3966 -86.0219 86.1729 -81.6441 -86.1019 85.5832 -81.0258 -86.2149 84.9948 
-80.4519 -86.1982 84.6146 -79.8612 -86.2026 84.1804 -79.4876 -86.5203 83.4234 
-79.4013 -87.1392 82.6084 -83.0833 -87.3864 87.4949 -83.6935 -87.49 87.5753 
-82.4413 -87.3638 87.2507 -81.8117 -87.4309 86.8297 -81.2433 -87.5891 86.2913 
-80.7245 -87.7535 85.8567 -80.2213 -87.8563 85.6221 -79.7798 -88.0283 85.2433 
-79.445 -88.4008 84.4764 -79.2256 -88.8991 83.6195 -79.2383 -90.4391 84.3864 
-79.3498 -90.149 85.2218 -79.4591 -91.7992 86.0426 -79.5861 -89.9066 86.0843 
-79.5178 -91.6927 86.9824 -79.5005 -93.891 87.861 -79.9469 -89.7409 86.5438 
-79.6946 -91.6084 87.6154 -79.5657 -93.7683 88.6987 -79.4333 -96.506 89.4804 
-80.4984 -89.5633 86.7255 -80.1751 -91.4951 87.8244 -79.8822 -93.5746 89.0475 
-79.7046 -96.1975 89.9944 -79.5882 -99.007 90.5702 -81.1048 -89.2692 87.0936 
-80.9033 -91.2371 88.1018 -80.5362 -93.3745 89.1882 -80.2805 -95.8672 90.0779 
-80.0961 -98.679 90.797 -79.8354 -101.294 91.3944 -81.5691 -88.9605 87.6108 
-81.4439 -90.8181 88.6146 -81.1657 -93.0475 89.5639 -80.8983 -95.6011 90.1932 
-80.7615 -98.3501 90.8177 -80.3934 -101.055 91.6422 -79.8072 -103.532 92.2732 
-81.9997 -88.771 88.0242 -81.723 -90.4167 89.0546 -81.4907 -92.5153 90.0439 
-81.2756 -95.1311 90.5871 -81.2023 -97.9347 91.0432 -80.9673 -100.625 91.7996 
-80.329 -103.219 92.5475 -79.6513 -105.691 92.8787 -82.5958 -88.674 88.3155 
-82.1562 -90.1387 89.3565 -81.822 -91.9723 90.4069 -81.5771 -94.4124 91.0265 
-81.448 -97.2234 91.4969 -81.2972 -99.9677 92.1819 -80.8604 -102.627 92.7527 
-80.2213 -105.287 92.9936 -79.701 -107.76 93.0025 -83.3176 -88.6364 88.4738 
-82.8918 -89.9552 89.5449 -82.4703 -91.5773 90.6303 -82.1004 -93.7456 91.3087 
-81.7985 -96.3696 91.8149 -81.5321 -99.0821 92.5954 -81.219 -101.817 93.1732 
-80.807 -104.644 93.179 -80.3393 -107.351 93.028 -79.9058 -109.66 92.9804 
-79.4636 -91.6077 84.8515 -79.5173 -93.5266 86.5343 -79.6779 -93.1868 85.4939 
-79.3734 -96.3294 88.3516 -79.4123 -95.8014 87.0987 -79.7005 -95.1289 86.2115 
-79.428 -99.1302 89.8951 -79.4429 -98.7882 88.8247 -79.5392 -97.9214 87.7297 
-79.9656 -96.7741 86.9079 -79.6681 -101.457 90.9259 -79.89 -101.248 90.232 
-80.0941 -100.563 89.3612 -80.2421 -99.3593 88.3705 -80.6674 -97.9278 87.494 
-79.5922 -103.789 91.7486 -79.9013 -103.583 91.0423 -80.4249 -103.028 90.4841 
-80.701 -102.13 89.8024 -80.8698 -100.789 88.846 -81.1923 -99.2967 87.9117 
-79.3151 -106.232 92.4366 -79.3876 -106.26 91.5676 -79.8044 -105.858 90.8645 
-80.289 -105.243 90.5 -80.6818 -104.265 89.9311 -81.0195 -102.799 89.0972 
-81.3452 -101.126 88.224 -79.2942 -108.532 92.7468 -79.1525 -108.894 91.9883 
-79.2137 -108.794 91.0836 -79.4623 -108.441 90.5894 -79.9867 -107.8 90.3052 
-80.614 -106.592 89.8352 -81.089 -104.844 89.2172 -81.4456 -102.854 88.4531 
-79.4664 -110.562 92.8122 -79.259 -111.176 92.2586 -79.1994 -111.385 91.425 
-79.2017 -111.297 90.7681 -79.4954 -110.928 90.4049 -80.1536 -109.986 90.0741 
-80.7897 -108.372 89.6885 -81.2005 -106.322 89.2108 -81.556 -104.108 88.5224 
-79.71 -111.993 93.0363 -79.3116 -112.952 92.6247 -79.332 -114.14 93.0605 
-78.9675 -115.214 92.3106 -79.158 -116.045 92.7436 -79.1966 -113.584 91.8838 
-78.8478 -117.238 91.7243 -79.6753 -117.663 92.1122 -78.8925 -115.952 91.4221 
-79.1993 -113.849 91.1413 -79.3395 -118.924 90.8432 -80.4969 -118.769 91.3722 
-78.6729 -118.107 90.5636 -78.9674 -116.347 90.6914 -79.3284 -113.79 90.6267 
-80.0524 -120.026 89.7838 -80.9957 -119.107 90.5899 -78.9291 -119.801 89.184 
-78.708 -118.524 89.5696 -79.317 -116.144 90.1619 -79.8277 -113.084 90.2068 
-80.7034 -120.003 89.0906 -81.4699 -118.548 90.0693 -79.6122 -120.455 88.056 
-78.9187 -119.762 88.1683 -79.2471 -117.814 89.2042 -79.9965 -114.756 89.7983 
-80.5016 -111.454 89.8118 -81.5985 -118.701 89.0823 -82.3078 -117.266 89.8895 
-80.6303 -119.545 88.0153 -79.7454 -119.438 87.6682 -79.6238 -118.178 88.4534 
-80.1353 -115.614 89.2817 -80.6443 -112.345 89.483 -80.976 -109.216 89.4245 
-82.6858 -116.859 89.1217 -83.243 -115.711 89.6008 -81.8792 -117.67 88.437 
-80.9207 -117.844 88.0157 -80.4394 -117.183 88.3325 -80.6257 -115.424 88.9228 
-80.9165 -112.651 89.1138 -81.1038 -109.591 89.0432 -81.3346 -106.748 88.9016 
-83.5592 -115.118 88.7635 -83.9632 -114.168 89.0738 -82.9928 -115.801 88.401 
-82.1192 -115.992 88.1499 -81.3588 -115.57 88.264 -81.2446 -114.384 88.6103 
-81.4513 -112.275 88.7517 -81.5019 -109.548 88.6465 -81.5655 -106.794 88.4863 
-81.7775 -104.279 88.1943 -80.4004 -110.046 93.0888 -80.1161 -112.32 93.369 
-80.9231 -110.099 93.3142 -80.698 -112.169 93.6665 -81.449 -109.559 93.5103 
-79.7814 -114.258 93.5103 -81.4894 -111.415 93.7698 -82.1716 -108.337 93.6114 
-80.6432 -113.867 93.7232 -79.9786 -115.942 93.0742 -82.5409 -110.014 93.7954 
-83.1485 -106.638 93.7062 -81.7764 -112.927 93.7514 -81.0462 -115.242 93.114 
-80.7077 -117.157 92.3053 -83.6101 -108.074 93.7627 -84.0844 -104.786 93.6863 
-82.9962 -111.349 93.8046 -82.1215 -113.937 93.204 -81.4557 -115.809 92.2388 
-81.2155 -117.517 91.5346 -84.4412 -105.909 93.5218 -84.9197 -103.061 93.4841 
-83.9808 -109.212 93.6231 -83.2729 -112.154 93.4155 -82.3347 -114.076 92.448 
-81.7284 -115.54 91.4763 -81.5406 -117.198 90.8586 -85.2383 -103.903 93.241 
-85.7933 -101.633 93.1944 -84.6761 -106.819 93.1594 -84.2339 -109.935 93.2247 
-83.6023 -112.301 92.8153 -82.8453 -113.766 91.8051 -82.3772 -115.121 90.9905 
-82.2486 -116.48 90.4865 -86.0919 -102.272 92.9548 -86.5344 -100.466 92.7002 
-85.4062 -104.585 92.7987 -84.8873 -107.385 92.7181 -84.5729 -110.075 92.6852 
-84.1443 -112.031 92.1741 -83.6413 -113.402 91.3614 -83.3066 -114.549 90.738 
-83.1967 -115.369 90.22 -86.7637 -100.94 92.3864 -86.9622 -99.3929 91.8753 
-86.226 -102.767 92.4779 -85.5697 -104.992 92.3286 -85.1313 -107.449 92.2139 
[...]
CELL_DATA 2000
SCALARS Distance double
LOOKUP_TABLE default
140.811 140.844 141.186 141.939 140.94 141.264 142.076 142.409 143.241 
141.221 141.465 142.338 142.625 143.52 143.803 144.699 141.718 141.881 
142.798 143.01 143.951 144.173 145.108 145.35 146.304 142.343 142.458 
143.372 143.549 144.494 144.683 145.631 145.833 146.81 147.038 148.022 
143.014 143.108 144.002 144.152 145.109 145.274 146.262 146.43 147.443 
147.621 148.631 148.803 149.763 143.604 143.748 144.659 144.819 145.837 
145.978 147.049 147.169 148.259 148.366 149.419 149.505 150.493 150.579 
151.531 144.062 144.266 145.205 145.455 146.528 146.751 147.873 148.032 
149.151 149.26 150.333 150.385 151.398 151.42 152.427 152.452 153.46 
144.562 144.72 145.666 145.946 147.033 147.366 148.5 148.785 149.89 
150.097 151.156 151.283 152.313 152.377 153.434 153.463 154.547 154.519 
155.538 140.132 139.072 139.774 140.11 137.889 138.657 139.008 139.759 
140.168 136.64 137.443 137.872 138.668 139.132 139.881 140.409 135.537 
136.266 136.779 137.582 138.117 138.87 139.408 140.197 140.847 134.696 
135.302 135.829 136.578 137.103 137.838 138.334 139.151 139.803 140.709 
141.465 134.097 134.551 135.045 135.719 136.219 136.854 137.278 138.022 
138.677 139.64 140.496 141.415 142.199 133.907 134.076 134.525 135.041 
135.634 136.139 136.615 137.119 137.759 138.572 139.507 140.468 141.347 
142.159 142.829 134.313 134.144 134.533 134.747 135.436 135.807 136.471 
136.773 137.407 137.89 138.725 139.53 140.412 141.268 141.961 142.71 
143.281 135.15 134.798 135.13 135.036 135.687 135.874 136.655 136.88 
137.555 137.781 138.416 138.879 139.588 140.316 141.019 141.807 142.449 
143.174 143.796 135.765 136.818 136.079 135.797 138.084 137.272 137.047 
136.311 136.296 139.546 138.674 138.508 137.693 137.685 137.024 137.196 
141.047 140.204 140.058 139.233 139.2 138.467 138.538 137.929 138.063 
142.381 141.64 141.479 140.74 140.67 139.956 139.905 139.221 139.183 
138.634 138.763 143.668 142.943 142.821 142.098 142.054 141.366 141.322 
140.577 140.451 139.742 139.753 139.323 139.685 145.098 144.349 144.34 
143.537 143.555 142.795 142.867 142.081 142.095 141.21 141.251 140.503 
140.825 140.438 141.042 146.547 145.865 145.94 145.164 145.218 144.413 
144.527 143.74 143.915 143.055 143.259 142.34 142.671 141.905 142.432 
141.957 142.574 147.861 147.275 147.369 146.716 146.796 146.075 146.192 
145.449 145.66 144.912 145.212 144.419 144.782 143.954 144.376 143.62 
144.09 143.52 144.016 144.947 145.194 145.555 146.656 145.592 145.939 
147.107 147.463 148.768 145.967 146.354 147.525 147.931 149.225 149.707 
151.173 146.303 146.694 147.848 148.292 149.549 150.078 151.488 152.102 
153.564 146.69 147.033 148.202 148.626 149.886 150.366 151.721 152.316 
153.755 154.389 155.758 147.14 147.427 148.562 148.994 150.249 150.718 
152.016 152.54 153.926 154.547 155.959 156.536 157.807 147.626 147.851 
148.864 149.287 150.462 150.993 152.224 152.779 154.08 154.704 156.078 
156.713 158.007 158.524 159.636 148.13 148.306 149.215 149.548 150.622 
151.114 152.282 152.861 154.101 154.766 156.085 156.774 158.037 158.635 
159.738 160.223 161.194 148.608 148.781 149.654 149.912 150.92 151.299 
152.397 152.888 154.053 154.688 155.95 156.684 157.933 158.598 159.703 
160.246 161.235 161.698 162.605 145.247 146.904 146.103 146.364 149.06 
148.002 148.223 147.385 147.775 151.605 150.43 150.666 149.516 149.821 
148.917 149.31 154.114 153.084 153.441 152.198 152.445 151.218 151.483 
150.48 150.775 156.301 155.482 155.946 154.935 155.252 154.005 154.178 
152.883 153.035 151.931 152.104 158.28 157.552 157.988 157.201 157.582 
156.644 156.89 155.67 155.754 154.413 154.477 153.273 153.355 160.101 
159.461 159.852 159.105 159.424 158.686 159.01 158.149 158.357 157.178 
157.244 155.882 155.919 154.596 154.612 161.706 161.2 161.655 160.945 
161.24 160.463 160.775 160.057 160.411 159.57 159.796 158.647 158.709 
157.343 157.307 155.899 155.806 163.133 162.739 163.288 162.71 163.086 
162.325 162.645 161.871 162.27 161.528 161.891 161.001 161.147 160.005 
159.928 158.598 158.387 157.004 156.764 164.083 165.492 164.66 164.259 
166.675 165.971 165.606 164.725 164.13 167.705 167.065 166.761 166.004 
165.513 164.52 163.796 168.608 168.056 167.724 167.067 166.692 165.895 
165.321 164.217 163.465 169.061 168.802 168.41 167.882 167.463 166.929 
166.5 165.691 164.988 163.869 163.037 168.907 168.979 168.633 168.323 
167.801 167.468 167.053 166.62 165.987 165.167 164.22 163.211 162.212 
168.402 168.643 168.383 168.302 167.77 167.578 167.111 166.919 166.335 
165.837 164.849 164.052 162.888 162.055 160.915 167.707 168.039 167.808 
167.91 167.414 167.354 166.824 166.773 166.194 165.948 164.995 164.392 
163.136 162.427 161.181 160.501 159.304 166.806 167.22 166.988 167.243 
166.779 166.848 166.246 166.283 165.637 165.601 164.709 164.348 163.105 
162.494 161.173 160.568 159.351 158.766 157.61 164.171 164.697 164.872 
165.616 164.954 165.327 166.113 166.228 166.806 164.806 165.425 166.296 
166.612 167.242 167.322 167.83 164.354 165.14 166.117 166.656 167.323 
167.594 168.094 168.25 168.676 163.671 164.566 165.59 166.356 167.051 
167.481 167.803 168.146 168.408 168.782 168.972 162.797 163.699 164.625 
165.621 166.398 167.061 167.313 167.625 167.61 168.05 168.134 168.681 
168.7 161.992 162.724 163.421 164.42 165.204 166.184 166.653 167.117 
167.113 167.293 167.272 167.673 167.795 168.274 168.241 161.337 161.931 
162.409 163.168 163.755 164.79 165.394 166.275 166.53 166.903 166.89 
167.08 167.14 167.454 167.507 167.815 167.643 160.563 161.211 161.594 
162.198 162.563 163.36 163.819 164.816 165.186 166.018 166.108 166.608 
166.557 166.9 166.823 167.117 166.924 167.143 166.793 149.111 150.266 
149.863 150.232 151.462 151.099 151.579 151.114 151.545 152.674 152.338 
152.916 152.52 153.035 152.525 152.998 153.949 153.608 154.247 153.891 
154.498 154.039 154.576 154.045 154.61 155.185 154.899 155.6 155.287 
155.999 155.566 156.206 155.676 156.327 155.792 156.498 156.367 156.117 
156.893 156.661 157.497 157.148 157.893 157.385 158.096 157.569 158.326 
157.789 158.491 157.664 157.384 158.215 157.973 158.88 158.637 159.474 
159.08 159.818 159.343 160.106 159.615 160.328 159.738 160.287 158.953 
158.751 159.581 159.325 160.172 159.969 160.823 160.572 161.351 160.991 
161.765 161.354 162.108 161.57 162.146 161.45 161.855 159.918 159.91 
160.681 160.554 161.271 161.145 161.938 161.82 162.65 162.434 163.242 
162.935 163.713 163.298 163.921 163.307 163.71 162.955 163.24 148.66 
148.297 148.899 149.752 147.955 148.54 149.396 150.007 150.883 147.677 
148.226 149.066 149.651 150.524 151.145 152.06 147.4 147.948 148.759 
149.328 150.194 150.804 151.746 152.381 153.335 147.086 147.648 148.459 
149.023 149.868 150.47 151.41 152.076 153.055 153.679 154.578 146.791 
147.339 148.185 148.744 149.584 150.145 151.031 151.694 152.66 153.355 
154.27 154.869 155.725 146.534 147.059 147.903 148.48 149.332 149.878 
150.712 151.305 152.209 152.901 153.821 154.496 155.373 156.004 156.926 
146.279 146.78 147.561 148.158 148.989 149.586 150.408 150.989 151.849 
152.476 153.358 154.011 154.855 155.543 156.425 157.177 158.118 146.046 
146.498 147.205 147.767 148.539 149.164 149.967 150.614 151.472 152.125 
152.992 153.598 154.375 154.979 155.742 156.499 157.359 158.226 159.069 
146.171 146.809 146.732 147.314 147.553 147.418 147.961 147.935 148.598 
148.323 148.161 148.655 148.59 149.247 149.28 150.024 149.145 148.947 
149.435 149.305 149.975 149.983 150.824 150.832 151.632 150.056 149.832 
150.354 150.155 150.849 150.799 151.723 151.741 152.656 152.54 153.247 
150.986 150.778 151.336 151.137 151.85 151.761 152.705 152.716 153.675 
153.597 154.31 154.076 154.599 151.855 151.683 152.257 152.117 152.853 
152.784 153.714 153.723 154.685 154.624 155.355 155.118 155.639 155.353 
155.892 152.598 152.491 153.074 153.011 153.762 153.743 154.623 154.663 
155.595 155.607 156.409 156.217 156.821 156.48 157.083 156.781 157.49 
153.179 153.16 153.778 153.8 154.574 154.6 155.416 155.459 156.302 
156.398 157.248 157.247 157.983 157.749 158.402 158.076 158.779 158.495 
159.207 153.632 154.819 154.246 154.412 156.39 155.69 155.907 155.202 
155.343 158.098 157.403 157.654 156.858 156.965 156.155 156.204 159.874 
159.208 159.614 158.756 158.893 157.899 157.883 156.997 157.053 161.644 
161.059 161.603 160.823 161.065 159.993 159.945 158.829 158.816 157.926 
158.024 163.12 162.715 163.182 162.654 162.866 162.056 161.948 160.908 
160.754 159.778 159.775 158.912 158.871 164.249 163.969 164.347 163.965 
164.115 163.544 163.417 162.63 162.383 161.547 161.403 160.608 160.503 
159.63 159.393 165.235 164.986 165.401 165.042 165.279 164.735 164.755 
164.008 163.856 163.018 162.828 162.05 161.892 161.142 160.939 160.065 
159.776 166.162 165.941 166.352 166.062 166.341 165.917 166.057 165.439 
165.439 164.603 164.44 163.503 163.251 162.419 162.188 161.46 161.229 
160.42 160.136 153.44 153.408 153.733 154.496 153.334 153.711 154.533 
154.994 156.015 153.168 153.635 154.532 155.053 156.105 156.606 157.677 
152.89 153.437 154.354 154.982 156.04 156.642 157.69 158.224 159.311 
152.532 153.118 153.996 154.686 155.706 156.433 157.485 158.141 159.225 
159.862 161.009 152.105 152.711 153.553 154.254 155.234 155.998 157.052 
157.814 158.928 159.684 160.844 161.533 162.572 151.642 152.235 153.04 
153.753 154.726 155.508 156.557 157.339 158.435 159.263 160.418 161.243 
162.305 162.944 163.773 151.232 151.769 152.516 153.195 154.134 154.953 
156.005 156.828 157.883 158.709 159.816 160.698 161.801 162.584 163.508 
164.057 164.783 150.904 151.389 152.087 152.677 153.53 154.309 155.322 
156.2 157.247 158.108 159.176 160.059 161.185 162.047 163.096 163.775 
164.625 165.083 165.757 152.945 152.23 152.727 152.899 151.022 151.858 
152.068 152.611 152.744 149.314 150.367 150.717 151.581 151.733 152.352 
152.475 147.879 148.696 149.084 150.053 150.354 151.17 151.303 151.989 
152.135 146.812 147.473 147.772 148.566 148.922 149.742 149.964 150.71 
150.852 151.591 151.759 145.516 146.312 146.547 147.347 147.641 148.422 
148.645 149.368 149.507 150.246 150.406 151.181 151.347 144.158 144.922 
145.156 145.987 146.225 147.08 147.268 148.052 148.161 148.894 149.022 
149.796 149.98 150.757 150.922 143.058 143.698 143.917 144.612 144.792 
145.575 145.738 146.576 146.715 147.516 147.641 148.414 148.587 149.379 
149.584 150.35 150.535 141.942 142.61 142.76 143.426 143.535 144.206 
144.31 145.059 145.225 146.043 146.242 147.038 147.229 148.004 148.213 
149.001 149.226 149.993 150.206 141.248 140.337 141.221 142.065 139.561 
140.33 141.219 142.07 142.874 139.145 139.709 140.548 141.288 142.168 
142.902 143.667 138.939 139.417 140.212 140.78 141.647 142.294 143.145 
143.784 144.593 138.862 139.273 140.094 140.555 141.391 141.915 142.791 
143.374 144.254 144.834 145.665 139.054 139.325 140.183 140.54 141.398 
141.788 142.662 143.142 144.055 144.585 145.446 145.946 146.713 139.463 
139.629 140.459 140.741 141.617 141.917 142.781 143.136 144.036 144.475 
145.346 145.787 146.564 146.99 147.715 139.951 140.056 140.807 141.044 
141.873 142.164 142.99 143.307 144.155 144.529 145.38 145.759 146.539 
146.904 147.645 148.03 148.753 140.491 140.543 141.225 141.385 142.14 
142.392 143.167 143.474 144.272 144.637 145.462 145.832 146.615 146.945 
147.687 148.023 148.762 149.107 149.792 141.03 142.163 141.63 141.773 
143.464 142.856 142.99 142.44 142.648 144.923 144.251 144.397 143.744 
143.911 143.365 143.632 146.537 145.807 145.987 145.249 145.409 144.724 
144.948 144.403 144.736 148.252 147.5 147.704 146.919 147.086 146.313 
146.512 145.833 146.132 145.581 145.942 149.98 149.249 149.484 148.689 
148.863 148.044 148.227 147.468 147.721 147.065 147.374 146.802 147.106 
151.739 151.003 151.299 150.51 150.725 149.874 150.048 149.221 149.436 
148.696 148.957 148.291 148.557 147.943 148.195 153.635 152.835 153.169 
152.368 152.63 151.775 151.948 151.072 151.232 150.423 150.627 149.9 
150.13 149.452 149.68 149.038 149.268 155.643 154.799 155.108 154.278 
154.535 153.687 153.849 152.964 153.06 152.203 152.315 151.548 151.706 
151.014 151.19 150.534 150.707 150.084 150.263 150.951 151.443 151.508 
152.159 151.976 152.056 152.782 152.819 153.601 152.549 152.644 153.463 
153.521 154.402 154.444 155.387 153.23 153.306 154.239 154.301 155.305 
155.347 156.389 156.387 157.37 154.059 154.117 155.177 155.222 156.366 
156.386 157.553 157.513 158.606 158.464 159.41 154.924 155.038 156.219 
156.299 157.574 157.596 158.872 158.808 160.008 159.844 160.907 160.612 
161.506 155.674 155.901 157.168 157.372 158.758 158.88 160.239 160.208 
161.443 161.305 162.423 162.188 163.129 162.741 163.469 156.306 156.616 
157.924 158.25 159.69 159.996 161.431 161.553 162.781 162.702 163.748 
163.608 164.522 164.28 164.971 164.55 165.025 156.883 157.238 158.548 
158.925 160.331 160.772 162.224 162.579 163.82 163.901 164.826 164.752 
165.527 165.437 166.087 165.864 166.3 165.883 166.156 135.123 134.331 
134.788 134.969 133.87 134.124 134.335 134.723 134.873 133.925 133.866 
133.96 134.174 134.252 134.563 134.651 134.419 134.102 134.051 133.967 
133.903 133.973 133.954 134.321 134.63 135.258 134.746 134.671 134.294 
134.197 133.89 133.859 133.852 134.237 134.649 135.387 136.422 135.768 
135.747 135.162 135.142 134.555 134.615 134.225 134.7 134.719 135.576 
135.834 136.701 137.71 137.045 137.034 136.388 136.396 135.735 135.838 
135.305 135.755 135.54 136.311 136.328 137.127 137.242 137.969 138.891 
138.298 138.258 137.659 137.64 137.024 137.099 136.575 136.921 136.634 
137.218 137.11 137.721 137.72 138.347 138.481 139.196 139.94 139.401 
139.36 138.81 138.808 138.237 138.317 137.796 138.07 137.719 138.178 
137.963 138.453 138.319 138.863 138.891 139.596 139.767 140.534 135.665 
135.412 135.772 136.301 135.239 135.532 135.961 136.37 136.993 135.14 
135.419 135.9 136.15 136.76 137.194 138.044 135.306 135.486 136.187 
136.323 137.009 137.197 138.036 138.449 139.413 135.97 135.907 136.679 
136.778 137.563 137.658 138.456 138.646 139.543 139.897 140.798 137.038 
136.754 137.343 137.332 138.079 138.211 139.004 139.154 139.97 140.169 
141.014 141.289 142.095 138.249 137.859 138.321 138.089 138.739 138.74 
139.542 139.674 140.499 140.646 141.429 141.599 142.345 142.566 143.255 
139.531 139.095 139.567 139.183 139.766 139.553 140.296 140.284 141.099 
141.182 141.934 142.036 142.703 142.843 143.463 143.654 144.231 140.835 
140.402 140.834 140.435 140.91 140.626 141.219 141.103 141.79 141.798 
142.48 142.533 143.153 143.221 143.795 143.896 144.449 144.592 145.125 
136.055 136.758 136.619 137.068 137.529 137.363 137.884 137.727 138.289 
138.604 138.291 138.849 138.608 139.205 139.042 139.709 139.921 139.517 
140.044 139.689 140.257 140.014 140.684 140.543 141.222 141.217 140.824 
141.298 140.921 141.421 141.112 141.721 141.538 142.2 142.026 142.593 
142.44 142.054 142.484 142.122 142.59 142.266 142.814 142.579 143.184 
142.988 143.538 143.315 143.828 143.563 143.219 143.613 143.265 143.708 
143.396 143.92 143.662 144.225 143.982 144.504 144.255 144.767 144.563 
145.152 144.525 144.256 144.645 144.346 144.765 144.474 144.971 144.729 
145.283 145.037 145.561 145.271 145.778 145.523 146.099 145.932 146.56 
145.405 145.168 145.589 145.336 145.779 145.506 145.993 145.748 146.293 
146.07 146.616 146.353 146.866 146.581 147.121 146.894 147.485 147.317 
147.891 152.793 152.205 152.38 152.035 151.386 151.629 151.14 151.372 
150.731 150.436 150.664 150.033 150.266 149.521 149.754 148.993 149.491 
149.663 148.98 149.122 148.41 148.576 147.959 148.142 147.647 148.623 
148.745 148.08 148.143 147.483 147.608 147.121 147.306 146.91 147.067 
146.638 147.828 147.931 147.293 147.32 146.63 146.73 146.177 146.444 
145.969 146.25 145.672 145.902 145.28 147.027 147.141 146.508 146.557 
145.833 145.878 145.191 145.39 144.779 145.092 144.432 144.73 144.054 
144.374 143.846 146.239 146.322 145.686 145.758 145.066 145.092 144.386 
144.439 143.782 143.923 143.293 143.489 142.894 143.16 142.699 143.065 
142.737 145.597 145.588 144.972 144.986 144.362 144.37 143.735 143.725 
143.09 143.094 142.476 142.534 141.964 142.127 141.667 141.972 141.615 
142.014 141.666 
POINT_DATA 1002
SCALARS Distance double
LOOKUP_TABLE default
141.507 140.465 140.464 141.591 140.48 142.722 141.724 140.619 142.916 
144.087 142.055 140.994 143.236 144.41 145.604 142.599 141.566 143.743 
144.876 146.042 147.271 143.213 142.255 144.309 145.436 146.587 147.807 
148.993 143.86 142.931 144.938 146.084 147.273 148.476 149.615 150.687 
144.457 143.43 145.663 146.915 148.155 149.356 150.429 151.438 152.473 
144.914 143.845 146.247 147.679 149.03 150.273 151.374 152.396 153.45 
154.462 145.405 144.44 146.681 148.175 149.651 150.993 152.205 153.365 
154.548 155.65 156.508 139.47 139.391 138.359 138.226 137.085 139.41 
137.022 135.818 138.371 139.617 135.962 134.835 137.359 138.625 139.986 
135.113 134.145 136.42 137.535 138.848 140.579 134.4 133.75 135.63 
136.615 137.689 139.496 141.418 134.082 133.894 135.1 136.18 137.057 
138.535 140.495 142.133 134.46 134.591 135.063 136.151 137.089 138.081 
139.563 141.181 142.574 135.346 135.517 135.589 136.413 137.407 138.177 
138.995 140.208 141.671 143.107 136.435 136.459 137.563 137.797 138.895 
136.888 139.335 140.415 138.398 137.774 140.873 141.863 139.976 139.235 
138.612 142.192 143.093 141.38 140.663 139.824 139.121 143.548 144.366 
142.726 142.058 141.248 140.285 139.857 145.136 145.795 144.339 143.605 
142.94 142.101 141.37 141.253 146.668 147.181 146.02 145.3 144.679 
144.129 143.551 143.096 142.952 147.979 148.427 147.465 146.908 146.372 
145.93 145.579 145.22 144.817 144.506 145.898 146.262 147.809 146.742 
148.321 150.18 147.104 148.733 150.627 152.72 147.402 149.042 150.878 
152.967 155.012 147.769 149.438 151.182 153.109 155.196 157.073 148.142 
149.777 151.537 153.334 155.343 157.346 159.008 148.508 149.946 151.669 
153.472 155.441 157.456 159.225 160.684 148.949 150.193 151.733 153.449 
155.39 157.431 159.231 160.768 162.138 149.419 150.596 151.976 153.487 
155.231 157.236 159.139 160.748 162.196 163.486 147.008 149.195 148.471 
151.923 150.889 150.11 154.617 153.791 152.661 151.685 156.823 156.402 
155.568 154.308 153.118 158.765 158.382 157.967 157.138 155.818 154.501 
160.619 160.178 159.721 159.352 158.588 157.336 155.93 162.306 162.049 
161.503 161.112 160.783 160.031 158.773 157.229 163.782 163.784 163.431 
163.008 162.7 162.202 161.221 159.8 158.142 164.988 165.216 166.278 
166.426 167.327 165.181 167.449 168.344 166.413 164.954 168.382 169.102 
167.347 166.325 164.694 168.929 169.157 167.926 167.124 166.062 164.22 
168.856 168.716 168.12 167.359 166.684 165.229 163.221 168.364 168.133 
167.935 167.258 166.721 165.612 163.718 161.733 167.629 167.365 167.439 
166.876 166.347 165.525 163.861 161.84 159.978 166.67 166.387 166.668 
166.237 165.632 164.94 163.672 161.793 159.897 158.186 164.045 165.59 
164.463 165.936 164.473 166.822 165.873 164.083 167.087 167.825 165.474 
163.518 167.016 167.877 168.587 164.717 162.791 166.59 167.56 167.982 
168.661 163.601 162.01 165.57 167.046 167.342 167.514 168.232 162.57 
161.404 164.103 165.949 166.975 167.03 167.28 167.88 161.825 160.787 
162.841 164.33 165.912 166.712 166.937 167.211 167.438 161.025 159.881 
161.936 162.921 164.215 165.437 166.182 166.559 166.708 166.632 149.49 
150.684 150.628 151.99 151.771 152.067 153.258 152.998 153.507 153.536 
154.575 154.279 154.914 155.081 155.12 155.851 155.43 156.379 156.709 
156.835 157.033 157.077 156.599 157.758 158.361 158.617 158.846 159.106 
158.482 157.917 159.091 159.799 160.271 160.577 160.906 160.982 159.857 
159.09 160.408 161.025 161.656 162.141 162.595 162.838 162.632 148.067 
149.142 147.684 148.797 147.387 150.252 148.497 147.151 149.908 151.415 
148.2 146.852 149.584 151.094 152.734 147.894 146.515 149.288 150.735 
152.405 154.031 147.612 146.25 149.053 150.417 151.946 153.635 155.152 
147.32 146.036 148.78 150.168 151.557 153.128 154.707 156.267 146.988 
145.815 148.378 149.815 151.247 152.747 154.204 155.661 157.352 146.693 
145.634 147.938 149.304 150.787 152.386 153.848 155.08 156.492 158.239 