# vtk DataFile Version 4.0
vtk output
ASCII
DATASET POLYDATA
POINTS 1002 float
-83.8011 -84.0852 74.4262 -83.9056 -83.4305 73.2905 -83.4706 -83.1751 74.0996 
-83.2081 -83.9909 75.2251 -82.8288 -83.0694 74.9415 -83.5931 -84.8302 75.6211 
-82.435 -83.9667 75.9854 -82.061 -82.965 75.7861 -82.907 -84.8831 76.3843 
-83.4355 -85.6965 76.969 -81.7053 -83.8669 76.8245 -81.3595 -82.7831 76.6868 
-82.178 -84.9309 77.2066 -82.8024 -85.8597 77.817 -83.3348 -86.7708 78.5155 
-81.216 -83.8006 77.947 -80.7335 -82.7967 77.7344 -81.6228 -84.934 78.3049 
-82.1698 -85.9966 78.8566 -82.7167 -86.986 79.4502 -83.1329 -87.9827 80.0314 
-80.7955 -83.9711 79.2607 -80.1621 -83.1618 78.8498 -81.2654 -84.9861 79.6544 
-81.636 -86.1348 80.1187 -82.0867 -87.1982 80.5462 -82.5048 -88.2999 80.9284 
-82.9024 -89.4022 81.41 -80.2984 -84.2955 80.4756 -79.7791 -83.6049 79.9563 
-80.8712 -85.0947 80.9666 -81.21 -86.2946 81.3763 -81.5438 -87.4941 81.7115 
-82.007 -88.6525 81.9867 -82.4018 -89.9527 82.3381 -82.7603 -91.1306 82.8425 
-79.837 -84.7073 81.6482 -79.5677 -83.9272 81.2209 -80.365 -85.4149 82.1902 
-80.7998 -86.5988 82.5937 -81.118 -87.965 82.8567 -81.6152 -89.1361 83.1312 
-82.0855 -90.4329 83.4717 -82.3458 -91.8006 83.8869 -82.5952 -92.8577 84.3505 
-79.5197 -85.2345 82.9573 -79.4236 -84.1965 82.6701 -79.8935 -86.1249 83.4235 
-80.3575 -87.273 83.8158 -80.7355 -88.6401 84.0212 -81.2368 -89.8052 84.2659 
-81.7735 -90.9725 84.658 -82.0288 -92.3585 85.0705 -82.1496 -93.5923 85.4391 
-82.3796 -94.4725 85.7739 -79.4306 -85.7552 84.2289 -79.4143 -84.4916 83.9854 
-79.645 -86.9325 84.5621 -79.996 -88.098 84.8541 -80.3628 -89.3017 85.013 
-80.8564 -90.4228 85.2444 -81.4306 -91.6102 85.7078 -81.7454 -93.0629 86.2198 
-81.8223 -94.4779 86.5965 -81.953 -95.5425 86.8453 -82.1966 -96.3362 87.021 
-83.639 -82.6527 72.6356 -83.1293 -82.3575 73.4754 -83.1171 -82.0139 71.8791 
-82.506 -81.7021 72.7581 -82.4076 -81.4653 71.0804 -82.4842 -82.2104 74.4937 
-81.8985 -80.9981 72.1187 -81.9287 -80.5937 70.5026 -82.003 -81.4116 74.052 
-81.7647 -82.0095 75.5713 -81.6864 -79.8217 71.7865 -81.9253 -79.2655 70.408 
-81.6652 -80.403 73.6959 -81.3752 -81.0299 75.3338 -80.9341 -81.77 76.5176 
-81.7077 -78.3788 71.8099 -82.1852 -77.9461 70.715 -81.5173 -79.0652 73.4552 
-81.0314 -79.9172 74.9811 -80.3648 -80.7321 76.1493 -80.0744 -81.8276 77.4 
-81.8033 -77.2149 72.1265 -82.5857 -76.9639 71.1821 -81.3799 -77.7944 73.438 
-80.8356 -78.7747 74.7111 -79.9925 -79.6879 75.7366 -79.513 -80.6764 76.9388 
-79.59 -82.1751 78.4486 -82.1953 -76.4186 72.6959 -83.1532 -76.2985 71.7473 
-81.466 -76.823 73.8067 -80.895 -77.7431 74.9036 -80.1157 -78.7355 75.8522 
-79.4352 -79.5085 76.9138 -79.3541 -80.7578 78.3145 -79.53 -82.4888 79.8145 
-82.8292 -75.9378 73.4328 -83.75 -75.9599 72.4431 -81.9248 -76.1361 74.473 
-81.2413 -76.8468 75.5084 -80.6214 -77.8599 76.5441 -79.8881 -78.6264 77.6017 
-79.4546 -79.471 78.8021 -79.4753 -80.9674 80.1384 -79.51 -82.7099 81.4471 
-83.4287 -75.7854 74.246 -84.2443 -75.9218 73.2582 -82.521 -75.7925 75.2387 
-81.7085 -76.2354 76.2032 -81.1371 -77.1252 77.2746 -80.5592 -78.0235 78.4221 
-79.8931 -78.7946 79.5352 -79.5283 -79.8706 80.6894 -79.4847 -81.3744 81.8895 
-79.4519 -82.9776 83.0085 -84.2088 -75.9206 74.8309 -83.3642 -75.7511 75.8655 
-84.2383 -75.9371 76.5517 -83.4111 -75.8588 77.5716 -84.4241 -76.0764 78.2058 
-82.4233 -75.8923 76.8165 -83.6388 -76.2181 79.2645 -84.6402 -76.5988 79.6803 
-82.451 -76.2647 78.5081 -81.6412 -76.5655 77.8145 -83.8441 -77.0001 80.7518 
-84.7344 -77.5916 80.9803 -82.6581 -76.8893 80.1872 -81.7196 -77.1532 79.4779 
-81.1463 -77.551 78.969 -83.9241 -78.2104 81.9854 -84.8269 -78.7887 82.2356 
-82.8549 -77.8387 81.6384 -81.9593 -77.9286 81.0192 -81.2915 -78.2745 80.4593 
-80.5677 -78.5445 80.0948 -84.1004 -79.5165 83.2827 -85.0121 -79.8703 83.6203 
-83.044 -79.1067 83.0033 -82.1853 -78.9338 82.5495 -81.5622 -79.19 81.8792 
-80.7437 -79.5069 81.4361 -79.9169 -79.6041 81.1922 -84.402 -80.6064 84.7547 
-85.1743 -80.7922 85.059 -83.4202 -80.3877 84.4592 -82.4499 -80.1493 84.1583 
-81.8019 -80.1851 83.5768 -81.1181 -80.5234 82.8885 -80.205 -80.7349 82.5801 
-79.605 -80.8654 82.3984 -84.6235 -81.5687 86.1019 -85.2557 -81.7325 86.2806 
-83.8506 -81.5022 85.8036 -82.8841 -81.4118 85.5336 -82.0581 -81.3299 85.1902 
-81.48 -81.4864 84.5447 -80.7664 -81.7688 83.9626 -79.9955 -81.9637 83.7694 
-79.566 -82.309 83.5542 -84.7211 -82.6137 87.1597 -85.3086 -82.7971 87.1977 
-84.1135 -82.5846 86.9141 -83.3267 -82.6481 86.5862 -82.4418 -82.6476 86.3416 
-81.7818 -82.6594 85.9502 -81.2803 -82.8351 85.3013 -80.6508 -83.0742 84.8485 
-80.0113 -83.37 84.7143 -79.5964 -83.8713 84.4833 -79.6365 -85.7235 85.1441 
-80.0234 -85.1784 85.4293 -80.1636 -87.0781 86.0804 -80.5946 -84.736 85.5413 
-80.6676 -86.6483 86.2908 -80.7426 -88.3427 87.0872 -81.1739 -84.434 85.884 
-81.1693 -86.3083 86.5858 -81.1882 -88.1628 87.5357 -81.0789 -89.868 88.4801 
-81.6287 -84.2104 86.5939 -81.5678 -86.0136 87.2927 -81.5411 -87.9592 88.1541 
-81.4355 -90.0106 89.1021 -81.2599 -92.2202 89.8678 -82.1663 -84.1285 87.1325 
-82.0035 -85.8074 88.0472 -81.9082 -87.6642 88.936 -81.799 -89.8895 89.7029 
-81.6274 -92.4231 90.3307 -81.5037 -95.0504 90.7849 -82.9641 -84.0848 87.3694 
-82.6788 -85.7289 88.3609 -82.4631 -87.4647 89.3869 -82.2579 -89.5941 90.1771 
-82.0513 -92.2561 90.7703 -81.8553 -95.037 91.2131 -81.7098 -97.7576 91.5146 
-83.7631 -83.9179 87.696 -83.4575 -85.554 88.5882 -83.1914 -87.3337 89.5204 
-82.8586 -89.3715 90.3288 -82.4998 -91.9208 91.0609 -82.2091 -94.7512 91.6988 
-81.9483 -97.5504 92.1107 -81.6752 -100.341 92.2912 -84.3908 -83.7902 88.0247 
-84.1106 -85.2712 88.9461 -83.8908 -87.0408 89.7813 -83.5648 -89.1264 90.4453 
-83.0609 -91.5689 91.1601 -82.5837 -94.2607 91.9498 -82.2158 -97.0403 92.5564 
-81.842 -99.903 92.8737 -81.437 -102.728 92.9082 -84.9852 -83.8694 88.0807 
-84.6937 -85.139 89.0942 -84.4803 -86.6908 90.035 -84.2332 -88.7096 90.68 
-83.7603 -91.1419 91.2773 -83.14 -93.6883 92.0323 -82.6014 -96.2712 92.685 
-82.1424 -99.0523 93.1116 -81.6652 -101.977 93.337 -81.2011 -104.658 93.2749 
-79.7032 -87.1691 85.4464 -80.1882 -88.446 86.4093 -79.871 -88.47 85.6618 
-80.6209 -89.5922 87.5506 -80.1882 -89.5736 86.5458 -80.0939 -89.59 85.7552 
-80.915 -91.6642 89.1093 -80.5612 -91.0593 87.8997 -80.3764 -90.7972 86.7543 
-80.5175 -90.7301 85.9881 -81.2184 -94.9252 90.4424 -80.9675 -94.3263 89.696 
-80.8188 -93.4649 88.4999 -80.8922 -92.7924 87.4238 -81.1355 -92.2633 86.5982 
-81.4937 -98.2031 91.2152 -81.2312 -98.3608 90.9648 -80.9896 -97.8812 90.3127 
-81.0207 -96.827 89.2936 -81.2818 -95.559 88.307 -81.5245 -94.2421 87.3225 
-81.5257 -101.083 91.8417 -81.2465 -101.615 91.5698 -80.7454 -101.712 91.2353 
-80.4929 -101.154 90.5546 -80.8533 -99.9197 89.7574 -81.3477 -98.1009 88.9086 
-81.612 -96.0959 87.821 -81.2703 -103.74 92.4165 -81.0529 -104.302 91.9852 
-80.4964 -104.314 91.5991 -79.8786 -103.912 90.991 -80.0252 -103.21 90.3614 
-80.8412 -101.897 89.9018 -81.462 -99.7685 89.1919 -81.7211 -97.4056 88.0666 
-80.9324 -105.887 92.778 -80.7301 -106.587 92.2601 -80.3517 -106.54 91.8491 
-79.7374 -105.944 91.2768 -79.5406 -105.29 90.5865 -80.2296 -104.577 90.2393 
-81.1549 -103.162 89.9892 -81.6647 -100.845 89.2565 -81.9133 -98.328 88.1391 
-80.8639 -107.078 93.1879 -80.5216 -108.141 92.5244 -80.6962 -109.12 92.8501 
-80.2384 -109.973 92.1372 -80.7262 -110.982 92.3482 -80.2204 -108.547 92.0221 
-80.0741 -112.064 91.6815 -80.7911 -113.078 91.6799 -79.7907 -110.397 91.6999 
-79.8179 -108.23 91.6094 -79.9512 -114.624 90.7572 -80.8254 -115.019 90.6592 
-79.4785 -112.887 91.0393 -79.5418 -110.352 91.2154 -79.5418 -107.563 90.9517 
-79.9962 -116.43 89.245 -81.069 -115.884 89.5509 -79.3725 -115.367 89.6317 
-79.5365 -112.927 90.3868 -79.8313 -109.822 90.6565 -79.9393 -106.904 90.4401 
-80.4638 -116.579 88.122 -81.6861 -115.469 88.9793 -79.6334 -116.407 88.1512 
-79.7731 -114.631 89.219 -80.2594 -111.838 90.2019 -80.5185 -108.786 90.4289 
-80.8055 -105.9 90.2884 -81.3388 -115.502 87.9856 -82.4728 -114.196 88.8913 
-80.3082 -115.926 87.6682 -80.1725 -114.894 88.4722 -80.6056 -112.629 89.6192 
-80.8236 -109.92 90.1289 -81.0513 -107.018 90.102 -81.4491 -103.902 89.8279 
-82.3168 -113.718 88.2556 -83.1814 -112.381 88.8291 -81.2793 -114.471 87.9604 
-80.7387 -114.109 88.3659 -80.8695 -112.423 89.1423 -81.0037 -109.998 89.5369 
-81.0664 -107.322 89.4957 -81.4351 -104.277 89.2912 -81.8218 -101.09 88.8567 
-83.1713 -111.388 88.4331 -83.8014 -110.2 88.7081 -82.321 -112.194 88.3068 
-81.5768 -112.276 88.4813 -81.3121 -111.271 88.8383 -81.3298 -109.263 89.0018 
-81.3467 -106.769 88.8915 -81.5662 -104.008 88.6922 -81.9722 -101.065 88.3622 
-82.2047 -98.3867 87.7821 -81.4014 -104.705 93.6335 -81.1982 -107.256 93.6363 
-81.8155 -104.548 93.8328 -81.7245 -107.239 93.8609 -82.4434 -104.062 93.8554 
-81.211 -109.43 93.2632 -82.4122 -106.618 93.7515 -83.3196 -102.933 93.821 
-81.7617 -109.303 93.3486 -81.3424 -111.225 92.5184 -83.3521 -105.08 93.6091 
-84.2707 -101.326 93.7709 -82.421 -108.285 93.1797 -81.7899 -110.557 92.3974 
-81.4108 -112.814 91.5901 -84.2677 -103.049 93.4906 -85.0127 -99.8404 93.4819 
-83.383 -106.521 93.174 -82.4477 -109.139 92.3894 -81.851 -111.461 91.4599 
-81.5611 -113.977 90.6857 -84.8678 -101.103 93.0538 -85.6651 -98.6372 92.8863 
-84.177 -104.361 93.0268 -83.4535 -107.407 92.6078 -82.6541 -109.816 91.6587 
-82.2197 -112.167 90.8408 -82.0529 -114.26 90.101 -85.5056 -99.4491 92.4061 
-86.4435 -97.4297 92.1789 -84.654 -102.081 92.4564 -84.1498 -105.108 92.4295 
-83.6453 -107.825 91.9032 -83.0928 -110.129 91.0912 -82.8478 -112.116 90.5335 
-82.743 -113.523 89.8484 -86.4173 -97.9608 91.7737 -87.2065 -96.0338 91.3925 
-85.4307 -100.109 91.8742 -84.7181 -102.574 91.9291 -84.3259 -105.144 91.7896 
-83.9353 -107.518 91.2464 -83.5891 -109.532 90.7042 -83.4441 -111.054 90.2597 
-83.3582 -112.007 89.5788 -87.321 -96.4118 91.0157 -87.7936 -94.5473 90.4694 
-86.5695 -98.4136 91.3354 -85.7678 -100.463 91.5 -85.1472 -102.545 91.5307 
[...]
CELL_DATA 2000
SCALARS Distance double
LOOKUP_TABLE default
138.499 138.51 138.814 139.44 138.471 138.801 139.438 139.773 140.473 
138.432 138.75 139.424 139.782 140.565 140.921 141.77 138.597 138.83 
139.607 139.883 140.773 141.097 142.024 142.342 143.239 139.041 139.201 
140.097 140.269 141.22 141.447 142.405 142.659 143.57 143.832 144.718 
139.635 139.77 140.687 140.854 141.793 141.987 142.928 143.119 144.046 
144.243 145.194 145.407 146.387 140.342 140.411 141.306 141.448 142.403 
142.582 143.561 143.713 144.693 144.833 145.86 146.024 147.084 147.234 
148.241 141.21 141.191 142.112 142.158 143.182 143.285 144.35 144.447 
145.493 145.586 146.658 146.792 147.891 148.021 149.051 149.122 150.034 
142.161 142.128 143.079 143.082 144.108 144.163 145.193 145.277 146.279 
146.397 147.45 147.617 148.747 148.888 149.985 150.019 151 150.943 
151.821 137.865 136.834 137.528 137.857 135.694 136.438 136.814 137.539 
137.862 134.555 135.289 135.723 136.504 136.923 137.555 137.846 133.568 
134.207 134.682 135.465 135.945 136.622 136.931 137.523 137.875 132.862 
133.318 133.738 134.464 134.929 135.627 135.883 136.511 136.796 137.569 
138.13 132.537 132.743 133.038 133.578 134.006 134.63 134.868 135.423 
135.637 136.383 136.947 137.921 138.697 132.633 132.599 132.817 133.05 
133.475 133.891 134.265 134.618 134.895 135.359 135.928 136.77 137.673 
138.626 139.495 133.081 132.893 133.106 133.064 133.469 133.647 134.185 
134.387 134.864 135.019 135.59 136.034 136.94 137.736 138.747 139.553 
140.418 133.752 133.494 133.721 133.521 133.862 133.852 134.404 134.559 
135.197 135.3 135.905 136.04 136.803 137.257 138.227 138.92 139.864 
140.555 141.381 134.274 135.16 134.539 134.244 136.212 135.496 135.167 
134.537 134.354 137.44 136.654 136.347 135.576 135.397 134.806 134.866 
138.781 137.979 137.731 136.886 136.717 135.999 136.068 135.527 135.703 
140.19 139.378 139.176 138.332 138.182 137.412 137.454 136.828 136.983 
136.4 136.5 141.705 140.865 140.721 139.845 139.748 138.929 138.975 
138.271 138.412 137.751 137.879 137.211 137.379 143.243 142.449 142.398 
141.51 141.478 140.592 140.666 139.868 140.027 139.277 139.447 138.71 
138.94 138.277 138.671 144.644 143.969 143.99 143.214 143.224 142.376 
142.436 141.611 141.754 140.969 141.148 140.377 140.613 139.913 140.286 
139.708 140.207 145.887 145.309 145.374 144.73 144.779 144.05 144.104 
143.337 143.446 142.688 142.849 142.095 142.303 141.592 141.907 141.301 
141.737 141.221 141.703 142.694 142.749 143.225 144.274 142.904 143.311 
144.384 144.871 145.953 143.271 143.557 144.625 145.044 146.219 146.641 
147.785 143.803 144.017 145.078 145.399 146.603 147.004 148.279 148.639 
149.921 144.384 144.58 145.642 145.926 147.112 147.469 148.749 149.16 
150.493 150.896 152.257 144.989 145.16 146.194 146.48 147.627 147.975 
149.184 149.602 150.901 151.382 152.725 153.198 154.536 145.592 145.748 
146.723 146.998 148.092 148.435 149.567 149.969 151.185 151.7 153.024 
153.569 154.893 155.388 156.666 146.126 146.295 147.206 147.477 148.512 
148.852 149.931 150.303 151.435 151.916 153.161 153.755 155.037 155.63 
156.859 157.401 158.555 146.591 146.765 147.62 147.891 148.859 149.209 
150.237 150.62 151.692 152.136 153.277 153.822 154.989 155.61 156.743 
157.4 158.488 159.102 160.08 142.985 144.612 143.854 143.982 146.246 
145.502 145.645 144.883 145.007 147.97 147.119 147.159 146.429 146.515 
145.855 145.986 150.161 149.063 149.096 148.043 148.087 147.288 147.474 
146.832 147.041 152.715 151.593 151.937 150.536 150.766 149.369 149.689 
148.591 148.997 148.088 148.378 155.127 154.247 154.92 153.729 154.277 
152.712 153.162 151.533 152.01 150.57 150.962 149.678 149.88 157.281 
156.593 157.335 156.541 157.158 156.082 156.468 155.109 155.409 153.937 
154.188 152.652 152.729 151.241 151.204 159.183 158.643 159.323 158.702 
159.175 158.423 158.576 157.696 157.731 156.802 156.896 155.755 155.721 
154.232 153.991 152.454 152.214 160.688 160.337 160.929 160.455 160.802 
160.143 160.147 159.333 159.195 158.473 158.535 157.886 157.996 156.973 
156.767 155.275 154.85 153.327 152.99 161.586 162.774 162.09 161.784 
163.744 163.112 162.752 162.108 161.6 164.785 164.082 163.679 162.98 
162.425 161.69 160.896 165.799 165.191 164.82 164.009 163.451 162.566 
161.754 160.819 159.933 166.252 165.999 165.662 165.088 164.566 163.739 
163.032 161.933 161.085 160.02 159.343 166.105 166.102 165.746 165.558 
165.1 164.683 164.12 163.298 162.532 161.42 160.642 159.632 158.932 
165.697 165.783 165.435 165.4 165.023 164.912 164.459 164.085 163.351 
162.62 161.654 160.79 159.759 158.914 157.772 165.01 165.27 164.972 
165.05 164.698 164.707 164.253 164.117 163.33 162.937 161.799 161.247 
159.947 159.324 157.934 157.227 155.798 163.942 164.407 164.128 164.432 
164.021 164.209 163.64 163.676 162.788 162.577 161.342 160.957 159.57 
159.112 157.693 157.137 155.726 155.092 153.808 161.571 161.937 162.203 
162.901 162.142 162.582 163.437 163.489 163.993 162.009 162.673 163.6 
163.924 164.488 164.504 164.957 161.528 162.333 163.211 163.815 164.322 
164.671 165.07 165.34 165.774 160.814 161.652 162.49 163.244 163.745 
164.22 164.508 165.01 165.428 165.922 166.199 159.945 160.733 161.45 
162.367 162.995 163.619 163.935 164.35 164.701 165.278 165.697 166.124 
166.181 159.099 159.744 160.198 161.115 161.72 162.681 163.127 163.757 
164.013 164.542 164.883 165.46 165.674 165.966 165.804 158.296 158.881 
159.193 159.865 160.289 161.226 161.695 162.633 162.897 163.647 163.792 
164.497 164.611 165.209 165.097 165.399 165.031 157.338 158.026 158.384 
158.965 159.313 159.964 160.36 161.152 161.468 162.273 162.418 163.186 
163.218 163.937 163.821 164.383 164.051 164.396 163.909 147.098 148.241 
147.812 148.16 149.479 149.038 149.435 148.986 149.414 150.762 150.333 
150.773 150.316 150.782 150.329 150.802 152.004 151.643 152.13 151.688 
152.199 151.75 152.305 151.81 152.318 153.084 152.861 153.446 153.075 
153.669 153.234 153.889 153.409 154.024 153.427 153.943 154.063 153.948 
154.719 154.439 155.169 154.77 155.496 155.05 155.715 155.17 155.704 
155.074 155.574 155.08 155.029 155.982 155.789 156.638 156.299 157.046 
156.643 157.304 156.823 157.361 156.787 157.284 156.7 157.248 156.028 
156.083 157.07 157.022 157.867 157.677 158.394 158.102 158.766 158.372 
158.99 158.46 159.043 158.439 159.041 158.432 159.016 156.732 156.902 
157.778 157.89 158.627 158.651 159.325 159.258 159.957 159.758 160.49 
160.116 160.831 160.286 160.935 160.292 160.855 160.186 160.637 146.708 
146.487 146.993 147.812 146.199 146.759 147.579 148.126 148.997 145.762 
146.404 147.229 147.846 148.713 149.317 150.229 145.248 145.905 146.747 
147.429 148.315 148.982 149.906 150.548 151.442 144.836 145.418 146.255 
146.927 147.84 148.546 149.488 150.18 151.067 151.687 152.471 144.541 
145.059 145.852 146.466 147.342 148.044 148.976 149.714 150.596 151.256 
151.991 152.587 153.314 144.263 144.754 145.488 146.068 146.863 147.523 
148.379 149.13 150.01 150.738 151.485 152.079 152.739 153.379 154.181 
144.038 144.461 145.138 145.674 146.413 147.022 147.791 148.488 149.33 
150.101 150.924 151.581 152.254 152.818 153.513 154.236 155.081 143.951 
144.28 144.906 145.34 146.034 146.571 147.283 147.894 148.654 149.393 
150.243 151.003 151.769 152.363 152.995 153.581 154.287 155.064 155.842 
144.151 144.779 144.661 145.086 145.386 145.311 145.76 145.653 146.166 
145.998 145.954 146.48 146.361 146.874 146.786 147.366 146.765 146.697 
147.333 147.16 147.679 147.513 148.078 148.019 148.696 147.618 147.581 
148.296 148.116 148.638 148.375 148.914 148.782 149.518 149.49 150.298 
148.355 148.384 149.089 149.037 149.58 149.362 149.89 149.704 150.458 
150.403 151.26 151.183 151.894 149.019 149.014 149.629 149.675 150.265 
150.221 150.831 150.717 151.471 151.396 152.214 152.133 152.805 152.643 
153.15 149.696 149.628 150.162 150.168 150.817 150.868 151.639 151.646 
152.468 152.407 153.175 153.057 153.692 153.521 154.065 153.855 154.407 
150.299 150.26 150.795 150.766 151.479 151.524 152.425 152.489 153.41 
153.382 154.164 154.018 154.665 154.457 155.067 154.845 155.485 155.255 
155.914 150.745 151.827 151.3 151.389 153.296 152.641 152.851 152.126 
152.245 154.839 154.239 154.543 153.81 154.016 153.176 153.311 156.289 
155.749 156.082 155.476 155.715 154.987 155.108 154.271 154.306 157.885 
157.279 157.661 157.003 157.264 156.582 156.718 155.971 155.964 155.136 
155.021 159.491 158.96 159.401 158.706 158.985 158.2 158.365 157.565 
157.626 156.772 156.674 155.752 155.541 160.78 160.431 160.86 160.36 
160.598 159.917 160.001 159.234 159.269 158.461 158.416 157.483 157.286 
156.266 155.999 161.928 161.607 162.022 161.625 161.844 161.316 161.328 
160.694 160.601 159.944 159.818 159.099 158.891 158.012 157.717 156.726 
156.432 163.115 162.781 163.23 162.794 163.053 162.5 162.55 161.906 
161.805 161.135 160.942 160.282 160.015 159.343 159.036 158.29 157.985 
157.119 156.829 150.51 150.253 150.736 151.498 149.929 150.473 151.355 
151.896 152.879 149.752 150.254 151.226 151.782 152.831 153.387 154.403 
149.666 150.172 151.139 151.692 152.725 153.309 154.333 154.872 155.846 
149.405 150.009 150.898 151.524 152.462 153.111 154.093 154.73 155.749 
156.326 157.374 148.948 149.598 150.42 151.117 151.993 152.712 153.654 
154.385 155.421 156.148 157.25 157.898 158.939 148.5 149.099 149.899 
150.571 151.455 152.179 153.13 153.884 154.916 155.722 156.84 157.64 
158.718 159.368 160.269 148.134 148.683 149.473 150.091 150.972 151.664 
152.616 153.357 154.36 155.165 156.248 157.118 158.231 159.031 160.032 
160.62 161.454 147.793 148.326 149.092 149.689 150.528 151.193 152.091 
152.823 153.773 154.569 155.589 156.465 157.568 158.466 159.559 160.327 
161.294 161.832 162.642 149.946 148.946 149.538 149.618 147.759 148.429 
148.495 149.092 149.183 146.556 147.231 147.342 147.936 148.007 148.657 
148.9 145.316 146.053 146.217 146.83 146.908 147.491 147.662 148.421 
148.768 143.832 144.695 144.876 145.66 145.747 146.38 146.442 147.141 
147.367 148.236 148.531 142.283 143.102 143.234 144.144 144.256 145.074 
145.09 145.823 145.907 146.753 146.991 147.9 148.125 140.974 141.622 
141.678 142.47 142.581 143.456 143.537 144.352 144.411 145.233 145.417 
146.329 146.6 147.487 147.712 139.85 140.409 140.425 141.045 141.111 
141.855 141.98 142.787 142.917 143.726 143.91 144.779 145.068 145.977 
146.275 147.124 147.363 138.784 139.314 139.325 139.877 139.909 140.524 
140.622 141.335 141.501 142.277 142.499 143.323 143.623 144.499 144.842 
145.71 146.01 146.815 147.051 138.199 137.485 138.138 138.735 136.876 
137.468 138.1 138.714 139.336 136.551 137.004 137.66 138.164 138.814 
139.372 140.043 136.503 136.84 137.52 137.886 138.542 138.966 139.659 
140.178 140.923 136.603 136.86 137.532 137.854 138.524 138.846 139.536 
139.926 140.694 141.173 141.973 136.834 136.989 137.603 137.888 138.568 
138.882 139.576 139.909 140.677 141.072 141.908 142.329 143.156 137.207 
137.277 137.865 138.037 138.719 138.965 139.682 139.98 140.769 141.133 
142.002 142.381 143.243 143.596 144.406 137.676 137.711 138.331 138.416 
139.114 139.246 139.981 140.171 140.983 141.283 142.192 142.546 143.434 
143.752 144.55 144.852 145.587 138.201 138.224 138.852 138.924 139.614 
139.72 140.442 140.571 141.352 141.574 142.456 142.773 143.652 143.959 
144.724 144.998 145.685 145.974 146.633 138.696 139.66 139.231 139.364 
140.727 140.247 140.421 139.967 140.145 142.041 141.446 141.644 141.099 
141.311 140.811 141.002 143.521 142.895 143.12 142.464 142.678 142.07 
142.302 141.734 141.954 145.012 144.408 144.698 144.036 144.256 143.554 
143.766 143.121 143.38 142.781 143.061 146.658 145.973 146.32 145.65 
145.927 145.196 145.377 144.648 144.845 144.222 144.485 143.923 144.197 
148.465 147.729 148.079 147.355 147.677 146.919 147.135 146.324 146.465 
145.715 145.898 145.291 145.521 144.988 145.209 150.208 149.519 149.854 
149.149 149.464 148.716 148.961 148.138 148.291 147.43 147.56 146.778 
146.957 146.307 146.516 145.951 146.153 151.923 151.219 151.555 150.878 
151.195 150.487 150.732 149.955 150.114 149.274 149.382 148.529 148.649 
147.859 148.025 147.332 147.523 146.91 147.102 147.825 148.318 148.428 
149.162 148.892 148.993 149.799 149.858 150.627 149.566 149.642 150.493 
150.548 151.373 151.393 152.194 150.322 150.385 151.287 151.318 152.212 
152.212 153.098 153.059 153.907 151.086 151.185 152.173 152.211 153.224 
153.193 154.202 154.106 155.07 154.909 155.795 151.756 151.95 153.039 
153.163 154.311 154.334 155.487 155.386 156.475 156.254 157.248 156.949 
157.846 152.26 152.576 153.743 154.013 155.26 155.435 156.714 156.742 
157.971 157.802 158.909 158.572 159.54 159.11 159.927 152.658 153.047 
154.292 154.675 156.009 156.326 157.706 157.92 159.289 159.311 160.537 
160.301 161.307 160.882 161.679 161.152 161.751 153.087 153.488 154.84 
155.258 156.696 157.067 158.52 158.844 160.278 160.512 161.785 161.79 
162.756 162.51 163.206 162.802 163.311 162.788 163.138 133.637 133 
133.298 133.352 132.619 132.797 132.879 133.136 133.309 132.539 132.587 
132.729 132.843 132.977 133.185 133.407 132.771 132.654 132.809 132.837 
132.958 132.985 133.059 133.274 133.564 133.394 133.052 133.156 133.03 
133.153 133.054 133.049 133.028 133.181 133.503 134.038 134.4 133.877 
133.977 133.598 133.722 133.404 133.419 133.163 133.247 133.286 133.756 
134.186 134.935 135.56 134.999 135.116 134.617 134.743 134.228 134.269 
133.779 133.868 133.591 133.969 134.095 134.792 135.202 135.927 136.667 
136.137 136.195 135.736 135.824 135.331 135.37 134.824 134.914 134.449 
134.744 134.54 135.098 135.224 135.916 136.209 136.832 137.675 137.17 
137.148 136.703 136.727 136.308 136.346 135.901 136.004 135.563 135.805 
135.452 135.861 135.712 136.273 136.352 136.972 137.159 137.733 134.082 
133.79 134.181 134.788 133.739 134.005 134.615 135.007 135.705 133.862 
134.071 134.679 134.957 135.63 135.986 136.678 134.095 134.259 134.89 
135.102 135.736 135.986 136.635 136.97 137.659 134.636 134.632 135.264 
135.359 135.969 136.135 136.763 137.013 137.723 138.034 138.779 135.498 
135.347 135.908 135.829 136.37 136.416 137.03 137.211 137.931 138.193 
138.961 139.236 139.972 136.372 136.21 136.671 136.52 136.984 136.913 
137.496 137.567 138.258 138.44 139.159 139.418 140.13 140.41 141.08 
137.171 136.993 137.402 137.241 137.697 137.59 138.184 138.161 138.828 
138.854 139.494 139.616 140.278 140.533 141.226 141.495 142.129 138.021 
137.787 138.192 137.985 138.456 138.328 138.933 138.896 139.556 139.511 
140.09 140.047 140.635 140.743 141.45 141.678 142.384 142.567 143.145 
134.49 135.214 135.016 135.42 136.103 135.831 136.23 136.018 136.473 
137.058 136.764 137.128 136.865 137.29 137.11 137.635 138.033 137.724 
138.093 137.789 138.172 137.934 138.443 138.323 138.93 139.111 138.739 
139.134 138.796 139.214 138.893 139.402 139.189 139.839 139.7 140.363 
140.277 139.872 140.264 139.897 140.367 140.022 140.572 140.273 140.933 
140.712 141.419 141.21 141.877 141.395 141.028 141.415 141.055 141.517 
141.196 141.745 141.465 142.093 141.86 142.536 142.317 142.972 142.742 
143.365 142.412 142.092 142.477 142.166 142.602 142.314 142.81 142.562 
143.127 142.938 143.567 143.398 144.027 143.821 144.406 144.18 144.735 
143.35 143.055 143.414 143.155 143.581 143.339 143.808 143.567 144.078 
143.885 144.474 144.344 144.975 144.826 145.409 145.195 145.714 145.479 
145.967 149.848 149.239 149.352 148.86 148.456 148.607 148.081 148.219 
147.636 147.656 147.752 147.174 147.351 146.805 146.951 146.399 146.848 
146.915 146.305 146.468 145.968 146.128 145.594 145.72 145.14 146.029 
146.076 145.437 145.599 145.088 145.294 144.731 144.872 144.204 144.346 
143.658 145.368 145.332 144.671 144.73 144.138 144.334 143.72 143.911 
143.193 143.345 142.628 142.8 142.154 144.846 144.784 144.106 144.03 
143.336 143.386 142.739 142.877 142.21 142.335 141.665 141.807 141.215 
141.391 140.871 144.275 144.266 143.564 143.466 142.68 142.626 141.94 
142.002 141.411 141.48 140.872 140.932 140.345 140.486 139.976 140.185 
139.729 143.658 143.663 142.968 142.877 142.066 141.966 141.242 141.269 
140.705 140.784 140.214 140.232 139.61 139.663 139.114 139.286 138.834 
139.069 138.661 
POINT_DATA 1002
SCALARS Distance double
LOOKUP_TABLE default
139.115 138.185 138.199 139.132 138.203 140.076 139.071 138.143 140.114 
141.231 139.041 138.116 140.164 141.421 142.661 139.337 138.341 140.449 
141.708 142.948 144.111 139.93 138.854 141.027 142.188 143.324 144.442 
145.606 140.527 139.526 141.608 142.75 143.85 144.967 146.177 147.381 
141.182 140.321 142.211 143.394 144.545 145.687 146.931 148.148 149.198 
142.074 141.238 143.083 144.255 145.406 146.53 147.761 148.986 150.023 
150.884 143.075 142.175 144.091 145.154 146.174 147.259 148.563 149.92 
151.053 151.928 152.655 137.213 137.174 136.118 136.027 134.941 137.245 
134.902 133.827 136.245 137.283 133.898 132.986 135.254 136.343 137.173 
133.075 132.532 134.249 135.291 136.022 137.197 132.628 132.457 133.417 
134.358 134.96 135.933 137.714 132.719 132.73 133.112 133.903 134.542 
135.189 136.667 138.642 133.237 133.283 133.368 133.934 134.724 135.332 
136.254 137.904 139.7 133.968 134.011 133.964 134.259 135.026 135.849 
136.541 137.618 139.163 140.734 134.848 134.807 135.831 135.855 136.954 
134.846 137.158 138.213 136.033 135.318 138.57 139.564 137.471 136.65 
136.241 140.003 141.007 138.96 138.12 137.597 137.115 141.59 142.523 
140.576 139.711 139.099 138.545 137.981 143.238 143.973 142.369 141.494 
140.797 140.191 139.608 139.235 144.699 145.264 144.037 143.27 142.546 
141.923 141.335 140.897 140.728 145.968 146.433 145.456 144.847 144.197 
143.597 143.03 142.546 142.279 142.204 143.707 143.767 145.351 143.89 
145.497 147.014 144.239 145.747 147.414 148.929 144.785 146.213 147.852 
149.575 151.263 145.36 146.784 148.344 150.056 151.855 153.659 145.925 
147.301 148.801 150.412 152.241 154.088 155.87 146.476 147.771 149.207 
150.698 152.453 154.386 156.214 157.925 146.956 148.189 149.581 151.01 
152.604 154.435 156.299 158.074 159.677 147.374 148.531 149.86 151.275 
152.799 154.434 156.104 157.835 159.563 161.01 144.781 146.375 145.78 
147.969 147.134 146.633 150.295 149.028 148.1 147.691 153.231 152.293 
150.986 149.987 149.316 155.861 155.679 154.874 153.639 152.416 151.161 
158.057 158.097 157.711 156.834 155.773 154.39 152.648 159.959 159.965 
159.473 158.555 157.813 157.116 155.669 153.668 161.388 161.45 160.998 
159.977 159.058 158.738 158.143 156.498 154.393 162.367 162.521 163.439 
163.382 164.415 162.358 164.456 165.491 163.204 161.717 165.637 166.277 
164.374 162.783 160.768 166.093 166.394 165.263 164.071 162.256 160.24 
165.825 166.103 165.321 164.723 163.578 161.773 159.923 165.428 165.566 
165.055 164.698 163.968 162.518 160.68 158.683 164.822 164.648 164.672 
164.373 163.698 162.334 160.553 158.619 156.511 163.758 163.426 163.81 
163.59 162.967 161.709 159.993 158.176 156.295 154.382 161.347 162.905 
161.569 163.283 161.588 164.131 163.16 161.296 164.367 164.974 162.561 
160.746 163.928 164.68 165.564 161.668 160.041 163.259 164.06 164.795 
165.934 160.504 159.299 162.19 163.551 164.205 165.113 166.052 159.438 
158.568 160.664 162.316 163.527 164.319 165.223 165.754 158.646 157.682 
159.503 160.709 162.069 163.107 163.96 164.659 164.887 157.758 156.581 
158.755 159.69 160.69 161.656 162.503 163.202 163.612 163.662 147.488 
148.576 148.662 149.879 149.9 149.855 151.224 151.166 151.22 151.276 
152.544 152.307 152.625 152.759 152.886 153.739 153.211 154.064 154.328 
154.59 154.605 154.904 154.083 155.526 155.928 156.24 156.324 156.191 
156.108 155.059 156.946 157.451 157.767 157.912 157.856 157.813 157.09 
155.941 158.02 158.643 159.096 159.445 159.625 159.662 159.659 146.206 
147.288 145.969 147.022 145.61 148.431 146.583 145.096 148.087 149.624 
146.041 144.611 147.621 149.24 150.858 145.605 144.297 147.122 148.78 
150.447 151.9 145.28 144.05 146.676 148.232 149.92 151.425 152.655 
144.936 143.807 146.252 147.664 149.244 150.874 152.163 153.406 144.645 
143.665 145.837 147.154 148.559 150.191 151.715 152.89 154.248 144.532 
143.657 145.543 146.725 147.974 149.433 151.11 152.489 153.611 155.009 