# vtk DataFile Version 4.0
vtk output
ASCII
DATASET POLYDATA
POINTS 1002 float
-87.2086 -82.8219 73.9313 -87.2783 -82.1699 72.8514 -86.837 -81.9948 73.5561 
-86.7742 -82.7216 74.7123 -86.301 -81.9466 74.2969 -87.1457 -83.612 75.1445 
-86.2658 -82.731 75.6237 -85.6594 -81.9896 75.1767 -86.7426 -83.575 76.0973 
-87.1269 -84.5335 76.6065 -85.6575 -82.7906 76.6407 -85.0436 -81.9778 76.2103 
-86.2536 -83.616 77.1436 -86.692 -84.5981 77.672 -87.0447 -85.6072 78.2457 
-85.1043 -82.8096 77.6703 -84.6264 -81.8828 77.2933 -85.662 -83.7106 78.1634 
-86.1036 -84.7788 78.641 -86.437 -85.8997 79.1801 -86.7341 -86.947 79.71 
-84.6833 -82.8882 78.7513 -84.3212 -81.8698 78.4436 -85.0962 -83.9018 79.1871 
-85.4613 -85.0727 79.6048 -85.7086 -86.3707 80.0124 -85.9759 -87.5024 80.5 
-86.242 -88.5709 80.9183 -84.2474 -83.1466 79.9516 -83.9646 -82.0423 79.6469 
-84.5646 -84.301 80.3039 -84.9015 -85.5007 80.7113 -85.0877 -86.9133 81.0505 
-85.247 -88.2331 81.4253 -85.517 -89.2919 81.8378 -85.7469 -90.3517 82.1354 
-83.7801 -83.5358 81.0421 -83.5859 -82.385 80.6608 -84.0344 -84.8357 81.3878 
-84.3794 -86.075 81.7997 -84.5905 -87.4516 82.1863 -84.6569 -88.9619 82.5088 
-84.8387 -90.2016 82.8767 -85.1118 -91.2153 83.1969 -85.27 -92.2406 83.3675 
-83.3587 -84.0206 81.8241 -83.2225 -82.8755 81.4284 -83.5608 -85.3796 82.236 
-83.8536 -86.7189 82.6838 -84.0513 -88.0655 83.125 -84.0809 -89.6176 83.4602 
-84.1741 -91.0946 83.7701 -84.4377 -92.2318 84.1152 -84.6687 -93.2262 84.3666 
-84.7545 -94.1978 84.4648 -82.9609 -84.6053 82.4922 -82.8663 -83.4734 82.1913 
-83.1162 -85.9375 82.9083 -83.3252 -87.3568 83.3883 -83.4433 -88.78 83.862 
-83.4394 -90.3136 84.2357 -83.5036 -91.8642 84.5109 -83.7488 -93.15 84.803 
-84.0279 -94.2062 85.1263 -84.1795 -95.2002 85.3632 -84.2413 -96.096 85.4522 
-87.0201 -81.4174 72.2477 -86.477 -81.2281 72.9674 -86.6008 -80.6294 71.6419 
-85.9986 -80.4038 72.3853 -86.1297 -79.7951 71.0619 -85.848 -81.1628 73.7214 
-85.6186 -79.4698 71.9187 -85.8197 -78.8127 70.6427 -85.4555 -80.2355 73.2893 
-85.1944 -81.1163 74.7244 -85.3446 -78.3694 71.6498 -85.5534 -77.6194 70.4853 
-85.2171 -79.2045 73.0889 -84.9003 -80.0767 74.5522 -84.619 -80.9931 75.9317 
-84.9228 -77.1469 71.5852 -85.2261 -76.3876 70.5608 -84.8625 -78.1312 72.9909 
-84.5744 -79.0933 74.5134 -84.1823 -79.9825 75.8455 -84.1633 -80.8888 77.0968 
-84.6178 -76.0504 71.865 -85.2343 -75.4293 70.9766 -84.4383 -77.0531 73.0519 
-84.1228 -78.1653 74.4411 -83.545 -79.1381 75.7259 -83.4174 -80.0282 76.9053 
-83.7735 -80.9504 78.2495 -84.8602 -75.3536 72.6247 -85.7409 -74.9163 71.8557 
-84.4259 -76.193 73.5556 -84.026 -77.231 74.6616 -83.2027 -78.2554 75.782 
-82.6438 -79.2446 76.8062 -82.9466 -80.203 78.0019 -83.4626 -81.1915 79.4093 
-85.4452 -75.0789 73.6491 -86.3744 -74.7952 72.9796 -84.7844 -75.7287 74.4133 
-84.3361 -76.5317 75.3272 -83.5597 -77.3793 76.3326 -82.6136 -78.3467 77.2168 
-82.3749 -79.4124 78.0947 -82.8318 -80.4627 79.2293 -83.2084 -81.574 80.4356 
-86.032 -75.0637 74.6216 -86.8808 -74.9106 74.0191 -85.204 -75.5331 75.3081 
-84.6157 -76.1325 76.1387 -84.0688 -76.7873 77.1024 -83.2729 -77.6045 77.9852 
-82.5866 -78.5962 78.7037 -82.4937 -79.6624 79.505 -82.764 -80.7986 80.47 
-82.9206 -82.0747 81.3976 -86.8743 -75.1379 75.3108 -85.9511 -75.3482 76.0202 
-86.9185 -75.3693 76.7625 -85.8673 -75.4746 77.7059 -86.9461 -75.5094 78.5109 
-85.0155 -75.7497 76.8607 -85.8579 -75.6154 79.5443 -86.8924 -75.8681 80.1564 
-84.8665 -75.846 78.6349 -84.388 -76.3152 77.7972 -85.9347 -76.3133 80.9564 
-86.8477 -76.7522 81.3495 -85.0005 -76.3212 80.2031 -84.3725 -76.7268 79.3548 
-83.9314 -77.1464 78.6866 -86.0189 -77.4979 82.0466 -86.8897 -77.8702 82.4728 
-85.2517 -77.3904 81.4058 -84.635 -77.6353 80.6106 -84.043 -77.9088 80.0024 
-83.2975 -78.1257 79.4534 -86.0187 -78.6633 83.3652 -86.8873 -78.9527 83.7838 
-85.2936 -78.5536 82.7829 -84.7343 -78.6873 82.0412 -84.0846 -78.8319 81.387 
-83.3149 -78.8549 80.8982 -82.6996 -79.0942 80.249 -85.9703 -79.7767 84.7737 
-86.804 -80.0517 85.0312 -85.2065 -79.6391 84.3392 -84.6255 -79.6875 83.7333 
-83.9642 -79.7542 83.0886 -83.1537 -79.6857 82.5668 -82.595 -79.7644 81.9611 
-82.5149 -80.2175 81.1437 -86.0331 -80.9076 85.9099 -86.7956 -81.1082 86.0359 
-85.2613 -80.8095 85.611 -84.6616 -80.8577 85.1202 -84.0831 -80.943 84.5233 
-83.3076 -80.8905 84.0396 -82.616 -80.8564 83.5962 -82.3969 -81.1367 82.8679 
-82.5907 -81.631 81.994 -86.2208 -82.0324 86.6917 -86.8931 -82.1116 86.7671 
-85.4783 -82.0459 86.4817 -84.8647 -82.1748 86.0872 -84.3973 -82.36 85.511 
-83.8402 -82.4493 84.9877 -83.1477 -82.4399 84.6974 -82.6181 -82.555 84.3186 
-82.4652 -82.8656 83.5684 -82.6089 -83.2026 82.7368 -82.563 -84.9045 83.2817 
-82.4219 -84.7496 84.0414 -82.2442 -86.5934 84.597 -82.5755 -84.5511 84.8653 
-82.2789 -86.5467 85.4198 -81.9575 -88.4346 85.9148 -83.0552 -84.3621 85.3336 
-82.6582 -86.4487 86.0436 -82.1348 -88.4467 86.6336 -81.8073 -90.3686 87.0967 
-83.6674 -84.2415 85.5232 -83.1765 -86.2814 86.3438 -82.4957 -88.3751 87.1366 
-82.0555 -90.3894 87.7692 -81.8288 -92.4094 88.3904 -84.1809 -84.1077 85.9121 
-83.6383 -86.0839 86.6717 -82.8607 -88.1838 87.5931 -82.3294 -90.2883 88.3554 
-82.0974 -92.4069 89.0886 -81.8862 -94.6865 89.7328 -84.6019 -83.8891 86.4792 
-84.0877 -85.9056 87.1177 -83.3391 -87.9979 88.0515 -82.7002 -90.062 88.9262 
-82.3539 -92.2077 89.6584 -82.1412 -94.6311 90.2727 -81.9376 -97.246 90.5792 
-85.1376 -83.6418 86.8906 -84.6272 -85.7155 87.3885 -83.9908 -87.8836 88.2233 
-83.3708 -89.8416 89.2249 -82.8065 -91.8212 90.0752 -82.3984 -94.2356 90.6492 
-82.187 -97.0469 90.896 -82.0633 -99.8166 90.8882 -85.8571 -83.4445 87.1133 
-85.3031 -85.4593 87.4885 -84.6668 -87.687 88.1628 -84.1399 -89.602 89.191 
-83.5582 -91.3626 90.2101 -82.8998 -93.5621 90.8999 -82.4907 -96.3671 91.1717 
-82.3349 -99.3726 91.1533 -82.2024 -102.1 91.0717 -86.5881 -83.3344 87.2396 
-86.0587 -85.182 87.5853 -85.3531 -87.3448 88.1529 -84.7849 -89.2236 89.1307 
-84.3183 -90.8566 90.1884 -83.6747 -92.8353 90.956 -83.0665 -95.4118 91.3572 
-82.7432 -98.3993 91.4318 -82.5227 -101.401 91.3438 -82.2406 -104.04 91.2651 
-82.6123 -86.2328 83.5929 -82.1867 -88.1048 84.8951 -82.7313 -87.7466 84.0272 
-81.8 -90.1507 86.1612 -82.1812 -89.8543 85.2345 -82.7991 -89.3853 84.501 
-81.6495 -92.3144 87.4562 -81.7673 -92.1359 86.4369 -82.1893 -91.7476 85.6311 
-82.7822 -91.0793 84.9469 -81.6612 -94.6952 88.9356 -81.675 -94.5133 87.8403 
-81.9536 -94.1259 86.8796 -82.3534 -93.5109 86.1254 -82.8749 -92.7114 85.3138 
-81.691 -97.4593 90.0929 -81.6479 -97.2861 89.2186 -81.9219 -96.6893 88.2443 
-82.2948 -95.8576 87.4389 -82.6665 -94.9991 86.5658 -83.1505 -94.1098 85.6007 
-81.8179 -100.378 90.5848 -81.658 -100.518 90.0094 -81.7649 -100.011 89.2352 
-82.0836 -98.8764 88.5267 -82.4645 -97.5831 87.7868 -82.9068 -96.4261 86.8352 
-83.4413 -95.331 85.8968 -81.9836 -103.01 90.8157 -81.7928 -103.634 90.3618 
-81.7005 -103.722 89.7016 -81.7727 -102.876 89.0709 -82.039 -101.267 88.5435 
-82.4904 -99.505 87.8999 -83.0416 -97.9125 87.0747 -83.6151 -96.5 86.2089 
-81.9899 -105.211 91.0573 -81.8152 -106.202 90.647 -81.6837 -106.923 89.9745 
-81.6253 -106.817 89.2763 -81.7474 -105.523 88.7977 -82.1124 -103.446 88.4576 
-82.6325 -101.207 88.0105 -83.1788 -99.1925 87.3135 -83.714 -97.519 86.4111 
-81.9536 -106.728 91.274 -81.6547 -108.067 90.9644 -81.6229 -109.45 91.0544 
-81.1877 -110.958 90.4528 -81.5372 -111.765 90.5576 -81.4439 -109.298 90.2921 
-80.8391 -113.368 89.5678 -81.8263 -113.308 89.9484 -80.7846 -112.264 89.4629 
-81.3213 -110.029 89.4178 -80.9992 -114.783 88.7323 -82.384 -113.946 89.3748 
-80.2417 -114.389 88.4328 -80.7259 -112.531 88.5866 -81.4484 -109.442 88.7817 
-81.8592 -114.913 88.197 -83.0788 -113.495 88.9421 -80.569 -115.254 87.6601 
-80.4314 -113.945 87.7622 -81.2924 -111.152 88.2204 -81.8872 -107.463 88.5209 
-83.0107 -113.736 87.965 -83.8313 -112.004 88.7262 -81.8362 -114.763 87.2955 
-81.0377 -114.255 87.2107 -81.3989 -111.897 87.6986 -82.1475 -108.449 88.2462 
-82.4586 -104.726 88.3917 -83.98 -111.628 87.9948 -84.6313 -109.968 88.6093 
-83.2015 -112.941 87.3827 -82.3165 -113.153 87.168 -82.0178 -111.528 87.4625 
-82.4642 -108.439 87.9766 -82.873 -105.044 88.2627 -82.9999 -101.923 88.0136 
-84.8249 -109.092 88.1138 -85.4927 -107.793 88.4425 -84.2263 -110.183 87.7576 
-83.5859 -110.556 87.5928 -83.0717 -109.591 87.6937 -83.0501 -107.256 87.8992 
-83.3139 -104.435 87.9995 -83.4353 -101.867 87.7792 -83.5043 -99.5885 87.1832 
-85.7246 -106.521 88.0987 -86.3679 -105.665 88.1908 -85.1316 -107.19 87.9906 
-84.6355 -107.36 87.9262 -84.2087 -106.696 87.9336 -83.9461 -105.149 87.8923 
-83.9234 -103.172 87.6929 -83.9529 -101.274 87.3152 -83.9374 -99.5225 86.7586 
-84.0182 -97.7889 86.0965 -82.5091 -104.143 91.4442 -82.2328 -106.976 91.354 
-83.0486 -103.716 91.5703 -82.9092 -106.5 91.4136 -83.8194 -102.702 91.6306 
-82.1182 -109.589 91.1328 -83.8486 -105.149 91.5045 -84.5718 -101.34 91.5102 
-83.0308 -108.829 91.2885 -82.4456 -111.377 90.8602 -84.6851 -103.286 91.3853 
-85.1867 -99.8989 91.1223 -84.0369 -107.109 91.4433 -83.4529 -110.092 91.1698 
-82.9819 -112.233 90.4514 -85.3374 -101.333 90.9299 -85.9195 -98.3455 90.692 
-84.8657 -104.874 91.2873 -84.3035 -108.052 91.2647 -83.8127 -110.404 90.6921 
-83.4155 -112.278 89.8651 -86.2001 -99.2963 90.5321 -87.0113 -96.6277 90.4753 
-85.6746 -102.481 90.879 -85.1917 -105.612 91.1249 -84.6187 -108.071 90.7284 
-84.1772 -109.981 90.0519 -83.9282 -111.359 89.4412 -87.4502 -97.2362 90.416 
-88.2502 -95.0082 90.3204 -86.7831 -99.9909 90.5872 -86.2983 -102.958 90.8988 
-85.775 -105.509 90.8108 -85.2825 -107.442 90.2659 -84.9427 -108.857 89.7512 
-84.7283 -109.692 89.2388 -88.6982 -95.4963 90.2234 -89.2632 -93.7342 89.9171 
-88.0647 -97.6866 90.3734 -87.5162 -100.252 90.5871 -87.0131 -102.792 90.7355 
-86.588 -104.889 90.515 -86.2736 -106.413 90.0552 -85.9566 -107.36 89.5396 
-85.6621 -107.794 88.9591 -89.6237 -94.1912 89.6595 -89.978 -92.7447 89.2231 
-89.1528 -95.892 89.9284 -88.6277 -97.8969 90.0997 -88.0766 -100.094 90.2761 
[...]
CELL_DATA 2000
SCALARS Distance double
LOOKUP_TABLE default
139.571 139.607 139.9 140.558 139.711 139.998 140.725 140.992 141.754 
139.873 140.162 140.952 141.227 142.045 142.305 143.149 140.106 140.371 
141.187 141.479 142.319 142.61 143.463 143.742 144.581 140.478 140.675 
141.508 141.755 142.622 142.894 143.763 144.041 144.893 145.153 145.962 
141 141.139 142.005 142.177 143.093 143.291 144.225 144.426 145.345 
145.534 146.414 146.581 147.407 141.557 141.701 142.584 142.748 143.691 
143.864 144.84 145.003 145.977 146.118 147.066 147.173 148.074 148.141 
148.972 142.069 142.232 143.108 143.315 144.262 144.475 145.442 145.635 
146.593 146.773 147.72 147.873 148.792 148.886 149.746 149.765 150.543 
142.595 142.726 143.584 143.802 144.748 145.001 145.959 146.188 147.12 
147.333 148.256 148.464 149.371 149.546 150.408 150.513 151.308 151.318 
152.033 138.966 137.989 138.636 138.949 136.922 137.604 137.914 138.612 
138.982 135.893 136.541 136.875 137.567 137.953 138.671 139.11 134.937 
135.556 135.934 136.606 137.041 137.696 138.145 138.841 139.34 134.001 
134.595 134.989 135.709 136.198 136.858 137.292 137.923 138.393 139.113 
139.683 133.383 133.749 134.152 134.798 135.337 136.016 136.433 137.048 
137.431 138.143 138.69 139.509 140.165 133.501 133.477 133.912 134.22 
134.824 135.295 135.766 136.225 136.567 137.156 137.662 138.483 139.182 
140.045 140.736 134.238 133.958 134.369 134.347 134.949 135.118 135.672 
135.849 136.246 136.504 136.99 137.558 138.282 139.085 139.858 140.645 
141.304 135.165 134.825 135.138 134.962 135.441 135.45 135.996 136.048 
136.528 136.548 137.027 137.211 137.869 138.372 139.163 139.846 140.584 
141.255 141.888 135.756 136.641 136.006 135.728 137.635 136.935 136.627 
136.055 135.944 138.728 137.982 137.637 136.983 136.85 136.383 136.426 
139.883 139.13 138.833 138.087 137.951 137.369 137.428 136.952 137.001 
141.129 140.361 140.164 139.389 139.301 138.609 138.67 138.071 138.134 
137.539 137.545 142.473 141.697 141.561 140.795 140.755 140.035 140.064 
139.391 139.409 138.751 138.753 138.141 138.281 143.817 143.083 142.982 
142.235 142.219 141.503 141.522 140.801 140.777 140.058 140.05 139.403 
139.55 139.04 139.418 145.076 144.421 144.37 143.666 143.676 142.976 
143.034 142.296 142.323 141.525 141.568 140.813 140.998 140.382 140.742 
140.289 140.771 146.211 145.651 145.655 145.028 145.071 144.423 144.525 
143.837 143.951 143.175 143.311 142.502 142.739 141.991 142.339 141.707 
142.118 141.637 142.083 142.923 143.082 143.441 144.392 143.416 143.749 
144.788 145.073 146.074 143.831 144.16 145.256 145.552 146.577 146.814 
147.812 144.306 144.589 145.655 145.993 147.023 147.312 148.317 148.58 
149.661 144.839 145.059 146.045 146.359 147.377 147.703 148.73 149.054 
150.169 150.512 151.734 145.35 145.55 146.481 146.757 147.768 148.076 
149.125 149.451 150.564 150.956 152.173 152.608 153.86 145.828 146.005 
146.886 147.162 148.157 148.488 149.537 149.865 150.921 151.293 152.414 
152.902 154.101 154.625 155.805 146.329 146.459 147.266 147.516 148.451 
148.815 149.833 150.223 151.218 151.588 152.574 153.029 154.108 154.693 
155.84 156.429 157.528 146.819 146.934 147.668 147.871 148.721 149.051 
150.004 150.42 151.374 151.781 152.683 153.106 154.057 154.604 155.671 
156.322 157.412 158.029 159.026 143.217 144.633 143.975 144.212 146.264 
145.503 145.714 145.08 145.399 148 147.192 147.387 146.669 146.964 
146.327 146.635 149.916 149.023 149.246 148.418 148.711 147.974 148.278 
147.576 147.832 152.093 151.125 151.422 150.436 150.752 149.855 150.184 
149.344 149.606 148.797 149.008 154.329 153.435 153.832 152.785 153.113 
152.064 152.377 151.393 151.642 150.696 150.865 149.987 150.141 156.378 
155.666 156.196 155.254 155.641 154.544 154.823 153.703 153.9 152.822 
152.936 151.925 152.009 151.103 151.195 158.174 157.649 158.316 157.575 
158.104 157.11 157.458 156.265 156.451 155.204 155.29 154.1 154.138 
153.058 153.083 152.126 152.134 159.698 159.348 160.088 159.582 160.224 
159.487 159.951 158.915 159.148 157.875 157.942 156.605 156.596 155.32 
155.266 154.11 154.024 153.006 152.895 160.694 162.287 161.417 161.162 
163.676 162.945 162.74 161.826 161.395 164.703 164.158 163.948 163.26 
162.885 161.933 161.225 165.324 164.973 164.692 164.211 163.824 163.186 
162.534 161.527 160.484 165.468 165.384 165.084 164.742 164.285 163.848 
163.24 162.567 161.606 160.533 159.263 165.033 165.273 165.068 164.963 
164.503 164.167 163.536 163.047 162.17 161.404 160.203 159.135 157.807 
164.132 164.592 164.461 164.694 164.305 164.218 163.535 163.19 162.242 
161.712 160.535 159.791 158.469 157.55 156.287 163.027 163.54 163.366 
163.825 163.445 163.69 162.965 162.898 161.823 161.513 160.255 159.804 
158.502 157.906 156.644 155.942 154.837 161.898 162.365 162.088 162.575 
162.125 162.535 161.789 161.974 160.891 160.809 159.546 159.3 158.052 
157.701 156.529 156.065 154.992 154.465 153.543 160.624 160.865 161.276 
162.215 160.837 161.437 162.48 162.848 163.649 160.471 161.27 162.398 
163.009 163.908 164.18 164.751 159.749 160.699 161.829 162.728 163.681 
164.249 164.846 165.076 165.378 158.826 159.773 160.8 161.905 162.847 
163.722 164.271 164.827 165.072 165.393 165.424 158.012 158.77 159.625 
160.708 161.63 162.662 163.209 163.942 164.124 164.697 164.703 165.108 
164.912 157.472 158.01 158.681 159.538 160.392 161.4 162.051 162.828 
163.082 163.644 163.694 164.179 164.061 164.389 164.048 157.047 157.507 
158.025 158.659 159.324 160.199 160.855 161.698 162.089 162.696 162.84 
163.275 163.241 163.544 163.291 163.468 163.038 156.522 157.017 157.429 
157.976 158.426 159.138 159.618 160.459 160.846 161.633 161.844 162.444 
162.453 162.816 162.594 162.768 162.367 162.461 161.982 147.275 148.231 
147.883 148.161 149.27 148.926 149.3 148.884 149.241 150.378 150.048 
150.515 150.112 150.533 150.079 150.511 151.471 151.178 151.678 151.346 
151.803 151.394 151.83 151.402 151.847 152.479 152.233 152.734 152.472 
152.957 152.621 153.081 152.699 153.158 152.735 153.164 153.437 153.218 
153.775 153.536 154.102 153.785 154.326 153.957 154.503 154.085 154.602 
154.103 154.574 154.392 154.199 154.82 154.613 155.251 154.979 155.593 
155.257 155.888 155.503 156.135 155.653 156.238 155.658 156.208 155.285 
155.155 155.757 155.615 156.208 156.052 156.65 156.464 157.113 156.874 
157.572 157.219 157.896 157.398 158.016 157.405 157.958 156.008 155.969 
156.512 156.431 156.929 156.849 157.393 157.35 158.025 157.974 158.752 
158.589 159.358 159.019 159.699 159.195 159.762 159.135 159.587 146.945 
146.721 147.16 147.839 146.548 146.951 147.619 148.068 148.804 146.471 
146.845 147.53 147.902 148.62 149.074 149.87 146.344 146.78 147.502 
147.878 148.603 148.974 149.756 150.198 150.999 146.1 146.584 147.306 
147.788 148.538 148.977 149.773 150.181 150.975 151.351 152.069 145.94 
146.344 147.042 147.521 148.267 148.802 149.624 150.156 150.971 151.382 
152.068 152.379 153.008 145.936 146.262 146.95 147.327 148.052 148.513 
149.303 149.879 150.707 151.267 151.969 152.36 152.934 153.271 153.893 
145.907 146.252 146.919 147.291 148.003 148.387 149.114 149.569 150.332 
150.893 151.62 152.136 152.727 153.135 153.698 154.118 154.748 145.78 
146.148 146.774 147.199 147.892 148.324 149.015 149.421 150.1 150.555 
151.254 151.757 152.399 152.854 153.414 153.85 154.42 154.898 155.474 
145.889 146.449 146.388 146.904 147.154 147.029 147.554 147.49 148.053 
147.934 147.779 148.275 148.175 148.737 148.679 149.208 148.777 148.6 
149.078 148.907 149.434 149.364 149.933 149.836 150.321 149.687 149.521 
150.029 149.763 150.256 150.098 150.71 150.615 151.199 151.002 151.48 
150.523 150.458 151.021 150.758 151.208 150.971 151.571 151.468 152.138 
151.963 152.482 152.196 152.612 151.134 151.212 151.81 151.684 152.11 
151.895 152.427 152.339 153.023 152.924 153.475 153.207 153.576 153.267 
153.614 151.514 151.696 152.313 152.35 152.827 152.714 153.242 153.17 
153.865 153.807 154.415 154.182 154.556 154.217 154.534 154.24 154.609 
151.779 151.994 152.645 152.783 153.362 153.37 153.974 153.96 154.702 
154.679 155.366 155.161 155.586 155.214 155.513 155.171 155.527 155.259 
155.647 152.179 153.298 152.83 153.081 154.687 154.084 154.261 153.726 
153.869 155.998 155.482 155.627 155.01 155.138 154.531 154.629 156.937 
156.64 156.823 156.326 156.453 155.882 156.036 155.39 155.477 157.678 
157.474 157.719 157.363 157.463 157.048 157.177 156.735 156.823 156.212 
156.123 158.545 158.293 158.626 158.256 158.364 157.926 157.957 157.621 
157.657 157.301 157.161 156.595 156.263 159.549 159.28 159.735 159.332 
159.578 158.98 158.999 158.413 158.386 157.965 157.87 157.422 157.135 
156.541 156.162 160.515 160.309 160.844 160.538 160.945 160.387 160.518 
159.728 159.67 158.914 158.818 158.196 158.021 157.408 157.13 156.478 
156.184 161.36 161.223 161.753 161.579 162.021 161.693 161.904 161.286 
161.236 160.41 160.231 159.395 159.168 158.417 158.152 157.479 157.203 
156.561 156.291 151.758 151.466 152.015 152.904 151.23 151.793 152.798 
153.359 154.356 151.067 151.614 152.651 153.271 154.302 154.826 155.673 
150.933 151.46 152.419 153.064 154.008 154.627 155.401 155.924 156.544 
150.683 151.244 152.081 152.731 153.564 154.197 154.897 155.483 156.106 
156.644 157.239 150.221 150.845 151.605 152.281 153.07 153.703 154.415 
154.977 155.663 156.206 156.919 157.414 158.104 149.673 150.294 151.023 
151.71 152.486 153.169 153.923 154.536 155.281 155.846 156.627 157.157 
157.928 158.38 159.09 149.215 149.768 150.468 151.102 151.837 152.533 
153.288 153.995 154.752 155.426 156.19 156.826 157.592 158.165 158.89 
159.363 160.029 148.868 149.358 150.014 150.571 151.248 151.88 152.597 
153.309 154.068 154.804 155.55 156.261 156.988 157.682 158.41 159.045 
159.738 160.249 160.873 151.108 150.156 150.652 150.752 149.331 149.772 
149.807 150.292 150.441 148.394 148.944 148.984 149.406 149.442 149.993 
150.234 147.113 147.847 147.909 148.497 148.524 149.047 149.202 149.839 
150.146 145.619 146.419 146.482 147.238 147.323 148.02 148.195 148.854 
149.098 149.753 149.981 144.173 144.934 145.033 145.782 145.902 146.687 
146.903 147.713 147.95 148.676 148.818 149.467 149.546 142.832 143.563 
143.737 144.446 144.602 145.31 145.49 146.299 146.512 147.353 147.477 
148.215 148.242 148.923 148.978 141.576 142.277 142.494 143.222 143.427 
144.097 144.226 144.911 145.035 145.828 145.958 146.766 146.846 147.584 
147.666 148.378 148.521 140.442 141.074 141.28 141.998 142.214 142.914 
143.025 143.666 143.71 144.394 144.494 145.266 145.428 146.2 146.377 
147.105 147.301 148.005 148.21 139.901 139.33 139.974 140.721 138.685 
139.38 140.133 140.829 141.604 138.054 138.716 139.438 140.16 140.906 
141.654 142.375 137.679 138.186 138.905 139.495 140.227 140.917 141.664 
142.373 143.067 137.627 137.983 138.744 139.16 139.94 140.418 141.217 
141.773 142.56 143.145 143.888 137.792 138.042 138.815 139.162 139.993 
140.356 141.181 141.564 142.386 142.826 143.64 144.117 144.885 138.169 
138.292 139.026 139.299 140.118 140.464 141.267 141.619 142.405 142.789 
143.602 144.013 144.808 145.204 145.924 138.72 138.751 139.434 139.586 
140.349 140.607 141.366 141.679 142.428 142.802 143.598 144.015 144.822 
145.204 145.938 146.262 146.911 139.287 139.309 139.938 140.032 140.725 
140.889 141.589 141.808 142.523 142.829 143.612 144.007 144.816 145.214 
145.955 146.295 146.947 147.239 147.834 139.774 140.763 140.307 140.45 
141.937 141.38 141.525 141.05 141.231 143.328 142.668 142.777 142.192 
142.349 141.863 142.058 144.802 144.142 144.256 143.551 143.668 143.052 
143.238 142.73 142.976 146.209 145.621 145.82 145.114 145.24 144.498 
144.667 144.024 144.288 143.749 144.078 147.608 147.029 147.306 146.684 
146.887 146.148 146.294 145.554 145.763 145.14 145.439 144.916 145.259 
149.099 148.469 148.742 148.157 148.427 147.778 147.951 147.205 147.332 
146.629 146.827 146.26 146.538 146.06 146.357 150.631 149.98 150.212 
149.604 149.873 149.281 149.505 148.824 148.949 148.202 148.32 147.648 
147.853 147.31 147.572 147.098 147.346 152.119 151.492 151.705 151.076 
151.311 150.716 150.949 150.33 150.487 149.787 149.885 149.165 149.301 
148.661 148.87 148.324 148.553 148.049 148.245 148.888 149.25 149.39 
150.026 149.63 149.781 150.469 150.575 151.24 150.107 150.226 150.976 
151.068 151.788 151.855 152.581 150.694 150.78 151.571 151.648 152.445 
152.493 153.288 153.308 154.084 151.293 151.402 152.214 152.297 153.144 
153.215 154.074 154.098 154.9 154.865 155.594 151.792 151.98 152.838 
152.963 153.835 153.933 154.822 154.893 155.726 155.709 156.442 156.362 
157.045 152.203 152.452 153.384 153.582 154.508 154.636 155.559 155.647 
156.556 156.564 157.39 157.285 158.028 157.867 158.537 152.619 152.883 
153.878 154.13 155.144 155.325 156.34 156.446 157.487 157.508 158.511 
158.385 159.256 159.003 159.724 159.419 159.984 153.034 153.321 154.356 
154.65 155.748 155.99 157.121 157.29 158.467 158.557 159.72 159.652 
160.642 160.37 161.109 160.714 161.242 160.817 161.194 135.104 134.14 
134.666 134.809 133.379 133.738 133.867 134.411 134.63 133.262 133.235 
133.311 133.584 133.763 134.265 134.548 133.852 133.479 133.47 133.329 
133.372 133.534 133.736 134.248 134.676 134.736 134.244 134.147 133.745 
133.631 133.397 133.416 133.593 133.981 134.551 135.179 135.682 135.144 
135.02 134.514 134.361 133.879 133.793 133.563 133.852 134.094 134.78 
135.296 136.05 136.727 136.135 136.033 135.455 135.373 134.784 134.763 
134.253 134.504 134.333 134.992 135.197 136.037 136.375 137.129 137.797 
137.217 137.124 136.532 136.492 135.91 135.978 135.418 135.677 135.272 
135.835 135.726 136.517 136.624 137.409 137.576 138.248 138.783 138.262 
138.177 137.62 137.581 137.045 137.133 136.648 136.891 136.48 136.912 
136.672 137.307 137.262 137.977 138.018 138.675 138.738 139.319 135.661 
135.414 135.829 136.444 135.254 135.641 136.28 136.668 137.328 135.197 
135.537 136.206 136.561 137.258 137.638 138.368 135.362 135.584 136.271 
136.552 137.266 137.617 138.387 138.759 139.498 135.835 135.894 136.562 
136.717 137.413 137.682 138.454 138.809 139.585 139.902 140.583 136.579 
136.48 137.082 137.105 137.764 137.916 138.671 138.941 139.737 140.027 
140.763 141.002 141.679 137.516 137.29 137.826 137.716 138.34 138.364 
139.103 139.257 140.054 140.264 141.027 141.236 141.955 142.159 142.859 
138.535 138.25 138.741 138.542 139.132 139.04 139.738 139.777 140.546 
140.668 141.419 141.568 142.278 142.457 143.145 143.343 143.985 139.537 
139.243 139.693 139.476 140.019 139.874 140.491 140.448 141.136 141.194 
141.903 142.005 142.688 142.813 143.467 143.621 144.229 144.395 144.935 
136.039 136.812 136.576 136.927 137.687 137.396 137.771 137.539 137.952 
138.702 138.33 138.674 138.407 138.833 138.61 139.039 139.791 139.386 
139.675 139.336 139.71 139.475 139.917 139.703 140.145 140.839 140.452 
140.733 140.361 140.713 140.402 140.851 140.602 141.105 140.861 141.367 
141.929 141.509 141.817 141.428 141.818 141.475 141.955 141.644 142.185 
141.895 142.45 142.165 142.703 143.129 142.68 143.011 142.568 142.961 
142.6 143.091 142.79 143.32 143.026 143.554 143.268 143.787 143.508 
144.012 144.263 143.891 144.231 143.8 144.147 143.751 144.185 143.886 
144.389 144.123 144.606 144.33 144.79 144.533 144.996 144.755 145.215 
145.193 144.931 145.276 144.948 145.262 144.892 145.244 144.934 145.386 
145.14 145.614 145.346 145.766 145.487 145.894 145.661 146.086 145.881 
146.302 151.15 150.857 150.708 150.17 150.407 150.312 149.688 149.695 
149.24 149.766 149.728 148.997 149.052 148.513 148.694 148.236 148.993 
149.007 148.243 148.271 147.644 147.831 147.33 147.553 146.978 148.182 
148.231 147.512 147.511 146.83 146.936 146.357 146.563 145.97 146.161 
145.496 147.392 147.463 146.794 146.795 146.082 146.119 145.439 145.572 
144.909 145.101 144.432 144.637 143.999 146.619 146.701 146.062 146.085 
145.364 145.36 144.614 144.656 143.931 144.051 143.372 143.561 142.936 
143.169 142.612 145.915 145.958 145.341 145.362 144.67 144.649 143.907 
143.876 143.14 143.153 142.478 142.577 141.976 142.146 141.597 141.829 
141.348 145.369 145.332 144.732 144.697 144.04 143.992 143.294 143.23 
142.522 142.463 141.786 141.788 141.181 141.271 140.726 140.882 140.392 
140.625 140.22 
POINT_DATA 1002
SCALARS Distance double
LOOKUP_TABLE default
140.177 139.274 139.266 140.261 139.297 141.24 140.44 139.397 141.478 
142.547 140.652 139.573 141.767 142.894 144.01 140.89 139.857 142.021 
143.173 144.326 145.412 141.28 140.302 142.358 143.492 144.63 145.727 
146.751 141.84 140.861 142.898 144.028 145.161 146.25 147.269 148.206 
142.406 141.408 143.509 144.671 145.827 146.949 148.006 148.954 149.763 
142.887 141.916 144.034 145.248 146.411 147.549 148.67 149.705 150.584 
151.286 143.38 142.493 144.491 145.725 146.911 148.045 149.18 150.269 
151.256 152.089 152.731 138.36 138.286 137.324 137.204 136.242 138.256 
136.18 135.26 137.245 138.362 135.232 134.323 136.395 137.486 138.592 
134.233 133.452 135.506 136.698 137.695 138.894 133.568 133.135 134.66 
135.85 136.757 137.843 139.335 133.736 133.637 134.439 135.38 136.075 
136.873 138.273 139.94 134.506 134.576 134.87 135.543 136.1 136.571 
137.531 139.045 140.591 135.398 135.524 135.515 135.942 136.509 136.98 
137.536 138.544 139.903 141.259 136.349 136.274 137.304 137.232 138.375 
136.38 138.344 139.469 137.342 136.833 139.58 140.603 138.58 137.935 
137.52 140.905 141.883 140.011 139.316 138.762 138.122 142.307 143.232 
141.474 140.783 140.098 139.371 138.768 143.713 144.511 142.929 142.258 
141.529 140.71 140.074 139.812 145.042 145.677 144.358 143.745 143.104 
142.339 141.659 141.266 141.154 146.237 146.72 145.687 145.17 144.665 
144.086 143.511 143.051 142.704 142.5 143.78 144.048 145.353 144.498 
145.822 147.051 144.935 146.341 147.575 148.816 145.325 146.71 148.026 
149.356 150.817 145.77 147.047 148.382 149.788 151.367 153.022 146.219 
147.459 148.807 150.19 151.719 153.439 155.126 146.629 147.814 149.205 
150.603 151.976 153.555 155.317 156.983 147.065 148.111 149.434 150.866 
152.19 153.561 155.217 156.997 158.612 147.502 148.443 149.616 150.966 
152.293 153.573 155.044 156.761 158.487 159.989 144.77 146.392 145.985 
148.138 147.636 147.277 150.12 149.487 149.018 148.547 152.445 151.707 
151.066 150.473 149.805 154.848 154.213 153.425 152.645 151.814 150.981 
157.037 156.714 156.005 155.049 154.014 152.987 152.064 158.938 158.986 
158.624 157.758 156.561 155.309 154.128 153.064 160.503 160.832 160.865 
160.378 159.321 157.961 156.534 155.146 153.871 161.599 162.158 163.111 
163.575 164.349 162.499 164.559 165.208 163.721 162.448 165.161 165.61 
164.36 163.401 161.769 165.387 165.415 164.709 163.788 162.542 160.524 
165.026 164.665 164.796 164.006 162.823 161.163 158.938 164.096 163.642 
164.269 163.857 162.753 161.171 159.289 157.189 162.891 162.556 163.121 
162.957 162.099 160.64 158.975 157.252 155.499 161.656 161.488 161.725 
161.544 160.887 159.712 158.304 156.888 155.452 154.03 160.294 161.947 
160.367 162.012 160.151 163.494 161.666 159.612 163.534 164.704 160.836 
158.812 163.002 164.519 165.324 159.683 157.994 161.893 163.656 164.646 
165.254 158.644 157.41 160.56 162.449 163.534 164.2 164.664 157.989 
157.027 159.423 161.205 162.512 163.21 163.683 163.848 157.516 156.605 
158.579 159.983 161.39 162.378 162.942 163.11 162.925 156.935 156.03 
157.842 158.865 160.016 161.142 162.023 162.405 162.276 161.91 147.606 
148.544 148.546 149.692 149.577 149.671 150.88 150.684 150.98 150.956 
151.976 151.759 152.183 152.252 152.287 152.969 152.715 153.26 153.434 
153.561 153.63 153.975 153.624 154.384 154.669 154.886 155.073 155.114 
155.003 154.553 155.486 155.893 156.23 156.561 156.782 156.828 155.913 
155.395 156.361 156.788 157.28 157.84 158.324 158.594 158.637 146.51 
147.366 146.29 147.199 146.159 148.294 147.181 146.076 148.215 149.355 
147.087 145.873 148.241 149.357 150.562 146.795 145.636 148.041 149.337 
150.63 151.739 146.604 145.585 147.732 149.033 150.505 151.783 152.689 
146.6 145.626 147.65 148.777 150.103 151.517 152.613 153.505 146.533 
145.564 147.627 148.736 149.832 151.065 152.283 153.292 154.301 146.351 