# vtk DataFile Version 4.0
vtk output
ASCII
DATASET POLYDATA
POINTS 1002 float
-86.2541 -82.2594 72.4963 -86.0335 -81.6945 71.3636 -85.668 -81.5016 72.1658 
-85.9251 -82.1604 73.4726 -85.47 -81.1753 73.1858 -86.6759 -82.7515 74.0499 
-85.617 -82.1191 74.5062 -85.3173 -80.9477 74.2995 -86.2846 -82.8698 75.084 
-86.9021 -83.4892 75.7202 -85.2631 -82.1452 75.5116 -84.8708 -81.0017 75.3048 
-85.733 -83.1397 76.021 -86.3534 -83.8155 76.63 -86.6952 -84.7344 77.1431 
-84.8078 -82.1571 76.4576 -84.1749 -81.1336 76.0776 -85.1846 -83.3163 76.9898 
-85.6611 -84.2603 77.5262 -86.099 -85.197 78.0013 -86.3171 -86.3403 78.4548 
-84.4667 -82.2185 77.4357 -83.8337 -81.1865 76.9163 -84.7866 -83.4675 78.072 
-85.0843 -84.6752 78.6072 -85.4859 -85.8026 79.0457 -85.7729 -86.9389 79.4908 
-85.9959 -87.9698 79.9322 -84.3458 -82.5574 78.6427 -83.9076 -81.4473 78.1283 
-84.4977 -83.9592 79.2629 -84.6142 -85.2847 79.7729 -84.9087 -86.4692 80.1848 
-85.1823 -87.6438 80.6028 -85.4024 -88.6859 81.0299 -85.6594 -89.5688 81.372 
-84.0533 -83.1051 79.8778 -83.8126 -82.0159 79.4508 -84.0611 -84.6452 80.3998 
-84.0496 -86.113 80.8719 -84.2832 -87.1967 81.2807 -84.5486 -88.259 81.6329 
-84.7437 -89.3875 81.958 -85.0114 -90.3699 82.2785 -85.2676 -91.2946 82.5321 
-83.4492 -83.5555 80.8385 -83.4354 -82.6155 80.5689 -83.3829 -85.0315 81.2192 
-83.3428 -86.6877 81.6999 -83.583 -87.9028 82.248 -83.9481 -88.8511 82.694 
-84.1849 -89.9926 82.9174 -84.4246 -91.1549 83.0909 -84.7048 -92.1611 83.3431 
-84.8743 -93.1301 83.5897 -82.9156 -83.9069 81.6552 -83.1371 -83.1375 81.517 
-82.7684 -85.1463 81.886 -82.7188 -86.8393 82.3061 -82.9181 -88.4186 82.9298 
-83.3601 -89.5806 83.579 -83.7646 -90.704 83.9686 -84.0431 -91.9514 84.1127 
-84.2865 -93.0776 84.2747 -84.458 -94.0457 84.5282 -84.5295 -94.9509 84.7661 
-85.7962 -80.8548 70.9203 -85.4987 -80.4901 71.8128 -85.6577 -79.8482 70.517 
-85.401 -79.415 71.5449 -85.3089 -78.8678 70.0077 -85.3888 -80.0063 72.9954 
-85.0121 -78.4654 71.1757 -84.8321 -77.8146 69.5876 -85.1976 -79.0382 72.8986 
-85.0956 -79.8593 74.2721 -84.6277 -77.3136 70.9089 -84.8147 -76.5338 69.6745 
-84.73 -78.2125 72.6307 -84.5827 -79.1395 74.2798 -84.2064 -80.1625 75.2736 
-84.7228 -75.9515 71.0338 -85.2459 -75.3677 70.1142 -84.4827 -77.0111 72.3506 
-84.1178 -78.3225 74.0726 -83.4467 -79.4834 75.323 -83.2633 -80.3579 75.9518 
-84.9571 -74.9313 71.3959 -85.5634 -74.5683 70.4846 -84.5629 -75.7118 72.3839 
-84.0984 -77.0575 73.855 -83.2565 -78.4605 75.3721 -82.6878 -79.5184 76.1638 
-83.1174 -80.374 76.8392 -85.084 -74.2411 71.9408 -85.7921 -73.9141 70.9598 
-84.6326 -74.7867 72.8368 -84.2282 -75.8477 73.9719 -83.5547 -77.216 75.4734 
-82.8647 -78.4723 76.5998 -82.848 -79.5917 77.2271 -83.4337 -80.7434 78.1565 
-85.4287 -73.6202 72.7978 -86.2373 -73.3936 71.8 -84.8489 -74.076 73.6532 
-84.4072 -74.9485 74.4799 -83.9015 -76.1872 75.6629 -83.3929 -77.4667 76.9306 
-83.1642 -78.7385 77.762 -83.3216 -80.1025 78.5015 -83.5309 -81.4336 79.5318 
-86.0371 -73.2724 73.7533 -86.8057 -73.253 72.786 -85.3779 -73.5868 74.5526 
-84.8338 -74.3168 75.1615 -84.329 -75.4415 75.9617 -83.9374 -76.6703 77.078 
-83.7264 -77.8729 78.0716 -83.6517 -79.2511 78.8473 -83.6154 -80.7616 79.7393 
-83.4603 -82.0862 80.7148 -86.8827 -73.4252 74.2569 -86.1997 -73.4751 75.1215 
-86.9655 -73.9126 75.4616 -86.3345 -74.1119 76.2203 -87.1084 -74.5441 76.6742 
-85.5516 -73.9475 75.7386 -86.4638 -74.835 77.6491 -87.3412 -75.1233 78.2952 
-85.6508 -74.7125 76.9467 -84.945 -74.8838 76.3559 -86.6691 -75.3767 79.536 
-87.5021 -75.8071 79.8804 -85.7578 -75.3866 78.7749 -85.0802 -75.6278 77.9126 
-84.5036 -76.0534 77.3183 -86.8865 -76.1661 80.9756 -87.546 -76.8261 80.9867 
-85.9777 -75.9813 80.6403 -85.2329 -76.2147 79.9016 -84.7617 -76.623 78.9941 
-84.2858 -77.1781 78.3755 -87.0831 -77.5775 81.8448 -87.6384 -78.1106 82.0073 
-86.2766 -77.2088 81.6546 -85.4139 -77.1258 81.371 -84.8498 -77.3055 80.6836 
-84.5325 -77.7365 79.8111 -84.1379 -78.4572 79.2294 -87.2242 -79.2431 82.7898 
-87.7424 -79.5106 83.0659 -86.5495 -79.0167 82.3958 -85.7102 -78.7896 82.1781 
-84.9397 -78.6875 81.8855 -84.5502 -78.8325 81.2314 -84.3422 -79.3391 80.5705 
-83.9819 -80.1094 80.1332 -87.2193 -80.7247 83.8181 -87.7265 -80.9168 83.9008 
-86.6357 -80.6523 83.4735 -85.9747 -80.5616 83.164 -85.2297 -80.4897 82.9476 
-84.6777 -80.5583 82.5357 -84.4576 -80.8101 81.9905 -84.1917 -81.2695 81.5546 
-83.7515 -81.7688 81.1585 -87.1343 -81.9738 84.7343 -87.6479 -82.2003 84.601 
-86.5565 -81.9082 84.6387 -86.0029 -81.9343 84.4279 -85.4277 -82.0019 84.2095 
-84.8762 -82.1768 83.8519 -84.5564 -82.4457 83.3463 -84.3211 -82.7257 82.9031 
-83.8738 -82.9541 82.5094 -83.3712 -83.0747 82.0289 -82.8342 -84.181 82.5306 
-83.2275 -84.3246 83.1328 -82.7405 -85.6794 83.6693 -83.7903 -84.3896 83.625 
-83.1869 -85.9854 84.1924 -83.0248 -87.7023 84.8179 -84.2067 -84.182 84.0638 
-83.6671 -85.9655 84.6105 -83.4664 -87.9643 85.1329 -83.5669 -89.8299 85.763 
-84.481 -83.8104 84.629 -84.0073 -85.5477 85.1816 -83.8287 -87.7287 85.6304 
-83.9178 -90.008 86.1642 -83.6863 -91.7909 86.8034 -84.8909 -83.5081 85.1836 
-84.3248 -85.1754 85.8659 -84.0555 -87.2597 86.4004 -84.073 -89.8128 86.9997 
-83.746 -92.067 87.6393 -82.9941 -93.9412 88.2881 -85.4333 -83.3237 85.5083 
-84.816 -85.0204 86.3494 -84.3498 -86.9921 86.9811 -84.1443 -89.4324 87.727 
-83.7529 -92.0328 88.5463 -82.9603 -94.2379 89.22 -82.2893 -96.4345 89.7288 
-86.0066 -83.1726 85.6753 -85.4446 -84.8238 86.6172 -84.8987 -86.7687 87.2932 
-84.4483 -88.9793 87.9957 -83.9592 -91.5992 88.8748 -83.2367 -94.1662 89.6878 
-82.5455 -96.4688 90.2634 -82.2092 -98.8982 90.598 -86.6472 -83.1052 85.734 
-86.1428 -84.557 86.766 -85.6002 -86.3904 87.5301 -85.0383 -88.4542 88.1558 
-84.4816 -90.9113 88.909 -83.8343 -93.6608 89.6818 -83.1429 -96.2055 90.3268 
-82.6285 -98.6227 90.8045 -82.3273 -101.136 91.0523 -87.2822 -83.2235 85.6089 
-86.8661 -84.4299 86.7487 -86.3366 -86.0291 87.6352 -85.7097 -87.9791 88.242 
-85.121 -90.2795 88.9209 -84.5585 -92.95 89.661 -83.9021 -95.6091 90.2619 
-83.228 -98.0907 90.7743 -82.679 -100.642 91.1863 -82.2503 -103.216 91.3696 
-82.5357 -85.1406 82.7032 -82.5754 -86.9701 84.0457 -82.4224 -86.6702 83.0291 
-83.032 -89.2431 85.354 -82.5473 -88.772 84.4822 -82.4811 -88.5991 83.5377 
-83.4072 -91.3868 86.3517 -82.9042 -91.0638 85.7566 -82.5759 -90.8162 84.8539 
-82.8 -90.3281 84.1657 -83.0661 -93.639 87.5653 -82.9825 -93.3201 86.9208 
-82.7615 -93.0629 86.046 -82.8542 -92.5971 85.2881 -83.314 -91.7029 84.762 
-82.3337 -96.56 89.1074 -82.5648 -96.3367 88.4427 -82.7172 -95.7076 87.5438 
-82.8937 -94.9445 86.563 -83.319 -94.097 85.9091 -83.7554 -93.0372 85.1767 
-82.063 -99.6025 90.2563 -82.1611 -99.9529 89.7932 -82.3681 -99.403 89.11 
-82.6175 -98.1131 88.126 -83.0706 -96.8108 87.2696 -83.629 -95.6231 86.5325 
-84.017 -94.3371 85.4686 -82.1291 -102.143 90.8249 -82.0474 -102.955 90.4621 
-82.0265 -103.054 89.9706 -82.0849 -102.093 89.227 -82.4272 -100.49 88.4422 
-83.0854 -98.7969 87.825 -83.7223 -97.0936 86.9804 -84.1392 -95.4481 85.7461 
-82.0062 -104.359 91.152 -81.8591 -105.259 90.7729 -81.7377 -105.751 90.2865 
-81.6298 -105.535 89.6547 -81.7488 -104.452 88.9903 -82.3113 -102.665 88.554 
-83.1128 -100.474 88.1239 -83.7675 -98.2626 87.2393 -84.1916 -96.3913 85.9846 
-81.8638 -106.171 91.4772 -81.5381 -107.352 91.1158 -81.5284 -109.2 91.3125 
-81.1072 -110.463 90.8153 -81.4473 -111.668 90.8338 -81.3629 -108.117 90.6039 
-81.0313 -113.213 90.1339 -81.6123 -113.087 90.1525 -80.9644 -111.267 90.1685 
-81.2703 -108.401 89.9543 -81.3021 -114.758 89.1321 -81.9781 -113.455 89.4552 
-80.9593 -114.032 89.2821 -81.0054 -111.206 89.4075 -81.2862 -107.919 89.2362 
-81.7976 -114.655 88.2347 -82.5823 -112.97 88.8951 -81.2474 -115.102 88.1298 
-81.049 -113.131 88.5504 -81.2438 -109.881 88.7993 -81.6876 -106.412 88.7717 
-82.5217 -113.377 87.8304 -83.3821 -111.792 88.5142 -81.7564 -114.31 87.4128 
-81.2856 -113.342 87.6869 -81.4031 -110.651 88.2869 -81.9478 -107.441 88.6258 
-82.5377 -103.976 88.5932 -83.4542 -111.533 87.8046 -84.2758 -110.118 88.2611 
-82.5772 -112.503 87.4143 -81.853 -112.219 87.3921 -81.7339 -110.299 87.8666 
-82.3214 -107.458 88.4173 -82.9876 -104.339 88.5533 -83.4163 -101.145 88.1325 
-84.4527 -109.276 87.8577 -85.151 -108.09 88.0923 -83.6403 -110.084 87.7009 
-82.8551 -110.114 87.6181 -82.4575 -108.963 87.7676 -82.7987 -106.742 88.1599 
-83.4655 -104.013 88.346 -83.8392 -101.22 87.9587 -84.0021 -98.6192 87.0762 
-85.3539 -106.698 87.8402 -85.9172 -105.831 87.9464 -84.7041 -107.227 87.8538 
-84.0488 -107.253 87.8462 -83.549 -106.608 87.7901 -83.5175 -105.165 87.8599 
-83.9352 -103.091 87.9267 -84.2707 -100.827 87.5811 -84.3264 -98.6826 86.7559 
-84.3771 -96.7172 85.7314 -82.4479 -103.543 91.5707 -82.1998 -106.663 91.669 
-82.9542 -103.371 91.6394 -82.9451 -106.41 91.7024 -83.7126 -102.61 91.548 
-82.1554 -109.486 91.4203 -83.7465 -105.339 91.6282 -84.5266 -101.401 91.4072 
-83.0209 -108.818 91.4366 -82.2478 -111.155 90.9333 -84.5149 -103.511 91.5832 
-85.4929 -99.9015 91.3107 -83.707 -107.267 91.3964 -83.0747 -109.927 91.0001 
-82.4449 -111.737 90.4358 -85.6075 -101.323 91.5535 -86.6362 -98.3998 91.068 
-84.5243 -104.818 91.3965 -83.8425 -108.047 90.9245 -83.3927 -110.262 90.5671 
-82.9155 -111.792 89.9624 -86.8016 -99.5245 91.2499 -87.5829 -97.0363 90.4808 
-85.7043 -102.276 91.3949 -84.8189 -105.296 90.9123 -84.3671 -108.131 90.4414 
-83.9919 -110.103 90.1215 -83.604 -111.207 89.4562 -87.6933 -97.9866 90.5183 
-88.2687 -95.5608 89.6747 -86.802 -100.425 91.0345 -85.8562 -102.724 90.9347 
-85.2115 -105.157 90.4436 -84.8163 -107.497 90.0353 -84.5184 -109.062 89.6371 
-84.3467 -109.834 88.9717 -88.4914 -96.1326 89.5574 -88.964 -93.9633 88.8281 
-87.776 -98.5815 90.2005 -86.8968 -100.761 90.5445 -86.0896 -102.575 90.4314 
-85.4777 -104.435 90.0205 -85.1267 -106.199 89.6164 -85.0692 -107.407 89.1743 
-85.1398 -108.018 88.5936 -89.3572 -94.2048 88.5948 -89.7055 -92.587 87.9951 
-88.8095 -96.3166 89.1825 -88.0776 -98.5841 89.7043 -87.3065 -100.465 90.0002 
[...]
CELL_DATA 2000
SCALARS Distance double
LOOKUP_TABLE default
137.827 138.009 138.262 139.043 138.315 138.53 139.363 139.622 140.478 
138.649 138.875 139.694 139.967 140.826 141.078 141.893 138.854 139.168 
139.986 140.286 141.142 141.41 142.244 142.475 143.293 139.096 139.396 
140.336 140.612 141.551 141.782 142.704 142.898 143.805 143.969 144.849 
139.743 139.877 140.979 141.139 142.197 142.333 143.336 143.476 144.449 
144.584 145.504 145.605 146.453 140.646 140.706 141.78 141.919 142.971 
143.089 144.06 144.17 145.092 145.23 146.109 146.247 147.071 147.175 
147.951 141.384 141.47 142.305 142.554 143.461 143.739 144.638 144.841 
145.707 145.848 146.694 146.817 147.648 147.762 148.573 148.658 149.436 
141.978 141.991 142.604 142.832 143.615 143.995 144.901 145.267 146.202 
146.439 147.359 147.473 148.383 148.435 149.334 149.358 150.222 150.216 
151.02 137.185 136.305 136.916 137.305 135.384 136.051 136.457 137.101 
137.59 134.328 135.095 135.609 136.304 136.809 137.451 137.949 133.369 
134.042 134.63 135.43 136.021 136.705 137.144 137.746 138.132 132.865 
133.242 133.734 134.449 135.098 135.871 136.337 136.926 137.197 137.8 
138.223 132.718 132.895 133.218 133.679 134.262 134.968 135.538 136.135 
136.457 136.93 137.314 138.004 138.744 132.708 132.796 133.059 133.303 
133.784 134.282 134.918 135.468 135.99 136.381 136.859 137.319 138.072 
138.808 139.747 132.982 132.917 133.231 133.285 133.734 133.99 134.616 
135.045 135.724 136.118 136.753 137.102 137.859 138.37 139.289 139.932 
140.745 133.643 133.418 133.77 133.647 134.082 134.115 134.683 134.928 
135.632 135.998 136.728 137.088 137.836 138.258 139.104 139.625 140.449 
140.927 141.553 134.231 135.193 134.568 134.332 136.233 135.562 135.321 
134.717 134.59 137.479 136.7 136.476 135.769 135.644 135.07 135.13 
138.885 138.074 137.883 137.064 136.971 136.258 136.336 135.782 136.039 
140.204 139.486 139.349 138.557 138.483 137.717 137.78 137.113 137.324 
136.804 137.126 141.515 140.812 140.749 140.004 139.954 139.225 139.246 
138.567 138.688 138.112 138.371 137.905 138.255 142.954 142.233 142.252 
141.471 141.479 140.707 140.754 140.021 140.135 139.48 139.734 139.201 
139.596 139.116 139.544 144.317 143.695 143.761 143.039 143.104 142.326 
142.441 141.641 141.833 141.06 141.381 140.71 141.158 140.578 141.034 
140.479 140.864 145.481 144.971 145.064 144.477 144.578 143.928 144.083 
143.375 143.594 142.852 143.165 142.467 142.878 142.241 142.634 142.007 
142.283 141.694 141.906 142.536 143.05 143.091 143.791 143.55 143.69 
144.469 144.529 145.476 143.87 144.148 144.975 145.156 146.083 146.343 
147.477 144.147 144.44 145.283 145.54 146.46 146.822 147.966 148.36 
149.485 144.528 144.768 145.624 145.845 146.774 147.132 148.332 148.804 
150.039 150.326 151.357 144.948 145.174 146.044 146.253 147.169 147.468 
148.625 149.131 150.435 150.871 151.986 152.186 153.217 145.351 145.565 
146.427 146.679 147.583 147.863 148.881 149.345 150.548 151.133 152.296 
152.714 153.733 154.037 155.133 145.765 145.95 146.779 147.043 147.937 
148.225 149.148 149.524 150.572 151.133 152.28 152.858 153.926 154.382 
155.408 155.855 156.945 146.151 146.341 147.139 147.392 148.255 148.536 
149.397 149.72 150.657 151.133 152.226 152.813 153.915 154.451 155.461 
155.963 156.97 157.506 158.52 142.538 143.736 143.039 143.093 145.526 
144.524 144.537 143.803 144.098 147.692 146.609 146.669 145.599 145.809 
145.043 145.467 149.703 148.794 148.918 147.876 148.013 147.016 147.317 
146.533 146.903 151.538 150.725 150.929 150.031 150.196 149.219 149.433 
148.527 148.827 147.986 148.204 153.561 152.71 153.156 152.187 152.547 
151.452 151.703 150.66 150.949 150.02 150.255 149.28 149.344 155.701 
154.948 155.674 154.732 155.335 154.116 154.437 153.117 153.359 152.232 
152.5 151.451 151.545 150.414 150.352 157.605 157.083 157.89 157.233 
157.909 156.951 157.287 155.99 156.106 154.793 154.963 153.796 153.918 
152.716 152.625 151.393 151.24 159.191 158.837 159.59 159.164 159.776 
159.176 159.514 158.581 158.654 157.473 157.51 156.312 156.369 155.143 
155.042 153.728 153.481 152.225 152.012 160.276 162.015 161.005 160.674 
163.609 162.715 162.315 161.285 160.812 164.767 164.212 163.921 162.917 
162.325 161.252 160.552 165.226 165.138 165.091 164.427 163.835 162.738 
161.87 160.76 159.792 165.031 165.272 165.295 165.201 164.682 163.981 
162.997 161.986 160.913 159.831 158.728 164.474 164.814 164.722 164.962 
164.479 164.293 163.328 162.735 161.616 160.806 159.682 158.686 157.526 
163.737 164.1 163.931 164.212 163.759 163.786 162.946 162.675 161.652 
161.186 160.104 159.41 158.204 157.314 156.059 162.812 163.237 163.021 
163.35 162.896 163.023 162.265 162.163 161.231 160.99 159.983 159.561 
158.385 157.72 156.402 155.629 154.367 161.68 162.166 161.855 162.283 
161.763 162.045 161.272 161.366 160.425 160.394 159.388 159.217 158.088 
157.675 156.396 155.787 154.521 153.873 152.775 160.254 160.657 161.047 
162.078 160.747 161.386 162.542 162.845 163.675 160.449 161.304 162.509 
163.109 163.898 164.161 164.648 159.88 160.787 161.901 162.769 163.543 
164.072 164.443 164.755 164.962 159.292 160.082 160.967 161.879 162.622 
163.418 163.873 164.368 164.569 164.85 164.874 158.706 159.437 160.139 
160.878 161.464 162.295 162.811 163.592 163.925 164.406 164.451 164.637 
164.455 157.871 158.709 159.369 160.067 160.508 161.165 161.515 162.33 
162.646 163.46 163.544 164.054 163.846 164.06 163.716 156.785 157.681 
158.304 159.153 159.587 160.243 160.455 161.068 161.196 161.959 162.018 
162.789 162.656 163.203 162.891 163.19 162.783 155.741 156.514 157.025 
157.918 158.369 159.188 159.455 160.064 160.137 160.654 160.647 161.247 
161.204 161.842 161.69 162.193 161.884 162.177 161.717 146.566 147.567 
147.25 147.633 148.618 148.336 148.79 148.404 148.772 149.613 149.399 
149.901 149.573 149.955 149.54 149.883 150.579 150.389 150.963 150.688 
151.148 150.742 151.159 150.714 151.166 151.61 151.395 152.066 151.824 
152.446 152.045 152.612 152.131 152.733 152.211 152.796 152.666 152.457 
153.17 152.994 153.75 153.444 154.115 153.684 154.337 153.866 154.493 
153.944 154.477 153.639 153.488 154.211 154.102 154.917 154.743 155.46 
155.139 155.742 155.371 155.949 155.541 156.064 155.549 155.998 154.48 
154.416 155.189 155.134 156.005 155.897 156.689 156.428 157.068 156.704 
157.307 156.923 157.54 157.089 157.652 157.075 157.547 155.173 155.212 
156.05 156.091 157.016 156.984 157.835 157.648 158.373 158.054 158.771 
158.389 159.161 158.696 159.429 158.835 159.427 158.713 159.152 146.126 
145.734 146.283 147.04 145.447 145.923 146.659 147.227 148.036 145.324 
145.738 146.475 146.92 147.686 148.235 149.03 145.144 145.624 146.373 
146.809 147.556 147.989 148.747 149.24 150.012 144.818 145.352 146.087 
146.629 147.393 147.884 148.643 149.074 149.834 150.28 151.062 144.571 
145.037 145.776 146.292 147.075 147.635 148.435 148.952 149.727 150.179 
150.945 151.381 152.139 144.426 144.858 145.605 146.057 146.844 147.345 
148.163 148.692 149.48 149.997 150.746 151.242 151.959 152.419 153.097 
144.207 144.669 145.355 145.86 146.61 147.143 147.948 148.466 149.24 
149.724 150.438 150.943 151.631 152.152 152.797 153.282 153.888 143.928 
144.367 144.968 145.495 146.179 146.79 147.567 148.192 148.972 149.501 
150.196 150.649 151.305 151.782 152.427 152.92 153.508 153.99 154.544 
143.973 144.418 144.438 144.993 144.978 144.967 145.542 145.548 146.207 
145.529 145.565 146.196 146.184 146.865 146.882 147.63 146.107 146.124 
146.817 146.853 147.573 147.597 148.378 148.393 149.11 146.892 146.801 
147.516 147.516 148.309 148.331 149.162 149.185 149.954 149.864 150.421 
147.729 147.662 148.408 148.353 149.217 149.174 150.078 150.044 150.883 
150.771 151.391 151.132 151.563 148.39 148.453 149.282 149.304 150.226 
150.193 151.117 151.044 151.885 151.758 152.412 152.157 152.607 152.271 
152.657 149 149.107 150.027 150.14 151.109 151.172 152.062 152.038 
152.768 152.688 153.261 153.113 153.537 153.285 153.629 153.336 153.693 
149.702 149.79 150.741 150.873 151.842 151.965 152.804 152.837 153.44 
153.394 153.826 153.774 154.143 154.054 154.389 154.215 154.553 154.324 
154.692 150.416 151.847 151.253 151.491 153.163 152.677 152.95 152.358 
152.577 154.237 153.885 154.164 153.714 153.894 153.349 153.453 155.203 
154.887 155.168 154.796 154.94 154.488 154.489 153.999 153.953 156.28 
155.916 156.271 155.838 156.044 155.518 155.515 154.938 154.821 154.325 
154.245 157.491 157.11 157.562 157.086 157.423 156.813 156.943 156.172 
156.088 155.314 155.198 154.625 154.575 158.727 158.378 158.85 158.414 
158.764 158.248 158.471 157.776 157.786 156.87 156.72 155.822 155.689 
155.017 154.918 159.913 159.609 160.05 159.639 159.885 159.445 159.596 
159.138 159.203 158.547 158.436 157.524 157.298 156.361 156.152 155.382 
155.19 160.992 160.746 161.179 160.788 160.991 160.498 160.56 160.098 
160.141 159.705 159.693 159.08 158.914 158.043 157.765 156.81 156.519 
155.669 155.4 150.042 149.908 150.464 151.431 149.73 150.304 151.267 
151.84 152.741 149.546 150.114 151.067 151.647 152.55 153.072 153.845 
149.319 149.914 150.845 151.43 152.309 152.85 153.635 154.109 154.817 
148.939 149.599 150.477 151.128 151.959 152.555 153.335 153.875 154.627 
155.096 155.845 148.461 149.117 149.928 150.628 151.434 152.114 152.919 
153.544 154.348 154.892 155.689 156.173 156.988 148.064 148.632 149.393 
150.034 150.83 151.531 152.387 153.096 153.973 154.6 155.431 155.976 
156.803 157.331 158.182 147.767 148.268 148.98 149.537 150.285 150.937 
151.781 152.53 153.437 154.17 155.024 155.657 156.465 157.066 157.922 
158.51 159.36 147.475 147.957 148.607 149.128 149.801 150.402 151.164 
151.891 152.754 153.55 154.408 155.149 155.951 156.635 157.471 158.158 
159.044 159.659 160.46 149.112 147.76 148.606 148.98 146.595 147.312 
147.658 148.48 148.834 145.594 146.215 146.515 147.241 147.562 148.333 
148.661 144.517 145.163 145.396 146.127 146.413 147.122 147.372 148.139 
148.429 143.278 143.961 144.118 144.908 145.182 145.957 146.169 146.875 
147.063 147.85 148.08 141.997 142.668 142.771 143.539 143.777 144.63 
144.876 145.64 145.782 146.498 146.655 147.45 147.652 140.729 141.391 
141.466 142.175 142.324 143.158 143.384 144.249 144.414 145.183 145.298 
146.054 146.243 147.047 147.287 139.509 140.142 140.219 140.881 140.96 
141.693 141.816 142.672 142.835 143.712 143.86 144.677 144.861 145.671 
145.934 146.747 147.022 138.404 138.972 139.072 139.686 139.776 140.387 
140.441 141.136 141.255 142.097 142.311 143.197 143.453 144.299 144.588 
145.413 145.721 146.517 146.78 137.831 137.129 137.83 138.504 136.323 
137.118 137.884 138.569 139.226 135.633 136.34 137.185 137.933 138.644 
139.252 139.856 135.461 135.848 136.667 137.296 138.09 138.69 139.35 
139.908 140.611 135.798 135.923 136.618 136.975 137.77 138.257 139.029 
139.521 140.308 140.84 141.698 136.254 136.335 136.951 137.109 137.815 
138.12 138.921 139.344 140.219 140.691 141.601 142.076 142.944 136.641 
136.753 137.381 137.498 138.166 138.326 139.086 139.376 140.267 140.688 
141.634 142.075 142.965 143.358 144.156 137.023 137.126 137.764 137.907 
138.603 138.745 139.5 139.681 140.543 140.838 141.783 142.159 143.07 
143.435 144.252 144.579 145.318 137.483 137.537 138.162 138.287 138.989 
139.162 139.931 140.127 140.964 141.199 142.094 142.384 143.27 143.581 
144.391 144.698 145.429 145.724 146.389 138.005 139.194 138.592 138.695 
140.609 139.904 139.957 139.351 139.52 142.06 141.375 141.439 140.725 
140.857 140.258 140.496 143.496 142.845 142.998 142.276 142.41 141.703 
141.926 141.317 141.59 145.011 144.335 144.547 143.861 144.034 143.304 
143.484 142.813 143.074 142.46 142.73 146.581 145.896 146.098 145.425 
145.625 144.919 145.07 144.364 144.556 143.936 144.192 143.599 143.85 
148.107 147.458 147.666 146.99 147.204 146.511 146.688 145.952 146.096 
145.404 145.604 145.01 145.249 144.681 144.911 149.602 148.979 149.223 
148.558 148.781 148.102 148.316 147.595 147.753 146.99 147.124 146.43 
146.614 146.027 146.243 145.695 145.907 151.148 150.509 150.775 150.113 
150.324 149.657 149.854 149.192 149.366 148.648 148.75 147.989 148.075 
147.395 147.544 146.979 147.171 146.648 146.835 147.5 147.847 147.988 
148.613 148.254 148.365 149.037 149.145 149.812 148.862 148.891 149.63 
149.664 150.41 150.449 151.201 149.593 149.619 150.43 150.411 151.227 
151.191 152.014 151.985 152.811 150.21 150.335 151.181 151.25 152.117 
152.112 152.972 152.91 153.752 153.682 154.483 150.716 150.897 151.786 
151.944 152.873 152.976 153.901 153.9 154.773 154.686 155.501 155.368 
156.095 151.254 151.449 152.459 152.615 153.684 153.785 154.851 154.864 
155.866 155.774 156.691 156.504 157.321 157.045 157.738 151.774 152.042 
153.19 153.413 154.655 154.772 155.998 155.977 157.117 156.991 158.043 
157.833 158.772 158.445 159.225 158.792 159.412 152.194 152.554 153.782 
154.151 155.497 155.781 157.09 157.192 158.359 158.304 159.366 159.229 
160.196 159.948 160.742 160.344 160.935 160.436 160.868 133.463 132.784 
133.04 133.014 132.529 132.54 132.433 132.651 132.705 132.543 132.444 
132.268 132.247 132.19 132.43 132.648 132.609 132.465 132.276 132.178 
132.058 132.091 132.269 132.586 133.093 132.999 132.618 132.448 132.251 
132.213 132.118 132.316 132.435 132.98 133.32 134.027 133.943 133.288 
133.142 132.683 132.762 132.488 132.738 132.66 133.132 133.333 133.997 
134.351 135.007 135.09 134.417 134.303 133.683 133.777 133.315 133.535 
133.232 133.508 133.486 133.931 134.241 134.817 135.229 135.779 136.095 
135.547 135.481 134.91 134.967 134.456 134.59 134.133 134.234 133.913 
134.122 134.162 134.639 134.984 135.581 135.963 136.51 136.99 136.51 
136.49 136.009 136.058 135.587 135.671 135.187 135.232 134.737 134.841 
134.546 134.951 135.005 135.669 135.901 136.566 136.793 137.357 133.96 
133.517 134.04 134.695 133.203 133.652 134.321 134.841 135.529 133.171 
133.45 134.123 134.545 135.26 135.725 136.445 133.597 133.613 134.281 
134.511 135.255 135.581 136.332 136.732 137.502 134.43 134.228 134.797 
134.834 135.564 135.755 136.524 136.776 137.547 137.874 138.627 135.368 
135.115 135.542 135.426 136.033 136.135 136.863 137.062 137.802 138.035 
138.773 139.039 139.753 136.184 135.996 136.405 136.204 136.702 136.647 
137.284 137.399 138.095 138.299 139.012 139.253 139.979 140.213 140.919 
136.905 136.763 137.232 137.062 137.555 137.396 137.967 137.91 138.568 
138.639 139.348 139.518 140.25 140.47 141.18 141.395 142.053 137.663 
137.495 137.969 137.848 138.349 138.226 138.756 138.657 139.266 139.235 
139.922 139.965 140.677 140.791 141.476 141.645 142.267 142.46 143.016 
134.441 135.166 134.992 135.407 135.978 135.761 136.16 135.98 136.437 
136.904 136.632 137.053 136.798 137.274 137.093 137.669 137.962 137.651 
138.127 137.801 138.287 138.016 138.591 138.425 139.047 139.023 138.73 
139.229 138.937 139.423 139.1 139.591 139.353 139.901 139.759 140.316 
140.07 139.752 140.209 139.979 140.484 140.22 140.67 140.364 140.809 
140.583 141.104 140.977 141.568 141.212 140.823 141.236 140.939 141.449 
141.223 141.743 141.454 141.909 141.57 142.057 141.817 142.423 142.302 
142.968 142.361 141.996 142.411 142.04 142.517 142.221 142.773 142.522 
143.066 142.743 143.237 142.89 143.429 143.203 143.824 143.711 144.318 
143.329 143.081 143.519 143.215 143.659 143.333 143.812 143.548 144.088 
143.858 144.381 144.082 144.546 144.239 144.726 144.536 145.068 144.964 
145.473 148.903 148.214 148.205 147.568 147.695 147.624 147.018 146.971 
146.447 147.16 147.188 146.7 146.6 146.098 145.992 145.519 146.36 
146.561 146.191 146.302 145.871 145.767 145.214 145.072 144.501 145.51 
145.672 145.273 145.592 145.208 145.377 144.756 144.697 143.952 143.899 
143.233 144.895 144.893 144.379 144.597 144.173 144.466 143.835 143.956 
143.102 143.158 142.373 142.502 141.876 144.384 144.337 143.756 143.799 
143.296 143.452 142.847 142.938 142.122 142.165 141.373 141.525 140.899 
141.121 140.58 143.866 143.821 143.224 143.206 142.625 142.671 142.055 
142.075 141.342 141.299 140.571 140.602 140.021 140.166 139.662 139.854 
139.369 143.426 143.338 142.736 142.667 142.03 142.006 141.338 141.341 
140.637 140.618 139.934 139.931 139.363 139.421 138.938 139.033 138.566 
138.71 138.282 
POINT_DATA 1002
SCALARS Distance double
LOOKUP_TABLE default
138.507 137.451 137.526 138.756 137.747 139.869 139.09 138.112 140.245 
141.324 139.427 138.41 140.569 141.668 142.691 139.67 138.485 140.865 
141.997 143.069 144.123 140.035 138.77 141.306 142.487 143.632 144.72 
145.708 140.827 139.635 142.08 143.211 144.314 145.405 146.393 147.262 
141.66 140.646 142.859 143.983 144.992 145.977 146.949 147.874 148.723 
142.109 141.401 143.152 144.381 145.553 146.581 147.53 148.469 149.382 
150.209 142.468 142.069 143.242 144.457 145.87 147.186 148.313 149.311 
150.228 151.062 151.795 136.58 136.644 135.696 135.817 134.642 136.915 
134.83 133.514 136.186 137.33 133.786 132.812 135.278 136.604 137.503 
133.136 132.653 134.287 135.737 136.676 137.416 132.902 132.603 133.62 
134.886 135.999 136.701 137.827 132.89 132.637 133.391 134.348 135.528 
136.449 137.43 138.962 133.23 133.085 133.579 134.237 135.268 136.382 
137.431 138.719 140.189 133.948 133.904 134.139 134.533 135.283 136.35 
137.455 138.626 139.97 141.192 134.846 134.913 135.823 135.952 136.926 
135.102 137.223 138.292 136.255 135.578 138.711 139.657 137.719 136.944 
136.489 140.095 140.864 139.244 138.491 137.91 137.577 141.48 142.203 
140.677 139.945 139.306 138.853 138.686 143.02 143.64 142.261 141.504 
140.816 140.287 140.068 140.039 144.428 144.887 143.84 143.216 142.607 
142.081 141.779 141.633 141.433 145.602 145.958 145.167 144.732 144.305 
143.873 143.547 143.314 142.958 142.461 143.081 143.736 144.559 144.381 
145.294 146.577 144.754 145.796 147.162 148.694 145.025 146.077 147.513 
149.227 150.538 145.412 146.44 147.811 149.677 151.219 152.323 145.811 
146.914 148.158 149.912 151.726 153.025 154.314 146.157 147.319 148.522 
149.971 151.769 153.401 154.781 156.313 146.528 147.657 148.841 150.086 
151.666 153.414 154.972 156.478 158.05 146.896 147.995 149.116 150.239 
151.653 153.367 154.974 156.445 157.996 159.522 143.571 145.445 144.599 
147.809 146.756 146.077 149.881 149.067 148.22 147.657 151.761 151.151 
150.374 149.709 149.118 154.058 153.661 152.838 151.902 151.239 150.413 
156.484 156.493 155.864 154.622 153.561 152.706 151.523 158.461 158.734 
158.51 157.501 156.209 155.132 153.926 152.434 160.011 160.308 160.295 
159.746 158.726 157.611 156.381 154.831 153.185 161.303 161.712 163.041 
163.402 164.391 161.844 164.854 165.063 163.517 161.627 165.506 165.117 
164.919 163.081 160.917 165.199 164.784 165.182 163.951 161.972 159.863 
164.464 164.181 164.505 163.751 162.294 160.597 158.601 163.663 163.373 
163.673 163.105 161.994 160.684 159.049 156.975 162.684 162.385 162.724 
162.3 161.405 160.313 158.97 157.15 155.091 161.437 161.224 161.453 
161.125 160.409 159.482 158.387 156.918 155.128 153.349 159.948 161.902 
160.136 162.133 159.99 163.604 161.806 159.569 163.604 164.496 161.003 
159.085 162.91 164.126 164.714 160.174 158.63 161.741 163.229 164.271 
164.728 159.519 157.977 160.737 161.932 163.286 164.225 164.406 158.641 
157.003 159.957 160.842 161.786 162.878 163.538 163.602 157.407 155.953 
158.872 159.942 160.589 161.225 161.961 162.479 162.602 156.189 155.085 
157.485 158.76 159.673 160.16 160.567 161.094 161.507 161.552 146.847 
148.01 147.848 149.154 148.855 149.21 150.191 149.795 150.362 150.301 
151.186 150.762 151.518 151.572 151.612 152.244 151.83 152.775 153.054 
153.22 153.377 153.304 152.87 153.971 154.513 154.787 155.011 155.099 
154.297 153.757 155.038 155.752 156.124 156.322 156.52 156.582 155.202 
154.488 156.075 156.908 157.415 157.673 157.937 158.174 158.208 145.576 
146.429 145.201 146.144 144.999 147.409 146.076 144.899 147.21 148.444 
145.901 144.636 147.147 148.317 149.486 145.522 144.3 146.843 148.195 
149.424 150.598 145.293 144.123 146.515 147.871 149.243 150.52 151.722 
145.16 143.996 146.366 147.655 148.968 150.234 151.491 152.671 144.852 
143.775 146.057 147.412 148.781 149.976 151.109 152.3 153.424 144.478 