# vtk DataFile Version 4.0
vtk output
ASCII
DATASET POLYDATA
POINTS 1002 float
-117.762 -101.537 70.5713 -113.296 -93.792 69.9445 -112.387 -104.675 72.2273 
-107.695 -97.6131 71.4483 -113.586 -99.2889 66.472 -109.178 -101.96 65.9449 
-114.614 -98.2188 75.5738 -112.108 -99.6728 76.737 -107.834 -93.674 67.7364 
-116.346 -107.89 67.896 -109.373 -92.9495 74.1744 -117.288 -106.132 75.0928 
-117.623 -100.633 70.5215 -117.351 -99.7359 70.4397 -117.001 -98.8726 70.3219 
-116.68 -98.0153 70.2009 -116.127 -97.3146 70.1451 -115.213 -96.8173 70.1426 
-114.443 -96.1512 70.0783 -114.091 -95.1616 69.9529 -113.801 -94.2609 69.894 
-117.769 -101.267 70.0094 -117.592 -101.009 69.5061 -117.224 -100.834 69.0451 
-116.831 -100.653 68.5299 -116.431 -100.438 68.0459 -115.881 -100.319 67.7207 
-115.226 -100.228 67.4255 -114.614 -99.9685 67.0566 -114.082 -99.5945 66.718 
-117.695 -101.13 71.1437 -117.715 -100.544 71.7437 -117.588 -100.058 72.3113 
-117.108 -99.9028 72.8123 -116.477 -99.8703 73.2487 -115.946 -99.6943 73.6721 
-115.491 -99.4031 74.1461 -115.113 -99.0499 74.6663 -114.849 -98.636 75.1611 
-117.967 -102.246 70.2728 -118.229 -102.972 70.0323 -118.339 -103.788 69.8322 
-118.253 -104.664 69.5388 -118.153 -105.532 69.1396 -118.031 -106.349 68.8456 
-117.729 -107.026 68.6719 -117.285 -107.511 68.4063 -116.814 -107.807 68.0774 
-117.782 -102.233 70.9461 -117.846 -102.895 71.3218 -117.975 -103.543 71.7439 
-118.025 -104.254 72.1776 -117.904 -104.9 72.5697 -117.746 -105.339 73.1398 
-117.715 -105.656 73.944 -117.742 -105.921 74.595 -117.624 -106.086 74.9143 
-113.419 -94.0015 69.5086 -113.579 -94.2242 68.9362 -113.71 -94.5588 68.2126 
-113.778 -95.1417 67.6779 -113.811 -95.9166 67.4814 -113.826 -96.6697 67.2247 
-113.805 -97.3266 66.8305 -113.743 -97.9918 66.6265 -113.66 -98.6841 66.5828 
-113.525 -93.9043 70.3752 -113.645 -94.3219 70.9654 -113.748 -94.7911 71.6589 
-113.936 -95.1473 72.3342 -114.09 -95.6566 72.9633 -114.137 -96.3297 73.6138 
-114.293 -96.7944 74.2853 -114.578 -97.1125 74.8703 -114.713 -97.5931 75.291 
-112.608 -93.8208 69.7785 -111.798 -93.8251 69.5302 -111.271 -93.2202 69.0736 
-111.142 -92.3054 68.5046 -110.894 -91.908 68.0805 -110.126 -91.8694 67.7925 
-109.203 -91.8377 67.5207 -108.587 -92.1983 67.4213 -108.213 -92.976 67.5669 
-112.842 -93.5163 70.2976 -112.394 -93.2335 70.7346 -111.971 -92.9002 71.1952 
-111.654 -92.3922 71.6434 -111.531 -91.782 72.2147 -111.339 -91.5207 72.8974 
-110.798 -91.776 73.36 -110.144 -92.2191 73.5429 -109.679 -92.6155 73.766 
-112.097 -103.952 72.0776 -111.769 -103.157 71.9429 -111.227 -102.417 71.9119 
-110.515 -101.751 71.9125 -109.838 -101.117 71.8803 -109.174 -100.492 71.9274 
-108.485 -99.8364 71.993 -108.022 -99.1019 71.8568 -107.849 -98.3164 71.5924 
-112.025 -104.671 71.8517 -111.74 -104.485 71.3364 -111.621 -104.157 70.6633 
-111.528 -103.744 69.9424 -111.269 -103.244 69.3026 -110.855 -102.856 68.6637 
-110.303 -102.739 67.8944 -109.695 -102.647 67.106 -109.288 -102.359 66.4612 
-112.547 -104.169 72.4722 -112.676 -103.632 72.7974 -112.738 -103.101 73.2429 
-112.676 -102.603 73.731 -112.399 -102.235 74.3863 -112.047 -101.959 75.2285 
-111.953 -101.502 75.7928 -112.118 -100.782 75.976 -112.22 -100.094 76.2397 
-112.582 -105.319 72.0549 -113.024 -105.744 71.6532 -113.645 -105.904 71.1283 
-114.202 -106.142 70.6336 -114.567 -106.7 70.0963 -114.81 -107.271 69.5115 
-115.061 -107.614 69.0488 -115.422 -107.845 68.6572 -115.89 -107.972 68.2349 
-112.852 -104.983 72.505 -113.408 -105.246 72.7707 -114.115 -105.514 73.0106 
-114.891 -105.766 73.285 -115.357 -106.135 73.7474 -115.454 -106.724 74.4207 
-115.672 -107.091 74.9815 -116.222 -106.894 75.1402 -116.831 -106.469 75.0711 
-107.665 -97.9926 70.9591 -107.444 -98.5559 70.575 -107.112 -99.2131 70.3045 
-107.107 -99.7132 69.8905 -107.622 -99.9414 69.2002 -108.243 -100.177 68.476 
-108.609 -100.725 67.8153 -108.782 -101.403 67.1021 -108.936 -101.829 66.425 
-107.862 -97.7449 72.0023 -108.221 -97.9321 72.5516 -108.661 -98.1649 73.1093 
-108.875 -98.5529 73.8327 -109.082 -98.9966 74.66 -109.717 -99.1507 75.2126 
-110.558 -99.0475 75.4302 -111.222 -99.0684 75.7146 -111.707 -99.3293 76.2304 
-107.385 -97.2323 71.147 -106.904 -96.8907 70.8248 -106.358 -96.4667 70.3254 
-105.892 -95.9727 69.8688 -105.709 -95.463 69.6668 -105.93 -94.845 69.3061 
-106.349 -94.2268 68.6196 -106.774 -93.8968 68.0975 -107.268 -93.8004 67.8955 
-107.469 -97.0943 71.811 -107.098 -96.7344 72.3321 -106.758 -96.4025 72.878 
-106.683 -95.7496 73.2863 -106.952 -94.8202 73.5303 -107.48 -94.1421 73.6537 
-108.079 -93.8225 73.7514 -108.57 -93.5145 73.9225 -108.96 -93.1664 74.1036 
-113.223 -99.4656 66.1527 -112.827 -99.6409 65.6603 -112.442 -99.801 65.0977 
-112.091 -99.9914 64.654 -111.62 -100.394 64.3997 -110.917 -100.994 64.3097 
-110.206 -101.44 64.4556 -109.716 -101.612 64.8672 -109.402 -101.748 65.406 
-113.052 -98.7491 66.3858 -112.396 -98.2229 66.2784 -111.812 -97.6615 66.145 
-111.308 -97.0702 66.214 -110.556 -96.3984 66.5136 -109.663 -95.6017 66.7014 
-109.125 -94.8573 66.7901 -108.825 -94.3313 67.0711 -108.372 -93.9624 67.4565 
-113.819 -100 66.4694 -114.127 -100.797 66.5786 -114.667 -101.687 66.653 
-115.309 -102.583 66.5673 -115.669 -103.406 66.7631 -115.826 -104.28 67.3453 
-116.134 -105.374 67.5871 -116.45 -106.524 67.4285 -116.501 -107.396 67.4937 
-109.053 -101.449 65.7326 -108.924 -100.787 65.6793 -108.722 -99.9815 65.9618 
-108.567 -99.0813 66.5583 -108.342 -98.1303 67.0775 -107.901 -97.0476 67.2479 
-107.562 -95.9103 67.2814 -107.557 -95.0074 67.4347 -107.703 -94.3378 67.6396 
-109.648 -102.224 65.9615 -110.426 -102.51 66.1547 -111.314 -102.998 66.4882 
-112.131 -103.798 66.778 -112.924 -104.798 66.8152 -113.759 -105.702 66.7903 
-114.604 -106.384 66.992 -115.373 -106.981 67.3022 -115.952 -107.527 67.5785 
-114.308 -98.3798 75.945 -114.042 -98.5118 76.3899 -114.012 -98.5395 76.9946 
-114.092 -98.5243 77.6402 -113.824 -98.6876 78.0573 -113.106 -99.1354 78.1412 
-112.453 -99.6064 78.0089 -112.209 -99.7919 77.7383 -112.178 -99.7385 77.3024 
-114.39 -97.4212 75.7894 -113.94 -96.7251 75.9019 -113.309 -96.1935 75.8121 
-112.72 -95.6027 75.7063 -112.233 -94.7468 75.8308 -111.743 -93.8572 75.9259 
-111.197 -93.32 75.6378 -110.571 -93.1353 75.1278 -109.917 -93.0499 74.6405 
-114.63 -99.0864 75.5996 -114.851 -99.817 75.6683 -115.296 -100.48 75.7656 
-115.71 -101.239 75.8667 -116.121 -101.887 75.9665 -116.713 -102.496 76.0827 
-117.233 -103.539 76.1536 -117.433 -104.765 75.9785 -117.415 -105.606 75.5337 
-111.676 -99.1635 76.9426 -111.328 -98.5646 76.8381 -110.989 -97.835 76.6108 
-110.461 -97.0585 76.6282 -109.926 -96.1837 76.5168 -109.618 -95.0848 76.0512 
-109.424 -94.0384 75.8016 -109.316 -93.4501 75.6439 -109.34 -93.2176 75.0208 
-112.62 -100.202 76.7594 -113.126 -100.747 76.7777 -113.517 -101.415 76.9459 
-113.825 -102.247 77.0471 -114.306 -103.045 76.8238 -115.021 -103.743 76.5248 
-115.719 -104.495 76.3086 -116.317 -105.232 75.9671 -116.869 -105.771 75.509 
-107.689 -93.124 67.9151 -107.745 -92.7351 68.2932 -107.895 -92.517 68.9927 
-108.011 -92.3351 69.8386 -108.083 -92.1124 70.7494 -108.134 -91.8722 71.8048 
-108.291 -91.778 72.674 -108.645 -92.0418 73.1163 -109.049 -92.5456 73.5151 
-116.477 -108.202 68.4267 -116.784 -108.494 68.9387 -117.177 -108.82 69.6329 
-117.41 -108.989 70.7519 -117.491 -108.862 71.9627 -117.484 -108.582 72.8649 
-117.361 -108.158 73.5757 -117.277 -107.48 74.1859 -117.305 -106.725 74.6584 
-117.478 -100.408 69.9701 -117.129 -100.242 69.5214 -117.098 -99.5423 69.9646 
-116.633 -100.161 69.0908 -116.65 -99.4338 69.5699 -116.805 -98.5661 69.899 
-116.161 -100.015 68.6035 -116.07 -99.4153 69.1533 -116.309 -98.4764 69.493 
-116.437 -97.673 69.7671 -115.727 -99.7613 68.1324 -115.543 -99.281 68.6769 
-115.596 -98.5437 69.0996 -115.709 -97.7267 69.3729 -115.57 -97.1633 69.6954 
-115.265 -99.4957 67.6576 -115.173 -98.9317 68.0655 -115.06 -98.3704 68.5616 
-114.931 -97.7352 68.9598 -114.755 -97.1449 69.2805 -114.588 -96.6099 69.6464 
-114.768 -99.2114 67.1566 -114.856 -98.5072 67.3519 -114.82 -97.9045 67.759 
-114.607 -97.3149 68.2457 -114.308 -96.7268 68.6601 -114.147 -96.1254 69.0788 
-114.127 -95.5661 69.5204 -114.228 -98.9113 66.7793 -114.381 -98.173 66.8338 
-114.476 -97.4953 67.0872 -114.417 -96.8346 67.5052 -114.206 -96.1426 67.8686 
-114.025 -95.4731 68.2968 -113.962 -94.9108 68.8873 -113.908 -94.5134 69.4403 
-117.94 -101.986 69.7392 -117.977 -102.874 69.6002 -117.666 -101.769 69.2653 
-117.856 -103.823 69.4869 -117.544 -102.743 69.1711 -117.309 -101.542 68.7338 
-117.829 -104.601 69.1208 -117.47 -103.632 68.9484 -117.276 -102.415 68.5085 
-117.006 -101.253 68.1201 -117.92 -105.312 68.5634 -117.693 -104.279 68.3199 
-117.373 -103.187 68.0724 -117.027 -102.067 67.8132 -116.521 -101.106 67.6915 
-117.789 -106.104 68.1912 -117.81 -104.983 67.715 -117.535 -103.825 67.4606 
-117.019 -102.818 67.4276 -116.393 -101.97 67.4746 -115.754 -101.13 67.4899 
-117.387 -106.789 67.9879 -117.449 -105.735 67.5844 -117.27 -104.484 67.2763 
-116.853 -103.383 67.1271 -116.243 -102.591 67.2095 -115.541 -101.859 67.3039 
-114.972 -100.961 67.2287 -116.939 -107.209 67.731 -116.905 -106.245 67.5991 
-116.647 -105.023 67.5192 -116.357 -103.87 67.1884 -116.026 -102.985 66.9311 
-115.436 -102.237 66.9862 -114.776 -101.413 66.9883 -114.338 -100.494 66.8433 
-116 -106.911 67.2083 -115.289 -106.338 66.9635 -115.8 -105.888 67.2774 
-114.465 -105.728 66.727 -115.109 -105.313 66.948 -115.487 -104.752 67.2765 
-113.544 -104.83 66.6606 -114.29 -104.609 66.6203 -114.894 -104.228 66.6407 
-115.291 -103.836 66.6849 -112.55 -103.712 66.5769 -113.151 -103.539 66.4577 
-113.864 -103.382 66.2891 -114.491 -103.275 66.1254 -114.979 -102.985 66.2189 
-111.625 -102.869 66.1788 -112.027 -102.65 66.0354 -112.547 -102.392 66.0406 
-113.161 -102.315 66.0217 -113.807 -102.239 66.0507 -114.347 -101.947 66.2896 
-110.771 -102.408 65.7207 -111.211 -102.303 65.3847 -111.673 -101.972 65.3578 
-112.128 -101.554 65.5817 -112.652 -101.322 65.8071 -113.257 -101.126 66.008 
[...]
POINT_DATA 1002
FIELD FieldData 2
Theta 1 1002 float
2.58802 2.58802 0.553574 0.553574 2.12437 1.01722 2.12437 1.01722 1.5708 
1.5708 1.5708 1.5708 2.68241 2.78649 2.89924 3.01861 3.14159 3.01861 
2.89924 2.78649 2.68241 2.61035 2.61791 2.60515 2.56958 2.51327 2.44184 
2.36202 2.27983 2.1997 2.61035 2.61791 2.60515 2.56958 2.51327 2.44184 
2.36202 2.27983 2.1997 2.50947 2.41899 2.31794 2.20864 2.0944 1.97902 
1.86631 1.75944 1.66056 2.50947 2.41899 2.31794 2.20864 2.0944 1.97902 
1.86631 1.75944 1.66056 2.61035 2.61791 2.60515 2.56958 2.51327 2.44184 
2.36202 2.27983 2.1997 2.61035 2.61791 2.60515 2.56958 2.51327 2.44184 
2.36202 2.27983 2.1997 2.50947 2.41899 2.31794 2.20864 2.0944 1.97902 
1.86631 1.75944 1.66056 2.50947 2.41899 2.31794 2.20864 2.0944 1.97902 
1.86631 1.75944 1.66056 0.459179 0.355101 0.242354 0.122983 0 0.122983 
0.242354 0.355101 0.459179 0.531246 0.523681 0.536438 0.57201 0.628319 0.699757 
0.779574 0.86176 0.941896 0.531246 0.523681 0.536438 0.57201 0.628319 0.699757 
0.779574 0.86176 0.941896 0.632123 0.7226 0.823657 0.932948 1.0472 1.16257 
1.27528 1.38216 1.48103 0.632123 0.7226 0.823657 0.932948 1.0472 1.16257 
1.27528 1.38216 1.48103 0.531246 0.523681 0.536438 0.57201 0.628319 0.699757 
0.779574 0.86176 0.941896 0.531246 0.523681 0.536438 0.57201 0.628319 0.699757 
0.779574 0.86176 0.941896 0.632123 0.7226 0.823657 0.932948 1.0472 1.16257 
1.27528 1.38216 1.48103 0.632123 0.7226 0.823657 0.932948 1.0472 1.16257 
1.27528 1.38216 1.48103 2.02998 1.9259 1.81315 1.69378 1.5708 1.44781 
1.32844 1.2157 1.11162 2.0928 2.05283 2.00422 1.94767 1.88496 1.81867 
1.75177 1.68695 1.62623 2.0928 2.05283 2.00422 1.94767 1.88496 1.81867 
1.75177 1.68695 1.62623 1.0488 1.08876 1.13737 1.19392 1.25664 1.32292 
1.38982 1.45464 1.51537 1.0488 1.08876 1.13737 1.19392 1.25664 1.32292 
1.38982 1.45464 1.51537 2.02998 1.9259 1.81315 1.69378 1.5708 1.44781 
1.32844 1.2157 1.11162 2.0928 2.05283 2.00422 1.94767 1.88496 1.81867 
1.75177 1.68695 1.62623 2.0928 2.05283 2.00422 1.94767 1.88496 1.81867 
1.75177 1.68695 1.62623 1.0488 1.08876 1.13737 1.19392 1.25664 1.32292 
1.38982 1.45464 1.51537 1.0488 1.08876 1.13737 1.19392 1.25664 1.32292 
1.38982 1.45464 1.51537 1.5708 1.5708 1.5708 1.5708 1.5708 1.5708 
1.5708 1.5708 1.5708 1.5708 1.5708 1.5708 1.5708 1.5708 1.5708 
1.5708 1.5708 1.5708 2.70908 2.71362 2.81592 2.68886 2.81002 2.92597 
2.6349 2.76254 2.89233 3.01997 2.55881 2.68262 2.80854 2.92834 3.01997 
2.47007 2.58462 2.70048 2.80854 2.89233 2.92597 2.37702 2.48017 2.58462 
2.68262 2.76254 2.81002 2.81592 2.28567 2.37702 2.47007 2.55881 2.6349 
2.68886 2.71362 2.70908 2.52097 2.4195 2.51718 2.30791 2.40503 2.49426 
2.18928 2.28408 2.3734 2.45144 2.06758 2.15805 2.24572 2.32523 2.39165 
1.94707 2.03138 2.11543 2.19453 2.26401 2.32035 1.83164 1.90847 1.98711 
2.06376 2.13422 2.1949 2.24359 1.72413 1.79288 1.86489 1.93728 2.00658 
2.06938 2.12312 2.16654 1.5708 1.50988 1.63171 1.44492 1.5708 1.69667 
1.37826 1.5059 1.63569 1.76333 1.31281 1.43962 1.5708 1.70197 1.82878 
1.25155 1.37501 1.50478 1.63681 1.76659 1.89004 1.19686 1.31493 1.44074 
1.5708 1.70086 1.82666 1.94473 1.15011 1.26149 1.38136 1.50697 1.63462 
1.76024 1.88011 1.99148 1.99148 1.88011 1.94473 1.76024 1.82666 1.89004 
1.63462 1.70086 1.76659 1.82878 1.50697 1.5708 1.63681 1.70197 1.76333 
1.38136 1.44074 1.50478 1.5708 1.63569 1.69667 1.26149 1.31493 1.37501 
1.43962 1.5059 1.5708 1.63171 1.15011 1.19686 1.25155 1.31281 1.37826 
1.44492 1.50988 1.5708 2.16654 2.12312 2.24359 2.06938 2.1949 2.32035 
2.00658 2.13422 2.26401 2.39165 1.93728 2.06376 2.19453 2.32523 2.45144 
1.86489 1.98711 2.11543 2.24572 2.3734 2.49426 1.79288 1.90847 2.03138 
2.15805 2.28408 2.40503 2.51718 1.72413 1.83164 1.94707 2.06758 2.18928 
2.30791 2.4195 2.52097 1.66533 1.66946 1.76911 1.67254 1.777 1.88041 
1.67418 1.78222 1.89102 1.99634 1.67418 1.78405 1.89674 2.00785 2.11299 
1.67254 1.78222 1.89674 2.01191 2.12307 2.22608 1.66946 1.777 1.89102 
2.00785 2.12307 2.23222 2.33166 1.66533 1.76911 1.88041 1.99634 2.11299 
2.22608 2.33166 2.42672 1.47626 1.37249 1.47213 1.26118 1.36459 1.46906 
1.14526 1.25058 1.35938 1.46741 1.0286 1.13374 1.24485 1.35755 1.46741 
0.915514 1.01852 1.12969 1.24485 1.35938 1.46906 0.809937 0.909371 1.01852 
1.13374 1.25058 1.36459 1.47213 0.714871 0.809937 0.915514 1.0286 1.14526 
1.26118 1.37249 1.47626 0.975055 0.898002 1.01847 0.821245 0.946693 1.07221 
0.749941 0.877585 1.00737 1.13501 0.690152 0.816367 0.94706 1.07784 1.20431 
0.647337 0.768195 0.895868 1.02616 1.15448 1.2767 0.624416 0.736561 0.857515 
0.983547 1.11021 1.23313 1.34871 0.620619 0.722093 0.833684 0.952313 1.07402 
1.19452 1.30996 1.41746 0.855925 0.764569 0.764569 0.671524 0.661425 0.671524 
0.582786 0.556971 0.556971 0.582786 0.506696 0.458968 0.441109 0.458968 0.506696 
0.45273 0.379052 0.333054 0.333054 0.379052 0.45273 0.427969 0.331576 0.249267 
0.21325 0.249267 0.331576 0.427969 0.432512 0.325669 0.215619 0.121622 0.121622 
0.215619 0.325669 0.432512 0.432512 0.427969 0.325669 0.45273 0.331576 0.215619 
0.506696 0.379052 0.249267 0.121622 0.582786 0.458968 0.333054 0.21325 0.121622 
0.671524 0.556971 0.441109 0.333054 0.249267 0.215619 0.764569 0.661425 0.556971 
0.458968 0.379052 0.331576 0.325669 0.855925 0.764569 0.671524 0.582786 0.506696 
0.45273 0.427969 0.432512 0.975055 1.01847 0.898002 1.07221 0.946693 0.821245 
1.13501 1.00737 0.877585 0.749941 1.20431 1.07784 0.94706 0.816367 0.690152 
1.2767 1.15448 1.02616 0.895868 0.768195 0.647337 1.34871 1.23313 1.11021 
0.983547 0.857515 0.736561 0.624416 1.41746 1.30996 1.19452 1.07402 0.952313 
0.833684 0.722093 0.620619 1.15011 1.26149 1.19686 1.38136 1.31493 1.25155 
1.50697 1.44074 1.37501 1.31281 1.63462 1.5708 1.50478 1.43962 1.37826 
1.76024 1.70086 1.63681 1.5708 1.5059 1.44492 1.88011 1.82666 1.76659 
1.70197 1.63569 1.5708 1.50988 1.99148 1.94473 1.89004 1.82878 1.76333 
1.69667 1.63171 1.5708 1.15011 1.19686 1.26149 1.25155 1.31493 1.38136 
1.31281 1.37501 1.44074 1.50697 1.37826 1.43962 1.50478 1.5708 1.63462 
1.44492 1.5059 1.5708 1.63681 1.70086 1.76024 1.50988 1.5708 1.63569 
1.70197 1.76659 1.82666 1.88011 1.5708 1.63171 1.69667 1.76333 1.82878 
1.89004 1.94473 1.99148 1.72413 1.83164 1.79288 1.94707 1.90847 1.86489 
2.06758 2.03138 1.98711 1.93728 2.18928 2.15805 2.11543 2.06376 2.00658 
2.30791 2.28408 2.24572 2.19453 2.13422 2.06938 2.4195 2.40503 2.3734 
2.32523 2.26401 2.1949 2.12312 2.52097 2.51718 2.49426 2.45144 2.39165 
2.32035 2.24359 2.16654 2.70908 2.81592 2.71362 2.92597 2.81002 2.68886 
3.01997 2.89233 2.76254 2.6349 3.01997 2.92834 2.80854 2.68262 2.55881 
2.92597 2.89233 2.80854 2.70048 2.58462 2.47007 2.81592 2.81002 2.76254 
2.68262 2.58462 2.48017 2.37702 2.70908 2.71362 2.68886 2.6349 2.55881 
2.47007 2.37702 2.28567 2.16654 2.24359 2.12312 2.32035 2.1949 2.06938 
2.39165 2.26401 2.13422 2.00658 2.45144 2.32523 2.19453 2.06376 1.93728 
2.49426 2.3734 2.24572 2.11543 1.98711 1.86489 2.51718 2.40503 2.28408 
2.15805 2.03138 1.90847 1.79288 2.52097 2.4195 2.30791 2.18928 2.06758 
1.94707 1.83164 1.72413 1.66533 1.76911 1.66946 1.88041 1.777 1.67254 
1.99634 1.89102 1.78222 1.67418 2.11299 2.00785 1.89674 1.78405 1.67418 
2.22608 2.12307 2.01191 1.89674 1.78222 1.67254 2.33166 2.23222 2.12307 
2.00785 1.89102 1.777 1.66946 2.42672 2.33166 2.22608 2.11299 1.99634 
1.88041 1.76911 1.66533 1.47626 1.47213 1.37249 1.46906 1.36459 1.26118 
1.46741 1.35938 1.25058 1.14526 1.46741 1.35755 1.24485 1.13374 1.0286 
1.46906 1.35938 1.24485 1.12969 1.01852 0.915514 1.47213 1.36459 1.25058 
1.13374 1.01852 0.909371 0.809937 1.47626 1.37249 1.26118 1.14526 1.0286 
0.915514 0.809937 0.714871 1.41746 1.30996 1.34871 1.19452 1.23313 1.2767 
1.07402 1.11021 1.15448 1.20431 0.952313 0.983547 1.02616 1.07784 1.13501 
0.833684 0.857515 0.895868 0.94706 1.00737 1.07221 0.722093 0.736561 0.768195 
0.816367 0.877585 0.946693 1.01847 0.620619 0.624416 0.647337 0.690152 0.749941 
0.821245 0.898002 0.975055 0.975055 0.898002 1.01847 0.821245 0.946693 1.07221 
0.749941 0.877585 1.00737 1.13501 0.690152 0.816367 0.94706 1.07784 1.20431 
0.647337 0.768195 0.895868 1.02616 1.15448 1.2767 0.624416 0.736561 0.857515 
0.983547 1.11021 1.23313 1.34871 0.620619 0.722093 0.833684 0.952313 1.07402 
1.19452 1.30996 1.41746 
Phi 1 1002 float
6.28319 3.14159 6.28319 3.14159 4.71239 4.71239 1.5708 1.5708 3.69517 
5.72961 2.58802 0.553574 6.28319 6.28319 6.28319 6.28319 3.14159 3.14159 
3.14159 3.14159 3.14159 6.1053 5.8988 5.67687 5.45995 5.26596 5.10322 
4.97131 4.86569 4.78095 0.177881 0.384387 0.606312 0.823235 1.01722 1.17997 
1.31187 1.4175 1.50223 6.18928 6.10703 6.03531 5.97283 5.91832 5.87061 
5.82869 5.79168 5.75886 0.0939024 0.176153 0.247873 0.310351 0.364864 0.412573 
0.454497 0.491504 0.524326 3.31947 3.52598 3.7479 3.96483 4.15881 4.32156 
4.45346 4.55909 4.64383 2.96371 2.75721 2.53528 2.31836 2.12437 1.96162 
1.82972 1.72409 1.63936 3.2355 3.31775 3.38947 3.45194 3.50646 3.55417 
3.59609 3.6331 3.66592 3.04769 2.96544 2.89372 2.83124 2.77673 2.72902 
2.6871 2.65009 2.61727 6.28319 6.28319 6.28319 6.28319 3.14159 3.14159 
3.14159 3.14159 3.14159 6.1053 5.8988 5.67687 5.45995 5.26596 5.10322 
4.97131 4.86569 4.78095 0.177881 0.384387 0.606312 0.823235 1.01722 1.17997 
1.31187 1.4175 1.50223 6.18928 6.10703 6.03531 5.97283 5.91832 5.87061 
5.82869 5.79168 5.75886 0.0939024 0.176153 0.247873 0.310351 0.364864 0.412573 
0.454497 0.491504 0.524326 3.31947 3.52598 3.7479 3.96483 4.15881 4.32156 
4.45346 4.55909 4.64383 2.96371 2.75721 2.53528 2.31836 2.12437 1.96162 
1.82972 1.72409 1.63936 3.2355 3.31775 3.38947 3.45194 3.50646 3.55417 
3.59609 3.6331 3.66592 3.04769 2.96544 2.89372 2.83124 2.77673 2.72902 
2.6871 2.65009 2.61727 4.71239 4.71239 4.71239 4.71239 4.71239 4.71239 
4.71239 4.71239 4.71239 4.60879 4.49914 4.3857 4.27128 4.15881 4.05096 
3.94976 3.85646 3.77161 4.81599 4.92564 5.03907 5.1535 5.26596 5.37381 
5.47502 5.56831 5.65317 4.60879 4.49914 4.3857 4.27128 4.15881 4.05096 
3.94976 3.85646 3.77161 4.81599 4.92564 5.03907 5.1535 5.26596 5.37381 
5.47502 5.56831 5.65317 1.5708 1.5708 1.5708 1.5708 1.5708 1.5708 
1.5708 1.5708 1.5708 1.6744 1.78405 1.89748 2.01191 2.12437 2.23222 
2.33343 2.42672 2.51157 1.4672 1.35755 1.24411 1.12969 1.01722 0.909371 
0.808166 0.714871 0.63002 1.6744 1.78405 1.89748 2.01191 2.12437 2.23222 
2.33343 2.42672 2.51157 1.4672 1.35755 1.24411 1.12969 1.01722 0.909371 
0.808166 0.714871 0.63002 3.60077 3.49669 3.38395 3.26458 3.14159 3.01861 
2.89924 2.78649 2.68241 5.82401 5.92808 6.04083 6.1602 6.28319 0.122983 
0.242354 0.355101 0.459179 6.05603 5.78856 5.97021 5.51259 5.60297 5.78856 
5.26596 5.26596 5.26596 5.26596 5.06749 5.0121 4.91556 4.71239 4.15881 
4.91556 4.83537 4.71239 4.50922 4.15881 3.63622 4.80045 4.71239 4.58941 
4.41268 4.15881 3.82181 3.45456 4.71239 4.62433 4.50922 4.35729 4.15881 
3.91219 3.63622 3.36875 6.01742 5.94343 5.82633 5.88092 5.76745 5.62798 
5.8278 5.71897 5.58911 5.43724 5.78235 5.67854 5.55757 5.41926 5.26596 
5.74316 5.64441 5.5315 5.40467 5.26596 5.11955 5.70914 5.61528 5.50962 
5.3926 5.26596 5.13292 4.99789 5.67937 5.59016 5.49102 5.38246 5.26596 
5.14407 5.02016 4.89798 5.56831 5.47502 5.47502 5.37381 5.37381 5.37381 
5.26596 5.26596 5.26596 5.26596 5.1535 5.1535 5.1535 5.1535 5.1535 
5.03907 5.03907 5.03907 5.03907 5.03907 5.03907 4.92564 4.92564 4.92564 
4.92564 4.92564 4.92564 4.92564 4.81599 4.81599 4.81599 4.81599 4.81599 
4.81599 4.81599 4.81599 4.60879 4.60879 4.49914 4.60879 4.49914 4.3857 
4.60879 4.49914 4.3857 4.27128 4.60879 4.49914 4.3857 4.27128 4.15881 
4.60879 4.49914 4.3857 4.27128 4.15881 4.05096 4.60879 4.49914 4.3857 
4.27128 4.15881 4.05096 3.94976 4.60879 4.49914 4.3857 4.27128 4.15881 
4.05096 3.94976 3.85646 4.5268 4.40462 4.42689 4.28071 4.29185 4.30523 
4.15881 4.15881 4.15881 4.15881 4.04232 4.03217 4.02011 4.00552 3.98753 
3.93376 3.91515 3.89328 3.86721 3.83566 3.7968 3.83461 3.8095 3.78037 
3.74624 3.70581 3.65733 3.59845 3.7454 3.71564 3.68161 3.64243 3.59698 
3.54386 3.48135 3.40735 3.56428 3.45246 3.52338 3.33203 3.40312 3.47739 
3.20576 3.27463 3.34802 3.42551 3.07742 3.14159 3.21128 3.28647 3.36688 
2.95116 3.00855 3.0719 3.14159 3.21784 3.3006 2.83072 2.88006 2.93517 
2.99672 3.06535 3.14159 3.22575 2.7189 2.7598 2.8058 2.85768 2.9163 
2.98259 3.05743 3.14159 3.56428 3.52338 3.45246 3.47739 3.40312 3.33203 
3.42551 3.34802 3.27463 3.20576 3.36688 3.28647 3.21128 3.14159 3.07742 
3.3006 3.21784 3.14159 3.0719 3.00855 2.95116 3.22575 3.14159 3.06535 
2.99672 2.93517 2.88006 2.83072 3.14159 3.05743 2.98259 2.9163 2.85768 
2.8058 2.7598 2.7189 4.5268 4.42689 4.40462 4.30523 4.29185 4.28071 
4.15881 4.15881 4.15881 4.15881 3.98753 4.00552 4.02011 4.03217 4.04232 
3.7968 3.83566 3.86721 3.89328 3.91515 3.93376 3.59845 3.65733 3.70581 
3.74624 3.78037 3.8095 3.83461 3.40735 3.48135 3.54386 3.59698 3.64243 
3.68161 3.71564 3.7454 4.71239 4.80045 4.62433 4.91556 4.71239 4.50922 
5.06749 4.83537 4.58941 4.35729 5.26596 5.0121 4.71239 4.41268 4.15881 
5.51259 5.26596 4.91556 4.50922 4.15881 3.91219 5.78856 5.60297 5.26596 
4.71239 4.15881 3.82181 3.63622 6.05603 5.97021 5.78856 5.26596 4.15881 
3.63622 3.45456 3.36875 0.227158 0.494626 0.312971 0.770593 0.680215 0.494626 
1.01722 1.01722 1.01722 1.01722 1.2157 1.27109 1.36763 1.5708 2.12437 
1.36763 1.44781 1.5708 1.77397 2.12437 2.64697 1.48273 1.5708 1.69378 
1.8705 2.12437 2.46138 2.82862 1.5708 1.65886 1.77397 1.9259 2.12437 
2.371 2.64697 2.91443 1.75639 1.87857 1.8563 2.00248 1.99133 1.97796 
2.12437 2.12437 2.12437 2.12437 2.24087 2.25101 2.26308 2.27767 2.29565 
2.34943 2.36803 2.38991 2.41597 2.44752 2.48639 2.44857 2.47368 2.50281 
2.53694 2.57738 2.62586 2.68474 2.53778 2.56754 2.60157 2.64076 2.68621 
2.73933 2.80184 2.87583 1.6744 1.6744 1.78405 1.6744 1.78405 1.89748 
1.6744 1.78405 1.89748 2.01191 1.6744 1.78405 1.89748 2.01191 2.12437 
1.6744 1.78405 1.89748 2.01191 2.12437 2.23222 1.6744 1.78405 1.89748 
2.01191 2.12437 2.23222 2.33343 1.6744 1.78405 1.89748 2.01191 2.12437 
2.23222 2.33343 2.42672 1.4672 1.35755 1.4672 1.24411 1.35755 1.4672 
1.12969 1.24411 1.35755 1.4672 1.01722 1.12969 1.24411 1.35755 1.4672 
0.909371 1.01722 1.12969 1.24411 1.35755 1.4672 0.808166 0.909371 1.01722 
1.12969 1.24411 1.35755 1.4672 0.714871 0.808166 0.909371 1.01722 1.12969 
1.24411 1.35755 1.4672 0.603812 0.57405 0.693022 0.540021 0.667908 0.792164 
0.500837 0.638778 0.773562 0.900726 0.455383 0.604649 0.751687 0.890581 1.01722 
0.402264 0.564217 0.725619 0.878514 1.01722 1.13912 0.339753 0.515737 0.694072 
0.863926 1.01722 1.15026 1.26302 0.265762 0.456853 0.655207 0.845941 1.01722 
1.16363 1.28529 1.38521 0.227158 0.312971 0.494626 0.494626 0.680215 0.770593 
1.01722 1.01722 1.01722 1.01722 2.12437 1.5708 1.36763 1.27109 1.2157 
2.64697 2.12437 1.77397 1.5708 1.44781 1.36763 2.82862 2.46138 2.12437 
1.8705 1.69378 1.5708 1.48273 2.91443 2.64697 2.371 2.12437 1.9259 
1.77397 1.65886 1.5708 1.75639 1.8563 1.87857 1.97796 1.99133 2.00248 
2.12437 2.12437 2.12437 2.12437 2.29565 2.27767 2.26308 2.25101 2.24087 
2.48639 2.44752 2.41597 2.38991 2.36803 2.34943 2.68474 2.62586 2.57738 
2.53694 2.50281 2.47368 2.44857 2.87583 2.80184 2.73933 2.68621 2.64076 
2.60157 2.56754 2.53778 5.86049 5.90139 5.97231 5.94739 6.02165 6.09275 
5.99927 6.07676 6.15015 6.21902 6.0579 6.13831 6.2135 0 0.0641696 
6.12418 6.20694 6.28319 0.069689 0.13304 0.190437 6.19903 0 0.0762451 
0.144876 0.206423 0.261531 0.310872 0 0.0841597 0.159004 0.225289 0.283913 
0.335793 0.381792 0.422692 5.86049 5.97231 5.90139 6.09275 6.02165 5.94739 
6.21902 6.15015 6.07676 5.99927 0.0641696 0 6.2135 6.13831 6.0579 
0.190437 0.13304 0.069689 6.28319 6.20694 6.12418 0.310872 0.261531 0.206423 
0.144876 0.0762451 6.28319 6.19903 0.422692 0.381792 0.335793 0.283913 0.225289 
0.159004 0.0841597 0 5.67937 5.70914 5.59016 5.74316 5.61528 5.49102 
5.78235 5.64441 5.50962 5.38246 5.8278 5.67854 5.5315 5.3926 5.26596 
5.88092 5.71897 5.55757 5.40467 5.26596 5.14407 5.94343 5.76745 5.58911 
5.41926 5.26596 5.13292 5.02016 6.01742 5.82633 5.62798 5.43724 5.26596 
5.11955 4.99789 4.89798 1.38521 1.28529 1.26302 1.16363 1.15026 1.13912 
1.01722 1.01722 1.01722 1.01722 0.845941 0.863926 0.878514 0.890581 0.900726 
0.655207 0.694072 0.725619 0.751687 0.773562 0.792164 0.456853 0.515737 0.564217 
0.604649 0.638778 0.667908 0.693022 0.265762 0.339753 0.402264 0.455383 0.500837 
0.540021 0.57405 0.603812 
