# vtk DataFile Version 4.0
vtk output
ASCII
DATASET POLYDATA
POINTS 1002 float
-118.435 -98.0343 68.2714 -113.712 -90.161 66.1201 -111.831 -101.781 68.6375 
-107.248 -93.3603 67.1316 -115.058 -95.4219 62.1859 -110.841 -97.2852 62.9908 
-114.822 -94.1244 73.0277 -111.302 -95.979 72.8127 -108.77 -88.8474 63.3046 
-116.811 -105.013 65.0968 -109.272 -88.0609 70.018 -116.669 -103.779 72.8244 
-118.167 -97.2616 68.1918 -117.847 -96.3118 68.0389 -117.689 -95.2615 67.8651 
-117.401 -94.4091 67.7183 -116.539 -93.8452 67.4794 -115.585 -93.2536 67.1175 
-115.132 -92.3816 66.8404 -114.83 -91.3939 66.6791 -114.304 -90.6241 66.4473 
-118.319 -97.9322 67.6296 -118.01 -97.8587 66.9649 -117.677 -97.6758 66.3952 
-117.515 -97.3108 65.727 -117.439 -96.9231 64.8227 -117.136 -96.6532 64.0288 
-116.541 -96.3975 63.5752 -115.914 -96.0696 63.2092 -115.434 -95.7282 62.721 
-118.235 -97.7198 68.7896 -117.85 -97.4029 69.278 -117.465 -97.0734 69.7949 
-117.127 -96.7491 70.2936 -116.554 -96.4866 70.6333 -115.867 -96.1642 70.9672 
-115.582 -95.5998 71.5686 -115.572 -94.9337 72.2762 -115.331 -94.4313 72.7692 
-118.537 -98.7047 67.9529 -118.541 -99.5424 67.584 -118.525 -100.611 67.1444 
-118.501 -101.699 66.7446 -118.501 -102.646 66.4409 -118.597 -103.643 65.9926 
-118.622 -104.6 65.4463 -118.289 -105.093 65.1856 -117.602 -105.12 65.1711 
-118.452 -98.6455 68.6414 -118.329 -99.4195 69.0268 -118.165 -100.253 69.4882 
-117.984 -101 69.9488 -117.821 -101.64 70.4343 -117.742 -102.235 71.0934 
-117.672 -102.795 71.7567 -117.478 -103.29 72.221 -117.13 -103.645 72.565 
-113.914 -90.3261 65.5806 -114.3 -90.5029 65.1516 -114.704 -90.7971 64.6539 
-114.918 -91.2814 64.0338 -114.927 -92.0212 63.616 -114.86 -92.9661 63.4551 
-114.872 -93.7822 63.1818 -114.989 -94.3163 62.7436 -115.072 -94.8092 62.3871 
-113.954 -90.2328 66.9328 -114.123 -90.4588 67.6458 -114.168 -90.8567 68.2787 
-114.248 -91.2495 69.0699 -114.435 -91.5413 70.0087 -114.581 -91.8863 70.8802 
-114.637 -92.4325 71.6276 -114.697 -93.0932 72.2207 -114.778 -93.6807 72.6493 
-113.279 -89.8807 65.4155 -113.022 -89.336 64.8758 -112.884 -88.5019 64.5625 
-112.56 -87.8499 64.1638 -111.891 -87.6121 63.5922 -111.035 -87.4562 63.1974 
-110.2 -87.3954 63.044 -109.509 -87.7279 62.9736 -109.039 -88.3074 63.0532 
-113.346 -89.8128 66.3627 -112.958 -89.4217 66.7303 -112.452 -88.9944 67.0808 
-112.002 -88.5099 67.4065 -111.713 -87.9847 67.9404 -111.345 -87.5971 68.6445 
-110.826 -87.4934 69.173 -110.28 -87.5933 69.4856 -109.743 -87.7829 69.7652 
-111.592 -100.742 68.5458 -111.04 -99.9033 68.4664 -110.334 -99.3503 68.3628 
-109.782 -98.6284 68.2185 -109.346 -97.5792 68.0398 -108.904 -96.5345 67.7515 
-108.458 -95.5704 67.3558 -107.989 -94.6698 67.067 -107.56 -93.9506 67.0253 
-111.73 -101.479 68.0372 -111.638 -101.111 67.354 -111.51 -100.764 66.6453 
-111.313 -100.397 65.9678 -111.073 -99.9826 65.3052 -110.857 -99.6186 64.6257 
-110.769 -99.1746 64.0412 -110.84 -98.4734 63.665 -110.911 -97.7447 63.3739 
-111.825 -101.364 69.1004 -111.776 -100.859 69.5432 -111.739 -100.281 70.0544 
-111.699 -99.6636 70.568 -111.665 -98.9356 70.9398 -111.726 -98.0785 71.2614 
-111.763 -97.3415 71.6576 -111.62 -96.844 72.0705 -111.412 -96.4193 72.4551 
-111.893 -102.594 68.344 -112.148 -103.172 67.9769 -112.864 -103.394 67.6086 
-113.815 -103.473 67.2677 -114.495 -103.804 66.8831 -114.814 -104.498 66.3946 
-115.065 -105.136 65.8712 -115.497 -105.321 65.4655 -116.133 -105.182 65.2399 
-112.027 -102.443 69.0695 -112.452 -102.746 69.4981 -113.176 -102.771 69.8462 
-113.917 -102.93 70.2512 -114.341 -103.403 70.8853 -114.578 -103.966 71.6123 
-115.005 -104.357 72.2441 -115.647 -104.454 72.7062 -116.247 -104.24 72.895 
-107.147 -93.8504 66.6758 -106.958 -94.5205 66.2373 -106.715 -95.3234 65.8137 
-106.749 -95.9322 65.2656 -107.385 -96.1078 64.654 -108.366 -96.1508 64.2107 
-109.183 -96.4164 63.8794 -109.763 -96.7927 63.5134 -110.296 -97.0762 63.191 
-107.52 -93.3103 67.5127 -107.883 -93.3016 67.9607 -108.278 -93.4286 68.5507 
-108.597 -93.7662 69.3289 -108.972 -94.1488 70.0642 -109.579 -94.4348 70.5825 
-110.196 -94.7747 71.1262 -110.579 -95.2356 71.7915 -110.883 -95.6635 72.3714 
-106.92 -92.9846 66.959 -106.567 -92.4429 66.6155 -106.365 -91.7559 66.0802 
-106.459 -91.0625 65.5159 -106.556 -90.4476 64.8742 -106.526 -89.8883 64.138 
-106.843 -89.4013 63.7221 -107.606 -89.0605 63.6885 -108.323 -88.8916 63.5924 
-107.124 -92.6733 67.466 -106.888 -91.8847 67.8348 -106.465 -91.1844 68.3949 
-106.123 -90.7183 68.9891 -106.292 -90.2311 69.1811 -106.895 -89.5017 69.1134 
-107.549 -88.822 69.2504 -108.144 -88.4346 69.544 -108.72 -88.2162 69.7946 
-114.806 -95.6879 61.7938 -114.575 -95.9591 61.4212 -114.263 -96.2067 61.0911 
-113.637 -96.5371 60.9465 -112.85 -96.9054 61.07 -112.282 -97.1336 61.34 
-111.872 -97.2408 61.6785 -111.447 -97.2882 62.1078 -111.095 -97.274 62.5766 
-114.677 -94.7029 61.7794 -114.154 -94.0263 61.5243 -113.435 -93.4683 61.6065 
-112.551 -92.8865 61.913 -111.776 -92.1564 62.095 -111.236 -91.484 62.1941 
-110.608 -90.9554 62.4919 -109.828 -90.2994 62.865 -109.197 -89.4939 63.1099 
-115.246 -96.2997 62.3499 -115.492 -97.1778 62.5141 -115.837 -98.0945 62.7404 
-116.263 -99.2878 62.9949 -116.727 -100.651 63.1891 -117.112 -101.787 63.4888 
-117.272 -102.755 63.9842 -117.218 -103.736 64.4368 -117.051 -104.537 64.7579 
-110.309 -96.8845 62.5878 -109.732 -96.3782 62.1647 -109.248 -95.5512 61.9072 
-108.937 -94.542 61.8937 -108.816 -93.6456 62.074 -108.889 -92.8638 62.4758 
-109.033 -91.9853 63.0453 -109.036 -90.9046 63.4466 -108.883 -89.7784 63.4698 
-111.462 -97.7733 63.1116 -111.97 -98.5585 63.1567 -112.388 -99.5794 63.1254 
-112.977 -100.527 63.2269 -113.748 -101.31 63.5535 -114.446 -102.115 63.8841 
-115.054 -103.02 64.1073 -115.648 -103.904 64.3594 -116.226 -104.59 64.7092 
-114.476 -94.2236 73.4358 -114.217 -94.2796 74.0013 -114.015 -94.2045 74.6172 
-113.502 -94.1494 75.0135 -112.624 -94.4669 75.1412 -112 -95.1261 75.048 
-111.903 -95.6418 74.6246 -111.869 -95.8234 73.9541 -111.611 -95.8884 73.3169 
-114.295 -93.531 72.9988 -113.972 -92.6126 73.0488 -113.649 -91.6012 73.0493 
-112.897 -90.8755 72.8096 -112.053 -90.1795 72.4973 -111.628 -89.2464 72.319 
-111.21 -88.528 72.0261 -110.483 -88.2744 71.4129 -109.783 -88.1869 70.6679 
-115.144 -94.7046 73.3223 -115.24 -95.6425 73.4761 -115.123 -96.9842 73.3123 
-115.208 -98.1169 73.1641 -115.731 -98.8183 73.4162 -116.337 -99.6453 73.657 
-116.626 -100.729 73.3856 -116.663 -101.793 72.9348 -116.674 -102.818 72.7748 
-110.994 -95.3168 72.8634 -110.688 -94.551 72.7849 -110.209 -93.6625 72.6194 
-109.621 -92.5561 72.5359 -109.295 -91.3623 72.3978 -109.333 -90.4234 71.9008 
-109.406 -89.7488 71.2756 -109.325 -89.1258 70.8674 -109.23 -88.5388 70.5166 
-111.873 -96.5326 73.028 -112.421 -97.2013 73.2869 -112.804 -98.0458 73.5054 
-113.263 -98.8962 73.5634 -113.914 -99.6171 73.5156 -114.433 -100.35 73.3961 
-114.841 -101.233 73.1576 -115.426 -102.212 72.9573 -116.11 -103.114 72.9034 
-108.568 -88.2123 63.4884 -108.503 -87.7963 64.0913 -108.53 -87.2554 64.8281 
-108.536 -86.72 65.2998 -108.417 -86.7923 65.8749 -108.281 -87.2898 66.8828 
-108.397 -87.5213 67.8723 -108.737 -87.5358 68.6095 -109.047 -87.7198 69.3034 
-117.008 -105.349 65.6866 -117.152 -105.724 66.4066 -117.17 -106.317 67.0816 
-117.121 -106.705 67.8193 -117.127 -106.347 68.7707 -117.12 -105.62 69.7617 
-117.026 -105.208 70.7748 -116.941 -105.002 71.8322 -116.859 -104.549 72.5764 
-117.907 -97.172 67.5194 -117.467 -97.0937 66.9043 -117.55 -96.1802 67.4319 
-117.193 -96.8209 66.3067 -117.157 -96.0555 66.8637 -117.403 -95.1006 67.3233 
-117.217 -96.338 65.4283 -117.052 -95.6926 66.0295 -117.043 -94.9343 66.5988 
-116.958 -94.2608 67.0512 -117.134 -95.9319 64.4315 -117.144 -95.1518 64.8714 
-116.92 -94.5265 65.4838 -116.498 -94.0422 66.1223 -116.051 -93.6001 66.6544 
-116.633 -95.7115 63.8011 -116.873 -94.8074 63.9957 -116.821 -94.0377 64.4283 
-116.267 -93.6243 65.1261 -115.719 -93.2426 65.8107 -115.413 -92.7591 66.3728 
-115.964 -95.4856 63.4421 -116.147 -94.7166 63.6245 -116.294 -93.8354 63.8894 
-116.032 -93.199 64.3943 -115.567 -92.7799 65.0576 -115.304 -92.2559 65.6872 
-115.109 -91.7334 66.2116 -115.447 -95.1597 62.9778 -115.438 -94.5953 63.2896 
-115.486 -93.8569 63.5968 -115.493 -93.0031 63.8815 -115.35 -92.3157 64.2964 
-115.162 -91.7633 64.8982 -114.928 -91.246 65.4791 -114.599 -90.8682 65.9571 
-118.446 -98.5878 67.2492 -118.473 -99.4342 66.8411 -118.216 -98.4751 66.6073 
-118.426 -100.522 66.4304 -118.224 -99.3559 66.2677 -117.924 -98.2654 66.0029 
-118.424 -101.53 66.1018 -118.074 -100.456 65.9514 -117.85 -99.1896 65.6074 
-117.731 -97.9284 65.1509 -118.543 -102.398 65.6902 -118.109 -101.352 65.5888 
-117.685 -100.224 65.2642 -117.699 -98.8023 64.6132 -117.594 -97.5647 64.1857 
-118.602 -103.393 65.0673 -118.296 -102.129 64.9681 -117.788 -101.021 64.8428 
-117.63 -99.6964 64.2938 -117.618 -98.2777 63.7175 -117.17 -97.2239 63.5647 
-118.351 -104.251 64.6708 -118.243 -102.99 64.3773 -117.906 -101.753 64.2536 
-117.585 -100.517 64.0014 -117.418 -99.0686 63.5543 -117.039 -97.8 63.2659 
-116.423 -96.8846 63.2334 -117.778 -104.579 64.696 -117.839 -103.582 64.285 
-117.728 -102.415 63.9204 -117.425 -101.278 63.6427 -117.058 -99.9311 63.4114 
-116.641 -98.5233 63.1519 -116.146 -97.4436 62.9578 -115.719 -96.5756 62.8491 
-116.43 -103.874 64.4712 -115.741 -103.079 64.0693 -116.574 -102.976 64.1348 
-115.009 -102.254 63.6645 -115.782 -102.218 63.6205 -116.584 -102.077 63.5753 
-114.287 -101.397 63.3293 -114.923 -101.402 63.137 -115.72 -101.297 63.067 
-116.358 -101.085 63.0631 -113.529 -100.515 62.9804 -114.096 -100.471 62.7384 
-114.809 -100.39 62.5991 -115.538 -100.194 62.5968 -115.975 -99.8282 62.7528 
-112.843 -99.5731 62.7372 -113.356 -99.5387 62.3655 -113.954 -99.5557 62.125 
-114.736 -99.444 62.0403 -115.371 -99.0747 62.1438 -115.627 -98.5939 62.4326 
-112.335 -98.5779 62.7121 -112.77 -98.6256 62.1983 -113.228 -98.7775 61.8038 
-113.892 -98.8616 61.5813 -114.73 -98.5712 61.5234 -115.222 -98.0677 61.7235 
[...]
POINT_DATA 1002
FIELD FieldData 2
Theta 1 1002 float
2.58802 2.58802 0.553574 0.553574 2.12437 1.01722 2.12437 1.01722 1.5708 
1.5708 1.5708 1.5708 2.68241 2.78649 2.89924 3.01861 3.14159 3.01861 
2.89924 2.78649 2.68241 2.61035 2.61791 2.60515 2.56958 2.51327 2.44184 
2.36202 2.27983 2.1997 2.61035 2.61791 2.60515 2.56958 2.51327 2.44184 
2.36202 2.27983 2.1997 2.50947 2.41899 2.31794 2.20864 2.0944 1.97902 
1.86631 1.75944 1.66056 2.50947 2.41899 2.31794 2.20864 2.0944 1.97902 
1.86631 1.75944 1.66056 2.61035 2.61791 2.60515 2.56958 2.51327 2.44184 
2.36202 2.27983 2.1997 2.61035 2.61791 2.60515 2.56958 2.51327 2.44184 
2.36202 2.27983 2.1997 2.50947 2.41899 2.31794 2.20864 2.0944 1.97902 
1.86631 1.75944 1.66056 2.50947 2.41899 2.31794 2.20864 2.0944 1.97902 
1.86631 1.75944 1.66056 0.459179 0.355101 0.242354 0.122983 0 0.122983 
0.242354 0.355101 0.459179 0.531246 0.523681 0.536438 0.57201 0.628319 0.699757 
0.779574 0.86176 0.941896 0.531246 0.523681 0.536438 0.57201 0.628319 0.699757 
0.779574 0.86176 0.941896 0.632123 0.7226 0.823657 0.932948 1.0472 1.16257 
1.27528 1.38216 1.48103 0.632123 0.7226 0.823657 0.932948 1.0472 1.16257 
1.27528 1.38216 1.48103 0.531246 0.523681 0.536438 0.57201 0.628319 0.699757 
0.779574 0.86176 0.941896 0.531246 0.523681 0.536438 0.57201 0.628319 0.699757 
0.779574 0.86176 0.941896 0.632123 0.7226 0.823657 0.932948 1.0472 1.16257 
1.27528 1.38216 1.48103 0.632123 0.7226 0.823657 0.932948 1.0472 1.16257 
1.27528 1.38216 1.48103 2.02998 1.9259 1.81315 1.69378 1.5708 1.44781 
1.32844 1.2157 1.11162 2.0928 2.05283 2.00422 1.94767 1.88496 1.81867 
1.75177 1.68695 1.62623 2.0928 2.05283 2.00422 1.94767 1.88496 1.81867 
1.75177 1.68695 1.62623 1.0488 1.08876 1.13737 1.19392 1.25664 1.32292 
1.38982 1.45464 1.51537 1.0488 1.08876 1.13737 1.19392 1.25664 1.32292 
1.38982 1.45464 1.51537 2.02998 1.9259 1.81315 1.69378 1.5708 1.44781 
1.32844 1.2157 1.11162 2.0928 2.05283 2.00422 1.94767 1.88496 1.81867 
1.75177 1.68695 1.62623 2.0928 2.05283 2.00422 1.94767 1.88496 1.81867 
1.75177 1.68695 1.62623 1.0488 1.08876 1.13737 1.19392 1.25664 1.32292 
1.38982 1.45464 1.51537 1.0488 1.08876 1.13737 1.19392 1.25664 1.32292 
1.38982 1.45464 1.51537 1.5708 1.5708 1.5708 1.5708 1.5708 1.5708 
1.5708 1.5708 1.5708 1.5708 1.5708 1.5708 1.5708 1.5708 1.5708 
1.5708 1.5708 1.5708 2.70908 2.71362 2.81592 2.68886 2.81002 2.92597 
2.6349 2.76254 2.89233 3.01997 2.55881 2.68262 2.80854 2.92834 3.01997 
2.47007 2.58462 2.70048 2.80854 2.89233 2.92597 2.37702 2.48017 2.58462 
2.68262 2.76254 2.81002 2.81592 2.28567 2.37702 2.47007 2.55881 2.6349 
2.68886 2.71362 2.70908 2.52097 2.4195 2.51718 2.30791 2.40503 2.49426 
2.18928 2.28408 2.3734 2.45144 2.06758 2.15805 2.24572 2.32523 2.39165 
1.94707 2.03138 2.11543 2.19453 2.26401 2.32035 1.83164 1.90847 1.98711 
2.06376 2.13422 2.1949 2.24359 1.72413 1.79288 1.86489 1.93728 2.00658 
2.06938 2.12312 2.16654 1.5708 1.50988 1.63171 1.44492 1.5708 1.69667 
1.37826 1.5059 1.63569 1.76333 1.31281 1.43962 1.5708 1.70197 1.82878 
1.25155 1.37501 1.50478 1.63681 1.76659 1.89004 1.19686 1.31493 1.44074 
1.5708 1.70086 1.82666 1.94473 1.15011 1.26149 1.38136 1.50697 1.63462 
1.76024 1.88011 1.99148 1.99148 1.88011 1.94473 1.76024 1.82666 1.89004 
1.63462 1.70086 1.76659 1.82878 1.50697 1.5708 1.63681 1.70197 1.76333 
1.38136 1.44074 1.50478 1.5708 1.63569 1.69667 1.26149 1.31493 1.37501 
1.43962 1.5059 1.5708 1.63171 1.15011 1.19686 1.25155 1.31281 1.37826 
1.44492 1.50988 1.5708 2.16654 2.12312 2.24359 2.06938 2.1949 2.32035 
2.00658 2.13422 2.26401 2.39165 1.93728 2.06376 2.19453 2.32523 2.45144 
1.86489 1.98711 2.11543 2.24572 2.3734 2.49426 1.79288 1.90847 2.03138 
2.15805 2.28408 2.40503 2.51718 1.72413 1.83164 1.94707 2.06758 2.18928 
2.30791 2.4195 2.52097 1.66533 1.66946 1.76911 1.67254 1.777 1.88041 
1.67418 1.78222 1.89102 1.99634 1.67418 1.78405 1.89674 2.00785 2.11299 
1.67254 1.78222 1.89674 2.01191 2.12307 2.22608 1.66946 1.777 1.89102 
2.00785 2.12307 2.23222 2.33166 1.66533 1.76911 1.88041 1.99634 2.11299 
2.22608 2.33166 2.42672 1.47626 1.37249 1.47213 1.26118 1.36459 1.46906 
1.14526 1.25058 1.35938 1.46741 1.0286 1.13374 1.24485 1.35755 1.46741 
0.915514 1.01852 1.12969 1.24485 1.35938 1.46906 0.809937 0.909371 1.01852 
1.13374 1.25058 1.36459 1.47213 0.714871 0.809937 0.915514 1.0286 1.14526 
1.26118 1.37249 1.47626 0.975055 0.898002 1.01847 0.821245 0.946693 1.07221 
0.749941 0.877585 1.00737 1.13501 0.690152 0.816367 0.94706 1.07784 1.20431 
0.647337 0.768195 0.895868 1.02616 1.15448 1.2767 0.624416 0.736561 0.857515 
0.983547 1.11021 1.23313 1.34871 0.620619 0.722093 0.833684 0.952313 1.07402 
1.19452 1.30996 1.41746 0.855925 0.764569 0.764569 0.671524 0.661425 0.671524 
0.582786 0.556971 0.556971 0.582786 0.506696 0.458968 0.441109 0.458968 0.506696 
0.45273 0.379052 0.333054 0.333054 0.379052 0.45273 0.427969 0.331576 0.249267 
0.21325 0.249267 0.331576 0.427969 0.432512 0.325669 0.215619 0.121622 0.121622 
0.215619 0.325669 0.432512 0.432512 0.427969 0.325669 0.45273 0.331576 0.215619 
0.506696 0.379052 0.249267 0.121622 0.582786 0.458968 0.333054 0.21325 0.121622 
0.671524 0.556971 0.441109 0.333054 0.249267 0.215619 0.764569 0.661425 0.556971 
0.458968 0.379052 0.331576 0.325669 0.855925 0.764569 0.671524 0.582786 0.506696 
0.45273 0.427969 0.432512 0.975055 1.01847 0.898002 1.07221 0.946693 0.821245 
1.13501 1.00737 0.877585 0.749941 1.20431 1.07784 0.94706 0.816367 0.690152 
1.2767 1.15448 1.02616 0.895868 0.768195 0.647337 1.34871 1.23313 1.11021 
0.983547 0.857515 0.736561 0.624416 1.41746 1.30996 1.19452 1.07402 0.952313 
0.833684 0.722093 0.620619 1.15011 1.26149 1.19686 1.38136 1.31493 1.25155 
1.50697 1.44074 1.37501 1.31281 1.63462 1.5708 1.50478 1.43962 1.37826 
1.76024 1.70086 1.63681 1.5708 1.5059 1.44492 1.88011 1.82666 1.76659 
1.70197 1.63569 1.5708 1.50988 1.99148 1.94473 1.89004 1.82878 1.76333 
1.69667 1.63171 1.5708 1.15011 1.19686 1.26149 1.25155 1.31493 1.38136 
1.31281 1.37501 1.44074 1.50697 1.37826 1.43962 1.50478 1.5708 1.63462 
1.44492 1.5059 1.5708 1.63681 1.70086 1.76024 1.50988 1.5708 1.63569 
1.70197 1.76659 1.82666 1.88011 1.5708 1.63171 1.69667 1.76333 1.82878 
1.89004 1.94473 1.99148 1.72413 1.83164 1.79288 1.94707 1.90847 1.86489 
2.06758 2.03138 1.98711 1.93728 2.18928 2.15805 2.11543 2.06376 2.00658 
2.30791 2.28408 2.24572 2.19453 2.13422 2.06938 2.4195 2.40503 2.3734 
2.32523 2.26401 2.1949 2.12312 2.52097 2.51718 2.49426 2.45144 2.39165 
2.32035 2.24359 2.16654 2.70908 2.81592 2.71362 2.92597 2.81002 2.68886 
3.01997 2.89233 2.76254 2.6349 3.01997 2.92834 2.80854 2.68262 2.55881 
2.92597 2.89233 2.80854 2.70048 2.58462 2.47007 2.81592 2.81002 2.76254 
2.68262 2.58462 2.48017 2.37702 2.70908 2.71362 2.68886 2.6349 2.55881 
2.47007 2.37702 2.28567 2.16654 2.24359 2.12312 2.32035 2.1949 2.06938 
2.39165 2.26401 2.13422 2.00658 2.45144 2.32523 2.19453 2.06376 1.93728 
2.49426 2.3734 2.24572 2.11543 1.98711 1.86489 2.51718 2.40503 2.28408 
2.15805 2.03138 1.90847 1.79288 2.52097 2.4195 2.30791 2.18928 2.06758 
1.94707 1.83164 1.72413 1.66533 1.76911 1.66946 1.88041 1.777 1.67254 
1.99634 1.89102 1.78222 1.67418 2.11299 2.00785 1.89674 1.78405 1.67418 
2.22608 2.12307 2.01191 1.89674 1.78222 1.67254 2.33166 2.23222 2.12307 
2.00785 1.89102 1.777 1.66946 2.42672 2.33166 2.22608 2.11299 1.99634 
1.88041 1.76911 1.66533 1.47626 1.47213 1.37249 1.46906 1.36459 1.26118 
1.46741 1.35938 1.25058 1.14526 1.46741 1.35755 1.24485 1.13374 1.0286 
1.46906 1.35938 1.24485 1.12969 1.01852 0.915514 1.47213 1.36459 1.25058 
1.13374 1.01852 0.909371 0.809937 1.47626 1.37249 1.26118 1.14526 1.0286 
0.915514 0.809937 0.714871 1.41746 1.30996 1.34871 1.19452 1.23313 1.2767 
1.07402 1.11021 1.15448 1.20431 0.952313 0.983547 1.02616 1.07784 1.13501 
0.833684 0.857515 0.895868 0.94706 1.00737 1.07221 0.722093 0.736561 0.768195 
0.816367 0.877585 0.946693 1.01847 0.620619 0.624416 0.647337 0.690152 0.749941 
0.821245 0.898002 0.975055 0.975055 0.898002 1.01847 0.821245 0.946693 1.07221 
0.749941 0.877585 1.00737 1.13501 0.690152 0.816367 0.94706 1.07784 1.20431 
0.647337 0.768195 0.895868 1.02616 1.15448 1.2767 0.624416 0.736561 0.857515 
0.983547 1.11021 1.23313 1.34871 0.620619 0.722093 0.833684 0.952313 1.07402 
1.19452 1.30996 1.41746 
Phi 1 1002 float
6.28319 3.14159 6.28319 3.14159 4.71239 4.71239 1.5708 1.5708 3.69517 
5.72961 2.58802 0.553574 6.28319 6.28319 6.28319 6.28319 3.14159 3.14159 
3.14159 3.14159 3.14159 6.1053 5.8988 5.67687 5.45995 5.26596 5.10322 
4.97131 4.86569 4.78095 0.177881 0.384387 0.606312 0.823235 1.01722 1.17997 
1.31187 1.4175 1.50223 6.18928 6.10703 6.03531 5.97283 5.91832 5.87061 
5.82869 5.79168 5.75886 0.0939024 0.176153 0.247873 0.310351 0.364864 0.412573 
0.454497 0.491504 0.524326 3.31947 3.52598 3.7479 3.96483 4.15881 4.32156 
4.45346 4.55909 4.64383 2.96371 2.75721 2.53528 2.31836 2.12437 1.96162 
1.82972 1.72409 1.63936 3.2355 3.31775 3.38947 3.45194 3.50646 3.55417 
3.59609 3.6331 3.66592 3.04769 2.96544 2.89372 2.83124 2.77673 2.72902 
2.6871 2.65009 2.61727 6.28319 6.28319 6.28319 6.28319 3.14159 3.14159 
3.14159 3.14159 3.14159 6.1053 5.8988 5.67687 5.45995 5.26596 5.10322 
4.97131 4.86569 4.78095 0.177881 0.384387 0.606312 0.823235 1.01722 1.17997 
1.31187 1.4175 1.50223 6.18928 6.10703 6.03531 5.97283 5.91832 5.87061 
5.82869 5.79168 5.75886 0.0939024 0.176153 0.247873 0.310351 0.364864 0.412573 
0.454497 0.491504 0.524326 3.31947 3.52598 3.7479 3.96483 4.15881 4.32156 
4.45346 4.55909 4.64383 2.96371 2.75721 2.53528 2.31836 2.12437 1.96162 
1.82972 1.72409 1.63936 3.2355 3.31775 3.38947 3.45194 3.50646 3.55417 
3.59609 3.6331 3.66592 3.04769 2.96544 2.89372 2.83124 2.77673 2.72902 
2.6871 2.65009 2.61727 4.71239 4.71239 4.71239 4.71239 4.71239 4.71239 
4.71239 4.71239 4.71239 4.60879 4.49914 4.3857 4.27128 4.15881 4.05096 
3.94976 3.85646 3.77161 4.81599 4.92564 5.03907 5.1535 5.26596 5.37381 
5.47502 5.56831 5.65317 4.60879 4.49914 4.3857 4.27128 4.15881 4.05096 
3.94976 3.85646 3.77161 4.81599 4.92564 5.03907 5.1535 5.26596 5.37381 
5.47502 5.56831 5.65317 1.5708 1.5708 1.5708 1.5708 1.5708 1.5708 
1.5708 1.5708 1.5708 1.6744 1.78405 1.89748 2.01191 2.12437 2.23222 
2.33343 2.42672 2.51157 1.4672 1.35755 1.24411 1.12969 1.01722 0.909371 
0.808166 0.714871 0.63002 1.6744 1.78405 1.89748 2.01191 2.12437 2.23222 
2.33343 2.42672 2.51157 1.4672 1.35755 1.24411 1.12969 1.01722 0.909371 
0.808166 0.714871 0.63002 3.60077 3.49669 3.38395 3.26458 3.14159 3.01861 
2.89924 2.78649 2.68241 5.82401 5.92808 6.04083 6.1602 6.28319 0.122983 
0.242354 0.355101 0.459179 6.05603 5.78856 5.97021 5.51259 5.60297 5.78856 
5.26596 5.26596 5.26596 5.26596 5.06749 5.0121 4.91556 4.71239 4.15881 
4.91556 4.83537 4.71239 4.50922 4.15881 3.63622 4.80045 4.71239 4.58941 
4.41268 4.15881 3.82181 3.45456 4.71239 4.62433 4.50922 4.35729 4.15881 
3.91219 3.63622 3.36875 6.01742 5.94343 5.82633 5.88092 5.76745 5.62798 
5.8278 5.71897 5.58911 5.43724 5.78235 5.67854 5.55757 5.41926 5.26596 
5.74316 5.64441 5.5315 5.40467 5.26596 5.11955 5.70914 5.61528 5.50962 
5.3926 5.26596 5.13292 4.99789 5.67937 5.59016 5.49102 5.38246 5.26596 
5.14407 5.02016 4.89798 5.56831 5.47502 5.47502 5.37381 5.37381 5.37381 
5.26596 5.26596 5.26596 5.26596 5.1535 5.1535 5.1535 5.1535 5.1535 
5.03907 5.03907 5.03907 5.03907 5.03907 5.03907 4.92564 4.92564 4.92564 
4.92564 4.92564 4.92564 4.92564 4.81599 4.81599 4.81599 4.81599 4.81599 
4.81599 4.81599 4.81599 4.60879 4.60879 4.49914 4.60879 4.49914 4.3857 
4.60879 4.49914 4.3857 4.27128 4.60879 4.49914 4.3857 4.27128 4.15881 
4.60879 4.49914 4.3857 4.27128 4.15881 4.05096 4.60879 4.49914 4.3857 
4.27128 4.15881 4.05096 3.94976 4.60879 4.49914 4.3857 4.27128 4.15881 
4.05096 3.94976 3.85646 4.5268 4.40462 4.42689 4.28071 4.29185 4.30523 
4.15881 4.15881 4.15881 4.15881 4.04232 4.03217 4.02011 4.00552 3.98753 
3.93376 3.91515 3.89328 3.86721 3.83566 3.7968 3.83461 3.8095 3.78037 
3.74624 3.70581 3.65733 3.59845 3.7454 3.71564 3.68161 3.64243 3.59698 
3.54386 3.48135 3.40735 3.56428 3.45246 3.52338 3.33203 3.40312 3.47739 
3.20576 3.27463 3.34802 3.42551 3.07742 3.14159 3.21128 3.28647 3.36688 
2.95116 3.00855 3.0719 3.14159 3.21784 3.3006 2.83072 2.88006 2.93517 
2.99672 3.06535 3.14159 3.22575 2.7189 2.7598 2.8058 2.85768 2.9163 
2.98259 3.05743 3.14159 3.56428 3.52338 3.45246 3.47739 3.40312 3.33203 
3.42551 3.34802 3.27463 3.20576 3.36688 3.28647 3.21128 3.14159 3.07742 
3.3006 3.21784 3.14159 3.0719 3.00855 2.95116 3.22575 3.14159 3.06535 
2.99672 2.93517 2.88006 2.83072 3.14159 3.05743 2.98259 2.9163 2.85768 
2.8058 2.7598 2.7189 4.5268 4.42689 4.40462 4.30523 4.29185 4.28071 
4.15881 4.15881 4.15881 4.15881 3.98753 4.00552 4.02011 4.03217 4.04232 
3.7968 3.83566 3.86721 3.89328 3.91515 3.93376 3.59845 3.65733 3.70581 
3.74624 3.78037 3.8095 3.83461 3.40735 3.48135 3.54386 3.59698 3.64243 
3.68161 3.71564 3.7454 4.71239 4.80045 4.62433 4.91556 4.71239 4.50922 
5.06749 4.83537 4.58941 4.35729 5.26596 5.0121 4.71239 4.41268 4.15881 
5.51259 5.26596 4.91556 4.50922 4.15881 3.91219 5.78856 5.60297 5.26596 
4.71239 4.15881 3.82181 3.63622 6.05603 5.97021 5.78856 5.26596 4.15881 
3.63622 3.45456 3.36875 0.227158 0.494626 0.312971 0.770593 0.680215 0.494626 
1.01722 1.01722 1.01722 1.01722 1.2157 1.27109 1.36763 1.5708 2.12437 
1.36763 1.44781 1.5708 1.77397 2.12437 2.64697 1.48273 1.5708 1.69378 
1.8705 2.12437 2.46138 2.82862 1.5708 1.65886 1.77397 1.9259 2.12437 
2.371 2.64697 2.91443 1.75639 1.87857 1.8563 2.00248 1.99133 1.97796 
2.12437 2.12437 2.12437 2.12437 2.24087 2.25101 2.26308 2.27767 2.29565 
2.34943 2.36803 2.38991 2.41597 2.44752 2.48639 2.44857 2.47368 2.50281 
2.53694 2.57738 2.62586 2.68474 2.53778 2.56754 2.60157 2.64076 2.68621 
2.73933 2.80184 2.87583 1.6744 1.6744 1.78405 1.6744 1.78405 1.89748 
1.6744 1.78405 1.89748 2.01191 1.6744 1.78405 1.89748 2.01191 2.12437 
1.6744 1.78405 1.89748 2.01191 2.12437 2.23222 1.6744 1.78405 1.89748 
2.01191 2.12437 2.23222 2.33343 1.6744 1.78405 1.89748 2.01191 2.12437 
2.23222 2.33343 2.42672 1.4672 1.35755 1.4672 1.24411 1.35755 1.4672 
1.12969 1.24411 1.35755 1.4672 1.01722 1.12969 1.24411 1.35755 1.4672 
0.909371 1.01722 1.12969 1.24411 1.35755 1.4672 0.808166 0.909371 1.01722 
1.12969 1.24411 1.35755 1.4672 0.714871 0.808166 0.909371 1.01722 1.12969 
1.24411 1.35755 1.4672 0.603812 0.57405 0.693022 0.540021 0.667908 0.792164 
0.500837 0.638778 0.773562 0.900726 0.455383 0.604649 0.751687 0.890581 1.01722 
0.402264 0.564217 0.725619 0.878514 1.01722 1.13912 0.339753 0.515737 0.694072 
0.863926 1.01722 1.15026 1.26302 0.265762 0.456853 0.655207 0.845941 1.01722 
1.16363 1.28529 1.38521 0.227158 0.312971 0.494626 0.494626 0.680215 0.770593 
1.01722 1.01722 1.01722 1.01722 2.12437 1.5708 1.36763 1.27109 1.2157 
2.64697 2.12437 1.77397 1.5708 1.44781 1.36763 2.82862 2.46138 2.12437 
1.8705 1.69378 1.5708 1.48273 2.91443 2.64697 2.371 2.12437 1.9259 
1.77397 1.65886 1.5708 1.75639 1.8563 1.87857 1.97796 1.99133 2.00248 
2.12437 2.12437 2.12437 2.12437 2.29565 2.27767 2.26308 2.25101 2.24087 
2.48639 2.44752 2.41597 2.38991 2.36803 2.34943 2.68474 2.62586 2.57738 
2.53694 2.50281 2.47368 2.44857 2.87583 2.80184 2.73933 2.68621 2.64076 
2.60157 2.56754 2.53778 5.86049 5.90139 5.97231 5.94739 6.02165 6.09275 
5.99927 6.07676 6.15015 6.21902 6.0579 6.13831 6.2135 0 0.0641696 
6.12418 6.20694 6.28319 0.069689 0.13304 0.190437 6.19903 0 0.0762451 
0.144876 0.206423 0.261531 0.310872 0 0.0841597 0.159004 0.225289 0.283913 
0.335793 0.381792 0.422692 5.86049 5.97231 5.90139 6.09275 6.02165 5.94739 
6.21902 6.15015 6.07676 5.99927 0.0641696 0 6.2135 6.13831 6.0579 
0.190437 0.13304 0.069689 6.28319 6.20694 6.12418 0.310872 0.261531 0.206423 
0.144876 0.0762451 6.28319 6.19903 0.422692 0.381792 0.335793 0.283913 0.225289 
0.159004 0.0841597 0 5.67937 5.70914 5.59016 5.74316 5.61528 5.49102 
5.78235 5.64441 5.50962 5.38246 5.8278 5.67854 5.5315 5.3926 5.26596 
5.88092 5.71897 5.55757 5.40467 5.26596 5.14407 5.94343 5.76745 5.58911 
5.41926 5.26596 5.13292 5.02016 6.01742 5.82633 5.62798 5.43724 5.26596 
5.11955 4.99789 4.89798 1.38521 1.28529 1.26302 1.16363 1.15026 1.13912 
1.01722 1.01722 1.01722 1.01722 0.845941 0.863926 0.878514 0.890581 0.900726 
0.655207 0.694072 0.725619 0.751687 0.773562 0.792164 0.456853 0.515737 0.564217 
0.604649 0.638778 0.667908 0.693022 0.265762 0.339753 0.402264 0.455383 0.500837 
0.540021 0.57405 0.603812 
