# vtk DataFile Version 4.0
vtk output
ASCII
DATASET POLYDATA
POINTS 1002 float
-117.99 -102.277 72.3387 -113.403 -95.8711 72.3287 -113.113 -105.714 72.7394 
-108.34 -99.5111 73.0449 -114.759 -99.4154 67.6593 -110.861 -102.163 68.5034 
-114.865 -99.8201 77.2148 -111.922 -101.918 77.5529 -108.521 -94.6249 69.9655 
-117.54 -106.776 69.5909 -109.692 -95.1406 75.6985 -117.694 -107.342 75.6458 
-117.83 -101.42 72.3941 -117.731 -100.54 72.3942 -117.5 -99.83 72.3506 
-116.798 -99.3926 72.2985 -115.91 -98.931 72.3116 -115.398 -98.1851 72.4048 
-115.055 -97.4103 72.4427 -114.494 -96.8282 72.3722 -113.869 -96.3366 72.3115 
-117.989 -102.036 71.7271 -117.867 -101.756 71.1448 -117.544 -101.487 70.708 
-117.257 -101.199 70.2331 -117.119 -100.827 69.5912 -116.723 -100.509 69.0762 
-115.994 -100.359 68.8384 -115.398 -100.173 68.5759 -115.065 -99.8087 68.1247 
-117.852 -102.012 72.8939 -117.551 -101.841 73.2337 -117.132 -101.662 73.5238 
-116.99 -101.269 74.2119 -117.049 -100.8 75.1313 -116.607 -100.591 75.6468 
-115.803 -100.541 75.8451 -115.34 -100.361 76.2009 -115.149 -100.075 76.7215 
-118.17 -103 71.9109 -118.384 -103.714 71.5723 -118.733 -104.31 71.2859 
-119.221 -104.86 70.8618 -119.489 -105.39 70.4321 -119.212 -105.76 70.2348 
-118.668 -106.053 70.0774 -118.255 -106.413 69.8069 -117.937 -106.701 69.6131 
-118.118 -102.903 72.6021 -118.31 -103.488 72.8079 -118.474 -104.062 73.031 
-118.478 -104.642 73.3314 -118.398 -105.156 73.7498 -118.372 -105.639 74.3023 
-118.341 -106.227 74.8377 -118.231 -106.832 75.2027 -118.029 -107.22 75.443 
-113.413 -96.103 71.9129 -113.557 -96.2641 71.4 -113.895 -96.3436 70.6776 
-114.284 -96.5285 69.9805 -114.492 -96.9811 69.5667 -114.47 -97.5986 69.237 
-114.397 -98.1836 68.7971 -114.435 -98.6655 68.3608 -114.586 -99.0616 67.9888 
-113.647 -95.9552 72.8069 -113.874 -96.1639 73.4827 -114.125 -96.4446 74.2099 
-114.365 -96.7197 74.7569 -114.457 -97.1373 75.249 -114.446 -97.7674 75.8542 
-114.512 -98.3671 76.3448 -114.646 -98.8542 76.629 -114.76 -99.3426 76.9034 
-113.001 -95.5776 72.0944 -112.553 -95.2414 71.7577 -112.104 -94.7272 71.2954 
-111.784 -94.0829 70.8413 -111.468 -93.6614 70.4993 -110.808 -93.6014 70.2508 
-109.908 -93.6786 70.0971 -109.214 -93.8308 70.0261 -108.819 -94.1594 69.9827 
-113.17 -95.4548 72.6787 -112.863 -95.0769 73.102 -112.467 -94.7474 73.5416 
-112.112 -94.3984 74.0725 -111.858 -94.0108 74.7409 -111.509 -93.7591 75.3578 
-110.92 -93.8411 75.7235 -110.302 -94.1978 75.8227 -109.901 -94.6553 75.7662 
-112.443 -105.346 72.8072 -112.014 -104.8 72.8146 -111.629 -104.104 72.7888 
-111.02 -103.402 72.8257 -110.279 -102.912 72.9436 -109.563 -102.54 73.0899 
-109.001 -101.903 73.1989 -108.74 -101.009 73.1982 -108.614 -100.176 73.114 
-112.846 -105.588 72.2943 -112.473 -105.444 71.8586 -112.077 -105.283 71.2988 
-111.694 -105.158 70.6238 -111.388 -104.89 70.0486 -111.319 -104.275 69.6765 
-111.382 -103.572 69.3841 -111.288 -103.055 69.0603 -111.049 -102.627 68.744 
-112.842 -105.64 73.3074 -112.621 -105.465 73.8955 -112.521 -105.149 74.4074 
-112.468 -104.765 74.8978 -112.388 -104.355 75.4728 -112.381 -103.809 75.9995 
-112.448 -103.143 76.3289 -112.381 -102.589 76.6401 -112.141 -102.233 77.096 
-113.789 -105.91 72.3483 -114.347 -106.232 71.9473 -114.596 -106.828 71.5185 
-114.813 -107.47 71.0417 -115.3 -107.818 70.6084 -115.867 -107.918 70.2659 
-116.337 -107.905 69.9817 -116.788 -107.696 69.8104 -117.215 -107.274 69.7305 
-113.709 -105.996 73.0298 -114.23 -106.339 73.3951 -114.638 -106.744 73.6896 
-115.056 -107.142 73.8252 -115.488 -107.499 74.0529 -115.783 -107.848 74.5725 
-116.08 -108.069 75.1206 -116.632 -107.993 75.4393 -117.281 -107.698 75.5804 
-108.234 -99.7799 72.6869 -108.24 -99.9751 72.2829 -108.444 -100.189 71.7873 
-108.601 -100.677 71.1318 -108.628 -101.306 70.4445 -108.938 -101.659 69.9482 
-109.554 -101.764 69.5585 -110.066 -101.885 69.1355 -110.444 -102.042 68.7664 
-108.601 -99.6575 73.4701 -108.759 -99.9298 73.9993 -108.974 -100.296 74.5771 
-109.289 -100.625 75.1619 -109.634 -100.858 75.7184 -110.137 -100.998 76.145 
-110.813 -101.046 76.4028 -111.368 -101.149 76.6628 -111.685 -101.466 77.0764 
-107.755 -99.0831 72.8298 -107.018 -98.701 72.6521 -106.531 -98.3657 72.3641 
-106.45 -97.8615 71.8524 -106.442 -96.9571 71.2258 -106.426 -95.9435 70.7565 
-106.735 -95.3033 70.5489 -107.364 -95.003 70.4023 -108 -94.7868 70.1744 
-108.126 -98.963 73.239 -107.905 -98.4563 73.4575 -107.848 -98.0122 73.7255 
-107.976 -97.4938 74.0687 -108.098 -96.8983 74.4668 -108.171 -96.4122 74.8756 
-108.371 -96.0045 75.2363 -108.764 -95.5898 75.4761 -109.239 -95.2844 75.6015 
-114.543 -99.493 67.2774 -114.12 -99.7184 67.034 -113.558 -99.965 66.8778 
-112.931 -100.133 66.8051 -112.267 -100.378 66.9512 -111.726 -100.815 67.2605 
-111.442 -101.276 67.5596 -111.276 -101.629 67.8692 -111.073 -101.912 68.2065 
-114.253 -98.851 67.4749 -113.68 -98.2962 67.4163 -113.015 -97.8674 67.5824 
-112.153 -97.595 67.9551 -111.249 -97.2054 68.438 -110.605 -96.5456 68.9873 
-110.139 -95.8942 69.4468 -109.613 -95.4156 69.6642 -109.041 -94.9965 69.775 
-115.125 -100.045 67.6438 -115.41 -100.943 67.782 -115.653 -102.08 68.0406 
-116.027 -103.037 68.1394 -116.619 -103.721 67.9252 -117.273 -104.521 67.6395 
-117.664 -105.317 67.7129 -117.681 -105.754 68.3155 -117.568 -106.114 69.094 
-110.504 -101.559 68.4753 -110.165 -100.905 68.4437 -109.706 -100.297 68.3711 
-109.236 -99.6016 68.4485 -108.969 -98.6492 68.825 -108.796 -97.6283 69.2838 
-108.593 -96.7969 69.5781 -108.482 -96.085 69.7251 -108.497 -95.3496 69.8364 
-111.452 -102.572 68.4093 -112.018 -103.114 68.2588 -112.41 -103.916 67.9589 
-112.887 -104.767 67.6592 -113.737 -105.346 67.6404 -114.764 -105.688 67.9536 
-115.687 -105.894 68.466 -116.441 -106.03 69.0028 -117.042 -106.303 69.3862 
-114.73 -99.9307 77.6947 -114.681 -99.9944 78.113 -114.641 -100.163 78.3909 
-114.302 -100.587 78.6472 -113.661 -101.038 78.8503 -113.119 -101.242 78.7308 
-112.766 -101.398 78.4245 -112.399 -101.686 78.2231 -112.072 -101.905 77.9884 
-114.401 -99.2971 77.4574 -114.06 -98.5658 77.7276 -113.985 -97.5319 78.1393 
-113.716 -96.6346 78.4436 -112.822 -96.2903 78.2304 -111.747 -96.1854 77.6167 
-111.042 -95.983 76.9608 -110.621 -95.7473 76.368 -110.197 -95.4779 75.9231 
-115.187 -100.465 77.1758 -115.469 -101.233 77.079 -115.792 -101.97 77.0959 
-116.301 -102.539 77.2973 -116.912 -103.163 77.4674 -117.269 -104.1 77.2997 
-117.309 -105.142 76.7819 -117.374 -106.003 76.2383 -117.576 -106.714 75.8909 
-111.66 -101.214 77.6061 -111.381 -100.457 77.615 -110.867 -99.8401 77.7559 
-110.2 -99.2418 77.991 -109.76 -98.3235 78.0094 -109.659 -97.3115 77.6823 
-109.739 -96.7132 77.0931 -109.842 -96.3689 76.3921 -109.827 -95.8435 75.8754 
-112.345 -102.583 77.7016 -112.905 -103.197 77.6942 -113.492 -103.792 77.633 
-114.106 -104.45 77.6485 -114.814 -105.085 77.5605 -115.497 -105.537 77.1756 
-116.082 -105.894 76.6902 -116.658 -106.363 76.3097 -117.219 -106.912 75.9853 
-108.226 -94.0623 70.2537 -108.033 -93.7472 70.6836 -108.042 -93.6711 71.2966 
-108.215 -93.6099 72.0221 -108.46 -93.6154 72.7053 -108.661 -93.7994 73.4426 
-108.754 -93.9477 74.3948 -108.902 -94.0894 75.2303 -109.251 -94.5049 75.5957 
-117.9 -107.737 69.7509 -118.256 -108.624 69.82 -118.409 -109.067 70.1976 
-118.424 -109.355 71.1153 -118.467 -109.636 72.2227 -118.432 -109.378 73.0491 
-118.261 -108.662 73.7003 -118.093 -108.14 74.4512 -117.93 -107.807 75.1653 
-117.77 -101.129 71.7584 -117.535 -100.891 71.1967 -117.566 -100.312 71.8371 
-117.24 -100.67 70.7318 -117.212 -100.188 71.3465 -117.106 -99.7502 71.8979 
-117.082 -100.344 70.0962 -116.868 -100.03 70.7881 -116.588 -99.6832 71.4025 
-116.262 -99.2866 71.8579 -116.797 -99.9773 69.3843 -116.522 -99.7411 70.0639 
-116.125 -99.4892 70.7465 -115.83 -99.0291 71.2645 -115.603 -98.5583 71.8147 
-116.088 -99.8119 69.0119 -115.926 -99.4788 69.5176 -115.659 -99.1686 70.1356 
-115.529 -98.6294 70.5866 -115.458 -98.0617 71.1443 -115.286 -97.6878 71.8607 
-115.324 -99.745 68.8497 -115.212 -99.332 69.2575 -115.162 -98.85 69.7504 
-115.251 -98.1851 70.0782 -115.286 -97.5421 70.4565 -115.085 -97.2012 71.1808 
-114.761 -97.0342 71.899 -114.869 -99.4796 68.4976 -114.713 -99.0824 68.9073 
-114.73 -98.5396 69.3492 -114.914 -97.8305 69.676 -114.99 -97.1394 69.9303 
-114.74 -96.7634 70.4938 -114.323 -96.6666 71.2909 -114.012 -96.5561 71.8963 
-118.205 -102.746 71.3313 -118.384 -103.385 71.0542 -118.04 -102.411 70.8417 
-118.531 -103.954 70.7319 -118.124 -103.014 70.5725 -117.614 -102.122 70.4049 
-118.734 -104.545 70.3422 -118.16 -103.615 70.2121 -117.667 -102.773 70.0388 
-117.259 -101.863 69.8624 -118.784 -105.049 70.0746 -118.195 -104.217 69.9068 
-117.687 -103.408 69.6573 -117.215 -102.601 69.5157 -116.938 -101.561 69.3439 
-118.496 -105.37 69.793 -118.088 -104.7 69.5745 -117.598 -103.963 69.3341 
-117.082 -103.236 69.2105 -116.623 -102.372 69.2019 -116.333 -101.281 69.0297 
-118.143 -105.66 69.3703 -117.931 -105.086 68.9767 -117.526 -104.425 68.7992 
-116.976 -103.698 68.8195 -116.406 -102.988 68.9461 -115.989 -102.046 68.9141 
-115.725 -100.981 68.6985 -117.888 -105.948 69.0884 -117.865 -105.457 68.435 
-117.639 -104.873 68.1016 -117.106 -104.085 68.2109 -116.459 -103.387 68.4866 
-115.942 -102.618 68.5751 -115.638 -101.553 68.3843 -115.398 -100.534 68.1756 
-117.156 -105.956 68.687 -116.475 -105.919 68.2186 -117.272 -105.746 67.8589 
-115.512 -105.769 67.7727 -116.409 -105.596 67.5663 -117.107 -105.105 67.4147 
-114.441 -105.377 67.484 -115.304 -105.175 67.4446 -116.086 -104.703 67.3627 
-116.559 -104.149 67.4826 -113.402 -104.753 67.3956 -114.232 -104.493 67.44 
-114.993 -104.089 67.4569 -115.546 -103.688 67.4698 -115.916 -103.348 67.7225 
-112.607 -103.889 67.5092 -113.205 -103.599 67.4485 -113.958 -103.188 67.5638 
-114.528 -102.889 67.5668 -115.021 -102.687 67.596 -115.458 -102.417 67.7602 
-112.108 -103.009 67.7665 -112.384 -102.718 67.5071 -112.931 -102.255 67.552 
-113.53 -101.854 67.5924 -114.076 -101.659 67.5275 -114.671 -101.485 67.4752 
[...]
POINT_DATA 1002
FIELD FieldData 2
Theta 1 1002 float
2.58802 2.58802 0.553574 0.553574 2.12437 1.01722 2.12437 1.01722 1.5708 
1.5708 1.5708 1.5708 2.68241 2.78649 2.89924 3.01861 3.14159 3.01861 
2.89924 2.78649 2.68241 2.61035 2.61791 2.60515 2.56958 2.51327 2.44184 
2.36202 2.27983 2.1997 2.61035 2.61791 2.60515 2.56958 2.51327 2.44184 
2.36202 2.27983 2.1997 2.50947 2.41899 2.31794 2.20864 2.0944 1.97902 
1.86631 1.75944 1.66056 2.50947 2.41899 2.31794 2.20864 2.0944 1.97902 
1.86631 1.75944 1.66056 2.61035 2.61791 2.60515 2.56958 2.51327 2.44184 
2.36202 2.27983 2.1997 2.61035 2.61791 2.60515 2.56958 2.51327 2.44184 
2.36202 2.27983 2.1997 2.50947 2.41899 2.31794 2.20864 2.0944 1.97902 
1.86631 1.75944 1.66056 2.50947 2.41899 2.31794 2.20864 2.0944 1.97902 
1.86631 1.75944 1.66056 0.459179 0.355101 0.242354 0.122983 0 0.122983 
0.242354 0.355101 0.459179 0.531246 0.523681 0.536438 0.57201 0.628319 0.699757 
0.779574 0.86176 0.941896 0.531246 0.523681 0.536438 0.57201 0.628319 0.699757 
0.779574 0.86176 0.941896 0.632123 0.7226 0.823657 0.932948 1.0472 1.16257 
1.27528 1.38216 1.48103 0.632123 0.7226 0.823657 0.932948 1.0472 1.16257 
1.27528 1.38216 1.48103 0.531246 0.523681 0.536438 0.57201 0.628319 0.699757 
0.779574 0.86176 0.941896 0.531246 0.523681 0.536438 0.57201 0.628319 0.699757 
0.779574 0.86176 0.941896 0.632123 0.7226 0.823657 0.932948 1.0472 1.16257 
1.27528 1.38216 1.48103 0.632123 0.7226 0.823657 0.932948 1.0472 1.16257 
1.27528 1.38216 1.48103 2.02998 1.9259 1.81315 1.69378 1.5708 1.44781 
1.32844 1.2157 1.11162 2.0928 2.05283 2.00422 1.94767 1.88496 1.81867 
1.75177 1.68695 1.62623 2.0928 2.05283 2.00422 1.94767 1.88496 1.81867 
1.75177 1.68695 1.62623 1.0488 1.08876 1.13737 1.19392 1.25664 1.32292 
1.38982 1.45464 1.51537 1.0488 1.08876 1.13737 1.19392 1.25664 1.32292 
1.38982 1.45464 1.51537 2.02998 1.9259 1.81315 1.69378 1.5708 1.44781 
1.32844 1.2157 1.11162 2.0928 2.05283 2.00422 1.94767 1.88496 1.81867 
1.75177 1.68695 1.62623 2.0928 2.05283 2.00422 1.94767 1.88496 1.81867 
1.75177 1.68695 1.62623 1.0488 1.08876 1.13737 1.19392 1.25664 1.32292 
1.38982 1.45464 1.51537 1.0488 1.08876 1.13737 1.19392 1.25664 1.32292 
1.38982 1.45464 1.51537 1.5708 1.5708 1.5708 1.5708 1.5708 1.5708 
1.5708 1.5708 1.5708 1.5708 1.5708 1.5708 1.5708 1.5708 1.5708 
1.5708 1.5708 1.5708 2.70908 2.71362 2.81592 2.68886 2.81002 2.92597 
2.6349 2.76254 2.89233 3.01997 2.55881 2.68262 2.80854 2.92834 3.01997 
2.47007 2.58462 2.70048 2.80854 2.89233 2.92597 2.37702 2.48017 2.58462 
2.68262 2.76254 2.81002 2.81592 2.28567 2.37702 2.47007 2.55881 2.6349 
2.68886 2.71362 2.70908 2.52097 2.4195 2.51718 2.30791 2.40503 2.49426 
2.18928 2.28408 2.3734 2.45144 2.06758 2.15805 2.24572 2.32523 2.39165 
1.94707 2.03138 2.11543 2.19453 2.26401 2.32035 1.83164 1.90847 1.98711 
2.06376 2.13422 2.1949 2.24359 1.72413 1.79288 1.86489 1.93728 2.00658 
2.06938 2.12312 2.16654 1.5708 1.50988 1.63171 1.44492 1.5708 1.69667 
1.37826 1.5059 1.63569 1.76333 1.31281 1.43962 1.5708 1.70197 1.82878 
1.25155 1.37501 1.50478 1.63681 1.76659 1.89004 1.19686 1.31493 1.44074 
1.5708 1.70086 1.82666 1.94473 1.15011 1.26149 1.38136 1.50697 1.63462 
1.76024 1.88011 1.99148 1.99148 1.88011 1.94473 1.76024 1.82666 1.89004 
1.63462 1.70086 1.76659 1.82878 1.50697 1.5708 1.63681 1.70197 1.76333 
1.38136 1.44074 1.50478 1.5708 1.63569 1.69667 1.26149 1.31493 1.37501 
1.43962 1.5059 1.5708 1.63171 1.15011 1.19686 1.25155 1.31281 1.37826 
1.44492 1.50988 1.5708 2.16654 2.12312 2.24359 2.06938 2.1949 2.32035 
2.00658 2.13422 2.26401 2.39165 1.93728 2.06376 2.19453 2.32523 2.45144 
1.86489 1.98711 2.11543 2.24572 2.3734 2.49426 1.79288 1.90847 2.03138 
2.15805 2.28408 2.40503 2.51718 1.72413 1.83164 1.94707 2.06758 2.18928 
2.30791 2.4195 2.52097 1.66533 1.66946 1.76911 1.67254 1.777 1.88041 
1.67418 1.78222 1.89102 1.99634 1.67418 1.78405 1.89674 2.00785 2.11299 
1.67254 1.78222 1.89674 2.01191 2.12307 2.22608 1.66946 1.777 1.89102 
2.00785 2.12307 2.23222 2.33166 1.66533 1.76911 1.88041 1.99634 2.11299 
2.22608 2.33166 2.42672 1.47626 1.37249 1.47213 1.26118 1.36459 1.46906 
1.14526 1.25058 1.35938 1.46741 1.0286 1.13374 1.24485 1.35755 1.46741 
0.915514 1.01852 1.12969 1.24485 1.35938 1.46906 0.809937 0.909371 1.01852 
1.13374 1.25058 1.36459 1.47213 0.714871 0.809937 0.915514 1.0286 1.14526 
1.26118 1.37249 1.47626 0.975055 0.898002 1.01847 0.821245 0.946693 1.07221 
0.749941 0.877585 1.00737 1.13501 0.690152 0.816367 0.94706 1.07784 1.20431 
0.647337 0.768195 0.895868 1.02616 1.15448 1.2767 0.624416 0.736561 0.857515 
0.983547 1.11021 1.23313 1.34871 0.620619 0.722093 0.833684 0.952313 1.07402 
1.19452 1.30996 1.41746 0.855925 0.764569 0.764569 0.671524 0.661425 0.671524 
0.582786 0.556971 0.556971 0.582786 0.506696 0.458968 0.441109 0.458968 0.506696 
0.45273 0.379052 0.333054 0.333054 0.379052 0.45273 0.427969 0.331576 0.249267 
0.21325 0.249267 0.331576 0.427969 0.432512 0.325669 0.215619 0.121622 0.121622 
0.215619 0.325669 0.432512 0.432512 0.427969 0.325669 0.45273 0.331576 0.215619 
0.506696 0.379052 0.249267 0.121622 0.582786 0.458968 0.333054 0.21325 0.121622 
0.671524 0.556971 0.441109 0.333054 0.249267 0.215619 0.764569 0.661425 0.556971 
0.458968 0.379052 0.331576 0.325669 0.855925 0.764569 0.671524 0.582786 0.506696 
0.45273 0.427969 0.432512 0.975055 1.01847 0.898002 1.07221 0.946693 0.821245 
1.13501 1.00737 0.877585 0.749941 1.20431 1.07784 0.94706 0.816367 0.690152 
1.2767 1.15448 1.02616 0.895868 0.768195 0.647337 1.34871 1.23313 1.11021 
0.983547 0.857515 0.736561 0.624416 1.41746 1.30996 1.19452 1.07402 0.952313 
0.833684 0.722093 0.620619 1.15011 1.26149 1.19686 1.38136 1.31493 1.25155 
1.50697 1.44074 1.37501 1.31281 1.63462 1.5708 1.50478 1.43962 1.37826 
1.76024 1.70086 1.63681 1.5708 1.5059 1.44492 1.88011 1.82666 1.76659 
1.70197 1.63569 1.5708 1.50988 1.99148 1.94473 1.89004 1.82878 1.76333 
1.69667 1.63171 1.5708 1.15011 1.19686 1.26149 1.25155 1.31493 1.38136 
1.31281 1.37501 1.44074 1.50697 1.37826 1.43962 1.50478 1.5708 1.63462 
1.44492 1.5059 1.5708 1.63681 1.70086 1.76024 1.50988 1.5708 1.63569 
1.70197 1.76659 1.82666 1.88011 1.5708 1.63171 1.69667 1.76333 1.82878 
1.89004 1.94473 1.99148 1.72413 1.83164 1.79288 1.94707 1.90847 1.86489 
2.06758 2.03138 1.98711 1.93728 2.18928 2.15805 2.11543 2.06376 2.00658 
2.30791 2.28408 2.24572 2.19453 2.13422 2.06938 2.4195 2.40503 2.3734 
2.32523 2.26401 2.1949 2.12312 2.52097 2.51718 2.49426 2.45144 2.39165 
2.32035 2.24359 2.16654 2.70908 2.81592 2.71362 2.92597 2.81002 2.68886 
3.01997 2.89233 2.76254 2.6349 3.01997 2.92834 2.80854 2.68262 2.55881 
2.92597 2.89233 2.80854 2.70048 2.58462 2.47007 2.81592 2.81002 2.76254 
2.68262 2.58462 2.48017 2.37702 2.70908 2.71362 2.68886 2.6349 2.55881 
2.47007 2.37702 2.28567 2.16654 2.24359 2.12312 2.32035 2.1949 2.06938 
2.39165 2.26401 2.13422 2.00658 2.45144 2.32523 2.19453 2.06376 1.93728 
2.49426 2.3734 2.24572 2.11543 1.98711 1.86489 2.51718 2.40503 2.28408 
2.15805 2.03138 1.90847 1.79288 2.52097 2.4195 2.30791 2.18928 2.06758 
1.94707 1.83164 1.72413 1.66533 1.76911 1.66946 1.88041 1.777 1.67254 
1.99634 1.89102 1.78222 1.67418 2.11299 2.00785 1.89674 1.78405 1.67418 
2.22608 2.12307 2.01191 1.89674 1.78222 1.67254 2.33166 2.23222 2.12307 
2.00785 1.89102 1.777 1.66946 2.42672 2.33166 2.22608 2.11299 1.99634 
1.88041 1.76911 1.66533 1.47626 1.47213 1.37249 1.46906 1.36459 1.26118 
1.46741 1.35938 1.25058 1.14526 1.46741 1.35755 1.24485 1.13374 1.0286 
1.46906 1.35938 1.24485 1.12969 1.01852 0.915514 1.47213 1.36459 1.25058 
1.13374 1.01852 0.909371 0.809937 1.47626 1.37249 1.26118 1.14526 1.0286 
0.915514 0.809937 0.714871 1.41746 1.30996 1.34871 1.19452 1.23313 1.2767 
1.07402 1.11021 1.15448 1.20431 0.952313 0.983547 1.02616 1.07784 1.13501 
0.833684 0.857515 0.895868 0.94706 1.00737 1.07221 0.722093 0.736561 0.768195 
0.816367 0.877585 0.946693 1.01847 0.620619 0.624416 0.647337 0.690152 0.749941 
0.821245 0.898002 0.975055 0.975055 0.898002 1.01847 0.821245 0.946693 1.07221 
0.749941 0.877585 1.00737 1.13501 0.690152 0.816367 0.94706 1.07784 1.20431 
0.647337 0.768195 0.895868 1.02616 1.15448 1.2767 0.624416 0.736561 0.857515 
0.983547 1.11021 1.23313 1.34871 0.620619 0.722093 0.833684 0.952313 1.07402 
1.19452 1.30996 1.41746 
Phi 1 1002 float
6.28319 3.14159 6.28319 3.14159 4.71239 4.71239 1.5708 1.5708 3.69517 
5.72961 2.58802 0.553574 6.28319 6.28319 6.28319 6.28319 3.14159 3.14159 
3.14159 3.14159 3.14159 6.1053 5.8988 5.67687 5.45995 5.26596 5.10322 
4.97131 4.86569 4.78095 0.177881 0.384387 0.606312 0.823235 1.01722 1.17997 
1.31187 1.4175 1.50223 6.18928 6.10703 6.03531 5.97283 5.91832 5.87061 
5.82869 5.79168 5.75886 0.0939024 0.176153 0.247873 0.310351 0.364864 0.412573 
0.454497 0.491504 0.524326 3.31947 3.52598 3.7479 3.96483 4.15881 4.32156 
4.45346 4.55909 4.64383 2.96371 2.75721 2.53528 2.31836 2.12437 1.96162 
1.82972 1.72409 1.63936 3.2355 3.31775 3.38947 3.45194 3.50646 3.55417 
3.59609 3.6331 3.66592 3.04769 2.96544 2.89372 2.83124 2.77673 2.72902 
2.6871 2.65009 2.61727 6.28319 6.28319 6.28319 6.28319 3.14159 3.14159 
3.14159 3.14159 3.14159 6.1053 5.8988 5.67687 5.45995 5.26596 5.10322 
4.97131 4.86569 4.78095 0.177881 0.384387 0.606312 0.823235 1.01722 1.17997 
1.31187 1.4175 1.50223 6.18928 6.10703 6.03531 5.97283 5.91832 5.87061 
5.82869 5.79168 5.75886 0.0939024 0.176153 0.247873 0.310351 0.364864 0.412573 
0.454497 0.491504 0.524326 3.31947 3.52598 3.7479 3.96483 4.15881 4.32156 
4.45346 4.55909 4.64383 2.96371 2.75721 2.53528 2.31836 2.12437 1.96162 
1.82972 1.72409 1.63936 3.2355 3.31775 3.38947 3.45194 3.50646 3.55417 
3.59609 3.6331 3.66592 3.04769 2.96544 2.89372 2.83124 2.77673 2.72902 
2.6871 2.65009 2.61727 4.71239 4.71239 4.71239 4.71239 4.71239 4.71239 
4.71239 4.71239 4.71239 4.60879 4.49914 4.3857 4.27128 4.15881 4.05096 
3.94976 3.85646 3.77161 4.81599 4.92564 5.03907 5.1535 5.26596 5.37381 
5.47502 5.56831 5.65317 4.60879 4.49914 4.3857 4.27128 4.15881 4.05096 
3.94976 3.85646 3.77161 4.81599 4.92564 5.03907 5.1535 5.26596 5.37381 
5.47502 5.56831 5.65317 1.5708 1.5708 1.5708 1.5708 1.5708 1.5708 
1.5708 1.5708 1.5708 1.6744 1.78405 1.89748 2.01191 2.12437 2.23222 
2.33343 2.42672 2.51157 1.4672 1.35755 1.24411 1.12969 1.01722 0.909371 
0.808166 0.714871 0.63002 1.6744 1.78405 1.89748 2.01191 2.12437 2.23222 
2.33343 2.42672 2.51157 1.4672 1.35755 1.24411 1.12969 1.01722 0.909371 
0.808166 0.714871 0.63002 3.60077 3.49669 3.38395 3.26458 3.14159 3.01861 
2.89924 2.78649 2.68241 5.82401 5.92808 6.04083 6.1602 6.28319 0.122983 
0.242354 0.355101 0.459179 6.05603 5.78856 5.97021 5.51259 5.60297 5.78856 
5.26596 5.26596 5.26596 5.26596 5.06749 5.0121 4.91556 4.71239 4.15881 
4.91556 4.83537 4.71239 4.50922 4.15881 3.63622 4.80045 4.71239 4.58941 
4.41268 4.15881 3.82181 3.45456 4.71239 4.62433 4.50922 4.35729 4.15881 
3.91219 3.63622 3.36875 6.01742 5.94343 5.82633 5.88092 5.76745 5.62798 
5.8278 5.71897 5.58911 5.43724 5.78235 5.67854 5.55757 5.41926 5.26596 
5.74316 5.64441 5.5315 5.40467 5.26596 5.11955 5.70914 5.61528 5.50962 
5.3926 5.26596 5.13292 4.99789 5.67937 5.59016 5.49102 5.38246 5.26596 
5.14407 5.02016 4.89798 5.56831 5.47502 5.47502 5.37381 5.37381 5.37381 
5.26596 5.26596 5.26596 5.26596 5.1535 5.1535 5.1535 5.1535 5.1535 
5.03907 5.03907 5.03907 5.03907 5.03907 5.03907 4.92564 4.92564 4.92564 
4.92564 4.92564 4.92564 4.92564 4.81599 4.81599 4.81599 4.81599 4.81599 
4.81599 4.81599 4.81599 4.60879 4.60879 4.49914 4.60879 4.49914 4.3857 
4.60879 4.49914 4.3857 4.27128 4.60879 4.49914 4.3857 4.27128 4.15881 
4.60879 4.49914 4.3857 4.27128 4.15881 4.05096 4.60879 4.49914 4.3857 
4.27128 4.15881 4.05096 3.94976 4.60879 4.49914 4.3857 4.27128 4.15881 
4.05096 3.94976 3.85646 4.5268 4.40462 4.42689 4.28071 4.29185 4.30523 
4.15881 4.15881 4.15881 4.15881 4.04232 4.03217 4.02011 4.00552 3.98753 
3.93376 3.91515 3.89328 3.86721 3.83566 3.7968 3.83461 3.8095 3.78037 
3.74624 3.70581 3.65733 3.59845 3.7454 3.71564 3.68161 3.64243 3.59698 
3.54386 3.48135 3.40735 3.56428 3.45246 3.52338 3.33203 3.40312 3.47739 
3.20576 3.27463 3.34802 3.42551 3.07742 3.14159 3.21128 3.28647 3.36688 
2.95116 3.00855 3.0719 3.14159 3.21784 3.3006 2.83072 2.88006 2.93517 
2.99672 3.06535 3.14159 3.22575 2.7189 2.7598 2.8058 2.85768 2.9163 
2.98259 3.05743 3.14159 3.56428 3.52338 3.45246 3.47739 3.40312 3.33203 
3.42551 3.34802 3.27463 3.20576 3.36688 3.28647 3.21128 3.14159 3.07742 
3.3006 3.21784 3.14159 3.0719 3.00855 2.95116 3.22575 3.14159 3.06535 
2.99672 2.93517 2.88006 2.83072 3.14159 3.05743 2.98259 2.9163 2.85768 
2.8058 2.7598 2.7189 4.5268 4.42689 4.40462 4.30523 4.29185 4.28071 
4.15881 4.15881 4.15881 4.15881 3.98753 4.00552 4.02011 4.03217 4.04232 
3.7968 3.83566 3.86721 3.89328 3.91515 3.93376 3.59845 3.65733 3.70581 
3.74624 3.78037 3.8095 3.83461 3.40735 3.48135 3.54386 3.59698 3.64243 
3.68161 3.71564 3.7454 4.71239 4.80045 4.62433 4.91556 4.71239 4.50922 
5.06749 4.83537 4.58941 4.35729 5.26596 5.0121 4.71239 4.41268 4.15881 
5.51259 5.26596 4.91556 4.50922 4.15881 3.91219 5.78856 5.60297 5.26596 
4.71239 4.15881 3.82181 3.63622 6.05603 5.97021 5.78856 5.26596 4.15881 
3.63622 3.45456 3.36875 0.227158 0.494626 0.312971 0.770593 0.680215 0.494626 
1.01722 1.01722 1.01722 1.01722 1.2157 1.27109 1.36763 1.5708 2.12437 
1.36763 1.44781 1.5708 1.77397 2.12437 2.64697 1.48273 1.5708 1.69378 
1.8705 2.12437 2.46138 2.82862 1.5708 1.65886 1.77397 1.9259 2.12437 
2.371 2.64697 2.91443 1.75639 1.87857 1.8563 2.00248 1.99133 1.97796 
2.12437 2.12437 2.12437 2.12437 2.24087 2.25101 2.26308 2.27767 2.29565 
2.34943 2.36803 2.38991 2.41597 2.44752 2.48639 2.44857 2.47368 2.50281 
2.53694 2.57738 2.62586 2.68474 2.53778 2.56754 2.60157 2.64076 2.68621 
2.73933 2.80184 2.87583 1.6744 1.6744 1.78405 1.6744 1.78405 1.89748 
1.6744 1.78405 1.89748 2.01191 1.6744 1.78405 1.89748 2.01191 2.12437 
1.6744 1.78405 1.89748 2.01191 2.12437 2.23222 1.6744 1.78405 1.89748 
2.01191 2.12437 2.23222 2.33343 1.6744 1.78405 1.89748 2.01191 2.12437 
2.23222 2.33343 2.42672 1.4672 1.35755 1.4672 1.24411 1.35755 1.4672 
1.12969 1.24411 1.35755 1.4672 1.01722 1.12969 1.24411 1.35755 1.4672 
0.909371 1.01722 1.12969 1.24411 1.35755 1.4672 0.808166 0.909371 1.01722 
1.12969 1.24411 1.35755 1.4672 0.714871 0.808166 0.909371 1.01722 1.12969 
1.24411 1.35755 1.4672 0.603812 0.57405 0.693022 0.540021 0.667908 0.792164 
0.500837 0.638778 0.773562 0.900726 0.455383 0.604649 0.751687 0.890581 1.01722 
0.402264 0.564217 0.725619 0.878514 1.01722 1.13912 0.339753 0.515737 0.694072 
0.863926 1.01722 1.15026 1.26302 0.265762 0.456853 0.655207 0.845941 1.01722 
1.16363 1.28529 1.38521 0.227158 0.312971 0.494626 0.494626 0.680215 0.770593 
1.01722 1.01722 1.01722 1.01722 2.12437 1.5708 1.36763 1.27109 1.2157 
2.64697 2.12437 1.77397 1.5708 1.44781 1.36763 2.82862 2.46138 2.12437 
1.8705 1.69378 1.5708 1.48273 2.91443 2.64697 2.371 2.12437 1.9259 
1.77397 1.65886 1.5708 1.75639 1.8563 1.87857 1.97796 1.99133 2.00248 
2.12437 2.12437 2.12437 2.12437 2.29565 2.27767 2.26308 2.25101 2.24087 
2.48639 2.44752 2.41597 2.38991 2.36803 2.34943 2.68474 2.62586 2.57738 
2.53694 2.50281 2.47368 2.44857 2.87583 2.80184 2.73933 2.68621 2.64076 
2.60157 2.56754 2.53778 5.86049 5.90139 5.97231 5.94739 6.02165 6.09275 
5.99927 6.07676 6.15015 6.21902 6.0579 6.13831 6.2135 0 0.0641696 
6.12418 6.20694 6.28319 0.069689 0.13304 0.190437 6.19903 0 0.0762451 
0.144876 0.206423 0.261531 0.310872 0 0.0841597 0.159004 0.225289 0.283913 
0.335793 0.381792 0.422692 5.86049 5.97231 5.90139 6.09275 6.02165 5.94739 
6.21902 6.15015 6.07676 5.99927 0.0641696 0 6.2135 6.13831 6.0579 
0.190437 0.13304 0.069689 6.28319 6.20694 6.12418 0.310872 0.261531 0.206423 
0.144876 0.0762451 6.28319 6.19903 0.422692 0.381792 0.335793 0.283913 0.225289 
0.159004 0.0841597 0 5.67937 5.70914 5.59016 5.74316 5.61528 5.49102 
5.78235 5.64441 5.50962 5.38246 5.8278 5.67854 5.5315 5.3926 5.26596 
5.88092 5.71897 5.55757 5.40467 5.26596 5.14407 5.94343 5.76745 5.58911 
5.41926 5.26596 5.13292 5.02016 6.01742 5.82633 5.62798 5.43724 5.26596 
5.11955 4.99789 4.89798 1.38521 1.28529 1.26302 1.16363 1.15026 1.13912 
1.01722 1.01722 1.01722 1.01722 0.845941 0.863926 0.878514 0.890581 0.900726 
0.655207 0.694072 0.725619 0.751687 0.773562 0.792164 0.456853 0.515737 0.564217 
0.604649 0.638778 0.667908 0.693022 0.265762 0.339753 0.402264 0.455383 0.500837 
0.540021 0.57405 0.603812 
