# vtk DataFile Version 4.0
vtk output
ASCII
DATASET POLYDATA
POINTS 1002 float
-118.429 -100.383 69.1375 -113.435 -93.2324 69.1155 -113.902 -103.204 70.5457 
-108.613 -96.4658 70.3964 -114.638 -97.5807 64.86 -110.885 -99.6764 65.8982 
-115.312 -96.9891 74.2146 -112.665 -99.0617 75.0069 -108.262 -91.9881 67.39 
-117.745 -105.915 66.9999 -110.498 -92.0416 72.9602 -118.033 -105.575 72.6058 
-118.143 -99.529 69.1992 -117.789 -98.666 69.1756 -117.54 -97.7619 69.1129 
-117.064 -96.9971 69.1418 -116.23 -96.405 69.1957 -115.629 -95.6785 69.1091 
-115.359 -94.7543 68.9787 -114.893 -93.9656 68.9718 -114.153 -93.5046 69.0494 
-118.408 -100.223 68.672 -118.312 -99.9595 68.0969 -118.114 -99.6173 67.5059 
-117.77 -99.3043 67.0484 -117.32 -99.0153 66.6328 -116.799 -98.7049 66.1823 
-116.142 -98.4573 65.8708 -115.466 -98.2546 65.6406 -114.983 -97.9621 65.2746 
-118.251 -100.016 69.6206 -117.935 -99.7921 70.0626 -117.531 -99.5837 70.4828 
-117.234 -99.1284 71.097 -117.153 -98.474 71.923 -117.011 -97.9699 72.6002 
-116.555 -97.6986 73.0182 -115.994 -97.481 73.4161 -115.585 -97.2413 73.8471 
-118.513 -101.333 68.8104 -118.535 -102.429 68.6299 -118.885 -103.315 68.5695 
-119.676 -103.851 68.2723 -120.241 -104.244 67.7164 -119.993 -104.651 67.4411 
-119.282 -105.088 67.513 -118.663 -105.534 67.4588 -118.198 -105.851 67.1979 
-118.456 -101.05 69.378 -118.419 -101.792 69.7332 -118.459 -102.515 70.1396 
-118.514 -103.145 70.444 -118.467 -103.77 70.7602 -118.506 -104.41 71.2319 
-118.66 -104.953 71.6887 -118.621 -105.391 72.0367 -118.342 -105.644 72.3512 
-113.666 -93.2837 68.4791 -113.985 -93.2836 67.7732 -114.256 -93.4957 67.259 
-114.298 -94.1399 66.9756 -114.171 -94.9443 66.6979 -114.12 -95.6208 66.388 
-114.192 -96.2706 66.0918 -114.31 -96.8581 65.6989 -114.469 -97.2536 65.2293 
-113.694 -93.3076 69.6125 -114.005 -93.4611 70.089 -114.304 -93.6885 70.6758 
-114.562 -93.9497 71.3969 -114.733 -94.3601 72.0059 -114.776 -94.9953 72.4305 
-114.809 -95.6346 72.8822 -114.961 -96.107 73.3902 -115.167 -96.5207 73.841 
-112.932 -93.001 68.808 -112.466 -92.5658 68.4709 -111.991 -91.8745 68.0819 
-111.53 -91.2374 67.6424 -111.003 -90.906 67.2555 -110.141 -90.6797 66.9663 
-109.14 -90.526 66.7871 -108.566 -90.7538 66.8507 -108.416 -91.3499 67.1332 
-112.979 -92.9351 69.4565 -112.634 -92.4994 69.8027 -112.437 -91.9931 70.2308 
-112.39 -91.4196 70.6949 -112.283 -90.924 71.1796 -111.885 -90.8067 71.7375 
-111.347 -91.0071 72.2401 -110.933 -91.2775 72.5536 -110.678 -91.6173 72.7581 
-113.232 -102.712 70.5801 -112.621 -102.164 70.6181 -112.142 -101.467 70.5599 
-111.678 -100.652 70.4217 -111.087 -99.8888 70.3887 -110.461 -99.2194 70.4363 
-109.987 -98.4588 70.4079 -109.589 -97.6233 70.3638 -109.113 -96.9469 70.3801 
-113.656 -103.022 70.0854 -113.383 -102.748 69.5803 -112.928 -102.548 69.081 
-112.332 -102.432 68.5076 -111.831 -102.197 67.8444 -111.564 -101.749 67.2529 
-111.475 -101.153 66.8604 -111.399 -100.514 66.5987 -111.199 -99.9942 66.2982 
-113.82 -102.939 70.9503 -113.789 -102.59 71.3266 -113.735 -102.18 71.7338 
-113.651 -101.684 72.2339 -113.617 -101.124 72.7089 -113.633 -100.498 73.0416 
-113.556 -99.8561 73.4151 -113.287 -99.4423 73.9757 -112.931 -99.2739 74.5611 
-114.383 -103.687 70.2562 -114.791 -104.281 69.9045 -115.054 -104.953 69.4694 
-115.339 -105.578 69.0118 -115.867 -105.996 68.5981 -116.471 -106.173 68.2175 
-116.865 -106.24 67.8542 -117.126 -106.248 67.5154 -117.425 -106.138 67.2203 
-114.502 -103.595 70.7445 -115.065 -104.068 70.8446 -115.442 -104.701 71.0062 
-115.722 -105.361 71.396 -116.181 -105.776 71.7172 -116.827 -105.912 71.7595 
-117.372 -105.943 71.9001 -117.68 -105.95 72.2591 -117.864 -105.866 72.5222 
-108.496 -96.7778 70.1038 -108.392 -97.2055 69.7962 -108.434 -97.5671 69.3983 
-108.614 -97.9572 68.9125 -108.755 -98.6211 68.2641 -108.835 -99.3187 67.4671 
-109.079 -99.6506 66.7912 -109.612 -99.6806 66.38 -110.284 -99.6523 66.1216 
-108.945 -96.5888 70.8116 -109.224 -96.8529 71.4171 -109.622 -97.0927 72.0262 
-110.24 -97.1267 72.3966 -110.837 -97.1648 72.7344 -111.194 -97.5071 73.3358 
-111.469 -98.0183 73.9633 -111.821 -98.4604 74.3852 -112.226 -98.804 74.715 
-108.053 -96.1223 70.1775 -107.426 -95.6573 69.9655 -106.844 -95.2157 69.8359 
-106.54 -94.8721 69.6448 -106.506 -94.2205 69.0396 -106.437 -93.2046 68.1783 
-106.445 -92.504 67.6674 -106.918 -92.2993 67.5802 -107.675 -92.1719 67.5427 
-108.405 -96.0845 70.6274 -108.3 -95.6511 70.9445 -108.285 -95.0421 71.3765 
-108.3 -94.3098 71.8417 -108.411 -93.6779 72.1094 -108.745 -93.2108 72.1712 
-109.255 -92.7901 72.3223 -109.764 -92.4392 72.6044 -110.167 -92.2235 72.8181 
-114.446 -97.592 64.514 -113.99 -97.7603 64.3681 -113.27 -98.0645 64.4446 
-112.523 -98.2914 64.5309 -111.866 -98.4526 64.487 -111.305 -98.7909 64.4575 
-110.981 -99.2381 64.6116 -110.924 -99.5159 64.9702 -110.946 -99.6048 65.4457 
-114.05 -97.0178 64.8463 -113.155 -96.6221 65.1693 -112.172 -96.3216 65.5287 
-111.39 -95.7892 65.661 -110.739 -94.9511 65.7578 -110.058 -94.2139 66.0021 
-109.481 -93.6858 66.3363 -109.08 -93.0806 66.7514 -108.703 -92.4323 67.1563 
-114.966 -98.3149 64.9342 -115.33 -99.2078 65.0915 -115.924 -100.036 64.9622 
-116.617 -100.781 64.6748 -117.044 -101.61 64.8543 -117.199 -102.617 65.5078 
-117.338 -103.753 66.0332 -117.534 -104.76 66.3053 -117.698 -105.434 66.6069 
-110.218 -99.3849 65.623 -109.685 -98.8989 65.4983 -109.34 -98.1234 65.55 
-109.041 -97.2585 65.7105 -108.716 -96.4033 66.0902 -108.426 -95.4026 66.6053 
-108.256 -94.3427 66.9362 -108.235 -93.4716 67.1398 -108.271 -92.7402 67.3464 
-111.597 -99.9868 65.9081 -112.151 -100.616 65.7547 -112.609 -101.467 65.5211 
-113.311 -102.124 65.5238 -114.293 -102.6 65.7465 -115.116 -103.345 65.9496 
-115.703 -104.258 66.1817 -116.379 -104.966 66.4631 -117.147 -105.491 66.7096 
-115.192 -97.1647 74.6304 -115.031 -97.3459 75.0911 -114.913 -97.471 75.7073 
-114.797 -97.6457 76.3708 -114.523 -97.9466 76.6168 -114.105 -98.2017 76.2906 
-113.666 -98.3723 75.8502 -113.248 -98.6232 75.5862 -112.894 -98.9105 75.3476 
-115.01 -96.3218 74.3635 -114.7 -95.4371 74.6441 -114.293 -94.578 74.898 
-113.634 -94.072 74.8114 -112.832 -93.5463 74.678 -112.235 -92.5258 74.9171 
-111.814 -91.6873 74.9939 -111.346 -91.6731 74.4092 -110.881 -91.9822 73.5704 
-115.587 -97.6611 74.3485 -115.943 -98.3693 74.4204 -116.393 -99.1331 74.4415 
-116.826 -99.9964 74.4914 -117.162 -100.922 74.5145 -117.465 -101.818 74.3921 
-117.735 -102.709 74.0712 -117.904 -103.658 73.5471 -117.993 -104.635 72.9865 
-112.252 -98.457 75.1987 -111.938 -97.5921 75.3666 -111.579 -96.8022 75.497 
-111.117 -96.1296 75.4531 -110.652 -95.1161 75.2394 -110.289 -93.8745 75.0502 
-110.17 -93.0941 74.7986 -110.313 -92.7972 74.2583 -110.482 -92.4964 73.554 
-113.327 -99.4468 74.9873 -114.071 -99.8892 74.9017 -114.692 -100.563 74.8428 
-115.074 -101.553 74.9448 -115.389 -102.651 75.0956 -115.92 -103.416 74.9092 
-116.64 -103.765 74.2845 -117.275 -104.125 73.5606 -117.713 -104.774 73.0069 
-107.999 -91.3792 67.3191 -107.943 -91.0226 67.3466 -108.112 -90.9141 67.9832 
-108.351 -90.8417 68.983 -108.623 -90.8301 69.6489 -108.957 -90.9606 70.2393 
-109.311 -91.0754 71.1679 -109.714 -91.2397 71.9815 -110.154 -91.618 72.464 
-117.866 -106.513 67.505 -117.81 -107.27 68.0421 -118.191 -107.944 68.5284 
-119.314 -108.328 68.9524 -120.117 -108.597 69.4922 -119.648 -108.834 70.3483 
-118.72 -108.692 71.2905 -118.287 -107.92 71.9218 -118.18 -106.738 72.2693 
-118.06 -99.2615 68.6487 -117.903 -98.9692 67.9935 -117.717 -98.322 68.5536 
-117.641 -98.7224 67.431 -117.577 -98.0279 67.9137 -117.404 -97.4468 68.5169 
-117.259 -98.4908 67.0051 -117.276 -97.7984 67.3955 -117.151 -97.1643 67.9535 
-116.698 -96.7843 68.6123 -116.841 -98.1417 66.5379 -116.809 -97.531 66.9176 
-116.675 -96.9121 67.4244 -116.296 -96.5052 68.0562 -115.849 -96.173 68.6187 
-116.324 -97.8055 66.1101 -116.287 -97.2407 66.4709 -116.029 -96.7382 66.9606 
-115.743 -96.2625 67.5333 -115.534 -95.7895 68.0028 -115.431 -95.2624 68.4315 
-115.623 -97.6428 65.8447 -115.647 -97.0835 66.1869 -115.386 -96.642 66.6523 
-115.111 -96.1526 67.1661 -115.091 -95.4477 67.5264 -115.161 -94.7275 67.7928 
-115.1 -94.2353 68.2894 -114.956 -97.501 65.5662 -114.921 -96.9954 65.9645 
-114.764 -96.4868 66.3911 -114.576 -95.9689 66.822 -114.609 -95.2164 67.1603 
-114.754 -94.3232 67.3452 -114.7 -93.7516 67.678 -114.444 -93.5678 68.3364 
-118.518 -101.178 68.3324 -118.522 -102.226 68.1003 -118.481 -100.819 67.7496 
-118.813 -103.116 67.8269 -118.541 -101.771 67.4648 -118.323 -100.315 67.1836 
-119.523 -103.755 67.3367 -118.746 -102.7 67.1517 -118.394 -101.146 66.9342 
-117.93 -99.8649 66.7212 -119.96 -104.248 66.9555 -119.089 -103.45 66.855 
-118.342 -102.034 66.7847 -117.885 -100.58 66.4842 -117.328 -99.5535 66.2566 
-119.601 -104.696 66.9465 -119.061 -103.979 66.7422 -118.183 -102.701 66.7011 
-117.621 -101.286 66.3827 -117.154 -100.205 66.0137 -116.593 -99.33 65.896 
-118.871 -105.097 66.9588 -118.565 -104.368 66.6763 -117.899 -103.116 66.5334 
-117.372 -101.738 66.1801 -116.974 -100.714 65.7846 -116.411 -99.9405 65.7011 
-115.849 -99.1026 65.7151 -118.24 -105.363 66.7791 -118.013 -104.64 66.4905 
-117.61 -103.467 66.2549 -117.274 -102.129 65.7912 -116.984 -101.081 65.3105 
-116.458 -100.356 65.2878 -115.79 -99.6277 65.4729 -115.307 -98.7628 65.4201 
-117.007 -104.929 66.3092 -116.289 -104.21 66.0403 -116.925 -104.054 65.9914 
-115.578 -103.346 65.7076 -116.282 -103.297 65.6053 -116.909 -103.093 65.5141 
-114.679 -102.65 65.3321 -115.37 -102.724 65.1163 -116.243 -102.693 64.9588 
-116.863 -102.271 64.768 -113.621 -102.287 64.9857 -114.21 -102.406 64.6477 
-115.144 -102.391 64.5516 -116.055 -102.044 64.3915 -116.551 -101.382 64.3164 
-112.786 -101.746 64.9103 -113.177 -101.932 64.4308 -113.94 -101.807 64.3523 
-114.845 -101.427 64.4196 -115.536 -100.919 64.3545 -115.875 -100.409 64.4884 
-112.227 -100.818 65.1695 -112.403 -100.997 64.6031 -112.896 -100.83 64.375 
-113.614 -100.408 64.5077 -114.288 -100.064 64.5852 -114.837 -99.7821 64.5366 
[...]
POINT_DATA 1002
FIELD FieldData 2
Theta 1 1002 float
2.58802 2.58802 0.553574 0.553574 2.12437 1.01722 2.12437 1.01722 1.5708 
1.5708 1.5708 1.5708 2.68241 2.78649 2.89924 3.01861 3.14159 3.01861 
2.89924 2.78649 2.68241 2.61035 2.61791 2.60515 2.56958 2.51327 2.44184 
2.36202 2.27983 2.1997 2.61035 2.61791 2.60515 2.56958 2.51327 2.44184 
2.36202 2.27983 2.1997 2.50947 2.41899 2.31794 2.20864 2.0944 1.97902 
1.86631 1.75944 1.66056 2.50947 2.41899 2.31794 2.20864 2.0944 1.97902 
1.86631 1.75944 1.66056 2.61035 2.61791 2.60515 2.56958 2.51327 2.44184 
2.36202 2.27983 2.1997 2.61035 2.61791 2.60515 2.56958 2.51327 2.44184 
2.36202 2.27983 2.1997 2.50947 2.41899 2.31794 2.20864 2.0944 1.97902 
1.86631 1.75944 1.66056 2.50947 2.41899 2.31794 2.20864 2.0944 1.97902 
1.86631 1.75944 1.66056 0.459179 0.355101 0.242354 0.122983 0 0.122983 
0.242354 0.355101 0.459179 0.531246 0.523681 0.536438 0.57201 0.628319 0.699757 
0.779574 0.86176 0.941896 0.531246 0.523681 0.536438 0.57201 0.628319 0.699757 
0.779574 0.86176 0.941896 0.632123 0.7226 0.823657 0.932948 1.0472 1.16257 
1.27528 1.38216 1.48103 0.632123 0.7226 0.823657 0.932948 1.0472 1.16257 
1.27528 1.38216 1.48103 0.531246 0.523681 0.536438 0.57201 0.628319 0.699757 
0.779574 0.86176 0.941896 0.531246 0.523681 0.536438 0.57201 0.628319 0.699757 
0.779574 0.86176 0.941896 0.632123 0.7226 0.823657 0.932948 1.0472 1.16257 
1.27528 1.38216 1.48103 0.632123 0.7226 0.823657 0.932948 1.0472 1.16257 
1.27528 1.38216 1.48103 2.02998 1.9259 1.81315 1.69378 1.5708 1.44781 
1.32844 1.2157 1.11162 2.0928 2.05283 2.00422 1.94767 1.88496 1.81867 
1.75177 1.68695 1.62623 2.0928 2.05283 2.00422 1.94767 1.88496 1.81867 
1.75177 1.68695 1.62623 1.0488 1.08876 1.13737 1.19392 1.25664 1.32292 
1.38982 1.45464 1.51537 1.0488 1.08876 1.13737 1.19392 1.25664 1.32292 
1.38982 1.45464 1.51537 2.02998 1.9259 1.81315 1.69378 1.5708 1.44781 
1.32844 1.2157 1.11162 2.0928 2.05283 2.00422 1.94767 1.88496 1.81867 
1.75177 1.68695 1.62623 2.0928 2.05283 2.00422 1.94767 1.88496 1.81867 
1.75177 1.68695 1.62623 1.0488 1.08876 1.13737 1.19392 1.25664 1.32292 
1.38982 1.45464 1.51537 1.0488 1.08876 1.13737 1.19392 1.25664 1.32292 
1.38982 1.45464 1.51537 1.5708 1.5708 1.5708 1.5708 1.5708 1.5708 
1.5708 1.5708 1.5708 1.5708 1.5708 1.5708 1.5708 1.5708 1.5708 
1.5708 1.5708 1.5708 2.70908 2.71362 2.81592 2.68886 2.81002 2.92597 
2.6349 2.76254 2.89233 3.01997 2.55881 2.68262 2.80854 2.92834 3.01997 
2.47007 2.58462 2.70048 2.80854 2.89233 2.92597 2.37702 2.48017 2.58462 
2.68262 2.76254 2.81002 2.81592 2.28567 2.37702 2.47007 2.55881 2.6349 
2.68886 2.71362 2.70908 2.52097 2.4195 2.51718 2.30791 2.40503 2.49426 
2.18928 2.28408 2.3734 2.45144 2.06758 2.15805 2.24572 2.32523 2.39165 
1.94707 2.03138 2.11543 2.19453 2.26401 2.32035 1.83164 1.90847 1.98711 
2.06376 2.13422 2.1949 2.24359 1.72413 1.79288 1.86489 1.93728 2.00658 
2.06938 2.12312 2.16654 1.5708 1.50988 1.63171 1.44492 1.5708 1.69667 
1.37826 1.5059 1.63569 1.76333 1.31281 1.43962 1.5708 1.70197 1.82878 
1.25155 1.37501 1.50478 1.63681 1.76659 1.89004 1.19686 1.31493 1.44074 
1.5708 1.70086 1.82666 1.94473 1.15011 1.26149 1.38136 1.50697 1.63462 
1.76024 1.88011 1.99148 1.99148 1.88011 1.94473 1.76024 1.82666 1.89004 
1.63462 1.70086 1.76659 1.82878 1.50697 1.5708 1.63681 1.70197 1.76333 
1.38136 1.44074 1.50478 1.5708 1.63569 1.69667 1.26149 1.31493 1.37501 
1.43962 1.5059 1.5708 1.63171 1.15011 1.19686 1.25155 1.31281 1.37826 
1.44492 1.50988 1.5708 2.16654 2.12312 2.24359 2.06938 2.1949 2.32035 
2.00658 2.13422 2.26401 2.39165 1.93728 2.06376 2.19453 2.32523 2.45144 
1.86489 1.98711 2.11543 2.24572 2.3734 2.49426 1.79288 1.90847 2.03138 
2.15805 2.28408 2.40503 2.51718 1.72413 1.83164 1.94707 2.06758 2.18928 
2.30791 2.4195 2.52097 1.66533 1.66946 1.76911 1.67254 1.777 1.88041 
1.67418 1.78222 1.89102 1.99634 1.67418 1.78405 1.89674 2.00785 2.11299 
1.67254 1.78222 1.89674 2.01191 2.12307 2.22608 1.66946 1.777 1.89102 
2.00785 2.12307 2.23222 2.33166 1.66533 1.76911 1.88041 1.99634 2.11299 
2.22608 2.33166 2.42672 1.47626 1.37249 1.47213 1.26118 1.36459 1.46906 
1.14526 1.25058 1.35938 1.46741 1.0286 1.13374 1.24485 1.35755 1.46741 
0.915514 1.01852 1.12969 1.24485 1.35938 1.46906 0.809937 0.909371 1.01852 
1.13374 1.25058 1.36459 1.47213 0.714871 0.809937 0.915514 1.0286 1.14526 
1.26118 1.37249 1.47626 0.975055 0.898002 1.01847 0.821245 0.946693 1.07221 
0.749941 0.877585 1.00737 1.13501 0.690152 0.816367 0.94706 1.07784 1.20431 
0.647337 0.768195 0.895868 1.02616 1.15448 1.2767 0.624416 0.736561 0.857515 
0.983547 1.11021 1.23313 1.34871 0.620619 0.722093 0.833684 0.952313 1.07402 
1.19452 1.30996 1.41746 0.855925 0.764569 0.764569 0.671524 0.661425 0.671524 
0.582786 0.556971 0.556971 0.582786 0.506696 0.458968 0.441109 0.458968 0.506696 
0.45273 0.379052 0.333054 0.333054 0.379052 0.45273 0.427969 0.331576 0.249267 
0.21325 0.249267 0.331576 0.427969 0.432512 0.325669 0.215619 0.121622 0.121622 
0.215619 0.325669 0.432512 0.432512 0.427969 0.325669 0.45273 0.331576 0.215619 
0.506696 0.379052 0.249267 0.121622 0.582786 0.458968 0.333054 0.21325 0.121622 
0.671524 0.556971 0.441109 0.333054 0.249267 0.215619 0.764569 0.661425 0.556971 
0.458968 0.379052 0.331576 0.325669 0.855925 0.764569 0.671524 0.582786 0.506696 
0.45273 0.427969 0.432512 0.975055 1.01847 0.898002 1.07221 0.946693 0.821245 
1.13501 1.00737 0.877585 0.749941 1.20431 1.07784 0.94706 0.816367 0.690152 
1.2767 1.15448 1.02616 0.895868 0.768195 0.647337 1.34871 1.23313 1.11021 
0.983547 0.857515 0.736561 0.624416 1.41746 1.30996 1.19452 1.07402 0.952313 
0.833684 0.722093 0.620619 1.15011 1.26149 1.19686 1.38136 1.31493 1.25155 
1.50697 1.44074 1.37501 1.31281 1.63462 1.5708 1.50478 1.43962 1.37826 
1.76024 1.70086 1.63681 1.5708 1.5059 1.44492 1.88011 1.82666 1.76659 
1.70197 1.63569 1.5708 1.50988 1.99148 1.94473 1.89004 1.82878 1.76333 
1.69667 1.63171 1.5708 1.15011 1.19686 1.26149 1.25155 1.31493 1.38136 
1.31281 1.37501 1.44074 1.50697 1.37826 1.43962 1.50478 1.5708 1.63462 
1.44492 1.5059 1.5708 1.63681 1.70086 1.76024 1.50988 1.5708 1.63569 
1.70197 1.76659 1.82666 1.88011 1.5708 1.63171 1.69667 1.76333 1.82878 
1.89004 1.94473 1.99148 1.72413 1.83164 1.79288 1.94707 1.90847 1.86489 
2.06758 2.03138 1.98711 1.93728 2.18928 2.15805 2.11543 2.06376 2.00658 
2.30791 2.28408 2.24572 2.19453 2.13422 2.06938 2.4195 2.40503 2.3734 
2.32523 2.26401 2.1949 2.12312 2.52097 2.51718 2.49426 2.45144 2.39165 
2.32035 2.24359 2.16654 2.70908 2.81592 2.71362 2.92597 2.81002 2.68886 
3.01997 2.89233 2.76254 2.6349 3.01997 2.92834 2.80854 2.68262 2.55881 
2.92597 2.89233 2.80854 2.70048 2.58462 2.47007 2.81592 2.81002 2.76254 
2.68262 2.58462 2.48017 2.37702 2.70908 2.71362 2.68886 2.6349 2.55881 
2.47007 2.37702 2.28567 2.16654 2.24359 2.12312 2.32035 2.1949 2.06938 
2.39165 2.26401 2.13422 2.00658 2.45144 2.32523 2.19453 2.06376 1.93728 
2.49426 2.3734 2.24572 2.11543 1.98711 1.86489 2.51718 2.40503 2.28408 
2.15805 2.03138 1.90847 1.79288 2.52097 2.4195 2.30791 2.18928 2.06758 
1.94707 1.83164 1.72413 1.66533 1.76911 1.66946 1.88041 1.777 1.67254 
1.99634 1.89102 1.78222 1.67418 2.11299 2.00785 1.89674 1.78405 1.67418 
2.22608 2.12307 2.01191 1.89674 1.78222 1.67254 2.33166 2.23222 2.12307 
2.00785 1.89102 1.777 1.66946 2.42672 2.33166 2.22608 2.11299 1.99634 
1.88041 1.76911 1.66533 1.47626 1.47213 1.37249 1.46906 1.36459 1.26118 
1.46741 1.35938 1.25058 1.14526 1.46741 1.35755 1.24485 1.13374 1.0286 
1.46906 1.35938 1.24485 1.12969 1.01852 0.915514 1.47213 1.36459 1.25058 
1.13374 1.01852 0.909371 0.809937 1.47626 1.37249 1.26118 1.14526 1.0286 
0.915514 0.809937 0.714871 1.41746 1.30996 1.34871 1.19452 1.23313 1.2767 
1.07402 1.11021 1.15448 1.20431 0.952313 0.983547 1.02616 1.07784 1.13501 
0.833684 0.857515 0.895868 0.94706 1.00737 1.07221 0.722093 0.736561 0.768195 
0.816367 0.877585 0.946693 1.01847 0.620619 0.624416 0.647337 0.690152 0.749941 
0.821245 0.898002 0.975055 0.975055 0.898002 1.01847 0.821245 0.946693 1.07221 
0.749941 0.877585 1.00737 1.13501 0.690152 0.816367 0.94706 1.07784 1.20431 
0.647337 0.768195 0.895868 1.02616 1.15448 1.2767 0.624416 0.736561 0.857515 
0.983547 1.11021 1.23313 1.34871 0.620619 0.722093 0.833684 0.952313 1.07402 
1.19452 1.30996 1.41746 
Phi 1 1002 float
6.28319 3.14159 6.28319 3.14159 4.71239 4.71239 1.5708 1.5708 3.69517 
5.72961 2.58802 0.553574 6.28319 6.28319 6.28319 6.28319 3.14159 3.14159 
3.14159 3.14159 3.14159 6.1053 5.8988 5.67687 5.45995 5.26596 5.10322 
4.97131 4.86569 4.78095 0.177881 0.384387 0.606312 0.823235 1.01722 1.17997 
1.31187 1.4175 1.50223 6.18928 6.10703 6.03531 5.97283 5.91832 5.87061 
5.82869 5.79168 5.75886 0.0939024 0.176153 0.247873 0.310351 0.364864 0.412573 
0.454497 0.491504 0.524326 3.31947 3.52598 3.7479 3.96483 4.15881 4.32156 
4.45346 4.55909 4.64383 2.96371 2.75721 2.53528 2.31836 2.12437 1.96162 
1.82972 1.72409 1.63936 3.2355 3.31775 3.38947 3.45194 3.50646 3.55417 
3.59609 3.6331 3.66592 3.04769 2.96544 2.89372 2.83124 2.77673 2.72902 
2.6871 2.65009 2.61727 6.28319 6.28319 6.28319 6.28319 3.14159 3.14159 
3.14159 3.14159 3.14159 6.1053 5.8988 5.67687 5.45995 5.26596 5.10322 
4.97131 4.86569 4.78095 0.177881 0.384387 0.606312 0.823235 1.01722 1.17997 
1.31187 1.4175 1.50223 6.18928 6.10703 6.03531 5.97283 5.91832 5.87061 
5.82869 5.79168 5.75886 0.0939024 0.176153 0.247873 0.310351 0.364864 0.412573 
0.454497 0.491504 0.524326 3.31947 3.52598 3.7479 3.96483 4.15881 4.32156 
4.45346 4.55909 4.64383 2.96371 2.75721 2.53528 2.31836 2.12437 1.96162 
1.82972 1.72409 1.63936 3.2355 3.31775 3.38947 3.45194 3.50646 3.55417 
3.59609 3.6331 3.66592 3.04769 2.96544 2.89372 2.83124 2.77673 2.72902 
2.6871 2.65009 2.61727 4.71239 4.71239 4.71239 4.71239 4.71239 4.71239 
4.71239 4.71239 4.71239 4.60879 4.49914 4.3857 4.27128 4.15881 4.05096 
3.94976 3.85646 3.77161 4.81599 4.92564 5.03907 5.1535 5.26596 5.37381 
5.47502 5.56831 5.65317 4.60879 4.49914 4.3857 4.27128 4.15881 4.05096 
3.94976 3.85646 3.77161 4.81599 4.92564 5.03907 5.1535 5.26596 5.37381 
5.47502 5.56831 5.65317 1.5708 1.5708 1.5708 1.5708 1.5708 1.5708 
1.5708 1.5708 1.5708 1.6744 1.78405 1.89748 2.01191 2.12437 2.23222 
2.33343 2.42672 2.51157 1.4672 1.35755 1.24411 1.12969 1.01722 0.909371 
0.808166 0.714871 0.63002 1.6744 1.78405 1.89748 2.01191 2.12437 2.23222 
2.33343 2.42672 2.51157 1.4672 1.35755 1.24411 1.12969 1.01722 0.909371 
0.808166 0.714871 0.63002 3.60077 3.49669 3.38395 3.26458 3.14159 3.01861 
2.89924 2.78649 2.68241 5.82401 5.92808 6.04083 6.1602 6.28319 0.122983 
0.242354 0.355101 0.459179 6.05603 5.78856 5.97021 5.51259 5.60297 5.78856 
5.26596 5.26596 5.26596 5.26596 5.06749 5.0121 4.91556 4.71239 4.15881 
4.91556 4.83537 4.71239 4.50922 4.15881 3.63622 4.80045 4.71239 4.58941 
4.41268 4.15881 3.82181 3.45456 4.71239 4.62433 4.50922 4.35729 4.15881 
3.91219 3.63622 3.36875 6.01742 5.94343 5.82633 5.88092 5.76745 5.62798 
5.8278 5.71897 5.58911 5.43724 5.78235 5.67854 5.55757 5.41926 5.26596 
5.74316 5.64441 5.5315 5.40467 5.26596 5.11955 5.70914 5.61528 5.50962 
5.3926 5.26596 5.13292 4.99789 5.67937 5.59016 5.49102 5.38246 5.26596 
5.14407 5.02016 4.89798 5.56831 5.47502 5.47502 5.37381 5.37381 5.37381 
5.26596 5.26596 5.26596 5.26596 5.1535 5.1535 5.1535 5.1535 5.1535 
5.03907 5.03907 5.03907 5.03907 5.03907 5.03907 4.92564 4.92564 4.92564 
4.92564 4.92564 4.92564 4.92564 4.81599 4.81599 4.81599 4.81599 4.81599 
4.81599 4.81599 4.81599 4.60879 4.60879 4.49914 4.60879 4.49914 4.3857 
4.60879 4.49914 4.3857 4.27128 4.60879 4.49914 4.3857 4.27128 4.15881 
4.60879 4.49914 4.3857 4.27128 4.15881 4.05096 4.60879 4.49914 4.3857 
4.27128 4.15881 4.05096 3.94976 4.60879 4.49914 4.3857 4.27128 4.15881 
4.05096 3.94976 3.85646 4.5268 4.40462 4.42689 4.28071 4.29185 4.30523 
4.15881 4.15881 4.15881 4.15881 4.04232 4.03217 4.02011 4.00552 3.98753 
3.93376 3.91515 3.89328 3.86721 3.83566 3.7968 3.83461 3.8095 3.78037 
3.74624 3.70581 3.65733 3.59845 3.7454 3.71564 3.68161 3.64243 3.59698 
3.54386 3.48135 3.40735 3.56428 3.45246 3.52338 3.33203 3.40312 3.47739 
3.20576 3.27463 3.34802 3.42551 3.07742 3.14159 3.21128 3.28647 3.36688 
2.95116 3.00855 3.0719 3.14159 3.21784 3.3006 2.83072 2.88006 2.93517 
2.99672 3.06535 3.14159 3.22575 2.7189 2.7598 2.8058 2.85768 2.9163 
2.98259 3.05743 3.14159 3.56428 3.52338 3.45246 3.47739 3.40312 3.33203 
3.42551 3.34802 3.27463 3.20576 3.36688 3.28647 3.21128 3.14159 3.07742 
3.3006 3.21784 3.14159 3.0719 3.00855 2.95116 3.22575 3.14159 3.06535 
2.99672 2.93517 2.88006 2.83072 3.14159 3.05743 2.98259 2.9163 2.85768 
2.8058 2.7598 2.7189 4.5268 4.42689 4.40462 4.30523 4.29185 4.28071 
4.15881 4.15881 4.15881 4.15881 3.98753 4.00552 4.02011 4.03217 4.04232 
3.7968 3.83566 3.86721 3.89328 3.91515 3.93376 3.59845 3.65733 3.70581 
3.74624 3.78037 3.8095 3.83461 3.40735 3.48135 3.54386 3.59698 3.64243 
3.68161 3.71564 3.7454 4.71239 4.80045 4.62433 4.91556 4.71239 4.50922 
5.06749 4.83537 4.58941 4.35729 5.26596 5.0121 4.71239 4.41268 4.15881 
5.51259 5.26596 4.91556 4.50922 4.15881 3.91219 5.78856 5.60297 5.26596 
4.71239 4.15881 3.82181 3.63622 6.05603 5.97021 5.78856 5.26596 4.15881 
3.63622 3.45456 3.36875 0.227158 0.494626 0.312971 0.770593 0.680215 0.494626 
1.01722 1.01722 1.01722 1.01722 1.2157 1.27109 1.36763 1.5708 2.12437 
1.36763 1.44781 1.5708 1.77397 2.12437 2.64697 1.48273 1.5708 1.69378 
1.8705 2.12437 2.46138 2.82862 1.5708 1.65886 1.77397 1.9259 2.12437 
2.371 2.64697 2.91443 1.75639 1.87857 1.8563 2.00248 1.99133 1.97796 
2.12437 2.12437 2.12437 2.12437 2.24087 2.25101 2.26308 2.27767 2.29565 
2.34943 2.36803 2.38991 2.41597 2.44752 2.48639 2.44857 2.47368 2.50281 
2.53694 2.57738 2.62586 2.68474 2.53778 2.56754 2.60157 2.64076 2.68621 
2.73933 2.80184 2.87583 1.6744 1.6744 1.78405 1.6744 1.78405 1.89748 
1.6744 1.78405 1.89748 2.01191 1.6744 1.78405 1.89748 2.01191 2.12437 
1.6744 1.78405 1.89748 2.01191 2.12437 2.23222 1.6744 1.78405 1.89748 
2.01191 2.12437 2.23222 2.33343 1.6744 1.78405 1.89748 2.01191 2.12437 
2.23222 2.33343 2.42672 1.4672 1.35755 1.4672 1.24411 1.35755 1.4672 
1.12969 1.24411 1.35755 1.4672 1.01722 1.12969 1.24411 1.35755 1.4672 
0.909371 1.01722 1.12969 1.24411 1.35755 1.4672 0.808166 0.909371 1.01722 
1.12969 1.24411 1.35755 1.4672 0.714871 0.808166 0.909371 1.01722 1.12969 
1.24411 1.35755 1.4672 0.603812 0.57405 0.693022 0.540021 0.667908 0.792164 
0.500837 0.638778 0.773562 0.900726 0.455383 0.604649 0.751687 0.890581 1.01722 
0.402264 0.564217 0.725619 0.878514 1.01722 1.13912 0.339753 0.515737 0.694072 
0.863926 1.01722 1.15026 1.26302 0.265762 0.456853 0.655207 0.845941 1.01722 
1.16363 1.28529 1.38521 0.227158 0.312971 0.494626 0.494626 0.680215 0.770593 
1.01722 1.01722 1.01722 1.01722 2.12437 1.5708 1.36763 1.27109 1.2157 
2.64697 2.12437 1.77397 1.5708 1.44781 1.36763 2.82862 2.46138 2.12437 
1.8705 1.69378 1.5708 1.48273 2.91443 2.64697 2.371 2.12437 1.9259 
1.77397 1.65886 1.5708 1.75639 1.8563 1.87857 1.97796 1.99133 2.00248 
2.12437 2.12437 2.12437 2.12437 2.29565 2.27767 2.26308 2.25101 2.24087 
2.48639 2.44752 2.41597 2.38991 2.36803 2.34943 2.68474 2.62586 2.57738 
2.53694 2.50281 2.47368 2.44857 2.87583 2.80184 2.73933 2.68621 2.64076 
2.60157 2.56754 2.53778 5.86049 5.90139 5.97231 5.94739 6.02165 6.09275 
5.99927 6.07676 6.15015 6.21902 6.0579 6.13831 6.2135 0 0.0641696 
6.12418 6.20694 6.28319 0.069689 0.13304 0.190437 6.19903 0 0.0762451 
0.144876 0.206423 0.261531 0.310872 0 0.0841597 0.159004 0.225289 0.283913 
0.335793 0.381792 0.422692 5.86049 5.97231 5.90139 6.09275 6.02165 5.94739 
6.21902 6.15015 6.07676 5.99927 0.0641696 0 6.2135 6.13831 6.0579 
0.190437 0.13304 0.069689 6.28319 6.20694 6.12418 0.310872 0.261531 0.206423 
0.144876 0.0762451 6.28319 6.19903 0.422692 0.381792 0.335793 0.283913 0.225289 
0.159004 0.0841597 0 5.67937 5.70914 5.59016 5.74316 5.61528 5.49102 
5.78235 5.64441 5.50962 5.38246 5.8278 5.67854 5.5315 5.3926 5.26596 
5.88092 5.71897 5.55757 5.40467 5.26596 5.14407 5.94343 5.76745 5.58911 
5.41926 5.26596 5.13292 5.02016 6.01742 5.82633 5.62798 5.43724 5.26596 
5.11955 4.99789 4.89798 1.38521 1.28529 1.26302 1.16363 1.15026 1.13912 
1.01722 1.01722 1.01722 1.01722 0.845941 0.863926 0.878514 0.890581 0.900726 
0.655207 0.694072 0.725619 0.751687 0.773562 0.792164 0.456853 0.515737 0.564217 
0.604649 0.638778 0.667908 0.693022 0.265762 0.339753 0.402264 0.455383 0.500837 
0.540021 0.57405 0.603812 
