# vtk DataFile Version 4.0
vtk output
ASCII
DATASET POLYDATA
POINTS 1002 float
-118.911 -99.338 68.7726 -114.556 -90.9437 67.3401 -113.884 -101.983 69.4162 
-108.382 -94.726 68.7516 -115.411 -96.5461 64.404 -111.925 -98.286 64.6846 
-115.424 -95.43 73.1532 -112.872 -96.8751 73.461 -108.52 -89.5391 64.4947 
-118.165 -104.884 66.2111 -110.177 -89.5499 70.7796 -118.247 -104.244 72.953 
-118.452 -98.616 68.5201 -118.126 -97.696 68.4015 -117.722 -96.787 68.4318 
-117.26 -95.8135 68.4017 -117.001 -94.6711 68.2013 -116.603 -93.8287 68.017 
-115.701 -93.4261 67.9205 -114.895 -92.8238 67.754 -114.641 -91.8379 67.5112 
-118.768 -99.2809 68.1871 -118.641 -99.1046 67.6409 -118.509 -98.7985 67.1195 
-118.123 -98.507 66.6395 -117.577 -98.2352 66.2403 -117.308 -97.801 65.72 
-117.16 -97.3016 65.0571 -116.663 -96.9973 64.6379 -115.956 -96.818 64.5309 
-118.706 -98.9249 69.2171 -118.561 -98.3831 69.6991 -118.313 -97.9083 70.1551 
-117.795 -97.619 70.5971 -117.289 -97.3035 71.077 -116.978 -96.8088 71.5804 
-116.533 -96.3641 72.0668 -115.964 -96.0931 72.4862 -115.602 -95.8182 72.8267 
-119.475 -99.7861 68.6702 -119.985 -100.125 68.4461 -120.11 -100.744 68.0238 
-120.046 -101.794 67.5046 -120.133 -102.861 67.0828 -120.066 -103.614 66.8822 
-119.586 -104.143 66.8391 -119.016 -104.547 66.7356 -118.575 -104.798 66.4822 
-119.277 -99.7512 69.2864 -119.413 -100.345 69.6195 -119.294 -101.108 69.7555 
-119.174 -101.816 70.006 -119.04 -102.403 70.4134 -118.691 -102.94 70.7117 
-118.408 -103.366 71.0805 -118.447 -103.697 71.782 -118.499 -104.016 72.529 
-114.673 -91.1235 66.9362 -114.625 -91.5938 66.5871 -114.541 -92.2373 66.2091 
-114.713 -92.7417 65.6804 -115.101 -93.1494 65.1685 -115.328 -93.8012 64.884 
-115.339 -94.6247 64.6974 -115.344 -95.3286 64.5223 -115.38 -95.9292 64.4418 
-114.464 -91.3807 67.8632 -114.453 -91.7985 68.4821 -114.61 -92.117 69.2082 
-114.781 -92.5286 69.9622 -114.867 -93.0589 70.6493 -114.991 -93.5253 71.2786 
-115.203 -93.9631 71.8734 -115.382 -94.4473 72.402 -115.441 -94.937 72.8272 
-114.312 -90.4184 66.9823 -113.679 -90.1869 66.6049 -112.933 -89.98 66.1714 
-112.384 -89.5214 65.7403 -111.864 -88.9815 65.3926 -111.193 -88.648 65.0727 
-110.501 -88.5456 64.7515 -109.8 -88.6614 64.539 -109.079 -89.017 64.4732 
-114.204 -90.5588 67.6051 -113.605 -90.3334 67.9689 -113.008 -90.0739 68.3348 
-112.663 -89.6031 68.7621 -112.471 -88.9893 69.4018 -112.198 -88.5423 70.0308 
-111.779 -88.5157 70.2776 -111.247 -88.828 70.2902 -110.673 -89.219 70.4461 
-113.489 -101.434 69.2952 -113.048 -100.752 69.287 -112.375 -100.063 69.4105 
-111.64 -99.3224 69.486 -111.044 -98.3804 69.3939 -110.372 -97.4862 69.2442 
-109.604 -96.8669 69.1208 -109.023 -96.2654 68.9999 -108.657 -95.5062 68.8787 
-113.491 -102.076 68.9803 -113.049 -102.162 68.4925 -112.847 -101.926 67.9974 
-112.929 -101.273 67.5187 -112.923 -100.608 66.9787 -112.682 -100.155 66.393 
-112.425 -99.6867 65.8959 -112.228 -99.1684 65.4597 -112.053 -98.7208 65.0261 
-113.891 -101.645 69.7747 -113.803 -101.292 70.222 -113.707 -100.833 70.7155 
-113.625 -100.289 71.1923 -113.42 -99.798 71.6676 -113.168 -99.2939 72.1486 
-113.077 -98.655 72.5627 -113.076 -97.9717 72.8779 -113.006 -97.3686 73.1596 
-114.223 -102.461 69.2791 -114.774 -102.934 69.0087 -115.285 -103.582 68.5311 
-115.423 -104.452 67.9555 -115.426 -105.193 67.4 -115.854 -105.506 66.8345 
-116.655 -105.552 66.3328 -117.361 -105.515 66.0942 -117.825 -105.309 66.1162 
-114.364 -102.296 69.7493 -114.841 -102.74 70.0659 -115.219 -103.34 70.4582 
-115.465 -104.011 70.9944 -115.735 -104.495 71.5025 -116.157 -104.643 71.8685 
-116.691 -104.664 72.2322 -117.285 -104.703 72.6206 -117.852 -104.604 72.8855 
-108.479 -95.0154 68.3394 -108.468 -95.4922 67.8595 -108.326 -96.096 67.3141 
-108.479 -96.5208 66.7458 -109.102 -96.6678 66.2544 -109.793 -96.8165 65.851 
-110.4 -97.1078 65.4916 -111.03 -97.4527 65.2106 -111.571 -97.8387 64.9768 
-108.575 -94.9376 69.2314 -109.021 -95.0607 69.7079 -109.563 -95.1083 70.1454 
-110.083 -95.2015 70.5614 -110.693 -95.3893 70.9799 -111.289 -95.6816 71.4724 
-111.666 -96.0615 72.0944 -111.992 -96.4079 72.7052 -112.433 -96.6586 73.148 
-108.186 -94.1222 68.3542 -107.862 -93.5602 67.9126 -107.21 -93.0257 67.4458 
-106.549 -92.3859 67.0704 -106.634 -91.6922 66.9063 -107.418 -91.1478 66.6797 
-107.966 -90.6769 65.9998 -107.995 -90.1384 65.1244 -108.069 -89.699 64.598 
-108.24 -94.102 68.8561 -108.297 -93.3586 68.8904 -108.44 -92.4776 69.0126 
-108.397 -91.7234 69.3451 -108.411 -91.2697 69.6666 -108.836 -90.8373 69.7994 
-109.28 -90.2669 69.9947 -109.438 -89.801 70.3754 -109.66 -89.5883 70.6861 
-115.215 -96.71 64.1206 -115.031 -96.8345 63.7249 -114.645 -96.908 63.5627 
-114.006 -96.9827 63.7389 -113.383 -97.2132 63.8472 -112.948 -97.6361 63.7083 
-112.592 -98.0265 63.6636 -112.275 -98.2207 63.9038 -112.058 -98.2771 64.2932 
-114.993 -95.72 64.1145 -114.486 -94.8308 63.6856 -113.701 -94.1738 63.489 
-112.797 -93.7456 63.7618 -112.044 -93.092 64.046 -111.392 -92.1385 64.0102 
-110.723 -91.3364 64.094 -109.996 -90.7544 64.4192 -109.208 -90.1426 64.5708 
-115.764 -97.4436 64.423 -116.266 -98.3858 64.3337 -116.906 -99.1831 64.2401 
-117.506 -99.8733 64.273 -117.894 -100.913 64.3927 -118.136 -102.234 64.5343 
-118.31 -103.093 64.8673 -118.339 -103.499 65.4527 -118.249 -104.076 65.9796 
-111.618 -97.4557 64.6605 -111.098 -96.636 64.5266 -110.351 -96.05 64.1533 
-109.732 -95.4874 63.8859 -109.465 -94.5159 64.0389 -109.315 -93.236 64.3181 
-109.066 -92.1157 64.453 -108.768 -91.2579 64.5344 -108.553 -90.4307 64.5671 
-112.315 -99.0252 64.5498 -112.918 -99.6562 64.6214 -113.662 -100.318 64.8208 
-114.302 -101.313 64.7362 -114.887 -102.409 64.4428 -115.563 -103.06 64.5873 
-116.284 -103.366 65.1874 -117.016 -103.777 65.6842 -117.68 -104.344 65.9541 
-115.303 -95.4621 73.5975 -115.179 -95.4921 74.1739 -115.028 -95.6018 74.7775 
-114.742 -95.8259 75.1387 -114.202 -96.0527 75.1469 -113.535 -96.2271 74.981 
-113.094 -96.4163 74.7355 -112.983 -96.6043 74.3493 -112.971 -96.7461 73.8799 
-115.177 -94.6614 73.3331 -114.681 -93.9744 73.4489 -114.212 -93.3415 73.3823 
-113.986 -92.391 73.3179 -113.569 -91.1956 73.4248 -112.818 -90.4474 73.2814 
-112.184 -90.2774 72.5771 -111.614 -90.1673 71.7457 -110.876 -89.8856 71.1774 
-115.526 -96.2242 73.2495 -115.854 -96.9245 73.4294 -116.493 -97.4469 73.6932 
-117.061 -98.0916 73.8516 -117.259 -99.0671 73.709 -117.392 -100.168 73.3666 
-117.71 -101.302 73.117 -118.04 -102.472 73.07 -118.222 -103.493 73.0714 
-112.504 -96.2689 73.5749 -112.221 -95.5351 73.5748 -112.009 -94.6714 73.39 
-111.737 -93.8695 73.0425 -111.356 -93.0326 72.6224 -110.941 -91.8925 72.3285 
-110.571 -90.8288 72.218 -110.305 -90.2793 71.9818 -110.174 -89.9726 71.4289 
-113.354 -97.4346 73.5756 -113.829 -98.1311 73.7793 -114.302 -98.8734 73.9832 
-114.794 -99.5486 74.011 -115.327 -100.237 73.9062 -115.887 -101.124 73.7064 
-116.439 -102.191 73.3815 -117.057 -103.186 73.1648 -117.731 -103.873 73.1315 
-108.319 -88.6958 64.4249 -108.376 -88.1551 64.6947 -108.596 -88.0531 65.4769 
-108.751 -88.024 66.5592 -108.818 -87.8668 67.6412 -109.031 -87.8969 68.559 
-109.415 -88.1637 69.2291 -109.73 -88.5114 69.7185 -109.926 -88.9979 70.2071 
-118.38 -105.636 66.4516 -118.598 -106.144 66.8077 -118.79 -106.423 67.405 
-118.927 -106.651 68.3306 -118.935 -106.72 69.4764 -118.747 -106.479 70.3986 
-118.498 -106.007 70.9937 -118.389 -105.407 71.6607 -118.368 -104.799 72.4283 
-118.342 -98.4378 67.9682 -118.319 -98.0578 67.4558 -118.065 -97.3547 67.8895 
-118.157 -97.6534 66.8915 -118.02 -96.8918 67.2914 -117.639 -96.3634 67.8794 
-117.671 -97.4186 66.4015 -117.706 -96.5627 66.6465 -117.476 -95.9394 67.1679 
-117.161 -95.3658 67.7609 -117.218 -97.1611 66.0034 -117.168 -96.3811 66.2197 
-117.079 -95.6234 66.5479 -116.913 -94.987 67.074 -116.778 -94.3449 67.5652 
-116.995 -96.7274 65.4164 -116.751 -96.1007 65.8193 -116.606 -95.3357 66.1361 
-116.492 -94.663 66.5167 -116.324 -94.123 67.0012 -116.078 -93.6779 67.4509 
-116.603 -96.3763 64.8213 -116.383 -95.7782 65.2215 -116.208 -95.0337 65.6311 
-116.067 -94.3474 65.9717 -115.802 -93.9022 66.4281 -115.495 -93.4848 66.9266 
-115.201 -93.0856 67.3469 -115.954 -96.185 64.5627 -115.869 -95.5688 64.756 
-115.795 -94.8121 65.0728 -115.702 -94.0408 65.367 -115.396 -93.5683 65.7695 
-115.029 -93.1918 66.3174 -114.857 -92.6379 66.7826 -114.776 -92.1246 67.1434 
-119.285 -99.7288 68.0037 -119.78 -100.065 67.612 -119.088 -99.6231 67.3323 
-120.068 -100.677 67.0509 -119.611 -100.012 66.8073 -118.808 -99.432 66.7707 
-120.152 -101.669 66.62 -119.949 -100.611 66.3135 -119.197 -99.9103 66.3322 
-118.204 -99.2073 66.3866 -119.925 -102.617 66.4928 -119.784 -101.515 66.1411 
-119.346 -100.501 66.0279 -118.404 -99.7462 66.0564 -117.613 -98.8789 65.9674 
-119.392 -103.241 66.521 -119.212 -102.371 66.1499 -119.075 -101.287 65.8553 
-118.559 -100.28 65.6627 -117.802 -99.4342 65.5198 -117.392 -98.3909 65.3114 
-118.921 -103.642 66.454 -118.774 -102.965 66.0362 -118.729 -102.084 65.6144 
-118.592 -100.88 65.2311 -118.069 -99.8858 64.9751 -117.478 -99.0071 64.862 
-117.081 -97.9598 64.7524 -118.615 -103.921 66.2226 -118.602 -103.33 65.7432 
-118.544 -102.735 65.2494 -118.465 -101.587 64.8617 -118.177 -100.32 64.5766 
-117.586 -99.4634 64.468 -116.946 -98.6575 64.5063 -116.416 -97.7028 64.5448 
-117.76 -103.652 65.4891 -117.049 -103.28 64.9092 -117.82 -103.229 64.7322 
-116.277 -102.943 64.3231 -117.039 -102.771 64.1131 -117.664 -102.645 64.2226 
-115.542 -102.386 64.1383 -116.264 -102.057 63.8875 -116.811 -101.819 63.9222 
-117.348 -101.502 64.1924 -114.833 -101.422 64.4276 -115.554 -101.171 64.1525 
-116.098 -100.916 64.0103 -116.517 -100.747 64.0958 -117.062 -100.351 64.2057 
-114.078 -100.43 64.5171 -114.752 -100.317 64.3602 -115.401 -100.154 64.2513 
-115.853 -100.143 64.1196 -116.292 -99.9835 64.0173 -116.69 -99.5784 64.0527 
-113.223 -99.7464 64.2055 -113.79 -99.6692 64.0683 -114.46 -99.4616 64.2075 
-115.025 -99.3815 64.2365 -115.532 -99.3569 63.9612 -115.941 -99.1296 63.7857 
[...]
POINT_DATA 1002
FIELD FieldData 2
Theta 1 1002 float
2.58802 2.58802 0.553574 0.553574 2.12437 1.01722 2.12437 1.01722 1.5708 
1.5708 1.5708 1.5708 2.68241 2.78649 2.89924 3.01861 3.14159 3.01861 
2.89924 2.78649 2.68241 2.61035 2.61791 2.60515 2.56958 2.51327 2.44184 
2.36202 2.27983 2.1997 2.61035 2.61791 2.60515 2.56958 2.51327 2.44184 
2.36202 2.27983 2.1997 2.50947 2.41899 2.31794 2.20864 2.0944 1.97902 
1.86631 1.75944 1.66056 2.50947 2.41899 2.31794 2.20864 2.0944 1.97902 
1.86631 1.75944 1.66056 2.61035 2.61791 2.60515 2.56958 2.51327 2.44184 
2.36202 2.27983 2.1997 2.61035 2.61791 2.60515 2.56958 2.51327 2.44184 
2.36202 2.27983 2.1997 2.50947 2.41899 2.31794 2.20864 2.0944 1.97902 
1.86631 1.75944 1.66056 2.50947 2.41899 2.31794 2.20864 2.0944 1.97902 
1.86631 1.75944 1.66056 0.459179 0.355101 0.242354 0.122983 0 0.122983 
0.242354 0.355101 0.459179 0.531246 0.523681 0.536438 0.57201 0.628319 0.699757 
0.779574 0.86176 0.941896 0.531246 0.523681 0.536438 0.57201 0.628319 0.699757 
0.779574 0.86176 0.941896 0.632123 0.7226 0.823657 0.932948 1.0472 1.16257 
1.27528 1.38216 1.48103 0.632123 0.7226 0.823657 0.932948 1.0472 1.16257 
1.27528 1.38216 1.48103 0.531246 0.523681 0.536438 0.57201 0.628319 0.699757 
0.779574 0.86176 0.941896 0.531246 0.523681 0.536438 0.57201 0.628319 0.699757 
0.779574 0.86176 0.941896 0.632123 0.7226 0.823657 0.932948 1.0472 1.16257 
1.27528 1.38216 1.48103 0.632123 0.7226 0.823657 0.932948 1.0472 1.16257 
1.27528 1.38216 1.48103 2.02998 1.9259 1.81315 1.69378 1.5708 1.44781 
1.32844 1.2157 1.11162 2.0928 2.05283 2.00422 1.94767 1.88496 1.81867 
1.75177 1.68695 1.62623 2.0928 2.05283 2.00422 1.94767 1.88496 1.81867 
1.75177 1.68695 1.62623 1.0488 1.08876 1.13737 1.19392 1.25664 1.32292 
1.38982 1.45464 1.51537 1.0488 1.08876 1.13737 1.19392 1.25664 1.32292 
1.38982 1.45464 1.51537 2.02998 1.9259 1.81315 1.69378 1.5708 1.44781 
1.32844 1.2157 1.11162 2.0928 2.05283 2.00422 1.94767 1.88496 1.81867 
1.75177 1.68695 1.62623 2.0928 2.05283 2.00422 1.94767 1.88496 1.81867 
1.75177 1.68695 1.62623 1.0488 1.08876 1.13737 1.19392 1.25664 1.32292 
1.38982 1.45464 1.51537 1.0488 1.08876 1.13737 1.19392 1.25664 1.32292 
1.38982 1.45464 1.51537 1.5708 1.5708 1.5708 1.5708 1.5708 1.5708 
1.5708 1.5708 1.5708 1.5708 1.5708 1.5708 1.5708 1.5708 1.5708 
1.5708 1.5708 1.5708 2.70908 2.71362 2.81592 2.68886 2.81002 2.92597 
2.6349 2.76254 2.89233 3.01997 2.55881 2.68262 2.80854 2.92834 3.01997 
2.47007 2.58462 2.70048 2.80854 2.89233 2.92597 2.37702 2.48017 2.58462 
2.68262 2.76254 2.81002 2.81592 2.28567 2.37702 2.47007 2.55881 2.6349 
2.68886 2.71362 2.70908 2.52097 2.4195 2.51718 2.30791 2.40503 2.49426 
2.18928 2.28408 2.3734 2.45144 2.06758 2.15805 2.24572 2.32523 2.39165 
1.94707 2.03138 2.11543 2.19453 2.26401 2.32035 1.83164 1.90847 1.98711 
2.06376 2.13422 2.1949 2.24359 1.72413 1.79288 1.86489 1.93728 2.00658 
2.06938 2.12312 2.16654 1.5708 1.50988 1.63171 1.44492 1.5708 1.69667 
1.37826 1.5059 1.63569 1.76333 1.31281 1.43962 1.5708 1.70197 1.82878 
1.25155 1.37501 1.50478 1.63681 1.76659 1.89004 1.19686 1.31493 1.44074 
1.5708 1.70086 1.82666 1.94473 1.15011 1.26149 1.38136 1.50697 1.63462 
1.76024 1.88011 1.99148 1.99148 1.88011 1.94473 1.76024 1.82666 1.89004 
1.63462 1.70086 1.76659 1.82878 1.50697 1.5708 1.63681 1.70197 1.76333 
1.38136 1.44074 1.50478 1.5708 1.63569 1.69667 1.26149 1.31493 1.37501 
1.43962 1.5059 1.5708 1.63171 1.15011 1.19686 1.25155 1.31281 1.37826 
1.44492 1.50988 1.5708 2.16654 2.12312 2.24359 2.06938 2.1949 2.32035 
2.00658 2.13422 2.26401 2.39165 1.93728 2.06376 2.19453 2.32523 2.45144 
1.86489 1.98711 2.11543 2.24572 2.3734 2.49426 1.79288 1.90847 2.03138 
2.15805 2.28408 2.40503 2.51718 1.72413 1.83164 1.94707 2.06758 2.18928 
2.30791 2.4195 2.52097 1.66533 1.66946 1.76911 1.67254 1.777 1.88041 
1.67418 1.78222 1.89102 1.99634 1.67418 1.78405 1.89674 2.00785 2.11299 
1.67254 1.78222 1.89674 2.01191 2.12307 2.22608 1.66946 1.777 1.89102 
2.00785 2.12307 2.23222 2.33166 1.66533 1.76911 1.88041 1.99634 2.11299 
2.22608 2.33166 2.42672 1.47626 1.37249 1.47213 1.26118 1.36459 1.46906 
1.14526 1.25058 1.35938 1.46741 1.0286 1.13374 1.24485 1.35755 1.46741 
0.915514 1.01852 1.12969 1.24485 1.35938 1.46906 0.809937 0.909371 1.01852 
1.13374 1.25058 1.36459 1.47213 0.714871 0.809937 0.915514 1.0286 1.14526 
1.26118 1.37249 1.47626 0.975055 0.898002 1.01847 0.821245 0.946693 1.07221 
0.749941 0.877585 1.00737 1.13501 0.690152 0.816367 0.94706 1.07784 1.20431 
0.647337 0.768195 0.895868 1.02616 1.15448 1.2767 0.624416 0.736561 0.857515 
0.983547 1.11021 1.23313 1.34871 0.620619 0.722093 0.833684 0.952313 1.07402 
1.19452 1.30996 1.41746 0.855925 0.764569 0.764569 0.671524 0.661425 0.671524 
0.582786 0.556971 0.556971 0.582786 0.506696 0.458968 0.441109 0.458968 0.506696 
0.45273 0.379052 0.333054 0.333054 0.379052 0.45273 0.427969 0.331576 0.249267 
0.21325 0.249267 0.331576 0.427969 0.432512 0.325669 0.215619 0.121622 0.121622 
0.215619 0.325669 0.432512 0.432512 0.427969 0.325669 0.45273 0.331576 0.215619 
0.506696 0.379052 0.249267 0.121622 0.582786 0.458968 0.333054 0.21325 0.121622 
0.671524 0.556971 0.441109 0.333054 0.249267 0.215619 0.764569 0.661425 0.556971 
0.458968 0.379052 0.331576 0.325669 0.855925 0.764569 0.671524 0.582786 0.506696 
0.45273 0.427969 0.432512 0.975055 1.01847 0.898002 1.07221 0.946693 0.821245 
1.13501 1.00737 0.877585 0.749941 1.20431 1.07784 0.94706 0.816367 0.690152 
1.2767 1.15448 1.02616 0.895868 0.768195 0.647337 1.34871 1.23313 1.11021 
0.983547 0.857515 0.736561 0.624416 1.41746 1.30996 1.19452 1.07402 0.952313 
0.833684 0.722093 0.620619 1.15011 1.26149 1.19686 1.38136 1.31493 1.25155 
1.50697 1.44074 1.37501 1.31281 1.63462 1.5708 1.50478 1.43962 1.37826 
1.76024 1.70086 1.63681 1.5708 1.5059 1.44492 1.88011 1.82666 1.76659 
1.70197 1.63569 1.5708 1.50988 1.99148 1.94473 1.89004 1.82878 1.76333 
1.69667 1.63171 1.5708 1.15011 1.19686 1.26149 1.25155 1.31493 1.38136 
1.31281 1.37501 1.44074 1.50697 1.37826 1.43962 1.50478 1.5708 1.63462 
1.44492 1.5059 1.5708 1.63681 1.70086 1.76024 1.50988 1.5708 1.63569 
1.70197 1.76659 1.82666 1.88011 1.5708 1.63171 1.69667 1.76333 1.82878 
1.89004 1.94473 1.99148 1.72413 1.83164 1.79288 1.94707 1.90847 1.86489 
2.06758 2.03138 1.98711 1.93728 2.18928 2.15805 2.11543 2.06376 2.00658 
2.30791 2.28408 2.24572 2.19453 2.13422 2.06938 2.4195 2.40503 2.3734 
2.32523 2.26401 2.1949 2.12312 2.52097 2.51718 2.49426 2.45144 2.39165 
2.32035 2.24359 2.16654 2.70908 2.81592 2.71362 2.92597 2.81002 2.68886 
3.01997 2.89233 2.76254 2.6349 3.01997 2.92834 2.80854 2.68262 2.55881 
2.92597 2.89233 2.80854 2.70048 2.58462 2.47007 2.81592 2.81002 2.76254 
2.68262 2.58462 2.48017 2.37702 2.70908 2.71362 2.68886 2.6349 2.55881 
2.47007 2.37702 2.28567 2.16654 2.24359 2.12312 2.32035 2.1949 2.06938 
2.39165 2.26401 2.13422 2.00658 2.45144 2.32523 2.19453 2.06376 1.93728 
2.49426 2.3734 2.24572 2.11543 1.98711 1.86489 2.51718 2.40503 2.28408 
2.15805 2.03138 1.90847 1.79288 2.52097 2.4195 2.30791 2.18928 2.06758 
1.94707 1.83164 1.72413 1.66533 1.76911 1.66946 1.88041 1.777 1.67254 
1.99634 1.89102 1.78222 1.67418 2.11299 2.00785 1.89674 1.78405 1.67418 
2.22608 2.12307 2.01191 1.89674 1.78222 1.67254 2.33166 2.23222 2.12307 
2.00785 1.89102 1.777 1.66946 2.42672 2.33166 2.22608 2.11299 1.99634 
1.88041 1.76911 1.66533 1.47626 1.47213 1.37249 1.46906 1.36459 1.26118 
1.46741 1.35938 1.25058 1.14526 1.46741 1.35755 1.24485 1.13374 1.0286 
1.46906 1.35938 1.24485 1.12969 1.01852 0.915514 1.47213 1.36459 1.25058 
1.13374 1.01852 0.909371 0.809937 1.47626 1.37249 1.26118 1.14526 1.0286 
0.915514 0.809937 0.714871 1.41746 1.30996 1.34871 1.19452 1.23313 1.2767 
1.07402 1.11021 1.15448 1.20431 0.952313 0.983547 1.02616 1.07784 1.13501 
0.833684 0.857515 0.895868 0.94706 1.00737 1.07221 0.722093 0.736561 0.768195 
0.816367 0.877585 0.946693 1.01847 0.620619 0.624416 0.647337 0.690152 0.749941 
0.821245 0.898002 0.975055 0.975055 0.898002 1.01847 0.821245 0.946693 1.07221 
0.749941 0.877585 1.00737 1.13501 0.690152 0.816367 0.94706 1.07784 1.20431 
0.647337 0.768195 0.895868 1.02616 1.15448 1.2767 0.624416 0.736561 0.857515 
0.983547 1.11021 1.23313 1.34871 0.620619 0.722093 0.833684 0.952313 1.07402 
1.19452 1.30996 1.41746 
Phi 1 1002 float
6.28319 3.14159 6.28319 3.14159 4.71239 4.71239 1.5708 1.5708 3.69517 
5.72961 2.58802 0.553574 6.28319 6.28319 6.28319 6.28319 3.14159 3.14159 
3.14159 3.14159 3.14159 6.1053 5.8988 5.67687 5.45995 5.26596 5.10322 
4.97131 4.86569 4.78095 0.177881 0.384387 0.606312 0.823235 1.01722 1.17997 
1.31187 1.4175 1.50223 6.18928 6.10703 6.03531 5.97283 5.91832 5.87061 
5.82869 5.79168 5.75886 0.0939024 0.176153 0.247873 0.310351 0.364864 0.412573 
0.454497 0.491504 0.524326 3.31947 3.52598 3.7479 3.96483 4.15881 4.32156 
4.45346 4.55909 4.64383 2.96371 2.75721 2.53528 2.31836 2.12437 1.96162 
1.82972 1.72409 1.63936 3.2355 3.31775 3.38947 3.45194 3.50646 3.55417 
3.59609 3.6331 3.66592 3.04769 2.96544 2.89372 2.83124 2.77673 2.72902 
2.6871 2.65009 2.61727 6.28319 6.28319 6.28319 6.28319 3.14159 3.14159 
3.14159 3.14159 3.14159 6.1053 5.8988 5.67687 5.45995 5.26596 5.10322 
4.97131 4.86569 4.78095 0.177881 0.384387 0.606312 0.823235 1.01722 1.17997 
1.31187 1.4175 1.50223 6.18928 6.10703 6.03531 5.97283 5.91832 5.87061 
5.82869 5.79168 5.75886 0.0939024 0.176153 0.247873 0.310351 0.364864 0.412573 
0.454497 0.491504 0.524326 3.31947 3.52598 3.7479 3.96483 4.15881 4.32156 
4.45346 4.55909 4.64383 2.96371 2.75721 2.53528 2.31836 2.12437 1.96162 
1.82972 1.72409 1.63936 3.2355 3.31775 3.38947 3.45194 3.50646 3.55417 
3.59609 3.6331 3.66592 3.04769 2.96544 2.89372 2.83124 2.77673 2.72902 
2.6871 2.65009 2.61727 4.71239 4.71239 4.71239 4.71239 4.71239 4.71239 
4.71239 4.71239 4.71239 4.60879 4.49914 4.3857 4.27128 4.15881 4.05096 
3.94976 3.85646 3.77161 4.81599 4.92564 5.03907 5.1535 5.26596 5.37381 
5.47502 5.56831 5.65317 4.60879 4.49914 4.3857 4.27128 4.15881 4.05096 
3.94976 3.85646 3.77161 4.81599 4.92564 5.03907 5.1535 5.26596 5.37381 
5.47502 5.56831 5.65317 1.5708 1.5708 1.5708 1.5708 1.5708 1.5708 
1.5708 1.5708 1.5708 1.6744 1.78405 1.89748 2.01191 2.12437 2.23222 
2.33343 2.42672 2.51157 1.4672 1.35755 1.24411 1.12969 1.01722 0.909371 
0.808166 0.714871 0.63002 1.6744 1.78405 1.89748 2.01191 2.12437 2.23222 
2.33343 2.42672 2.51157 1.4672 1.35755 1.24411 1.12969 1.01722 0.909371 
0.808166 0.714871 0.63002 3.60077 3.49669 3.38395 3.26458 3.14159 3.01861 
2.89924 2.78649 2.68241 5.82401 5.92808 6.04083 6.1602 6.28319 0.122983 
0.242354 0.355101 0.459179 6.05603 5.78856 5.97021 5.51259 5.60297 5.78856 
5.26596 5.26596 5.26596 5.26596 5.06749 5.0121 4.91556 4.71239 4.15881 
4.91556 4.83537 4.71239 4.50922 4.15881 3.63622 4.80045 4.71239 4.58941 
4.41268 4.15881 3.82181 3.45456 4.71239 4.62433 4.50922 4.35729 4.15881 
3.91219 3.63622 3.36875 6.01742 5.94343 5.82633 5.88092 5.76745 5.62798 
5.8278 5.71897 5.58911 5.43724 5.78235 5.67854 5.55757 5.41926 5.26596 
5.74316 5.64441 5.5315 5.40467 5.26596 5.11955 5.70914 5.61528 5.50962 
5.3926 5.26596 5.13292 4.99789 5.67937 5.59016 5.49102 5.38246 5.26596 
5.14407 5.02016 4.89798 5.56831 5.47502 5.47502 5.37381 5.37381 5.37381 
5.26596 5.26596 5.26596 5.26596 5.1535 5.1535 5.1535 5.1535 5.1535 
5.03907 5.03907 5.03907 5.03907 5.03907 5.03907 4.92564 4.92564 4.92564 
4.92564 4.92564 4.92564 4.92564 4.81599 4.81599 4.81599 4.81599 4.81599 
4.81599 4.81599 4.81599 4.60879 4.60879 4.49914 4.60879 4.49914 4.3857 
4.60879 4.49914 4.3857 4.27128 4.60879 4.49914 4.3857 4.27128 4.15881 
4.60879 4.49914 4.3857 4.27128 4.15881 4.05096 4.60879 4.49914 4.3857 
4.27128 4.15881 4.05096 3.94976 4.60879 4.49914 4.3857 4.27128 4.15881 
4.05096 3.94976 3.85646 4.5268 4.40462 4.42689 4.28071 4.29185 4.30523 
4.15881 4.15881 4.15881 4.15881 4.04232 4.03217 4.02011 4.00552 3.98753 
3.93376 3.91515 3.89328 3.86721 3.83566 3.7968 3.83461 3.8095 3.78037 
3.74624 3.70581 3.65733 3.59845 3.7454 3.71564 3.68161 3.64243 3.59698 
3.54386 3.48135 3.40735 3.56428 3.45246 3.52338 3.33203 3.40312 3.47739 
3.20576 3.27463 3.34802 3.42551 3.07742 3.14159 3.21128 3.28647 3.36688 
2.95116 3.00855 3.0719 3.14159 3.21784 3.3006 2.83072 2.88006 2.93517 
2.99672 3.06535 3.14159 3.22575 2.7189 2.7598 2.8058 2.85768 2.9163 
2.98259 3.05743 3.14159 3.56428 3.52338 3.45246 3.47739 3.40312 3.33203 
3.42551 3.34802 3.27463 3.20576 3.36688 3.28647 3.21128 3.14159 3.07742 
3.3006 3.21784 3.14159 3.0719 3.00855 2.95116 3.22575 3.14159 3.06535 
2.99672 2.93517 2.88006 2.83072 3.14159 3.05743 2.98259 2.9163 2.85768 
2.8058 2.7598 2.7189 4.5268 4.42689 4.40462 4.30523 4.29185 4.28071 
4.15881 4.15881 4.15881 4.15881 3.98753 4.00552 4.02011 4.03217 4.04232 
3.7968 3.83566 3.86721 3.89328 3.91515 3.93376 3.59845 3.65733 3.70581 
3.74624 3.78037 3.8095 3.83461 3.40735 3.48135 3.54386 3.59698 3.64243 
3.68161 3.71564 3.7454 4.71239 4.80045 4.62433 4.91556 4.71239 4.50922 
5.06749 4.83537 4.58941 4.35729 5.26596 5.0121 4.71239 4.41268 4.15881 
5.51259 5.26596 4.91556 4.50922 4.15881 3.91219 5.78856 5.60297 5.26596 
4.71239 4.15881 3.82181 3.63622 6.05603 5.97021 5.78856 5.26596 4.15881 
3.63622 3.45456 3.36875 0.227158 0.494626 0.312971 0.770593 0.680215 0.494626 
1.01722 1.01722 1.01722 1.01722 1.2157 1.27109 1.36763 1.5708 2.12437 
1.36763 1.44781 1.5708 1.77397 2.12437 2.64697 1.48273 1.5708 1.69378 
1.8705 2.12437 2.46138 2.82862 1.5708 1.65886 1.77397 1.9259 2.12437 
2.371 2.64697 2.91443 1.75639 1.87857 1.8563 2.00248 1.99133 1.97796 
2.12437 2.12437 2.12437 2.12437 2.24087 2.25101 2.26308 2.27767 2.29565 
2.34943 2.36803 2.38991 2.41597 2.44752 2.48639 2.44857 2.47368 2.50281 
2.53694 2.57738 2.62586 2.68474 2.53778 2.56754 2.60157 2.64076 2.68621 
2.73933 2.80184 2.87583 1.6744 1.6744 1.78405 1.6744 1.78405 1.89748 
1.6744 1.78405 1.89748 2.01191 1.6744 1.78405 1.89748 2.01191 2.12437 
1.6744 1.78405 1.89748 2.01191 2.12437 2.23222 1.6744 1.78405 1.89748 
2.01191 2.12437 2.23222 2.33343 1.6744 1.78405 1.89748 2.01191 2.12437 
2.23222 2.33343 2.42672 1.4672 1.35755 1.4672 1.24411 1.35755 1.4672 
1.12969 1.24411 1.35755 1.4672 1.01722 1.12969 1.24411 1.35755 1.4672 
0.909371 1.01722 1.12969 1.24411 1.35755 1.4672 0.808166 0.909371 1.01722 
1.12969 1.24411 1.35755 1.4672 0.714871 0.808166 0.909371 1.01722 1.12969 
1.24411 1.35755 1.4672 0.603812 0.57405 0.693022 0.540021 0.667908 0.792164 
0.500837 0.638778 0.773562 0.900726 0.455383 0.604649 0.751687 0.890581 1.01722 
0.402264 0.564217 0.725619 0.878514 1.01722 1.13912 0.339753 0.515737 0.694072 
0.863926 1.01722 1.15026 1.26302 0.265762 0.456853 0.655207 0.845941 1.01722 
1.16363 1.28529 1.38521 0.227158 0.312971 0.494626 0.494626 0.680215 0.770593 
1.01722 1.01722 1.01722 1.01722 2.12437 1.5708 1.36763 1.27109 1.2157 
2.64697 2.12437 1.77397 1.5708 1.44781 1.36763 2.82862 2.46138 2.12437 
1.8705 1.69378 1.5708 1.48273 2.91443 2.64697 2.371 2.12437 1.9259 
1.77397 1.65886 1.5708 1.75639 1.8563 1.87857 1.97796 1.99133 2.00248 
2.12437 2.12437 2.12437 2.12437 2.29565 2.27767 2.26308 2.25101 2.24087 
2.48639 2.44752 2.41597 2.38991 2.36803 2.34943 2.68474 2.62586 2.57738 
2.53694 2.50281 2.47368 2.44857 2.87583 2.80184 2.73933 2.68621 2.64076 
2.60157 2.56754 2.53778 5.86049 5.90139 5.97231 5.94739 6.02165 6.09275 
5.99927 6.07676 6.15015 6.21902 6.0579 6.13831 6.2135 0 0.0641696 
6.12418 6.20694 6.28319 0.069689 0.13304 0.190437 6.19903 0 0.0762451 
0.144876 0.206423 0.261531 0.310872 0 0.0841597 0.159004 0.225289 0.283913 
0.335793 0.381792 0.422692 5.86049 5.97231 5.90139 6.09275 6.02165 5.94739 
6.21902 6.15015 6.07676 5.99927 0.0641696 0 6.2135 6.13831 6.0579 
0.190437 0.13304 0.069689 6.28319 6.20694 6.12418 0.310872 0.261531 0.206423 
0.144876 0.0762451 6.28319 6.19903 0.422692 0.381792 0.335793 0.283913 0.225289 
0.159004 0.0841597 0 5.67937 5.70914 5.59016 5.74316 5.61528 5.49102 
5.78235 5.64441 5.50962 5.38246 5.8278 5.67854 5.5315 5.3926 5.26596 
5.88092 5.71897 5.55757 5.40467 5.26596 5.14407 5.94343 5.76745 5.58911 
5.41926 5.26596 5.13292 5.02016 6.01742 5.82633 5.62798 5.43724 5.26596 
5.11955 4.99789 4.89798 1.38521 1.28529 1.26302 1.16363 1.15026 1.13912 
1.01722 1.01722 1.01722 1.01722 0.845941 0.863926 0.878514 0.890581 0.900726 
0.655207 0.694072 0.725619 0.751687 0.773562 0.792164 0.456853 0.515737 0.564217 
0.604649 0.638778 0.667908 0.693022 0.265762 0.339753 0.402264 0.455383 0.500837 
0.540021 0.57405 0.603812 
