# vtk DataFile Version 4.0
vtk output
ASCII
DATASET POLYDATA
POINTS 1002 float
-120.893 -101.879 68.225 -115.41 -93.8776 68.3829 -114.728 -105.32 67.9742 
-109.457 -97.9244 69.0207 -117.087 -98.4349 63.2968 -112.95 -100.514 62.8136 
-117.197 -98.6138 73.8784 -113.564 -101.096 74.4104 -109.715 -91.3174 64.7197 
-119.872 -107.61 63.8607 -111.396 -93.1627 72.1045 -119.87 -107.438 72.0881 
-120.343 -101.213 68.1822 -120.031 -100.126 68.2303 -120.029 -98.7397 68.3895 
-119.803 -97.6315 68.4695 -118.915 -97.1383 68.4116 -117.859 -96.6661 68.3989 
-117.216 -95.738 68.4542 -116.727 -94.8498 68.4513 -116.057 -94.3426 68.401 
-120.786 -101.529 67.6241 -120.595 -101.101 66.9791 -120.391 -100.688 66.4233 
-120.171 -100.257 65.8663 -119.782 -99.8783 65.2596 -119.111 -99.7217 64.8579 
-118.377 -99.5782 64.604 -117.868 -99.1797 64.1655 -117.515 -98.7158 63.6372 
-120.565 -101.772 68.7288 -120.264 -101.429 69.2535 -120.044 -100.85 69.8895 
-119.834 -100.277 70.6809 -119.567 -99.9634 71.4649 -119.042 -99.8946 71.981 
-118.201 -99.8217 72.2412 -117.502 -99.5469 72.5748 -117.253 -99.092 73.1773 
-121.338 -102.227 67.8982 -121.464 -102.766 67.4527 -121.378 -103.54 66.8143 
-121.49 -104.348 66.0301 -121.683 -105.214 65.3689 -121.53 -106.214 64.9719 
-121.188 -107.014 64.6376 -120.906 -107.39 64.2664 -120.507 -107.533 63.9901 
-121.197 -102.304 68.5298 -121.237 -102.729 68.7061 -121.056 -103.447 68.9179 
-120.947 -104.474 69.34 -120.954 -105.349 69.8007 -120.9 -105.919 70.2407 
-120.849 -106.509 70.8874 -120.799 -107.098 71.5899 -120.49 -107.406 71.9915 
-115.572 -93.9721 67.7775 -115.823 -94.0643 67.1498 -116.051 -94.2748 66.5505 
-116.107 -94.8136 66.0951 -116.069 -95.6467 65.8314 -116.248 -96.3558 65.4463 
-116.725 -96.7349 64.7042 -117.145 -97.1097 63.9461 -117.225 -97.7331 63.5161 
-115.699 -94.064 68.9938 -116.048 -94.2324 69.6899 -116.202 -94.6977 70.3306 
-116.187 -95.441 70.7774 -116.378 -95.9569 71.3476 -116.771 -96.2047 72.2183 
-116.995 -96.6678 72.8614 -117.027 -97.3787 73.1133 -117.08 -98.045 73.4149 
-115.077 -93.1678 68.0101 -114.929 -92.1788 67.5267 -114.644 -91.3832 66.9686 
-113.987 -91.0335 66.5128 -113.216 -90.7671 66.0937 -112.587 -90.3414 65.497 
-111.919 -90.0701 64.8989 -111.073 -90.2191 64.6154 -110.267 -90.7013 64.6233 
-115.065 -93.3882 68.7587 -114.783 -92.8131 69.1078 -114.434 -92.3086 69.4216 
-114.039 -91.9465 69.9023 -113.771 -91.6712 70.6851 -113.417 -91.5153 71.4946 
-112.679 -91.6388 71.9701 -111.91 -92.0645 72.088 -111.53 -92.6255 72.0692 
-114.473 -104.473 68.0475 -114.283 -103.481 68.1599 -113.626 -102.848 68.3273 
-112.559 -102.526 68.5502 -111.858 -101.797 68.7484 -111.461 -100.718 68.8792 
-110.735 -100.018 69.0323 -109.989 -99.5477 69.1706 -109.657 -98.8011 69.1505 
-114.497 -105.163 67.4611 -114.197 -104.951 66.9078 -114.082 -104.494 66.3293 
-114.197 -103.749 65.8141 -114.073 -103.147 65.2281 -113.557 -102.87 64.448 
-113.157 -102.41 63.8318 -113.103 -101.585 63.5595 -113.107 -100.863 63.2867 
-114.652 -105.01 68.5524 -114.593 -104.647 69.2196 -114.59 -104.246 69.994 
-114.57 -103.768 70.8107 -114.444 -103.27 71.5836 -114.272 -102.828 72.3176 
-114.094 -102.379 72.988 -113.878 -101.905 73.5318 -113.679 -101.483 73.9897 
-115.15 -105.778 67.5755 -115.756 -106.058 67.1494 -116.327 -106.43 66.7362 
-116.829 -106.987 66.2959 -117.331 -107.509 65.7547 -117.716 -107.954 65.136 
-118.02 -108.317 64.5657 -118.511 -108.355 64.1802 -119.207 -108.038 63.9843 
-115.179 -105.747 68.2984 -115.86 -105.972 68.6684 -116.629 -106.1 68.9768 
-117.241 -106.378 69.2777 -117.654 -106.859 69.7713 -117.963 -107.345 70.3899 
-118.246 -107.666 70.9132 -118.656 -107.775 71.3558 -119.257 -107.684 71.7701 
-109.447 -98.3293 68.4735 -109.402 -98.7676 67.7835 -109.374 -99.1588 67.02 
-109.627 -99.3842 66.2639 -110.181 -99.4582 65.5702 -110.793 -99.6066 64.9218 
-111.37 -99.925 64.266 -111.91 -100.233 63.6484 -112.422 -100.406 63.1596 
-109.729 -98.0622 69.5495 -110.142 -98.1959 70.0289 -110.594 -98.3321 70.5303 
-111.048 -98.5634 71.1585 -111.579 -98.9167 71.8349 -112.094 -99.3553 72.4307 
-112.409 -99.8962 73.0303 -112.639 -100.448 73.6528 -113.023 -100.843 74.1269 
-109.114 -97.4028 68.6175 -108.799 -96.9673 68.285 -108.768 -96.3066 67.9101 
-108.813 -95.1891 67.3365 -108.497 -94.0463 66.7856 -108.175 -93.3076 66.4801 
-108.403 -92.7591 66.1702 -108.914 -92.1936 65.6685 -109.322 -91.6939 65.1316 
-109.221 -97.2599 69.2639 -108.846 -96.8243 69.6629 -108.572 -96.5076 70.3023 
-108.616 -95.9325 71.0137 -108.864 -95.0379 71.4514 -109.154 -94.2578 71.5705 
-109.629 -93.8202 71.6636 -110.331 -93.5458 71.8347 -110.976 -93.3205 71.9812 
-116.665 -98.6828 62.9899 -116.33 -98.7287 62.5032 -116.059 -98.6034 61.9025 
-115.54 -98.6165 61.5351 -114.734 -98.9227 61.5073 -114.009 -99.4239 61.5076 
-113.546 -99.9816 61.4816 -113.274 -100.373 61.7177 -113.108 -100.49 62.2469 
-116.569 -97.8885 63.2954 -115.832 -97.3936 63.4704 -115.01 -96.8421 63.7614 
-114.177 -96.1572 64.0997 -113.303 -95.3207 64.3895 -112.491 -94.2924 64.5548 
-111.749 -93.1669 64.5614 -110.942 -92.2038 64.4449 -110.191 -91.5843 64.4288 
-117.271 -99.1859 63.2167 -117.586 -99.8893 63.0792 -117.975 -100.672 63.0035 
-118.333 -101.638 63.1223 -118.847 -102.682 63.2079 -119.6 -103.854 63.0566 
-120.169 -105.168 62.949 -120.272 -106.265 63.1494 -120.099 -106.995 63.5284 
-112.337 -100.228 62.5095 -111.758 -99.6841 62.4824 -111.369 -98.7138 62.8287 
-111.03 -97.6865 63.3695 -110.496 -96.8476 63.9069 -109.986 -95.7979 64.319 
-109.762 -94.4458 64.4908 -109.665 -93.1822 64.5063 -109.607 -92.1451 64.5667 
-113.705 -100.815 62.9174 -114.468 -101.356 63.01 -115.081 -102.125 62.9751 
-115.661 -102.912 62.9834 -116.398 -103.675 63.1516 -117.21 -104.604 63.2751 
-117.951 -105.678 63.3084 -118.629 -106.601 63.4222 -119.274 -107.21 63.6284 
-117.151 -98.7361 74.515 -116.877 -99.0217 74.8506 -116.47 -99.4207 74.9461 
-116.133 -99.7708 75.251 -115.715 -100.055 75.7504 -115.077 -100.353 75.8667 
-114.519 -100.622 75.5213 -114.182 -100.819 75.1166 -113.884 -100.973 74.7753 
-116.896 -97.8582 74.1782 -116.26 -97.2322 74.3097 -115.504 -96.6457 74.3718 
-114.954 -95.8491 74.5056 -114.516 -94.9339 74.6243 -113.868 -94.3193 74.4316 
-113.048 -94.0581 73.8061 -112.332 -93.8296 73.0385 -111.816 -93.497 72.4662 
-117.368 -99.5069 73.8776 -117.599 -100.476 73.7168 -117.93 -101.429 73.4896 
-118.354 -102.282 73.451 -118.875 -103.106 73.5635 -119.364 -104.091 73.4374 
-119.694 -105.148 73.0368 -119.897 -106.058 72.6827 -119.97 -106.812 72.4265 
-113.178 -100.449 74.6678 -112.85 -99.5275 74.8336 -112.52 -98.4102 74.7781 
-112.133 -97.3195 74.6753 -111.661 -96.3393 74.7915 -111.235 -95.4605 74.776 
-111.126 -94.8051 74.1422 -111.311 -94.3452 73.1918 -111.454 -93.8232 72.4835 
-114.23 -101.61 74.4209 -114.86 -102.328 74.5352 -115.26 -103.293 74.6549 
-115.618 -104.242 74.6064 -116.328 -104.912 74.3956 -117.24 -105.393 73.9773 
-117.942 -105.896 73.2993 -118.521 -106.455 72.6688 -119.198 -106.992 72.3232 
-109.76 -90.9615 65.2428 -109.944 -90.9217 65.927 -110.028 -90.982 66.726 
-109.918 -90.8779 67.8014 -109.888 -90.8209 68.9559 -110.103 -91.1478 69.7417 
-110.386 -91.6579 70.3423 -110.67 -92.0956 71.0582 -111.026 -92.5734 71.6877 
-120.112 -108.302 64.1806 -120.33 -109.032 64.5817 -120.37 -109.464 65.288 
-120.326 -109.525 66.4345 -120.385 -109.49 67.8071 -120.418 -109.378 68.985 
-120.303 -109.026 69.8693 -120.175 -108.525 70.7054 -120.066 -107.998 71.5141 
-120.28 -100.721 67.5944 -120.188 -100.213 67.0238 -120.048 -99.5641 67.7301 
-120.007 -99.7586 66.4893 -119.878 -99.1575 67.2036 -119.957 -98.2745 67.9034 
-119.669 -99.3544 65.9009 -119.456 -98.8625 66.6294 -119.434 -98.1635 67.3277 
-119.402 -97.4166 67.9048 -119.089 -99.1577 65.3975 -118.919 -98.6166 66.0734 
-118.729 -98.101 66.7363 -118.636 -97.4541 67.2843 -118.338 -96.9445 67.8168 
-118.366 -99.0552 65.0547 -118.298 -98.4608 65.6629 -118.143 -97.9053 66.2511 
-118.019 -97.2675 66.6819 -117.821 -96.6047 67.1666 -117.465 -96.1461 67.7903 
-117.85 -98.648 64.5686 -117.724 -98.1277 65.1996 -117.549 -97.6208 65.857 
-117.491 -96.9278 66.209 -117.477 -96.0584 66.5106 -117.253 -95.4356 67.0918 
-116.919 -95.1308 67.7882 -117.578 -98.0686 63.9393 -117.405 -97.5401 64.5262 
-117.029 -97.1802 65.3342 -116.798 -96.6516 65.8705 -116.855 -95.7522 66.0772 
-116.871 -94.9234 66.4561 -116.615 -94.5645 67.1032 -116.274 -94.4674 67.7748 
-121.115 -101.967 67.225 -121.156 -102.627 66.6941 -120.772 -101.681 66.5365 
-121.212 -103.362 65.9603 -120.807 -102.447 65.9833 -120.479 -101.358 65.945 
-121.486 -104.006 65.2237 -120.992 -103.105 65.3018 -120.527 -102.093 65.3411 
-120.219 -100.878 65.2758 -121.492 -104.809 64.7519 -121.14 -103.663 64.7347 
-120.628 -102.672 64.6873 -120.233 -101.484 64.5823 -119.774 -100.414 64.6457 
-121.123 -105.758 64.388 -120.932 -104.429 64.2963 -120.556 -103.275 64.1894 
-120.181 -102.11 63.996 -119.741 -100.969 64.0487 -119.055 -100.193 64.3717 
-120.84 -106.453 63.9528 -120.726 -105.258 63.7565 -120.417 -103.991 63.7119 
-119.979 -102.821 63.652 -119.55 -101.671 63.6516 -118.963 -100.701 63.8956 
-118.296 -99.9748 64.1513 -120.599 -106.815 63.6312 -120.636 -105.879 63.2918 
-120.399 -104.641 63.2054 -119.803 -103.398 63.3467 -119.184 -102.298 63.4432 
-118.684 -101.255 63.4847 -118.156 -100.369 63.6073 -117.723 -99.5822 63.6877 
-119.493 -106.588 63.2858 -118.626 -105.848 63.1475 -119.521 -105.7 63.0037 
-117.682 -104.767 63.0144 -118.389 -104.802 62.9306 -119.154 -104.427 62.9149 
-116.845 -103.736 62.7127 -117.414 -103.842 62.5368 -118.027 -103.63 62.6469 
-118.514 -103.106 62.9063 -116.044 -102.998 62.3649 -116.681 -103.146 61.8946 
-117.363 -103.056 61.8684 -117.808 -102.495 62.2037 -118.055 -101.924 62.6849 
-115.32 -102.29 62.3051 -115.832 -102.49 61.6484 -116.648 -102.513 61.3371 
-117.387 -102.007 61.4022 -117.737 -101.22 61.7759 -117.829 -100.792 62.3691 
-114.695 -101.482 62.4135 -114.987 -101.625 61.8257 -115.559 -101.629 61.4997 
-116.399 -101.274 61.3526 -117.157 -100.544 61.3533 -117.466 -99.993 61.709 
[...]
POINT_DATA 1002
FIELD FieldData 2
Theta 1 1002 float
2.58802 2.58802 0.553574 0.553574 2.12437 1.01722 2.12437 1.01722 1.5708 
1.5708 1.5708 1.5708 2.68241 2.78649 2.89924 3.01861 3.14159 3.01861 
2.89924 2.78649 2.68241 2.61035 2.61791 2.60515 2.56958 2.51327 2.44184 
2.36202 2.27983 2.1997 2.61035 2.61791 2.60515 2.56958 2.51327 2.44184 
2.36202 2.27983 2.1997 2.50947 2.41899 2.31794 2.20864 2.0944 1.97902 
1.86631 1.75944 1.66056 2.50947 2.41899 2.31794 2.20864 2.0944 1.97902 
1.86631 1.75944 1.66056 2.61035 2.61791 2.60515 2.56958 2.51327 2.44184 
2.36202 2.27983 2.1997 2.61035 2.61791 2.60515 2.56958 2.51327 2.44184 
2.36202 2.27983 2.1997 2.50947 2.41899 2.31794 2.20864 2.0944 1.97902 
1.86631 1.75944 1.66056 2.50947 2.41899 2.31794 2.20864 2.0944 1.97902 
1.86631 1.75944 1.66056 0.459179 0.355101 0.242354 0.122983 0 0.122983 
0.242354 0.355101 0.459179 0.531246 0.523681 0.536438 0.57201 0.628319 0.699757 
0.779574 0.86176 0.941896 0.531246 0.523681 0.536438 0.57201 0.628319 0.699757 
0.779574 0.86176 0.941896 0.632123 0.7226 0.823657 0.932948 1.0472 1.16257 
1.27528 1.38216 1.48103 0.632123 0.7226 0.823657 0.932948 1.0472 1.16257 
1.27528 1.38216 1.48103 0.531246 0.523681 0.536438 0.57201 0.628319 0.699757 
0.779574 0.86176 0.941896 0.531246 0.523681 0.536438 0.57201 0.628319 0.699757 
0.779574 0.86176 0.941896 0.632123 0.7226 0.823657 0.932948 1.0472 1.16257 
1.27528 1.38216 1.48103 0.632123 0.7226 0.823657 0.932948 1.0472 1.16257 
1.27528 1.38216 1.48103 2.02998 1.9259 1.81315 1.69378 1.5708 1.44781 
1.32844 1.2157 1.11162 2.0928 2.05283 2.00422 1.94767 1.88496 1.81867 
1.75177 1.68695 1.62623 2.0928 2.05283 2.00422 1.94767 1.88496 1.81867 
1.75177 1.68695 1.62623 1.0488 1.08876 1.13737 1.19392 1.25664 1.32292 
1.38982 1.45464 1.51537 1.0488 1.08876 1.13737 1.19392 1.25664 1.32292 
1.38982 1.45464 1.51537 2.02998 1.9259 1.81315 1.69378 1.5708 1.44781 
1.32844 1.2157 1.11162 2.0928 2.05283 2.00422 1.94767 1.88496 1.81867 
1.75177 1.68695 1.62623 2.0928 2.05283 2.00422 1.94767 1.88496 1.81867 
1.75177 1.68695 1.62623 1.0488 1.08876 1.13737 1.19392 1.25664 1.32292 
1.38982 1.45464 1.51537 1.0488 1.08876 1.13737 1.19392 1.25664 1.32292 
1.38982 1.45464 1.51537 1.5708 1.5708 1.5708 1.5708 1.5708 1.5708 
1.5708 1.5708 1.5708 1.5708 1.5708 1.5708 1.5708 1.5708 1.5708 
1.5708 1.5708 1.5708 2.70908 2.71362 2.81592 2.68886 2.81002 2.92597 
2.6349 2.76254 2.89233 3.01997 2.55881 2.68262 2.80854 2.92834 3.01997 
2.47007 2.58462 2.70048 2.80854 2.89233 2.92597 2.37702 2.48017 2.58462 
2.68262 2.76254 2.81002 2.81592 2.28567 2.37702 2.47007 2.55881 2.6349 
2.68886 2.71362 2.70908 2.52097 2.4195 2.51718 2.30791 2.40503 2.49426 
2.18928 2.28408 2.3734 2.45144 2.06758 2.15805 2.24572 2.32523 2.39165 
1.94707 2.03138 2.11543 2.19453 2.26401 2.32035 1.83164 1.90847 1.98711 
2.06376 2.13422 2.1949 2.24359 1.72413 1.79288 1.86489 1.93728 2.00658 
2.06938 2.12312 2.16654 1.5708 1.50988 1.63171 1.44492 1.5708 1.69667 
1.37826 1.5059 1.63569 1.76333 1.31281 1.43962 1.5708 1.70197 1.82878 
1.25155 1.37501 1.50478 1.63681 1.76659 1.89004 1.19686 1.31493 1.44074 
1.5708 1.70086 1.82666 1.94473 1.15011 1.26149 1.38136 1.50697 1.63462 
1.76024 1.88011 1.99148 1.99148 1.88011 1.94473 1.76024 1.82666 1.89004 
1.63462 1.70086 1.76659 1.82878 1.50697 1.5708 1.63681 1.70197 1.76333 
1.38136 1.44074 1.50478 1.5708 1.63569 1.69667 1.26149 1.31493 1.37501 
1.43962 1.5059 1.5708 1.63171 1.15011 1.19686 1.25155 1.31281 1.37826 
1.44492 1.50988 1.5708 2.16654 2.12312 2.24359 2.06938 2.1949 2.32035 
2.00658 2.13422 2.26401 2.39165 1.93728 2.06376 2.19453 2.32523 2.45144 
1.86489 1.98711 2.11543 2.24572 2.3734 2.49426 1.79288 1.90847 2.03138 
2.15805 2.28408 2.40503 2.51718 1.72413 1.83164 1.94707 2.06758 2.18928 
2.30791 2.4195 2.52097 1.66533 1.66946 1.76911 1.67254 1.777 1.88041 
1.67418 1.78222 1.89102 1.99634 1.67418 1.78405 1.89674 2.00785 2.11299 
1.67254 1.78222 1.89674 2.01191 2.12307 2.22608 1.66946 1.777 1.89102 
2.00785 2.12307 2.23222 2.33166 1.66533 1.76911 1.88041 1.99634 2.11299 
2.22608 2.33166 2.42672 1.47626 1.37249 1.47213 1.26118 1.36459 1.46906 
1.14526 1.25058 1.35938 1.46741 1.0286 1.13374 1.24485 1.35755 1.46741 
0.915514 1.01852 1.12969 1.24485 1.35938 1.46906 0.809937 0.909371 1.01852 
1.13374 1.25058 1.36459 1.47213 0.714871 0.809937 0.915514 1.0286 1.14526 
1.26118 1.37249 1.47626 0.975055 0.898002 1.01847 0.821245 0.946693 1.07221 
0.749941 0.877585 1.00737 1.13501 0.690152 0.816367 0.94706 1.07784 1.20431 
0.647337 0.768195 0.895868 1.02616 1.15448 1.2767 0.624416 0.736561 0.857515 
0.983547 1.11021 1.23313 1.34871 0.620619 0.722093 0.833684 0.952313 1.07402 
1.19452 1.30996 1.41746 0.855925 0.764569 0.764569 0.671524 0.661425 0.671524 
0.582786 0.556971 0.556971 0.582786 0.506696 0.458968 0.441109 0.458968 0.506696 
0.45273 0.379052 0.333054 0.333054 0.379052 0.45273 0.427969 0.331576 0.249267 
0.21325 0.249267 0.331576 0.427969 0.432512 0.325669 0.215619 0.121622 0.121622 
0.215619 0.325669 0.432512 0.432512 0.427969 0.325669 0.45273 0.331576 0.215619 
0.506696 0.379052 0.249267 0.121622 0.582786 0.458968 0.333054 0.21325 0.121622 
0.671524 0.556971 0.441109 0.333054 0.249267 0.215619 0.764569 0.661425 0.556971 
0.458968 0.379052 0.331576 0.325669 0.855925 0.764569 0.671524 0.582786 0.506696 
0.45273 0.427969 0.432512 0.975055 1.01847 0.898002 1.07221 0.946693 0.821245 
1.13501 1.00737 0.877585 0.749941 1.20431 1.07784 0.94706 0.816367 0.690152 
1.2767 1.15448 1.02616 0.895868 0.768195 0.647337 1.34871 1.23313 1.11021 
0.983547 0.857515 0.736561 0.624416 1.41746 1.30996 1.19452 1.07402 0.952313 
0.833684 0.722093 0.620619 1.15011 1.26149 1.19686 1.38136 1.31493 1.25155 
1.50697 1.44074 1.37501 1.31281 1.63462 1.5708 1.50478 1.43962 1.37826 
1.76024 1.70086 1.63681 1.5708 1.5059 1.44492 1.88011 1.82666 1.76659 
1.70197 1.63569 1.5708 1.50988 1.99148 1.94473 1.89004 1.82878 1.76333 
1.69667 1.63171 1.5708 1.15011 1.19686 1.26149 1.25155 1.31493 1.38136 
1.31281 1.37501 1.44074 1.50697 1.37826 1.43962 1.50478 1.5708 1.63462 
1.44492 1.5059 1.5708 1.63681 1.70086 1.76024 1.50988 1.5708 1.63569 
1.70197 1.76659 1.82666 1.88011 1.5708 1.63171 1.69667 1.76333 1.82878 
1.89004 1.94473 1.99148 1.72413 1.83164 1.79288 1.94707 1.90847 1.86489 
2.06758 2.03138 1.98711 1.93728 2.18928 2.15805 2.11543 2.06376 2.00658 
2.30791 2.28408 2.24572 2.19453 2.13422 2.06938 2.4195 2.40503 2.3734 
2.32523 2.26401 2.1949 2.12312 2.52097 2.51718 2.49426 2.45144 2.39165 
2.32035 2.24359 2.16654 2.70908 2.81592 2.71362 2.92597 2.81002 2.68886 
3.01997 2.89233 2.76254 2.6349 3.01997 2.92834 2.80854 2.68262 2.55881 
2.92597 2.89233 2.80854 2.70048 2.58462 2.47007 2.81592 2.81002 2.76254 
2.68262 2.58462 2.48017 2.37702 2.70908 2.71362 2.68886 2.6349 2.55881 
2.47007 2.37702 2.28567 2.16654 2.24359 2.12312 2.32035 2.1949 2.06938 
2.39165 2.26401 2.13422 2.00658 2.45144 2.32523 2.19453 2.06376 1.93728 
2.49426 2.3734 2.24572 2.11543 1.98711 1.86489 2.51718 2.40503 2.28408 
2.15805 2.03138 1.90847 1.79288 2.52097 2.4195 2.30791 2.18928 2.06758 
1.94707 1.83164 1.72413 1.66533 1.76911 1.66946 1.88041 1.777 1.67254 
1.99634 1.89102 1.78222 1.67418 2.11299 2.00785 1.89674 1.78405 1.67418 
2.22608 2.12307 2.01191 1.89674 1.78222 1.67254 2.33166 2.23222 2.12307 
2.00785 1.89102 1.777 1.66946 2.42672 2.33166 2.22608 2.11299 1.99634 
1.88041 1.76911 1.66533 1.47626 1.47213 1.37249 1.46906 1.36459 1.26118 
1.46741 1.35938 1.25058 1.14526 1.46741 1.35755 1.24485 1.13374 1.0286 
1.46906 1.35938 1.24485 1.12969 1.01852 0.915514 1.47213 1.36459 1.25058 
1.13374 1.01852 0.909371 0.809937 1.47626 1.37249 1.26118 1.14526 1.0286 
0.915514 0.809937 0.714871 1.41746 1.30996 1.34871 1.19452 1.23313 1.2767 
1.07402 1.11021 1.15448 1.20431 0.952313 0.983547 1.02616 1.07784 1.13501 
0.833684 0.857515 0.895868 0.94706 1.00737 1.07221 0.722093 0.736561 0.768195 
0.816367 0.877585 0.946693 1.01847 0.620619 0.624416 0.647337 0.690152 0.749941 
0.821245 0.898002 0.975055 0.975055 0.898002 1.01847 0.821245 0.946693 1.07221 
0.749941 0.877585 1.00737 1.13501 0.690152 0.816367 0.94706 1.07784 1.20431 
0.647337 0.768195 0.895868 1.02616 1.15448 1.2767 0.624416 0.736561 0.857515 
0.983547 1.11021 1.23313 1.34871 0.620619 0.722093 0.833684 0.952313 1.07402 
1.19452 1.30996 1.41746 
Phi 1 1002 float
6.28319 3.14159 6.28319 3.14159 4.71239 4.71239 1.5708 1.5708 3.69517 
5.72961 2.58802 0.553574 6.28319 6.28319 6.28319 6.28319 3.14159 3.14159 
3.14159 3.14159 3.14159 6.1053 5.8988 5.67687 5.45995 5.26596 5.10322 
4.97131 4.86569 4.78095 0.177881 0.384387 0.606312 0.823235 1.01722 1.17997 
1.31187 1.4175 1.50223 6.18928 6.10703 6.03531 5.97283 5.91832 5.87061 
5.82869 5.79168 5.75886 0.0939024 0.176153 0.247873 0.310351 0.364864 0.412573 
0.454497 0.491504 0.524326 3.31947 3.52598 3.7479 3.96483 4.15881 4.32156 
4.45346 4.55909 4.64383 2.96371 2.75721 2.53528 2.31836 2.12437 1.96162 
1.82972 1.72409 1.63936 3.2355 3.31775 3.38947 3.45194 3.50646 3.55417 
3.59609 3.6331 3.66592 3.04769 2.96544 2.89372 2.83124 2.77673 2.72902 
2.6871 2.65009 2.61727 6.28319 6.28319 6.28319 6.28319 3.14159 3.14159 
3.14159 3.14159 3.14159 6.1053 5.8988 5.67687 5.45995 5.26596 5.10322 
4.97131 4.86569 4.78095 0.177881 0.384387 0.606312 0.823235 1.01722 1.17997 
1.31187 1.4175 1.50223 6.18928 6.10703 6.03531 5.97283 5.91832 5.87061 
5.82869 5.79168 5.75886 0.0939024 0.176153 0.247873 0.310351 0.364864 0.412573 
0.454497 0.491504 0.524326 3.31947 3.52598 3.7479 3.96483 4.15881 4.32156 
4.45346 4.55909 4.64383 2.96371 2.75721 2.53528 2.31836 2.12437 1.96162 
1.82972 1.72409 1.63936 3.2355 3.31775 3.38947 3.45194 3.50646 3.55417 
3.59609 3.6331 3.66592 3.04769 2.96544 2.89372 2.83124 2.77673 2.72902 
2.6871 2.65009 2.61727 4.71239 4.71239 4.71239 4.71239 4.71239 4.71239 
4.71239 4.71239 4.71239 4.60879 4.49914 4.3857 4.27128 4.15881 4.05096 
3.94976 3.85646 3.77161 4.81599 4.92564 5.03907 5.1535 5.26596 5.37381 
5.47502 5.56831 5.65317 4.60879 4.49914 4.3857 4.27128 4.15881 4.05096 
3.94976 3.85646 3.77161 4.81599 4.92564 5.03907 5.1535 5.26596 5.37381 
5.47502 5.56831 5.65317 1.5708 1.5708 1.5708 1.5708 1.5708 1.5708 
1.5708 1.5708 1.5708 1.6744 1.78405 1.89748 2.01191 2.12437 2.23222 
2.33343 2.42672 2.51157 1.4672 1.35755 1.24411 1.12969 1.01722 0.909371 
0.808166 0.714871 0.63002 1.6744 1.78405 1.89748 2.01191 2.12437 2.23222 
2.33343 2.42672 2.51157 1.4672 1.35755 1.24411 1.12969 1.01722 0.909371 
0.808166 0.714871 0.63002 3.60077 3.49669 3.38395 3.26458 3.14159 3.01861 
2.89924 2.78649 2.68241 5.82401 5.92808 6.04083 6.1602 6.28319 0.122983 
0.242354 0.355101 0.459179 6.05603 5.78856 5.97021 5.51259 5.60297 5.78856 
5.26596 5.26596 5.26596 5.26596 5.06749 5.0121 4.91556 4.71239 4.15881 
4.91556 4.83537 4.71239 4.50922 4.15881 3.63622 4.80045 4.71239 4.58941 
4.41268 4.15881 3.82181 3.45456 4.71239 4.62433 4.50922 4.35729 4.15881 
3.91219 3.63622 3.36875 6.01742 5.94343 5.82633 5.88092 5.76745 5.62798 
5.8278 5.71897 5.58911 5.43724 5.78235 5.67854 5.55757 5.41926 5.26596 
5.74316 5.64441 5.5315 5.40467 5.26596 5.11955 5.70914 5.61528 5.50962 
5.3926 5.26596 5.13292 4.99789 5.67937 5.59016 5.49102 5.38246 5.26596 
5.14407 5.02016 4.89798 5.56831 5.47502 5.47502 5.37381 5.37381 5.37381 
5.26596 5.26596 5.26596 5.26596 5.1535 5.1535 5.1535 5.1535 5.1535 
5.03907 5.03907 5.03907 5.03907 5.03907 5.03907 4.92564 4.92564 4.92564 
4.92564 4.92564 4.92564 4.92564 4.81599 4.81599 4.81599 4.81599 4.81599 
4.81599 4.81599 4.81599 4.60879 4.60879 4.49914 4.60879 4.49914 4.3857 
4.60879 4.49914 4.3857 4.27128 4.60879 4.49914 4.3857 4.27128 4.15881 
4.60879 4.49914 4.3857 4.27128 4.15881 4.05096 4.60879 4.49914 4.3857 
4.27128 4.15881 4.05096 3.94976 4.60879 4.49914 4.3857 4.27128 4.15881 
4.05096 3.94976 3.85646 4.5268 4.40462 4.42689 4.28071 4.29185 4.30523 
4.15881 4.15881 4.15881 4.15881 4.04232 4.03217 4.02011 4.00552 3.98753 
3.93376 3.91515 3.89328 3.86721 3.83566 3.7968 3.83461 3.8095 3.78037 
3.74624 3.70581 3.65733 3.59845 3.7454 3.71564 3.68161 3.64243 3.59698 
3.54386 3.48135 3.40735 3.56428 3.45246 3.52338 3.33203 3.40312 3.47739 
3.20576 3.27463 3.34802 3.42551 3.07742 3.14159 3.21128 3.28647 3.36688 
2.95116 3.00855 3.0719 3.14159 3.21784 3.3006 2.83072 2.88006 2.93517 
2.99672 3.06535 3.14159 3.22575 2.7189 2.7598 2.8058 2.85768 2.9163 
2.98259 3.05743 3.14159 3.56428 3.52338 3.45246 3.47739 3.40312 3.33203 
3.42551 3.34802 3.27463 3.20576 3.36688 3.28647 3.21128 3.14159 3.07742 
3.3006 3.21784 3.14159 3.0719 3.00855 2.95116 3.22575 3.14159 3.06535 
2.99672 2.93517 2.88006 2.83072 3.14159 3.05743 2.98259 2.9163 2.85768 
2.8058 2.7598 2.7189 4.5268 4.42689 4.40462 4.30523 4.29185 4.28071 
4.15881 4.15881 4.15881 4.15881 3.98753 4.00552 4.02011 4.03217 4.04232 
3.7968 3.83566 3.86721 3.89328 3.91515 3.93376 3.59845 3.65733 3.70581 
3.74624 3.78037 3.8095 3.83461 3.40735 3.48135 3.54386 3.59698 3.64243 
3.68161 3.71564 3.7454 4.71239 4.80045 4.62433 4.91556 4.71239 4.50922 
5.06749 4.83537 4.58941 4.35729 5.26596 5.0121 4.71239 4.41268 4.15881 
5.51259 5.26596 4.91556 4.50922 4.15881 3.91219 5.78856 5.60297 5.26596 
4.71239 4.15881 3.82181 3.63622 6.05603 5.97021 5.78856 5.26596 4.15881 
3.63622 3.45456 3.36875 0.227158 0.494626 0.312971 0.770593 0.680215 0.494626 
1.01722 1.01722 1.01722 1.01722 1.2157 1.27109 1.36763 1.5708 2.12437 
1.36763 1.44781 1.5708 1.77397 2.12437 2.64697 1.48273 1.5708 1.69378 
1.8705 2.12437 2.46138 2.82862 1.5708 1.65886 1.77397 1.9259 2.12437 
2.371 2.64697 2.91443 1.75639 1.87857 1.8563 2.00248 1.99133 1.97796 
2.12437 2.12437 2.12437 2.12437 2.24087 2.25101 2.26308 2.27767 2.29565 
2.34943 2.36803 2.38991 2.41597 2.44752 2.48639 2.44857 2.47368 2.50281 
2.53694 2.57738 2.62586 2.68474 2.53778 2.56754 2.60157 2.64076 2.68621 
2.73933 2.80184 2.87583 1.6744 1.6744 1.78405 1.6744 1.78405 1.89748 
1.6744 1.78405 1.89748 2.01191 1.6744 1.78405 1.89748 2.01191 2.12437 
1.6744 1.78405 1.89748 2.01191 2.12437 2.23222 1.6744 1.78405 1.89748 
2.01191 2.12437 2.23222 2.33343 1.6744 1.78405 1.89748 2.01191 2.12437 
2.23222 2.33343 2.42672 1.4672 1.35755 1.4672 1.24411 1.35755 1.4672 
1.12969 1.24411 1.35755 1.4672 1.01722 1.12969 1.24411 1.35755 1.4672 
0.909371 1.01722 1.12969 1.24411 1.35755 1.4672 0.808166 0.909371 1.01722 
1.12969 1.24411 1.35755 1.4672 0.714871 0.808166 0.909371 1.01722 1.12969 
1.24411 1.35755 1.4672 0.603812 0.57405 0.693022 0.540021 0.667908 0.792164 
0.500837 0.638778 0.773562 0.900726 0.455383 0.604649 0.751687 0.890581 1.01722 
0.402264 0.564217 0.725619 0.878514 1.01722 1.13912 0.339753 0.515737 0.694072 
0.863926 1.01722 1.15026 1.26302 0.265762 0.456853 0.655207 0.845941 1.01722 
1.16363 1.28529 1.38521 0.227158 0.312971 0.494626 0.494626 0.680215 0.770593 
1.01722 1.01722 1.01722 1.01722 2.12437 1.5708 1.36763 1.27109 1.2157 
2.64697 2.12437 1.77397 1.5708 1.44781 1.36763 2.82862 2.46138 2.12437 
1.8705 1.69378 1.5708 1.48273 2.91443 2.64697 2.371 2.12437 1.9259 
1.77397 1.65886 1.5708 1.75639 1.8563 1.87857 1.97796 1.99133 2.00248 
2.12437 2.12437 2.12437 2.12437 2.29565 2.27767 2.26308 2.25101 2.24087 
2.48639 2.44752 2.41597 2.38991 2.36803 2.34943 2.68474 2.62586 2.57738 
2.53694 2.50281 2.47368 2.44857 2.87583 2.80184 2.73933 2.68621 2.64076 
2.60157 2.56754 2.53778 5.86049 5.90139 5.97231 5.94739 6.02165 6.09275 
5.99927 6.07676 6.15015 6.21902 6.0579 6.13831 6.2135 0 0.0641696 
6.12418 6.20694 6.28319 0.069689 0.13304 0.190437 6.19903 0 0.0762451 
0.144876 0.206423 0.261531 0.310872 0 0.0841597 0.159004 0.225289 0.283913 
0.335793 0.381792 0.422692 5.86049 5.97231 5.90139 6.09275 6.02165 5.94739 
6.21902 6.15015 6.07676 5.99927 0.0641696 0 6.2135 6.13831 6.0579 
0.190437 0.13304 0.069689 6.28319 6.20694 6.12418 0.310872 0.261531 0.206423 
0.144876 0.0762451 6.28319 6.19903 0.422692 0.381792 0.335793 0.283913 0.225289 
0.159004 0.0841597 0 5.67937 5.70914 5.59016 5.74316 5.61528 5.49102 
5.78235 5.64441 5.50962 5.38246 5.8278 5.67854 5.5315 5.3926 5.26596 
5.88092 5.71897 5.55757 5.40467 5.26596 5.14407 5.94343 5.76745 5.58911 
5.41926 5.26596 5.13292 5.02016 6.01742 5.82633 5.62798 5.43724 5.26596 
5.11955 4.99789 4.89798 1.38521 1.28529 1.26302 1.16363 1.15026 1.13912 
1.01722 1.01722 1.01722 1.01722 0.845941 0.863926 0.878514 0.890581 0.900726 
0.655207 0.694072 0.725619 0.751687 0.773562 0.792164 0.456853 0.515737 0.564217 
0.604649 0.638778 0.667908 0.693022 0.265762 0.339753 0.402264 0.455383 0.500837 
0.540021 0.57405 0.603812 
