# vtk DataFile Version 4.0
vtk output
ASCII
DATASET POLYDATA
POINTS 1002 float
-119.853 -103.308 71.5428 -114.741 -96.0758 71.4912 -113.441 -106.546 71.9505 
-108.819 -99.585 71.96 -115.983 -100.416 66.968 -111.811 -102.413 67.2555 
-115.838 -100.559 76.9642 -112.831 -102.122 76.9764 -109.739 -93.1155 67.8638 
-118.499 -109.346 67.9281 -110.953 -94.6792 75.0857 -118.096 -108.411 75.2647 
-119.41 -102.72 71.4809 -118.975 -102.137 71.5003 -118.548 -101.323 71.5454 
-118.037 -100.377 71.5279 -117.563 -99.4505 71.5434 -117.21 -98.4779 71.6475 
-116.645 -97.7312 71.6687 -115.781 -97.3547 71.5678 -115.059 -96.8868 71.4945 
-119.741 -103.12 70.8756 -119.731 -102.805 70.1729 -119.629 -102.456 69.5657 
-119.231 -102.166 69.157 -118.733 -101.842 68.6736 -118.412 -101.37 67.9548 
-118.056 -100.94 67.417 -117.4 -100.751 67.2705 -116.621 -100.649 67.1956 
-119.764 -102.996 72.1531 -119.519 -102.734 72.7244 -118.941 -102.579 73.1802 
-118.261 -102.365 73.6754 -117.892 -101.958 74.441 -117.697 -101.475 75.2761 
-117.291 -101.091 75.8189 -116.735 -100.857 76.1646 -116.247 -100.711 76.554 
-120.147 -103.969 71.208 -120.349 -104.726 70.8638 -120.334 -105.478 70.5405 
-120.134 -106.24 70.1623 -120.02 -107.093 69.5577 -120.137 -107.974 68.7728 
-120.184 -108.715 68.1584 -119.822 -109.218 67.908 -119.155 -109.431 67.8877 
-120.2 -103.857 72.0268 -120.354 -104.499 72.4915 -120.134 -105.184 72.7979 
-119.72 -105.949 72.9507 -119.332 -106.699 73.0336 -118.91 -107.212 73.087 
-118.576 -107.582 73.3439 -118.504 -108.001 74.0021 -118.438 -108.335 74.7732 
-114.764 -96.3515 70.9606 -114.986 -96.5471 70.3995 -115.285 -96.7759 69.7684 
-115.43 -97.1882 69.1904 -115.472 -97.7123 68.7704 -115.594 -98.2108 68.3661 
-115.743 -98.7015 67.9138 -115.83 -99.2459 67.5234 -115.9 -99.8355 67.2165 
-114.922 -96.3109 72.0263 -115.108 -96.5831 72.6198 -115.259 -96.976 73.3043 
-115.48 -97.3709 73.9973 -115.713 -97.7678 74.6087 -115.731 -98.3582 75.1584 
-115.654 -99.006 75.6738 -115.701 -99.5148 76.1488 -115.79 -100.011 76.5814 
-114.619 -95.2472 71.0824 -114.526 -94.4036 70.5119 -114.256 -93.7817 70.0186 
-113.631 -93.2837 69.821 -112.788 -92.8266 69.7225 -112.122 -92.742 69.47 
-111.633 -93.0084 69.0744 -110.995 -93.093 68.5808 -110.262 -92.9749 68.1078 
-114.705 -95.2945 71.878 -114.542 -94.6445 72.2609 -114.167 -94.2622 72.5119 
-113.829 -93.9745 72.8819 -113.531 -93.6602 73.6168 -112.946 -93.5469 74.2995 
-112.202 -93.7841 74.5664 -111.667 -94.1413 74.6902 -111.305 -94.4166 74.8964 
-112.866 -106.121 72.0515 -112.149 -105.769 72.0935 -111.548 -105.151 72.0699 
-111.225 -104.094 72.0192 -110.809 -103.149 71.9694 -110.015 -102.704 71.9514 
-109.326 -102.246 71.9746 -109.102 -101.393 71.9856 -109.036 -100.407 71.9649 
-113.391 -106.291 71.3967 -113.268 -105.995 70.8483 -113.066 -105.655 70.3484 
-112.748 -105.415 69.7758 -112.291 -105.318 69.0229 -111.932 -105.003 68.2806 
-111.845 -104.318 67.8562 -111.869 -103.57 67.7134 -111.855 -102.943 67.556 
-113.186 -106.44 72.5175 -113.037 -106.157 73.0064 -113.06 -105.651 73.4854 
-113.094 -105.155 74.036 -113.048 -104.745 74.6017 -113.089 -104.147 75.1143 
-113.201 -103.404 75.5898 -113.164 -102.858 76.0645 -112.987 -102.505 76.5405 
-113.852 -106.988 71.476 -114.17 -107.611 70.9661 -114.516 -108.239 70.4581 
-115.034 -108.643 69.9972 -115.742 -108.845 69.6995 -116.544 -108.97 69.5124 
-117.248 -109.019 69.1835 -117.723 -109.075 68.7039 -118.085 -109.233 68.2678 
-113.772 -107.042 72.2117 -114.177 -107.537 72.4929 -114.623 -107.911 72.7835 
-115.094 -108.176 73.0762 -115.692 -108.379 73.3772 -116.291 -108.461 73.687 
-116.708 -108.437 74.0512 -117.122 -108.447 74.5171 -117.649 -108.489 74.9772 
-108.81 -99.8207 71.5298 -108.762 -100.14 70.9034 -108.714 -100.608 70.2111 
-108.909 -101.065 69.6536 -109.276 -101.35 69.1526 -109.585 -101.6 68.5401 
-110.012 -101.892 68.0022 -110.666 -102.093 67.7161 -111.305 -102.221 67.5176 
-109.092 -99.7813 72.3071 -109.425 -99.966 72.7901 -109.753 -100.19 73.3947 
-110.136 -100.435 73.9603 -110.633 -100.64 74.5138 -111.12 -100.903 75.1436 
-111.557 -101.295 75.7625 -112.01 -101.67 76.2884 -112.441 -101.927 76.6952 
-108.459 -99.0335 71.7354 -108.154 -98.5172 71.3578 -108.028 -97.8873 70.8125 
-107.969 -96.9315 70.2328 -108.002 -95.8768 69.7589 -108.414 -95.2168 69.5071 
-109.032 -94.8237 69.3535 -109.383 -94.25 68.9698 -109.503 -93.567 68.3648 
-108.683 -98.9819 72.1925 -108.678 -98.301 72.4902 -108.762 -97.6107 72.8924 
-108.79 -97.096 73.3635 -108.87 -96.6881 73.8324 -109.144 -96.1302 74.225 
-109.507 -95.4911 74.4991 -109.93 -95.0246 74.7074 -110.444 -94.7813 74.9091 
-115.714 -100.525 66.623 -115.44 -100.609 66.2892 -115.085 -100.759 66.0611 
-114.562 -101.001 65.9563 -113.844 -101.366 65.9602 -113.108 -101.836 66.0184 
-112.594 -102.19 66.1121 -112.299 -102.295 66.366 -112.063 -102.311 66.8073 
-115.403 -99.6947 66.8253 -114.812 -98.9556 66.8118 -114.102 -98.2977 66.9688 
-113.303 -97.5949 67.1509 -112.62 -96.7498 67.3082 -112.054 -95.8173 67.4899 
-111.392 -94.7726 67.5158 -110.65 -93.776 67.3438 -110.063 -93.201 67.3728 
-116.408 -101.199 66.9659 -116.823 -101.983 66.9475 -117.276 -102.81 66.773 
-117.769 -103.892 66.6035 -118.077 -105.098 66.7634 -118.162 -106.05 67.1041 
-118.306 -106.961 67.2686 -118.523 -108.077 67.3263 -118.596 -108.969 67.532 
-111.463 -101.75 67.093 -111.068 -101.038 67.0241 -110.566 -100.26 66.9975 
-110.019 -99.3165 66.8786 -109.679 -98.253 66.9196 -109.626 -97.2932 67.3687 
-109.625 -96.2753 67.7424 -109.561 -94.9601 67.6618 -109.57 -93.7441 67.5573 
-112.369 -103.018 67.1932 -113.109 -103.702 67.1477 -113.939 -104.383 67.1112 
-114.694 -105.094 67.0951 -115.398 -105.947 67.0797 -116.089 -106.849 67.075 
-116.706 -107.636 67.2023 -117.304 -108.327 67.4597 -117.934 -108.925 67.7075 
-115.633 -100.756 77.4168 -115.484 -100.855 77.8199 -115.385 -100.869 78.2242 
-115.086 -101.019 78.6611 -114.45 -101.409 78.8504 -113.852 -101.73 78.5831 
-113.552 -101.788 78.1217 -113.326 -101.81 77.7241 -113.051 -101.95 77.3613 
-115.416 -99.9439 77.1033 -115.058 -99.0831 77.2598 -114.742 -98.1395 77.4615 
-114.248 -97.3808 77.568 -113.534 -96.8314 77.444 -112.885 -96.3704 77.1036 
-112.39 -95.9219 76.5879 -111.894 -95.4362 76.0033 -111.391 -94.9807 75.4967 
-116.164 -101.197 77.0704 -116.542 -101.854 77.1487 -116.857 -102.668 77.2047 
-117.067 -103.666 77.1986 -117.314 -104.59 77.0545 -117.643 -105.361 76.7727 
-117.91 -106.256 76.4651 -118.061 -107.248 76.1753 -118.125 -107.989 75.798 
-112.478 -101.461 77.2293 -112.09 -100.666 77.4935 -111.583 -100.01 77.7851 
-111.097 -99.408 77.9064 -110.989 -98.4823 77.6114 -111.163 -97.4845 77.0124 
-111.159 -96.7702 76.3806 -110.97 -96.0642 75.8492 -110.885 -95.271 75.4446 
-113.338 -102.598 76.9528 -113.911 -103.221 76.9881 -114.408 -104.116 77.1428 
-114.738 -105.131 77.3427 -115.151 -105.913 77.3754 -115.82 -106.444 77.057 
-116.482 -107.008 76.5414 -117.023 -107.625 76.1408 -117.58 -108.103 75.8039 
-109.758 -93.0645 68.7828 -109.712 -92.89 69.7249 -109.645 -92.3267 70.3704 
-109.678 -91.7442 71.0031 -109.751 -91.7685 71.7633 -109.858 -92.5489 72.323 
-110.139 -93.5569 72.8601 -110.505 -94.1622 73.6855 -110.767 -94.3935 74.5129 
-118.624 -109.644 68.4469 -118.634 -110.118 69.0372 -118.747 -110.755 69.5368 
-118.922 -111.093 70.2115 -118.815 -111.089 71.4003 -118.483 -111.034 72.544 
-118.32 -110.606 73.0804 -118.333 -109.693 73.5356 -118.279 -108.875 74.3674 
-119.304 -102.543 70.8465 -119.224 -102.239 70.1979 -118.873 -101.83 70.9223 
-119.007 -101.782 69.6492 -118.7 -101.383 70.3313 -118.395 -100.868 70.9764 
-118.705 -101.198 69.0822 -118.496 -100.762 69.7556 -118.195 -100.352 70.4016 
-117.827 -99.9367 70.9236 -118.494 -100.598 68.2717 -118.348 -100.123 68.9907 
-118.051 -99.7778 69.7634 -117.686 -99.3923 70.2851 -117.356 -98.9812 70.8668 
-118.173 -100.166 67.5797 -118.043 -99.704 68.1869 -117.74 -99.3874 69.0258 
-117.494 -98.8632 69.5946 -117.234 -98.3453 70.111 -116.913 -98.0198 70.8908 
-117.475 -100.01 67.3886 -117.355 -99.5149 67.8141 -117.054 -99.2178 68.5229 
-116.888 -98.6635 69.0566 -116.875 -97.9294 69.4501 -116.626 -97.5514 70.1364 
-116.154 -97.4813 70.9518 -116.606 -99.9787 67.3845 -116.513 -99.4045 67.7236 
-116.294 -99.0066 68.2618 -116.104 -98.5498 68.7533 -116.13 -97.8771 69.0755 
-116.105 -97.3269 69.5748 -115.736 -97.1568 70.3203 -115.28 -97.1005 70.9853 
-120.109 -103.62 70.4892 -120.274 -104.324 70.1417 -120.106 -103.152 69.7304 
-120.084 -105.276 69.8184 -120.091 -103.894 69.3756 -119.852 -102.868 69.177 
-119.847 -106.256 69.3771 -119.7 -105.037 69.092 -119.627 -103.744 68.9109 
-119.213 -102.844 68.8937 -119.953 -107.047 68.6622 -119.491 -106.055 68.7252 
-119.224 -104.821 68.6946 -118.959 -103.734 68.6459 -118.581 -102.679 68.438 
-120.182 -107.724 67.8872 -119.632 -106.714 68.1507 -119.074 -105.632 68.3869 
-118.779 -104.487 68.2773 -118.459 -103.397 68.0625 -118.219 -102.177 67.7482 
-120.006 -108.368 67.4686 -119.626 -107.262 67.6039 -119.014 -106.202 67.9417 
-118.684 -105.105 67.8383 -118.439 -103.914 67.5101 -118.094 -102.781 67.3743 
-117.786 -101.703 67.3072 -119.359 -108.832 67.4385 -119.183 -107.763 67.3579 
-118.741 -106.65 67.5288 -118.465 -105.672 67.4342 -118.311 -104.509 67.0528 
-117.965 -103.287 66.9178 -117.526 -102.299 67.0588 -117.101 -101.448 67.1553 
-117.889 -108.365 67.3764 -117.27 -107.606 67.0965 -117.82 -107.347 67.1374 
-116.647 -106.897 66.7766 -117.282 -106.682 66.7233 -117.805 -106.358 66.8623 
-115.818 -106.15 66.6186 -116.531 -106.139 66.3337 -117.319 -105.859 66.3205 
-117.808 -105.517 66.516 -114.996 -105.243 66.6548 -115.522 -105.402 66.2224 
-116.427 -105.283 65.974 -117.194 -104.9 66.066 -117.548 -104.423 66.348 
-114.345 -104.367 66.7803 -114.71 -104.447 66.3895 -115.394 -104.446 65.9812 
-116.245 -104.17 65.8561 -116.762 -103.709 66.1543 -117.006 -103.232 66.5208 
-113.595 -103.64 66.8383 -114.005 -103.602 66.5533 -114.514 -103.538 66.2109 
-115.25 -103.342 65.8977 -115.9 -102.985 65.9794 -116.242 -102.595 66.3725 
[...]
POINT_DATA 1002
FIELD FieldData 2
Theta 1 1002 float
2.58802 2.58802 0.553574 0.553574 2.12437 1.01722 2.12437 1.01722 1.5708 
1.5708 1.5708 1.5708 2.68241 2.78649 2.89924 3.01861 3.14159 3.01861 
2.89924 2.78649 2.68241 2.61035 2.61791 2.60515 2.56958 2.51327 2.44184 
2.36202 2.27983 2.1997 2.61035 2.61791 2.60515 2.56958 2.51327 2.44184 
2.36202 2.27983 2.1997 2.50947 2.41899 2.31794 2.20864 2.0944 1.97902 
1.86631 1.75944 1.66056 2.50947 2.41899 2.31794 2.20864 2.0944 1.97902 
1.86631 1.75944 1.66056 2.61035 2.61791 2.60515 2.56958 2.51327 2.44184 
2.36202 2.27983 2.1997 2.61035 2.61791 2.60515 2.56958 2.51327 2.44184 
2.36202 2.27983 2.1997 2.50947 2.41899 2.31794 2.20864 2.0944 1.97902 
1.86631 1.75944 1.66056 2.50947 2.41899 2.31794 2.20864 2.0944 1.97902 
1.86631 1.75944 1.66056 0.459179 0.355101 0.242354 0.122983 0 0.122983 
0.242354 0.355101 0.459179 0.531246 0.523681 0.536438 0.57201 0.628319 0.699757 
0.779574 0.86176 0.941896 0.531246 0.523681 0.536438 0.57201 0.628319 0.699757 
0.779574 0.86176 0.941896 0.632123 0.7226 0.823657 0.932948 1.0472 1.16257 
1.27528 1.38216 1.48103 0.632123 0.7226 0.823657 0.932948 1.0472 1.16257 
1.27528 1.38216 1.48103 0.531246 0.523681 0.536438 0.57201 0.628319 0.699757 
0.779574 0.86176 0.941896 0.531246 0.523681 0.536438 0.57201 0.628319 0.699757 
0.779574 0.86176 0.941896 0.632123 0.7226 0.823657 0.932948 1.0472 1.16257 
1.27528 1.38216 1.48103 0.632123 0.7226 0.823657 0.932948 1.0472 1.16257 
1.27528 1.38216 1.48103 2.02998 1.9259 1.81315 1.69378 1.5708 1.44781 
1.32844 1.2157 1.11162 2.0928 2.05283 2.00422 1.94767 1.88496 1.81867 
1.75177 1.68695 1.62623 2.0928 2.05283 2.00422 1.94767 1.88496 1.81867 
1.75177 1.68695 1.62623 1.0488 1.08876 1.13737 1.19392 1.25664 1.32292 
1.38982 1.45464 1.51537 1.0488 1.08876 1.13737 1.19392 1.25664 1.32292 
1.38982 1.45464 1.51537 2.02998 1.9259 1.81315 1.69378 1.5708 1.44781 
1.32844 1.2157 1.11162 2.0928 2.05283 2.00422 1.94767 1.88496 1.81867 
1.75177 1.68695 1.62623 2.0928 2.05283 2.00422 1.94767 1.88496 1.81867 
1.75177 1.68695 1.62623 1.0488 1.08876 1.13737 1.19392 1.25664 1.32292 
1.38982 1.45464 1.51537 1.0488 1.08876 1.13737 1.19392 1.25664 1.32292 
1.38982 1.45464 1.51537 1.5708 1.5708 1.5708 1.5708 1.5708 1.5708 
1.5708 1.5708 1.5708 1.5708 1.5708 1.5708 1.5708 1.5708 1.5708 
1.5708 1.5708 1.5708 2.70908 2.71362 2.81592 2.68886 2.81002 2.92597 
2.6349 2.76254 2.89233 3.01997 2.55881 2.68262 2.80854 2.92834 3.01997 
2.47007 2.58462 2.70048 2.80854 2.89233 2.92597 2.37702 2.48017 2.58462 
2.68262 2.76254 2.81002 2.81592 2.28567 2.37702 2.47007 2.55881 2.6349 
2.68886 2.71362 2.70908 2.52097 2.4195 2.51718 2.30791 2.40503 2.49426 
2.18928 2.28408 2.3734 2.45144 2.06758 2.15805 2.24572 2.32523 2.39165 
1.94707 2.03138 2.11543 2.19453 2.26401 2.32035 1.83164 1.90847 1.98711 
2.06376 2.13422 2.1949 2.24359 1.72413 1.79288 1.86489 1.93728 2.00658 
2.06938 2.12312 2.16654 1.5708 1.50988 1.63171 1.44492 1.5708 1.69667 
1.37826 1.5059 1.63569 1.76333 1.31281 1.43962 1.5708 1.70197 1.82878 
1.25155 1.37501 1.50478 1.63681 1.76659 1.89004 1.19686 1.31493 1.44074 
1.5708 1.70086 1.82666 1.94473 1.15011 1.26149 1.38136 1.50697 1.63462 
1.76024 1.88011 1.99148 1.99148 1.88011 1.94473 1.76024 1.82666 1.89004 
1.63462 1.70086 1.76659 1.82878 1.50697 1.5708 1.63681 1.70197 1.76333 
1.38136 1.44074 1.50478 1.5708 1.63569 1.69667 1.26149 1.31493 1.37501 
1.43962 1.5059 1.5708 1.63171 1.15011 1.19686 1.25155 1.31281 1.37826 
1.44492 1.50988 1.5708 2.16654 2.12312 2.24359 2.06938 2.1949 2.32035 
2.00658 2.13422 2.26401 2.39165 1.93728 2.06376 2.19453 2.32523 2.45144 
1.86489 1.98711 2.11543 2.24572 2.3734 2.49426 1.79288 1.90847 2.03138 
2.15805 2.28408 2.40503 2.51718 1.72413 1.83164 1.94707 2.06758 2.18928 
2.30791 2.4195 2.52097 1.66533 1.66946 1.76911 1.67254 1.777 1.88041 
1.67418 1.78222 1.89102 1.99634 1.67418 1.78405 1.89674 2.00785 2.11299 
1.67254 1.78222 1.89674 2.01191 2.12307 2.22608 1.66946 1.777 1.89102 
2.00785 2.12307 2.23222 2.33166 1.66533 1.76911 1.88041 1.99634 2.11299 
2.22608 2.33166 2.42672 1.47626 1.37249 1.47213 1.26118 1.36459 1.46906 
1.14526 1.25058 1.35938 1.46741 1.0286 1.13374 1.24485 1.35755 1.46741 
0.915514 1.01852 1.12969 1.24485 1.35938 1.46906 0.809937 0.909371 1.01852 
1.13374 1.25058 1.36459 1.47213 0.714871 0.809937 0.915514 1.0286 1.14526 
1.26118 1.37249 1.47626 0.975055 0.898002 1.01847 0.821245 0.946693 1.07221 
0.749941 0.877585 1.00737 1.13501 0.690152 0.816367 0.94706 1.07784 1.20431 
0.647337 0.768195 0.895868 1.02616 1.15448 1.2767 0.624416 0.736561 0.857515 
0.983547 1.11021 1.23313 1.34871 0.620619 0.722093 0.833684 0.952313 1.07402 
1.19452 1.30996 1.41746 0.855925 0.764569 0.764569 0.671524 0.661425 0.671524 
0.582786 0.556971 0.556971 0.582786 0.506696 0.458968 0.441109 0.458968 0.506696 
0.45273 0.379052 0.333054 0.333054 0.379052 0.45273 0.427969 0.331576 0.249267 
0.21325 0.249267 0.331576 0.427969 0.432512 0.325669 0.215619 0.121622 0.121622 
0.215619 0.325669 0.432512 0.432512 0.427969 0.325669 0.45273 0.331576 0.215619 
0.506696 0.379052 0.249267 0.121622 0.582786 0.458968 0.333054 0.21325 0.121622 
0.671524 0.556971 0.441109 0.333054 0.249267 0.215619 0.764569 0.661425 0.556971 
0.458968 0.379052 0.331576 0.325669 0.855925 0.764569 0.671524 0.582786 0.506696 
0.45273 0.427969 0.432512 0.975055 1.01847 0.898002 1.07221 0.946693 0.821245 
1.13501 1.00737 0.877585 0.749941 1.20431 1.07784 0.94706 0.816367 0.690152 
1.2767 1.15448 1.02616 0.895868 0.768195 0.647337 1.34871 1.23313 1.11021 
0.983547 0.857515 0.736561 0.624416 1.41746 1.30996 1.19452 1.07402 0.952313 
0.833684 0.722093 0.620619 1.15011 1.26149 1.19686 1.38136 1.31493 1.25155 
1.50697 1.44074 1.37501 1.31281 1.63462 1.5708 1.50478 1.43962 1.37826 
1.76024 1.70086 1.63681 1.5708 1.5059 1.44492 1.88011 1.82666 1.76659 
1.70197 1.63569 1.5708 1.50988 1.99148 1.94473 1.89004 1.82878 1.76333 
1.69667 1.63171 1.5708 1.15011 1.19686 1.26149 1.25155 1.31493 1.38136 
1.31281 1.37501 1.44074 1.50697 1.37826 1.43962 1.50478 1.5708 1.63462 
1.44492 1.5059 1.5708 1.63681 1.70086 1.76024 1.50988 1.5708 1.63569 
1.70197 1.76659 1.82666 1.88011 1.5708 1.63171 1.69667 1.76333 1.82878 
1.89004 1.94473 1.99148 1.72413 1.83164 1.79288 1.94707 1.90847 1.86489 
2.06758 2.03138 1.98711 1.93728 2.18928 2.15805 2.11543 2.06376 2.00658 
2.30791 2.28408 2.24572 2.19453 2.13422 2.06938 2.4195 2.40503 2.3734 
2.32523 2.26401 2.1949 2.12312 2.52097 2.51718 2.49426 2.45144 2.39165 
2.32035 2.24359 2.16654 2.70908 2.81592 2.71362 2.92597 2.81002 2.68886 
3.01997 2.89233 2.76254 2.6349 3.01997 2.92834 2.80854 2.68262 2.55881 
2.92597 2.89233 2.80854 2.70048 2.58462 2.47007 2.81592 2.81002 2.76254 
2.68262 2.58462 2.48017 2.37702 2.70908 2.71362 2.68886 2.6349 2.55881 
2.47007 2.37702 2.28567 2.16654 2.24359 2.12312 2.32035 2.1949 2.06938 
2.39165 2.26401 2.13422 2.00658 2.45144 2.32523 2.19453 2.06376 1.93728 
2.49426 2.3734 2.24572 2.11543 1.98711 1.86489 2.51718 2.40503 2.28408 
2.15805 2.03138 1.90847 1.79288 2.52097 2.4195 2.30791 2.18928 2.06758 
1.94707 1.83164 1.72413 1.66533 1.76911 1.66946 1.88041 1.777 1.67254 
1.99634 1.89102 1.78222 1.67418 2.11299 2.00785 1.89674 1.78405 1.67418 
2.22608 2.12307 2.01191 1.89674 1.78222 1.67254 2.33166 2.23222 2.12307 
2.00785 1.89102 1.777 1.66946 2.42672 2.33166 2.22608 2.11299 1.99634 
1.88041 1.76911 1.66533 1.47626 1.47213 1.37249 1.46906 1.36459 1.26118 
1.46741 1.35938 1.25058 1.14526 1.46741 1.35755 1.24485 1.13374 1.0286 
1.46906 1.35938 1.24485 1.12969 1.01852 0.915514 1.47213 1.36459 1.25058 
1.13374 1.01852 0.909371 0.809937 1.47626 1.37249 1.26118 1.14526 1.0286 
0.915514 0.809937 0.714871 1.41746 1.30996 1.34871 1.19452 1.23313 1.2767 
1.07402 1.11021 1.15448 1.20431 0.952313 0.983547 1.02616 1.07784 1.13501 
0.833684 0.857515 0.895868 0.94706 1.00737 1.07221 0.722093 0.736561 0.768195 
0.816367 0.877585 0.946693 1.01847 0.620619 0.624416 0.647337 0.690152 0.749941 
0.821245 0.898002 0.975055 0.975055 0.898002 1.01847 0.821245 0.946693 1.07221 
0.749941 0.877585 1.00737 1.13501 0.690152 0.816367 0.94706 1.07784 1.20431 
0.647337 0.768195 0.895868 1.02616 1.15448 1.2767 0.624416 0.736561 0.857515 
0.983547 1.11021 1.23313 1.34871 0.620619 0.722093 0.833684 0.952313 1.07402 
1.19452 1.30996 1.41746 
Phi 1 1002 float
6.28319 3.14159 6.28319 3.14159 4.71239 4.71239 1.5708 1.5708 3.69517 
5.72961 2.58802 0.553574 6.28319 6.28319 6.28319 6.28319 3.14159 3.14159 
3.14159 3.14159 3.14159 6.1053 5.8988 5.67687 5.45995 5.26596 5.10322 
4.97131 4.86569 4.78095 0.177881 0.384387 0.606312 0.823235 1.01722 1.17997 
1.31187 1.4175 1.50223 6.18928 6.10703 6.03531 5.97283 5.91832 5.87061 
5.82869 5.79168 5.75886 0.0939024 0.176153 0.247873 0.310351 0.364864 0.412573 
0.454497 0.491504 0.524326 3.31947 3.52598 3.7479 3.96483 4.15881 4.32156 
4.45346 4.55909 4.64383 2.96371 2.75721 2.53528 2.31836 2.12437 1.96162 
1.82972 1.72409 1.63936 3.2355 3.31775 3.38947 3.45194 3.50646 3.55417 
3.59609 3.6331 3.66592 3.04769 2.96544 2.89372 2.83124 2.77673 2.72902 
2.6871 2.65009 2.61727 6.28319 6.28319 6.28319 6.28319 3.14159 3.14159 
3.14159 3.14159 3.14159 6.1053 5.8988 5.67687 5.45995 5.26596 5.10322 
4.97131 4.86569 4.78095 0.177881 0.384387 0.606312 0.823235 1.01722 1.17997 
1.31187 1.4175 1.50223 6.18928 6.10703 6.03531 5.97283 5.91832 5.87061 
5.82869 5.79168 5.75886 0.0939024 0.176153 0.247873 0.310351 0.364864 0.412573 
0.454497 0.491504 0.524326 3.31947 3.52598 3.7479 3.96483 4.15881 4.32156 
4.45346 4.55909 4.64383 2.96371 2.75721 2.53528 2.31836 2.12437 1.96162 
1.82972 1.72409 1.63936 3.2355 3.31775 3.38947 3.45194 3.50646 3.55417 
3.59609 3.6331 3.66592 3.04769 2.96544 2.89372 2.83124 2.77673 2.72902 
2.6871 2.65009 2.61727 4.71239 4.71239 4.71239 4.71239 4.71239 4.71239 
4.71239 4.71239 4.71239 4.60879 4.49914 4.3857 4.27128 4.15881 4.05096 
3.94976 3.85646 3.77161 4.81599 4.92564 5.03907 5.1535 5.26596 5.37381 
5.47502 5.56831 5.65317 4.60879 4.49914 4.3857 4.27128 4.15881 4.05096 
3.94976 3.85646 3.77161 4.81599 4.92564 5.03907 5.1535 5.26596 5.37381 
5.47502 5.56831 5.65317 1.5708 1.5708 1.5708 1.5708 1.5708 1.5708 
1.5708 1.5708 1.5708 1.6744 1.78405 1.89748 2.01191 2.12437 2.23222 
2.33343 2.42672 2.51157 1.4672 1.35755 1.24411 1.12969 1.01722 0.909371 
0.808166 0.714871 0.63002 1.6744 1.78405 1.89748 2.01191 2.12437 2.23222 
2.33343 2.42672 2.51157 1.4672 1.35755 1.24411 1.12969 1.01722 0.909371 
0.808166 0.714871 0.63002 3.60077 3.49669 3.38395 3.26458 3.14159 3.01861 
2.89924 2.78649 2.68241 5.82401 5.92808 6.04083 6.1602 6.28319 0.122983 
0.242354 0.355101 0.459179 6.05603 5.78856 5.97021 5.51259 5.60297 5.78856 
5.26596 5.26596 5.26596 5.26596 5.06749 5.0121 4.91556 4.71239 4.15881 
4.91556 4.83537 4.71239 4.50922 4.15881 3.63622 4.80045 4.71239 4.58941 
4.41268 4.15881 3.82181 3.45456 4.71239 4.62433 4.50922 4.35729 4.15881 
3.91219 3.63622 3.36875 6.01742 5.94343 5.82633 5.88092 5.76745 5.62798 
5.8278 5.71897 5.58911 5.43724 5.78235 5.67854 5.55757 5.41926 5.26596 
5.74316 5.64441 5.5315 5.40467 5.26596 5.11955 5.70914 5.61528 5.50962 
5.3926 5.26596 5.13292 4.99789 5.67937 5.59016 5.49102 5.38246 5.26596 
5.14407 5.02016 4.89798 5.56831 5.47502 5.47502 5.37381 5.37381 5.37381 
5.26596 5.26596 5.26596 5.26596 5.1535 5.1535 5.1535 5.1535 5.1535 
5.03907 5.03907 5.03907 5.03907 5.03907 5.03907 4.92564 4.92564 4.92564 
4.92564 4.92564 4.92564 4.92564 4.81599 4.81599 4.81599 4.81599 4.81599 
4.81599 4.81599 4.81599 4.60879 4.60879 4.49914 4.60879 4.49914 4.3857 
4.60879 4.49914 4.3857 4.27128 4.60879 4.49914 4.3857 4.27128 4.15881 
4.60879 4.49914 4.3857 4.27128 4.15881 4.05096 4.60879 4.49914 4.3857 
4.27128 4.15881 4.05096 3.94976 4.60879 4.49914 4.3857 4.27128 4.15881 
4.05096 3.94976 3.85646 4.5268 4.40462 4.42689 4.28071 4.29185 4.30523 
4.15881 4.15881 4.15881 4.15881 4.04232 4.03217 4.02011 4.00552 3.98753 
3.93376 3.91515 3.89328 3.86721 3.83566 3.7968 3.83461 3.8095 3.78037 
3.74624 3.70581 3.65733 3.59845 3.7454 3.71564 3.68161 3.64243 3.59698 
3.54386 3.48135 3.40735 3.56428 3.45246 3.52338 3.33203 3.40312 3.47739 
3.20576 3.27463 3.34802 3.42551 3.07742 3.14159 3.21128 3.28647 3.36688 
2.95116 3.00855 3.0719 3.14159 3.21784 3.3006 2.83072 2.88006 2.93517 
2.99672 3.06535 3.14159 3.22575 2.7189 2.7598 2.8058 2.85768 2.9163 
2.98259 3.05743 3.14159 3.56428 3.52338 3.45246 3.47739 3.40312 3.33203 
3.42551 3.34802 3.27463 3.20576 3.36688 3.28647 3.21128 3.14159 3.07742 
3.3006 3.21784 3.14159 3.0719 3.00855 2.95116 3.22575 3.14159 3.06535 
2.99672 2.93517 2.88006 2.83072 3.14159 3.05743 2.98259 2.9163 2.85768 
2.8058 2.7598 2.7189 4.5268 4.42689 4.40462 4.30523 4.29185 4.28071 
4.15881 4.15881 4.15881 4.15881 3.98753 4.00552 4.02011 4.03217 4.04232 
3.7968 3.83566 3.86721 3.89328 3.91515 3.93376 3.59845 3.65733 3.70581 
3.74624 3.78037 3.8095 3.83461 3.40735 3.48135 3.54386 3.59698 3.64243 
3.68161 3.71564 3.7454 4.71239 4.80045 4.62433 4.91556 4.71239 4.50922 
5.06749 4.83537 4.58941 4.35729 5.26596 5.0121 4.71239 4.41268 4.15881 
5.51259 5.26596 4.91556 4.50922 4.15881 3.91219 5.78856 5.60297 5.26596 
4.71239 4.15881 3.82181 3.63622 6.05603 5.97021 5.78856 5.26596 4.15881 
3.63622 3.45456 3.36875 0.227158 0.494626 0.312971 0.770593 0.680215 0.494626 
1.01722 1.01722 1.01722 1.01722 1.2157 1.27109 1.36763 1.5708 2.12437 
1.36763 1.44781 1.5708 1.77397 2.12437 2.64697 1.48273 1.5708 1.69378 
1.8705 2.12437 2.46138 2.82862 1.5708 1.65886 1.77397 1.9259 2.12437 
2.371 2.64697 2.91443 1.75639 1.87857 1.8563 2.00248 1.99133 1.97796 
2.12437 2.12437 2.12437 2.12437 2.24087 2.25101 2.26308 2.27767 2.29565 
2.34943 2.36803 2.38991 2.41597 2.44752 2.48639 2.44857 2.47368 2.50281 
2.53694 2.57738 2.62586 2.68474 2.53778 2.56754 2.60157 2.64076 2.68621 
2.73933 2.80184 2.87583 1.6744 1.6744 1.78405 1.6744 1.78405 1.89748 
1.6744 1.78405 1.89748 2.01191 1.6744 1.78405 1.89748 2.01191 2.12437 
1.6744 1.78405 1.89748 2.01191 2.12437 2.23222 1.6744 1.78405 1.89748 
2.01191 2.12437 2.23222 2.33343 1.6744 1.78405 1.89748 2.01191 2.12437 
2.23222 2.33343 2.42672 1.4672 1.35755 1.4672 1.24411 1.35755 1.4672 
1.12969 1.24411 1.35755 1.4672 1.01722 1.12969 1.24411 1.35755 1.4672 
0.909371 1.01722 1.12969 1.24411 1.35755 1.4672 0.808166 0.909371 1.01722 
1.12969 1.24411 1.35755 1.4672 0.714871 0.808166 0.909371 1.01722 1.12969 
1.24411 1.35755 1.4672 0.603812 0.57405 0.693022 0.540021 0.667908 0.792164 
0.500837 0.638778 0.773562 0.900726 0.455383 0.604649 0.751687 0.890581 1.01722 
0.402264 0.564217 0.725619 0.878514 1.01722 1.13912 0.339753 0.515737 0.694072 
0.863926 1.01722 1.15026 1.26302 0.265762 0.456853 0.655207 0.845941 1.01722 
1.16363 1.28529 1.38521 0.227158 0.312971 0.494626 0.494626 0.680215 0.770593 
1.01722 1.01722 1.01722 1.01722 2.12437 1.5708 1.36763 1.27109 1.2157 
2.64697 2.12437 1.77397 1.5708 1.44781 1.36763 2.82862 2.46138 2.12437 
1.8705 1.69378 1.5708 1.48273 2.91443 2.64697 2.371 2.12437 1.9259 
1.77397 1.65886 1.5708 1.75639 1.8563 1.87857 1.97796 1.99133 2.00248 
2.12437 2.12437 2.12437 2.12437 2.29565 2.27767 2.26308 2.25101 2.24087 
2.48639 2.44752 2.41597 2.38991 2.36803 2.34943 2.68474 2.62586 2.57738 
2.53694 2.50281 2.47368 2.44857 2.87583 2.80184 2.73933 2.68621 2.64076 
2.60157 2.56754 2.53778 5.86049 5.90139 5.97231 5.94739 6.02165 6.09275 
5.99927 6.07676 6.15015 6.21902 6.0579 6.13831 6.2135 0 0.0641696 
6.12418 6.20694 6.28319 0.069689 0.13304 0.190437 6.19903 0 0.0762451 
0.144876 0.206423 0.261531 0.310872 0 0.0841597 0.159004 0.225289 0.283913 
0.335793 0.381792 0.422692 5.86049 5.97231 5.90139 6.09275 6.02165 5.94739 
6.21902 6.15015 6.07676 5.99927 0.0641696 0 6.2135 6.13831 6.0579 
0.190437 0.13304 0.069689 6.28319 6.20694 6.12418 0.310872 0.261531 0.206423 
0.144876 0.0762451 6.28319 6.19903 0.422692 0.381792 0.335793 0.283913 0.225289 
0.159004 0.0841597 0 5.67937 5.70914 5.59016 5.74316 5.61528 5.49102 
5.78235 5.64441 5.50962 5.38246 5.8278 5.67854 5.5315 5.3926 5.26596 
5.88092 5.71897 5.55757 5.40467 5.26596 5.14407 5.94343 5.76745 5.58911 
5.41926 5.26596 5.13292 5.02016 6.01742 5.82633 5.62798 5.43724 5.26596 
5.11955 4.99789 4.89798 1.38521 1.28529 1.26302 1.16363 1.15026 1.13912 
1.01722 1.01722 1.01722 1.01722 0.845941 0.863926 0.878514 0.890581 0.900726 
0.655207 0.694072 0.725619 0.751687 0.773562 0.792164 0.456853 0.515737 0.564217 
0.604649 0.638778 0.667908 0.693022 0.265762 0.339753 0.402264 0.455383 0.500837 
0.540021 0.57405 0.603812 
