# vtk DataFile Version 4.0
vtk output
ASCII
DATASET POLYDATA
POINTS 1002 float
-120.058 -100.632 70.0551 -114.842 -92.7947 69.4419 -114.601 -103.592 70.7302 
-109.258 -96.2272 70.2307 -116.308 -97.1606 65.2823 -112.479 -99.5197 65.239 
-116.569 -96.5646 74.6901 -113.519 -98.4812 75.0615 -110.071 -90.7577 66.7484 
-119.182 -106.887 67.3607 -110.826 -90.6338 73.373 -118.866 -106.242 73.8231 
-119.815 -99.8306 70.0049 -119.24 -99.1737 69.9517 -118.62 -98.3404 69.8603 
-118.308 -97.1415 69.7722 -118.114 -95.9018 69.7584 -117.732 -94.9128 69.7486 
-117.134 -94.2018 69.6724 -116.3 -93.7575 69.5905 -115.42 -93.3715 69.5256 
-120.051 -100.411 69.5678 -119.954 -100.15 69.0646 -119.692 -99.9051 68.5197 
-119.357 -99.6058 67.8992 -119.009 -99.1926 67.2802 -118.472 -98.7615 66.8377 
-117.765 -98.3076 66.4999 -117.196 -97.787 66.0558 -116.788 -97.3626 65.5843 
-119.967 -100.254 70.5892 -119.766 -99.9445 71.205 -119.34 -99.762 71.6601 
-118.758 -99.5243 71.9711 -118.336 -99.0098 72.4703 -118.034 -98.4424 73.0681 
-117.529 -98.0827 73.4149 -117.005 -97.6925 73.694 -116.749 -97.1065 74.1764 
-120.129 -101.507 69.8565 -120.352 -102.334 69.6902 -120.775 -102.968 69.3549 
-120.928 -103.757 68.8478 -120.745 -104.831 68.428 -120.809 -105.772 68.0203 
-120.977 -106.45 67.4967 -120.632 -106.942 67.1868 -119.882 -107.097 67.2349 
-120.083 -101.378 70.3922 -120.045 -102.304 70.6879 -119.966 -103.321 70.9422 
-119.932 -104.16 71.3034 -120.024 -104.707 71.8891 -120.137 -105.216 72.5361 
-120.084 -105.795 72.9967 -119.812 -106.205 73.2775 -119.373 -106.321 73.5356 
-114.954 -93.0222 68.9831 -115.244 -93.2304 68.4448 -115.743 -93.3631 67.7557 
-116.138 -93.5858 67.1001 -116.142 -94.2003 66.8131 -115.963 -95.1212 66.7682 
-115.897 -95.9015 66.5442 -115.962 -96.3892 66.1122 -116.113 -96.7725 65.6697 
-115.03 -93.0006 69.9859 -115.265 -93.1999 70.6186 -115.563 -93.4023 71.3511 
-115.95 -93.5853 72.1223 -116.272 -93.8299 72.7674 -116.31 -94.3463 73.1956 
-116.197 -95.0663 73.5258 -116.223 -95.6816 73.8894 -116.394 -96.1365 74.2896 
-114.61 -92.1161 69.0314 -114.476 -91.2876 68.5492 -114.142 -90.5742 68.0671 
-113.493 -90.1475 67.6631 -112.849 -89.823 67.302 -112.359 -89.4174 66.9649 
-111.75 -89.2029 66.7637 -111.012 -89.4692 66.7322 -110.432 -90.0796 66.7542 
-114.622 -92.1732 69.6926 -114.404 -91.527 70.0099 -114.005 -91.0706 70.323 
-113.455 -90.8676 70.6557 -112.953 -90.7001 71.1976 -112.578 -90.4474 71.8991 
-112.238 -90.3073 72.4436 -111.817 -90.3687 72.7707 -111.307 -90.4954 73.0655 
-114.338 -102.632 70.6341 -113.902 -101.78 70.489 -113.263 -101.089 70.3526 
-112.463 -100.474 70.3299 -111.751 -99.7271 70.3502 -111.327 -98.7211 70.2147 
-110.915 -97.7995 70.0122 -110.282 -97.26 69.991 -109.657 -96.8295 70.1267 
-114.586 -103.236 70.1333 -114.45 -102.846 69.5951 -114.117 -102.531 69.0591 
-113.678 -102.308 68.356 -113.327 -101.979 67.6578 -113.217 -101.337 67.2738 
-113.253 -100.58 66.9868 -113.152 -100.062 66.4535 -112.832 -99.781 65.788 
-114.477 -103.257 71.2317 -114.388 -102.809 71.6336 -114.357 -102.274 72.0548 
-114.327 -101.717 72.5652 -114.267 -101.108 73.0214 -114.206 -100.417 73.4237 
-114.087 -99.8356 73.9208 -113.855 -99.4566 74.4328 -113.622 -99.0536 74.8118 
-114.783 -104.382 70.3734 -115.003 -105.105 69.972 -115.487 -105.536 69.6128 
-116.268 -105.717 69.2086 -116.942 -106.077 68.6937 -117.308 -106.685 68.1723 
-117.681 -107.075 67.765 -118.21 -107.115 67.5508 -118.736 -107.032 67.4761 
-114.761 -104.355 71.1659 -115.08 -104.942 71.5747 -115.58 -105.306 71.9014 
-116.226 -105.549 72.2045 -116.951 -105.739 72.4853 -117.515 -105.958 72.7124 
-117.826 -106.254 73.0148 -118.127 -106.49 73.4351 -118.522 -106.495 73.7565 
-109.362 -96.4373 69.6206 -109.45 -96.7825 69.0634 -109.394 -97.3378 68.5901 
-109.327 -97.9733 68.0192 -109.524 -98.4495 67.3426 -110.122 -98.6558 66.8381 
-110.958 -98.7506 66.5024 -111.66 -98.9629 66.0809 -112.101 -99.2737 65.5952 
-109.426 -96.4616 70.8205 -109.718 -96.6371 71.3976 -110.173 -96.6704 71.8309 
-110.799 -96.6534 72.1901 -111.462 -96.79 72.7023 -111.897 -97.1431 73.3877 
-112.085 -97.6274 74.0695 -112.341 -98.0876 74.6073 -112.862 -98.3684 74.9272 
-109.005 -95.6321 69.9053 -108.723 -95.0501 69.5501 -108.406 -94.4752 69.1053 
-108.093 -93.7793 68.5733 -107.899 -92.9601 68.0902 -108.008 -92.1536 67.6653 
-108.425 -91.4957 67.2164 -108.97 -91.0749 66.8701 -109.531 -90.8634 66.7518 
-109.144 -95.5804 70.5499 -109.165 -94.7764 70.7296 -109.097 -94.0506 71.038 
-108.896 -93.558 71.6281 -108.827 -93.0801 72.1547 -109.025 -92.3252 72.4626 
-109.387 -91.4714 72.7597 -109.819 -90.9313 73.0178 -110.301 -90.7317 73.1823 
-116.006 -97.3564 64.936 -115.574 -97.5489 64.5955 -115.136 -97.7 64.2917 
-114.717 -97.9515 64.0394 -114.255 -98.3771 63.8312 -113.818 -98.7486 63.7985 
-113.418 -98.959 64.0611 -112.986 -99.1636 64.4581 -112.634 -99.3872 64.8335 
-115.554 -96.809 65.3775 -114.83 -96.2684 65.4063 -114.298 -95.4951 65.2075 
-113.797 -94.7834 65.1462 -113.125 -94.1404 65.4627 -112.327 -93.2991 65.7586 
-111.6 -92.4465 65.9403 -111.06 -91.833 66.2749 -110.593 -91.3069 66.6197 
-116.811 -97.6937 65.1331 -117.129 -98.4775 65.2325 -117.272 -99.5616 65.5135 
-117.538 -100.789 65.8543 -118.077 -101.969 66.2721 -118.614 -103.155 66.59 
-118.911 -104.38 66.6381 -119.061 -105.43 66.7271 -119.171 -106.216 67.0513 
-111.982 -99.0166 65.0117 -111.678 -98.3247 64.9861 -111.453 -97.5627 65.1223 
-111.106 -96.7617 65.2848 -110.706 -95.7442 65.5204 -110.413 -94.5822 65.9423 
-110.237 -93.5749 66.3664 -110.153 -92.7013 66.5922 -110.113 -91.76 66.6891 
-113.151 -99.8931 65.3174 -113.815 -100.418 65.4144 -114.344 -101.196 65.5164 
-114.945 -102.046 65.7893 -115.742 -102.937 66.1141 -116.539 -104.007 66.2041 
-117.272 -104.959 66.3158 -117.98 -105.575 66.7364 -118.611 -106.163 67.1801 
-116.425 -96.6333 75.1707 -116.148 -96.809 75.5535 -115.896 -96.9878 75.8797 
-115.62 -97.1685 76.2216 -115.047 -97.4613 76.476 -114.424 -97.7304 76.4215 
-114.199 -97.7977 76.0361 -114.152 -97.8592 75.5762 -113.904 -98.1215 75.2587 
-116.086 -95.9626 74.7927 -115.39 -95.4654 74.7794 -114.774 -94.7572 74.8739 
-114.369 -93.809 75.0547 -113.926 -92.957 75.0614 -113.301 -92.1942 75.0261 
-112.592 -91.4081 75.0539 -111.906 -90.8555 74.7795 -111.314 -90.6609 74.1033 
-116.845 -97.3746 74.8082 -117.091 -98.3353 74.8945 -117.394 -99.2924 74.9447 
-117.781 -100.213 74.9991 -118.13 -101.234 74.9897 -118.345 -102.373 74.7447 
-118.475 -103.492 74.3723 -118.604 -104.52 74.1299 -118.754 -105.447 73.9955 
-113.109 -97.7199 75.171 -112.717 -96.8786 75.2157 -112.177 -96.1252 75.4255 
-111.55 -95.3979 75.7762 -111.229 -94.5175 75.6484 -111.219 -93.5433 74.9663 
-111.11 -92.5549 74.4846 -110.865 -91.6129 74.3257 -110.749 -90.9406 73.991 
-114.178 -99.0062 75.0192 -114.666 -99.8356 75.1875 -114.928 -100.993 75.6521 
-115.247 -102 75.8387 -115.898 -102.656 75.423 -116.753 -103.423 75.1238 
-117.468 -104.385 75.1915 -117.931 -105.151 74.9716 -118.35 -105.695 74.3638 
-109.692 -89.8464 66.7676 -109.383 -89.2498 66.9251 -109.353 -89.0621 67.6172 
-109.576 -88.8691 68.7942 -109.75 -88.6803 69.7892 -109.816 -89.0569 70.386 
-110.009 -89.832 70.996 -110.336 -90.3615 71.7477 -110.619 -90.5445 72.5463 
-119.429 -107.834 67.4405 -119.543 -108.652 67.5412 -119.604 -108.934 68.1372 
-119.692 -108.845 69.3236 -119.684 -108.837 70.6604 -119.529 -108.895 71.8601 
-119.44 -108.688 72.7768 -119.42 -108.049 73.2638 -119.229 -107.131 73.511 
-119.751 -99.5538 69.482 -119.524 -99.3028 68.9857 -119.124 -98.7911 69.4264 
-119.096 -99.0976 68.4255 -118.847 -98.4748 68.9348 -118.542 -97.81 69.3542 
-118.756 -98.693 67.7124 -118.482 -98.1333 68.3138 -118.33 -97.3738 68.8765 
-118.257 -96.5432 69.288 -118.551 -98.0708 67.0381 -118.341 -97.5128 67.5197 
-118.09 -96.8874 68.2117 -118.022 -96.0705 68.7472 -117.961 -95.3593 69.2031 
-118.067 -97.5496 66.6194 -118.153 -96.8848 66.9028 -117.937 -96.3064 67.4466 
-117.755 -95.5943 67.9884 -117.654 -94.9167 68.4636 -117.443 -94.4886 69.055 
-117.315 -97.198 66.2989 -117.469 -96.6006 66.6084 -117.47 -95.989 66.984 
-117.421 -95.2272 67.2986 -117.359 -94.5111 67.6411 -117.082 -94.1294 68.2396 
-116.664 -93.9469 68.9717 -116.657 -96.9325 65.9456 -116.61 -96.4988 66.3793 
-116.63 -95.9505 66.7824 -116.749 -95.1313 66.9641 -116.889 -94.2779 67.0842 
-116.706 -93.8135 67.5495 -116.185 -93.6823 68.3036 -115.704 -93.5628 68.9953 
-120.139 -101.236 69.35 -120.378 -102.004 69.0304 -120.075 -100.897 68.7249 
-120.732 -102.683 68.5251 -120.342 -101.58 68.2208 -119.94 -100.492 68.0384 
-120.786 -103.572 68.1137 -120.56 -102.321 67.7343 -120.23 -101.063 67.4617 
-119.679 -100.071 67.3863 -120.68 -104.589 67.8423 -120.441 -103.337 67.5391 
-120.227 -101.876 67.1202 -119.816 -100.627 66.895 -119.074 -99.7493 66.9161 
-120.725 -105.39 67.35 -120.291 -104.334 67.283 -119.957 -102.938 67.0777 
-119.625 -101.4 66.717 -118.931 -100.317 66.603 -118.181 -99.4147 66.637 
-120.526 -105.937 66.8855 -120.165 -104.966 66.7981 -119.747 -103.779 66.9019 
-119.321 -102.245 66.7624 -118.688 -100.866 66.4836 -117.963 -99.8567 66.3784 
-117.491 -98.8298 66.2511 -119.885 -106.223 66.8702 -119.723 -105.284 66.602 
-119.451 -104.182 66.6642 -119.014 -102.844 66.6974 -118.385 -101.453 66.4246 
-117.779 -100.235 66.1236 -117.412 -99.1483 65.885 -117.157 -98.1457 65.6569 
-118.477 -105.621 66.8176 -117.766 -105.001 66.4082 -118.301 -104.748 66.6213 
-117.033 -104.091 66.0792 -117.559 -103.871 66.2924 -118.121 -103.491 66.5127 
-116.23 -102.975 65.8537 -116.842 -102.867 65.765 -117.424 -102.619 65.9199 
-117.798 -102.334 66.0988 -115.331 -102.083 65.4653 -115.975 -102.084 65.1357 
-116.778 -101.984 65.0798 -117.236 -101.742 65.2634 -117.355 -101.323 65.5388 
-114.601 -101.295 65.1021 -115.035 -101.431 64.6563 -115.839 -101.455 64.4646 
-116.62 -101.183 64.6163 -116.928 -100.657 64.8612 -117.058 -100.044 65.146 
-114.072 -100.438 64.9998 -114.372 -100.539 64.5472 -114.852 -100.633 64.2482 
-115.573 -100.395 64.3184 -116.19 -99.8159 64.5067 -116.562 -99.2077 64.6226 
[...]
POINT_DATA 1002
FIELD FieldData 2
Theta 1 1002 float
2.58802 2.58802 0.553574 0.553574 2.12437 1.01722 2.12437 1.01722 1.5708 
1.5708 1.5708 1.5708 2.68241 2.78649 2.89924 3.01861 3.14159 3.01861 
2.89924 2.78649 2.68241 2.61035 2.61791 2.60515 2.56958 2.51327 2.44184 
2.36202 2.27983 2.1997 2.61035 2.61791 2.60515 2.56958 2.51327 2.44184 
2.36202 2.27983 2.1997 2.50947 2.41899 2.31794 2.20864 2.0944 1.97902 
1.86631 1.75944 1.66056 2.50947 2.41899 2.31794 2.20864 2.0944 1.97902 
1.86631 1.75944 1.66056 2.61035 2.61791 2.60515 2.56958 2.51327 2.44184 
2.36202 2.27983 2.1997 2.61035 2.61791 2.60515 2.56958 2.51327 2.44184 
2.36202 2.27983 2.1997 2.50947 2.41899 2.31794 2.20864 2.0944 1.97902 
1.86631 1.75944 1.66056 2.50947 2.41899 2.31794 2.20864 2.0944 1.97902 
1.86631 1.75944 1.66056 0.459179 0.355101 0.242354 0.122983 0 0.122983 
0.242354 0.355101 0.459179 0.531246 0.523681 0.536438 0.57201 0.628319 0.699757 
0.779574 0.86176 0.941896 0.531246 0.523681 0.536438 0.57201 0.628319 0.699757 
0.779574 0.86176 0.941896 0.632123 0.7226 0.823657 0.932948 1.0472 1.16257 
1.27528 1.38216 1.48103 0.632123 0.7226 0.823657 0.932948 1.0472 1.16257 
1.27528 1.38216 1.48103 0.531246 0.523681 0.536438 0.57201 0.628319 0.699757 
0.779574 0.86176 0.941896 0.531246 0.523681 0.536438 0.57201 0.628319 0.699757 
0.779574 0.86176 0.941896 0.632123 0.7226 0.823657 0.932948 1.0472 1.16257 
1.27528 1.38216 1.48103 0.632123 0.7226 0.823657 0.932948 1.0472 1.16257 
1.27528 1.38216 1.48103 2.02998 1.9259 1.81315 1.69378 1.5708 1.44781 
1.32844 1.2157 1.11162 2.0928 2.05283 2.00422 1.94767 1.88496 1.81867 
1.75177 1.68695 1.62623 2.0928 2.05283 2.00422 1.94767 1.88496 1.81867 
1.75177 1.68695 1.62623 1.0488 1.08876 1.13737 1.19392 1.25664 1.32292 
1.38982 1.45464 1.51537 1.0488 1.08876 1.13737 1.19392 1.25664 1.32292 
1.38982 1.45464 1.51537 2.02998 1.9259 1.81315 1.69378 1.5708 1.44781 
1.32844 1.2157 1.11162 2.0928 2.05283 2.00422 1.94767 1.88496 1.81867 
1.75177 1.68695 1.62623 2.0928 2.05283 2.00422 1.94767 1.88496 1.81867 
1.75177 1.68695 1.62623 1.0488 1.08876 1.13737 1.19392 1.25664 1.32292 
1.38982 1.45464 1.51537 1.0488 1.08876 1.13737 1.19392 1.25664 1.32292 
1.38982 1.45464 1.51537 1.5708 1.5708 1.5708 1.5708 1.5708 1.5708 
1.5708 1.5708 1.5708 1.5708 1.5708 1.5708 1.5708 1.5708 1.5708 
1.5708 1.5708 1.5708 2.70908 2.71362 2.81592 2.68886 2.81002 2.92597 
2.6349 2.76254 2.89233 3.01997 2.55881 2.68262 2.80854 2.92834 3.01997 
2.47007 2.58462 2.70048 2.80854 2.89233 2.92597 2.37702 2.48017 2.58462 
2.68262 2.76254 2.81002 2.81592 2.28567 2.37702 2.47007 2.55881 2.6349 
2.68886 2.71362 2.70908 2.52097 2.4195 2.51718 2.30791 2.40503 2.49426 
2.18928 2.28408 2.3734 2.45144 2.06758 2.15805 2.24572 2.32523 2.39165 
1.94707 2.03138 2.11543 2.19453 2.26401 2.32035 1.83164 1.90847 1.98711 
2.06376 2.13422 2.1949 2.24359 1.72413 1.79288 1.86489 1.93728 2.00658 
2.06938 2.12312 2.16654 1.5708 1.50988 1.63171 1.44492 1.5708 1.69667 
1.37826 1.5059 1.63569 1.76333 1.31281 1.43962 1.5708 1.70197 1.82878 
1.25155 1.37501 1.50478 1.63681 1.76659 1.89004 1.19686 1.31493 1.44074 
1.5708 1.70086 1.82666 1.94473 1.15011 1.26149 1.38136 1.50697 1.63462 
1.76024 1.88011 1.99148 1.99148 1.88011 1.94473 1.76024 1.82666 1.89004 
1.63462 1.70086 1.76659 1.82878 1.50697 1.5708 1.63681 1.70197 1.76333 
1.38136 1.44074 1.50478 1.5708 1.63569 1.69667 1.26149 1.31493 1.37501 
1.43962 1.5059 1.5708 1.63171 1.15011 1.19686 1.25155 1.31281 1.37826 
1.44492 1.50988 1.5708 2.16654 2.12312 2.24359 2.06938 2.1949 2.32035 
2.00658 2.13422 2.26401 2.39165 1.93728 2.06376 2.19453 2.32523 2.45144 
1.86489 1.98711 2.11543 2.24572 2.3734 2.49426 1.79288 1.90847 2.03138 
2.15805 2.28408 2.40503 2.51718 1.72413 1.83164 1.94707 2.06758 2.18928 
2.30791 2.4195 2.52097 1.66533 1.66946 1.76911 1.67254 1.777 1.88041 
1.67418 1.78222 1.89102 1.99634 1.67418 1.78405 1.89674 2.00785 2.11299 
1.67254 1.78222 1.89674 2.01191 2.12307 2.22608 1.66946 1.777 1.89102 
2.00785 2.12307 2.23222 2.33166 1.66533 1.76911 1.88041 1.99634 2.11299 
2.22608 2.33166 2.42672 1.47626 1.37249 1.47213 1.26118 1.36459 1.46906 
1.14526 1.25058 1.35938 1.46741 1.0286 1.13374 1.24485 1.35755 1.46741 
0.915514 1.01852 1.12969 1.24485 1.35938 1.46906 0.809937 0.909371 1.01852 
1.13374 1.25058 1.36459 1.47213 0.714871 0.809937 0.915514 1.0286 1.14526 
1.26118 1.37249 1.47626 0.975055 0.898002 1.01847 0.821245 0.946693 1.07221 
0.749941 0.877585 1.00737 1.13501 0.690152 0.816367 0.94706 1.07784 1.20431 
0.647337 0.768195 0.895868 1.02616 1.15448 1.2767 0.624416 0.736561 0.857515 
0.983547 1.11021 1.23313 1.34871 0.620619 0.722093 0.833684 0.952313 1.07402 
1.19452 1.30996 1.41746 0.855925 0.764569 0.764569 0.671524 0.661425 0.671524 
0.582786 0.556971 0.556971 0.582786 0.506696 0.458968 0.441109 0.458968 0.506696 
0.45273 0.379052 0.333054 0.333054 0.379052 0.45273 0.427969 0.331576 0.249267 
0.21325 0.249267 0.331576 0.427969 0.432512 0.325669 0.215619 0.121622 0.121622 
0.215619 0.325669 0.432512 0.432512 0.427969 0.325669 0.45273 0.331576 0.215619 
0.506696 0.379052 0.249267 0.121622 0.582786 0.458968 0.333054 0.21325 0.121622 
0.671524 0.556971 0.441109 0.333054 0.249267 0.215619 0.764569 0.661425 0.556971 
0.458968 0.379052 0.331576 0.325669 0.855925 0.764569 0.671524 0.582786 0.506696 
0.45273 0.427969 0.432512 0.975055 1.01847 0.898002 1.07221 0.946693 0.821245 
1.13501 1.00737 0.877585 0.749941 1.20431 1.07784 0.94706 0.816367 0.690152 
1.2767 1.15448 1.02616 0.895868 0.768195 0.647337 1.34871 1.23313 1.11021 
0.983547 0.857515 0.736561 0.624416 1.41746 1.30996 1.19452 1.07402 0.952313 
0.833684 0.722093 0.620619 1.15011 1.26149 1.19686 1.38136 1.31493 1.25155 
1.50697 1.44074 1.37501 1.31281 1.63462 1.5708 1.50478 1.43962 1.37826 
1.76024 1.70086 1.63681 1.5708 1.5059 1.44492 1.88011 1.82666 1.76659 
1.70197 1.63569 1.5708 1.50988 1.99148 1.94473 1.89004 1.82878 1.76333 
1.69667 1.63171 1.5708 1.15011 1.19686 1.26149 1.25155 1.31493 1.38136 
1.31281 1.37501 1.44074 1.50697 1.37826 1.43962 1.50478 1.5708 1.63462 
1.44492 1.5059 1.5708 1.63681 1.70086 1.76024 1.50988 1.5708 1.63569 
1.70197 1.76659 1.82666 1.88011 1.5708 1.63171 1.69667 1.76333 1.82878 
1.89004 1.94473 1.99148 1.72413 1.83164 1.79288 1.94707 1.90847 1.86489 
2.06758 2.03138 1.98711 1.93728 2.18928 2.15805 2.11543 2.06376 2.00658 
2.30791 2.28408 2.24572 2.19453 2.13422 2.06938 2.4195 2.40503 2.3734 
2.32523 2.26401 2.1949 2.12312 2.52097 2.51718 2.49426 2.45144 2.39165 
2.32035 2.24359 2.16654 2.70908 2.81592 2.71362 2.92597 2.81002 2.68886 
3.01997 2.89233 2.76254 2.6349 3.01997 2.92834 2.80854 2.68262 2.55881 
2.92597 2.89233 2.80854 2.70048 2.58462 2.47007 2.81592 2.81002 2.76254 
2.68262 2.58462 2.48017 2.37702 2.70908 2.71362 2.68886 2.6349 2.55881 
2.47007 2.37702 2.28567 2.16654 2.24359 2.12312 2.32035 2.1949 2.06938 
2.39165 2.26401 2.13422 2.00658 2.45144 2.32523 2.19453 2.06376 1.93728 
2.49426 2.3734 2.24572 2.11543 1.98711 1.86489 2.51718 2.40503 2.28408 
2.15805 2.03138 1.90847 1.79288 2.52097 2.4195 2.30791 2.18928 2.06758 
1.94707 1.83164 1.72413 1.66533 1.76911 1.66946 1.88041 1.777 1.67254 
1.99634 1.89102 1.78222 1.67418 2.11299 2.00785 1.89674 1.78405 1.67418 
2.22608 2.12307 2.01191 1.89674 1.78222 1.67254 2.33166 2.23222 2.12307 
2.00785 1.89102 1.777 1.66946 2.42672 2.33166 2.22608 2.11299 1.99634 
1.88041 1.76911 1.66533 1.47626 1.47213 1.37249 1.46906 1.36459 1.26118 
1.46741 1.35938 1.25058 1.14526 1.46741 1.35755 1.24485 1.13374 1.0286 
1.46906 1.35938 1.24485 1.12969 1.01852 0.915514 1.47213 1.36459 1.25058 
1.13374 1.01852 0.909371 0.809937 1.47626 1.37249 1.26118 1.14526 1.0286 
0.915514 0.809937 0.714871 1.41746 1.30996 1.34871 1.19452 1.23313 1.2767 
1.07402 1.11021 1.15448 1.20431 0.952313 0.983547 1.02616 1.07784 1.13501 
0.833684 0.857515 0.895868 0.94706 1.00737 1.07221 0.722093 0.736561 0.768195 
0.816367 0.877585 0.946693 1.01847 0.620619 0.624416 0.647337 0.690152 0.749941 
0.821245 0.898002 0.975055 0.975055 0.898002 1.01847 0.821245 0.946693 1.07221 
0.749941 0.877585 1.00737 1.13501 0.690152 0.816367 0.94706 1.07784 1.20431 
0.647337 0.768195 0.895868 1.02616 1.15448 1.2767 0.624416 0.736561 0.857515 
0.983547 1.11021 1.23313 1.34871 0.620619 0.722093 0.833684 0.952313 1.07402 
1.19452 1.30996 1.41746 
Phi 1 1002 float
6.28319 3.14159 6.28319 3.14159 4.71239 4.71239 1.5708 1.5708 3.69517 
5.72961 2.58802 0.553574 6.28319 6.28319 6.28319 6.28319 3.14159 3.14159 
3.14159 3.14159 3.14159 6.1053 5.8988 5.67687 5.45995 5.26596 5.10322 
4.97131 4.86569 4.78095 0.177881 0.384387 0.606312 0.823235 1.01722 1.17997 
1.31187 1.4175 1.50223 6.18928 6.10703 6.03531 5.97283 5.91832 5.87061 
5.82869 5.79168 5.75886 0.0939024 0.176153 0.247873 0.310351 0.364864 0.412573 
0.454497 0.491504 0.524326 3.31947 3.52598 3.7479 3.96483 4.15881 4.32156 
4.45346 4.55909 4.64383 2.96371 2.75721 2.53528 2.31836 2.12437 1.96162 
1.82972 1.72409 1.63936 3.2355 3.31775 3.38947 3.45194 3.50646 3.55417 
3.59609 3.6331 3.66592 3.04769 2.96544 2.89372 2.83124 2.77673 2.72902 
2.6871 2.65009 2.61727 6.28319 6.28319 6.28319 6.28319 3.14159 3.14159 
3.14159 3.14159 3.14159 6.1053 5.8988 5.67687 5.45995 5.26596 5.10322 
4.97131 4.86569 4.78095 0.177881 0.384387 0.606312 0.823235 1.01722 1.17997 
1.31187 1.4175 1.50223 6.18928 6.10703 6.03531 5.97283 5.91832 5.87061 
5.82869 5.79168 5.75886 0.0939024 0.176153 0.247873 0.310351 0.364864 0.412573 
0.454497 0.491504 0.524326 3.31947 3.52598 3.7479 3.96483 4.15881 4.32156 
4.45346 4.55909 4.64383 2.96371 2.75721 2.53528 2.31836 2.12437 1.96162 
1.82972 1.72409 1.63936 3.2355 3.31775 3.38947 3.45194 3.50646 3.55417 
3.59609 3.6331 3.66592 3.04769 2.96544 2.89372 2.83124 2.77673 2.72902 
2.6871 2.65009 2.61727 4.71239 4.71239 4.71239 4.71239 4.71239 4.71239 
4.71239 4.71239 4.71239 4.60879 4.49914 4.3857 4.27128 4.15881 4.05096 
3.94976 3.85646 3.77161 4.81599 4.92564 5.03907 5.1535 5.26596 5.37381 
5.47502 5.56831 5.65317 4.60879 4.49914 4.3857 4.27128 4.15881 4.05096 
3.94976 3.85646 3.77161 4.81599 4.92564 5.03907 5.1535 5.26596 5.37381 
5.47502 5.56831 5.65317 1.5708 1.5708 1.5708 1.5708 1.5708 1.5708 
1.5708 1.5708 1.5708 1.6744 1.78405 1.89748 2.01191 2.12437 2.23222 
2.33343 2.42672 2.51157 1.4672 1.35755 1.24411 1.12969 1.01722 0.909371 
0.808166 0.714871 0.63002 1.6744 1.78405 1.89748 2.01191 2.12437 2.23222 
2.33343 2.42672 2.51157 1.4672 1.35755 1.24411 1.12969 1.01722 0.909371 
0.808166 0.714871 0.63002 3.60077 3.49669 3.38395 3.26458 3.14159 3.01861 
2.89924 2.78649 2.68241 5.82401 5.92808 6.04083 6.1602 6.28319 0.122983 
0.242354 0.355101 0.459179 6.05603 5.78856 5.97021 5.51259 5.60297 5.78856 
5.26596 5.26596 5.26596 5.26596 5.06749 5.0121 4.91556 4.71239 4.15881 
4.91556 4.83537 4.71239 4.50922 4.15881 3.63622 4.80045 4.71239 4.58941 
4.41268 4.15881 3.82181 3.45456 4.71239 4.62433 4.50922 4.35729 4.15881 
3.91219 3.63622 3.36875 6.01742 5.94343 5.82633 5.88092 5.76745 5.62798 
5.8278 5.71897 5.58911 5.43724 5.78235 5.67854 5.55757 5.41926 5.26596 
5.74316 5.64441 5.5315 5.40467 5.26596 5.11955 5.70914 5.61528 5.50962 
5.3926 5.26596 5.13292 4.99789 5.67937 5.59016 5.49102 5.38246 5.26596 
5.14407 5.02016 4.89798 5.56831 5.47502 5.47502 5.37381 5.37381 5.37381 
5.26596 5.26596 5.26596 5.26596 5.1535 5.1535 5.1535 5.1535 5.1535 
5.03907 5.03907 5.03907 5.03907 5.03907 5.03907 4.92564 4.92564 4.92564 
4.92564 4.92564 4.92564 4.92564 4.81599 4.81599 4.81599 4.81599 4.81599 
4.81599 4.81599 4.81599 4.60879 4.60879 4.49914 4.60879 4.49914 4.3857 
4.60879 4.49914 4.3857 4.27128 4.60879 4.49914 4.3857 4.27128 4.15881 
4.60879 4.49914 4.3857 4.27128 4.15881 4.05096 4.60879 4.49914 4.3857 
4.27128 4.15881 4.05096 3.94976 4.60879 4.49914 4.3857 4.27128 4.15881 
4.05096 3.94976 3.85646 4.5268 4.40462 4.42689 4.28071 4.29185 4.30523 
4.15881 4.15881 4.15881 4.15881 4.04232 4.03217 4.02011 4.00552 3.98753 
3.93376 3.91515 3.89328 3.86721 3.83566 3.7968 3.83461 3.8095 3.78037 
3.74624 3.70581 3.65733 3.59845 3.7454 3.71564 3.68161 3.64243 3.59698 
3.54386 3.48135 3.40735 3.56428 3.45246 3.52338 3.33203 3.40312 3.47739 
3.20576 3.27463 3.34802 3.42551 3.07742 3.14159 3.21128 3.28647 3.36688 
2.95116 3.00855 3.0719 3.14159 3.21784 3.3006 2.83072 2.88006 2.93517 
2.99672 3.06535 3.14159 3.22575 2.7189 2.7598 2.8058 2.85768 2.9163 
2.98259 3.05743 3.14159 3.56428 3.52338 3.45246 3.47739 3.40312 3.33203 
3.42551 3.34802 3.27463 3.20576 3.36688 3.28647 3.21128 3.14159 3.07742 
3.3006 3.21784 3.14159 3.0719 3.00855 2.95116 3.22575 3.14159 3.06535 
2.99672 2.93517 2.88006 2.83072 3.14159 3.05743 2.98259 2.9163 2.85768 
2.8058 2.7598 2.7189 4.5268 4.42689 4.40462 4.30523 4.29185 4.28071 
4.15881 4.15881 4.15881 4.15881 3.98753 4.00552 4.02011 4.03217 4.04232 
3.7968 3.83566 3.86721 3.89328 3.91515 3.93376 3.59845 3.65733 3.70581 
3.74624 3.78037 3.8095 3.83461 3.40735 3.48135 3.54386 3.59698 3.64243 
3.68161 3.71564 3.7454 4.71239 4.80045 4.62433 4.91556 4.71239 4.50922 
5.06749 4.83537 4.58941 4.35729 5.26596 5.0121 4.71239 4.41268 4.15881 
5.51259 5.26596 4.91556 4.50922 4.15881 3.91219 5.78856 5.60297 5.26596 
4.71239 4.15881 3.82181 3.63622 6.05603 5.97021 5.78856 5.26596 4.15881 
3.63622 3.45456 3.36875 0.227158 0.494626 0.312971 0.770593 0.680215 0.494626 
1.01722 1.01722 1.01722 1.01722 1.2157 1.27109 1.36763 1.5708 2.12437 
1.36763 1.44781 1.5708 1.77397 2.12437 2.64697 1.48273 1.5708 1.69378 
1.8705 2.12437 2.46138 2.82862 1.5708 1.65886 1.77397 1.9259 2.12437 
2.371 2.64697 2.91443 1.75639 1.87857 1.8563 2.00248 1.99133 1.97796 
2.12437 2.12437 2.12437 2.12437 2.24087 2.25101 2.26308 2.27767 2.29565 
2.34943 2.36803 2.38991 2.41597 2.44752 2.48639 2.44857 2.47368 2.50281 
2.53694 2.57738 2.62586 2.68474 2.53778 2.56754 2.60157 2.64076 2.68621 
2.73933 2.80184 2.87583 1.6744 1.6744 1.78405 1.6744 1.78405 1.89748 
1.6744 1.78405 1.89748 2.01191 1.6744 1.78405 1.89748 2.01191 2.12437 
1.6744 1.78405 1.89748 2.01191 2.12437 2.23222 1.6744 1.78405 1.89748 
2.01191 2.12437 2.23222 2.33343 1.6744 1.78405 1.89748 2.01191 2.12437 
2.23222 2.33343 2.42672 1.4672 1.35755 1.4672 1.24411 1.35755 1.4672 
1.12969 1.24411 1.35755 1.4672 1.01722 1.12969 1.24411 1.35755 1.4672 
0.909371 1.01722 1.12969 1.24411 1.35755 1.4672 0.808166 0.909371 1.01722 
1.12969 1.24411 1.35755 1.4672 0.714871 0.808166 0.909371 1.01722 1.12969 
1.24411 1.35755 1.4672 0.603812 0.57405 0.693022 0.540021 0.667908 0.792164 
0.500837 0.638778 0.773562 0.900726 0.455383 0.604649 0.751687 0.890581 1.01722 
0.402264 0.564217 0.725619 0.878514 1.01722 1.13912 0.339753 0.515737 0.694072 
0.863926 1.01722 1.15026 1.26302 0.265762 0.456853 0.655207 0.845941 1.01722 
1.16363 1.28529 1.38521 0.227158 0.312971 0.494626 0.494626 0.680215 0.770593 
1.01722 1.01722 1.01722 1.01722 2.12437 1.5708 1.36763 1.27109 1.2157 
2.64697 2.12437 1.77397 1.5708 1.44781 1.36763 2.82862 2.46138 2.12437 
1.8705 1.69378 1.5708 1.48273 2.91443 2.64697 2.371 2.12437 1.9259 
1.77397 1.65886 1.5708 1.75639 1.8563 1.87857 1.97796 1.99133 2.00248 
2.12437 2.12437 2.12437 2.12437 2.29565 2.27767 2.26308 2.25101 2.24087 
2.48639 2.44752 2.41597 2.38991 2.36803 2.34943 2.68474 2.62586 2.57738 
2.53694 2.50281 2.47368 2.44857 2.87583 2.80184 2.73933 2.68621 2.64076 
2.60157 2.56754 2.53778 5.86049 5.90139 5.97231 5.94739 6.02165 6.09275 
5.99927 6.07676 6.15015 6.21902 6.0579 6.13831 6.2135 0 0.0641696 
6.12418 6.20694 6.28319 0.069689 0.13304 0.190437 6.19903 0 0.0762451 
0.144876 0.206423 0.261531 0.310872 0 0.0841597 0.159004 0.225289 0.283913 
0.335793 0.381792 0.422692 5.86049 5.97231 5.90139 6.09275 6.02165 5.94739 
6.21902 6.15015 6.07676 5.99927 0.0641696 0 6.2135 6.13831 6.0579 
0.190437 0.13304 0.069689 6.28319 6.20694 6.12418 0.310872 0.261531 0.206423 
0.144876 0.0762451 6.28319 6.19903 0.422692 0.381792 0.335793 0.283913 0.225289 
0.159004 0.0841597 0 5.67937 5.70914 5.59016 5.74316 5.61528 5.49102 
5.78235 5.64441 5.50962 5.38246 5.8278 5.67854 5.5315 5.3926 5.26596 
5.88092 5.71897 5.55757 5.40467 5.26596 5.14407 5.94343 5.76745 5.58911 
5.41926 5.26596 5.13292 5.02016 6.01742 5.82633 5.62798 5.43724 5.26596 
5.11955 4.99789 4.89798 1.38521 1.28529 1.26302 1.16363 1.15026 1.13912 
1.01722 1.01722 1.01722 1.01722 0.845941 0.863926 0.878514 0.890581 0.900726 
0.655207 0.694072 0.725619 0.751687 0.773562 0.792164 0.456853 0.515737 0.564217 
0.604649 0.638778 0.667908 0.693022 0.265762 0.339753 0.402264 0.455383 0.500837 
0.540021 0.57405 0.603812 
