# vtk DataFile Version 4.0
vtk output
ASCII
DATASET POLYDATA
POINTS 1002 float
-117.116 -101.535 72.2542 -111.912 -95.6176 72.9669 -112.462 -105.349 72.1997 
-107.371 -99.581 72.9555 -113.771 -98.8707 68.3431 -109.911 -101.745 68.1501 
-113.817 -99.7932 77.0912 -111.653 -101.571 76.8046 -106.881 -94.0285 70.3748 
-117.257 -106.563 69.0035 -108.563 -95.4674 75.9858 -117.199 -106.84 75.3383 
-116.901 -100.817 72.3476 -116.527 -100.196 72.4172 -115.893 -99.7276 72.383 
-115.229 -99.1433 72.2929 -114.84 -98.2534 72.3808 -114.509 -97.413 72.6676 
-113.856 -96.9476 72.8661 -113.001 -96.6402 72.8889 -112.309 -96.1974 72.8989 
-117.193 -101.134 71.8734 -117.129 -100.816 71.407 -116.984 -100.54 70.7868 
-116.806 -100.222 70.0947 -116.337 -100.062 69.6841 -115.573 -100.073 69.5737 
-115.004 -99.8501 69.315 -114.699 -99.3938 68.8554 -114.308 -99.0562 68.5141 
-116.824 -101.515 72.6164 -116.456 -101.478 72.9213 -116.055 -101.407 73.2972 
-115.669 -101.318 73.8188 -115.344 -101.144 74.4176 -115.049 -100.82 75.0747 
-114.759 -100.437 75.7267 -114.483 -100.131 76.2462 -114.177 -99.9323 76.6743 
-117.366 -102.038 71.8952 -117.575 -102.639 71.4468 -117.733 -103.327 71.0356 
-117.887 -104.066 70.6706 -118.117 -104.785 70.1389 -118.363 -105.376 69.5457 
-118.407 -105.815 69.2847 -118.149 -106.177 69.2814 -117.715 -106.454 69.1971 
-117.183 -102.22 72.4444 -117.342 -102.811 72.6976 -117.523 -103.372 72.9728 
-117.548 -104.131 73.2527 -117.438 -104.97 73.532 -117.453 -105.546 73.8012 
-117.635 -105.957 74.1995 -117.716 -106.43 74.7718 -117.541 -106.789 75.2256 
-111.97 -95.8247 72.4354 -112.064 -96.0907 71.9328 -112.241 -96.3291 71.4117 
-112.568 -96.5293 70.8246 -113.007 -96.7767 70.212 -113.39 -97.0959 69.6546 
-113.591 -97.4974 69.2275 -113.651 -98.0017 68.9272 -113.688 -98.502 68.6517 
-112.046 -95.8856 73.4837 -112.24 -96.2344 73.968 -112.552 -96.5568 74.4076 
-112.894 -96.8678 74.9536 -113.109 -97.3259 75.5268 -113.174 -97.9473 75.8557 
-113.175 -98.5824 76.0331 -113.248 -99.1081 76.3179 -113.487 -99.4931 76.7091 
-111.681 -95.0905 72.7068 -111.423 -94.5306 72.4116 -111.014 -94.0517 72.0339 
-110.463 -93.7695 71.6056 -109.91 -93.524 71.2222 -109.309 -93.1899 70.8718 
-108.563 -93.0618 70.5685 -107.846 -93.2992 70.4323 -107.306 -93.6735 70.4224 
-111.754 -95.1322 73.3915 -111.575 -94.6999 73.863 -111.25 -94.3681 74.3382 
-110.9 -94.0809 74.8497 -110.598 -93.8998 75.4093 -110.043 -93.9407 75.8502 
-109.273 -94.1426 76.0202 -108.781 -94.478 76.0025 -108.644 -94.9633 75.9654 
-112.116 -104.78 72.3412 -111.763 -104.105 72.4688 -111.1 -103.595 72.5304 
-110.211 -103.213 72.5648 -109.459 -102.771 72.6398 -108.878 -102.247 72.7502 
-108.383 -101.586 72.8543 -108.029 -100.781 72.9144 -107.734 -100.065 72.9306 
-112.216 -105.282 71.8138 -112.101 -105.015 71.236 -111.953 -104.649 70.625 
-111.74 -104.221 70.2049 -111.594 -103.651 69.9463 -111.427 -103.052 69.65 
-111.089 -102.633 69.2649 -110.659 -102.353 68.8656 -110.251 -102.073 68.4884 
-112.525 -105.022 72.5659 -112.529 -104.71 73.0114 -112.437 -104.438 73.6156 
-112.325 -104.087 74.2236 -112.226 -103.627 74.748 -112.1 -103.202 75.3232 
-111.979 -102.813 75.8481 -111.89 -102.368 76.1621 -111.785 -101.928 76.4327 
-112.789 -105.72 71.8677 -113.411 -105.837 71.4954 -114.264 -105.835 71.0715 
-114.902 -106.152 70.5813 -115.175 -106.754 70.0957 -115.577 -107.1 69.7338 
-116.239 -107.109 69.4818 -116.754 -107.034 69.2603 -117.034 -106.872 69.0877 
-113.106 -105.464 72.3119 -113.945 -105.451 72.4827 -114.557 -105.686 72.7698 
-114.824 -106.275 73.168 -115.176 -106.757 73.5627 -115.797 -106.826 73.8302 
-116.339 -106.791 74.0622 -116.654 -106.916 74.4551 -116.924 -107.011 74.9613 
-107.293 -99.8558 72.5906 -107.111 -100.286 72.1613 -107.047 -100.644 71.5102 
-107.35 -100.74 70.8886 -107.957 -100.711 70.5569 -108.536 -100.829 70.1474 
-108.902 -101.13 69.4506 -109.174 -101.441 68.8431 -109.511 -101.638 68.4699 
-107.627 -99.7026 73.3564 -107.938 -99.896 73.8018 -108.272 -100.184 74.3001 
-108.576 -100.563 74.8354 -109.042 -100.795 75.2784 -109.706 -100.819 75.6199 
-110.268 -100.935 75.9861 -110.7 -101.171 76.3173 -111.179 -101.37 76.5508 
-106.954 -99.2845 72.737 -106.584 -98.8377 72.5155 -106.364 -98.0965 72.334 
-106.217 -97.2536 72.1386 -105.986 -96.635 71.8109 -105.74 -96.0905 71.3342 
-105.682 -95.3281 70.8453 -105.895 -94.5737 70.5247 -106.332 -94.1577 70.4118 
-107.059 -99.2832 73.3457 -106.703 -99.0027 73.9485 -106.547 -98.5381 74.5081 
-106.648 -97.8391 74.8316 -106.744 -97.1104 75.1727 -106.771 -96.5384 75.5992 
-107.043 -96.1394 75.7425 -107.63 -95.8614 75.6516 -108.203 -95.6493 75.7151 
-113.497 -98.8877 68.0285 -113.164 -98.864 67.6997 -112.66 -98.9913 67.4914 
-112.016 -99.3109 67.4921 -111.41 -99.6955 67.6143 -110.894 -100.165 67.6348 
-110.441 -100.748 67.4915 -110.123 -101.257 67.4609 -109.978 -101.564 67.7367 
-113.134 -98.4856 68.3926 -112.527 -97.9664 68.4146 -111.867 -97.4091 68.5256 
-111.011 -97.0051 68.8384 -110.128 -96.5341 69.2012 -109.379 -95.7478 69.4506 
-108.676 -94.9948 69.6659 -108.012 -94.5697 69.9271 -107.423 -94.2973 70.1796 
-114.241 -99.3151 68.1083 -114.724 -99.9087 67.8972 -115.234 -100.682 67.7528 
-115.875 -101.496 67.6504 -116.545 -102.32 67.5535 -116.918 -103.359 67.5353 
-116.988 -104.516 67.733 -117.027 -105.408 68.1617 -117.14 -106.009 68.6474 
-109.446 -101.232 68.108 -109.136 -100.516 68.1984 -108.854 -99.7324 68.4381 
-108.539 -98.9832 68.86 -108.227 -98.1423 69.35 -107.773 -97.1094 69.6388 
-107.18 -96.0783 69.7268 -106.812 -95.2436 69.8737 -106.791 -94.5841 70.1347 
-110.601 -102.043 68.0266 -111.398 -102.436 67.9552 -112.237 -102.968 67.9951 
-113.174 -103.493 68.0886 -114.098 -104.024 68.0856 -114.796 -104.709 67.9786 
-115.361 -105.394 67.9176 -116.001 -105.871 68.1061 -116.678 -106.218 68.5555 
-113.783 -99.8987 77.5509 -113.727 -100.05 77.9645 -113.61 -100.318 78.4096 
-113.372 -100.692 78.8269 -112.982 -101.044 78.8515 -112.523 -101.312 78.4918 
-112.149 -101.511 78.1475 -111.937 -101.586 77.8058 -111.808 -101.564 77.3077 
-113.209 -99.4622 77.3007 -112.697 -98.9622 77.5474 -112.364 -98.2124 77.8176 
-111.983 -97.3669 78.1545 -111.387 -96.7041 78.3581 -110.682 -96.3467 78.099 
-109.98 -96.1593 77.5751 -109.361 -95.9504 77.0933 -108.904 -95.6914 76.5689 
-114.321 -100.236 77.1981 -114.598 -100.917 77.2258 -114.72 -101.781 77.0212 
-114.976 -102.626 76.5928 -115.404 -103.406 76.2415 -115.887 -104.14 76.1677 
-116.428 -104.791 76.1582 -116.906 -105.444 75.9865 -117.151 -106.169 75.6867 
-111.272 -101.048 77.0078 -110.904 -100.437 77.1802 -110.381 -99.9251 77.4556 
-109.613 -99.5799 77.8857 -109.002 -99.013 78.0939 -108.863 -98.0221 77.8242 
-108.859 -97.0782 77.3659 -108.741 -96.4853 76.9217 -108.632 -96.0115 76.4398 
-112.156 -102.047 76.8817 -112.656 -102.607 76.9806 -113.265 -103.174 77.0103 
-113.937 -103.702 76.9712 -114.372 -104.369 76.9308 -114.709 -105.166 76.7483 
-115.36 -105.728 76.3121 -116.159 -106.027 75.8385 -116.77 -106.379 75.5312 
-106.572 -93.5742 70.6343 -106.302 -93.3186 71.0434 -106.303 -93.3563 71.7637 
-106.464 -93.3484 72.7966 -106.492 -93.1267 73.8981 -106.636 -93.2006 74.7244 
-107.183 -93.7869 75.0934 -107.826 -94.4583 75.2197 -108.272 -94.9904 75.4823 
-117.565 -107.254 69.2582 -117.737 -108.067 69.3757 -117.934 -108.696 69.7355 
-118.138 -108.943 70.5274 -117.988 -108.906 71.5459 -117.615 -108.759 72.6221 
-117.495 -108.513 73.6662 -117.526 -108.094 74.4734 -117.417 -107.499 74.9795 
-116.934 -100.422 71.9556 -116.779 -100.154 71.4111 -116.416 -99.8869 71.9775 
-116.537 -99.8967 70.7265 -116.165 -99.616 71.4161 -115.687 -99.4042 71.9607 
-116.177 -99.6526 70.1361 -115.928 -99.23 70.7822 -115.559 -98.9234 71.5106 
-115.137 -98.6391 72.0038 -115.568 -99.5425 69.8504 -115.593 -98.8559 70.2386 
-115.538 -98.2825 70.9034 -115.209 -97.9875 71.6242 -114.81 -97.7063 72.1528 
-115.017 -99.3045 69.5927 -115.142 -98.5452 69.8267 -115.311 -97.7926 70.2405 
-115.147 -97.4161 70.9405 -114.667 -97.2694 71.6663 -114.235 -97.0718 72.2861 
-114.703 -98.85 69.1574 -114.78 -98.1662 69.4003 -114.876 -97.5129 69.7208 
-114.698 -97.1571 70.2867 -114.167 -97.0708 71.0147 -113.662 -96.9429 71.7026 
-113.327 -96.7426 72.322 -114.293 -98.5609 68.8062 -114.33 -97.9471 69.0578 
-114.324 -97.4023 69.3781 -114.076 -97.0847 69.8933 -113.529 -96.9642 70.5604 
-112.982 -96.8541 71.2188 -112.674 -96.6299 71.7998 -112.491 -96.3738 72.3504 
-117.356 -101.701 71.4383 -117.488 -102.36 70.961 -117.242 -101.403 70.9251 
-117.658 -103.046 70.5004 -117.389 -102.035 70.3802 -117.166 -101.023 70.2267 
-117.864 -103.767 69.99 -117.614 -102.654 69.8213 -117.359 -101.548 69.6227 
-116.997 -100.607 69.5551 -117.996 -104.489 69.4516 -117.711 -103.301 69.351 
-117.454 -102.129 69.1542 -117.016 -101.148 69.1076 -116.328 -100.509 69.324 
-117.975 -105.056 69.1725 -117.539 -103.925 69.0668 -117.299 -102.702 68.8836 
-116.884 -101.778 68.8276 -116.159 -101.104 69.0185 -115.461 -100.533 69.2464 
-117.817 -105.447 69.1319 -117.325 -104.454 68.8899 -117.063 -103.217 68.5954 
-116.802 -102.249 68.4726 -116.137 -101.618 68.6136 -115.412 -100.969 68.7895 
-114.972 -100.205 68.8537 -117.537 -105.768 68.9701 -117.214 -104.952 68.588 
-117.009 -103.816 68.1727 -116.87 -102.685 67.951 -116.377 -101.912 68.0155 
-115.63 -101.246 68.1763 -115.064 -100.462 68.278 -114.682 -99.6944 68.375 
-116.595 -105.809 67.9727 -116.02 -105.503 67.5396 -116.677 -105.229 67.4804 
-115.378 -104.895 67.5639 -116.115 -104.833 67.3301 -116.709 -104.247 67.339 
-114.622 -104.121 67.7415 -115.215 -104.115 67.547 -115.862 -103.77 67.4854 
-116.375 -103.035 67.4331 -113.688 -103.521 67.7835 -114.209 -103.373 67.6156 
-114.696 -103.084 67.6049 -115.242 -102.577 67.5662 -115.735 -101.935 67.4786 
-112.613 -103.026 67.6716 -113.156 -102.791 67.5134 -113.662 -102.383 67.4705 
-114.104 -101.966 67.4945 -114.643 -101.451 67.4751 -115.108 -100.946 67.4884 
-111.58 -102.458 67.5501 -112 -102.221 67.4153 -112.579 -101.738 67.4261 
[...]
POINT_DATA 1002
FIELD FieldData 2
Theta 1 1002 float
2.58802 2.58802 0.553574 0.553574 2.12437 1.01722 2.12437 1.01722 1.5708 
1.5708 1.5708 1.5708 2.68241 2.78649 2.89924 3.01861 3.14159 3.01861 
2.89924 2.78649 2.68241 2.61035 2.61791 2.60515 2.56958 2.51327 2.44184 
2.36202 2.27983 2.1997 2.61035 2.61791 2.60515 2.56958 2.51327 2.44184 
2.36202 2.27983 2.1997 2.50947 2.41899 2.31794 2.20864 2.0944 1.97902 
1.86631 1.75944 1.66056 2.50947 2.41899 2.31794 2.20864 2.0944 1.97902 
1.86631 1.75944 1.66056 2.61035 2.61791 2.60515 2.56958 2.51327 2.44184 
2.36202 2.27983 2.1997 2.61035 2.61791 2.60515 2.56958 2.51327 2.44184 
2.36202 2.27983 2.1997 2.50947 2.41899 2.31794 2.20864 2.0944 1.97902 
1.86631 1.75944 1.66056 2.50947 2.41899 2.31794 2.20864 2.0944 1.97902 
1.86631 1.75944 1.66056 0.459179 0.355101 0.242354 0.122983 0 0.122983 
0.242354 0.355101 0.459179 0.531246 0.523681 0.536438 0.57201 0.628319 0.699757 
0.779574 0.86176 0.941896 0.531246 0.523681 0.536438 0.57201 0.628319 0.699757 
0.779574 0.86176 0.941896 0.632123 0.7226 0.823657 0.932948 1.0472 1.16257 
1.27528 1.38216 1.48103 0.632123 0.7226 0.823657 0.932948 1.0472 1.16257 
1.27528 1.38216 1.48103 0.531246 0.523681 0.536438 0.57201 0.628319 0.699757 
0.779574 0.86176 0.941896 0.531246 0.523681 0.536438 0.57201 0.628319 0.699757 
0.779574 0.86176 0.941896 0.632123 0.7226 0.823657 0.932948 1.0472 1.16257 
1.27528 1.38216 1.48103 0.632123 0.7226 0.823657 0.932948 1.0472 1.16257 
1.27528 1.38216 1.48103 2.02998 1.9259 1.81315 1.69378 1.5708 1.44781 
1.32844 1.2157 1.11162 2.0928 2.05283 2.00422 1.94767 1.88496 1.81867 
1.75177 1.68695 1.62623 2.0928 2.05283 2.00422 1.94767 1.88496 1.81867 
1.75177 1.68695 1.62623 1.0488 1.08876 1.13737 1.19392 1.25664 1.32292 
1.38982 1.45464 1.51537 1.0488 1.08876 1.13737 1.19392 1.25664 1.32292 
1.38982 1.45464 1.51537 2.02998 1.9259 1.81315 1.69378 1.5708 1.44781 
1.32844 1.2157 1.11162 2.0928 2.05283 2.00422 1.94767 1.88496 1.81867 
1.75177 1.68695 1.62623 2.0928 2.05283 2.00422 1.94767 1.88496 1.81867 
1.75177 1.68695 1.62623 1.0488 1.08876 1.13737 1.19392 1.25664 1.32292 
1.38982 1.45464 1.51537 1.0488 1.08876 1.13737 1.19392 1.25664 1.32292 
1.38982 1.45464 1.51537 1.5708 1.5708 1.5708 1.5708 1.5708 1.5708 
1.5708 1.5708 1.5708 1.5708 1.5708 1.5708 1.5708 1.5708 1.5708 
1.5708 1.5708 1.5708 2.70908 2.71362 2.81592 2.68886 2.81002 2.92597 
2.6349 2.76254 2.89233 3.01997 2.55881 2.68262 2.80854 2.92834 3.01997 
2.47007 2.58462 2.70048 2.80854 2.89233 2.92597 2.37702 2.48017 2.58462 
2.68262 2.76254 2.81002 2.81592 2.28567 2.37702 2.47007 2.55881 2.6349 
2.68886 2.71362 2.70908 2.52097 2.4195 2.51718 2.30791 2.40503 2.49426 
2.18928 2.28408 2.3734 2.45144 2.06758 2.15805 2.24572 2.32523 2.39165 
1.94707 2.03138 2.11543 2.19453 2.26401 2.32035 1.83164 1.90847 1.98711 
2.06376 2.13422 2.1949 2.24359 1.72413 1.79288 1.86489 1.93728 2.00658 
2.06938 2.12312 2.16654 1.5708 1.50988 1.63171 1.44492 1.5708 1.69667 
1.37826 1.5059 1.63569 1.76333 1.31281 1.43962 1.5708 1.70197 1.82878 
1.25155 1.37501 1.50478 1.63681 1.76659 1.89004 1.19686 1.31493 1.44074 
1.5708 1.70086 1.82666 1.94473 1.15011 1.26149 1.38136 1.50697 1.63462 
1.76024 1.88011 1.99148 1.99148 1.88011 1.94473 1.76024 1.82666 1.89004 
1.63462 1.70086 1.76659 1.82878 1.50697 1.5708 1.63681 1.70197 1.76333 
1.38136 1.44074 1.50478 1.5708 1.63569 1.69667 1.26149 1.31493 1.37501 
1.43962 1.5059 1.5708 1.63171 1.15011 1.19686 1.25155 1.31281 1.37826 
1.44492 1.50988 1.5708 2.16654 2.12312 2.24359 2.06938 2.1949 2.32035 
2.00658 2.13422 2.26401 2.39165 1.93728 2.06376 2.19453 2.32523 2.45144 
1.86489 1.98711 2.11543 2.24572 2.3734 2.49426 1.79288 1.90847 2.03138 
2.15805 2.28408 2.40503 2.51718 1.72413 1.83164 1.94707 2.06758 2.18928 
2.30791 2.4195 2.52097 1.66533 1.66946 1.76911 1.67254 1.777 1.88041 
1.67418 1.78222 1.89102 1.99634 1.67418 1.78405 1.89674 2.00785 2.11299 
1.67254 1.78222 1.89674 2.01191 2.12307 2.22608 1.66946 1.777 1.89102 
2.00785 2.12307 2.23222 2.33166 1.66533 1.76911 1.88041 1.99634 2.11299 
2.22608 2.33166 2.42672 1.47626 1.37249 1.47213 1.26118 1.36459 1.46906 
1.14526 1.25058 1.35938 1.46741 1.0286 1.13374 1.24485 1.35755 1.46741 
0.915514 1.01852 1.12969 1.24485 1.35938 1.46906 0.809937 0.909371 1.01852 
1.13374 1.25058 1.36459 1.47213 0.714871 0.809937 0.915514 1.0286 1.14526 
1.26118 1.37249 1.47626 0.975055 0.898002 1.01847 0.821245 0.946693 1.07221 
0.749941 0.877585 1.00737 1.13501 0.690152 0.816367 0.94706 1.07784 1.20431 
0.647337 0.768195 0.895868 1.02616 1.15448 1.2767 0.624416 0.736561 0.857515 
0.983547 1.11021 1.23313 1.34871 0.620619 0.722093 0.833684 0.952313 1.07402 
1.19452 1.30996 1.41746 0.855925 0.764569 0.764569 0.671524 0.661425 0.671524 
0.582786 0.556971 0.556971 0.582786 0.506696 0.458968 0.441109 0.458968 0.506696 
0.45273 0.379052 0.333054 0.333054 0.379052 0.45273 0.427969 0.331576 0.249267 
0.21325 0.249267 0.331576 0.427969 0.432512 0.325669 0.215619 0.121622 0.121622 
0.215619 0.325669 0.432512 0.432512 0.427969 0.325669 0.45273 0.331576 0.215619 
0.506696 0.379052 0.249267 0.121622 0.582786 0.458968 0.333054 0.21325 0.121622 
0.671524 0.556971 0.441109 0.333054 0.249267 0.215619 0.764569 0.661425 0.556971 
0.458968 0.379052 0.331576 0.325669 0.855925 0.764569 0.671524 0.582786 0.506696 
0.45273 0.427969 0.432512 0.975055 1.01847 0.898002 1.07221 0.946693 0.821245 
1.13501 1.00737 0.877585 0.749941 1.20431 1.07784 0.94706 0.816367 0.690152 
1.2767 1.15448 1.02616 0.895868 0.768195 0.647337 1.34871 1.23313 1.11021 
0.983547 0.857515 0.736561 0.624416 1.41746 1.30996 1.19452 1.07402 0.952313 
0.833684 0.722093 0.620619 1.15011 1.26149 1.19686 1.38136 1.31493 1.25155 
1.50697 1.44074 1.37501 1.31281 1.63462 1.5708 1.50478 1.43962 1.37826 
1.76024 1.70086 1.63681 1.5708 1.5059 1.44492 1.88011 1.82666 1.76659 
1.70197 1.63569 1.5708 1.50988 1.99148 1.94473 1.89004 1.82878 1.76333 
1.69667 1.63171 1.5708 1.15011 1.19686 1.26149 1.25155 1.31493 1.38136 
1.31281 1.37501 1.44074 1.50697 1.37826 1.43962 1.50478 1.5708 1.63462 
1.44492 1.5059 1.5708 1.63681 1.70086 1.76024 1.50988 1.5708 1.63569 
1.70197 1.76659 1.82666 1.88011 1.5708 1.63171 1.69667 1.76333 1.82878 
1.89004 1.94473 1.99148 1.72413 1.83164 1.79288 1.94707 1.90847 1.86489 
2.06758 2.03138 1.98711 1.93728 2.18928 2.15805 2.11543 2.06376 2.00658 
2.30791 2.28408 2.24572 2.19453 2.13422 2.06938 2.4195 2.40503 2.3734 
2.32523 2.26401 2.1949 2.12312 2.52097 2.51718 2.49426 2.45144 2.39165 
2.32035 2.24359 2.16654 2.70908 2.81592 2.71362 2.92597 2.81002 2.68886 
3.01997 2.89233 2.76254 2.6349 3.01997 2.92834 2.80854 2.68262 2.55881 
2.92597 2.89233 2.80854 2.70048 2.58462 2.47007 2.81592 2.81002 2.76254 
2.68262 2.58462 2.48017 2.37702 2.70908 2.71362 2.68886 2.6349 2.55881 
2.47007 2.37702 2.28567 2.16654 2.24359 2.12312 2.32035 2.1949 2.06938 
2.39165 2.26401 2.13422 2.00658 2.45144 2.32523 2.19453 2.06376 1.93728 
2.49426 2.3734 2.24572 2.11543 1.98711 1.86489 2.51718 2.40503 2.28408 
2.15805 2.03138 1.90847 1.79288 2.52097 2.4195 2.30791 2.18928 2.06758 
1.94707 1.83164 1.72413 1.66533 1.76911 1.66946 1.88041 1.777 1.67254 
1.99634 1.89102 1.78222 1.67418 2.11299 2.00785 1.89674 1.78405 1.67418 
2.22608 2.12307 2.01191 1.89674 1.78222 1.67254 2.33166 2.23222 2.12307 
2.00785 1.89102 1.777 1.66946 2.42672 2.33166 2.22608 2.11299 1.99634 
1.88041 1.76911 1.66533 1.47626 1.47213 1.37249 1.46906 1.36459 1.26118 
1.46741 1.35938 1.25058 1.14526 1.46741 1.35755 1.24485 1.13374 1.0286 
1.46906 1.35938 1.24485 1.12969 1.01852 0.915514 1.47213 1.36459 1.25058 
1.13374 1.01852 0.909371 0.809937 1.47626 1.37249 1.26118 1.14526 1.0286 
0.915514 0.809937 0.714871 1.41746 1.30996 1.34871 1.19452 1.23313 1.2767 
1.07402 1.11021 1.15448 1.20431 0.952313 0.983547 1.02616 1.07784 1.13501 
0.833684 0.857515 0.895868 0.94706 1.00737 1.07221 0.722093 0.736561 0.768195 
0.816367 0.877585 0.946693 1.01847 0.620619 0.624416 0.647337 0.690152 0.749941 
0.821245 0.898002 0.975055 0.975055 0.898002 1.01847 0.821245 0.946693 1.07221 
0.749941 0.877585 1.00737 1.13501 0.690152 0.816367 0.94706 1.07784 1.20431 
0.647337 0.768195 0.895868 1.02616 1.15448 1.2767 0.624416 0.736561 0.857515 
0.983547 1.11021 1.23313 1.34871 0.620619 0.722093 0.833684 0.952313 1.07402 
1.19452 1.30996 1.41746 
Phi 1 1002 float
6.28319 3.14159 6.28319 3.14159 4.71239 4.71239 1.5708 1.5708 3.69517 
5.72961 2.58802 0.553574 6.28319 6.28319 6.28319 6.28319 3.14159 3.14159 
3.14159 3.14159 3.14159 6.1053 5.8988 5.67687 5.45995 5.26596 5.10322 
4.97131 4.86569 4.78095 0.177881 0.384387 0.606312 0.823235 1.01722 1.17997 
1.31187 1.4175 1.50223 6.18928 6.10703 6.03531 5.97283 5.91832 5.87061 
5.82869 5.79168 5.75886 0.0939024 0.176153 0.247873 0.310351 0.364864 0.412573 
0.454497 0.491504 0.524326 3.31947 3.52598 3.7479 3.96483 4.15881 4.32156 
4.45346 4.55909 4.64383 2.96371 2.75721 2.53528 2.31836 2.12437 1.96162 
1.82972 1.72409 1.63936 3.2355 3.31775 3.38947 3.45194 3.50646 3.55417 
3.59609 3.6331 3.66592 3.04769 2.96544 2.89372 2.83124 2.77673 2.72902 
2.6871 2.65009 2.61727 6.28319 6.28319 6.28319 6.28319 3.14159 3.14159 
3.14159 3.14159 3.14159 6.1053 5.8988 5.67687 5.45995 5.26596 5.10322 
4.97131 4.86569 4.78095 0.177881 0.384387 0.606312 0.823235 1.01722 1.17997 
1.31187 1.4175 1.50223 6.18928 6.10703 6.03531 5.97283 5.91832 5.87061 
5.82869 5.79168 5.75886 0.0939024 0.176153 0.247873 0.310351 0.364864 0.412573 
0.454497 0.491504 0.524326 3.31947 3.52598 3.7479 3.96483 4.15881 4.32156 
4.45346 4.55909 4.64383 2.96371 2.75721 2.53528 2.31836 2.12437 1.96162 
1.82972 1.72409 1.63936 3.2355 3.31775 3.38947 3.45194 3.50646 3.55417 
3.59609 3.6331 3.66592 3.04769 2.96544 2.89372 2.83124 2.77673 2.72902 
2.6871 2.65009 2.61727 4.71239 4.71239 4.71239 4.71239 4.71239 4.71239 
4.71239 4.71239 4.71239 4.60879 4.49914 4.3857 4.27128 4.15881 4.05096 
3.94976 3.85646 3.77161 4.81599 4.92564 5.03907 5.1535 5.26596 5.37381 
5.47502 5.56831 5.65317 4.60879 4.49914 4.3857 4.27128 4.15881 4.05096 
3.94976 3.85646 3.77161 4.81599 4.92564 5.03907 5.1535 5.26596 5.37381 
5.47502 5.56831 5.65317 1.5708 1.5708 1.5708 1.5708 1.5708 1.5708 
1.5708 1.5708 1.5708 1.6744 1.78405 1.89748 2.01191 2.12437 2.23222 
2.33343 2.42672 2.51157 1.4672 1.35755 1.24411 1.12969 1.01722 0.909371 
0.808166 0.714871 0.63002 1.6744 1.78405 1.89748 2.01191 2.12437 2.23222 
2.33343 2.42672 2.51157 1.4672 1.35755 1.24411 1.12969 1.01722 0.909371 
0.808166 0.714871 0.63002 3.60077 3.49669 3.38395 3.26458 3.14159 3.01861 
2.89924 2.78649 2.68241 5.82401 5.92808 6.04083 6.1602 6.28319 0.122983 
0.242354 0.355101 0.459179 6.05603 5.78856 5.97021 5.51259 5.60297 5.78856 
5.26596 5.26596 5.26596 5.26596 5.06749 5.0121 4.91556 4.71239 4.15881 
4.91556 4.83537 4.71239 4.50922 4.15881 3.63622 4.80045 4.71239 4.58941 
4.41268 4.15881 3.82181 3.45456 4.71239 4.62433 4.50922 4.35729 4.15881 
3.91219 3.63622 3.36875 6.01742 5.94343 5.82633 5.88092 5.76745 5.62798 
5.8278 5.71897 5.58911 5.43724 5.78235 5.67854 5.55757 5.41926 5.26596 
5.74316 5.64441 5.5315 5.40467 5.26596 5.11955 5.70914 5.61528 5.50962 
5.3926 5.26596 5.13292 4.99789 5.67937 5.59016 5.49102 5.38246 5.26596 
5.14407 5.02016 4.89798 5.56831 5.47502 5.47502 5.37381 5.37381 5.37381 
5.26596 5.26596 5.26596 5.26596 5.1535 5.1535 5.1535 5.1535 5.1535 
5.03907 5.03907 5.03907 5.03907 5.03907 5.03907 4.92564 4.92564 4.92564 
4.92564 4.92564 4.92564 4.92564 4.81599 4.81599 4.81599 4.81599 4.81599 
4.81599 4.81599 4.81599 4.60879 4.60879 4.49914 4.60879 4.49914 4.3857 
4.60879 4.49914 4.3857 4.27128 4.60879 4.49914 4.3857 4.27128 4.15881 
4.60879 4.49914 4.3857 4.27128 4.15881 4.05096 4.60879 4.49914 4.3857 
4.27128 4.15881 4.05096 3.94976 4.60879 4.49914 4.3857 4.27128 4.15881 
4.05096 3.94976 3.85646 4.5268 4.40462 4.42689 4.28071 4.29185 4.30523 
4.15881 4.15881 4.15881 4.15881 4.04232 4.03217 4.02011 4.00552 3.98753 
3.93376 3.91515 3.89328 3.86721 3.83566 3.7968 3.83461 3.8095 3.78037 
3.74624 3.70581 3.65733 3.59845 3.7454 3.71564 3.68161 3.64243 3.59698 
3.54386 3.48135 3.40735 3.56428 3.45246 3.52338 3.33203 3.40312 3.47739 
3.20576 3.27463 3.34802 3.42551 3.07742 3.14159 3.21128 3.28647 3.36688 
2.95116 3.00855 3.0719 3.14159 3.21784 3.3006 2.83072 2.88006 2.93517 
2.99672 3.06535 3.14159 3.22575 2.7189 2.7598 2.8058 2.85768 2.9163 
2.98259 3.05743 3.14159 3.56428 3.52338 3.45246 3.47739 3.40312 3.33203 
3.42551 3.34802 3.27463 3.20576 3.36688 3.28647 3.21128 3.14159 3.07742 
3.3006 3.21784 3.14159 3.0719 3.00855 2.95116 3.22575 3.14159 3.06535 
2.99672 2.93517 2.88006 2.83072 3.14159 3.05743 2.98259 2.9163 2.85768 
2.8058 2.7598 2.7189 4.5268 4.42689 4.40462 4.30523 4.29185 4.28071 
4.15881 4.15881 4.15881 4.15881 3.98753 4.00552 4.02011 4.03217 4.04232 
3.7968 3.83566 3.86721 3.89328 3.91515 3.93376 3.59845 3.65733 3.70581 
3.74624 3.78037 3.8095 3.83461 3.40735 3.48135 3.54386 3.59698 3.64243 
3.68161 3.71564 3.7454 4.71239 4.80045 4.62433 4.91556 4.71239 4.50922 
5.06749 4.83537 4.58941 4.35729 5.26596 5.0121 4.71239 4.41268 4.15881 
5.51259 5.26596 4.91556 4.50922 4.15881 3.91219 5.78856 5.60297 5.26596 
4.71239 4.15881 3.82181 3.63622 6.05603 5.97021 5.78856 5.26596 4.15881 
3.63622 3.45456 3.36875 0.227158 0.494626 0.312971 0.770593 0.680215 0.494626 
1.01722 1.01722 1.01722 1.01722 1.2157 1.27109 1.36763 1.5708 2.12437 
1.36763 1.44781 1.5708 1.77397 2.12437 2.64697 1.48273 1.5708 1.69378 
1.8705 2.12437 2.46138 2.82862 1.5708 1.65886 1.77397 1.9259 2.12437 
2.371 2.64697 2.91443 1.75639 1.87857 1.8563 2.00248 1.99133 1.97796 
2.12437 2.12437 2.12437 2.12437 2.24087 2.25101 2.26308 2.27767 2.29565 
2.34943 2.36803 2.38991 2.41597 2.44752 2.48639 2.44857 2.47368 2.50281 
2.53694 2.57738 2.62586 2.68474 2.53778 2.56754 2.60157 2.64076 2.68621 
2.73933 2.80184 2.87583 1.6744 1.6744 1.78405 1.6744 1.78405 1.89748 
1.6744 1.78405 1.89748 2.01191 1.6744 1.78405 1.89748 2.01191 2.12437 
1.6744 1.78405 1.89748 2.01191 2.12437 2.23222 1.6744 1.78405 1.89748 
2.01191 2.12437 2.23222 2.33343 1.6744 1.78405 1.89748 2.01191 2.12437 
2.23222 2.33343 2.42672 1.4672 1.35755 1.4672 1.24411 1.35755 1.4672 
1.12969 1.24411 1.35755 1.4672 1.01722 1.12969 1.24411 1.35755 1.4672 
0.909371 1.01722 1.12969 1.24411 1.35755 1.4672 0.808166 0.909371 1.01722 
1.12969 1.24411 1.35755 1.4672 0.714871 0.808166 0.909371 1.01722 1.12969 
1.24411 1.35755 1.4672 0.603812 0.57405 0.693022 0.540021 0.667908 0.792164 
0.500837 0.638778 0.773562 0.900726 0.455383 0.604649 0.751687 0.890581 1.01722 
0.402264 0.564217 0.725619 0.878514 1.01722 1.13912 0.339753 0.515737 0.694072 
0.863926 1.01722 1.15026 1.26302 0.265762 0.456853 0.655207 0.845941 1.01722 
1.16363 1.28529 1.38521 0.227158 0.312971 0.494626 0.494626 0.680215 0.770593 
1.01722 1.01722 1.01722 1.01722 2.12437 1.5708 1.36763 1.27109 1.2157 
2.64697 2.12437 1.77397 1.5708 1.44781 1.36763 2.82862 2.46138 2.12437 
1.8705 1.69378 1.5708 1.48273 2.91443 2.64697 2.371 2.12437 1.9259 
1.77397 1.65886 1.5708 1.75639 1.8563 1.87857 1.97796 1.99133 2.00248 
2.12437 2.12437 2.12437 2.12437 2.29565 2.27767 2.26308 2.25101 2.24087 
2.48639 2.44752 2.41597 2.38991 2.36803 2.34943 2.68474 2.62586 2.57738 
2.53694 2.50281 2.47368 2.44857 2.87583 2.80184 2.73933 2.68621 2.64076 
2.60157 2.56754 2.53778 5.86049 5.90139 5.97231 5.94739 6.02165 6.09275 
5.99927 6.07676 6.15015 6.21902 6.0579 6.13831 6.2135 0 0.0641696 
6.12418 6.20694 6.28319 0.069689 0.13304 0.190437 6.19903 0 0.0762451 
0.144876 0.206423 0.261531 0.310872 0 0.0841597 0.159004 0.225289 0.283913 
0.335793 0.381792 0.422692 5.86049 5.97231 5.90139 6.09275 6.02165 5.94739 
6.21902 6.15015 6.07676 5.99927 0.0641696 0 6.2135 6.13831 6.0579 
0.190437 0.13304 0.069689 6.28319 6.20694 6.12418 0.310872 0.261531 0.206423 
0.144876 0.0762451 6.28319 6.19903 0.422692 0.381792 0.335793 0.283913 0.225289 
0.159004 0.0841597 0 5.67937 5.70914 5.59016 5.74316 5.61528 5.49102 
5.78235 5.64441 5.50962 5.38246 5.8278 5.67854 5.5315 5.3926 5.26596 
5.88092 5.71897 5.55757 5.40467 5.26596 5.14407 5.94343 5.76745 5.58911 
5.41926 5.26596 5.13292 5.02016 6.01742 5.82633 5.62798 5.43724 5.26596 
5.11955 4.99789 4.89798 1.38521 1.28529 1.26302 1.16363 1.15026 1.13912 
1.01722 1.01722 1.01722 1.01722 0.845941 0.863926 0.878514 0.890581 0.900726 
0.655207 0.694072 0.725619 0.751687 0.773562 0.792164 0.456853 0.515737 0.564217 
0.604649 0.638778 0.667908 0.693022 0.265762 0.339753 0.402264 0.455383 0.500837 
0.540021 0.57405 0.603812 
