# vtk DataFile Version 4.0
vtk output
ASCII
DATASET POLYDATA
POINTS 1002 float
-119.569 -101.077 70.5934 -114.816 -93.8583 70.4167 -114.447 -103.843 71.341 
-109.124 -97.6329 71.5789 -115.786 -97.8506 65.781 -111.957 -100.196 66.4612 
-116.799 -97.3122 76.1102 -113.341 -99.7136 76.6325 -109.002 -92.7028 67.4531 
-118.2 -107.48 67.5725 -111.375 -92.3755 74.0353 -118.78 -106.073 74.8149 
-118.969 -100.777 70.5907 -118.538 -99.9413 70.5415 -118.55 -98.5405 70.4863 
-118.484 -97.3993 70.5318 -117.786 -96.8617 70.6155 -116.984 -96.2365 70.6083 
-116.582 -95.3405 70.5549 -116.154 -94.6838 70.5188 -115.452 -94.3045 70.4781 
-119.665 -100.795 70.1533 -119.566 -100.554 69.5984 -119.169 -100.388 68.9379 
-118.646 -100.213 68.3611 -118.254 -99.849 67.906 -117.957 -99.2928 67.3282 
-117.574 -98.7673 66.7081 -117.038 -98.3956 66.3437 -116.398 -98.1117 66.1206 
-119.075 -101.208 71.0095 -118.694 -101.089 71.4957 -118.549 -100.562 72.1261 
-118.43 -99.904 72.8213 -118.15 -99.4444 73.4282 -117.86 -99.0589 74.0305 
-117.709 -98.5063 74.774 -117.576 -97.9009 75.4893 -117.279 -97.4894 75.9278 
-120.04 -101.26 70.2953 -120.103 -101.977 69.8988 -119.988 -103.089 69.4764 
-120.027 -104.093 69.0768 -120.081 -105.046 68.6276 -120.071 -106.156 68.1439 
-120.034 -107.074 67.7614 -119.667 -107.552 67.548 -118.922 -107.669 67.4995 
-119.758 -101.468 70.9027 -119.816 -102.126 71.3894 -119.832 -102.896 71.9271 
-119.924 -103.492 72.3307 -120.026 -104.15 72.8005 -120.056 -105.006 73.4557 
-120.017 -105.558 73.9803 -119.797 -105.727 74.2987 -119.337 -105.893 74.5834 
-114.907 -94.1129 70.0125 -114.99 -94.461 69.5978 -115.166 -94.7933 69.0721 
-115.423 -95.0714 68.3622 -115.649 -95.4061 67.638 -115.803 -95.9037 67.159 
-115.865 -96.531 66.8573 -115.842 -97.1177 66.5026 -115.808 -97.5345 66.0999 
-115.093 -93.9751 70.9196 -115.513 -94.0261 71.5491 -115.836 -94.186 72.2384 
-115.865 -94.6806 72.8291 -115.839 -95.3017 73.3496 -116.044 -95.7202 73.9944 
-116.368 -96.0503 74.7543 -116.631 -96.4399 75.4152 -116.786 -96.8485 75.8545 
-114.536 -93.3123 70.0418 -114.337 -92.7215 69.5658 -113.827 -92.3647 69.1131 
-113.104 -92.1461 68.7959 -112.544 -91.8311 68.4293 -111.913 -91.5512 67.9449 
-110.988 -91.5441 67.6715 -110.107 -91.8118 67.6469 -109.466 -92.2342 67.5808 
-114.467 -93.3548 70.6637 -114.229 -92.756 71.0179 -114.063 -92.1849 71.5687 
-113.828 -91.7851 72.2502 -113.453 -91.5234 72.7936 -112.902 -91.3521 73.1852 
-112.257 -91.3336 73.6027 -111.777 -91.5081 73.932 -111.542 -91.8777 74.0334 
-113.974 -103.288 71.4566 -113.289 -102.758 71.5219 -112.506 -102.299 71.5175 
-111.891 -101.689 71.4685 -111.433 -100.81 71.4319 -110.815 -100.1 71.4939 
-110.084 -99.6904 71.6103 -109.593 -99.1162 71.6434 -109.355 -98.3136 71.598 
-114.175 -103.754 70.9584 -113.825 -103.672 70.4463 -113.548 -103.471 69.8105 
-113.357 -103.048 69.2332 -113.04 -102.6 68.7091 -112.532 -102.37 68.041 
-112.097 -102.13 67.3463 -111.942 -101.571 66.9076 -111.957 -100.825 66.6857 
-114.341 -103.629 71.8469 -114.127 -103.375 72.5084 -113.9 -103.037 73.23 
-113.723 -102.679 73.8712 -113.565 -102.283 74.4383 -113.435 -101.753 74.9819 
-113.414 -101.135 75.4469 -113.458 -100.553 75.8277 -113.441 -100.075 76.2118 
-114.658 -104.39 71.0094 -114.845 -105.08 70.682 -115.137 -105.767 70.3147 
-115.582 -106.221 69.9137 -116.133 -106.478 69.5397 -116.73 -106.732 69.1614 
-117.216 -107.006 68.7281 -117.505 -107.26 68.2875 -117.78 -107.451 67.889 
-114.754 -104.271 71.5389 -114.979 -104.803 71.9458 -115.289 -105.421 72.5012 
-115.826 -105.852 72.84 -116.484 -105.871 72.9787 -117.106 -105.812 73.3692 
-117.589 -106.046 73.9539 -117.93 -106.331 74.3622 -118.3 -106.324 74.6076 
-109.114 -97.8811 71.0305 -109.077 -98.2711 70.4749 -108.926 -98.8429 69.9423 
-108.882 -99.3477 69.3589 -109.239 -99.5501 68.7158 -109.831 -99.604 68.1168 
-110.377 -99.7211 67.601 -110.923 -99.8711 67.1484 -111.494 -100.014 66.769 
-109.368 -97.7548 72.0986 -109.689 -97.8801 72.5915 -110.144 -97.9691 73.0231 
-110.677 -98.0419 73.4739 -111.08 -98.2851 74.0665 -111.367 -98.7655 74.795 
-111.774 -99.2126 75.4633 -112.324 -99.4427 75.9371 -112.869 -99.5692 76.2968 
-108.748 -97.2549 71.3 -108.313 -96.8542 71.0372 -108.024 -96.3151 70.6847 
-107.961 -95.6732 70.1539 -107.984 -94.9351 69.4923 -107.975 -94.1265 68.8766 
-107.99 -93.4835 68.3681 -108.147 -93.0977 67.9003 -108.496 -92.8512 67.5574 
-108.97 -97.1596 71.923 -108.85 -96.6142 72.2833 -108.797 -95.911 72.6334 
-108.848 -95.1062 72.9496 -109.048 -94.3195 73.2056 -109.369 -93.6969 73.3772 
-109.829 -93.3246 73.4652 -110.432 -93.0638 73.5379 -110.995 -92.7414 73.7153 
-115.467 -97.9093 65.2827 -115.254 -98.1157 64.7249 -115.04 -98.5836 64.4072 
-114.523 -99.1838 64.4141 -113.625 -99.6424 64.4401 -112.777 -99.8586 64.4618 
-112.355 -99.9257 64.8266 -112.234 -99.9582 65.48 -112.135 -100.039 66.0616 
-115.226 -97.4389 65.5737 -114.676 -97.0898 65.5622 -114.118 -96.7283 65.7956 
-113.39 -96.2488 66.159 -112.53 -95.669 66.5339 -111.812 -95.0847 66.912 
-111.195 -94.4518 67.2587 -110.445 -93.7451 67.4408 -109.643 -93.1219 67.4414 
-116.067 -98.4595 65.8909 -116.299 -99.3499 66.1518 -116.655 -100.432 66.3575 
-117.229 -101.609 66.3731 -117.767 -102.795 66.3366 -118.059 -103.855 66.5162 
-118.23 -104.841 66.893 -118.346 -105.892 67.1856 -118.335 -106.848 67.3463 
-111.567 -99.6641 66.2934 -110.977 -99.2707 66.059 -110.398 -98.7248 65.9558 
-109.996 -97.9521 66.0607 -109.738 -97.1682 66.346 -109.566 -96.325 66.8155 
-109.401 -95.2908 67.2541 -109.188 -94.2672 67.4011 -109.021 -93.4196 67.3821 
-112.311 -100.84 66.3318 -112.802 -101.568 66.2854 -113.697 -102.191 66.4045 
-114.632 -102.937 66.4378 -115.113 -104.027 66.2524 -115.552 -104.946 66.3212 
-116.378 -105.387 66.8448 -117.197 -105.894 67.3314 -117.737 -106.719 67.5101 
-116.373 -97.6201 76.3276 -115.926 -97.972 76.686 -115.663 -98.2093 77.1978 
-115.533 -98.2973 77.6415 -115.132 -98.4733 77.8494 -114.424 -98.8724 77.9217 
-113.874 -99.2893 77.8846 -113.644 -99.5306 77.6092 -113.513 -99.634 77.1321 
-116.201 -96.9478 76.0638 -115.537 -96.5341 76.0088 -115.014 -95.8475 76.0263 
-114.627 -94.9416 76.1154 -114.171 -94.0639 76.1701 -113.491 -93.3605 75.9997 
-112.685 -92.8492 75.6026 -112.036 -92.5177 75.1432 -111.652 -92.3712 74.6303 
-116.976 -98.0564 76.1663 -117.046 -99.0434 76.1166 -117.217 -100.004 76.0648 
-117.487 -100.893 76.0212 -117.661 -101.914 75.7946 -117.881 -103.012 75.385 
-118.37 -104.014 75.1611 -118.85 -104.901 75.2105 -118.967 -105.605 75.1627 
-112.93 -99.2839 76.8568 -112.551 -98.7264 76.9954 -112.27 -97.948 76.8818 
-112.059 -96.9743 76.4975 -111.799 -95.8801 76.0858 -111.439 -94.8165 75.7549 
-111.158 -93.9951 75.3537 -111.145 -93.4102 74.8764 -111.293 -92.8872 74.4347 
-113.892 -100.118 76.6777 -114.507 -100.629 76.6831 -115.075 -101.242 76.6844 
-115.417 -102 76.7316 -115.646 -102.852 76.6639 -116.127 -103.605 76.2552 
-116.905 -104.31 75.6962 -117.691 -105.105 75.3455 -118.315 -105.775 75.148 
-108.787 -92.1145 67.7558 -108.733 -91.6027 68.4003 -108.764 -91.1985 69.1282 
-108.87 -90.9319 69.7832 -109.147 -90.8598 70.6927 -109.572 -91.0378 71.7257 
-110.074 -91.4075 72.3447 -110.629 -91.7943 72.7569 -111.105 -92.1046 73.3621 
-118.388 -108.001 67.9415 -118.584 -108.307 68.5485 -118.827 -108.608 69.2841 
-119.024 -108.891 70.2955 -118.984 -108.843 71.5208 -118.746 -108.298 72.2666 
-118.607 -107.444 72.5486 -118.678 -106.712 73.1385 -118.789 -106.329 74.0658 
-119.022 -100.367 70.0891 -118.876 -99.9526 69.4838 -118.525 -99.4382 69.9748 
-118.494 -99.6211 68.8656 -118.303 -99.0343 69.4659 -118.365 -98.2256 69.9683 
-118.159 -99.2378 68.3118 -118.004 -98.6444 68.9539 -118.014 -97.991 69.5493 
-118.037 -97.3279 70.0638 -118 -98.6763 67.7101 -117.882 -98.0794 68.2747 
-117.752 -97.5154 68.9108 -117.612 -97.0227 69.5121 -117.277 -96.6573 70.0969 
-117.743 -98.1342 67.0517 -117.74 -97.5217 67.5365 -117.545 -96.971 68.09 
-117.274 -96.5204 68.7407 -116.888 -96.2162 69.48 -116.565 -95.8915 70.1013 
-117.215 -97.823 66.5907 -117.273 -97.2356 67.0176 -117.106 -96.7072 67.497 
-116.801 -96.2755 68.0792 -116.447 -95.9403 68.8708 -116.121 -95.6314 69.6314 
-116.034 -95.2025 70.1318 -116.513 -97.6715 66.3521 -116.569 -97.1568 66.7351 
-116.484 -96.6106 67.1516 -116.25 -96.1459 67.6134 -115.968 -95.7881 68.3013 
-115.686 -95.4706 69.108 -115.489 -95.102 69.7147 -115.452 -94.6746 70.1067 
-120.046 -101.087 69.7756 -120.014 -101.862 69.3141 -119.775 -101.042 69.1813 
-119.981 -102.825 68.8062 -119.733 -101.809 68.7117 -119.254 -101.035 68.5686 
-120.136 -103.704 68.2503 -119.853 -102.546 68.13 -119.307 -101.706 68.2026 
-118.709 -100.871 68.1173 -120.139 -104.752 67.7968 -119.947 -103.343 67.5922 
-119.443 -102.286 67.6987 -118.798 -101.442 67.8193 -118.252 -100.443 67.6454 
-119.951 -105.859 67.5863 -119.647 -104.365 67.4615 -119.243 -103.027 67.3791 
-118.78 -102.01 67.3649 -118.237 -101.019 67.2561 -117.806 -99.8754 66.9753 
-119.616 -106.597 67.4705 -119.211 -105.231 67.5289 -118.742 -103.84 67.4041 
-118.448 -102.693 67.1 -118.108 -101.643 66.858 -117.646 -100.494 66.682 
-117.294 -99.3376 66.4782 -119.022 -106.897 67.3616 -118.808 -105.71 67.3939 
-118.42 -104.433 67.2731 -118.141 -103.32 66.9146 -117.878 -102.257 66.6211 
-117.428 -101.1 66.5268 -116.982 -99.9097 66.429 -116.685 -98.8677 66.2403 
-117.785 -106.024 67.2002 -117.163 -105.383 66.7613 -117.848 -105.245 66.7019 
-116.335 -105.011 66.1739 -117.227 -104.895 66.0808 -117.866 -104.457 66.1497 
-115.592 -104.258 65.9896 -116.313 -104.3 65.9011 -117.144 -103.978 65.8426 
-117.645 -103.377 65.9881 -115.008 -102.977 66.2084 -115.386 -102.95 66.1489 
-116.012 -102.767 66.1072 -116.682 -102.399 66.0251 -117.043 -101.983 66.1409 
-114.132 -101.93 66.2273 -114.47 -101.613 66.08 -114.943 -101.334 66.0198 
-115.58 -101.142 65.8969 -116.045 -100.956 65.8644 -116.327 -100.717 66.1054 
-113.124 -101.278 66.0216 -113.442 -100.938 65.6363 -113.957 -100.643 65.3502 
-114.727 -100.489 65.1983 -115.351 -100.338 65.108 -115.634 -100.029 65.3157 
[...]
POINT_DATA 1002
FIELD FieldData 2
Theta 1 1002 float
2.58802 2.58802 0.553574 0.553574 2.12437 1.01722 2.12437 1.01722 1.5708 
1.5708 1.5708 1.5708 2.68241 2.78649 2.89924 3.01861 3.14159 3.01861 
2.89924 2.78649 2.68241 2.61035 2.61791 2.60515 2.56958 2.51327 2.44184 
2.36202 2.27983 2.1997 2.61035 2.61791 2.60515 2.56958 2.51327 2.44184 
2.36202 2.27983 2.1997 2.50947 2.41899 2.31794 2.20864 2.0944 1.97902 
1.86631 1.75944 1.66056 2.50947 2.41899 2.31794 2.20864 2.0944 1.97902 
1.86631 1.75944 1.66056 2.61035 2.61791 2.60515 2.56958 2.51327 2.44184 
2.36202 2.27983 2.1997 2.61035 2.61791 2.60515 2.56958 2.51327 2.44184 
2.36202 2.27983 2.1997 2.50947 2.41899 2.31794 2.20864 2.0944 1.97902 
1.86631 1.75944 1.66056 2.50947 2.41899 2.31794 2.20864 2.0944 1.97902 
1.86631 1.75944 1.66056 0.459179 0.355101 0.242354 0.122983 0 0.122983 
0.242354 0.355101 0.459179 0.531246 0.523681 0.536438 0.57201 0.628319 0.699757 
0.779574 0.86176 0.941896 0.531246 0.523681 0.536438 0.57201 0.628319 0.699757 
0.779574 0.86176 0.941896 0.632123 0.7226 0.823657 0.932948 1.0472 1.16257 
1.27528 1.38216 1.48103 0.632123 0.7226 0.823657 0.932948 1.0472 1.16257 
1.27528 1.38216 1.48103 0.531246 0.523681 0.536438 0.57201 0.628319 0.699757 
0.779574 0.86176 0.941896 0.531246 0.523681 0.536438 0.57201 0.628319 0.699757 
0.779574 0.86176 0.941896 0.632123 0.7226 0.823657 0.932948 1.0472 1.16257 
1.27528 1.38216 1.48103 0.632123 0.7226 0.823657 0.932948 1.0472 1.16257 
1.27528 1.38216 1.48103 2.02998 1.9259 1.81315 1.69378 1.5708 1.44781 
1.32844 1.2157 1.11162 2.0928 2.05283 2.00422 1.94767 1.88496 1.81867 
1.75177 1.68695 1.62623 2.0928 2.05283 2.00422 1.94767 1.88496 1.81867 
1.75177 1.68695 1.62623 1.0488 1.08876 1.13737 1.19392 1.25664 1.32292 
1.38982 1.45464 1.51537 1.0488 1.08876 1.13737 1.19392 1.25664 1.32292 
1.38982 1.45464 1.51537 2.02998 1.9259 1.81315 1.69378 1.5708 1.44781 
1.32844 1.2157 1.11162 2.0928 2.05283 2.00422 1.94767 1.88496 1.81867 
1.75177 1.68695 1.62623 2.0928 2.05283 2.00422 1.94767 1.88496 1.81867 
1.75177 1.68695 1.62623 1.0488 1.08876 1.13737 1.19392 1.25664 1.32292 
1.38982 1.45464 1.51537 1.0488 1.08876 1.13737 1.19392 1.25664 1.32292 
1.38982 1.45464 1.51537 1.5708 1.5708 1.5708 1.5708 1.5708 1.5708 
1.5708 1.5708 1.5708 1.5708 1.5708 1.5708 1.5708 1.5708 1.5708 
1.5708 1.5708 1.5708 2.70908 2.71362 2.81592 2.68886 2.81002 2.92597 
2.6349 2.76254 2.89233 3.01997 2.55881 2.68262 2.80854 2.92834 3.01997 
2.47007 2.58462 2.70048 2.80854 2.89233 2.92597 2.37702 2.48017 2.58462 
2.68262 2.76254 2.81002 2.81592 2.28567 2.37702 2.47007 2.55881 2.6349 
2.68886 2.71362 2.70908 2.52097 2.4195 2.51718 2.30791 2.40503 2.49426 
2.18928 2.28408 2.3734 2.45144 2.06758 2.15805 2.24572 2.32523 2.39165 
1.94707 2.03138 2.11543 2.19453 2.26401 2.32035 1.83164 1.90847 1.98711 
2.06376 2.13422 2.1949 2.24359 1.72413 1.79288 1.86489 1.93728 2.00658 
2.06938 2.12312 2.16654 1.5708 1.50988 1.63171 1.44492 1.5708 1.69667 
1.37826 1.5059 1.63569 1.76333 1.31281 1.43962 1.5708 1.70197 1.82878 
1.25155 1.37501 1.50478 1.63681 1.76659 1.89004 1.19686 1.31493 1.44074 
1.5708 1.70086 1.82666 1.94473 1.15011 1.26149 1.38136 1.50697 1.63462 
1.76024 1.88011 1.99148 1.99148 1.88011 1.94473 1.76024 1.82666 1.89004 
1.63462 1.70086 1.76659 1.82878 1.50697 1.5708 1.63681 1.70197 1.76333 
1.38136 1.44074 1.50478 1.5708 1.63569 1.69667 1.26149 1.31493 1.37501 
1.43962 1.5059 1.5708 1.63171 1.15011 1.19686 1.25155 1.31281 1.37826 
1.44492 1.50988 1.5708 2.16654 2.12312 2.24359 2.06938 2.1949 2.32035 
2.00658 2.13422 2.26401 2.39165 1.93728 2.06376 2.19453 2.32523 2.45144 
1.86489 1.98711 2.11543 2.24572 2.3734 2.49426 1.79288 1.90847 2.03138 
2.15805 2.28408 2.40503 2.51718 1.72413 1.83164 1.94707 2.06758 2.18928 
2.30791 2.4195 2.52097 1.66533 1.66946 1.76911 1.67254 1.777 1.88041 
1.67418 1.78222 1.89102 1.99634 1.67418 1.78405 1.89674 2.00785 2.11299 
1.67254 1.78222 1.89674 2.01191 2.12307 2.22608 1.66946 1.777 1.89102 
2.00785 2.12307 2.23222 2.33166 1.66533 1.76911 1.88041 1.99634 2.11299 
2.22608 2.33166 2.42672 1.47626 1.37249 1.47213 1.26118 1.36459 1.46906 
1.14526 1.25058 1.35938 1.46741 1.0286 1.13374 1.24485 1.35755 1.46741 
0.915514 1.01852 1.12969 1.24485 1.35938 1.46906 0.809937 0.909371 1.01852 
1.13374 1.25058 1.36459 1.47213 0.714871 0.809937 0.915514 1.0286 1.14526 
1.26118 1.37249 1.47626 0.975055 0.898002 1.01847 0.821245 0.946693 1.07221 
0.749941 0.877585 1.00737 1.13501 0.690152 0.816367 0.94706 1.07784 1.20431 
0.647337 0.768195 0.895868 1.02616 1.15448 1.2767 0.624416 0.736561 0.857515 
0.983547 1.11021 1.23313 1.34871 0.620619 0.722093 0.833684 0.952313 1.07402 
1.19452 1.30996 1.41746 0.855925 0.764569 0.764569 0.671524 0.661425 0.671524 
0.582786 0.556971 0.556971 0.582786 0.506696 0.458968 0.441109 0.458968 0.506696 
0.45273 0.379052 0.333054 0.333054 0.379052 0.45273 0.427969 0.331576 0.249267 
0.21325 0.249267 0.331576 0.427969 0.432512 0.325669 0.215619 0.121622 0.121622 
0.215619 0.325669 0.432512 0.432512 0.427969 0.325669 0.45273 0.331576 0.215619 
0.506696 0.379052 0.249267 0.121622 0.582786 0.458968 0.333054 0.21325 0.121622 
0.671524 0.556971 0.441109 0.333054 0.249267 0.215619 0.764569 0.661425 0.556971 
0.458968 0.379052 0.331576 0.325669 0.855925 0.764569 0.671524 0.582786 0.506696 
0.45273 0.427969 0.432512 0.975055 1.01847 0.898002 1.07221 0.946693 0.821245 
1.13501 1.00737 0.877585 0.749941 1.20431 1.07784 0.94706 0.816367 0.690152 
1.2767 1.15448 1.02616 0.895868 0.768195 0.647337 1.34871 1.23313 1.11021 
0.983547 0.857515 0.736561 0.624416 1.41746 1.30996 1.19452 1.07402 0.952313 
0.833684 0.722093 0.620619 1.15011 1.26149 1.19686 1.38136 1.31493 1.25155 
1.50697 1.44074 1.37501 1.31281 1.63462 1.5708 1.50478 1.43962 1.37826 
1.76024 1.70086 1.63681 1.5708 1.5059 1.44492 1.88011 1.82666 1.76659 
1.70197 1.63569 1.5708 1.50988 1.99148 1.94473 1.89004 1.82878 1.76333 
1.69667 1.63171 1.5708 1.15011 1.19686 1.26149 1.25155 1.31493 1.38136 
1.31281 1.37501 1.44074 1.50697 1.37826 1.43962 1.50478 1.5708 1.63462 
1.44492 1.5059 1.5708 1.63681 1.70086 1.76024 1.50988 1.5708 1.63569 
1.70197 1.76659 1.82666 1.88011 1.5708 1.63171 1.69667 1.76333 1.82878 
1.89004 1.94473 1.99148 1.72413 1.83164 1.79288 1.94707 1.90847 1.86489 
2.06758 2.03138 1.98711 1.93728 2.18928 2.15805 2.11543 2.06376 2.00658 
2.30791 2.28408 2.24572 2.19453 2.13422 2.06938 2.4195 2.40503 2.3734 
2.32523 2.26401 2.1949 2.12312 2.52097 2.51718 2.49426 2.45144 2.39165 
2.32035 2.24359 2.16654 2.70908 2.81592 2.71362 2.92597 2.81002 2.68886 
3.01997 2.89233 2.76254 2.6349 3.01997 2.92834 2.80854 2.68262 2.55881 
2.92597 2.89233 2.80854 2.70048 2.58462 2.47007 2.81592 2.81002 2.76254 
2.68262 2.58462 2.48017 2.37702 2.70908 2.71362 2.68886 2.6349 2.55881 
2.47007 2.37702 2.28567 2.16654 2.24359 2.12312 2.32035 2.1949 2.06938 
2.39165 2.26401 2.13422 2.00658 2.45144 2.32523 2.19453 2.06376 1.93728 
2.49426 2.3734 2.24572 2.11543 1.98711 1.86489 2.51718 2.40503 2.28408 
2.15805 2.03138 1.90847 1.79288 2.52097 2.4195 2.30791 2.18928 2.06758 
1.94707 1.83164 1.72413 1.66533 1.76911 1.66946 1.88041 1.777 1.67254 
1.99634 1.89102 1.78222 1.67418 2.11299 2.00785 1.89674 1.78405 1.67418 
2.22608 2.12307 2.01191 1.89674 1.78222 1.67254 2.33166 2.23222 2.12307 
2.00785 1.89102 1.777 1.66946 2.42672 2.33166 2.22608 2.11299 1.99634 
1.88041 1.76911 1.66533 1.47626 1.47213 1.37249 1.46906 1.36459 1.26118 
1.46741 1.35938 1.25058 1.14526 1.46741 1.35755 1.24485 1.13374 1.0286 
1.46906 1.35938 1.24485 1.12969 1.01852 0.915514 1.47213 1.36459 1.25058 
1.13374 1.01852 0.909371 0.809937 1.47626 1.37249 1.26118 1.14526 1.0286 
0.915514 0.809937 0.714871 1.41746 1.30996 1.34871 1.19452 1.23313 1.2767 
1.07402 1.11021 1.15448 1.20431 0.952313 0.983547 1.02616 1.07784 1.13501 
0.833684 0.857515 0.895868 0.94706 1.00737 1.07221 0.722093 0.736561 0.768195 
0.816367 0.877585 0.946693 1.01847 0.620619 0.624416 0.647337 0.690152 0.749941 
0.821245 0.898002 0.975055 0.975055 0.898002 1.01847 0.821245 0.946693 1.07221 
0.749941 0.877585 1.00737 1.13501 0.690152 0.816367 0.94706 1.07784 1.20431 
0.647337 0.768195 0.895868 1.02616 1.15448 1.2767 0.624416 0.736561 0.857515 
0.983547 1.11021 1.23313 1.34871 0.620619 0.722093 0.833684 0.952313 1.07402 
1.19452 1.30996 1.41746 
Phi 1 1002 float
6.28319 3.14159 6.28319 3.14159 4.71239 4.71239 1.5708 1.5708 3.69517 
5.72961 2.58802 0.553574 6.28319 6.28319 6.28319 6.28319 3.14159 3.14159 
3.14159 3.14159 3.14159 6.1053 5.8988 5.67687 5.45995 5.26596 5.10322 
4.97131 4.86569 4.78095 0.177881 0.384387 0.606312 0.823235 1.01722 1.17997 
1.31187 1.4175 1.50223 6.18928 6.10703 6.03531 5.97283 5.91832 5.87061 
5.82869 5.79168 5.75886 0.0939024 0.176153 0.247873 0.310351 0.364864 0.412573 
0.454497 0.491504 0.524326 3.31947 3.52598 3.7479 3.96483 4.15881 4.32156 
4.45346 4.55909 4.64383 2.96371 2.75721 2.53528 2.31836 2.12437 1.96162 
1.82972 1.72409 1.63936 3.2355 3.31775 3.38947 3.45194 3.50646 3.55417 
3.59609 3.6331 3.66592 3.04769 2.96544 2.89372 2.83124 2.77673 2.72902 
2.6871 2.65009 2.61727 6.28319 6.28319 6.28319 6.28319 3.14159 3.14159 
3.14159 3.14159 3.14159 6.1053 5.8988 5.67687 5.45995 5.26596 5.10322 
4.97131 4.86569 4.78095 0.177881 0.384387 0.606312 0.823235 1.01722 1.17997 
1.31187 1.4175 1.50223 6.18928 6.10703 6.03531 5.97283 5.91832 5.87061 
5.82869 5.79168 5.75886 0.0939024 0.176153 0.247873 0.310351 0.364864 0.412573 
0.454497 0.491504 0.524326 3.31947 3.52598 3.7479 3.96483 4.15881 4.32156 
4.45346 4.55909 4.64383 2.96371 2.75721 2.53528 2.31836 2.12437 1.96162 
1.82972 1.72409 1.63936 3.2355 3.31775 3.38947 3.45194 3.50646 3.55417 
3.59609 3.6331 3.66592 3.04769 2.96544 2.89372 2.83124 2.77673 2.72902 
2.6871 2.65009 2.61727 4.71239 4.71239 4.71239 4.71239 4.71239 4.71239 
4.71239 4.71239 4.71239 4.60879 4.49914 4.3857 4.27128 4.15881 4.05096 
3.94976 3.85646 3.77161 4.81599 4.92564 5.03907 5.1535 5.26596 5.37381 
5.47502 5.56831 5.65317 4.60879 4.49914 4.3857 4.27128 4.15881 4.05096 
3.94976 3.85646 3.77161 4.81599 4.92564 5.03907 5.1535 5.26596 5.37381 
5.47502 5.56831 5.65317 1.5708 1.5708 1.5708 1.5708 1.5708 1.5708 
1.5708 1.5708 1.5708 1.6744 1.78405 1.89748 2.01191 2.12437 2.23222 
2.33343 2.42672 2.51157 1.4672 1.35755 1.24411 1.12969 1.01722 0.909371 
0.808166 0.714871 0.63002 1.6744 1.78405 1.89748 2.01191 2.12437 2.23222 
2.33343 2.42672 2.51157 1.4672 1.35755 1.24411 1.12969 1.01722 0.909371 
0.808166 0.714871 0.63002 3.60077 3.49669 3.38395 3.26458 3.14159 3.01861 
2.89924 2.78649 2.68241 5.82401 5.92808 6.04083 6.1602 6.28319 0.122983 
0.242354 0.355101 0.459179 6.05603 5.78856 5.97021 5.51259 5.60297 5.78856 
5.26596 5.26596 5.26596 5.26596 5.06749 5.0121 4.91556 4.71239 4.15881 
4.91556 4.83537 4.71239 4.50922 4.15881 3.63622 4.80045 4.71239 4.58941 
4.41268 4.15881 3.82181 3.45456 4.71239 4.62433 4.50922 4.35729 4.15881 
3.91219 3.63622 3.36875 6.01742 5.94343 5.82633 5.88092 5.76745 5.62798 
5.8278 5.71897 5.58911 5.43724 5.78235 5.67854 5.55757 5.41926 5.26596 
5.74316 5.64441 5.5315 5.40467 5.26596 5.11955 5.70914 5.61528 5.50962 
5.3926 5.26596 5.13292 4.99789 5.67937 5.59016 5.49102 5.38246 5.26596 
5.14407 5.02016 4.89798 5.56831 5.47502 5.47502 5.37381 5.37381 5.37381 
5.26596 5.26596 5.26596 5.26596 5.1535 5.1535 5.1535 5.1535 5.1535 
5.03907 5.03907 5.03907 5.03907 5.03907 5.03907 4.92564 4.92564 4.92564 
4.92564 4.92564 4.92564 4.92564 4.81599 4.81599 4.81599 4.81599 4.81599 
4.81599 4.81599 4.81599 4.60879 4.60879 4.49914 4.60879 4.49914 4.3857 
4.60879 4.49914 4.3857 4.27128 4.60879 4.49914 4.3857 4.27128 4.15881 
4.60879 4.49914 4.3857 4.27128 4.15881 4.05096 4.60879 4.49914 4.3857 
4.27128 4.15881 4.05096 3.94976 4.60879 4.49914 4.3857 4.27128 4.15881 
4.05096 3.94976 3.85646 4.5268 4.40462 4.42689 4.28071 4.29185 4.30523 
4.15881 4.15881 4.15881 4.15881 4.04232 4.03217 4.02011 4.00552 3.98753 
3.93376 3.91515 3.89328 3.86721 3.83566 3.7968 3.83461 3.8095 3.78037 
3.74624 3.70581 3.65733 3.59845 3.7454 3.71564 3.68161 3.64243 3.59698 
3.54386 3.48135 3.40735 3.56428 3.45246 3.52338 3.33203 3.40312 3.47739 
3.20576 3.27463 3.34802 3.42551 3.07742 3.14159 3.21128 3.28647 3.36688 
2.95116 3.00855 3.0719 3.14159 3.21784 3.3006 2.83072 2.88006 2.93517 
2.99672 3.06535 3.14159 3.22575 2.7189 2.7598 2.8058 2.85768 2.9163 
2.98259 3.05743 3.14159 3.56428 3.52338 3.45246 3.47739 3.40312 3.33203 
3.42551 3.34802 3.27463 3.20576 3.36688 3.28647 3.21128 3.14159 3.07742 
3.3006 3.21784 3.14159 3.0719 3.00855 2.95116 3.22575 3.14159 3.06535 
2.99672 2.93517 2.88006 2.83072 3.14159 3.05743 2.98259 2.9163 2.85768 
2.8058 2.7598 2.7189 4.5268 4.42689 4.40462 4.30523 4.29185 4.28071 
4.15881 4.15881 4.15881 4.15881 3.98753 4.00552 4.02011 4.03217 4.04232 
3.7968 3.83566 3.86721 3.89328 3.91515 3.93376 3.59845 3.65733 3.70581 
3.74624 3.78037 3.8095 3.83461 3.40735 3.48135 3.54386 3.59698 3.64243 
3.68161 3.71564 3.7454 4.71239 4.80045 4.62433 4.91556 4.71239 4.50922 
5.06749 4.83537 4.58941 4.35729 5.26596 5.0121 4.71239 4.41268 4.15881 
5.51259 5.26596 4.91556 4.50922 4.15881 3.91219 5.78856 5.60297 5.26596 
4.71239 4.15881 3.82181 3.63622 6.05603 5.97021 5.78856 5.26596 4.15881 
3.63622 3.45456 3.36875 0.227158 0.494626 0.312971 0.770593 0.680215 0.494626 
1.01722 1.01722 1.01722 1.01722 1.2157 1.27109 1.36763 1.5708 2.12437 
1.36763 1.44781 1.5708 1.77397 2.12437 2.64697 1.48273 1.5708 1.69378 
1.8705 2.12437 2.46138 2.82862 1.5708 1.65886 1.77397 1.9259 2.12437 
2.371 2.64697 2.91443 1.75639 1.87857 1.8563 2.00248 1.99133 1.97796 
2.12437 2.12437 2.12437 2.12437 2.24087 2.25101 2.26308 2.27767 2.29565 
2.34943 2.36803 2.38991 2.41597 2.44752 2.48639 2.44857 2.47368 2.50281 
2.53694 2.57738 2.62586 2.68474 2.53778 2.56754 2.60157 2.64076 2.68621 
2.73933 2.80184 2.87583 1.6744 1.6744 1.78405 1.6744 1.78405 1.89748 
1.6744 1.78405 1.89748 2.01191 1.6744 1.78405 1.89748 2.01191 2.12437 
1.6744 1.78405 1.89748 2.01191 2.12437 2.23222 1.6744 1.78405 1.89748 
2.01191 2.12437 2.23222 2.33343 1.6744 1.78405 1.89748 2.01191 2.12437 
2.23222 2.33343 2.42672 1.4672 1.35755 1.4672 1.24411 1.35755 1.4672 
1.12969 1.24411 1.35755 1.4672 1.01722 1.12969 1.24411 1.35755 1.4672 
0.909371 1.01722 1.12969 1.24411 1.35755 1.4672 0.808166 0.909371 1.01722 
1.12969 1.24411 1.35755 1.4672 0.714871 0.808166 0.909371 1.01722 1.12969 
1.24411 1.35755 1.4672 0.603812 0.57405 0.693022 0.540021 0.667908 0.792164 
0.500837 0.638778 0.773562 0.900726 0.455383 0.604649 0.751687 0.890581 1.01722 
0.402264 0.564217 0.725619 0.878514 1.01722 1.13912 0.339753 0.515737 0.694072 
0.863926 1.01722 1.15026 1.26302 0.265762 0.456853 0.655207 0.845941 1.01722 
1.16363 1.28529 1.38521 0.227158 0.312971 0.494626 0.494626 0.680215 0.770593 
1.01722 1.01722 1.01722 1.01722 2.12437 1.5708 1.36763 1.27109 1.2157 
2.64697 2.12437 1.77397 1.5708 1.44781 1.36763 2.82862 2.46138 2.12437 
1.8705 1.69378 1.5708 1.48273 2.91443 2.64697 2.371 2.12437 1.9259 
1.77397 1.65886 1.5708 1.75639 1.8563 1.87857 1.97796 1.99133 2.00248 
2.12437 2.12437 2.12437 2.12437 2.29565 2.27767 2.26308 2.25101 2.24087 
2.48639 2.44752 2.41597 2.38991 2.36803 2.34943 2.68474 2.62586 2.57738 
2.53694 2.50281 2.47368 2.44857 2.87583 2.80184 2.73933 2.68621 2.64076 
2.60157 2.56754 2.53778 5.86049 5.90139 5.97231 5.94739 6.02165 6.09275 
5.99927 6.07676 6.15015 6.21902 6.0579 6.13831 6.2135 0 0.0641696 
6.12418 6.20694 6.28319 0.069689 0.13304 0.190437 6.19903 0 0.0762451 
0.144876 0.206423 0.261531 0.310872 0 0.0841597 0.159004 0.225289 0.283913 
0.335793 0.381792 0.422692 5.86049 5.97231 5.90139 6.09275 6.02165 5.94739 
6.21902 6.15015 6.07676 5.99927 0.0641696 0 6.2135 6.13831 6.0579 
0.190437 0.13304 0.069689 6.28319 6.20694 6.12418 0.310872 0.261531 0.206423 
0.144876 0.0762451 6.28319 6.19903 0.422692 0.381792 0.335793 0.283913 0.225289 
0.159004 0.0841597 0 5.67937 5.70914 5.59016 5.74316 5.61528 5.49102 
5.78235 5.64441 5.50962 5.38246 5.8278 5.67854 5.5315 5.3926 5.26596 
5.88092 5.71897 5.55757 5.40467 5.26596 5.14407 5.94343 5.76745 5.58911 
5.41926 5.26596 5.13292 5.02016 6.01742 5.82633 5.62798 5.43724 5.26596 
5.11955 4.99789 4.89798 1.38521 1.28529 1.26302 1.16363 1.15026 1.13912 
1.01722 1.01722 1.01722 1.01722 0.845941 0.863926 0.878514 0.890581 0.900726 
0.655207 0.694072 0.725619 0.751687 0.773562 0.792164 0.456853 0.515737 0.564217 
0.604649 0.638778 0.667908 0.693022 0.265762 0.339753 0.402264 0.455383 0.500837 
0.540021 0.57405 0.603812 
