# vtk DataFile Version 4.0
vtk output
ASCII
DATASET POLYDATA
POINTS 1002 float
-118.036 -101.391 71.6324 -113.31 -94.3649 71.9693 -113.052 -104.895 71.0109 
-106.686 -98.9966 71.3836 -114.941 -98.5217 67.3014 -111.71 -100.37 67.0709 
-114.188 -99.1515 76.827 -111.727 -100.76 76.2641 -108.896 -92.6188 68.4636 
-117.921 -107.233 68.2719 -108.913 -94.0768 74.9955 -117.165 -106.48 74.2578 
-117.729 -100.721 71.652 -117.353 -99.9533 71.7206 -116.85 -99.1712 71.6875 
-116.164 -98.5789 71.5256 -115.448 -98.0296 71.4585 -114.885 -97.2394 71.5482 
-114.485 -96.3186 71.6586 -114.174 -95.4881 71.7784 -113.817 -94.825 71.9108 
-118.122 -101.058 71.1548 -118.12 -100.752 70.6648 -117.976 -100.518 70.1514 
-117.666 -100.262 69.5875 -117.223 -99.9107 69.0617 -116.816 -99.5152 68.6245 
-116.5 -99.1578 68.2006 -116.067 -98.9145 67.8223 -115.476 -98.7489 67.5486 
-117.757 -101.231 72.113 -117.515 -100.919 72.6661 -117.365 -100.509 73.3141 
-117.153 -100.166 74.0264 -116.677 -99.9704 74.6239 -116.009 -99.844 75.0407 
-115.337 -99.7314 75.4645 -114.772 -99.6221 75.9509 -114.392 -99.4428 76.4009 
-118.318 -101.92 71.3758 -118.426 -102.773 71.069 -118.441 -103.972 70.6512 
-118.669 -104.967 70.2224 -119.105 -105.447 69.8279 -119.387 -105.876 69.4107 
-119.329 -106.451 69.1145 -118.966 -106.865 68.9711 -118.426 -107.079 68.7152 
-118.116 -102.049 71.9309 -118.161 -102.777 72.1748 -118.154 -103.513 72.3743 
-118.137 -104.242 72.6663 -118.137 -104.887 73.035 -118.097 -105.402 73.3679 
-118.056 -105.869 73.6985 -117.993 -106.269 73.9994 -117.704 -106.474 74.1717 
-113.397 -94.5228 71.3096 -113.592 -94.663 70.6086 -114.019 -94.6914 70.0281 
-114.47 -94.7723 69.4998 -114.644 -95.1664 68.9093 -114.687 -95.8037 68.352 
-114.874 -96.4185 67.9127 -115.065 -97.022 67.5754 -115.052 -97.7515 67.3732 
-113.492 -94.5811 72.4942 -113.441 -95.0877 72.861 -113.245 -95.768 73.1485 
-113.208 -96.3009 73.6244 -113.4 -96.6755 74.3347 -113.645 -97.1157 75.0117 
-113.868 -97.5803 75.5575 -114.03 -98.028 76.0569 -114.107 -98.571 76.4872 
-112.714 -94.1113 71.5581 -112.075 -93.8037 71.063 -111.573 -93.2747 70.5513 
-111.263 -92.6075 70.0937 -111.009 -92.0192 69.6187 -110.619 -91.5384 68.9949 
-110.125 -91.2422 68.4523 -109.677 -91.3999 68.309 -109.28 -91.9822 68.4161 
-112.794 -94.125 72.2467 -112.134 -93.9607 72.4077 -111.625 -93.6587 72.7173 
-111.502 -93.1365 73.3394 -111.347 -92.7631 73.9399 -110.713 -92.7958 74.2488 
-109.983 -93.0558 74.4692 -109.555 -93.3872 74.7256 -109.256 -93.7439 74.9134 
-112.556 -104.365 71.0521 -112.191 -103.568 71.168 -111.701 -102.73 71.2563 
-110.829 -102.16 71.1859 -109.826 -101.805 71.0452 -109.192 -101.235 71.0414 
-108.829 -100.346 71.1938 -108.243 -99.5928 71.3553 -107.397 -99.2265 71.415 
-112.813 -104.853 70.4185 -112.566 -104.743 69.7933 -112.504 -104.359 69.2771 
-112.559 -103.752 68.978 -112.464 -103.195 68.658 -112.141 -102.79 68.076 
-111.796 -102.376 67.4896 -111.664 -101.772 67.2191 -111.711 -101.027 67.1659 
-112.809 -104.729 71.6355 -112.506 -104.532 72.3442 -112.331 -104.165 72.9978 
-112.34 -103.586 73.4673 -112.307 -102.997 73.9037 -112.073 -102.576 74.5077 
-111.807 -102.206 75.1331 -111.708 -101.73 75.5846 -111.731 -101.207 75.9255 
-113.593 -105.197 70.677 -114.212 -105.533 70.3574 -114.742 -106.116 69.9082 
-115.165 -106.8 69.3962 -115.723 -107.199 69.1305 -116.438 -107.415 68.9397 
-116.977 -107.693 68.4753 -117.274 -107.814 68.0623 -117.564 -107.606 68.0626 
-113.538 -105.177 71.3647 -114.032 -105.488 71.69 -114.517 -105.854 72.0113 
-114.997 -106.283 72.374 -115.474 -106.691 72.6802 -115.919 -106.913 72.8875 
-116.232 -106.927 73.1321 -116.454 -106.836 73.4845 -116.769 -106.687 73.8861 
-106.962 -98.9533 70.6654 -107.38 -98.9535 70.0057 -107.826 -99.1052 69.5639 
-108.335 -99.3012 69.2236 -108.885 -99.5289 68.7486 -109.304 -99.8881 68.1596 
-109.734 -100.15 67.6775 -110.422 -100.133 67.4206 -111.177 -100.12 67.2809 
-106.978 -99.116 72.0354 -107.54 -99.1195 72.464 -108.184 -99.1172 72.7934 
-108.692 -99.3002 73.371 -109.122 -99.6558 74.1569 -109.574 -99.9879 74.8029 
-110.072 -100.186 75.2345 -110.685 -100.292 75.5665 -111.305 -100.451 75.8883 
-106.403 -98.6064 70.8911 -106.418 -97.9194 70.4532 -106.525 -96.9575 70.0506 
-106.455 -95.9113 69.5852 -106.413 -94.94 69.2588 -106.796 -94.0936 69.1936 
-107.421 -93.4847 69.0996 -107.947 -93.1604 68.8756 -108.414 -92.9298 68.6674 
-106.416 -98.6728 71.7794 -106.434 -97.9614 72.2088 -106.516 -97.0557 72.6548 
-106.614 -96.3433 72.9729 -106.983 -95.8265 73.1285 -107.52 -95.2853 73.3602 
-107.871 -94.8194 73.7635 -108.123 -94.5341 74.2054 -108.493 -94.3035 74.6223 
-114.662 -98.7391 67.0847 -114.505 -98.8027 66.7245 -114.306 -98.8126 66.2452 
-113.885 -98.9607 65.9755 -113.335 -99.2758 66.0296 -112.771 -99.7011 66.0444 
-112.263 -100.111 65.9943 -111.961 -100.312 66.2328 -111.846 -100.326 66.6994 
-114.599 -97.6761 67.01 -114.167 -96.8275 66.8117 -113.461 -96.1753 66.8152 
-112.676 -95.5892 66.8554 -111.909 -94.9846 66.9624 -110.963 -94.335 67.225 
-110.059 -93.5466 67.4492 -109.547 -92.8803 67.6569 -109.249 -92.6258 68.0266 
-115.281 -99.3223 67.3272 -116 -99.8256 66.9941 -116.794 -100.31 66.5328 
-117.214 -101.259 66.5655 -117.515 -102.532 66.9071 -118.062 -103.741 66.8788 
-118.46 -104.895 66.8412 -118.394 -105.932 67.3317 -118.124 -106.686 67.9562 
-111.201 -99.7183 66.9622 -110.384 -99.3357 66.6197 -109.678 -98.8351 66.3369 
-109.347 -97.8651 66.4507 -109.02 -96.7035 66.7924 -108.558 -95.6031 67.0283 
-108.359 -94.5432 67.2557 -108.505 -93.7041 67.6594 -108.733 -93.1377 68.1206 
-112.091 -101.21 66.833 -112.592 -101.989 66.6856 -113.535 -102.46 66.81 
-114.561 -103.064 66.8978 -115.142 -104.079 66.7873 -115.7 -105.043 66.8595 
-116.631 -105.797 67.1153 -117.393 -106.495 67.3336 -117.688 -106.992 67.7028 
-114.189 -99.264 77.3577 -114.159 -99.3421 78.0327 -113.947 -99.4807 78.6465 
-113.552 -99.7798 78.805 -113.137 -100.129 78.4883 -112.708 -100.42 78.1206 
-112.244 -100.673 77.8364 -111.936 -100.812 77.4038 -111.831 -100.794 76.807 
-113.975 -98.3885 77.11 -113.619 -97.6549 77.3676 -112.927 -97.1636 77.4055 
-112.082 -96.6454 77.2757 -111.478 -95.988 77.0592 -111.066 -95.5594 76.5786 
-110.529 -95.2341 76.0034 -109.868 -94.6923 75.6918 -109.297 -94.2132 75.4597 
-114.492 -99.7985 76.8957 -114.951 -100.272 76.9726 -115.343 -100.869 76.9296 
-115.625 -101.696 76.7251 -116.076 -102.534 76.4904 -116.659 -103.55 76.3293 
-117.035 -104.789 76.14 -117.159 -105.69 75.6969 -117.174 -106.113 74.98 
-111.416 -100.155 76.3447 -110.89 -99.6562 76.4835 -110.278 -99.1195 76.6791 
-109.812 -98.3398 76.7066 -109.481 -97.5961 76.461 -109.229 -97.0638 76.1011 
-109.068 -96.325 75.7591 -108.926 -95.325 75.5056 -108.835 -94.5189 75.3065 
-112.052 -101.398 76.4221 -112.539 -101.911 76.4321 -113.3 -102.273 76.3201 
-114.034 -102.792 76.1499 -114.516 -103.626 75.9536 -114.965 -104.619 75.9524 
-115.483 -105.509 76.0501 -115.992 -106.023 75.6927 -116.552 -106.232 74.9086 
-108.67 -92.2101 68.8643 -108.454 -91.6682 69.2729 -108.387 -91.3123 69.8905 
-108.322 -91.4501 70.823 -108.215 -91.8723 71.7428 -108.401 -92.3822 72.2671 
-108.82 -93.0685 72.6009 -109.009 -93.6857 73.2443 -108.934 -93.9501 74.1921 
-118.213 -107.693 68.6632 -118.765 -108.314 68.9708 -119.215 -108.875 69.4105 
-119.253 -108.879 70.0662 -118.911 -108.537 70.9055 -118.45 -108.602 72.0266 
-118.114 -108.77 73.0994 -117.869 -108.223 73.5915 -117.546 -107.213 73.7811 
-117.709 -100.443 71.1707 -117.561 -100.144 70.6606 -117.202 -99.6477 71.2059 
-117.417 -99.6758 70.07 -117.042 -99.1815 70.6156 -116.62 -98.8284 71.0905 
-117.264 -99.0812 69.4413 -117.096 -98.4439 69.9935 -116.563 -98.2907 70.5009 
-115.902 -98.2704 70.9267 -116.865 -98.7384 68.945 -116.973 -97.9138 69.4428 
-116.632 -97.6328 70.0322 -115.832 -97.762 70.4859 -115.163 -97.6515 70.9484 
-116.336 -98.6426 68.5616 -116.327 -97.9382 68.9702 -116.204 -97.3621 69.56 
-115.678 -97.1551 70.1192 -115 -97.0188 70.5597 -114.62 -96.6894 71.0551 
-115.91 -98.432 68.1496 -115.69 -97.9155 68.4775 -115.461 -97.3186 68.9537 
-115.223 -96.7133 69.5542 -114.858 -96.2618 70.0936 -114.474 -95.9694 70.5585 
-114.272 -95.7184 71.1154 -115.502 -98.0836 67.7325 -115.364 -97.4883 67.9834 
-115.065 -96.94 68.3549 -114.872 -96.2763 68.88 -114.771 -95.6189 69.4856 
-114.49 -95.261 70.0226 -114.12 -95.1427 70.542 -113.911 -95.0058 71.2002 
-118.444 -101.482 70.8584 -118.558 -102.268 70.5159 -118.5 -101.094 70.3083 
-118.522 -103.456 70.0994 -118.621 -101.772 69.8859 -118.302 -100.93 69.7437 
-118.595 -104.507 69.7348 -118.52 -102.808 69.4163 -118.362 -101.533 69.2533 
-117.789 -100.857 69.2119 -118.761 -105.135 69.4208 -118.475 -103.731 69.0136 
-118.317 -102.278 68.685 -117.887 -101.383 68.7033 -117.294 -100.53 68.7056 
-118.797 -105.628 69.0547 -118.515 -104.36 68.6013 -118.379 -102.941 68.1553 
-118.086 -101.872 68.0532 -117.618 -100.913 68.0726 -117.06 -99.9359 68.1159 
-118.668 -106.095 68.6852 -118.53 -104.94 68.0834 -118.45 -103.568 67.6585 
-118.204 -102.414 67.5515 -117.881 -101.32 67.3916 -117.419 -100.245 67.3391 
-116.724 -99.4947 67.5945 -118.429 -106.448 68.3284 -118.515 -105.514 67.6085 
-118.487 -104.274 67.1647 -118.138 -103.069 67.2154 -117.762 -101.885 67.0754 
-117.46 -100.69 66.7671 -116.842 -99.8825 66.9472 -116.031 -99.3878 67.3828 
-117.984 -106.322 67.3434 -117.472 -105.688 67.0467 -118.174 -105.43 66.8609 
-116.462 -104.927 66.8533 -117.36 -104.742 66.7144 -117.929 -104.366 66.6465 
-115.599 -104.101 66.6292 -116.322 -104.024 66.5142 -117.037 -103.732 66.4392 
-117.361 -103.186 66.6255 -114.987 -103.164 66.5427 -115.55 -103.273 66.3177 
-116.271 -103.11 66.1229 -116.776 -102.547 66.1089 -116.984 -101.848 66.3553 
-114.023 -102.441 66.4123 -114.634 -102.511 66.1825 -115.41 -102.452 66.0384 
-116.136 -101.972 65.8386 -116.513 -101.247 65.9184 -116.642 -100.683 66.2484 
-112.941 -101.936 66.2491 -113.467 -101.862 65.9769 -114.189 -101.706 66.0072 
-114.969 -101.323 65.9477 -115.577 -100.73 65.8925 -115.836 -100.266 66.233 
[...]
POINT_DATA 1002
FIELD FieldData 2
Theta 1 1002 float
2.58802 2.58802 0.553574 0.553574 2.12437 1.01722 2.12437 1.01722 1.5708 
1.5708 1.5708 1.5708 2.68241 2.78649 2.89924 3.01861 3.14159 3.01861 
2.89924 2.78649 2.68241 2.61035 2.61791 2.60515 2.56958 2.51327 2.44184 
2.36202 2.27983 2.1997 2.61035 2.61791 2.60515 2.56958 2.51327 2.44184 
2.36202 2.27983 2.1997 2.50947 2.41899 2.31794 2.20864 2.0944 1.97902 
1.86631 1.75944 1.66056 2.50947 2.41899 2.31794 2.20864 2.0944 1.97902 
1.86631 1.75944 1.66056 2.61035 2.61791 2.60515 2.56958 2.51327 2.44184 
2.36202 2.27983 2.1997 2.61035 2.61791 2.60515 2.56958 2.51327 2.44184 
2.36202 2.27983 2.1997 2.50947 2.41899 2.31794 2.20864 2.0944 1.97902 
1.86631 1.75944 1.66056 2.50947 2.41899 2.31794 2.20864 2.0944 1.97902 
1.86631 1.75944 1.66056 0.459179 0.355101 0.242354 0.122983 0 0.122983 
0.242354 0.355101 0.459179 0.531246 0.523681 0.536438 0.57201 0.628319 0.699757 
0.779574 0.86176 0.941896 0.531246 0.523681 0.536438 0.57201 0.628319 0.699757 
0.779574 0.86176 0.941896 0.632123 0.7226 0.823657 0.932948 1.0472 1.16257 
1.27528 1.38216 1.48103 0.632123 0.7226 0.823657 0.932948 1.0472 1.16257 
1.27528 1.38216 1.48103 0.531246 0.523681 0.536438 0.57201 0.628319 0.699757 
0.779574 0.86176 0.941896 0.531246 0.523681 0.536438 0.57201 0.628319 0.699757 
0.779574 0.86176 0.941896 0.632123 0.7226 0.823657 0.932948 1.0472 1.16257 
1.27528 1.38216 1.48103 0.632123 0.7226 0.823657 0.932948 1.0472 1.16257 
1.27528 1.38216 1.48103 2.02998 1.9259 1.81315 1.69378 1.5708 1.44781 
1.32844 1.2157 1.11162 2.0928 2.05283 2.00422 1.94767 1.88496 1.81867 
1.75177 1.68695 1.62623 2.0928 2.05283 2.00422 1.94767 1.88496 1.81867 
1.75177 1.68695 1.62623 1.0488 1.08876 1.13737 1.19392 1.25664 1.32292 
1.38982 1.45464 1.51537 1.0488 1.08876 1.13737 1.19392 1.25664 1.32292 
1.38982 1.45464 1.51537 2.02998 1.9259 1.81315 1.69378 1.5708 1.44781 
1.32844 1.2157 1.11162 2.0928 2.05283 2.00422 1.94767 1.88496 1.81867 
1.75177 1.68695 1.62623 2.0928 2.05283 2.00422 1.94767 1.88496 1.81867 
1.75177 1.68695 1.62623 1.0488 1.08876 1.13737 1.19392 1.25664 1.32292 
1.38982 1.45464 1.51537 1.0488 1.08876 1.13737 1.19392 1.25664 1.32292 
1.38982 1.45464 1.51537 1.5708 1.5708 1.5708 1.5708 1.5708 1.5708 
1.5708 1.5708 1.5708 1.5708 1.5708 1.5708 1.5708 1.5708 1.5708 
1.5708 1.5708 1.5708 2.70908 2.71362 2.81592 2.68886 2.81002 2.92597 
2.6349 2.76254 2.89233 3.01997 2.55881 2.68262 2.80854 2.92834 3.01997 
2.47007 2.58462 2.70048 2.80854 2.89233 2.92597 2.37702 2.48017 2.58462 
2.68262 2.76254 2.81002 2.81592 2.28567 2.37702 2.47007 2.55881 2.6349 
2.68886 2.71362 2.70908 2.52097 2.4195 2.51718 2.30791 2.40503 2.49426 
2.18928 2.28408 2.3734 2.45144 2.06758 2.15805 2.24572 2.32523 2.39165 
1.94707 2.03138 2.11543 2.19453 2.26401 2.32035 1.83164 1.90847 1.98711 
2.06376 2.13422 2.1949 2.24359 1.72413 1.79288 1.86489 1.93728 2.00658 
2.06938 2.12312 2.16654 1.5708 1.50988 1.63171 1.44492 1.5708 1.69667 
1.37826 1.5059 1.63569 1.76333 1.31281 1.43962 1.5708 1.70197 1.82878 
1.25155 1.37501 1.50478 1.63681 1.76659 1.89004 1.19686 1.31493 1.44074 
1.5708 1.70086 1.82666 1.94473 1.15011 1.26149 1.38136 1.50697 1.63462 
1.76024 1.88011 1.99148 1.99148 1.88011 1.94473 1.76024 1.82666 1.89004 
1.63462 1.70086 1.76659 1.82878 1.50697 1.5708 1.63681 1.70197 1.76333 
1.38136 1.44074 1.50478 1.5708 1.63569 1.69667 1.26149 1.31493 1.37501 
1.43962 1.5059 1.5708 1.63171 1.15011 1.19686 1.25155 1.31281 1.37826 
1.44492 1.50988 1.5708 2.16654 2.12312 2.24359 2.06938 2.1949 2.32035 
2.00658 2.13422 2.26401 2.39165 1.93728 2.06376 2.19453 2.32523 2.45144 
1.86489 1.98711 2.11543 2.24572 2.3734 2.49426 1.79288 1.90847 2.03138 
2.15805 2.28408 2.40503 2.51718 1.72413 1.83164 1.94707 2.06758 2.18928 
2.30791 2.4195 2.52097 1.66533 1.66946 1.76911 1.67254 1.777 1.88041 
1.67418 1.78222 1.89102 1.99634 1.67418 1.78405 1.89674 2.00785 2.11299 
1.67254 1.78222 1.89674 2.01191 2.12307 2.22608 1.66946 1.777 1.89102 
2.00785 2.12307 2.23222 2.33166 1.66533 1.76911 1.88041 1.99634 2.11299 
2.22608 2.33166 2.42672 1.47626 1.37249 1.47213 1.26118 1.36459 1.46906 
1.14526 1.25058 1.35938 1.46741 1.0286 1.13374 1.24485 1.35755 1.46741 
0.915514 1.01852 1.12969 1.24485 1.35938 1.46906 0.809937 0.909371 1.01852 
1.13374 1.25058 1.36459 1.47213 0.714871 0.809937 0.915514 1.0286 1.14526 
1.26118 1.37249 1.47626 0.975055 0.898002 1.01847 0.821245 0.946693 1.07221 
0.749941 0.877585 1.00737 1.13501 0.690152 0.816367 0.94706 1.07784 1.20431 
0.647337 0.768195 0.895868 1.02616 1.15448 1.2767 0.624416 0.736561 0.857515 
0.983547 1.11021 1.23313 1.34871 0.620619 0.722093 0.833684 0.952313 1.07402 
1.19452 1.30996 1.41746 0.855925 0.764569 0.764569 0.671524 0.661425 0.671524 
0.582786 0.556971 0.556971 0.582786 0.506696 0.458968 0.441109 0.458968 0.506696 
0.45273 0.379052 0.333054 0.333054 0.379052 0.45273 0.427969 0.331576 0.249267 
0.21325 0.249267 0.331576 0.427969 0.432512 0.325669 0.215619 0.121622 0.121622 
0.215619 0.325669 0.432512 0.432512 0.427969 0.325669 0.45273 0.331576 0.215619 
0.506696 0.379052 0.249267 0.121622 0.582786 0.458968 0.333054 0.21325 0.121622 
0.671524 0.556971 0.441109 0.333054 0.249267 0.215619 0.764569 0.661425 0.556971 
0.458968 0.379052 0.331576 0.325669 0.855925 0.764569 0.671524 0.582786 0.506696 
0.45273 0.427969 0.432512 0.975055 1.01847 0.898002 1.07221 0.946693 0.821245 
1.13501 1.00737 0.877585 0.749941 1.20431 1.07784 0.94706 0.816367 0.690152 
1.2767 1.15448 1.02616 0.895868 0.768195 0.647337 1.34871 1.23313 1.11021 
0.983547 0.857515 0.736561 0.624416 1.41746 1.30996 1.19452 1.07402 0.952313 
0.833684 0.722093 0.620619 1.15011 1.26149 1.19686 1.38136 1.31493 1.25155 
1.50697 1.44074 1.37501 1.31281 1.63462 1.5708 1.50478 1.43962 1.37826 
1.76024 1.70086 1.63681 1.5708 1.5059 1.44492 1.88011 1.82666 1.76659 
1.70197 1.63569 1.5708 1.50988 1.99148 1.94473 1.89004 1.82878 1.76333 
1.69667 1.63171 1.5708 1.15011 1.19686 1.26149 1.25155 1.31493 1.38136 
1.31281 1.37501 1.44074 1.50697 1.37826 1.43962 1.50478 1.5708 1.63462 
1.44492 1.5059 1.5708 1.63681 1.70086 1.76024 1.50988 1.5708 1.63569 
1.70197 1.76659 1.82666 1.88011 1.5708 1.63171 1.69667 1.76333 1.82878 
1.89004 1.94473 1.99148 1.72413 1.83164 1.79288 1.94707 1.90847 1.86489 
2.06758 2.03138 1.98711 1.93728 2.18928 2.15805 2.11543 2.06376 2.00658 
2.30791 2.28408 2.24572 2.19453 2.13422 2.06938 2.4195 2.40503 2.3734 
2.32523 2.26401 2.1949 2.12312 2.52097 2.51718 2.49426 2.45144 2.39165 
2.32035 2.24359 2.16654 2.70908 2.81592 2.71362 2.92597 2.81002 2.68886 
3.01997 2.89233 2.76254 2.6349 3.01997 2.92834 2.80854 2.68262 2.55881 
2.92597 2.89233 2.80854 2.70048 2.58462 2.47007 2.81592 2.81002 2.76254 
2.68262 2.58462 2.48017 2.37702 2.70908 2.71362 2.68886 2.6349 2.55881 
2.47007 2.37702 2.28567 2.16654 2.24359 2.12312 2.32035 2.1949 2.06938 
2.39165 2.26401 2.13422 2.00658 2.45144 2.32523 2.19453 2.06376 1.93728 
2.49426 2.3734 2.24572 2.11543 1.98711 1.86489 2.51718 2.40503 2.28408 
2.15805 2.03138 1.90847 1.79288 2.52097 2.4195 2.30791 2.18928 2.06758 
1.94707 1.83164 1.72413 1.66533 1.76911 1.66946 1.88041 1.777 1.67254 
1.99634 1.89102 1.78222 1.67418 2.11299 2.00785 1.89674 1.78405 1.67418 
2.22608 2.12307 2.01191 1.89674 1.78222 1.67254 2.33166 2.23222 2.12307 
2.00785 1.89102 1.777 1.66946 2.42672 2.33166 2.22608 2.11299 1.99634 
1.88041 1.76911 1.66533 1.47626 1.47213 1.37249 1.46906 1.36459 1.26118 
1.46741 1.35938 1.25058 1.14526 1.46741 1.35755 1.24485 1.13374 1.0286 
1.46906 1.35938 1.24485 1.12969 1.01852 0.915514 1.47213 1.36459 1.25058 
1.13374 1.01852 0.909371 0.809937 1.47626 1.37249 1.26118 1.14526 1.0286 
0.915514 0.809937 0.714871 1.41746 1.30996 1.34871 1.19452 1.23313 1.2767 
1.07402 1.11021 1.15448 1.20431 0.952313 0.983547 1.02616 1.07784 1.13501 
0.833684 0.857515 0.895868 0.94706 1.00737 1.07221 0.722093 0.736561 0.768195 
0.816367 0.877585 0.946693 1.01847 0.620619 0.624416 0.647337 0.690152 0.749941 
0.821245 0.898002 0.975055 0.975055 0.898002 1.01847 0.821245 0.946693 1.07221 
0.749941 0.877585 1.00737 1.13501 0.690152 0.816367 0.94706 1.07784 1.20431 
0.647337 0.768195 0.895868 1.02616 1.15448 1.2767 0.624416 0.736561 0.857515 
0.983547 1.11021 1.23313 1.34871 0.620619 0.722093 0.833684 0.952313 1.07402 
1.19452 1.30996 1.41746 
Phi 1 1002 float
6.28319 3.14159 6.28319 3.14159 4.71239 4.71239 1.5708 1.5708 3.69517 
5.72961 2.58802 0.553574 6.28319 6.28319 6.28319 6.28319 3.14159 3.14159 
3.14159 3.14159 3.14159 6.1053 5.8988 5.67687 5.45995 5.26596 5.10322 
4.97131 4.86569 4.78095 0.177881 0.384387 0.606312 0.823235 1.01722 1.17997 
1.31187 1.4175 1.50223 6.18928 6.10703 6.03531 5.97283 5.91832 5.87061 
5.82869 5.79168 5.75886 0.0939024 0.176153 0.247873 0.310351 0.364864 0.412573 
0.454497 0.491504 0.524326 3.31947 3.52598 3.7479 3.96483 4.15881 4.32156 
4.45346 4.55909 4.64383 2.96371 2.75721 2.53528 2.31836 2.12437 1.96162 
1.82972 1.72409 1.63936 3.2355 3.31775 3.38947 3.45194 3.50646 3.55417 
3.59609 3.6331 3.66592 3.04769 2.96544 2.89372 2.83124 2.77673 2.72902 
2.6871 2.65009 2.61727 6.28319 6.28319 6.28319 6.28319 3.14159 3.14159 
3.14159 3.14159 3.14159 6.1053 5.8988 5.67687 5.45995 5.26596 5.10322 
4.97131 4.86569 4.78095 0.177881 0.384387 0.606312 0.823235 1.01722 1.17997 
1.31187 1.4175 1.50223 6.18928 6.10703 6.03531 5.97283 5.91832 5.87061 
5.82869 5.79168 5.75886 0.0939024 0.176153 0.247873 0.310351 0.364864 0.412573 
0.454497 0.491504 0.524326 3.31947 3.52598 3.7479 3.96483 4.15881 4.32156 
4.45346 4.55909 4.64383 2.96371 2.75721 2.53528 2.31836 2.12437 1.96162 
1.82972 1.72409 1.63936 3.2355 3.31775 3.38947 3.45194 3.50646 3.55417 
3.59609 3.6331 3.66592 3.04769 2.96544 2.89372 2.83124 2.77673 2.72902 
2.6871 2.65009 2.61727 4.71239 4.71239 4.71239 4.71239 4.71239 4.71239 
4.71239 4.71239 4.71239 4.60879 4.49914 4.3857 4.27128 4.15881 4.05096 
3.94976 3.85646 3.77161 4.81599 4.92564 5.03907 5.1535 5.26596 5.37381 
5.47502 5.56831 5.65317 4.60879 4.49914 4.3857 4.27128 4.15881 4.05096 
3.94976 3.85646 3.77161 4.81599 4.92564 5.03907 5.1535 5.26596 5.37381 
5.47502 5.56831 5.65317 1.5708 1.5708 1.5708 1.5708 1.5708 1.5708 
1.5708 1.5708 1.5708 1.6744 1.78405 1.89748 2.01191 2.12437 2.23222 
2.33343 2.42672 2.51157 1.4672 1.35755 1.24411 1.12969 1.01722 0.909371 
0.808166 0.714871 0.63002 1.6744 1.78405 1.89748 2.01191 2.12437 2.23222 
2.33343 2.42672 2.51157 1.4672 1.35755 1.24411 1.12969 1.01722 0.909371 
0.808166 0.714871 0.63002 3.60077 3.49669 3.38395 3.26458 3.14159 3.01861 
2.89924 2.78649 2.68241 5.82401 5.92808 6.04083 6.1602 6.28319 0.122983 
0.242354 0.355101 0.459179 6.05603 5.78856 5.97021 5.51259 5.60297 5.78856 
5.26596 5.26596 5.26596 5.26596 5.06749 5.0121 4.91556 4.71239 4.15881 
4.91556 4.83537 4.71239 4.50922 4.15881 3.63622 4.80045 4.71239 4.58941 
4.41268 4.15881 3.82181 3.45456 4.71239 4.62433 4.50922 4.35729 4.15881 
3.91219 3.63622 3.36875 6.01742 5.94343 5.82633 5.88092 5.76745 5.62798 
5.8278 5.71897 5.58911 5.43724 5.78235 5.67854 5.55757 5.41926 5.26596 
5.74316 5.64441 5.5315 5.40467 5.26596 5.11955 5.70914 5.61528 5.50962 
5.3926 5.26596 5.13292 4.99789 5.67937 5.59016 5.49102 5.38246 5.26596 
5.14407 5.02016 4.89798 5.56831 5.47502 5.47502 5.37381 5.37381 5.37381 
5.26596 5.26596 5.26596 5.26596 5.1535 5.1535 5.1535 5.1535 5.1535 
5.03907 5.03907 5.03907 5.03907 5.03907 5.03907 4.92564 4.92564 4.92564 
4.92564 4.92564 4.92564 4.92564 4.81599 4.81599 4.81599 4.81599 4.81599 
4.81599 4.81599 4.81599 4.60879 4.60879 4.49914 4.60879 4.49914 4.3857 
4.60879 4.49914 4.3857 4.27128 4.60879 4.49914 4.3857 4.27128 4.15881 
4.60879 4.49914 4.3857 4.27128 4.15881 4.05096 4.60879 4.49914 4.3857 
4.27128 4.15881 4.05096 3.94976 4.60879 4.49914 4.3857 4.27128 4.15881 
4.05096 3.94976 3.85646 4.5268 4.40462 4.42689 4.28071 4.29185 4.30523 
4.15881 4.15881 4.15881 4.15881 4.04232 4.03217 4.02011 4.00552 3.98753 
3.93376 3.91515 3.89328 3.86721 3.83566 3.7968 3.83461 3.8095 3.78037 
3.74624 3.70581 3.65733 3.59845 3.7454 3.71564 3.68161 3.64243 3.59698 
3.54386 3.48135 3.40735 3.56428 3.45246 3.52338 3.33203 3.40312 3.47739 
3.20576 3.27463 3.34802 3.42551 3.07742 3.14159 3.21128 3.28647 3.36688 
2.95116 3.00855 3.0719 3.14159 3.21784 3.3006 2.83072 2.88006 2.93517 
2.99672 3.06535 3.14159 3.22575 2.7189 2.7598 2.8058 2.85768 2.9163 
2.98259 3.05743 3.14159 3.56428 3.52338 3.45246 3.47739 3.40312 3.33203 
3.42551 3.34802 3.27463 3.20576 3.36688 3.28647 3.21128 3.14159 3.07742 
3.3006 3.21784 3.14159 3.0719 3.00855 2.95116 3.22575 3.14159 3.06535 
2.99672 2.93517 2.88006 2.83072 3.14159 3.05743 2.98259 2.9163 2.85768 
2.8058 2.7598 2.7189 4.5268 4.42689 4.40462 4.30523 4.29185 4.28071 
4.15881 4.15881 4.15881 4.15881 3.98753 4.00552 4.02011 4.03217 4.04232 
3.7968 3.83566 3.86721 3.89328 3.91515 3.93376 3.59845 3.65733 3.70581 
3.74624 3.78037 3.8095 3.83461 3.40735 3.48135 3.54386 3.59698 3.64243 
3.68161 3.71564 3.7454 4.71239 4.80045 4.62433 4.91556 4.71239 4.50922 
5.06749 4.83537 4.58941 4.35729 5.26596 5.0121 4.71239 4.41268 4.15881 
5.51259 5.26596 4.91556 4.50922 4.15881 3.91219 5.78856 5.60297 5.26596 
4.71239 4.15881 3.82181 3.63622 6.05603 5.97021 5.78856 5.26596 4.15881 
3.63622 3.45456 3.36875 0.227158 0.494626 0.312971 0.770593 0.680215 0.494626 
1.01722 1.01722 1.01722 1.01722 1.2157 1.27109 1.36763 1.5708 2.12437 
1.36763 1.44781 1.5708 1.77397 2.12437 2.64697 1.48273 1.5708 1.69378 
1.8705 2.12437 2.46138 2.82862 1.5708 1.65886 1.77397 1.9259 2.12437 
2.371 2.64697 2.91443 1.75639 1.87857 1.8563 2.00248 1.99133 1.97796 
2.12437 2.12437 2.12437 2.12437 2.24087 2.25101 2.26308 2.27767 2.29565 
2.34943 2.36803 2.38991 2.41597 2.44752 2.48639 2.44857 2.47368 2.50281 
2.53694 2.57738 2.62586 2.68474 2.53778 2.56754 2.60157 2.64076 2.68621 
2.73933 2.80184 2.87583 1.6744 1.6744 1.78405 1.6744 1.78405 1.89748 
1.6744 1.78405 1.89748 2.01191 1.6744 1.78405 1.89748 2.01191 2.12437 
1.6744 1.78405 1.89748 2.01191 2.12437 2.23222 1.6744 1.78405 1.89748 
2.01191 2.12437 2.23222 2.33343 1.6744 1.78405 1.89748 2.01191 2.12437 
2.23222 2.33343 2.42672 1.4672 1.35755 1.4672 1.24411 1.35755 1.4672 
1.12969 1.24411 1.35755 1.4672 1.01722 1.12969 1.24411 1.35755 1.4672 
0.909371 1.01722 1.12969 1.24411 1.35755 1.4672 0.808166 0.909371 1.01722 
1.12969 1.24411 1.35755 1.4672 0.714871 0.808166 0.909371 1.01722 1.12969 
1.24411 1.35755 1.4672 0.603812 0.57405 0.693022 0.540021 0.667908 0.792164 
0.500837 0.638778 0.773562 0.900726 0.455383 0.604649 0.751687 0.890581 1.01722 
0.402264 0.564217 0.725619 0.878514 1.01722 1.13912 0.339753 0.515737 0.694072 
0.863926 1.01722 1.15026 1.26302 0.265762 0.456853 0.655207 0.845941 1.01722 
1.16363 1.28529 1.38521 0.227158 0.312971 0.494626 0.494626 0.680215 0.770593 
1.01722 1.01722 1.01722 1.01722 2.12437 1.5708 1.36763 1.27109 1.2157 
2.64697 2.12437 1.77397 1.5708 1.44781 1.36763 2.82862 2.46138 2.12437 
1.8705 1.69378 1.5708 1.48273 2.91443 2.64697 2.371 2.12437 1.9259 
1.77397 1.65886 1.5708 1.75639 1.8563 1.87857 1.97796 1.99133 2.00248 
2.12437 2.12437 2.12437 2.12437 2.29565 2.27767 2.26308 2.25101 2.24087 
2.48639 2.44752 2.41597 2.38991 2.36803 2.34943 2.68474 2.62586 2.57738 
2.53694 2.50281 2.47368 2.44857 2.87583 2.80184 2.73933 2.68621 2.64076 
2.60157 2.56754 2.53778 5.86049 5.90139 5.97231 5.94739 6.02165 6.09275 
5.99927 6.07676 6.15015 6.21902 6.0579 6.13831 6.2135 0 0.0641696 
6.12418 6.20694 6.28319 0.069689 0.13304 0.190437 6.19903 0 0.0762451 
0.144876 0.206423 0.261531 0.310872 0 0.0841597 0.159004 0.225289 0.283913 
0.335793 0.381792 0.422692 5.86049 5.97231 5.90139 6.09275 6.02165 5.94739 
6.21902 6.15015 6.07676 5.99927 0.0641696 0 6.2135 6.13831 6.0579 
0.190437 0.13304 0.069689 6.28319 6.20694 6.12418 0.310872 0.261531 0.206423 
0.144876 0.0762451 6.28319 6.19903 0.422692 0.381792 0.335793 0.283913 0.225289 
0.159004 0.0841597 0 5.67937 5.70914 5.59016 5.74316 5.61528 5.49102 
5.78235 5.64441 5.50962 5.38246 5.8278 5.67854 5.5315 5.3926 5.26596 
5.88092 5.71897 5.55757 5.40467 5.26596 5.14407 5.94343 5.76745 5.58911 
5.41926 5.26596 5.13292 5.02016 6.01742 5.82633 5.62798 5.43724 5.26596 
5.11955 4.99789 4.89798 1.38521 1.28529 1.26302 1.16363 1.15026 1.13912 
1.01722 1.01722 1.01722 1.01722 0.845941 0.863926 0.878514 0.890581 0.900726 
0.655207 0.694072 0.725619 0.751687 0.773562 0.792164 0.456853 0.515737 0.564217 
0.604649 0.638778 0.667908 0.693022 0.265762 0.339753 0.402264 0.455383 0.500837 
0.540021 0.57405 0.603812 
