# vtk DataFile Version 4.0
vtk output
ASCII
DATASET POLYDATA
POINTS 1002 float
-121.279 -100.2 70.8863 -116.918 -92.135 71.915 -116.005 -103.523 71.1214 
-110.186 -96.8336 72.6768 -117.971 -96.2909 66.8279 -113.14 -99.4525 66.7054 
-118.194 -97.395 76.5913 -115.078 -99.8484 77.1431 -110.768 -91.1391 69.5 
-120.574 -105.858 67.4815 -112.035 -91.809 75.6829 -120.562 -105.746 74.1097 
-121.13 -99.359 71.0096 -120.865 -98.6311 71.1716 -120.398 -97.8595 71.3709 
-120.095 -96.6728 71.5536 -120.106 -95.3378 71.6375 -119.658 -94.641 71.6218 
-118.444 -94.4441 71.592 -117.386 -93.9206 71.6297 -117.023 -92.984 71.755 
-121.293 -99.9377 70.3203 -121.28 -99.6348 69.9472 -121.114 -99.2969 69.5895 
-120.916 -98.8226 68.9037 -120.8 -98.2108 68.0808 -120.396 -97.7577 67.6745 
-119.551 -97.5599 67.6374 -118.773 -97.2799 67.4961 -118.33 -96.775 67.1491 
-121.2 -99.9153 71.6149 -121.005 -99.6925 72.2143 -120.565 -99.5033 72.6451 
-120.211 -99.1845 73.3178 -120.139 -98.7454 74.2323 -119.782 -98.4621 74.7866 
-119.041 -98.3245 75.0178 -118.572 -98.0662 75.4563 -118.434 -97.6976 76.0852 
-121.532 -100.977 70.4183 -122.039 -101.731 70.1317 -122.611 -102.3 69.9912 
-122.924 -102.858 69.5862 -123.127 -103.637 68.7737 -123.343 -104.48 68.031 
-123.078 -105.148 67.6708 -122.207 -105.605 67.5398 -121.274 -105.838 67.4907 
-121.432 -100.877 71.2292 -121.576 -101.555 71.4955 -121.5 -102.283 71.6094 
-121.309 -103.056 71.8279 -121.401 -103.777 72.3926 -121.659 -104.424 73.029 
-121.589 -104.963 73.3894 -121.212 -105.339 73.5852 -120.856 -105.59 73.83 
-117.025 -92.2472 71.1938 -117.16 -92.5076 70.5361 -117.327 -92.9317 70.1188 
-117.479 -93.4668 69.7418 -117.627 -94.0261 69.1642 -117.83 -94.4905 68.484 
-118.026 -94.8045 67.8468 -118.093 -95.1406 67.3167 -118.045 -95.6644 66.9812 
-116.922 -92.5632 72.4182 -116.98 -93.039 72.8243 -117.162 -93.4577 73.328 
-117.553 -93.7808 74.0708 -118.022 -94.0979 74.8496 -118.241 -94.5835 75.4302 
-118.198 -95.2901 75.8449 -118.151 -96.0643 76.1575 -118.174 -96.7716 76.3851 
-116.708 -91.5717 71.6064 -116.164 -91.1978 71.2129 -115.418 -90.8627 70.7855 
-114.754 -90.4836 70.3584 -114.113 -90.1808 70.0154 -113.278 -90.0067 69.7612 
-112.337 -90.0171 69.4462 -111.552 -90.2944 69.1749 -111.055 -90.7177 69.2146 
-116.611 -91.7733 72.3795 -116.007 -91.5982 72.6728 -115.301 -91.4704 72.8881 
-114.789 -91.1884 73.372 -114.502 -90.7807 74.1494 -114.15 -90.553 74.8161 
-113.528 -90.6499 75.1744 -112.82 -90.9269 75.3666 -112.308 -91.3076 75.5297 
-115.418 -103.012 71.3675 -114.795 -102.448 71.5842 -114.249 -101.754 71.7219 
-113.69 -100.898 71.8493 -112.938 -100.19 72.0841 -112.114 -99.715 72.4079 
-111.51 -98.9976 72.6249 -111.107 -98.0022 72.6407 -110.682 -97.2321 72.6097 
-115.811 -103.278 70.5602 -115.451 -103.123 70.055 -114.99 -102.926 69.6898 
-114.648 -102.48 69.3141 -114.44 -101.954 68.7323 -114.168 -101.497 68.0797 
-113.84 -100.888 67.6298 -113.601 -100.196 67.3624 -113.404 -99.7359 67.0741 
-115.789 -103.489 71.797 -115.671 -103.262 72.3922 -115.704 -102.804 72.9341 
-115.617 -102.453 73.5829 -115.345 -102.244 74.3658 -115.189 -101.808 75.0948 
-115.201 -101.177 75.6497 -115.191 -100.639 76.1252 -115.129 -100.223 76.6327 
-116.365 -103.909 70.5629 -116.524 -104.456 70.1324 -116.703 -105.027 69.861 
-117.249 -105.429 69.5475 -118.016 -105.684 69.1348 -118.622 -105.872 68.7935 
-119.102 -105.96 68.4996 -119.605 -105.984 68.1278 -120.103 -105.976 67.7462 
-116.433 -103.949 71.3296 -116.869 -104.347 71.5628 -117.305 -104.878 71.8626 
-117.791 -105.523 72.2729 -118.311 -105.959 72.6626 -118.791 -106.149 72.9498 
-119.303 -106.305 73.3026 -119.858 -106.347 73.7077 -120.289 -106.136 73.9676 
-110.089 -97.0551 72.2153 -110.118 -97.3144 71.7201 -110.382 -97.5839 71.0752 
-110.711 -97.9185 70.3153 -111.039 -98.2724 69.61 -111.501 -98.5116 68.9302 
-111.917 -98.7678 68.1545 -112.164 -99.1468 67.4343 -112.534 -99.4194 66.9649 
-110.586 -96.8712 73.0999 -111.02 -97.015 73.5393 -111.532 -97.2474 73.9663 
-112.021 -97.5638 74.4453 -112.47 -97.9721 74.9742 -113.125 -98.3751 75.3646 
-113.913 -98.7045 75.6445 -114.457 -99.0609 76.0842 -114.759 -99.4811 76.673 
-109.613 -96.6504 72.4729 -109.088 -96.2777 72.1699 -108.762 -95.5571 71.7669 
-108.682 -94.6688 71.3668 -108.735 -93.7681 70.9636 -108.835 -92.7821 70.4977 
-109.082 -91.9352 70.146 -109.583 -91.5065 69.9957 -110.215 -91.3218 69.8219 
-109.901 -96.5144 73.1303 -109.581 -96.0286 73.6793 -109.444 -95.3439 74.1101 
-109.72 -94.6912 74.2636 -110.257 -94.205 74.2044 -110.768 -93.7399 74.1988 
-111.235 -93.2187 74.4771 -111.616 -92.6978 74.9615 -111.831 -92.211 75.4011 
-117.583 -96.4834 66.6646 -117.019 -96.7368 66.5368 -116.402 -96.9278 66.3043 
-115.818 -97.0372 66.0494 -115.136 -97.2666 66.007 -114.343 -97.7314 66.0364 
-113.74 -98.2926 65.9526 -113.472 -98.7977 65.9993 -113.332 -99.1883 66.3155 
-117.48 -95.5922 66.7145 -116.695 -95.0071 66.7516 -115.779 -94.4685 66.9804 
-114.997 -94.1538 67.5397 -114.279 -94.1123 68.3485 -113.458 -93.7434 68.9332 
-112.648 -92.7731 69.0936 -111.958 -91.8102 69.1214 -111.338 -91.3093 69.2558 
-118.183 -97.2065 66.8824 -118.488 -98.1512 66.8924 -118.912 -99.0074 66.8109 
-119.409 -99.9334 66.7003 -119.893 -101.193 66.6937 -120.3 -102.544 66.8228 
-120.593 -103.627 66.9772 -120.726 -104.533 67.0919 -120.695 -105.325 67.2327 
-112.464 -99.0171 66.5274 -111.92 -98.1181 66.6064 -111.565 -97.0473 66.9563 
-111.462 -96.2212 67.4797 -111.515 -95.4926 68.1279 -111.437 -94.6443 68.8358 
-111.259 -93.7077 69.4347 -111.123 -92.6874 69.7279 -110.942 -91.7603 69.6768 
-114.036 -99.5991 66.7773 -114.786 -100.1 66.7468 -115.23 -101.085 66.5161 
-115.805 -102.002 66.4627 -116.748 -102.641 66.763 -117.633 -103.469 66.9341 
-118.378 -104.423 66.8613 -119.201 -105.094 66.9484 -119.976 -105.52 67.2327 
-117.93 -97.6255 76.9896 -117.634 -97.8839 77.4314 -117.418 -98.1363 77.9615 
-117.234 -98.4096 78.556 -116.895 -98.7734 78.901 -116.412 -99.1702 78.7138 
-115.973 -99.4715 78.2668 -115.63 -99.6612 77.9191 -115.327 -99.7831 77.5957 
-117.698 -96.7777 76.7901 -117.199 -96.0297 77.002 -116.967 -95.1665 77.3495 
-116.57 -94.5017 77.5393 -115.709 -94.0403 77.3345 -114.924 -93.3951 77.0114 
-114.276 -92.6305 76.755 -113.376 -92.1081 76.4681 -112.498 -91.8744 76.1139 
-118.357 -98.1839 76.5191 -118.492 -99.0572 76.3956 -118.877 -99.9024 76.3522 
-119.459 -100.721 76.357 -119.902 -101.689 76.1546 -120.243 -102.778 75.8025 
-120.56 -103.76 75.5393 -120.679 -104.537 75.2158 -120.631 -105.162 74.6754 
-114.83 -99.2232 77.3554 -114.591 -98.457 77.3917 -114.29 -97.659 77.2632 
-113.953 -96.8571 77.0701 -113.652 -95.8845 76.7942 -113.278 -94.8098 76.4805 
-112.757 -93.8985 76.3341 -112.293 -93.1392 76.2908 -112.066 -92.4286 76.0817 
-115.573 -100.353 77.1115 -116.206 -100.864 76.9931 -116.78 -101.474 76.8651 
-117.209 -102.172 76.6197 -117.646 -102.97 76.2358 -118.182 -103.916 75.9067 
-118.812 -104.769 75.6295 -119.522 -105.261 75.2311 -120.161 -105.509 74.6912 
-110.498 -90.841 69.7242 -110.56 -90.5805 70.2777 -110.859 -90.3528 71.032 
-111.092 -90.2718 71.7301 -111.161 -90.3955 72.3312 -111.303 -90.6795 72.9729 
-111.62 -90.9926 73.6605 -111.884 -91.2422 74.3474 -111.965 -91.4924 75.0445 
-120.781 -106.232 67.832 -120.888 -106.59 68.2777 -121.006 -107.133 68.7929 
-121.267 -107.777 69.4093 -121.399 -108.111 70.4028 -121.103 -108.077 71.7344 
-120.708 -107.809 72.7295 -120.594 -107.209 73.1546 -120.624 -106.406 73.5195 
-121.133 -99.035 70.4738 -121.054 -98.6993 70.0763 -120.747 -98.3087 70.6417 
-120.819 -98.3162 69.5594 -120.538 -97.9176 70.1236 -120.223 -97.388 70.7979 
-120.577 -97.8059 68.7776 -120.252 -97.4251 69.5123 -120.026 -96.8152 70.1932 
-120.097 -95.9727 70.958 -120.281 -97.2774 68.1525 -119.962 -96.9035 68.9279 
-119.733 -96.3497 69.6847 -119.855 -95.5218 70.3843 -120 -94.837 71.0801 
-119.631 -96.9213 67.9216 -119.534 -96.4602 68.5269 -119.357 -96.0445 69.2944 
-119.318 -95.4564 69.9699 -119.314 -94.8407 70.572 -119.013 -94.5062 71.1148 
-118.867 -96.6036 67.7305 -118.937 -96.0605 68.1583 -118.904 -95.6844 68.8072 
-118.788 -95.3094 69.51 -118.564 -94.8639 70.1247 -118.171 -94.4423 70.6222 
-117.71 -94.1395 71.092 -118.388 -96.1375 67.3628 -118.456 -95.6019 67.7235 
-118.444 -95.2243 68.2558 -118.324 -94.8712 68.9159 -118.102 -94.4585 69.603 
-117.76 -94.0068 70.1448 -117.38 -93.5693 70.5672 -117.121 -93.2222 71.0999 
-121.532 -100.787 69.9303 -121.931 -101.619 69.6563 -121.387 -100.552 69.5609 
-122.335 -102.202 69.2768 -121.619 -101.447 69.0783 -121.143 -100.169 69.0526 
-122.633 -102.701 68.5946 -121.957 -102.02 68.471 -121.368 -100.979 68.433 
-121.045 -99.4867 68.281 -122.914 -103.38 67.9044 -122.207 -102.474 67.9426 
-121.624 -101.54 67.9581 -121.219 -100.139 67.8208 -120.888 -98.7461 67.6476 
-122.893 -104.133 67.5587 -122.2 -103.083 67.6692 -121.57 -102.092 67.6887 
-121.16 -100.764 67.5003 -120.761 -99.3813 67.3798 -120.209 -98.3851 67.4686 
-122.277 -104.741 67.4408 -121.855 -103.708 67.5162 -121.291 -102.704 67.4713 
-120.885 -101.427 67.1734 -120.491 -100.019 67.0102 -119.929 -99.0169 67.2006 
-119.283 -98.2181 67.4374 -121.42 -105.136 67.3409 -121.3 -104.193 67.3159 
-120.974 -103.219 67.2217 -120.622 -102.036 66.931 -120.239 -100.616 66.7056 
-119.719 -99.4909 66.8321 -119.12 -98.6968 67.1082 -118.624 -97.8013 67.2135 
-120.07 -104.913 66.9593 -119.282 -104.368 66.7456 -120.066 -104.09 66.8016 
-118.361 -103.529 66.7252 -119.145 -103.427 66.6676 -119.819 -103.069 66.743 
-117.402 -102.6 66.5848 -118.099 -102.497 66.5649 -118.723 -102.243 66.6972 
-119.349 -101.769 66.7712 -116.391 -101.936 66.1833 -117.178 -101.703 66.1768 
-117.779 -101.363 66.4276 -118.214 -100.937 66.7171 -118.819 -100.409 66.777 
-115.54 -101.196 66.0481 -116.249 -101.096 65.8755 -117.098 -100.68 65.9939 
-117.505 -100.182 66.2386 -117.8 -99.6938 66.506 -118.381 -99.266 66.6717 
-114.915 -100.193 66.2591 -115.244 -100.237 65.9797 -116.08 -99.9221 65.9484 
-116.86 -99.3675 65.8977 -117.169 -98.8711 65.9427 -117.513 -98.4926 66.2364 
[...]
POINT_DATA 1002
FIELD FieldData 2
Theta 1 1002 float
2.58802 2.58802 0.553574 0.553574 2.12437 1.01722 2.12437 1.01722 1.5708 
1.5708 1.5708 1.5708 2.68241 2.78649 2.89924 3.01861 3.14159 3.01861 
2.89924 2.78649 2.68241 2.61035 2.61791 2.60515 2.56958 2.51327 2.44184 
2.36202 2.27983 2.1997 2.61035 2.61791 2.60515 2.56958 2.51327 2.44184 
2.36202 2.27983 2.1997 2.50947 2.41899 2.31794 2.20864 2.0944 1.97902 
1.86631 1.75944 1.66056 2.50947 2.41899 2.31794 2.20864 2.0944 1.97902 
1.86631 1.75944 1.66056 2.61035 2.61791 2.60515 2.56958 2.51327 2.44184 
2.36202 2.27983 2.1997 2.61035 2.61791 2.60515 2.56958 2.51327 2.44184 
2.36202 2.27983 2.1997 2.50947 2.41899 2.31794 2.20864 2.0944 1.97902 
1.86631 1.75944 1.66056 2.50947 2.41899 2.31794 2.20864 2.0944 1.97902 
1.86631 1.75944 1.66056 0.459179 0.355101 0.242354 0.122983 0 0.122983 
0.242354 0.355101 0.459179 0.531246 0.523681 0.536438 0.57201 0.628319 0.699757 
0.779574 0.86176 0.941896 0.531246 0.523681 0.536438 0.57201 0.628319 0.699757 
0.779574 0.86176 0.941896 0.632123 0.7226 0.823657 0.932948 1.0472 1.16257 
1.27528 1.38216 1.48103 0.632123 0.7226 0.823657 0.932948 1.0472 1.16257 
1.27528 1.38216 1.48103 0.531246 0.523681 0.536438 0.57201 0.628319 0.699757 
0.779574 0.86176 0.941896 0.531246 0.523681 0.536438 0.57201 0.628319 0.699757 
0.779574 0.86176 0.941896 0.632123 0.7226 0.823657 0.932948 1.0472 1.16257 
1.27528 1.38216 1.48103 0.632123 0.7226 0.823657 0.932948 1.0472 1.16257 
1.27528 1.38216 1.48103 2.02998 1.9259 1.81315 1.69378 1.5708 1.44781 
1.32844 1.2157 1.11162 2.0928 2.05283 2.00422 1.94767 1.88496 1.81867 
1.75177 1.68695 1.62623 2.0928 2.05283 2.00422 1.94767 1.88496 1.81867 
1.75177 1.68695 1.62623 1.0488 1.08876 1.13737 1.19392 1.25664 1.32292 
1.38982 1.45464 1.51537 1.0488 1.08876 1.13737 1.19392 1.25664 1.32292 
1.38982 1.45464 1.51537 2.02998 1.9259 1.81315 1.69378 1.5708 1.44781 
1.32844 1.2157 1.11162 2.0928 2.05283 2.00422 1.94767 1.88496 1.81867 
1.75177 1.68695 1.62623 2.0928 2.05283 2.00422 1.94767 1.88496 1.81867 
1.75177 1.68695 1.62623 1.0488 1.08876 1.13737 1.19392 1.25664 1.32292 
1.38982 1.45464 1.51537 1.0488 1.08876 1.13737 1.19392 1.25664 1.32292 
1.38982 1.45464 1.51537 1.5708 1.5708 1.5708 1.5708 1.5708 1.5708 
1.5708 1.5708 1.5708 1.5708 1.5708 1.5708 1.5708 1.5708 1.5708 
1.5708 1.5708 1.5708 2.70908 2.71362 2.81592 2.68886 2.81002 2.92597 
2.6349 2.76254 2.89233 3.01997 2.55881 2.68262 2.80854 2.92834 3.01997 
2.47007 2.58462 2.70048 2.80854 2.89233 2.92597 2.37702 2.48017 2.58462 
2.68262 2.76254 2.81002 2.81592 2.28567 2.37702 2.47007 2.55881 2.6349 
2.68886 2.71362 2.70908 2.52097 2.4195 2.51718 2.30791 2.40503 2.49426 
2.18928 2.28408 2.3734 2.45144 2.06758 2.15805 2.24572 2.32523 2.39165 
1.94707 2.03138 2.11543 2.19453 2.26401 2.32035 1.83164 1.90847 1.98711 
2.06376 2.13422 2.1949 2.24359 1.72413 1.79288 1.86489 1.93728 2.00658 
2.06938 2.12312 2.16654 1.5708 1.50988 1.63171 1.44492 1.5708 1.69667 
1.37826 1.5059 1.63569 1.76333 1.31281 1.43962 1.5708 1.70197 1.82878 
1.25155 1.37501 1.50478 1.63681 1.76659 1.89004 1.19686 1.31493 1.44074 
1.5708 1.70086 1.82666 1.94473 1.15011 1.26149 1.38136 1.50697 1.63462 
1.76024 1.88011 1.99148 1.99148 1.88011 1.94473 1.76024 1.82666 1.89004 
1.63462 1.70086 1.76659 1.82878 1.50697 1.5708 1.63681 1.70197 1.76333 
1.38136 1.44074 1.50478 1.5708 1.63569 1.69667 1.26149 1.31493 1.37501 
1.43962 1.5059 1.5708 1.63171 1.15011 1.19686 1.25155 1.31281 1.37826 
1.44492 1.50988 1.5708 2.16654 2.12312 2.24359 2.06938 2.1949 2.32035 
2.00658 2.13422 2.26401 2.39165 1.93728 2.06376 2.19453 2.32523 2.45144 
1.86489 1.98711 2.11543 2.24572 2.3734 2.49426 1.79288 1.90847 2.03138 
2.15805 2.28408 2.40503 2.51718 1.72413 1.83164 1.94707 2.06758 2.18928 
2.30791 2.4195 2.52097 1.66533 1.66946 1.76911 1.67254 1.777 1.88041 
1.67418 1.78222 1.89102 1.99634 1.67418 1.78405 1.89674 2.00785 2.11299 
1.67254 1.78222 1.89674 2.01191 2.12307 2.22608 1.66946 1.777 1.89102 
2.00785 2.12307 2.23222 2.33166 1.66533 1.76911 1.88041 1.99634 2.11299 
2.22608 2.33166 2.42672 1.47626 1.37249 1.47213 1.26118 1.36459 1.46906 
1.14526 1.25058 1.35938 1.46741 1.0286 1.13374 1.24485 1.35755 1.46741 
0.915514 1.01852 1.12969 1.24485 1.35938 1.46906 0.809937 0.909371 1.01852 
1.13374 1.25058 1.36459 1.47213 0.714871 0.809937 0.915514 1.0286 1.14526 
1.26118 1.37249 1.47626 0.975055 0.898002 1.01847 0.821245 0.946693 1.07221 
0.749941 0.877585 1.00737 1.13501 0.690152 0.816367 0.94706 1.07784 1.20431 
0.647337 0.768195 0.895868 1.02616 1.15448 1.2767 0.624416 0.736561 0.857515 
0.983547 1.11021 1.23313 1.34871 0.620619 0.722093 0.833684 0.952313 1.07402 
1.19452 1.30996 1.41746 0.855925 0.764569 0.764569 0.671524 0.661425 0.671524 
0.582786 0.556971 0.556971 0.582786 0.506696 0.458968 0.441109 0.458968 0.506696 
0.45273 0.379052 0.333054 0.333054 0.379052 0.45273 0.427969 0.331576 0.249267 
0.21325 0.249267 0.331576 0.427969 0.432512 0.325669 0.215619 0.121622 0.121622 
0.215619 0.325669 0.432512 0.432512 0.427969 0.325669 0.45273 0.331576 0.215619 
0.506696 0.379052 0.249267 0.121622 0.582786 0.458968 0.333054 0.21325 0.121622 
0.671524 0.556971 0.441109 0.333054 0.249267 0.215619 0.764569 0.661425 0.556971 
0.458968 0.379052 0.331576 0.325669 0.855925 0.764569 0.671524 0.582786 0.506696 
0.45273 0.427969 0.432512 0.975055 1.01847 0.898002 1.07221 0.946693 0.821245 
1.13501 1.00737 0.877585 0.749941 1.20431 1.07784 0.94706 0.816367 0.690152 
1.2767 1.15448 1.02616 0.895868 0.768195 0.647337 1.34871 1.23313 1.11021 
0.983547 0.857515 0.736561 0.624416 1.41746 1.30996 1.19452 1.07402 0.952313 
0.833684 0.722093 0.620619 1.15011 1.26149 1.19686 1.38136 1.31493 1.25155 
1.50697 1.44074 1.37501 1.31281 1.63462 1.5708 1.50478 1.43962 1.37826 
1.76024 1.70086 1.63681 1.5708 1.5059 1.44492 1.88011 1.82666 1.76659 
1.70197 1.63569 1.5708 1.50988 1.99148 1.94473 1.89004 1.82878 1.76333 
1.69667 1.63171 1.5708 1.15011 1.19686 1.26149 1.25155 1.31493 1.38136 
1.31281 1.37501 1.44074 1.50697 1.37826 1.43962 1.50478 1.5708 1.63462 
1.44492 1.5059 1.5708 1.63681 1.70086 1.76024 1.50988 1.5708 1.63569 
1.70197 1.76659 1.82666 1.88011 1.5708 1.63171 1.69667 1.76333 1.82878 
1.89004 1.94473 1.99148 1.72413 1.83164 1.79288 1.94707 1.90847 1.86489 
2.06758 2.03138 1.98711 1.93728 2.18928 2.15805 2.11543 2.06376 2.00658 
2.30791 2.28408 2.24572 2.19453 2.13422 2.06938 2.4195 2.40503 2.3734 
2.32523 2.26401 2.1949 2.12312 2.52097 2.51718 2.49426 2.45144 2.39165 
2.32035 2.24359 2.16654 2.70908 2.81592 2.71362 2.92597 2.81002 2.68886 
3.01997 2.89233 2.76254 2.6349 3.01997 2.92834 2.80854 2.68262 2.55881 
2.92597 2.89233 2.80854 2.70048 2.58462 2.47007 2.81592 2.81002 2.76254 
2.68262 2.58462 2.48017 2.37702 2.70908 2.71362 2.68886 2.6349 2.55881 
2.47007 2.37702 2.28567 2.16654 2.24359 2.12312 2.32035 2.1949 2.06938 
2.39165 2.26401 2.13422 2.00658 2.45144 2.32523 2.19453 2.06376 1.93728 
2.49426 2.3734 2.24572 2.11543 1.98711 1.86489 2.51718 2.40503 2.28408 
2.15805 2.03138 1.90847 1.79288 2.52097 2.4195 2.30791 2.18928 2.06758 
1.94707 1.83164 1.72413 1.66533 1.76911 1.66946 1.88041 1.777 1.67254 
1.99634 1.89102 1.78222 1.67418 2.11299 2.00785 1.89674 1.78405 1.67418 
2.22608 2.12307 2.01191 1.89674 1.78222 1.67254 2.33166 2.23222 2.12307 
2.00785 1.89102 1.777 1.66946 2.42672 2.33166 2.22608 2.11299 1.99634 
1.88041 1.76911 1.66533 1.47626 1.47213 1.37249 1.46906 1.36459 1.26118 
1.46741 1.35938 1.25058 1.14526 1.46741 1.35755 1.24485 1.13374 1.0286 
1.46906 1.35938 1.24485 1.12969 1.01852 0.915514 1.47213 1.36459 1.25058 
1.13374 1.01852 0.909371 0.809937 1.47626 1.37249 1.26118 1.14526 1.0286 
0.915514 0.809937 0.714871 1.41746 1.30996 1.34871 1.19452 1.23313 1.2767 
1.07402 1.11021 1.15448 1.20431 0.952313 0.983547 1.02616 1.07784 1.13501 
0.833684 0.857515 0.895868 0.94706 1.00737 1.07221 0.722093 0.736561 0.768195 
0.816367 0.877585 0.946693 1.01847 0.620619 0.624416 0.647337 0.690152 0.749941 
0.821245 0.898002 0.975055 0.975055 0.898002 1.01847 0.821245 0.946693 1.07221 
0.749941 0.877585 1.00737 1.13501 0.690152 0.816367 0.94706 1.07784 1.20431 
0.647337 0.768195 0.895868 1.02616 1.15448 1.2767 0.624416 0.736561 0.857515 
0.983547 1.11021 1.23313 1.34871 0.620619 0.722093 0.833684 0.952313 1.07402 
1.19452 1.30996 1.41746 
Phi 1 1002 float
6.28319 3.14159 6.28319 3.14159 4.71239 4.71239 1.5708 1.5708 3.69517 
5.72961 2.58802 0.553574 6.28319 6.28319 6.28319 6.28319 3.14159 3.14159 
3.14159 3.14159 3.14159 6.1053 5.8988 5.67687 5.45995 5.26596 5.10322 
4.97131 4.86569 4.78095 0.177881 0.384387 0.606312 0.823235 1.01722 1.17997 
1.31187 1.4175 1.50223 6.18928 6.10703 6.03531 5.97283 5.91832 5.87061 
5.82869 5.79168 5.75886 0.0939024 0.176153 0.247873 0.310351 0.364864 0.412573 
0.454497 0.491504 0.524326 3.31947 3.52598 3.7479 3.96483 4.15881 4.32156 
4.45346 4.55909 4.64383 2.96371 2.75721 2.53528 2.31836 2.12437 1.96162 
1.82972 1.72409 1.63936 3.2355 3.31775 3.38947 3.45194 3.50646 3.55417 
3.59609 3.6331 3.66592 3.04769 2.96544 2.89372 2.83124 2.77673 2.72902 
2.6871 2.65009 2.61727 6.28319 6.28319 6.28319 6.28319 3.14159 3.14159 
3.14159 3.14159 3.14159 6.1053 5.8988 5.67687 5.45995 5.26596 5.10322 
4.97131 4.86569 4.78095 0.177881 0.384387 0.606312 0.823235 1.01722 1.17997 
1.31187 1.4175 1.50223 6.18928 6.10703 6.03531 5.97283 5.91832 5.87061 
5.82869 5.79168 5.75886 0.0939024 0.176153 0.247873 0.310351 0.364864 0.412573 
0.454497 0.491504 0.524326 3.31947 3.52598 3.7479 3.96483 4.15881 4.32156 
4.45346 4.55909 4.64383 2.96371 2.75721 2.53528 2.31836 2.12437 1.96162 
1.82972 1.72409 1.63936 3.2355 3.31775 3.38947 3.45194 3.50646 3.55417 
3.59609 3.6331 3.66592 3.04769 2.96544 2.89372 2.83124 2.77673 2.72902 
2.6871 2.65009 2.61727 4.71239 4.71239 4.71239 4.71239 4.71239 4.71239 
4.71239 4.71239 4.71239 4.60879 4.49914 4.3857 4.27128 4.15881 4.05096 
3.94976 3.85646 3.77161 4.81599 4.92564 5.03907 5.1535 5.26596 5.37381 
5.47502 5.56831 5.65317 4.60879 4.49914 4.3857 4.27128 4.15881 4.05096 
3.94976 3.85646 3.77161 4.81599 4.92564 5.03907 5.1535 5.26596 5.37381 
5.47502 5.56831 5.65317 1.5708 1.5708 1.5708 1.5708 1.5708 1.5708 
1.5708 1.5708 1.5708 1.6744 1.78405 1.89748 2.01191 2.12437 2.23222 
2.33343 2.42672 2.51157 1.4672 1.35755 1.24411 1.12969 1.01722 0.909371 
0.808166 0.714871 0.63002 1.6744 1.78405 1.89748 2.01191 2.12437 2.23222 
2.33343 2.42672 2.51157 1.4672 1.35755 1.24411 1.12969 1.01722 0.909371 
0.808166 0.714871 0.63002 3.60077 3.49669 3.38395 3.26458 3.14159 3.01861 
2.89924 2.78649 2.68241 5.82401 5.92808 6.04083 6.1602 6.28319 0.122983 
0.242354 0.355101 0.459179 6.05603 5.78856 5.97021 5.51259 5.60297 5.78856 
5.26596 5.26596 5.26596 5.26596 5.06749 5.0121 4.91556 4.71239 4.15881 
4.91556 4.83537 4.71239 4.50922 4.15881 3.63622 4.80045 4.71239 4.58941 
4.41268 4.15881 3.82181 3.45456 4.71239 4.62433 4.50922 4.35729 4.15881 
3.91219 3.63622 3.36875 6.01742 5.94343 5.82633 5.88092 5.76745 5.62798 
5.8278 5.71897 5.58911 5.43724 5.78235 5.67854 5.55757 5.41926 5.26596 
5.74316 5.64441 5.5315 5.40467 5.26596 5.11955 5.70914 5.61528 5.50962 
5.3926 5.26596 5.13292 4.99789 5.67937 5.59016 5.49102 5.38246 5.26596 
5.14407 5.02016 4.89798 5.56831 5.47502 5.47502 5.37381 5.37381 5.37381 
5.26596 5.26596 5.26596 5.26596 5.1535 5.1535 5.1535 5.1535 5.1535 
5.03907 5.03907 5.03907 5.03907 5.03907 5.03907 4.92564 4.92564 4.92564 
4.92564 4.92564 4.92564 4.92564 4.81599 4.81599 4.81599 4.81599 4.81599 
4.81599 4.81599 4.81599 4.60879 4.60879 4.49914 4.60879 4.49914 4.3857 
4.60879 4.49914 4.3857 4.27128 4.60879 4.49914 4.3857 4.27128 4.15881 
4.60879 4.49914 4.3857 4.27128 4.15881 4.05096 4.60879 4.49914 4.3857 
4.27128 4.15881 4.05096 3.94976 4.60879 4.49914 4.3857 4.27128 4.15881 
4.05096 3.94976 3.85646 4.5268 4.40462 4.42689 4.28071 4.29185 4.30523 
4.15881 4.15881 4.15881 4.15881 4.04232 4.03217 4.02011 4.00552 3.98753 
3.93376 3.91515 3.89328 3.86721 3.83566 3.7968 3.83461 3.8095 3.78037 
3.74624 3.70581 3.65733 3.59845 3.7454 3.71564 3.68161 3.64243 3.59698 
3.54386 3.48135 3.40735 3.56428 3.45246 3.52338 3.33203 3.40312 3.47739 
3.20576 3.27463 3.34802 3.42551 3.07742 3.14159 3.21128 3.28647 3.36688 
2.95116 3.00855 3.0719 3.14159 3.21784 3.3006 2.83072 2.88006 2.93517 
2.99672 3.06535 3.14159 3.22575 2.7189 2.7598 2.8058 2.85768 2.9163 
2.98259 3.05743 3.14159 3.56428 3.52338 3.45246 3.47739 3.40312 3.33203 
3.42551 3.34802 3.27463 3.20576 3.36688 3.28647 3.21128 3.14159 3.07742 
3.3006 3.21784 3.14159 3.0719 3.00855 2.95116 3.22575 3.14159 3.06535 
2.99672 2.93517 2.88006 2.83072 3.14159 3.05743 2.98259 2.9163 2.85768 
2.8058 2.7598 2.7189 4.5268 4.42689 4.40462 4.30523 4.29185 4.28071 
4.15881 4.15881 4.15881 4.15881 3.98753 4.00552 4.02011 4.03217 4.04232 
3.7968 3.83566 3.86721 3.89328 3.91515 3.93376 3.59845 3.65733 3.70581 
3.74624 3.78037 3.8095 3.83461 3.40735 3.48135 3.54386 3.59698 3.64243 
3.68161 3.71564 3.7454 4.71239 4.80045 4.62433 4.91556 4.71239 4.50922 
5.06749 4.83537 4.58941 4.35729 5.26596 5.0121 4.71239 4.41268 4.15881 
5.51259 5.26596 4.91556 4.50922 4.15881 3.91219 5.78856 5.60297 5.26596 
4.71239 4.15881 3.82181 3.63622 6.05603 5.97021 5.78856 5.26596 4.15881 
3.63622 3.45456 3.36875 0.227158 0.494626 0.312971 0.770593 0.680215 0.494626 
1.01722 1.01722 1.01722 1.01722 1.2157 1.27109 1.36763 1.5708 2.12437 
1.36763 1.44781 1.5708 1.77397 2.12437 2.64697 1.48273 1.5708 1.69378 
1.8705 2.12437 2.46138 2.82862 1.5708 1.65886 1.77397 1.9259 2.12437 
2.371 2.64697 2.91443 1.75639 1.87857 1.8563 2.00248 1.99133 1.97796 
2.12437 2.12437 2.12437 2.12437 2.24087 2.25101 2.26308 2.27767 2.29565 
2.34943 2.36803 2.38991 2.41597 2.44752 2.48639 2.44857 2.47368 2.50281 
2.53694 2.57738 2.62586 2.68474 2.53778 2.56754 2.60157 2.64076 2.68621 
2.73933 2.80184 2.87583 1.6744 1.6744 1.78405 1.6744 1.78405 1.89748 
1.6744 1.78405 1.89748 2.01191 1.6744 1.78405 1.89748 2.01191 2.12437 
1.6744 1.78405 1.89748 2.01191 2.12437 2.23222 1.6744 1.78405 1.89748 
2.01191 2.12437 2.23222 2.33343 1.6744 1.78405 1.89748 2.01191 2.12437 
2.23222 2.33343 2.42672 1.4672 1.35755 1.4672 1.24411 1.35755 1.4672 
1.12969 1.24411 1.35755 1.4672 1.01722 1.12969 1.24411 1.35755 1.4672 
0.909371 1.01722 1.12969 1.24411 1.35755 1.4672 0.808166 0.909371 1.01722 
1.12969 1.24411 1.35755 1.4672 0.714871 0.808166 0.909371 1.01722 1.12969 
1.24411 1.35755 1.4672 0.603812 0.57405 0.693022 0.540021 0.667908 0.792164 
0.500837 0.638778 0.773562 0.900726 0.455383 0.604649 0.751687 0.890581 1.01722 
0.402264 0.564217 0.725619 0.878514 1.01722 1.13912 0.339753 0.515737 0.694072 
0.863926 1.01722 1.15026 1.26302 0.265762 0.456853 0.655207 0.845941 1.01722 
1.16363 1.28529 1.38521 0.227158 0.312971 0.494626 0.494626 0.680215 0.770593 
1.01722 1.01722 1.01722 1.01722 2.12437 1.5708 1.36763 1.27109 1.2157 
2.64697 2.12437 1.77397 1.5708 1.44781 1.36763 2.82862 2.46138 2.12437 
1.8705 1.69378 1.5708 1.48273 2.91443 2.64697 2.371 2.12437 1.9259 
1.77397 1.65886 1.5708 1.75639 1.8563 1.87857 1.97796 1.99133 2.00248 
2.12437 2.12437 2.12437 2.12437 2.29565 2.27767 2.26308 2.25101 2.24087 
2.48639 2.44752 2.41597 2.38991 2.36803 2.34943 2.68474 2.62586 2.57738 
2.53694 2.50281 2.47368 2.44857 2.87583 2.80184 2.73933 2.68621 2.64076 
2.60157 2.56754 2.53778 5.86049 5.90139 5.97231 5.94739 6.02165 6.09275 
5.99927 6.07676 6.15015 6.21902 6.0579 6.13831 6.2135 0 0.0641696 
6.12418 6.20694 6.28319 0.069689 0.13304 0.190437 6.19903 0 0.0762451 
0.144876 0.206423 0.261531 0.310872 0 0.0841597 0.159004 0.225289 0.283913 
0.335793 0.381792 0.422692 5.86049 5.97231 5.90139 6.09275 6.02165 5.94739 
6.21902 6.15015 6.07676 5.99927 0.0641696 0 6.2135 6.13831 6.0579 
0.190437 0.13304 0.069689 6.28319 6.20694 6.12418 0.310872 0.261531 0.206423 
0.144876 0.0762451 6.28319 6.19903 0.422692 0.381792 0.335793 0.283913 0.225289 
0.159004 0.0841597 0 5.67937 5.70914 5.59016 5.74316 5.61528 5.49102 
5.78235 5.64441 5.50962 5.38246 5.8278 5.67854 5.5315 5.3926 5.26596 
5.88092 5.71897 5.55757 5.40467 5.26596 5.14407 5.94343 5.76745 5.58911 
5.41926 5.26596 5.13292 5.02016 6.01742 5.82633 5.62798 5.43724 5.26596 
5.11955 4.99789 4.89798 1.38521 1.28529 1.26302 1.16363 1.15026 1.13912 
1.01722 1.01722 1.01722 1.01722 0.845941 0.863926 0.878514 0.890581 0.900726 
0.655207 0.694072 0.725619 0.751687 0.773562 0.792164 0.456853 0.515737 0.564217 
0.604649 0.638778 0.667908 0.693022 0.265762 0.339753 0.402264 0.455383 0.500837 
0.540021 0.57405 0.603812 
