# vtk DataFile Version 4.0
vtk output
ASCII
DATASET POLYDATA
POINTS 1002 float
-108.235 -94.483 69.7681 -113.774 -101.461 70.6595 -113.876 -90.9206 69.265 
-118.519 -98.3445 70.6415 -111.492 -97.809 64.8859 -115.926 -95.689 65.4187 
-111.942 -96.8918 75.1324 -115.026 -94.7744 74.9865 -118.045 -104.697 66.9281 
-109.182 -89.8491 66.7566 -117.447 -103.651 75.1985 -109.275 -88.8537 72.2386 
-108.444 -95.3205 69.8386 -108.844 -96.0148 69.9312 -109.565 -96.5665 70.049 
-110.355 -97.1607 70.176 -110.927 -97.9448 70.2974 -111.41 -98.8686 70.4196 
-112.022 -99.6999 70.5363 -112.698 -100.323 70.6306 -113.292 -100.876 70.6774 
-108.13 -94.9355 69.4599 -108.106 -95.4222 69.0523 -108.191 -95.9506 68.4085 
-108.413 -96.4392 67.6213 -108.869 -96.7591 66.9991 -109.533 -96.9688 66.5086 
-110.176 -97.1563 65.9403 -110.674 -97.3089 65.4333 -111.088 -97.4993 65.1183 
-108.5 -94.6014 70.1753 -108.72 -94.8264 70.7931 -108.874 -95.1594 71.5323 
-109.146 -95.4457 72.1559 -109.665 -95.6195 72.657 -110.25 -95.7869 73.205 
-110.723 -95.9962 73.7666 -111.154 -96.2314 74.2465 -111.589 -96.523 74.6863 
-107.924 -93.8522 69.5236 -107.481 -93.2622 69.1815 -106.88 -92.8602 68.631 
-106.444 -92.4073 68.0267 -106.602 -91.6266 67.727 -107.189 -90.9024 67.7255 
-107.737 -90.553 67.5994 -108.189 -90.2739 67.2153 -108.672 -89.9603 66.8672 
-108.127 -93.672 69.9246 -107.857 -92.9444 70.1148 -107.571 -92.362 70.3697 
-107.547 -91.7178 70.6399 -107.771 -90.9709 70.7865 -108.071 -90.4389 70.8572 
-108.439 -90.0927 71.0847 -108.787 -89.6397 71.4924 -109.019 -89.1575 71.9073 
-113.56 -101.383 70.1888 -113.393 -101.128 69.5513 -113.247 -100.782 68.8456 
-112.986 -100.495 68.2173 -112.587 -100.173 67.5868 -112.226 -99.7177 66.9158 
-112.011 -99.2511 66.3282 -111.855 -98.8059 65.8111 -111.676 -98.3104 65.3138 
-113.7 -101.129 71.1423 -113.564 -100.838 71.6798 -113.4 -100.451 72.1679 
-113.175 -99.9646 72.623 -112.794 -99.6274 73.2039 -112.445 -99.306 73.8055 
-112.327 -98.6777 74.1932 -112.261 -97.9454 74.4853 -112.098 -97.3807 74.8352 
-114.085 -102.089 70.3762 -114.42 -102.679 70.137 -114.789 -103.128 69.8178 
-115.175 -103.676 69.237 -115.486 -104.39 68.5345 -115.785 -104.821 68.0189 
-116.338 -104.934 67.6585 -117.091 -105.092 67.2946 -117.692 -105.121 67.008 
-114.186 -101.823 70.8801 -114.611 -102.185 71.2048 -115.015 -102.614 71.7386 
-115.367 -103.078 72.3146 -115.795 -103.396 72.7723 -116.363 -103.543 73.2556 
-116.784 -103.723 73.8366 -116.933 -103.925 74.389 -117.103 -103.919 74.8513 
-114.327 -91.4746 69.4514 -114.712 -92.3038 69.651 -115.23 -93.2295 69.8065 
-116.112 -93.7666 69.9918 -117.075 -94.047 70.2302 -117.6 -94.8051 70.3898 
-117.79 -95.9679 70.449 -118.041 -96.895 70.511 -118.345 -97.5824 70.5928 
-114.134 -91.0165 68.8567 -114.395 -91.2241 68.4083 -114.517 -91.7658 67.9084 
-114.658 -92.4599 67.4149 -115.094 -92.9106 66.8778 -115.563 -93.2609 66.2995 
-115.714 -93.8318 65.922 -115.718 -94.5199 65.7893 -115.797 -95.1491 65.6589 
-114.029 -91.048 69.8493 -114.259 -91.1707 70.5533 -114.435 -91.4529 71.2316 
-114.49 -91.8811 71.8725 -114.49 -92.3782 72.5353 -114.481 -93.0078 73.0556 
-114.513 -93.6506 73.4488 -114.673 -94.066 73.9866 -114.902 -94.3566 74.5915 
-113.512 -90.4729 68.9014 -113.108 -89.935 68.5789 -112.651 -89.4084 68.1424 
-112.261 -88.875 67.5379 -111.921 -88.3157 66.9854 -111.332 -88.0892 66.7167 
-110.529 -88.4139 66.7179 -109.891 -88.9511 66.7959 -109.492 -89.4156 66.8034 
-113.408 -90.5425 69.4663 -112.91 -90.0836 69.7438 -112.387 -89.658 70.0242 
-111.856 -89.3084 70.2567 -111.529 -88.8107 70.6301 -111.386 -88.2427 71.3333 
-110.973 -87.9719 72.0663 -110.225 -88.0477 72.3907 -109.586 -88.3595 72.3443 
-118.53 -98.2565 70.0674 -118.517 -98.2178 69.4963 -118.408 -98.1009 68.9167 
-118.264 -97.7138 68.2738 -118.206 -97.0936 67.5396 -118.052 -96.5621 66.8447 
-117.561 -96.2677 66.3748 -116.898 -96.0767 66.0788 -116.342 -95.8909 65.776 
-118.431 -98.0271 71.1845 -118.218 -97.7793 71.6609 -117.908 -97.417 72.1607 
-117.603 -96.9645 72.7274 -117.172 -96.6472 73.1262 -116.56 -96.4059 73.3846 
-116.054 -96.0355 73.8175 -115.743 -95.5863 74.3449 -115.422 -95.1665 74.7271 
-118.631 -99.2219 70.2617 -118.904 -100.08 69.8526 -119.339 -100.537 69.4968 
-119.618 -100.919 69.1547 -119.624 -101.729 68.8128 -119.537 -102.518 68.5436 
-119.314 -102.949 68.237 -118.896 -103.502 67.7479 -118.447 -104.245 67.2306 
-118.523 -99.0013 71.0289 -118.488 -99.7272 71.4855 -118.494 -100.397 72.014 
-118.435 -101.095 72.5284 -118.237 -101.934 72.9379 -118.162 -102.632 73.3577 
-118.277 -103.016 73.9601 -118.219 -103.332 74.6263 -117.87 -103.612 75.0729 
-111.718 -97.7245 64.5414 -112.13 -97.5159 64.3683 -112.6 -97.1133 64.4007 
-113.024 -96.6558 64.4452 -113.559 -96.3776 64.4142 -114.274 -96.3089 64.44 
-114.957 -96.2484 64.5437 -115.449 -96.0772 64.7109 -115.748 -95.8687 65.0169 
-112.017 -98.5334 64.8812 -112.676 -99.1577 65.0045 -113.562 -99.5091 65.4327 
-114.416 -100.035 65.9159 -115.02 -101.105 66.0835 -115.645 -102.244 66.1253 
-116.419 -103.024 66.3297 -117.103 -103.645 66.5726 -117.624 -104.251 66.74 
-110.983 -97.1911 64.6029 -110.288 -96.7915 64.1674 -109.64 -96.2567 63.7974 
-109.406 -95.2299 63.9955 -109.549 -94.2236 64.8173 -109.644 -93.5898 65.7031 
-109.509 -92.7731 66.2502 -109.321 -91.6488 66.5121 -109.222 -90.6481 66.6572 
-116.301 -96.2908 65.3375 -116.686 -96.9003 65.3068 -117.09 -97.6995 65.4645 
-117.497 -98.747 65.7243 -117.874 -99.9424 65.9484 -118.175 -101.164 66.1718 
-118.281 -102.197 66.4315 -118.196 -103.002 66.6614 -118.095 -103.82 66.8147 
-115.431 -95.053 65.1492 -114.884 -94.2342 64.7682 -114.2 -93.56 64.5975 
-113.288 -93.2822 64.9356 -112.366 -93.0247 65.4673 -111.667 -92.4237 65.846 
-111.047 -91.7327 66.2391 -110.385 -91.1141 66.6163 -109.748 -90.4553 66.7464 
-112.088 -96.7593 75.5151 -112.269 -96.4443 75.7991 -112.411 -95.9653 76.0561 
-112.674 -95.4661 76.3915 -113.258 -95.1361 76.5938 -113.853 -95.093 76.3708 
-114.148 -95.1803 75.8926 -114.381 -95.1205 75.5069 -114.726 -94.9197 75.2534 
-112.236 -97.6962 75.4515 -112.566 -98.5324 75.7079 -113.329 -99.079 75.734 
-114.45 -99.446 75.5697 -115.179 -100.248 75.5819 -115.44 -101.412 75.8371 
-115.928 -102.194 75.9171 -116.654 -102.585 75.7067 -117.164 -103.068 75.4427 
-111.604 -96.0987 75.0295 -111.144 -95.2765 74.9019 -110.562 -94.5171 74.8813 
-109.974 -93.7335 74.9178 -109.557 -92.6712 74.792 -109.374 -91.5328 74.4022 
-109.359 -90.8053 73.7695 -109.381 -90.3151 73.0445 -109.338 -89.63 72.5063 
-115.327 -95.5811 75.0724 -115.733 -96.361 75.2441 -116.275 -97.0394 75.5983 
-116.776 -97.8623 75.8924 -117.083 -99.0336 75.9367 -117.32 -100.38 75.9669 
-117.601 -101.536 76.0837 -117.767 -102.338 76.0109 -117.678 -102.977 75.6503 
-114.584 -94.043 75.0593 -114.032 -93.3717 75.0332 -113.314 -92.8294 74.828 
-112.655 -92.2104 74.6193 -112.192 -91.4504 74.4729 -111.668 -90.8154 74.0608 
-110.989 -90.3252 73.3895 -110.319 -89.7748 72.8751 -109.727 -89.2178 72.5738 
-118.197 -105.382 67.2071 -118.196 -105.792 67.7589 -118.121 -105.848 68.7433 
-118.123 -105.904 70.0608 -118.118 -105.989 71.4644 -118.002 -105.785 72.7213 
-117.831 -105.42 73.668 -117.638 -105.027 74.3082 -117.491 -104.421 74.7749 
-108.841 -89.0504 66.8923 -108.578 -88.3414 67.1735 -108.457 -87.9114 67.5598 
-108.386 -87.7192 68.1102 -108.397 -87.6682 68.8891 -108.67 -87.8424 69.6447 
-108.994 -88.1073 70.2954 -109.08 -88.2375 71.0392 -109.103 -88.4081 71.7596 
-108.364 -95.8049 69.5091 -108.405 -96.3027 69.0886 -108.923 -96.4553 69.576 
-108.683 -96.7016 68.4449 -109.126 -96.8774 69.1239 -109.749 -96.9967 69.6397 
-109.217 -96.9347 67.7197 -109.634 -97.1062 68.484 -110.019 -97.3837 69.1152 
-110.501 -97.667 69.7024 -109.818 -97.1779 67.0806 -110.271 -97.3127 67.784 
-110.548 -97.6463 68.4791 -110.777 -98.1253 69.1477 -111.125 -98.5116 69.8095 
-110.328 -97.5303 66.4437 -110.645 -97.7958 67.0757 -110.974 -98.0867 67.8143 
-111.193 -98.5695 68.5561 -111.464 -99.0246 69.2571 -111.773 -99.3665 69.924 
-110.803 -97.8184 65.8882 -110.907 -98.3228 66.423 -111.133 -98.7004 67.1392 
-111.462 -99.1019 67.9425 -111.809 -99.5098 68.6563 -112.14 -99.8096 69.3158 
-112.428 -100.076 70.0028 -111.269 -98.0298 65.5531 -111.347 -98.6169 66.0177 
-111.447 -99.1025 66.6059 -111.731 -99.525 67.3514 -112.151 -99.9088 68.0763 
-112.522 -100.197 68.6975 -112.787 -100.458 69.376 -113.03 -100.71 70.0918 
-107.94 -94.244 69.1317 -107.666 -93.5586 68.6414 -108.05 -94.7228 68.5577 
-107.212 -93.0653 68.0428 -107.947 -94.0612 67.9856 -108.149 -95.3918 67.7457 
-106.929 -92.5039 67.5754 -107.696 -93.5696 67.5022 -108.15 -94.8561 67.228 
-108.324 -96.0471 66.9843 -107.193 -91.7473 67.3765 -107.632 -92.9842 67.1808 
-108.172 -94.3289 66.9379 -108.489 -95.5351 66.6419 -108.859 -96.4206 66.5105 
-107.755 -91.2254 67.2563 -107.99 -92.369 66.9847 -108.381 -93.7137 66.7285 
-108.78 -94.922 66.4091 -109.126 -95.9409 66.1323 -109.586 -96.6465 65.9899 
-108.262 -91.0044 67.0153 -108.491 -92.047 66.8358 -108.787 -93.2423 66.5698 
-109.073 -94.3204 66.1021 -109.309 -95.4137 65.5911 -109.608 -96.3364 65.313 
-110.106 -96.8543 65.3099 -108.726 -90.7991 66.7576 -108.91 -91.8679 66.6642 
-109.178 -93.0041 66.4384 -109.36 -93.8828 65.8585 -109.376 -94.813 65.0403 
-109.441 -95.9313 64.4961 -109.844 -96.6579 64.5094 -110.495 -97.0105 64.8209 
-109.811 -91.2657 66.5221 -110.473 -91.9539 66.1657 -109.909 -92.3157 66.1306 
-111.131 -92.6824 65.7278 -110.537 -92.9591 65.5781 -110.007 -93.2782 65.6 
-111.783 -93.3029 65.3901 -111.185 -93.5376 65.1938 -110.516 -93.6502 65.0003 
-109.926 -93.8181 64.865 -112.643 -93.5145 64.8686 -112.022 -93.8769 64.793 
-111.284 -94.0617 64.6083 -110.433 -94.1301 64.2971 -109.736 -94.5274 63.9804 
-113.648 -93.6273 64.3327 -113.057 -94.0217 64.192 -112.384 -94.4751 64.0724 
-111.51 -94.6993 63.8983 -110.578 -95.0005 63.6426 -109.887 -95.636 63.5137 
-114.481 -94.2369 64.3506 -113.95 -94.4813 64.0446 -113.353 -94.9006 63.8028 
-112.654 -95.2345 63.6533 -111.875 -95.5031 63.6279 -111.109 -95.9467 63.6453 
[...]
POINT_DATA 1002
FIELD FieldData 2
Theta 1 1002 float
2.58802 2.58802 0.553574 0.553574 2.12437 1.01722 2.12437 1.01722 1.5708 
1.5708 1.5708 1.5708 2.68241 2.78649 2.89924 3.01861 3.14159 3.01861 
2.89924 2.78649 2.68241 2.61035 2.61791 2.60515 2.56958 2.51327 2.44184 
2.36202 2.27983 2.1997 2.61035 2.61791 2.60515 2.56958 2.51327 2.44184 
2.36202 2.27983 2.1997 2.50947 2.41899 2.31794 2.20864 2.0944 1.97902 
1.86631 1.75944 1.66056 2.50947 2.41899 2.31794 2.20864 2.0944 1.97902 
1.86631 1.75944 1.66056 2.61035 2.61791 2.60515 2.56958 2.51327 2.44184 
2.36202 2.27983 2.1997 2.61035 2.61791 2.60515 2.56958 2.51327 2.44184 
2.36202 2.27983 2.1997 2.50947 2.41899 2.31794 2.20864 2.0944 1.97902 
1.86631 1.75944 1.66056 2.50947 2.41899 2.31794 2.20864 2.0944 1.97902 
1.86631 1.75944 1.66056 0.459179 0.355101 0.242354 0.122983 0 0.122983 
0.242354 0.355101 0.459179 0.531246 0.523681 0.536438 0.57201 0.628319 0.699757 
0.779574 0.86176 0.941896 0.531246 0.523681 0.536438 0.57201 0.628319 0.699757 
0.779574 0.86176 0.941896 0.632123 0.7226 0.823657 0.932948 1.0472 1.16257 
1.27528 1.38216 1.48103 0.632123 0.7226 0.823657 0.932948 1.0472 1.16257 
1.27528 1.38216 1.48103 0.531246 0.523681 0.536438 0.57201 0.628319 0.699757 
0.779574 0.86176 0.941896 0.531246 0.523681 0.536438 0.57201 0.628319 0.699757 
0.779574 0.86176 0.941896 0.632123 0.7226 0.823657 0.932948 1.0472 1.16257 
1.27528 1.38216 1.48103 0.632123 0.7226 0.823657 0.932948 1.0472 1.16257 
1.27528 1.38216 1.48103 2.02998 1.9259 1.81315 1.69378 1.5708 1.44781 
1.32844 1.2157 1.11162 2.0928 2.05283 2.00422 1.94767 1.88496 1.81867 
1.75177 1.68695 1.62623 2.0928 2.05283 2.00422 1.94767 1.88496 1.81867 
1.75177 1.68695 1.62623 1.0488 1.08876 1.13737 1.19392 1.25664 1.32292 
1.38982 1.45464 1.51537 1.0488 1.08876 1.13737 1.19392 1.25664 1.32292 
1.38982 1.45464 1.51537 2.02998 1.9259 1.81315 1.69378 1.5708 1.44781 
1.32844 1.2157 1.11162 2.0928 2.05283 2.00422 1.94767 1.88496 1.81867 
1.75177 1.68695 1.62623 2.0928 2.05283 2.00422 1.94767 1.88496 1.81867 
1.75177 1.68695 1.62623 1.0488 1.08876 1.13737 1.19392 1.25664 1.32292 
1.38982 1.45464 1.51537 1.0488 1.08876 1.13737 1.19392 1.25664 1.32292 
1.38982 1.45464 1.51537 1.5708 1.5708 1.5708 1.5708 1.5708 1.5708 
1.5708 1.5708 1.5708 1.5708 1.5708 1.5708 1.5708 1.5708 1.5708 
1.5708 1.5708 1.5708 2.70908 2.71362 2.81592 2.68886 2.81002 2.92597 
2.6349 2.76254 2.89233 3.01997 2.55881 2.68262 2.80854 2.92834 3.01997 
2.47007 2.58462 2.70048 2.80854 2.89233 2.92597 2.37702 2.48017 2.58462 
2.68262 2.76254 2.81002 2.81592 2.28567 2.37702 2.47007 2.55881 2.6349 
2.68886 2.71362 2.70908 2.52097 2.4195 2.51718 2.30791 2.40503 2.49426 
2.18928 2.28408 2.3734 2.45144 2.06758 2.15805 2.24572 2.32523 2.39165 
1.94707 2.03138 2.11543 2.19453 2.26401 2.32035 1.83164 1.90847 1.98711 
2.06376 2.13422 2.1949 2.24359 1.72413 1.79288 1.86489 1.93728 2.00658 
2.06938 2.12312 2.16654 1.5708 1.50988 1.63171 1.44492 1.5708 1.69667 
1.37826 1.5059 1.63569 1.76333 1.31281 1.43962 1.5708 1.70197 1.82878 
1.25155 1.37501 1.50478 1.63681 1.76659 1.89004 1.19686 1.31493 1.44074 
1.5708 1.70086 1.82666 1.94473 1.15011 1.26149 1.38136 1.50697 1.63462 
1.76024 1.88011 1.99148 1.99148 1.88011 1.94473 1.76024 1.82666 1.89004 
1.63462 1.70086 1.76659 1.82878 1.50697 1.5708 1.63681 1.70197 1.76333 
1.38136 1.44074 1.50478 1.5708 1.63569 1.69667 1.26149 1.31493 1.37501 
1.43962 1.5059 1.5708 1.63171 1.15011 1.19686 1.25155 1.31281 1.37826 
1.44492 1.50988 1.5708 2.16654 2.12312 2.24359 2.06938 2.1949 2.32035 
2.00658 2.13422 2.26401 2.39165 1.93728 2.06376 2.19453 2.32523 2.45144 
1.86489 1.98711 2.11543 2.24572 2.3734 2.49426 1.79288 1.90847 2.03138 
2.15805 2.28408 2.40503 2.51718 1.72413 1.83164 1.94707 2.06758 2.18928 
2.30791 2.4195 2.52097 1.66533 1.66946 1.76911 1.67254 1.777 1.88041 
1.67418 1.78222 1.89102 1.99634 1.67418 1.78405 1.89674 2.00785 2.11299 
1.67254 1.78222 1.89674 2.01191 2.12307 2.22608 1.66946 1.777 1.89102 
2.00785 2.12307 2.23222 2.33166 1.66533 1.76911 1.88041 1.99634 2.11299 
2.22608 2.33166 2.42672 1.47626 1.37249 1.47213 1.26118 1.36459 1.46906 
1.14526 1.25058 1.35938 1.46741 1.0286 1.13374 1.24485 1.35755 1.46741 
0.915514 1.01852 1.12969 1.24485 1.35938 1.46906 0.809937 0.909371 1.01852 
1.13374 1.25058 1.36459 1.47213 0.714871 0.809937 0.915514 1.0286 1.14526 
1.26118 1.37249 1.47626 0.975055 0.898002 1.01847 0.821245 0.946693 1.07221 
0.749941 0.877585 1.00737 1.13501 0.690152 0.816367 0.94706 1.07784 1.20431 
0.647337 0.768195 0.895868 1.02616 1.15448 1.2767 0.624416 0.736561 0.857515 
0.983547 1.11021 1.23313 1.34871 0.620619 0.722093 0.833684 0.952313 1.07402 
1.19452 1.30996 1.41746 0.855925 0.764569 0.764569 0.671524 0.661425 0.671524 
0.582786 0.556971 0.556971 0.582786 0.506696 0.458968 0.441109 0.458968 0.506696 
0.45273 0.379052 0.333054 0.333054 0.379052 0.45273 0.427969 0.331576 0.249267 
0.21325 0.249267 0.331576 0.427969 0.432512 0.325669 0.215619 0.121622 0.121622 
0.215619 0.325669 0.432512 0.432512 0.427969 0.325669 0.45273 0.331576 0.215619 
0.506696 0.379052 0.249267 0.121622 0.582786 0.458968 0.333054 0.21325 0.121622 
0.671524 0.556971 0.441109 0.333054 0.249267 0.215619 0.764569 0.661425 0.556971 
0.458968 0.379052 0.331576 0.325669 0.855925 0.764569 0.671524 0.582786 0.506696 
0.45273 0.427969 0.432512 0.975055 1.01847 0.898002 1.07221 0.946693 0.821245 
1.13501 1.00737 0.877585 0.749941 1.20431 1.07784 0.94706 0.816367 0.690152 
1.2767 1.15448 1.02616 0.895868 0.768195 0.647337 1.34871 1.23313 1.11021 
0.983547 0.857515 0.736561 0.624416 1.41746 1.30996 1.19452 1.07402 0.952313 
0.833684 0.722093 0.620619 1.15011 1.26149 1.19686 1.38136 1.31493 1.25155 
1.50697 1.44074 1.37501 1.31281 1.63462 1.5708 1.50478 1.43962 1.37826 
1.76024 1.70086 1.63681 1.5708 1.5059 1.44492 1.88011 1.82666 1.76659 
1.70197 1.63569 1.5708 1.50988 1.99148 1.94473 1.89004 1.82878 1.76333 
1.69667 1.63171 1.5708 1.15011 1.19686 1.26149 1.25155 1.31493 1.38136 
1.31281 1.37501 1.44074 1.50697 1.37826 1.43962 1.50478 1.5708 1.63462 
1.44492 1.5059 1.5708 1.63681 1.70086 1.76024 1.50988 1.5708 1.63569 
1.70197 1.76659 1.82666 1.88011 1.5708 1.63171 1.69667 1.76333 1.82878 
1.89004 1.94473 1.99148 1.72413 1.83164 1.79288 1.94707 1.90847 1.86489 
2.06758 2.03138 1.98711 1.93728 2.18928 2.15805 2.11543 2.06376 2.00658 
2.30791 2.28408 2.24572 2.19453 2.13422 2.06938 2.4195 2.40503 2.3734 
2.32523 2.26401 2.1949 2.12312 2.52097 2.51718 2.49426 2.45144 2.39165 
2.32035 2.24359 2.16654 2.70908 2.81592 2.71362 2.92597 2.81002 2.68886 
3.01997 2.89233 2.76254 2.6349 3.01997 2.92834 2.80854 2.68262 2.55881 
2.92597 2.89233 2.80854 2.70048 2.58462 2.47007 2.81592 2.81002 2.76254 
2.68262 2.58462 2.48017 2.37702 2.70908 2.71362 2.68886 2.6349 2.55881 
2.47007 2.37702 2.28567 2.16654 2.24359 2.12312 2.32035 2.1949 2.06938 
2.39165 2.26401 2.13422 2.00658 2.45144 2.32523 2.19453 2.06376 1.93728 
2.49426 2.3734 2.24572 2.11543 1.98711 1.86489 2.51718 2.40503 2.28408 
2.15805 2.03138 1.90847 1.79288 2.52097 2.4195 2.30791 2.18928 2.06758 
1.94707 1.83164 1.72413 1.66533 1.76911 1.66946 1.88041 1.777 1.67254 
1.99634 1.89102 1.78222 1.67418 2.11299 2.00785 1.89674 1.78405 1.67418 
2.22608 2.12307 2.01191 1.89674 1.78222 1.67254 2.33166 2.23222 2.12307 
2.00785 1.89102 1.777 1.66946 2.42672 2.33166 2.22608 2.11299 1.99634 
1.88041 1.76911 1.66533 1.47626 1.47213 1.37249 1.46906 1.36459 1.26118 
1.46741 1.35938 1.25058 1.14526 1.46741 1.35755 1.24485 1.13374 1.0286 
1.46906 1.35938 1.24485 1.12969 1.01852 0.915514 1.47213 1.36459 1.25058 
1.13374 1.01852 0.909371 0.809937 1.47626 1.37249 1.26118 1.14526 1.0286 
0.915514 0.809937 0.714871 1.41746 1.30996 1.34871 1.19452 1.23313 1.2767 
1.07402 1.11021 1.15448 1.20431 0.952313 0.983547 1.02616 1.07784 1.13501 
0.833684 0.857515 0.895868 0.94706 1.00737 1.07221 0.722093 0.736561 0.768195 
0.816367 0.877585 0.946693 1.01847 0.620619 0.624416 0.647337 0.690152 0.749941 
0.821245 0.898002 0.975055 0.975055 0.898002 1.01847 0.821245 0.946693 1.07221 
0.749941 0.877585 1.00737 1.13501 0.690152 0.816367 0.94706 1.07784 1.20431 
0.647337 0.768195 0.895868 1.02616 1.15448 1.2767 0.624416 0.736561 0.857515 
0.983547 1.11021 1.23313 1.34871 0.620619 0.722093 0.833684 0.952313 1.07402 
1.19452 1.30996 1.41746 
Phi 1 1002 float
6.28319 3.14159 6.28319 3.14159 4.71239 4.71239 1.5708 1.5708 3.69517 
5.72961 2.58802 0.553574 6.28319 6.28319 6.28319 6.28319 3.14159 3.14159 
3.14159 3.14159 3.14159 6.1053 5.8988 5.67687 5.45995 5.26596 5.10322 
4.97131 4.86569 4.78095 0.177881 0.384387 0.606312 0.823235 1.01722 1.17997 
1.31187 1.4175 1.50223 6.18928 6.10703 6.03531 5.97283 5.91832 5.87061 
5.82869 5.79168 5.75886 0.0939024 0.176153 0.247873 0.310351 0.364864 0.412573 
0.454497 0.491504 0.524326 3.31947 3.52598 3.7479 3.96483 4.15881 4.32156 
4.45346 4.55909 4.64383 2.96371 2.75721 2.53528 2.31836 2.12437 1.96162 
1.82972 1.72409 1.63936 3.2355 3.31775 3.38947 3.45194 3.50646 3.55417 
3.59609 3.6331 3.66592 3.04769 2.96544 2.89372 2.83124 2.77673 2.72902 
2.6871 2.65009 2.61727 6.28319 6.28319 6.28319 6.28319 3.14159 3.14159 
3.14159 3.14159 3.14159 6.1053 5.8988 5.67687 5.45995 5.26596 5.10322 
4.97131 4.86569 4.78095 0.177881 0.384387 0.606312 0.823235 1.01722 1.17997 
1.31187 1.4175 1.50223 6.18928 6.10703 6.03531 5.97283 5.91832 5.87061 
5.82869 5.79168 5.75886 0.0939024 0.176153 0.247873 0.310351 0.364864 0.412573 
0.454497 0.491504 0.524326 3.31947 3.52598 3.7479 3.96483 4.15881 4.32156 
4.45346 4.55909 4.64383 2.96371 2.75721 2.53528 2.31836 2.12437 1.96162 
1.82972 1.72409 1.63936 3.2355 3.31775 3.38947 3.45194 3.50646 3.55417 
3.59609 3.6331 3.66592 3.04769 2.96544 2.89372 2.83124 2.77673 2.72902 
2.6871 2.65009 2.61727 4.71239 4.71239 4.71239 4.71239 4.71239 4.71239 
4.71239 4.71239 4.71239 4.60879 4.49914 4.3857 4.27128 4.15881 4.05096 
3.94976 3.85646 3.77161 4.81599 4.92564 5.03907 5.1535 5.26596 5.37381 
5.47502 5.56831 5.65317 4.60879 4.49914 4.3857 4.27128 4.15881 4.05096 
3.94976 3.85646 3.77161 4.81599 4.92564 5.03907 5.1535 5.26596 5.37381 
5.47502 5.56831 5.65317 1.5708 1.5708 1.5708 1.5708 1.5708 1.5708 
1.5708 1.5708 1.5708 1.6744 1.78405 1.89748 2.01191 2.12437 2.23222 
2.33343 2.42672 2.51157 1.4672 1.35755 1.24411 1.12969 1.01722 0.909371 
0.808166 0.714871 0.63002 1.6744 1.78405 1.89748 2.01191 2.12437 2.23222 
2.33343 2.42672 2.51157 1.4672 1.35755 1.24411 1.12969 1.01722 0.909371 
0.808166 0.714871 0.63002 3.60077 3.49669 3.38395 3.26458 3.14159 3.01861 
2.89924 2.78649 2.68241 5.82401 5.92808 6.04083 6.1602 6.28319 0.122983 
0.242354 0.355101 0.459179 6.05603 5.78856 5.97021 5.51259 5.60297 5.78856 
5.26596 5.26596 5.26596 5.26596 5.06749 5.0121 4.91556 4.71239 4.15881 
4.91556 4.83537 4.71239 4.50922 4.15881 3.63622 4.80045 4.71239 4.58941 
4.41268 4.15881 3.82181 3.45456 4.71239 4.62433 4.50922 4.35729 4.15881 
3.91219 3.63622 3.36875 6.01742 5.94343 5.82633 5.88092 5.76745 5.62798 
5.8278 5.71897 5.58911 5.43724 5.78235 5.67854 5.55757 5.41926 5.26596 
5.74316 5.64441 5.5315 5.40467 5.26596 5.11955 5.70914 5.61528 5.50962 
5.3926 5.26596 5.13292 4.99789 5.67937 5.59016 5.49102 5.38246 5.26596 
5.14407 5.02016 4.89798 5.56831 5.47502 5.47502 5.37381 5.37381 5.37381 
5.26596 5.26596 5.26596 5.26596 5.1535 5.1535 5.1535 5.1535 5.1535 
5.03907 5.03907 5.03907 5.03907 5.03907 5.03907 4.92564 4.92564 4.92564 
4.92564 4.92564 4.92564 4.92564 4.81599 4.81599 4.81599 4.81599 4.81599 
4.81599 4.81599 4.81599 4.60879 4.60879 4.49914 4.60879 4.49914 4.3857 
4.60879 4.49914 4.3857 4.27128 4.60879 4.49914 4.3857 4.27128 4.15881 
4.60879 4.49914 4.3857 4.27128 4.15881 4.05096 4.60879 4.49914 4.3857 
4.27128 4.15881 4.05096 3.94976 4.60879 4.49914 4.3857 4.27128 4.15881 
4.05096 3.94976 3.85646 4.5268 4.40462 4.42689 4.28071 4.29185 4.30523 
4.15881 4.15881 4.15881 4.15881 4.04232 4.03217 4.02011 4.00552 3.98753 
3.93376 3.91515 3.89328 3.86721 3.83566 3.7968 3.83461 3.8095 3.78037 
3.74624 3.70581 3.65733 3.59845 3.7454 3.71564 3.68161 3.64243 3.59698 
3.54386 3.48135 3.40735 3.56428 3.45246 3.52338 3.33203 3.40312 3.47739 
3.20576 3.27463 3.34802 3.42551 3.07742 3.14159 3.21128 3.28647 3.36688 
2.95116 3.00855 3.0719 3.14159 3.21784 3.3006 2.83072 2.88006 2.93517 
2.99672 3.06535 3.14159 3.22575 2.7189 2.7598 2.8058 2.85768 2.9163 
2.98259 3.05743 3.14159 3.56428 3.52338 3.45246 3.47739 3.40312 3.33203 
3.42551 3.34802 3.27463 3.20576 3.36688 3.28647 3.21128 3.14159 3.07742 
3.3006 3.21784 3.14159 3.0719 3.00855 2.95116 3.22575 3.14159 3.06535 
2.99672 2.93517 2.88006 2.83072 3.14159 3.05743 2.98259 2.9163 2.85768 
2.8058 2.7598 2.7189 4.5268 4.42689 4.40462 4.30523 4.29185 4.28071 
4.15881 4.15881 4.15881 4.15881 3.98753 4.00552 4.02011 4.03217 4.04232 
3.7968 3.83566 3.86721 3.89328 3.91515 3.93376 3.59845 3.65733 3.70581 
3.74624 3.78037 3.8095 3.83461 3.40735 3.48135 3.54386 3.59698 3.64243 
3.68161 3.71564 3.7454 4.71239 4.80045 4.62433 4.91556 4.71239 4.50922 
5.06749 4.83537 4.58941 4.35729 5.26596 5.0121 4.71239 4.41268 4.15881 
5.51259 5.26596 4.91556 4.50922 4.15881 3.91219 5.78856 5.60297 5.26596 
4.71239 4.15881 3.82181 3.63622 6.05603 5.97021 5.78856 5.26596 4.15881 
3.63622 3.45456 3.36875 0.227158 0.494626 0.312971 0.770593 0.680215 0.494626 
1.01722 1.01722 1.01722 1.01722 1.2157 1.27109 1.36763 1.5708 2.12437 
1.36763 1.44781 1.5708 1.77397 2.12437 2.64697 1.48273 1.5708 1.69378 
1.8705 2.12437 2.46138 2.82862 1.5708 1.65886 1.77397 1.9259 2.12437 
2.371 2.64697 2.91443 1.75639 1.87857 1.8563 2.00248 1.99133 1.97796 
2.12437 2.12437 2.12437 2.12437 2.24087 2.25101 2.26308 2.27767 2.29565 
2.34943 2.36803 2.38991 2.41597 2.44752 2.48639 2.44857 2.47368 2.50281 
2.53694 2.57738 2.62586 2.68474 2.53778 2.56754 2.60157 2.64076 2.68621 
2.73933 2.80184 2.87583 1.6744 1.6744 1.78405 1.6744 1.78405 1.89748 
1.6744 1.78405 1.89748 2.01191 1.6744 1.78405 1.89748 2.01191 2.12437 
1.6744 1.78405 1.89748 2.01191 2.12437 2.23222 1.6744 1.78405 1.89748 
2.01191 2.12437 2.23222 2.33343 1.6744 1.78405 1.89748 2.01191 2.12437 
2.23222 2.33343 2.42672 1.4672 1.35755 1.4672 1.24411 1.35755 1.4672 
1.12969 1.24411 1.35755 1.4672 1.01722 1.12969 1.24411 1.35755 1.4672 
0.909371 1.01722 1.12969 1.24411 1.35755 1.4672 0.808166 0.909371 1.01722 
1.12969 1.24411 1.35755 1.4672 0.714871 0.808166 0.909371 1.01722 1.12969 
1.24411 1.35755 1.4672 0.603812 0.57405 0.693022 0.540021 0.667908 0.792164 
0.500837 0.638778 0.773562 0.900726 0.455383 0.604649 0.751687 0.890581 1.01722 
0.402264 0.564217 0.725619 0.878514 1.01722 1.13912 0.339753 0.515737 0.694072 
0.863926 1.01722 1.15026 1.26302 0.265762 0.456853 0.655207 0.845941 1.01722 
1.16363 1.28529 1.38521 0.227158 0.312971 0.494626 0.494626 0.680215 0.770593 
1.01722 1.01722 1.01722 1.01722 2.12437 1.5708 1.36763 1.27109 1.2157 
2.64697 2.12437 1.77397 1.5708 1.44781 1.36763 2.82862 2.46138 2.12437 
1.8705 1.69378 1.5708 1.48273 2.91443 2.64697 2.371 2.12437 1.9259 
1.77397 1.65886 1.5708 1.75639 1.8563 1.87857 1.97796 1.99133 2.00248 
2.12437 2.12437 2.12437 2.12437 2.29565 2.27767 2.26308 2.25101 2.24087 
2.48639 2.44752 2.41597 2.38991 2.36803 2.34943 2.68474 2.62586 2.57738 
2.53694 2.50281 2.47368 2.44857 2.87583 2.80184 2.73933 2.68621 2.64076 
2.60157 2.56754 2.53778 5.86049 5.90139 5.97231 5.94739 6.02165 6.09275 
5.99927 6.07676 6.15015 6.21902 6.0579 6.13831 6.2135 0 0.0641696 
6.12418 6.20694 6.28319 0.069689 0.13304 0.190437 6.19903 0 0.0762451 
0.144876 0.206423 0.261531 0.310872 0 0.0841597 0.159004 0.225289 0.283913 
0.335793 0.381792 0.422692 5.86049 5.97231 5.90139 6.09275 6.02165 5.94739 
6.21902 6.15015 6.07676 5.99927 0.0641696 0 6.2135 6.13831 6.0579 
0.190437 0.13304 0.069689 6.28319 6.20694 6.12418 0.310872 0.261531 0.206423 
0.144876 0.0762451 6.28319 6.19903 0.422692 0.381792 0.335793 0.283913 0.225289 
0.159004 0.0841597 0 5.67937 5.70914 5.59016 5.74316 5.61528 5.49102 
5.78235 5.64441 5.50962 5.38246 5.8278 5.67854 5.5315 5.3926 5.26596 
5.88092 5.71897 5.55757 5.40467 5.26596 5.14407 5.94343 5.76745 5.58911 
5.41926 5.26596 5.13292 5.02016 6.01742 5.82633 5.62798 5.43724 5.26596 
5.11955 4.99789 4.89798 1.38521 1.28529 1.26302 1.16363 1.15026 1.13912 
1.01722 1.01722 1.01722 1.01722 0.845941 0.863926 0.878514 0.890581 0.900726 
0.655207 0.694072 0.725619 0.751687 0.773562 0.792164 0.456853 0.515737 0.564217 
0.604649 0.638778 0.667908 0.693022 0.265762 0.339753 0.402264 0.455383 0.500837 
0.540021 0.57405 0.603812 
