# vtk DataFile Version 4.0
vtk output
ASCII
DATASET POLYDATA
POINTS 1002 float
-120.038 -101.1 70.156 -115.038 -94.7644 70.5393 -114.54 -105.224 70.9892 
-109.463 -98.8063 71.2412 -115.517 -99.1013 65.8873 -112.367 -101.414 66.2756 
-116.927 -98.5112 76.3106 -113.895 -100.986 76.189 -109.415 -93.4292 68.1554 
-119.416 -107.304 66.8653 -111.13 -94.6621 73.9846 -119.62 -106.781 73.8887 
-120.004 -100.268 70.2318 -119.599 -99.7844 70.2112 -118.828 -99.5039 70.2441 
-118.04 -98.9192 70.3624 -117.567 -97.9179 70.3718 -117.265 -96.9525 70.2663 
-116.757 -96.2859 70.2667 -116.064 -95.77 70.3883 -115.469 -95.2534 70.4927 
-120.018 -100.855 69.5475 -120.009 -100.669 68.8965 -119.83 -100.6 68.316 
-119.31 -100.545 67.8637 -118.63 -100.396 67.4632 -118.085 -100.15 67.0364 
-117.6 -99.8001 66.5888 -116.958 -99.4287 66.2158 -116.203 -99.1988 66.0045 
-120.087 -100.802 70.8399 -119.818 -100.707 71.4718 -119.183 -100.825 71.8845 
-118.588 -100.875 72.2494 -118.264 -100.605 72.928 -118.008 -100.115 73.7945 
-117.733 -99.6093 74.5485 -117.519 -99.1489 75.2362 -117.288 -98.7632 75.8667 
-119.95 -101.966 69.6419 -120.148 -102.723 69.2094 -120.626 -103.19 68.9629 
-120.865 -103.715 68.6995 -120.729 -104.562 68.1933 -120.625 -105.406 67.673 
-120.558 -106.004 67.4158 -120.284 -106.511 67.2683 -119.861 -106.987 67.0575 
-119.993 -101.865 70.3807 -119.956 -102.625 70.5823 -119.95 -103.377 70.9367 
-119.961 -104.155 71.4345 -119.96 -104.817 71.8641 -119.941 -105.325 72.3159 
-119.982 -105.86 72.9516 -120.073 -106.389 73.5147 -119.994 -106.708 73.7848 
-115.128 -94.8574 69.9033 -115.303 -94.9523 69.2233 -115.502 -95.1848 68.5524 
-115.6 -95.7028 68.0265 -115.56 -96.4068 67.682 -115.563 -97.0442 67.314 
-115.698 -97.5455 66.8167 -115.761 -98.0287 66.3721 -115.644 -98.5692 66.0974 
-115.246 -94.9803 71.1288 -115.452 -95.2924 71.7248 -115.666 -95.6065 72.3962 
-115.871 -95.906 73.1013 -115.987 -96.3692 73.6453 -116.099 -96.9319 74.106 
-116.385 -97.3027 74.7716 -116.731 -97.5577 75.524 -116.91 -97.9661 76.0396 
-114.629 -94.4262 70.1438 -114.085 -94.1727 69.7514 -113.359 -93.9142 69.488 
-112.57 -93.5157 69.2459 -111.972 -92.9485 68.9344 -111.487 -92.4156 68.7694 
-110.8 -92.2325 68.7566 -110.068 -92.4692 68.6175 -109.624 -92.9289 68.3512 
-114.749 -94.413 70.9646 -114.364 -94.0892 71.4015 -113.878 -93.9022 71.7408 
-113.42 -93.7815 72.0586 -113.013 -93.5872 72.6007 -112.548 -93.4968 73.2298 
-112.053 -93.6907 73.5735 -111.641 -94.0213 73.6998 -111.342 -94.3463 73.8406 
-114.163 -104.603 71.0446 -113.8 -103.892 71.0721 -113.137 -103.324 71.1014 
-112.222 -102.915 71.1726 -111.541 -102.315 71.2159 -111.162 -101.453 71.1646 
-110.708 -100.714 71.125 -110.158 -100.156 71.1766 -109.742 -99.5183 71.2351 
-114.437 -105.039 70.4342 -114.249 -104.837 69.8994 -114.001 -104.543 69.3823 
-113.789 -104.101 68.8145 -113.507 -103.695 68.2517 -113.037 -103.451 67.7242 
-112.616 -103.128 67.1424 -112.465 -102.563 66.632 -112.45 -101.93 66.3805 
-114.34 -105.087 71.5966 -114.231 -104.87 72.2121 -114.316 -104.37 72.7284 
-114.44 -103.713 73.1707 -114.375 -103.246 73.7073 -114.179 -102.859 74.3129 
-114.034 -102.308 74.8338 -113.956 -101.773 75.3113 -113.903 -101.382 75.7943 
-114.988 -105.664 70.5775 -115.501 -106.073 70.135 -116.045 -106.384 69.6568 
-116.578 -106.767 69.1409 -116.984 -107.319 68.5616 -117.272 -107.743 67.9331 
-117.703 -107.907 67.3701 -118.374 -107.951 66.99 -119.019 -107.786 66.8399 
-115.008 -105.586 71.2684 -115.69 -105.822 71.4709 -116.363 -106.034 71.6306 
-116.93 -106.289 71.9252 -117.461 -106.61 72.354 -117.879 -106.962 72.6907 
-118.213 -107.141 72.9246 -118.657 -107.082 73.2086 -119.183 -106.95 73.5482 
-109.499 -99.0097 70.6866 -109.475 -99.3602 70.2 -109.395 -99.9281 69.8131 
-109.355 -100.618 69.2671 -109.42 -101.177 68.4186 -109.699 -101.454 67.6797 
-110.354 -101.483 67.304 -111.205 -101.392 67.0058 -111.893 -101.346 66.6259 
-109.591 -99.089 71.8273 -109.869 -99.3026 72.3829 -110.379 -99.3767 72.8098 
-110.977 -99.4497 73.2228 -111.527 -99.6511 73.749 -112.039 -99.9444 74.317 
-112.507 -100.278 74.897 -112.934 -100.6 75.4784 -113.397 -100.831 75.9215 
-109.146 -98.2885 70.9187 -108.631 -98.0217 70.6527 -108.136 -97.7912 70.3143 
-107.975 -97.0593 69.8295 -108.075 -95.9259 69.4532 -108.226 -95.0564 69.3178 
-108.482 -94.5522 69.1418 -108.846 -94.1035 68.7795 -109.167 -93.6895 68.4038 
-109.266 -98.291 71.5847 -109.025 -97.7941 71.9677 -108.804 -97.2863 72.4043 
-108.771 -96.7687 72.8384 -108.966 -96.307 73.1771 -109.332 -95.8719 73.3598 
-109.863 -95.4464 73.4135 -110.426 -95.1332 73.4803 -110.843 -94.9129 73.6784 
-115.181 -99.2791 65.5713 -115.023 -99.2291 65.0331 -114.752 -99.1617 64.5481 
-114.091 -99.4474 64.4669 -113.414 -99.9234 64.5821 -113.108 -100.266 64.6253 
-112.928 -100.599 64.8851 -112.698 -100.966 65.4458 -112.518 -101.222 65.9571 
-114.973 -98.6868 65.8907 -114.496 -98.1689 65.8504 -114.009 -97.53 65.8927 
-113.369 -96.8591 66.2262 -112.6 -96.2093 66.7487 -111.842 -95.4983 67.1329 
-111.078 -94.7358 67.3328 -110.315 -94.1003 67.5158 -109.733 -93.6865 67.7814 
-115.906 -99.6651 65.7183 -116.374 -100.262 65.5612 -116.785 -100.906 65.5554 
-117.216 -101.713 65.7605 -117.834 -102.759 65.9699 -118.493 -103.853 66.0225 
-118.933 -104.771 66.147 -119.179 -105.591 66.482 -119.344 -106.458 66.7742 
-111.916 -100.928 66.3078 -111.449 -100.477 66.2753 -111.078 -99.8412 66.3751 
-110.69 -98.842 66.6303 -110.124 -97.7654 66.7739 -109.595 -96.8291 66.914 
-109.361 -95.8276 67.2711 -109.34 -94.8168 67.6133 -109.377 -94.0463 67.8426 
-112.923 -101.835 66.0655 -113.565 -102.268 65.9556 -114.193 -102.754 65.9361 
-114.76 -103.44 65.9087 -115.402 -104.246 65.8969 -116.261 -104.99 66.059 
-117.288 -105.71 66.3572 -118.234 -106.408 66.5908 -118.919 -106.952 66.7278 
-116.642 -98.7355 76.6717 -116.448 -98.8895 77.1791 -116.375 -99.0677 77.7452 
-116.138 -99.4945 78.0392 -115.531 -100.085 78.0294 -114.886 -100.446 77.8775 
-114.586 -100.493 77.506 -114.461 -100.547 76.9764 -114.219 -100.76 76.5314 
-116.424 -98.0642 76.4335 -115.786 -97.7371 76.4185 -115.143 -97.2962 76.4168 
-114.568 -96.5981 76.4705 -114.036 -95.8661 76.4302 -113.448 -95.1957 76.2899 
-112.682 -94.5665 76.0633 -111.901 -94.2757 75.5511 -111.401 -94.4286 74.7522 
-117.17 -99.2342 76.2763 -117.413 -100.022 76.1741 -117.638 -100.891 75.9783 
-117.867 -101.907 75.7102 -118.221 -102.886 75.4744 -118.728 -103.689 75.3115 
-119.214 -104.573 75.2034 -119.525 -105.558 75.0138 -119.645 -106.317 74.542 
-113.592 -100.425 76.339 -113.18 -99.8603 76.464 -112.657 -99.3083 76.6044 
-112.217 -98.6287 76.5802 -111.974 -97.7293 76.2523 -111.708 -96.7433 75.8818 
-111.325 -95.8685 75.5936 -111.081 -95.2426 75.1571 -111.075 -94.8874 74.5559 
-114.377 -101.465 76.199 -114.888 -102.024 76.198 -115.404 -102.583 76.1323 
-115.942 -103.205 75.9191 -116.561 -104.055 75.7443 -117.158 -105.021 75.8068 
-117.672 -105.774 75.7407 -118.289 -106.225 75.2007 -119.027 -106.522 74.4662 
-109.305 -92.7876 68.7308 -109.099 -91.9058 69.2796 -108.912 -91.3298 69.6753 
-109.157 -91.7085 70.1279 -109.669 -92.5108 70.7403 -109.837 -92.8335 71.4039 
-109.904 -93.0716 72.1117 -110.346 -93.7556 72.7698 -110.872 -94.4266 73.3373 
-119.708 -107.979 67.0037 -119.989 -108.608 67.3808 -120.127 -108.937 68.1624 
-120.117 -108.888 69.2629 -120.163 -108.808 70.6952 -120.185 -108.833 72.2136 
-120.001 -108.575 73.0345 -119.816 -107.932 73.1344 -119.753 -107.261 73.3164 
-119.854 -100.072 69.5835 -119.563 -100.042 68.9784 -119.299 -99.686 69.6029 
-119.128 -100.032 68.4375 -118.846 -99.6797 69.0266 -118.467 -99.3346 69.6784 
-118.59 -99.8598 67.9056 -118.447 -99.4468 68.3938 -118.113 -99.046 69.0136 
-117.772 -98.486 69.7397 -118.033 -99.6259 67.4152 -118.1 -98.9969 67.7533 
-117.936 -98.4595 68.2645 -117.581 -97.9504 68.9907 -117.387 -97.3932 69.6889 
-117.5 -99.3846 66.9762 -117.592 -98.6909 67.285 -117.658 -97.9062 67.6675 
-117.395 -97.3897 68.3018 -117.108 -97.0002 69.0315 -116.976 -96.5868 69.6662 
-116.947 -99.0321 66.5501 -116.952 -98.4975 66.9255 -117.03 -97.727 67.3211 
-116.943 -97.0814 67.8274 -116.669 -96.7206 68.468 -116.473 -96.3667 69.1361 
-116.312 -95.9993 69.7693 -116.313 -98.7039 66.2403 -116.341 -98.2353 66.5942 
-116.3 -97.6852 67.0619 -116.243 -97.066 67.5362 -116.129 -96.5311 68.0014 
-115.963 -96.0774 68.5565 -115.802 -95.68 69.2096 -115.63 -95.4065 69.8707 
-120.143 -101.669 69.0186 -120.513 -102.333 68.5813 -120.331 -101.407 68.328 
-120.757 -102.796 68.3407 -120.567 -102.049 67.9398 -120.09 -101.29 67.7841 
-120.572 -103.442 68.065 -120.358 -102.594 67.7913 -120.013 -101.942 67.4967 
-119.379 -101.185 67.4151 -120.395 -104.348 67.5849 -120.1 -103.318 67.4647 
-119.762 -102.497 67.2591 -119.321 -101.752 67.0547 -118.718 -100.917 67.004 
-120.411 -105.112 67.1994 -120.241 -104.183 66.8948 -119.893 -103.162 66.6934 
-119.377 -102.231 66.5842 -118.819 -101.36 66.5114 -118.218 -100.523 66.534 
-120.214 -105.618 67.0502 -120.237 -104.846 66.5521 -120.068 -103.898 66.1569 
-119.464 -102.805 66.1044 -118.711 -101.819 66.1335 -118.093 -100.938 66.1203 
-117.521 -100.132 66.1526 -119.777 -106.061 66.9264 -119.752 -105.263 66.4933 
-119.648 -104.442 66.0492 -119.136 -103.396 65.9548 -118.306 -102.297 66.0072 
-117.613 -101.369 65.932 -117.128 -100.576 65.8571 -116.653 -99.8492 65.9012 
-118.77 -106.077 66.5337 -117.979 -105.467 66.3404 -118.424 -105.142 66.2595 
-117.003 -104.739 66.082 -117.562 -104.533 66.0697 -117.966 -104.258 66.0632 
-115.96 -104.058 65.6881 -116.656 -103.954 65.5767 -117.18 -103.746 65.6261 
-117.488 -103.276 65.8222 -115.031 -103.394 65.3759 -115.617 -103.438 64.9228 
-116.429 -103.366 64.7494 -116.965 -102.815 64.9337 -117.081 -102.118 65.3797 
-114.404 -102.721 65.3666 -114.733 -102.788 64.7245 -115.426 -102.875 64.3366 
-116.315 -102.484 64.226 -116.792 -101.645 64.4592 -116.75 -101.091 65.0304 
-113.889 -102.139 65.5605 -114.196 -102.02 65.0042 -114.558 -102.014 64.6404 
-115.189 -101.892 64.4771 -116.003 -101.267 64.3161 -116.391 -100.607 64.4819 
[...]
POINT_DATA 1002
FIELD FieldData 2
Theta 1 1002 float
2.58802 2.58802 0.553574 0.553574 2.12437 1.01722 2.12437 1.01722 1.5708 
1.5708 1.5708 1.5708 2.68241 2.78649 2.89924 3.01861 3.14159 3.01861 
2.89924 2.78649 2.68241 2.61035 2.61791 2.60515 2.56958 2.51327 2.44184 
2.36202 2.27983 2.1997 2.61035 2.61791 2.60515 2.56958 2.51327 2.44184 
2.36202 2.27983 2.1997 2.50947 2.41899 2.31794 2.20864 2.0944 1.97902 
1.86631 1.75944 1.66056 2.50947 2.41899 2.31794 2.20864 2.0944 1.97902 
1.86631 1.75944 1.66056 2.61035 2.61791 2.60515 2.56958 2.51327 2.44184 
2.36202 2.27983 2.1997 2.61035 2.61791 2.60515 2.56958 2.51327 2.44184 
2.36202 2.27983 2.1997 2.50947 2.41899 2.31794 2.20864 2.0944 1.97902 
1.86631 1.75944 1.66056 2.50947 2.41899 2.31794 2.20864 2.0944 1.97902 
1.86631 1.75944 1.66056 0.459179 0.355101 0.242354 0.122983 0 0.122983 
0.242354 0.355101 0.459179 0.531246 0.523681 0.536438 0.57201 0.628319 0.699757 
0.779574 0.86176 0.941896 0.531246 0.523681 0.536438 0.57201 0.628319 0.699757 
0.779574 0.86176 0.941896 0.632123 0.7226 0.823657 0.932948 1.0472 1.16257 
1.27528 1.38216 1.48103 0.632123 0.7226 0.823657 0.932948 1.0472 1.16257 
1.27528 1.38216 1.48103 0.531246 0.523681 0.536438 0.57201 0.628319 0.699757 
0.779574 0.86176 0.941896 0.531246 0.523681 0.536438 0.57201 0.628319 0.699757 
0.779574 0.86176 0.941896 0.632123 0.7226 0.823657 0.932948 1.0472 1.16257 
1.27528 1.38216 1.48103 0.632123 0.7226 0.823657 0.932948 1.0472 1.16257 
1.27528 1.38216 1.48103 2.02998 1.9259 1.81315 1.69378 1.5708 1.44781 
1.32844 1.2157 1.11162 2.0928 2.05283 2.00422 1.94767 1.88496 1.81867 
1.75177 1.68695 1.62623 2.0928 2.05283 2.00422 1.94767 1.88496 1.81867 
1.75177 1.68695 1.62623 1.0488 1.08876 1.13737 1.19392 1.25664 1.32292 
1.38982 1.45464 1.51537 1.0488 1.08876 1.13737 1.19392 1.25664 1.32292 
1.38982 1.45464 1.51537 2.02998 1.9259 1.81315 1.69378 1.5708 1.44781 
1.32844 1.2157 1.11162 2.0928 2.05283 2.00422 1.94767 1.88496 1.81867 
1.75177 1.68695 1.62623 2.0928 2.05283 2.00422 1.94767 1.88496 1.81867 
1.75177 1.68695 1.62623 1.0488 1.08876 1.13737 1.19392 1.25664 1.32292 
1.38982 1.45464 1.51537 1.0488 1.08876 1.13737 1.19392 1.25664 1.32292 
1.38982 1.45464 1.51537 1.5708 1.5708 1.5708 1.5708 1.5708 1.5708 
1.5708 1.5708 1.5708 1.5708 1.5708 1.5708 1.5708 1.5708 1.5708 
1.5708 1.5708 1.5708 2.70908 2.71362 2.81592 2.68886 2.81002 2.92597 
2.6349 2.76254 2.89233 3.01997 2.55881 2.68262 2.80854 2.92834 3.01997 
2.47007 2.58462 2.70048 2.80854 2.89233 2.92597 2.37702 2.48017 2.58462 
2.68262 2.76254 2.81002 2.81592 2.28567 2.37702 2.47007 2.55881 2.6349 
2.68886 2.71362 2.70908 2.52097 2.4195 2.51718 2.30791 2.40503 2.49426 
2.18928 2.28408 2.3734 2.45144 2.06758 2.15805 2.24572 2.32523 2.39165 
1.94707 2.03138 2.11543 2.19453 2.26401 2.32035 1.83164 1.90847 1.98711 
2.06376 2.13422 2.1949 2.24359 1.72413 1.79288 1.86489 1.93728 2.00658 
2.06938 2.12312 2.16654 1.5708 1.50988 1.63171 1.44492 1.5708 1.69667 
1.37826 1.5059 1.63569 1.76333 1.31281 1.43962 1.5708 1.70197 1.82878 
1.25155 1.37501 1.50478 1.63681 1.76659 1.89004 1.19686 1.31493 1.44074 
1.5708 1.70086 1.82666 1.94473 1.15011 1.26149 1.38136 1.50697 1.63462 
1.76024 1.88011 1.99148 1.99148 1.88011 1.94473 1.76024 1.82666 1.89004 
1.63462 1.70086 1.76659 1.82878 1.50697 1.5708 1.63681 1.70197 1.76333 
1.38136 1.44074 1.50478 1.5708 1.63569 1.69667 1.26149 1.31493 1.37501 
1.43962 1.5059 1.5708 1.63171 1.15011 1.19686 1.25155 1.31281 1.37826 
1.44492 1.50988 1.5708 2.16654 2.12312 2.24359 2.06938 2.1949 2.32035 
2.00658 2.13422 2.26401 2.39165 1.93728 2.06376 2.19453 2.32523 2.45144 
1.86489 1.98711 2.11543 2.24572 2.3734 2.49426 1.79288 1.90847 2.03138 
2.15805 2.28408 2.40503 2.51718 1.72413 1.83164 1.94707 2.06758 2.18928 
2.30791 2.4195 2.52097 1.66533 1.66946 1.76911 1.67254 1.777 1.88041 
1.67418 1.78222 1.89102 1.99634 1.67418 1.78405 1.89674 2.00785 2.11299 
1.67254 1.78222 1.89674 2.01191 2.12307 2.22608 1.66946 1.777 1.89102 
2.00785 2.12307 2.23222 2.33166 1.66533 1.76911 1.88041 1.99634 2.11299 
2.22608 2.33166 2.42672 1.47626 1.37249 1.47213 1.26118 1.36459 1.46906 
1.14526 1.25058 1.35938 1.46741 1.0286 1.13374 1.24485 1.35755 1.46741 
0.915514 1.01852 1.12969 1.24485 1.35938 1.46906 0.809937 0.909371 1.01852 
1.13374 1.25058 1.36459 1.47213 0.714871 0.809937 0.915514 1.0286 1.14526 
1.26118 1.37249 1.47626 0.975055 0.898002 1.01847 0.821245 0.946693 1.07221 
0.749941 0.877585 1.00737 1.13501 0.690152 0.816367 0.94706 1.07784 1.20431 
0.647337 0.768195 0.895868 1.02616 1.15448 1.2767 0.624416 0.736561 0.857515 
0.983547 1.11021 1.23313 1.34871 0.620619 0.722093 0.833684 0.952313 1.07402 
1.19452 1.30996 1.41746 0.855925 0.764569 0.764569 0.671524 0.661425 0.671524 
0.582786 0.556971 0.556971 0.582786 0.506696 0.458968 0.441109 0.458968 0.506696 
0.45273 0.379052 0.333054 0.333054 0.379052 0.45273 0.427969 0.331576 0.249267 
0.21325 0.249267 0.331576 0.427969 0.432512 0.325669 0.215619 0.121622 0.121622 
0.215619 0.325669 0.432512 0.432512 0.427969 0.325669 0.45273 0.331576 0.215619 
0.506696 0.379052 0.249267 0.121622 0.582786 0.458968 0.333054 0.21325 0.121622 
0.671524 0.556971 0.441109 0.333054 0.249267 0.215619 0.764569 0.661425 0.556971 
0.458968 0.379052 0.331576 0.325669 0.855925 0.764569 0.671524 0.582786 0.506696 
0.45273 0.427969 0.432512 0.975055 1.01847 0.898002 1.07221 0.946693 0.821245 
1.13501 1.00737 0.877585 0.749941 1.20431 1.07784 0.94706 0.816367 0.690152 
1.2767 1.15448 1.02616 0.895868 0.768195 0.647337 1.34871 1.23313 1.11021 
0.983547 0.857515 0.736561 0.624416 1.41746 1.30996 1.19452 1.07402 0.952313 
0.833684 0.722093 0.620619 1.15011 1.26149 1.19686 1.38136 1.31493 1.25155 
1.50697 1.44074 1.37501 1.31281 1.63462 1.5708 1.50478 1.43962 1.37826 
1.76024 1.70086 1.63681 1.5708 1.5059 1.44492 1.88011 1.82666 1.76659 
1.70197 1.63569 1.5708 1.50988 1.99148 1.94473 1.89004 1.82878 1.76333 
1.69667 1.63171 1.5708 1.15011 1.19686 1.26149 1.25155 1.31493 1.38136 
1.31281 1.37501 1.44074 1.50697 1.37826 1.43962 1.50478 1.5708 1.63462 
1.44492 1.5059 1.5708 1.63681 1.70086 1.76024 1.50988 1.5708 1.63569 
1.70197 1.76659 1.82666 1.88011 1.5708 1.63171 1.69667 1.76333 1.82878 
1.89004 1.94473 1.99148 1.72413 1.83164 1.79288 1.94707 1.90847 1.86489 
2.06758 2.03138 1.98711 1.93728 2.18928 2.15805 2.11543 2.06376 2.00658 
2.30791 2.28408 2.24572 2.19453 2.13422 2.06938 2.4195 2.40503 2.3734 
2.32523 2.26401 2.1949 2.12312 2.52097 2.51718 2.49426 2.45144 2.39165 
2.32035 2.24359 2.16654 2.70908 2.81592 2.71362 2.92597 2.81002 2.68886 
3.01997 2.89233 2.76254 2.6349 3.01997 2.92834 2.80854 2.68262 2.55881 
2.92597 2.89233 2.80854 2.70048 2.58462 2.47007 2.81592 2.81002 2.76254 
2.68262 2.58462 2.48017 2.37702 2.70908 2.71362 2.68886 2.6349 2.55881 
2.47007 2.37702 2.28567 2.16654 2.24359 2.12312 2.32035 2.1949 2.06938 
2.39165 2.26401 2.13422 2.00658 2.45144 2.32523 2.19453 2.06376 1.93728 
2.49426 2.3734 2.24572 2.11543 1.98711 1.86489 2.51718 2.40503 2.28408 
2.15805 2.03138 1.90847 1.79288 2.52097 2.4195 2.30791 2.18928 2.06758 
1.94707 1.83164 1.72413 1.66533 1.76911 1.66946 1.88041 1.777 1.67254 
1.99634 1.89102 1.78222 1.67418 2.11299 2.00785 1.89674 1.78405 1.67418 
2.22608 2.12307 2.01191 1.89674 1.78222 1.67254 2.33166 2.23222 2.12307 
2.00785 1.89102 1.777 1.66946 2.42672 2.33166 2.22608 2.11299 1.99634 
1.88041 1.76911 1.66533 1.47626 1.47213 1.37249 1.46906 1.36459 1.26118 
1.46741 1.35938 1.25058 1.14526 1.46741 1.35755 1.24485 1.13374 1.0286 
1.46906 1.35938 1.24485 1.12969 1.01852 0.915514 1.47213 1.36459 1.25058 
1.13374 1.01852 0.909371 0.809937 1.47626 1.37249 1.26118 1.14526 1.0286 
0.915514 0.809937 0.714871 1.41746 1.30996 1.34871 1.19452 1.23313 1.2767 
1.07402 1.11021 1.15448 1.20431 0.952313 0.983547 1.02616 1.07784 1.13501 
0.833684 0.857515 0.895868 0.94706 1.00737 1.07221 0.722093 0.736561 0.768195 
0.816367 0.877585 0.946693 1.01847 0.620619 0.624416 0.647337 0.690152 0.749941 
0.821245 0.898002 0.975055 0.975055 0.898002 1.01847 0.821245 0.946693 1.07221 
0.749941 0.877585 1.00737 1.13501 0.690152 0.816367 0.94706 1.07784 1.20431 
0.647337 0.768195 0.895868 1.02616 1.15448 1.2767 0.624416 0.736561 0.857515 
0.983547 1.11021 1.23313 1.34871 0.620619 0.722093 0.833684 0.952313 1.07402 
1.19452 1.30996 1.41746 
Phi 1 1002 float
6.28319 3.14159 6.28319 3.14159 4.71239 4.71239 1.5708 1.5708 3.69517 
5.72961 2.58802 0.553574 6.28319 6.28319 6.28319 6.28319 3.14159 3.14159 
3.14159 3.14159 3.14159 6.1053 5.8988 5.67687 5.45995 5.26596 5.10322 
4.97131 4.86569 4.78095 0.177881 0.384387 0.606312 0.823235 1.01722 1.17997 
1.31187 1.4175 1.50223 6.18928 6.10703 6.03531 5.97283 5.91832 5.87061 
5.82869 5.79168 5.75886 0.0939024 0.176153 0.247873 0.310351 0.364864 0.412573 
0.454497 0.491504 0.524326 3.31947 3.52598 3.7479 3.96483 4.15881 4.32156 
4.45346 4.55909 4.64383 2.96371 2.75721 2.53528 2.31836 2.12437 1.96162 
1.82972 1.72409 1.63936 3.2355 3.31775 3.38947 3.45194 3.50646 3.55417 
3.59609 3.6331 3.66592 3.04769 2.96544 2.89372 2.83124 2.77673 2.72902 
2.6871 2.65009 2.61727 6.28319 6.28319 6.28319 6.28319 3.14159 3.14159 
3.14159 3.14159 3.14159 6.1053 5.8988 5.67687 5.45995 5.26596 5.10322 
4.97131 4.86569 4.78095 0.177881 0.384387 0.606312 0.823235 1.01722 1.17997 
1.31187 1.4175 1.50223 6.18928 6.10703 6.03531 5.97283 5.91832 5.87061 
5.82869 5.79168 5.75886 0.0939024 0.176153 0.247873 0.310351 0.364864 0.412573 
0.454497 0.491504 0.524326 3.31947 3.52598 3.7479 3.96483 4.15881 4.32156 
4.45346 4.55909 4.64383 2.96371 2.75721 2.53528 2.31836 2.12437 1.96162 
1.82972 1.72409 1.63936 3.2355 3.31775 3.38947 3.45194 3.50646 3.55417 
3.59609 3.6331 3.66592 3.04769 2.96544 2.89372 2.83124 2.77673 2.72902 
2.6871 2.65009 2.61727 4.71239 4.71239 4.71239 4.71239 4.71239 4.71239 
4.71239 4.71239 4.71239 4.60879 4.49914 4.3857 4.27128 4.15881 4.05096 
3.94976 3.85646 3.77161 4.81599 4.92564 5.03907 5.1535 5.26596 5.37381 
5.47502 5.56831 5.65317 4.60879 4.49914 4.3857 4.27128 4.15881 4.05096 
3.94976 3.85646 3.77161 4.81599 4.92564 5.03907 5.1535 5.26596 5.37381 
5.47502 5.56831 5.65317 1.5708 1.5708 1.5708 1.5708 1.5708 1.5708 
1.5708 1.5708 1.5708 1.6744 1.78405 1.89748 2.01191 2.12437 2.23222 
2.33343 2.42672 2.51157 1.4672 1.35755 1.24411 1.12969 1.01722 0.909371 
0.808166 0.714871 0.63002 1.6744 1.78405 1.89748 2.01191 2.12437 2.23222 
2.33343 2.42672 2.51157 1.4672 1.35755 1.24411 1.12969 1.01722 0.909371 
0.808166 0.714871 0.63002 3.60077 3.49669 3.38395 3.26458 3.14159 3.01861 
2.89924 2.78649 2.68241 5.82401 5.92808 6.04083 6.1602 6.28319 0.122983 
0.242354 0.355101 0.459179 6.05603 5.78856 5.97021 5.51259 5.60297 5.78856 
5.26596 5.26596 5.26596 5.26596 5.06749 5.0121 4.91556 4.71239 4.15881 
4.91556 4.83537 4.71239 4.50922 4.15881 3.63622 4.80045 4.71239 4.58941 
4.41268 4.15881 3.82181 3.45456 4.71239 4.62433 4.50922 4.35729 4.15881 
3.91219 3.63622 3.36875 6.01742 5.94343 5.82633 5.88092 5.76745 5.62798 
5.8278 5.71897 5.58911 5.43724 5.78235 5.67854 5.55757 5.41926 5.26596 
5.74316 5.64441 5.5315 5.40467 5.26596 5.11955 5.70914 5.61528 5.50962 
5.3926 5.26596 5.13292 4.99789 5.67937 5.59016 5.49102 5.38246 5.26596 
5.14407 5.02016 4.89798 5.56831 5.47502 5.47502 5.37381 5.37381 5.37381 
5.26596 5.26596 5.26596 5.26596 5.1535 5.1535 5.1535 5.1535 5.1535 
5.03907 5.03907 5.03907 5.03907 5.03907 5.03907 4.92564 4.92564 4.92564 
4.92564 4.92564 4.92564 4.92564 4.81599 4.81599 4.81599 4.81599 4.81599 
4.81599 4.81599 4.81599 4.60879 4.60879 4.49914 4.60879 4.49914 4.3857 
4.60879 4.49914 4.3857 4.27128 4.60879 4.49914 4.3857 4.27128 4.15881 
4.60879 4.49914 4.3857 4.27128 4.15881 4.05096 4.60879 4.49914 4.3857 
4.27128 4.15881 4.05096 3.94976 4.60879 4.49914 4.3857 4.27128 4.15881 
4.05096 3.94976 3.85646 4.5268 4.40462 4.42689 4.28071 4.29185 4.30523 
4.15881 4.15881 4.15881 4.15881 4.04232 4.03217 4.02011 4.00552 3.98753 
3.93376 3.91515 3.89328 3.86721 3.83566 3.7968 3.83461 3.8095 3.78037 
3.74624 3.70581 3.65733 3.59845 3.7454 3.71564 3.68161 3.64243 3.59698 
3.54386 3.48135 3.40735 3.56428 3.45246 3.52338 3.33203 3.40312 3.47739 
3.20576 3.27463 3.34802 3.42551 3.07742 3.14159 3.21128 3.28647 3.36688 
2.95116 3.00855 3.0719 3.14159 3.21784 3.3006 2.83072 2.88006 2.93517 
2.99672 3.06535 3.14159 3.22575 2.7189 2.7598 2.8058 2.85768 2.9163 
2.98259 3.05743 3.14159 3.56428 3.52338 3.45246 3.47739 3.40312 3.33203 
3.42551 3.34802 3.27463 3.20576 3.36688 3.28647 3.21128 3.14159 3.07742 
3.3006 3.21784 3.14159 3.0719 3.00855 2.95116 3.22575 3.14159 3.06535 
2.99672 2.93517 2.88006 2.83072 3.14159 3.05743 2.98259 2.9163 2.85768 
2.8058 2.7598 2.7189 4.5268 4.42689 4.40462 4.30523 4.29185 4.28071 
4.15881 4.15881 4.15881 4.15881 3.98753 4.00552 4.02011 4.03217 4.04232 
3.7968 3.83566 3.86721 3.89328 3.91515 3.93376 3.59845 3.65733 3.70581 
3.74624 3.78037 3.8095 3.83461 3.40735 3.48135 3.54386 3.59698 3.64243 
3.68161 3.71564 3.7454 4.71239 4.80045 4.62433 4.91556 4.71239 4.50922 
5.06749 4.83537 4.58941 4.35729 5.26596 5.0121 4.71239 4.41268 4.15881 
5.51259 5.26596 4.91556 4.50922 4.15881 3.91219 5.78856 5.60297 5.26596 
4.71239 4.15881 3.82181 3.63622 6.05603 5.97021 5.78856 5.26596 4.15881 
3.63622 3.45456 3.36875 0.227158 0.494626 0.312971 0.770593 0.680215 0.494626 
1.01722 1.01722 1.01722 1.01722 1.2157 1.27109 1.36763 1.5708 2.12437 
1.36763 1.44781 1.5708 1.77397 2.12437 2.64697 1.48273 1.5708 1.69378 
1.8705 2.12437 2.46138 2.82862 1.5708 1.65886 1.77397 1.9259 2.12437 
2.371 2.64697 2.91443 1.75639 1.87857 1.8563 2.00248 1.99133 1.97796 
2.12437 2.12437 2.12437 2.12437 2.24087 2.25101 2.26308 2.27767 2.29565 
2.34943 2.36803 2.38991 2.41597 2.44752 2.48639 2.44857 2.47368 2.50281 
2.53694 2.57738 2.62586 2.68474 2.53778 2.56754 2.60157 2.64076 2.68621 
2.73933 2.80184 2.87583 1.6744 1.6744 1.78405 1.6744 1.78405 1.89748 
1.6744 1.78405 1.89748 2.01191 1.6744 1.78405 1.89748 2.01191 2.12437 
1.6744 1.78405 1.89748 2.01191 2.12437 2.23222 1.6744 1.78405 1.89748 
2.01191 2.12437 2.23222 2.33343 1.6744 1.78405 1.89748 2.01191 2.12437 
2.23222 2.33343 2.42672 1.4672 1.35755 1.4672 1.24411 1.35755 1.4672 
1.12969 1.24411 1.35755 1.4672 1.01722 1.12969 1.24411 1.35755 1.4672 
0.909371 1.01722 1.12969 1.24411 1.35755 1.4672 0.808166 0.909371 1.01722 
1.12969 1.24411 1.35755 1.4672 0.714871 0.808166 0.909371 1.01722 1.12969 
1.24411 1.35755 1.4672 0.603812 0.57405 0.693022 0.540021 0.667908 0.792164 
0.500837 0.638778 0.773562 0.900726 0.455383 0.604649 0.751687 0.890581 1.01722 
0.402264 0.564217 0.725619 0.878514 1.01722 1.13912 0.339753 0.515737 0.694072 
0.863926 1.01722 1.15026 1.26302 0.265762 0.456853 0.655207 0.845941 1.01722 
1.16363 1.28529 1.38521 0.227158 0.312971 0.494626 0.494626 0.680215 0.770593 
1.01722 1.01722 1.01722 1.01722 2.12437 1.5708 1.36763 1.27109 1.2157 
2.64697 2.12437 1.77397 1.5708 1.44781 1.36763 2.82862 2.46138 2.12437 
1.8705 1.69378 1.5708 1.48273 2.91443 2.64697 2.371 2.12437 1.9259 
1.77397 1.65886 1.5708 1.75639 1.8563 1.87857 1.97796 1.99133 2.00248 
2.12437 2.12437 2.12437 2.12437 2.29565 2.27767 2.26308 2.25101 2.24087 
2.48639 2.44752 2.41597 2.38991 2.36803 2.34943 2.68474 2.62586 2.57738 
2.53694 2.50281 2.47368 2.44857 2.87583 2.80184 2.73933 2.68621 2.64076 
2.60157 2.56754 2.53778 5.86049 5.90139 5.97231 5.94739 6.02165 6.09275 
5.99927 6.07676 6.15015 6.21902 6.0579 6.13831 6.2135 0 0.0641696 
6.12418 6.20694 6.28319 0.069689 0.13304 0.190437 6.19903 0 0.0762451 
0.144876 0.206423 0.261531 0.310872 0 0.0841597 0.159004 0.225289 0.283913 
0.335793 0.381792 0.422692 5.86049 5.97231 5.90139 6.09275 6.02165 5.94739 
6.21902 6.15015 6.07676 5.99927 0.0641696 0 6.2135 6.13831 6.0579 
0.190437 0.13304 0.069689 6.28319 6.20694 6.12418 0.310872 0.261531 0.206423 
0.144876 0.0762451 6.28319 6.19903 0.422692 0.381792 0.335793 0.283913 0.225289 
0.159004 0.0841597 0 5.67937 5.70914 5.59016 5.74316 5.61528 5.49102 
5.78235 5.64441 5.50962 5.38246 5.8278 5.67854 5.5315 5.3926 5.26596 
5.88092 5.71897 5.55757 5.40467 5.26596 5.14407 5.94343 5.76745 5.58911 
5.41926 5.26596 5.13292 5.02016 6.01742 5.82633 5.62798 5.43724 5.26596 
5.11955 4.99789 4.89798 1.38521 1.28529 1.26302 1.16363 1.15026 1.13912 
1.01722 1.01722 1.01722 1.01722 0.845941 0.863926 0.878514 0.890581 0.900726 
0.655207 0.694072 0.725619 0.751687 0.773562 0.792164 0.456853 0.515737 0.564217 
0.604649 0.638778 0.667908 0.693022 0.265762 0.339753 0.402264 0.455383 0.500837 
0.540021 0.57405 0.603812 
