# vtk DataFile Version 4.0
vtk output
ASCII
DATASET POLYDATA
POINTS 1002 float
-119.868 -100.825 72.0034 -114.95 -93.8454 70.8657 -114.733 -103.891 71.7856 
-108.828 -97.4821 71.0833 -116.921 -97.6494 66.2018 -112.675 -100.3 66.7003 
-115.812 -97.5596 77.2467 -112.376 -99.9742 77.5683 -109.783 -91.3118 66.8449 
-118.926 -107.357 68.6884 -110.685 -92.4282 74.1389 -118.621 -105.98 75.9946 
-119.35 -100.419 71.8717 -118.79 -99.8611 71.7318 -118.527 -98.8187 71.687 
-118.429 -97.5992 71.6953 -117.956 -96.7956 71.5709 -117.265 -96.1467 71.3676 
-116.866 -95.2355 71.2803 -116.47 -94.47 71.2174 -115.729 -94.1245 71.0459 
-119.809 -100.761 71.3783 -119.736 -100.598 70.641 -119.703 -100.211 70.0502 
-119.624 -99.7397 69.5396 -119.41 -99.4275 68.793 -118.977 -99.2362 68.0713 
-118.36 -98.9187 67.6722 -117.808 -98.4335 67.2417 -117.392 -97.9694 66.6481 
-119.561 -100.638 72.4531 -119.076 -100.504 72.9027 -118.54 -100.345 73.3696 
-118.185 -99.9827 73.9128 -117.878 -99.451 74.547 -117.393 -98.9692 75.1658 
-116.906 -98.5586 75.7526 -116.547 -98.1621 76.3387 -116.19 -97.8288 76.8446 
-120.229 -101.323 71.7627 -120.523 -102.028 71.4221 -120.789 -102.847 70.9401 
-120.923 -103.69 70.4593 -120.846 -104.696 70.0419 -120.748 -105.888 69.5317 
-120.657 -106.77 69.1006 -120.288 -107.031 69.0057 -119.61 -107.095 68.974 
-120.023 -101.303 72.3239 -119.98 -102.1 72.5562 -119.901 -102.899 72.885 
-119.927 -103.374 73.4661 -120.009 -103.877 74.2048 -120.068 -104.74 74.8736 
-120.048 -105.504 75.3361 -119.811 -105.831 75.6214 -119.29 -105.937 75.8315 
-115.144 -93.9282 70.2863 -115.466 -94.0332 69.7372 -115.84 -94.2403 69.1441 
-116.252 -94.4502 68.3662 -116.692 -94.6473 67.5805 -116.947 -95.1318 67.1173 
-116.95 -95.9052 66.8827 -116.921 -96.5869 66.6181 -116.938 -97.1029 66.3516 
-115.256 -93.9657 71.5821 -115.535 -94.0908 72.3411 -115.654 -94.3386 73.0195 
-115.634 -94.7772 73.6284 -115.607 -95.2811 74.2772 -115.634 -95.7677 74.9778 
-115.706 -96.2517 75.6733 -115.782 -96.6925 76.3104 -115.815 -97.109 76.8342 
-114.481 -93.4194 70.4105 -114.25 -92.7746 69.9491 -114.049 -92.0557 69.3367 
-113.564 -91.5139 68.6598 -112.889 -91.2262 68.1454 -112.295 -90.9861 67.7171 
-111.687 -90.7108 67.2635 -110.946 -90.6102 66.945 -110.254 -90.8316 66.8389 
-114.579 -93.4026 71.1867 -114.38 -92.7374 71.6006 -114.016 -92.2453 71.9871 
-113.274 -92.1796 72.2494 -112.591 -92.1179 72.6313 -112.302 -91.6739 73.3584 
-112.023 -91.2517 74.0675 -111.514 -91.3582 74.3111 -111.023 -91.8832 74.2075 
-114.261 -103.215 71.711 -113.389 -102.878 71.6715 -112.432 -102.641 71.7231 
-111.824 -101.958 71.7517 -111.449 -100.844 71.5899 -110.936 -99.899 71.3198 
-110.278 -99.3295 71.1667 -109.656 -98.8187 71.1675 -109.162 -98.1755 71.1745 
-114.652 -103.679 71.1859 -114.4 -103.587 70.5938 -114.035 -103.512 70.0123 
-113.623 -103.395 69.4187 -113.22 -103.277 68.7958 -112.97 -102.916 68.1929 
-112.903 -102.171 67.7362 -112.863 -101.401 67.4333 -112.777 -100.816 67.1217 
-114.502 -103.68 72.3629 -114.221 -103.391 72.8999 -113.998 -102.905 73.3684 
-113.761 -102.431 73.9373 -113.458 -102.091 74.6078 -113.304 -101.555 75.1412 
-113.287 -100.833 75.5859 -113.092 -100.366 76.1854 -112.706 -100.184 76.913 
-114.955 -104.632 71.478 -115.174 -105.451 71.1652 -115.633 -106.076 70.7905 
-116.321 -106.441 70.3224 -116.918 -106.767 69.8876 -117.313 -107.282 69.5119 
-117.702 -107.857 69.0574 -118.136 -108.079 68.6569 -118.535 -107.819 68.566 
-114.878 -104.584 72.1976 -115.105 -105.205 72.6133 -115.529 -105.62 73.0423 
-116.06 -105.845 73.469 -116.623 -105.956 73.8869 -117.119 -106.137 74.3909 
-117.43 -106.409 74.9864 -117.711 -106.497 75.5113 -118.147 -106.302 75.8527 
-108.678 -97.9225 70.6618 -108.75 -98.351 70.1109 -109.009 -98.6749 69.5396 
-109.25 -99.0188 68.9407 -109.545 -99.4267 68.2844 -110.1 -99.6632 67.8092 
-110.826 -99.7233 67.5576 -111.546 -99.8633 67.2672 -112.178 -100.106 66.9292 
-109.139 -97.5787 71.5872 -109.371 -97.7796 72.2231 -109.765 -97.8838 72.8032 
-110.375 -97.8983 73.3152 -110.818 -98.1193 74.098 -111.111 -98.4876 74.9843 
-111.615 -98.7669 75.5544 -112.097 -99.1081 76.0978 -112.266 -99.5896 76.8733 
-108.415 -97.0514 70.7257 -108.053 -96.5687 70.3061 -107.957 -95.9287 69.7769 
-108.138 -95.0888 69.2622 -108.383 -94.1301 68.9015 -108.605 -93.26 68.5635 
-108.847 -92.6094 68.0723 -109.088 -92.0744 67.515 -109.366 -91.5996 67.0811 
-108.866 -96.8013 71.1608 -108.875 -96.132 71.3214 -108.666 -95.4704 71.8529 
-108.524 -94.7958 72.4909 -108.787 -94.1767 72.7435 -109.169 -93.5948 72.8997 
-109.434 -93.0625 73.3246 -109.787 -92.7594 73.7024 -110.258 -92.6295 73.8904 
-116.452 -97.9026 66.0303 -115.787 -98.1731 65.9568 -115.144 -98.4324 65.7253 
-114.817 -98.8502 65.177 -114.645 -99.3896 64.7448 -114.206 -99.6198 64.8824 
-113.565 -99.5518 65.3653 -113.097 -99.6565 65.8451 -112.86 -99.9958 66.286 
-116.264 -97.1053 66.0892 -115.399 -96.6966 66.172 -114.607 -96.2513 66.146 
-114.016 -95.625 65.9452 -113.412 -94.9328 65.9459 -112.69 -94.3048 66.2908 
-111.938 -93.6014 66.6378 -111.148 -92.7029 66.747 -110.372 -91.8361 66.7409 
-117.202 -98.535 66.39 -117.603 -99.5381 66.6185 -118.151 -100.512 66.8385 
-118.55 -101.676 67.1897 -118.831 -103.134 67.4879 -119.317 -104.487 67.4913 
-119.671 -105.515 67.5834 -119.491 -106.321 68.009 -119.112 -106.925 68.4374 
-112.278 -99.7082 66.3098 -111.821 -99.1688 65.9659 -111.479 -98.5982 65.8771 
-111.356 -97.7966 66.127 -111.147 -96.7643 66.4864 -110.678 -95.7024 66.6997 
-110.219 -94.6167 66.7536 -109.935 -93.4124 66.7537 -109.788 -92.2336 66.7763 
-113.193 -100.805 66.878 -113.856 -101.458 67.0383 -114.658 -102.405 66.9813 
-115.4 -103.563 66.7948 -116.131 -104.513 66.8594 -117.074 -105.279 67.1522 
-117.918 -106.257 67.3366 -118.298 -107.151 67.5609 -118.505 -107.451 68.0817 
-115.595 -97.6811 77.75 -115.406 -97.7298 78.3612 -115.183 -97.679 79.0595 
-114.794 -97.8034 79.6126 -114.302 -98.3235 79.6398 -113.894 -98.8728 79.1562 
-113.474 -99.1764 78.6919 -112.928 -99.4817 78.4634 -112.492 -99.8265 78.1523 
-115.46 -96.9768 77.403 -115.13 -96.292 77.5948 -114.821 -95.4843 77.7439 
-114.475 -94.7313 77.6211 -113.934 -94.2982 77.0527 -113.077 -93.9744 76.287 
-112.115 -93.371 75.7229 -111.405 -92.7361 75.2947 -110.997 -92.4638 74.7477 
-116.062 -98.2233 77.3939 -116.391 -98.8948 77.5314 -116.737 -99.5799 77.5754 
-117.076 -100.429 77.5047 -117.446 -101.445 77.3156 -117.696 -102.472 76.8877 
-117.814 -103.488 76.3683 -118.082 -104.491 76.1197 -118.457 -105.344 76.0979 
-112.088 -99.3842 77.6917 -111.924 -98.5305 77.5931 -111.78 -97.5667 77.3357 
-111.636 -96.679 76.8923 -111.415 -95.8768 76.3195 -110.99 -95.0346 75.8996 
-110.594 -94.154 75.6153 -110.497 -93.4231 75.1778 -110.586 -92.8978 74.6094 
-112.894 -100.349 77.6031 -113.677 -100.681 77.4539 -114.436 -101.173 77.3697 
-114.992 -101.843 77.3045 -115.556 -102.528 77.0552 -116.237 -103.198 76.7864 
-116.815 -103.953 76.6521 -117.296 -104.781 76.4902 -117.91 -105.507 76.2453 
-109.64 -90.8004 67.1517 -109.63 -90.5304 67.7731 -109.563 -90.3528 68.6734 
-109.385 -90.3377 69.6175 -109.333 -90.5285 70.5423 -109.502 -90.6809 71.5886 
-109.782 -90.8964 72.526 -110.138 -91.4262 73.1082 -110.477 -92.0252 73.5766 
-119.329 -107.613 69.1328 -119.746 -108.175 69.6231 -119.817 -108.774 70.4121 
-119.565 -108.782 71.4831 -119.209 -108.205 72.3193 -118.781 -107.59 72.8845 
-118.563 -107.142 73.7234 -118.741 -106.793 74.7877 -118.877 -106.446 75.585 
-119.184 -100.322 71.1513 -119.099 -100.015 70.4154 -118.667 -99.5552 71.0069 
-119.098 -99.5348 69.8917 -118.654 -99.0994 70.2892 -118.569 -98.2743 71.0335 
-118.973 -99.098 69.3748 -118.591 -98.6515 69.7266 -118.524 -97.8034 70.2992 
-118.445 -97.068 71.0623 -118.677 -98.7484 68.6383 -118.348 -98.2185 69.1358 
-118.214 -97.461 69.6199 -118.167 -96.7107 70.2945 -117.801 -96.3612 70.8975 
-118.296 -98.3339 67.9495 -118.107 -97.6818 68.4016 -117.859 -97.0309 68.9275 
-117.693 -96.4204 69.5354 -117.487 -95.9558 70.1482 -117.136 -95.6252 70.6722 
-117.886 -97.8233 67.3708 -117.891 -97.1244 67.6599 -117.706 -96.4647 68.132 
-117.402 -95.9928 68.7189 -117.155 -95.575 69.3636 -116.939 -95.1211 69.9512 
-116.688 -94.7431 70.5329 -117.458 -97.3746 66.7823 -117.515 -96.7431 67.0192 
-117.491 -96.0293 67.3643 -117.279 -95.4606 67.8201 -116.929 -95.1299 68.4654 
-116.616 -94.7793 69.1917 -116.326 -94.406 69.8176 -116.006 -94.202 70.4119 
-120.252 -101.231 71.0538 -120.547 -101.974 70.5887 -120.188 -101.074 70.2892 
-120.672 -102.84 70.0818 -120.306 -101.934 69.8398 -120.044 -100.725 69.6846 
-120.706 -103.635 69.7022 -120.266 -102.866 69.4628 -120.042 -101.692 69.2041 
-119.919 -100.302 68.9485 -120.785 -104.562 69.231 -120.462 -103.597 69.0374 
-120.108 -102.646 68.7662 -120.047 -101.23 68.3208 -119.71 -100.001 68.0754 
-120.854 -105.638 68.6529 -120.829 -104.466 68.2974 -120.436 -103.428 68.1665 
-120.15 -102.126 67.9123 -119.825 -100.737 67.6387 -119.087 -99.7543 67.6572 
-120.571 -106.348 68.4553 -120.84 -105.416 67.7868 -120.596 -104.328 67.5462 
-120.074 -103.003 67.6146 -119.652 -101.508 67.5263 -119.017 -100.312 67.4736 
-118.263 -99.3885 67.4671 -119.868 -106.638 68.5557 -120.274 -106 67.8748 
-120.274 -105.1 67.4314 -119.734 -103.882 67.4981 -119.235 -102.366 67.522 
-118.809 -100.975 67.3163 -118.194 -99.9266 67.1659 -117.672 -98.9408 66.9615 
-118.762 -106.818 67.8678 -118.469 -106.281 67.3641 -119.041 -105.935 67.5674 
-117.892 -105.42 67.0215 -118.525 -105.294 67.0481 -118.958 -104.937 67.3145 
-116.993 -104.584 66.7925 -117.812 -104.529 66.6643 -118.298 -104.19 66.8058 
-118.555 -103.708 67.2298 -116.026 -103.599 66.7208 -116.829 -103.484 66.7015 
-117.471 -103.142 66.6404 -117.903 -102.647 66.7861 -118.25 -102.179 67.032 
-115.033 -102.334 66.7591 -115.643 -102.105 66.7986 -116.254 -101.769 66.8461 
-116.792 -101.351 66.7943 -117.399 -101.041 66.7126 -117.903 -100.834 66.6722 
-114.089 -101.212 66.7132 -114.531 -100.889 66.5344 -115.068 -100.636 66.5114 
-115.482 -100.358 66.5566 -115.992 -100.074 66.5926 -116.716 -99.9661 66.4839 
[...]
POINT_DATA 1002
FIELD FieldData 2
Theta 1 1002 float
2.58802 2.58802 0.553574 0.553574 2.12437 1.01722 2.12437 1.01722 1.5708 
1.5708 1.5708 1.5708 2.68241 2.78649 2.89924 3.01861 3.14159 3.01861 
2.89924 2.78649 2.68241 2.61035 2.61791 2.60515 2.56958 2.51327 2.44184 
2.36202 2.27983 2.1997 2.61035 2.61791 2.60515 2.56958 2.51327 2.44184 
2.36202 2.27983 2.1997 2.50947 2.41899 2.31794 2.20864 2.0944 1.97902 
1.86631 1.75944 1.66056 2.50947 2.41899 2.31794 2.20864 2.0944 1.97902 
1.86631 1.75944 1.66056 2.61035 2.61791 2.60515 2.56958 2.51327 2.44184 
2.36202 2.27983 2.1997 2.61035 2.61791 2.60515 2.56958 2.51327 2.44184 
2.36202 2.27983 2.1997 2.50947 2.41899 2.31794 2.20864 2.0944 1.97902 
1.86631 1.75944 1.66056 2.50947 2.41899 2.31794 2.20864 2.0944 1.97902 
1.86631 1.75944 1.66056 0.459179 0.355101 0.242354 0.122983 0 0.122983 
0.242354 0.355101 0.459179 0.531246 0.523681 0.536438 0.57201 0.628319 0.699757 
0.779574 0.86176 0.941896 0.531246 0.523681 0.536438 0.57201 0.628319 0.699757 
0.779574 0.86176 0.941896 0.632123 0.7226 0.823657 0.932948 1.0472 1.16257 
1.27528 1.38216 1.48103 0.632123 0.7226 0.823657 0.932948 1.0472 1.16257 
1.27528 1.38216 1.48103 0.531246 0.523681 0.536438 0.57201 0.628319 0.699757 
0.779574 0.86176 0.941896 0.531246 0.523681 0.536438 0.57201 0.628319 0.699757 
0.779574 0.86176 0.941896 0.632123 0.7226 0.823657 0.932948 1.0472 1.16257 
1.27528 1.38216 1.48103 0.632123 0.7226 0.823657 0.932948 1.0472 1.16257 
1.27528 1.38216 1.48103 2.02998 1.9259 1.81315 1.69378 1.5708 1.44781 
1.32844 1.2157 1.11162 2.0928 2.05283 2.00422 1.94767 1.88496 1.81867 
1.75177 1.68695 1.62623 2.0928 2.05283 2.00422 1.94767 1.88496 1.81867 
1.75177 1.68695 1.62623 1.0488 1.08876 1.13737 1.19392 1.25664 1.32292 
1.38982 1.45464 1.51537 1.0488 1.08876 1.13737 1.19392 1.25664 1.32292 
1.38982 1.45464 1.51537 2.02998 1.9259 1.81315 1.69378 1.5708 1.44781 
1.32844 1.2157 1.11162 2.0928 2.05283 2.00422 1.94767 1.88496 1.81867 
1.75177 1.68695 1.62623 2.0928 2.05283 2.00422 1.94767 1.88496 1.81867 
1.75177 1.68695 1.62623 1.0488 1.08876 1.13737 1.19392 1.25664 1.32292 
1.38982 1.45464 1.51537 1.0488 1.08876 1.13737 1.19392 1.25664 1.32292 
1.38982 1.45464 1.51537 1.5708 1.5708 1.5708 1.5708 1.5708 1.5708 
1.5708 1.5708 1.5708 1.5708 1.5708 1.5708 1.5708 1.5708 1.5708 
1.5708 1.5708 1.5708 2.70908 2.71362 2.81592 2.68886 2.81002 2.92597 
2.6349 2.76254 2.89233 3.01997 2.55881 2.68262 2.80854 2.92834 3.01997 
2.47007 2.58462 2.70048 2.80854 2.89233 2.92597 2.37702 2.48017 2.58462 
2.68262 2.76254 2.81002 2.81592 2.28567 2.37702 2.47007 2.55881 2.6349 
2.68886 2.71362 2.70908 2.52097 2.4195 2.51718 2.30791 2.40503 2.49426 
2.18928 2.28408 2.3734 2.45144 2.06758 2.15805 2.24572 2.32523 2.39165 
1.94707 2.03138 2.11543 2.19453 2.26401 2.32035 1.83164 1.90847 1.98711 
2.06376 2.13422 2.1949 2.24359 1.72413 1.79288 1.86489 1.93728 2.00658 
2.06938 2.12312 2.16654 1.5708 1.50988 1.63171 1.44492 1.5708 1.69667 
1.37826 1.5059 1.63569 1.76333 1.31281 1.43962 1.5708 1.70197 1.82878 
1.25155 1.37501 1.50478 1.63681 1.76659 1.89004 1.19686 1.31493 1.44074 
1.5708 1.70086 1.82666 1.94473 1.15011 1.26149 1.38136 1.50697 1.63462 
1.76024 1.88011 1.99148 1.99148 1.88011 1.94473 1.76024 1.82666 1.89004 
1.63462 1.70086 1.76659 1.82878 1.50697 1.5708 1.63681 1.70197 1.76333 
1.38136 1.44074 1.50478 1.5708 1.63569 1.69667 1.26149 1.31493 1.37501 
1.43962 1.5059 1.5708 1.63171 1.15011 1.19686 1.25155 1.31281 1.37826 
1.44492 1.50988 1.5708 2.16654 2.12312 2.24359 2.06938 2.1949 2.32035 
2.00658 2.13422 2.26401 2.39165 1.93728 2.06376 2.19453 2.32523 2.45144 
1.86489 1.98711 2.11543 2.24572 2.3734 2.49426 1.79288 1.90847 2.03138 
2.15805 2.28408 2.40503 2.51718 1.72413 1.83164 1.94707 2.06758 2.18928 
2.30791 2.4195 2.52097 1.66533 1.66946 1.76911 1.67254 1.777 1.88041 
1.67418 1.78222 1.89102 1.99634 1.67418 1.78405 1.89674 2.00785 2.11299 
1.67254 1.78222 1.89674 2.01191 2.12307 2.22608 1.66946 1.777 1.89102 
2.00785 2.12307 2.23222 2.33166 1.66533 1.76911 1.88041 1.99634 2.11299 
2.22608 2.33166 2.42672 1.47626 1.37249 1.47213 1.26118 1.36459 1.46906 
1.14526 1.25058 1.35938 1.46741 1.0286 1.13374 1.24485 1.35755 1.46741 
0.915514 1.01852 1.12969 1.24485 1.35938 1.46906 0.809937 0.909371 1.01852 
1.13374 1.25058 1.36459 1.47213 0.714871 0.809937 0.915514 1.0286 1.14526 
1.26118 1.37249 1.47626 0.975055 0.898002 1.01847 0.821245 0.946693 1.07221 
0.749941 0.877585 1.00737 1.13501 0.690152 0.816367 0.94706 1.07784 1.20431 
0.647337 0.768195 0.895868 1.02616 1.15448 1.2767 0.624416 0.736561 0.857515 
0.983547 1.11021 1.23313 1.34871 0.620619 0.722093 0.833684 0.952313 1.07402 
1.19452 1.30996 1.41746 0.855925 0.764569 0.764569 0.671524 0.661425 0.671524 
0.582786 0.556971 0.556971 0.582786 0.506696 0.458968 0.441109 0.458968 0.506696 
0.45273 0.379052 0.333054 0.333054 0.379052 0.45273 0.427969 0.331576 0.249267 
0.21325 0.249267 0.331576 0.427969 0.432512 0.325669 0.215619 0.121622 0.121622 
0.215619 0.325669 0.432512 0.432512 0.427969 0.325669 0.45273 0.331576 0.215619 
0.506696 0.379052 0.249267 0.121622 0.582786 0.458968 0.333054 0.21325 0.121622 
0.671524 0.556971 0.441109 0.333054 0.249267 0.215619 0.764569 0.661425 0.556971 
0.458968 0.379052 0.331576 0.325669 0.855925 0.764569 0.671524 0.582786 0.506696 
0.45273 0.427969 0.432512 0.975055 1.01847 0.898002 1.07221 0.946693 0.821245 
1.13501 1.00737 0.877585 0.749941 1.20431 1.07784 0.94706 0.816367 0.690152 
1.2767 1.15448 1.02616 0.895868 0.768195 0.647337 1.34871 1.23313 1.11021 
0.983547 0.857515 0.736561 0.624416 1.41746 1.30996 1.19452 1.07402 0.952313 
0.833684 0.722093 0.620619 1.15011 1.26149 1.19686 1.38136 1.31493 1.25155 
1.50697 1.44074 1.37501 1.31281 1.63462 1.5708 1.50478 1.43962 1.37826 
1.76024 1.70086 1.63681 1.5708 1.5059 1.44492 1.88011 1.82666 1.76659 
1.70197 1.63569 1.5708 1.50988 1.99148 1.94473 1.89004 1.82878 1.76333 
1.69667 1.63171 1.5708 1.15011 1.19686 1.26149 1.25155 1.31493 1.38136 
1.31281 1.37501 1.44074 1.50697 1.37826 1.43962 1.50478 1.5708 1.63462 
1.44492 1.5059 1.5708 1.63681 1.70086 1.76024 1.50988 1.5708 1.63569 
1.70197 1.76659 1.82666 1.88011 1.5708 1.63171 1.69667 1.76333 1.82878 
1.89004 1.94473 1.99148 1.72413 1.83164 1.79288 1.94707 1.90847 1.86489 
2.06758 2.03138 1.98711 1.93728 2.18928 2.15805 2.11543 2.06376 2.00658 
2.30791 2.28408 2.24572 2.19453 2.13422 2.06938 2.4195 2.40503 2.3734 
2.32523 2.26401 2.1949 2.12312 2.52097 2.51718 2.49426 2.45144 2.39165 
2.32035 2.24359 2.16654 2.70908 2.81592 2.71362 2.92597 2.81002 2.68886 
3.01997 2.89233 2.76254 2.6349 3.01997 2.92834 2.80854 2.68262 2.55881 
2.92597 2.89233 2.80854 2.70048 2.58462 2.47007 2.81592 2.81002 2.76254 
2.68262 2.58462 2.48017 2.37702 2.70908 2.71362 2.68886 2.6349 2.55881 
2.47007 2.37702 2.28567 2.16654 2.24359 2.12312 2.32035 2.1949 2.06938 
2.39165 2.26401 2.13422 2.00658 2.45144 2.32523 2.19453 2.06376 1.93728 
2.49426 2.3734 2.24572 2.11543 1.98711 1.86489 2.51718 2.40503 2.28408 
2.15805 2.03138 1.90847 1.79288 2.52097 2.4195 2.30791 2.18928 2.06758 
1.94707 1.83164 1.72413 1.66533 1.76911 1.66946 1.88041 1.777 1.67254 
1.99634 1.89102 1.78222 1.67418 2.11299 2.00785 1.89674 1.78405 1.67418 
2.22608 2.12307 2.01191 1.89674 1.78222 1.67254 2.33166 2.23222 2.12307 
2.00785 1.89102 1.777 1.66946 2.42672 2.33166 2.22608 2.11299 1.99634 
1.88041 1.76911 1.66533 1.47626 1.47213 1.37249 1.46906 1.36459 1.26118 
1.46741 1.35938 1.25058 1.14526 1.46741 1.35755 1.24485 1.13374 1.0286 
1.46906 1.35938 1.24485 1.12969 1.01852 0.915514 1.47213 1.36459 1.25058 
1.13374 1.01852 0.909371 0.809937 1.47626 1.37249 1.26118 1.14526 1.0286 
0.915514 0.809937 0.714871 1.41746 1.30996 1.34871 1.19452 1.23313 1.2767 
1.07402 1.11021 1.15448 1.20431 0.952313 0.983547 1.02616 1.07784 1.13501 
0.833684 0.857515 0.895868 0.94706 1.00737 1.07221 0.722093 0.736561 0.768195 
0.816367 0.877585 0.946693 1.01847 0.620619 0.624416 0.647337 0.690152 0.749941 
0.821245 0.898002 0.975055 0.975055 0.898002 1.01847 0.821245 0.946693 1.07221 
0.749941 0.877585 1.00737 1.13501 0.690152 0.816367 0.94706 1.07784 1.20431 
0.647337 0.768195 0.895868 1.02616 1.15448 1.2767 0.624416 0.736561 0.857515 
0.983547 1.11021 1.23313 1.34871 0.620619 0.722093 0.833684 0.952313 1.07402 
1.19452 1.30996 1.41746 
Phi 1 1002 float
6.28319 3.14159 6.28319 3.14159 4.71239 4.71239 1.5708 1.5708 3.69517 
5.72961 2.58802 0.553574 6.28319 6.28319 6.28319 6.28319 3.14159 3.14159 
3.14159 3.14159 3.14159 6.1053 5.8988 5.67687 5.45995 5.26596 5.10322 
4.97131 4.86569 4.78095 0.177881 0.384387 0.606312 0.823235 1.01722 1.17997 
1.31187 1.4175 1.50223 6.18928 6.10703 6.03531 5.97283 5.91832 5.87061 
5.82869 5.79168 5.75886 0.0939024 0.176153 0.247873 0.310351 0.364864 0.412573 
0.454497 0.491504 0.524326 3.31947 3.52598 3.7479 3.96483 4.15881 4.32156 
4.45346 4.55909 4.64383 2.96371 2.75721 2.53528 2.31836 2.12437 1.96162 
1.82972 1.72409 1.63936 3.2355 3.31775 3.38947 3.45194 3.50646 3.55417 
3.59609 3.6331 3.66592 3.04769 2.96544 2.89372 2.83124 2.77673 2.72902 
2.6871 2.65009 2.61727 6.28319 6.28319 6.28319 6.28319 3.14159 3.14159 
3.14159 3.14159 3.14159 6.1053 5.8988 5.67687 5.45995 5.26596 5.10322 
4.97131 4.86569 4.78095 0.177881 0.384387 0.606312 0.823235 1.01722 1.17997 
1.31187 1.4175 1.50223 6.18928 6.10703 6.03531 5.97283 5.91832 5.87061 
5.82869 5.79168 5.75886 0.0939024 0.176153 0.247873 0.310351 0.364864 0.412573 
0.454497 0.491504 0.524326 3.31947 3.52598 3.7479 3.96483 4.15881 4.32156 
4.45346 4.55909 4.64383 2.96371 2.75721 2.53528 2.31836 2.12437 1.96162 
1.82972 1.72409 1.63936 3.2355 3.31775 3.38947 3.45194 3.50646 3.55417 
3.59609 3.6331 3.66592 3.04769 2.96544 2.89372 2.83124 2.77673 2.72902 
2.6871 2.65009 2.61727 4.71239 4.71239 4.71239 4.71239 4.71239 4.71239 
4.71239 4.71239 4.71239 4.60879 4.49914 4.3857 4.27128 4.15881 4.05096 
3.94976 3.85646 3.77161 4.81599 4.92564 5.03907 5.1535 5.26596 5.37381 
5.47502 5.56831 5.65317 4.60879 4.49914 4.3857 4.27128 4.15881 4.05096 
3.94976 3.85646 3.77161 4.81599 4.92564 5.03907 5.1535 5.26596 5.37381 
5.47502 5.56831 5.65317 1.5708 1.5708 1.5708 1.5708 1.5708 1.5708 
1.5708 1.5708 1.5708 1.6744 1.78405 1.89748 2.01191 2.12437 2.23222 
2.33343 2.42672 2.51157 1.4672 1.35755 1.24411 1.12969 1.01722 0.909371 
0.808166 0.714871 0.63002 1.6744 1.78405 1.89748 2.01191 2.12437 2.23222 
2.33343 2.42672 2.51157 1.4672 1.35755 1.24411 1.12969 1.01722 0.909371 
0.808166 0.714871 0.63002 3.60077 3.49669 3.38395 3.26458 3.14159 3.01861 
2.89924 2.78649 2.68241 5.82401 5.92808 6.04083 6.1602 6.28319 0.122983 
0.242354 0.355101 0.459179 6.05603 5.78856 5.97021 5.51259 5.60297 5.78856 
5.26596 5.26596 5.26596 5.26596 5.06749 5.0121 4.91556 4.71239 4.15881 
4.91556 4.83537 4.71239 4.50922 4.15881 3.63622 4.80045 4.71239 4.58941 
4.41268 4.15881 3.82181 3.45456 4.71239 4.62433 4.50922 4.35729 4.15881 
3.91219 3.63622 3.36875 6.01742 5.94343 5.82633 5.88092 5.76745 5.62798 
5.8278 5.71897 5.58911 5.43724 5.78235 5.67854 5.55757 5.41926 5.26596 
5.74316 5.64441 5.5315 5.40467 5.26596 5.11955 5.70914 5.61528 5.50962 
5.3926 5.26596 5.13292 4.99789 5.67937 5.59016 5.49102 5.38246 5.26596 
5.14407 5.02016 4.89798 5.56831 5.47502 5.47502 5.37381 5.37381 5.37381 
5.26596 5.26596 5.26596 5.26596 5.1535 5.1535 5.1535 5.1535 5.1535 
5.03907 5.03907 5.03907 5.03907 5.03907 5.03907 4.92564 4.92564 4.92564 
4.92564 4.92564 4.92564 4.92564 4.81599 4.81599 4.81599 4.81599 4.81599 
4.81599 4.81599 4.81599 4.60879 4.60879 4.49914 4.60879 4.49914 4.3857 
4.60879 4.49914 4.3857 4.27128 4.60879 4.49914 4.3857 4.27128 4.15881 
4.60879 4.49914 4.3857 4.27128 4.15881 4.05096 4.60879 4.49914 4.3857 
4.27128 4.15881 4.05096 3.94976 4.60879 4.49914 4.3857 4.27128 4.15881 
4.05096 3.94976 3.85646 4.5268 4.40462 4.42689 4.28071 4.29185 4.30523 
4.15881 4.15881 4.15881 4.15881 4.04232 4.03217 4.02011 4.00552 3.98753 
3.93376 3.91515 3.89328 3.86721 3.83566 3.7968 3.83461 3.8095 3.78037 
3.74624 3.70581 3.65733 3.59845 3.7454 3.71564 3.68161 3.64243 3.59698 
3.54386 3.48135 3.40735 3.56428 3.45246 3.52338 3.33203 3.40312 3.47739 
3.20576 3.27463 3.34802 3.42551 3.07742 3.14159 3.21128 3.28647 3.36688 
2.95116 3.00855 3.0719 3.14159 3.21784 3.3006 2.83072 2.88006 2.93517 
2.99672 3.06535 3.14159 3.22575 2.7189 2.7598 2.8058 2.85768 2.9163 
2.98259 3.05743 3.14159 3.56428 3.52338 3.45246 3.47739 3.40312 3.33203 
3.42551 3.34802 3.27463 3.20576 3.36688 3.28647 3.21128 3.14159 3.07742 
3.3006 3.21784 3.14159 3.0719 3.00855 2.95116 3.22575 3.14159 3.06535 
2.99672 2.93517 2.88006 2.83072 3.14159 3.05743 2.98259 2.9163 2.85768 
2.8058 2.7598 2.7189 4.5268 4.42689 4.40462 4.30523 4.29185 4.28071 
4.15881 4.15881 4.15881 4.15881 3.98753 4.00552 4.02011 4.03217 4.04232 
3.7968 3.83566 3.86721 3.89328 3.91515 3.93376 3.59845 3.65733 3.70581 
3.74624 3.78037 3.8095 3.83461 3.40735 3.48135 3.54386 3.59698 3.64243 
3.68161 3.71564 3.7454 4.71239 4.80045 4.62433 4.91556 4.71239 4.50922 
5.06749 4.83537 4.58941 4.35729 5.26596 5.0121 4.71239 4.41268 4.15881 
5.51259 5.26596 4.91556 4.50922 4.15881 3.91219 5.78856 5.60297 5.26596 
4.71239 4.15881 3.82181 3.63622 6.05603 5.97021 5.78856 5.26596 4.15881 
3.63622 3.45456 3.36875 0.227158 0.494626 0.312971 0.770593 0.680215 0.494626 
1.01722 1.01722 1.01722 1.01722 1.2157 1.27109 1.36763 1.5708 2.12437 
1.36763 1.44781 1.5708 1.77397 2.12437 2.64697 1.48273 1.5708 1.69378 
1.8705 2.12437 2.46138 2.82862 1.5708 1.65886 1.77397 1.9259 2.12437 
2.371 2.64697 2.91443 1.75639 1.87857 1.8563 2.00248 1.99133 1.97796 
2.12437 2.12437 2.12437 2.12437 2.24087 2.25101 2.26308 2.27767 2.29565 
2.34943 2.36803 2.38991 2.41597 2.44752 2.48639 2.44857 2.47368 2.50281 
2.53694 2.57738 2.62586 2.68474 2.53778 2.56754 2.60157 2.64076 2.68621 
2.73933 2.80184 2.87583 1.6744 1.6744 1.78405 1.6744 1.78405 1.89748 
1.6744 1.78405 1.89748 2.01191 1.6744 1.78405 1.89748 2.01191 2.12437 
1.6744 1.78405 1.89748 2.01191 2.12437 2.23222 1.6744 1.78405 1.89748 
2.01191 2.12437 2.23222 2.33343 1.6744 1.78405 1.89748 2.01191 2.12437 
2.23222 2.33343 2.42672 1.4672 1.35755 1.4672 1.24411 1.35755 1.4672 
1.12969 1.24411 1.35755 1.4672 1.01722 1.12969 1.24411 1.35755 1.4672 
0.909371 1.01722 1.12969 1.24411 1.35755 1.4672 0.808166 0.909371 1.01722 
1.12969 1.24411 1.35755 1.4672 0.714871 0.808166 0.909371 1.01722 1.12969 
1.24411 1.35755 1.4672 0.603812 0.57405 0.693022 0.540021 0.667908 0.792164 
0.500837 0.638778 0.773562 0.900726 0.455383 0.604649 0.751687 0.890581 1.01722 
0.402264 0.564217 0.725619 0.878514 1.01722 1.13912 0.339753 0.515737 0.694072 
0.863926 1.01722 1.15026 1.26302 0.265762 0.456853 0.655207 0.845941 1.01722 
1.16363 1.28529 1.38521 0.227158 0.312971 0.494626 0.494626 0.680215 0.770593 
1.01722 1.01722 1.01722 1.01722 2.12437 1.5708 1.36763 1.27109 1.2157 
2.64697 2.12437 1.77397 1.5708 1.44781 1.36763 2.82862 2.46138 2.12437 
1.8705 1.69378 1.5708 1.48273 2.91443 2.64697 2.371 2.12437 1.9259 
1.77397 1.65886 1.5708 1.75639 1.8563 1.87857 1.97796 1.99133 2.00248 
2.12437 2.12437 2.12437 2.12437 2.29565 2.27767 2.26308 2.25101 2.24087 
2.48639 2.44752 2.41597 2.38991 2.36803 2.34943 2.68474 2.62586 2.57738 
2.53694 2.50281 2.47368 2.44857 2.87583 2.80184 2.73933 2.68621 2.64076 
2.60157 2.56754 2.53778 5.86049 5.90139 5.97231 5.94739 6.02165 6.09275 
5.99927 6.07676 6.15015 6.21902 6.0579 6.13831 6.2135 0 0.0641696 
6.12418 6.20694 6.28319 0.069689 0.13304 0.190437 6.19903 0 0.0762451 
0.144876 0.206423 0.261531 0.310872 0 0.0841597 0.159004 0.225289 0.283913 
0.335793 0.381792 0.422692 5.86049 5.97231 5.90139 6.09275 6.02165 5.94739 
6.21902 6.15015 6.07676 5.99927 0.0641696 0 6.2135 6.13831 6.0579 
0.190437 0.13304 0.069689 6.28319 6.20694 6.12418 0.310872 0.261531 0.206423 
0.144876 0.0762451 6.28319 6.19903 0.422692 0.381792 0.335793 0.283913 0.225289 
0.159004 0.0841597 0 5.67937 5.70914 5.59016 5.74316 5.61528 5.49102 
5.78235 5.64441 5.50962 5.38246 5.8278 5.67854 5.5315 5.3926 5.26596 
5.88092 5.71897 5.55757 5.40467 5.26596 5.14407 5.94343 5.76745 5.58911 
5.41926 5.26596 5.13292 5.02016 6.01742 5.82633 5.62798 5.43724 5.26596 
5.11955 4.99789 4.89798 1.38521 1.28529 1.26302 1.16363 1.15026 1.13912 
1.01722 1.01722 1.01722 1.01722 0.845941 0.863926 0.878514 0.890581 0.900726 
0.655207 0.694072 0.725619 0.751687 0.773562 0.792164 0.456853 0.515737 0.564217 
0.604649 0.638778 0.667908 0.693022 0.265762 0.339753 0.402264 0.455383 0.500837 
0.540021 0.57405 0.603812 
