# vtk DataFile Version 4.0
vtk output
ASCII
DATASET POLYDATA
POINTS 1002 float
-119.269 -102.374 71.6452 -114.525 -94.741 71.6954 -113.542 -105.202 72.1759 
-108.675 -98.9266 72.2657 -115.541 -98.6756 66.4064 -111.502 -101.157 67.4971 
-115.305 -99.655 77.0537 -112.592 -101.476 76.9499 -109.68 -93.6044 69.2791 
-118.28 -106.623 68.717 -110.619 -94.0795 75.2544 -118.286 -107.799 75.6648 
-118.603 -101.621 71.7234 -117.964 -100.855 71.7261 -117.458 -100.187 71.6511 
-117.141 -99.2196 71.6298 -116.937 -98.0305 71.7628 -116.408 -97.4273 71.88 
-115.54 -97.1901 71.8463 -114.946 -96.4627 71.7673 -114.747 -95.435 71.7217 
-118.933 -102.235 71.1799 -118.32 -101.951 70.6705 -117.893 -101.55 70.1151 
-117.8 -101.053 69.4526 -117.747 -100.391 68.6207 -117.602 -99.7167 67.7748 
-117.277 -99.3435 67.2261 -116.658 -99.1917 66.9801 -115.989 -98.9727 66.7517 
-118.904 -101.963 72.1636 -118.415 -101.52 72.6173 -117.917 -101.339 72.9881 
-117.478 -101.295 73.5233 -117.156 -100.95 74.3253 -116.902 -100.401 75.0925 
-116.575 -100.066 75.6646 -116.141 -99.9401 76.1825 -115.687 -99.8234 76.6738 
-119.753 -102.836 71.286 -119.89 -103.106 71.0267 -119.524 -103.635 70.7417 
-119.26 -104.514 70.1933 -119.626 -105.122 69.619 -119.847 -105.441 69.4343 
-119.296 -105.972 69.4659 -118.665 -106.483 69.3396 -118.445 -106.637 69.0404 
-119.476 -102.829 71.8074 -119.118 -103.357 71.8301 -118.547 -104.042 71.7924 
-118.399 -104.771 72.003 -118.58 -105.383 72.5676 -118.542 -105.934 73.1548 
-118.425 -106.517 73.6589 -118.517 -107.106 74.3499 -118.546 -107.59 75.1534 
-114.632 -94.9096 71.1919 -114.615 -95.2914 70.7001 -114.602 -95.7816 70.1371 
-114.675 -96.2948 69.4664 -114.765 -96.8115 68.9206 -114.887 -97.2662 68.5012 
-115.1 -97.5831 67.8783 -115.337 -97.8306 67.1396 -115.502 -98.1777 66.6407 
-114.51 -95.0876 72.2134 -114.395 -95.6736 72.7317 -114.352 -96.2349 73.3127 
-114.56 -96.5442 74.0997 -114.848 -96.8483 74.959 -114.982 -97.3606 75.5426 
-115.054 -97.9307 75.9197 -115.146 -98.5127 76.3386 -115.21 -99.1285 76.7384 
-114.177 -94.4452 71.332 -113.646 -94.2383 70.9093 -113.085 -93.8427 70.5412 
-112.539 -93.3443 70.2933 -111.989 -92.9843 70.0225 -111.474 -92.6548 69.6625 
-110.95 -92.4084 69.3785 -110.397 -92.564 69.262 -109.952 -93.0636 69.2503 
-114.094 -94.5394 72.0286 -113.624 -94.3131 72.426 -113.322 -93.8695 72.8275 
-112.927 -93.6375 73.189 -112.277 -93.7924 73.5733 -111.779 -93.7239 74.0613 
-111.499 -93.4145 74.5881 -111.169 -93.4366 74.9849 -110.846 -93.7667 75.1765 
-112.809 -105.053 72.2104 -112.465 -104.406 72.2114 -112.143 -103.483 72.1932 
-111.443 -102.797 72.1468 -110.708 -102.182 72.1065 -110.188 -101.407 72.0703 
-109.659 -100.775 72.0155 -109.192 -100.236 72.0165 -108.914 -99.5673 72.1184 
-113.292 -105.11 71.6089 -113.04 -104.975 70.8499 -112.794 -104.774 70.1855 
-112.668 -104.348 69.7627 -112.677 -103.649 69.4007 -112.58 -102.997 68.9461 
-112.226 -102.587 68.4289 -111.817 -102.193 67.9649 -111.578 -101.677 67.6653 
-113.39 -105.136 72.5604 -113.548 -104.739 72.8327 -113.796 -104.123 73.2199 
-113.739 -103.666 73.8619 -113.369 -103.516 74.6128 -113.06 -103.282 75.2673 
-113.004 -102.724 75.7274 -113.007 -102.152 76.0593 -112.849 -101.786 76.4554 
-114.385 -105.144 71.765 -115.091 -105.375 71.2378 -115.329 -106.092 70.7675 
-115.607 -106.72 70.4572 -116.257 -106.924 70.1301 -116.696 -107.181 69.6626 
-116.882 -107.471 69.2511 -117.347 -107.335 69.0297 -117.95 -106.927 68.8875 
-114.285 -105.299 72.3418 -114.955 -105.631 72.4367 -115.489 -106.144 72.5998 
-116.027 -106.516 72.9141 -116.514 -106.736 73.3078 -116.78 -107.091 73.7501 
-117.01 -107.534 74.3469 -117.433 -107.838 75.0415 -117.928 -107.939 75.5403 
-108.634 -99.2404 71.7335 -108.625 -99.5955 71.1119 -108.493 -100.056 70.4305 
-108.254 -100.571 69.7544 -108.373 -100.852 69.2244 -109.15 -100.774 68.8821 
-110.073 -100.652 68.5505 -110.628 -100.74 68.143 -111.004 -100.947 67.7731 
-108.972 -98.9797 72.6569 -109.3 -99.1441 73.1453 -109.549 -99.4461 73.7817 
-109.89 -99.6683 74.3721 -110.519 -99.705 74.7618 -111.188 -99.8169 75.1068 
-111.712 -100.151 75.5486 -112.156 -100.585 76.0347 -112.451 -101.039 76.5082 
-108.334 -98.5661 72.0716 -108.048 -98.1073 71.7473 -107.97 -97.383 71.3325 
-108.018 -96.4387 70.8772 -107.995 -95.4841 70.3657 -108.031 -94.6623 69.9449 
-108.347 -94.0897 69.7729 -108.832 -93.8012 69.6838 -109.287 -93.6733 69.4998 
-108.535 -98.4227 72.673 -108.371 -97.9194 73.0947 -108.359 -97.2362 73.478 
-108.57 -96.4141 73.7981 -108.703 -95.7346 74.1869 -108.64 -95.0987 74.7612 
-108.771 -94.401 75.2581 -109.304 -94.008 75.3718 -110.01 -94.0137 75.2615 
-115.297 -98.8952 65.941 -114.978 -99.1879 65.2042 -114.557 -99.3831 64.7044 
-114.026 -99.4289 65.0621 -113.343 -99.6873 65.7927 -112.683 -100.313 66.1085 
-112.339 -100.811 66.3093 -112.166 -100.942 66.7658 -111.868 -101.006 67.2134 
-115.193 -98.0634 66.2432 -114.574 -97.5936 66.4339 -113.571 -97.2819 66.8158 
-112.659 -96.7668 66.9933 -112.223 -95.9857 67.1261 -111.855 -95.4774 67.6784 
-111.235 -95.2529 68.3998 -110.598 -94.801 68.8164 -110.098 -94.1417 69.0267 
-115.686 -99.4441 66.5889 -115.856 -100.3 66.8576 -116.264 -101.255 66.82 
-116.936 -102.185 66.4156 -117.597 -102.935 66.2299 -118.037 -103.785 66.5269 
-118.239 -104.933 66.9413 -118.271 -105.888 67.3934 -118.264 -106.336 68.0342 
-111.098 -100.585 67.4552 -110.577 -100.106 67.2432 -109.944 -99.5066 66.9698 
-109.449 -98.54 66.9183 -109.317 -97.4877 67.1959 -109.457 -96.735 67.7552 
-109.641 -96.086 68.4299 -109.733 -95.283 68.9159 -109.724 -94.4152 69.1403 
-112.178 -101.698 67.3461 -112.947 -102.201 67.2986 -113.644 -102.701 67.3348 
-114.304 -103.453 67.2382 -114.975 -104.41 67.0134 -115.557 -105.273 66.935 
-116.23 -105.932 67.0902 -117.114 -106.322 67.4442 -117.868 -106.472 68.0212 
-115.223 -99.7903 77.4414 -115.192 -99.8571 77.9323 -115.062 -99.9093 78.5464 
-114.657 -100.087 78.8886 -114.159 -100.341 78.6553 -113.773 -100.574 78.2717 
-113.318 -100.896 78.1205 -112.815 -101.266 77.9479 -112.571 -101.465 77.517 
-114.969 -99.0621 77.2168 -114.766 -98.2446 77.4636 -114.506 -97.1952 77.7817 
-114.043 -95.9451 78.0538 -113.432 -94.9812 78.0419 -112.775 -94.7065 77.6403 
-112.159 -94.7081 76.9779 -111.66 -94.5621 76.2317 -111.194 -94.3303 75.6071 
-115.821 -100.106 77.2485 -116.534 -100.427 77.5477 -116.973 -101.048 77.5945 
-116.975 -102.231 77.2513 -117.137 -103.375 76.9661 -117.691 -103.988 76.7919 
-118.101 -104.683 76.3422 -118.212 -105.9 75.8761 -118.272 -107.107 75.7442 
-112.341 -100.727 77.1412 -112.161 -99.7891 77.1525 -111.909 -98.884 76.9855 
-111.533 -98.029 76.8753 -111.1 -97.146 76.9547 -110.739 -96.3927 76.9245 
-110.636 -95.8163 76.4846 -110.74 -95.2203 75.874 -110.765 -94.5933 75.4714 
-113.001 -102.028 77.0376 -113.746 -102.437 77.0576 -114.558 -102.951 77.0304 
-115.025 -103.851 77.0898 -115.418 -104.734 77.1202 -116.154 -105.056 76.6675 
-116.893 -105.34 75.9228 -117.396 -106.22 75.6391 -117.864 -107.258 75.7825 
-109.392 -92.8826 69.5847 -109.058 -92.1986 69.9148 -108.734 -91.6268 70.3546 
-108.653 -91.3888 71.1735 -108.913 -91.5466 72.2033 -109.192 -91.9483 72.9892 
-109.318 -92.5164 73.6504 -109.565 -93.1279 74.3771 -110.065 -93.6376 74.9367 
-118.525 -107.213 69.3984 -118.904 -108.265 69.6482 -119.291 -109.287 69.7237 
-119.528 -109.709 70.3826 -119.527 -109.582 71.4481 -119.182 -109.061 71.9934 
-118.676 -108.331 72.3999 -118.411 -107.947 73.5447 -118.379 -107.965 74.9213 
-118.18 -101.43 71.2275 -117.8 -101.037 70.6937 -117.651 -100.6 71.2363 
-117.759 -100.506 70.0735 -117.584 -100.097 70.6655 -117.306 -99.7783 71.1267 
-117.778 -99.9227 69.2857 -117.7 -99.4581 69.9244 -117.374 -99.1255 70.4917 
-117.043 -98.677 71.0349 -117.554 -99.3624 68.4574 -117.485 -98.9634 69.091 
-117.339 -98.4869 69.7128 -117.006 -98.0857 70.3655 -116.645 -97.7495 71.066 
-117.157 -99.0095 67.8649 -116.897 -98.7825 68.5323 -116.8 -98.2759 69.0453 
-116.739 -97.6727 69.6646 -116.338 -97.4577 70.3949 -115.839 -97.4212 71.1141 
-116.584 -98.8285 67.4738 -116.256 -98.6881 68.2403 -116.025 -98.3524 68.7631 
-116.084 -97.6453 69.1405 -115.934 -97.1562 69.7864 -115.411 -97.0941 70.5194 
-115.047 -96.9065 71.1561 -115.953 -98.5525 67.0586 -115.711 -98.3392 67.7724 
-115.434 -98.1297 68.4887 -115.371 -97.6236 68.8584 -115.359 -96.9967 69.2765 
-115.082 -96.6151 69.9886 -114.788 -96.313 70.6609 -114.746 -95.8501 71.1996 
-119.274 -102.667 70.8634 -119.242 -103.017 70.6458 -118.49 -102.433 70.3383 
-118.89 -103.646 70.2596 -118.474 -102.876 70.0389 -118.014 -102.085 69.6889 
-118.885 -104.386 69.6059 -118.442 -103.402 69.5339 -118.193 -102.463 69.2278 
-117.898 -101.519 68.8829 -119.224 -104.828 69.1075 -118.642 -103.915 68.9011 
-118.422 -102.789 68.6452 -118.129 -101.814 68.2673 -117.789 -100.78 67.9344 
-119.07 -105.269 68.9108 -118.747 -104.417 68.417 -118.542 -103.259 68.0534 
-118.289 -102.203 67.6746 -117.856 -101.271 67.3527 -117.553 -100.217 67.1813 
-118.558 -105.86 68.6851 -118.547 -105.042 68.0224 -118.485 -103.878 67.5343 
-118.246 -102.778 67.1446 -117.788 -101.926 66.9464 -117.343 -100.98 66.9435 
-117.039 -99.9641 66.9427 -118.341 -106.231 68.3413 -118.387 -105.592 67.6454 
-118.402 -104.477 67.13 -118.166 -103.327 66.711 -117.665 -102.507 66.5497 
-117.068 -101.696 66.7912 -116.607 -100.705 67.0002 -116.299 -99.7529 66.9038 
-117.881 -106.157 67.3926 -117.021 -105.791 67.041 -117.788 -105.435 66.9822 
-116.085 -105.169 66.863 -116.826 -104.838 66.8119 -117.612 -104.323 66.6428 
-115.403 -104.363 66.7546 -115.919 -104.23 66.6236 -116.704 -103.876 66.4401 
-117.359 -103.379 66.2087 -114.692 -103.457 66.7721 -115.129 -103.535 66.42 
-115.835 -103.441 66.2375 -116.537 -103.049 66.0646 -116.848 -102.57 66.0837 
-113.913 -102.684 66.8252 -114.193 -102.798 66.3044 -114.801 -102.728 66.0983 
-115.55 -102.347 66.0248 -115.939 -101.881 66.0098 -116.054 -101.531 66.3546 
-113.241 -102.148 66.8549 -113.373 -102.218 66.2847 -113.71 -102.003 66.0156 
-114.396 -101.394 65.986 -114.95 -100.875 65.7903 -115.2 -100.642 65.8381 
[...]
POINT_DATA 1002
FIELD FieldData 2
Theta 1 1002 float
2.58802 2.58802 0.553574 0.553574 2.12437 1.01722 2.12437 1.01722 1.5708 
1.5708 1.5708 1.5708 2.68241 2.78649 2.89924 3.01861 3.14159 3.01861 
2.89924 2.78649 2.68241 2.61035 2.61791 2.60515 2.56958 2.51327 2.44184 
2.36202 2.27983 2.1997 2.61035 2.61791 2.60515 2.56958 2.51327 2.44184 
2.36202 2.27983 2.1997 2.50947 2.41899 2.31794 2.20864 2.0944 1.97902 
1.86631 1.75944 1.66056 2.50947 2.41899 2.31794 2.20864 2.0944 1.97902 
1.86631 1.75944 1.66056 2.61035 2.61791 2.60515 2.56958 2.51327 2.44184 
2.36202 2.27983 2.1997 2.61035 2.61791 2.60515 2.56958 2.51327 2.44184 
2.36202 2.27983 2.1997 2.50947 2.41899 2.31794 2.20864 2.0944 1.97902 
1.86631 1.75944 1.66056 2.50947 2.41899 2.31794 2.20864 2.0944 1.97902 
1.86631 1.75944 1.66056 0.459179 0.355101 0.242354 0.122983 0 0.122983 
0.242354 0.355101 0.459179 0.531246 0.523681 0.536438 0.57201 0.628319 0.699757 
0.779574 0.86176 0.941896 0.531246 0.523681 0.536438 0.57201 0.628319 0.699757 
0.779574 0.86176 0.941896 0.632123 0.7226 0.823657 0.932948 1.0472 1.16257 
1.27528 1.38216 1.48103 0.632123 0.7226 0.823657 0.932948 1.0472 1.16257 
1.27528 1.38216 1.48103 0.531246 0.523681 0.536438 0.57201 0.628319 0.699757 
0.779574 0.86176 0.941896 0.531246 0.523681 0.536438 0.57201 0.628319 0.699757 
0.779574 0.86176 0.941896 0.632123 0.7226 0.823657 0.932948 1.0472 1.16257 
1.27528 1.38216 1.48103 0.632123 0.7226 0.823657 0.932948 1.0472 1.16257 
1.27528 1.38216 1.48103 2.02998 1.9259 1.81315 1.69378 1.5708 1.44781 
1.32844 1.2157 1.11162 2.0928 2.05283 2.00422 1.94767 1.88496 1.81867 
1.75177 1.68695 1.62623 2.0928 2.05283 2.00422 1.94767 1.88496 1.81867 
1.75177 1.68695 1.62623 1.0488 1.08876 1.13737 1.19392 1.25664 1.32292 
1.38982 1.45464 1.51537 1.0488 1.08876 1.13737 1.19392 1.25664 1.32292 
1.38982 1.45464 1.51537 2.02998 1.9259 1.81315 1.69378 1.5708 1.44781 
1.32844 1.2157 1.11162 2.0928 2.05283 2.00422 1.94767 1.88496 1.81867 
1.75177 1.68695 1.62623 2.0928 2.05283 2.00422 1.94767 1.88496 1.81867 
1.75177 1.68695 1.62623 1.0488 1.08876 1.13737 1.19392 1.25664 1.32292 
1.38982 1.45464 1.51537 1.0488 1.08876 1.13737 1.19392 1.25664 1.32292 
1.38982 1.45464 1.51537 1.5708 1.5708 1.5708 1.5708 1.5708 1.5708 
1.5708 1.5708 1.5708 1.5708 1.5708 1.5708 1.5708 1.5708 1.5708 
1.5708 1.5708 1.5708 2.70908 2.71362 2.81592 2.68886 2.81002 2.92597 
2.6349 2.76254 2.89233 3.01997 2.55881 2.68262 2.80854 2.92834 3.01997 
2.47007 2.58462 2.70048 2.80854 2.89233 2.92597 2.37702 2.48017 2.58462 
2.68262 2.76254 2.81002 2.81592 2.28567 2.37702 2.47007 2.55881 2.6349 
2.68886 2.71362 2.70908 2.52097 2.4195 2.51718 2.30791 2.40503 2.49426 
2.18928 2.28408 2.3734 2.45144 2.06758 2.15805 2.24572 2.32523 2.39165 
1.94707 2.03138 2.11543 2.19453 2.26401 2.32035 1.83164 1.90847 1.98711 
2.06376 2.13422 2.1949 2.24359 1.72413 1.79288 1.86489 1.93728 2.00658 
2.06938 2.12312 2.16654 1.5708 1.50988 1.63171 1.44492 1.5708 1.69667 
1.37826 1.5059 1.63569 1.76333 1.31281 1.43962 1.5708 1.70197 1.82878 
1.25155 1.37501 1.50478 1.63681 1.76659 1.89004 1.19686 1.31493 1.44074 
1.5708 1.70086 1.82666 1.94473 1.15011 1.26149 1.38136 1.50697 1.63462 
1.76024 1.88011 1.99148 1.99148 1.88011 1.94473 1.76024 1.82666 1.89004 
1.63462 1.70086 1.76659 1.82878 1.50697 1.5708 1.63681 1.70197 1.76333 
1.38136 1.44074 1.50478 1.5708 1.63569 1.69667 1.26149 1.31493 1.37501 
1.43962 1.5059 1.5708 1.63171 1.15011 1.19686 1.25155 1.31281 1.37826 
1.44492 1.50988 1.5708 2.16654 2.12312 2.24359 2.06938 2.1949 2.32035 
2.00658 2.13422 2.26401 2.39165 1.93728 2.06376 2.19453 2.32523 2.45144 
1.86489 1.98711 2.11543 2.24572 2.3734 2.49426 1.79288 1.90847 2.03138 
2.15805 2.28408 2.40503 2.51718 1.72413 1.83164 1.94707 2.06758 2.18928 
2.30791 2.4195 2.52097 1.66533 1.66946 1.76911 1.67254 1.777 1.88041 
1.67418 1.78222 1.89102 1.99634 1.67418 1.78405 1.89674 2.00785 2.11299 
1.67254 1.78222 1.89674 2.01191 2.12307 2.22608 1.66946 1.777 1.89102 
2.00785 2.12307 2.23222 2.33166 1.66533 1.76911 1.88041 1.99634 2.11299 
2.22608 2.33166 2.42672 1.47626 1.37249 1.47213 1.26118 1.36459 1.46906 
1.14526 1.25058 1.35938 1.46741 1.0286 1.13374 1.24485 1.35755 1.46741 
0.915514 1.01852 1.12969 1.24485 1.35938 1.46906 0.809937 0.909371 1.01852 
1.13374 1.25058 1.36459 1.47213 0.714871 0.809937 0.915514 1.0286 1.14526 
1.26118 1.37249 1.47626 0.975055 0.898002 1.01847 0.821245 0.946693 1.07221 
0.749941 0.877585 1.00737 1.13501 0.690152 0.816367 0.94706 1.07784 1.20431 
0.647337 0.768195 0.895868 1.02616 1.15448 1.2767 0.624416 0.736561 0.857515 
0.983547 1.11021 1.23313 1.34871 0.620619 0.722093 0.833684 0.952313 1.07402 
1.19452 1.30996 1.41746 0.855925 0.764569 0.764569 0.671524 0.661425 0.671524 
0.582786 0.556971 0.556971 0.582786 0.506696 0.458968 0.441109 0.458968 0.506696 
0.45273 0.379052 0.333054 0.333054 0.379052 0.45273 0.427969 0.331576 0.249267 
0.21325 0.249267 0.331576 0.427969 0.432512 0.325669 0.215619 0.121622 0.121622 
0.215619 0.325669 0.432512 0.432512 0.427969 0.325669 0.45273 0.331576 0.215619 
0.506696 0.379052 0.249267 0.121622 0.582786 0.458968 0.333054 0.21325 0.121622 
0.671524 0.556971 0.441109 0.333054 0.249267 0.215619 0.764569 0.661425 0.556971 
0.458968 0.379052 0.331576 0.325669 0.855925 0.764569 0.671524 0.582786 0.506696 
0.45273 0.427969 0.432512 0.975055 1.01847 0.898002 1.07221 0.946693 0.821245 
1.13501 1.00737 0.877585 0.749941 1.20431 1.07784 0.94706 0.816367 0.690152 
1.2767 1.15448 1.02616 0.895868 0.768195 0.647337 1.34871 1.23313 1.11021 
0.983547 0.857515 0.736561 0.624416 1.41746 1.30996 1.19452 1.07402 0.952313 
0.833684 0.722093 0.620619 1.15011 1.26149 1.19686 1.38136 1.31493 1.25155 
1.50697 1.44074 1.37501 1.31281 1.63462 1.5708 1.50478 1.43962 1.37826 
1.76024 1.70086 1.63681 1.5708 1.5059 1.44492 1.88011 1.82666 1.76659 
1.70197 1.63569 1.5708 1.50988 1.99148 1.94473 1.89004 1.82878 1.76333 
1.69667 1.63171 1.5708 1.15011 1.19686 1.26149 1.25155 1.31493 1.38136 
1.31281 1.37501 1.44074 1.50697 1.37826 1.43962 1.50478 1.5708 1.63462 
1.44492 1.5059 1.5708 1.63681 1.70086 1.76024 1.50988 1.5708 1.63569 
1.70197 1.76659 1.82666 1.88011 1.5708 1.63171 1.69667 1.76333 1.82878 
1.89004 1.94473 1.99148 1.72413 1.83164 1.79288 1.94707 1.90847 1.86489 
2.06758 2.03138 1.98711 1.93728 2.18928 2.15805 2.11543 2.06376 2.00658 
2.30791 2.28408 2.24572 2.19453 2.13422 2.06938 2.4195 2.40503 2.3734 
2.32523 2.26401 2.1949 2.12312 2.52097 2.51718 2.49426 2.45144 2.39165 
2.32035 2.24359 2.16654 2.70908 2.81592 2.71362 2.92597 2.81002 2.68886 
3.01997 2.89233 2.76254 2.6349 3.01997 2.92834 2.80854 2.68262 2.55881 
2.92597 2.89233 2.80854 2.70048 2.58462 2.47007 2.81592 2.81002 2.76254 
2.68262 2.58462 2.48017 2.37702 2.70908 2.71362 2.68886 2.6349 2.55881 
2.47007 2.37702 2.28567 2.16654 2.24359 2.12312 2.32035 2.1949 2.06938 
2.39165 2.26401 2.13422 2.00658 2.45144 2.32523 2.19453 2.06376 1.93728 
2.49426 2.3734 2.24572 2.11543 1.98711 1.86489 2.51718 2.40503 2.28408 
2.15805 2.03138 1.90847 1.79288 2.52097 2.4195 2.30791 2.18928 2.06758 
1.94707 1.83164 1.72413 1.66533 1.76911 1.66946 1.88041 1.777 1.67254 
1.99634 1.89102 1.78222 1.67418 2.11299 2.00785 1.89674 1.78405 1.67418 
2.22608 2.12307 2.01191 1.89674 1.78222 1.67254 2.33166 2.23222 2.12307 
2.00785 1.89102 1.777 1.66946 2.42672 2.33166 2.22608 2.11299 1.99634 
1.88041 1.76911 1.66533 1.47626 1.47213 1.37249 1.46906 1.36459 1.26118 
1.46741 1.35938 1.25058 1.14526 1.46741 1.35755 1.24485 1.13374 1.0286 
1.46906 1.35938 1.24485 1.12969 1.01852 0.915514 1.47213 1.36459 1.25058 
1.13374 1.01852 0.909371 0.809937 1.47626 1.37249 1.26118 1.14526 1.0286 
0.915514 0.809937 0.714871 1.41746 1.30996 1.34871 1.19452 1.23313 1.2767 
1.07402 1.11021 1.15448 1.20431 0.952313 0.983547 1.02616 1.07784 1.13501 
0.833684 0.857515 0.895868 0.94706 1.00737 1.07221 0.722093 0.736561 0.768195 
0.816367 0.877585 0.946693 1.01847 0.620619 0.624416 0.647337 0.690152 0.749941 
0.821245 0.898002 0.975055 0.975055 0.898002 1.01847 0.821245 0.946693 1.07221 
0.749941 0.877585 1.00737 1.13501 0.690152 0.816367 0.94706 1.07784 1.20431 
0.647337 0.768195 0.895868 1.02616 1.15448 1.2767 0.624416 0.736561 0.857515 
0.983547 1.11021 1.23313 1.34871 0.620619 0.722093 0.833684 0.952313 1.07402 
1.19452 1.30996 1.41746 
Phi 1 1002 float
6.28319 3.14159 6.28319 3.14159 4.71239 4.71239 1.5708 1.5708 3.69517 
5.72961 2.58802 0.553574 6.28319 6.28319 6.28319 6.28319 3.14159 3.14159 
3.14159 3.14159 3.14159 6.1053 5.8988 5.67687 5.45995 5.26596 5.10322 
4.97131 4.86569 4.78095 0.177881 0.384387 0.606312 0.823235 1.01722 1.17997 
1.31187 1.4175 1.50223 6.18928 6.10703 6.03531 5.97283 5.91832 5.87061 
5.82869 5.79168 5.75886 0.0939024 0.176153 0.247873 0.310351 0.364864 0.412573 
0.454497 0.491504 0.524326 3.31947 3.52598 3.7479 3.96483 4.15881 4.32156 
4.45346 4.55909 4.64383 2.96371 2.75721 2.53528 2.31836 2.12437 1.96162 
1.82972 1.72409 1.63936 3.2355 3.31775 3.38947 3.45194 3.50646 3.55417 
3.59609 3.6331 3.66592 3.04769 2.96544 2.89372 2.83124 2.77673 2.72902 
2.6871 2.65009 2.61727 6.28319 6.28319 6.28319 6.28319 3.14159 3.14159 
3.14159 3.14159 3.14159 6.1053 5.8988 5.67687 5.45995 5.26596 5.10322 
4.97131 4.86569 4.78095 0.177881 0.384387 0.606312 0.823235 1.01722 1.17997 
1.31187 1.4175 1.50223 6.18928 6.10703 6.03531 5.97283 5.91832 5.87061 
5.82869 5.79168 5.75886 0.0939024 0.176153 0.247873 0.310351 0.364864 0.412573 
0.454497 0.491504 0.524326 3.31947 3.52598 3.7479 3.96483 4.15881 4.32156 
4.45346 4.55909 4.64383 2.96371 2.75721 2.53528 2.31836 2.12437 1.96162 
1.82972 1.72409 1.63936 3.2355 3.31775 3.38947 3.45194 3.50646 3.55417 
3.59609 3.6331 3.66592 3.04769 2.96544 2.89372 2.83124 2.77673 2.72902 
2.6871 2.65009 2.61727 4.71239 4.71239 4.71239 4.71239 4.71239 4.71239 
4.71239 4.71239 4.71239 4.60879 4.49914 4.3857 4.27128 4.15881 4.05096 
3.94976 3.85646 3.77161 4.81599 4.92564 5.03907 5.1535 5.26596 5.37381 
5.47502 5.56831 5.65317 4.60879 4.49914 4.3857 4.27128 4.15881 4.05096 
3.94976 3.85646 3.77161 4.81599 4.92564 5.03907 5.1535 5.26596 5.37381 
5.47502 5.56831 5.65317 1.5708 1.5708 1.5708 1.5708 1.5708 1.5708 
1.5708 1.5708 1.5708 1.6744 1.78405 1.89748 2.01191 2.12437 2.23222 
2.33343 2.42672 2.51157 1.4672 1.35755 1.24411 1.12969 1.01722 0.909371 
0.808166 0.714871 0.63002 1.6744 1.78405 1.89748 2.01191 2.12437 2.23222 
2.33343 2.42672 2.51157 1.4672 1.35755 1.24411 1.12969 1.01722 0.909371 
0.808166 0.714871 0.63002 3.60077 3.49669 3.38395 3.26458 3.14159 3.01861 
2.89924 2.78649 2.68241 5.82401 5.92808 6.04083 6.1602 6.28319 0.122983 
0.242354 0.355101 0.459179 6.05603 5.78856 5.97021 5.51259 5.60297 5.78856 
5.26596 5.26596 5.26596 5.26596 5.06749 5.0121 4.91556 4.71239 4.15881 
4.91556 4.83537 4.71239 4.50922 4.15881 3.63622 4.80045 4.71239 4.58941 
4.41268 4.15881 3.82181 3.45456 4.71239 4.62433 4.50922 4.35729 4.15881 
3.91219 3.63622 3.36875 6.01742 5.94343 5.82633 5.88092 5.76745 5.62798 
5.8278 5.71897 5.58911 5.43724 5.78235 5.67854 5.55757 5.41926 5.26596 
5.74316 5.64441 5.5315 5.40467 5.26596 5.11955 5.70914 5.61528 5.50962 
5.3926 5.26596 5.13292 4.99789 5.67937 5.59016 5.49102 5.38246 5.26596 
5.14407 5.02016 4.89798 5.56831 5.47502 5.47502 5.37381 5.37381 5.37381 
5.26596 5.26596 5.26596 5.26596 5.1535 5.1535 5.1535 5.1535 5.1535 
5.03907 5.03907 5.03907 5.03907 5.03907 5.03907 4.92564 4.92564 4.92564 
4.92564 4.92564 4.92564 4.92564 4.81599 4.81599 4.81599 4.81599 4.81599 
4.81599 4.81599 4.81599 4.60879 4.60879 4.49914 4.60879 4.49914 4.3857 
4.60879 4.49914 4.3857 4.27128 4.60879 4.49914 4.3857 4.27128 4.15881 
4.60879 4.49914 4.3857 4.27128 4.15881 4.05096 4.60879 4.49914 4.3857 
4.27128 4.15881 4.05096 3.94976 4.60879 4.49914 4.3857 4.27128 4.15881 
4.05096 3.94976 3.85646 4.5268 4.40462 4.42689 4.28071 4.29185 4.30523 
4.15881 4.15881 4.15881 4.15881 4.04232 4.03217 4.02011 4.00552 3.98753 
3.93376 3.91515 3.89328 3.86721 3.83566 3.7968 3.83461 3.8095 3.78037 
3.74624 3.70581 3.65733 3.59845 3.7454 3.71564 3.68161 3.64243 3.59698 
3.54386 3.48135 3.40735 3.56428 3.45246 3.52338 3.33203 3.40312 3.47739 
3.20576 3.27463 3.34802 3.42551 3.07742 3.14159 3.21128 3.28647 3.36688 
2.95116 3.00855 3.0719 3.14159 3.21784 3.3006 2.83072 2.88006 2.93517 
2.99672 3.06535 3.14159 3.22575 2.7189 2.7598 2.8058 2.85768 2.9163 
2.98259 3.05743 3.14159 3.56428 3.52338 3.45246 3.47739 3.40312 3.33203 
3.42551 3.34802 3.27463 3.20576 3.36688 3.28647 3.21128 3.14159 3.07742 
3.3006 3.21784 3.14159 3.0719 3.00855 2.95116 3.22575 3.14159 3.06535 
2.99672 2.93517 2.88006 2.83072 3.14159 3.05743 2.98259 2.9163 2.85768 
2.8058 2.7598 2.7189 4.5268 4.42689 4.40462 4.30523 4.29185 4.28071 
4.15881 4.15881 4.15881 4.15881 3.98753 4.00552 4.02011 4.03217 4.04232 
3.7968 3.83566 3.86721 3.89328 3.91515 3.93376 3.59845 3.65733 3.70581 
3.74624 3.78037 3.8095 3.83461 3.40735 3.48135 3.54386 3.59698 3.64243 
3.68161 3.71564 3.7454 4.71239 4.80045 4.62433 4.91556 4.71239 4.50922 
5.06749 4.83537 4.58941 4.35729 5.26596 5.0121 4.71239 4.41268 4.15881 
5.51259 5.26596 4.91556 4.50922 4.15881 3.91219 5.78856 5.60297 5.26596 
4.71239 4.15881 3.82181 3.63622 6.05603 5.97021 5.78856 5.26596 4.15881 
3.63622 3.45456 3.36875 0.227158 0.494626 0.312971 0.770593 0.680215 0.494626 
1.01722 1.01722 1.01722 1.01722 1.2157 1.27109 1.36763 1.5708 2.12437 
1.36763 1.44781 1.5708 1.77397 2.12437 2.64697 1.48273 1.5708 1.69378 
1.8705 2.12437 2.46138 2.82862 1.5708 1.65886 1.77397 1.9259 2.12437 
2.371 2.64697 2.91443 1.75639 1.87857 1.8563 2.00248 1.99133 1.97796 
2.12437 2.12437 2.12437 2.12437 2.24087 2.25101 2.26308 2.27767 2.29565 
2.34943 2.36803 2.38991 2.41597 2.44752 2.48639 2.44857 2.47368 2.50281 
2.53694 2.57738 2.62586 2.68474 2.53778 2.56754 2.60157 2.64076 2.68621 
2.73933 2.80184 2.87583 1.6744 1.6744 1.78405 1.6744 1.78405 1.89748 
1.6744 1.78405 1.89748 2.01191 1.6744 1.78405 1.89748 2.01191 2.12437 
1.6744 1.78405 1.89748 2.01191 2.12437 2.23222 1.6744 1.78405 1.89748 
2.01191 2.12437 2.23222 2.33343 1.6744 1.78405 1.89748 2.01191 2.12437 
2.23222 2.33343 2.42672 1.4672 1.35755 1.4672 1.24411 1.35755 1.4672 
1.12969 1.24411 1.35755 1.4672 1.01722 1.12969 1.24411 1.35755 1.4672 
0.909371 1.01722 1.12969 1.24411 1.35755 1.4672 0.808166 0.909371 1.01722 
1.12969 1.24411 1.35755 1.4672 0.714871 0.808166 0.909371 1.01722 1.12969 
1.24411 1.35755 1.4672 0.603812 0.57405 0.693022 0.540021 0.667908 0.792164 
0.500837 0.638778 0.773562 0.900726 0.455383 0.604649 0.751687 0.890581 1.01722 
0.402264 0.564217 0.725619 0.878514 1.01722 1.13912 0.339753 0.515737 0.694072 
0.863926 1.01722 1.15026 1.26302 0.265762 0.456853 0.655207 0.845941 1.01722 
1.16363 1.28529 1.38521 0.227158 0.312971 0.494626 0.494626 0.680215 0.770593 
1.01722 1.01722 1.01722 1.01722 2.12437 1.5708 1.36763 1.27109 1.2157 
2.64697 2.12437 1.77397 1.5708 1.44781 1.36763 2.82862 2.46138 2.12437 
1.8705 1.69378 1.5708 1.48273 2.91443 2.64697 2.371 2.12437 1.9259 
1.77397 1.65886 1.5708 1.75639 1.8563 1.87857 1.97796 1.99133 2.00248 
2.12437 2.12437 2.12437 2.12437 2.29565 2.27767 2.26308 2.25101 2.24087 
2.48639 2.44752 2.41597 2.38991 2.36803 2.34943 2.68474 2.62586 2.57738 
2.53694 2.50281 2.47368 2.44857 2.87583 2.80184 2.73933 2.68621 2.64076 
2.60157 2.56754 2.53778 5.86049 5.90139 5.97231 5.94739 6.02165 6.09275 
5.99927 6.07676 6.15015 6.21902 6.0579 6.13831 6.2135 0 0.0641696 
6.12418 6.20694 6.28319 0.069689 0.13304 0.190437 6.19903 0 0.0762451 
0.144876 0.206423 0.261531 0.310872 0 0.0841597 0.159004 0.225289 0.283913 
0.335793 0.381792 0.422692 5.86049 5.97231 5.90139 6.09275 6.02165 5.94739 
6.21902 6.15015 6.07676 5.99927 0.0641696 0 6.2135 6.13831 6.0579 
0.190437 0.13304 0.069689 6.28319 6.20694 6.12418 0.310872 0.261531 0.206423 
0.144876 0.0762451 6.28319 6.19903 0.422692 0.381792 0.335793 0.283913 0.225289 
0.159004 0.0841597 0 5.67937 5.70914 5.59016 5.74316 5.61528 5.49102 
5.78235 5.64441 5.50962 5.38246 5.8278 5.67854 5.5315 5.3926 5.26596 
5.88092 5.71897 5.55757 5.40467 5.26596 5.14407 5.94343 5.76745 5.58911 
5.41926 5.26596 5.13292 5.02016 6.01742 5.82633 5.62798 5.43724 5.26596 
5.11955 4.99789 4.89798 1.38521 1.28529 1.26302 1.16363 1.15026 1.13912 
1.01722 1.01722 1.01722 1.01722 0.845941 0.863926 0.878514 0.890581 0.900726 
0.655207 0.694072 0.725619 0.751687 0.773562 0.792164 0.456853 0.515737 0.564217 
0.604649 0.638778 0.667908 0.693022 0.265762 0.339753 0.402264 0.455383 0.500837 
0.540021 0.57405 0.603812 
