# vtk DataFile Version 4.0
vtk output
ASCII
DATASET POLYDATA
POINTS 1002 float
-117.969 -98.4343 69.8695 -113.474 -91.652 71.1742 -111.856 -102.032 70.0921 
-107.549 -95.282 71.1313 -114.074 -95.5703 65.7131 -110.419 -97.4178 66.0658 
-114.767 -96.8003 75.8314 -111.638 -98.6654 75.9767 -108.828 -89.8348 68.5826 
-116.625 -103.168 66.5483 -109.438 -91.0104 75.6008 -117.251 -104.235 72.8949 
-117.674 -97.7383 69.9922 -117.352 -96.9607 70.177 -117.021 -96.1499 70.3595 
-116.634 -95.3926 70.4621 -116.047 -94.7767 70.5328 -115.353 -94.2049 70.6602 
-114.798 -93.5118 70.8179 -114.359 -92.7675 70.9593 -113.918 -92.1337 71.0825 
-117.918 -98.1473 69.3542 -117.793 -97.7936 68.7806 -117.621 -97.375 68.1711 
-117.42 -96.9543 67.5563 -117.067 -96.6268 67.0861 -116.445 -96.4127 66.8725 
-115.726 -96.2287 66.7069 -115.127 -96.0035 66.3749 -114.608 -95.7651 65.9879 
-117.773 -98.2822 70.4382 -117.642 -98.0308 71.1455 -117.625 -97.6862 72.0149 
-117.404 -97.4648 72.767 -116.769 -97.4863 73.1456 -116.031 -97.5551 73.4462 
-115.517 -97.4884 73.9946 -115.221 -97.3025 74.6497 -115.006 -97.057 75.2553 
-118.198 -98.9708 69.4812 -118.288 -99.6532 69.0527 -118.297 -100.419 68.5261 
-118.399 -101.095 67.9409 -118.551 -101.74 67.4349 -118.484 -102.51 67.0664 
-118.141 -103.159 66.8026 -117.694 -103.385 66.647 -117.201 -103.307 66.5881 
-118.162 -99.0012 70.1074 -118.265 -99.6601 70.311 -118.154 -100.542 70.4705 
-117.982 -101.539 70.612 -117.913 -102.356 70.7548 -117.812 -103.01 71.0207 
-117.726 -103.651 71.5566 -117.759 -104.129 72.217 -117.663 -104.292 72.6952 
-113.538 -91.7401 70.5577 -113.738 -91.8182 69.8927 -113.993 -91.9271 69.1297 
-114.148 -92.2299 68.4184 -114.182 -92.8285 67.9046 -114.214 -93.4676 67.406 
-114.291 -93.9269 66.7988 -114.308 -94.4088 66.2767 -114.203 -95.0278 65.9529 
-113.749 -91.8383 71.8024 -113.989 -92.0952 72.468 -114.09 -92.5501 72.9952 
-114.055 -93.256 73.339 -114.088 -93.9623 73.7523 -114.345 -94.453 74.4138 
-114.629 -94.929 75.0559 -114.705 -95.5924 75.4023 -114.689 -96.2866 75.5862 
-112.992 -91.313 70.8401 -112.413 -91.0078 70.4836 -111.802 -90.6355 70.1412 
-111.337 -90.0362 69.7346 -111.091 -89.243 69.1142 -110.787 -88.576 68.4543 
-110.192 -88.3561 68.1791 -109.531 -88.6365 68.3198 -109.084 -89.2155 68.5226 
-113.191 -91.3464 71.6221 -112.785 -91.1121 72.1092 -112.232 -90.9578 72.609 
-111.872 -90.6819 73.16 -111.805 -90.2767 73.8268 -111.524 -90.1187 74.4563 
-110.886 -90.2796 74.844 -110.275 -90.4967 75.0954 -109.825 -90.7174 75.3684 
-111.345 -101.601 70.2161 -110.879 -101.076 70.361 -110.36 -100.446 70.5224 
-109.737 -99.8115 70.6999 -109.091 -99.274 70.8499 -108.566 -98.669 70.9795 
-108.218 -97.8266 71.1239 -107.995 -96.8605 71.1888 -107.8 -95.9726 71.1385 
-111.635 -101.842 69.6326 -111.545 -101.507 69.0991 -111.463 -101.049 68.5301 
-111.213 -100.646 67.9837 -110.842 -100.351 67.4711 -110.523 -99.9293 66.9766 
-110.387 -99.3027 66.6158 -110.458 -98.6292 66.4741 -110.541 -97.989 66.3595 
-111.817 -101.911 70.5581 -111.809 -101.706 71.0592 -111.772 -101.422 71.7409 
-111.732 -101.116 72.5033 -111.823 -100.695 73.0836 -111.946 -100.122 73.598 
-111.829 -99.6704 74.2872 -111.561 -99.4289 75.011 -111.477 -99.1299 75.5677 
-112.295 -102.344 69.6806 -112.831 -102.643 69.2 -113.417 -102.873 68.6981 
-113.963 -103.127 68.2063 -114.433 -103.489 67.7547 -114.871 -103.803 67.3745 
-115.288 -103.941 67.051 -115.725 -103.88 66.7811 -116.205 -103.593 66.6143 
-112.478 -102.338 70.3176 -113.243 -102.611 70.589 -113.927 -102.934 70.8665 
-114.377 -103.425 71.1832 -114.729 -104.048 71.601 -115.175 -104.55 72.0441 
-115.681 -104.759 72.3772 -116.177 -104.728 72.5884 -116.711 -104.544 72.7467 
-107.38 -95.5463 70.6996 -107.077 -96.0006 70.2502 -106.919 -96.5036 69.7361 
-107.287 -96.8181 69.1717 -107.92 -96.9322 68.5852 -108.307 -97.0649 67.9366 
-108.663 -97.2562 67.2634 -109.3 -97.3576 66.7293 -109.973 -97.3676 66.376 
-107.784 -95.5944 71.5965 -107.999 -96.0484 72.177 -108.362 -96.4158 72.7219 
-108.873 -96.6704 73.1769 -109.379 -96.9831 73.7197 -109.885 -97.3333 74.3339 
-110.429 -97.6079 74.8032 -110.904 -97.8994 75.1804 -111.275 -98.2854 75.5976 
-107.114 -94.9108 71.0079 -106.718 -94.5986 70.9797 -106.607 -93.8926 70.7831 
-106.574 -92.7258 70.2668 -106.456 -91.7752 69.7381 -106.705 -91.3555 69.4853 
-107.44 -91.0207 69.3421 -108.143 -90.5646 69.1232 -108.563 -90.1533 68.8608 
-107.417 -94.8368 71.5411 -107.296 -94.4253 72.0868 -107.34 -94.0243 72.5744 
-107.627 -93.5593 72.9635 -107.927 -92.967 73.4681 -108.059 -92.3506 74.082 
-108.243 -91.8713 74.5851 -108.619 -91.5219 74.9713 -109.04 -91.2317 75.3209 
-113.663 -95.6967 65.3931 -113.271 -95.7215 64.9315 -112.895 -95.7212 64.3654 
-112.396 -95.8907 63.9543 -111.732 -96.2448 63.8671 -111.073 -96.5657 64.0032 
-110.603 -96.7679 64.3252 -110.41 -96.9505 64.8804 -110.417 -97.1707 65.5296 
-113.603 -95.0842 65.7034 -113.15 -94.5232 65.8361 -112.596 -93.9607 66.1391 
-111.846 -93.3703 66.5193 -111.06 -92.601 66.8234 -110.364 -91.6671 67.0344 
-109.724 -90.8331 67.284 -109.239 -90.2886 67.6479 -108.987 -89.9915 68.0995 
-114.39 -96.0317 65.5503 -114.796 -96.4417 65.2802 -115.12 -97.1187 65.0472 
-115.374 -98.1375 65.0544 -115.672 -99.1587 65.2224 -115.88 -100.07 65.3895 
-115.982 -100.947 65.6417 -116.194 -101.693 66.0219 -116.478 -102.377 66.3616 
-109.864 -96.934 65.8318 -109.31 -96.6069 65.7792 -109.112 -96.1604 66.2297 
-109.066 -95.338 66.8601 -108.742 -94.247 67.1928 -108.36 -93.1118 67.3798 
-108.309 -92.0784 67.6639 -108.491 -91.2304 67.974 -108.689 -90.5097 68.2751 
-110.814 -97.9693 65.8486 -111.12 -98.7135 65.3625 -111.569 -99.3916 64.8939 
-112.333 -99.8919 64.8001 -113.244 -100.501 64.8403 -113.963 -101.329 64.7493 
-114.491 -101.965 64.9563 -115.116 -102.264 65.6348 -115.895 -102.596 66.2721 
-114.698 -96.8413 76.4569 -114.665 -96.8452 77.1952 -114.666 -97.0798 77.7957 
-114.518 -97.6999 78.0873 -113.943 -98.3924 78.1167 -113.131 -98.6884 77.9014 
-112.601 -98.5888 77.4418 -112.35 -98.4744 76.8967 -112.037 -98.5376 76.4093 
-114.364 -96.3254 76.1728 -113.865 -95.858 76.3778 -113.329 -95.2942 76.4945 
-112.819 -94.6267 76.6219 -112.374 -93.9205 76.6494 -111.932 -93.1198 76.5045 
-111.319 -92.2463 76.3754 -110.538 -91.5362 76.2946 -109.855 -91.1436 76.0594 
-115.082 -97.4097 75.7582 -115.374 -98.1456 75.6143 -115.685 -98.9159 75.4262 
-116.16 -99.6501 75.3048 -116.731 -100.524 75.2617 -117.22 -101.505 75.114 
-117.588 -102.243 74.6666 -117.719 -102.795 73.9727 -117.544 -103.477 73.3217 
-111.63 -97.9341 76.1285 -111.477 -97.3079 76.2801 -111.033 -96.8201 76.4761 
-110.509 -96.2031 76.6272 -110.215 -95.3385 76.5582 -110.044 -94.3511 76.2987 
-109.725 -93.2852 76.119 -109.385 -92.2547 76.0978 -109.299 -91.4809 75.9842 
-111.97 -99.2807 75.9808 -112.494 -99.7778 75.7944 -113.056 -100.302 75.5408 
-113.556 -101.103 75.405 -114.204 -101.964 75.3175 -115.035 -102.448 74.9582 
-115.752 -102.682 74.2517 -116.297 -103.067 73.5657 -116.808 -103.647 73.1643 
-108.706 -89.3959 69.1128 -108.407 -89.0559 69.6924 -108.186 -88.8869 70.2667 
-108.349 -88.9401 70.9461 -108.719 -89.1712 71.8245 -108.993 -89.5147 72.6525 
-109.201 -89.9821 73.275 -109.358 -90.4627 73.9634 -109.407 -90.7832 74.826 
-116.971 -104.2 66.6396 -117.183 -105.134 66.8058 -117.376 -105.637 67.3313 
-117.487 -105.943 68.2043 -117.413 -106.308 69.1118 -117.38 -106.378 69.9162 
-117.468 -106.013 70.8008 -117.458 -105.528 71.7387 -117.34 -104.963 72.4485 
-117.657 -97.3414 69.48 -117.512 -96.8971 68.8896 -117.325 -96.4748 69.7098 
-117.261 -96.4587 68.2155 -117.189 -95.9583 69.0895 -117.025 -95.5495 69.9273 
-117.009 -96.0785 67.5866 -117.024 -95.4944 68.3111 -116.993 -94.9685 69.2576 
-116.615 -94.7569 70.0313 -116.605 -95.8066 67.2157 -116.774 -95.1539 67.6521 
-116.809 -94.5878 68.4305 -116.453 -94.305 69.3749 -115.84 -94.2803 70.0885 
-115.935 -95.6248 67.0298 -116.176 -94.9526 67.3173 -116.232 -94.4197 67.817 
-115.908 -94.1314 68.6437 -115.404 -93.9889 69.5006 -115.016 -93.7994 70.1754 
-115.251 -95.441 66.7222 -115.399 -94.804 67.065 -115.41 -94.3072 67.5024 
-115.144 -93.9894 68.1192 -114.798 -93.7194 68.8746 -114.602 -93.3928 69.6195 
-114.48 -93.049 70.2902 -114.708 -95.2223 66.2857 -114.789 -94.6153 66.6641 
-114.76 -94.1402 67.1894 -114.594 -93.7319 67.7684 -114.406 -93.2697 68.3435 
-114.302 -92.8291 69.0104 -114.201 -92.5011 69.7409 -114.041 -92.2854 70.4264 
-117.981 -98.7882 68.9138 -117.909 -99.5708 68.4815 -117.783 -98.4887 68.3218 
-117.971 -100.245 67.9771 -117.723 -99.2513 67.8883 -117.708 -98.0262 67.6814 
-118.279 -100.713 67.3581 -117.835 -99.7838 67.3158 -117.69 -98.6906 67.1636 
-117.532 -97.5396 67.032 -118.43 -101.339 66.7551 -118.019 -100.209 66.6152 
-117.595 -99.1804 66.5772 -117.348 -98.1338 66.5204 -116.963 -97.18 66.6222 
-118.109 -102.104 66.3981 -117.848 -100.873 66.1068 -117.403 -99.6802 66.1132 
-116.966 -98.6594 66.1709 -116.583 -97.7138 66.2301 -116.155 -96.914 66.4623 
-117.551 -102.48 66.3497 -117.283 -101.441 66.0096 -116.987 -100.263 65.9181 
-116.6 -99.2011 65.9906 -116.168 -98.231 65.9779 -115.808 -97.3256 66.0295 
-115.467 -96.6253 66.2343 -117.016 -102.442 66.4117 -116.683 -101.606 66.0975 
-116.438 -100.656 65.8441 -116.231 -99.6852 65.7601 -115.886 -98.7426 65.6701 
-115.544 -97.7264 65.5706 -115.263 -96.8728 65.6647 -114.933 -96.3048 65.8717 
-115.727 -102.044 65.8213 -115.095 -101.961 64.9538 -115.603 -101.493 65.3014 
-114.59 -101.58 64.3974 -115.187 -101.307 64.5334 -115.582 -100.638 64.9515 
-113.838 -100.66 64.4574 -114.568 -100.553 64.3964 -115.143 -100.079 64.5306 
-115.46 -99.5534 64.7984 -112.751 -99.7833 64.5438 -113.437 -99.4632 64.5927 
-114.236 -99.0668 64.6144 -114.843 -98.7152 64.5007 -115.179 -98.4286 64.616 
-111.824 -99.2057 64.5085 -112.288 -98.6906 64.4651 -113.018 -98.1697 64.506 
-113.876 -97.8347 64.3193 -114.554 -97.5655 64.1956 -114.924 -97.3095 64.487 
-111.286 -98.5438 64.7891 -111.566 -98.1116 64.3571 -112.052 -97.6421 64.124 
-112.808 -97.3249 63.9243 -113.662 -97.0068 63.8371 -114.275 -96.6645 64.1148 
[...]
POINT_DATA 1002
FIELD FieldData 2
Theta 1 1002 float
2.58802 2.58802 0.553574 0.553574 2.12437 1.01722 2.12437 1.01722 1.5708 
1.5708 1.5708 1.5708 2.68241 2.78649 2.89924 3.01861 3.14159 3.01861 
2.89924 2.78649 2.68241 2.61035 2.61791 2.60515 2.56958 2.51327 2.44184 
2.36202 2.27983 2.1997 2.61035 2.61791 2.60515 2.56958 2.51327 2.44184 
2.36202 2.27983 2.1997 2.50947 2.41899 2.31794 2.20864 2.0944 1.97902 
1.86631 1.75944 1.66056 2.50947 2.41899 2.31794 2.20864 2.0944 1.97902 
1.86631 1.75944 1.66056 2.61035 2.61791 2.60515 2.56958 2.51327 2.44184 
2.36202 2.27983 2.1997 2.61035 2.61791 2.60515 2.56958 2.51327 2.44184 
2.36202 2.27983 2.1997 2.50947 2.41899 2.31794 2.20864 2.0944 1.97902 
1.86631 1.75944 1.66056 2.50947 2.41899 2.31794 2.20864 2.0944 1.97902 
1.86631 1.75944 1.66056 0.459179 0.355101 0.242354 0.122983 0 0.122983 
0.242354 0.355101 0.459179 0.531246 0.523681 0.536438 0.57201 0.628319 0.699757 
0.779574 0.86176 0.941896 0.531246 0.523681 0.536438 0.57201 0.628319 0.699757 
0.779574 0.86176 0.941896 0.632123 0.7226 0.823657 0.932948 1.0472 1.16257 
1.27528 1.38216 1.48103 0.632123 0.7226 0.823657 0.932948 1.0472 1.16257 
1.27528 1.38216 1.48103 0.531246 0.523681 0.536438 0.57201 0.628319 0.699757 
0.779574 0.86176 0.941896 0.531246 0.523681 0.536438 0.57201 0.628319 0.699757 
0.779574 0.86176 0.941896 0.632123 0.7226 0.823657 0.932948 1.0472 1.16257 
1.27528 1.38216 1.48103 0.632123 0.7226 0.823657 0.932948 1.0472 1.16257 
1.27528 1.38216 1.48103 2.02998 1.9259 1.81315 1.69378 1.5708 1.44781 
1.32844 1.2157 1.11162 2.0928 2.05283 2.00422 1.94767 1.88496 1.81867 
1.75177 1.68695 1.62623 2.0928 2.05283 2.00422 1.94767 1.88496 1.81867 
1.75177 1.68695 1.62623 1.0488 1.08876 1.13737 1.19392 1.25664 1.32292 
1.38982 1.45464 1.51537 1.0488 1.08876 1.13737 1.19392 1.25664 1.32292 
1.38982 1.45464 1.51537 2.02998 1.9259 1.81315 1.69378 1.5708 1.44781 
1.32844 1.2157 1.11162 2.0928 2.05283 2.00422 1.94767 1.88496 1.81867 
1.75177 1.68695 1.62623 2.0928 2.05283 2.00422 1.94767 1.88496 1.81867 
1.75177 1.68695 1.62623 1.0488 1.08876 1.13737 1.19392 1.25664 1.32292 
1.38982 1.45464 1.51537 1.0488 1.08876 1.13737 1.19392 1.25664 1.32292 
1.38982 1.45464 1.51537 1.5708 1.5708 1.5708 1.5708 1.5708 1.5708 
1.5708 1.5708 1.5708 1.5708 1.5708 1.5708 1.5708 1.5708 1.5708 
1.5708 1.5708 1.5708 2.70908 2.71362 2.81592 2.68886 2.81002 2.92597 
2.6349 2.76254 2.89233 3.01997 2.55881 2.68262 2.80854 2.92834 3.01997 
2.47007 2.58462 2.70048 2.80854 2.89233 2.92597 2.37702 2.48017 2.58462 
2.68262 2.76254 2.81002 2.81592 2.28567 2.37702 2.47007 2.55881 2.6349 
2.68886 2.71362 2.70908 2.52097 2.4195 2.51718 2.30791 2.40503 2.49426 
2.18928 2.28408 2.3734 2.45144 2.06758 2.15805 2.24572 2.32523 2.39165 
1.94707 2.03138 2.11543 2.19453 2.26401 2.32035 1.83164 1.90847 1.98711 
2.06376 2.13422 2.1949 2.24359 1.72413 1.79288 1.86489 1.93728 2.00658 
2.06938 2.12312 2.16654 1.5708 1.50988 1.63171 1.44492 1.5708 1.69667 
1.37826 1.5059 1.63569 1.76333 1.31281 1.43962 1.5708 1.70197 1.82878 
1.25155 1.37501 1.50478 1.63681 1.76659 1.89004 1.19686 1.31493 1.44074 
1.5708 1.70086 1.82666 1.94473 1.15011 1.26149 1.38136 1.50697 1.63462 
1.76024 1.88011 1.99148 1.99148 1.88011 1.94473 1.76024 1.82666 1.89004 
1.63462 1.70086 1.76659 1.82878 1.50697 1.5708 1.63681 1.70197 1.76333 
1.38136 1.44074 1.50478 1.5708 1.63569 1.69667 1.26149 1.31493 1.37501 
1.43962 1.5059 1.5708 1.63171 1.15011 1.19686 1.25155 1.31281 1.37826 
1.44492 1.50988 1.5708 2.16654 2.12312 2.24359 2.06938 2.1949 2.32035 
2.00658 2.13422 2.26401 2.39165 1.93728 2.06376 2.19453 2.32523 2.45144 
1.86489 1.98711 2.11543 2.24572 2.3734 2.49426 1.79288 1.90847 2.03138 
2.15805 2.28408 2.40503 2.51718 1.72413 1.83164 1.94707 2.06758 2.18928 
2.30791 2.4195 2.52097 1.66533 1.66946 1.76911 1.67254 1.777 1.88041 
1.67418 1.78222 1.89102 1.99634 1.67418 1.78405 1.89674 2.00785 2.11299 
1.67254 1.78222 1.89674 2.01191 2.12307 2.22608 1.66946 1.777 1.89102 
2.00785 2.12307 2.23222 2.33166 1.66533 1.76911 1.88041 1.99634 2.11299 
2.22608 2.33166 2.42672 1.47626 1.37249 1.47213 1.26118 1.36459 1.46906 
1.14526 1.25058 1.35938 1.46741 1.0286 1.13374 1.24485 1.35755 1.46741 
0.915514 1.01852 1.12969 1.24485 1.35938 1.46906 0.809937 0.909371 1.01852 
1.13374 1.25058 1.36459 1.47213 0.714871 0.809937 0.915514 1.0286 1.14526 
1.26118 1.37249 1.47626 0.975055 0.898002 1.01847 0.821245 0.946693 1.07221 
0.749941 0.877585 1.00737 1.13501 0.690152 0.816367 0.94706 1.07784 1.20431 
0.647337 0.768195 0.895868 1.02616 1.15448 1.2767 0.624416 0.736561 0.857515 
0.983547 1.11021 1.23313 1.34871 0.620619 0.722093 0.833684 0.952313 1.07402 
1.19452 1.30996 1.41746 0.855925 0.764569 0.764569 0.671524 0.661425 0.671524 
0.582786 0.556971 0.556971 0.582786 0.506696 0.458968 0.441109 0.458968 0.506696 
0.45273 0.379052 0.333054 0.333054 0.379052 0.45273 0.427969 0.331576 0.249267 
0.21325 0.249267 0.331576 0.427969 0.432512 0.325669 0.215619 0.121622 0.121622 
0.215619 0.325669 0.432512 0.432512 0.427969 0.325669 0.45273 0.331576 0.215619 
0.506696 0.379052 0.249267 0.121622 0.582786 0.458968 0.333054 0.21325 0.121622 
0.671524 0.556971 0.441109 0.333054 0.249267 0.215619 0.764569 0.661425 0.556971 
0.458968 0.379052 0.331576 0.325669 0.855925 0.764569 0.671524 0.582786 0.506696 
0.45273 0.427969 0.432512 0.975055 1.01847 0.898002 1.07221 0.946693 0.821245 
1.13501 1.00737 0.877585 0.749941 1.20431 1.07784 0.94706 0.816367 0.690152 
1.2767 1.15448 1.02616 0.895868 0.768195 0.647337 1.34871 1.23313 1.11021 
0.983547 0.857515 0.736561 0.624416 1.41746 1.30996 1.19452 1.07402 0.952313 
0.833684 0.722093 0.620619 1.15011 1.26149 1.19686 1.38136 1.31493 1.25155 
1.50697 1.44074 1.37501 1.31281 1.63462 1.5708 1.50478 1.43962 1.37826 
1.76024 1.70086 1.63681 1.5708 1.5059 1.44492 1.88011 1.82666 1.76659 
1.70197 1.63569 1.5708 1.50988 1.99148 1.94473 1.89004 1.82878 1.76333 
1.69667 1.63171 1.5708 1.15011 1.19686 1.26149 1.25155 1.31493 1.38136 
1.31281 1.37501 1.44074 1.50697 1.37826 1.43962 1.50478 1.5708 1.63462 
1.44492 1.5059 1.5708 1.63681 1.70086 1.76024 1.50988 1.5708 1.63569 
1.70197 1.76659 1.82666 1.88011 1.5708 1.63171 1.69667 1.76333 1.82878 
1.89004 1.94473 1.99148 1.72413 1.83164 1.79288 1.94707 1.90847 1.86489 
2.06758 2.03138 1.98711 1.93728 2.18928 2.15805 2.11543 2.06376 2.00658 
2.30791 2.28408 2.24572 2.19453 2.13422 2.06938 2.4195 2.40503 2.3734 
2.32523 2.26401 2.1949 2.12312 2.52097 2.51718 2.49426 2.45144 2.39165 
2.32035 2.24359 2.16654 2.70908 2.81592 2.71362 2.92597 2.81002 2.68886 
3.01997 2.89233 2.76254 2.6349 3.01997 2.92834 2.80854 2.68262 2.55881 
2.92597 2.89233 2.80854 2.70048 2.58462 2.47007 2.81592 2.81002 2.76254 
2.68262 2.58462 2.48017 2.37702 2.70908 2.71362 2.68886 2.6349 2.55881 
2.47007 2.37702 2.28567 2.16654 2.24359 2.12312 2.32035 2.1949 2.06938 
2.39165 2.26401 2.13422 2.00658 2.45144 2.32523 2.19453 2.06376 1.93728 
2.49426 2.3734 2.24572 2.11543 1.98711 1.86489 2.51718 2.40503 2.28408 
2.15805 2.03138 1.90847 1.79288 2.52097 2.4195 2.30791 2.18928 2.06758 
1.94707 1.83164 1.72413 1.66533 1.76911 1.66946 1.88041 1.777 1.67254 
1.99634 1.89102 1.78222 1.67418 2.11299 2.00785 1.89674 1.78405 1.67418 
2.22608 2.12307 2.01191 1.89674 1.78222 1.67254 2.33166 2.23222 2.12307 
2.00785 1.89102 1.777 1.66946 2.42672 2.33166 2.22608 2.11299 1.99634 
1.88041 1.76911 1.66533 1.47626 1.47213 1.37249 1.46906 1.36459 1.26118 
1.46741 1.35938 1.25058 1.14526 1.46741 1.35755 1.24485 1.13374 1.0286 
1.46906 1.35938 1.24485 1.12969 1.01852 0.915514 1.47213 1.36459 1.25058 
1.13374 1.01852 0.909371 0.809937 1.47626 1.37249 1.26118 1.14526 1.0286 
0.915514 0.809937 0.714871 1.41746 1.30996 1.34871 1.19452 1.23313 1.2767 
1.07402 1.11021 1.15448 1.20431 0.952313 0.983547 1.02616 1.07784 1.13501 
0.833684 0.857515 0.895868 0.94706 1.00737 1.07221 0.722093 0.736561 0.768195 
0.816367 0.877585 0.946693 1.01847 0.620619 0.624416 0.647337 0.690152 0.749941 
0.821245 0.898002 0.975055 0.975055 0.898002 1.01847 0.821245 0.946693 1.07221 
0.749941 0.877585 1.00737 1.13501 0.690152 0.816367 0.94706 1.07784 1.20431 
0.647337 0.768195 0.895868 1.02616 1.15448 1.2767 0.624416 0.736561 0.857515 
0.983547 1.11021 1.23313 1.34871 0.620619 0.722093 0.833684 0.952313 1.07402 
1.19452 1.30996 1.41746 
Phi 1 1002 float
6.28319 3.14159 6.28319 3.14159 4.71239 4.71239 1.5708 1.5708 3.69517 
5.72961 2.58802 0.553574 6.28319 6.28319 6.28319 6.28319 3.14159 3.14159 
3.14159 3.14159 3.14159 6.1053 5.8988 5.67687 5.45995 5.26596 5.10322 
4.97131 4.86569 4.78095 0.177881 0.384387 0.606312 0.823235 1.01722 1.17997 
1.31187 1.4175 1.50223 6.18928 6.10703 6.03531 5.97283 5.91832 5.87061 
5.82869 5.79168 5.75886 0.0939024 0.176153 0.247873 0.310351 0.364864 0.412573 
0.454497 0.491504 0.524326 3.31947 3.52598 3.7479 3.96483 4.15881 4.32156 
4.45346 4.55909 4.64383 2.96371 2.75721 2.53528 2.31836 2.12437 1.96162 
1.82972 1.72409 1.63936 3.2355 3.31775 3.38947 3.45194 3.50646 3.55417 
3.59609 3.6331 3.66592 3.04769 2.96544 2.89372 2.83124 2.77673 2.72902 
2.6871 2.65009 2.61727 6.28319 6.28319 6.28319 6.28319 3.14159 3.14159 
3.14159 3.14159 3.14159 6.1053 5.8988 5.67687 5.45995 5.26596 5.10322 
4.97131 4.86569 4.78095 0.177881 0.384387 0.606312 0.823235 1.01722 1.17997 
1.31187 1.4175 1.50223 6.18928 6.10703 6.03531 5.97283 5.91832 5.87061 
5.82869 5.79168 5.75886 0.0939024 0.176153 0.247873 0.310351 0.364864 0.412573 
0.454497 0.491504 0.524326 3.31947 3.52598 3.7479 3.96483 4.15881 4.32156 
4.45346 4.55909 4.64383 2.96371 2.75721 2.53528 2.31836 2.12437 1.96162 
1.82972 1.72409 1.63936 3.2355 3.31775 3.38947 3.45194 3.50646 3.55417 
3.59609 3.6331 3.66592 3.04769 2.96544 2.89372 2.83124 2.77673 2.72902 
2.6871 2.65009 2.61727 4.71239 4.71239 4.71239 4.71239 4.71239 4.71239 
4.71239 4.71239 4.71239 4.60879 4.49914 4.3857 4.27128 4.15881 4.05096 
3.94976 3.85646 3.77161 4.81599 4.92564 5.03907 5.1535 5.26596 5.37381 
5.47502 5.56831 5.65317 4.60879 4.49914 4.3857 4.27128 4.15881 4.05096 
3.94976 3.85646 3.77161 4.81599 4.92564 5.03907 5.1535 5.26596 5.37381 
5.47502 5.56831 5.65317 1.5708 1.5708 1.5708 1.5708 1.5708 1.5708 
1.5708 1.5708 1.5708 1.6744 1.78405 1.89748 2.01191 2.12437 2.23222 
2.33343 2.42672 2.51157 1.4672 1.35755 1.24411 1.12969 1.01722 0.909371 
0.808166 0.714871 0.63002 1.6744 1.78405 1.89748 2.01191 2.12437 2.23222 
2.33343 2.42672 2.51157 1.4672 1.35755 1.24411 1.12969 1.01722 0.909371 
0.808166 0.714871 0.63002 3.60077 3.49669 3.38395 3.26458 3.14159 3.01861 
2.89924 2.78649 2.68241 5.82401 5.92808 6.04083 6.1602 6.28319 0.122983 
0.242354 0.355101 0.459179 6.05603 5.78856 5.97021 5.51259 5.60297 5.78856 
5.26596 5.26596 5.26596 5.26596 5.06749 5.0121 4.91556 4.71239 4.15881 
4.91556 4.83537 4.71239 4.50922 4.15881 3.63622 4.80045 4.71239 4.58941 
4.41268 4.15881 3.82181 3.45456 4.71239 4.62433 4.50922 4.35729 4.15881 
3.91219 3.63622 3.36875 6.01742 5.94343 5.82633 5.88092 5.76745 5.62798 
5.8278 5.71897 5.58911 5.43724 5.78235 5.67854 5.55757 5.41926 5.26596 
5.74316 5.64441 5.5315 5.40467 5.26596 5.11955 5.70914 5.61528 5.50962 
5.3926 5.26596 5.13292 4.99789 5.67937 5.59016 5.49102 5.38246 5.26596 
5.14407 5.02016 4.89798 5.56831 5.47502 5.47502 5.37381 5.37381 5.37381 
5.26596 5.26596 5.26596 5.26596 5.1535 5.1535 5.1535 5.1535 5.1535 
5.03907 5.03907 5.03907 5.03907 5.03907 5.03907 4.92564 4.92564 4.92564 
4.92564 4.92564 4.92564 4.92564 4.81599 4.81599 4.81599 4.81599 4.81599 
4.81599 4.81599 4.81599 4.60879 4.60879 4.49914 4.60879 4.49914 4.3857 
4.60879 4.49914 4.3857 4.27128 4.60879 4.49914 4.3857 4.27128 4.15881 
4.60879 4.49914 4.3857 4.27128 4.15881 4.05096 4.60879 4.49914 4.3857 
4.27128 4.15881 4.05096 3.94976 4.60879 4.49914 4.3857 4.27128 4.15881 
4.05096 3.94976 3.85646 4.5268 4.40462 4.42689 4.28071 4.29185 4.30523 
4.15881 4.15881 4.15881 4.15881 4.04232 4.03217 4.02011 4.00552 3.98753 
3.93376 3.91515 3.89328 3.86721 3.83566 3.7968 3.83461 3.8095 3.78037 
3.74624 3.70581 3.65733 3.59845 3.7454 3.71564 3.68161 3.64243 3.59698 
3.54386 3.48135 3.40735 3.56428 3.45246 3.52338 3.33203 3.40312 3.47739 
3.20576 3.27463 3.34802 3.42551 3.07742 3.14159 3.21128 3.28647 3.36688 
2.95116 3.00855 3.0719 3.14159 3.21784 3.3006 2.83072 2.88006 2.93517 
2.99672 3.06535 3.14159 3.22575 2.7189 2.7598 2.8058 2.85768 2.9163 
2.98259 3.05743 3.14159 3.56428 3.52338 3.45246 3.47739 3.40312 3.33203 
3.42551 3.34802 3.27463 3.20576 3.36688 3.28647 3.21128 3.14159 3.07742 
3.3006 3.21784 3.14159 3.0719 3.00855 2.95116 3.22575 3.14159 3.06535 
2.99672 2.93517 2.88006 2.83072 3.14159 3.05743 2.98259 2.9163 2.85768 
2.8058 2.7598 2.7189 4.5268 4.42689 4.40462 4.30523 4.29185 4.28071 
4.15881 4.15881 4.15881 4.15881 3.98753 4.00552 4.02011 4.03217 4.04232 
3.7968 3.83566 3.86721 3.89328 3.91515 3.93376 3.59845 3.65733 3.70581 
3.74624 3.78037 3.8095 3.83461 3.40735 3.48135 3.54386 3.59698 3.64243 
3.68161 3.71564 3.7454 4.71239 4.80045 4.62433 4.91556 4.71239 4.50922 
5.06749 4.83537 4.58941 4.35729 5.26596 5.0121 4.71239 4.41268 4.15881 
5.51259 5.26596 4.91556 4.50922 4.15881 3.91219 5.78856 5.60297 5.26596 
4.71239 4.15881 3.82181 3.63622 6.05603 5.97021 5.78856 5.26596 4.15881 
3.63622 3.45456 3.36875 0.227158 0.494626 0.312971 0.770593 0.680215 0.494626 
1.01722 1.01722 1.01722 1.01722 1.2157 1.27109 1.36763 1.5708 2.12437 
1.36763 1.44781 1.5708 1.77397 2.12437 2.64697 1.48273 1.5708 1.69378 
1.8705 2.12437 2.46138 2.82862 1.5708 1.65886 1.77397 1.9259 2.12437 
2.371 2.64697 2.91443 1.75639 1.87857 1.8563 2.00248 1.99133 1.97796 
2.12437 2.12437 2.12437 2.12437 2.24087 2.25101 2.26308 2.27767 2.29565 
2.34943 2.36803 2.38991 2.41597 2.44752 2.48639 2.44857 2.47368 2.50281 
2.53694 2.57738 2.62586 2.68474 2.53778 2.56754 2.60157 2.64076 2.68621 
2.73933 2.80184 2.87583 1.6744 1.6744 1.78405 1.6744 1.78405 1.89748 
1.6744 1.78405 1.89748 2.01191 1.6744 1.78405 1.89748 2.01191 2.12437 
1.6744 1.78405 1.89748 2.01191 2.12437 2.23222 1.6744 1.78405 1.89748 
2.01191 2.12437 2.23222 2.33343 1.6744 1.78405 1.89748 2.01191 2.12437 
2.23222 2.33343 2.42672 1.4672 1.35755 1.4672 1.24411 1.35755 1.4672 
1.12969 1.24411 1.35755 1.4672 1.01722 1.12969 1.24411 1.35755 1.4672 
0.909371 1.01722 1.12969 1.24411 1.35755 1.4672 0.808166 0.909371 1.01722 
1.12969 1.24411 1.35755 1.4672 0.714871 0.808166 0.909371 1.01722 1.12969 
1.24411 1.35755 1.4672 0.603812 0.57405 0.693022 0.540021 0.667908 0.792164 
0.500837 0.638778 0.773562 0.900726 0.455383 0.604649 0.751687 0.890581 1.01722 
0.402264 0.564217 0.725619 0.878514 1.01722 1.13912 0.339753 0.515737 0.694072 
0.863926 1.01722 1.15026 1.26302 0.265762 0.456853 0.655207 0.845941 1.01722 
1.16363 1.28529 1.38521 0.227158 0.312971 0.494626 0.494626 0.680215 0.770593 
1.01722 1.01722 1.01722 1.01722 2.12437 1.5708 1.36763 1.27109 1.2157 
2.64697 2.12437 1.77397 1.5708 1.44781 1.36763 2.82862 2.46138 2.12437 
1.8705 1.69378 1.5708 1.48273 2.91443 2.64697 2.371 2.12437 1.9259 
1.77397 1.65886 1.5708 1.75639 1.8563 1.87857 1.97796 1.99133 2.00248 
2.12437 2.12437 2.12437 2.12437 2.29565 2.27767 2.26308 2.25101 2.24087 
2.48639 2.44752 2.41597 2.38991 2.36803 2.34943 2.68474 2.62586 2.57738 
2.53694 2.50281 2.47368 2.44857 2.87583 2.80184 2.73933 2.68621 2.64076 
2.60157 2.56754 2.53778 5.86049 5.90139 5.97231 5.94739 6.02165 6.09275 
5.99927 6.07676 6.15015 6.21902 6.0579 6.13831 6.2135 0 0.0641696 
6.12418 6.20694 6.28319 0.069689 0.13304 0.190437 6.19903 0 0.0762451 
0.144876 0.206423 0.261531 0.310872 0 0.0841597 0.159004 0.225289 0.283913 
0.335793 0.381792 0.422692 5.86049 5.97231 5.90139 6.09275 6.02165 5.94739 
6.21902 6.15015 6.07676 5.99927 0.0641696 0 6.2135 6.13831 6.0579 
0.190437 0.13304 0.069689 6.28319 6.20694 6.12418 0.310872 0.261531 0.206423 
0.144876 0.0762451 6.28319 6.19903 0.422692 0.381792 0.335793 0.283913 0.225289 
0.159004 0.0841597 0 5.67937 5.70914 5.59016 5.74316 5.61528 5.49102 
5.78235 5.64441 5.50962 5.38246 5.8278 5.67854 5.5315 5.3926 5.26596 
5.88092 5.71897 5.55757 5.40467 5.26596 5.14407 5.94343 5.76745 5.58911 
5.41926 5.26596 5.13292 5.02016 6.01742 5.82633 5.62798 5.43724 5.26596 
5.11955 4.99789 4.89798 1.38521 1.28529 1.26302 1.16363 1.15026 1.13912 
1.01722 1.01722 1.01722 1.01722 0.845941 0.863926 0.878514 0.890581 0.900726 
0.655207 0.694072 0.725619 0.751687 0.773562 0.792164 0.456853 0.515737 0.564217 
0.604649 0.638778 0.667908 0.693022 0.265762 0.339753 0.402264 0.455383 0.500837 
0.540021 0.57405 0.603812 
