# vtk DataFile Version 4.0
vtk output
ASCII
DATASET POLYDATA
POINTS 1002 float
-70.5658 -115.111 74.4017 -69.2791 -124.233 46.1091 -75.316 -99.2162 63.2775 
-74.6635 -108.829 38.2005 -81.3565 -119.276 60.2355 -85.1795 -106.652 53.4015 
-60.2335 -115.078 57.4573 -61.3991 -100.942 50.0642 -77.9673 -128.795 30.7604 
-82.3599 -101.438 76.4554 -64.4953 -123.766 31.6038 -62.8185 -95.0718 74.8653 
-70.4828 -113.826 73.2 -70.3913 -113.499 71.4896 -70.5445 -114.727 68.9745 
-70.7183 -116.662 65.8517 -70.3758 -118.314 62.2372 -69.6493 -119.558 58.1367 
-69.1571 -120.644 54.3082 -69.054 -121.859 51.3796 -69.1354 -123.16 48.8327 
-71.6151 -112.855 74.1154 -72.9217 -111.148 73.7082 -74.462 -111.35 72.9059 
-75.7321 -113.259 71.7745 -76.5747 -115.414 70.4319 -77.5182 -116.848 68.5808 
-78.7598 -117.637 66.2344 -79.9099 -118.214 63.9549 -80.7363 -118.779 61.9955 
-69.506 -116.354 74.0216 -68.2296 -117.076 73.4423 -66.78 -116.609 72.1809 
-65.5412 -115.413 70.1283 -64.7182 -114.542 67.7611 -64.1986 -114.212 65.2013 
-63.7581 -114.1 62.4433 -62.966 -114.245 60.1194 -61.6513 -114.664 58.5947 
-71.2522 -115.473 75.3931 -72.1396 -116.015 76.4843 -73.4502 -115.641 77.5479 
-75.1292 -113.837 78.7155 -76.6723 -111.585 79.9153 -77.9769 -109.624 80.2874 
-79.3662 -107.536 79.4607 -80.6671 -105.235 78.2368 -81.6044 -103.163 77.2579 
-69.7291 -116.476 75.4519 -68.5564 -115.735 76.8857 -67.468 -113.332 78.3693 
-66.6792 -110.698 79.2649 -65.8763 -108.029 79.2492 -64.9477 -105.034 78.522 
-64.0868 -102.085 77.5977 -63.3611 -99.3637 76.8161 -62.8942 -96.9444 75.9903 
-70.5026 -123.628 46.7733 -71.8341 -123.044 47.7516 -73.2041 -122.65 49.1162 
-74.7725 -122.254 50.6665 -76.3599 -121.726 52.2932 -77.5487 -121.553 54.3244 
-78.5113 -121.793 56.6452 -79.5656 -121.618 58.4794 -80.5779 -120.645 59.5416 
-68.0025 -124.148 47.286 -66.655 -124.056 48.5307 -65.3141 -124.32 50.1669 
-63.925 -124.726 52.1779 -62.5578 -124.192 53.7167 -61.4533 -122.434 54.3716 
-60.6573 -120.403 54.9212 -60.1371 -118.579 55.8679 -59.9974 -116.802 56.8198 
-70.0801 -124.781 43.4283 -70.8493 -125.487 40.7149 -71.7594 -126.8 38.6427 
-72.8402 -128.804 37.2022 -73.9431 -130.782 35.8161 -75.0427 -131.85 34.175 
-76.1201 -131.872 32.43 -76.9956 -131.229 31.0707 -77.5791 -130.171 30.5366 
-68.8 -125.153 44.0058 -68.4583 -126.326 42.0981 -67.846 -128.011 40.4695 
-66.8511 -129.494 38.547 -66.1694 -129.65 36.0847 -66.0303 -128.848 33.8383 
-65.8025 -128.013 32.4181 -65.3381 -126.982 31.7168 -64.9016 -125.472 31.4998 
-75.2442 -99.7085 61.5033 -75.4002 -99.2481 58.7891 -75.805 -98.3326 55.0017 
-76.1991 -98.2541 50.8925 -76.3348 -99.3219 47.5269 -76.2325 -100.798 45.0402 
-75.9917 -102.505 42.86 -75.6325 -104.503 40.8384 -75.1698 -106.611 39.2684 
-76.3435 -98.089 62.6325 -77.4675 -97.0913 61.8349 -79.0703 -96.8912 60.9076 
-80.7766 -97.5618 59.8928 -81.9786 -98.7562 58.7954 -83.0493 -100.087 57.5349 
-84.3079 -101.39 56.1678 -85.1573 -102.885 54.9533 -85.3192 -104.719 54.049 
-73.9395 -100.246 62.7546 -72.4503 -100.101 61.8413 -71.2697 -98.9147 60.5737 
-70.1862 -97.705 59.0298 -68.6153 -97.3082 57.2864 -66.7209 -97.5577 55.4801 
-65.0358 -98.0627 53.7748 -63.6124 -98.7961 52.2594 -62.3676 -99.772 51.002 
-76.1386 -97.3572 64.2537 -76.9551 -94.9626 65.069 -77.9131 -92.7999 66.1385 
-79.1816 -91.7234 67.9253 -80.6143 -91.9515 70.2781 -81.8585 -92.9619 72.4767 
-82.563 -94.5795 74.1062 -82.6448 -96.8411 75.2207 -82.4646 -99.2623 75.9552 
-74.5452 -99.007 64.5331 -73.3514 -98.1313 65.752 -71.8293 -96.5633 66.7757 
-70.2157 -94.5488 67.7234 -68.63 -92.5746 68.9899 -67.252 -91.3589 70.5665 
-66.1476 -91.3566 72.056 -65.0353 -92.29 73.2523 -63.8315 -93.6105 74.1735 
-76.134 -108.177 38.644 -77.816 -107.523 39.2052 -79.6108 -106.903 39.9996 
-81.3742 -106.37 41.1446 -82.9366 -106.121 42.6426 -83.9685 -106.149 44.5712 
-84.4433 -106.112 46.9788 -84.7961 -106.024 49.5096 -85.1276 -106.218 51.6919 
-73.5011 -108.039 38.4613 -72.1371 -107.222 39.0682 -70.7078 -106.405 40.1758 
-69.2888 -105.573 41.4896 -67.6539 -104.532 42.6033 -65.8122 -103.358 43.7561 
-64.2252 -102.426 45.2634 -63.046 -101.787 46.8788 -62.1001 -101.289 48.43 
-74.9699 -111.022 37.4975 -75.23 -113.581 36.459 -75.5619 -115.869 34.896 
-76.0649 -117.753 33.0829 -76.5676 -119.884 31.4408 -76.8614 -122.276 30.2769 
-77.1279 -124.39 29.7377 -77.5131 -126.206 29.6805 -77.8245 -127.737 29.9873 
-73.4855 -110.797 37.3573 -72.2779 -112.977 36.3551 -71.0244 -114.981 34.9931 
-69.7025 -116.448 33.1677 -68.4365 -117.636 31.3686 -67.3796 -119.027 30.3483 
-66.4345 -120.504 30.1202 -65.5215 -121.778 30.2584 -64.8279 -122.862 30.7107 
-82.1049 -118.576 59.5962 -82.866 -117.607 58.994 -83.662 -116.371 58.4446 
-84.3036 -115.064 57.8961 -84.5131 -113.739 57.2135 -84.4849 -112.236 56.2739 
-84.6431 -110.699 55.248 -84.9064 -109.355 54.4635 -85.0515 -108.056 53.9311 
-81.5874 -120.613 58.0001 -81.9567 -122.03 55.4936 -82.3969 -123.488 52.7868 
-82.6171 -124.686 49.7267 -82.2765 -125.452 46.1216 -81.3544 -126.077 42.4194 
-80.1918 -126.819 39.1316 -79.1812 -127.643 36.101 -78.4794 -128.378 33.2151 
-81.6393 -117.5 62.1193 -81.9168 -115.723 64.524 -82.2364 -114.158 67.3427 
-82.6317 -112.713 70.0511 -83.1183 -111.282 72.3406 -83.6415 -109.79 74.2283 
-83.9207 -107.911 75.5407 -83.6852 -105.605 76.1557 -83.0603 -103.342 76.3544 
-84.8235 -108.38 51.9072 -84.2249 -110.244 49.9651 -83.7888 -112.385 47.1516 
-83.1719 -115.166 44.2918 -81.928 -118.093 42.4558 -80.6219 -120.307 40.8501 
-79.8029 -122.21 38.2797 -79.2154 -124.507 35.2778 -78.5994 -126.887 32.7529 
-84.8051 -105.933 55.5279 -84.2447 -105.094 58.2363 -84.5511 -103.929 61.2228 
-85.4223 -102.494 64.2765 -85.5941 -101.289 67.4271 -85.3562 -100.686 70.2561 
-85.3235 -100.534 72.4172 -84.8302 -100.63 74.1086 -83.6404 -100.95 75.4562 
-59.7823 -114.173 56.8822 -59.6617 -113.048 55.9732 -59.8263 -111.66 55.038 
-60.0242 -110.067 54.3392 -60.1143 -108.304 53.772 -60.1414 -106.361 53.1411 
-60.1408 -104.424 52.4076 -60.2521 -102.826 51.581 -60.6751 -101.698 50.748 
-58.8469 -116.33 55.91 -57.9841 -117.446 53.8594 -57.6641 -118.675 50.9877 
-57.8073 -119.989 47.6495 -58.8764 -120.829 44.9288 -60.9489 -121.135 43.0179 
-62.8696 -121.616 40.6351 -63.7361 -122.463 37.3047 -64.0104 -123.246 34.039 
-61.4465 -113.068 58.8555 -62.2435 -110.883 60.9599 -61.997 -108.868 63.8871 
-61.1038 -107.146 66.9339 -60.5689 -105.367 69.3311 -60.5844 -103.063 71.2307 
-60.735 -100.336 72.8859 -61.0194 -97.8879 74.0004 -61.7099 -96.1762 74.5386 
-61.0998 -102.624 48.2713 -60.9345 -104.678 46.3183 -60.6307 -106.845 44.1166 
-60.7103 -109.322 42.3581 -61.9097 -112.351 41.4935 -63.3384 -115.403 40.4776 
-63.6588 -117.873 38.2616 -63.4054 -119.882 35.49 -63.6947 -121.809 33.2346 
-61.6145 -100.067 52.7043 -62.2988 -99.4258 56.277 -62.7529 -98.4035 60.0342 
-62.2125 -96.3714 62.8288 -61.2519 -93.9715 64.811 -61.0158 -92.66 66.9236 
-61.4417 -92.7651 69.1873 -61.8825 -93.4459 71.2754 -62.2685 -94.183 73.2006 
-77.1912 -129.75 28.2354 -76.2994 -130.434 25.6727 -75.29 -130.865 23.6432 
-73.6602 -130.706 22.7064 -71.0118 -129.928 22.471 -68.3359 -129.117 22.6616 
-66.9322 -128.289 24.0905 -66.3736 -126.989 26.7263 -65.5569 -125.339 29.3787 
-81.1555 -100.787 77.0023 -79.6326 -100.378 77.2957 -77.5359 -100.388 76.9938 
-75.0598 -100.656 76.2193 -72.5882 -100.373 75.8577 -70.1417 -99.0596 76.381 
-67.8096 -97.3496 76.9905 -65.8294 -96.0399 76.825 -64.1771 -95.3243 75.958 
-71.4219 -111.485 72.7599 -72.8419 -110.734 72.0122 -71.3389 -112.384 70.6592 
-74.5027 -112.049 70.8293 -72.7858 -113.047 69.4137 -71.513 -114.85 67.717 
-75.6111 -114.219 69.3832 -74.2237 -114.638 67.8667 -72.7442 -115.775 66.0766 
-71.5438 -116.912 64.2026 -76.288 -116.302 67.6413 -75.1057 -116.285 66.1425 
-73.9241 -116.786 64.2461 -72.6191 -117.395 62.2343 -71.1236 -118.367 60.1428 
-77.3255 -118.085 65.4898 -75.9911 -118.137 64.1607 -74.9792 -118.111 62.2498 
-73.9163 -118.298 60.143 -72.384 -118.885 57.9789 -70.6672 -119.796 55.9361 
-78.653 -119.346 63.2924 -77.3052 -119.816 62.0895 -76.2213 -119.648 60.157 
-75.2325 -119.575 57.9937 -73.8326 -119.916 55.9249 -72.1464 -120.48 54.0033 
-70.5305 -121.158 52.4753 -79.755 -120.118 61.3394 -78.5815 -120.888 60.2061 
-77.497 -120.808 58.2507 -76.4917 -120.609 55.9711 -75.1396 -120.919 53.9952 
-73.5055 -121.391 52.2707 -71.983 -121.844 50.7753 -70.5387 -122.464 49.6643 
-72.6179 -114.003 75.0449 -73.7833 -115.731 75.9748 -74.0862 -113.248 74.4971 
-75.2988 -116.061 77.1476 -75.2564 -116.045 75.2937 -75.4069 -114.186 73.6087 
-77.0567 -114.272 78.7019 -76.8874 -116.651 76.5476 -76.4891 -117.159 74.4533 
-76.4814 -116.045 72.5839 -78.5674 -111.907 79.7534 -78.7948 -114.555 77.8875 
-78.3866 -117.078 75.6038 -77.8377 -117.882 73.5092 -77.6555 -117.114 71.2311 
-79.8242 -109.851 79.4043 -80.2117 -112.021 78.2413 -80.2927 -114.437 76.3292 
-79.8709 -116.604 74.3028 -79.3548 -117.224 71.9491 -79.0371 -117.003 69.0729 
-81.0611 -107.638 78.2576 -81.2737 -109.927 77.6571 -81.3992 -111.908 76.2898 
-81.3552 -113.876 74.5298 -81.0452 -115.404 72.3904 -80.6319 -116.037 69.5492 
-80.2608 -116.742 66.4872 -82.1627 -105.331 77.2164 -82.4758 -107.752 76.9127 
-82.4691 -109.913 75.9882 -82.3014 -111.653 74.4325 -82.105 -113.212 72.467 
-81.8205 -114.468 69.9432 -81.455 -115.537 66.9282 -81.0912 -116.985 64.1403 
-84.4496 -103.099 75.2493 -85.5339 -103.075 73.7188 -85.1438 -105.521 74.8293 
-85.7868 -103.256 71.7529 -86.0654 -105.635 72.9273 -85.2525 -107.758 73.8143 
-85.733 -103.639 69.1461 -86.1318 -105.956 70.4541 -85.8878 -107.734 71.3851 
-84.5824 -109.433 72.0168 -85.7163 -104.259 65.8097 -85.9698 -106.392 67.2928 
-85.7313 -108.015 68.3447 -84.7564 -109.232 69.0703 -83.5456 -110.875 69.6645 
-85.1545 -105.076 62.2745 -85.7055 -106.745 63.6278 -85.4978 -108.44 64.8463 
-84.4696 -109.522 65.6477 -83.4101 -110.755 66.3355 -82.7504 -112.554 66.9901 
-84.555 -106.053 58.9542 -85.1501 -107.232 59.9998 -85.3169 -108.842 61.2559 
-84.5775 -110.224 62.2143 -83.5019 -111.303 62.8764 -82.8084 -112.826 63.5807 
[...]
POINT_DATA 1002
FIELD FieldData 1
Destrieux 1 1002 float
12182 12182 12182 12182 12182 12182 12182 12182 12182 
12182 12182 12182 12182 12182 12182 12182 12182 12182 
12182 12182 12182 12182 12182 12182 12182 12182 12182 
12182 12182 12182 12182 12182 12182 12182 12182 12182 
12182 12182 12182 12182 12182 12182 12182 12182 12182 
12182 12182 12182 12182 12182 12182 12182 12182 12182 
12182 12182 12182 12182 12182 12182 12182 12182 12182 
12182 12182 12182 12182 12182 12182 12182 12182 12182 
12182 12182 12182 12182 12182 12182 12182 12182 12182 
12182 12182 12182 12182 12182 12182 12182 12182 12182 
12182 12182 12182 12182 12182 12182 12182 12182 12182 
12182 12182 12182 12182 12182 12182 12182 12182 12182 
12182 12182 12182 12182 12182 12182 12182 12182 12182 
12182 12182 12182 12182 12182 12182 12182 12182 12182 
12182 12182 12182 12182 12182 12182 12182 12182 12182 
12182 12182 12182 12182 12182 12182 12182 12182 12182 
12182 12182 12182 12182 12182 12182 12182 12182 12182 
12182 12182 12182 12182 12182 12182 12182 12182 12182 
12182 12182 12182 12182 12182 12182 12182 12182 12182 
12182 12182 12182 12182 12182 12182 12182 12182 12182 
12182 12182 12182 12182 12182 12182 12182 12182 12182 
12182 12182 12182 12182 12182 12182 12182 12182 12182 
12182 12182 12182 12182 12182 12182 12182 12182 12182 
12182 12182 12182 12182 12182 12182 12182 12182 12182 
12182 12182 12182 12182 12182 12182 12182 12182 12182 
12182 12182 12182 12182 12182 12182 12182 12182 12182 
12182 12182 12182 12182 12182 12182 12182 12182 12182 
12182 12182 12182 12182 12182 12182 12182 12182 12182 
12182 12182 12182 12182 12182 12182 12182 12182 12182 
12182 12182 12182 12182 12182 12182 12182 12182 12182 
12182 12182 12182 12182 12182 12182 12182 12182 12182 
12182 12182 12182 12182 12182 12182 12182 12182 12182 
12182 12182 12182 12182 12182 12182 12182 12182 12182 
12182 12182 12182 12182 12182 12182 12182 12182 12182 
12182 12182 12182 12182 12182 12182 12182 12182 12182 
12182 12182 12182 12182 12182 12182 12182 12182 12182 
12182 12182 12182 12182 12182 12182 12182 12182 12182 
12182 12182 12182 12182 12182 12182 12182 12182 12182 
12182 12182 12182 12182 12182 12182 12182 12182 12182 
12182 12182 12182 12182 12182 12182 12182 12182 12182 
12182 12182 12182 12182 12182 12182 12182 12182 12182 
12182 12182 12182 12182 12182 12182 12182 12182 12182 
12182 12182 12182 12182 12182 12182 12182 12182 12182 
12182 12182 12182 12182 12182 12182 12182 12182 12182 
12182 12182 12182 12182 12182 12182 12182 12182 12182 
12182 12182 12182 12182 12182 12182 12182 12182 12182 
12182 12182 12182 12182 12182 12182 12182 12182 12182 
12182 12182 12182 12182 12182 12182 12182 12182 12182 
12182 12182 12182 12182 12182 12182 12182 12182 12182 
12182 12182 12182 12182 12182 12182 12182 12182 12182 
12182 12182 12182 12182 12182 12182 12182 12182 12182 
12182 12182 12182 12182 12182 12182 12182 12182 12182 
12182 12182 12182 12182 12182 12182 12182 12182 12182 
12182 12182 12182 12182 12182 12182 12182 12182 12182 
12182 12182 12182 12182 12182 12182 12182 12182 12182 
12182 12182 12182 12182 12182 12182 12182 12182 12182 
12182 12182 12182 12182 12182 12182 12182 12182 12182 
12182 12182 12182 12182 12182 12182 12182 12182 12182 
12182 12182 12182 12182 12182 12182 12182 12182 12182 
12182 12182 12182 12182 12182 12182 12182 12182 12182 
12182 12182 12182 12182 12182 12182 12182 12182 12182 
12182 12182 12182 12182 12182 12182 12182 12182 12182 
12182 12182 12182 12182 12182 12182 12182 12182 12182 
12182 12182 12182 12182 12182 12182 12182 12182 12182 
12182 12182 12182 12182 12182 12182 12182 12182 12182 
12182 12182 12182 12182 12182 12182 12182 12182 12182 
12182 12182 12182 12182 12182 12182 12182 12182 12182 
12182 12182 12182 12182 12182 12182 12182 12182 12182 
12182 12182 12182 12182 12182 12182 12182 12182 12182 
12182 12182 12182 12182 12182 12182 12182 12182 12182 
12182 12182 12182 12182 12182 12182 12182 12182 12182 
12182 12182 12182 12182 12182 12182 12182 12182 12182 
12182 12182 12182 12182 12182 12182 12182 12182 12182 
12182 12182 12182 12182 12182 12182 12182 12182 12182 
12182 12182 12182 12182 12182 12182 12182 12182 12182 
12182 12182 12182 12182 12182 12182 12182 12182 12182 
12182 12182 12182 12182 12182 12182 12182 12182 12182 
12182 12182 12182 12182 12182 12182 12182 12182 12182 
12182 12182 12182 12182 12182 12182 12182 12182 12182 
12182 12182 12182 12182 12182 12182 12182 12182 12182 
12182 12182 12182 12182 12182 12182 12182 12182 12182 
12182 12182 12182 12182 12182 12182 12182 12182 12182 
12182 12182 12182 12182 12182 12182 12182 12182 12182 
12182 12182 12182 12182 12182 12182 12182 12182 12182 
12182 12182 12182 12182 12182 12182 12182 12182 12182 
12182 12182 12182 12182 12182 12182 12182 12182 12182 
12182 12182 12182 12182 12182 12182 12182 12182 12182 
12182 12182 12182 12182 12182 12182 12182 12182 12182 
12182 12182 12182 12182 12182 12182 12182 12182 12182 
12182 12182 12182 12182 12182 12182 12182 12182 12182 
12182 12182 12182 12182 12182 12182 12182 12182 12182 
12182 12182 12182 12182 12182 12182 12182 12182 12182 
12182 12182 12182 12182 12182 12182 12182 12182 12182 
12182 12182 12182 12182 12182 12182 12182 12182 12182 
12182 12182 12182 12182 12182 12182 12182 12182 12182 
12182 12182 12182 12182 12182 12182 12182 12182 12182 
12182 12182 12182 12182 12182 12182 12182 12182 12182 
12182 12182 12182 12182 12182 12182 12182 12182 12182 
12182 12182 12182 12182 12182 12182 12182 12182 12182 
12182 12182 12182 12182 12182 12182 12182 12182 12182 
12182 12182 12182 12182 12182 12182 12182 12182 12182 
12182 12182 12182 12182 12182 12182 12182 12182 12182 
12182 12182 12182 12182 12182 12182 12182 12182 12182 
12182 12182 12182 12182 12182 12182 12182 12182 12182 
12182 12182 12182 12182 12182 12182 12182 12182 12182 
12182 12182 12182 12182 12182 12182 12182 12182 12182 
12182 12182 12182 12182 12182 12182 12182 12182 12182 
12182 12182 12182 12182 12182 12182 12182 12182 12182 
12182 12182 12182 12182 12182 12182 12182 12182 12182 
12182 12182 12182 12182 12182 12182 12182 12182 12182 
12182 12182 12182 12182 12182 12182 12182 12182 12182 
12182 12182 12182 
