# vtk DataFile Version 4.0
vtk output
ASCII
DATASET POLYDATA
POINTS 1002 float
-117.654 -100.432 68.8984 -113.395 -93.8467 69.3874 -112.901 -103.594 68.849 
-108.146 -97.1567 69.7816 -114.45 -97.4295 64.0314 -110.683 -99.6629 64.9331 
-114.88 -98.0496 74.4944 -112.207 -99.9361 74.4942 -108.474 -91.9735 66.5692 
-117.075 -105.718 65.0848 -109.546 -93.1322 73.1838 -117.328 -105.863 72.6387 
-117.39 -99.7507 68.9472 -117.097 -98.9412 68.9574 -116.992 -97.9137 68.9898 
-116.812 -97.0532 69.0046 -116.049 -96.7134 68.963 -115.102 -96.3815 68.9824 
-114.717 -95.5563 69.1337 -114.612 -94.6389 69.3053 -114.157 -94.095 69.3881 
-117.541 -100.226 68.3626 -117.467 -99.915 67.6827 -117.42 -99.4629 66.9752 
-117.168 -99.0804 66.3971 -116.674 -98.8783 66.002 -116.16 -98.6757 65.6989 
-115.712 -98.3768 65.312 -115.312 -98.0333 64.7751 -114.924 -97.6939 64.2787 
-117.574 -100.219 69.3647 -117.316 -100.032 69.8094 -116.967 -99.7819 70.4036 
-116.807 -99.4051 71.1759 -116.68 -99.1481 71.8764 -116.138 -99.1608 72.3449 
-115.442 -99.1252 72.7444 -115.11 -98.8226 73.2592 -115.029 -98.4095 73.8811 
-117.772 -101.047 68.4405 -117.907 -101.764 67.8704 -118.173 -102.419 67.4207 
-118.442 -102.956 67.1041 -118.435 -103.593 66.6712 -118.281 -104.339 66.2078 
-118.196 -104.991 65.8869 -118.001 -105.495 65.5663 -117.578 -105.765 65.242 
-117.745 -101.068 69.1027 -117.731 -101.81 69.302 -117.739 -102.51 69.5403 
-117.766 -103.187 69.8113 -117.739 -103.848 70.1465 -117.741 -104.331 70.6219 
-117.813 -104.754 71.226 -117.824 -105.304 71.8452 -117.667 -105.75 72.3407 
-113.525 -93.9388 68.7966 -113.725 -94.0281 68.1502 -113.947 -94.2115 67.556 
-114.055 -94.6234 67.0386 -114.057 -95.1346 66.4453 -114.079 -95.5944 65.7724 
-114.141 -96.12 65.2274 -114.244 -96.679 64.8051 -114.38 -97.0964 64.3858 
-113.787 -93.8916 69.9348 -114.068 -94.0749 70.4445 -114.119 -94.5022 70.988 
-114.072 -95.0843 71.6059 -114.086 -95.6851 72.163 -114.19 -96.2583 72.6313 
-114.399 -96.7535 73.1463 -114.643 -97.1682 73.6756 -114.806 -97.5879 74.1208 
-112.729 -93.6462 68.9968 -112.276 -93.2537 68.6202 -111.945 -92.687 68.2651 
-111.606 -91.9925 67.7709 -111.358 -91.283 67.1676 -110.925 -90.9111 66.7462 
-109.975 -90.9577 66.5606 -109.023 -91.1337 66.4728 -108.596 -91.4265 66.4751 
-112.846 -93.6653 69.7277 -112.39 -93.4302 70.1322 -112.076 -93.0869 70.6392 
-111.899 -92.5694 71.251 -111.836 -91.9766 71.9277 -111.608 -91.6811 72.5075 
-110.984 -91.8724 72.7895 -110.252 -92.3146 72.8535 -109.774 -92.7529 72.9616 
-112.485 -103.109 69.0955 -111.948 -102.502 69.3271 -111.191 -101.92 69.4456 
-110.51 -101.399 69.4542 -110.1 -100.792 69.4598 -109.618 -100.091 69.5685 
-108.979 -99.4366 69.7448 -108.551 -98.7633 69.8345 -108.365 -97.9575 69.805 
-112.771 -103.412 68.3617 -112.601 -103.109 67.9623 -112.329 -102.718 67.5684 
-111.956 -102.346 67.0826 -111.555 -102.03 66.6157 -111.167 -101.717 66.2004 
-110.884 -101.327 65.7389 -110.808 -100.785 65.3553 -110.808 -100.166 65.1413 
-112.742 -103.474 69.5186 -112.613 -103.265 70.1724 -112.55 -102.939 70.7673 
-112.407 -102.597 71.3945 -112.156 -102.299 72.1676 -112.104 -101.854 72.8527 
-112.386 -101.125 73.135 -112.62 -100.418 73.3006 -112.503 -100.057 73.7888 
-113.227 -103.934 68.3021 -113.499 -104.365 67.8178 -113.757 -104.871 67.4703 
-114.09 -105.35 67.1714 -114.527 -105.687 66.7839 -115.076 -105.759 66.3468 
-115.7 -105.615 65.9931 -116.263 -105.54 65.7091 -116.703 -105.645 65.4014 
-113.326 -103.88 69.0884 -113.824 -104.173 69.3996 -114.208 -104.574 69.7493 
-114.512 -105.037 70.1972 -114.904 -105.451 70.6939 -115.394 -105.658 71.0881 
-115.936 -105.669 71.4705 -116.486 -105.749 71.9612 -116.965 -105.909 72.4057 
-107.972 -97.4255 69.4946 -107.913 -97.718 69.0848 -108.021 -98.0579 68.4239 
-108.158 -98.5292 67.6136 -108.287 -99.0065 66.9531 -108.624 -99.283 66.5027 
-109.191 -99.4081 66.0272 -109.757 -99.5037 65.5119 -110.238 -99.5831 65.1476 
-108.488 -97.3977 70.1094 -108.711 -97.7456 70.688 -108.841 -98.2161 71.4692 
-109.108 -98.6485 72.1331 -109.611 -98.8864 72.6244 -110.231 -98.9882 73.0785 
-110.888 -99.0763 73.4013 -111.478 -99.2572 73.6435 -111.896 -99.5772 74.0256 
-107.637 -96.6255 69.6165 -106.989 -96.3067 69.3767 -106.495 -96.0848 69.0518 
-106.402 -95.4181 68.6508 -106.475 -94.3046 68.1126 -106.507 -93.5719 67.5604 
-106.826 -93.3573 67.2452 -107.52 -93.0024 67.0859 -108.145 -92.4118 66.8574 
-108.029 -96.6277 70.0511 -107.882 -96.2612 70.4419 -107.839 -95.9792 70.8161 
-107.9 -95.5277 71.251 -107.961 -94.8344 71.8552 -108.092 -94.2281 72.32 
-108.45 -93.86 72.53 -108.911 -93.5321 72.7816 -109.262 -93.2406 73.0684 
-114.008 -97.5945 63.8622 -113.422 -97.8844 63.7112 -112.908 -98.1578 63.3602 
-112.508 -98.3313 62.918 -112.065 -98.5163 62.812 -111.614 -98.7822 63.1632 
-111.291 -99.0474 63.7008 -111.052 -99.2671 64.2101 -110.844 -99.4674 64.6202 
-113.851 -97.0018 64.1564 -113.243 -96.4726 64.2556 -112.671 -95.8172 64.2776 
-111.957 -95.1697 64.4919 -111.117 -94.577 64.9464 -110.441 -94.0151 65.3587 
-109.912 -93.4967 65.6843 -109.346 -92.9338 65.9973 -108.822 -92.3451 66.2763 
-114.744 -98.0204 63.9292 -114.921 -98.9088 64.1417 -115.172 -99.9213 64.4039 
-115.689 -100.821 64.2799 -116.322 -101.657 63.9933 -116.864 -102.535 63.9758 
-117.198 -103.526 64.1 -117.256 -104.568 64.2534 -117.163 -105.346 64.5864 
-110.058 -99.2989 64.6537 -109.382 -98.9349 64.3229 -109.056 -98.256 64.3475 
-108.968 -97.2578 64.7077 -108.75 -96.1316 65.0912 -108.543 -95.1015 65.5466 
-108.542 -94.3751 66.0812 -108.577 -93.7321 66.4128 -108.533 -92.8666 66.5099 
-111.145 -100.174 64.7637 -111.418 -101.046 64.2957 -111.83 -101.959 63.9054 
-112.741 -102.494 63.9922 -113.819 -102.845 64.2877 -114.583 -103.426 64.4709 
-115.225 -104.143 64.6251 -115.95 -104.786 64.7321 -116.586 -105.321 64.8209 
-114.728 -98.1865 75.0305 -114.545 -98.403 75.4579 -114.41 -98.6842 75.8994 
-114.191 -99.0065 76.4178 -113.763 -99.2697 76.5657 -113.296 -99.4307 76.124 
-112.896 -99.6395 75.6814 -112.524 -99.9084 75.4898 -112.277 -100.025 75.1353 
-114.594 -97.4023 74.8732 -114.244 -96.7187 75.2104 -113.755 -96.1638 75.2383 
-113.017 -95.7356 75.0133 -112.325 -95.0443 75.0961 -111.951 -94.1486 75.3485 
-111.491 -93.6832 74.986 -110.712 -93.6295 74.1515 -109.992 -93.4702 73.5193 
-115.084 -98.7538 74.5032 -115.328 -99.5414 74.4461 -115.582 -100.42 74.2308 
-115.951 -101.263 74.1556 -116.505 -101.951 74.3936 -116.973 -102.602 74.3338 
-117.178 -103.397 73.7218 -117.273 -104.356 73.1727 -117.341 -105.271 72.9255 
-111.818 -99.5233 74.808 -111.589 -98.8212 74.8501 -111.263 -98.0375 74.8305 
-110.693 -97.413 74.9708 -110.192 -96.6655 75.0596 -109.916 -95.5773 74.9832 
-109.721 -94.5694 74.8251 -109.613 -93.9844 74.4099 -109.585 -93.6116 73.7439 
-112.748 -100.33 74.4413 -113.281 -100.869 74.3751 -113.646 -101.638 74.4138 
-114.084 -102.338 74.3498 -114.795 -102.77 74.0006 -115.384 -103.282 73.6048 
-115.704 -104.081 73.3608 -116.157 -104.896 73.1968 -116.806 -105.493 72.9925 
-108.39 -91.556 66.9434 -108.404 -91.4915 67.5992 -108.306 -91.3939 68.4483 
-108.212 -91.0631 69.2473 -108.389 -90.9949 69.8848 -108.64 -91.3384 70.6048 
-108.782 -91.6392 71.5552 -108.985 -91.9314 72.3757 -109.277 -92.4893 72.8276 
-117.329 -106.08 65.7124 -117.592 -106.673 66.2945 -117.727 -107.516 66.7054 
-117.699 -108.192 67.3405 -117.652 -108.333 68.4644 -117.585 -107.929 69.4979 
-117.458 -107.222 70.1529 -117.415 -106.597 70.9317 -117.435 -106.212 71.9058 
-117.178 -99.552 68.3531 -117.1 -99.1515 67.626 -116.922 -98.6213 68.3191 
-117.095 -98.581 66.9175 -116.928 -98.0802 67.6238 -116.945 -97.4431 68.3715 
-116.837 -98.1759 66.3754 -116.862 -97.5657 66.9708 -116.833 -97.0262 67.7607 
-116.641 -96.6841 68.4594 -116.315 -98.0022 66.0281 -116.413 -97.36 66.4524 
-116.341 -96.9173 67.1605 -116.11 -96.616 67.9433 -115.633 -96.4748 68.5163 
-115.738 -97.8566 65.7387 -115.733 -97.3156 66.1242 -115.568 -96.9589 66.6592 
-115.292 -96.7091 67.406 -115.003 -96.379 68.0842 -114.777 -95.9835 68.608 
-115.202 -97.6641 65.3107 -115.055 -97.2391 65.8222 -114.866 -96.8542 66.2906 
-114.638 -96.5542 66.8992 -114.478 -96.1357 67.5705 -114.436 -95.5875 68.1586 
-114.513 -95.06 68.7266 -114.769 -97.3991 64.7796 -114.543 -97.0364 65.3435 
-114.373 -96.5677 65.8381 -114.274 -96.1205 66.3876 -114.242 -95.6377 67.0118 
-114.239 -95.0847 67.5858 -114.216 -94.6312 68.1599 -114.197 -94.317 68.7889 
-117.746 -100.763 67.8215 -117.908 -101.424 67.2701 -117.726 -100.365 67.1494 
-118.081 -102.111 66.8991 -117.805 -101.036 66.7165 -117.54 -99.9798 66.5334 
-118.164 -102.756 66.5713 -117.813 -101.809 66.4028 -117.498 -100.71 66.1663 
-117.091 -99.7393 66.0222 -118.041 -103.406 66.1207 -117.763 -102.484 66.0084 
-117.503 -101.405 65.7433 -117.103 -100.369 65.5663 -116.568 -99.5145 65.6149 
-117.928 -104.039 65.653 -117.672 -103.039 65.5061 -117.488 -101.949 65.2403 
-117.201 -100.875 65.0231 -116.637 -100.003 65.1192 -116.082 -99.1923 65.271 
-117.869 -104.654 65.1766 -117.685 -103.583 64.9666 -117.456 -102.446 64.7672 
-117.149 -101.401 64.5755 -116.619 -100.536 64.6948 -116.013 -99.7139 64.8915 
-115.621 -98.8091 64.837 -117.623 -105.158 64.7524 -117.62 -104.16 64.477 
-117.436 -102.995 64.3492 -117.035 -101.97 64.234 -116.459 -101.14 64.36 
-115.825 -100.338 64.6428 -115.413 -99.3692 64.581 -115.207 -98.3894 64.3096 
-116.64 -104.829 64.4195 -115.954 -104.12 64.4066 -116.666 -103.993 64.1554 
-115.258 -103.401 64.2885 -115.893 -103.384 64.1137 -116.485 -103.1 63.935 
-114.482 -102.808 64.0779 -115.06 -102.803 63.9907 -115.603 -102.62 63.8013 
-116.081 -102.158 63.7366 -113.331 -102.341 63.8187 -113.955 -102.145 63.862 
-114.586 -101.858 63.7568 -115.201 -101.422 63.5812 -115.556 -101.077 63.8059 
-112.23 -101.727 63.6738 -112.744 -101.341 63.7314 -113.405 -100.9 63.7555 
-114.174 -100.441 63.5443 -114.74 -100.163 63.5741 -114.982 -100.094 64.0082 
-111.714 -100.802 63.9688 -112.049 -100.434 63.7815 -112.505 -100.047 63.6596 
-113.153 -99.7048 63.4303 -113.788 -99.466 63.3196 -114.211 -99.3493 63.5816 
[...]
POINT_DATA 1002
FIELD FieldData 2
Theta 1 1002 float
2.58802 2.58802 0.553574 0.553574 2.12437 1.01722 2.12437 1.01722 1.5708 
1.5708 1.5708 1.5708 2.68241 2.78649 2.89924 3.01861 3.14159 3.01861 
2.89924 2.78649 2.68241 2.61035 2.61791 2.60515 2.56958 2.51327 2.44184 
2.36202 2.27983 2.1997 2.61035 2.61791 2.60515 2.56958 2.51327 2.44184 
2.36202 2.27983 2.1997 2.50947 2.41899 2.31794 2.20864 2.0944 1.97902 
1.86631 1.75944 1.66056 2.50947 2.41899 2.31794 2.20864 2.0944 1.97902 
1.86631 1.75944 1.66056 2.61035 2.61791 2.60515 2.56958 2.51327 2.44184 
2.36202 2.27983 2.1997 2.61035 2.61791 2.60515 2.56958 2.51327 2.44184 
2.36202 2.27983 2.1997 2.50947 2.41899 2.31794 2.20864 2.0944 1.97902 
1.86631 1.75944 1.66056 2.50947 2.41899 2.31794 2.20864 2.0944 1.97902 
1.86631 1.75944 1.66056 0.459179 0.355101 0.242354 0.122983 0 0.122983 
0.242354 0.355101 0.459179 0.531246 0.523681 0.536438 0.57201 0.628319 0.699757 
0.779574 0.86176 0.941896 0.531246 0.523681 0.536438 0.57201 0.628319 0.699757 
0.779574 0.86176 0.941896 0.632123 0.7226 0.823657 0.932948 1.0472 1.16257 
1.27528 1.38216 1.48103 0.632123 0.7226 0.823657 0.932948 1.0472 1.16257 
1.27528 1.38216 1.48103 0.531246 0.523681 0.536438 0.57201 0.628319 0.699757 
0.779574 0.86176 0.941896 0.531246 0.523681 0.536438 0.57201 0.628319 0.699757 
0.779574 0.86176 0.941896 0.632123 0.7226 0.823657 0.932948 1.0472 1.16257 
1.27528 1.38216 1.48103 0.632123 0.7226 0.823657 0.932948 1.0472 1.16257 
1.27528 1.38216 1.48103 2.02998 1.9259 1.81315 1.69378 1.5708 1.44781 
1.32844 1.2157 1.11162 2.0928 2.05283 2.00422 1.94767 1.88496 1.81867 
1.75177 1.68695 1.62623 2.0928 2.05283 2.00422 1.94767 1.88496 1.81867 
1.75177 1.68695 1.62623 1.0488 1.08876 1.13737 1.19392 1.25664 1.32292 
1.38982 1.45464 1.51537 1.0488 1.08876 1.13737 1.19392 1.25664 1.32292 
1.38982 1.45464 1.51537 2.02998 1.9259 1.81315 1.69378 1.5708 1.44781 
1.32844 1.2157 1.11162 2.0928 2.05283 2.00422 1.94767 1.88496 1.81867 
1.75177 1.68695 1.62623 2.0928 2.05283 2.00422 1.94767 1.88496 1.81867 
1.75177 1.68695 1.62623 1.0488 1.08876 1.13737 1.19392 1.25664 1.32292 
1.38982 1.45464 1.51537 1.0488 1.08876 1.13737 1.19392 1.25664 1.32292 
1.38982 1.45464 1.51537 1.5708 1.5708 1.5708 1.5708 1.5708 1.5708 
1.5708 1.5708 1.5708 1.5708 1.5708 1.5708 1.5708 1.5708 1.5708 
1.5708 1.5708 1.5708 2.70908 2.71362 2.81592 2.68886 2.81002 2.92597 
2.6349 2.76254 2.89233 3.01997 2.55881 2.68262 2.80854 2.92834 3.01997 
2.47007 2.58462 2.70048 2.80854 2.89233 2.92597 2.37702 2.48017 2.58462 
2.68262 2.76254 2.81002 2.81592 2.28567 2.37702 2.47007 2.55881 2.6349 
2.68886 2.71362 2.70908 2.52097 2.4195 2.51718 2.30791 2.40503 2.49426 
2.18928 2.28408 2.3734 2.45144 2.06758 2.15805 2.24572 2.32523 2.39165 
1.94707 2.03138 2.11543 2.19453 2.26401 2.32035 1.83164 1.90847 1.98711 
2.06376 2.13422 2.1949 2.24359 1.72413 1.79288 1.86489 1.93728 2.00658 
2.06938 2.12312 2.16654 1.5708 1.50988 1.63171 1.44492 1.5708 1.69667 
1.37826 1.5059 1.63569 1.76333 1.31281 1.43962 1.5708 1.70197 1.82878 
1.25155 1.37501 1.50478 1.63681 1.76659 1.89004 1.19686 1.31493 1.44074 
1.5708 1.70086 1.82666 1.94473 1.15011 1.26149 1.38136 1.50697 1.63462 
1.76024 1.88011 1.99148 1.99148 1.88011 1.94473 1.76024 1.82666 1.89004 
1.63462 1.70086 1.76659 1.82878 1.50697 1.5708 1.63681 1.70197 1.76333 
1.38136 1.44074 1.50478 1.5708 1.63569 1.69667 1.26149 1.31493 1.37501 
1.43962 1.5059 1.5708 1.63171 1.15011 1.19686 1.25155 1.31281 1.37826 
1.44492 1.50988 1.5708 2.16654 2.12312 2.24359 2.06938 2.1949 2.32035 
2.00658 2.13422 2.26401 2.39165 1.93728 2.06376 2.19453 2.32523 2.45144 
1.86489 1.98711 2.11543 2.24572 2.3734 2.49426 1.79288 1.90847 2.03138 
2.15805 2.28408 2.40503 2.51718 1.72413 1.83164 1.94707 2.06758 2.18928 
2.30791 2.4195 2.52097 1.66533 1.66946 1.76911 1.67254 1.777 1.88041 
1.67418 1.78222 1.89102 1.99634 1.67418 1.78405 1.89674 2.00785 2.11299 
1.67254 1.78222 1.89674 2.01191 2.12307 2.22608 1.66946 1.777 1.89102 
2.00785 2.12307 2.23222 2.33166 1.66533 1.76911 1.88041 1.99634 2.11299 
2.22608 2.33166 2.42672 1.47626 1.37249 1.47213 1.26118 1.36459 1.46906 
1.14526 1.25058 1.35938 1.46741 1.0286 1.13374 1.24485 1.35755 1.46741 
0.915514 1.01852 1.12969 1.24485 1.35938 1.46906 0.809937 0.909371 1.01852 
1.13374 1.25058 1.36459 1.47213 0.714871 0.809937 0.915514 1.0286 1.14526 
1.26118 1.37249 1.47626 0.975055 0.898002 1.01847 0.821245 0.946693 1.07221 
0.749941 0.877585 1.00737 1.13501 0.690152 0.816367 0.94706 1.07784 1.20431 
0.647337 0.768195 0.895868 1.02616 1.15448 1.2767 0.624416 0.736561 0.857515 
0.983547 1.11021 1.23313 1.34871 0.620619 0.722093 0.833684 0.952313 1.07402 
1.19452 1.30996 1.41746 0.855925 0.764569 0.764569 0.671524 0.661425 0.671524 
0.582786 0.556971 0.556971 0.582786 0.506696 0.458968 0.441109 0.458968 0.506696 
0.45273 0.379052 0.333054 0.333054 0.379052 0.45273 0.427969 0.331576 0.249267 
0.21325 0.249267 0.331576 0.427969 0.432512 0.325669 0.215619 0.121622 0.121622 
0.215619 0.325669 0.432512 0.432512 0.427969 0.325669 0.45273 0.331576 0.215619 
0.506696 0.379052 0.249267 0.121622 0.582786 0.458968 0.333054 0.21325 0.121622 
0.671524 0.556971 0.441109 0.333054 0.249267 0.215619 0.764569 0.661425 0.556971 
0.458968 0.379052 0.331576 0.325669 0.855925 0.764569 0.671524 0.582786 0.506696 
0.45273 0.427969 0.432512 0.975055 1.01847 0.898002 1.07221 0.946693 0.821245 
1.13501 1.00737 0.877585 0.749941 1.20431 1.07784 0.94706 0.816367 0.690152 
1.2767 1.15448 1.02616 0.895868 0.768195 0.647337 1.34871 1.23313 1.11021 
0.983547 0.857515 0.736561 0.624416 1.41746 1.30996 1.19452 1.07402 0.952313 
0.833684 0.722093 0.620619 1.15011 1.26149 1.19686 1.38136 1.31493 1.25155 
1.50697 1.44074 1.37501 1.31281 1.63462 1.5708 1.50478 1.43962 1.37826 
1.76024 1.70086 1.63681 1.5708 1.5059 1.44492 1.88011 1.82666 1.76659 
1.70197 1.63569 1.5708 1.50988 1.99148 1.94473 1.89004 1.82878 1.76333 
1.69667 1.63171 1.5708 1.15011 1.19686 1.26149 1.25155 1.31493 1.38136 
1.31281 1.37501 1.44074 1.50697 1.37826 1.43962 1.50478 1.5708 1.63462 
1.44492 1.5059 1.5708 1.63681 1.70086 1.76024 1.50988 1.5708 1.63569 
1.70197 1.76659 1.82666 1.88011 1.5708 1.63171 1.69667 1.76333 1.82878 
1.89004 1.94473 1.99148 1.72413 1.83164 1.79288 1.94707 1.90847 1.86489 
2.06758 2.03138 1.98711 1.93728 2.18928 2.15805 2.11543 2.06376 2.00658 
2.30791 2.28408 2.24572 2.19453 2.13422 2.06938 2.4195 2.40503 2.3734 
2.32523 2.26401 2.1949 2.12312 2.52097 2.51718 2.49426 2.45144 2.39165 
2.32035 2.24359 2.16654 2.70908 2.81592 2.71362 2.92597 2.81002 2.68886 
3.01997 2.89233 2.76254 2.6349 3.01997 2.92834 2.80854 2.68262 2.55881 
2.92597 2.89233 2.80854 2.70048 2.58462 2.47007 2.81592 2.81002 2.76254 
2.68262 2.58462 2.48017 2.37702 2.70908 2.71362 2.68886 2.6349 2.55881 
2.47007 2.37702 2.28567 2.16654 2.24359 2.12312 2.32035 2.1949 2.06938 
2.39165 2.26401 2.13422 2.00658 2.45144 2.32523 2.19453 2.06376 1.93728 
2.49426 2.3734 2.24572 2.11543 1.98711 1.86489 2.51718 2.40503 2.28408 
2.15805 2.03138 1.90847 1.79288 2.52097 2.4195 2.30791 2.18928 2.06758 
1.94707 1.83164 1.72413 1.66533 1.76911 1.66946 1.88041 1.777 1.67254 
1.99634 1.89102 1.78222 1.67418 2.11299 2.00785 1.89674 1.78405 1.67418 
2.22608 2.12307 2.01191 1.89674 1.78222 1.67254 2.33166 2.23222 2.12307 
2.00785 1.89102 1.777 1.66946 2.42672 2.33166 2.22608 2.11299 1.99634 
1.88041 1.76911 1.66533 1.47626 1.47213 1.37249 1.46906 1.36459 1.26118 
1.46741 1.35938 1.25058 1.14526 1.46741 1.35755 1.24485 1.13374 1.0286 
1.46906 1.35938 1.24485 1.12969 1.01852 0.915514 1.47213 1.36459 1.25058 
1.13374 1.01852 0.909371 0.809937 1.47626 1.37249 1.26118 1.14526 1.0286 
0.915514 0.809937 0.714871 1.41746 1.30996 1.34871 1.19452 1.23313 1.2767 
1.07402 1.11021 1.15448 1.20431 0.952313 0.983547 1.02616 1.07784 1.13501 
0.833684 0.857515 0.895868 0.94706 1.00737 1.07221 0.722093 0.736561 0.768195 
0.816367 0.877585 0.946693 1.01847 0.620619 0.624416 0.647337 0.690152 0.749941 
0.821245 0.898002 0.975055 0.975055 0.898002 1.01847 0.821245 0.946693 1.07221 
0.749941 0.877585 1.00737 1.13501 0.690152 0.816367 0.94706 1.07784 1.20431 
0.647337 0.768195 0.895868 1.02616 1.15448 1.2767 0.624416 0.736561 0.857515 
0.983547 1.11021 1.23313 1.34871 0.620619 0.722093 0.833684 0.952313 1.07402 
1.19452 1.30996 1.41746 
Phi 1 1002 float
6.28319 3.14159 6.28319 3.14159 4.71239 4.71239 1.5708 1.5708 3.69517 
5.72961 2.58802 0.553574 6.28319 6.28319 6.28319 6.28319 3.14159 3.14159 
3.14159 3.14159 3.14159 6.1053 5.8988 5.67687 5.45995 5.26596 5.10322 
4.97131 4.86569 4.78095 0.177881 0.384387 0.606312 0.823235 1.01722 1.17997 
1.31187 1.4175 1.50223 6.18928 6.10703 6.03531 5.97283 5.91832 5.87061 
5.82869 5.79168 5.75886 0.0939024 0.176153 0.247873 0.310351 0.364864 0.412573 
0.454497 0.491504 0.524326 3.31947 3.52598 3.7479 3.96483 4.15881 4.32156 
4.45346 4.55909 4.64383 2.96371 2.75721 2.53528 2.31836 2.12437 1.96162 
1.82972 1.72409 1.63936 3.2355 3.31775 3.38947 3.45194 3.50646 3.55417 
3.59609 3.6331 3.66592 3.04769 2.96544 2.89372 2.83124 2.77673 2.72902 
2.6871 2.65009 2.61727 6.28319 6.28319 6.28319 6.28319 3.14159 3.14159 
3.14159 3.14159 3.14159 6.1053 5.8988 5.67687 5.45995 5.26596 5.10322 
4.97131 4.86569 4.78095 0.177881 0.384387 0.606312 0.823235 1.01722 1.17997 
1.31187 1.4175 1.50223 6.18928 6.10703 6.03531 5.97283 5.91832 5.87061 
5.82869 5.79168 5.75886 0.0939024 0.176153 0.247873 0.310351 0.364864 0.412573 
0.454497 0.491504 0.524326 3.31947 3.52598 3.7479 3.96483 4.15881 4.32156 
4.45346 4.55909 4.64383 2.96371 2.75721 2.53528 2.31836 2.12437 1.96162 
1.82972 1.72409 1.63936 3.2355 3.31775 3.38947 3.45194 3.50646 3.55417 
3.59609 3.6331 3.66592 3.04769 2.96544 2.89372 2.83124 2.77673 2.72902 
2.6871 2.65009 2.61727 4.71239 4.71239 4.71239 4.71239 4.71239 4.71239 
4.71239 4.71239 4.71239 4.60879 4.49914 4.3857 4.27128 4.15881 4.05096 
3.94976 3.85646 3.77161 4.81599 4.92564 5.03907 5.1535 5.26596 5.37381 
5.47502 5.56831 5.65317 4.60879 4.49914 4.3857 4.27128 4.15881 4.05096 
3.94976 3.85646 3.77161 4.81599 4.92564 5.03907 5.1535 5.26596 5.37381 
5.47502 5.56831 5.65317 1.5708 1.5708 1.5708 1.5708 1.5708 1.5708 
1.5708 1.5708 1.5708 1.6744 1.78405 1.89748 2.01191 2.12437 2.23222 
2.33343 2.42672 2.51157 1.4672 1.35755 1.24411 1.12969 1.01722 0.909371 
0.808166 0.714871 0.63002 1.6744 1.78405 1.89748 2.01191 2.12437 2.23222 
2.33343 2.42672 2.51157 1.4672 1.35755 1.24411 1.12969 1.01722 0.909371 
0.808166 0.714871 0.63002 3.60077 3.49669 3.38395 3.26458 3.14159 3.01861 
2.89924 2.78649 2.68241 5.82401 5.92808 6.04083 6.1602 6.28319 0.122983 
0.242354 0.355101 0.459179 6.05603 5.78856 5.97021 5.51259 5.60297 5.78856 
5.26596 5.26596 5.26596 5.26596 5.06749 5.0121 4.91556 4.71239 4.15881 
4.91556 4.83537 4.71239 4.50922 4.15881 3.63622 4.80045 4.71239 4.58941 
4.41268 4.15881 3.82181 3.45456 4.71239 4.62433 4.50922 4.35729 4.15881 
3.91219 3.63622 3.36875 6.01742 5.94343 5.82633 5.88092 5.76745 5.62798 
5.8278 5.71897 5.58911 5.43724 5.78235 5.67854 5.55757 5.41926 5.26596 
5.74316 5.64441 5.5315 5.40467 5.26596 5.11955 5.70914 5.61528 5.50962 
5.3926 5.26596 5.13292 4.99789 5.67937 5.59016 5.49102 5.38246 5.26596 
5.14407 5.02016 4.89798 5.56831 5.47502 5.47502 5.37381 5.37381 5.37381 
5.26596 5.26596 5.26596 5.26596 5.1535 5.1535 5.1535 5.1535 5.1535 
5.03907 5.03907 5.03907 5.03907 5.03907 5.03907 4.92564 4.92564 4.92564 
4.92564 4.92564 4.92564 4.92564 4.81599 4.81599 4.81599 4.81599 4.81599 
4.81599 4.81599 4.81599 4.60879 4.60879 4.49914 4.60879 4.49914 4.3857 
4.60879 4.49914 4.3857 4.27128 4.60879 4.49914 4.3857 4.27128 4.15881 
4.60879 4.49914 4.3857 4.27128 4.15881 4.05096 4.60879 4.49914 4.3857 
4.27128 4.15881 4.05096 3.94976 4.60879 4.49914 4.3857 4.27128 4.15881 
4.05096 3.94976 3.85646 4.5268 4.40462 4.42689 4.28071 4.29185 4.30523 
4.15881 4.15881 4.15881 4.15881 4.04232 4.03217 4.02011 4.00552 3.98753 
3.93376 3.91515 3.89328 3.86721 3.83566 3.7968 3.83461 3.8095 3.78037 
3.74624 3.70581 3.65733 3.59845 3.7454 3.71564 3.68161 3.64243 3.59698 
3.54386 3.48135 3.40735 3.56428 3.45246 3.52338 3.33203 3.40312 3.47739 
3.20576 3.27463 3.34802 3.42551 3.07742 3.14159 3.21128 3.28647 3.36688 
2.95116 3.00855 3.0719 3.14159 3.21784 3.3006 2.83072 2.88006 2.93517 
2.99672 3.06535 3.14159 3.22575 2.7189 2.7598 2.8058 2.85768 2.9163 
2.98259 3.05743 3.14159 3.56428 3.52338 3.45246 3.47739 3.40312 3.33203 
3.42551 3.34802 3.27463 3.20576 3.36688 3.28647 3.21128 3.14159 3.07742 
3.3006 3.21784 3.14159 3.0719 3.00855 2.95116 3.22575 3.14159 3.06535 
2.99672 2.93517 2.88006 2.83072 3.14159 3.05743 2.98259 2.9163 2.85768 
2.8058 2.7598 2.7189 4.5268 4.42689 4.40462 4.30523 4.29185 4.28071 
4.15881 4.15881 4.15881 4.15881 3.98753 4.00552 4.02011 4.03217 4.04232 
3.7968 3.83566 3.86721 3.89328 3.91515 3.93376 3.59845 3.65733 3.70581 
3.74624 3.78037 3.8095 3.83461 3.40735 3.48135 3.54386 3.59698 3.64243 
3.68161 3.71564 3.7454 4.71239 4.80045 4.62433 4.91556 4.71239 4.50922 
5.06749 4.83537 4.58941 4.35729 5.26596 5.0121 4.71239 4.41268 4.15881 
5.51259 5.26596 4.91556 4.50922 4.15881 3.91219 5.78856 5.60297 5.26596 
4.71239 4.15881 3.82181 3.63622 6.05603 5.97021 5.78856 5.26596 4.15881 
3.63622 3.45456 3.36875 0.227158 0.494626 0.312971 0.770593 0.680215 0.494626 
1.01722 1.01722 1.01722 1.01722 1.2157 1.27109 1.36763 1.5708 2.12437 
1.36763 1.44781 1.5708 1.77397 2.12437 2.64697 1.48273 1.5708 1.69378 
1.8705 2.12437 2.46138 2.82862 1.5708 1.65886 1.77397 1.9259 2.12437 
2.371 2.64697 2.91443 1.75639 1.87857 1.8563 2.00248 1.99133 1.97796 
2.12437 2.12437 2.12437 2.12437 2.24087 2.25101 2.26308 2.27767 2.29565 
2.34943 2.36803 2.38991 2.41597 2.44752 2.48639 2.44857 2.47368 2.50281 
2.53694 2.57738 2.62586 2.68474 2.53778 2.56754 2.60157 2.64076 2.68621 
2.73933 2.80184 2.87583 1.6744 1.6744 1.78405 1.6744 1.78405 1.89748 
1.6744 1.78405 1.89748 2.01191 1.6744 1.78405 1.89748 2.01191 2.12437 
1.6744 1.78405 1.89748 2.01191 2.12437 2.23222 1.6744 1.78405 1.89748 
2.01191 2.12437 2.23222 2.33343 1.6744 1.78405 1.89748 2.01191 2.12437 
2.23222 2.33343 2.42672 1.4672 1.35755 1.4672 1.24411 1.35755 1.4672 
1.12969 1.24411 1.35755 1.4672 1.01722 1.12969 1.24411 1.35755 1.4672 
0.909371 1.01722 1.12969 1.24411 1.35755 1.4672 0.808166 0.909371 1.01722 
1.12969 1.24411 1.35755 1.4672 0.714871 0.808166 0.909371 1.01722 1.12969 
1.24411 1.35755 1.4672 0.603812 0.57405 0.693022 0.540021 0.667908 0.792164 
0.500837 0.638778 0.773562 0.900726 0.455383 0.604649 0.751687 0.890581 1.01722 
0.402264 0.564217 0.725619 0.878514 1.01722 1.13912 0.339753 0.515737 0.694072 
0.863926 1.01722 1.15026 1.26302 0.265762 0.456853 0.655207 0.845941 1.01722 
1.16363 1.28529 1.38521 0.227158 0.312971 0.494626 0.494626 0.680215 0.770593 
1.01722 1.01722 1.01722 1.01722 2.12437 1.5708 1.36763 1.27109 1.2157 
2.64697 2.12437 1.77397 1.5708 1.44781 1.36763 2.82862 2.46138 2.12437 
1.8705 1.69378 1.5708 1.48273 2.91443 2.64697 2.371 2.12437 1.9259 
1.77397 1.65886 1.5708 1.75639 1.8563 1.87857 1.97796 1.99133 2.00248 
2.12437 2.12437 2.12437 2.12437 2.29565 2.27767 2.26308 2.25101 2.24087 
2.48639 2.44752 2.41597 2.38991 2.36803 2.34943 2.68474 2.62586 2.57738 
2.53694 2.50281 2.47368 2.44857 2.87583 2.80184 2.73933 2.68621 2.64076 
2.60157 2.56754 2.53778 5.86049 5.90139 5.97231 5.94739 6.02165 6.09275 
5.99927 6.07676 6.15015 6.21902 6.0579 6.13831 6.2135 0 0.0641696 
6.12418 6.20694 6.28319 0.069689 0.13304 0.190437 6.19903 0 0.0762451 
0.144876 0.206423 0.261531 0.310872 0 0.0841597 0.159004 0.225289 0.283913 
0.335793 0.381792 0.422692 5.86049 5.97231 5.90139 6.09275 6.02165 5.94739 
6.21902 6.15015 6.07676 5.99927 0.0641696 0 6.2135 6.13831 6.0579 
0.190437 0.13304 0.069689 6.28319 6.20694 6.12418 0.310872 0.261531 0.206423 
0.144876 0.0762451 6.28319 6.19903 0.422692 0.381792 0.335793 0.283913 0.225289 
0.159004 0.0841597 0 5.67937 5.70914 5.59016 5.74316 5.61528 5.49102 
5.78235 5.64441 5.50962 5.38246 5.8278 5.67854 5.5315 5.3926 5.26596 
5.88092 5.71897 5.55757 5.40467 5.26596 5.14407 5.94343 5.76745 5.58911 
5.41926 5.26596 5.13292 5.02016 6.01742 5.82633 5.62798 5.43724 5.26596 
5.11955 4.99789 4.89798 1.38521 1.28529 1.26302 1.16363 1.15026 1.13912 
1.01722 1.01722 1.01722 1.01722 0.845941 0.863926 0.878514 0.890581 0.900726 
0.655207 0.694072 0.725619 0.751687 0.773562 0.792164 0.456853 0.515737 0.564217 
0.604649 0.638778 0.667908 0.693022 0.265762 0.339753 0.402264 0.455383 0.500837 
0.540021 0.57405 0.603812 
