# vtk DataFile Version 4.0
vtk output
ASCII
DATASET POLYDATA
POINTS 1002 float
-116.95 -105.753 69.9673 -112.473 -98.1231 70.3491 -111.964 -108.712 71.5741 
-106.645 -102.012 72.1564 -112.614 -102.627 67.0585 -108.918 -104.919 67.2568 
-114.372 -102.308 75.0954 -111.399 -104.14 75.6085 -107.133 -96.6513 69.0844 
-115.53 -111.796 67.3373 -108.878 -96.8366 74.4828 -116.521 -110.877 73.4058 
-116.589 -105.07 70.087 -115.981 -104.587 70.2035 -115.418 -103.92 70.2645 
-115.098 -102.777 70.2437 -114.872 -101.52 70.1749 -114.503 -100.579 70.1715 
-113.907 -99.9321 70.2795 -113.233 -99.4005 70.3836 -112.737 -98.8146 70.3898 
-116.756 -105.675 69.6028 -116.491 -105.567 69.251 -116.294 -105.347 68.7456 
-116.089 -105.023 68.1246 -115.641 -104.65 67.756 -115.06 -104.158 67.5811 
-114.584 -103.595 67.2342 -114.074 -103.165 66.9363 -113.367 -102.885 66.9579 
-116.912 -105.329 70.4773 -116.748 -104.997 71.054 -116.353 -104.893 71.5774 
-115.82 -104.867 72.0493 -115.536 -104.533 72.6492 -115.486 -103.905 73.3124 
-115.208 -103.421 73.7751 -114.752 -103.134 74.1273 -114.485 -102.773 74.5914 
-117.02 -106.605 69.6265 -117.035 -107.559 69.3234 -117.137 -108.532 69.0783 
-117.399 -109.464 68.7976 -117.647 -110.155 68.3357 -117.596 -110.574 67.8473 
-117.209 -111.01 67.6264 -116.659 -111.507 67.5651 -116.074 -111.806 67.442 
-117.046 -106.421 70.1977 -117.005 -107.232 70.486 -116.984 -108.063 70.7492 
-116.978 -108.876 71.0013 -116.935 -109.534 71.3404 -116.968 -109.973 71.8602 
-117.09 -110.39 72.5349 -117.117 -110.77 73.0914 -116.92 -110.919 73.3329 
-112.462 -98.328 69.9487 -112.352 -98.6821 69.5676 -112.269 -99.1139 69.1817 
-112.402 -99.4443 68.6897 -112.718 -99.668 68.0382 -112.929 -100.147 67.584 
-112.87 -101.034 67.5583 -112.701 -101.887 67.5719 -112.617 -102.36 67.3502 
-112.536 -98.456 70.8532 -112.681 -98.772 71.4191 -113.027 -98.9943 71.9493 
-113.488 -99.1604 72.4809 -113.842 -99.39 73.0899 -113.993 -99.8496 73.6956 
-114.045 -100.53 74.1982 -114.122 -101.206 74.5887 -114.241 -101.779 74.8759 
-112.256 -97.5029 70.0772 -111.802 -97.0433 69.8607 -111.011 -96.9048 69.7106 
-110.127 -96.8768 69.5594 -109.494 -96.5604 69.2603 -109.019 -96.0346 68.8981 
-108.428 -95.7615 68.8083 -107.823 -95.8814 68.9892 -107.402 -96.217 69.1142 
-112.292 -97.6116 70.6777 -111.991 -97.2176 71.2425 -111.629 -96.9494 71.8674 
-111.347 -96.6329 72.269 -111.079 -96.3041 72.6318 -110.681 -96.2618 73.1807 
-110.19 -96.4676 73.6593 -109.678 -96.6024 73.9652 -109.206 -96.6536 74.2525 
-111.487 -108.053 71.6352 -111.055 -107.329 71.6482 -110.555 -106.49 71.7065 
-109.796 -105.843 71.892 -109.03 -105.355 72.0183 -108.583 -104.499 71.9411 
-108.202 -103.506 71.8928 -107.611 -102.951 72.0232 -107.009 -102.593 72.1568 
-111.74 -108.525 71.2223 -111.568 -108.189 70.75 -111.381 -107.739 70.1961 
-111.037 -107.345 69.642 -110.634 -106.986 69.1895 -110.394 -106.433 68.859 
-110.157 -105.848 68.5083 -109.697 -105.532 68.0515 -109.199 -105.315 67.5964 
-111.932 -108.389 71.8995 -111.922 -108.028 72.2729 -111.895 -107.641 72.743 
-111.863 -107.183 73.2246 -111.84 -106.665 73.6848 -111.704 -106.154 74.1629 
-111.458 -105.671 74.6827 -111.314 -105.206 75.1887 -111.335 -104.71 75.5096 
-112.274 -109.386 71.2426 -112.517 -110.131 70.764 -112.759 -110.685 70.2611 
-113.21 -110.92 69.8725 -113.842 -111.092 69.5289 -114.361 -111.366 69.1732 
-114.682 -111.593 68.8065 -114.963 -111.734 68.3016 -115.259 -111.834 67.7184 
-112.386 -109.285 71.7169 -112.725 -109.916 71.9065 -113.093 -110.366 72.1213 
-113.714 -110.59 72.2964 -114.394 -110.879 72.4955 -114.774 -111.296 72.8096 
-115.071 -111.575 73.113 -115.594 -111.581 73.277 -116.166 -111.333 73.3536 
-106.6 -102.245 71.6484 -106.65 -102.429 71.0851 -106.745 -102.705 70.5922 
-106.806 -103.117 70.132 -106.967 -103.466 69.5308 -107.488 -103.587 68.939 
-108.18 -103.676 68.599 -108.564 -104.024 68.274 -108.679 -104.544 67.7486 
-106.978 -102.105 72.583 -107.488 -102.104 72.8113 -108.058 -102.187 73.0328 
-108.585 -102.43 73.5418 -109.033 -102.721 74.0965 -109.455 -103.043 74.4863 
-109.958 -103.362 74.9495 -110.523 -103.585 75.3745 -111.021 -103.804 75.5298 
-106.446 -101.386 71.7946 -106.309 -100.762 71.556 -106.021 -100.299 71.4724 
-105.676 -99.7021 71.1406 -105.594 -98.7912 70.4786 -105.772 -97.9152 69.9705 
-106.011 -97.2708 69.6774 -106.313 -96.8197 69.3674 -106.714 -96.6243 69.1469 
-106.602 -101.312 72.3832 -106.619 -100.592 72.6548 -106.658 -100.008 73.0173 
-106.729 -99.3735 73.308 -106.922 -98.5899 73.3993 -107.353 -98.0084 73.4399 
-107.918 -97.7537 73.602 -108.349 -97.5041 73.8945 -108.605 -97.1388 74.2243 
-112.178 -102.656 66.8911 -111.791 -102.804 66.6158 -111.527 -103.047 66.2108 
-111.177 -103.282 65.8615 -110.521 -103.493 65.8435 -109.924 -103.692 66.1566 
-109.706 -103.91 66.5108 -109.525 -104.245 66.7302 -109.178 -104.647 66.9295 
-111.987 -102.136 67.1266 -111.5 -101.513 67.0233 -110.969 -100.846 67.0961 
-110.217 -100.123 67.4163 -109.391 -99.2013 67.5966 -108.772 -98.3394 67.6957 
-108.38 -97.9339 68.0944 -108.009 -97.7281 68.6222 -107.569 -97.2792 68.9417 
-113.116 -103.163 66.7748 -113.682 -104.034 66.6245 -114.199 -105.201 66.7313 
-114.696 -106.403 66.8043 -115.226 -107.557 66.6242 -115.578 -108.712 66.6088 
-115.592 -109.763 66.8975 -115.472 -110.63 67.0597 -115.453 -111.313 67.0929 
-108.616 -104.134 67.2867 -108.343 -103.289 67.43 -107.848 -102.65 67.5418 
-107.158 -101.912 67.4646 -106.682 -100.787 67.4208 -106.714 -99.8248 67.856 
-107.028 -99.3009 68.5435 -107.217 -98.6389 68.9138 -107.192 -97.6288 68.9935 
-109.596 -105.309 67.2081 -110.574 -105.545 67.4057 -111.399 -106.162 67.4671 
-111.889 -107.305 67.2495 -112.543 -108.305 67.2569 -113.52 -108.951 67.5634 
-114.271 -109.737 67.571 -114.646 -110.655 67.2679 -115.013 -111.35 67.1492 
-114.312 -102.397 75.4819 -114.158 -102.573 75.8344 -113.958 -102.736 76.1481 
-113.571 -102.772 76.4562 -112.89 -102.771 76.9088 -112.232 -102.979 77.3162 
-111.899 -103.403 77.1282 -111.767 -103.785 76.4209 -111.616 -104.003 75.8344 
-114.14 -101.495 75.4245 -113.748 -100.749 75.6405 -113.108 -100.18 75.6379 
-112.422 -99.6203 75.561 -111.939 -98.9177 75.6048 -111.489 -98.2075 75.6496 
-110.787 -97.6024 75.5022 -109.952 -97.1248 75.2251 -109.287 -96.8627 74.9021 
-114.606 -103.151 75.0492 -114.772 -104.061 74.9714 -114.9 -104.968 74.7868 
-115.384 -105.842 74.7842 -116.189 -106.741 75.0567 -116.568 -107.526 74.9432 
-116.358 -108.099 74.2498 -116.198 -108.799 73.6715 -116.345 -109.822 73.4934 
-111.209 -103.27 75.5875 -110.843 -102.548 75.719 -110.258 -102.082 76.0252 
-109.682 -101.466 76.2954 -109.438 -100.469 76.2586 -109.456 -99.5375 75.8037 
-109.357 -98.8185 75.233 -109.086 -98.02 74.9396 -108.896 -97.2631 74.803 
-111.738 -104.928 75.7466 -112.252 -105.623 75.7994 -112.854 -106.181 75.6008 
-113.359 -106.884 75.3366 -113.922 -107.866 75.2544 -114.626 -108.751 75.1003 
-115.153 -109.258 74.5942 -115.497 -109.641 73.9855 -115.96 -110.198 73.5954 
-106.945 -95.8337 69.2988 -106.879 -95.2742 69.6175 -106.847 -94.8485 70.0682 
-106.831 -94.451 70.8196 -106.948 -94.4318 71.7249 -107.287 -95.0536 72.1881 
-107.811 -95.9404 72.3107 -108.336 -96.5491 72.8258 -108.681 -96.7574 73.7298 
-115.928 -112.278 67.8456 -116.188 -112.808 68.3551 -116.269 -113.387 68.7222 
-116.405 -114.002 69.349 -116.631 -114.373 70.4807 -116.716 -114.082 71.5074 
-116.744 -113.323 72.1065 -116.85 -112.581 72.6264 -116.82 -111.82 73.1204 
-116.226 -105.091 69.7391 -115.864 -105.022 69.3653 -115.573 -104.55 69.8014 
-115.64 -104.695 68.8491 -115.287 -104.264 69.3539 -115.147 -103.582 69.7688 
-115.41 -104.178 68.3089 -115.103 -103.687 68.884 -114.968 -103.029 69.2991 
-114.955 -102.208 69.7079 -115.033 -103.614 67.9302 -114.841 -103.047 68.4288 
-114.695 -102.425 68.9069 -114.715 -101.676 69.2734 -114.707 -100.978 69.6357 
-114.599 -103.084 67.5919 -114.523 -102.491 67.9769 -114.332 -101.889 68.446 
-114.25 -101.271 68.9 -114.296 -100.602 69.1995 -114.202 -100.129 69.6129 
-114.077 -102.738 67.3219 -114.123 -102.125 67.6225 -114.018 -101.425 67.9328 
-113.777 -100.881 68.4379 -113.655 -100.373 68.8761 -113.627 -99.857 69.2024 
-113.48 -99.5414 69.7299 -113.37 -102.563 67.2994 -113.481 -101.993 67.5299 
-113.569 -101.147 67.6164 -113.405 -100.465 67.94 -113.092 -100.097 68.5281 
-112.913 -99.7249 68.9947 -112.876 -99.3028 69.3902 -112.833 -98.9979 69.8871 
-116.894 -106.407 69.2137 -116.943 -107.286 68.8591 -116.797 -106.111 68.7416 
-117.05 -108.303 68.6176 -117.009 -106.87 68.2972 -116.74 -105.768 68.0838 
-117.292 -109.285 68.2701 -117.119 -107.899 68.0288 -116.931 -106.499 67.6846 
-116.357 -105.515 67.5945 -117.441 -109.896 67.6813 -117.15 -108.876 67.6102 
-116.798 -107.539 67.5519 -116.22 -106.327 67.5524 -115.57 -105.25 67.5716 
-117.224 -110.202 67.3294 -117.049 -109.391 67.1553 -116.632 -108.404 67.2406 
-115.959 -107.29 67.5709 -115.331 -106.066 67.6621 -114.929 -104.729 67.3975 
-116.684 -110.595 67.3595 -116.695 -109.694 67.1469 -116.524 -108.831 66.9703 
-115.967 -107.934 67.1813 -115.303 -106.854 67.4688 -114.887 -105.449 67.2366 
-114.543 -104.07 66.8775 -116.034 -111.067 67.3017 -116.099 -110.178 67.2394 
-116.186 -109.238 66.9664 -115.964 -108.285 66.7754 -115.404 -107.295 66.961 
-114.89 -106.085 66.9918 -114.48 -104.68 66.7045 -113.96 -103.538 66.6465 
-114.98 -110.856 66.943 -114.623 -110.049 67.0716 -115.001 -110.175 66.8151 
-114.071 -109.074 67.2693 -114.446 -109.347 66.794 -114.961 -109.237 66.5866 
-113.101 -108.294 67.0816 -113.569 -108.395 66.867 -114.073 -108.338 66.6735 
-114.702 -107.948 66.5723 -112.16 -107.421 66.8149 -112.505 -107.464 66.6875 
-113.026 -107.279 66.8118 -113.636 -106.855 66.8779 -114.226 -106.53 66.806 
-111.583 -106.209 67.0173 -111.7 -106.278 66.6728 -112.079 -106.166 66.6089 
-112.681 -105.762 66.7129 -113.176 -105.411 66.8075 -113.671 -105.311 66.8016 
-110.93 -105.301 67.2308 -111.095 -105.133 66.9917 -111.294 -105.071 66.6023 
-111.84 -104.884 66.2021 -112.347 -104.598 66.1544 -112.651 -104.418 66.4584 
[...]
POINT_DATA 1002
FIELD FieldData 2
Theta 1 1002 float
2.58802 2.58802 0.553574 0.553574 2.12437 1.01722 2.12437 1.01722 1.5708 
1.5708 1.5708 1.5708 2.68241 2.78649 2.89924 3.01861 3.14159 3.01861 
2.89924 2.78649 2.68241 2.61035 2.61791 2.60515 2.56958 2.51327 2.44184 
2.36202 2.27983 2.1997 2.61035 2.61791 2.60515 2.56958 2.51327 2.44184 
2.36202 2.27983 2.1997 2.50947 2.41899 2.31794 2.20864 2.0944 1.97902 
1.86631 1.75944 1.66056 2.50947 2.41899 2.31794 2.20864 2.0944 1.97902 
1.86631 1.75944 1.66056 2.61035 2.61791 2.60515 2.56958 2.51327 2.44184 
2.36202 2.27983 2.1997 2.61035 2.61791 2.60515 2.56958 2.51327 2.44184 
2.36202 2.27983 2.1997 2.50947 2.41899 2.31794 2.20864 2.0944 1.97902 
1.86631 1.75944 1.66056 2.50947 2.41899 2.31794 2.20864 2.0944 1.97902 
1.86631 1.75944 1.66056 0.459179 0.355101 0.242354 0.122983 0 0.122983 
0.242354 0.355101 0.459179 0.531246 0.523681 0.536438 0.57201 0.628319 0.699757 
0.779574 0.86176 0.941896 0.531246 0.523681 0.536438 0.57201 0.628319 0.699757 
0.779574 0.86176 0.941896 0.632123 0.7226 0.823657 0.932948 1.0472 1.16257 
1.27528 1.38216 1.48103 0.632123 0.7226 0.823657 0.932948 1.0472 1.16257 
1.27528 1.38216 1.48103 0.531246 0.523681 0.536438 0.57201 0.628319 0.699757 
0.779574 0.86176 0.941896 0.531246 0.523681 0.536438 0.57201 0.628319 0.699757 
0.779574 0.86176 0.941896 0.632123 0.7226 0.823657 0.932948 1.0472 1.16257 
1.27528 1.38216 1.48103 0.632123 0.7226 0.823657 0.932948 1.0472 1.16257 
1.27528 1.38216 1.48103 2.02998 1.9259 1.81315 1.69378 1.5708 1.44781 
1.32844 1.2157 1.11162 2.0928 2.05283 2.00422 1.94767 1.88496 1.81867 
1.75177 1.68695 1.62623 2.0928 2.05283 2.00422 1.94767 1.88496 1.81867 
1.75177 1.68695 1.62623 1.0488 1.08876 1.13737 1.19392 1.25664 1.32292 
1.38982 1.45464 1.51537 1.0488 1.08876 1.13737 1.19392 1.25664 1.32292 
1.38982 1.45464 1.51537 2.02998 1.9259 1.81315 1.69378 1.5708 1.44781 
1.32844 1.2157 1.11162 2.0928 2.05283 2.00422 1.94767 1.88496 1.81867 
1.75177 1.68695 1.62623 2.0928 2.05283 2.00422 1.94767 1.88496 1.81867 
1.75177 1.68695 1.62623 1.0488 1.08876 1.13737 1.19392 1.25664 1.32292 
1.38982 1.45464 1.51537 1.0488 1.08876 1.13737 1.19392 1.25664 1.32292 
1.38982 1.45464 1.51537 1.5708 1.5708 1.5708 1.5708 1.5708 1.5708 
1.5708 1.5708 1.5708 1.5708 1.5708 1.5708 1.5708 1.5708 1.5708 
1.5708 1.5708 1.5708 2.70908 2.71362 2.81592 2.68886 2.81002 2.92597 
2.6349 2.76254 2.89233 3.01997 2.55881 2.68262 2.80854 2.92834 3.01997 
2.47007 2.58462 2.70048 2.80854 2.89233 2.92597 2.37702 2.48017 2.58462 
2.68262 2.76254 2.81002 2.81592 2.28567 2.37702 2.47007 2.55881 2.6349 
2.68886 2.71362 2.70908 2.52097 2.4195 2.51718 2.30791 2.40503 2.49426 
2.18928 2.28408 2.3734 2.45144 2.06758 2.15805 2.24572 2.32523 2.39165 
1.94707 2.03138 2.11543 2.19453 2.26401 2.32035 1.83164 1.90847 1.98711 
2.06376 2.13422 2.1949 2.24359 1.72413 1.79288 1.86489 1.93728 2.00658 
2.06938 2.12312 2.16654 1.5708 1.50988 1.63171 1.44492 1.5708 1.69667 
1.37826 1.5059 1.63569 1.76333 1.31281 1.43962 1.5708 1.70197 1.82878 
1.25155 1.37501 1.50478 1.63681 1.76659 1.89004 1.19686 1.31493 1.44074 
1.5708 1.70086 1.82666 1.94473 1.15011 1.26149 1.38136 1.50697 1.63462 
1.76024 1.88011 1.99148 1.99148 1.88011 1.94473 1.76024 1.82666 1.89004 
1.63462 1.70086 1.76659 1.82878 1.50697 1.5708 1.63681 1.70197 1.76333 
1.38136 1.44074 1.50478 1.5708 1.63569 1.69667 1.26149 1.31493 1.37501 
1.43962 1.5059 1.5708 1.63171 1.15011 1.19686 1.25155 1.31281 1.37826 
1.44492 1.50988 1.5708 2.16654 2.12312 2.24359 2.06938 2.1949 2.32035 
2.00658 2.13422 2.26401 2.39165 1.93728 2.06376 2.19453 2.32523 2.45144 
1.86489 1.98711 2.11543 2.24572 2.3734 2.49426 1.79288 1.90847 2.03138 
2.15805 2.28408 2.40503 2.51718 1.72413 1.83164 1.94707 2.06758 2.18928 
2.30791 2.4195 2.52097 1.66533 1.66946 1.76911 1.67254 1.777 1.88041 
1.67418 1.78222 1.89102 1.99634 1.67418 1.78405 1.89674 2.00785 2.11299 
1.67254 1.78222 1.89674 2.01191 2.12307 2.22608 1.66946 1.777 1.89102 
2.00785 2.12307 2.23222 2.33166 1.66533 1.76911 1.88041 1.99634 2.11299 
2.22608 2.33166 2.42672 1.47626 1.37249 1.47213 1.26118 1.36459 1.46906 
1.14526 1.25058 1.35938 1.46741 1.0286 1.13374 1.24485 1.35755 1.46741 
0.915514 1.01852 1.12969 1.24485 1.35938 1.46906 0.809937 0.909371 1.01852 
1.13374 1.25058 1.36459 1.47213 0.714871 0.809937 0.915514 1.0286 1.14526 
1.26118 1.37249 1.47626 0.975055 0.898002 1.01847 0.821245 0.946693 1.07221 
0.749941 0.877585 1.00737 1.13501 0.690152 0.816367 0.94706 1.07784 1.20431 
0.647337 0.768195 0.895868 1.02616 1.15448 1.2767 0.624416 0.736561 0.857515 
0.983547 1.11021 1.23313 1.34871 0.620619 0.722093 0.833684 0.952313 1.07402 
1.19452 1.30996 1.41746 0.855925 0.764569 0.764569 0.671524 0.661425 0.671524 
0.582786 0.556971 0.556971 0.582786 0.506696 0.458968 0.441109 0.458968 0.506696 
0.45273 0.379052 0.333054 0.333054 0.379052 0.45273 0.427969 0.331576 0.249267 
0.21325 0.249267 0.331576 0.427969 0.432512 0.325669 0.215619 0.121622 0.121622 
0.215619 0.325669 0.432512 0.432512 0.427969 0.325669 0.45273 0.331576 0.215619 
0.506696 0.379052 0.249267 0.121622 0.582786 0.458968 0.333054 0.21325 0.121622 
0.671524 0.556971 0.441109 0.333054 0.249267 0.215619 0.764569 0.661425 0.556971 
0.458968 0.379052 0.331576 0.325669 0.855925 0.764569 0.671524 0.582786 0.506696 
0.45273 0.427969 0.432512 0.975055 1.01847 0.898002 1.07221 0.946693 0.821245 
1.13501 1.00737 0.877585 0.749941 1.20431 1.07784 0.94706 0.816367 0.690152 
1.2767 1.15448 1.02616 0.895868 0.768195 0.647337 1.34871 1.23313 1.11021 
0.983547 0.857515 0.736561 0.624416 1.41746 1.30996 1.19452 1.07402 0.952313 
0.833684 0.722093 0.620619 1.15011 1.26149 1.19686 1.38136 1.31493 1.25155 
1.50697 1.44074 1.37501 1.31281 1.63462 1.5708 1.50478 1.43962 1.37826 
1.76024 1.70086 1.63681 1.5708 1.5059 1.44492 1.88011 1.82666 1.76659 
1.70197 1.63569 1.5708 1.50988 1.99148 1.94473 1.89004 1.82878 1.76333 
1.69667 1.63171 1.5708 1.15011 1.19686 1.26149 1.25155 1.31493 1.38136 
1.31281 1.37501 1.44074 1.50697 1.37826 1.43962 1.50478 1.5708 1.63462 
1.44492 1.5059 1.5708 1.63681 1.70086 1.76024 1.50988 1.5708 1.63569 
1.70197 1.76659 1.82666 1.88011 1.5708 1.63171 1.69667 1.76333 1.82878 
1.89004 1.94473 1.99148 1.72413 1.83164 1.79288 1.94707 1.90847 1.86489 
2.06758 2.03138 1.98711 1.93728 2.18928 2.15805 2.11543 2.06376 2.00658 
2.30791 2.28408 2.24572 2.19453 2.13422 2.06938 2.4195 2.40503 2.3734 
2.32523 2.26401 2.1949 2.12312 2.52097 2.51718 2.49426 2.45144 2.39165 
2.32035 2.24359 2.16654 2.70908 2.81592 2.71362 2.92597 2.81002 2.68886 
3.01997 2.89233 2.76254 2.6349 3.01997 2.92834 2.80854 2.68262 2.55881 
2.92597 2.89233 2.80854 2.70048 2.58462 2.47007 2.81592 2.81002 2.76254 
2.68262 2.58462 2.48017 2.37702 2.70908 2.71362 2.68886 2.6349 2.55881 
2.47007 2.37702 2.28567 2.16654 2.24359 2.12312 2.32035 2.1949 2.06938 
2.39165 2.26401 2.13422 2.00658 2.45144 2.32523 2.19453 2.06376 1.93728 
2.49426 2.3734 2.24572 2.11543 1.98711 1.86489 2.51718 2.40503 2.28408 
2.15805 2.03138 1.90847 1.79288 2.52097 2.4195 2.30791 2.18928 2.06758 
1.94707 1.83164 1.72413 1.66533 1.76911 1.66946 1.88041 1.777 1.67254 
1.99634 1.89102 1.78222 1.67418 2.11299 2.00785 1.89674 1.78405 1.67418 
2.22608 2.12307 2.01191 1.89674 1.78222 1.67254 2.33166 2.23222 2.12307 
2.00785 1.89102 1.777 1.66946 2.42672 2.33166 2.22608 2.11299 1.99634 
1.88041 1.76911 1.66533 1.47626 1.47213 1.37249 1.46906 1.36459 1.26118 
1.46741 1.35938 1.25058 1.14526 1.46741 1.35755 1.24485 1.13374 1.0286 
1.46906 1.35938 1.24485 1.12969 1.01852 0.915514 1.47213 1.36459 1.25058 
1.13374 1.01852 0.909371 0.809937 1.47626 1.37249 1.26118 1.14526 1.0286 
0.915514 0.809937 0.714871 1.41746 1.30996 1.34871 1.19452 1.23313 1.2767 
1.07402 1.11021 1.15448 1.20431 0.952313 0.983547 1.02616 1.07784 1.13501 
0.833684 0.857515 0.895868 0.94706 1.00737 1.07221 0.722093 0.736561 0.768195 
0.816367 0.877585 0.946693 1.01847 0.620619 0.624416 0.647337 0.690152 0.749941 
0.821245 0.898002 0.975055 0.975055 0.898002 1.01847 0.821245 0.946693 1.07221 
0.749941 0.877585 1.00737 1.13501 0.690152 0.816367 0.94706 1.07784 1.20431 
0.647337 0.768195 0.895868 1.02616 1.15448 1.2767 0.624416 0.736561 0.857515 
0.983547 1.11021 1.23313 1.34871 0.620619 0.722093 0.833684 0.952313 1.07402 
1.19452 1.30996 1.41746 
Phi 1 1002 float
6.28319 3.14159 6.28319 3.14159 4.71239 4.71239 1.5708 1.5708 3.69517 
5.72961 2.58802 0.553574 6.28319 6.28319 6.28319 6.28319 3.14159 3.14159 
3.14159 3.14159 3.14159 6.1053 5.8988 5.67687 5.45995 5.26596 5.10322 
4.97131 4.86569 4.78095 0.177881 0.384387 0.606312 0.823235 1.01722 1.17997 
1.31187 1.4175 1.50223 6.18928 6.10703 6.03531 5.97283 5.91832 5.87061 
5.82869 5.79168 5.75886 0.0939024 0.176153 0.247873 0.310351 0.364864 0.412573 
0.454497 0.491504 0.524326 3.31947 3.52598 3.7479 3.96483 4.15881 4.32156 
4.45346 4.55909 4.64383 2.96371 2.75721 2.53528 2.31836 2.12437 1.96162 
1.82972 1.72409 1.63936 3.2355 3.31775 3.38947 3.45194 3.50646 3.55417 
3.59609 3.6331 3.66592 3.04769 2.96544 2.89372 2.83124 2.77673 2.72902 
2.6871 2.65009 2.61727 6.28319 6.28319 6.28319 6.28319 3.14159 3.14159 
3.14159 3.14159 3.14159 6.1053 5.8988 5.67687 5.45995 5.26596 5.10322 
4.97131 4.86569 4.78095 0.177881 0.384387 0.606312 0.823235 1.01722 1.17997 
1.31187 1.4175 1.50223 6.18928 6.10703 6.03531 5.97283 5.91832 5.87061 
5.82869 5.79168 5.75886 0.0939024 0.176153 0.247873 0.310351 0.364864 0.412573 
0.454497 0.491504 0.524326 3.31947 3.52598 3.7479 3.96483 4.15881 4.32156 
4.45346 4.55909 4.64383 2.96371 2.75721 2.53528 2.31836 2.12437 1.96162 
1.82972 1.72409 1.63936 3.2355 3.31775 3.38947 3.45194 3.50646 3.55417 
3.59609 3.6331 3.66592 3.04769 2.96544 2.89372 2.83124 2.77673 2.72902 
2.6871 2.65009 2.61727 4.71239 4.71239 4.71239 4.71239 4.71239 4.71239 
4.71239 4.71239 4.71239 4.60879 4.49914 4.3857 4.27128 4.15881 4.05096 
3.94976 3.85646 3.77161 4.81599 4.92564 5.03907 5.1535 5.26596 5.37381 
5.47502 5.56831 5.65317 4.60879 4.49914 4.3857 4.27128 4.15881 4.05096 
3.94976 3.85646 3.77161 4.81599 4.92564 5.03907 5.1535 5.26596 5.37381 
5.47502 5.56831 5.65317 1.5708 1.5708 1.5708 1.5708 1.5708 1.5708 
1.5708 1.5708 1.5708 1.6744 1.78405 1.89748 2.01191 2.12437 2.23222 
2.33343 2.42672 2.51157 1.4672 1.35755 1.24411 1.12969 1.01722 0.909371 
0.808166 0.714871 0.63002 1.6744 1.78405 1.89748 2.01191 2.12437 2.23222 
2.33343 2.42672 2.51157 1.4672 1.35755 1.24411 1.12969 1.01722 0.909371 
0.808166 0.714871 0.63002 3.60077 3.49669 3.38395 3.26458 3.14159 3.01861 
2.89924 2.78649 2.68241 5.82401 5.92808 6.04083 6.1602 6.28319 0.122983 
0.242354 0.355101 0.459179 6.05603 5.78856 5.97021 5.51259 5.60297 5.78856 
5.26596 5.26596 5.26596 5.26596 5.06749 5.0121 4.91556 4.71239 4.15881 
4.91556 4.83537 4.71239 4.50922 4.15881 3.63622 4.80045 4.71239 4.58941 
4.41268 4.15881 3.82181 3.45456 4.71239 4.62433 4.50922 4.35729 4.15881 
3.91219 3.63622 3.36875 6.01742 5.94343 5.82633 5.88092 5.76745 5.62798 
5.8278 5.71897 5.58911 5.43724 5.78235 5.67854 5.55757 5.41926 5.26596 
5.74316 5.64441 5.5315 5.40467 5.26596 5.11955 5.70914 5.61528 5.50962 
5.3926 5.26596 5.13292 4.99789 5.67937 5.59016 5.49102 5.38246 5.26596 
5.14407 5.02016 4.89798 5.56831 5.47502 5.47502 5.37381 5.37381 5.37381 
5.26596 5.26596 5.26596 5.26596 5.1535 5.1535 5.1535 5.1535 5.1535 
5.03907 5.03907 5.03907 5.03907 5.03907 5.03907 4.92564 4.92564 4.92564 
4.92564 4.92564 4.92564 4.92564 4.81599 4.81599 4.81599 4.81599 4.81599 
4.81599 4.81599 4.81599 4.60879 4.60879 4.49914 4.60879 4.49914 4.3857 
4.60879 4.49914 4.3857 4.27128 4.60879 4.49914 4.3857 4.27128 4.15881 
4.60879 4.49914 4.3857 4.27128 4.15881 4.05096 4.60879 4.49914 4.3857 
4.27128 4.15881 4.05096 3.94976 4.60879 4.49914 4.3857 4.27128 4.15881 
4.05096 3.94976 3.85646 4.5268 4.40462 4.42689 4.28071 4.29185 4.30523 
4.15881 4.15881 4.15881 4.15881 4.04232 4.03217 4.02011 4.00552 3.98753 
3.93376 3.91515 3.89328 3.86721 3.83566 3.7968 3.83461 3.8095 3.78037 
3.74624 3.70581 3.65733 3.59845 3.7454 3.71564 3.68161 3.64243 3.59698 
3.54386 3.48135 3.40735 3.56428 3.45246 3.52338 3.33203 3.40312 3.47739 
3.20576 3.27463 3.34802 3.42551 3.07742 3.14159 3.21128 3.28647 3.36688 
2.95116 3.00855 3.0719 3.14159 3.21784 3.3006 2.83072 2.88006 2.93517 
2.99672 3.06535 3.14159 3.22575 2.7189 2.7598 2.8058 2.85768 2.9163 
2.98259 3.05743 3.14159 3.56428 3.52338 3.45246 3.47739 3.40312 3.33203 
3.42551 3.34802 3.27463 3.20576 3.36688 3.28647 3.21128 3.14159 3.07742 
3.3006 3.21784 3.14159 3.0719 3.00855 2.95116 3.22575 3.14159 3.06535 
2.99672 2.93517 2.88006 2.83072 3.14159 3.05743 2.98259 2.9163 2.85768 
2.8058 2.7598 2.7189 4.5268 4.42689 4.40462 4.30523 4.29185 4.28071 
4.15881 4.15881 4.15881 4.15881 3.98753 4.00552 4.02011 4.03217 4.04232 
3.7968 3.83566 3.86721 3.89328 3.91515 3.93376 3.59845 3.65733 3.70581 
3.74624 3.78037 3.8095 3.83461 3.40735 3.48135 3.54386 3.59698 3.64243 
3.68161 3.71564 3.7454 4.71239 4.80045 4.62433 4.91556 4.71239 4.50922 
5.06749 4.83537 4.58941 4.35729 5.26596 5.0121 4.71239 4.41268 4.15881 
5.51259 5.26596 4.91556 4.50922 4.15881 3.91219 5.78856 5.60297 5.26596 
4.71239 4.15881 3.82181 3.63622 6.05603 5.97021 5.78856 5.26596 4.15881 
3.63622 3.45456 3.36875 0.227158 0.494626 0.312971 0.770593 0.680215 0.494626 
1.01722 1.01722 1.01722 1.01722 1.2157 1.27109 1.36763 1.5708 2.12437 
1.36763 1.44781 1.5708 1.77397 2.12437 2.64697 1.48273 1.5708 1.69378 
1.8705 2.12437 2.46138 2.82862 1.5708 1.65886 1.77397 1.9259 2.12437 
2.371 2.64697 2.91443 1.75639 1.87857 1.8563 2.00248 1.99133 1.97796 
2.12437 2.12437 2.12437 2.12437 2.24087 2.25101 2.26308 2.27767 2.29565 
2.34943 2.36803 2.38991 2.41597 2.44752 2.48639 2.44857 2.47368 2.50281 
2.53694 2.57738 2.62586 2.68474 2.53778 2.56754 2.60157 2.64076 2.68621 
2.73933 2.80184 2.87583 1.6744 1.6744 1.78405 1.6744 1.78405 1.89748 
1.6744 1.78405 1.89748 2.01191 1.6744 1.78405 1.89748 2.01191 2.12437 
1.6744 1.78405 1.89748 2.01191 2.12437 2.23222 1.6744 1.78405 1.89748 
2.01191 2.12437 2.23222 2.33343 1.6744 1.78405 1.89748 2.01191 2.12437 
2.23222 2.33343 2.42672 1.4672 1.35755 1.4672 1.24411 1.35755 1.4672 
1.12969 1.24411 1.35755 1.4672 1.01722 1.12969 1.24411 1.35755 1.4672 
0.909371 1.01722 1.12969 1.24411 1.35755 1.4672 0.808166 0.909371 1.01722 
1.12969 1.24411 1.35755 1.4672 0.714871 0.808166 0.909371 1.01722 1.12969 
1.24411 1.35755 1.4672 0.603812 0.57405 0.693022 0.540021 0.667908 0.792164 
0.500837 0.638778 0.773562 0.900726 0.455383 0.604649 0.751687 0.890581 1.01722 
0.402264 0.564217 0.725619 0.878514 1.01722 1.13912 0.339753 0.515737 0.694072 
0.863926 1.01722 1.15026 1.26302 0.265762 0.456853 0.655207 0.845941 1.01722 
1.16363 1.28529 1.38521 0.227158 0.312971 0.494626 0.494626 0.680215 0.770593 
1.01722 1.01722 1.01722 1.01722 2.12437 1.5708 1.36763 1.27109 1.2157 
2.64697 2.12437 1.77397 1.5708 1.44781 1.36763 2.82862 2.46138 2.12437 
1.8705 1.69378 1.5708 1.48273 2.91443 2.64697 2.371 2.12437 1.9259 
1.77397 1.65886 1.5708 1.75639 1.8563 1.87857 1.97796 1.99133 2.00248 
2.12437 2.12437 2.12437 2.12437 2.29565 2.27767 2.26308 2.25101 2.24087 
2.48639 2.44752 2.41597 2.38991 2.36803 2.34943 2.68474 2.62586 2.57738 
2.53694 2.50281 2.47368 2.44857 2.87583 2.80184 2.73933 2.68621 2.64076 
2.60157 2.56754 2.53778 5.86049 5.90139 5.97231 5.94739 6.02165 6.09275 
5.99927 6.07676 6.15015 6.21902 6.0579 6.13831 6.2135 0 0.0641696 
6.12418 6.20694 6.28319 0.069689 0.13304 0.190437 6.19903 0 0.0762451 
0.144876 0.206423 0.261531 0.310872 0 0.0841597 0.159004 0.225289 0.283913 
0.335793 0.381792 0.422692 5.86049 5.97231 5.90139 6.09275 6.02165 5.94739 
6.21902 6.15015 6.07676 5.99927 0.0641696 0 6.2135 6.13831 6.0579 
0.190437 0.13304 0.069689 6.28319 6.20694 6.12418 0.310872 0.261531 0.206423 
0.144876 0.0762451 6.28319 6.19903 0.422692 0.381792 0.335793 0.283913 0.225289 
0.159004 0.0841597 0 5.67937 5.70914 5.59016 5.74316 5.61528 5.49102 
5.78235 5.64441 5.50962 5.38246 5.8278 5.67854 5.5315 5.3926 5.26596 
5.88092 5.71897 5.55757 5.40467 5.26596 5.14407 5.94343 5.76745 5.58911 
5.41926 5.26596 5.13292 5.02016 6.01742 5.82633 5.62798 5.43724 5.26596 
5.11955 4.99789 4.89798 1.38521 1.28529 1.26302 1.16363 1.15026 1.13912 
1.01722 1.01722 1.01722 1.01722 0.845941 0.863926 0.878514 0.890581 0.900726 
0.655207 0.694072 0.725619 0.751687 0.773562 0.792164 0.456853 0.515737 0.564217 
0.604649 0.638778 0.667908 0.693022 0.265762 0.339753 0.402264 0.455383 0.500837 
0.540021 0.57405 0.603812 
