# vtk DataFile Version 4.0
vtk output
ASCII
DATASET POLYDATA
POINTS 1002 float
-118.772 -102.332 71.7603 -114.443 -94.45 71.228 -114.168 -104.509 72.489 
-108.551 -98.7934 72.4083 -115.298 -99.3953 67.7586 -111.673 -101.17 67.8743 
-115.527 -98.4313 77.1087 -112.517 -101.019 77.6028 -109.115 -92.8818 68.2183 
-119.124 -107.244 68.9641 -110.715 -93.5636 74.5474 -118.105 -107.051 76.0287 
-118.541 -101.502 71.9219 -118.217 -100.594 72.0915 -117.769 -99.7804 72.0519 
-117.312 -98.9673 71.8728 -116.807 -98.0842 71.8112 -116.122 -97.3459 71.8079 
-115.437 -96.7335 71.6787 -115.006 -95.9735 71.4915 -114.754 -95.1195 71.3421 
-118.874 -102.172 71.3552 -118.888 -101.908 70.9075 -118.786 -101.513 70.4184 
-118.575 -101.104 69.8727 -118.19 -100.766 69.3645 -117.611 -100.441 68.9778 
-117.044 -100.107 68.608 -116.556 -99.8271 68.2328 -115.971 -99.6088 67.9591 
-118.523 -101.943 72.2617 -118.247 -101.569 72.8266 -117.868 -101.35 73.3342 
-117.492 -101.056 73.8933 -117.288 -100.47 74.6705 -117.091 -99.8716 75.4266 
-116.628 -99.5354 75.8749 -116.063 -99.277 76.1764 -115.701 -98.8858 76.589 
-119.189 -102.823 71.5378 -119.778 -103.058 71.4302 -120.184 -103.558 71.1429 
-120.112 -104.682 70.7122 -119.892 -105.854 70.4648 -119.956 -106.558 70.0993 
-120.144 -106.979 69.3088 -120.101 -107.223 68.6909 -119.725 -107.273 68.6893 
-118.823 -102.894 71.9635 -118.879 -103.484 72.219 -118.918 -104.035 72.4933 
-118.821 -104.592 72.7721 -118.554 -105.239 73.1201 -118.353 -105.806 73.6106 
-118.426 -106.171 74.2813 -118.57 -106.524 75.0582 -118.464 -106.897 75.7002 
-114.478 -94.6701 70.7405 -114.491 -95.0033 70.338 -114.46 -95.5155 70.0062 
-114.424 -96.1515 69.6394 -114.519 -96.687 69.1609 -114.788 -97.0948 68.6653 
-115.058 -97.6301 68.3265 -115.187 -98.3425 68.142 -115.23 -98.9824 67.9691 
-114.649 -94.6122 71.8787 -114.792 -94.891 72.6211 -114.785 -95.3847 73.2858 
-114.739 -95.9454 73.8777 -114.846 -96.3614 74.5769 -115.026 -96.7493 75.2885 
-115.148 -97.2296 75.8115 -115.28 -97.6629 76.2511 -115.438 -98.0191 76.7153 
-113.995 -94.0696 70.8443 -113.372 -93.7731 70.5451 -112.681 -93.4812 70.2479 
-112.17 -92.9719 69.8283 -111.852 -92.3393 69.3797 -111.42 -92.1084 69.0981 
-110.792 -92.3447 68.9529 -110.147 -92.5821 68.762 -109.579 -92.6868 68.4759 
-114.072 -94.1028 71.51 -113.496 -93.9024 71.8078 -112.875 -93.6739 72.145 
-112.525 -93.215 72.5763 -112.496 -92.6456 73.0675 -112.336 -92.3525 73.5624 
-111.82 -92.4673 73.9782 -111.293 -92.8075 74.2195 -110.971 -93.2006 74.3592 
-113.766 -103.929 72.4127 -113.201 -103.448 72.3757 -112.463 -102.968 72.3682 
-111.644 -102.4 72.3735 -110.925 -101.77 72.3734 -110.388 -101.132 72.3403 
-109.861 -100.552 72.3501 -109.258 -100.032 72.4484 -108.779 -99.4602 72.4987 
-114.031 -104.361 71.9263 -113.697 -104.298 71.4258 -113.364 -104.133 70.9651 
-113.181 -103.786 70.4153 -112.917 -103.444 69.8387 -112.516 -103.116 69.3785 
-112.244 -102.641 68.9658 -112.086 -102.091 68.5436 -111.884 -101.596 68.1828 
-114.011 -104.304 73.0029 -113.94 -104.01 73.4894 -113.977 -103.587 73.9182 
-113.917 -103.173 74.3908 -113.607 -102.9 75.0301 -113.233 -102.643 75.7283 
-112.987 -102.273 76.2704 -112.821 -101.85 76.6871 -112.661 -101.433 77.1353 
-114.512 -105.044 72.2048 -114.896 -105.616 71.829 -115.341 -106.128 71.3428 
-115.927 -106.526 70.8847 -116.562 -106.912 70.4685 -117.018 -107.415 69.8512 
-117.361 -107.917 69.2284 -117.862 -108.088 69.0629 -118.522 -107.792 69.1477 
-114.41 -105.082 72.881 -114.812 -105.586 73.1735 -115.446 -105.822 73.3795 
-116.064 -106.002 73.6628 -116.59 -106.263 74.0008 -117.128 -106.402 74.2801 
-117.476 -106.581 74.6602 -117.594 -106.996 75.248 -117.787 -107.263 75.7917 
-108.356 -99.1876 72.0754 -108.274 -99.5792 71.6755 -108.371 -99.8756 71.0229 
-108.675 -100.092 70.1466 -109.11 -100.339 69.4776 -109.645 -100.546 69.2097 
-110.334 -100.562 68.9845 -111.012 -100.553 68.6014 -111.445 -100.773 68.2061 
-108.845 -98.8797 72.9169 -109.107 -99.0418 73.4968 -109.436 -99.2465 73.9936 
-109.85 -99.4534 74.5356 -110.27 -99.6706 75.2101 -110.876 -99.8339 75.6535 
-111.701 -99.9407 75.846 -112.288 -100.188 76.2763 -112.453 -100.618 76.9885 
-108.287 -98.2833 72.0676 -108.111 -97.6571 71.7516 -108.072 -96.9339 71.3712 
-108.029 -96.1335 70.7621 -107.913 -95.2673 70.0189 -107.928 -94.4762 69.4998 
-108.163 -93.866 69.2005 -108.466 -93.3732 68.8342 -108.761 -93.0167 68.4424 
-108.686 -98.094 72.5233 -108.793 -97.3834 72.7587 -108.691 -96.7155 73.2254 
-108.626 -96.0954 73.6501 -108.902 -95.5196 73.7602 -109.271 -94.8955 73.8511 
-109.478 -94.2802 74.1458 -109.741 -93.9033 74.3842 -110.206 -93.729 74.4627 
-114.938 -99.448 67.469 -114.669 -99.496 67.0257 -114.493 -99.57 66.5133 
-114.067 -99.7321 66.2889 -113.298 -99.9769 66.3427 -112.616 -100.281 66.3184 
-112.206 -100.658 66.3784 -111.913 -101 66.821 -111.724 -101.156 67.4139 
-114.695 -98.8336 67.6136 -114.214 -98.0562 67.4155 -113.536 -97.3965 67.3272 
-112.624 -97.0038 67.4089 -111.886 -96.3795 67.5371 -111.358 -95.2357 67.5196 
-110.707 -94.1389 67.4163 -109.985 -93.5122 67.4952 -109.446 -93.1627 67.8134 
-115.955 -99.7964 67.6224 -116.784 -100.36 67.4469 -117.388 -101.428 67.443 
-117.613 -102.812 67.8777 -117.813 -104.159 68.4706 -118.242 -105.325 68.3718 
-118.727 -105.977 67.7264 -119.07 -106.124 67.6693 -119.203 -106.44 68.3532 
-111.351 -100.517 67.7386 -110.88 -100.001 67.5322 -110.138 -99.6686 67.245 
-109.353 -99.1289 67.0439 -109.006 -98.0481 67.1478 -109.036 -96.7499 67.4233 
-108.968 -95.557 67.5507 -108.83 -94.426 67.5889 -108.895 -93.4816 67.8079 
-112.045 -101.817 67.7669 -112.694 -102.357 67.7005 -113.606 -102.887 67.6849 
-114.481 -103.707 67.6719 -115.252 -104.796 67.5857 -116.107 -105.762 67.5785 
-116.991 -106.304 67.9323 -117.779 -106.502 68.5077 -118.496 -106.736 68.8878 
-115.434 -98.4993 77.6311 -115.306 -98.6043 78.1358 -115.122 -98.709 78.6552 
-114.758 -98.9717 79.1761 -114.214 -99.4788 79.4194 -113.72 -99.9708 79.1462 
-113.331 -100.306 78.6751 -112.929 -100.618 78.3714 -112.614 -100.892 78.0839 
-115.277 -97.7523 77.4101 -114.787 -97.2044 77.567 -114.288 -96.545 77.6025 
-114.05 -95.5325 77.6754 -113.677 -94.6402 77.6802 -112.856 -94.2972 77.2957 
-112.09 -94.1131 76.5264 -111.637 -93.825 75.7021 -111.21 -93.6261 75.0432 
-115.605 -99.2723 77.0511 -115.706 -100.234 76.917 -116.054 -101.109 76.8257 
-116.629 -101.905 76.8937 -117.043 -102.845 77.0236 -117.233 -103.801 76.9712 
-117.552 -104.537 76.7166 -117.956 -105.279 76.4553 -118.139 -106.201 76.2582 
-112.294 -100.359 77.6936 -111.997 -99.6145 77.6307 -111.723 -98.7815 77.3894 
-111.627 -97.8543 77.0108 -111.575 -96.8477 76.5761 -111.321 -95.8449 76.2404 
-110.971 -95.0161 76.0023 -110.772 -94.4136 75.6362 -110.727 -93.9494 75.0952 
-112.843 -101.559 77.7281 -113.479 -102.016 77.7481 -114.279 -102.49 77.7212 
-114.91 -103.193 77.5936 -115.426 -104.204 77.5085 -116.119 -105.147 77.6317 
-116.827 -105.653 77.555 -117.312 -105.994 77.0137 -117.706 -106.51 76.42 
-109.087 -92.4126 68.7181 -109.059 -91.8643 69.1409 -109.095 -91.3856 69.7149 
-109.188 -91.1516 70.6597 -109.329 -91.1805 71.6345 -109.6 -91.5438 72.247 
-109.945 -92.2205 72.6997 -110.216 -92.8797 73.2784 -110.439 -93.2976 73.9336 
-119.29 -108.369 69.0371 -119.297 -109.315 69.0262 -119.223 -109.642 69.5718 
-119.151 -109.656 70.8388 -118.966 -109.571 71.9925 -118.619 -109.114 72.6959 
-118.362 -108.497 73.5938 -118.305 -108.09 74.7309 -118.255 -107.683 75.5634 
-118.504 -101.353 71.4568 -118.33 -101.081 70.9586 -118.068 -100.362 71.5647 
-118.113 -100.652 70.4022 -117.811 -100.025 70.9908 -117.63 -99.4032 71.4893 
-117.915 -100.206 69.759 -117.63 -99.5791 70.2978 -117.462 -98.9521 70.8366 
-117.199 -98.4995 71.3153 -117.516 -99.8786 69.2514 -117.451 -99.1588 69.564 
-117.332 -98.4655 70.0209 -117.012 -98.027 70.6139 -116.53 -97.7231 71.2436 
-116.848 -99.6754 68.9939 -116.911 -98.9283 69.1536 -116.971 -98.1162 69.3413 
-116.678 -97.6267 69.8478 -116.115 -97.4149 70.5746 -115.657 -97.1362 71.2085 
-116.217 -99.5049 68.7226 -116.14 -98.8417 68.9747 -116.215 -98.0118 69.0609 
-116.058 -97.4252 69.3654 -115.602 -97.142 69.9978 -115.18 -96.8704 70.6318 
-115.013 -96.4464 71.081 -115.724 -99.2752 68.333 -115.572 -98.6645 68.6211 
-115.49 -97.9129 68.7992 -115.32 -97.3292 69.0797 -115.036 -96.9255 69.5904 
-114.795 -96.4949 70.1412 -114.701 -96.0001 70.5449 -114.717 -95.522 70.8948 
-119.383 -102.515 71.0916 -119.964 -102.691 70.8141 -119.452 -102.158 70.5621 
-120.192 -103.36 70.385 -119.877 -102.502 70.1518 -119.285 -101.873 70.0091 
-119.992 -104.558 70.105 -119.82 -103.428 69.7948 -119.391 -102.581 69.673 
-118.844 -101.694 69.5354 -119.849 -105.531 69.8846 -119.557 -104.549 69.6451 
-119.075 -103.653 69.5801 -118.651 -102.594 69.4248 -118.224 -101.399 69.1251 
-119.963 -106.034 69.0992 -119.546 -105.308 69.1414 -118.882 -104.588 69.4896 
-118.311 -103.546 69.4872 -118.052 -102.132 68.9645 -117.706 -100.867 68.5747 
-120.001 -106.271 68.1591 -119.629 -105.737 68.124 -118.962 -105.248 68.8966 
-118.237 -104.333 69.3907 -117.915 -102.902 68.849 -117.817 -101.361 68.1196 
-117.35 -100.329 67.9838 -119.728 -106.361 67.9579 -119.472 -105.966 67.5111 
-118.955 -105.703 68.1033 -118.291 -104.948 68.9422 -117.864 -103.648 68.7307 
-117.794 -102.081 67.8994 -117.538 -100.73 67.5224 -116.801 -99.9909 67.688 
-118.522 -106.347 68.2259 -117.773 -106.422 67.8941 -118.374 -106.237 67.7454 
-116.922 -106.046 67.5068 -117.656 -105.95 67.6318 -118.078 -105.641 67.8959 
-115.929 -104.999 67.4274 -116.791 -104.927 67.4587 -117.441 -104.631 67.6555 
-117.719 -104.403 68.049 -114.946 -103.743 67.5231 -115.698 -103.662 67.4894 
-116.532 -103.451 67.4275 -117.089 -103.283 67.4892 -117.38 -103.161 67.7241 
-113.997 -102.78 67.4572 -114.558 -102.655 67.4184 -115.286 -102.565 67.3718 
-116.002 -102.454 67.2493 -116.534 -102.289 67.3086 -116.981 -101.955 67.4376 
-113.01 -102.204 67.3201 -113.471 -101.958 67.0943 -114.025 -101.79 67.0898 
-114.68 -101.676 67.06 -115.321 -101.471 67.0557 -115.84 -101.153 67.2547 
[...]
POINT_DATA 1002
FIELD FieldData 2
Theta 1 1002 float
2.58802 2.58802 0.553574 0.553574 2.12437 1.01722 2.12437 1.01722 1.5708 
1.5708 1.5708 1.5708 2.68241 2.78649 2.89924 3.01861 3.14159 3.01861 
2.89924 2.78649 2.68241 2.61035 2.61791 2.60515 2.56958 2.51327 2.44184 
2.36202 2.27983 2.1997 2.61035 2.61791 2.60515 2.56958 2.51327 2.44184 
2.36202 2.27983 2.1997 2.50947 2.41899 2.31794 2.20864 2.0944 1.97902 
1.86631 1.75944 1.66056 2.50947 2.41899 2.31794 2.20864 2.0944 1.97902 
1.86631 1.75944 1.66056 2.61035 2.61791 2.60515 2.56958 2.51327 2.44184 
2.36202 2.27983 2.1997 2.61035 2.61791 2.60515 2.56958 2.51327 2.44184 
2.36202 2.27983 2.1997 2.50947 2.41899 2.31794 2.20864 2.0944 1.97902 
1.86631 1.75944 1.66056 2.50947 2.41899 2.31794 2.20864 2.0944 1.97902 
1.86631 1.75944 1.66056 0.459179 0.355101 0.242354 0.122983 0 0.122983 
0.242354 0.355101 0.459179 0.531246 0.523681 0.536438 0.57201 0.628319 0.699757 
0.779574 0.86176 0.941896 0.531246 0.523681 0.536438 0.57201 0.628319 0.699757 
0.779574 0.86176 0.941896 0.632123 0.7226 0.823657 0.932948 1.0472 1.16257 
1.27528 1.38216 1.48103 0.632123 0.7226 0.823657 0.932948 1.0472 1.16257 
1.27528 1.38216 1.48103 0.531246 0.523681 0.536438 0.57201 0.628319 0.699757 
0.779574 0.86176 0.941896 0.531246 0.523681 0.536438 0.57201 0.628319 0.699757 
0.779574 0.86176 0.941896 0.632123 0.7226 0.823657 0.932948 1.0472 1.16257 
1.27528 1.38216 1.48103 0.632123 0.7226 0.823657 0.932948 1.0472 1.16257 
1.27528 1.38216 1.48103 2.02998 1.9259 1.81315 1.69378 1.5708 1.44781 
1.32844 1.2157 1.11162 2.0928 2.05283 2.00422 1.94767 1.88496 1.81867 
1.75177 1.68695 1.62623 2.0928 2.05283 2.00422 1.94767 1.88496 1.81867 
1.75177 1.68695 1.62623 1.0488 1.08876 1.13737 1.19392 1.25664 1.32292 
1.38982 1.45464 1.51537 1.0488 1.08876 1.13737 1.19392 1.25664 1.32292 
1.38982 1.45464 1.51537 2.02998 1.9259 1.81315 1.69378 1.5708 1.44781 
1.32844 1.2157 1.11162 2.0928 2.05283 2.00422 1.94767 1.88496 1.81867 
1.75177 1.68695 1.62623 2.0928 2.05283 2.00422 1.94767 1.88496 1.81867 
1.75177 1.68695 1.62623 1.0488 1.08876 1.13737 1.19392 1.25664 1.32292 
1.38982 1.45464 1.51537 1.0488 1.08876 1.13737 1.19392 1.25664 1.32292 
1.38982 1.45464 1.51537 1.5708 1.5708 1.5708 1.5708 1.5708 1.5708 
1.5708 1.5708 1.5708 1.5708 1.5708 1.5708 1.5708 1.5708 1.5708 
1.5708 1.5708 1.5708 2.70908 2.71362 2.81592 2.68886 2.81002 2.92597 
2.6349 2.76254 2.89233 3.01997 2.55881 2.68262 2.80854 2.92834 3.01997 
2.47007 2.58462 2.70048 2.80854 2.89233 2.92597 2.37702 2.48017 2.58462 
2.68262 2.76254 2.81002 2.81592 2.28567 2.37702 2.47007 2.55881 2.6349 
2.68886 2.71362 2.70908 2.52097 2.4195 2.51718 2.30791 2.40503 2.49426 
2.18928 2.28408 2.3734 2.45144 2.06758 2.15805 2.24572 2.32523 2.39165 
1.94707 2.03138 2.11543 2.19453 2.26401 2.32035 1.83164 1.90847 1.98711 
2.06376 2.13422 2.1949 2.24359 1.72413 1.79288 1.86489 1.93728 2.00658 
2.06938 2.12312 2.16654 1.5708 1.50988 1.63171 1.44492 1.5708 1.69667 
1.37826 1.5059 1.63569 1.76333 1.31281 1.43962 1.5708 1.70197 1.82878 
1.25155 1.37501 1.50478 1.63681 1.76659 1.89004 1.19686 1.31493 1.44074 
1.5708 1.70086 1.82666 1.94473 1.15011 1.26149 1.38136 1.50697 1.63462 
1.76024 1.88011 1.99148 1.99148 1.88011 1.94473 1.76024 1.82666 1.89004 
1.63462 1.70086 1.76659 1.82878 1.50697 1.5708 1.63681 1.70197 1.76333 
1.38136 1.44074 1.50478 1.5708 1.63569 1.69667 1.26149 1.31493 1.37501 
1.43962 1.5059 1.5708 1.63171 1.15011 1.19686 1.25155 1.31281 1.37826 
1.44492 1.50988 1.5708 2.16654 2.12312 2.24359 2.06938 2.1949 2.32035 
2.00658 2.13422 2.26401 2.39165 1.93728 2.06376 2.19453 2.32523 2.45144 
1.86489 1.98711 2.11543 2.24572 2.3734 2.49426 1.79288 1.90847 2.03138 
2.15805 2.28408 2.40503 2.51718 1.72413 1.83164 1.94707 2.06758 2.18928 
2.30791 2.4195 2.52097 1.66533 1.66946 1.76911 1.67254 1.777 1.88041 
1.67418 1.78222 1.89102 1.99634 1.67418 1.78405 1.89674 2.00785 2.11299 
1.67254 1.78222 1.89674 2.01191 2.12307 2.22608 1.66946 1.777 1.89102 
2.00785 2.12307 2.23222 2.33166 1.66533 1.76911 1.88041 1.99634 2.11299 
2.22608 2.33166 2.42672 1.47626 1.37249 1.47213 1.26118 1.36459 1.46906 
1.14526 1.25058 1.35938 1.46741 1.0286 1.13374 1.24485 1.35755 1.46741 
0.915514 1.01852 1.12969 1.24485 1.35938 1.46906 0.809937 0.909371 1.01852 
1.13374 1.25058 1.36459 1.47213 0.714871 0.809937 0.915514 1.0286 1.14526 
1.26118 1.37249 1.47626 0.975055 0.898002 1.01847 0.821245 0.946693 1.07221 
0.749941 0.877585 1.00737 1.13501 0.690152 0.816367 0.94706 1.07784 1.20431 
0.647337 0.768195 0.895868 1.02616 1.15448 1.2767 0.624416 0.736561 0.857515 
0.983547 1.11021 1.23313 1.34871 0.620619 0.722093 0.833684 0.952313 1.07402 
1.19452 1.30996 1.41746 0.855925 0.764569 0.764569 0.671524 0.661425 0.671524 
0.582786 0.556971 0.556971 0.582786 0.506696 0.458968 0.441109 0.458968 0.506696 
0.45273 0.379052 0.333054 0.333054 0.379052 0.45273 0.427969 0.331576 0.249267 
0.21325 0.249267 0.331576 0.427969 0.432512 0.325669 0.215619 0.121622 0.121622 
0.215619 0.325669 0.432512 0.432512 0.427969 0.325669 0.45273 0.331576 0.215619 
0.506696 0.379052 0.249267 0.121622 0.582786 0.458968 0.333054 0.21325 0.121622 
0.671524 0.556971 0.441109 0.333054 0.249267 0.215619 0.764569 0.661425 0.556971 
0.458968 0.379052 0.331576 0.325669 0.855925 0.764569 0.671524 0.582786 0.506696 
0.45273 0.427969 0.432512 0.975055 1.01847 0.898002 1.07221 0.946693 0.821245 
1.13501 1.00737 0.877585 0.749941 1.20431 1.07784 0.94706 0.816367 0.690152 
1.2767 1.15448 1.02616 0.895868 0.768195 0.647337 1.34871 1.23313 1.11021 
0.983547 0.857515 0.736561 0.624416 1.41746 1.30996 1.19452 1.07402 0.952313 
0.833684 0.722093 0.620619 1.15011 1.26149 1.19686 1.38136 1.31493 1.25155 
1.50697 1.44074 1.37501 1.31281 1.63462 1.5708 1.50478 1.43962 1.37826 
1.76024 1.70086 1.63681 1.5708 1.5059 1.44492 1.88011 1.82666 1.76659 
1.70197 1.63569 1.5708 1.50988 1.99148 1.94473 1.89004 1.82878 1.76333 
1.69667 1.63171 1.5708 1.15011 1.19686 1.26149 1.25155 1.31493 1.38136 
1.31281 1.37501 1.44074 1.50697 1.37826 1.43962 1.50478 1.5708 1.63462 
1.44492 1.5059 1.5708 1.63681 1.70086 1.76024 1.50988 1.5708 1.63569 
1.70197 1.76659 1.82666 1.88011 1.5708 1.63171 1.69667 1.76333 1.82878 
1.89004 1.94473 1.99148 1.72413 1.83164 1.79288 1.94707 1.90847 1.86489 
2.06758 2.03138 1.98711 1.93728 2.18928 2.15805 2.11543 2.06376 2.00658 
2.30791 2.28408 2.24572 2.19453 2.13422 2.06938 2.4195 2.40503 2.3734 
2.32523 2.26401 2.1949 2.12312 2.52097 2.51718 2.49426 2.45144 2.39165 
2.32035 2.24359 2.16654 2.70908 2.81592 2.71362 2.92597 2.81002 2.68886 
3.01997 2.89233 2.76254 2.6349 3.01997 2.92834 2.80854 2.68262 2.55881 
2.92597 2.89233 2.80854 2.70048 2.58462 2.47007 2.81592 2.81002 2.76254 
2.68262 2.58462 2.48017 2.37702 2.70908 2.71362 2.68886 2.6349 2.55881 
2.47007 2.37702 2.28567 2.16654 2.24359 2.12312 2.32035 2.1949 2.06938 
2.39165 2.26401 2.13422 2.00658 2.45144 2.32523 2.19453 2.06376 1.93728 
2.49426 2.3734 2.24572 2.11543 1.98711 1.86489 2.51718 2.40503 2.28408 
2.15805 2.03138 1.90847 1.79288 2.52097 2.4195 2.30791 2.18928 2.06758 
1.94707 1.83164 1.72413 1.66533 1.76911 1.66946 1.88041 1.777 1.67254 
1.99634 1.89102 1.78222 1.67418 2.11299 2.00785 1.89674 1.78405 1.67418 
2.22608 2.12307 2.01191 1.89674 1.78222 1.67254 2.33166 2.23222 2.12307 
2.00785 1.89102 1.777 1.66946 2.42672 2.33166 2.22608 2.11299 1.99634 
1.88041 1.76911 1.66533 1.47626 1.47213 1.37249 1.46906 1.36459 1.26118 
1.46741 1.35938 1.25058 1.14526 1.46741 1.35755 1.24485 1.13374 1.0286 
1.46906 1.35938 1.24485 1.12969 1.01852 0.915514 1.47213 1.36459 1.25058 
1.13374 1.01852 0.909371 0.809937 1.47626 1.37249 1.26118 1.14526 1.0286 
0.915514 0.809937 0.714871 1.41746 1.30996 1.34871 1.19452 1.23313 1.2767 
1.07402 1.11021 1.15448 1.20431 0.952313 0.983547 1.02616 1.07784 1.13501 
0.833684 0.857515 0.895868 0.94706 1.00737 1.07221 0.722093 0.736561 0.768195 
0.816367 0.877585 0.946693 1.01847 0.620619 0.624416 0.647337 0.690152 0.749941 
0.821245 0.898002 0.975055 0.975055 0.898002 1.01847 0.821245 0.946693 1.07221 
0.749941 0.877585 1.00737 1.13501 0.690152 0.816367 0.94706 1.07784 1.20431 
0.647337 0.768195 0.895868 1.02616 1.15448 1.2767 0.624416 0.736561 0.857515 
0.983547 1.11021 1.23313 1.34871 0.620619 0.722093 0.833684 0.952313 1.07402 
1.19452 1.30996 1.41746 
Phi 1 1002 float
6.28319 3.14159 6.28319 3.14159 4.71239 4.71239 1.5708 1.5708 3.69517 
5.72961 2.58802 0.553574 6.28319 6.28319 6.28319 6.28319 3.14159 3.14159 
3.14159 3.14159 3.14159 6.1053 5.8988 5.67687 5.45995 5.26596 5.10322 
4.97131 4.86569 4.78095 0.177881 0.384387 0.606312 0.823235 1.01722 1.17997 
1.31187 1.4175 1.50223 6.18928 6.10703 6.03531 5.97283 5.91832 5.87061 
5.82869 5.79168 5.75886 0.0939024 0.176153 0.247873 0.310351 0.364864 0.412573 
0.454497 0.491504 0.524326 3.31947 3.52598 3.7479 3.96483 4.15881 4.32156 
4.45346 4.55909 4.64383 2.96371 2.75721 2.53528 2.31836 2.12437 1.96162 
1.82972 1.72409 1.63936 3.2355 3.31775 3.38947 3.45194 3.50646 3.55417 
3.59609 3.6331 3.66592 3.04769 2.96544 2.89372 2.83124 2.77673 2.72902 
2.6871 2.65009 2.61727 6.28319 6.28319 6.28319 6.28319 3.14159 3.14159 
3.14159 3.14159 3.14159 6.1053 5.8988 5.67687 5.45995 5.26596 5.10322 
4.97131 4.86569 4.78095 0.177881 0.384387 0.606312 0.823235 1.01722 1.17997 
1.31187 1.4175 1.50223 6.18928 6.10703 6.03531 5.97283 5.91832 5.87061 
5.82869 5.79168 5.75886 0.0939024 0.176153 0.247873 0.310351 0.364864 0.412573 
0.454497 0.491504 0.524326 3.31947 3.52598 3.7479 3.96483 4.15881 4.32156 
4.45346 4.55909 4.64383 2.96371 2.75721 2.53528 2.31836 2.12437 1.96162 
1.82972 1.72409 1.63936 3.2355 3.31775 3.38947 3.45194 3.50646 3.55417 
3.59609 3.6331 3.66592 3.04769 2.96544 2.89372 2.83124 2.77673 2.72902 
2.6871 2.65009 2.61727 4.71239 4.71239 4.71239 4.71239 4.71239 4.71239 
4.71239 4.71239 4.71239 4.60879 4.49914 4.3857 4.27128 4.15881 4.05096 
3.94976 3.85646 3.77161 4.81599 4.92564 5.03907 5.1535 5.26596 5.37381 
5.47502 5.56831 5.65317 4.60879 4.49914 4.3857 4.27128 4.15881 4.05096 
3.94976 3.85646 3.77161 4.81599 4.92564 5.03907 5.1535 5.26596 5.37381 
5.47502 5.56831 5.65317 1.5708 1.5708 1.5708 1.5708 1.5708 1.5708 
1.5708 1.5708 1.5708 1.6744 1.78405 1.89748 2.01191 2.12437 2.23222 
2.33343 2.42672 2.51157 1.4672 1.35755 1.24411 1.12969 1.01722 0.909371 
0.808166 0.714871 0.63002 1.6744 1.78405 1.89748 2.01191 2.12437 2.23222 
2.33343 2.42672 2.51157 1.4672 1.35755 1.24411 1.12969 1.01722 0.909371 
0.808166 0.714871 0.63002 3.60077 3.49669 3.38395 3.26458 3.14159 3.01861 
2.89924 2.78649 2.68241 5.82401 5.92808 6.04083 6.1602 6.28319 0.122983 
0.242354 0.355101 0.459179 6.05603 5.78856 5.97021 5.51259 5.60297 5.78856 
5.26596 5.26596 5.26596 5.26596 5.06749 5.0121 4.91556 4.71239 4.15881 
4.91556 4.83537 4.71239 4.50922 4.15881 3.63622 4.80045 4.71239 4.58941 
4.41268 4.15881 3.82181 3.45456 4.71239 4.62433 4.50922 4.35729 4.15881 
3.91219 3.63622 3.36875 6.01742 5.94343 5.82633 5.88092 5.76745 5.62798 
5.8278 5.71897 5.58911 5.43724 5.78235 5.67854 5.55757 5.41926 5.26596 
5.74316 5.64441 5.5315 5.40467 5.26596 5.11955 5.70914 5.61528 5.50962 
5.3926 5.26596 5.13292 4.99789 5.67937 5.59016 5.49102 5.38246 5.26596 
5.14407 5.02016 4.89798 5.56831 5.47502 5.47502 5.37381 5.37381 5.37381 
5.26596 5.26596 5.26596 5.26596 5.1535 5.1535 5.1535 5.1535 5.1535 
5.03907 5.03907 5.03907 5.03907 5.03907 5.03907 4.92564 4.92564 4.92564 
4.92564 4.92564 4.92564 4.92564 4.81599 4.81599 4.81599 4.81599 4.81599 
4.81599 4.81599 4.81599 4.60879 4.60879 4.49914 4.60879 4.49914 4.3857 
4.60879 4.49914 4.3857 4.27128 4.60879 4.49914 4.3857 4.27128 4.15881 
4.60879 4.49914 4.3857 4.27128 4.15881 4.05096 4.60879 4.49914 4.3857 
4.27128 4.15881 4.05096 3.94976 4.60879 4.49914 4.3857 4.27128 4.15881 
4.05096 3.94976 3.85646 4.5268 4.40462 4.42689 4.28071 4.29185 4.30523 
4.15881 4.15881 4.15881 4.15881 4.04232 4.03217 4.02011 4.00552 3.98753 
3.93376 3.91515 3.89328 3.86721 3.83566 3.7968 3.83461 3.8095 3.78037 
3.74624 3.70581 3.65733 3.59845 3.7454 3.71564 3.68161 3.64243 3.59698 
3.54386 3.48135 3.40735 3.56428 3.45246 3.52338 3.33203 3.40312 3.47739 
3.20576 3.27463 3.34802 3.42551 3.07742 3.14159 3.21128 3.28647 3.36688 
2.95116 3.00855 3.0719 3.14159 3.21784 3.3006 2.83072 2.88006 2.93517 
2.99672 3.06535 3.14159 3.22575 2.7189 2.7598 2.8058 2.85768 2.9163 
2.98259 3.05743 3.14159 3.56428 3.52338 3.45246 3.47739 3.40312 3.33203 
3.42551 3.34802 3.27463 3.20576 3.36688 3.28647 3.21128 3.14159 3.07742 
3.3006 3.21784 3.14159 3.0719 3.00855 2.95116 3.22575 3.14159 3.06535 
2.99672 2.93517 2.88006 2.83072 3.14159 3.05743 2.98259 2.9163 2.85768 
2.8058 2.7598 2.7189 4.5268 4.42689 4.40462 4.30523 4.29185 4.28071 
4.15881 4.15881 4.15881 4.15881 3.98753 4.00552 4.02011 4.03217 4.04232 
3.7968 3.83566 3.86721 3.89328 3.91515 3.93376 3.59845 3.65733 3.70581 
3.74624 3.78037 3.8095 3.83461 3.40735 3.48135 3.54386 3.59698 3.64243 
3.68161 3.71564 3.7454 4.71239 4.80045 4.62433 4.91556 4.71239 4.50922 
5.06749 4.83537 4.58941 4.35729 5.26596 5.0121 4.71239 4.41268 4.15881 
5.51259 5.26596 4.91556 4.50922 4.15881 3.91219 5.78856 5.60297 5.26596 
4.71239 4.15881 3.82181 3.63622 6.05603 5.97021 5.78856 5.26596 4.15881 
3.63622 3.45456 3.36875 0.227158 0.494626 0.312971 0.770593 0.680215 0.494626 
1.01722 1.01722 1.01722 1.01722 1.2157 1.27109 1.36763 1.5708 2.12437 
1.36763 1.44781 1.5708 1.77397 2.12437 2.64697 1.48273 1.5708 1.69378 
1.8705 2.12437 2.46138 2.82862 1.5708 1.65886 1.77397 1.9259 2.12437 
2.371 2.64697 2.91443 1.75639 1.87857 1.8563 2.00248 1.99133 1.97796 
2.12437 2.12437 2.12437 2.12437 2.24087 2.25101 2.26308 2.27767 2.29565 
2.34943 2.36803 2.38991 2.41597 2.44752 2.48639 2.44857 2.47368 2.50281 
2.53694 2.57738 2.62586 2.68474 2.53778 2.56754 2.60157 2.64076 2.68621 
2.73933 2.80184 2.87583 1.6744 1.6744 1.78405 1.6744 1.78405 1.89748 
1.6744 1.78405 1.89748 2.01191 1.6744 1.78405 1.89748 2.01191 2.12437 
1.6744 1.78405 1.89748 2.01191 2.12437 2.23222 1.6744 1.78405 1.89748 
2.01191 2.12437 2.23222 2.33343 1.6744 1.78405 1.89748 2.01191 2.12437 
2.23222 2.33343 2.42672 1.4672 1.35755 1.4672 1.24411 1.35755 1.4672 
1.12969 1.24411 1.35755 1.4672 1.01722 1.12969 1.24411 1.35755 1.4672 
0.909371 1.01722 1.12969 1.24411 1.35755 1.4672 0.808166 0.909371 1.01722 
1.12969 1.24411 1.35755 1.4672 0.714871 0.808166 0.909371 1.01722 1.12969 
1.24411 1.35755 1.4672 0.603812 0.57405 0.693022 0.540021 0.667908 0.792164 
0.500837 0.638778 0.773562 0.900726 0.455383 0.604649 0.751687 0.890581 1.01722 
0.402264 0.564217 0.725619 0.878514 1.01722 1.13912 0.339753 0.515737 0.694072 
0.863926 1.01722 1.15026 1.26302 0.265762 0.456853 0.655207 0.845941 1.01722 
1.16363 1.28529 1.38521 0.227158 0.312971 0.494626 0.494626 0.680215 0.770593 
1.01722 1.01722 1.01722 1.01722 2.12437 1.5708 1.36763 1.27109 1.2157 
2.64697 2.12437 1.77397 1.5708 1.44781 1.36763 2.82862 2.46138 2.12437 
1.8705 1.69378 1.5708 1.48273 2.91443 2.64697 2.371 2.12437 1.9259 
1.77397 1.65886 1.5708 1.75639 1.8563 1.87857 1.97796 1.99133 2.00248 
2.12437 2.12437 2.12437 2.12437 2.29565 2.27767 2.26308 2.25101 2.24087 
2.48639 2.44752 2.41597 2.38991 2.36803 2.34943 2.68474 2.62586 2.57738 
2.53694 2.50281 2.47368 2.44857 2.87583 2.80184 2.73933 2.68621 2.64076 
2.60157 2.56754 2.53778 5.86049 5.90139 5.97231 5.94739 6.02165 6.09275 
5.99927 6.07676 6.15015 6.21902 6.0579 6.13831 6.2135 0 0.0641696 
6.12418 6.20694 6.28319 0.069689 0.13304 0.190437 6.19903 0 0.0762451 
0.144876 0.206423 0.261531 0.310872 0 0.0841597 0.159004 0.225289 0.283913 
0.335793 0.381792 0.422692 5.86049 5.97231 5.90139 6.09275 6.02165 5.94739 
6.21902 6.15015 6.07676 5.99927 0.0641696 0 6.2135 6.13831 6.0579 
0.190437 0.13304 0.069689 6.28319 6.20694 6.12418 0.310872 0.261531 0.206423 
0.144876 0.0762451 6.28319 6.19903 0.422692 0.381792 0.335793 0.283913 0.225289 
0.159004 0.0841597 0 5.67937 5.70914 5.59016 5.74316 5.61528 5.49102 
5.78235 5.64441 5.50962 5.38246 5.8278 5.67854 5.5315 5.3926 5.26596 
5.88092 5.71897 5.55757 5.40467 5.26596 5.14407 5.94343 5.76745 5.58911 
5.41926 5.26596 5.13292 5.02016 6.01742 5.82633 5.62798 5.43724 5.26596 
5.11955 4.99789 4.89798 1.38521 1.28529 1.26302 1.16363 1.15026 1.13912 
1.01722 1.01722 1.01722 1.01722 0.845941 0.863926 0.878514 0.890581 0.900726 
0.655207 0.694072 0.725619 0.751687 0.773562 0.792164 0.456853 0.515737 0.564217 
0.604649 0.638778 0.667908 0.693022 0.265762 0.339753 0.402264 0.455383 0.500837 
0.540021 0.57405 0.603812 
