# vtk DataFile Version 4.0
vtk output
ASCII
DATASET POLYDATA
POINTS 1002 float
-119.275 -101.531 65.0025 -114.017 -94.0051 66.1727 -113.974 -105.246 65.9636 
-108.719 -97.8414 66.4136 -115.052 -98.3755 61.2014 -111.536 -100.592 61.3136 
-115.616 -98.6225 71.0308 -112.669 -100.928 72.0174 -108.273 -92.2934 63.2126 
-119.226 -107.781 61.2781 -110.354 -93.5653 69.7742 -119.264 -107.143 69.058 
-118.765 -101.02 65.0796 -118.218 -100.324 65.3209 -117.835 -99.2977 65.6142 
-117.636 -98.0434 65.7191 -117.347 -96.9168 65.6276 -116.71 -96.2223 65.6062 
-115.829 -95.8019 65.7786 -115.033 -95.2626 66.0155 -114.463 -94.5842 66.165 
-119.382 -101.153 64.5394 -119.447 -100.678 64.1759 -119.154 -100.478 63.8312 
-118.515 -100.512 63.3662 -117.941 -100.254 62.8299 -117.471 -99.7204 62.4014 
-116.851 -99.3603 62.0786 -116.169 -99.1267 61.7662 -115.582 -98.7827 61.465 
-119.014 -101.383 65.6423 -118.861 -101.099 66.4522 -118.595 -100.846 67.1542 
-118.15 -100.562 67.7245 -117.858 -100.046 68.473 -117.644 -99.4931 69.253 
-117.046 -99.186 69.7105 -116.276 -99.026 70.0546 -115.82 -98.8453 70.5326 
-119.727 -101.921 64.7325 -120.075 -102.527 64.4704 -120.371 -103.335 64.0492 
-120.655 -104.135 63.4893 -120.752 -104.871 62.9531 -120.718 -105.699 62.4641 
-120.769 -106.6 61.9767 -120.644 -107.338 61.5664 -120.052 -107.737 61.3311 
-119.516 -101.987 65.3475 -119.756 -102.503 65.7431 -119.953 -103.189 66.1884 
-120.025 -103.995 66.6321 -119.939 -104.786 66.9929 -119.891 -105.519 67.4384 
-120.045 -106.135 68.1063 -120.136 -106.599 68.7148 -119.846 -106.951 69.0024 
-114.156 -94.0951 65.6299 -114.323 -94.247 64.8885 -114.418 -94.559 64.1411 
-114.426 -95.0454 63.6146 -114.458 -95.6026 63.2135 -114.618 -96.1394 62.7224 
-114.854 -96.6593 62.1598 -115.021 -97.2065 61.68 -115.069 -97.7955 61.3729 
-114.286 -94.1566 66.6106 -114.731 -94.2302 67.0555 -115.137 -94.4293 67.7042 
-115.282 -94.9021 68.5238 -115.259 -95.5028 69.1883 -115.285 -96.0652 69.6095 
-115.361 -96.651 70.0238 -115.417 -97.3282 70.4629 -115.485 -98.0233 70.7881 
-113.66 -93.5257 65.7487 -113.277 -92.9498 65.2132 -112.765 -92.3913 64.6606 
-112.154 -91.8956 64.0515 -111.519 -91.3306 63.4709 -110.748 -90.8751 63.1731 
-109.855 -90.8936 63.1035 -109.107 -91.2848 63.0605 -108.608 -91.7691 63.078 
-113.66 -93.7003 66.4019 -113.231 -93.4469 66.7039 -112.854 -93.0396 67.21 
-112.721 -92.4239 67.8766 -112.597 -91.9549 68.522 -112.04 -91.888 68.9948 
-111.298 -92.1165 69.2292 -110.851 -92.5545 69.3346 -110.614 -93.1034 69.5065 
-113.424 -104.762 65.9795 -112.892 -104.191 66.0194 -112.427 -103.382 66.1649 
-111.994 -102.337 66.3695 -111.427 -101.395 66.5354 -110.66 -100.76 66.6788 
-109.9 -100.17 66.7749 -109.366 -99.3983 66.7166 -109.027 -98.5611 66.5444 
-113.56 -105.324 65.471 -113.259 -105.196 64.9282 -113.256 -104.653 64.4438 
-113.358 -103.899 64.0314 -113.143 -103.36 63.5293 -112.611 -103.032 62.8902 
-112.117 -102.622 62.2881 -111.809 -102.031 61.8398 -111.634 -101.32 61.528 
-114.037 -104.837 66.4324 -114.031 -104.447 66.9328 -113.891 -104.124 67.5572 
-113.67 -103.819 68.3426 -113.477 -103.418 69.116 -113.331 -102.867 69.7189 
-113.161 -102.326 70.3059 -112.941 -101.912 70.9984 -112.755 -101.481 71.6169 
-114.349 -105.753 65.6059 -114.911 -106.152 65.1775 -115.61 -106.431 64.703 
-116.279 -106.708 64.144 -116.867 -107.078 63.5151 -117.412 -107.53 62.9212 
-117.825 -107.945 62.37 -118.153 -108.144 61.846 -118.619 -108.067 61.458 
-114.547 -105.533 66.2017 -115.118 -105.894 66.3935 -115.783 -106.177 66.6333 
-116.473 -106.417 67.0303 -116.958 -106.833 67.4791 -117.328 -107.288 67.8671 
-117.796 -107.543 68.2715 -118.312 -107.648 68.6623 -118.804 -107.556 68.916 
-108.502 -98.141 66.0952 -108.313 -98.5697 65.744 -108.335 -98.9717 65.2456 
-108.576 -99.2917 64.5078 -108.836 -99.609 63.5607 -109.202 -99.833 62.7628 
-109.908 -99.866 62.3638 -110.703 -99.9171 62.0949 -111.227 -100.184 61.7146 
-109.087 -98.0673 66.8915 -109.378 -98.388 67.5538 -109.668 -98.74 68.3368 
-110.076 -99.0253 69.12 -110.563 -99.2219 69.7564 -111.062 -99.4353 70.2454 
-111.524 -99.8137 70.7872 -111.883 -100.305 71.3829 -112.228 -100.694 71.8095 
-108.193 -97.3317 66.1677 -107.522 -96.8326 65.9795 -106.854 -96.4213 65.7386 
-106.462 -96.0106 65.3328 -106.421 -95.1813 64.7462 -106.495 -93.9299 64.1461 
-106.639 -92.9921 63.8115 -107.059 -92.6497 63.7196 -107.696 -92.4834 63.5536 
-108.581 -97.3773 66.6676 -108.43 -96.9547 67.075 -108.416 -96.4141 67.4618 
-108.541 -95.7717 67.7428 -108.648 -95.1682 68.1534 -108.678 -94.5661 68.8222 
-108.786 -93.9855 69.448 -109.144 -93.6576 69.7421 -109.725 -93.5976 69.7738 
-114.671 -98.501 60.9398 -114.321 -98.6056 60.5804 -114.063 -98.6048 60.2113 
-113.614 -98.6789 60.0276 -112.872 -99.1006 60.0076 -112.306 -99.6866 60.0668 
-112.118 -100.057 60.2883 -111.97 -100.233 60.641 -111.725 -100.406 60.9875 
-114.548 -97.6013 61.0685 -113.919 -96.889 61.1136 -113.033 -96.3078 61.344 
-112.078 -95.6115 61.5505 -111.265 -94.711 61.6337 -110.462 -93.9254 61.6619 
-109.669 -93.3981 61.7677 -109.116 -92.983 62.124 -108.731 -92.6125 62.6904 
-115.446 -99.1392 61.1829 -115.996 -99.8535 61.0379 -116.556 -100.663 60.8834 
-117.192 -101.607 60.8741 -118.065 -102.607 60.8265 -118.896 -103.806 60.6753 
-119.336 -105.126 60.7198 -119.448 -106.201 60.9706 -119.389 -107.031 61.1653 
-111.145 -99.7114 61.3515 -110.317 -99.1346 61.2442 -109.248 -98.6377 60.9717 
-108.523 -97.7274 60.903 -108.342 -96.5609 61.3736 -108.436 -95.6261 62.1171 
-108.556 -94.8349 62.6617 -108.543 -93.9589 62.9381 -108.391 -93.0788 63.0989 
-111.912 -101.467 61.1184 -112.677 -102.115 61.1492 -113.822 -102.495 61.3231 
-114.76 -103.138 61.3456 -115.391 -104.203 61.1654 -116.242 -105.136 61.0391 
-117.26 -105.734 61.1071 -118.017 -106.357 61.2251 -118.589 -107.118 61.2595 
-115.563 -98.7807 71.4779 -115.389 -98.8787 71.9803 -115.182 -98.9657 72.5612 
-114.996 -99.2284 73.08 -114.644 -99.7028 73.3176 -114.139 -100.07 73.224 
-113.74 -100.182 72.906 -113.411 -100.314 72.5448 -113.019 -100.62 72.2665 
-115.302 -97.9551 71.3543 -114.894 -97.0847 71.7308 -114.473 -96.1442 72.0952 
-114.057 -95.299 72.3054 -113.383 -94.4845 72.4217 -112.493 -93.6918 72.4939 
-111.851 -93.3175 72.1276 -111.482 -93.4776 71.207 -111.014 -93.6761 70.2935 
-115.984 -99.257 71.0552 -116.522 -99.8635 71.1758 -117.054 -100.63 71.1557 
-117.38 -101.671 70.7897 -117.647 -102.799 70.3739 -118.115 -103.742 70.2157 
-118.681 -104.496 70.0517 -119.089 -105.284 69.6783 -119.262 -106.224 69.3026 
-112.284 -100.257 72.2331 -111.822 -99.6382 72.4557 -111.416 -98.8093 72.6216 
-111.152 -97.7415 72.5826 -110.98 -96.834 72.2028 -110.87 -96.0546 71.5732 
-110.778 -95.1764 71.0332 -110.645 -94.4648 70.675 -110.498 -94.0208 70.2727 
-113.2 -101.583 71.969 -113.84 -102.311 71.9098 -114.655 -102.843 71.7107 
-115.505 -103.268 71.3131 -116.205 -103.983 70.9816 -116.816 -104.885 70.8 
-117.411 -105.578 70.3868 -117.989 -106.105 69.7212 -118.62 -106.646 69.2448 
-107.952 -91.6365 63.5037 -107.821 -91.1366 63.8834 -107.901 -90.9432 64.5794 
-108.046 -90.9531 65.469 -108.331 -91.1707 66.2466 -108.802 -91.5913 66.9768 
-109.17 -91.9763 67.8398 -109.418 -92.3773 68.6648 -109.818 -92.9742 69.2709 
-119.568 -108.475 61.492 -119.906 -108.817 62.0867 -120.093 -108.93 63.1309 
-120.105 -109.281 64.2547 -119.995 -109.587 65.0807 -119.806 -109.249 65.8444 
-119.673 -108.672 66.925 -119.637 -108.304 68.0566 -119.532 -107.851 68.7604 
-118.791 -100.596 64.6233 -118.745 -100.118 64.2826 -118.138 -99.8618 64.8686 
-118.348 -99.8498 63.8408 -117.979 -99.3413 64.4302 -117.715 -98.7796 65.0644 
-117.754 -99.6162 63.2575 -117.572 -98.8972 63.8264 -117.488 -98.2319 64.4555 
-117.476 -97.5273 65.0122 -117.225 -99.2218 62.8562 -117.076 -98.5247 63.2901 
-117.046 -97.8299 63.8772 -117.069 -97.1526 64.429 -116.986 -96.5509 64.9322 
-116.608 -98.9148 62.6302 -116.508 -98.2948 63.0328 -116.47 -97.6597 63.5145 
-116.388 -97.0585 64.1014 -116.28 -96.4299 64.5795 -116.107 -95.9895 65.103 
-115.943 -98.6866 62.2499 -115.842 -98.1075 62.6949 -115.81 -97.5058 63.1627 
-115.658 -96.9852 63.7616 -115.461 -96.4081 64.3102 -115.346 -95.8335 64.7928 
-115.215 -95.4813 65.3944 -115.46 -98.287 61.7532 -115.348 -97.7156 62.1425 
-115.242 -97.1264 62.6371 -115.065 -96.6063 63.2236 -114.867 -96.0927 63.7744 
-114.77 -95.5271 64.2594 -114.715 -95.067 64.871 -114.593 -94.7933 65.5836 
-119.865 -101.471 64.2753 -120.098 -102.143 63.9189 -119.763 -101.122 63.8552 
-120.265 -103.081 63.395 -119.761 -101.981 63.4336 -119.21 -101.173 63.4737 
-120.473 -103.909 62.8482 -119.824 -102.915 62.9148 -119.121 -102.008 63.063 
-118.545 -101.185 62.9928 -120.528 -104.562 62.3368 -120.038 -103.546 62.302 
-119.302 -102.625 62.4782 -118.656 -101.686 62.4992 -118.137 -100.662 62.337 
-120.505 -105.308 61.8209 -120.168 -104.076 61.6126 -119.668 -103.042 61.6831 
-118.987 -102.086 61.8265 -118.364 -101.013 61.7122 -117.699 -100.036 61.7469 
-120.458 -106.149 61.4125 -120.191 -104.835 61.1004 -119.876 -103.596 60.9827 
-119.265 -102.565 61.1887 -118.476 -101.542 61.2375 -117.769 -100.49 61.1922 
-116.987 -99.7092 61.4468 -120.091 -106.789 61.2107 -119.992 -105.667 60.9375 
-119.776 -104.386 60.6949 -119.231 -103.158 60.808 -118.338 -102.118 61.0062 
-117.531 -101.092 60.9954 -116.877 -100.166 61.0792 -116.183 -99.4651 61.3283 
-118.697 -106.47 61.0789 -117.899 -105.824 60.9373 -118.655 -105.705 60.8396 
-116.885 -105.076 60.806 -117.627 -104.919 60.7062 -118.362 -104.493 60.6664 
-115.858 -104.138 60.827 -116.538 -103.924 60.6255 -117.246 -103.583 60.5726 
-117.74 -103.101 60.6515 -115.029 -103.153 60.9118 -115.524 -103.044 60.5512 
-116.249 -102.8 60.3843 -116.753 -102.41 60.3977 -116.947 -101.982 60.6193 
-114.121 -102.45 60.8814 -114.445 -102.42 60.3853 -115.107 -102.289 60.1141 
-115.856 -101.943 60.047 -116.167 -101.447 60.1921 -116.261 -101.013 60.5682 
-113.04 -101.961 60.7725 -113.333 -101.849 60.2713 -113.78 -101.699 59.9376 
-114.587 -101.359 59.8702 -115.279 -100.861 59.9285 -115.505 -100.415 60.2263 
[...]
POINT_DATA 1002
FIELD FieldData 2
Theta 1 1002 float
2.58802 2.58802 0.553574 0.553574 2.12437 1.01722 2.12437 1.01722 1.5708 
1.5708 1.5708 1.5708 2.68241 2.78649 2.89924 3.01861 3.14159 3.01861 
2.89924 2.78649 2.68241 2.61035 2.61791 2.60515 2.56958 2.51327 2.44184 
2.36202 2.27983 2.1997 2.61035 2.61791 2.60515 2.56958 2.51327 2.44184 
2.36202 2.27983 2.1997 2.50947 2.41899 2.31794 2.20864 2.0944 1.97902 
1.86631 1.75944 1.66056 2.50947 2.41899 2.31794 2.20864 2.0944 1.97902 
1.86631 1.75944 1.66056 2.61035 2.61791 2.60515 2.56958 2.51327 2.44184 
2.36202 2.27983 2.1997 2.61035 2.61791 2.60515 2.56958 2.51327 2.44184 
2.36202 2.27983 2.1997 2.50947 2.41899 2.31794 2.20864 2.0944 1.97902 
1.86631 1.75944 1.66056 2.50947 2.41899 2.31794 2.20864 2.0944 1.97902 
1.86631 1.75944 1.66056 0.459179 0.355101 0.242354 0.122983 0 0.122983 
0.242354 0.355101 0.459179 0.531246 0.523681 0.536438 0.57201 0.628319 0.699757 
0.779574 0.86176 0.941896 0.531246 0.523681 0.536438 0.57201 0.628319 0.699757 
0.779574 0.86176 0.941896 0.632123 0.7226 0.823657 0.932948 1.0472 1.16257 
1.27528 1.38216 1.48103 0.632123 0.7226 0.823657 0.932948 1.0472 1.16257 
1.27528 1.38216 1.48103 0.531246 0.523681 0.536438 0.57201 0.628319 0.699757 
0.779574 0.86176 0.941896 0.531246 0.523681 0.536438 0.57201 0.628319 0.699757 
0.779574 0.86176 0.941896 0.632123 0.7226 0.823657 0.932948 1.0472 1.16257 
1.27528 1.38216 1.48103 0.632123 0.7226 0.823657 0.932948 1.0472 1.16257 
1.27528 1.38216 1.48103 2.02998 1.9259 1.81315 1.69378 1.5708 1.44781 
1.32844 1.2157 1.11162 2.0928 2.05283 2.00422 1.94767 1.88496 1.81867 
1.75177 1.68695 1.62623 2.0928 2.05283 2.00422 1.94767 1.88496 1.81867 
1.75177 1.68695 1.62623 1.0488 1.08876 1.13737 1.19392 1.25664 1.32292 
1.38982 1.45464 1.51537 1.0488 1.08876 1.13737 1.19392 1.25664 1.32292 
1.38982 1.45464 1.51537 2.02998 1.9259 1.81315 1.69378 1.5708 1.44781 
1.32844 1.2157 1.11162 2.0928 2.05283 2.00422 1.94767 1.88496 1.81867 
1.75177 1.68695 1.62623 2.0928 2.05283 2.00422 1.94767 1.88496 1.81867 
1.75177 1.68695 1.62623 1.0488 1.08876 1.13737 1.19392 1.25664 1.32292 
1.38982 1.45464 1.51537 1.0488 1.08876 1.13737 1.19392 1.25664 1.32292 
1.38982 1.45464 1.51537 1.5708 1.5708 1.5708 1.5708 1.5708 1.5708 
1.5708 1.5708 1.5708 1.5708 1.5708 1.5708 1.5708 1.5708 1.5708 
1.5708 1.5708 1.5708 2.70908 2.71362 2.81592 2.68886 2.81002 2.92597 
2.6349 2.76254 2.89233 3.01997 2.55881 2.68262 2.80854 2.92834 3.01997 
2.47007 2.58462 2.70048 2.80854 2.89233 2.92597 2.37702 2.48017 2.58462 
2.68262 2.76254 2.81002 2.81592 2.28567 2.37702 2.47007 2.55881 2.6349 
2.68886 2.71362 2.70908 2.52097 2.4195 2.51718 2.30791 2.40503 2.49426 
2.18928 2.28408 2.3734 2.45144 2.06758 2.15805 2.24572 2.32523 2.39165 
1.94707 2.03138 2.11543 2.19453 2.26401 2.32035 1.83164 1.90847 1.98711 
2.06376 2.13422 2.1949 2.24359 1.72413 1.79288 1.86489 1.93728 2.00658 
2.06938 2.12312 2.16654 1.5708 1.50988 1.63171 1.44492 1.5708 1.69667 
1.37826 1.5059 1.63569 1.76333 1.31281 1.43962 1.5708 1.70197 1.82878 
1.25155 1.37501 1.50478 1.63681 1.76659 1.89004 1.19686 1.31493 1.44074 
1.5708 1.70086 1.82666 1.94473 1.15011 1.26149 1.38136 1.50697 1.63462 
1.76024 1.88011 1.99148 1.99148 1.88011 1.94473 1.76024 1.82666 1.89004 
1.63462 1.70086 1.76659 1.82878 1.50697 1.5708 1.63681 1.70197 1.76333 
1.38136 1.44074 1.50478 1.5708 1.63569 1.69667 1.26149 1.31493 1.37501 
1.43962 1.5059 1.5708 1.63171 1.15011 1.19686 1.25155 1.31281 1.37826 
1.44492 1.50988 1.5708 2.16654 2.12312 2.24359 2.06938 2.1949 2.32035 
2.00658 2.13422 2.26401 2.39165 1.93728 2.06376 2.19453 2.32523 2.45144 
1.86489 1.98711 2.11543 2.24572 2.3734 2.49426 1.79288 1.90847 2.03138 
2.15805 2.28408 2.40503 2.51718 1.72413 1.83164 1.94707 2.06758 2.18928 
2.30791 2.4195 2.52097 1.66533 1.66946 1.76911 1.67254 1.777 1.88041 
1.67418 1.78222 1.89102 1.99634 1.67418 1.78405 1.89674 2.00785 2.11299 
1.67254 1.78222 1.89674 2.01191 2.12307 2.22608 1.66946 1.777 1.89102 
2.00785 2.12307 2.23222 2.33166 1.66533 1.76911 1.88041 1.99634 2.11299 
2.22608 2.33166 2.42672 1.47626 1.37249 1.47213 1.26118 1.36459 1.46906 
1.14526 1.25058 1.35938 1.46741 1.0286 1.13374 1.24485 1.35755 1.46741 
0.915514 1.01852 1.12969 1.24485 1.35938 1.46906 0.809937 0.909371 1.01852 
1.13374 1.25058 1.36459 1.47213 0.714871 0.809937 0.915514 1.0286 1.14526 
1.26118 1.37249 1.47626 0.975055 0.898002 1.01847 0.821245 0.946693 1.07221 
0.749941 0.877585 1.00737 1.13501 0.690152 0.816367 0.94706 1.07784 1.20431 
0.647337 0.768195 0.895868 1.02616 1.15448 1.2767 0.624416 0.736561 0.857515 
0.983547 1.11021 1.23313 1.34871 0.620619 0.722093 0.833684 0.952313 1.07402 
1.19452 1.30996 1.41746 0.855925 0.764569 0.764569 0.671524 0.661425 0.671524 
0.582786 0.556971 0.556971 0.582786 0.506696 0.458968 0.441109 0.458968 0.506696 
0.45273 0.379052 0.333054 0.333054 0.379052 0.45273 0.427969 0.331576 0.249267 
0.21325 0.249267 0.331576 0.427969 0.432512 0.325669 0.215619 0.121622 0.121622 
0.215619 0.325669 0.432512 0.432512 0.427969 0.325669 0.45273 0.331576 0.215619 
0.506696 0.379052 0.249267 0.121622 0.582786 0.458968 0.333054 0.21325 0.121622 
0.671524 0.556971 0.441109 0.333054 0.249267 0.215619 0.764569 0.661425 0.556971 
0.458968 0.379052 0.331576 0.325669 0.855925 0.764569 0.671524 0.582786 0.506696 
0.45273 0.427969 0.432512 0.975055 1.01847 0.898002 1.07221 0.946693 0.821245 
1.13501 1.00737 0.877585 0.749941 1.20431 1.07784 0.94706 0.816367 0.690152 
1.2767 1.15448 1.02616 0.895868 0.768195 0.647337 1.34871 1.23313 1.11021 
0.983547 0.857515 0.736561 0.624416 1.41746 1.30996 1.19452 1.07402 0.952313 
0.833684 0.722093 0.620619 1.15011 1.26149 1.19686 1.38136 1.31493 1.25155 
1.50697 1.44074 1.37501 1.31281 1.63462 1.5708 1.50478 1.43962 1.37826 
1.76024 1.70086 1.63681 1.5708 1.5059 1.44492 1.88011 1.82666 1.76659 
1.70197 1.63569 1.5708 1.50988 1.99148 1.94473 1.89004 1.82878 1.76333 
1.69667 1.63171 1.5708 1.15011 1.19686 1.26149 1.25155 1.31493 1.38136 
1.31281 1.37501 1.44074 1.50697 1.37826 1.43962 1.50478 1.5708 1.63462 
1.44492 1.5059 1.5708 1.63681 1.70086 1.76024 1.50988 1.5708 1.63569 
1.70197 1.76659 1.82666 1.88011 1.5708 1.63171 1.69667 1.76333 1.82878 
1.89004 1.94473 1.99148 1.72413 1.83164 1.79288 1.94707 1.90847 1.86489 
2.06758 2.03138 1.98711 1.93728 2.18928 2.15805 2.11543 2.06376 2.00658 
2.30791 2.28408 2.24572 2.19453 2.13422 2.06938 2.4195 2.40503 2.3734 
2.32523 2.26401 2.1949 2.12312 2.52097 2.51718 2.49426 2.45144 2.39165 
2.32035 2.24359 2.16654 2.70908 2.81592 2.71362 2.92597 2.81002 2.68886 
3.01997 2.89233 2.76254 2.6349 3.01997 2.92834 2.80854 2.68262 2.55881 
2.92597 2.89233 2.80854 2.70048 2.58462 2.47007 2.81592 2.81002 2.76254 
2.68262 2.58462 2.48017 2.37702 2.70908 2.71362 2.68886 2.6349 2.55881 
2.47007 2.37702 2.28567 2.16654 2.24359 2.12312 2.32035 2.1949 2.06938 
2.39165 2.26401 2.13422 2.00658 2.45144 2.32523 2.19453 2.06376 1.93728 
2.49426 2.3734 2.24572 2.11543 1.98711 1.86489 2.51718 2.40503 2.28408 
2.15805 2.03138 1.90847 1.79288 2.52097 2.4195 2.30791 2.18928 2.06758 
1.94707 1.83164 1.72413 1.66533 1.76911 1.66946 1.88041 1.777 1.67254 
1.99634 1.89102 1.78222 1.67418 2.11299 2.00785 1.89674 1.78405 1.67418 
2.22608 2.12307 2.01191 1.89674 1.78222 1.67254 2.33166 2.23222 2.12307 
2.00785 1.89102 1.777 1.66946 2.42672 2.33166 2.22608 2.11299 1.99634 
1.88041 1.76911 1.66533 1.47626 1.47213 1.37249 1.46906 1.36459 1.26118 
1.46741 1.35938 1.25058 1.14526 1.46741 1.35755 1.24485 1.13374 1.0286 
1.46906 1.35938 1.24485 1.12969 1.01852 0.915514 1.47213 1.36459 1.25058 
1.13374 1.01852 0.909371 0.809937 1.47626 1.37249 1.26118 1.14526 1.0286 
0.915514 0.809937 0.714871 1.41746 1.30996 1.34871 1.19452 1.23313 1.2767 
1.07402 1.11021 1.15448 1.20431 0.952313 0.983547 1.02616 1.07784 1.13501 
0.833684 0.857515 0.895868 0.94706 1.00737 1.07221 0.722093 0.736561 0.768195 
0.816367 0.877585 0.946693 1.01847 0.620619 0.624416 0.647337 0.690152 0.749941 
0.821245 0.898002 0.975055 0.975055 0.898002 1.01847 0.821245 0.946693 1.07221 
0.749941 0.877585 1.00737 1.13501 0.690152 0.816367 0.94706 1.07784 1.20431 
0.647337 0.768195 0.895868 1.02616 1.15448 1.2767 0.624416 0.736561 0.857515 
0.983547 1.11021 1.23313 1.34871 0.620619 0.722093 0.833684 0.952313 1.07402 
1.19452 1.30996 1.41746 
Phi 1 1002 float
6.28319 3.14159 6.28319 3.14159 4.71239 4.71239 1.5708 1.5708 3.69517 
5.72961 2.58802 0.553574 6.28319 6.28319 6.28319 6.28319 3.14159 3.14159 
3.14159 3.14159 3.14159 6.1053 5.8988 5.67687 5.45995 5.26596 5.10322 
4.97131 4.86569 4.78095 0.177881 0.384387 0.606312 0.823235 1.01722 1.17997 
1.31187 1.4175 1.50223 6.18928 6.10703 6.03531 5.97283 5.91832 5.87061 
5.82869 5.79168 5.75886 0.0939024 0.176153 0.247873 0.310351 0.364864 0.412573 
0.454497 0.491504 0.524326 3.31947 3.52598 3.7479 3.96483 4.15881 4.32156 
4.45346 4.55909 4.64383 2.96371 2.75721 2.53528 2.31836 2.12437 1.96162 
1.82972 1.72409 1.63936 3.2355 3.31775 3.38947 3.45194 3.50646 3.55417 
3.59609 3.6331 3.66592 3.04769 2.96544 2.89372 2.83124 2.77673 2.72902 
2.6871 2.65009 2.61727 6.28319 6.28319 6.28319 6.28319 3.14159 3.14159 
3.14159 3.14159 3.14159 6.1053 5.8988 5.67687 5.45995 5.26596 5.10322 
4.97131 4.86569 4.78095 0.177881 0.384387 0.606312 0.823235 1.01722 1.17997 
1.31187 1.4175 1.50223 6.18928 6.10703 6.03531 5.97283 5.91832 5.87061 
5.82869 5.79168 5.75886 0.0939024 0.176153 0.247873 0.310351 0.364864 0.412573 
0.454497 0.491504 0.524326 3.31947 3.52598 3.7479 3.96483 4.15881 4.32156 
4.45346 4.55909 4.64383 2.96371 2.75721 2.53528 2.31836 2.12437 1.96162 
1.82972 1.72409 1.63936 3.2355 3.31775 3.38947 3.45194 3.50646 3.55417 
3.59609 3.6331 3.66592 3.04769 2.96544 2.89372 2.83124 2.77673 2.72902 
2.6871 2.65009 2.61727 4.71239 4.71239 4.71239 4.71239 4.71239 4.71239 
4.71239 4.71239 4.71239 4.60879 4.49914 4.3857 4.27128 4.15881 4.05096 
3.94976 3.85646 3.77161 4.81599 4.92564 5.03907 5.1535 5.26596 5.37381 
5.47502 5.56831 5.65317 4.60879 4.49914 4.3857 4.27128 4.15881 4.05096 
3.94976 3.85646 3.77161 4.81599 4.92564 5.03907 5.1535 5.26596 5.37381 
5.47502 5.56831 5.65317 1.5708 1.5708 1.5708 1.5708 1.5708 1.5708 
1.5708 1.5708 1.5708 1.6744 1.78405 1.89748 2.01191 2.12437 2.23222 
2.33343 2.42672 2.51157 1.4672 1.35755 1.24411 1.12969 1.01722 0.909371 
0.808166 0.714871 0.63002 1.6744 1.78405 1.89748 2.01191 2.12437 2.23222 
2.33343 2.42672 2.51157 1.4672 1.35755 1.24411 1.12969 1.01722 0.909371 
0.808166 0.714871 0.63002 3.60077 3.49669 3.38395 3.26458 3.14159 3.01861 
2.89924 2.78649 2.68241 5.82401 5.92808 6.04083 6.1602 6.28319 0.122983 
0.242354 0.355101 0.459179 6.05603 5.78856 5.97021 5.51259 5.60297 5.78856 
5.26596 5.26596 5.26596 5.26596 5.06749 5.0121 4.91556 4.71239 4.15881 
4.91556 4.83537 4.71239 4.50922 4.15881 3.63622 4.80045 4.71239 4.58941 
4.41268 4.15881 3.82181 3.45456 4.71239 4.62433 4.50922 4.35729 4.15881 
3.91219 3.63622 3.36875 6.01742 5.94343 5.82633 5.88092 5.76745 5.62798 
5.8278 5.71897 5.58911 5.43724 5.78235 5.67854 5.55757 5.41926 5.26596 
5.74316 5.64441 5.5315 5.40467 5.26596 5.11955 5.70914 5.61528 5.50962 
5.3926 5.26596 5.13292 4.99789 5.67937 5.59016 5.49102 5.38246 5.26596 
5.14407 5.02016 4.89798 5.56831 5.47502 5.47502 5.37381 5.37381 5.37381 
5.26596 5.26596 5.26596 5.26596 5.1535 5.1535 5.1535 5.1535 5.1535 
5.03907 5.03907 5.03907 5.03907 5.03907 5.03907 4.92564 4.92564 4.92564 
4.92564 4.92564 4.92564 4.92564 4.81599 4.81599 4.81599 4.81599 4.81599 
4.81599 4.81599 4.81599 4.60879 4.60879 4.49914 4.60879 4.49914 4.3857 
4.60879 4.49914 4.3857 4.27128 4.60879 4.49914 4.3857 4.27128 4.15881 
4.60879 4.49914 4.3857 4.27128 4.15881 4.05096 4.60879 4.49914 4.3857 
4.27128 4.15881 4.05096 3.94976 4.60879 4.49914 4.3857 4.27128 4.15881 
4.05096 3.94976 3.85646 4.5268 4.40462 4.42689 4.28071 4.29185 4.30523 
4.15881 4.15881 4.15881 4.15881 4.04232 4.03217 4.02011 4.00552 3.98753 
3.93376 3.91515 3.89328 3.86721 3.83566 3.7968 3.83461 3.8095 3.78037 
3.74624 3.70581 3.65733 3.59845 3.7454 3.71564 3.68161 3.64243 3.59698 
3.54386 3.48135 3.40735 3.56428 3.45246 3.52338 3.33203 3.40312 3.47739 
3.20576 3.27463 3.34802 3.42551 3.07742 3.14159 3.21128 3.28647 3.36688 
2.95116 3.00855 3.0719 3.14159 3.21784 3.3006 2.83072 2.88006 2.93517 
2.99672 3.06535 3.14159 3.22575 2.7189 2.7598 2.8058 2.85768 2.9163 
2.98259 3.05743 3.14159 3.56428 3.52338 3.45246 3.47739 3.40312 3.33203 
3.42551 3.34802 3.27463 3.20576 3.36688 3.28647 3.21128 3.14159 3.07742 
3.3006 3.21784 3.14159 3.0719 3.00855 2.95116 3.22575 3.14159 3.06535 
2.99672 2.93517 2.88006 2.83072 3.14159 3.05743 2.98259 2.9163 2.85768 
2.8058 2.7598 2.7189 4.5268 4.42689 4.40462 4.30523 4.29185 4.28071 
4.15881 4.15881 4.15881 4.15881 3.98753 4.00552 4.02011 4.03217 4.04232 
3.7968 3.83566 3.86721 3.89328 3.91515 3.93376 3.59845 3.65733 3.70581 
3.74624 3.78037 3.8095 3.83461 3.40735 3.48135 3.54386 3.59698 3.64243 
3.68161 3.71564 3.7454 4.71239 4.80045 4.62433 4.91556 4.71239 4.50922 
5.06749 4.83537 4.58941 4.35729 5.26596 5.0121 4.71239 4.41268 4.15881 
5.51259 5.26596 4.91556 4.50922 4.15881 3.91219 5.78856 5.60297 5.26596 
4.71239 4.15881 3.82181 3.63622 6.05603 5.97021 5.78856 5.26596 4.15881 
3.63622 3.45456 3.36875 0.227158 0.494626 0.312971 0.770593 0.680215 0.494626 
1.01722 1.01722 1.01722 1.01722 1.2157 1.27109 1.36763 1.5708 2.12437 
1.36763 1.44781 1.5708 1.77397 2.12437 2.64697 1.48273 1.5708 1.69378 
1.8705 2.12437 2.46138 2.82862 1.5708 1.65886 1.77397 1.9259 2.12437 
2.371 2.64697 2.91443 1.75639 1.87857 1.8563 2.00248 1.99133 1.97796 
2.12437 2.12437 2.12437 2.12437 2.24087 2.25101 2.26308 2.27767 2.29565 
2.34943 2.36803 2.38991 2.41597 2.44752 2.48639 2.44857 2.47368 2.50281 
2.53694 2.57738 2.62586 2.68474 2.53778 2.56754 2.60157 2.64076 2.68621 
2.73933 2.80184 2.87583 1.6744 1.6744 1.78405 1.6744 1.78405 1.89748 
1.6744 1.78405 1.89748 2.01191 1.6744 1.78405 1.89748 2.01191 2.12437 
1.6744 1.78405 1.89748 2.01191 2.12437 2.23222 1.6744 1.78405 1.89748 
2.01191 2.12437 2.23222 2.33343 1.6744 1.78405 1.89748 2.01191 2.12437 
2.23222 2.33343 2.42672 1.4672 1.35755 1.4672 1.24411 1.35755 1.4672 
1.12969 1.24411 1.35755 1.4672 1.01722 1.12969 1.24411 1.35755 1.4672 
0.909371 1.01722 1.12969 1.24411 1.35755 1.4672 0.808166 0.909371 1.01722 
1.12969 1.24411 1.35755 1.4672 0.714871 0.808166 0.909371 1.01722 1.12969 
1.24411 1.35755 1.4672 0.603812 0.57405 0.693022 0.540021 0.667908 0.792164 
0.500837 0.638778 0.773562 0.900726 0.455383 0.604649 0.751687 0.890581 1.01722 
0.402264 0.564217 0.725619 0.878514 1.01722 1.13912 0.339753 0.515737 0.694072 
0.863926 1.01722 1.15026 1.26302 0.265762 0.456853 0.655207 0.845941 1.01722 
1.16363 1.28529 1.38521 0.227158 0.312971 0.494626 0.494626 0.680215 0.770593 
1.01722 1.01722 1.01722 1.01722 2.12437 1.5708 1.36763 1.27109 1.2157 
2.64697 2.12437 1.77397 1.5708 1.44781 1.36763 2.82862 2.46138 2.12437 
1.8705 1.69378 1.5708 1.48273 2.91443 2.64697 2.371 2.12437 1.9259 
1.77397 1.65886 1.5708 1.75639 1.8563 1.87857 1.97796 1.99133 2.00248 
2.12437 2.12437 2.12437 2.12437 2.29565 2.27767 2.26308 2.25101 2.24087 
2.48639 2.44752 2.41597 2.38991 2.36803 2.34943 2.68474 2.62586 2.57738 
2.53694 2.50281 2.47368 2.44857 2.87583 2.80184 2.73933 2.68621 2.64076 
2.60157 2.56754 2.53778 5.86049 5.90139 5.97231 5.94739 6.02165 6.09275 
5.99927 6.07676 6.15015 6.21902 6.0579 6.13831 6.2135 0 0.0641696 
6.12418 6.20694 6.28319 0.069689 0.13304 0.190437 6.19903 0 0.0762451 
0.144876 0.206423 0.261531 0.310872 0 0.0841597 0.159004 0.225289 0.283913 
0.335793 0.381792 0.422692 5.86049 5.97231 5.90139 6.09275 6.02165 5.94739 
6.21902 6.15015 6.07676 5.99927 0.0641696 0 6.2135 6.13831 6.0579 
0.190437 0.13304 0.069689 6.28319 6.20694 6.12418 0.310872 0.261531 0.206423 
0.144876 0.0762451 6.28319 6.19903 0.422692 0.381792 0.335793 0.283913 0.225289 
0.159004 0.0841597 0 5.67937 5.70914 5.59016 5.74316 5.61528 5.49102 
5.78235 5.64441 5.50962 5.38246 5.8278 5.67854 5.5315 5.3926 5.26596 
5.88092 5.71897 5.55757 5.40467 5.26596 5.14407 5.94343 5.76745 5.58911 
5.41926 5.26596 5.13292 5.02016 6.01742 5.82633 5.62798 5.43724 5.26596 
5.11955 4.99789 4.89798 1.38521 1.28529 1.26302 1.16363 1.15026 1.13912 
1.01722 1.01722 1.01722 1.01722 0.845941 0.863926 0.878514 0.890581 0.900726 
0.655207 0.694072 0.725619 0.751687 0.773562 0.792164 0.456853 0.515737 0.564217 
0.604649 0.638778 0.667908 0.693022 0.265762 0.339753 0.402264 0.455383 0.500837 
0.540021 0.57405 0.603812 
