# vtk DataFile Version 4.0
vtk output
ASCII
DATASET POLYDATA
POINTS 1002 float
-121.54 -98.8131 65.9923 -115.65 -92.028 64.7149 -116.382 -102.485 66.9405 
-110.398 -96.0364 65.8069 -118.104 -96.7612 60.7165 -114.197 -99.2347 61.2782 
-117.977 -95.0357 70.8504 -114.87 -97.3011 71.4622 -110.68 -91.2807 61.4762 
-121.582 -105.362 63.3833 -112.172 -90.7796 67.834 -120.945 -103.094 70.3183 
-121.21 -97.9504 65.8389 -120.9 -96.9759 65.6684 -120.538 -96.1285 65.5375 
-120.051 -95.3462 65.421 -119.41 -94.5652 65.2175 -118.606 -94.0149 64.994 
-117.689 -93.6032 64.8965 -116.833 -93.0437 64.8694 -116.171 -92.4588 64.8052 
-121.541 -98.5835 65.4007 -121.468 -98.3471 64.6714 -121.28 -98.135 64.0462 
-120.893 -97.9601 63.5617 -120.532 -97.6973 62.9496 -120.389 -97.2854 62.1982 
-120.056 -96.9417 61.6125 -119.331 -96.8177 61.2507 -118.613 -96.8004 60.9625 
-121.212 -98.5747 66.3345 -120.856 -98.2521 66.6892 -120.657 -97.7432 67.3023 
-120.538 -97.1485 68.0766 -120.13 -96.754 68.6271 -119.447 -96.5621 69.0218 
-118.909 -96.2917 69.5598 -118.607 -95.8696 70.1252 -118.323 -95.4269 70.5339 
-121.949 -99.3667 65.7846 -122.418 -99.8404 65.5139 -122.897 -100.342 65.1951 
-123.154 -101.079 64.7655 -123.099 -102.126 64.2934 -123.058 -103.31 63.9495 
-123.105 -104.346 63.6917 -122.859 -105.019 63.4704 -122.256 -105.308 63.3753 
-121.729 -99.3607 66.3489 -121.871 -99.8765 66.6881 -121.913 -100.504 67.0749 
-121.937 -101.197 67.5091 -121.977 -101.774 67.9927 -121.894 -102.23 68.5384 
-121.701 -102.555 69.015 -121.504 -102.736 69.3977 -121.265 -102.907 69.84 
-115.822 -92.2178 64.0962 -115.954 -92.5371 63.5767 -116.099 -92.9319 63.1564 
-116.397 -93.3708 62.6705 -116.83 -93.835 62.142 -117.245 -94.2835 61.7319 
-117.554 -94.8281 61.4139 -117.757 -95.5427 61.1309 -117.918 -96.2382 60.9067 
-115.858 -92.1086 65.3599 -116.257 -92.1146 65.8609 -116.737 -92.0829 66.318 
-117.077 -92.2 67.0418 -117.256 -92.5651 67.9846 -117.435 -93.0649 68.7785 
-117.65 -93.6021 69.3548 -117.825 -94.1389 69.875 -117.928 -94.6176 70.3879 
-115.264 -91.6766 64.2237 -114.822 -91.1481 63.7343 -114.294 -90.5326 63.2426 
-113.765 -90.1003 62.7592 -113.204 -89.9519 62.3724 -112.497 -89.9199 61.9782 
-111.81 -89.975 61.5036 -111.343 -90.2669 61.2279 -111.011 -90.7621 61.2924 
-115.194 -91.7399 65.0553 -114.676 -91.358 65.3432 -114.273 -90.6601 65.5115 
-114.192 -89.7698 65.7047 -114.223 -89.2004 66.1401 -113.835 -89.1589 66.7237 
-113.073 -89.406 67.1541 -112.5 -89.8153 67.3826 -112.286 -90.332 67.5809 
-115.67 -102.14 66.9025 -115.091 -101.612 66.8568 -114.694 -100.803 66.8039 
-114.158 -99.9349 66.6921 -113.287 -99.3252 66.5841 -112.459 -98.8464 66.5692 
-111.963 -98.1243 66.4752 -111.537 -97.2301 66.185 -110.972 -96.5174 65.9056 
-116.072 -102.544 66.4834 -115.711 -102.546 65.9412 -115.376 -102.45 65.2085 
-115.126 -102.192 64.3651 -115.042 -101.697 63.7282 -115.118 -101.036 63.3072 
-115.093 -100.445 62.751 -114.801 -100.045 62.0656 -114.435 -99.6943 61.5587 
-116.181 -102.205 67.4365 -115.945 -101.92 68.0434 -115.762 -101.562 68.6234 
-115.703 -100.974 69.0981 -115.693 -100.241 69.5462 -115.604 -99.61 69.9888 
-115.435 -99.047 70.3856 -115.237 -98.4292 70.7738 -115.04 -97.8278 71.1558 
-116.929 -102.888 66.6939 -117.385 -103.428 66.4171 -117.711 -104.104 66.0399 
-118.064 -104.712 65.5811 -118.669 -104.992 65.1028 -119.502 -105.085 64.6 
-120.231 -105.34 64.1306 -120.705 -105.632 63.7925 -121.117 -105.634 63.5639 
-116.976 -102.662 67.2145 -117.56 -102.876 67.4704 -118.134 -103.127 67.8203 
-118.642 -103.433 68.3161 -119.097 -103.678 68.78 -119.57 -103.745 69.1584 
-120.01 -103.733 69.5918 -120.373 -103.685 70.0082 -120.694 -103.479 70.2455 
-110.409 -96.3907 65.4491 -110.536 -96.7102 64.9748 -110.783 -96.9939 64.4098 
-111.211 -97.318 63.8288 -111.651 -97.8353 63.1906 -111.848 -98.5387 62.4334 
-112.08 -99.081 61.7891 -112.714 -99.2253 61.4943 -113.541 -99.1824 61.403 
-110.835 -95.9771 66.1702 -111.301 -96.0402 66.7195 -111.604 -96.2713 67.5223 
-111.795 -96.601 68.409 -112.195 -96.8538 69.1614 -112.864 -96.8833 69.7355 
-113.563 -96.7858 70.1646 -114.143 -96.82 70.54 -114.568 -97.0437 70.9814 
-109.893 -95.7922 65.5925 -109.593 -95.2858 65.1943 -109.454 -94.4715 64.5163 
-109.237 -93.7829 63.9005 -109.038 -93.3482 63.5058 -109.126 -92.711 62.9483 
-109.371 -91.9531 62.2478 -109.664 -91.5434 61.8239 -110.124 -91.4096 61.6519 
-110.175 -95.4815 66.0162 -110.027 -94.8234 66.2576 -109.901 -94.1322 66.4934 
-109.917 -93.406 66.7023 -110.146 -92.6461 66.8611 -110.436 -91.9706 67.003 
-110.806 -91.4745 67.2128 -111.341 -91.1586 67.456 -111.846 -90.9621 67.6527 
-117.914 -96.9928 60.4444 -117.575 -97.254 60.1255 -117.045 -97.5617 59.8626 
-116.416 -97.8014 59.7765 -115.726 -97.9195 59.7888 -115.042 -98.0863 59.8231 
-114.605 -98.394 60.0501 -114.46 -98.7208 60.5116 -114.375 -98.9909 60.9699 
-117.447 -96.3766 60.6649 -116.552 -95.9564 60.6585 -115.515 -95.6282 60.6469 
-114.597 -95.2929 60.6827 -113.77 -94.6268 60.742 -112.951 -93.6258 60.7023 
-112.314 -92.6713 60.7278 -111.819 -92.0021 60.9822 -111.26 -91.5743 61.2763 
-118.621 -97.2642 60.6816 -119.162 -97.9481 60.7528 -119.702 -98.9548 60.9506 
-120.276 -100.156 61.1809 -120.813 -101.354 61.3764 -121.178 -102.44 61.677 
-121.416 -103.298 62.2082 -121.596 -103.998 62.7745 -121.657 -104.707 63.1431 
-113.73 -98.5688 61.1306 -113.257 -97.9511 60.8579 -112.605 -97.6144 60.4751 
-111.906 -97.1785 60.2633 -111.526 -96.1373 60.4488 -111.37 -94.8995 60.8792 
-111.143 -93.9063 61.2708 -110.889 -92.9578 61.4824 -110.729 -92.0248 61.5191 
-114.83 -99.7617 61.2352 -115.446 -100.442 61.2077 -116.098 -101.25 61.2628 
-116.883 -102.05 61.4296 -117.763 -102.667 61.726 -118.614 -103.161 62.1284 
-119.451 -103.723 62.5677 -120.275 -104.351 62.9608 -120.987 -104.925 63.2272 
-117.796 -95.0364 71.3657 -117.705 -94.9885 71.9948 -117.614 -94.9884 72.5454 
-117.217 -95.2175 72.7744 -116.448 -95.6908 72.7486 -115.715 -96.1777 72.6821 
-115.304 -96.5345 72.5567 -115.1 -96.8265 72.2836 -114.963 -97.0941 71.8958 
-117.518 -94.4595 70.8592 -116.912 -93.9627 70.7477 -116.309 -93.3997 70.5778 
-115.727 -92.6612 70.4931 -115.022 -91.8664 70.4526 -114.275 -91.1775 70.2647 
-113.615 -90.7554 69.8342 -113.009 -90.6797 69.1981 -112.508 -90.7616 68.4845 
-118.212 -95.758 71.0419 -118.545 -96.565 71.2113 -119.103 -97.2895 71.4533 
-119.663 -98.0023 71.681 -120.025 -98.8509 71.7235 -120.378 -99.7815 71.6527 
-120.746 -100.77 71.564 -120.913 -101.741 71.314 -120.927 -102.506 70.8384 
-114.532 -96.5987 71.3894 -114.065 -95.7738 71.3049 -113.43 -94.9776 71.3072 
-112.818 -94.4439 71.2623 -112.458 -93.9656 70.9082 -112.299 -93.0992 70.3017 
-112.186 -92.0723 69.7029 -112.135 -91.4155 69.1375 -112.162 -91.0971 68.5014 
-115.28 -97.8354 71.7086 -115.896 -98.3653 71.7891 -116.659 -98.9948 71.816 
-117.284 -99.7947 71.9447 -117.817 -100.632 72.0262 -118.598 -101.394 71.9417 
-119.507 -102.087 71.8196 -120.18 -102.614 71.5851 -120.596 -102.906 71.0475 
-110.453 -90.7504 61.6526 -110.453 -90.2549 62.1036 -110.59 -89.8714 62.7446 
-110.676 -89.7344 63.4513 -110.667 -89.6983 64.3573 -110.773 -89.5484 65.3598 
-111.147 -89.5294 66.0606 -111.615 -89.8935 66.5222 -111.956 -90.4127 67.0977 
-121.839 -105.863 63.7353 -122.073 -106.268 64.4282 -122.294 -106.597 65.3739 
-122.45 -106.642 66.3473 -122.467 -106.339 67.3759 -122.36 -105.967 68.3888 
-122.124 -105.461 69.0186 -121.726 -104.613 69.2959 -121.276 -103.712 69.6681 
-121.195 -97.6379 65.2207 -121.073 -97.3941 64.5221 -120.788 -96.7212 65.0375 
-120.8 -97.2225 63.9183 -120.587 -96.5192 64.3576 -120.321 -95.9096 64.8184 
-120.395 -97.0385 63.3185 -120.28 -96.2962 63.699 -120.131 -95.5714 64.0595 
-119.818 -95.0066 64.5594 -120.082 -96.7381 62.6068 -119.85 -96.0678 63.0188 
-119.794 -95.2484 63.3701 -119.596 -94.5919 63.7832 -119.118 -94.2342 64.3841 
-119.773 -96.4237 61.9755 -119.406 -95.8651 62.4025 -119.211 -95.1399 62.7938 
-119.065 -94.4318 63.1912 -118.659 -94.0224 63.7374 -118.128 -93.8158 64.3564 
-119.165 -96.2741 61.5367 -118.895 -95.7016 61.9254 -118.621 -95.0887 62.3146 
-118.369 -94.463 62.6871 -117.977 -93.9788 63.1751 -117.492 -93.67 63.7619 
-117.11 -93.3747 64.3315 -118.457 -96.2525 61.1884 -118.295 -95.5921 61.5028 
-118.088 -94.9478 61.8521 -117.799 -94.3968 62.1878 -117.375 -93.9076 62.6208 
-116.899 -93.4988 63.1629 -116.558 -93.1357 63.6871 -116.348 -92.7681 64.2201 
-121.875 -99.2503 65.0757 -122.294 -99.8195 64.7683 -121.737 -99.103 64.3484 
-122.773 -100.356 64.3993 -122.071 -99.7911 64.119 -121.424 -98.9428 63.8288 
-123.064 -101.061 63.848 -122.464 -100.392 63.7336 -121.579 -99.7313 63.6348 
-120.927 -98.7522 63.3323 -123.057 -102.056 63.4011 -122.698 -101.03 63.2111 
-121.838 -100.349 63.2162 -121.029 -99.5318 62.9841 -120.667 -98.379 62.5567 
-122.935 -103.212 63.272 -122.618 -101.927 62.9911 -122.016 -100.9 62.8258 
-121.286 -100.124 62.5124 -120.84 -99.0959 62.0795 -120.567 -97.8778 61.7598 
-122.703 -104.152 63.2202 -122.345 -102.999 62.9832 -121.907 -101.741 62.6724 
-121.433 -100.715 62.2039 -120.99 -99.7593 61.7039 -120.587 -98.5885 61.4026 
-120.044 -97.5178 61.2857 -122.252 -104.61 63.1499 -122.012 -103.753 62.8747 
-121.666 -102.713 62.4613 -121.337 -101.586 61.9749 -120.955 -100.503 61.5326 
-120.467 -99.3521 61.2326 -119.892 -98.2006 61.0717 -119.244 -97.3551 60.9878 
-121.016 -104.16 62.8965 -120.24 -103.627 62.4703 -120.994 -103.537 62.2654 
-119.283 -103.242 61.9538 -120.209 -103.183 61.7214 -120.903 -102.991 61.5508 
-118.292 -102.821 61.4674 -119.163 -102.793 61.2862 -120.105 -102.559 61.1581 
-120.621 -102.093 61.1952 -117.438 -102.092 61.1252 -118.135 -102.037 60.9339 
-119.013 -101.794 60.9142 -119.708 -101.404 60.9892 -120.049 -100.848 61.0966 
-116.642 -101.185 60.9779 -117.254 -101.035 60.7677 -117.928 -100.799 60.7213 
-118.603 -100.513 60.7558 -119.096 -100.13 60.7753 -119.421 -99.5757 60.8386 
-115.791 -100.374 60.9245 -116.262 -100.168 60.7311 -116.806 -99.8891 60.6802 
-117.432 -99.6633 60.6377 -118.078 -99.4323 60.4499 -118.601 -99.0089 60.3383 
[...]
POINT_DATA 1002
FIELD FieldData 2
Theta 1 1002 float
2.58802 2.58802 0.553574 0.553574 2.12437 1.01722 2.12437 1.01722 1.5708 
1.5708 1.5708 1.5708 2.68241 2.78649 2.89924 3.01861 3.14159 3.01861 
2.89924 2.78649 2.68241 2.61035 2.61791 2.60515 2.56958 2.51327 2.44184 
2.36202 2.27983 2.1997 2.61035 2.61791 2.60515 2.56958 2.51327 2.44184 
2.36202 2.27983 2.1997 2.50947 2.41899 2.31794 2.20864 2.0944 1.97902 
1.86631 1.75944 1.66056 2.50947 2.41899 2.31794 2.20864 2.0944 1.97902 
1.86631 1.75944 1.66056 2.61035 2.61791 2.60515 2.56958 2.51327 2.44184 
2.36202 2.27983 2.1997 2.61035 2.61791 2.60515 2.56958 2.51327 2.44184 
2.36202 2.27983 2.1997 2.50947 2.41899 2.31794 2.20864 2.0944 1.97902 
1.86631 1.75944 1.66056 2.50947 2.41899 2.31794 2.20864 2.0944 1.97902 
1.86631 1.75944 1.66056 0.459179 0.355101 0.242354 0.122983 0 0.122983 
0.242354 0.355101 0.459179 0.531246 0.523681 0.536438 0.57201 0.628319 0.699757 
0.779574 0.86176 0.941896 0.531246 0.523681 0.536438 0.57201 0.628319 0.699757 
0.779574 0.86176 0.941896 0.632123 0.7226 0.823657 0.932948 1.0472 1.16257 
1.27528 1.38216 1.48103 0.632123 0.7226 0.823657 0.932948 1.0472 1.16257 
1.27528 1.38216 1.48103 0.531246 0.523681 0.536438 0.57201 0.628319 0.699757 
0.779574 0.86176 0.941896 0.531246 0.523681 0.536438 0.57201 0.628319 0.699757 
0.779574 0.86176 0.941896 0.632123 0.7226 0.823657 0.932948 1.0472 1.16257 
1.27528 1.38216 1.48103 0.632123 0.7226 0.823657 0.932948 1.0472 1.16257 
1.27528 1.38216 1.48103 2.02998 1.9259 1.81315 1.69378 1.5708 1.44781 
1.32844 1.2157 1.11162 2.0928 2.05283 2.00422 1.94767 1.88496 1.81867 
1.75177 1.68695 1.62623 2.0928 2.05283 2.00422 1.94767 1.88496 1.81867 
1.75177 1.68695 1.62623 1.0488 1.08876 1.13737 1.19392 1.25664 1.32292 
1.38982 1.45464 1.51537 1.0488 1.08876 1.13737 1.19392 1.25664 1.32292 
1.38982 1.45464 1.51537 2.02998 1.9259 1.81315 1.69378 1.5708 1.44781 
1.32844 1.2157 1.11162 2.0928 2.05283 2.00422 1.94767 1.88496 1.81867 
1.75177 1.68695 1.62623 2.0928 2.05283 2.00422 1.94767 1.88496 1.81867 
1.75177 1.68695 1.62623 1.0488 1.08876 1.13737 1.19392 1.25664 1.32292 
1.38982 1.45464 1.51537 1.0488 1.08876 1.13737 1.19392 1.25664 1.32292 
1.38982 1.45464 1.51537 1.5708 1.5708 1.5708 1.5708 1.5708 1.5708 
1.5708 1.5708 1.5708 1.5708 1.5708 1.5708 1.5708 1.5708 1.5708 
1.5708 1.5708 1.5708 2.70908 2.71362 2.81592 2.68886 2.81002 2.92597 
2.6349 2.76254 2.89233 3.01997 2.55881 2.68262 2.80854 2.92834 3.01997 
2.47007 2.58462 2.70048 2.80854 2.89233 2.92597 2.37702 2.48017 2.58462 
2.68262 2.76254 2.81002 2.81592 2.28567 2.37702 2.47007 2.55881 2.6349 
2.68886 2.71362 2.70908 2.52097 2.4195 2.51718 2.30791 2.40503 2.49426 
2.18928 2.28408 2.3734 2.45144 2.06758 2.15805 2.24572 2.32523 2.39165 
1.94707 2.03138 2.11543 2.19453 2.26401 2.32035 1.83164 1.90847 1.98711 
2.06376 2.13422 2.1949 2.24359 1.72413 1.79288 1.86489 1.93728 2.00658 
2.06938 2.12312 2.16654 1.5708 1.50988 1.63171 1.44492 1.5708 1.69667 
1.37826 1.5059 1.63569 1.76333 1.31281 1.43962 1.5708 1.70197 1.82878 
1.25155 1.37501 1.50478 1.63681 1.76659 1.89004 1.19686 1.31493 1.44074 
1.5708 1.70086 1.82666 1.94473 1.15011 1.26149 1.38136 1.50697 1.63462 
1.76024 1.88011 1.99148 1.99148 1.88011 1.94473 1.76024 1.82666 1.89004 
1.63462 1.70086 1.76659 1.82878 1.50697 1.5708 1.63681 1.70197 1.76333 
1.38136 1.44074 1.50478 1.5708 1.63569 1.69667 1.26149 1.31493 1.37501 
1.43962 1.5059 1.5708 1.63171 1.15011 1.19686 1.25155 1.31281 1.37826 
1.44492 1.50988 1.5708 2.16654 2.12312 2.24359 2.06938 2.1949 2.32035 
2.00658 2.13422 2.26401 2.39165 1.93728 2.06376 2.19453 2.32523 2.45144 
1.86489 1.98711 2.11543 2.24572 2.3734 2.49426 1.79288 1.90847 2.03138 
2.15805 2.28408 2.40503 2.51718 1.72413 1.83164 1.94707 2.06758 2.18928 
2.30791 2.4195 2.52097 1.66533 1.66946 1.76911 1.67254 1.777 1.88041 
1.67418 1.78222 1.89102 1.99634 1.67418 1.78405 1.89674 2.00785 2.11299 
1.67254 1.78222 1.89674 2.01191 2.12307 2.22608 1.66946 1.777 1.89102 
2.00785 2.12307 2.23222 2.33166 1.66533 1.76911 1.88041 1.99634 2.11299 
2.22608 2.33166 2.42672 1.47626 1.37249 1.47213 1.26118 1.36459 1.46906 
1.14526 1.25058 1.35938 1.46741 1.0286 1.13374 1.24485 1.35755 1.46741 
0.915514 1.01852 1.12969 1.24485 1.35938 1.46906 0.809937 0.909371 1.01852 
1.13374 1.25058 1.36459 1.47213 0.714871 0.809937 0.915514 1.0286 1.14526 
1.26118 1.37249 1.47626 0.975055 0.898002 1.01847 0.821245 0.946693 1.07221 
0.749941 0.877585 1.00737 1.13501 0.690152 0.816367 0.94706 1.07784 1.20431 
0.647337 0.768195 0.895868 1.02616 1.15448 1.2767 0.624416 0.736561 0.857515 
0.983547 1.11021 1.23313 1.34871 0.620619 0.722093 0.833684 0.952313 1.07402 
1.19452 1.30996 1.41746 0.855925 0.764569 0.764569 0.671524 0.661425 0.671524 
0.582786 0.556971 0.556971 0.582786 0.506696 0.458968 0.441109 0.458968 0.506696 
0.45273 0.379052 0.333054 0.333054 0.379052 0.45273 0.427969 0.331576 0.249267 
0.21325 0.249267 0.331576 0.427969 0.432512 0.325669 0.215619 0.121622 0.121622 
0.215619 0.325669 0.432512 0.432512 0.427969 0.325669 0.45273 0.331576 0.215619 
0.506696 0.379052 0.249267 0.121622 0.582786 0.458968 0.333054 0.21325 0.121622 
0.671524 0.556971 0.441109 0.333054 0.249267 0.215619 0.764569 0.661425 0.556971 
0.458968 0.379052 0.331576 0.325669 0.855925 0.764569 0.671524 0.582786 0.506696 
0.45273 0.427969 0.432512 0.975055 1.01847 0.898002 1.07221 0.946693 0.821245 
1.13501 1.00737 0.877585 0.749941 1.20431 1.07784 0.94706 0.816367 0.690152 
1.2767 1.15448 1.02616 0.895868 0.768195 0.647337 1.34871 1.23313 1.11021 
0.983547 0.857515 0.736561 0.624416 1.41746 1.30996 1.19452 1.07402 0.952313 
0.833684 0.722093 0.620619 1.15011 1.26149 1.19686 1.38136 1.31493 1.25155 
1.50697 1.44074 1.37501 1.31281 1.63462 1.5708 1.50478 1.43962 1.37826 
1.76024 1.70086 1.63681 1.5708 1.5059 1.44492 1.88011 1.82666 1.76659 
1.70197 1.63569 1.5708 1.50988 1.99148 1.94473 1.89004 1.82878 1.76333 
1.69667 1.63171 1.5708 1.15011 1.19686 1.26149 1.25155 1.31493 1.38136 
1.31281 1.37501 1.44074 1.50697 1.37826 1.43962 1.50478 1.5708 1.63462 
1.44492 1.5059 1.5708 1.63681 1.70086 1.76024 1.50988 1.5708 1.63569 
1.70197 1.76659 1.82666 1.88011 1.5708 1.63171 1.69667 1.76333 1.82878 
1.89004 1.94473 1.99148 1.72413 1.83164 1.79288 1.94707 1.90847 1.86489 
2.06758 2.03138 1.98711 1.93728 2.18928 2.15805 2.11543 2.06376 2.00658 
2.30791 2.28408 2.24572 2.19453 2.13422 2.06938 2.4195 2.40503 2.3734 
2.32523 2.26401 2.1949 2.12312 2.52097 2.51718 2.49426 2.45144 2.39165 
2.32035 2.24359 2.16654 2.70908 2.81592 2.71362 2.92597 2.81002 2.68886 
3.01997 2.89233 2.76254 2.6349 3.01997 2.92834 2.80854 2.68262 2.55881 
2.92597 2.89233 2.80854 2.70048 2.58462 2.47007 2.81592 2.81002 2.76254 
2.68262 2.58462 2.48017 2.37702 2.70908 2.71362 2.68886 2.6349 2.55881 
2.47007 2.37702 2.28567 2.16654 2.24359 2.12312 2.32035 2.1949 2.06938 
2.39165 2.26401 2.13422 2.00658 2.45144 2.32523 2.19453 2.06376 1.93728 
2.49426 2.3734 2.24572 2.11543 1.98711 1.86489 2.51718 2.40503 2.28408 
2.15805 2.03138 1.90847 1.79288 2.52097 2.4195 2.30791 2.18928 2.06758 
1.94707 1.83164 1.72413 1.66533 1.76911 1.66946 1.88041 1.777 1.67254 
1.99634 1.89102 1.78222 1.67418 2.11299 2.00785 1.89674 1.78405 1.67418 
2.22608 2.12307 2.01191 1.89674 1.78222 1.67254 2.33166 2.23222 2.12307 
2.00785 1.89102 1.777 1.66946 2.42672 2.33166 2.22608 2.11299 1.99634 
1.88041 1.76911 1.66533 1.47626 1.47213 1.37249 1.46906 1.36459 1.26118 
1.46741 1.35938 1.25058 1.14526 1.46741 1.35755 1.24485 1.13374 1.0286 
1.46906 1.35938 1.24485 1.12969 1.01852 0.915514 1.47213 1.36459 1.25058 
1.13374 1.01852 0.909371 0.809937 1.47626 1.37249 1.26118 1.14526 1.0286 
0.915514 0.809937 0.714871 1.41746 1.30996 1.34871 1.19452 1.23313 1.2767 
1.07402 1.11021 1.15448 1.20431 0.952313 0.983547 1.02616 1.07784 1.13501 
0.833684 0.857515 0.895868 0.94706 1.00737 1.07221 0.722093 0.736561 0.768195 
0.816367 0.877585 0.946693 1.01847 0.620619 0.624416 0.647337 0.690152 0.749941 
0.821245 0.898002 0.975055 0.975055 0.898002 1.01847 0.821245 0.946693 1.07221 
0.749941 0.877585 1.00737 1.13501 0.690152 0.816367 0.94706 1.07784 1.20431 
0.647337 0.768195 0.895868 1.02616 1.15448 1.2767 0.624416 0.736561 0.857515 
0.983547 1.11021 1.23313 1.34871 0.620619 0.722093 0.833684 0.952313 1.07402 
1.19452 1.30996 1.41746 
Phi 1 1002 float
6.28319 3.14159 6.28319 3.14159 4.71239 4.71239 1.5708 1.5708 3.69517 
5.72961 2.58802 0.553574 6.28319 6.28319 6.28319 6.28319 3.14159 3.14159 
3.14159 3.14159 3.14159 6.1053 5.8988 5.67687 5.45995 5.26596 5.10322 
4.97131 4.86569 4.78095 0.177881 0.384387 0.606312 0.823235 1.01722 1.17997 
1.31187 1.4175 1.50223 6.18928 6.10703 6.03531 5.97283 5.91832 5.87061 
5.82869 5.79168 5.75886 0.0939024 0.176153 0.247873 0.310351 0.364864 0.412573 
0.454497 0.491504 0.524326 3.31947 3.52598 3.7479 3.96483 4.15881 4.32156 
4.45346 4.55909 4.64383 2.96371 2.75721 2.53528 2.31836 2.12437 1.96162 
1.82972 1.72409 1.63936 3.2355 3.31775 3.38947 3.45194 3.50646 3.55417 
3.59609 3.6331 3.66592 3.04769 2.96544 2.89372 2.83124 2.77673 2.72902 
2.6871 2.65009 2.61727 6.28319 6.28319 6.28319 6.28319 3.14159 3.14159 
3.14159 3.14159 3.14159 6.1053 5.8988 5.67687 5.45995 5.26596 5.10322 
4.97131 4.86569 4.78095 0.177881 0.384387 0.606312 0.823235 1.01722 1.17997 
1.31187 1.4175 1.50223 6.18928 6.10703 6.03531 5.97283 5.91832 5.87061 
5.82869 5.79168 5.75886 0.0939024 0.176153 0.247873 0.310351 0.364864 0.412573 
0.454497 0.491504 0.524326 3.31947 3.52598 3.7479 3.96483 4.15881 4.32156 
4.45346 4.55909 4.64383 2.96371 2.75721 2.53528 2.31836 2.12437 1.96162 
1.82972 1.72409 1.63936 3.2355 3.31775 3.38947 3.45194 3.50646 3.55417 
3.59609 3.6331 3.66592 3.04769 2.96544 2.89372 2.83124 2.77673 2.72902 
2.6871 2.65009 2.61727 4.71239 4.71239 4.71239 4.71239 4.71239 4.71239 
4.71239 4.71239 4.71239 4.60879 4.49914 4.3857 4.27128 4.15881 4.05096 
3.94976 3.85646 3.77161 4.81599 4.92564 5.03907 5.1535 5.26596 5.37381 
5.47502 5.56831 5.65317 4.60879 4.49914 4.3857 4.27128 4.15881 4.05096 
3.94976 3.85646 3.77161 4.81599 4.92564 5.03907 5.1535 5.26596 5.37381 
5.47502 5.56831 5.65317 1.5708 1.5708 1.5708 1.5708 1.5708 1.5708 
1.5708 1.5708 1.5708 1.6744 1.78405 1.89748 2.01191 2.12437 2.23222 
2.33343 2.42672 2.51157 1.4672 1.35755 1.24411 1.12969 1.01722 0.909371 
0.808166 0.714871 0.63002 1.6744 1.78405 1.89748 2.01191 2.12437 2.23222 
2.33343 2.42672 2.51157 1.4672 1.35755 1.24411 1.12969 1.01722 0.909371 
0.808166 0.714871 0.63002 3.60077 3.49669 3.38395 3.26458 3.14159 3.01861 
2.89924 2.78649 2.68241 5.82401 5.92808 6.04083 6.1602 6.28319 0.122983 
0.242354 0.355101 0.459179 6.05603 5.78856 5.97021 5.51259 5.60297 5.78856 
5.26596 5.26596 5.26596 5.26596 5.06749 5.0121 4.91556 4.71239 4.15881 
4.91556 4.83537 4.71239 4.50922 4.15881 3.63622 4.80045 4.71239 4.58941 
4.41268 4.15881 3.82181 3.45456 4.71239 4.62433 4.50922 4.35729 4.15881 
3.91219 3.63622 3.36875 6.01742 5.94343 5.82633 5.88092 5.76745 5.62798 
5.8278 5.71897 5.58911 5.43724 5.78235 5.67854 5.55757 5.41926 5.26596 
5.74316 5.64441 5.5315 5.40467 5.26596 5.11955 5.70914 5.61528 5.50962 
5.3926 5.26596 5.13292 4.99789 5.67937 5.59016 5.49102 5.38246 5.26596 
5.14407 5.02016 4.89798 5.56831 5.47502 5.47502 5.37381 5.37381 5.37381 
5.26596 5.26596 5.26596 5.26596 5.1535 5.1535 5.1535 5.1535 5.1535 
5.03907 5.03907 5.03907 5.03907 5.03907 5.03907 4.92564 4.92564 4.92564 
4.92564 4.92564 4.92564 4.92564 4.81599 4.81599 4.81599 4.81599 4.81599 
4.81599 4.81599 4.81599 4.60879 4.60879 4.49914 4.60879 4.49914 4.3857 
4.60879 4.49914 4.3857 4.27128 4.60879 4.49914 4.3857 4.27128 4.15881 
4.60879 4.49914 4.3857 4.27128 4.15881 4.05096 4.60879 4.49914 4.3857 
4.27128 4.15881 4.05096 3.94976 4.60879 4.49914 4.3857 4.27128 4.15881 
4.05096 3.94976 3.85646 4.5268 4.40462 4.42689 4.28071 4.29185 4.30523 
4.15881 4.15881 4.15881 4.15881 4.04232 4.03217 4.02011 4.00552 3.98753 
3.93376 3.91515 3.89328 3.86721 3.83566 3.7968 3.83461 3.8095 3.78037 
3.74624 3.70581 3.65733 3.59845 3.7454 3.71564 3.68161 3.64243 3.59698 
3.54386 3.48135 3.40735 3.56428 3.45246 3.52338 3.33203 3.40312 3.47739 
3.20576 3.27463 3.34802 3.42551 3.07742 3.14159 3.21128 3.28647 3.36688 
2.95116 3.00855 3.0719 3.14159 3.21784 3.3006 2.83072 2.88006 2.93517 
2.99672 3.06535 3.14159 3.22575 2.7189 2.7598 2.8058 2.85768 2.9163 
2.98259 3.05743 3.14159 3.56428 3.52338 3.45246 3.47739 3.40312 3.33203 
3.42551 3.34802 3.27463 3.20576 3.36688 3.28647 3.21128 3.14159 3.07742 
3.3006 3.21784 3.14159 3.0719 3.00855 2.95116 3.22575 3.14159 3.06535 
2.99672 2.93517 2.88006 2.83072 3.14159 3.05743 2.98259 2.9163 2.85768 
2.8058 2.7598 2.7189 4.5268 4.42689 4.40462 4.30523 4.29185 4.28071 
4.15881 4.15881 4.15881 4.15881 3.98753 4.00552 4.02011 4.03217 4.04232 
3.7968 3.83566 3.86721 3.89328 3.91515 3.93376 3.59845 3.65733 3.70581 
3.74624 3.78037 3.8095 3.83461 3.40735 3.48135 3.54386 3.59698 3.64243 
3.68161 3.71564 3.7454 4.71239 4.80045 4.62433 4.91556 4.71239 4.50922 
5.06749 4.83537 4.58941 4.35729 5.26596 5.0121 4.71239 4.41268 4.15881 
5.51259 5.26596 4.91556 4.50922 4.15881 3.91219 5.78856 5.60297 5.26596 
4.71239 4.15881 3.82181 3.63622 6.05603 5.97021 5.78856 5.26596 4.15881 
3.63622 3.45456 3.36875 0.227158 0.494626 0.312971 0.770593 0.680215 0.494626 
1.01722 1.01722 1.01722 1.01722 1.2157 1.27109 1.36763 1.5708 2.12437 
1.36763 1.44781 1.5708 1.77397 2.12437 2.64697 1.48273 1.5708 1.69378 
1.8705 2.12437 2.46138 2.82862 1.5708 1.65886 1.77397 1.9259 2.12437 
2.371 2.64697 2.91443 1.75639 1.87857 1.8563 2.00248 1.99133 1.97796 
2.12437 2.12437 2.12437 2.12437 2.24087 2.25101 2.26308 2.27767 2.29565 
2.34943 2.36803 2.38991 2.41597 2.44752 2.48639 2.44857 2.47368 2.50281 
2.53694 2.57738 2.62586 2.68474 2.53778 2.56754 2.60157 2.64076 2.68621 
2.73933 2.80184 2.87583 1.6744 1.6744 1.78405 1.6744 1.78405 1.89748 
1.6744 1.78405 1.89748 2.01191 1.6744 1.78405 1.89748 2.01191 2.12437 
1.6744 1.78405 1.89748 2.01191 2.12437 2.23222 1.6744 1.78405 1.89748 
2.01191 2.12437 2.23222 2.33343 1.6744 1.78405 1.89748 2.01191 2.12437 
2.23222 2.33343 2.42672 1.4672 1.35755 1.4672 1.24411 1.35755 1.4672 
1.12969 1.24411 1.35755 1.4672 1.01722 1.12969 1.24411 1.35755 1.4672 
0.909371 1.01722 1.12969 1.24411 1.35755 1.4672 0.808166 0.909371 1.01722 
1.12969 1.24411 1.35755 1.4672 0.714871 0.808166 0.909371 1.01722 1.12969 
1.24411 1.35755 1.4672 0.603812 0.57405 0.693022 0.540021 0.667908 0.792164 
0.500837 0.638778 0.773562 0.900726 0.455383 0.604649 0.751687 0.890581 1.01722 
0.402264 0.564217 0.725619 0.878514 1.01722 1.13912 0.339753 0.515737 0.694072 
0.863926 1.01722 1.15026 1.26302 0.265762 0.456853 0.655207 0.845941 1.01722 
1.16363 1.28529 1.38521 0.227158 0.312971 0.494626 0.494626 0.680215 0.770593 
1.01722 1.01722 1.01722 1.01722 2.12437 1.5708 1.36763 1.27109 1.2157 
2.64697 2.12437 1.77397 1.5708 1.44781 1.36763 2.82862 2.46138 2.12437 
1.8705 1.69378 1.5708 1.48273 2.91443 2.64697 2.371 2.12437 1.9259 
1.77397 1.65886 1.5708 1.75639 1.8563 1.87857 1.97796 1.99133 2.00248 
2.12437 2.12437 2.12437 2.12437 2.29565 2.27767 2.26308 2.25101 2.24087 
2.48639 2.44752 2.41597 2.38991 2.36803 2.34943 2.68474 2.62586 2.57738 
2.53694 2.50281 2.47368 2.44857 2.87583 2.80184 2.73933 2.68621 2.64076 
2.60157 2.56754 2.53778 5.86049 5.90139 5.97231 5.94739 6.02165 6.09275 
5.99927 6.07676 6.15015 6.21902 6.0579 6.13831 6.2135 0 0.0641696 
6.12418 6.20694 6.28319 0.069689 0.13304 0.190437 6.19903 0 0.0762451 
0.144876 0.206423 0.261531 0.310872 0 0.0841597 0.159004 0.225289 0.283913 
0.335793 0.381792 0.422692 5.86049 5.97231 5.90139 6.09275 6.02165 5.94739 
6.21902 6.15015 6.07676 5.99927 0.0641696 0 6.2135 6.13831 6.0579 
0.190437 0.13304 0.069689 6.28319 6.20694 6.12418 0.310872 0.261531 0.206423 
0.144876 0.0762451 6.28319 6.19903 0.422692 0.381792 0.335793 0.283913 0.225289 
0.159004 0.0841597 0 5.67937 5.70914 5.59016 5.74316 5.61528 5.49102 
5.78235 5.64441 5.50962 5.38246 5.8278 5.67854 5.5315 5.3926 5.26596 
5.88092 5.71897 5.55757 5.40467 5.26596 5.14407 5.94343 5.76745 5.58911 
5.41926 5.26596 5.13292 5.02016 6.01742 5.82633 5.62798 5.43724 5.26596 
5.11955 4.99789 4.89798 1.38521 1.28529 1.26302 1.16363 1.15026 1.13912 
1.01722 1.01722 1.01722 1.01722 0.845941 0.863926 0.878514 0.890581 0.900726 
0.655207 0.694072 0.725619 0.751687 0.773562 0.792164 0.456853 0.515737 0.564217 
0.604649 0.638778 0.667908 0.693022 0.265762 0.339753 0.402264 0.455383 0.500837 
0.540021 0.57405 0.603812 
