# vtk DataFile Version 4.0
vtk output
ASCII
DATASET POLYDATA
POINTS 1002 float
-117.817 -100.758 67.3049 -114.104 -93.2285 64.9467 -113.376 -102.76 67.2585 
-108.353 -96.5165 66.2413 -115.745 -98.6129 61.4003 -111.448 -99.9093 62.3085 
-114.865 -96.3135 71.4408 -112.033 -97.7431 71.0061 -110.086 -91.6134 62.6795 
-117.463 -107.092 64.425 -110.311 -90.9577 67.8473 -116.821 -105.212 71.7944 
-117.664 -99.9692 67.1565 -117.233 -99.3904 66.9132 -117.021 -98.4896 66.6667 
-117.039 -97.3052 66.4609 -116.452 -96.6997 66.2301 -115.398 -96.5196 65.988 
-114.88 -95.8168 65.763 -114.791 -94.7281 65.4885 -114.519 -93.8555 65.1822 
-117.881 -100.554 66.8019 -117.878 -100.28 66.2076 -117.847 -99.9713 65.4531 
-117.817 -99.6586 64.6353 -117.6 -99.3751 63.9381 -117.185 -99.1829 63.3289 
-116.838 -99.1206 62.6713 -116.563 -99.0858 62.0645 -116.197 -98.921 61.6569 
-117.723 -100.385 67.7476 -117.57 -100.109 68.2289 -117.357 -99.8036 68.7418 
-117.004 -99.4021 69.1888 -116.483 -99.0168 69.4944 -115.95 -98.6652 69.7493 
-115.543 -98.2175 70.0749 -115.25 -97.6336 70.4996 -115.034 -96.9714 70.9841 
-117.745 -101.807 67.0584 -117.745 -102.892 66.8341 -118.128 -103.547 66.6729 
-118.597 -104.131 66.3358 -118.625 -105.072 65.8952 -118.304 -105.856 65.8104 
-118.019 -106.291 65.8408 -117.864 -106.778 65.428 -117.721 -107.162 64.7935 
-117.732 -101.507 67.706 -117.728 -102.277 68.2041 -117.907 -102.905 68.7362 
-118.047 -103.359 69.1672 -117.915 -103.758 69.5444 -117.743 -104.172 70.0301 
-117.777 -104.57 70.5916 -117.755 -104.913 71.1202 -117.393 -105.148 71.551 
-114.28 -93.5124 64.5841 -114.492 -93.796 64.0693 -114.552 -94.2657 63.5863 
-114.475 -94.9767 63.2926 -114.559 -95.6767 62.9454 -114.846 -96.2344 62.4916 
-115.094 -96.814 62.1961 -115.321 -97.4688 61.9533 -115.589 -98.0866 61.6158 
-114.215 -93.3062 65.4412 -114.299 -93.5247 66.1468 -114.392 -93.8651 66.9792 
-114.562 -94.135 67.7368 -114.708 -94.3696 68.4444 -114.676 -94.7871 69.1968 
-114.613 -95.252 69.8567 -114.706 -95.5801 70.3958 -114.84 -95.9021 70.9385 
-113.764 -92.8583 64.6158 -113.353 -92.5047 64.2689 -112.898 -92.1499 63.7967 
-112.45 -91.769 63.3239 -111.958 -91.3272 62.8945 -111.379 -90.8623 62.2804 
-110.853 -90.5988 61.7055 -110.49 -90.7172 61.7179 -110.255 -91.1166 62.2259 
-113.906 -92.588 65.0435 -113.898 -91.8297 65.2934 -113.675 -91.32 65.7371 
-112.995 -91.2174 66.1552 -112.359 -91.0404 66.4414 -112.061 -90.5872 66.7932 
-111.699 -90.3418 67.2337 -111.127 -90.4812 67.5599 -110.621 -90.7306 67.7268 
-112.75 -102.37 67.1435 -112.108 -101.92 67.0585 -111.648 -101.201 67.021 
-111.219 -100.389 66.9298 -110.464 -99.8996 66.7655 -109.617 -99.5232 66.6854 
-109.142 -98.8257 66.6758 -108.918 -97.9564 66.5616 -108.655 -97.1859 66.3687 
-113.096 -102.769 66.8517 -112.742 -102.777 66.4187 -112.492 -102.608 65.9165 
-112.309 -102.317 65.3724 -111.994 -102.12 64.7213 -111.706 -101.881 64.0047 
-111.701 -101.332 63.5108 -111.775 -100.643 63.2222 -111.667 -100.153 62.8321 
-113.147 -102.608 67.6939 -112.766 -102.539 68.2768 -112.466 -102.284 68.8528 
-112.432 -101.695 69.2998 -112.441 -100.994 69.7163 -112.317 -100.335 70.0938 
-112.233 -99.6383 70.307 -112.205 -98.9353 70.4782 -112.121 -98.3078 70.7388 
-113.77 -103.28 67.0988 -114.08 -104 66.9081 -114.366 -104.702 66.663 
-114.691 -105.298 66.3156 -115.161 -105.876 65.8618 -115.801 -106.302 65.4967 
-116.367 -106.519 65.2994 -116.755 -106.769 65.032 -117.119 -107.05 64.6541 
-113.82 -103.089 67.6165 -114.235 -103.488 68.0222 -114.571 -103.988 68.4679 
-114.736 -104.599 68.9639 -114.931 -105.086 69.4592 -115.373 -105.243 69.8525 
-115.834 -105.222 70.2123 -116.133 -105.231 70.7162 -116.431 -105.266 71.317 
-108.406 -96.8389 65.824 -108.556 -97.1547 65.2693 -108.675 -97.5835 64.6422 
-108.795 -98.1157 64.1126 -109.055 -98.5883 63.734 -109.422 -98.9754 63.3753 
-109.861 -99.3021 62.9861 -110.406 -99.5155 62.6636 -110.964 -99.6798 62.4528 
-108.626 -96.576 66.6376 -108.945 -96.6805 67.1372 -109.078 -96.8791 67.8659 
-109.169 -97.0774 68.612 -109.66 -97.1024 69.0485 -110.378 -97.0556 69.3168 
-110.884 -97.1526 69.727 -111.282 -97.3506 70.2076 -111.708 -97.5421 70.6195 
-108.086 -96.0818 65.9033 -107.933 -95.5974 65.4187 -107.96 -94.9366 64.7452 
-108.097 -94.1419 64.0669 -108.243 -93.5172 63.6303 -108.537 -93.1107 63.4013 
-109.052 -92.6521 63.2332 -109.543 -92.1296 63.0874 -109.851 -91.7603 62.9197 
-108.237 -95.8212 66.4506 -108.23 -95.0089 66.6433 -108.346 -94.1915 66.6991 
-108.54 -93.357 66.7015 -108.673 -92.5552 66.8174 -108.798 -91.9693 67.0053 
-109.139 -91.5444 67.1921 -109.603 -91.2 67.3978 -109.975 -91.0207 67.6158 
-115.411 -98.7506 61.2605 -114.973 -99.007 61.1449 -114.51 -99.25 61.0162 
-113.97 -99.3322 60.9484 -113.296 -99.4044 60.9663 -112.673 -99.6494 61.0433 
-112.25 -99.9166 61.2312 -111.927 -100.017 61.5423 -111.645 -99.9783 61.9132 
-115.182 -97.8402 61.2583 -114.513 -96.9736 61.1198 -113.795 -96.2916 60.9445 
-113.084 -95.7287 60.9026 -112.388 -94.9958 61.064 -111.69 -94.2049 61.2446 
-111.074 -93.5452 61.5026 -110.636 -92.8677 61.9712 -110.337 -92.1567 62.4324 
-115.989 -99.2518 61.6466 -116.048 -99.8614 62.2104 -116.118 -100.695 62.6437 
-116.437 -101.652 62.64 -116.887 -102.409 62.6821 -117.166 -103.248 63.1198 
-117.288 -104.459 63.5816 -117.421 -105.645 63.8629 -117.516 -106.495 64.1175 
-110.955 -99.5532 61.8675 -110.58 -98.978 61.5914 -110.334 -98.0965 61.5049 
-110.018 -97.1587 61.3849 -109.595 -96.2237 61.1851 -109.326 -95.1364 61.094 
-109.401 -94.0916 61.34 -109.711 -93.2519 61.9793 -109.992 -92.439 62.5893 
-112.05 -100.379 62.4883 -112.714 -100.989 62.6526 -113.494 -101.583 62.8911 
-114.336 -102.189 63.1519 -114.981 -103.05 63.2423 -115.314 -104.085 63.2702 
-115.688 -104.964 63.4746 -116.36 -105.687 63.7798 -117.054 -106.412 64.0777 
-114.709 -96.2072 71.918 -114.484 -96.1211 72.2542 -114.157 -96.081 72.5241 
-113.636 -96.2028 72.8081 -113.025 -96.5003 72.8982 -112.631 -96.7804 72.6268 
-112.47 -96.9809 72.1984 -112.329 -97.2221 71.7992 -112.165 -97.5062 71.4052 
-114.693 -95.3916 71.5477 -114.412 -94.509 71.5858 -113.963 -93.8507 71.4694 
-113.367 -93.464 71.0484 -112.76 -93.0613 70.4526 -112.265 -92.381 69.9818 
-111.803 -91.6531 69.5877 -111.27 -91.2284 69.0603 -110.738 -91.0717 68.4309 
-114.936 -97.178 71.5458 -115.104 -98.0823 71.5159 -115.433 -99.0349 71.5825 
-115.752 -100.084 71.846 -115.997 -101.171 71.9575 -116.367 -102.246 71.9489 
-116.788 -103.323 72.2576 -116.967 -104.264 72.6031 -116.914 -104.884 72.4242 
-111.774 -97.0976 70.9734 -111.361 -96.4717 70.9576 -110.884 -95.7219 70.9933 
-110.595 -94.8698 70.8193 -110.499 -94.0953 70.2634 -110.371 -93.3561 69.7198 
-110.226 -92.575 69.3869 -110.211 -91.8764 68.9498 -110.278 -91.3417 68.3654 
-112.29 -98.4132 71.2579 -112.654 -99.2408 71.5019 -113.271 -100.02 71.6986 
-113.948 -100.766 71.7653 -114.481 -101.759 71.792 -114.964 -102.922 72.0624 
-115.424 -103.879 72.4735 -115.825 -104.537 72.5948 -116.282 -104.968 72.3095 
-109.843 -90.9631 62.4828 -109.519 -90.4942 62.3576 -109.296 -89.8854 62.9246 
-109.237 -88.9934 63.826 -109.302 -88.5548 64.1825 -109.44 -89.0492 64.4143 
-109.595 -89.8285 65.2918 -109.792 -90.3404 66.3936 -110.056 -90.6697 67.2106 
-117.453 -107.833 64.8754 -117.334 -108.521 65.4073 -117.342 -108.846 66.2527 
-117.545 -108.821 67.3696 -117.615 -108.634 68.3085 -117.433 -108.044 68.9472 
-117.299 -106.993 69.5346 -117.257 -106.036 70.1916 -117.096 -105.501 70.9633 
-117.663 -99.6954 66.6413 -117.591 -99.3975 66.0075 -117.19 -99.0373 66.3638 
-117.527 -99.1088 65.1711 -117.134 -98.651 65.7016 -117.012 -98.0619 66.0254 
-117.387 -98.8293 64.2743 -117.126 -98.259 64.7789 -117.009 -97.6339 65.2952 
-116.867 -97.0385 65.7306 -117.001 -98.6108 63.5877 -116.96 -97.9191 63.8122 
-116.959 -97.2595 64.3287 -116.664 -96.8063 64.9621 -116.014 -96.6301 65.5102 
-116.589 -98.5422 63.0551 -116.564 -97.7541 63.1997 -116.631 -97.0477 63.4766 
-116.33 -96.632 64.102 -115.657 -96.4402 64.7363 -115.091 -96.2342 65.2804 
-116.313 -98.5537 62.4864 -116.157 -97.7578 62.8065 -116.108 -97.0102 63.0239 
-115.798 -96.5574 63.4731 -115.274 -96.2048 63.9918 -114.925 -95.7679 64.4534 
-114.829 -95.2557 64.9889 -116 -98.4264 61.9716 -115.756 -97.7139 62.3695 
-115.58 -96.976 62.6484 -115.266 -96.4576 63.0267 -114.87 -95.9798 63.4653 
-114.727 -95.3256 63.7702 -114.759 -94.6854 64.176 -114.695 -94.2175 64.7286 
-117.782 -101.618 66.522 -117.704 -102.681 66.3116 -117.749 -101.283 65.8863 
-118.038 -103.381 66.0711 -117.595 -102.296 65.6807 -117.759 -100.837 65.1192 
-118.504 -104.087 65.5668 -117.897 -103.107 65.3313 -117.638 -101.758 64.8903 
-117.816 -100.354 64.3296 -118.482 -104.878 65.2255 -118.349 -103.882 64.7857 
-117.908 -102.614 64.4838 -117.757 -101.13 64.0101 -117.662 -99.9256 63.578 
-118.057 -105.376 65.3301 -118.247 -104.48 64.5977 -118.151 -103.336 64.1009 
-117.787 -101.922 63.677 -117.558 -100.557 63.1907 -117.296 -99.644 62.8477 
-117.762 -105.807 65.2098 -117.793 -104.873 64.6243 -117.873 -103.794 64.0111 
-117.616 -102.572 63.5466 -117.222 -101.298 63.1049 -117.052 -100.189 62.6486 
-116.9 -99.5199 62.2585 -117.683 -106.302 64.6276 -117.551 -105.31 64.3122 
-117.486 -104.129 63.8668 -117.314 -102.972 63.4011 -116.888 -101.971 63.0709 
-116.56 -100.926 62.8337 -116.519 -100.005 62.4101 -116.472 -99.4261 61.8987 
-117.057 -105.845 63.6929 -116.364 -105.011 63.4298 -116.997 -104.868 63.44 
-115.713 -104.156 63.1457 -116.39 -103.974 63.1074 -116.963 -103.622 63.0212 
-115.225 -103.279 62.8704 -115.714 -103.277 62.6616 -116.502 -103.031 62.3821 
-116.943 -102.716 62.2989 -114.702 -102.353 62.7346 -115.022 -102.595 62.3264 
-115.77 -102.67 61.8806 -116.578 -102.489 61.5746 -116.675 -102.143 61.9636 
-114.017 -101.56 62.5943 -114.352 -101.739 62.2127 -114.841 -102.003 61.8046 
-115.714 -102.048 61.3844 -116.236 -101.782 61.5164 -116.131 -101.291 62.2336 
-113.203 -100.968 62.3503 -113.633 -101.006 62.0275 -113.987 -101.12 61.7862 
-114.596 -101.173 61.5119 -115.303 -101.048 61.391 -115.596 -100.735 61.7818 
[...]
POINT_DATA 1002
FIELD FieldData 2
Theta 1 1002 float
2.58802 2.58802 0.553574 0.553574 2.12437 1.01722 2.12437 1.01722 1.5708 
1.5708 1.5708 1.5708 2.68241 2.78649 2.89924 3.01861 3.14159 3.01861 
2.89924 2.78649 2.68241 2.61035 2.61791 2.60515 2.56958 2.51327 2.44184 
2.36202 2.27983 2.1997 2.61035 2.61791 2.60515 2.56958 2.51327 2.44184 
2.36202 2.27983 2.1997 2.50947 2.41899 2.31794 2.20864 2.0944 1.97902 
1.86631 1.75944 1.66056 2.50947 2.41899 2.31794 2.20864 2.0944 1.97902 
1.86631 1.75944 1.66056 2.61035 2.61791 2.60515 2.56958 2.51327 2.44184 
2.36202 2.27983 2.1997 2.61035 2.61791 2.60515 2.56958 2.51327 2.44184 
2.36202 2.27983 2.1997 2.50947 2.41899 2.31794 2.20864 2.0944 1.97902 
1.86631 1.75944 1.66056 2.50947 2.41899 2.31794 2.20864 2.0944 1.97902 
1.86631 1.75944 1.66056 0.459179 0.355101 0.242354 0.122983 0 0.122983 
0.242354 0.355101 0.459179 0.531246 0.523681 0.536438 0.57201 0.628319 0.699757 
0.779574 0.86176 0.941896 0.531246 0.523681 0.536438 0.57201 0.628319 0.699757 
0.779574 0.86176 0.941896 0.632123 0.7226 0.823657 0.932948 1.0472 1.16257 
1.27528 1.38216 1.48103 0.632123 0.7226 0.823657 0.932948 1.0472 1.16257 
1.27528 1.38216 1.48103 0.531246 0.523681 0.536438 0.57201 0.628319 0.699757 
0.779574 0.86176 0.941896 0.531246 0.523681 0.536438 0.57201 0.628319 0.699757 
0.779574 0.86176 0.941896 0.632123 0.7226 0.823657 0.932948 1.0472 1.16257 
1.27528 1.38216 1.48103 0.632123 0.7226 0.823657 0.932948 1.0472 1.16257 
1.27528 1.38216 1.48103 2.02998 1.9259 1.81315 1.69378 1.5708 1.44781 
1.32844 1.2157 1.11162 2.0928 2.05283 2.00422 1.94767 1.88496 1.81867 
1.75177 1.68695 1.62623 2.0928 2.05283 2.00422 1.94767 1.88496 1.81867 
1.75177 1.68695 1.62623 1.0488 1.08876 1.13737 1.19392 1.25664 1.32292 
1.38982 1.45464 1.51537 1.0488 1.08876 1.13737 1.19392 1.25664 1.32292 
1.38982 1.45464 1.51537 2.02998 1.9259 1.81315 1.69378 1.5708 1.44781 
1.32844 1.2157 1.11162 2.0928 2.05283 2.00422 1.94767 1.88496 1.81867 
1.75177 1.68695 1.62623 2.0928 2.05283 2.00422 1.94767 1.88496 1.81867 
1.75177 1.68695 1.62623 1.0488 1.08876 1.13737 1.19392 1.25664 1.32292 
1.38982 1.45464 1.51537 1.0488 1.08876 1.13737 1.19392 1.25664 1.32292 
1.38982 1.45464 1.51537 1.5708 1.5708 1.5708 1.5708 1.5708 1.5708 
1.5708 1.5708 1.5708 1.5708 1.5708 1.5708 1.5708 1.5708 1.5708 
1.5708 1.5708 1.5708 2.70908 2.71362 2.81592 2.68886 2.81002 2.92597 
2.6349 2.76254 2.89233 3.01997 2.55881 2.68262 2.80854 2.92834 3.01997 
2.47007 2.58462 2.70048 2.80854 2.89233 2.92597 2.37702 2.48017 2.58462 
2.68262 2.76254 2.81002 2.81592 2.28567 2.37702 2.47007 2.55881 2.6349 
2.68886 2.71362 2.70908 2.52097 2.4195 2.51718 2.30791 2.40503 2.49426 
2.18928 2.28408 2.3734 2.45144 2.06758 2.15805 2.24572 2.32523 2.39165 
1.94707 2.03138 2.11543 2.19453 2.26401 2.32035 1.83164 1.90847 1.98711 
2.06376 2.13422 2.1949 2.24359 1.72413 1.79288 1.86489 1.93728 2.00658 
2.06938 2.12312 2.16654 1.5708 1.50988 1.63171 1.44492 1.5708 1.69667 
1.37826 1.5059 1.63569 1.76333 1.31281 1.43962 1.5708 1.70197 1.82878 
1.25155 1.37501 1.50478 1.63681 1.76659 1.89004 1.19686 1.31493 1.44074 
1.5708 1.70086 1.82666 1.94473 1.15011 1.26149 1.38136 1.50697 1.63462 
1.76024 1.88011 1.99148 1.99148 1.88011 1.94473 1.76024 1.82666 1.89004 
1.63462 1.70086 1.76659 1.82878 1.50697 1.5708 1.63681 1.70197 1.76333 
1.38136 1.44074 1.50478 1.5708 1.63569 1.69667 1.26149 1.31493 1.37501 
1.43962 1.5059 1.5708 1.63171 1.15011 1.19686 1.25155 1.31281 1.37826 
1.44492 1.50988 1.5708 2.16654 2.12312 2.24359 2.06938 2.1949 2.32035 
2.00658 2.13422 2.26401 2.39165 1.93728 2.06376 2.19453 2.32523 2.45144 
1.86489 1.98711 2.11543 2.24572 2.3734 2.49426 1.79288 1.90847 2.03138 
2.15805 2.28408 2.40503 2.51718 1.72413 1.83164 1.94707 2.06758 2.18928 
2.30791 2.4195 2.52097 1.66533 1.66946 1.76911 1.67254 1.777 1.88041 
1.67418 1.78222 1.89102 1.99634 1.67418 1.78405 1.89674 2.00785 2.11299 
1.67254 1.78222 1.89674 2.01191 2.12307 2.22608 1.66946 1.777 1.89102 
2.00785 2.12307 2.23222 2.33166 1.66533 1.76911 1.88041 1.99634 2.11299 
2.22608 2.33166 2.42672 1.47626 1.37249 1.47213 1.26118 1.36459 1.46906 
1.14526 1.25058 1.35938 1.46741 1.0286 1.13374 1.24485 1.35755 1.46741 
0.915514 1.01852 1.12969 1.24485 1.35938 1.46906 0.809937 0.909371 1.01852 
1.13374 1.25058 1.36459 1.47213 0.714871 0.809937 0.915514 1.0286 1.14526 
1.26118 1.37249 1.47626 0.975055 0.898002 1.01847 0.821245 0.946693 1.07221 
0.749941 0.877585 1.00737 1.13501 0.690152 0.816367 0.94706 1.07784 1.20431 
0.647337 0.768195 0.895868 1.02616 1.15448 1.2767 0.624416 0.736561 0.857515 
0.983547 1.11021 1.23313 1.34871 0.620619 0.722093 0.833684 0.952313 1.07402 
1.19452 1.30996 1.41746 0.855925 0.764569 0.764569 0.671524 0.661425 0.671524 
0.582786 0.556971 0.556971 0.582786 0.506696 0.458968 0.441109 0.458968 0.506696 
0.45273 0.379052 0.333054 0.333054 0.379052 0.45273 0.427969 0.331576 0.249267 
0.21325 0.249267 0.331576 0.427969 0.432512 0.325669 0.215619 0.121622 0.121622 
0.215619 0.325669 0.432512 0.432512 0.427969 0.325669 0.45273 0.331576 0.215619 
0.506696 0.379052 0.249267 0.121622 0.582786 0.458968 0.333054 0.21325 0.121622 
0.671524 0.556971 0.441109 0.333054 0.249267 0.215619 0.764569 0.661425 0.556971 
0.458968 0.379052 0.331576 0.325669 0.855925 0.764569 0.671524 0.582786 0.506696 
0.45273 0.427969 0.432512 0.975055 1.01847 0.898002 1.07221 0.946693 0.821245 
1.13501 1.00737 0.877585 0.749941 1.20431 1.07784 0.94706 0.816367 0.690152 
1.2767 1.15448 1.02616 0.895868 0.768195 0.647337 1.34871 1.23313 1.11021 
0.983547 0.857515 0.736561 0.624416 1.41746 1.30996 1.19452 1.07402 0.952313 
0.833684 0.722093 0.620619 1.15011 1.26149 1.19686 1.38136 1.31493 1.25155 
1.50697 1.44074 1.37501 1.31281 1.63462 1.5708 1.50478 1.43962 1.37826 
1.76024 1.70086 1.63681 1.5708 1.5059 1.44492 1.88011 1.82666 1.76659 
1.70197 1.63569 1.5708 1.50988 1.99148 1.94473 1.89004 1.82878 1.76333 
1.69667 1.63171 1.5708 1.15011 1.19686 1.26149 1.25155 1.31493 1.38136 
1.31281 1.37501 1.44074 1.50697 1.37826 1.43962 1.50478 1.5708 1.63462 
1.44492 1.5059 1.5708 1.63681 1.70086 1.76024 1.50988 1.5708 1.63569 
1.70197 1.76659 1.82666 1.88011 1.5708 1.63171 1.69667 1.76333 1.82878 
1.89004 1.94473 1.99148 1.72413 1.83164 1.79288 1.94707 1.90847 1.86489 
2.06758 2.03138 1.98711 1.93728 2.18928 2.15805 2.11543 2.06376 2.00658 
2.30791 2.28408 2.24572 2.19453 2.13422 2.06938 2.4195 2.40503 2.3734 
2.32523 2.26401 2.1949 2.12312 2.52097 2.51718 2.49426 2.45144 2.39165 
2.32035 2.24359 2.16654 2.70908 2.81592 2.71362 2.92597 2.81002 2.68886 
3.01997 2.89233 2.76254 2.6349 3.01997 2.92834 2.80854 2.68262 2.55881 
2.92597 2.89233 2.80854 2.70048 2.58462 2.47007 2.81592 2.81002 2.76254 
2.68262 2.58462 2.48017 2.37702 2.70908 2.71362 2.68886 2.6349 2.55881 
2.47007 2.37702 2.28567 2.16654 2.24359 2.12312 2.32035 2.1949 2.06938 
2.39165 2.26401 2.13422 2.00658 2.45144 2.32523 2.19453 2.06376 1.93728 
2.49426 2.3734 2.24572 2.11543 1.98711 1.86489 2.51718 2.40503 2.28408 
2.15805 2.03138 1.90847 1.79288 2.52097 2.4195 2.30791 2.18928 2.06758 
1.94707 1.83164 1.72413 1.66533 1.76911 1.66946 1.88041 1.777 1.67254 
1.99634 1.89102 1.78222 1.67418 2.11299 2.00785 1.89674 1.78405 1.67418 
2.22608 2.12307 2.01191 1.89674 1.78222 1.67254 2.33166 2.23222 2.12307 
2.00785 1.89102 1.777 1.66946 2.42672 2.33166 2.22608 2.11299 1.99634 
1.88041 1.76911 1.66533 1.47626 1.47213 1.37249 1.46906 1.36459 1.26118 
1.46741 1.35938 1.25058 1.14526 1.46741 1.35755 1.24485 1.13374 1.0286 
1.46906 1.35938 1.24485 1.12969 1.01852 0.915514 1.47213 1.36459 1.25058 
1.13374 1.01852 0.909371 0.809937 1.47626 1.37249 1.26118 1.14526 1.0286 
0.915514 0.809937 0.714871 1.41746 1.30996 1.34871 1.19452 1.23313 1.2767 
1.07402 1.11021 1.15448 1.20431 0.952313 0.983547 1.02616 1.07784 1.13501 
0.833684 0.857515 0.895868 0.94706 1.00737 1.07221 0.722093 0.736561 0.768195 
0.816367 0.877585 0.946693 1.01847 0.620619 0.624416 0.647337 0.690152 0.749941 
0.821245 0.898002 0.975055 0.975055 0.898002 1.01847 0.821245 0.946693 1.07221 
0.749941 0.877585 1.00737 1.13501 0.690152 0.816367 0.94706 1.07784 1.20431 
0.647337 0.768195 0.895868 1.02616 1.15448 1.2767 0.624416 0.736561 0.857515 
0.983547 1.11021 1.23313 1.34871 0.620619 0.722093 0.833684 0.952313 1.07402 
1.19452 1.30996 1.41746 
Phi 1 1002 float
6.28319 3.14159 6.28319 3.14159 4.71239 4.71239 1.5708 1.5708 3.69517 
5.72961 2.58802 0.553574 6.28319 6.28319 6.28319 6.28319 3.14159 3.14159 
3.14159 3.14159 3.14159 6.1053 5.8988 5.67687 5.45995 5.26596 5.10322 
4.97131 4.86569 4.78095 0.177881 0.384387 0.606312 0.823235 1.01722 1.17997 
1.31187 1.4175 1.50223 6.18928 6.10703 6.03531 5.97283 5.91832 5.87061 
5.82869 5.79168 5.75886 0.0939024 0.176153 0.247873 0.310351 0.364864 0.412573 
0.454497 0.491504 0.524326 3.31947 3.52598 3.7479 3.96483 4.15881 4.32156 
4.45346 4.55909 4.64383 2.96371 2.75721 2.53528 2.31836 2.12437 1.96162 
1.82972 1.72409 1.63936 3.2355 3.31775 3.38947 3.45194 3.50646 3.55417 
3.59609 3.6331 3.66592 3.04769 2.96544 2.89372 2.83124 2.77673 2.72902 
2.6871 2.65009 2.61727 6.28319 6.28319 6.28319 6.28319 3.14159 3.14159 
3.14159 3.14159 3.14159 6.1053 5.8988 5.67687 5.45995 5.26596 5.10322 
4.97131 4.86569 4.78095 0.177881 0.384387 0.606312 0.823235 1.01722 1.17997 
1.31187 1.4175 1.50223 6.18928 6.10703 6.03531 5.97283 5.91832 5.87061 
5.82869 5.79168 5.75886 0.0939024 0.176153 0.247873 0.310351 0.364864 0.412573 
0.454497 0.491504 0.524326 3.31947 3.52598 3.7479 3.96483 4.15881 4.32156 
4.45346 4.55909 4.64383 2.96371 2.75721 2.53528 2.31836 2.12437 1.96162 
1.82972 1.72409 1.63936 3.2355 3.31775 3.38947 3.45194 3.50646 3.55417 
3.59609 3.6331 3.66592 3.04769 2.96544 2.89372 2.83124 2.77673 2.72902 
2.6871 2.65009 2.61727 4.71239 4.71239 4.71239 4.71239 4.71239 4.71239 
4.71239 4.71239 4.71239 4.60879 4.49914 4.3857 4.27128 4.15881 4.05096 
3.94976 3.85646 3.77161 4.81599 4.92564 5.03907 5.1535 5.26596 5.37381 
5.47502 5.56831 5.65317 4.60879 4.49914 4.3857 4.27128 4.15881 4.05096 
3.94976 3.85646 3.77161 4.81599 4.92564 5.03907 5.1535 5.26596 5.37381 
5.47502 5.56831 5.65317 1.5708 1.5708 1.5708 1.5708 1.5708 1.5708 
1.5708 1.5708 1.5708 1.6744 1.78405 1.89748 2.01191 2.12437 2.23222 
2.33343 2.42672 2.51157 1.4672 1.35755 1.24411 1.12969 1.01722 0.909371 
0.808166 0.714871 0.63002 1.6744 1.78405 1.89748 2.01191 2.12437 2.23222 
2.33343 2.42672 2.51157 1.4672 1.35755 1.24411 1.12969 1.01722 0.909371 
0.808166 0.714871 0.63002 3.60077 3.49669 3.38395 3.26458 3.14159 3.01861 
2.89924 2.78649 2.68241 5.82401 5.92808 6.04083 6.1602 6.28319 0.122983 
0.242354 0.355101 0.459179 6.05603 5.78856 5.97021 5.51259 5.60297 5.78856 
5.26596 5.26596 5.26596 5.26596 5.06749 5.0121 4.91556 4.71239 4.15881 
4.91556 4.83537 4.71239 4.50922 4.15881 3.63622 4.80045 4.71239 4.58941 
4.41268 4.15881 3.82181 3.45456 4.71239 4.62433 4.50922 4.35729 4.15881 
3.91219 3.63622 3.36875 6.01742 5.94343 5.82633 5.88092 5.76745 5.62798 
5.8278 5.71897 5.58911 5.43724 5.78235 5.67854 5.55757 5.41926 5.26596 
5.74316 5.64441 5.5315 5.40467 5.26596 5.11955 5.70914 5.61528 5.50962 
5.3926 5.26596 5.13292 4.99789 5.67937 5.59016 5.49102 5.38246 5.26596 
5.14407 5.02016 4.89798 5.56831 5.47502 5.47502 5.37381 5.37381 5.37381 
5.26596 5.26596 5.26596 5.26596 5.1535 5.1535 5.1535 5.1535 5.1535 
5.03907 5.03907 5.03907 5.03907 5.03907 5.03907 4.92564 4.92564 4.92564 
4.92564 4.92564 4.92564 4.92564 4.81599 4.81599 4.81599 4.81599 4.81599 
4.81599 4.81599 4.81599 4.60879 4.60879 4.49914 4.60879 4.49914 4.3857 
4.60879 4.49914 4.3857 4.27128 4.60879 4.49914 4.3857 4.27128 4.15881 
4.60879 4.49914 4.3857 4.27128 4.15881 4.05096 4.60879 4.49914 4.3857 
4.27128 4.15881 4.05096 3.94976 4.60879 4.49914 4.3857 4.27128 4.15881 
4.05096 3.94976 3.85646 4.5268 4.40462 4.42689 4.28071 4.29185 4.30523 
4.15881 4.15881 4.15881 4.15881 4.04232 4.03217 4.02011 4.00552 3.98753 
3.93376 3.91515 3.89328 3.86721 3.83566 3.7968 3.83461 3.8095 3.78037 
3.74624 3.70581 3.65733 3.59845 3.7454 3.71564 3.68161 3.64243 3.59698 
3.54386 3.48135 3.40735 3.56428 3.45246 3.52338 3.33203 3.40312 3.47739 
3.20576 3.27463 3.34802 3.42551 3.07742 3.14159 3.21128 3.28647 3.36688 
2.95116 3.00855 3.0719 3.14159 3.21784 3.3006 2.83072 2.88006 2.93517 
2.99672 3.06535 3.14159 3.22575 2.7189 2.7598 2.8058 2.85768 2.9163 
2.98259 3.05743 3.14159 3.56428 3.52338 3.45246 3.47739 3.40312 3.33203 
3.42551 3.34802 3.27463 3.20576 3.36688 3.28647 3.21128 3.14159 3.07742 
3.3006 3.21784 3.14159 3.0719 3.00855 2.95116 3.22575 3.14159 3.06535 
2.99672 2.93517 2.88006 2.83072 3.14159 3.05743 2.98259 2.9163 2.85768 
2.8058 2.7598 2.7189 4.5268 4.42689 4.40462 4.30523 4.29185 4.28071 
4.15881 4.15881 4.15881 4.15881 3.98753 4.00552 4.02011 4.03217 4.04232 
3.7968 3.83566 3.86721 3.89328 3.91515 3.93376 3.59845 3.65733 3.70581 
3.74624 3.78037 3.8095 3.83461 3.40735 3.48135 3.54386 3.59698 3.64243 
3.68161 3.71564 3.7454 4.71239 4.80045 4.62433 4.91556 4.71239 4.50922 
5.06749 4.83537 4.58941 4.35729 5.26596 5.0121 4.71239 4.41268 4.15881 
5.51259 5.26596 4.91556 4.50922 4.15881 3.91219 5.78856 5.60297 5.26596 
4.71239 4.15881 3.82181 3.63622 6.05603 5.97021 5.78856 5.26596 4.15881 
3.63622 3.45456 3.36875 0.227158 0.494626 0.312971 0.770593 0.680215 0.494626 
1.01722 1.01722 1.01722 1.01722 1.2157 1.27109 1.36763 1.5708 2.12437 
1.36763 1.44781 1.5708 1.77397 2.12437 2.64697 1.48273 1.5708 1.69378 
1.8705 2.12437 2.46138 2.82862 1.5708 1.65886 1.77397 1.9259 2.12437 
2.371 2.64697 2.91443 1.75639 1.87857 1.8563 2.00248 1.99133 1.97796 
2.12437 2.12437 2.12437 2.12437 2.24087 2.25101 2.26308 2.27767 2.29565 
2.34943 2.36803 2.38991 2.41597 2.44752 2.48639 2.44857 2.47368 2.50281 
2.53694 2.57738 2.62586 2.68474 2.53778 2.56754 2.60157 2.64076 2.68621 
2.73933 2.80184 2.87583 1.6744 1.6744 1.78405 1.6744 1.78405 1.89748 
1.6744 1.78405 1.89748 2.01191 1.6744 1.78405 1.89748 2.01191 2.12437 
1.6744 1.78405 1.89748 2.01191 2.12437 2.23222 1.6744 1.78405 1.89748 
2.01191 2.12437 2.23222 2.33343 1.6744 1.78405 1.89748 2.01191 2.12437 
2.23222 2.33343 2.42672 1.4672 1.35755 1.4672 1.24411 1.35755 1.4672 
1.12969 1.24411 1.35755 1.4672 1.01722 1.12969 1.24411 1.35755 1.4672 
0.909371 1.01722 1.12969 1.24411 1.35755 1.4672 0.808166 0.909371 1.01722 
1.12969 1.24411 1.35755 1.4672 0.714871 0.808166 0.909371 1.01722 1.12969 
1.24411 1.35755 1.4672 0.603812 0.57405 0.693022 0.540021 0.667908 0.792164 
0.500837 0.638778 0.773562 0.900726 0.455383 0.604649 0.751687 0.890581 1.01722 
0.402264 0.564217 0.725619 0.878514 1.01722 1.13912 0.339753 0.515737 0.694072 
0.863926 1.01722 1.15026 1.26302 0.265762 0.456853 0.655207 0.845941 1.01722 
1.16363 1.28529 1.38521 0.227158 0.312971 0.494626 0.494626 0.680215 0.770593 
1.01722 1.01722 1.01722 1.01722 2.12437 1.5708 1.36763 1.27109 1.2157 
2.64697 2.12437 1.77397 1.5708 1.44781 1.36763 2.82862 2.46138 2.12437 
1.8705 1.69378 1.5708 1.48273 2.91443 2.64697 2.371 2.12437 1.9259 
1.77397 1.65886 1.5708 1.75639 1.8563 1.87857 1.97796 1.99133 2.00248 
2.12437 2.12437 2.12437 2.12437 2.29565 2.27767 2.26308 2.25101 2.24087 
2.48639 2.44752 2.41597 2.38991 2.36803 2.34943 2.68474 2.62586 2.57738 
2.53694 2.50281 2.47368 2.44857 2.87583 2.80184 2.73933 2.68621 2.64076 
2.60157 2.56754 2.53778 5.86049 5.90139 5.97231 5.94739 6.02165 6.09275 
5.99927 6.07676 6.15015 6.21902 6.0579 6.13831 6.2135 0 0.0641696 
6.12418 6.20694 6.28319 0.069689 0.13304 0.190437 6.19903 0 0.0762451 
0.144876 0.206423 0.261531 0.310872 0 0.0841597 0.159004 0.225289 0.283913 
0.335793 0.381792 0.422692 5.86049 5.97231 5.90139 6.09275 6.02165 5.94739 
6.21902 6.15015 6.07676 5.99927 0.0641696 0 6.2135 6.13831 6.0579 
0.190437 0.13304 0.069689 6.28319 6.20694 6.12418 0.310872 0.261531 0.206423 
0.144876 0.0762451 6.28319 6.19903 0.422692 0.381792 0.335793 0.283913 0.225289 
0.159004 0.0841597 0 5.67937 5.70914 5.59016 5.74316 5.61528 5.49102 
5.78235 5.64441 5.50962 5.38246 5.8278 5.67854 5.5315 5.3926 5.26596 
5.88092 5.71897 5.55757 5.40467 5.26596 5.14407 5.94343 5.76745 5.58911 
5.41926 5.26596 5.13292 5.02016 6.01742 5.82633 5.62798 5.43724 5.26596 
5.11955 4.99789 4.89798 1.38521 1.28529 1.26302 1.16363 1.15026 1.13912 
1.01722 1.01722 1.01722 1.01722 0.845941 0.863926 0.878514 0.890581 0.900726 
0.655207 0.694072 0.725619 0.751687 0.773562 0.792164 0.456853 0.515737 0.564217 
0.604649 0.638778 0.667908 0.693022 0.265762 0.339753 0.402264 0.455383 0.500837 
0.540021 0.57405 0.603812 
