# vtk DataFile Version 4.0
vtk output
ASCII
DATASET POLYDATA
POINTS 1002 float
-118.884 -98.6032 66.0638 -113.711 -90.9986 65.2161 -113.613 -102.055 66.5717 
-108.046 -95.347 65.9943 -115.658 -95.2801 61.1164 -111.519 -98.4174 61.481 
-115.114 -95.3049 70.8779 -111.996 -97.5183 71.4985 -108.335 -89.5484 61.7994 
-119.39 -104.08 62.7835 -109.139 -90.4344 69.1938 -118.646 -103.189 69.6713 
-118.354 -97.9375 66.0004 -118.029 -96.906 66.0128 -117.9 -95.7121 65.9834 
-117.639 -94.6814 65.8608 -116.965 -93.9518 65.7736 -116.19 -93.3032 65.7417 
-115.683 -92.5198 65.6292 -115.196 -91.776 65.451 -114.479 -91.2901 65.3114 
-118.547 -98.6499 65.5386 -118.328 -98.4634 65.0746 -118.312 -98.0021 64.4663 
-118.225 -97.5151 63.7036 -117.87 -97.1389 63.1181 -117.407 -96.8151 62.711 
-116.959 -96.5385 62.2435 -116.502 -96.2269 61.7957 -116.057 -95.7731 61.4534 
-118.764 -98.1908 66.5866 -118.483 -97.7877 67.0713 -118.164 -97.4036 67.5524 
-117.947 -96.9779 68.2145 -117.619 -96.6237 68.8807 -116.975 -96.4276 69.2446 
-116.316 -96.2036 69.5372 -115.899 -95.8779 70.0099 -115.549 -95.5718 70.5045 
-119.288 -99.0662 65.8177 -119.616 -99.5175 65.5103 -119.823 -100.205 65.0816 
-120.043 -101.058 64.6281 -120.172 -101.851 64.3075 -120.039 -102.66 64.0385 
-119.97 -103.405 63.6379 -120.104 -103.806 63.1749 -119.984 -103.954 62.8668 
-119.413 -98.8473 66.5636 -119.746 -99.2466 67.1071 -119.764 -99.9639 67.4245 
-119.621 -100.863 67.5241 -119.547 -101.623 67.8657 -119.651 -102.093 68.6221 
-119.862 -102.411 69.3045 -119.854 -102.75 69.5702 -119.389 -103.062 69.6123 
-114.067 -90.9336 64.6915 -114.549 -90.8058 64.0964 -114.83 -90.9896 63.6334 
-114.742 -91.6956 63.3275 -114.663 -92.448 62.9254 -114.916 -92.9462 62.4529 
-115.266 -93.5629 62.0866 -115.49 -94.309 61.7216 -115.619 -94.8535 61.3368 
-113.999 -91.1083 65.7938 -114.393 -91.2119 66.5322 -114.693 -91.4377 67.3448 
-114.779 -91.8645 67.9955 -114.713 -92.4951 68.4897 -114.693 -93.1839 69.0308 
-114.811 -93.7771 69.5657 -114.953 -94.3139 69.9932 -115.037 -94.8425 70.4159 
-113.188 -90.7045 64.8382 -112.681 -90.2979 64.4241 -112.185 -89.6957 63.9862 
-111.869 -88.9089 63.5831 -111.65 -88.2792 63.1879 -111.116 -88.094 62.7858 
-110.245 -88.2215 62.4452 -109.372 -88.5256 62.1511 -108.71 -88.9986 61.8979 
-113.187 -90.7824 65.4353 -112.819 -90.4361 65.7238 -112.425 -90.0673 66.1927 
-111.876 -89.8001 66.6634 -111.398 -89.6349 66.9981 -111.048 -89.5718 67.4505 
-110.578 -89.6304 68.047 -109.992 -89.8085 68.5151 -109.493 -90.0966 68.8542 
-112.922 -101.711 66.5546 -112.363 -101.188 66.4912 -111.974 -100.261 66.3691 
-111.425 -99.3236 66.2196 -110.675 -98.7358 66.1112 -110.029 -98.0983 66.0751 
-109.427 -97.3035 66.0879 -108.797 -96.6786 66.096 -108.34 -96.0938 66.0572 
-113.293 -102.049 66.1532 -113.05 -101.904 65.5348 -112.797 -101.724 64.7407 
-112.496 -101.529 63.97 -112.266 -101.158 63.3911 -112.107 -100.625 62.8999 
-111.911 -100.126 62.3717 -111.714 -99.6377 61.9253 -111.588 -99.0475 61.6633 
-113.612 -101.66 66.9242 -113.665 -101.121 67.2834 -113.635 -100.596 67.6284 
-113.44 -100.167 68.129 -113.115 -99.8004 68.8985 -112.782 -99.4271 69.5958 
-112.562 -98.9707 70.0454 -112.41 -98.4611 70.5226 -112.213 -97.981 71.0754 
-114.091 -102.497 66.3325 -114.591 -102.995 65.9546 -115.14 -103.432 65.4147 
-115.812 -103.724 64.9222 -116.532 -103.983 64.5167 -117.104 -104.329 64.0021 
-117.504 -104.658 63.5436 -117.975 -104.733 63.3319 -118.668 -104.482 63.1309 
-114.253 -102.294 66.7637 -114.847 -102.63 66.9828 -115.385 -102.963 67.3404 
-115.896 -103.26 67.8209 -116.433 -103.54 68.2677 -117.008 -103.696 68.6101 
-117.48 -103.684 68.9101 -117.833 -103.598 69.1949 -118.225 -103.454 69.4483 
-108.18 -95.5473 65.377 -108.308 -95.8255 64.7376 -108.373 -96.2537 64.1315 
-108.467 -96.774 63.5555 -108.781 -97.1495 63.1 -109.405 -97.3114 62.7581 
-110.148 -97.4825 62.3509 -110.721 -97.7776 61.9339 -111.118 -98.1124 61.6642 
-108.149 -95.6631 66.6253 -108.379 -95.9445 67.2522 -108.785 -96.1049 67.8114 
-109.285 -96.1828 68.354 -109.757 -96.311 69.014 -110.287 -96.4291 69.673 
-110.975 -96.4488 70.0545 -111.582 -96.5897 70.3343 -111.872 -97.0111 70.8577 
-107.762 -94.6575 65.6145 -107.309 -94.112 65.2969 -106.816 -93.7601 64.8336 
-106.478 -93.2777 64.0843 -106.401 -92.4703 63.4703 -106.729 -91.6089 63.3159 
-107.378 -90.9246 63.174 -107.906 -90.3823 62.6951 -108.135 -89.9313 62.145 
-107.812 -94.707 66.2965 -107.621 -94.062 66.5438 -107.555 -93.464 66.7873 
-107.592 -92.8546 67.1087 -107.637 -92.2203 67.5078 -107.76 -91.658 67.9383 
-108.064 -91.2383 68.3695 -108.447 -90.9297 68.7554 -108.793 -90.6656 69.0344 
-115.367 -95.3965 60.815 -115.052 -95.7798 60.4297 -114.752 -96.2417 60.1118 
-114.269 -96.4499 60.1576 -113.446 -96.6007 60.3906 -112.671 -97.0841 60.395 
-112.308 -97.6626 60.388 -112.108 -98.0069 60.7165 -111.812 -98.2147 61.1707 
-115.218 -94.6339 60.8757 -114.537 -94.2116 60.8931 -113.666 -93.8277 61.1361 
-112.792 -93.28 61.3713 -111.964 -92.5585 61.534 -111.174 -91.5655 61.5916 
-110.353 -90.4537 61.4959 -109.456 -89.741 61.4134 -108.719 -89.5396 61.512 
-115.86 -96.2132 61.3489 -116.163 -97.447 61.6088 -116.736 -98.6291 61.5484 
-117.447 -99.5128 61.2955 -117.95 -100.447 61.3346 -118.29 -101.702 61.5267 
-118.791 -102.772 61.515 -119.334 -103.294 61.6145 -119.546 -103.619 62.1215 
-111.152 -97.6593 61.3434 -110.659 -97.0407 61.1074 -110.126 -96.4093 60.9453 
-109.68 -95.4267 60.9837 -109.285 -94.2096 61.1539 -108.96 -93.0852 61.443 
-108.746 -92.0119 61.7452 -108.536 -90.9761 61.8085 -108.35 -90.1495 61.7217 
-112.088 -99.083 61.4044 -112.904 -99.675 61.3751 -113.775 -100.309 61.4079 
-114.434 -101.209 61.3395 -115.13 -102.069 61.2442 -116.119 -102.552 61.4809 
-117.079 -102.987 61.9456 -117.875 -103.52 62.2599 -118.678 -103.882 62.4704 
-114.867 -95.376 71.327 -114.67 -95.3952 71.6984 -114.546 -95.4756 72.109 
-114.267 -95.7983 72.6008 -113.768 -96.2014 72.8057 -113.285 -96.4466 72.5332 
-112.829 -96.7236 72.2335 -112.349 -97.135 72.1455 -112.044 -97.4356 71.9585 
-114.606 -94.7015 70.9389 -114.052 -94.0725 70.9915 -113.339 -93.6075 70.9052 
-112.63 -93.1208 70.8048 -112.178 -92.3142 70.9257 -111.77 -91.448 70.9581 
-111.087 -90.8982 70.5764 -110.254 -90.6192 70.0694 -109.565 -90.4766 69.6554 
-115.586 -95.8516 71.1664 -116.201 -96.3847 71.4616 -116.719 -97.1244 71.5887 
-117.032 -98.1077 71.4792 -117.366 -99.0519 71.3236 -117.731 -99.9824 71.242 
-117.941 -101.079 71.0821 -118.128 -102.052 70.7013 -118.413 -102.683 70.1673 
-111.718 -96.6773 71.3935 -111.349 -95.7508 71.3231 -110.751 -94.9347 71.5297 
-110.098 -94.3796 71.733 -109.822 -93.9374 71.3789 -109.87 -93.24 70.7107 
-109.715 -92.2675 70.3636 -109.327 -91.3906 70.2128 -109.102 -90.8131 69.8239 
-112.393 -98.1969 71.7436 -113.118 -98.7348 71.7121 -113.96 -99.3215 71.65 
-114.706 -99.9696 71.6244 -115.558 -100.424 71.348 -116.422 -100.877 71.0338 
-116.888 -101.624 70.955 -117.189 -102.37 70.7098 -117.795 -102.852 70.1541 
-108.311 -89.2309 62.3013 -108.341 -88.8841 63.0193 -108.325 -88.6868 63.7927 
-108.274 -88.7393 64.6331 -108.231 -88.822 65.6097 -108.261 -88.9283 66.4407 
-108.5 -89.3046 66.9501 -108.843 -89.827 67.5111 -109.042 -90.2046 68.348 
-119.52 -104.631 63.4019 -119.612 -105.295 63.9739 -119.818 -105.768 64.6135 
-120.079 -105.86 65.5689 -120.101 -105.821 66.7926 -119.802 -105.884 67.9488 
-119.527 -105.677 68.7521 -119.425 -104.887 69.1288 -119.183 -103.898 69.3229 
-118.06 -97.8294 65.5015 -117.952 -97.4332 64.9771 -117.822 -96.6143 65.4694 
-117.991 -96.8572 64.2809 -117.732 -96.1574 64.8278 -117.704 -95.3527 65.3344 
-117.808 -96.4391 63.5812 -117.64 -95.7054 64.0944 -117.493 -94.9975 64.6158 
-117.32 -94.3926 65.1758 -117.297 -96.2296 63.1481 -117.273 -95.4455 63.4966 
-117.205 -94.6724 63.9117 -116.957 -94.1115 64.5094 -116.552 -93.7053 65.1356 
-116.745 -96.0267 62.7903 -116.712 -95.2591 63.1159 -116.723 -94.4212 63.3496 
-116.529 -93.7893 63.878 -116.14 -93.3613 64.5278 -115.82 -92.9633 65.0711 
-116.317 -95.7148 62.2936 -116.221 -94.9665 62.7179 -116.159 -94.1632 62.9341 
-115.968 -93.5412 63.3293 -115.696 -92.9827 63.9335 -115.471 -92.4719 64.4172 
-115.322 -92.0844 64.8795 -115.969 -95.2904 61.7709 -115.844 -94.6082 62.2083 
-115.664 -93.8372 62.5293 -115.377 -93.2891 62.8862 -115.177 -92.7261 63.4013 
-115.154 -91.9918 63.8235 -115.053 -91.4995 64.1965 -114.776 -91.3541 64.7267 
-118.949 -99.1171 65.28 -119.382 -99.5237 64.9309 -118.761 -98.9453 64.7472 
-119.796 -100.084 64.3842 -119.195 -99.4339 64.2558 -118.602 -98.6385 64.0075 
-120.052 -100.8 63.8089 -119.553 -100.023 63.6149 -118.76 -99.3657 63.542 
-118.252 -98.2913 63.2952 -119.933 -101.648 63.4489 -119.653 -100.734 63.094 
-118.887 -100.077 63.144 -118.223 -99.0988 63.0691 -117.885 -97.7916 62.7799 
-119.757 -102.526 63.1586 -119.5 -101.616 62.7974 -118.948 -100.815 62.7977 
-118.332 -99.862 62.8042 -118.003 -98.496 62.4741 -117.602 -97.2925 62.1973 
-119.912 -103.127 62.7041 -119.49 -102.452 62.4425 -118.935 -101.623 62.4338 
-118.442 -100.599 62.3552 -118.135 -99.3188 62.033 -117.764 -97.9964 61.7466 
-117.135 -96.9942 61.7036 -119.989 -103.423 62.2637 -119.581 -102.993 61.9395 
-118.929 -102.305 61.9726 -118.42 -101.21 61.9128 -118.099 -100.018 61.6037 
-117.672 -98.8863 61.4593 -117.053 -97.7546 61.5242 -116.466 -96.6842 61.5213 
-118.712 -103.504 61.8065 -117.787 -103.171 61.6239 -118.436 -103.135 61.3436 
-116.909 -102.665 61.326 -117.579 -102.682 61.1093 -118.047 -102.288 61.1852 
-115.935 -102.122 61.0121 -116.756 -102.102 60.7895 -117.386 -101.633 60.7871 
-117.75 -100.93 61.0631 -114.994 -101.314 60.9856 -115.723 -101.37 60.6784 
-116.5 -101.019 60.5282 -117.023 -100.319 60.7368 -117.244 -99.825 61.0885 
-114.191 -100.317 61.0694 -114.615 -100.33 60.8262 -115.261 -100.123 60.6667 
-115.946 -99.6699 60.6989 -116.253 -99.3309 61.0646 -116.397 -99.0931 61.4526 
-113.333 -99.5319 61.0541 -113.615 -99.3504 60.8541 -114.009 -98.9939 60.8546 
-114.736 -98.5775 60.8377 -115.31 -98.4358 60.9034 -115.483 -98.389 61.2764 
[...]
POINT_DATA 1002
FIELD FieldData 2
Theta 1 1002 float
2.58802 2.58802 0.553574 0.553574 2.12437 1.01722 2.12437 1.01722 1.5708 
1.5708 1.5708 1.5708 2.68241 2.78649 2.89924 3.01861 3.14159 3.01861 
2.89924 2.78649 2.68241 2.61035 2.61791 2.60515 2.56958 2.51327 2.44184 
2.36202 2.27983 2.1997 2.61035 2.61791 2.60515 2.56958 2.51327 2.44184 
2.36202 2.27983 2.1997 2.50947 2.41899 2.31794 2.20864 2.0944 1.97902 
1.86631 1.75944 1.66056 2.50947 2.41899 2.31794 2.20864 2.0944 1.97902 
1.86631 1.75944 1.66056 2.61035 2.61791 2.60515 2.56958 2.51327 2.44184 
2.36202 2.27983 2.1997 2.61035 2.61791 2.60515 2.56958 2.51327 2.44184 
2.36202 2.27983 2.1997 2.50947 2.41899 2.31794 2.20864 2.0944 1.97902 
1.86631 1.75944 1.66056 2.50947 2.41899 2.31794 2.20864 2.0944 1.97902 
1.86631 1.75944 1.66056 0.459179 0.355101 0.242354 0.122983 0 0.122983 
0.242354 0.355101 0.459179 0.531246 0.523681 0.536438 0.57201 0.628319 0.699757 
0.779574 0.86176 0.941896 0.531246 0.523681 0.536438 0.57201 0.628319 0.699757 
0.779574 0.86176 0.941896 0.632123 0.7226 0.823657 0.932948 1.0472 1.16257 
1.27528 1.38216 1.48103 0.632123 0.7226 0.823657 0.932948 1.0472 1.16257 
1.27528 1.38216 1.48103 0.531246 0.523681 0.536438 0.57201 0.628319 0.699757 
0.779574 0.86176 0.941896 0.531246 0.523681 0.536438 0.57201 0.628319 0.699757 
0.779574 0.86176 0.941896 0.632123 0.7226 0.823657 0.932948 1.0472 1.16257 
1.27528 1.38216 1.48103 0.632123 0.7226 0.823657 0.932948 1.0472 1.16257 
1.27528 1.38216 1.48103 2.02998 1.9259 1.81315 1.69378 1.5708 1.44781 
1.32844 1.2157 1.11162 2.0928 2.05283 2.00422 1.94767 1.88496 1.81867 
1.75177 1.68695 1.62623 2.0928 2.05283 2.00422 1.94767 1.88496 1.81867 
1.75177 1.68695 1.62623 1.0488 1.08876 1.13737 1.19392 1.25664 1.32292 
1.38982 1.45464 1.51537 1.0488 1.08876 1.13737 1.19392 1.25664 1.32292 
1.38982 1.45464 1.51537 2.02998 1.9259 1.81315 1.69378 1.5708 1.44781 
1.32844 1.2157 1.11162 2.0928 2.05283 2.00422 1.94767 1.88496 1.81867 
1.75177 1.68695 1.62623 2.0928 2.05283 2.00422 1.94767 1.88496 1.81867 
1.75177 1.68695 1.62623 1.0488 1.08876 1.13737 1.19392 1.25664 1.32292 
1.38982 1.45464 1.51537 1.0488 1.08876 1.13737 1.19392 1.25664 1.32292 
1.38982 1.45464 1.51537 1.5708 1.5708 1.5708 1.5708 1.5708 1.5708 
1.5708 1.5708 1.5708 1.5708 1.5708 1.5708 1.5708 1.5708 1.5708 
1.5708 1.5708 1.5708 2.70908 2.71362 2.81592 2.68886 2.81002 2.92597 
2.6349 2.76254 2.89233 3.01997 2.55881 2.68262 2.80854 2.92834 3.01997 
2.47007 2.58462 2.70048 2.80854 2.89233 2.92597 2.37702 2.48017 2.58462 
2.68262 2.76254 2.81002 2.81592 2.28567 2.37702 2.47007 2.55881 2.6349 
2.68886 2.71362 2.70908 2.52097 2.4195 2.51718 2.30791 2.40503 2.49426 
2.18928 2.28408 2.3734 2.45144 2.06758 2.15805 2.24572 2.32523 2.39165 
1.94707 2.03138 2.11543 2.19453 2.26401 2.32035 1.83164 1.90847 1.98711 
2.06376 2.13422 2.1949 2.24359 1.72413 1.79288 1.86489 1.93728 2.00658 
2.06938 2.12312 2.16654 1.5708 1.50988 1.63171 1.44492 1.5708 1.69667 
1.37826 1.5059 1.63569 1.76333 1.31281 1.43962 1.5708 1.70197 1.82878 
1.25155 1.37501 1.50478 1.63681 1.76659 1.89004 1.19686 1.31493 1.44074 
1.5708 1.70086 1.82666 1.94473 1.15011 1.26149 1.38136 1.50697 1.63462 
1.76024 1.88011 1.99148 1.99148 1.88011 1.94473 1.76024 1.82666 1.89004 
1.63462 1.70086 1.76659 1.82878 1.50697 1.5708 1.63681 1.70197 1.76333 
1.38136 1.44074 1.50478 1.5708 1.63569 1.69667 1.26149 1.31493 1.37501 
1.43962 1.5059 1.5708 1.63171 1.15011 1.19686 1.25155 1.31281 1.37826 
1.44492 1.50988 1.5708 2.16654 2.12312 2.24359 2.06938 2.1949 2.32035 
2.00658 2.13422 2.26401 2.39165 1.93728 2.06376 2.19453 2.32523 2.45144 
1.86489 1.98711 2.11543 2.24572 2.3734 2.49426 1.79288 1.90847 2.03138 
2.15805 2.28408 2.40503 2.51718 1.72413 1.83164 1.94707 2.06758 2.18928 
2.30791 2.4195 2.52097 1.66533 1.66946 1.76911 1.67254 1.777 1.88041 
1.67418 1.78222 1.89102 1.99634 1.67418 1.78405 1.89674 2.00785 2.11299 
1.67254 1.78222 1.89674 2.01191 2.12307 2.22608 1.66946 1.777 1.89102 
2.00785 2.12307 2.23222 2.33166 1.66533 1.76911 1.88041 1.99634 2.11299 
2.22608 2.33166 2.42672 1.47626 1.37249 1.47213 1.26118 1.36459 1.46906 
1.14526 1.25058 1.35938 1.46741 1.0286 1.13374 1.24485 1.35755 1.46741 
0.915514 1.01852 1.12969 1.24485 1.35938 1.46906 0.809937 0.909371 1.01852 
1.13374 1.25058 1.36459 1.47213 0.714871 0.809937 0.915514 1.0286 1.14526 
1.26118 1.37249 1.47626 0.975055 0.898002 1.01847 0.821245 0.946693 1.07221 
0.749941 0.877585 1.00737 1.13501 0.690152 0.816367 0.94706 1.07784 1.20431 
0.647337 0.768195 0.895868 1.02616 1.15448 1.2767 0.624416 0.736561 0.857515 
0.983547 1.11021 1.23313 1.34871 0.620619 0.722093 0.833684 0.952313 1.07402 
1.19452 1.30996 1.41746 0.855925 0.764569 0.764569 0.671524 0.661425 0.671524 
0.582786 0.556971 0.556971 0.582786 0.506696 0.458968 0.441109 0.458968 0.506696 
0.45273 0.379052 0.333054 0.333054 0.379052 0.45273 0.427969 0.331576 0.249267 
0.21325 0.249267 0.331576 0.427969 0.432512 0.325669 0.215619 0.121622 0.121622 
0.215619 0.325669 0.432512 0.432512 0.427969 0.325669 0.45273 0.331576 0.215619 
0.506696 0.379052 0.249267 0.121622 0.582786 0.458968 0.333054 0.21325 0.121622 
0.671524 0.556971 0.441109 0.333054 0.249267 0.215619 0.764569 0.661425 0.556971 
0.458968 0.379052 0.331576 0.325669 0.855925 0.764569 0.671524 0.582786 0.506696 
0.45273 0.427969 0.432512 0.975055 1.01847 0.898002 1.07221 0.946693 0.821245 
1.13501 1.00737 0.877585 0.749941 1.20431 1.07784 0.94706 0.816367 0.690152 
1.2767 1.15448 1.02616 0.895868 0.768195 0.647337 1.34871 1.23313 1.11021 
0.983547 0.857515 0.736561 0.624416 1.41746 1.30996 1.19452 1.07402 0.952313 
0.833684 0.722093 0.620619 1.15011 1.26149 1.19686 1.38136 1.31493 1.25155 
1.50697 1.44074 1.37501 1.31281 1.63462 1.5708 1.50478 1.43962 1.37826 
1.76024 1.70086 1.63681 1.5708 1.5059 1.44492 1.88011 1.82666 1.76659 
1.70197 1.63569 1.5708 1.50988 1.99148 1.94473 1.89004 1.82878 1.76333 
1.69667 1.63171 1.5708 1.15011 1.19686 1.26149 1.25155 1.31493 1.38136 
1.31281 1.37501 1.44074 1.50697 1.37826 1.43962 1.50478 1.5708 1.63462 
1.44492 1.5059 1.5708 1.63681 1.70086 1.76024 1.50988 1.5708 1.63569 
1.70197 1.76659 1.82666 1.88011 1.5708 1.63171 1.69667 1.76333 1.82878 
1.89004 1.94473 1.99148 1.72413 1.83164 1.79288 1.94707 1.90847 1.86489 
2.06758 2.03138 1.98711 1.93728 2.18928 2.15805 2.11543 2.06376 2.00658 
2.30791 2.28408 2.24572 2.19453 2.13422 2.06938 2.4195 2.40503 2.3734 
2.32523 2.26401 2.1949 2.12312 2.52097 2.51718 2.49426 2.45144 2.39165 
2.32035 2.24359 2.16654 2.70908 2.81592 2.71362 2.92597 2.81002 2.68886 
3.01997 2.89233 2.76254 2.6349 3.01997 2.92834 2.80854 2.68262 2.55881 
2.92597 2.89233 2.80854 2.70048 2.58462 2.47007 2.81592 2.81002 2.76254 
2.68262 2.58462 2.48017 2.37702 2.70908 2.71362 2.68886 2.6349 2.55881 
2.47007 2.37702 2.28567 2.16654 2.24359 2.12312 2.32035 2.1949 2.06938 
2.39165 2.26401 2.13422 2.00658 2.45144 2.32523 2.19453 2.06376 1.93728 
2.49426 2.3734 2.24572 2.11543 1.98711 1.86489 2.51718 2.40503 2.28408 
2.15805 2.03138 1.90847 1.79288 2.52097 2.4195 2.30791 2.18928 2.06758 
1.94707 1.83164 1.72413 1.66533 1.76911 1.66946 1.88041 1.777 1.67254 
1.99634 1.89102 1.78222 1.67418 2.11299 2.00785 1.89674 1.78405 1.67418 
2.22608 2.12307 2.01191 1.89674 1.78222 1.67254 2.33166 2.23222 2.12307 
2.00785 1.89102 1.777 1.66946 2.42672 2.33166 2.22608 2.11299 1.99634 
1.88041 1.76911 1.66533 1.47626 1.47213 1.37249 1.46906 1.36459 1.26118 
1.46741 1.35938 1.25058 1.14526 1.46741 1.35755 1.24485 1.13374 1.0286 
1.46906 1.35938 1.24485 1.12969 1.01852 0.915514 1.47213 1.36459 1.25058 
1.13374 1.01852 0.909371 0.809937 1.47626 1.37249 1.26118 1.14526 1.0286 
0.915514 0.809937 0.714871 1.41746 1.30996 1.34871 1.19452 1.23313 1.2767 
1.07402 1.11021 1.15448 1.20431 0.952313 0.983547 1.02616 1.07784 1.13501 
0.833684 0.857515 0.895868 0.94706 1.00737 1.07221 0.722093 0.736561 0.768195 
0.816367 0.877585 0.946693 1.01847 0.620619 0.624416 0.647337 0.690152 0.749941 
0.821245 0.898002 0.975055 0.975055 0.898002 1.01847 0.821245 0.946693 1.07221 
0.749941 0.877585 1.00737 1.13501 0.690152 0.816367 0.94706 1.07784 1.20431 
0.647337 0.768195 0.895868 1.02616 1.15448 1.2767 0.624416 0.736561 0.857515 
0.983547 1.11021 1.23313 1.34871 0.620619 0.722093 0.833684 0.952313 1.07402 
1.19452 1.30996 1.41746 
Phi 1 1002 float
6.28319 3.14159 6.28319 3.14159 4.71239 4.71239 1.5708 1.5708 3.69517 
5.72961 2.58802 0.553574 6.28319 6.28319 6.28319 6.28319 3.14159 3.14159 
3.14159 3.14159 3.14159 6.1053 5.8988 5.67687 5.45995 5.26596 5.10322 
4.97131 4.86569 4.78095 0.177881 0.384387 0.606312 0.823235 1.01722 1.17997 
1.31187 1.4175 1.50223 6.18928 6.10703 6.03531 5.97283 5.91832 5.87061 
5.82869 5.79168 5.75886 0.0939024 0.176153 0.247873 0.310351 0.364864 0.412573 
0.454497 0.491504 0.524326 3.31947 3.52598 3.7479 3.96483 4.15881 4.32156 
4.45346 4.55909 4.64383 2.96371 2.75721 2.53528 2.31836 2.12437 1.96162 
1.82972 1.72409 1.63936 3.2355 3.31775 3.38947 3.45194 3.50646 3.55417 
3.59609 3.6331 3.66592 3.04769 2.96544 2.89372 2.83124 2.77673 2.72902 
2.6871 2.65009 2.61727 6.28319 6.28319 6.28319 6.28319 3.14159 3.14159 
3.14159 3.14159 3.14159 6.1053 5.8988 5.67687 5.45995 5.26596 5.10322 
4.97131 4.86569 4.78095 0.177881 0.384387 0.606312 0.823235 1.01722 1.17997 
1.31187 1.4175 1.50223 6.18928 6.10703 6.03531 5.97283 5.91832 5.87061 
5.82869 5.79168 5.75886 0.0939024 0.176153 0.247873 0.310351 0.364864 0.412573 
0.454497 0.491504 0.524326 3.31947 3.52598 3.7479 3.96483 4.15881 4.32156 
4.45346 4.55909 4.64383 2.96371 2.75721 2.53528 2.31836 2.12437 1.96162 
1.82972 1.72409 1.63936 3.2355 3.31775 3.38947 3.45194 3.50646 3.55417 
3.59609 3.6331 3.66592 3.04769 2.96544 2.89372 2.83124 2.77673 2.72902 
2.6871 2.65009 2.61727 4.71239 4.71239 4.71239 4.71239 4.71239 4.71239 
4.71239 4.71239 4.71239 4.60879 4.49914 4.3857 4.27128 4.15881 4.05096 
3.94976 3.85646 3.77161 4.81599 4.92564 5.03907 5.1535 5.26596 5.37381 
5.47502 5.56831 5.65317 4.60879 4.49914 4.3857 4.27128 4.15881 4.05096 
3.94976 3.85646 3.77161 4.81599 4.92564 5.03907 5.1535 5.26596 5.37381 
5.47502 5.56831 5.65317 1.5708 1.5708 1.5708 1.5708 1.5708 1.5708 
1.5708 1.5708 1.5708 1.6744 1.78405 1.89748 2.01191 2.12437 2.23222 
2.33343 2.42672 2.51157 1.4672 1.35755 1.24411 1.12969 1.01722 0.909371 
0.808166 0.714871 0.63002 1.6744 1.78405 1.89748 2.01191 2.12437 2.23222 
2.33343 2.42672 2.51157 1.4672 1.35755 1.24411 1.12969 1.01722 0.909371 
0.808166 0.714871 0.63002 3.60077 3.49669 3.38395 3.26458 3.14159 3.01861 
2.89924 2.78649 2.68241 5.82401 5.92808 6.04083 6.1602 6.28319 0.122983 
0.242354 0.355101 0.459179 6.05603 5.78856 5.97021 5.51259 5.60297 5.78856 
5.26596 5.26596 5.26596 5.26596 5.06749 5.0121 4.91556 4.71239 4.15881 
4.91556 4.83537 4.71239 4.50922 4.15881 3.63622 4.80045 4.71239 4.58941 
4.41268 4.15881 3.82181 3.45456 4.71239 4.62433 4.50922 4.35729 4.15881 
3.91219 3.63622 3.36875 6.01742 5.94343 5.82633 5.88092 5.76745 5.62798 
5.8278 5.71897 5.58911 5.43724 5.78235 5.67854 5.55757 5.41926 5.26596 
5.74316 5.64441 5.5315 5.40467 5.26596 5.11955 5.70914 5.61528 5.50962 
5.3926 5.26596 5.13292 4.99789 5.67937 5.59016 5.49102 5.38246 5.26596 
5.14407 5.02016 4.89798 5.56831 5.47502 5.47502 5.37381 5.37381 5.37381 
5.26596 5.26596 5.26596 5.26596 5.1535 5.1535 5.1535 5.1535 5.1535 
5.03907 5.03907 5.03907 5.03907 5.03907 5.03907 4.92564 4.92564 4.92564 
4.92564 4.92564 4.92564 4.92564 4.81599 4.81599 4.81599 4.81599 4.81599 
4.81599 4.81599 4.81599 4.60879 4.60879 4.49914 4.60879 4.49914 4.3857 
4.60879 4.49914 4.3857 4.27128 4.60879 4.49914 4.3857 4.27128 4.15881 
4.60879 4.49914 4.3857 4.27128 4.15881 4.05096 4.60879 4.49914 4.3857 
4.27128 4.15881 4.05096 3.94976 4.60879 4.49914 4.3857 4.27128 4.15881 
4.05096 3.94976 3.85646 4.5268 4.40462 4.42689 4.28071 4.29185 4.30523 
4.15881 4.15881 4.15881 4.15881 4.04232 4.03217 4.02011 4.00552 3.98753 
3.93376 3.91515 3.89328 3.86721 3.83566 3.7968 3.83461 3.8095 3.78037 
3.74624 3.70581 3.65733 3.59845 3.7454 3.71564 3.68161 3.64243 3.59698 
3.54386 3.48135 3.40735 3.56428 3.45246 3.52338 3.33203 3.40312 3.47739 
3.20576 3.27463 3.34802 3.42551 3.07742 3.14159 3.21128 3.28647 3.36688 
2.95116 3.00855 3.0719 3.14159 3.21784 3.3006 2.83072 2.88006 2.93517 
2.99672 3.06535 3.14159 3.22575 2.7189 2.7598 2.8058 2.85768 2.9163 
2.98259 3.05743 3.14159 3.56428 3.52338 3.45246 3.47739 3.40312 3.33203 
3.42551 3.34802 3.27463 3.20576 3.36688 3.28647 3.21128 3.14159 3.07742 
3.3006 3.21784 3.14159 3.0719 3.00855 2.95116 3.22575 3.14159 3.06535 
2.99672 2.93517 2.88006 2.83072 3.14159 3.05743 2.98259 2.9163 2.85768 
2.8058 2.7598 2.7189 4.5268 4.42689 4.40462 4.30523 4.29185 4.28071 
4.15881 4.15881 4.15881 4.15881 3.98753 4.00552 4.02011 4.03217 4.04232 
3.7968 3.83566 3.86721 3.89328 3.91515 3.93376 3.59845 3.65733 3.70581 
3.74624 3.78037 3.8095 3.83461 3.40735 3.48135 3.54386 3.59698 3.64243 
3.68161 3.71564 3.7454 4.71239 4.80045 4.62433 4.91556 4.71239 4.50922 
5.06749 4.83537 4.58941 4.35729 5.26596 5.0121 4.71239 4.41268 4.15881 
5.51259 5.26596 4.91556 4.50922 4.15881 3.91219 5.78856 5.60297 5.26596 
4.71239 4.15881 3.82181 3.63622 6.05603 5.97021 5.78856 5.26596 4.15881 
3.63622 3.45456 3.36875 0.227158 0.494626 0.312971 0.770593 0.680215 0.494626 
1.01722 1.01722 1.01722 1.01722 1.2157 1.27109 1.36763 1.5708 2.12437 
1.36763 1.44781 1.5708 1.77397 2.12437 2.64697 1.48273 1.5708 1.69378 
1.8705 2.12437 2.46138 2.82862 1.5708 1.65886 1.77397 1.9259 2.12437 
2.371 2.64697 2.91443 1.75639 1.87857 1.8563 2.00248 1.99133 1.97796 
2.12437 2.12437 2.12437 2.12437 2.24087 2.25101 2.26308 2.27767 2.29565 
2.34943 2.36803 2.38991 2.41597 2.44752 2.48639 2.44857 2.47368 2.50281 
2.53694 2.57738 2.62586 2.68474 2.53778 2.56754 2.60157 2.64076 2.68621 
2.73933 2.80184 2.87583 1.6744 1.6744 1.78405 1.6744 1.78405 1.89748 
1.6744 1.78405 1.89748 2.01191 1.6744 1.78405 1.89748 2.01191 2.12437 
1.6744 1.78405 1.89748 2.01191 2.12437 2.23222 1.6744 1.78405 1.89748 
2.01191 2.12437 2.23222 2.33343 1.6744 1.78405 1.89748 2.01191 2.12437 
2.23222 2.33343 2.42672 1.4672 1.35755 1.4672 1.24411 1.35755 1.4672 
1.12969 1.24411 1.35755 1.4672 1.01722 1.12969 1.24411 1.35755 1.4672 
0.909371 1.01722 1.12969 1.24411 1.35755 1.4672 0.808166 0.909371 1.01722 
1.12969 1.24411 1.35755 1.4672 0.714871 0.808166 0.909371 1.01722 1.12969 
1.24411 1.35755 1.4672 0.603812 0.57405 0.693022 0.540021 0.667908 0.792164 
0.500837 0.638778 0.773562 0.900726 0.455383 0.604649 0.751687 0.890581 1.01722 
0.402264 0.564217 0.725619 0.878514 1.01722 1.13912 0.339753 0.515737 0.694072 
0.863926 1.01722 1.15026 1.26302 0.265762 0.456853 0.655207 0.845941 1.01722 
1.16363 1.28529 1.38521 0.227158 0.312971 0.494626 0.494626 0.680215 0.770593 
1.01722 1.01722 1.01722 1.01722 2.12437 1.5708 1.36763 1.27109 1.2157 
2.64697 2.12437 1.77397 1.5708 1.44781 1.36763 2.82862 2.46138 2.12437 
1.8705 1.69378 1.5708 1.48273 2.91443 2.64697 2.371 2.12437 1.9259 
1.77397 1.65886 1.5708 1.75639 1.8563 1.87857 1.97796 1.99133 2.00248 
2.12437 2.12437 2.12437 2.12437 2.29565 2.27767 2.26308 2.25101 2.24087 
2.48639 2.44752 2.41597 2.38991 2.36803 2.34943 2.68474 2.62586 2.57738 
2.53694 2.50281 2.47368 2.44857 2.87583 2.80184 2.73933 2.68621 2.64076 
2.60157 2.56754 2.53778 5.86049 5.90139 5.97231 5.94739 6.02165 6.09275 
5.99927 6.07676 6.15015 6.21902 6.0579 6.13831 6.2135 0 0.0641696 
6.12418 6.20694 6.28319 0.069689 0.13304 0.190437 6.19903 0 0.0762451 
0.144876 0.206423 0.261531 0.310872 0 0.0841597 0.159004 0.225289 0.283913 
0.335793 0.381792 0.422692 5.86049 5.97231 5.90139 6.09275 6.02165 5.94739 
6.21902 6.15015 6.07676 5.99927 0.0641696 0 6.2135 6.13831 6.0579 
0.190437 0.13304 0.069689 6.28319 6.20694 6.12418 0.310872 0.261531 0.206423 
0.144876 0.0762451 6.28319 6.19903 0.422692 0.381792 0.335793 0.283913 0.225289 
0.159004 0.0841597 0 5.67937 5.70914 5.59016 5.74316 5.61528 5.49102 
5.78235 5.64441 5.50962 5.38246 5.8278 5.67854 5.5315 5.3926 5.26596 
5.88092 5.71897 5.55757 5.40467 5.26596 5.14407 5.94343 5.76745 5.58911 
5.41926 5.26596 5.13292 5.02016 6.01742 5.82633 5.62798 5.43724 5.26596 
5.11955 4.99789 4.89798 1.38521 1.28529 1.26302 1.16363 1.15026 1.13912 
1.01722 1.01722 1.01722 1.01722 0.845941 0.863926 0.878514 0.890581 0.900726 
0.655207 0.694072 0.725619 0.751687 0.773562 0.792164 0.456853 0.515737 0.564217 
0.604649 0.638778 0.667908 0.693022 0.265762 0.339753 0.402264 0.455383 0.500837 
0.540021 0.57405 0.603812 
