# vtk DataFile Version 4.0
vtk output
ASCII
DATASET POLYDATA
POINTS 1002 float
-76.1782 -105.59 58.5647 -76.5178 -104.798 57.6679 -77.1142 -105.171 57.8812 
-76.7409 -105.991 58.8819 -77.7684 -105.478 58.3237 -75.6175 -106.61 59.6507 
-77.338 -106.4 59.4154 -78.451 -105.778 59.0569 -76.0907 -107.246 59.9531 
-75.004 -108.178 60.6887 -77.8225 -106.918 60.0826 -79.0384 -106.211 59.9266 
-76.5404 -108.021 60.3449 -75.4404 -109.121 60.9667 -74.6678 -110.071 61.7904 
-78.0071 -107.779 60.498 -79.3311 -106.902 60.5424 -76.8099 -108.978 60.6873 
-75.8567 -110.162 61.3252 -75.1657 -111.083 62.2645 -74.5457 -112.018 63.0188 
-77.8973 -109.06 60.4417 -79.227 -107.97 60.6032 -76.8786 -110.233 60.783 
-76.2006 -111.317 61.6775 -75.6677 -112.193 62.7734 -75.0634 -113.127 63.58 
-74.3444 -114.298 63.9819 -77.77 -110.505 60.2833 -78.9124 -109.398 60.296 
-76.9861 -111.586 60.8714 -76.5271 -112.598 62.0132 -76.1362 -113.536 63.1751 
-75.6003 -114.489 63.9894 -74.895 -115.617 64.4384 -74.1918 -116.72 64.7901 
-77.8889 -111.855 60.5118 -78.6826 -110.893 60.1549 -77.3709 -112.761 61.3386 
-76.9872 -113.755 62.5136 -76.5695 -114.921 63.5399 -76.0867 -116.028 64.2831 
-75.515 -117.005 64.8796 -74.8918 -117.897 65.4167 -74.3213 -118.577 65.9562 
-78.2493 -113.032 61.1645 -78.6868 -112.162 60.4668 -77.9671 -113.835 62.1154 
-77.6203 -114.797 63.175 -77.1098 -116.06 64.012 -76.5964 -117.298 64.6946 
-76.1441 -118.197 65.4675 -75.6678 -118.868 66.2332 -75.1605 -119.425 66.8592 
-74.6565 -119.835 67.3468 -78.7182 -114.043 61.9385 -78.9259 -113.186 61.079 
-78.5629 -114.883 62.8791 -78.2716 -115.872 63.8218 -77.7883 -117.063 64.592 
-77.297 -118.201 65.3045 -76.9029 -119.026 66.2155 -76.5018 -119.613 67.1439 
-76.0413 -120.129 67.8093 -75.5533 -120.578 68.2354 -75.0458 -120.917 68.5251 
-77.1425 -104.157 57.1115 -77.8166 -104.504 57.3893 -77.8857 -103.312 56.7374 
-78.6521 -103.532 57.1888 -78.771 -102.451 56.2965 -78.5409 -104.851 57.8634 
-79.6408 -102.506 56.9966 -79.5786 -101.928 55.4289 -79.4275 -103.998 57.6484 
-79.3457 -105.316 58.5996 -80.4999 -101.985 56.3398 -80.2133 -101.776 54.1938 
-80.4629 -103.086 57.5147 -80.2996 -104.778 58.2143 -80.1614 -105.793 59.6208 
-81.1498 -102.023 55.2414 -80.9179 -101.523 53.103 -81.4339 -102.605 57.0763 
-81.3232 -104.082 57.9087 -81.2135 -105.379 59.1835 -80.6725 -106.264 60.5612 
-81.7973 -102.039 54.189 -81.6972 -100.958 52.3483 -82.2832 -102.597 56.2633 
-82.3613 -103.538 57.4738 -82.117 -104.924 58.5933 -81.7995 -105.875 60.2225 
-80.6172 -107.198 60.7843 -82.3351 -101.885 53.3317 -82.2463 -100.589 51.6209 
-82.9143 -102.672 55.3356 -83.3031 -103.289 56.8236 -82.9973 -104.6 57.9364 
-82.5948 -105.888 59.4873 -81.7834 -106.943 60.5192 -80.1414 -108.711 60.3188 
-82.5632 -101.976 52.527 -82.4834 -100.861 50.8087 -83.0733 -102.805 54.4427 
-83.7537 -103.297 56.0251 -83.7826 -104.436 57.2947 -83.3063 -106.076 58.7952 
-82.6123 -107.219 59.9721 -81.241 -108.418 60.0632 -79.6082 -110.267 59.8989 
-82.5805 -102.442 51.8196 -82.5454 -101.603 50.1518 -82.8681 -103.164 53.6569 
-83.5764 -103.62 55.1902 -84.1067 -104.537 56.5265 -83.962 -106.196 58.1612 
-83.3024 -107.562 59.5503 -82.0962 -108.442 59.8019 -80.5033 -109.752 59.5662 
-79.3144 -111.537 59.9837 -82.553 -102.888 50.759 -82.5789 -103.577 52.5881 
-82.4927 -104.062 51.6445 -82.6614 -104.722 53.3302 -82.5156 -105.288 52.4614 
-83.021 -104.136 54.2165 -83.0256 -106.114 53.8439 -82.675 -106.737 53.1193 
-83.405 -105.521 54.5655 -83.8741 -104.909 55.4885 -83.2451 -107.533 54.3061 
-82.6465 -108.229 53.7966 -83.8293 -107.074 54.8621 -84.2517 -106.717 55.8252 
-84.3283 -106.379 57.1487 -82.7609 -108.841 54.8701 -82.2483 -109.769 54.5558 
-83.3923 -108.179 55.3037 -83.971 -108.037 56.2074 -84.1621 -108.006 57.7175 
-83.8626 -107.839 58.9871 -82.0446 -110.552 55.5801 -81.7414 -111.467 55.5143 
-82.3243 -109.438 55.9228 -82.7059 -108.872 56.6332 -83.0048 -108.859 57.832 
-82.9587 -108.834 59.0214 -82.5941 -108.667 59.5945 -81.6254 -112.579 56.669 
-81.2418 -113.01 56.8367 -81.7877 -111.585 56.8639 -81.8093 -110.548 57.4049 
-81.7699 -110.054 58.0844 -81.6323 -109.898 58.7037 -81.3498 -109.764 59.0925 
-80.9602 -109.713 59.3104 -81.2416 -114.239 58.1592 -80.6954 -114.205 58.352 
-81.6608 -113.87 58.2207 -81.7979 -113.062 58.6312 -81.5906 -112.266 59.0899 
-81.1581 -111.8 59.2846 -80.6651 -111.538 59.3238 -80.1892 -111.4 59.4496 
-79.7419 -111.427 59.7036 -80.7457 -115.465 59.7012 -80.2077 -115.294 59.7419 
-81.3201 -115.554 59.7493 -81.7589 -115.307 60.0195 -81.8305 -114.692 60.4315 
-81.4946 -114.043 60.6815 -80.9447 -113.635 60.6714 -80.3626 -113.411 60.6437 
-79.8171 -113.273 60.7615 -79.3352 -113.213 60.9447 -79.2758 -114.726 62.3553 
-79.7655 -114.94 62.3241 -79.719 -116.451 63.5776 -80.339 -115.159 62.3228 
-80.2557 -116.82 63.671 -80.0759 -118.358 64.8974 -80.9364 -115.327 62.3908 
-80.8801 -117.067 63.9274 -80.669 -118.803 65.1809 -80.7124 -120.157 66.7271 
-81.4699 -115.606 62.3809 -81.5179 -117.201 64.1207 -81.4617 -118.992 65.5981 
-81.4835 -120.552 67.0976 -81.8433 -121.546 68.6988 -81.7966 -116.228 62.1037 
-81.951 -117.671 63.8763 -82.272 -119.219 65.6587 -82.4891 -120.706 67.3151 
-82.7585 -121.79 68.8975 -83.0429 -122.576 70.3027 -81.7382 -116.87 61.6907 
-81.9289 -118.427 63.3593 -82.5559 -119.894 65.1898 -83.2049 -121.145 67.0361 
-83.6238 -122.071 68.7079 -83.9104 -122.825 70.2539 -83.9043 -123.525 71.6657 
-81.298 -117.049 61.3939 -81.4767 -118.743 63.0243 -82.1099 -120.417 64.7441 
-82.9898 -121.782 66.5621 -83.757 -122.714 68.2427 -84.3512 -123.38 69.8078 
-84.6066 -124.017 71.3758 -84.3937 -124.557 72.8263 -80.709 -116.864 61.2202 
-80.8731 -118.534 62.8321 -81.3667 -120.286 64.5229 -82.1225 -121.861 66.2847 
-82.9947 -123.118 67.9132 -83.9211 -124.013 69.3474 -84.6443 -124.672 70.7984 
-84.8546 -125.23 72.2973 -84.6097 -125.598 73.6506 -80.172 -116.656 61.0713 
-80.3212 -118.277 62.5641 -80.6998 -119.955 64.2128 -81.2623 -121.494 65.9716 
-82.001 -122.905 67.6358 -82.9504 -124.136 69.0268 -83.9132 -125.031 70.2861 
-84.5492 -125.679 71.6159 -84.748 -126.186 72.9728 -84.6144 -126.46 74.1922 
-79.1448 -115.672 63.277 -79.5033 -117.553 64.5716 -78.9139 -116.751 64.249 
-80.0188 -119.409 66.2807 -79.3042 -118.695 65.8037 -78.5524 -117.941 65.2013 
-81.0144 -120.973 68.3267 -80.1031 -120.292 67.7964 -79.1318 -119.699 67.0081 
-78.1748 -118.996 66.0965 -82.1697 -122.292 70.074 -81.137 -121.748 69.6032 
-79.995 -121.169 68.9299 -78.9056 -120.533 68.0677 -77.848 -119.775 67.1258 
-83.0474 -123.337 71.6507 -82.0152 -123.063 71.1973 -80.8166 -122.687 70.5106 
-79.6485 -122.165 69.7593 -78.5551 -121.338 68.9957 -77.4552 -120.41 68.1356 
-83.6056 -124.165 73.1728 -82.6876 -123.843 72.9869 -81.6423 -123.652 72.3057 
-80.446 -123.509 71.3314 -79.2366 -123.033 70.3604 -78.0489 -122.071 69.5678 
-76.9435 -121.006 68.7728 -83.9634 -125.037 74.2811 -83.1533 -124.416 74.4836 
-82.3347 -124.016 74.1258 -81.3147 -123.956 73.2111 -80.0235 -123.953 71.924 
-78.6707 -123.524 70.7236 -77.4301 -122.588 69.8656 -76.3909 -121.512 69.1143 
-84.1866 -125.956 74.9513 -83.4511 -125.206 75.3876 -82.6793 -124.542 75.3343 
-81.8184 -124.218 74.7618 -80.6342 -124.181 73.6847 -79.2328 -124.127 72.3071 
-77.9011 -123.72 71.0627 -76.7644 -122.892 70.1421 -75.8249 -121.877 69.3572 
-84.2942 -126.886 75.1142 -83.7525 -126.284 75.8508 -83.5162 -127.077 75.8427 
-82.7639 -126.493 76.4851 -81.9339 -127.157 76.1157 -82.893 -125.517 76.1131 
-81.0185 -126.699 76.5716 -79.8865 -127.442 75.9032 -81.7442 -125.851 76.5211 
-81.9557 -124.919 75.8224 -78.9659 -127.028 76.1302 -78.1102 -127.9 75.5321 
-79.9889 -126.068 76.4575 -80.6254 -125.263 76.0386 -80.8194 -124.564 75.0806 
-77.0799 -127.34 75.6194 -76.6071 -128.1 75.1212 -77.9563 -126.217 76.0691 
-78.8595 -125.28 75.9916 -79.3028 -124.731 75.21 -79.412 -124.363 73.924 
-75.4381 -127.406 75.1888 -75.1475 -127.982 74.5172 -75.9496 -126.432 75.7368 
-76.8642 -125.287 75.8063 -77.5939 -124.64 75.1405 -77.9117 -124.391 73.9916 
-78.0165 -124.167 72.5173 -74.1765 -127.256 74.5957 -73.9641 -127.786 73.8165 
-74.3587 -126.535 75.3355 -74.969 -125.502 75.5657 -75.8366 -124.658 74.9277 
-76.4192 -124.331 73.795 -76.7062 -124.14 72.5287 -76.8202 -123.703 71.2189 
-73.236 -126.978 73.8518 -73.0746 -127.513 73.1932 -73.2835 -126.327 74.5852 
-73.5725 -125.51 74.9934 -74.2775 -124.705 74.5637 -75.0027 -124.253 73.4757 
-75.443 -124.031 72.2876 -75.6844 -123.62 71.1722 -75.8045 -122.855 70.1773 
-72.3205 -126.602 73.1261 -72.223 -127.095 72.5937 -72.3508 -125.925 73.6849 
-72.5188 -125.17 74.0778 -73.0335 -124.48 73.8923 -73.738 -124.024 73.071 
-74.2799 -123.774 72.0034 -74.587 -123.414 70.977 -74.7892 -122.723 70.0657 
-74.944 -121.813 69.2775 -84.3978 -126.942 73.8451 -83.9089 -127.313 74.6508 
-83.5686 -127.033 73.2984 -82.8121 -127.328 73.8432 -82.3616 -126.892 72.5691 
-82.7421 -127.424 75.1059 -81.3832 -127.186 72.873 -81.1641 -126.766 71.7111 
-81.3402 -127.483 73.9896 -80.8116 -127.558 75.1363 -80.0825 -127.116 71.8995 
-80.0267 -126.605 70.7554 -79.8764 -127.516 72.8981 -79.5319 -127.866 74.0003 
-78.9487 -128.042 75.0526 -78.9352 -126.967 70.8683 -78.8869 -126.272 69.6878 
-78.7029 -127.523 71.9272 -78.4703 -128.142 72.9128 -78.1791 -128.588 74.0649 
-77.5432 -128.548 74.8953 -77.8824 -126.584 69.7031 -77.8768 -125.787 68.555 
-77.7104 -127.228 70.8998 -77.5655 -128.044 71.8155 -77.3761 -128.91 72.7054 
-76.8177 -129.133 73.7078 -75.9834 -128.655 74.3168 -76.9882 -126.03 68.4694 
-77.0449 -125.161 67.4719 -76.8207 -126.719 69.671 -76.6891 -127.461 70.6997 
-76.4942 -128.519 71.3381 -75.8628 -129.306 72.0527 -75.0041 -129.188 72.919 
-74.3925 -128.504 73.5144 -76.2478 -125.347 67.292 -76.3279 -124.423 66.4714 
-76.073 -126.186 68.2825 -75.8868 -126.879 69.371 -75.6822 -127.677 70.1765 
-75.108 -128.606 70.7244 -74.1878 -129.095 71.453 -73.5377 -128.852 72.298 
-73.303 -128.218 72.8929 -75.637 -124.582 66.2096 -75.7327 -123.689 65.4978 
-75.4784 -125.53 66.9574 -75.2444 -126.369 67.8617 -74.9819 -127.011 68.8252 
[...]
CELL_DATA 2000
SCALARS Distance double
LOOKUP_TABLE default
141.48 142.204 141.979 142.309 143.034 142.755 143.114 142.894 143.38 
143.967 143.637 144.024 143.781 144.335 144.155 144.869 144.905 144.575 
144.962 144.742 145.373 145.209 146.003 145.842 146.703 145.749 145.47 
145.889 145.711 146.438 146.318 147.215 147.062 147.987 147.789 148.703 
146.566 146.322 146.861 146.706 147.567 147.475 148.507 148.365 149.384 
149.158 150.127 149.869 150.807 147.519 147.279 147.99 147.815 148.798 
148.706 149.841 149.733 150.839 150.631 151.644 151.365 152.314 152.014 
152.889 148.635 148.425 149.303 149.107 150.162 150.029 151.183 151.087 
152.219 152.078 153.107 152.88 153.807 153.52 154.359 154.029 154.761 
149.815 149.67 150.657 150.5 151.58 151.438 152.562 152.439 153.54 
153.415 154.441 154.273 155.19 154.951 155.758 155.454 156.157 155.794 
156.396 141.105 140.761 141.23 141.831 140.425 140.896 141.542 142.009 
142.661 140.141 140.59 141.268 141.75 142.501 142.946 143.649 139.922 
140.359 141.082 141.541 142.376 142.855 143.692 144.041 144.69 139.768 
140.219 141.028 141.455 142.323 142.785 143.703 144.131 144.879 145.088 
145.582 139.616 140.134 141.061 141.505 142.393 142.785 143.673 144.129 
144.961 145.284 145.832 145.921 146.331 139.423 140.006 141.031 141.568 
142.499 142.88 143.716 144.117 144.994 145.383 146.068 146.195 146.591 
146.638 147.114 139.33 139.859 140.904 141.494 142.451 142.918 143.762 
144.179 145.107 145.522 146.352 146.509 146.948 146.903 147.236 147.399 
148.015 139.483 139.865 140.846 141.355 142.282 142.787 143.669 144.176 
145.188 145.703 146.662 146.896 147.377 147.272 147.447 147.456 147.868 
148.264 149.029 139.98 141.114 140.76 141.243 142.282 141.894 142.331 
142.034 142.564 143.622 143.154 143.641 143.206 143.755 143.409 144.009 
144.977 144.537 145.054 144.627 145.255 144.818 145.53 145.068 145.74 
146.121 145.726 146.041 145.809 146.307 146.18 146.832 146.619 147.225 
146.809 147.217 147.346 146.803 146.906 146.537 146.756 146.758 147.173 
147.374 147.743 147.807 147.921 147.747 147.674 148.818 148.194 148.4 
147.655 147.841 147.311 147.637 147.498 147.82 147.863 147.945 147.939 
147.825 147.733 147.612 150.209 149.754 150.22 149.491 149.893 148.989 
149.408 148.587 149.024 148.395 148.724 148.231 148.44 148.04 148.243 
147.907 148.153 151.39 151.104 151.733 151.305 151.904 151.222 151.744 
150.835 151.293 150.303 150.736 149.786 150.225 149.372 149.844 149.115 
149.615 148.99 149.469 150.579 150.848 151.332 152.567 151.192 151.695 
153.053 153.44 154.702 151.625 152.12 153.567 153.996 155.356 155.675 
157.012 152.15 152.6 154.054 154.526 155.971 156.372 157.786 158.107 
159.485 152.714 153.138 154.551 155.018 156.506 156.987 158.471 158.869 
160.25 160.545 161.768 153.085 153.597 154.938 155.468 156.934 157.504 
159.022 159.507 160.875 161.22 162.405 162.658 163.68 153.05 153.708 
154.918 155.635 157 157.768 159.228 159.912 161.244 161.723 162.864 
163.201 164.231 164.457 165.339 152.697 153.414 154.492 155.338 156.584 
157.528 158.865 159.797 161.062 161.824 162.929 163.49 164.489 164.893 
165.794 166.014 166.737 152.27 152.946 153.959 154.788 155.967 156.916 
158.155 159.16 160.355 161.325 162.417 163.258 164.226 164.895 165.739 
166.233 166.94 167.223 167.764 150.814 152.773 151.773 151.762 154.881 
153.825 153.855 152.791 152.767 157.207 156.048 156.128 154.991 155.015 
153.855 153.792 159.685 158.501 158.583 157.368 157.395 156.179 156.107 
154.88 154.751 161.962 160.938 160.999 159.827 159.792 158.574 158.474 
157.223 157.047 155.802 155.616 163.862 163.034 163.112 162.1 162.037 
160.9 160.781 159.573 159.388 158.113 157.854 156.602 156.344 165.467 
164.767 164.834 164.007 163.947 162.988 162.86 161.79 161.596 160.402 
160.09 158.817 158.44 157.218 156.871 166.828 166.234 166.235 165.536 
165.428 164.667 164.501 163.653 163.408 162.421 162.048 160.911 160.435 
159.237 158.763 157.619 157.209 167.901 167.452 167.418 166.796 166.617 
165.949 165.721 165.035 164.732 163.953 163.524 162.607 162.081 161.046 
160.496 159.412 158.901 157.843 157.393 168.384 168.743 168.442 167.926 
168.558 168.598 168.148 167.777 167.091 167.857 168.169 167.873 167.814 
167.191 166.839 166.138 167.043 167.355 167.109 167.316 166.814 166.748 
166.06 165.801 165.081 166.293 166.537 166.168 166.428 165.951 166.13 
165.496 165.493 164.754 164.602 163.824 165.41 165.705 165.273 165.49 
164.965 165.165 164.57 164.723 164.047 164.082 163.333 163.227 162.401 
164.417 164.747 164.381 164.61 164.111 164.248 163.657 163.779 163.163 
163.278 162.62 162.64 161.882 161.749 160.879 163.465 163.773 163.411 
163.689 163.212 163.404 162.807 162.924 162.293 162.412 161.794 161.889 
161.204 161.178 160.364 160.198 159.304 162.505 162.812 162.368 162.66 
162.122 162.396 161.78 161.999 161.352 161.53 160.908 161.054 160.404 
160.459 159.697 159.627 158.772 158.616 157.762 168.503 168.317 168.666 
168.847 167.49 168.152 168.379 168.726 168.581 166.392 167.11 167.299 
167.906 167.83 168.159 167.824 165.312 165.983 166.137 166.735 166.776 
167.264 167.183 167.414 167.135 164.163 164.885 165.076 165.658 165.811 
166.331 166.508 166.872 166.868 166.9 166.563 162.868 163.666 163.897 
164.585 164.782 165.426 165.687 166.249 166.364 166.618 166.336 166.249 
165.682 161.52 162.332 162.563 163.329 163.51 164.274 164.481 165.249 
165.347 165.898 165.64 165.822 165.264 165.212 164.61 160.175 160.972 
161.197 161.976 162.15 162.918 163.061 163.86 163.917 164.636 164.451 
164.904 164.473 164.651 164.142 164.154 163.653 158.869 159.628 159.848 
160.62 160.808 161.559 161.681 162.415 162.433 163.137 162.999 163.595 
163.297 163.722 163.335 163.577 163.143 163.208 162.713 152.343 153.144 
153.159 154.099 154.1 154.112 155.137 155.109 156.148 155.006 155.095 
156.178 156.209 157.276 157.243 158.301 155.86 155.983 157.1 157.207 
158.317 158.355 159.426 159.405 160.454 156.72 156.852 157.971 158.097 
159.239 159.352 160.49 160.525 161.61 161.561 162.554 157.455 157.665 
158.742 158.916 160.004 160.201 161.347 161.522 162.625 162.678 163.662 
163.588 164.419 157.96 158.266 159.289 159.555 160.558 160.833 161.9 
162.216 163.277 163.511 164.436 164.535 165.336 165.294 165.944 158.279 
158.637 159.617 159.963 160.929 161.258 162.253 162.621 163.622 163.962 
164.844 165.084 165.858 166.011 166.707 166.683 167.183 158.487 158.86 
159.789 160.188 161.122 161.516 162.45 162.857 163.773 164.17 164.987 
165.322 166.055 166.352 167.068 167.271 167.857 167.795 168.091 151.473 
150.37 151.304 152.158 149.239 150.177 151.007 152.055 153.029 148.104 
149.031 149.841 150.879 151.819 152.922 153.904 147.004 147.89 148.657 
149.68 150.583 151.684 152.642 153.76 154.74 145.984 146.8 147.485 
148.456 149.307 150.411 151.35 152.482 153.455 154.596 155.584 145.056 
145.805 146.422 147.286 148.065 149.115 150.054 151.187 152.164 153.301 
154.28 155.423 156.349 144.205 144.908 145.508 146.273 146.991 147.919 
148.834 149.92 150.927 152.038 153.016 154.121 155.043 156.127 156.928 
143.446 144.094 144.701 145.411 146.105 146.92 147.763 148.749 149.722 
150.814 151.793 152.884 153.793 154.847 155.658 156.653 157.328 142.821 
143.392 143.988 144.649 145.331 146.076 146.843 147.715 148.574 149.594 
150.507 151.614 152.51 153.599 154.412 155.417 156.114 157.03 157.608 
142.696 142.891 143.135 143.858 143.085 143.364 144.153 144.402 145.214 
143.314 143.593 144.454 144.735 145.625 145.855 146.738 143.686 143.911 
144.826 145.089 146.046 146.3 147.252 147.46 148.424 144.198 144.385 
145.335 145.551 146.55 146.782 147.789 148.005 149.03 149.24 150.303 
144.794 144.957 145.931 146.123 147.151 147.362 148.432 148.628 149.722 
149.908 151.037 151.222 152.322 145.48 145.607 146.6 146.762 147.818 
148.016 149.15 149.355 150.529 150.7 151.873 152.025 153.153 153.266 
154.267 146.197 146.323 147.327 147.477 148.553 148.733 149.891 150.111 
151.323 151.536 152.721 152.887 153.988 154.103 155.08 155.132 155.973 
146.869 147.02 148.02 148.201 149.273 149.474 150.604 150.842 152.013 
152.274 153.422 153.655 154.711 154.878 155.813 155.9 156.712 156.735 
157.454 147.558 149.115 148.457 148.768 150.827 150.118 150.44 149.747 
150.071 152.587 151.884 152.24 151.505 151.864 151.122 151.454 154.39 
153.706 154.151 153.389 153.787 152.998 153.364 152.562 152.884 156.18 
155.548 156.061 155.349 155.785 154.986 155.352 154.52 154.842 154.007 
154.284 157.895 157.311 157.822 157.205 157.663 156.955 157.328 156.524 
156.83 155.979 156.234 155.373 155.567 159.566 159.012 159.528 158.923 
159.391 158.749 159.156 158.443 158.773 157.963 158.2 157.321 157.468 
156.575 156.654 161.049 160.637 161.18 160.626 161.083 160.455 160.854 
160.199 160.536 159.823 160.05 159.236 159.329 158.44 158.443 157.55 
157.521 162.109 161.934 162.473 162.131 162.559 162.067 162.417 161.834 
162.117 161.476 161.654 160.94 160.986 160.188 160.132 159.275 159.179 
158.318 158.229 147.101 146.88 147.532 148.647 146.604 147.336 148.546 
149.206 150.383 146.21 147.053 148.353 149.114 150.363 150.971 152.119 
145.732 146.671 148.098 148.937 150.271 150.936 152.128 152.702 153.855 
145.292 146.264 147.881 148.777 150.267 150.923 152.203 152.743 153.952 
154.49 155.657 145.018 145.911 147.615 148.613 150.252 151.01 152.387 
152.923 154.179 154.668 155.878 156.33 157.437 145.015 145.712 147.261 
148.27 149.876 150.859 152.257 153.025 154.274 154.892 156.085 156.583 
157.681 158.084 159.096 145.241 145.743 147.044 147.865 149.286 150.287 
151.627 152.613 153.852 154.745 155.919 156.641 157.686 158.228 159.165 
159.63 160.512 145.506 145.929 147.062 147.675 148.929 149.719 150.981 
151.887 153.129 154.108 155.316 156.234 157.279 158.01 158.869 159.482 
160.265 160.829 161.541 146.151 144.693 145.569 145.867 143.144 144.086 
144.334 145.24 145.521 141.302 142.411 142.689 143.669 143.857 144.804 
145.043 139.297 140.422 140.727 141.884 142.097 143.089 143.19 144.197 
144.425 137.585 138.459 138.689 139.831 140.128 141.235 141.369 142.331 
142.424 143.512 143.847 136.318 136.916 136.998 137.897 138.184 139.271 
139.561 140.551 140.737 141.648 141.94 143.052 143.603 135.317 135.765 
135.734 136.369 136.546 137.461 137.841 138.854 139.265 140.158 140.587 
141.458 142.042 143.076 143.794 134.457 134.843 134.818 135.261 135.376 
136.026 136.4 137.3 137.865 138.817 139.421 140.297 140.943 141.818 
142.537 143.479 144.198 133.709 134.066 134.145 134.51 134.694 135.117 
135.488 136.122 136.718 137.561 138.249 139.156 139.841 140.752 141.442 
142.354 143.03 143.932 144.552 133.361 133.266 133.469 133.895 133.596 
133.58 134.036 134.149 134.581 134.281 134.066 134.491 134.477 134.967 
134.959 135.443 135.195 134.829 135.172 135.048 135.578 135.512 136.053 
135.993 136.634 136.243 135.795 136.079 135.821 136.342 136.223 136.812 
136.708 137.334 137.32 138.093 137.336 136.874 137.139 136.793 137.245 
137.052 137.619 137.497 138.097 138.037 138.751 138.821 139.662 138.458 
137.991 138.24 137.851 138.214 137.956 138.446 138.302 138.886 138.803 
139.491 139.499 140.33 140.424 141.294 139.587 139.129 139.362 138.941 
139.249 138.911 139.344 139.138 139.739 139.63 140.355 140.299 141.118 
141.141 142.016 142.076 142.9 140.617 140.218 140.439 140.042 140.34 
139.967 140.391 140.106 140.721 140.56 141.327 141.231 142.038 141.981 
142.796 142.808 143.615 143.648 144.397 141.194 142.046 141.428 141.073 
143.152 142.401 142.106 141.396 141.059 144.665 143.723 143.478 142.612 
142.355 141.513 141.217 146.498 145.433 145.199 144.186 143.977 143.013 
142.795 141.843 141.631 148.499 147.38 147.155 146.04 145.815 144.765 
144.576 143.571 143.399 142.412 142.269 150.61 149.468 149.3 148.106 
147.892 146.716 146.511 145.42 145.243 144.228 144.066 143.094 142.96 
152.679 151.606 151.485 150.322 150.16 148.925 148.73 147.492 147.286 
146.128 145.935 144.889 144.727 143.77 143.663 154.525 153.583 153.46 
152.436 152.29 151.178 150.999 149.787 149.56 148.298 148.061 146.856 
146.665 145.583 145.462 144.5 144.44 156.145 155.308 155.18 154.274 
154.117 153.156 152.971 151.926 151.686 150.532 150.264 149.053 148.823 
147.64 147.479 146.384 146.28 145.299 145.224 145.943 147.113 146.85 
147.547 148.406 148.143 148.939 148.606 149.375 149.767 149.51 150.377 
150.069 150.867 150.507 151.323 151.153 150.887 151.755 151.501 152.358 
152.032 152.859 152.51 153.41 152.536 152.272 153.122 152.871 153.764 
153.504 154.395 154.076 154.968 154.651 155.578 153.823 153.627 154.514 
154.273 155.181 154.922 155.817 155.55 156.4 156.137 156.961 156.718 
157.502 154.969 154.861 155.801 155.65 156.584 156.355 157.204 156.924 
157.679 157.422 158.134 157.935 158.63 158.439 159.075 156.022 155.969 
156.926 156.866 157.811 157.679 158.504 158.257 158.948 158.651 159.299 
159.039 159.702 159.491 160.145 159.919 160.496 156.975 156.98 157.923 
157.922 158.842 158.79 159.59 159.435 160.103 159.863 160.489 160.223 
160.867 160.606 161.245 160.994 161.58 161.307 161.788 138.629 138.412 
138.093 137.391 138.526 138.043 137.335 137.001 136.395 138.794 138.286 
137.615 137.146 136.493 136.076 135.419 139.022 138.566 137.897 137.454 
136.772 136.281 135.537 135.092 134.492 139.245 138.795 138.103 137.661 
136.95 136.505 135.779 135.301 134.673 134.308 133.962 139.515 139.055 
138.38 137.878 137.168 136.682 136.022 135.563 134.979 134.565 134.107 
133.869 133.621 139.814 139.352 138.709 138.196 137.52 136.995 136.376 
135.888 135.326 134.875 134.316 133.962 133.488 133.386 133.142 140.165 
139.687 139.069 138.551 137.908 137.39 136.786 136.297 135.726 135.243 
134.65 134.175 133.616 133.283 132.94 132.902 132.863 140.557 140.086 
139.515 138.976 138.377 137.827 137.254 136.731 136.183 135.668 135.128 
134.594 134.112 133.609 133.307 132.971 132.946 132.877 133.089 138.644 
137.402 138.118 138.436 136.321 136.937 137.228 138.01 138.433 135.272 
135.854 136.111 136.869 137.317 138.099 138.585 134.35 134.803 135.058 
135.784 136.286 137.06 137.586 138.329 138.867 133.882 134.086 134.316 
134.836 135.367 136.091 136.683 137.403 137.976 138.697 139.291 133.665 
133.833 134.053 134.333 134.796 135.311 135.921 136.57 137.202 137.888 
138.542 139.224 139.846 133.332 133.62 133.928 134.194 134.622 134.944 
135.506 135.969 136.634 137.219 137.939 138.576 139.277 139.866 140.464 
133.108 133.336 133.753 134.057 134.549 134.847 135.396 135.733 136.381 
136.82 137.559 138.093 138.844 139.392 140.058 140.542 141.103 133.297 
133.329 133.774 133.969 134.506 134.781 135.355 135.672 136.302 136.674 
137.375 137.82 138.556 139.046 139.745 140.209 140.818 141.228 141.769 
139.472 139.272 139.783 140.645 139.247 139.66 140.497 140.971 141.828 
139.384 139.711 140.54 140.913 141.762 142.204 143.126 139.661 139.92 
140.776 141.068 141.92 142.241 143.142 143.585 144.522 140.032 140.232 
141.061 141.345 142.189 142.472 143.319 143.668 144.589 145 145.85 
140.484 140.603 141.326 141.584 142.372 142.693 143.492 143.836 144.694 
145.098 146.006 146.346 147.16 141.017 141.057 141.699 141.85 142.58 
142.845 143.635 143.962 144.786 145.175 146.057 146.483 147.364 147.7 
148.51 141.61 141.601 142.231 142.29 143.011 143.152 143.947 144.167 
144.993 145.286 146.132 146.515 147.376 147.799 148.621 148.996 149.759 
142.248 142.214 142.842 142.868 143.583 143.668 144.438 144.577 145.374 
145.571 146.385 146.654 147.487 147.827 148.652 149.023 149.803 150.164 
150.901 146.021 145.326 145.301 144.556 144.57 144.541 143.717 143.758 
142.954 143.861 143.763 142.862 142.845 141.945 142.013 141.094 143.283 
143.11 142.202 142.052 141.137 141.047 140.117 140.096 139.179 142.813 
142.598 141.735 141.512 140.654 140.428 139.561 139.34 138.483 138.343 
137.587 142.487 142.212 141.385 141.122 140.303 140.057 139.239 138.968 
138.141 137.876 137.128 136.978 136.379 142.314 141.995 141.203 140.867 
140.059 139.758 138.957 138.684 137.874 137.601 136.826 136.618 135.976 
135.887 135.377 142.181 141.883 141.14 140.779 139.997 139.612 138.827 
138.473 137.703 137.376 136.63 136.353 135.691 135.521 134.974 134.919 
134.473 142.041 141.771 141.088 140.756 140.022 139.623 138.857 138.445 
137.699 137.311 136.614 136.259 135.631 135.339 134.788 134.592 134.115 
134.051 133.678 
POINT_DATA 1002
SCALARS Distance double
LOOKUP_TABLE default
141.766 140.997 141.681 142.493 142.441 142.673 143.334 143.331 143.52 
143.952 144.251 144.324 144.494 144.999 145.659 145.156 145.243 145.489 
146.142 146.872 147.582 146.021 145.994 146.5 147.331 148.176 148.916 
149.615 146.965 146.752 147.606 148.601 149.593 150.386 151.082 151.728 
148.131 147.684 148.879 149.915 151.01 151.919 152.63 153.234 153.708 
149.467 148.76 150.313 151.297 152.341 153.309 154.095 154.699 155.147 
155.429 150.785 149.901 151.722 152.708 153.683 154.599 155.416 156.061 
156.517 156.809 156.952 140.638 141.373 140.275 141.041 139.963 142.215 
140.771 139.693 141.996 143.296 140.618 139.462 141.861 143.276 144.509 
140.583 139.266 141.889 143.223 144.613 145.519 140.56 139.026 142.047 
143.246 144.553 145.723 146.26 140.435 138.812 142.103 143.351 144.556 
145.878 146.608 146.916 140.333 138.85 141.948 143.305 144.634 146.137 
147.046 147.197 147.607 140.418 139.186 141.79 143.112 144.593 146.343 
147.51 147.579 147.575 148.43 140.342 141.524 141.482 142.679 142.689 
142.792 144.095 144.085 144.15 144.327 145.432 145.418 145.636 145.981 
146.288 146.332 146.616 146.362 146.927 147.594 147.801 147.467 147.958 
146.924 146.989 147.609 148.032 147.936 149.161 149.34 148.58 148.027 
147.903 147.955 147.855 147.692 150.767 150.524 150.738 150.366 149.839 
149.335 148.89 148.581 148.463 152.024 151.627 152.413 152.566 152.305 
151.74 151.138 150.65 150.306 150.081 151.758 152.16 153.784 152.623 
154.377 155.947 153.09 154.99 156.703 158.389 153.575 155.502 157.424 
159.233 160.837 154.102 155.98 158.038 159.953 161.569 162.901 154.388 
156.327 158.499 160.533 162.141 163.507 164.633 154.174 156.196 158.481 
160.706 162.496 163.957 165.232 166.154 153.658 155.648 157.911 160.208 
162.274 164.018 165.494 166.66 167.399 153.162 155.062 157.193 159.364 
161.494 163.485 165.176 166.549 167.613 168.282 152.779 154.913 153.875 
157.287 156.187 154.987 159.83 158.634 157.366 155.972 162.149 161.02 
159.725 158.335 156.836 164.054 163.134 161.958 160.662 159.17 157.557 
165.617 164.836 163.874 162.751 161.377 159.726 158.037 166.934 166.158 
165.294 164.339 163.138 161.632 159.949 158.304 168.027 167.297 166.397 
165.474 164.385 163.054 161.559 159.982 158.418 168.846 168.456 168.928 
168.412 168.339 167.579 167.76 167.478 167.452 166.543 166.832 166.824 
166.742 166.252 165.388 165.959 166.098 165.717 165.399 164.842 164.037 
165.063 165.071 164.8 164.383 163.931 163.372 162.594 164.109 164.073 
163.973 163.564 163.028 162.536 161.958 161.099 163.138 163.186 162.989 
162.676 162.182 161.675 161.176 160.48 159.514 162.114 162.216 161.854 
161.525 161.14 160.737 160.314 159.724 158.887 157.917 168.382 168.771 
167.801 167.888 166.784 168.482 166.661 165.733 167.353 167.663 165.558 
164.649 166.197 166.783 167.109 164.451 163.391 165.223 166.017 166.728 
166.771 163.158 162.056 164.085 165.041 166.007 166.36 165.88 161.785 
160.722 162.748 163.7 164.704 165.334 165.231 164.687 160.412 159.392 
161.397 162.308 163.177 163.872 164.152 164.039 163.702 159.08 158.137 
160.053 160.976 161.761 162.363 162.764 162.977 162.99 162.737 152.242 
154.076 153.117 155.146 154.041 156.192 156.1 154.88 157.292 158.348 
156.97 155.733 158.231 159.43 160.505 157.854 156.574 159.091 160.398 
161.644 162.684 158.568 157.223 159.806 161.118 162.527 163.707 164.597 
159.008 157.651 160.293 161.579 163.006 164.3 165.302 166.111 159.254 
157.934 160.591 161.903 163.28 164.583 165.652 166.623 167.391 150.554 
151.118 149.443 149.975 148.304 151.933 148.819 147.193 150.734 152.794 
147.663 146.162 149.492 151.528 153.61 146.579 145.217 148.217 150.216 
152.312 154.447 145.626 144.331 147.067 148.915 151.037 153.146 155.25 
144.771 143.516 146.131 147.78 149.812 151.937 153.97 155.91 144.001 
142.825 145.336 146.852 148.659 150.699 152.749 154.665 156.401 143.353 