# vtk DataFile Version 4.0
vtk output
ASCII
DATASET POLYDATA
POINTS 1002 float
-75.1263 -106.923 61.2224 -75.3025 -105.907 60.5191 -75.9357 -106.1 60.9038 
-75.7697 -107.29 61.6725 -76.54 -106.436 61.3694 -74.7125 -108.129 62.1459 
-76.2339 -107.746 62.1943 -77.0918 -106.866 61.9122 -75.2151 -108.741 62.5501 
-74.1293 -109.905 62.9264 -76.5833 -108.369 62.6177 -77.5894 -107.35 62.5405 
-75.532 -109.517 62.8234 -74.5323 -110.883 63.0961 -73.7293 -112.147 63.5451 
-76.9085 -109.394 62.8084 -77.9491 -108.155 63.0166 -75.8258 -110.636 62.8283 
-74.9168 -111.99 63.1465 -74.2243 -113.246 63.777 -73.7212 -114.093 64.6196 
-77.138 -110.834 62.771 -78.1105 -109.467 62.9976 -76.1724 -112.099 62.8019 
-75.3637 -113.214 63.2757 -74.7933 -114.281 64.1568 -74.2982 -115.106 65.1782 
-73.8663 -115.765 66.0456 -77.3232 -112.215 62.7128 -78.1345 -110.93 62.5947 
-76.5872 -113.401 63.1318 -75.9164 -114.322 63.8611 -75.4167 -115.216 64.8229 
-74.9527 -116.124 65.8088 -74.4265 -116.937 66.5909 -73.971 -117.71 67.1939 
-77.6082 -113.263 62.9132 -78.1309 -112.185 62.3301 -77.1667 -114.266 63.8362 
-76.6685 -115.141 64.8392 -76.1675 -116.069 65.7374 -75.7043 -117.112 66.52 
-75.1524 -118.085 67.1602 -74.5869 -118.881 67.7272 -74.1392 -119.479 68.3393 
-77.9948 -114.214 63.4414 -78.2422 -113.289 62.5291 -77.8125 -115.065 64.6212 
-77.5121 -115.945 65.7261 -77.0352 -116.977 66.5516 -76.523 -118.076 67.2347 
-75.9852 -119.029 67.8779 -75.3877 -119.75 68.495 -74.8477 -120.25 69.1554 
-74.4111 -120.541 69.8245 -78.447 -115.218 64.1399 -78.5616 -114.356 63.1055 
-78.363 -116.032 65.2916 -78.1851 -116.916 66.3052 -77.8084 -117.956 67.0838 
-77.3063 -118.977 67.8324 -76.7797 -119.77 68.6552 -76.2149 -120.351 69.4124 
-75.6443 -120.795 70.0822 -75.1431 -121.084 70.7197 -74.6985 -121.228 71.2576 
-75.7013 -104.872 60.2624 -76.3301 -104.965 60.7302 -76.0726 -103.7 60.121 
-76.8569 -103.808 60.632 -76.734 -102.824 59.7487 -77.0829 -105.385 61.1323 
-77.7684 -103.118 60.1989 -77.6974 -102.395 58.9257 -77.8345 -104.416 60.9295 
-77.8599 -105.903 61.6671 -78.7972 -102.846 59.3445 -78.6192 -102.002 57.9681 
-78.8008 -103.881 60.4572 -78.7266 -105.079 61.4006 -78.5122 -106.318 62.5046 
-79.6701 -102.453 58.5437 -79.4676 -101.429 57.2861 -79.6938 -103.58 59.765 
-79.6325 -104.662 60.8904 -79.496 -105.636 62.2679 -78.9951 -107.089 63.2024 
-80.5281 -101.901 57.9805 -80.3286 -100.942 56.7143 -80.4991 -103.113 59.1855 
-80.4552 -104.411 60.2926 -80.5048 -105.515 61.7119 -80.2007 -106.64 63.0565 
-79.2276 -108.51 63.169 -81.2161 -101.559 57.2673 -80.9037 -100.716 55.8977 
-81.2471 -102.661 58.5663 -81.1585 -104.071 59.7581 -81.2712 -105.517 61.1275 
-81.2569 -106.722 62.6035 -80.433 -108.101 63.1131 -79.082 -110.076 62.5417 
-81.424 -101.553 56.2784 -81.0565 -100.772 54.915 -81.6524 -102.547 57.6332 
-81.6839 -103.881 58.9955 -81.7526 -105.414 60.4953 -81.8318 -106.773 62.0225 
-81.2822 -107.971 62.8004 -79.973 -109.493 62.4442 -78.7509 -111.421 62.0068 
-81.3279 -101.847 55.3282 -81.0576 -101.164 54.085 -81.6538 -102.756 56.6222 
-81.9231 -103.988 58.0013 -82.1131 -105.416 59.5828 -82.1908 -106.73 61.197 
-81.764 -107.853 62.1945 -80.6068 -109.109 62.1553 -79.3265 -110.779 61.7486 
-78.6364 -112.66 62.0108 -81.197 -102.251 54.2466 -81.4364 -102.979 55.508 
-81.3338 -103.553 54.6664 -81.6072 -104.349 55.9673 -81.4831 -104.997 55.2241 
-81.8263 -104.065 56.8631 -81.7602 -105.809 56.5193 -81.6898 -106.674 55.6434 
-82.0557 -105.477 57.3997 -82.2624 -105.425 58.407 -81.7914 -107.415 56.9801 
-81.881 -108.594 56.0925 -82.0724 -106.778 57.9843 -82.5196 -106.706 58.9517 
-82.5284 -106.733 60.0804 -81.7256 -109.36 57.6616 -81.7807 -110.509 57.0821 
-81.7799 -108.368 58.5175 -82.2047 -107.983 59.3718 -82.4545 -107.948 60.2667 
-82.1723 -107.885 61.2991 -81.642 -111.532 58.7022 -81.3813 -112.254 58.4411 
-81.6139 -110.615 59.172 -81.5521 -109.918 59.7507 -81.5849 -109.618 60.2793 
-81.3874 -109.387 60.8612 -80.9705 -109.152 61.5582 -81.5166 -113.537 59.7365 
-80.9611 -113.817 59.6539 -81.7678 -113.019 59.9105 -81.4554 -112.338 60.253 
-80.8839 -111.83 60.5955 -80.4113 -111.488 60.7843 -79.9956 -111.086 61.0114 
-79.626 -110.789 61.3823 -81.2513 -115.145 60.7179 -80.6308 -115.182 60.7339 
-81.7795 -114.959 60.7724 -81.7825 -114.465 61.0102 -81.1478 -113.883 61.3462 
-80.361 -113.536 61.5073 -79.7848 -113.267 61.5011 -79.3467 -112.92 61.576 
-78.9642 -112.686 61.7785 -80.9045 -116.462 61.8281 -80.3709 -116.4 61.8539 
-81.4331 -116.441 61.9054 -81.7602 -116.129 62.164 -81.6258 -115.56 62.5219 
-81.074 -115.129 62.7501 -80.4491 -114.991 62.7768 -79.9212 -114.868 62.7728 
-79.4277 -114.653 62.8499 -78.9563 -114.471 62.971 -79.0104 -115.94 64.5577 
-79.5232 -116.126 64.5321 -79.4932 -117.371 66.1409 -80.0864 -116.289 64.485 
-80.0266 -117.497 66.276 -79.9613 -118.554 67.8018 -80.652 -116.396 64.428 
-80.5848 -117.663 66.3234 -80.5292 -118.7 68.1036 -80.6921 -119.796 69.6073 
-81.2197 -116.463 64.4089 -81.2043 -117.895 66.267 -81.1494 -119.078 68.1493 
-81.3849 -120.149 69.7997 -81.5318 -121.376 71.118 -81.623 -116.739 64.3297 
-81.7253 -118.211 66.176 -81.8131 -119.606 67.9373 -82.0126 -120.728 69.5926 
-82.165 -121.836 71.0369 -82.0023 -122.908 72.3512 -81.6257 -117.288 64.0188 
-81.7559 -118.671 65.9748 -82.1238 -120.113 67.6367 -82.4072 -121.327 69.1544 
-82.465 -122.398 70.6922 -82.3606 -123.364 72.2944 -82.2577 -124.046 73.9597 
-81.3134 -117.721 63.5575 -81.3605 -119.096 65.523 -81.8058 -120.472 67.2815 
-82.2857 -121.722 68.7454 -82.3986 -122.896 70.2368 -82.3262 -123.959 71.9659 
-82.4019 -124.71 73.8594 -82.5854 -125.089 75.6342 -80.9155 -117.814 63.2044 
-80.9544 -119.249 64.9503 -81.2397 -120.588 66.7925 -81.7089 -121.812 68.4114 
-82.0169 -123.108 69.816 -82.1028 -124.406 71.3672 -82.2535 -125.403 73.2307 
-82.5442 -125.979 75.0804 -82.7222 -126.211 76.5619 -80.4792 -117.716 63.0587 
-80.6033 -119.169 64.5109 -80.762 -120.505 66.2375 -81.0222 -121.659 68.0259 
-81.3922 -122.967 69.482 -81.7389 -124.464 70.7135 -82.0011 -125.716 72.2624 
-82.2575 -126.524 74.078 -82.4569 -126.979 75.6362 -82.436 -127.157 76.7402 
-78.8958 -116.808 65.67 -79.3134 -118.279 67.1569 -78.7355 -117.732 66.6535 
-79.8783 -119.555 68.9224 -79.1039 -119.308 68.1094 -78.4594 -118.77 67.4924 
-80.6644 -121.012 70.8172 -79.7036 -120.676 70.0918 -78.8239 -120.288 69.1815 
-78.0476 -119.735 68.4147 -81.2766 -122.656 72.2836 -80.3512 -122.263 71.9273 
-79.4064 -121.642 71.2582 -78.448 -121.004 70.3953 -77.5493 -120.419 69.5037 
-81.7173 -123.811 73.9007 -80.8575 -123.67 73.5103 -79.9598 -123.218 72.9359 
-79.008 -122.418 72.2524 -77.9419 -121.618 71.4228 -76.9849 -120.953 70.4494 
-82.2719 -124.537 75.9442 -81.481 -124.276 75.6662 -80.4797 -124.155 74.8956 
-79.521 -123.807 73.9257 -78.47 -123.162 72.9326 -77.3414 -122.32 72.0057 
-76.3907 -121.47 71.0946 -82.6335 -125.459 77.362 -82.0517 -124.753 77.6789 
-81.0153 -124.339 77.2603 -79.9201 -124.185 76.1776 -78.9379 -124.123 74.6951 
-77.8584 -123.775 73.2819 -76.7401 -122.888 72.3377 -75.8322 -121.848 71.6173 
-82.4458 -126.547 77.6865 -82.0949 -125.69 78.4636 -81.254 -124.857 78.6891 
-80.139 -124.273 78.1344 -79.1605 -124.141 76.795 -78.2743 -124.31 74.9866 
-77.2136 -124.055 73.4888 -76.1404 -123.098 72.6869 -75.3108 -122.004 72.0946 
-81.856 -127.617 77.1509 -81.6783 -126.999 78.0858 -80.9987 -127.956 77.4056 
-80.6235 -127.368 78.2311 -80.0344 -128.215 77.5273 -81.1443 -126.125 78.7948 
-79.5159 -127.64 78.0954 -78.9647 -128.428 77.2491 -79.9438 -126.615 78.6228 
-80.1837 -125.198 78.8758 -78.323 -127.799 77.5501 -77.719 -128.639 76.5691 
-78.7135 -127.04 78.1229 -78.9612 -125.801 78.386 -79.1335 -124.496 78.1653 
-76.9475 -127.974 76.8672 -76.252 -128.948 76.0098 -77.448 -127.271 77.515 
-77.7717 -126.421 77.7083 -78.068 -125.115 77.5674 -78.3062 -124.358 76.6583 
-75.4293 -128.277 76.3651 -74.717 -129.191 75.7214 -76.1204 -127.435 76.9175 
-76.6205 -126.701 77.1296 -76.9793 -125.663 76.9537 -77.2843 -124.729 76.2234 
-77.3919 -124.415 74.861 -74.003 -128.37 75.8757 -73.5238 -128.981 75.3002 
-74.6816 -127.538 76.2969 -75.3417 -126.652 76.502 -75.7895 -125.693 76.4407 
-76.0632 -124.808 75.9152 -76.2348 -124.294 74.8238 -76.2518 -123.865 73.6188 
-72.9019 -127.989 75.2361 -72.7591 -128.355 74.5957 -73.242 -127.326 75.7051 
-73.7926 -126.415 75.8949 -74.3553 -125.429 75.8552 -74.7281 -124.608 75.5432 
-74.955 -124.032 74.785 -75.136 -123.487 73.8035 -75.258 -122.777 72.9352 
-72.0469 -127.422 74.5262 -72.0865 -127.714 73.8014 -72.0431 -126.884 75.1728 
-72.2757 -126.092 75.4802 -72.7959 -125.203 75.3578 -73.3683 -124.484 74.98 
-73.7803 -123.946 74.4111 -74.0787 -123.312 73.6884 -74.348 -122.515 72.9692 
-74.5645 -121.778 72.2094 -81.9675 -127.688 76.1188 -81.349 -128.108 76.4634 
-81.3295 -127.762 75.5108 -80.7886 -128.232 75.7149 -80.5618 -127.614 74.7044 
-80.5639 -128.497 76.6146 -80.0387 -128.18 74.6363 -79.715 -127.536 73.5041 
-80.0116 -128.779 75.5812 -79.5412 -128.862 76.5649 -79.003 -128.07 73.3517 
-78.8132 -127.417 72.2764 -79.051 -128.741 74.3398 -78.7234 -129.201 75.3905 
-78.2663 -129.166 76.1624 -77.8827 -127.825 72.3004 -77.8461 -126.938 71.3738 
-77.8356 -128.533 73.168 -77.5643 -129.095 74.2064 -77.25 -129.529 75.0886 
-76.8696 -129.505 75.5758 -76.9644 -127.281 71.3836 -76.9501 -126.1 70.5505 
-76.917 -128.312 72.0679 -76.6199 -129.001 72.8757 -76.2555 -129.564 73.8369 
-75.9026 -129.995 74.6036 -75.3456 -129.845 75.2097 -76.2941 -126.44 70.3052 
-76.2716 -125.19 69.5879 -76.363 -127.797 70.878 -76.1709 -128.889 71.4233 
-75.706 -129.585 72.1971 -75.1977 -130.072 73.2007 -74.6018 -130.19 74.1944 
-73.9794 -129.741 74.9381 -75.714 -125.504 69.2145 -75.742 -124.397 68.6059 
-75.7839 -126.831 69.7554 -75.7132 -128.157 70.2509 -75.3238 -129.135 70.8084 
-74.7778 -129.68 71.6465 -74.1847 -129.854 72.7766 -73.5841 -129.617 73.8065 
-73.1209 -129.049 74.3826 -75.1411 -124.63 68.2888 -75.2523 -123.711 67.6994 
-75.0676 -125.686 68.8737 -74.9393 -126.855 69.4615 -74.6362 -127.932 70.0011 
[...]
CELL_DATA 2000
SCALARS Distance double
LOOKUP_TABLE default
142.882 143.615 143.467 143.931 144.416 144.254 144.759 144.584 145.13 
145.265 145.075 145.586 145.432 146.047 145.92 146.663 146.224 145.98 
146.525 146.32 147.01 146.891 147.74 147.639 148.53 147.288 147.034 
147.672 147.405 148.161 147.97 148.9 148.789 149.761 149.603 150.507 
148.311 148.139 148.873 148.66 149.478 149.246 150.188 150.032 151.058 
150.897 151.858 151.625 152.523 149.233 149.155 149.994 149.885 150.805 
150.612 151.58 151.389 152.435 152.26 153.277 153.036 153.952 153.673 
154.526 150.208 150.145 151.129 151.056 152.107 151.964 153.007 152.816 
153.873 153.684 154.709 154.478 155.38 155.096 155.887 155.597 156.298 
151.357 151.27 152.362 152.283 153.395 153.291 154.365 154.224 155.253 
155.093 156.059 155.863 156.704 156.452 157.166 156.885 157.511 157.214 
157.75 142.343 141.65 142.323 143.01 141.062 141.648 142.382 143.071 
143.837 140.809 141.237 141.988 142.546 143.381 143.983 144.752 140.712 
141.134 141.908 142.334 143.15 143.64 144.446 144.955 145.711 140.54 
141.038 141.864 142.312 143.118 143.531 144.336 144.761 145.551 145.992 
146.758 140.388 140.874 141.73 142.222 143.079 143.527 144.413 144.809 
145.694 146.012 146.787 147.093 147.795 140.257 140.748 141.582 142.079 
142.959 143.468 144.456 144.953 145.979 146.324 147.132 147.277 147.839 
148.051 148.647 140.024 140.554 141.365 141.903 142.779 143.339 144.357 
144.965 146.052 146.569 147.395 147.613 148.029 148.11 148.471 148.795 
149.444 139.852 140.301 141.114 141.648 142.555 143.148 144.185 144.834 
145.913 146.523 147.347 147.703 148.062 148.171 148.359 148.577 149.065 
149.606 150.456 140.147 141.167 140.84 141.357 142.434 141.973 142.475 
142.186 142.849 143.839 143.3 143.807 143.442 144.147 143.843 144.585 
145.361 144.713 145.113 144.747 145.426 145.191 145.94 145.639 146.318 
147.058 146.286 146.526 146.002 146.532 146.323 146.982 146.835 147.374 
147.158 147.578 148.829 148.075 148.343 147.565 147.945 147.436 147.941 
147.695 148.088 147.912 148.11 147.989 148.12 150.447 149.877 150.329 
149.548 149.918 149.092 149.449 148.807 149.126 148.652 148.825 148.457 
148.556 148.338 148.469 151.828 151.443 152.02 151.476 151.923 151.145 
151.439 150.57 150.84 150.04 150.324 149.584 149.859 149.2 149.519 
149.008 149.385 153.079 152.768 153.379 153.017 153.544 152.994 153.35 
152.573 152.847 151.983 152.33 151.471 151.897 151.025 151.492 150.646 
151.156 150.406 150.936 152.171 152.49 152.976 154.234 152.86 153.348 
154.636 155.037 156.179 153.228 153.723 155.026 155.452 156.638 156.964 
158.126 153.604 154.075 155.411 155.867 157.143 157.488 158.739 159.05 
160.321 154.045 154.456 155.807 156.291 157.669 158.064 159.379 159.708 
160.982 161.283 162.444 154.43 154.851 156.122 156.667 158.054 158.571 
159.884 160.296 161.495 161.852 162.958 163.249 164.243 154.525 155.055 
156.184 156.829 158.107 158.786 160.027 160.607 161.717 162.193 163.241 
163.649 164.676 164.979 165.941 154.321 154.939 155.973 156.687 157.838 
158.613 159.756 160.491 161.544 162.191 163.206 163.78 164.816 165.305 
166.303 166.636 167.465 153.999 154.63 155.62 156.344 157.41 158.189 
159.234 160.026 161.027 161.811 162.809 163.558 164.562 165.246 166.197 
166.765 167.548 167.916 168.441 152.432 154.457 153.46 153.476 156.378 
155.46 155.495 154.508 154.506 158.347 157.386 157.475 156.503 156.531 
155.521 155.484 160.563 159.514 159.639 158.562 158.608 157.549 157.526 
156.471 156.382 162.682 161.763 161.907 160.832 160.847 159.7 159.62 
158.505 158.376 157.308 157.145 164.484 163.728 163.901 162.999 163.02 
161.943 161.81 160.635 160.415 159.272 159.03 157.972 157.726 166.187 
165.468 165.653 164.842 164.874 163.955 163.834 162.767 162.512 161.336 
161.007 159.845 159.511 158.451 158.143 167.694 167.112 167.252 166.513 
166.46 165.633 165.436 164.557 164.271 163.294 162.924 161.813 161.381 
160.24 159.824 158.786 158.436 168.64 168.344 168.404 167.894 167.727 
167.032 166.676 165.907 165.489 164.732 164.32 163.49 163.018 162.02 
161.489 160.434 159.949 158.989 158.6 168.939 169.059 168.982 168.742 
168.924 168.965 168.745 168.598 168.093 168.573 168.717 168.47 168.456 
167.946 167.729 167.007 167.946 168.205 167.95 168.071 167.569 167.457 
166.73 166.498 165.749 167.203 167.462 167.218 167.448 167.039 167.039 
166.37 166.173 165.441 165.251 164.579 166.532 166.731 166.464 166.692 
166.359 166.478 165.914 165.806 165.075 164.909 164.212 164.073 163.344 
165.764 166.027 165.685 165.923 165.517 165.726 165.16 165.23 164.479 
164.433 163.645 163.591 162.817 162.708 161.852 164.732 165.112 164.706 
165.015 164.486 164.75 164.095 164.297 163.538 163.65 162.848 162.889 
162.09 162.071 161.25 161.139 160.292 163.588 163.995 163.598 163.928 
163.385 163.633 162.97 163.168 162.471 162.639 161.953 162.05 161.338 
161.336 160.582 160.514 159.752 159.64 158.908 168.911 168.639 168.933 
169.039 168.015 168.527 168.755 168.973 168.953 167.112 167.785 168.123 
168.581 168.671 168.824 168.652 166.049 166.782 167.107 167.774 167.939 
168.377 168.291 168.411 168.073 164.901 165.659 165.921 166.636 166.799 
167.435 167.469 167.886 167.706 167.773 167.386 163.607 164.448 164.756 
165.472 165.662 166.275 166.396 166.953 166.99 167.326 167.137 167.131 
166.748 162.179 163.083 163.476 164.308 164.606 165.245 165.407 165.945 
166.053 166.541 166.507 166.767 166.465 166.452 165.972 160.787 161.642 
162.013 162.943 163.29 164.121 164.298 164.946 164.973 165.542 165.468 
165.946 165.676 165.936 165.449 165.499 164.909 159.531 160.281 160.547 
161.424 161.689 162.625 162.77 163.613 163.564 164.276 164.089 164.711 
164.411 164.898 164.452 164.743 164.186 164.303 163.718 154.107 154.83 
154.896 155.779 155.57 155.679 156.637 156.671 157.578 156.294 156.429 
157.408 157.506 158.43 158.467 159.344 157.018 157.158 158.123 158.238 
159.177 159.271 160.204 160.24 161.132 157.682 157.866 158.855 158.973 
159.968 160.058 161.098 161.151 162.173 162.118 163.012 158.215 158.472 
159.51 159.71 160.783 160.924 162.036 162.12 163.207 163.207 164.181 
164.041 164.841 158.616 158.925 159.951 160.279 161.37 161.674 162.773 
162.995 164.009 164.136 165.045 165.091 165.906 165.797 166.468 158.918 
159.244 160.194 160.592 161.623 162.073 163.115 163.511 164.433 164.708 
165.503 165.713 166.467 166.614 167.299 167.262 167.775 159.153 159.476 
160.36 160.753 161.716 162.189 163.176 163.652 164.537 164.921 165.675 
165.982 166.686 166.961 167.616 167.808 168.318 168.322 168.621 153.237 
152.129 153.067 153.87 150.994 151.932 152.686 153.686 154.537 149.805 
150.772 151.502 152.477 153.279 154.339 155.236 148.577 149.549 150.294 
151.28 152.046 153.07 153.944 155.051 155.969 147.43 148.321 149.035 
150.035 150.798 151.822 152.638 153.736 154.641 155.767 156.633 146.464 
147.226 147.847 148.764 149.5 150.533 151.34 152.421 153.282 154.405 
155.284 156.386 157.178 145.662 146.326 146.88 147.638 148.299 149.243 
150.065 151.129 152.015 153.087 153.962 155.036 155.873 156.913 157.641 
144.973 145.58 146.115 146.752 147.332 148.121 148.891 149.891 150.806 
151.865 152.755 153.779 154.615 155.635 156.413 157.379 158.029 144.354 
144.92 145.432 146.022 146.547 147.221 147.888 148.769 149.626 150.662 
151.548 152.582 153.395 154.404 155.175 156.165 156.863 157.761 158.327 
144.18 144.218 144.546 145.233 144.311 144.611 145.349 145.644 146.368 
144.566 144.805 145.612 145.857 146.682 146.899 147.745 144.927 145.155 
146.037 146.256 147.173 147.355 148.298 148.472 149.471 145.338 145.561 
146.495 146.743 147.723 147.933 148.916 149.099 150.122 150.32 151.361 
145.891 146.053 147.013 147.233 148.252 148.494 149.52 149.733 150.767 
150.974 152.027 152.216 153.216 146.579 146.706 147.689 147.835 148.867 
149.065 150.146 150.36 151.455 151.65 152.741 152.911 153.96 154.076 
155.025 147.29 147.433 148.434 148.564 149.584 149.742 150.827 151.033 
152.167 152.375 153.495 153.666 154.727 154.85 155.815 155.875 156.723 
147.984 148.14 149.136 149.287 150.28 150.447 151.492 151.714 152.822 
153.068 154.16 154.378 155.393 155.57 156.494 156.616 157.434 157.482 
158.188 148.711 150.253 149.608 149.877 151.915 151.21 151.476 150.787 
151.039 153.736 152.961 153.274 152.493 152.785 152.019 152.305 155.683 
154.883 155.281 154.446 154.812 153.931 154.249 153.389 153.683 157.564 
156.838 157.272 156.515 156.931 156.063 156.358 155.425 155.656 154.775 
155.005 159.247 158.629 159.038 158.408 158.813 158.093 158.352 157.484 
157.61 156.715 156.852 156.023 156.192 160.736 160.225 160.637 160.068 
160.461 159.836 160.124 159.359 159.495 158.613 158.701 157.835 157.964 
157.15 157.274 162.011 161.643 162.123 161.629 162.064 161.465 161.829 
161.114 161.37 160.515 160.67 159.738 159.845 158.937 159.018 158.169 
158.207 163.041 162.833 163.393 163.053 163.554 163.06 163.47 162.839 
163.157 162.404 162.624 161.744 161.842 160.874 160.867 159.918 159.864 
159.001 158.935 148.228 147.964 148.662 149.789 147.676 148.417 149.638 
150.313 151.481 147.442 148.183 149.502 150.217 151.526 152.115 153.323 
147.316 148.055 149.495 150.203 151.664 152.273 153.626 154.088 155.3 
147.196 147.982 149.491 150.267 151.809 152.499 153.961 154.479 155.754 
156.112 157.222 147.012 147.815 149.267 150.157 151.648 152.525 153.973 
154.72 156.015 156.531 157.626 157.958 158.918 146.869 147.584 148.927 
149.807 151.206 152.156 153.538 154.478 155.779 156.569 157.694 158.235 
159.179 159.53 160.369 146.841 147.433 148.685 149.463 150.823 151.686 
153.045 153.947 155.273 156.165 157.384 158.123 159.132 159.647 160.472 
160.843 161.578 146.913 147.399 148.553 149.247 150.566 151.365 152.703 
153.521 154.825 155.676 156.937 157.753 158.846 159.487 160.339 160.808 
161.505 161.904 162.545 147.186 145.502 146.509 146.854 143.82 144.794 
145.094 146.147 146.517 142.11 143.057 143.271 144.335 144.642 145.771 
146.19 140.369 141.238 141.292 142.377 142.584 143.786 144.133 145.408 
145.922 138.818 139.493 139.39 140.319 140.44 141.619 141.942 143.254 
143.745 145.138 145.746 137.589 138.103 138.02 138.633 138.76 139.638 
140.034 141.159 141.73 143.004 143.661 145.011 145.657 136.591 137.062 
137.165 137.61 137.856 138.395 138.875 139.637 140.306 141.273 142.01 
143.124 143.847 145.031 145.67 135.823 136.23 136.476 136.939 137.311 
137.783 138.293 138.847 139.503 140.2 140.933 141.775 142.518 143.476 
144.174 145.184 145.79 135.366 135.637 135.892 136.324 136.725 137.249 
137.747 138.319 138.901 139.532 140.182 140.886 141.573 142.363 143.059 
143.912 144.559 145.428 145.993 135.276 135.37 135.429 135.774 135.667 
135.632 135.989 136.072 136.591 136.211 136.078 136.434 136.381 136.878 
137.004 137.636 136.927 136.728 137.069 136.908 137.333 137.354 137.987 
138.142 138.836 137.823 137.512 137.817 137.573 137.938 137.858 138.451 
138.559 139.311 139.433 140.149 138.948 138.505 138.769 138.391 138.734 
138.524 139.096 139.103 139.88 139.981 140.777 140.823 141.544 140.111 
139.669 139.915 139.458 139.797 139.451 140.005 139.861 140.627 140.64 
141.483 141.519 142.311 142.29 143.014 141.117 140.76 141.013 140.611 
140.953 140.596 141.126 140.881 141.589 141.48 142.302 142.291 143.123 
143.106 143.861 143.791 144.483 142.03 141.707 141.974 141.638 141.987 
141.705 142.227 142.005 142.658 142.486 143.224 143.148 143.946 143.931 
144.693 144.639 145.31 145.224 145.864 142.651 143.643 142.948 142.594 
144.874 144.04 143.704 142.953 142.682 146.473 145.475 145.204 144.267 
144.051 143.217 143.045 148.352 147.272 147.047 145.979 145.775 144.785 
144.616 143.711 143.546 150.321 149.24 149.048 147.936 147.711 146.62 
146.391 145.378 145.178 144.251 144.101 152.354 151.27 151.146 150.005 
149.811 148.629 148.372 147.225 146.987 145.952 145.796 144.871 144.793 
154.367 153.344 153.272 152.159 152.021 150.815 150.6 149.339 149.099 
147.893 147.707 146.644 146.526 145.6 145.514 156.124 155.263 155.177 
154.209 154.063 152.989 152.802 151.621 151.405 150.145 149.91 148.678 
148.459 147.37 147.187 146.258 146.107 157.551 156.842 156.731 155.927 
155.748 154.852 154.647 153.671 153.462 152.377 152.123 150.915 150.605 
149.38 149.086 147.981 147.757 146.812 146.655 147.312 148.493 148.205 
148.959 149.903 149.534 150.357 150.07 150.984 151.459 151.052 151.857 
151.532 152.447 152.186 153.106 152.957 152.604 153.335 152.996 153.816 
153.592 154.522 154.298 155.198 154.261 154.011 154.742 154.42 155.174 
154.909 155.824 155.66 156.652 156.415 157.302 155.416 155.239 156.057 
155.81 156.635 156.322 157.211 156.979 157.976 157.813 158.744 158.47 
159.198 156.483 156.355 157.209 157.088 157.989 157.782 158.63 158.373 
159.207 159.043 159.871 159.734 160.415 160.153 160.652 157.434 157.364 
158.176 158.148 159.017 158.979 159.769 159.626 160.288 160.126 160.774 
160.683 161.312 161.181 161.688 161.422 161.804 158.245 158.239 159.014 
159.021 159.827 159.851 160.608 160.564 161.198 161.064 161.652 161.523 
162.145 162.025 162.601 162.395 162.849 162.524 162.866 139.08 139.199 
138.705 137.903 139.426 138.897 138.064 137.563 136.868 139.563 139.091 
138.325 137.826 137.149 136.691 136.201 139.733 139.242 138.528 138.083 
137.477 137.042 136.498 136.114 135.681 139.967 139.486 138.771 138.303 
137.663 137.281 136.681 136.332 135.743 135.475 135.047 140.166 139.747 
139.081 138.587 137.858 137.402 136.69 136.35 135.702 135.443 134.953 
134.825 134.634 140.507 140.04 139.518 138.978 138.312 137.687 136.953 
136.412 135.799 135.429 135.03 134.813 134.669 134.618 134.695 141.132 
140.577 140.172 139.58 139.072 138.344 137.731 136.965 136.456 135.831 
135.549 135.118 135.037 134.805 134.866 134.808 134.924 141.828 141.291 
140.904 140.34 139.906 139.23 138.714 137.943 137.495 136.773 136.517 
135.917 135.811 135.361 135.351 135.089 135.143 135.037 135.111 138.953 
137.739 138.414 138.747 136.671 137.202 137.526 138.396 139.06 136.001 
136.295 136.546 137.245 137.953 138.897 139.699 135.542 135.776 135.973 
136.449 137.068 137.872 138.731 139.613 140.352 135.028 135.317 135.554 
135.976 136.514 137.13 137.902 138.698 139.503 140.275 140.897 134.728 
134.9 135.223 135.587 136.161 136.666 137.387 138.006 138.794 139.495 
140.211 140.841 141.38 134.818 134.834 135.182 135.398 136.007 136.406 
137.157 137.633 138.407 138.949 139.703 140.264 140.9 141.386 141.905 
134.995 135.001 135.275 135.438 135.969 136.322 137.043 137.48 138.223 
138.675 139.385 139.871 140.532 141.001 141.58 141.998 142.546 135.118 
135.115 135.303 135.457 135.878 136.226 136.863 137.328 138.017 138.477 
139.115 139.571 140.184 140.66 141.252 141.705 142.27 142.694 143.255 
139.657 139.587 139.957 140.775 139.94 140.116 140.919 141.208 142.06 
140.495 140.574 141.291 141.46 142.273 142.585 143.498 141.046 141.103 
141.739 141.848 142.639 142.895 143.889 144.18 145.17 141.529 141.601 
142.234 142.315 143.115 143.33 144.394 144.697 145.803 145.985 146.948 
141.943 142.036 142.697 142.822 143.626 143.837 144.843 145.185 146.262 
146.577 147.518 147.707 148.571 142.409 142.454 143.115 143.265 144.053 
144.288 145.163 145.506 146.429 146.842 147.714 148.075 148.877 149.183 
150.012 143.044 143.002 143.656 143.725 144.487 144.665 145.464 145.726 
146.542 146.9 147.749 148.15 148.991 149.357 150.178 150.527 151.347 
143.768 143.706 144.345 144.338 145.048 145.129 145.88 146.037 146.824 
147.066 147.928 148.252 149.157 149.495 150.366 150.683 151.508 151.824 
152.616 147.051 146.339 146.255 145.383 145.641 145.542 144.646 144.57 
143.716 144.988 144.863 143.975 143.856 142.985 142.92 142.077 144.47 
144.281 143.422 143.24 142.38 142.243 141.422 141.32 140.484 144.095 
143.861 143.031 142.781 141.933 141.714 140.908 140.752 139.973 139.807 
139.018 143.781 143.538 142.735 142.462 141.619 141.341 140.512 140.298 
139.512 139.344 138.56 138.4 137.687 143.572 143.28 142.514 142.211 
141.402 141.083 140.265 139.973 139.177 138.931 138.131 137.93 137.172 
137.089 136.52 143.516 143.17 142.45 142.086 141.342 140.962 140.222 
139.845 139.125 138.75 138.009 137.637 136.906 136.643 136.068 136.028 
135.69 143.507 143.172 142.496 142.121 141.442 141.029 140.363 139.937 
139.302 138.867 138.221 137.738 137.07 136.611 136.055 135.775 135.445 
135.4 135.262 
POINT_DATA 1002
SCALARS Distance double
LOOKUP_TABLE default
143.308 142.351 142.989 144.106 143.753 144.382 144.907 144.591 145.268 
145.745 145.731 145.477 146.125 146.754 147.496 146.739 146.461 147.112 
147.801 148.671 149.425 147.912 147.503 148.374 149.003 149.898 150.716 
151.381 149.013 148.428 149.702 150.364 151.199 152.08 152.779 153.41 
150.029 149.25 150.942 151.773 152.606 153.503 154.25 154.83 155.34 
151.161 150.216 152.201 153.179 154.072 154.943 155.682 156.21 156.623 
156.933 152.438 151.419 153.49 154.495 155.423 156.268 156.967 157.465 
157.824 158.089 158.23 141.69 142.291 140.97 141.687 140.531 143.17 
141.497 140.401 142.783 144.192 141.508 140.23 142.723 143.948 145.201 
141.378 140.014 142.708 143.926 145.138 146.319 141.234 139.921 142.581 
143.949 145.367 146.583 147.465 141.091 139.761 142.424 143.875 145.546 
147.027 147.791 148.272 140.811 139.502 142.195 143.721 145.477 147.135 
148.026 148.278 148.871 140.592 139.463 141.942 143.531 145.306 146.96 
147.95 148.217 148.592 149.736 140.39 141.541 141.573 142.809 142.923 
143.079 144.172 144.427 144.442 144.922 145.543 146.118 145.628 146.211 
146.692 147.202 147.859 146.839 147.133 147.607 147.827 149.17 149.464 
148.66 148.343 148.352 148.311 148.198 151.001 150.881 150.818 150.279 
149.732 149.301 148.873 148.608 152.45 152.156 152.613 152.34 151.702 
151.091 150.583 150.124 149.832 153.699 153.384 153.991 154.033 153.68 
153.16 152.74 152.371 151.984 151.654 153.442 153.834 155.428 154.227 
155.851 157.259 154.576 156.281 157.785 159.336 154.913 156.749 158.402 
160.032 161.596 155.297 157.216 159.045 160.692 162.222 163.516 155.581 
157.491 159.456 161.153 162.643 164.01 165.204 155.556 157.419 159.414 
161.213 162.787 164.295 165.727 166.893 155.276 157.09 159.008 160.848 
162.575 164.26 165.896 167.29 168.216 154.918 156.67 158.472 160.224 
162.013 163.842 165.585 167.114 168.245 168.864 154.503 156.45 155.534 
158.45 157.527 156.535 160.758 159.712 158.589 157.457 162.937 162.028 
160.802 159.473 158.203 164.736 164.034 163 161.631 160.143 158.748 
166.469 165.761 164.834 163.672 162.235 160.644 159.141 167.977 167.315 
166.311 165.169 163.977 162.562 160.937 159.396 168.843 168.394 167.474 
166.246 165.057 163.934 162.562 160.97 159.483 169.114 168.993 169.075 
168.832 168.869 168.413 168.452 168.402 168.128 167.302 167.765 167.676 
167.637 166.945 165.947 166.95 166.987 166.944 166.54 165.629 164.751 
166.262 166.352 166.184 165.953 165.251 164.35 163.539 165.471 165.47 
165.327 165.042 164.488 163.7 162.889 162.024 164.398 164.329 164.25 
163.883 163.364 162.764 162.081 161.302 160.425 163.26 163.177 163.137 
162.769 162.261 161.793 161.307 160.629 159.818 159.013 168.756 168.93 
168.233 168.42 167.394 168.918 167.544 166.401 168.407 168.69 166.404 
165.345 167.375 168.04 168.147 165.231 164.13 166.132 166.895 167.475 
167.501 163.985 162.708 165.055 165.803 166.493 167.006 166.909 162.557 
161.273 163.886 164.88 165.543 166.129 166.391 166.097 161.095 159.992 
162.388 163.597 164.42 164.958 165.319 165.321 164.931 159.756 158.846 
160.79 161.891 162.822 163.452 163.859 164.057 163.979 163.65 154.021 
155.752 154.719 156.568 155.425 157.593 157.298 156.162 158.361 159.339 
158.016 156.879 159.059 160.117 161.16 158.705 157.466 159.846 161.002 
162.177 163.183 159.247 157.933 160.582 161.924 163.183 164.262 165.099 
159.598 158.319 161.011 162.518 163.879 164.964 165.912 166.708 159.816 
158.621 161.17 162.691 164.138 165.283 166.267 167.225 167.968 152.31 
152.873 151.209 151.719 150.057 153.469 150.543 148.82 152.247 154.125 
149.289 147.625 151.054 152.842 154.869 148.053 146.616 149.767 151.577 
153.501 155.557 147.014 145.765 148.478 150.259 152.188 154.16 156.136 
146.205 145.021 147.428 148.996 150.944 152.915 154.813 156.672 145.518 
144.384 146.629 147.945 149.736 151.74 153.613 155.421 157.148 144.861 