# vtk DataFile Version 4.0
vtk output
ASCII
DATASET POLYDATA
POINTS 1002 float
-77.752 -108.346 63.4563 -78.2692 -107.234 62.7467 -78.6184 -107.747 62.8566 
-78.0594 -109.006 63.649 -79.0196 -108.351 63.069 -77.1874 -109.861 64.0989 
-78.3594 -109.826 63.8356 -79.4438 -108.991 63.3753 -77.4077 -110.759 64.2945 
-76.6758 -111.667 64.8682 -78.5462 -110.778 63.928 -79.6248 -109.842 63.5949 
-77.6211 -111.815 64.4384 -76.854 -112.863 65.0115 -76.358 -113.722 65.8149 
-78.4978 -112.014 63.9305 -79.5065 -111.017 63.6674 -77.7742 -112.95 64.5727 
-77.176 -114.039 65.267 -76.6501 -115.061 66.0109 -76.3002 -115.886 66.8594 
-78.5362 -113.398 64.101 -79.3924 -112.309 63.7349 -77.9374 -114.276 64.817 
-77.5894 -115.166 65.699 -77.1902 -116.185 66.4913 -76.764 -117.071 67.2864 
-76.3741 -117.849 68.0032 -78.9208 -114.592 64.5445 -79.416 -113.565 63.8871 
-78.419 -115.566 65.31 -78.0581 -116.425 66.1834 -77.7817 -117.305 67.0658 
-77.3839 -118.12 67.9056 -76.9419 -118.87 68.6194 -76.4764 -119.612 69.1098 
-79.4178 -115.648 65.111 -79.5878 -114.76 64.257 -79.126 -116.61 65.9683 
-78.6693 -117.583 66.7516 -78.316 -118.512 67.5639 -77.9949 -119.288 68.4403 
-77.5805 -119.953 69.2278 -77.141 -120.656 69.7421 -76.6825 -121.296 70.0704 
-79.9238 -116.69 65.7926 -80.0126 -115.819 64.9802 -79.7642 -117.588 66.6433 
-79.3567 -118.536 67.4308 -78.934 -119.506 68.1881 -78.632 -120.376 68.9707 
-78.2778 -121.081 69.7415 -77.8681 -121.708 70.3605 -77.4635 -122.271 70.7797 
-77.0402 -122.667 71.1276 -80.5306 -117.633 66.5905 -80.6407 -116.737 65.9054 
-80.3636 -118.519 67.3205 -80.0476 -119.403 68.1016 -79.6924 -120.291 68.9094 
-79.4112 -121.161 69.6634 -79.0836 -121.965 70.3412 -78.6673 -122.625 70.9843 
-78.2744 -123.085 71.5662 -77.8948 -123.365 72.0439 -77.4746 -123.523 72.4322 
-78.9445 -106.735 61.8641 -79.3879 -107.22 61.9738 -79.6255 -106.346 60.8717 
-80.2621 -106.715 61.1258 -80.4675 -105.791 60.1423 -79.986 -107.665 62.3645 
-81.2822 -106.124 60.5289 -81.5349 -105.119 59.5969 -81.0394 -107.036 61.7484 
-80.5911 -108.12 62.9941 -82.3551 -105.551 59.9731 -82.6209 -104.518 58.9642 
-82.0491 -106.578 61.1314 -81.7168 -107.456 62.5969 -80.8477 -108.853 63.5055 
-83.3589 -104.945 59.4825 -83.5392 -103.898 58.3703 -83.0015 -106.223 60.4952 
-82.6682 -107.213 61.923 -82.0434 -108.186 63.2931 -80.7042 -109.978 63.6575 
-84.2244 -104.375 59.1318 -84.269 -103.344 57.7632 -83.9746 -105.751 60.1853 
-83.6007 -107.061 61.3308 -83.1193 -108.04 62.8369 -81.9654 -109.357 63.5837 
-80.3635 -111.403 63.517 -84.7906 -104.253 58.4994 -84.6993 -103.197 56.9242 
-84.7775 -105.512 59.8748 -84.5209 -106.799 61.0229 -84.1049 -107.951 62.4877 
-83.2014 -109.19 63.536 -81.5323 -110.903 63.4512 -80.0524 -112.905 63.4053 
-84.931 -104.59 57.5807 -84.7483 -103.514 56.1105 -85.1271 -105.771 59.1067 
-85.1175 -106.836 60.4263 -84.8061 -107.843 61.9577 -84.1371 -109.033 63.3716 
-82.7592 -110.583 63.6014 -81.0533 -112.385 63.2737 -80.0683 -114.179 63.7496 
-84.7986 -105.071 56.8526 -84.5978 -104.126 55.6431 -85.073 -106.158 58.2575 
-85.2808 -107.137 59.5709 -85.1331 -107.994 61.0139 -84.5741 -108.968 62.5965 
-83.5465 -110.272 63.3977 -82.0984 -111.855 63.3078 -80.8903 -113.54 63.5434 
-80.4762 -115.202 64.5997 -84.6037 -105.41 56.0728 -84.8114 -106.284 57.3392 
-84.6806 -106.749 56.589 -84.8738 -107.473 57.9316 -84.7018 -108.175 57.1135 
-85.1283 -107.245 58.6911 -84.8814 -108.934 58.5599 -84.5959 -109.783 57.756 
-85.1222 -108.382 59.351 -85.2332 -108.187 60.0244 -84.681 -110.647 59.1182 
-84.3747 -111.373 58.5384 -84.8382 -109.825 59.9865 -84.8547 -109.385 60.6363 
-84.7467 -109.137 61.465 -84.1788 -112.18 59.6019 -83.8588 -112.737 59.397 
-84.1697 -111.313 60.2793 -84.0182 -110.692 60.9721 -83.8453 -110.439 61.595 
-83.7545 -110.266 62.5552 -83.3745 -113.602 60.4121 -82.9411 -114.055 60.5368 
-83.3735 -112.8 60.6623 -83.1071 -112.077 61.2153 -82.7976 -111.839 61.6576 
-82.6303 -111.743 62.2191 -82.5227 -111.688 62.9434 -82.4847 -115.299 61.86 
-81.9986 -115.57 62.0435 -82.6994 -114.738 61.8405 -82.6269 -114.025 62.1737 
-82.3192 -113.662 62.5298 -81.9444 -113.559 62.75 -81.7334 -113.376 63.1179 
-81.4627 -113.332 63.4672 -81.8885 -117.152 63.5465 -81.4763 -117.203 63.5384 
-82.259 -116.985 63.5752 -82.5431 -116.549 63.7981 -82.5533 -116.062 64.1598 
-82.142 -115.787 64.3435 -81.672 -115.507 64.4332 -81.3947 -115.174 64.6072 
-81.0251 -115.076 64.6791 -81.7476 -118.753 64.9101 -81.402 -118.695 64.6841 
-82.1559 -118.856 65.1037 -82.6677 -118.805 65.2819 -83.08 -118.427 65.5791 
-82.9558 -117.962 65.8729 -82.3566 -117.625 65.9846 -81.8547 -117.268 66.0543 
-81.5472 -116.913 66.1307 -81.1435 -116.748 66.0699 -81.2637 -118.216 67.1912 
-81.7772 -118.412 67.3233 -81.8565 -119.668 68.3091 -82.1901 -118.736 67.2881 
-82.4146 -119.959 68.3355 -82.3987 -121.006 69.4519 -82.704 -119.031 67.1715 
-83.0043 -120.214 68.2298 -83.0452 -121.275 69.5023 -82.9258 -122.408 70.8784 
-83.4569 -119.28 67.0207 -83.7895 -120.312 68.0482 -83.7778 -121.403 69.4442 
-83.5814 -122.634 71.0357 -83.4388 -123.801 72.5964 -83.8944 -119.75 66.7194 
-84.4839 -120.591 67.6732 -84.4749 -121.534 69.1499 -84.1425 -122.784 70.9848 
-83.9793 -123.994 72.7206 -84.0179 -124.674 74.5491 -83.5514 -120.242 66.4323 
-84.4713 -121.149 67.2412 -84.7406 -122.004 68.5572 -84.4347 -123.15 70.5694 
-84.2573 -124.296 72.5714 -84.4064 -125.001 74.4766 -84.6031 -125.054 76.5124 
-82.8338 -120.307 66.3239 -83.7973 -121.396 67.1393 -84.3963 -122.445 68.1169 
-84.3661 -123.703 69.8902 -84.2842 -124.833 72.0753 -84.5036 -125.546 74.1269 
-84.7786 -125.766 76.1315 -84.9277 -125.527 78.0401 -82.2298 -120.116 66.15 
-83.0104 -121.245 67.1705 -83.7192 -122.44 68.0694 -83.9863 -123.945 69.37 
-84.0697 -125.289 71.3074 -84.3439 -126.056 73.461 -84.6558 -126.445 75.4821 
-84.8346 -126.529 77.3256 -84.8999 -126.262 78.881 -81.7864 -120.009 65.7956 
-82.366 -121.134 66.9408 -82.9992 -122.289 68.0253 -83.4215 -123.803 69.1237 
-83.6272 -125.343 70.5919 -83.8898 -126.265 72.5507 -84.2145 -126.701 74.6295 
-84.4449 -127.062 76.4623 -84.5914 -127.221 77.9541 -84.6434 -127.013 79.1188 
-81.0988 -119.121 67.8516 -81.6524 -120.534 69.0818 -80.8359 -120.037 68.6049 
-82.2084 -121.977 70.4632 -81.4287 -121.521 69.9777 -80.563 -120.955 69.4845 
-82.7305 -123.507 72.1983 -81.9858 -123.071 71.5858 -81.213 -122.502 70.981 
-80.3187 -121.83 70.3764 -83.3453 -124.526 74.4199 -82.483 -124.322 73.8158 
-81.682 -123.919 72.9249 -80.8925 -123.327 72.0358 -79.9833 -122.674 71.1578 
-84.1339 -124.705 76.7976 -83.2734 -124.678 76.4912 -82.2747 -124.695 75.5594 
-81.3628 -124.468 74.3159 -80.4575 -124.015 73.0357 -79.519 -123.408 71.8823 
-84.7473 -124.78 78.6771 -84.1697 -124.582 78.6787 -83.231 -124.865 77.9316 
-82.1564 -125.035 76.7317 -81.0671 -124.846 75.339 -80.0131 -124.422 73.9039 
-79.0733 -123.831 72.6119 -84.9061 -125.32 79.7655 -84.595 -124.835 80.0527 
-83.9103 -125.084 79.4602 -82.9449 -125.435 78.3396 -81.8072 -125.342 77.1428 
-80.6251 -124.952 75.9075 -79.5676 -124.48 74.5827 -78.6746 -123.963 73.2483 
-84.7058 -126.127 80.1145 -84.4825 -125.464 80.7659 -83.9363 -125.507 80.5696 
-83.1351 -125.862 79.557 -82.1482 -125.833 78.3118 -81.0439 -125.432 77.2077 
-79.9812 -124.95 76.1608 -79.0563 -124.471 74.9921 -78.2283 -124.019 73.688 
-84.295 -127.222 79.5628 -84.1324 -126.404 80.5745 -83.5588 -127.514 79.6253 
-83.0937 -126.904 80.5618 -82.4063 -128.036 79.4235 -83.6343 -126.029 81.1771 
-81.7593 -127.655 80.0806 -81.0443 -128.719 79.2267 -82.3917 -126.667 81.08 
-82.8838 -126.179 80.8227 -80.3007 -128.449 79.4934 -79.5633 -129.327 79.1372 
-81.0036 -127.266 80.3268 -81.5593 -126.503 80.6569 -81.9804 -126.207 79.6189 
-78.685 -129.038 79.1836 -78.0453 -129.863 78.8453 -79.4326 -127.798 79.4467 
-80.1261 -126.685 79.8759 -80.6243 -126.222 79.4046 -80.9715 -125.914 78.2198 
-77.2121 -129.438 78.8368 -76.8343 -130.341 78.125 -77.7501 -128.209 79.0027 
-78.4928 -126.997 79.0942 -79.208 -126.401 78.8279 -79.6964 -126.111 77.9407 
-79.9735 -125.542 77.0458 -76.2353 -129.662 78.0304 -75.9786 -130.522 77.1994 
-76.4953 -128.501 78.501 -76.9722 -127.321 78.6222 -77.7462 -126.663 78.3207 
-78.4637 -126.426 77.5357 -78.8928 -125.873 76.7265 -79.0806 -125.046 76.0159 
-75.5057 -129.645 76.9964 -75.1675 -130.355 76.3474 -75.7499 -128.66 77.5267 
-75.9917 -127.589 77.862 -76.523 -126.803 77.7679 -77.2687 -126.438 77.1311 
-77.8404 -126.001 76.3478 -78.1342 -125.212 75.6942 -78.2471 -124.475 74.8587 
-74.7243 -129.449 76.1142 -74.335 -130.036 75.6203 -75.0793 -128.635 76.4902 
-75.3433 -127.74 76.7783 -75.6882 -126.931 76.8372 -76.2368 -126.312 76.4931 
-76.7962 -125.784 75.8892 -77.1676 -125.148 75.2809 -77.3662 -124.476 74.5584 
-77.4558 -123.957 73.5499 -84.2315 -127.783 78.4587 -83.8332 -128.108 78.7083 
-83.5978 -128.151 77.8171 -83.1458 -128.633 77.9606 -82.7726 -128.164 77.0921 
-83.0218 -128.472 78.6975 -82.231 -128.737 77.0875 -81.8377 -128.043 76.0416 
-82.2669 -129.077 77.972 -81.7966 -128.925 78.6982 -81.1569 -128.557 75.8991 
-80.8781 -127.832 74.8765 -81.2738 -129.214 76.9668 -80.9947 -129.415 77.9792 
-80.3568 -129.355 78.7392 -80.1194 -128.251 74.7766 -79.9912 -127.526 73.858 
-80.1981 -129.059 75.6693 -80.0178 -129.564 76.6712 -79.5185 -129.705 77.6315 
-78.8069 -129.834 78.4107 -79.299 -127.968 73.7165 -79.2501 -127.199 72.7597 
-79.3397 -128.821 74.4972 -79.1544 -129.509 75.2711 -78.697 -129.919 76.015 
-78.0796 -130.272 76.7793 -77.4167 -130.52 77.5956 -78.6447 -127.646 72.4481 
-78.6189 -126.772 71.5529 -78.7087 -128.547 73.2355 -78.5584 -129.288 74.0336 
-78.1187 -129.847 74.7763 -77.5675 -130.466 75.3089 -76.9772 -131.006 75.9395 
-76.4066 -131.039 76.7175 -78.0127 -127.063 71.2759 -78.0282 -126.146 70.5255 
-78.0737 -128.047 71.9444 -77.9796 -128.895 72.6669 -77.6037 -129.497 73.564 
-77.1433 -130.156 74.291 -76.6648 -130.926 74.7487 -76.0722 -131.287 75.338 
-75.5145 -131.01 75.9944 -77.392 -126.238 70.4171 -77.4842 -125.42 69.7013 
-77.3888 -127.208 71.0165 -77.3025 -128.203 71.5259 -76.9815 -128.969 72.2055 
[...]
CELL_DATA 2000
SCALARS Distance double
LOOKUP_TABLE default
146.325 147.019 146.849 147.293 147.822 147.621 148.103 147.946 148.537 
148.647 148.455 148.981 148.831 149.49 149.353 150.129 149.491 149.301 
149.884 149.755 150.519 150.403 151.272 151.134 152.063 150.45 150.249 
150.947 150.771 151.651 151.527 152.51 152.371 153.351 153.182 154.124 
151.52 151.356 152.22 152.012 152.98 152.795 153.847 153.686 154.709 
154.513 155.454 155.235 156.093 152.663 152.546 153.547 153.384 154.401 
154.205 155.246 155.073 156.105 155.901 156.846 156.594 157.46 157.178 
157.961 153.921 153.795 154.865 154.734 155.773 155.603 156.612 156.451 
157.464 157.291 158.245 158.003 158.871 158.58 159.373 159.036 159.731 
155.276 155.126 156.188 156.054 157.08 156.93 157.917 157.77 158.758 
158.613 159.566 159.372 160.236 159.977 160.749 160.436 161.105 160.738 
161.3 145.918 145.567 146.005 146.582 145.292 145.697 146.291 146.737 
147.376 145.134 145.495 146.122 146.514 147.175 147.591 148.229 145.054 
145.403 146.059 146.418 147.106 147.472 148.123 148.465 149.072 144.953 
145.34 146.027 146.398 147.123 147.473 148.16 148.444 149.02 149.306 
149.926 144.81 145.246 146.015 146.409 147.212 147.556 148.336 148.591 
149.211 149.355 149.866 150.151 150.839 144.671 145.152 146.046 146.473 
147.362 147.707 148.573 148.858 149.601 149.698 150.187 150.21 150.712 
151.055 151.854 144.574 145.071 146.053 146.548 147.483 147.87 148.714 
149.072 149.858 150.102 150.642 150.63 150.983 151.042 151.632 152.1 
153.036 144.605 145.03 146.003 146.529 147.466 147.925 148.713 149.114 
149.817 150.204 150.752 150.947 151.249 151.297 151.68 151.955 152.735 
153.347 154.383 145.025 146.147 145.801 146.353 147.341 146.935 147.412 
147.177 147.764 148.645 148.161 148.581 148.238 148.754 148.514 149.004 
149.997 149.501 149.847 149.412 149.79 149.474 149.868 149.637 150.049 
151.141 150.745 150.919 150.518 150.65 150.357 150.537 150.362 150.631 
150.548 150.865 152.109 151.75 151.842 151.408 151.4 151.043 151.105 
150.892 151.063 150.976 151.223 151.195 151.384 153.277 152.818 153.117 
152.5 152.704 152.038 152.311 151.734 152.097 151.639 152.025 151.695 
152.048 151.766 152.013 154.785 154.262 154.866 154.18 154.761 153.903 
154.519 153.593 154.238 153.319 153.921 153.085 153.642 152.935 153.446 
152.806 153.253 156.381 155.925 156.669 156.134 156.919 156.233 157.009 
156.154 156.862 155.873 156.478 155.446 156 155.034 155.597 154.717 
155.268 154.444 154.961 156.21 156.597 157.021 158.185 156.993 157.442 
158.659 158.977 160.031 157.435 157.865 159.1 159.445 160.536 160.803 
161.862 157.945 158.347 159.55 159.874 160.967 161.285 162.384 162.694 
163.834 158.364 158.841 160.01 160.316 161.349 161.678 162.768 163.157 
164.306 164.673 165.765 158.466 159.112 160.26 160.68 161.642 162.005 
163.039 163.474 164.612 165.055 166.157 166.501 167.429 158.224 158.994 
160.092 160.711 161.639 162.15 163.137 163.664 164.789 165.302 166.424 
166.836 167.812 168.061 168.813 157.825 158.595 159.625 160.351 161.277 
161.946 162.926 163.606 164.71 165.366 166.461 167.005 167.966 168.36 
169.134 169.337 169.896 157.446 158.146 159.128 159.837 160.772 161.487 
162.47 163.24 164.305 165.095 166.112 166.821 167.678 168.279 168.988 
169.449 170.002 170.245 170.606 156.398 158.321 157.345 157.285 160.151 
159.233 159.194 158.223 158.151 162.033 161.093 161.134 160.152 160.133 
159.103 159.019 164.077 163.107 163.218 162.183 162.223 161.154 161.104 
159.999 159.885 166.041 165.191 165.34 164.336 164.372 163.293 163.242 
162.122 161.989 160.857 160.683 167.657 167.004 167.172 166.358 166.393 
165.411 165.337 164.247 164.087 162.948 162.721 161.588 161.336 168.951 
168.428 168.571 167.968 168.031 167.272 167.213 166.262 166.07 164.986 
164.694 163.569 163.237 162.137 161.809 169.985 169.565 169.652 169.182 
169.239 168.693 168.649 167.93 167.695 166.787 166.393 165.385 164.938 
163.914 163.487 162.481 162.09 170.687 170.415 170.444 170.101 170.113 
169.721 169.656 169.13 168.849 168.133 167.651 166.819 166.278 165.405 
164.895 164 163.537 162.633 162.21 170.929 170.999 170.921 170.708 
170.825 170.88 170.77 170.675 170.423 170.559 170.642 170.559 170.632 
170.461 170.347 169.97 170.267 170.339 170.142 170.278 170.052 170.162 
169.753 169.677 169.082 169.881 169.973 169.617 169.713 169.305 169.508 
169.044 169.18 168.561 168.539 167.824 169.389 169.503 169.064 169.086 
168.529 168.653 168.172 168.362 167.849 167.913 167.276 167.209 166.495 
168.78 168.94 168.479 168.489 167.884 167.902 167.407 167.553 167.164 
167.271 166.765 166.706 166.048 165.903 165.176 167.993 168.231 167.771 
167.859 167.269 167.284 166.744 166.849 166.441 166.609 166.154 166.202 
165.564 165.468 164.731 164.584 163.839 167.085 167.367 166.933 167.1 
166.555 166.636 166.081 166.174 165.677 165.839 165.334 165.481 164.857 
164.891 164.161 164.096 163.349 163.239 162.514 171.004 170.93 171.08 
171.082 170.488 170.89 171.01 171.053 170.914 169.657 170.304 170.583 
170.888 170.856 170.84 170.668 168.545 169.318 169.661 170.28 170.388 
170.661 170.545 170.569 170.387 167.388 168.136 168.455 169.207 169.397 
169.959 169.908 170.222 170.052 170.194 169.982 166.3 167.001 167.321 
168.028 168.269 168.886 168.922 169.382 169.278 169.635 169.514 169.72 
169.505 165.185 165.912 166.239 166.948 167.215 167.829 167.942 168.418 
168.423 168.824 168.828 169.162 169.096 169.234 168.958 163.982 164.74 
165.037 165.81 166.057 166.754 166.874 167.448 167.491 167.991 168.042 
168.479 168.469 168.752 168.542 168.611 168.194 162.759 163.489 163.731 
164.521 164.739 165.502 165.608 166.282 166.295 166.93 166.937 167.549 
167.502 167.984 167.763 168.037 167.642 167.73 167.248 157.589 158.328 
158.39 159.23 159.016 159.131 160.01 160.047 160.881 159.626 159.799 
160.763 160.86 161.785 161.769 162.643 160.243 160.414 161.421 161.597 
162.61 162.701 163.662 163.621 164.513 160.901 161.057 162.048 162.241 
163.259 163.452 164.432 164.551 165.452 165.455 166.263 161.498 161.693 
162.666 162.865 163.854 164.056 165.003 165.186 166.047 166.192 166.985 
167.053 167.758 161.94 162.202 163.142 163.411 164.364 164.607 165.519 
165.713 166.542 166.693 167.468 167.614 168.367 168.442 169.072 162.229 
162.542 163.423 163.762 164.651 164.984 165.838 166.13 166.93 167.149 
167.912 168.081 168.842 168.981 169.669 169.685 170.153 162.411 162.751 
163.592 163.952 164.786 165.147 165.934 166.292 167.045 167.391 168.144 
168.446 169.186 169.413 170.068 170.186 170.645 170.598 170.807 156.633 
155.391 156.471 157.366 154.119 155.186 156.082 157.181 158.028 152.919 
153.885 154.704 155.833 156.707 157.803 158.618 151.82 152.671 153.376 
154.443 155.329 156.465 157.36 158.418 159.255 150.815 151.577 152.216 
153.163 154.043 155.142 156.118 157.202 158.12 159.115 159.947 149.939 
150.624 151.246 152.075 152.911 153.932 154.931 156.018 156.992 158.011 
158.874 159.814 160.573 149.174 149.808 150.392 151.144 151.89 152.828 
153.762 154.844 155.835 156.896 157.789 158.747 159.516 160.402 161.064 
148.443 149.05 149.58 150.287 150.949 151.799 152.629 153.654 154.61 
155.709 156.634 157.653 158.44 159.345 160.005 160.839 161.402 147.747 
148.31 148.814 149.475 150.11 150.876 151.639 152.541 153.419 154.463 
155.376 156.448 157.265 158.238 158.903 159.766 160.319 161.122 161.608 
147.528 147.628 147.904 148.626 147.889 148.13 148.945 149.166 149.988 
148.294 148.513 149.43 149.622 150.521 150.667 151.551 148.853 149.025 
149.99 150.176 151.117 151.27 152.187 152.324 153.289 149.517 149.656 
150.603 150.764 151.704 151.87 152.815 152.979 153.975 154.148 155.192 
150.159 150.303 151.213 151.374 152.322 152.491 153.499 153.658 154.708 
154.861 155.919 156.077 157.078 150.768 150.9 151.786 151.955 152.932 
153.139 154.24 154.432 155.557 155.674 156.718 156.81 157.762 157.873 
158.724 151.387 151.505 152.397 152.547 153.552 153.768 154.914 155.179 
156.35 156.535 157.553 157.618 158.479 158.531 159.322 159.405 160.137 
151.963 152.116 153.035 153.199 154.218 154.421 155.539 155.815 156.958 
157.228 158.237 158.377 159.195 159.232 159.962 160 160.712 160.766 
161.435 152.544 153.929 153.385 153.723 155.5 154.902 155.308 154.674 
155.004 157.171 156.541 156.981 156.345 156.742 156.035 156.366 158.994 
158.293 158.761 158.079 158.522 157.82 158.187 157.44 157.755 160.966 
160.218 160.712 159.956 160.413 159.661 160.041 159.268 159.55 158.784 
158.996 162.863 162.181 162.634 161.914 162.321 161.576 161.92 161.137 
161.378 160.564 160.7 159.898 159.956 164.483 163.938 164.336 163.716 
164.059 163.385 163.661 162.94 163.138 162.359 162.455 161.611 161.614 
160.761 160.729 165.757 165.385 165.806 165.303 165.659 165.036 165.283 
164.582 164.739 164.014 164.107 163.327 163.328 162.459 162.39 161.513 
161.458 166.685 166.502 166.976 166.652 167.043 166.553 166.79 166.143 
166.242 165.539 165.599 164.892 164.914 164.13 164.061 163.19 163.078 
162.222 162.145 152.071 151.717 152.374 153.391 151.382 152.042 153.126 
153.818 154.953 151.154 151.77 152.897 153.592 154.805 155.474 156.65 
151.084 151.637 152.753 153.396 154.627 155.341 156.596 157.237 158.459 
151.108 151.655 152.758 153.303 154.484 155.164 156.46 157.178 158.501 
159.142 160.425 151.052 151.677 152.803 153.336 154.471 155.074 156.362 
157.068 158.467 159.183 160.576 161.177 162.402 150.887 151.551 152.673 
153.299 154.418 155.055 156.311 157.014 158.404 159.152 160.58 161.289 
162.578 163.089 164.096 150.766 151.355 152.426 153.08 154.187 154.899 
156.125 156.9 158.223 159.024 160.363 161.172 162.424 163.121 164.13 
164.594 165.352 150.774 151.251 152.255 152.84 153.923 154.616 155.818 
156.616 157.889 158.721 159.954 160.795 161.939 162.758 163.734 164.409 
165.154 165.634 166.221 151.23 149.876 150.651 150.835 148.417 149.248 
149.402 150.214 150.435 146.837 147.728 147.88 148.723 148.898 149.798 
150.128 145.228 146.133 146.306 147.163 147.288 148.179 148.442 149.49 
149.963 143.61 144.503 144.71 145.609 145.745 146.567 146.707 147.691 
148.077 149.3 149.874 142.092 142.839 142.967 143.945 144.176 145.076 
145.223 146.033 146.266 147.327 147.84 149.164 149.773 141.012 141.437 
141.384 142.168 142.4 143.43 143.779 144.672 144.954 145.74 146.143 
147.183 147.807 149.073 149.688 140.4 140.614 140.528 140.873 141.003 
141.747 142.205 143.207 143.754 144.609 145.076 145.825 146.385 147.327 
148.01 149.105 149.715 139.921 140.173 140.257 140.398 140.532 140.793 
141.16 141.828 142.47 143.394 144.057 144.884 145.464 146.216 146.847 
147.699 148.364 149.285 149.859 139.669 139.696 139.872 140.207 139.925 
140.033 140.451 140.448 140.632 140.301 140.31 140.747 140.78 141.046 
140.901 141.167 140.923 140.744 141.117 141.112 141.461 141.362 141.672 
141.622 142.257 141.832 141.478 141.775 141.595 141.96 141.831 142.209 
142.148 142.775 142.932 143.808 142.855 142.449 142.696 142.378 142.702 
142.465 142.87 142.742 143.377 143.469 144.349 144.53 145.359 143.83 
143.45 143.666 143.319 143.612 143.314 143.725 143.518 144.154 144.14 
145.024 145.14 146.036 146.073 146.809 144.723 144.382 144.608 144.272 
144.588 144.275 144.721 144.468 145.109 145.002 145.858 145.894 146.803 
146.829 147.616 147.558 148.262 145.558 145.252 145.52 145.217 145.591 
145.298 145.795 145.53 146.167 145.998 146.785 146.751 147.599 147.614 
148.388 148.363 149.049 149.004 149.68 146.106 147.081 146.417 146.138 
148.346 147.543 147.303 146.562 146.318 149.954 148.988 148.784 147.903 
147.708 146.864 146.635 151.892 150.787 150.589 149.552 149.368 148.406 
148.205 147.278 147.075 153.949 152.834 152.632 151.491 151.265 150.179 
149.959 148.948 148.757 147.812 147.69 155.892 154.859 154.665 153.553 
153.304 152.158 151.903 150.791 150.575 149.553 149.413 148.496 148.439 
157.726 156.743 156.562 155.517 155.294 154.193 153.959 152.816 152.585 
151.457 151.261 150.24 150.117 149.233 149.167 159.481 158.551 158.396 
157.39 157.204 156.153 155.959 154.867 154.647 153.509 153.261 152.142 
151.929 150.925 150.787 149.913 149.819 161.051 160.239 160.111 159.198 
159.037 158.049 157.857 156.818 156.574 155.496 155.206 154.11 153.827 
152.766 152.55 151.576 151.436 150.554 150.459 151.125 152.146 151.93 
152.582 153.308 153.044 153.757 153.512 154.267 154.588 154.285 155.051 
154.788 155.626 155.35 156.208 155.955 155.62 156.394 156.129 157.035 
156.795 157.729 157.417 158.301 157.371 157.042 157.832 157.52 158.444 
158.225 159.219 158.964 159.867 159.516 160.337 158.716 158.474 159.312 
158.999 159.887 159.644 160.624 160.419 161.327 161.031 161.816 161.473 
162.235 159.893 159.764 160.627 160.416 161.243 161.026 161.895 161.735 
162.589 162.385 163.12 162.846 163.533 163.264 163.944 160.916 160.859 
161.71 161.606 162.404 162.25 163.018 162.879 163.631 163.5 164.177 
164 164.61 164.416 165.015 164.812 165.347 161.802 161.795 162.616 
162.588 163.386 163.304 164.045 163.912 164.577 164.435 165.03 164.903 
165.456 165.34 165.884 165.753 166.257 166.055 166.45 143.794 143.725 
143.371 142.742 143.878 143.429 142.785 142.452 141.911 144.118 143.667 
143.042 142.609 141.964 141.599 140.937 144.312 143.913 143.295 142.874 
142.182 141.705 140.917 140.513 139.854 144.411 144.056 143.407 143.044 
142.375 141.934 141.211 140.671 140.023 139.609 139.243 144.518 144.144 
143.494 143.112 142.487 142.112 141.545 141.084 140.553 140.032 139.613 
139.238 139.015 144.746 144.332 143.756 143.292 142.712 142.288 141.788 
141.419 140.956 140.55 140.065 139.649 139.231 138.972 138.763 145.076 
144.659 144.178 143.689 143.169 142.655 142.148 141.705 141.229 140.849 
140.366 139.989 139.547 139.206 138.947 138.764 138.783 145.45 145.046 
144.626 144.175 143.72 143.203 142.718 142.177 141.697 141.192 140.773 
140.327 140.035 139.633 139.514 139.171 139.244 139.041 139.29 143.756 
142.686 143.278 143.598 141.806 142.291 142.509 143.225 143.695 140.833 
141.39 141.568 142.202 142.579 143.356 143.849 139.782 140.338 140.598 
141.272 141.667 142.34 142.795 143.527 144.023 139.154 139.449 139.746 
140.34 140.844 141.497 141.988 142.614 143.123 143.8 144.368 138.941 
139.075 139.32 139.697 140.215 140.767 141.325 141.891 142.412 143.018 
143.613 144.286 144.929 138.785 138.92 139.178 139.444 139.93 140.324 
140.906 141.354 141.924 142.415 143.023 143.616 144.296 144.937 145.584 
138.874 138.876 139.225 139.392 139.914 140.186 140.779 141.107 141.719 
142.088 142.73 143.174 143.863 144.393 145.069 145.619 146.201 139.369 
139.21 139.593 139.606 140.143 140.284 140.866 141.089 141.691 141.993 
142.642 143.01 143.69 144.099 144.755 145.195 145.779 146.235 146.744 
144.511 144.425 144.859 145.72 144.595 144.952 145.834 146.168 147.002 
144.734 145.14 146.038 146.375 147.169 147.462 148.285 144.809 145.198 
146.049 146.481 147.25 147.6 148.353 148.745 149.602 145.074 145.293 
146.059 146.426 147.203 147.594 148.344 148.753 149.574 150.031 150.823 
145.597 145.661 146.358 146.538 147.32 147.619 148.445 148.78 149.596 
149.981 150.773 151.157 151.835 146.208 146.23 146.877 146.942 147.672 
147.87 148.727 149.004 149.844 150.102 150.852 151.138 151.857 152.17 
152.902 146.769 146.812 147.432 147.476 148.131 148.261 149.034 149.301 
150.122 150.388 151.119 151.325 152.034 152.281 153.087 153.395 154.293 
147.265 147.325 147.939 148.003 148.631 148.714 149.388 149.577 150.319 
150.597 151.336 151.592 152.324 152.561 153.39 153.669 154.604 154.919 
155.868 151.176 150.6 150.541 149.821 149.943 149.893 149.111 149.097 
148.322 149.266 149.182 148.313 148.292 147.449 147.492 146.697 148.575 
148.469 147.557 147.485 146.613 146.598 145.776 145.832 145.068 147.907 
147.769 146.883 146.777 145.951 145.859 145.06 144.993 144.219 144.238 
143.506 147.403 147.189 146.366 146.198 145.441 145.3 144.551 144.404 
143.656 143.539 142.843 142.791 142.148 147.104 146.837 146.103 145.846 
145.146 144.909 144.192 143.975 143.259 143.087 142.447 142.32 141.769 
141.649 141.168 146.943 146.661 146.006 145.715 145.061 144.749 144.048 
143.728 143.021 142.769 142.151 142.001 141.48 141.374 140.908 140.821 
140.451 146.903 146.595 145.979 145.673 145.033 144.713 144.024 143.673 
142.97 142.639 142.008 141.773 141.232 141.089 140.582 140.507 140.055 
140.086 139.783 
POINT_DATA 1002
SCALARS Distance double
LOOKUP_TABLE default
146.686 145.842 146.45 147.415 147.196 147.782 148.255 148.02 148.644 
149.189 149.094 148.833 149.599 150.232 150.97 149.984 149.665 150.579 
151.384 152.205 153.018 151.105 150.587 151.756 152.622 153.526 154.325 
155.032 152.381 151.596 153.177 154.01 154.911 155.69 156.349 156.899 
153.665 152.731 154.598 155.43 156.3 157.104 157.745 158.288 158.696 
154.991 154.044 155.941 156.782 157.625 158.469 159.162 159.708 160.123 
160.374 156.344 155.442 157.231 158.068 158.904 159.746 160.486 161.063 
161.477 161.717 161.809 145.465 146.104 145.134 145.856 144.89 146.916 
145.741 144.773 146.774 147.84 145.698 144.695 146.743 147.805 148.728 
145.63 144.536 146.758 147.873 148.805 149.535 145.576 144.32 146.842 
148.039 149.1 149.733 150.339 145.562 144.135 147.004 148.244 149.439 
150.268 150.569 151.238 145.519 144.072 147.08 148.366 149.536 150.603 
151.063 151.328 152.336 145.502 144.242 146.99 148.331 149.443 150.477 
151.182 151.512 152.207 153.665 145.333 146.571 146.541 147.695 147.789 
147.973 149.002 149.148 149.05 149.24 150.356 150.492 150.187 150.136 
150.231 151.39 151.545 151.016 150.754 150.726 150.943 152.318 152.469 
151.823 151.366 151.201 151.268 151.467 153.675 153.693 153.365 152.931 
152.641 152.455 152.358 152.325 155.424 155.244 155.506 155.421 155.212 
154.866 154.448 154.127 153.89 157.109 156.794 157.477 157.778 157.833 
157.544 157.026 156.529 156.137 155.779 157.409 157.875 159.272 158.315 
159.786 161.036 158.751 160.234 161.588 162.964 159.264 160.636 162.034 
163.533 165.009 159.717 161.048 162.366 163.908 165.48 166.81 159.787 
161.277 162.604 164.152 165.78 167.216 168.265 159.419 161.07 162.571 
164.242 165.979 167.516 168.708 169.47 158.892 160.564 162.199 164.01 
165.883 167.525 168.861 169.839 170.384 158.437 160.055 161.699 163.513 
165.396 167.06 168.455 169.653 170.516 170.921 158.282 160.146 159.156 
162.1 161.157 160.086 164.26 163.295 162.22 161.008 166.307 165.458 
164.366 163.141 161.818 167.902 167.315 166.414 165.238 163.886 162.462 
169.125 168.693 168.092 167.141 165.837 164.363 162.888 170.105 169.73 
169.297 168.561 167.387 165.959 164.496 163.079 170.76 170.469 170.14 
169.535 168.455 167.114 165.763 164.429 163.105 171.109 170.897 170.995 
170.754 170.733 170.662 170.445 170.504 170.484 170.24 170.075 170.226 
169.911 169.764 169.259 169.623 169.798 169.158 168.851 168.521 167.906 
169.092 169.282 168.482 167.953 167.716 167.316 166.609 168.449 168.613 
167.898 167.276 166.994 166.785 166.198 165.339 167.634 167.735 167.232 
166.679 166.28 166.052 165.626 164.869 163.986 166.732 166.79 166.436 
166 165.566 165.187 164.766 164.179 163.435 162.629 170.986 171.147 
170.659 170.865 169.94 171.02 170.107 168.926 170.78 170.772 168.924 
167.787 169.955 170.433 170.435 167.698 166.68 168.747 169.494 169.802 
169.926 166.626 165.596 167.64 168.422 168.854 169.183 169.44 165.515 
164.445 166.58 167.428 167.98 168.439 168.867 168.985 164.261 163.241 
165.336 166.258 166.939 167.555 168.134 168.408 168.237 162.964 162.072 
163.968 164.915 165.652 166.298 166.96 167.413 167.47 167.221 157.537 
159.198 158.25 159.945 158.854 160.89 160.599 159.428 161.747 162.72 
161.216 160.085 162.449 163.637 164.632 161.872 160.747 163.059 164.272 
165.388 166.339 162.461 161.288 163.666 164.837 165.902 166.855 167.766 
162.86 161.675 164.107 165.32 166.404 167.326 168.228 169.111 163.092 
161.921 164.32 165.527 166.67 167.72 168.693 169.607 170.292 155.568 
156.311 154.297 154.954 153.111 156.982 153.596 152.058 155.566 157.575 
152.366 151.044 154.17 156.254 158.254 151.328 150.079 152.958 155.004 
157.099 159.009 150.47 149.274 151.943 153.837 155.954 157.927 159.687 
149.686 148.568 151.025 152.707 154.744 156.811 158.631 160.232 148.902 
147.863 150.156 151.67 153.514 155.574 157.519 159.174 160.612 148.17 