# vtk DataFile Version 4.0
vtk output
ASCII
DATASET POLYDATA
POINTS 1002 float
-78.1073 -104.911 58.3856 -78.2798 -103.748 57.417 -78.697 -104.061 57.749 
-78.55 -105.388 58.7498 -79.0956 -104.739 57.9223 -77.9238 -106.213 59.4945 
-78.8743 -106.27 58.8723 -79.5436 -105.694 58.0247 -78.3336 -106.922 59.812 
-77.641 -107.76 60.5135 -79.0663 -107.404 58.9221 -79.901 -106.616 58.3423 
-78.5072 -108.024 59.9137 -77.9273 -108.766 60.8015 -77.2467 -109.635 61.471 
-79.2018 -108.507 59.2087 -80.0388 -107.629 58.7594 -78.598 -109.256 60.1018 
-78.0749 -110.011 61.0781 -77.4827 -110.826 61.9014 -76.9128 -111.626 62.6618 
-79.4713 -109.654 59.6865 -80.1567 -108.974 59.0728 -78.9439 -110.357 60.6264 
-78.414 -111.169 61.5981 -77.8343 -111.99 62.4652 -77.2991 -112.736 63.3171 
-76.8002 -113.441 64.1137 -79.9169 -110.821 60.3496 -80.488 -110.232 59.6305 
-79.4993 -111.416 61.3375 -79.0218 -112.173 62.3436 -78.3959 -113.009 63.1807 
-77.8488 -113.745 64.0346 -77.3825 -114.404 64.9049 -76.8557 -115.047 65.5959 
-80.4293 -111.738 61.3017 -80.972 -111.058 60.5922 -79.9543 -112.446 62.1244 
-79.5149 -113.208 63.0719 -78.9522 -114.008 63.9531 -78.3955 -114.747 64.7961 
-77.9691 -115.387 65.6846 -77.5022 -115.959 66.4602 -76.9341 -116.491 67.0159 
-80.952 -112.509 62.2887 -81.4122 -111.784 61.5576 -80.3841 -113.375 62.959 
-79.8711 -114.244 63.7644 -79.4146 -115.026 64.6936 -78.9473 -115.716 65.6266 
-78.5148 -116.348 66.5182 -78.0867 -116.898 67.2934 -77.5752 -117.351 67.8999 
-77.0245 -117.75 68.3575 -81.4296 -113.379 63.0561 -81.7284 -112.695 62.2857 
-80.9344 -114.24 63.7437 -80.3996 -115.134 64.5243 -79.9824 -115.919 65.4518 
-79.6192 -116.568 66.427 -79.1876 -117.154 67.3533 -78.7012 -117.706 68.1208 
-78.2012 -118.165 68.7009 -77.6941 -118.52 69.1777 -77.1985 -118.814 69.5772 
-78.752 -102.769 56.8177 -79.1803 -103.196 57.0377 -79.2676 -101.94 56.1857 
-79.8091 -102.506 56.3026 -79.8451 -101.396 55.3491 -79.7332 -103.98 57.1667 
-80.4841 -102.003 55.4365 -80.4945 -100.997 54.3102 -80.5262 -103.232 56.5203 
-80.446 -104.768 57.5462 -81.1479 -101.568 54.4721 -81.2617 -100.585 53.3359 
-81.1785 -102.626 55.784 -81.3546 -103.723 57.2743 -80.9477 -105.447 58.2512 
-81.9917 -101.085 53.6817 -82.1227 -100.19 52.5661 -81.7976 -102.231 54.9251 
-81.9737 -103.047 56.7258 -81.8854 -104.307 58.2045 -81.0188 -106.625 58.6553 
-82.981 -100.532 53.0833 -82.9128 -99.8645 51.7859 -82.719 -101.777 54.2532 
-82.6225 -102.77 55.9154 -82.5706 -103.681 57.7066 -81.9272 -105.714 58.4638 
-81.0023 -108.312 58.7204 -83.7364 -100.161 52.2957 -83.4769 -99.7309 50.8543 
-83.6255 -101.263 53.6626 -83.4314 -102.454 55.2377 -83.2288 -103.395 57.0081 
-82.6504 -105.085 58.031 -81.8052 -107.597 58.3502 -81.2133 -109.689 59.1552 
-84.0743 -100.304 51.2687 -83.7737 -99.9806 49.9825 -84.0502 -101.203 52.7858 
-83.9473 -102.318 54.5243 -83.8059 -103.275 56.369 -83.2791 -104.733 57.6092 
-82.4497 -107.029 58.0062 -81.8148 -109.172 58.6209 -81.5317 -110.614 60.0116 
-84.1291 -100.945 50.3977 -83.8778 -100.651 49.4018 -84.0695 -101.722 51.8291 
-84.0175 -102.703 53.623 -84.0842 -103.555 55.5725 -83.8182 -104.747 57.1195 
-83.0616 -106.759 57.7817 -82.3029 -108.89 58.1916 -81.892 -110.412 59.2762 
-81.7613 -111.55 60.8611 -84.0802 -101.802 49.5819 -84.0268 -102.355 50.8084 
-84.0739 -103.288 50.2248 -83.8904 -103.874 51.8135 -84.0283 -104.776 51.3853 
-83.8998 -103.241 52.5252 -84.0107 -105.25 53.0364 -84.0596 -106.277 52.6128 
-83.9822 -104.602 53.5995 -84.079 -104.08 54.4787 -84.1525 -106.897 54.0412 
-83.9768 -107.977 53.7304 -84.1997 -105.958 54.591 -84.263 -105.482 55.3375 
-84.1734 -105.086 56.3076 -84.0037 -109.037 55.13 -83.6552 -109.678 55.0628 
-84.134 -107.986 55.5516 -84.1798 -107.258 56.157 -84.0624 -107.036 56.8695 
-83.6345 -106.889 57.4731 -83.723 -111.098 56.4968 -83.2475 -111.101 56.5937 
-83.9974 -110.542 56.75 -83.9899 -109.663 57.218 -83.7686 -109.202 57.6488 
-83.3362 -109.164 57.9175 -82.779 -109.063 58.0429 -83.3447 -112.593 57.8596 
-82.8241 -112.279 58.0602 -83.8706 -112.665 57.9631 -84.0681 -112.127 58.3723 
-83.7779 -111.4 58.7613 -83.2064 -111.099 58.8834 -82.6066 -111.007 58.8487 
-82.1682 -110.724 58.9535 -82.7938 -113.626 59.2236 -82.381 -113.328 59.4576 
-83.3831 -113.931 59.1999 -83.9165 -113.835 59.512 -83.9673 -113.251 59.9635 
-83.4849 -112.714 60.2407 -82.7915 -112.522 60.2656 -82.2338 -112.321 60.279 
-81.9465 -111.913 60.5108 -82.3051 -114.521 60.6735 -82.0091 -114.316 60.8121 
-82.7547 -114.757 60.6535 -83.3617 -114.818 60.8666 -83.8271 -114.504 61.2536 
-83.8527 -113.99 61.6532 -83.419 -113.689 61.9079 -82.7702 -113.608 61.9639 
-82.2547 -113.411 61.9846 -81.9715 -113.033 62.1196 -81.9242 -114.126 63.4725 
-82.3171 -114.436 63.5356 -82.1941 -115.51 64.8516 -82.896 -114.594 63.6685 
-82.8132 -115.642 65.1116 -82.4171 -116.726 66.4131 -83.6427 -114.579 63.7015 
-83.6844 -115.593 65.3179 -83.1639 -116.822 66.632 -82.569 -118.087 67.8542 
-84.1104 -114.716 63.4265 -84.4138 -115.644 65.1473 -84.0313 -116.874 66.6888 
-83.2684 -118.329 68.0338 -82.7823 -119.611 69.2556 -84.0038 -115.165 63.0022 
-84.4731 -116.099 64.6221 -84.4709 -117.258 66.3013 -83.883 -118.557 68.1187 
-83.3479 -119.889 69.6605 -82.9245 -120.974 70.9538 -83.4906 -115.6 62.6565 
-84.0026 -116.688 64.2033 -84.3035 -117.981 65.6679 -84.0835 -119.137 67.6942 
-83.8132 -120.205 69.8176 -83.4577 -121.281 71.4007 -82.8915 -122.107 72.7655 
-82.8595 -115.743 62.382 -83.391 -116.983 63.9946 -83.8625 -118.456 65.2857 
-83.8888 -119.783 66.9907 -83.9507 -120.827 69.2626 -84.011 -121.748 71.2635 
-83.5926 -122.5 72.8687 -83.041 -122.884 74.4204 -82.338 -115.658 62.1885 
-82.7821 -116.988 63.7681 -83.3015 -118.465 65.1137 -83.4399 -119.877 66.5652 
-83.6064 -121.156 68.5106 -84.0554 -122.261 70.5235 -84.1485 -122.968 72.3432 
-83.798 -123.223 74.17 -83.5032 -123.204 75.8781 -81.9706 -115.481 62.1157 
-82.2375 -116.85 63.512 -82.6638 -118.291 64.8668 -82.8509 -119.581 66.3215 
-82.9701 -120.818 68.0748 -83.4481 -122.155 69.8614 -83.9136 -123.174 71.5344 
-83.9791 -123.507 73.3955 -83.9149 -123.433 75.3677 -83.8767 -123.335 76.9795 
-81.6167 -114.9 64.3011 -81.837 -116.288 65.8911 -81.1654 -115.747 65.2304 
-82.0022 -117.578 67.5997 -81.4633 -117.067 67.0838 -80.743 -116.564 66.2606 
-82.2078 -119.051 69.0431 -81.6539 -118.403 68.7703 -81.0806 -117.882 68.0907 
-80.3793 -117.301 67.224 -82.4605 -120.532 70.5978 -81.8431 -119.887 70.2452 
-81.1371 -119.345 69.6071 -80.5433 -118.749 68.8229 -79.912 -117.958 68.1194 
-82.4893 -121.733 72.5759 -82.0972 -121.165 72.1793 -81.3025 -120.746 71.3784 
-80.4383 -120.331 70.3662 -79.8699 -119.508 69.608 -79.3195 -118.544 68.9486 
-82.506 -122.529 74.5941 -82.2794 -121.942 74.4621 -81.792 -121.513 73.8066 
-80.7472 -121.408 72.5724 -79.8115 -120.97 71.3344 -79.2616 -120.012 70.4235 
-78.7467 -119.028 69.5875 -82.9224 -122.895 76.3294 -82.5138 -122.293 76.4735 
-82.183 -121.66 76.2077 -81.3612 -121.521 75.234 -80.1793 -121.593 73.7105 
-79.3232 -121.161 72.2426 -78.7886 -120.292 71.0745 -78.2459 -119.382 70.088 
-83.4729 -123.097 77.6093 -82.8403 -122.572 77.9311 -82.2657 -121.807 77.9711 
-81.5956 -121.328 77.4663 -80.5616 -121.408 76.1899 -79.5276 -121.512 74.4874 
-78.864 -121.153 72.895 -78.3467 -120.445 71.6037 -77.7643 -119.631 70.5392 
-83.7349 -123.495 78.0927 -83.1541 -123.169 78.6784 -82.8521 -123.802 78.5998 
-81.9755 -123.347 79.1939 -81.2753 -123.944 78.645 -82.2451 -122.48 79.0087 
-80.3947 -123.46 79.2315 -79.7136 -124.077 78.5527 -80.9951 -122.626 79.5041 
-81.4198 -121.692 78.9523 -78.9545 -123.791 78.9323 -78.4278 -124.847 78.3765 
-79.6775 -122.917 79.2831 -80.233 -121.999 79.1576 -80.5607 -121.35 78.1285 
-77.4838 -124.616 78.4502 -77.2048 -125.872 77.9751 -78.278 -123.368 78.613 
-79.0263 -122.474 78.5865 -79.3819 -121.736 78.0257 -79.542 -121.448 76.5641 
-76.2191 -125.283 77.7964 -76.1867 -126.172 77.2113 -76.7713 -123.914 77.9066 
-77.6224 -122.861 77.8204 -78.1726 -122.15 77.4841 -78.4784 -121.648 76.4835 
-78.7456 -121.437 74.7742 -75.5088 -125.349 76.8412 -75.3949 -125.919 76.131 
-75.8471 -124.271 77.0438 -76.4494 -123.198 77.0224 -76.9997 -122.434 76.8374 
-77.4201 -121.83 76.1527 -77.8713 -121.407 74.808 -78.2226 -121.036 73.1381 
-74.9078 -125.221 75.7384 -74.5856 -125.765 75.0238 -75.3563 -124.416 75.935 
-75.8305 -123.515 75.9298 -76.1861 -122.713 75.9009 -76.4918 -121.976 75.5093 
-76.9293 -121.366 74.5082 -77.3939 -120.904 73.137 -77.6633 -120.357 71.7509 
-74.1419 -125.164 74.7741 -73.7946 -125.742 74.1109 -74.6778 -124.46 74.9158 
-75.2096 -123.687 74.8065 -75.5339 -122.907 74.7763 -75.7309 -122.094 74.6028 
-76.0444 -121.324 73.9035 -76.4807 -120.74 72.8066 -76.8394 -120.217 71.6471 
-77.0463 -119.567 70.562 -83.7756 -123.553 76.7599 -83.335 -123.874 77.6248 
-83.0047 -123.827 76.0024 -82.3535 -124.205 76.612 -82.0717 -124.073 74.863 
-82.1639 -124.207 77.8287 -81.3939 -124.374 75.3273 -81.386 -124.142 73.6413 
-81.1556 -124.41 76.7121 -80.5624 -124.286 77.7428 -80.6161 -124.359 73.9888 
-80.6104 -123.957 72.4739 -80.2579 -124.49 75.4354 -79.8161 -124.574 76.6189 
-79.2531 -124.726 77.668 -79.6799 -124.195 72.6443 -79.6323 -123.575 71.3269 
-79.4046 -124.534 74.0354 -79.0969 -124.854 75.2418 -78.8515 -125.309 76.404 
-78.2309 -125.794 77.4525 -78.7865 -123.894 71.3268 -78.9093 -123.153 70.1388 
-78.5207 -124.408 72.6468 -78.2944 -124.946 73.7577 -78.2337 -125.535 74.7787 
-77.9629 -126.069 75.9271 -77.152 -126.396 76.8505 -78.2745 -123.542 69.9855 
-78.4934 -122.746 68.8951 -77.9004 -124.072 71.3012 -77.5754 -124.671 72.4178 
-77.4367 -125.429 73.2013 -77.2809 -125.924 74.0733 -76.8129 -126.162 75.0512 
-76.0615 -126.229 75.797 -77.9626 -123.133 68.6182 -78.0917 -122.224 67.6949 
-77.5869 -123.713 69.8406 -77.1172 -124.207 71.0549 -76.7972 -125.061 71.8417 
-76.5387 -125.868 72.4119 -76.1542 -126.148 73.0906 -75.6203 -126.182 73.8429 
-75.0335 -126.104 74.5564 -77.6112 -122.53 67.3948 -77.6367 -121.525 66.6571 
-77.3462 -123.299 68.3774 -76.8351 -123.784 69.5358 -76.3845 -124.499 70.4716 
[...]
CELL_DATA 2000
SCALARS Distance double
LOOKUP_TABLE default
141.665 142.37 142.294 142.916 143.251 143.093 143.744 143.644 144.303 
144.232 144.032 144.67 144.541 145.248 145.111 145.816 145.228 145.018 
145.669 145.521 146.281 146.137 146.922 146.739 147.53 146.346 146.077 
146.804 146.606 147.449 147.272 148.141 147.935 148.789 148.567 149.412 
147.641 147.323 148.114 147.864 148.77 148.553 149.467 149.232 150.114 
149.877 150.744 150.501 151.327 148.952 148.672 149.461 149.221 150.113 
149.912 150.821 150.593 151.467 151.224 152.096 151.854 152.693 152.408 
153.158 150.177 149.955 150.745 150.531 151.392 151.214 152.116 151.925 
152.809 152.579 153.45 153.211 154.052 153.776 154.519 154.186 154.83 
151.35 151.166 151.987 151.788 152.649 152.468 153.376 153.203 154.111 
153.909 154.777 154.548 155.36 155.103 155.819 155.511 156.125 155.778 
156.327 141.051 140.415 141.032 141.722 139.947 140.48 141.191 141.816 
142.622 139.599 140.093 140.818 141.383 142.214 142.829 143.658 139.312 
139.775 140.488 141.038 141.859 142.47 143.314 143.887 144.67 139.159 
139.542 140.243 140.728 141.534 142.116 142.973 143.56 144.382 144.92 
145.746 139.101 139.449 140.158 140.569 141.381 141.862 142.721 143.251 
144.114 144.658 145.533 146.084 147.002 139.01 139.378 140.086 140.517 
141.337 141.79 142.631 143.082 143.92 144.422 145.307 145.875 146.805 
147.38 148.3 138.965 139.282 139.983 140.419 141.253 141.74 142.601 
143.039 143.863 144.294 145.15 145.663 146.578 147.151 148.061 148.633 
149.507 139.15 139.33 140.027 140.363 141.215 141.668 142.588 143.033 
143.922 144.314 145.192 145.599 146.499 146.965 147.856 148.378 149.25 
149.806 150.661 139.6 140.738 140.205 140.452 142.12 141.465 141.696 
141.215 141.64 143.632 142.92 143.137 142.568 142.982 142.536 143.029 
145.236 144.494 144.686 144.042 144.433 143.943 144.437 143.97 144.418 
146.92 146.207 146.464 145.685 146.042 145.433 145.956 145.45 145.943 
145.378 145.761 148.53 147.981 148.468 147.663 148.076 147.234 147.728 
147.058 147.589 146.979 147.382 146.729 147.06 149.867 149.543 150.217 
149.692 150.247 149.436 149.863 148.998 149.418 148.68 149.062 148.375 
148.677 148.016 148.346 150.958 150.745 151.403 151.2 151.823 151.397 
151.816 151.094 151.374 150.565 150.857 150.094 150.4 149.672 149.994 
149.329 149.712 151.998 151.76 152.338 152.194 152.806 152.639 153.129 
152.733 153.041 152.404 152.67 151.932 152.252 151.484 151.836 151.075 
151.45 150.752 151.144 152.163 152.548 152.868 153.893 152.971 153.308 
154.385 154.65 155.632 153.373 153.74 154.85 155.158 156.165 156.374 
157.32 153.701 154.084 155.184 155.583 156.628 156.903 157.884 158.093 
159.087 153.922 154.317 155.348 155.832 156.916 157.314 158.35 158.647 
159.692 159.925 160.939 153.903 154.388 155.355 155.92 157.031 157.542 
158.647 159.058 160.166 160.504 161.574 161.776 162.699 153.58 154.186 
155.146 155.829 156.959 157.595 158.724 159.265 160.41 160.9 162.043 
162.378 163.35 163.469 164.24 153.152 153.781 154.756 155.515 156.639 
157.4 158.479 159.167 160.241 160.943 162.085 162.694 163.701 164.022 
164.776 164.876 165.483 152.811 153.386 154.333 155.074 156.149 156.955 
157.962 158.725 159.664 160.491 161.523 162.414 163.4 164.077 164.789 
165.167 165.69 165.906 166.371 152.28 153.989 153.081 152.972 155.729 
154.844 154.775 153.812 153.688 157.442 156.593 156.607 155.674 155.606 
154.583 154.452 159.228 158.354 158.406 157.507 157.495 156.525 156.418 
155.368 155.2 161.082 160.208 160.259 159.331 159.303 158.366 158.271 
157.292 157.117 156.075 155.855 162.819 162.039 162.126 161.22 161.192 
160.203 160.095 159.1 158.928 157.923 157.685 156.659 156.393 164.321 
163.67 163.78 163.015 163.027 162.11 162.004 160.977 160.779 159.725 
159.459 158.423 158.114 157.11 156.794 165.581 165.055 165.133 164.508 
164.486 163.769 163.631 162.781 162.52 161.545 161.2 160.168 159.793 
158.774 158.4 157.424 157.064 166.556 166.19 166.24 165.709 165.588 
164.989 164.755 164.113 163.781 163.038 162.622 161.761 161.314 160.379 
159.946 158.986 158.574 157.628 157.24 167.005 167.33 167.107 166.708 
167.054 167.177 166.818 166.573 165.984 166.386 166.671 166.438 166.463 
165.93 165.696 165.066 165.92 166.023 165.847 165.977 165.58 165.509 
164.909 164.7 164.057 165.784 165.688 165.334 165.39 165.022 165.082 
164.545 164.443 163.788 163.612 162.919 165.459 165.461 164.893 164.862 
164.347 164.451 163.955 163.989 163.367 163.269 162.587 162.415 161.671 
164.669 164.892 164.335 164.334 163.725 163.77 163.269 163.35 162.801 
162.785 162.136 162.037 161.331 161.137 160.348 163.693 164.006 163.59 
163.695 163.14 163.171 162.655 162.707 162.173 162.185 161.546 161.514 
160.816 160.732 159.974 159.783 158.97 162.82 163.103 162.769 162.941 
162.456 162.549 162.018 162.092 161.515 161.543 160.865 160.856 160.131 
160.123 159.388 159.323 158.546 158.384 157.6 167.036 166.818 167.178 
167.369 166.143 166.721 166.956 167.245 167.084 165.292 165.912 166.126 
166.592 166.495 166.698 166.384 164.339 164.995 165.167 165.678 165.67 
166.021 165.942 166.102 166.002 163.179 163.927 164.108 164.691 164.76 
165.226 165.355 165.719 165.902 166.025 166.039 161.947 162.7 162.924 
163.584 163.717 164.309 164.487 165.065 165.296 165.769 165.845 165.993 
165.736 160.837 161.525 161.764 162.411 162.575 163.221 163.39 164.064 
164.2 164.853 164.831 165.351 165.079 165.315 164.815 159.771 160.461 
160.696 161.311 161.45 162.068 162.224 162.901 163.042 163.667 163.635 
164.145 163.92 164.333 163.971 164.216 163.756 158.622 159.36 159.611 
160.256 160.372 160.952 161.054 161.708 161.889 162.547 162.642 163.105 
162.997 163.301 163.083 163.34 163.066 163.237 162.89 152.918 153.558 
153.631 154.472 154.197 154.328 155.276 155.346 156.283 154.887 155.031 
156.057 156.171 157.137 157.179 158.052 155.646 155.784 156.845 156.974 
157.963 158.011 158.885 158.884 159.733 156.396 156.539 157.562 157.73 
158.721 158.824 159.73 159.743 160.657 160.648 161.61 157.056 157.224 
158.149 158.344 159.28 159.489 160.423 160.561 161.486 161.569 162.537 
162.587 163.485 157.546 157.78 158.638 158.841 159.709 159.953 160.896 
161.155 162.089 162.281 163.156 163.328 164.146 164.252 164.879 157.878 
158.171 159.03 159.265 160.104 160.346 161.267 161.572 162.53 162.786 
163.625 163.802 164.539 164.711 165.36 165.422 165.855 158.165 158.468 
159.334 159.604 160.416 160.681 161.524 161.868 162.77 163.127 163.947 
164.188 164.877 165.051 165.696 165.834 166.377 166.336 166.635 152.155 
151.156 152.006 152.695 150.017 150.931 151.593 152.507 153.239 148.786 
149.727 150.408 151.36 152.085 153.049 153.863 147.597 148.488 149.179 
150.158 150.924 151.898 152.71 153.711 154.597 146.529 147.329 147.975 
148.934 149.715 150.726 151.545 152.554 153.428 154.47 155.376 145.603 
146.304 146.891 147.762 148.51 149.504 150.331 151.36 152.236 153.295 
154.219 155.258 156.11 144.817 145.435 145.991 146.745 147.449 148.343 
149.16 150.154 151.061 152.114 153.059 154.106 154.976 155.941 156.654 
144.127 144.697 145.229 145.904 146.558 147.348 148.111 149.029 149.924 
150.962 151.924 152.968 153.828 154.789 155.49 156.389 156.989 143.497 
144.031 144.534 145.162 145.767 146.489 147.181 148.013 148.825 149.818 
150.741 151.808 152.664 153.639 154.319 155.209 155.81 156.691 157.278 
143.307 143.405 143.672 144.364 143.624 143.85 144.596 144.842 145.618 
143.966 144.161 144.961 145.169 146.003 146.205 147.047 144.392 144.572 
145.435 145.629 146.528 146.695 147.604 147.754 148.7 144.911 145.057 
145.964 146.161 147.144 147.317 148.301 148.422 149.432 149.56 150.608 
145.555 145.654 146.591 146.755 147.805 147.996 149.062 149.194 150.223 
150.34 151.372 151.513 152.5 146.268 146.357 147.316 147.45 148.513 
148.703 149.805 149.973 151.007 151.126 152.103 152.232 153.165 153.293 
154.136 146.979 147.084 148.042 148.185 149.212 149.406 150.467 150.676 
151.697 151.861 152.825 152.948 153.875 153.964 154.829 154.875 155.659 
147.65 147.775 148.704 148.866 149.842 150.045 151.047 151.275 152.271 
152.484 153.46 153.636 154.6 154.716 155.634 155.659 156.487 156.442 
157.181 148.293 149.635 149.099 149.384 151.102 150.52 150.857 150.257 
150.553 152.827 152.125 152.534 151.847 152.194 151.499 151.79 154.873 
154.036 154.492 153.692 154.1 153.289 153.597 152.794 153.046 157.062 
156.189 156.624 155.764 156.184 155.32 155.643 154.732 154.959 154.077 
154.278 159.1 158.337 158.748 157.909 158.298 157.434 157.741 156.815 
157.008 156.063 156.228 155.324 155.47 160.693 160.172 160.574 159.914 
160.282 159.506 159.77 158.871 158.984 158.047 158.137 157.262 157.379 
156.49 156.538 161.739 161.466 161.807 161.436 161.746 161.253 161.467 
160.761 160.776 159.899 159.843 159.018 159.061 158.296 158.33 157.461 
157.385 162.432 162.288 162.576 162.367 162.601 162.351 162.53 162.138 
162.143 161.486 161.329 160.562 160.468 159.791 159.797 159.1 159.03 
158.185 158.026 147.859 147.543 148.202 149.173 147.103 147.87 148.934 
149.578 150.622 146.642 147.477 148.7 149.389 150.548 151.137 152.318 
146.287 147.148 148.554 149.27 150.554 151.143 152.426 153.013 154.358 
146.003 146.891 148.395 149.196 150.545 151.187 152.498 153.148 154.577 
155.2 156.587 145.744 146.598 148.062 148.971 150.321 151.094 152.381 
153.143 154.583 155.367 156.832 157.43 158.668 145.617 146.315 147.654 
148.547 149.888 150.752 152.055 152.912 154.358 155.267 156.777 157.558 
158.84 159.351 160.304 145.691 146.201 147.401 148.156 149.474 150.312 
151.648 152.528 153.972 154.945 156.453 157.375 158.673 159.356 160.303 
160.739 161.401 145.89 146.282 147.361 147.969 149.223 149.972 151.278 
152.116 153.475 154.451 155.86 156.887 158.144 159.007 159.943 160.556 
161.213 161.621 162.103 146.964 145.497 146.368 146.603 143.97 144.862 
145.032 145.904 146.076 142.319 143.284 143.447 144.304 144.358 145.259 
145.45 140.533 141.55 141.771 142.704 142.762 143.56 143.597 144.587 
144.918 138.763 139.722 139.956 140.987 141.195 142.037 142.086 142.849 
143.018 144.097 144.578 137.143 137.975 138.133 139.153 139.463 140.472 
140.722 141.494 141.665 142.427 142.789 143.862 144.434 135.832 136.461 
136.545 137.385 137.642 138.699 139.103 140.116 140.49 141.267 141.646 
142.407 142.944 143.897 144.511 135.005 135.39 135.481 136.008 136.181 
136.977 137.367 138.437 139.003 140.043 140.61 141.436 142.005 142.751 
143.361 144.167 144.763 134.545 134.798 134.946 135.244 135.423 135.834 
136.148 136.887 137.469 138.515 139.244 140.297 140.987 141.867 142.486 
143.234 143.803 144.527 145.062 134.352 134.279 134.487 134.827 134.431 
134.557 134.989 135.052 135.349 134.881 134.874 135.37 135.359 135.699 
135.626 136.015 135.528 135.419 135.911 135.869 136.293 136.134 136.529 
136.482 137.198 136.308 136.094 136.556 136.483 136.983 136.835 137.275 
137.129 137.799 137.916 138.915 137.308 136.951 137.388 137.208 137.755 
137.604 138.107 137.927 138.544 138.562 139.493 139.729 140.747 138.501 
138.059 138.461 138.147 138.697 138.487 139.061 138.834 139.428 139.318 
140.143 140.299 141.297 141.509 142.368 139.693 139.279 139.655 139.279 
139.787 139.518 140.131 139.885 140.501 140.271 140.987 140.969 141.874 
142.046 142.933 143.043 143.731 140.778 140.434 140.824 140.46 140.925 
140.628 141.22 140.991 141.629 141.385 142.032 141.864 142.63 142.658 
143.503 143.605 144.348 144.363 144.971 141.498 142.721 141.932 141.603 
144.081 143.226 142.896 142.062 141.748 145.585 144.658 144.357 143.45 
143.17 142.302 142.07 147.308 146.286 146.035 145.034 144.792 143.835 
143.615 142.717 142.505 149.206 148.14 147.941 146.858 146.648 145.583 
145.357 144.346 144.109 143.166 142.937 151.119 150.088 149.929 148.849 
148.667 147.549 147.328 146.201 145.953 144.873 144.65 143.657 143.518 
152.931 151.974 151.835 150.821 150.657 149.584 149.382 148.244 148.01 
146.846 146.625 145.508 145.356 144.358 144.315 154.602 153.732 153.614 
152.674 152.521 151.519 151.324 150.261 150.037 148.924 148.7 147.564 
147.361 146.268 146.12 145.164 145.094 156.118 155.342 155.252 154.395 
154.261 153.328 153.141 152.139 151.912 150.874 150.645 149.585 149.358 
148.27 148.04 146.982 146.785 145.853 145.714 146.319 147.5 147.173 
147.822 148.831 148.488 149.213 148.873 149.665 150.169 149.872 150.64 
150.323 151.139 150.82 151.683 151.458 151.208 152.015 151.744 152.576 
152.288 153.174 152.887 153.841 152.741 152.515 153.383 153.133 154.006 
153.721 154.609 154.351 155.336 155.113 156.156 153.978 153.806 154.706 
154.509 155.416 155.163 156.042 155.773 156.701 156.523 157.538 157.395 
158.354 155.089 154.993 155.874 155.759 156.642 156.496 157.361 157.16 
158.015 157.825 158.721 158.613 159.495 159.38 160.106 156.062 156.031 
156.895 156.833 157.671 157.595 158.434 158.347 159.18 159.049 159.846 
159.708 160.466 160.36 161.022 160.882 161.377 156.902 156.934 157.795 
157.786 158.603 158.55 159.343 159.304 160.101 160.064 160.8 160.712 
161.353 161.244 161.815 161.699 162.167 161.984 162.303 138.61 138.375 
138.2 137.694 138.38 138.063 137.441 137.249 136.714 138.453 138.1 
137.407 137.065 136.383 136.225 135.728 138.512 138.155 137.473 137.077 
136.36 136.008 135.407 135.286 134.921 138.657 138.24 137.589 137.179 
136.557 136.134 135.564 135.19 134.741 134.593 134.357 138.945 138.465 
137.816 137.357 136.792 136.402 135.925 135.51 134.999 134.605 134.172 
134.072 133.928 139.34 138.831 138.212 137.676 137.083 136.658 136.184 
135.841 135.327 134.9 134.305 133.971 133.61 133.666 133.682 139.863 
139.32 138.779 138.179 137.583 137.023 136.494 136.08 135.607 135.198 
134.667 134.201 133.786 133.529 133.475 133.571 133.769 140.517 139.945 
139.466 138.841 138.29 137.632 137.091 136.512 136.086 135.595 135.251 
134.733 134.473 133.993 133.957 133.697 133.892 133.869 134.12 138.748 
137.796 138.441 138.882 136.821 137.458 137.842 138.622 139.205 135.895 
136.498 136.866 137.575 138.081 138.932 139.528 135.095 135.626 136.008 
136.644 137.115 137.844 138.4 139.234 139.809 134.519 134.929 135.294 
135.841 136.324 136.961 137.527 138.238 138.87 139.607 140.221 134.207 
134.513 134.912 135.282 135.781 136.275 136.891 137.506 138.195 138.848 
139.534 140.169 140.802 134.072 134.336 134.832 135.101 135.622 135.932 
136.533 136.998 137.698 138.281 138.98 139.581 140.227 140.813 141.401 
134.073 134.265 134.748 135.05 135.568 135.87 136.407 136.761 137.378 
137.851 138.514 139.061 139.701 140.267 140.866 141.414 141.955 134.24 
134.292 134.631 134.895 135.349 135.72 136.233 136.619 137.178 137.584 
138.195 138.652 139.29 139.791 140.417 140.926 141.505 141.987 142.501 
139.388 139.644 139.842 140.587 140.082 140.261 141.069 141.196 142.001 
140.439 140.719 141.575 141.745 142.541 142.67 143.501 140.632 140.967 
141.776 142.103 142.852 143.12 143.907 144.158 145.032 140.916 141.125 
141.832 142.147 142.826 143.204 143.941 144.376 145.23 145.634 146.551 
141.432 141.495 142.158 142.287 142.949 143.174 143.906 144.296 145.16 
145.66 146.579 147.066 147.985 142.002 142.044 142.702 142.752 143.435 
143.504 144.245 144.423 145.282 145.629 146.57 147.021 147.949 148.426 
149.295 142.512 142.571 143.194 143.282 143.939 144.042 144.747 144.881 
145.664 145.887 146.767 147.102 148.03 148.426 149.313 149.705 150.49 
143.007 143.05 143.635 143.72 144.331 144.463 145.116 145.298 146.01 
146.242 147.03 147.331 148.197 148.56 149.439 149.796 150.599 150.9 
151.607 146.838 146.136 146.12 145.376 145.407 145.38 144.584 144.597 
143.827 144.699 144.64 143.785 143.756 142.9 142.958 142.136 144.066 
143.953 143.072 142.964 142.048 142.013 141.138 141.204 140.369 143.565 
143.385 142.519 142.319 141.412 141.249 140.381 140.305 139.481 139.481 
138.684 143.186 142.966 142.146 141.879 141.014 140.747 139.903 139.7 
138.882 138.739 137.918 137.864 137.11 142.899 142.656 141.893 141.602 
140.784 140.462 139.635 139.344 138.525 138.266 137.423 137.218 136.434 
136.38 135.784 142.727 142.449 141.736 141.423 140.655 140.306 139.515 
139.166 138.396 138.046 137.275 136.912 136.178 135.906 135.343 135.276 
134.938 142.68 142.367 141.706 141.354 140.644 140.258 139.529 139.135 
138.438 138.048 137.398 136.975 136.37 135.936 135.429 135.109 134.766 
134.663 134.476 
POINT_DATA 1002
SCALARS Distance double
LOOKUP_TABLE default
142.234 141.085 141.678 142.973 142.462 143.544 143.846 143.448 144.417 
144.953 144.804 144.448 145.363 145.968 146.532 145.807 145.434 146.4 
147.083 147.721 148.34 146.994 146.615 147.615 148.337 149.006 149.644 
150.254 148.366 147.947 148.987 149.712 150.357 150.983 151.608 152.12 
149.706 149.206 150.315 151.042 151.713 152.334 152.974 153.5 153.856 
150.959 150.37 151.576 152.287 153.023 153.693 154.327 154.857 155.204 
155.431 152.172 151.51 152.833 153.543 154.301 155.013 155.628 156.128 
156.475 156.699 156.853 140.392 141.029 139.827 140.588 139.428 141.959 
140.265 139.106 141.605 143.082 139.956 138.878 141.247 142.728 144.138 
139.794 138.806 140.983 142.375 143.821 145.197 139.751 138.748 140.933 
142.231 143.561 144.965 146.448 139.638 138.646 140.871 142.211 143.457 
144.746 146.221 147.75 139.564 138.688 140.75 142.142 143.454 144.683 
146.031 147.488 148.948 139.74 139.025 140.78 142.118 143.508 144.81 
146.091 147.382 148.702 150.104 140.038 140.841 141.337 142.222 142.805 
142.029 143.737 144.36 143.458 143.466 145.388 145.964 144.936 144.909 
144.942 147.274 147.525 146.736 146.46 146.505 146.389 149.148 148.922 
148.986 148.514 148.217 148.051 147.715 150.563 150.121 150.946 150.813 
150.267 149.777 149.365 148.957 151.555 151.201 152.094 152.434 152.206 
151.654 151.143 150.697 150.332 152.527 152.27 152.936 153.393 153.564 
153.357 153.002 152.614 152.199 151.822 153.159 153.624 154.898 154.104 
155.431 156.57 154.507 155.944 157.125 158.269 154.747 156.3 157.645 
158.888 160.109 154.849 156.451 157.999 159.413 160.781 161.929 154.756 
156.463 158.182 159.768 161.322 162.623 163.548 154.414 156.272 158.145 
159.851 161.617 163.192 164.239 164.936 153.996 155.861 157.786 159.511 
161.366 163.277 164.638 165.455 166.062 153.64 155.367 157.221 158.883 
160.602 162.604 164.32 165.414 166.206 166.848 153.913 155.722 154.693 
157.489 156.611 155.516 159.307 158.424 157.451 156.288 161.21 160.263 
159.224 158.139 156.926 162.984 162.19 161.126 159.939 158.708 157.425 
164.484 163.877 163.021 161.871 160.531 159.14 157.78 165.75 165.17 
164.417 163.46 162.239 160.837 159.404 158.018 166.762 166.212 165.386 
164.467 163.423 162.212 160.899 159.538 158.169 167.408 167.154 167.432 
166.947 166.788 166.356 166.282 166.093 166.088 165.348 165.699 165.975 
165.562 165.094 164.288 165.395 165.987 164.913 164.593 163.952 163.13 
165.005 165.389 164.282 163.852 163.425 162.728 161.908 164.283 164.336 
163.718 163.179 162.777 162.204 161.48 160.61 163.402 163.343 163.086 
162.62 162.168 161.576 160.862 160.111 159.205 162.568 162.552 162.339 
161.945 161.49 160.888 160.133 159.4 158.655 157.781 166.857 167.271 
166.33 166.566 165.536 167.035 165.638 164.705 166.179 166.276 164.646 
163.669 165.222 165.613 165.943 163.47 162.4 164.212 164.85 165.606 
166.162 162.232 161.213 163.075 163.869 164.745 165.543 165.837 161.135 
160.166 161.93 162.723 163.582 164.276 164.68 164.724 160.085 159.062 
160.872 161.553 162.399 163.148 163.484 163.6 163.593 158.936 157.869 
159.813 160.436 161.176 162.096 162.687 162.824 162.831 162.779 152.846 
154.41 153.42 155.157 154.016 156.263 155.921 154.726 157.094 158.055 
156.706 155.508 157.91 158.886 159.717 157.406 156.275 158.577 159.68 
160.629 161.627 157.994 156.903 159.051 160.214 161.377 162.455 163.532 
158.445 157.294 159.48 160.598 161.877 163.014 164 164.909 158.776 
157.567 159.872 160.962 162.244 163.47 164.393 165.228 165.95 151.353 
151.823 150.296 150.677 149.082 152.283 149.427 147.854 151.125 152.851 
148.187 146.754 149.927 151.724 153.558 147.05 145.789 148.692 150.531 
152.384 154.345 146.079 144.947 147.549 149.296 151.171 153.158 155.156 
145.285 144.223 146.613 148.189 150 152.016 154.006 155.767 144.587 
143.574 145.82 147.247 148.902 150.872 152.885 154.596 156.107 143.935 
142.984 145.081 146.405 147.896 149.682 151.67 153.438 154.925 156.4 