# vtk DataFile Version 4.0
vtk output
ASCII
DATASET POLYDATA
POINTS 1002 float
-75.9063 -102.786 55.3554 -76.11 -101.53 54.7247 -76.7324 -102.035 54.8275 
-76.5452 -103.356 55.6111 -77.3546 -102.696 54.9082 -75.7655 -104.049 56.4992 
-77.1178 -104.012 55.8787 -78.0498 -103.307 55.2851 -76.3426 -104.667 56.8964 
-75.6656 -105.304 57.9215 -77.6325 -104.678 56.3559 -78.7378 -103.862 56.1241 
-76.7364 -105.477 57.1361 -76.0916 -106.151 58.2007 -75.4932 -106.909 59.0613 
-78.0179 -105.538 56.9273 -79.1535 -104.609 56.8445 -77.0078 -106.533 57.3345 
-76.3478 -107.351 58.2545 -75.8089 -108.118 59.2788 -75.1711 -109.072 60.0419 
-78.2476 -106.667 57.0638 -79.2917 -105.626 56.7718 -77.277 -107.812 57.5409 
-76.5918 -108.767 58.3421 -76.0995 -109.567 59.477 -75.5002 -110.45 60.4897 
-74.7849 -111.468 61.1336 -78.4819 -107.812 56.7999 -79.3587 -106.786 56.2654 
-77.7092 -108.983 57.7715 -77.0058 -110.018 58.749 -76.4415 -110.899 59.8287 
-75.8964 -111.781 60.9543 -75.255 -112.747 61.692 -74.5809 -113.672 62.1223 
-78.7418 -108.867 56.8619 -79.4218 -107.986 56.1831 -78.2504 -109.891 58.2284 
-77.6681 -110.908 59.5141 -76.967 -111.884 60.4831 -76.3542 -112.856 61.491 
-75.8246 -113.818 62.3184 -75.2818 -114.729 62.7653 -74.725 -115.46 63.1808 
-78.9822 -109.896 57.5744 -79.5162 -109.144 56.7442 -78.6684 -110.759 59.0055 
-78.3098 -111.714 60.3972 -77.6866 -112.735 61.3195 -77.019 -113.772 62.1771 
-76.4962 -114.725 63.0977 -76.0358 -115.546 63.7222 -75.5663 -116.228 64.1565 
-75.1009 -116.744 64.667 -79.2848 -110.897 58.6046 -79.6946 -110.209 57.6084 
-79.0188 -111.689 59.913 -78.7695 -112.627 61.1735 -78.3411 -113.662 62.0928 
-77.811 -114.68 62.9263 -77.3314 -115.589 63.917 -76.851 -116.328 64.7617 
-76.3441 -116.878 65.3283 -75.8842 -117.293 65.8395 -75.484 -117.644 66.3207 
-76.7295 -100.645 54.2659 -77.3752 -101.203 54.3194 -77.347 -99.9821 53.4779 
-78.0935 -100.538 53.6799 -77.9727 -99.6304 52.3295 -78.0985 -101.93 54.4051 
-78.9412 -100.105 52.8493 -78.6696 -99.4769 51.1822 -78.9873 -101.276 53.9362 
-78.9836 -102.59 54.9409 -79.8401 -99.7966 51.9868 -79.3935 -99.3416 50.2042 
-80.0086 -100.71 53.3597 -79.971 -102.001 54.5479 -79.7873 -103.196 55.9587 
-80.5491 -99.5903 51.0701 -79.9998 -99.2316 49.1541 -80.9814 -100.188 52.7584 
-81.0211 -101.42 54.0265 -80.8202 -102.738 55.5468 -80.2496 -103.968 56.7103 
-80.9862 -99.6452 49.9289 -80.4586 -99.2666 48.0469 -81.6392 -100.014 52.0037 
-82.0206 -100.928 53.5252 -81.9525 -102.326 54.9594 -81.4421 -103.621 56.4076 
-80.4393 -105.008 56.6787 -81.2778 -99.9403 48.798 -80.8274 -99.4632 47.1877 
-81.9309 -100.358 50.9269 -82.6305 -100.91 52.7981 -82.9282 -101.995 54.2363 
-82.6065 -103.369 55.8414 -81.6832 -104.713 56.7287 -80.4343 -106.261 56.3417 
-81.4725 -100.331 48.0145 -81.1068 -99.8138 46.6288 -81.9852 -100.908 49.8736 
-82.7612 -101.339 51.7744 -83.4062 -101.967 53.2489 -83.3697 -103.12 54.8356 
-82.6188 -104.5 56.3624 -81.4647 -105.958 56.6707 -80.3054 -107.569 56.3045 
-81.5624 -100.826 47.5246 -81.2905 -100.351 46.2188 -81.9125 -101.442 49.1451 
-82.6136 -101.885 50.8574 -83.5006 -102.272 52.2563 -83.8199 -103.085 53.6465 
-83.2209 -104.328 55.3551 -82.151 -105.716 56.459 -81.0745 -107.234 56.514 
-80.21 -108.804 56.6285 -81.5667 -101.356 46.665 -81.7556 -101.908 48.1988 
-81.7998 -102.567 47.2629 -82.0115 -102.959 48.9135 -82.1344 -103.622 47.9435 
-82.2343 -102.396 49.8938 -82.424 -103.867 49.5786 -82.4808 -104.621 48.7095 
-82.7609 -103.325 50.5329 -83.2566 -102.765 51.3727 -82.6619 -105.157 50.3148 
-82.582 -106.261 49.6491 -83.1976 -104.518 51.1004 -83.9471 -104.007 51.8718 
-84.1285 -103.428 52.651 -82.5507 -107.212 51.1982 -82.4684 -108.497 50.7608 
-82.9539 -106.128 51.6875 -83.895 -105.554 52.3618 -84.3206 -105.038 53.2283 
-83.8326 -104.525 54.243 -82.4139 -109.407 52.1165 -82.2505 -110.295 51.9485 
-82.3838 -107.947 52.2901 -82.863 -106.886 52.7133 -83.4947 -106.438 53.6055 
-83.298 -106.094 54.6856 -82.6327 -105.804 55.7109 -82.2311 -110.976 53.129 
-81.7967 -111.243 53.2337 -82.1562 -109.82 53.0838 -81.9992 -108.391 53.2571 
-82.2305 -107.627 53.9117 -82.3134 -107.474 54.811 -81.9058 -107.391 55.631 
-81.4507 -107.29 56.2635 -81.7086 -111.954 54.4939 -81.1025 -111.875 54.7223 
-81.9707 -111.528 54.3868 -81.8347 -110.546 54.5014 -81.6836 -109.602 54.9496 
-81.6029 -109.216 55.5041 -81.3317 -109.165 55.9079 -80.9549 -109.084 56.2758 
-80.6097 -108.943 56.582 -80.9864 -112.779 56.2055 -80.4158 -112.664 56.3522 
-81.4705 -112.852 56.1816 -81.7186 -112.666 56.3485 -81.7539 -112.131 56.7421 
-81.6158 -111.533 57.1537 -81.2555 -111.173 57.2941 -80.8122 -110.963 57.3102 
-80.4535 -110.724 57.4563 -80.1048 -110.454 57.6083 -79.7851 -111.677 59.2702 
-80.2019 -112.03 59.2803 -80.1709 -113.253 61.0872 -80.5899 -112.37 59.2321 
-80.639 -113.62 61.2149 -80.6789 -114.95 62.7001 -81.1012 -112.672 59.2685 
-81.1755 -113.88 61.3033 -81.2522 -115.284 62.9674 -81.0752 -116.703 64.3497 
-81.6808 -113.126 59.3118 -81.8446 -114.179 61.2866 -81.9744 -115.505 63.0772 
-81.7904 -117.121 64.7085 -81.5008 -118.371 66.2162 -81.9179 -113.814 59.0947 
-82.2111 -114.851 61.0511 -82.5107 -115.908 62.8317 -82.5642 -117.541 64.7708 
-82.3859 -118.928 66.5419 -82.3382 -119.77 67.9295 -81.6947 -114.278 58.6986 
-81.9263 -115.583 60.7141 -82.3139 -116.623 62.3677 -82.7172 -118.09 64.4015 
-83.0172 -119.548 66.5107 -83.2295 -120.357 68.0449 -83.3648 -120.816 69.3226 
-81.2529 -114.197 58.3702 -81.33 -115.694 60.4651 -81.6682 -117.067 62.0494 
-82.1604 -118.556 63.8505 -82.8104 -120.056 66.0907 -83.4817 -121.021 67.8613 
-83.9007 -121.472 69.1461 -84.004 -121.723 70.6526 -80.7355 -113.909 58.1507 
-80.7471 -115.359 60.2151 -81.0743 -116.951 61.8617 -81.5598 -118.609 63.3872 
-82.1773 -120.216 65.4074 -82.963 -121.429 67.404 -83.664 -122.139 68.8216 
-84.0454 -122.538 70.2132 -84.1876 -122.713 71.9688 -80.2023 -113.756 58.0323 
-80.1939 -115.127 59.8944 -80.4949 -116.708 61.5666 -81.0188 -118.383 63.0037 
-81.613 -120.044 64.6763 -82.262 -121.465 66.6318 -82.9331 -122.451 68.3215 
-83.4821 -123.083 69.7275 -83.8656 -123.485 71.2993 -84.1308 -123.649 73.019 
-79.5485 -112.462 60.514 -80.0129 -114.226 62.1864 -79.3096 -113.434 61.685 
-80.4498 -116.065 63.7904 -79.7012 -115.349 63.2486 -78.9623 -114.542 62.6986 
-80.8075 -117.806 65.7061 -80.1182 -117.144 65.1261 -79.3093 -116.405 64.4599 
-78.5518 -115.578 63.6954 -81.4642 -119.395 67.6232 -80.657 -118.869 67.1181 
-79.7896 -118.071 66.4968 -78.9546 -117.246 65.7052 -78.1697 -116.456 64.806 
-82.5242 -120.598 69.3466 -81.5225 -120.448 68.9282 -80.4253 -119.843 68.2681 
-79.3865 -118.888 67.5225 -78.5293 -118.043 66.6864 -77.689 -117.224 65.7796 
-83.4696 -121.32 71.1298 -82.5328 -121.274 70.9833 -81.3071 -121.171 70.22 
-79.9978 -120.562 69.2194 -78.857 -119.708 68.2002 -77.8977 -118.793 67.3192 
-77.0565 -117.785 66.4461 -84.0172 -122.026 72.8453 -83.3587 -121.552 73.1216 
-82.2526 -121.47 72.5404 -80.8902 -121.401 71.4101 -79.5061 -121.034 70.0152 
-78.2346 -120.294 68.7278 -77.2018 -119.189 67.8645 -76.4688 -118.088 67.0221 
-84.2521 -122.988 74.0913 -83.8891 -122.144 74.6634 -82.9655 -121.582 74.3881 
-81.6696 -121.442 73.4889 -80.278 -121.446 72.1764 -78.8796 -121.212 70.5578 
-77.5887 -120.423 69.2376 -76.6478 -119.271 68.4286 -76.0339 -118.303 67.5436 
-84.0628 -124.117 74.3929 -84.0787 -123.415 75.3351 -83.4369 -124.399 75.1719 
-83.0551 -123.772 75.8034 -81.9143 -124.437 75.331 -83.3988 -122.484 75.4891 
-81.019 -123.926 75.7718 -80.0261 -124.423 75.0924 -81.8563 -122.919 75.6554 
-82.0896 -121.794 74.9117 -78.9353 -123.98 75.3686 -78.4227 -124.654 74.4795 
-79.6295 -123.196 75.6232 -80.3393 -122.135 75.1077 -80.6368 -121.507 73.9785 
-77.3659 -124.171 74.4792 -76.775 -124.977 73.7412 -77.9218 -123.328 75.1399 
-78.5557 -122.375 75.1128 -79.1481 -121.647 74.1725 -79.294 -121.439 72.5134 
-75.786 -124.348 73.647 -75.0024 -125.02 73.2637 -76.6636 -123.51 74.1094 
-77.4031 -122.593 74.4101 -77.8888 -121.85 73.8637 -78.1085 -121.449 72.4473 
-77.9573 -121.098 70.7443 -74.2708 -124.28 73.1738 -73.7441 -124.786 72.7765 
-75.1497 -123.597 73.2983 -76.1198 -122.786 73.3437 -76.7324 -122.089 72.9722 
-76.9503 -121.587 71.9019 -76.9547 -121.007 70.6042 -76.8049 -120.191 69.4806 
-73.2086 -123.993 72.5399 -72.9879 -124.419 71.9235 -73.7015 -123.413 72.7467 
-74.4763 -122.698 72.6211 -75.1765 -122.043 72.1762 -75.5674 -121.585 71.2468 
-75.8134 -121.032 70.1383 -75.9874 -120.148 69.32 -76.0358 -119.159 68.5753 
-72.3492 -123.559 71.6062 -72.2298 -123.965 70.9335 -72.5982 -123.001 71.9875 
-73.0955 -122.325 71.979 -73.692 -121.655 71.629 -74.1427 -121.184 70.8661 
-74.5252 -120.809 69.7673 -74.9631 -120.173 68.8467 -75.3029 -119.266 68.2285 
-75.4444 -118.384 67.4465 -83.6539 -124.195 72.6955 -83.3234 -124.507 73.7633 
-82.8007 -124.177 72.0709 -82.0877 -124.321 72.733 -81.7015 -123.97 71.1334 
-82.2936 -124.612 74.218 -80.6852 -124.205 71.5353 -80.5194 -124.022 70.0169 
-80.8088 -124.573 72.8751 -80.7163 -124.688 74.1861 -79.4166 -124.366 70.3884 
-79.3458 -124.006 68.9357 -79.4641 -124.785 71.6046 -79.5594 -125.131 72.7768 
-79.2943 -125.025 73.8999 -78.2923 -124.222 69.2824 -78.2308 -123.491 67.9442 
-78.3472 -124.863 70.5179 -78.5216 -125.547 71.5488 -78.494 -125.821 72.6034 
-77.824 -125.523 73.429 -77.2542 -123.678 68.1281 -77.2488 -122.738 66.966 
-77.2891 -124.486 69.3473 -77.4015 -125.344 70.36 -77.3494 -126.066 71.2877 
-76.7918 -126.185 72.2522 -75.8433 -125.707 72.9634 -76.3793 -123.048 66.9538 
-76.4577 -122.011 65.9456 -76.3478 -124.018 68.0178 -76.336 -124.903 68.9774 
-76.1146 -125.72 69.7708 -75.545 -126.222 70.6813 -74.8011 -126.095 71.7091 
-74.1668 -125.487 72.4691 -75.7257 -122.279 65.8077 -75.8474 -121.26 64.8495 
-75.6479 -123.407 66.7015 -75.5684 -124.465 67.538 -75.2596 -125.308 68.2405 
-74.6583 -125.912 68.957 -74.0317 -126.092 69.9414 -73.5939 -125.721 70.9818 
-73.2918 -125.075 71.6659 -75.2297 -121.369 64.66 -75.3646 -120.512 63.6804 
-75.1264 -122.447 65.4942 -75.0204 -123.621 66.2374 -74.7308 -124.602 66.933 
[...]
CELL_DATA 2000
SCALARS Distance double
LOOKUP_TABLE default
137.793 138.622 138.438 138.979 139.537 139.316 139.879 139.726 140.359 
140.557 140.265 140.803 140.639 141.294 141.166 141.863 141.642 141.315 
141.817 141.599 142.283 142.141 142.922 142.771 143.589 142.598 142.364 
142.905 142.684 143.419 143.235 144.118 143.946 144.876 144.669 145.587 
143.384 143.257 143.932 143.814 144.65 144.475 145.406 145.233 146.222 
146.038 146.995 146.752 147.634 144.23 144.096 144.923 144.887 145.873 
145.754 146.713 146.54 147.511 147.366 148.336 148.15 149.04 148.768 
149.573 145.296 145.103 146.026 145.98 147.081 147.01 148.038 147.859 
148.827 148.652 149.645 149.474 150.408 150.16 150.982 150.668 151.415 
146.52 146.31 147.271 147.18 148.303 148.25 149.334 149.193 150.195 
150.007 151.021 150.834 151.808 151.553 152.384 152.061 152.776 152.444 
153.096 137.277 136.815 137.377 138.078 136.44 136.967 137.702 138.25 
139.016 136.225 136.691 137.488 137.973 138.802 139.297 140.111 136.151 
136.579 137.409 137.852 138.725 139.19 140.069 140.496 141.269 136.074 
136.527 137.357 137.81 138.687 139.159 140.084 140.53 141.341 141.653 
142.26 135.964 136.424 137.281 137.761 138.676 139.149 140.13 140.594 
141.512 141.814 142.44 142.573 143.038 135.946 136.344 137.241 137.718 
138.697 139.175 140.182 140.663 141.658 142.043 142.796 142.892 143.335 
143.349 143.828 136.084 136.399 137.292 137.735 138.722 139.206 140.168 
140.666 141.595 142.106 142.92 143.226 143.742 143.757 144.142 144.2 
144.795 136.363 136.599 137.443 137.821 138.758 139.215 140.13 140.598 
141.456 141.955 142.751 143.206 143.807 144.038 144.432 144.521 144.983 
145.199 145.91 136.833 137.972 137.53 137.904 139.172 138.707 139.055 
138.693 139.169 140.353 139.877 140.228 139.87 140.357 140.018 140.521 
141.732 141.105 141.499 141.096 141.699 141.318 141.866 141.407 141.873 
143.513 142.673 142.951 142.403 142.982 142.68 143.281 142.848 143.241 
142.725 143.104 145.348 144.55 144.578 143.819 143.98 143.69 144.101 
143.994 144.296 143.976 144.148 143.791 144.041 146.679 146.202 146.201 
145.376 145.183 144.545 144.634 144.48 144.778 144.702 144.887 144.653 
144.798 144.542 144.702 147.51 147.299 147.542 146.92 146.906 145.993 
146.079 145.357 145.765 145.341 145.802 145.425 145.755 145.361 145.625 
145.222 145.413 148.285 148.111 148.603 148.244 148.653 147.936 148.338 
147.394 147.932 147.024 147.632 146.835 147.353 146.65 147.075 146.444 
146.8 146.173 146.454 147.435 147.844 148.198 149.366 148.207 148.619 
149.868 150.26 151.53 148.614 149.043 150.358 150.77 152.112 152.479 
153.75 149.104 149.568 150.943 151.303 152.671 153.067 154.443 154.759 
156.018 149.548 150.113 151.552 151.918 153.224 153.616 155.05 155.481 
156.88 157.103 158.305 149.772 150.445 151.85 152.392 153.594 154.06 
155.405 156.003 157.5 157.946 159.216 159.353 160.382 149.689 150.406 
151.623 152.394 153.526 154.184 155.386 156.141 157.59 158.35 159.691 
160.11 161.11 161.245 162.087 149.375 150.052 151.069 151.922 153.039 
153.871 155.031 155.889 157.22 158.166 159.511 160.275 161.321 161.737 
162.542 162.757 163.518 149.011 149.609 150.531 151.313 152.421 153.293 
154.471 155.377 156.626 157.611 158.891 159.844 160.937 161.649 162.477 
162.954 163.676 164.024 164.719 147.529 149.522 148.448 148.401 151.702 
150.588 150.563 149.45 149.443 153.917 152.819 152.824 151.681 151.648 
150.523 150.468 156.157 155.065 155.118 153.974 153.956 152.771 152.693 
151.514 151.382 158.415 157.352 157.459 156.317 156.32 155.103 155.011 
153.786 153.653 152.429 152.255 160.506 159.587 159.759 158.694 158.722 
157.49 157.338 156.077 155.885 154.687 154.479 153.272 153.013 162.259 
161.54 161.751 160.888 160.95 159.849 159.663 158.384 158.079 156.841 
156.54 155.377 155.033 153.876 153.502 163.767 163.178 163.387 162.677 
162.715 161.851 161.67 160.584 160.22 158.995 158.566 157.35 156.898 
155.745 155.29 154.204 153.801 165.069 164.623 164.83 164.182 164.125 
163.368 163.112 162.278 161.89 160.919 160.416 159.289 158.708 157.535 
156.975 155.883 155.423 154.426 154.053 165.751 166.4 166.028 165.553 
166.252 166.358 165.928 165.496 164.716 165.388 165.827 165.491 165.485 
164.702 164.366 163.52 164.369 164.798 164.509 164.761 164.106 164.053 
163.249 163.053 162.257 163.455 163.79 163.478 163.767 163.267 163.353 
162.669 162.619 161.884 161.719 160.85 162.506 162.84 162.507 162.81 
162.409 162.577 162.007 162.014 161.307 161.228 160.386 160.172 159.159 
161.526 161.857 161.523 161.838 161.449 161.716 161.197 161.32 160.617 
160.597 159.749 159.616 158.652 158.408 157.397 160.536 160.882 160.52 
160.829 160.374 160.678 160.119 160.371 159.666 159.79 158.955 158.935 
158.037 157.887 156.975 156.73 155.847 159.441 159.835 159.422 159.76 
159.232 159.536 158.919 159.198 158.498 158.716 157.942 158.059 157.252 
157.25 156.442 156.317 155.511 155.286 154.488 165.744 165.395 165.93 
166.31 164.385 165.171 165.51 166.113 166.097 163.239 163.965 164.223 
164.982 165.063 165.575 165.29 162.217 162.857 163.107 163.747 163.979 
164.536 164.557 164.799 164.467 161.04 161.801 162.084 162.749 163.073 
163.663 163.917 164.253 164.172 164.145 163.711 159.631 160.505 160.807 
161.625 161.923 162.707 162.967 163.586 163.579 163.829 163.438 163.349 
162.758 158.221 159.081 159.413 160.265 160.554 161.394 161.587 162.376 
162.357 162.941 162.614 162.862 162.312 162.298 161.714 156.86 157.697 
158.032 158.888 159.207 160.021 160.214 160.94 160.936 161.565 161.365 
161.831 161.447 161.681 161.183 161.23 160.696 155.514 156.32 156.6 
157.475 157.77 158.646 158.843 159.598 159.603 160.216 160.07 160.59 
160.332 160.722 160.333 160.559 160.064 160.154 159.599 149.09 149.828 
149.827 150.67 150.663 150.691 151.628 151.608 152.577 151.502 151.569 
152.6 152.632 153.679 153.644 154.666 152.403 152.465 153.546 153.614 
154.738 154.771 155.888 155.818 156.872 153.23 153.369 154.444 154.56 
155.703 155.812 157.006 157.049 158.2 158.093 159.127 153.832 154.082 
155.147 155.371 156.499 156.716 157.929 158.11 159.306 159.354 160.401 
160.281 161.138 154.334 154.609 155.674 155.962 157.084 157.397 158.598 
158.913 160.089 160.302 161.316 161.368 162.189 162.078 162.705 154.784 
155.08 156.107 156.427 157.502 157.871 159.011 159.424 160.524 160.874 
161.801 162.031 162.813 162.919 163.594 163.49 163.983 155.095 155.443 
156.402 156.771 157.752 158.163 159.182 159.66 160.645 161.095 161.906 
162.262 162.954 163.276 163.98 164.193 164.82 164.715 165.102 148.328 
147.347 148.188 148.951 146.323 147.172 147.91 148.848 149.697 145.285 
146.127 146.829 147.763 148.574 149.57 150.47 144.191 145.041 145.69 
146.636 147.425 148.429 149.331 150.375 151.346 143.089 143.897 144.487 
145.43 146.2 147.248 148.157 149.235 150.195 151.262 152.18 142.128 
142.837 143.375 144.217 144.931 145.97 146.874 148.011 148.956 150.061 
150.941 151.993 152.793 141.288 141.94 142.442 143.168 143.788 144.709 
145.553 146.679 147.643 148.782 149.678 150.731 151.546 152.555 153.32 
140.493 141.112 141.58 142.259 142.8 143.603 144.332 145.362 146.305 
147.46 148.424 149.503 150.365 151.354 152.145 153.101 153.821 139.793 
140.335 140.772 141.399 141.9 142.622 143.25 144.157 144.999 146.117 
147.095 148.247 149.167 150.206 151.006 151.956 152.664 153.573 154.187 
139.586 139.608 139.894 140.539 139.701 139.969 140.649 140.932 141.667 
139.905 140.148 140.905 141.137 141.932 142.178 143.039 140.289 140.486 
141.369 141.546 142.445 142.598 143.552 143.747 144.8 140.85 141.008 
142.008 142.173 143.207 143.302 144.341 144.437 145.565 145.734 146.911 
141.524 141.654 142.69 142.887 144.01 144.165 145.271 145.351 146.479 
146.597 147.781 147.926 149.031 142.268 142.374 143.397 143.584 144.705 
144.935 146.069 146.25 147.357 147.506 148.628 148.785 149.865 149.965 
150.902 143.025 143.134 144.146 144.304 145.381 145.597 146.704 146.947 
148.051 148.281 149.368 149.567 150.601 150.742 151.668 151.727 152.54 
143.728 143.864 144.851 145.024 146.052 146.252 147.301 147.538 148.614 
148.884 149.969 150.223 151.246 151.426 152.339 152.44 153.254 153.295 
154.034 144.407 145.833 145.258 145.565 147.355 146.747 147.087 146.48 
146.794 149.051 148.369 148.761 148.087 148.453 147.767 148.074 151.007 
150.233 150.711 149.921 150.345 149.551 149.907 149.116 149.42 153.082 
152.306 152.822 152 152.439 151.575 151.938 151.064 151.377 150.524 
150.803 154.995 154.33 154.818 154.086 154.515 153.69 154.033 153.145 
153.434 152.54 152.785 151.901 152.09 156.592 156.09 156.592 155.984 
156.457 155.72 156.105 155.243 155.545 154.624 154.853 153.908 154.042 
153.108 153.177 157.887 157.551 158.116 157.658 158.18 157.586 158.012 
157.268 157.593 156.732 156.962 156.004 156.1 155.083 155.076 154.103 
154.08 158.918 158.736 159.328 159.043 159.553 159.148 159.536 158.995 
159.27 158.613 158.8 158.01 158.058 157.107 157.016 156.002 155.88 
154.93 154.844 143.964 143.72 144.357 145.376 143.345 144.108 145.22 
145.85 146.916 142.778 143.706 144.989 145.74 146.915 147.46 148.582 
142.192 143.176 144.696 145.582 146.935 147.516 148.691 149.21 150.452 
141.839 142.717 144.386 145.381 146.934 147.602 148.84 149.347 150.615 
151.2 152.531 141.783 142.462 144 145.046 146.662 147.555 148.863 
149.48 150.743 151.372 152.744 153.318 154.534 141.952 142.426 143.664 
144.56 146.038 147.094 148.465 149.341 150.615 151.401 152.747 153.461 
154.68 155.179 156.142 142.207 142.58 143.634 144.245 145.535 146.432 
147.819 148.795 150.136 151.08 152.383 153.264 154.434 155.136 156.067 
156.574 157.36 142.393 142.795 143.826 144.292 145.473 146.104 147.422 
148.239 149.599 150.519 151.806 152.726 153.846 154.673 155.589 156.283 
157.064 157.635 158.344 143.022 141.495 142.432 142.736 139.839 140.851 
141.138 142.088 142.308 137.998 139.086 139.398 140.438 140.611 141.532 
141.642 136.135 137.16 137.437 138.586 138.84 139.825 139.883 140.779 
140.931 134.435 135.33 135.509 136.59 136.909 138.009 138.239 139.128 
139.279 140.186 140.568 132.822 133.66 133.836 134.789 135.111 136.149 
136.528 137.517 137.863 138.737 139.161 140.086 140.678 131.443 132.106 
132.312 133.203 133.573 134.527 134.925 135.886 136.319 137.306 137.841 
138.823 139.45 140.381 141.014 130.683 130.988 131.119 131.78 132.15 
133.052 133.488 134.407 134.823 135.773 136.305 137.384 138.053 139.137 
139.787 140.733 141.299 130.458 130.523 130.548 130.839 131.083 131.732 
132.188 133.041 133.546 134.409 134.944 135.888 136.55 137.635 138.334 
139.402 139.993 140.944 141.45 130.379 130.274 130.364 130.469 130.298 
130.346 130.526 130.558 130.88 130.652 130.566 130.872 130.783 131.153 
131.218 131.876 131.344 131.126 131.537 131.37 131.854 131.725 132.372 
132.458 133.274 132.272 131.939 132.358 132.175 132.741 132.587 133.241 
133.155 133.907 133.942 134.747 133.411 132.965 133.341 133.067 133.604 
133.46 134.096 134.031 134.745 134.708 135.471 135.476 136.334 134.638 
134.17 134.527 134.145 134.621 134.354 134.936 134.822 135.544 135.532 
136.323 136.298 137.12 137.15 138.065 135.779 135.369 135.719 135.347 
135.803 135.46 136.008 135.751 136.466 136.374 137.226 137.187 138.018 
137.975 138.798 138.857 139.717 136.827 136.457 136.806 136.479 136.94 
136.637 137.183 136.898 137.566 137.391 138.216 138.145 138.979 138.891 
139.644 139.593 140.358 140.423 141.204 137.521 138.712 137.898 137.554 
140.119 139.219 138.879 138.027 137.741 141.654 140.716 140.406 139.469 
139.176 138.3 138.045 143.385 142.358 142.095 141.08 140.792 139.825 
139.584 138.68 138.485 145.372 144.251 144.038 142.909 142.653 141.551 
141.317 140.317 140.174 139.248 139.153 147.411 146.314 146.142 144.988 
144.794 143.588 143.375 142.206 142.054 141.022 140.931 139.988 139.886 
149.349 148.32 148.164 147.083 146.936 145.801 145.65 144.43 144.254 
143.047 142.883 141.799 141.64 140.669 140.514 151.213 150.241 150.108 
149.059 148.909 147.867 147.754 146.673 146.516 145.318 145.087 143.86 
143.629 142.493 142.309 141.301 141.196 152.931 152.077 151.989 150.99 
150.822 149.789 149.636 148.643 148.483 147.438 147.189 146.037 145.756 
144.575 144.354 143.225 143.085 142.065 142.009 142.763 143.935 143.669 
144.329 145.24 144.96 145.724 145.36 146.037 146.59 146.294 147.082 
146.792 147.559 147.169 147.922 147.974 147.655 148.412 148.135 148.97 
148.685 149.533 149.16 150.021 149.305 149.044 149.845 149.532 150.417 
150.132 151.078 150.765 151.664 151.293 152.158 150.538 150.367 151.281 
151.021 151.957 151.666 152.627 152.324 153.213 152.866 153.655 153.318 
154.086 151.766 151.635 152.615 152.433 153.375 153.159 154.06 153.819 
154.64 154.336 155.05 154.715 155.396 155.103 155.78 152.914 152.859 
153.826 153.714 154.609 154.452 155.282 155.106 155.877 155.652 156.352 
156.054 156.717 156.394 157.048 156.727 157.317 153.799 153.87 154.784 
154.795 155.647 155.574 156.371 156.236 157.001 156.818 157.542 157.302 
157.979 157.692 158.327 158.006 158.572 158.205 158.66 135.687 135.348 
135.187 134.554 135.159 134.877 134.131 133.97 133.263 135.148 134.741 
133.907 133.579 132.77 132.615 132.018 135.25 134.783 133.923 133.454 
132.62 132.265 131.668 131.576 131.318 135.339 134.891 134.084 133.582 
132.813 132.32 131.72 131.424 131.102 131.088 130.925 135.464 135.006 
134.289 133.815 133.157 132.656 132.048 131.605 131.095 130.888 130.518 
130.569 130.297 135.756 135.245 134.597 134.099 133.495 133.027 132.421 
131.943 131.294 130.89 130.334 130.17 129.858 129.935 129.859 136.193 
135.662 135.066 134.512 133.901 133.382 132.766 132.273 131.634 131.134 
130.564 130.17 129.879 129.732 129.766 129.817 130.012 136.686 136.166 
135.629 135.06 134.481 133.875 133.274 132.685 132.129 131.571 131.12 
130.614 130.364 130.023 130.043 129.933 130.115 130.143 130.316 135.758 
134.64 135.344 135.685 133.38 134.173 134.556 135.364 135.886 132.173 
132.889 133.33 134.204 134.8 135.673 136.305 131.481 131.894 132.313 
133.033 133.678 134.57 135.252 136.113 136.697 131.078 131.404 131.72 
132.215 132.782 133.525 134.212 135.046 135.654 136.443 136.932 130.472 
130.897 131.15 131.647 132.093 132.734 133.351 134.086 134.71 135.443 
135.999 136.699 137.204 130.05 130.301 130.582 131.006 131.441 132.031 
132.618 133.297 133.931 134.609 135.233 135.89 136.503 137.117 137.684 
130.164 130.16 130.456 130.628 131.091 131.48 132.101 132.648 133.325 
133.929 134.612 135.239 135.932 136.539 137.188 137.719 138.276 130.408 
130.387 130.616 130.688 131.105 131.337 131.951 132.325 133.029 133.482 
134.2 134.726 135.464 136.044 136.753 137.291 137.89 138.344 138.84 
136.466 136.45 136.817 137.626 136.697 136.941 137.78 138.099 138.909 
137.125 137.305 138.157 138.389 139.235 139.436 140.174 137.493 137.73 
138.566 138.814 139.687 139.876 140.675 140.772 141.577 137.677 137.984 
138.783 139.128 139.993 140.304 141.157 141.339 142.203 142.343 143.338 
137.875 138.115 138.857 139.218 140.041 140.47 141.328 141.704 142.548 
142.865 143.791 144.124 145.097 138.279 138.383 139.068 139.303 140.068 
140.446 141.278 141.731 142.543 142.984 143.767 144.258 145.074 145.58 
146.309 138.81 138.849 139.496 139.611 140.325 140.547 141.33 141.682 
142.493 142.9 143.651 144.077 144.789 145.295 145.986 146.493 147.074 
139.33 139.369 139.99 140.078 140.758 140.89 141.608 141.825 142.598 
142.912 143.698 144.028 144.766 145.101 145.815 146.194 146.877 147.251 
147.86 142.874 142.135 142.12 141.332 141.365 141.34 140.492 140.498 
139.65 140.612 140.559 139.674 139.632 138.715 138.727 137.827 139.939 
139.831 138.938 138.834 137.904 137.826 136.921 136.91 136.056 139.437 
139.244 138.391 138.193 137.305 137.12 136.246 136.124 135.287 135.23 
134.415 139.153 138.881 138.102 137.804 136.989 136.688 135.86 135.602 
134.77 134.575 133.714 133.611 132.793 139.035 138.729 138.012 137.657 
136.88 136.511 135.716 135.366 134.558 134.218 133.371 133.061 132.247 
132.082 131.448 138.998 138.694 138.026 137.65 136.882 136.468 135.662 
135.279 134.491 134.119 133.33 132.921 132.176 131.812 131.255 131.057 
130.746 139.004 138.703 138.084 137.712 136.98 136.526 135.719 135.269 
134.487 134.092 133.352 132.962 132.265 131.888 131.343 131.074 130.765 
130.635 130.507 
POINT_DATA 1002
SCALARS Distance double
LOOKUP_TABLE default
138.252 137.188 137.943 139.122 138.804 139.566 140.025 139.786 140.494 
141.019 140.987 140.904 141.403 141.988 142.587 142.059 141.967 142.411 
143.038 143.744 144.44 143.073 142.761 143.59 144.26 145.061 145.829 
146.497 143.945 143.454 144.786 145.579 146.383 147.226 147.934 148.476 
144.896 144.346 145.935 146.902 147.662 148.492 149.292 149.896 150.35 
146.072 145.476 147.115 148.2 149.016 149.806 150.641 151.293 151.759 
152.138 147.387 146.703 148.359 149.439 150.368 151.204 152.057 152.729 
153.132 153.438 153.714 136.701 137.49 136.255 137.159 135.91 138.46 
137.007 135.764 138.302 139.647 136.973 135.721 138.252 139.624 140.939 
136.894 135.613 138.209 139.604 141.03 142.057 136.771 135.514 138.184 
139.638 141.153 142.36 142.908 136.751 135.575 138.205 139.707 141.203 
142.622 143.413 143.691 136.875 135.804 138.253 139.711 141.09 142.497 
143.647 144.173 144.569 137.119 136.167 138.339 139.684 140.996 142.284 
143.479 144.301 144.829 145.556 137.217 138.256 138.445 139.424 139.649 
139.488 140.563 140.849 140.7 140.886 141.908 142.444 142.028 142.371 
142.343 143.673 144.428 143.278 143.644 143.832 143.554 145.554 146.067 
144.513 144.154 144.513 144.551 144.349 146.988 146.985 146.065 144.975 
144.78 145.049 145.069 144.983 147.928 147.621 147.713 146.945 146.324 
146.2 146.165 146.037 145.861 148.79 148.451 149.098 149.156 148.922 
148.557 148.146 147.754 147.438 147.107 148.501 148.991 150.61 149.434 
151.183 152.799 149.948 151.697 153.459 154.994 150.615 152.27 154.049 
155.826 157.237 151.172 152.873 154.534 156.57 158.247 159.434 151.247 
153.135 154.777 156.909 159.024 160.38 161.333 150.823 152.805 154.643 
156.744 159.123 160.928 162.022 162.906 150.245 152.146 154.17 156.284 
158.636 160.776 162.262 163.345 164.305 149.8 151.554 153.567 155.679 
157.917 160.124 161.912 163.259 164.426 165.43 149.459 151.699 150.534 
153.961 152.813 151.599 156.244 155.152 153.905 152.578 158.577 157.558 
156.255 154.878 153.508 160.751 159.95 158.66 157.101 155.679 154.255 
162.54 161.966 160.939 159.394 157.745 156.2 154.648 164.094 163.531 
162.654 161.422 159.85 158.107 156.391 154.834 165.476 164.926 163.922 
162.765 161.491 159.912 158.109 156.426 155.009 166.35 166.26 166.594 
166.224 165.941 165.302 165.322 164.904 164.932 163.877 164.173 164.033 
164.036 163.355 162.521 163.168 163.169 163.096 162.672 161.985 161.152 
162.187 162.165 162.169 161.964 161.388 160.553 159.458 161.222 161.192 
161.162 161.018 160.612 159.856 158.843 157.658 160.232 160.184 160.105 
159.858 159.485 158.905 158.109 157.161 156.108 159.09 159.05 158.944 
158.648 158.252 157.76 157.165 156.483 155.685 154.742 165.455 165.991 
164.741 164.784 163.632 165.76 163.482 162.607 164.407 165.03 162.488 
161.559 163.357 164.179 164.469 161.36 160.203 162.407 163.46 164.117 
163.938 159.953 158.739 161.109 162.256 163.187 163.439 162.946 158.554 
157.371 159.735 160.82 161.687 162.202 162.21 161.787 157.168 156.042 
158.377 159.51 160.316 160.811 161.086 161.05 160.714 155.751 154.75 
156.882 158.052 158.97 159.525 159.877 160.035 159.916 159.566 149.024 
150.66 149.803 151.614 150.576 152.613 152.518 151.413 153.671 154.754 
153.465 152.335 154.656 155.89 157.022 154.309 153.049 155.562 156.895 
158.237 159.343 154.891 153.56 156.245 157.694 159.2 160.484 161.38 
155.38 154.066 156.754 158.255 159.845 161.224 162.244 162.946 155.795 
154.493 157.148 158.605 160.174 161.556 162.628 163.571 164.268 147.515 
148.032 146.501 146.99 145.484 148.716 145.915 144.463 147.589 149.423 
144.751 143.366 146.411 148.282 150.294 143.582 142.326 145.135 147.06 
149.134 151.159 142.61 141.455 143.942 145.721 147.846 149.892 151.774 
141.763 140.653 142.96 144.469 146.475 148.613 150.532 152.335 140.924 
139.907 142.061 143.386 145.148 147.295 149.368 151.197 152.906 140.179 
139.296 141.219 142.427 143.943 145.912 148.081 150.056 151.768 153.321 