# vtk DataFile Version 4.0
vtk output
ASCII
DATASET POLYDATA
POINTS 1002 float
-76.1207 -109.58 58.2557 -76.1771 -108.822 57.469 -76.9965 -109.045 57.9029 
-76.8804 -109.785 58.7126 -77.7545 -109.169 58.5621 -75.8853 -110.61 58.8538 
-77.5569 -109.924 59.3341 -78.4093 -109.237 59.4627 -76.5366 -110.9 59.268 
-75.4201 -111.868 59.5823 -78.1684 -110.275 60.0513 -79.0348 -109.648 60.4186 
-77.1224 -111.291 59.7316 -75.9441 -112.378 59.9684 -74.9232 -113.251 60.7159 
-78.6349 -111.301 60.6248 -79.5529 -110.759 61.0367 -77.5954 -112.131 60.1078 
-76.3523 -113.179 60.2194 -75.3199 -114.143 60.9848 -74.6086 -114.935 61.8311 
-78.686 -112.85 60.6471 -79.6876 -112.254 60.9488 -77.706 -113.525 60.2076 
-76.5612 -114.374 60.2704 -75.5692 -115.312 61.0784 -74.9584 -116.129 62.0411 
-74.4314 -116.833 62.7487 -78.3446 -114.192 59.9392 -79.4491 -113.541 60.1943 
-77.4259 -114.908 59.8731 -76.5569 -115.679 60.2203 -75.8006 -116.544 61.1584 
-75.3269 -117.31 62.3495 -74.9111 -117.901 63.2694 -74.3579 -118.466 63.9179 
-78.0359 -115.125 59.0547 -79.1472 -114.532 59.3195 -77.221 -115.876 59.3774 
-76.6621 -116.675 60.2669 -76.2068 -117.533 61.457 -75.8804 -118.32 62.7801 
-75.5515 -118.837 63.9356 -75.0619 -119.279 64.7263 -74.5024 -119.81 65.2881 
-78.0332 -115.974 58.8107 -78.9831 -115.436 58.9045 -77.4081 -116.699 59.3897 
-77.1238 -117.465 60.6523 -76.8801 -118.246 62.0688 -76.5842 -119.084 63.3442 
-76.2729 -119.719 64.5015 -75.8596 -120.12 65.4237 -75.3501 -120.575 66.0426 
-74.8377 -121.08 66.4786 -78.3315 -116.825 59.393 -79.0173 -116.307 59.1081 
-77.9063 -117.536 60.1647 -77.7885 -118.288 61.4547 -77.6627 -118.958 62.8568 
-77.3338 -119.715 64.016 -76.9567 -120.485 65.0098 -76.6032 -120.994 65.9296 
-76.1923 -121.373 66.6545 -75.7102 -121.81 67.1399 -75.193 -122.196 67.4797 
-76.7287 -108.308 56.7486 -77.6294 -108.585 57.2321 -77.3559 -107.723 56.0043 
-78.3205 -108.068 56.4888 -78.0273 -107.037 55.3035 -78.447 -108.757 58.0497 
-79.0184 -107.444 55.7539 -78.7121 -106.51 54.4056 -79.2051 -108.398 57.3557 
-79.1927 -108.858 59.1837 -79.6982 -106.917 54.848 -79.3981 -106.315 53.2352 
-79.9408 -107.946 56.565 -80.1253 -108.606 58.5437 -79.9972 -109.266 60.2808 
-80.4016 -106.508 53.7346 -80.0384 -106.123 52.0745 -80.5972 -107.421 55.6077 
-80.9392 -108.292 57.6539 -81.0948 -108.987 59.5884 -80.6538 -110.339 60.8875 
-81.0541 -106.074 52.5523 -80.5821 -105.774 50.9293 -81.25 -106.911 54.4395 
-81.4349 -108 56.537 -81.7523 -108.844 58.4993 -81.6586 -110.032 60.1395 
-80.8101 -111.824 60.8377 -81.4383 -105.9 51.3109 -80.9775 -105.707 49.6906 
-81.7547 -106.623 53.1477 -81.7753 -107.886 55.2094 -81.8368 -108.984 57.1401 
-81.9786 -109.998 58.9036 -81.6559 -111.52 60.2473 -80.5766 -113.184 60.2822 
-81.4947 -106.3 50.1235 -81.1731 -106.175 48.6246 -81.8559 -106.793 51.8866 
-81.9501 -107.946 53.8908 -81.8213 -109.241 55.7603 -81.8648 -110.193 57.4222 
-81.9253 -111.325 59.071 -81.408 -112.857 59.9565 -80.2303 -114.284 59.5611 
-81.4073 -107.068 49.2191 -81.1953 -106.924 47.9989 -81.6912 -107.362 50.8005 
-81.8763 -108.163 52.7492 -81.8518 -109.388 54.6461 -81.8884 -110.404 56.1678 
-82.0458 -111.222 57.6459 -81.8532 -112.433 58.9588 -81.0291 -113.943 59.3587 
-79.9019 -115.264 59.0693 -81.2754 -107.853 48.3117 -81.5225 -108.07 49.5413 
-81.4867 -108.879 48.6995 -81.7509 -109.194 50.1075 -81.7894 -110.08 49.3359 
-81.728 -108.493 51.3676 -81.8722 -110.554 51.021 -81.845 -111.485 50.3465 
-81.7894 -109.796 52.2233 -81.8167 -109.439 53.5126 -81.6183 -112.003 52.0502 
-81.6258 -112.902 51.3756 -81.7087 -111.303 53.1387 -81.9328 -110.85 54.3171 
-82.0098 -110.588 55.2502 -81.2675 -113.264 52.8217 -81.4206 -114.291 52.2309 
-81.3851 -112.61 53.7203 -81.9887 -112.268 54.7836 -82.4505 -111.836 55.7046 
-82.3339 -111.399 56.5504 -81.0872 -114.716 53.6536 -81.1348 -115.794 53.3722 
-81.0665 -113.81 54.15 -81.6215 -113.424 54.9152 -82.3855 -113.104 55.829 
-82.5489 -112.578 56.7383 -82.1998 -112.312 57.7967 -80.9013 -116.648 55.0232 
-80.6416 -117.326 54.9422 -80.9502 -115.712 55.1385 -81.1607 -114.966 55.4552 
-81.6387 -114.541 56.1007 -81.8716 -114.121 56.8685 -81.6726 -113.794 57.6842 
-81.3585 -113.802 58.6037 -80.6975 -118.492 56.6659 -80.2294 -118.664 56.5309 
-81.0054 -117.997 56.7172 -81.1476 -117.235 56.795 -81.2369 -116.534 57.1498 
-81.1691 -116.033 57.652 -80.8781 -115.677 58.0314 -80.571 -115.48 58.4178 
-80.2944 -115.384 58.8444 -80.6224 -119.752 58.169 -80.0991 -119.715 57.9372 
-81.1241 -119.635 58.326 -81.4622 -119.216 58.4199 -81.5618 -118.568 58.6895 
-81.3611 -117.956 59.1347 -80.8855 -117.524 59.3554 -80.3713 -117.196 59.2989 
-79.9559 -116.884 59.2638 -79.5293 -116.578 59.2487 -79.014 -117.449 60.2285 
-79.6668 -117.775 60.5443 -79.5829 -118.653 62.1441 -80.2833 -118.201 60.7975 
-80.3126 -119.018 62.4809 -80.2939 -120.054 63.9696 -80.9058 -118.625 61.0824 
-80.9554 -119.502 62.7588 -80.9118 -120.559 64.2176 -80.8881 -121.674 65.5667 
-81.5615 -119.017 61.1445 -81.5859 -119.929 62.9515 -81.4709 -121.051 64.408 
-81.548 -122.211 65.8457 -81.7586 -122.984 67.446 -82.0027 -119.51 60.7176 
-82.176 -120.345 62.7279 -82.1306 -121.456 64.4151 -82.3339 -122.576 65.937 
-82.7222 -123.258 67.6622 -82.8766 -123.764 69.1928 -81.9929 -120.064 60.198 
-82.3635 -120.834 62.1428 -82.6048 -121.974 64.0843 -83.0716 -123.056 65.7823 
-83.6278 -123.566 67.4427 -83.802 -123.956 69.1383 -83.5396 -124.711 70.3502 
-81.6089 -120.442 59.9452 -82.0212 -121.194 61.6922 -82.4371 -122.445 63.6333 
-83.1516 -123.73 65.5013 -83.92 -124.268 67.0477 -84.2387 -124.546 68.6112 
-84.0978 -125.245 70.198 -83.696 -126.097 71.3822 -81.046 -120.58 59.7713 
-81.4337 -121.336 61.4551 -81.8242 -122.582 63.263 -82.5291 -124.099 65.1523 
-83.3836 -124.956 66.7458 -83.9015 -125.365 68.0631 -84.0956 -126.105 69.5868 
-84.0926 -126.958 71.1733 -83.803 -127.38 72.3912 -80.4592 -120.59 59.5212 
-80.829 -121.377 61.2344 -81.177 -122.497 62.9451 -81.7602 -124.014 64.6741 
-82.5479 -125.168 66.3455 -83.1352 -125.809 67.7008 -83.5493 -126.68 68.9575 
-83.986 -127.731 70.4452 -84.1766 -128.288 71.8926 -83.8898 -128.24 72.9728 
-78.6712 -118.119 61.1519 -79.4255 -119.48 63.2804 -78.5438 -118.956 62.3376 
-80.117 -120.969 65.0289 -79.2575 -120.369 64.355 -78.4451 -119.707 63.599 
-80.8424 -122.447 66.8701 -79.8898 -121.8 66.1224 -78.9632 -121.157 65.3961 
-78.1149 -120.419 64.7099 -81.8786 -123.581 68.8287 -80.8054 -123.145 68.1044 
-79.6879 -122.604 67.2501 -78.6014 -121.98 66.4213 -77.677 -121.241 65.6655 
-82.7266 -124.618 70.1512 -81.753 -124.39 69.663 -80.6538 -123.937 69.0352 
-79.446 -123.383 68.2469 -78.2688 -122.702 67.3794 -77.32 -121.884 66.5826 
-83.0292 -125.814 71.2576 -82.2064 -125.583 70.8563 -81.2449 -125.168 70.4167 
-80.1406 -124.582 69.8275 -78.9782 -123.891 69.0637 -77.8821 -123.104 68.233 
-76.9567 -122.258 67.4003 -83.1498 -126.819 72.5908 -82.3891 -126.383 72.4652 
-81.5496 -126 72.1432 -80.5295 -125.574 71.4721 -79.4235 -125.008 70.558 
-78.3662 -124.229 69.7365 -77.3721 -123.4 68.9065 -76.479 -122.617 67.9831 
-83.2723 -127.519 73.5623 -82.5687 -126.82 73.9442 -81.8939 -126.299 74.0453 
-81.0411 -126.038 73.4771 -79.9328 -125.883 72.2313 -78.792 -125.406 71.0554 
-77.7276 -124.557 70.2187 -76.7425 -123.708 69.327 -75.8959 -122.964 68.3404 
-83.3876 -128.456 73.5897 -82.7453 -127.658 74.3831 -82.5386 -128.895 74.0192 
-81.9875 -128.162 74.8781 -81.5252 -129.546 74.4099 -82.159 -126.835 75.0595 
-80.8174 -128.82 75.0782 -80.2757 -129.718 74.6228 -81.3808 -127.264 75.4712 
-81.5269 -126.293 75.1128 -79.1205 -128.979 75.0215 -78.6348 -129.456 74.3121 
-79.7596 -127.817 75.3225 -80.5042 -126.661 75.1523 -80.5299 -126.25 74.0208 
-77.4103 -128.917 74.5446 -76.9226 -129.533 73.6162 -77.7939 -128.013 75.0597 
-78.6013 -127.031 74.8205 -79.3496 -126.582 73.8389 -79.2595 -126.246 72.4209 
-76.0287 -129.027 73.7298 -75.403 -129.719 72.9922 -76.4342 -128.063 74.4388 
-76.8944 -127.126 74.4967 -77.6691 -126.657 73.6365 -78.1213 -126.372 72.3882 
-77.9794 -125.627 71.2549 -74.5616 -128.891 72.9945 -73.9774 -129.418 72.4893 
-75.2242 -128.033 73.4516 -75.7669 -127.137 73.6441 -76.2815 -126.586 73.1725 
-76.719 -126.215 72.2094 -76.8322 -125.552 71.2482 -76.7755 -124.625 70.3348 
-72.9928 -128.444 72.4446 -72.7063 -128.872 71.8923 -73.5442 -127.778 72.7024 
-74.2754 -127.037 72.6536 -74.9356 -126.515 72.2783 -75.3631 -126.086 71.6553 
-75.5339 -125.385 70.9612 -75.6194 -124.517 70.1996 -75.7663 -123.73 69.2978 
-71.7877 -128.073 71.8426 -71.7444 -128.482 71.1512 -71.9688 -127.496 72.239 
-72.4671 -126.815 72.1667 -73.2074 -126.277 71.6946 -73.8791 -125.883 71.1155 
-74.2622 -125.265 70.5836 -74.4729 -124.391 69.9722 -74.7301 -123.601 69.1783 
-75.0111 -122.934 68.3026 -83.995 -128.996 72.5118 -83.2486 -129.265 72.9945 
-83.5118 -129.383 71.7963 -82.5194 -129.676 72.32 -82.438 -129.307 71.0626 
-82.1414 -129.773 73.4693 -81.4435 -129.711 71.5388 -81.2748 -129.098 70.2428 
-81.3745 -130.13 72.8329 -81.0378 -130.152 73.8947 -80.468 -129.658 70.4418 
-80.3081 -128.943 69.2282 -80.4794 -130.202 71.7679 -80.2827 -130.328 72.9287 
-79.6841 -129.945 73.7972 -79.4741 -129.434 69.2152 -79.2915 -128.612 68.2295 
-79.5363 -130.086 70.3857 -79.3303 -130.472 71.5103 -78.7306 -130.275 72.47 
-77.839 -129.838 73.192 -78.2931 -128.882 68.1896 -78.2185 -128.019 67.3626 
-78.355 -129.582 69.1247 -78.216 -130.256 70.1501 -77.6296 -130.604 71.1578 
-76.7795 -130.435 72.0404 -76.0148 -130.13 72.6597 -77.2729 -128.194 67.28 
-77.337 -127.336 66.4506 -77.192 -128.937 68.0419 -77.0503 -129.669 68.8782 
-76.5751 -130.327 69.8819 -75.8088 -130.577 70.9075 -75.1062 -130.433 71.7227 
-74.5402 -130.054 72.2323 -76.5302 -127.496 66.2891 -76.6232 -126.652 65.4421 
-76.3572 -128.342 66.9988 -76.1352 -129.157 67.6173 -75.6936 -129.819 68.405 
-74.9939 -130.165 69.3997 -74.3292 -130.2 70.3556 -73.8109 -129.985 71.0982 
-73.2869 -129.514 71.5976 -75.8461 -126.753 65.2655 -75.955 -125.973 64.4735 
-75.6645 -127.616 65.9758 -75.4386 -128.538 66.5238 -75.047 -129.288 67.0955 
[...]
CELL_DATA 2000
SCALARS Distance double
LOOKUP_TABLE default
144.276 145.031 144.806 145.131 145.774 145.54 145.854 145.67 146.058 
146.662 146.323 146.644 146.41 146.831 146.663 147.177 147.87 147.371 
147.693 147.306 147.742 147.501 148.082 147.926 148.604 149.1 148.634 
148.889 148.446 148.812 148.494 149.085 148.913 149.676 149.523 150.304 
149.843 149.597 149.727 149.484 149.777 149.547 150.118 149.974 150.797 
150.671 151.523 151.309 152.068 150.169 150.025 150.124 150.072 150.459 
150.408 151.082 151.023 151.93 151.848 152.772 152.573 153.362 153.071 
153.775 150.581 150.358 150.619 150.529 151.18 151.163 152.068 152.039 
153.055 153.005 153.99 153.838 154.66 154.382 155.089 154.772 155.444 
151.325 151.032 151.546 151.356 152.252 152.165 153.245 153.164 154.226 
154.146 155.132 155.026 155.874 155.66 156.37 156.077 156.727 156.41 
157.004 143.865 143.516 144.031 144.668 143.142 143.707 144.427 144.873 
145.47 142.758 143.341 144.157 144.679 145.387 145.733 146.376 142.447 
142.975 143.832 144.431 145.283 145.718 146.465 146.778 147.562 142.196 
142.674 143.467 144.097 145.025 145.612 146.476 146.894 147.731 148.086 
148.858 141.872 142.361 143.074 143.702 144.616 145.309 146.247 146.826 
147.714 148.2 149.014 149.318 149.805 141.541 141.988 142.687 143.284 
144.194 144.899 145.861 146.515 147.414 148.033 148.904 149.4 150.003 
150.105 150.287 141.454 141.75 142.444 142.936 143.85 144.512 145.495 
146.139 147.006 147.626 148.47 149.129 149.87 150.249 150.591 150.527 
150.633 141.674 141.819 142.464 142.793 143.639 144.204 145.181 145.81 
146.69 147.242 148.013 148.621 149.372 149.962 150.489 150.74 150.96 
150.917 151.159 142.077 143.01 142.6 142.842 144.17 143.639 143.894 
143.507 143.974 145.548 144.927 145.19 144.688 145.165 144.838 145.48 
146.901 146.313 146.568 146.066 146.545 146.144 146.751 146.413 146.995 
148.097 147.533 147.691 147.315 147.777 147.509 148.092 147.735 148.222 
147.821 148.287 149.412 148.727 148.769 148.297 148.654 148.51 149.073 
148.924 149.346 149.002 149.338 149.024 149.501 150.99 150.25 150.407 
149.61 149.904 149.418 149.944 149.742 150.204 149.956 150.232 149.957 
150.284 150.142 150.539 152.581 151.999 152.45 151.599 152.008 151.11 
151.617 150.936 151.48 150.948 151.341 150.871 151.178 150.865 151.168 
150.985 151.155 153.962 153.595 154.221 153.659 154.194 153.396 153.884 
153.004 153.517 152.675 153.143 152.341 152.705 152.012 152.314 151.784 
151.987 151.542 151.587 152.139 152.704 152.81 153.725 153.26 153.447 
154.47 154.642 155.783 153.848 154.102 155.239 155.421 156.58 156.77 
157.956 154.413 154.755 155.954 156.185 157.337 157.551 158.753 158.969 
160.166 154.858 155.287 156.499 156.825 157.972 158.254 159.452 159.737 
160.95 161.163 162.242 155.179 155.639 156.797 157.228 158.397 158.815 
160.061 160.417 161.615 161.863 162.901 163.066 163.946 155.327 155.823 
156.84 157.353 158.481 159.093 160.406 160.957 162.16 162.463 163.423 
163.613 164.497 164.664 165.5 155.203 155.773 156.659 157.229 158.241 
158.979 160.26 161.075 162.289 162.823 163.711 164.008 164.85 165.149 
166.09 166.273 167.072 154.868 155.483 156.324 156.929 157.851 158.592 
159.753 160.682 161.874 162.665 163.546 164.057 164.824 165.32 166.262 
166.732 167.62 167.776 168.321 152.014 153.722 152.682 152.508 155.856 
154.713 154.64 153.474 153.408 158.036 156.923 156.88 155.74 155.677 
154.51 154.433 160.248 159.13 159.071 157.934 157.839 156.722 156.593 
155.47 155.344 162.344 161.347 161.32 160.162 160.063 158.877 158.751 
157.585 157.431 156.314 156.181 164.074 163.297 163.333 162.354 162.27 
161.137 160.993 159.793 159.604 158.409 158.197 157.088 156.887 165.614 
164.906 164.975 164.179 164.11 163.18 162.987 161.932 161.651 160.522 
160.195 159.065 158.743 157.674 157.371 167.082 166.398 166.409 165.694 
165.624 164.836 164.648 163.728 163.411 162.388 161.998 160.934 160.528 
159.466 159.081 158.055 157.704 168.217 167.683 167.563 166.974 166.849 
166.214 166.055 165.276 164.997 164.053 163.67 162.639 162.203 161.157 
160.706 159.692 159.264 158.303 157.919 168.592 168.755 168.462 167.969 
168.925 168.642 168.214 167.834 167.305 168.869 168.785 168.342 168.055 
167.547 167.176 166.561 168.141 168.435 167.974 167.965 167.382 167.25 
166.643 166.324 165.54 167.074 167.479 167.091 167.292 166.687 166.784 
166.186 166.177 165.471 165.151 164.227 166.151 166.478 166.148 166.356 
165.812 165.941 165.365 165.513 164.911 164.879 164.042 163.709 162.716 
165.149 165.537 165.142 165.426 164.888 165.066 164.476 164.646 164.048 
164.165 163.402 163.311 162.355 162.093 161.129 163.936 164.378 163.919 
164.294 163.722 164.031 163.423 163.69 163.065 163.253 162.506 162.537 
161.638 161.547 160.631 160.475 159.624 162.805 163.168 162.751 163.06 
162.518 162.804 162.216 162.526 161.942 162.215 161.542 161.645 160.827 
160.789 159.947 159.881 159.107 159.006 158.263 168.932 169.088 169.089 
169.042 168.597 168.992 169.107 169.155 169.153 167.668 168.309 168.598 
169.001 169.11 169.213 169.07 166.652 167.354 167.723 168.327 168.498 
168.878 168.702 168.791 168.297 165.544 166.307 166.64 167.354 167.534 
168.074 167.917 168.165 167.696 167.738 167.178 164.244 165.064 165.291 
166.103 166.247 166.964 166.909 167.322 166.993 167.118 166.691 166.709 
166.278 162.896 163.687 163.857 164.641 164.746 165.541 165.564 166.215 
166.035 166.4 166.052 166.218 165.809 165.852 165.336 161.594 162.348 
162.531 163.25 163.37 164.082 164.131 164.818 164.705 165.271 164.965 
165.381 164.954 165.216 164.687 164.765 164.135 160.315 161.048 161.221 
161.952 162.087 162.787 162.846 163.478 163.379 163.919 163.648 164.128 
163.759 164.168 163.722 163.978 163.444 163.523 162.962 154.931 155.572 
155.639 156.418 156.241 156.329 157.166 157.188 158.016 156.845 156.982 
157.906 158.003 158.974 158.966 159.962 157.53 157.623 158.626 158.772 
159.876 159.981 161.07 161.059 162.042 158.324 158.405 159.429 159.556 
160.707 160.881 162.009 162.093 163.026 162.986 163.699 158.962 159.165 
160.165 160.349 161.432 161.663 162.766 162.938 163.88 163.884 164.644 
164.499 165.113 159.377 159.679 160.669 160.952 161.965 162.261 163.291 
163.565 164.518 164.662 165.527 165.506 166.318 166.071 166.724 159.705 
160.029 161.004 161.342 162.332 162.672 163.652 163.976 164.889 165.157 
166.016 166.242 167.103 167.2 167.934 167.706 168.131 159.949 160.3 
161.212 161.592 162.523 162.924 163.855 164.244 165.112 165.434 166.21 
166.523 167.28 167.633 168.309 168.514 168.897 168.743 168.777 154.063 
152.952 153.879 154.679 151.922 152.781 153.566 154.537 155.342 150.933 
151.739 152.432 153.4 154.206 155.177 155.939 149.905 150.683 151.275 
152.218 152.986 154.007 154.821 155.782 156.594 148.896 149.621 150.148 
151.023 151.752 152.772 153.62 154.648 155.511 156.496 157.351 147.962 
148.641 149.137 149.919 150.608 151.566 152.419 153.452 154.32 155.351 
156.185 157.2 157.971 147.108 147.753 148.254 148.959 149.599 150.466 
151.288 152.282 153.146 154.149 154.957 155.961 156.721 157.715 158.404 
146.383 146.971 147.499 148.137 148.74 149.497 150.246 151.169 152.019 
153.001 153.824 154.776 155.544 156.485 157.208 158.134 158.783 145.798 
146.324 146.855 147.443 148.018 148.678 149.334 150.145 150.925 151.875 
152.706 153.673 154.459 155.379 156.103 156.992 157.649 158.515 159.086 
145.652 145.756 146.037 146.714 145.861 146.159 146.893 147.167 147.883 
146.054 146.304 147.068 147.359 148.149 148.4 149.192 146.406 146.588 
147.389 147.619 148.497 148.736 149.639 149.844 150.767 146.854 147.021 
147.898 148.084 149.051 149.233 150.23 150.397 151.401 151.566 152.554 
147.395 147.537 148.476 148.671 149.699 149.894 150.927 151.081 152.093 
152.246 153.255 153.398 154.336 148.08 148.172 149.116 149.279 150.299 
150.525 151.56 151.768 152.759 152.929 153.901 154.074 155.021 155.14 
155.987 148.781 148.893 149.807 149.938 150.891 151.088 152.095 152.341 
153.345 153.555 154.499 154.676 155.586 155.759 156.62 156.729 157.501 
149.339 149.524 150.406 150.577 151.468 151.65 152.595 152.842 153.842 
154.098 155.046 155.238 156.102 156.274 157.11 157.283 158.08 158.19 
158.908 149.881 151.128 150.663 151.002 152.575 152.01 152.363 151.82 
152.116 154.181 153.544 153.896 153.279 153.607 152.986 153.283 155.827 
155.172 155.514 154.875 155.22 154.568 154.903 154.239 154.551 157.507 
156.837 157.201 156.534 156.905 156.23 156.574 155.898 156.203 155.52 
155.76 159.159 158.548 158.973 158.297 158.716 157.991 158.356 157.612 
157.912 157.179 157.401 156.665 156.816 160.547 160.119 160.569 160.034 
160.454 159.812 160.184 159.453 159.772 158.975 159.216 158.376 158.532 
157.708 157.83 161.584 161.341 161.79 161.447 161.834 161.376 161.714 
161.163 161.488 160.828 161.09 160.275 160.423 159.52 159.605 158.739 
158.815 162.384 162.259 162.758 162.532 162.962 162.607 162.957 162.521 
162.843 162.36 162.625 162.014 162.136 161.359 161.369 160.517 160.505 
159.668 159.652 149.388 149.031 149.666 150.625 148.713 149.361 150.391 
151.021 152.089 148.371 149.083 150.183 150.844 152.001 152.616 153.739 
147.984 148.756 149.935 150.65 151.876 152.565 153.804 154.362 155.46 
147.688 148.433 149.677 150.406 151.666 152.42 153.755 154.449 155.682 
156.135 157.173 147.539 148.22 149.46 150.172 151.398 152.163 153.476 
154.314 155.637 156.311 157.427 157.836 158.782 147.472 148.087 149.252 
149.945 151.098 151.84 153.03 153.901 155.173 156.072 157.252 157.933 
158.893 159.333 160.138 147.474 148.004 149.078 149.711 150.81 151.504 
152.614 153.398 154.564 155.468 156.658 157.543 158.59 159.259 160.077 
160.516 161.169 147.543 148 148.995 149.542 150.587 151.222 152.313 
153.011 154.128 154.897 156.038 156.895 157.998 158.809 159.716 160.315 
160.979 161.394 161.933 148.551 147.144 147.941 148.142 145.682 146.493 
146.657 147.508 147.749 144.146 144.987 145.102 145.961 146.112 147.049 
147.301 142.541 143.401 143.514 144.373 144.456 145.338 145.471 146.499 
146.796 140.97 141.795 141.941 142.799 142.926 143.724 143.803 144.669 
144.892 145.992 146.434 139.521 140.27 140.419 141.265 141.466 142.27 
142.42 143.154 143.352 144.224 144.648 145.758 146.33 138.296 138.893 
139.004 139.78 139.994 140.834 141.074 141.856 142.123 142.885 143.282 
144.173 144.732 145.78 146.373 137.455 137.809 137.853 138.451 138.652 
139.418 139.721 140.537 140.911 141.715 142.161 142.966 143.483 144.359 
144.933 145.9 146.469 136.984 137.132 137.094 137.461 137.642 138.234 
138.596 139.316 139.78 140.559 141.09 141.887 142.43 143.221 143.757 
144.594 145.15 146.058 146.606 136.757 136.497 136.644 136.834 136.6 
136.556 136.801 136.932 137.372 137.137 136.904 137.183 137.125 137.602 
137.719 138.349 137.908 137.587 137.854 137.683 138.149 138.125 138.739 
138.847 139.558 138.834 138.436 138.692 138.431 138.85 138.739 139.312 
139.336 140.028 140.143 140.896 139.943 139.473 139.747 139.363 139.746 
139.494 140.019 139.949 140.632 140.687 141.437 141.531 142.269 141.117 
140.65 140.935 140.502 140.852 140.479 140.942 140.734 141.383 141.351 
142.097 142.128 142.851 142.898 143.595 142.25 141.81 142.083 141.674 
141.994 141.604 142.004 141.714 142.293 142.169 142.882 142.842 143.551 
143.529 144.223 144.241 144.96 143.322 142.907 143.154 142.769 143.068 
142.702 143.072 142.764 143.282 143.1 143.759 143.665 144.348 144.275 
144.954 144.923 145.64 145.658 146.397 143.955 144.85 144.203 143.817 
145.824 145.155 144.809 144.118 143.754 146.976 146.228 145.946 145.196 
144.88 144.129 143.813 148.415 147.536 147.304 146.461 146.224 145.392 
145.146 144.317 144.094 150.104 149.135 148.928 147.977 147.79 146.88 
146.704 145.802 145.617 144.737 144.584 151.851 150.892 150.709 149.714 
149.539 148.567 148.416 147.464 147.293 146.349 146.167 145.283 145.142 
153.567 152.647 152.499 151.521 151.349 150.363 150.201 149.227 149.048 
148.067 147.867 146.912 146.744 145.858 145.744 155.253 154.374 154.261 
153.307 153.134 152.155 151.964 150.996 150.791 149.818 149.599 148.63 
148.454 147.523 147.413 146.519 146.447 156.807 156.022 155.92 155.038 
154.862 153.911 153.699 152.731 152.504 151.533 151.294 150.334 150.135 
149.224 149.106 148.226 148.149 147.264 147.196 147.904 148.877 148.701 
149.335 149.837 149.685 150.374 150.2 150.905 150.864 150.684 151.449 
151.292 152.101 151.889 152.663 152.042 151.811 152.642 152.46 153.376 
153.175 154.044 153.744 154.511 153.301 153.078 153.962 153.757 154.704 
154.505 155.415 155.155 155.959 155.615 156.373 154.525 154.353 155.276 
155.107 156.042 155.843 156.7 156.47 157.259 157.008 157.779 157.488 
158.257 155.67 155.545 156.448 156.349 157.267 157.128 157.935 157.705 
158.41 158.194 158.921 158.758 159.494 159.284 159.932 156.699 156.626 
157.462 157.409 158.279 158.236 159.055 158.894 159.564 159.31 159.935 
159.763 160.425 160.319 160.913 160.736 161.184 157.57 157.564 158.358 
158.329 159.145 159.147 159.989 159.94 160.676 160.461 161.056 160.783 
161.36 161.174 161.744 161.589 162.054 161.825 162.161 141.154 140.883 
140.729 140.197 140.944 140.582 139.98 139.749 139.189 141.259 140.778 
140.117 139.68 139.053 138.792 138.277 141.54 141.093 140.39 139.894 
139.195 138.79 138.203 137.95 137.437 141.734 141.305 140.61 140.142 
139.429 138.978 138.356 137.985 137.397 137.102 136.599 142.018 141.522 
140.865 140.382 139.731 139.246 138.65 138.21 137.641 137.198 136.654 
136.351 136.111 142.415 141.873 141.223 140.71 140.091 139.595 139.014 
138.554 138.013 137.541 137.016 136.573 136.271 136.112 136.226 142.837 
142.3 141.652 141.116 140.487 139.973 139.368 138.905 138.357 137.925 
137.422 136.986 136.612 136.339 136.292 136.337 136.565 143.259 142.747 
142.151 141.594 140.999 140.427 139.839 139.293 138.758 138.286 137.833 
137.402 137.026 136.673 136.48 136.372 136.432 136.58 136.756 141.255 
140.269 140.902 141.198 139.221 139.854 140.174 140.885 141.309 138.272 
138.82 139.139 139.861 140.368 141.105 141.647 137.397 137.906 138.209 
138.896 139.452 140.203 140.806 141.513 142.052 136.574 137.037 137.366 
138.031 138.632 139.367 140.013 140.701 141.264 141.908 142.406 136.195 
136.409 136.816 137.31 137.976 138.634 139.336 139.981 140.601 141.196 
141.77 142.335 142.885 136.441 136.411 136.851 137.042 137.689 138.13 
138.849 139.398 140.079 140.638 141.308 141.845 142.492 142.967 143.548 
136.831 136.818 137.184 137.247 137.736 137.989 138.61 139.03 139.713 
140.214 140.926 141.461 142.165 142.66 143.273 143.687 144.212 137 
137.089 137.358 137.466 137.795 138.002 138.496 138.851 139.495 139.937 
140.634 141.122 141.811 142.319 142.94 143.4 143.93 144.329 144.814 
141.843 141.847 142.139 142.783 141.985 142.21 142.895 143.175 143.933 
142.321 142.454 143.138 143.353 144.155 144.455 145.313 142.722 142.856 
143.528 143.676 144.448 144.712 145.61 145.912 146.736 143.053 143.225 
143.914 144.082 144.808 145.025 145.894 146.215 147.136 147.356 148.086 
143.463 143.561 144.264 144.445 145.196 145.391 146.227 146.513 147.476 
147.778 148.659 148.748 149.444 144.046 144.044 144.721 144.844 145.635 
145.806 146.653 146.88 147.81 148.12 149.036 149.273 150.027 150.11 
150.818 144.671 144.644 145.27 145.349 146.113 146.275 147.1 147.306 
148.156 148.434 149.275 149.567 150.296 150.52 151.184 151.4 152.155 
145.272 145.245 145.831 145.882 146.572 146.724 147.469 147.682 148.431 
148.699 149.448 149.745 150.452 150.711 151.374 151.624 152.343 152.657 
153.451 148.522 147.944 147.87 147.101 147.238 147.214 146.444 146.405 
145.636 146.566 146.501 145.736 145.703 144.928 144.9 144.105 146.057 
145.91 145.131 145.021 144.231 144.171 143.355 143.316 142.497 145.649 
145.467 144.669 144.479 143.648 143.509 142.683 142.589 141.755 141.702 
140.921 145.313 145.09 144.299 144.06 143.222 142.999 142.179 142.001 
141.184 141.032 140.223 140.165 139.466 145.127 144.83 144.071 143.764 
142.986 142.683 141.918 141.638 140.86 140.585 139.78 139.57 138.857 
138.811 138.269 145.067 144.737 144.038 143.67 142.965 142.587 141.887 
141.521 140.8 140.419 139.658 139.294 138.621 138.394 137.925 137.847 
137.519 145.036 144.733 144.113 143.748 143.105 142.69 142.017 141.593 
140.898 140.472 139.765 139.332 138.706 138.359 137.941 137.734 137.48 
137.344 137.132 
POINT_DATA 1002
SCALARS Distance double
LOOKUP_TABLE default
144.589 143.735 144.507 145.324 145.265 145.482 146.034 146.026 146.206 
146.488 146.909 147.053 146.992 147.299 147.747 148.154 148.405 148.022 
148.217 148.736 149.332 149.349 149.552 149.171 149.252 149.792 150.505 
151.077 149.899 150.087 149.942 150.225 150.884 151.72 152.347 152.782 
150.099 150.33 150.381 151.06 151.966 152.944 153.655 154.085 154.46 
150.651 150.768 151.111 152.052 153.095 154.109 154.919 155.409 155.773 
156.1 151.681 151.528 152.31 153.337 154.35 155.238 156.052 156.653 
157.049 157.359 157.554 143.356 144.234 142.961 143.928 142.541 145.123 
143.557 142.179 144.991 146.053 143.193 141.973 144.748 146.115 147.231 
142.861 141.759 144.353 145.978 147.342 148.623 142.469 141.392 143.898 
145.602 147.164 148.64 149.786 142.108 141.129 143.489 145.201 146.783 
148.298 149.779 150.451 142.016 141.22 143.213 144.851 146.437 147.801 
149.315 150.522 150.807 142.225 141.581 143.156 144.553 146.146 147.492 
148.75 150.055 150.896 151.182 142.429 143.151 143.452 144.318 144.743 
144.22 145.726 146.181 145.533 145.747 147.039 147.489 146.948 147.159 
147.351 148.075 148.733 147.965 148.424 148.695 148.622 149.378 150.128 
148.856 149.143 149.655 149.69 149.703 151.248 151.601 150.6 150.26 
150.433 150.528 150.483 150.673 153.154 152.992 152.955 152.475 152.12 
151.892 151.611 151.447 151.392 154.641 154.256 154.87 154.761 154.419 
154.017 153.523 152.983 152.516 152.055 152.835 153.543 154.801 154.285 
155.587 156.963 155.041 156.395 157.762 159.145 155.704 157.121 158.497 
160.001 161.353 156.143 157.653 159.145 160.714 162.138 163.237 156.36 
157.891 159.649 161.392 162.74 163.828 164.774 156.352 157.813 159.742 
161.831 163.258 164.274 165.393 166.335 156.101 157.527 159.387 161.655 
163.384 164.495 165.784 167.094 167.788 155.711 157.163 158.867 161.009 
162.96 164.296 165.684 167.32 168.447 168.73 153.534 155.807 154.582 
158 156.836 155.615 160.247 158.968 157.717 156.449 162.444 161.273 
159.949 158.591 157.257 164.211 163.346 162.191 160.842 159.38 157.957 
165.736 164.981 164.005 162.766 161.347 159.861 158.412 167.127 166.368 
165.527 164.416 163.054 161.596 160.128 158.705 168.136 167.43 166.752 
165.89 164.69 163.268 161.748 160.243 158.846 168.912 168.341 169.016 
168.571 169.193 167.734 168.596 168.823 167.864 167.043 167.891 167.715 
167.441 166.845 166.043 166.836 166.676 166.551 166.073 165.648 164.726 
165.927 165.855 165.684 165.204 164.822 164.267 163.135 164.833 164.76 
164.669 164.312 163.916 163.409 162.533 161.398 163.542 163.508 163.383 
163.115 162.846 162.438 161.672 160.712 159.785 162.455 162.455 162.258 
161.916 161.62 161.364 160.828 159.983 159.148 158.389 169.157 169.201 
168.909 168.87 168.016 169.253 168.044 166.947 168.884 169.198 167.073 
165.938 168.057 168.557 168.356 165.914 164.782 166.936 167.612 167.588 
167.149 164.5 163.453 165.461 166.348 166.771 166.625 166.307 163.108 
162.129 163.964 164.816 165.53 165.809 165.727 165.397 161.808 160.847 
162.679 163.47 164.111 164.479 164.61 164.527 164.14 160.489 159.609 
161.369 162.213 162.857 163.172 163.297 163.371 163.271 162.925 154.828 
156.382 155.509 157.1 156.12 158.022 157.729 156.69 158.892 160.012 
158.454 157.448 159.696 161.041 162.158 159.316 158.212 160.52 161.907 
163.08 163.842 159.969 158.706 161.213 162.565 163.83 164.733 165.36 
160.364 159.063 161.675 163.008 164.303 165.424 166.425 167.172 160.661 
159.393 161.988 163.333 164.618 165.747 166.879 168.006 168.628 153.109 
153.704 152.049 152.594 151.127 154.404 151.5 150.177 153.207 155.012 
150.378 149.166 151.952 153.806 155.648 149.326 148.203 150.746 152.564 
154.494 156.395 148.399 147.29 149.691 151.393 153.303 155.166 156.995 
147.575 146.464 148.792 150.32 152.155 153.983 155.724 157.444 146.878 
145.812 148.049 149.384 151.037 152.869 154.624 156.287 157.895 146.285 