# vtk DataFile Version 4.0
vtk output
ASCII
DATASET POLYDATA
POINTS 1002 float
-76.6635 -107.206 60.7467 -77.2481 -106.209 59.9927 -77.8236 -106.504 60.2145 
-77.1651 -107.635 60.9697 -78.4332 -106.905 60.5993 -76.04 -108.646 61.539 
-77.5804 -108.398 61.2309 -78.9519 -107.67 61.0751 -76.4008 -109.403 61.6705 
-75.68 -110.357 62.4736 -77.7511 -109.663 61.3617 -79.1743 -108.903 61.381 
-76.525 -110.558 61.6701 -75.8707 -111.453 62.5184 -75.4893 -112.135 63.533 
-77.6945 -111.131 61.2181 -79.0972 -110.201 61.3269 -76.5007 -111.935 61.5043 
-75.8313 -112.754 62.3818 -75.5408 -113.422 63.5684 -75.1248 -113.975 64.5272 
-77.6946 -112.243 61.0475 -78.9414 -111.223 61.0718 -76.6846 -113.077 61.4492 
-76.0395 -113.893 62.3851 -75.6202 -114.695 63.5633 -75.2349 -115.265 64.659 
-74.7452 -115.816 65.446 -77.9435 -113.069 61.2639 -78.8521 -112.243 60.9524 
-77.2149 -113.877 61.8896 -76.719 -114.72 62.9045 -76.2088 -115.674 63.9825 
-75.6344 -116.453 64.9219 -75.1574 -116.966 65.8003 -74.704 -117.496 66.5233 
-78.3534 -114.07 61.8951 -78.8832 -113.447 61.1928 -77.8758 -114.765 62.7396 
-77.4819 -115.558 63.7542 -77.0344 -116.467 64.7886 -76.4108 -117.358 65.5923 
-75.8381 -118.019 66.3236 -75.4053 -118.497 67.1349 -74.9192 -118.97 67.8007 
-78.8152 -115.191 62.6959 -79.1094 -114.57 61.802 -78.4862 -115.872 63.6198 
-78.0939 -116.631 64.5241 -77.683 -117.393 65.4901 -77.1936 -118.125 66.3991 
-76.652 -118.827 67.1274 -76.1916 -119.414 67.8444 -75.7426 -119.867 68.5516 
-75.1925 -120.266 69.0362 -79.317 -116.139 63.4822 -79.5261 -115.46 62.5995 
-79.0483 -116.874 64.3727 -78.6723 -117.649 65.2043 -78.2735 -118.36 66.0719 
-77.9059 -118.943 67.0627 -77.487 -119.52 67.9854 -77.0106 -120.145 68.7015 
-76.5366 -120.679 69.306 -76.0337 -121.076 69.7857 -75.4799 -121.408 70.0597 
-78.0007 -105.742 59.2521 -78.675 -106.078 59.5082 -78.6262 -105.466 58.3365 
-79.3979 -105.86 58.5789 -79.3062 -105.108 57.3663 -79.4374 -106.423 60.027 
-80.181 -105.551 57.608 -80.1154 -104.578 56.4924 -80.2899 -106.167 59.1493 
-80.1161 -107.052 60.7173 -81.0058 -105.08 56.8242 -80.8895 -104.008 55.6545 
-81.1074 -105.978 58.1871 -81.0696 -106.667 59.9609 -80.4677 -108.061 61.2742 
-81.6922 -104.609 56.1099 -81.6163 -103.506 54.6933 -81.823 -105.825 57.4057 
-81.8538 -106.63 58.9663 -81.5563 -107.465 60.7305 -80.4696 -109.157 61.4061 
-82.2861 -104.314 55.2214 -82.2204 -103.266 53.6594 -82.3913 -105.661 56.6728 
-82.486 -106.808 58.0018 -82.4322 -107.454 59.7826 -81.7108 -108.476 61.1031 
-80.2039 -110.316 61.0939 -82.6684 -104.328 54.2605 -82.3683 -103.45 52.7895 
-82.8921 -105.509 55.8051 -83.0389 -106.814 57.1039 -83.1392 -107.68 58.7285 
-82.7504 -108.393 60.4152 -81.3986 -109.801 60.8946 -79.7836 -111.718 60.6962 
-82.6203 -104.61 53.4947 -82.0715 -103.928 52.2243 -83.1598 -105.521 54.925 
-83.4992 -106.692 56.2197 -83.6791 -107.706 57.7286 -83.5198 -108.447 59.555 
-82.4468 -109.571 60.5218 -80.7435 -111.315 60.4496 -79.5014 -113.107 60.7054 
-82.3167 -105.029 52.9829 -81.7236 -104.503 51.9012 -83.0879 -105.76 54.1884 
-83.711 -106.765 55.3678 -83.9979 -107.746 56.7417 -83.918 -108.473 58.545 
-83.1475 -109.385 59.9271 -81.6424 -110.898 60.2117 -80.2292 -112.666 60.3535 
-79.581 -114.207 61.2531 -81.8551 -105.419 52.289 -82.6209 -106.022 53.3265 
-82.1869 -106.525 52.6293 -83.0345 -107.36 53.5294 -82.4793 -107.912 52.9473 
-83.5166 -106.958 54.3824 -83.171 -108.773 53.8517 -82.4349 -109.305 53.5222 
-83.7848 -108.365 54.5629 -84.0561 -107.977 55.6021 -82.7481 -109.851 54.6528 
-82.0596 -110.598 54.4853 -83.4369 -109.437 55.1175 -83.8578 -109.107 56.0413 
-84.002 -108.703 57.3156 -82.0889 -111.167 55.7473 -81.651 -112.216 55.5975 
-82.5436 -110.393 56.1017 -82.9054 -110.049 56.7446 -83.1597 -109.753 57.7946 
-83.3102 -109.451 59.0094 -81.668 -113.328 56.7963 -81.3233 -114.118 56.7753 
-81.8676 -112.325 57.1162 -81.9222 -111.603 57.5934 -81.9207 -111.256 58.166 
-82.0173 -110.972 58.9634 -82.0074 -110.817 59.7472 -81.4178 -115.516 58.04 
-80.9785 -115.638 58.2386 -81.6855 -114.946 58.1685 -81.6684 -114.045 58.5834 
-81.3562 -113.386 58.8963 -81.0732 -113.028 59.177 -80.9513 -112.724 59.6637 
-80.6954 -112.598 60.1084 -81.1427 -116.905 59.6748 -80.6458 -116.607 59.9376 
-81.5844 -116.958 59.5841 -81.8152 -116.37 59.8632 -81.6051 -115.537 60.1787 
-81.0988 -115.061 60.2803 -80.7226 -114.757 60.4955 -80.4518 -114.416 60.875 
-80.0496 -114.233 61.1283 -80.8896 -117.777 61.3494 -80.413 -117.436 61.5134 
-81.3788 -118.14 61.2035 -81.8166 -118.004 61.3363 -81.96 -117.301 61.6697 
-81.6459 -116.7 61.8756 -81.1688 -116.463 62.024 -80.8156 -116.188 62.3039 
-80.457 -115.812 62.5368 -79.9901 -115.57 62.5956 -79.9371 -116.737 63.9671 
-80.4594 -117 64.0639 -80.3726 -118.145 65.3411 -80.9466 -117.398 64.1079 
-80.9201 -118.544 65.5504 -80.879 -119.547 66.9769 -81.3786 -117.743 63.98 
-81.4962 -118.917 65.7553 -81.4932 -119.949 67.3066 -81.5926 -120.879 68.8375 
-81.8445 -117.926 63.7449 -82.1333 -119.17 65.7294 -82.2872 -120.215 67.5472 
-82.3443 -121.228 69.0899 -82.4183 -122.248 70.3185 -82.1695 -118.319 63.4758 
-82.5888 -119.551 65.4211 -83.0679 -120.622 67.3632 -83.2806 -121.568 68.999 
-83.2479 -122.589 70.3448 -83.1249 -123.47 71.5709 -82.0313 -118.988 63.1154 
-82.4458 -120.168 65.0149 -83.1609 -121.29 66.9357 -83.8149 -122.2 68.5133 
-84.0016 -123.107 69.8845 -83.8364 -123.873 71.5398 -83.5671 -124.343 73.2291 
-81.5544 -119.286 62.8165 -81.8467 -120.537 64.6275 -82.4563 -121.709 66.6289 
-83.3448 -122.685 68.2529 -84.0155 -123.66 69.3669 -84.1846 -124.516 70.9559 
-84.0576 -124.992 73.1395 -83.7828 -125.207 74.887 -81.041 -119.007 62.7644 
-81.2557 -120.388 64.3237 -81.6578 -121.643 66.2858 -82.3911 -122.655 68.2197 
-83.2301 -123.713 69.3726 -83.7942 -124.856 70.4396 -84.0629 -125.693 72.4067 
-84.1086 -126.1 74.5349 -83.842 -126.245 75.8133 -80.5536 -118.618 62.8312 
-80.7528 -120.048 64.1454 -81.0761 -121.418 65.801 -81.6524 -122.503 67.8058 
-82.3851 -123.517 69.3594 -82.9934 -124.698 70.2877 -83.4692 -125.837 71.6298 
-83.8809 -126.626 73.5875 -83.9966 -127.016 75.1999 -83.6258 -127.099 76.0432 
-79.7047 -117.507 64.8577 -80.1752 -118.878 66.4208 -79.3996 -118.299 65.8161 
-80.8562 -120.201 68.3694 -79.9828 -119.555 67.692 -79.0528 -119.046 66.7971 
-81.6513 -121.678 70.0859 -80.7542 -120.879 69.6791 -79.7279 -120.257 68.8336 
-78.7322 -119.698 67.8176 -82.3634 -123.194 71.3105 -81.4306 -122.573 71.0057 
-80.3907 -121.767 70.551 -79.3794 -121.054 69.7552 -78.3861 -120.303 68.8533 
-82.906 -124.164 72.9195 -82.001 -123.993 72.3458 -80.9008 -123.474 71.8055 
-79.8687 -122.705 71.2165 -78.8942 -121.839 70.5184 -77.8904 -120.95 69.6721 
-83.2044 -124.728 74.8404 -82.4125 -124.544 74.3508 -81.3763 -124.405 73.6285 
-80.2637 -124.037 72.7021 -79.2393 -123.376 71.8035 -78.2311 -122.484 71.0488 
-77.2953 -121.55 70.221 -83.285 -125.53 76.0739 -82.5325 -124.895 76.0455 
-81.6304 -124.537 75.7412 -80.5835 -124.43 74.8132 -79.5057 -124.301 73.4183 
-78.4666 -123.798 72.2633 -77.5109 -122.933 71.4389 -76.7102 -121.983 70.6288 
-83.1254 -126.497 76.4824 -82.4069 -125.645 76.8252 -81.5989 -124.832 77.0888 
-80.6899 -124.439 76.7465 -79.673 -124.515 75.457 -78.6317 -124.536 73.8922 
-77.6671 -124.052 72.709 -76.8452 -123.209 71.7826 -76.1378 -122.297 70.8991 
-82.6964 -127.334 76.3929 -82.1117 -126.745 77.0074 -81.2144 -127.385 77.0063 
-80.7431 -126.907 77.8395 -79.6404 -127.605 77.7624 -81.4268 -125.816 77.6225 
-79.2583 -127.224 78.3809 -78.3319 -128.087 77.9695 -80.2227 -126.094 78.2951 
-80.6597 -124.947 77.8758 -77.6355 -127.53 78.1678 -77.033 -128.307 77.6627 
-78.6859 -126.537 78.1773 -79.506 -125.375 77.9566 -79.7267 -124.655 77.149 
-75.9845 -127.52 77.8727 -75.6654 -128.08 77.3568 -76.801 -126.872 77.6698 
-77.9475 -125.89 77.3584 -78.5681 -125.074 76.9135 -78.6651 -124.782 75.6647 
-74.7764 -127.392 77.6053 -74.544 -127.837 76.8059 -75.1953 -127.019 77.5265 
-76.2143 -126.217 76.9778 -77.1653 -125.271 76.5395 -77.5325 -124.856 75.7133 
-77.6285 -124.632 74.2121 -73.8415 -127.264 76.7829 -73.4974 -127.703 75.8843 
-74.1514 -126.947 77.174 -74.8491 -126.307 76.8787 -75.7454 -125.262 76.3585 
-76.2981 -124.615 75.6566 -76.565 -124.436 74.4145 -76.7473 -124.018 72.952 
-72.6427 -126.97 75.7718 -72.2627 -127.474 75.1052 -73.0779 -126.489 76.2989 
-73.7268 -125.954 76.3863 -74.5004 -125.125 76.0251 -75.0705 -124.398 75.3522 
-75.4498 -124.146 74.2722 -75.7784 -123.875 72.9331 -76.0072 -123.194 71.7725 
-71.3581 -126.532 75.1133 -71.1089 -127.081 74.632 -71.8108 -125.849 75.4845 
-72.5267 -125.273 75.6083 -73.3322 -124.754 75.3556 -73.936 -124.248 74.7629 
-74.3646 -123.936 73.8546 -74.7764 -123.68 72.6962 -75.1047 -123.125 71.5904 
-75.3108 -122.289 70.7484 -83.3468 -127.512 75.5603 -82.0567 -127.532 75.9164 
-82.5384 -127.429 74.8092 -81.0103 -127.418 75.1567 -81.3775 -127.189 73.9831 
-80.2867 -127.571 76.5079 -79.9161 -127.407 74.3235 -80.2198 -127.078 73.2303 
-79.3631 -127.733 75.6254 -78.8553 -128.104 77.0269 -78.9416 -127.4 73.5519 
-79.1838 -126.899 72.3891 -78.6123 -127.889 74.7 -78.3188 -128.55 75.8874 
-77.8679 -128.841 76.9494 -77.9921 -127.115 72.601 -78.2217 -126.499 71.3456 
-77.7675 -127.652 73.8293 -77.626 -128.461 74.8349 -77.2861 -129.241 75.661 
-76.5636 -129.017 76.5557 -77.1348 -126.704 71.4296 -77.3591 -125.953 70.3294 
-76.8625 -127.249 72.6845 -76.6366 -127.871 73.8008 -76.232 -128.845 74.5422 
-75.6005 -129.324 75.2283 -75.0288 -128.704 76.1201 -76.429 -126.182 70.3118 
-76.6076 -125.258 69.4484 -76.1601 -126.953 71.3233 -75.8311 -127.498 72.4394 
-75.299 -128.173 73.376 -74.5514 -128.933 74.0514 -74.0196 -129.002 74.7495 
-73.8024 -128.375 75.4583 -75.7816 -125.411 69.3107 -75.9469 -124.467 68.5674 
-75.5658 -126.384 70.0755 -75.2486 -127.172 70.9661 -74.7492 -127.726 71.9379 
-74.0284 -128.261 72.7959 -73.337 -128.619 73.5273 -72.9572 -128.496 74.2115 
-72.6928 -128.053 74.7622 -75.1747 -124.532 68.3478 -75.3835 -123.718 67.6415 
-74.9637 -125.449 69.02 -74.6655 -126.376 69.7286 -74.2053 -127.098 70.5393 
[...]
CELL_DATA 2000
SCALARS Distance double
LOOKUP_TABLE default
143.835 144.526 144.306 144.704 145.43 145.089 145.495 145.33 145.957 
146.519 146.092 146.46 146.203 146.846 146.764 147.552 147.535 147.17 
147.472 147.189 147.772 147.685 148.501 148.449 149.241 148.278 148.057 
148.372 148.152 148.722 148.625 149.457 149.42 150.273 150.145 150.884 
148.971 148.782 149.259 149.07 149.781 149.653 150.578 150.48 151.414 
151.245 152.059 151.827 152.571 149.94 149.692 150.399 150.154 151.043 
150.858 151.881 151.729 152.72 152.504 153.367 153.092 153.888 153.6 
154.357 151.152 150.908 151.779 151.517 152.479 152.248 153.26 153.078 
154.048 153.843 154.708 154.448 155.254 154.969 155.743 155.419 156.109 
152.389 152.213 153.132 152.942 153.882 153.68 154.612 154.422 155.331 
155.139 155.998 155.772 156.582 156.324 157.088 156.792 157.47 157.111 
157.68 143.508 143.3 143.665 144.213 143.08 143.491 144.102 144.458 
145.113 142.831 143.288 143.966 144.369 145.082 145.469 146.213 142.568 
143.067 143.816 144.257 145.009 145.43 146.214 146.609 147.28 142.28 
142.822 143.666 144.162 144.98 145.385 146.172 146.579 147.272 147.578 
148.054 142.026 142.563 143.486 144.048 144.977 145.413 146.237 146.59 
147.301 147.576 148.075 148.248 148.661 141.872 142.371 143.314 143.892 
144.883 145.406 146.304 146.7 147.455 147.703 148.234 148.331 148.724 
148.882 149.44 141.79 142.254 143.174 143.735 144.715 145.284 146.213 
146.71 147.518 147.867 148.437 148.556 148.909 148.98 149.434 149.736 
150.48 141.794 142.188 143.07 143.593 144.559 145.12 146.049 146.573 
147.385 147.832 148.429 148.686 149.025 149.13 149.471 149.703 150.325 
150.8 151.648 142.125 143.14 142.842 143.394 144.382 143.991 144.565 
144.266 144.908 145.636 145.27 145.826 145.512 146.113 145.809 146.389 
146.695 146.373 146.789 146.607 147.089 146.909 147.379 147.162 147.634 
147.87 147.367 147.606 147.35 147.689 147.61 147.974 147.922 148.286 
148.213 148.562 149.495 148.767 149.024 148.366 148.677 148.256 148.618 
148.415 148.766 148.687 148.992 148.939 149.147 151.228 150.588 151.037 
150.2 150.607 149.741 150.142 149.44 149.846 149.374 149.759 149.455 
149.77 149.516 149.734 152.65 152.267 152.879 152.289 152.807 151.962 
152.355 151.401 151.774 150.922 151.361 150.67 151.13 150.536 150.947 
150.402 150.759 153.824 153.576 154.256 153.941 154.552 154.009 154.432 
153.624 153.941 153.045 153.444 152.612 153.114 152.322 152.813 152.032 
152.472 151.744 152.159 153.223 153.633 153.969 155.057 154.081 154.462 
155.638 155.896 157.01 154.443 154.92 156.191 156.529 157.703 157.926 
159.086 154.753 155.251 156.598 157.061 158.328 158.633 159.823 160.053 
161.211 155.174 155.587 156.943 157.457 158.838 159.247 160.499 160.769 
161.921 162.133 163.179 155.556 155.98 157.232 157.781 159.168 159.712 
161.012 161.39 162.524 162.783 163.814 163.998 164.905 155.557 156.136 
157.218 157.889 159.122 159.852 161.083 161.699 162.777 163.223 164.208 
164.54 165.485 165.667 166.479 155.174 155.864 156.825 157.6 158.681 
159.532 160.652 161.472 162.489 163.176 164.103 164.689 165.637 166.102 
167.003 167.198 167.868 154.697 155.368 156.291 157.059 158.084 158.932 
160.011 160.879 161.901 162.691 163.596 164.321 165.214 165.944 166.853 
167.446 168.173 168.4 168.792 153.371 155.164 154.224 154.163 157.088 
156.082 156.022 155.043 154.952 159.192 158.11 158.062 156.98 156.886 
155.837 155.7 161.349 160.297 160.276 159.123 159.015 157.86 157.705 
156.594 156.415 163.32 162.412 162.427 161.345 161.224 160.048 159.875 
158.687 158.48 157.32 157.094 165.022 164.256 164.312 163.391 163.291 
162.206 162.013 160.857 160.625 159.435 159.153 157.973 157.687 166.522 
165.827 165.851 165.101 165.013 164.123 163.902 162.875 162.579 161.484 
161.138 159.997 159.622 158.492 158.152 167.82 167.193 167.082 166.436 
166.265 165.592 165.334 164.533 164.173 163.245 162.83 161.819 161.375 
160.32 159.888 158.849 158.464 168.711 168.27 168.038 167.477 167.183 
166.617 166.311 165.7 165.336 164.609 164.184 163.334 162.873 161.926 
161.448 160.466 160.007 159.044 158.619 168.881 168.683 168.691 168.289 
168.418 168.481 168.218 168.017 167.472 168.218 168.279 168.075 167.951 
167.455 167.177 166.582 167.77 167.95 167.647 167.711 167.222 167.091 
166.477 166.247 165.61 166.968 167.253 166.855 167.069 166.579 166.669 
166.089 166.028 165.394 165.207 164.509 166.087 166.386 166.072 166.256 
165.822 165.932 165.41 165.478 164.9 164.879 164.208 164.026 163.24 
165.142 165.518 165.289 165.544 165.166 165.261 164.718 164.758 164.163 
164.238 163.61 163.602 162.851 162.672 161.826 164.045 164.48 164.171 
164.604 164.192 164.499 163.91 164.034 163.349 163.438 162.791 162.888 
162.207 162.178 161.381 161.208 160.372 162.943 163.312 162.886 163.309 
162.832 163.281 162.73 163.052 162.399 162.571 161.916 162.047 161.416 
161.48 160.765 160.695 159.894 159.744 158.954 169.033 168.63 168.867 
168.707 167.686 168.168 168.095 168.397 168.31 166.691 167.187 167.247 
167.673 167.787 168.122 168.169 165.764 166.293 166.461 166.919 167.192 
167.633 167.882 168.082 167.95 164.665 165.329 165.509 166.113 166.368 
166.988 167.271 167.722 167.673 167.7 167.234 163.428 164.153 164.327 
165.019 165.178 165.924 166.099 166.825 166.797 167.193 166.783 166.798 
166.231 162.179 162.917 163.13 163.815 163.964 164.636 164.735 165.453 
165.447 166.064 165.804 166.126 165.649 165.739 165.219 160.881 161.647 
161.864 162.609 162.776 163.446 163.519 164.137 164.113 164.707 164.551 
165.031 164.706 165.001 164.562 164.69 164.177 159.578 160.313 160.478 
161.263 161.4 162.168 162.211 162.892 162.81 163.413 163.229 163.773 
163.496 163.949 163.593 163.912 163.489 163.628 163.126 154.743 155.433 
155.495 156.373 156.187 156.273 157.215 157.252 158.196 156.849 157.018 
158.039 158.149 159.17 159.18 160.146 157.443 157.649 158.715 158.936 
160.064 160.188 161.226 161.175 162.062 158.014 158.241 159.302 159.57 
160.736 161.009 162.128 162.221 163.118 163.01 163.755 158.485 158.777 
159.825 160.122 161.231 161.577 162.687 162.964 163.894 163.955 164.718 
164.627 165.361 158.829 159.175 160.199 160.556 161.593 161.971 163.002 
163.372 164.303 164.548 165.362 165.471 166.284 166.265 167.027 159.088 
159.45 160.413 160.816 161.781 162.201 163.148 163.572 164.457 164.818 
165.604 165.904 166.69 166.962 167.741 167.825 168.378 159.254 159.634 
160.525 160.943 161.831 162.266 163.126 163.588 164.402 164.847 165.545 
165.941 166.559 167.009 167.64 168.1 168.608 168.801 168.989 153.884 
152.793 153.706 154.503 151.683 152.593 153.354 154.35 155.193 150.547 
151.456 152.161 153.149 153.954 155.002 155.827 149.391 150.297 150.966 
151.923 152.673 153.717 154.549 155.61 156.426 148.239 149.128 149.781 
150.713 151.421 152.424 153.228 154.308 155.151 156.208 156.997 147.15 
147.986 148.624 149.53 150.222 151.18 151.939 152.983 153.801 154.889 
155.685 156.736 157.461 146.206 146.946 147.567 148.409 149.098 150.006 
150.737 151.711 152.491 153.537 154.333 155.393 156.148 157.165 157.843 
145.435 146.074 146.658 147.411 148.076 148.922 149.631 150.539 151.285 
152.262 153.055 154.08 154.876 155.883 156.613 157.556 158.18 144.806 
145.36 145.89 146.551 147.161 147.934 148.606 149.458 150.167 151.087 
151.848 152.839 153.638 154.65 155.406 156.362 157.007 157.882 158.411 
144.647 144.74 145.019 145.709 144.88 145.148 145.882 146.164 146.956 
145.128 145.358 146.135 146.391 147.227 147.51 148.387 145.487 145.686 
146.494 146.714 147.58 147.837 148.76 149.027 149.955 145.882 146.085 
146.918 147.128 148.024 148.256 149.218 149.465 150.459 150.682 151.655 
146.279 146.492 147.361 147.585 148.528 148.757 149.758 149.987 151.021 
151.246 152.286 152.472 153.463 146.7 146.911 147.82 148.058 149.046 
149.293 150.324 150.559 151.599 151.832 152.882 153.111 154.138 154.304 
155.236 147.144 147.357 148.286 148.538 149.539 149.81 150.838 151.105 
152.137 152.395 153.43 153.684 154.702 154.927 155.865 156.009 156.824 
147.588 147.809 148.743 149.006 149.997 150.278 151.274 151.564 152.574 
152.88 153.917 154.208 155.218 155.458 156.381 156.564 157.377 157.495 
158.207 148.143 149.502 148.978 149.357 151.038 150.447 150.836 150.27 
150.647 152.706 152.061 152.467 151.833 152.206 151.585 151.931 154.551 
153.84 154.312 153.584 153.992 153.248 153.61 152.913 153.266 156.504 
155.782 156.319 155.56 156.028 155.188 155.579 154.745 155.127 154.345 
154.689 158.4 157.722 158.232 157.551 158.016 157.251 157.623 156.79 
157.135 156.306 156.62 155.785 156.023 160.134 159.532 159.97 159.347 
159.763 159.113 159.463 158.738 159.033 158.263 158.513 157.7 157.867 
157.025 157.144 161.551 161.125 161.54 160.986 161.368 160.767 161.129 
160.476 160.789 160.071 160.316 159.529 159.671 158.823 158.884 158.047 
158.098 162.535 162.343 162.795 162.418 162.795 162.298 162.644 162.077 
162.384 161.751 161.991 161.275 161.413 160.596 160.626 159.762 159.75 
158.923 158.915 147.645 147.312 147.978 149.001 147.008 147.727 148.864 
149.472 150.565 146.725 147.511 148.8 149.434 150.606 151.129 152.247 
146.451 147.263 148.644 149.395 150.676 151.253 152.426 152.898 154.067 
146.252 146.985 148.307 149.154 150.513 151.285 152.573 153.138 154.35 
154.808 156.014 146.227 146.805 148.01 148.779 150.123 151.011 152.402 
153.193 154.495 155.087 156.316 156.785 157.954 146.385 146.831 147.973 
148.574 149.857 150.637 152.009 152.887 154.228 155.045 156.308 156.987 
158.175 158.673 159.721 146.647 147.023 148.12 148.624 149.837 150.468 
151.729 152.49 153.753 154.613 155.863 156.741 157.937 158.693 159.736 
160.267 161.106 146.933 147.276 148.293 148.762 149.877 150.448 151.589 
152.239 153.393 154.145 155.341 156.199 157.379 158.241 159.268 160.008 
160.817 161.384 162.022 146.785 145.342 146.144 146.337 143.842 144.609 
144.663 145.588 145.844 142.478 143.108 143.029 143.816 143.892 144.995 
145.372 141.333 141.849 141.717 142.267 142.179 143.016 143.269 144.522 
145.062 140.118 140.689 140.574 141.086 140.976 141.519 141.648 142.561 
143.101 144.35 145.005 138.817 139.365 139.242 139.88 139.887 140.472 
140.632 141.266 141.739 142.661 143.379 144.474 145.143 137.853 138.181 
138.058 138.571 138.691 139.37 139.717 140.396 140.894 141.603 142.256 
143.109 143.814 144.753 145.391 137.23 137.458 137.432 137.704 137.893 
138.367 138.824 139.495 140.091 140.811 141.428 142.164 142.803 143.599 
144.243 145.096 145.714 136.637 136.933 137.059 137.33 137.613 137.904 
138.34 138.785 139.341 139.975 140.569 141.302 141.892 142.657 143.263 
144.052 144.668 145.477 146.067 136.331 136.34 136.484 136.916 136.766 
136.702 137.182 137.251 137.677 137.495 137.257 137.666 137.655 138.131 
138.084 138.455 138.42 138.053 138.355 138.207 138.633 138.568 138.947 
138.881 139.322 139.412 139.013 139.269 138.978 139.337 139.141 139.502 
139.372 139.804 139.819 140.433 140.338 139.976 140.217 139.909 140.237 
139.956 140.303 140.045 140.462 140.351 140.964 141.03 141.758 141.244 
140.874 141.098 140.803 141.12 140.862 141.215 140.936 141.336 141.119 
141.694 141.649 142.392 142.433 143.174 142.186 141.799 142.019 141.689 
142.017 141.743 142.136 141.866 142.291 142.039 142.582 142.452 143.167 
143.151 143.92 143.901 144.606 143.071 142.729 142.964 142.642 142.994 
142.699 143.133 142.843 143.316 143.033 143.573 143.373 144.046 143.969 
144.723 144.691 145.411 145.345 145.998 143.589 144.51 143.865 143.583 
145.793 144.972 144.718 143.974 143.706 147.375 146.424 146.138 145.254 
144.98 144.177 143.898 149.036 148.067 147.737 146.758 146.435 145.54 
145.251 144.412 144.118 150.678 149.734 149.442 148.414 148.077 147.077 
146.789 145.859 145.588 144.687 144.425 152.376 151.425 151.235 150.197 
149.93 148.838 148.566 147.517 147.276 146.278 146.05 145.097 144.918 
154.141 153.189 153.048 152.046 151.849 150.772 150.522 149.408 149.152 
148.07 147.841 146.82 146.636 145.688 145.57 155.859 154.953 154.798 
153.846 153.654 152.659 152.426 151.367 151.093 149.993 149.72 148.65 
148.423 147.431 147.263 146.35 146.224 157.424 156.604 156.449 155.549 
155.344 154.401 154.167 153.187 152.916 151.883 151.581 150.518 150.231 
149.206 148.977 148.025 147.843 146.954 146.794 147.386 148.489 148.192 
148.756 149.66 149.355 149.974 149.672 150.324 150.941 150.6 151.251 
150.93 151.616 151.312 152.006 152.309 151.956 152.647 152.283 153.018 
152.672 153.434 153.073 153.81 153.663 153.358 154.116 153.759 154.579 
154.203 155.082 154.659 155.495 155.007 155.785 154.952 154.719 155.567 
155.271 156.17 155.836 156.787 156.409 157.296 156.804 157.559 157.028 
157.765 156.165 156.008 156.931 156.724 157.655 157.397 158.306 158.029 
158.846 158.491 159.132 158.691 159.265 158.869 159.512 157.266 157.187 
158.122 158.024 158.934 158.771 159.587 159.379 160.093 159.837 160.41 
160.06 160.529 160.175 160.692 160.425 160.99 158.208 158.206 159.102 
159.098 159.96 159.894 160.635 160.491 161.141 160.951 161.554 161.269 
161.792 161.402 161.891 161.535 162.052 161.774 162.238 141.042 140.965 
140.611 139.851 141.039 140.596 139.774 139.383 138.609 141.238 140.75 
139.974 139.441 138.597 138.156 137.499 141.545 141.04 140.36 139.782 
138.979 138.327 137.585 137.197 136.851 141.868 141.386 140.763 140.242 
139.544 138.859 138.127 137.505 137.093 136.826 136.756 142.158 141.694 
141.071 140.621 140.008 139.452 138.809 138.17 137.701 137.246 137.041 
136.818 136.678 142.46 141.996 141.376 140.915 140.339 139.881 139.328 
138.811 138.309 137.837 137.444 137.103 136.739 136.538 136.235 142.755 
142.326 141.751 141.266 140.714 140.248 139.747 139.284 138.786 138.327 
137.829 137.418 136.922 136.585 136.173 136.024 135.876 143.031 142.643 
142.141 141.678 141.169 140.69 140.229 139.752 139.297 138.794 138.315 
137.809 137.355 136.88 136.528 136.159 136.033 135.901 136.053 140.961 
139.775 140.454 140.703 138.523 139.221 139.499 140.302 140.731 137.458 
138.029 138.34 139.111 139.609 140.427 140.919 136.878 137.184 137.511 
138.095 138.632 139.374 139.94 140.667 141.131 136.743 136.84 137.072 
137.437 137.89 138.5 139.058 139.755 140.268 140.916 141.363 136.608 
136.734 136.841 137.082 137.384 137.828 138.289 138.91 139.427 140.088 
140.585 141.211 141.712 136.25 136.482 136.638 136.871 137.177 137.45 
137.885 138.281 138.813 139.339 139.915 140.499 141.091 141.677 142.277 
136.025 136.187 136.518 136.737 137.185 137.393 137.902 138.121 138.69 
138.986 139.62 140.022 140.701 141.185 141.869 142.374 143.013 136.236 
136.232 136.66 136.785 137.299 137.481 138.01 138.223 138.785 139.033 
139.652 139.943 140.611 140.967 141.657 142.075 142.735 143.167 143.752 
141.636 141.445 141.87 142.658 141.516 141.828 142.597 143.001 143.875 
141.673 141.965 142.725 143.045 143.862 144.288 145.161 141.812 142.102 
142.858 143.189 143.999 144.352 145.205 145.589 146.386 142.011 142.246 
143 143.322 144.163 144.509 145.387 145.73 146.607 146.879 147.692 
142.363 142.51 143.266 143.521 144.376 144.696 145.587 145.932 146.85 
147.183 148.1 148.337 149.243 142.899 142.95 143.69 143.859 144.691 
144.953 145.823 146.137 147.033 147.402 148.333 148.699 149.611 149.918 
150.81 143.568 143.551 144.239 144.327 145.106 145.302 146.144 146.403 
147.277 147.593 148.501 148.873 149.77 150.142 150.979 151.34 152.14 
144.25 144.22 144.851 144.887 145.604 145.736 146.541 146.755 147.617 
147.881 148.766 149.07 149.947 150.275 151.103 151.434 152.214 152.56 
153.316 146.766 146.32 146.163 145.381 145.873 145.706 144.908 144.739 
143.934 145.463 145.267 144.459 144.266 143.469 143.304 142.583 145.085 
144.878 144.09 143.867 143.098 142.892 142.198 142.053 141.432 144.695 
144.496 143.72 143.521 142.78 142.581 141.879 141.702 141.038 140.914 
140.243 144.362 144.128 143.36 143.151 142.412 142.24 141.503 141.341 
140.599 140.473 139.768 139.662 138.989 144.168 143.881 143.157 142.87 
142.154 141.904 141.171 140.942 140.181 139.999 139.309 139.204 138.625 
138.516 138.015 144.073 143.769 143.083 142.759 142.067 141.749 141.056 
140.728 140.023 139.705 139.067 138.852 138.349 138.227 137.789 137.686 
137.295 144.001 143.706 143.025 142.706 141.998 141.684 140.987 140.678 
140.011 139.684 139.076 138.778 138.273 138.06 137.614 137.466 137.026 
136.959 136.597 
POINT_DATA 1002
SCALARS Distance double
LOOKUP_TABLE default
144.123 143.384 144.002 144.798 144.783 145.195 145.69 145.821 146.001 
146.679 146.772 146.973 146.927 147.616 148.363 147.776 147.868 147.878 
148.517 149.373 149.99 148.538 148.439 148.81 149.485 150.373 151.077 
151.589 149.376 149.104 149.866 150.669 151.585 152.287 152.817 153.31 
150.599 150.12 151.223 152.042 152.937 153.642 154.174 154.675 155.089 
152.009 151.329 152.733 153.483 154.257 154.953 155.53 156.06 156.494 
156.746 153.303 152.539 154.087 154.828 155.529 156.208 156.834 157.384 
157.823 158.093 158.203 143.14 143.857 142.904 143.713 142.625 144.738 
143.529 142.34 144.659 145.852 143.336 142.032 144.587 145.784 147.01 
143.101 141.71 144.566 145.789 146.948 147.867 142.881 141.49 144.48 
145.888 147.039 147.921 148.448 142.745 141.384 144.319 145.852 147.176 
148.153 148.634 149.101 142.635 141.352 144.145 145.683 147.106 148.275 
148.888 149.216 149.993 142.577 141.455 144.001 145.533 146.934 148.118 
148.9 149.298 149.907 151.08 142.344 143.605 143.472 144.898 144.778 
145.193 146.136 145.996 146.445 146.703 146.991 147.103 147.244 147.584 
147.855 148.012 148.501 147.82 148.01 148.337 148.674 149.794 150.195 
149.272 148.945 148.907 149.061 149.251 151.78 151.714 151.541 151.014 
150.473 150.163 150.062 150.007 153.312 152.927 153.55 153.335 152.72 
152.133 151.791 151.543 151.295 154.494 154.053 154.966 155.145 154.821 
154.285 153.916 153.637 153.262 152.861 154.272 154.778 156.123 155.347 
156.79 158.119 155.778 157.451 158.872 160.269 156.062 157.958 159.579 
161.019 162.347 156.418 158.353 160.207 161.712 163.033 164.158 156.705 
158.576 160.578 162.254 163.607 164.804 165.755 156.563 158.389 160.405 
162.268 163.81 165.211 166.446 167.24 156.066 157.85 159.807 161.747 
163.453 165.049 166.655 167.912 168.456 155.547 157.263 159.142 161.086 
162.874 164.463 166.132 167.776 168.835 169.089 155.1 157.025 155.942 
159.189 157.975 156.744 161.433 160.209 158.864 157.511 163.456 162.392 
161.073 159.69 158.242 165.155 164.326 163.155 161.811 160.375 158.844 
166.575 165.827 164.892 163.661 162.268 160.773 159.25 167.765 166.909 
166.063 165.053 163.81 162.417 160.938 159.477 168.591 167.76 166.882 
165.991 164.969 163.78 162.425 160.983 159.562 168.967 168.52 168.566 
168.363 168.33 167.776 168.149 168.179 167.717 166.876 167.527 167.607 
167.27 166.682 165.875 166.628 166.672 166.414 166.058 165.53 164.783 
165.862 165.728 165.729 165.328 164.848 164.326 163.52 164.965 164.736 
165.042 164.729 164.102 163.543 162.964 162.073 163.742 163.659 163.807 
163.727 163.275 162.672 162.16 161.501 160.571 162.537 162.634 162.379 
162.31 162.155 161.769 161.311 160.781 160.015 159.099 169.046 168.591 
168.255 167.661 167.146 168.038 166.759 166.173 167.326 168.003 165.95 
165.174 166.677 167.576 168.07 164.867 163.957 165.714 166.715 167.526 
167.429 163.639 162.691 164.479 165.345 166.239 166.629 166.297 162.423 
161.424 163.33 164.087 164.778 165.329 165.457 165.196 161.095 160.126 
162.076 162.925 163.549 164.016 164.31 164.352 164.14 159.72 158.888 
160.619 161.505 162.206 162.678 162.994 163.186 163.244 163.086 154.631 
156.311 155.36 157.151 156.051 158.185 157.854 156.645 159.113 160.214 
158.449 157.236 159.844 161.238 162.228 159.04 157.767 160.418 161.947 
163.199 163.929 159.526 158.164 160.909 162.368 163.747 164.738 165.489 
159.836 158.489 161.235 162.637 164.003 165.163 166.188 167.178 160.027 
158.749 161.378 162.732 164.079 165.291 166.363 167.523 168.525 152.971 
153.521 151.891 152.373 150.79 154.172 151.209 149.647 152.907 154.788 
150.038 148.493 151.656 153.461 155.4 148.859 147.37 150.45 152.161 
154.066 155.99 147.733 146.351 149.285 150.936 152.725 154.615 156.453 
146.758 145.511 148.213 149.801 151.478 153.273 155.113 156.879 145.956 
144.843 147.265 148.756 150.343 152.039 153.857 155.659 157.302 145.284 