# vtk DataFile Version 4.0
vtk output
ASCII
DATASET POLYDATA
POINTS 1002 float
-77.5375 -110.135 61.4223 -77.7085 -109.166 60.6827 -78.4047 -109.379 60.8574 
-78.1946 -110.477 61.6417 -79.0658 -109.67 61.0693 -77.4206 -111.376 62.2397 
-78.7081 -111.011 61.8094 -79.5869 -110.228 61.2683 -78.0098 -111.904 62.4874 
-77.3302 -112.913 63.0246 -79.0391 -111.932 61.8361 -79.9368 -111.069 61.4104 
-78.4151 -112.74 62.5949 -77.8581 -113.624 63.3253 -77.1908 -114.491 63.9287 
-79.3452 -113.036 61.8088 -80.1803 -112.038 61.3829 -78.6949 -113.912 62.5615 
-78.2452 -114.603 63.5256 -77.6815 -115.314 64.3455 -77.0719 -116.066 65.006 
-79.7628 -113.953 61.8622 -80.4269 -113.027 61.2234 -79.0936 -114.945 62.6965 
-78.5997 -115.706 63.6906 -78.1857 -116.293 64.7214 -77.6751 -117.042 65.469 
-77.2632 -117.909 66.0143 -80.2498 -114.695 62.1301 -80.7407 -113.941 61.3175 
-79.6943 -115.603 63.1864 -79.1568 -116.524 64.1605 -78.799 -117.275 65.1339 
-78.4713 -118.036 65.9927 -78.1252 -118.936 66.583 -77.8485 -119.746 67.1027 
-80.7498 -115.442 62.7685 -81.1239 -114.716 61.913 -80.3532 -116.258 63.9095 
-79.9363 -117.154 64.9394 -79.6297 -118.069 65.8077 -79.3933 -118.948 66.6501 
-79.1293 -119.816 67.3506 -78.841 -120.583 67.9273 -78.541 -121.135 68.4996 
-81.3007 -116.203 63.6965 -81.5697 -115.444 62.8005 -80.9956 -117.083 64.7302 
-80.7237 -117.957 65.7062 -80.5476 -118.856 66.5475 -80.3605 -119.788 67.3792 
-80.1015 -120.64 68.1562 -79.8045 -121.352 68.7801 -79.4656 -121.896 69.3304 
-79.1102 -122.286 69.8242 -81.905 -116.937 64.6088 -82.0582 -116.206 63.6782 
-81.6521 -117.886 65.5087 -81.4209 -118.84 66.3311 -81.3265 -119.736 67.1051 
-81.2201 -120.657 67.9335 -80.9798 -121.505 68.7705 -80.6852 -122.185 69.4345 
-80.3485 -122.741 69.9277 -79.952 -123.173 70.3561 -79.5654 -123.471 70.7192 
-78.3668 -108.335 60.1983 -79.1458 -108.457 60.4132 -79.076 -107.362 59.8899 
-79.9861 -107.511 60.1216 -79.8815 -106.571 59.5193 -79.9565 -108.763 60.6677 
-80.9703 -106.874 59.7184 -80.9151 -106.203 58.8795 -80.9923 -107.919 60.4139 
-80.6355 -109.313 61.0175 -82.1027 -106.515 59.16 -82.0415 -105.909 58.2037 
-82.1019 -107.336 60.0816 -81.8239 -108.443 60.9282 -81.0112 -110.063 61.3134 
-83.1933 -106.097 58.6918 -82.9442 -105.489 57.6504 -83.238 -106.939 59.6347 
-83.0583 -107.828 60.7099 -82.2708 -109.152 61.3586 -81.14 -111.094 61.2406 
-84.1103 -105.789 58.262 -83.6382 -105.307 57.046 -84.3112 -106.651 59.1277 
-84.2412 -107.546 60.1474 -83.6658 -108.583 61.2059 -82.4333 -110.305 61.3722 
-81.2634 -112.314 61.0011 -84.8556 -105.822 57.7282 -84.2604 -105.447 56.3807 
-85.2323 -106.531 58.5792 -85.2061 -107.451 59.3303 -84.8225 -108.367 60.5544 
-83.8822 -109.728 61.4104 -82.507 -111.623 61.2422 -81.4739 -113.366 61.1031 
-85.3078 -106.012 57.1538 -84.7021 -105.672 55.7871 -85.8726 -106.525 58.0785 
-85.9835 -107.349 58.6502 -85.6133 -108.272 59.6829 -84.941 -109.348 60.9738 
-83.8129 -110.936 61.4 -82.5023 -112.735 61.2102 -81.7124 -114.224 61.5938 
-85.385 -106.266 56.605 -84.8612 -105.943 55.3099 -86.0948 -106.664 57.6138 
-86.5726 -107.348 58.2307 -86.3952 -108.275 59.063 -85.7327 -109.214 60.3255 
-84.7781 -110.407 61.1306 -83.522 -112.085 61.1432 -82.426 -113.786 61.3049 
-81.9835 -115.113 62.2641 -85.0642 -106.595 55.7068 -85.7382 -106.972 56.8708 
-85.2666 -107.558 56.0748 -86.185 -108.094 57.0182 -85.6078 -108.725 56.3234 
-86.673 -107.554 57.7113 -86.4763 -109.357 57.1522 -85.7048 -109.792 56.5095 
-87.2053 -108.945 57.8744 -87.1488 -108.484 58.5279 -85.9849 -110.336 57.4158 
-85.2715 -110.907 56.875 -86.9524 -110.239 58.0991 -87.3139 -109.95 58.9534 
-86.6579 -109.446 59.7029 -85.1148 -111.588 57.912 -84.8052 -112.613 57.555 
-85.6812 -111.189 58.3429 -86.2807 -111.079 59.0821 -86.2196 -110.696 59.9741 
-85.5371 -110.343 60.6504 -84.7935 -113.738 58.6717 -84.5565 -114.671 58.4537 
-84.7802 -112.856 58.8684 -84.8093 -112.321 59.1962 -84.9022 -111.951 59.8159 
-84.6997 -111.723 60.3976 -84.1836 -111.791 60.8219 -84.6278 -115.899 59.7291 
-84.0863 -116.236 59.583 -84.7673 -115.269 59.9032 -84.4517 -114.498 60.0048 
-84.0812 -113.831 60.2439 -83.812 -113.545 60.5325 -83.4442 -113.608 60.7281 
-82.9602 -113.716 61.007 -83.9873 -117.173 61.1114 -83.3378 -117.149 61.0083 
-84.5487 -117.065 61.314 -84.6773 -116.67 61.4145 -84.3452 -116.019 61.5167 
-83.8482 -115.546 61.7048 -83.3195 -115.5 61.771 -82.8043 -115.507 61.8087 
-82.3712 -115.311 62.0236 -83.2448 -117.928 62.6402 -82.7365 -117.892 62.5452 
-83.8853 -118.009 62.8059 -84.4415 -117.979 62.883 -84.6228 -117.624 62.9196 
-84.3855 -117.114 63.1434 -83.8785 -116.887 63.4102 -83.2903 -116.886 63.4635 
-82.7996 -116.725 63.4655 -82.422 -116.413 63.5733 -82.5558 -117.437 65.085 
-82.9866 -117.645 65.0883 -83.0723 -118.928 66.3117 -83.4322 -117.864 65.1418 
-83.5804 -119.142 66.4331 -83.607 -120.736 67.4223 -83.9711 -117.935 65.1319 
-84.1386 -119.304 66.5817 -84.2934 -121.037 67.6985 -84.4741 -122.455 68.8683 
-84.4768 -118.063 64.7875 -84.7054 -119.452 66.4329 -85.0856 -121.258 67.8895 
-85.4495 -122.673 69.218 -85.6908 -123.46 70.548 -84.6905 -118.503 64.3187 
-85.0087 -119.837 65.8871 -85.6469 -121.577 67.6411 -86.3449 -122.897 69.2442 
-86.7314 -123.53 70.6124 -86.7541 -124.114 71.799 -84.4764 -118.939 64.1798 
-84.8744 -120.349 65.4702 -85.6302 -122.057 67.1294 -86.5499 -123.325 68.8693 
-87.2643 -123.924 70.2578 -87.5153 -124.43 71.4714 -87.4283 -125.179 72.6979 
-83.9048 -119.017 64.2445 -84.3731 -120.548 65.4453 -85.1442 -122.348 66.816 
-86.0058 -123.722 68.4602 -86.8619 -124.503 69.8459 -87.4928 -125.112 70.9755 
-87.7602 -125.773 72.2907 -87.7871 -126.339 73.7897 -83.2467 -118.9 64.2072 
-83.7035 -120.397 65.5131 -84.4441 -122.223 66.7115 -85.1918 -123.752 68.1588 
-85.9625 -124.779 69.5948 -86.7302 -125.607 70.7231 -87.2943 -126.328 71.9116 
-87.6271 -126.819 73.411 -87.7886 -127.047 74.9515 -82.7304 -118.84 64.0819 
-83.0916 -120.197 65.4694 -83.7086 -121.879 66.6325 -84.3676 -123.464 67.8676 
-85.0794 -124.681 69.2635 -85.8399 -125.65 70.5321 -86.4475 -126.45 71.6952 
-86.8758 -127.013 73.0264 -87.235 -127.335 74.4689 -87.4725 -127.465 75.743 
-82.3925 -118.385 65.964 -82.8953 -120.094 67.0771 -82.145 -119.487 66.7437 
-83.5903 -121.92 68.3683 -82.783 -121.234 67.9344 -82.0239 -120.519 67.5135 
-84.6652 -123.341 70.1337 -83.7154 -122.911 69.554 -82.792 -122.276 68.9219 
-81.974 -121.519 68.3753 -85.7929 -124.177 71.7676 -84.8174 -124.136 71.363 
-83.7583 -123.795 70.6918 -82.6892 -123.24 69.9152 -81.7864 -122.446 69.2899 
-86.647 -125.059 72.929 -85.7197 -125.038 72.7611 -84.7117 -124.836 72.3147 
-83.5635 -124.486 71.5914 -82.4628 -123.978 70.7314 -81.521 -123.159 70.0308 
-87.3203 -126.09 74.1851 -86.4628 -125.92 74.1223 -85.4665 -125.654 73.737 
-84.3884 -125.292 73.1701 -83.2755 -124.995 72.2808 -82.2039 -124.558 71.267 
-81.2105 -123.742 70.5088 -87.7259 -126.779 75.5765 -87.1146 -126.519 75.772 
-86.1302 -126.26 75.4352 -85.0186 -125.932 74.827 -83.9258 -125.657 73.9904 
-82.8622 -125.484 72.7976 -81.7811 -125.083 71.6242 -80.7743 -124.23 70.8719 
-87.6724 -127.182 76.5119 -87.3769 -126.814 77.0498 -86.5748 -126.506 77.0527 
-85.475 -126.276 76.5311 -84.3383 -126.063 75.7334 -83.2865 -125.922 74.6186 
-82.2467 -125.814 73.1865 -81.1999 -125.404 71.943 -80.2858 -124.532 71.2111 
-87.1888 -127.785 76.5875 -87.1841 -127.352 77.3751 -86.5639 -128.168 77.0956 
-86.2197 -127.647 77.8713 -85.522 -128.489 77.5698 -86.6697 -126.836 77.9159 
-84.8814 -128.072 78.3546 -84.2065 -128.755 78.0897 -85.4415 -127.034 78.3922 
-85.7016 -126.451 77.8717 -83.3584 -128.509 78.738 -82.7292 -129.019 78.1459 
-83.8895 -127.437 78.7638 -84.3636 -126.514 78.3061 -84.5338 -126.218 77.2673 
-81.7121 -128.738 78.4273 -81.0998 -129.203 77.5287 -82.2368 -127.825 78.7897 
-82.7906 -126.756 78.4866 -83.2696 -126.158 77.6499 -83.4203 -126.039 76.3083 
-80.1094 -128.78 77.5271 -79.5596 -129.413 76.7159 -80.701 -127.978 78.0775 
-81.3032 -127.104 78.1191 -81.9055 -126.343 77.6073 -82.3055 -125.975 76.5206 
-82.3845 -125.96 74.895 -78.7607 -128.912 76.6656 -78.3696 -129.714 75.9768 
-79.401 -128.014 77.0852 -80.1216 -127.346 77.1711 -80.722 -126.791 76.9382 
-81.1528 -126.218 76.2328 -81.357 -125.942 74.8807 -81.3396 -125.846 73.2563 
-77.666 -129.089 75.9495 -77.4916 -129.847 75.2136 -78.1896 -128.12 76.3229 
-79.014 -127.42 76.2419 -79.7123 -127.06 75.9455 -80.0907 -126.596 75.4999 
-80.3093 -126.066 74.5714 -80.4092 -125.734 73.2348 -80.3759 -125.31 72.0401 
-76.8235 -129.073 75.1815 -76.8116 -129.665 74.4039 -77.0865 -128.219 75.6502 
-77.7722 -127.459 75.5694 -78.568 -127.025 75.1375 -79.034 -126.642 74.7085 
-79.261 -126.093 74.1188 -79.4758 -125.57 73.1479 -79.6062 -125.055 72.1231 
-79.6071 -124.34 71.3493 -86.8679 -127.834 75.5022 -86.6161 -128.362 76.1507 
-86.2048 -128.166 75.0547 -85.9769 -128.788 75.4976 -85.5431 -128.376 74.292 
-85.9762 -128.749 76.5904 -85.1145 -128.94 74.4608 -84.6025 -128.331 73.326 
-85.1712 -129.013 75.7888 -84.825 -128.826 77.0611 -83.8365 -128.807 73.324 
-83.3444 -128.046 72.4833 -84.0057 -129.147 74.5378 -83.823 -128.986 76.021 
-83.4194 -128.925 77.3167 -82.4926 -128.507 72.4619 -82.2386 -127.818 71.6301 
-82.6657 -129.151 73.3994 -82.6471 -129.343 74.6271 -82.4094 -129.195 75.9393 
-81.895 -129.204 76.9789 -81.5286 -128.312 71.4815 -81.4856 -127.73 70.4933 
-81.5559 -128.917 72.4961 -81.5541 -129.48 73.4905 -81.3773 -129.65 74.4762 
-80.9328 -129.55 75.4989 -80.2726 -129.538 76.3155 -80.8365 -128.179 70.1956 
-80.8241 -127.453 69.355 -80.7595 -128.726 71.2182 -80.6318 -129.245 72.2833 
-80.3926 -129.727 73.138 -79.9737 -129.925 73.9921 -79.4471 -129.947 74.9443 
-78.8992 -129.956 75.6364 -80.1862 -127.792 69.0443 -80.1498 -126.869 68.4607 
-80.1207 -128.566 69.7518 -79.9196 -129.093 70.6858 -79.5819 -129.551 71.5836 
-79.1504 -130 72.3844 -78.7229 -130.254 73.3528 -78.3443 -130.334 74.2823 
-77.944 -130.251 74.8678 -79.6075 -127.151 68.142 -79.5834 -126.195 67.6524 
-79.5712 -128.132 68.6087 -79.3999 -128.901 69.2332 -79.0672 -129.406 69.997 
[...]
CELL_DATA 2000
SCALARS Distance double
LOOKUP_TABLE default
146.61 147.258 147.153 147.666 147.979 147.846 148.409 148.335 148.983 
148.815 148.638 149.238 149.141 149.854 149.77 150.477 149.707 149.541 
150.188 150.06 150.822 150.712 151.473 151.322 152.037 150.562 150.454 
151.167 151.067 151.864 151.746 152.555 152.392 153.18 152.976 153.794 
151.432 151.337 152.118 152.056 152.91 152.817 153.688 153.543 154.428 
154.228 155.145 154.915 155.857 152.428 152.299 153.161 153.075 154.02 
153.916 154.886 154.75 155.746 155.569 156.575 156.351 157.328 157.064 
157.96 153.56 153.412 154.363 154.242 155.269 155.134 156.183 156.039 
157.113 156.955 158.011 157.808 158.783 158.527 159.389 159.086 159.832 
154.747 154.616 155.61 155.505 156.548 156.433 157.483 157.369 158.441 
158.329 159.379 159.219 160.167 159.934 160.756 160.467 161.176 160.844 
161.457 146.144 145.679 146.187 146.76 145.308 145.757 146.366 146.859 
147.49 145.194 145.51 146.163 146.568 147.248 147.677 148.341 145.303 
145.541 146.198 146.503 147.205 147.545 148.194 148.562 149.2 145.388 
145.678 146.342 146.623 147.327 147.604 148.248 148.498 149.064 149.398 
150.013 145.435 145.757 146.491 146.785 147.525 147.786 148.474 148.66 
149.234 149.389 149.932 150.223 150.867 145.591 145.89 146.688 146.968 
147.716 147.979 148.678 148.912 149.541 149.677 150.208 150.309 150.853 
151.121 151.815 145.779 146.094 146.883 147.178 147.88 148.138 148.774 
149.05 149.674 149.932 150.479 150.618 151.074 151.208 151.755 152.095 
152.856 145.883 146.221 146.961 147.308 148.01 148.287 148.935 149.163 
149.783 150.019 150.57 150.772 151.196 151.358 151.794 152.056 152.693 
153.154 153.989 146.165 147.001 146.779 147.238 148.072 147.744 148.221 
147.937 148.363 149.131 148.875 149.431 149.106 149.579 149.12 149.414 
149.845 149.731 150.278 150.233 150.766 150.437 150.689 150.125 150.266 
150.703 150.349 150.681 150.723 151.173 151.26 151.474 151.232 151.213 
150.81 150.878 152.263 151.537 151.759 151.257 151.544 151.417 151.648 
151.617 151.65 151.487 151.486 151.279 151.395 153.927 153.32 153.691 
152.857 153.153 152.343 152.632 152.064 152.356 151.973 152.232 151.908 
152.16 151.855 152.091 155.032 154.787 155.3 154.812 155.23 154.406 
154.726 153.762 154.135 153.297 153.773 153.092 153.565 152.958 153.359 
152.798 153.138 155.849 155.703 156.251 156.093 156.608 156.234 156.597 
155.913 156.199 155.385 155.768 154.994 155.462 154.714 155.153 154.406 
154.8 154.094 154.484 155.546 155.904 156.259 157.374 156.299 156.656 
157.799 158.162 159.361 156.634 157.033 158.208 158.618 159.909 160.289 
161.606 156.917 157.315 158.509 159.003 160.402 160.898 162.329 162.657 
163.899 157.25 157.584 158.74 159.266 160.733 161.375 162.905 163.362 
164.591 164.801 165.748 157.492 157.858 158.922 159.47 160.9 161.637 
163.183 163.808 165.036 165.362 166.258 166.434 167.258 157.368 157.888 
158.86 159.527 160.851 161.675 163.122 163.891 165.089 165.608 166.508 
166.832 167.662 167.912 168.761 156.962 157.564 158.492 159.268 160.497 
161.412 162.725 163.609 164.74 165.45 166.359 166.899 167.716 168.156 
168.947 169.303 170.005 156.573 157.137 158.059 158.811 159.966 160.877 
162.081 163.014 164.09 164.932 165.847 166.564 167.359 167.97 168.671 
169.208 169.813 170.255 170.727 155.728 157.575 156.642 156.655 159.568 
158.571 158.61 157.627 157.625 161.799 160.689 160.743 159.662 159.68 
158.625 158.598 164.059 163.009 163.089 161.933 161.964 160.792 160.788 
159.649 159.606 165.91 165.123 165.258 164.274 164.312 163.159 163.118 
161.92 161.845 160.67 160.556 167.472 166.81 167 166.234 166.293 
165.355 165.263 164.181 164.015 162.878 162.679 161.531 161.303 169.036 
168.4 168.624 167.885 167.949 167.122 167.019 166.098 165.892 164.891 
164.636 163.561 163.262 162.151 161.837 170.326 169.898 170.117 169.478 
169.501 168.71 168.573 167.709 167.489 166.593 166.333 165.377 165.057 
164.017 163.642 162.573 162.201 171.062 170.911 171.093 170.726 170.683 
170.096 169.873 169.14 168.836 168.048 167.728 166.907 166.551 165.657 
165.24 164.265 163.822 162.827 162.416 171.383 171.691 171.548 171.409 
171.718 171.686 171.498 171.365 171.006 171.581 171.605 171.356 171.282 
170.902 170.759 170.213 171.264 171.409 171.133 171.056 170.579 170.499 
169.977 169.834 169.19 170.54 170.91 170.632 170.71 170.144 170.091 
169.503 169.47 168.894 168.758 168.083 169.544 169.971 169.684 169.974 
169.454 169.546 168.943 168.954 168.382 168.356 167.748 167.611 166.9 
168.707 168.974 168.651 168.934 168.521 168.751 168.283 168.384 167.851 
167.839 167.239 167.173 166.499 166.362 165.597 168.043 168.217 167.836 
168.003 167.601 167.837 167.473 167.689 167.244 167.305 166.701 166.647 
165.96 165.876 165.142 164.998 164.199 167.31 167.523 167.111 167.249 
166.793 166.978 166.581 166.84 166.417 166.603 166.014 166.051 165.345 
165.307 164.579 164.496 163.74 163.585 162.798 171.259 171.101 171.397 
171.663 170.742 171.188 171.52 171.7 171.76 170.01 170.667 170.982 
171.389 171.439 171.63 171.565 168.896 169.697 169.978 170.607 170.634 
171.059 170.978 171.292 171.163 167.717 168.47 168.77 169.477 169.607 
170.135 170.094 170.512 170.398 170.736 170.467 166.705 167.345 167.637 
168.309 168.552 169.143 169.218 169.641 169.547 169.887 169.69 169.933 
169.578 165.735 166.367 166.606 167.236 167.444 168.089 168.202 168.74 
168.675 169.06 168.899 169.19 168.996 169.141 168.84 164.65 165.338 
165.566 166.201 166.357 166.97 167.046 167.633 167.607 168.11 168.015 
168.419 168.312 168.599 168.433 168.529 168.222 163.509 164.208 164.46 
165.13 165.315 165.907 165.991 166.516 166.523 167.027 167.009 167.493 
167.45 167.866 167.746 168.027 167.769 167.868 167.476 156.669 157.464 
157.422 158.248 158.358 158.346 159.257 159.202 160.168 159.235 159.271 
160.237 160.235 161.212 161.2 162.202 160.129 160.176 161.179 161.204 
162.203 162.212 163.209 163.212 164.166 160.965 161.059 162.059 162.132 
163.146 163.192 164.205 164.212 165.171 165.122 165.962 161.676 161.824 
162.791 162.932 163.907 164.05 165.032 165.141 166.06 166.083 166.884 
166.812 167.492 162.29 162.475 163.419 163.587 164.507 164.686 165.601 
165.804 166.679 166.825 167.581 167.618 168.264 168.21 168.778 162.768 
163.013 163.93 164.151 165.016 165.204 166.032 166.249 167.093 167.32 
168.122 168.237 168.918 168.909 169.495 169.417 169.916 163.092 163.385 
164.243 164.544 165.347 165.599 166.325 166.569 167.321 167.627 168.449 
168.717 169.477 169.564 170.171 170.111 170.594 170.476 170.845 155.942 
155.045 155.835 156.604 154.096 154.892 155.602 156.524 157.397 153.126 
153.917 154.587 155.476 156.297 157.295 158.22 152.17 152.949 153.614 
154.461 155.233 156.179 157.084 158.126 159.094 151.255 151.992 152.627 
153.471 154.201 155.116 155.955 156.977 157.935 159.009 159.949 150.447 
151.087 151.637 152.44 153.125 154.042 154.826 155.824 156.723 157.811 
158.766 159.83 160.698 149.762 150.31 150.782 151.468 152.119 152.972 
153.768 154.705 155.58 156.6 157.548 158.626 159.549 160.556 161.35 
149.136 149.645 150.087 150.676 151.297 152.054 152.87 153.73 154.608 
155.52 156.43 157.438 158.371 159.403 160.246 161.185 161.879 148.541 
149.033 149.474 150.018 150.601 151.291 152.067 152.889 153.725 154.584 
155.401 156.335 157.195 158.223 159.078 160.068 160.802 161.674 162.27 
148.358 148.445 148.699 149.323 148.621 148.855 149.557 149.771 150.505 
148.884 149.101 149.875 150.098 150.938 151.131 152.002 149.268 149.447 
150.287 150.499 151.403 151.619 152.548 152.737 153.639 149.815 149.944 
150.865 151.03 151.995 152.157 153.095 153.271 154.196 154.375 155.279 
150.47 150.585 151.557 151.708 152.737 152.858 153.833 153.909 154.859 
154.971 155.963 156.093 157.075 151.135 151.27 152.235 152.408 153.434 
153.612 154.633 154.733 155.732 155.782 156.829 156.898 157.966 158.013 
158.988 151.769 151.926 152.877 153.051 154.042 154.252 155.286 155.489 
156.541 156.684 157.753 157.848 158.911 158.959 159.925 159.906 160.729 
152.369 152.545 153.5 153.674 154.661 154.854 155.895 156.117 157.193 
157.414 158.491 158.687 159.725 159.854 160.781 160.803 161.58 161.525 
162.193 153.021 154.506 153.894 154.198 156.205 155.493 155.819 155.135 
155.424 158.05 157.284 157.653 156.901 157.247 156.455 156.733 159.929 
159.165 159.558 158.812 159.217 158.405 158.704 157.824 158.063 161.769 
161.041 161.432 160.713 161.124 160.373 160.689 159.832 160.046 159.156 
159.363 163.474 162.841 163.234 162.553 162.943 162.233 162.561 161.768 
161.998 161.133 161.321 160.441 160.608 164.927 164.444 164.848 164.272 
164.64 163.992 164.297 163.576 163.809 163.023 163.202 162.365 162.483 
161.606 161.65 166.096 165.769 166.184 165.747 166.077 165.547 165.771 
165.169 165.315 164.676 164.792 164.104 164.16 163.377 163.34 162.49 
162.398 166.968 166.803 167.213 166.92 167.196 166.79 166.924 166.435 
166.477 165.959 165.987 165.459 165.469 164.859 164.789 164.052 163.91 
163.106 162.956 152.518 152.173 152.898 154.011 151.791 152.576 153.831 
154.542 155.749 151.452 152.219 153.593 154.422 155.812 156.429 157.651 
151.287 151.937 153.337 154.227 155.803 156.56 157.931 158.405 159.568 
151.278 151.842 153.19 154.036 155.703 156.58 158.102 158.695 159.92 
160.318 161.407 151.212 151.815 153.116 153.928 155.574 156.503 158.093 
158.815 160.089 160.601 161.7 162.108 163.103 151.057 151.69 152.957 
153.782 155.331 156.311 157.861 158.714 159.984 160.638 161.728 162.279 
163.273 163.69 164.545 150.996 151.555 152.766 153.536 154.95 155.921 
157.361 158.321 159.56 160.369 161.439 162.145 163.129 163.708 164.553 
164.974 165.682 151.096 151.554 152.679 153.332 154.608 155.457 156.772 
157.706 158.916 159.809 160.891 161.712 162.694 163.407 164.242 164.81 
165.491 165.942 166.52 151.55 149.977 150.873 151.116 148.479 149.283 
149.459 150.397 150.669 147.087 147.805 147.892 148.742 148.981 149.97 
150.325 145.696 146.403 146.379 147.152 147.302 148.281 148.678 149.733 
150.21 144.209 144.965 144.945 145.653 145.682 146.559 146.9 148.04 
148.595 149.71 150.224 142.692 143.427 143.521 144.283 144.407 145.098 
145.33 146.255 146.759 147.959 148.525 149.675 150.127 141.487 141.978 
142.06 142.868 143.225 144.002 144.355 144.991 145.37 146.213 146.744 
147.856 148.387 149.508 149.961 140.842 141.012 140.961 141.519 141.892 
142.79 143.371 144.159 144.617 145.192 145.622 146.331 146.889 147.832 
148.414 149.422 149.96 140.537 140.587 140.492 140.696 140.903 141.541 
142.113 143.044 143.684 144.469 144.959 145.537 146.031 146.673 147.28 
148.078 148.704 149.578 150.156 140.335 140.185 140.299 140.407 140.269 
140.302 140.498 140.488 140.78 140.661 140.568 140.849 140.746 141.077 
141.121 141.815 141.379 141.147 141.48 141.276 141.634 141.54 142.184 
142.416 143.353 142.296 141.98 142.307 142.039 142.394 142.194 142.748 
142.833 143.704 143.991 144.812 143.212 142.888 143.156 142.891 143.218 
142.989 143.446 143.405 144.155 144.369 145.224 145.379 146.02 144.052 
143.733 143.957 143.702 144.032 143.812 144.229 144.091 144.707 144.811 
145.642 145.841 146.608 146.632 147.25 144.895 144.558 144.793 144.511 
144.889 144.664 145.133 144.918 145.473 145.4 146.155 146.292 147.137 
147.255 147.986 147.956 148.613 145.785 145.444 145.725 145.412 145.834 
145.593 146.133 145.898 146.476 146.267 146.951 146.913 147.746 147.834 
148.653 148.687 149.396 149.35 150.019 146.388 147.468 146.731 146.41 
148.809 147.963 147.674 146.858 146.595 150.29 149.409 149.149 148.261 
148.015 147.165 146.944 151.835 150.933 150.702 149.799 149.574 148.677 
148.454 147.571 147.338 153.609 152.589 152.412 151.427 151.249 150.299 
150.123 149.176 148.98 148.025 147.848 155.682 154.556 154.43 153.306 
153.164 152.092 151.96 150.942 150.813 149.799 149.667 148.671 148.608 
157.774 156.704 156.599 155.452 155.304 154.14 153.982 152.874 152.739 
151.697 151.577 150.561 150.458 149.5 149.458 159.639 158.708 158.623 
157.584 157.44 156.307 156.112 154.951 154.755 153.652 153.491 152.459 
152.32 151.334 151.211 150.292 150.196 161.262 160.456 160.396 159.494 
159.378 158.363 158.177 157.06 156.83 155.687 155.476 154.385 154.219 
153.186 153.038 152.049 151.906 150.972 150.841 151.516 152.658 152.398 
153.103 153.858 153.621 154.404 154.146 154.998 155.093 154.88 155.738 
155.5 156.38 156.136 157.062 156.393 156.176 157.096 156.872 157.794 
157.541 158.45 158.215 159.135 157.764 157.538 158.477 158.253 159.199 
158.965 159.893 159.632 160.533 160.271 161.135 159.099 158.916 159.836 
159.623 160.523 160.323 161.228 161.032 161.907 161.67 162.482 162.209 
162.948 160.273 160.179 161.084 160.923 161.77 161.582 162.418 162.263 
163.08 162.92 163.651 163.451 164.102 163.871 164.453 161.254 161.246 
162.14 162.071 162.904 162.763 163.562 163.404 164.171 164.002 164.667 
164.477 165.046 164.871 165.402 165.214 165.684 162.082 162.133 163.004 
163.018 163.836 163.792 164.572 164.482 165.219 165.065 165.674 165.445 
165.928 165.719 166.187 166.045 166.513 166.339 166.724 145.169 144.977 
144.705 143.934 144.777 144.479 143.653 143.38 142.562 144.705 144.345 
143.587 143.193 142.393 142.036 141.311 144.744 144.384 143.71 143.273 
142.596 142.111 141.481 141.038 140.593 144.682 144.413 143.743 143.4 
142.759 142.391 141.879 141.454 141.036 140.618 140.356 144.599 144.326 
143.683 143.369 142.704 142.436 141.918 141.728 141.312 141.045 140.614 
140.343 140.042 144.778 144.386 143.866 143.437 142.854 142.435 141.888 
141.638 141.192 141.055 140.59 140.416 139.986 139.883 139.715 145.191 
144.74 144.315 143.831 143.377 142.828 142.334 141.813 141.354 140.983 
140.587 140.332 140.011 139.841 139.72 139.698 139.839 145.653 145.209 
144.793 144.349 143.946 143.457 143.041 142.466 142.045 141.453 141.103 
140.608 140.398 140.057 140.021 139.855 139.986 139.993 140.226 145.051 
143.874 144.528 144.676 142.53 143.288 143.533 144.268 144.604 141.231 
141.925 142.265 143.116 143.599 144.352 144.816 140.444 140.81 141.166 
141.927 142.562 143.383 143.974 144.653 145.109 140.219 140.332 140.638 
141.105 141.777 142.473 143.162 143.842 144.366 144.954 145.365 140.028 
140.193 140.471 140.803 141.401 141.907 142.589 143.147 143.725 144.263 
144.737 145.251 145.707 139.839 139.993 140.308 140.622 141.156 141.602 
142.232 142.713 143.316 143.77 144.312 144.741 145.256 145.708 146.251 
140.028 140.011 140.381 140.524 141.041 141.359 141.968 142.395 143.026 
143.467 144.062 144.453 144.996 145.369 145.913 146.342 146.911 140.422 
140.378 140.751 140.771 141.259 141.386 141.959 142.224 142.852 143.227 
143.848 144.241 144.796 145.159 145.676 146.056 146.592 147.018 147.55 
145.668 145.341 145.81 146.527 145.296 145.624 146.367 146.801 147.604 
145.47 145.698 146.431 146.772 147.561 147.959 148.683 145.694 145.893 
146.565 146.875 147.65 147.995 148.701 148.991 149.552 145.918 146.091 
146.705 146.98 147.722 148.081 148.851 149.126 149.795 149.931 150.578 
146.261 146.357 146.972 147.146 147.847 148.147 148.948 149.293 150.094 
150.322 151.099 151.219 152.07 146.808 146.819 147.468 147.524 148.206 
148.355 149.105 149.398 150.214 150.566 151.379 151.684 152.483 152.748 
153.549 147.455 147.444 148.093 148.106 148.763 148.806 149.479 149.629 
150.367 150.659 151.438 151.807 152.557 152.927 153.615 153.971 154.594 
148.05 148.062 148.656 148.698 149.294 149.346 149.951 150.041 150.704 
150.881 151.609 151.875 152.612 152.926 153.618 153.937 154.568 154.87 
155.455 151.481 150.881 150.769 149.943 150.256 150.158 149.341 149.238 
148.468 149.61 149.53 148.73 148.638 147.874 147.807 147.1 148.998 
148.907 148.133 148.035 147.251 147.181 146.435 146.421 145.701 148.501 
148.359 147.613 147.477 146.692 146.564 145.768 145.709 144.947 144.953 
144.192 148.149 147.944 147.209 147.02 146.265 146.073 145.308 145.132 
144.401 144.275 143.564 143.475 142.757 147.923 147.668 146.949 146.695 
145.98 145.74 145.051 144.811 144.165 143.931 143.329 143.088 142.497 
142.255 141.699 147.798 147.51 146.836 146.529 145.869 145.573 144.946 
144.664 144.058 143.799 143.227 142.991 142.463 142.21 141.73 141.461 
141.079 147.753 147.447 146.818 146.495 145.888 145.57 144.993 144.666 
144.075 143.749 143.147 142.884 142.324 142.139 141.647 141.491 141.082 
140.939 140.652 
POINT_DATA 1002
SCALARS Distance double
LOOKUP_TABLE default
147.036 146.1 146.698 147.726 147.353 148.24 148.462 148.125 149.043 
149.67 149.332 148.992 149.922 150.6 151.163 150.305 149.829 150.931 
151.616 152.206 152.744 151.231 150.631 151.968 152.696 153.357 153.979 
154.66 152.151 151.517 152.974 153.791 154.58 155.35 156.107 156.805 
153.232 152.539 154.104 154.987 155.882 156.779 157.598 158.281 158.795 
154.468 153.677 155.393 156.314 157.251 158.207 159.049 159.704 160.184 
160.517 155.707 154.86 156.657 157.594 158.543 159.53 160.402 161.051 
161.515 161.831 162.025 145.635 146.231 145.173 145.871 144.881 146.997 
145.781 144.922 146.839 147.912 145.923 145.067 146.891 147.888 148.787 
146.047 145.053 147.058 148.035 148.826 149.586 146.175 145.08 147.254 
148.267 149.122 149.762 150.458 146.416 145.28 147.476 148.419 149.351 
150.155 150.716 151.393 146.589 145.47 147.644 148.522 149.382 150.295 
150.992 151.521 152.355 146.605 145.576 147.691 148.697 149.586 150.384 
151.034 151.57 152.296 153.432 146.315 147.42 147.269 148.544 148.407 
148.702 149.677 149.31 150.074 149.961 150.209 150.019 150.951 151.277 
150.831 150.824 151.271 151.014 151.558 151.593 151.22 152.521 153 
151.937 151.686 151.707 151.657 151.59 154.441 154.343 154.116 153.41 
152.807 152.562 152.485 152.413 155.582 155.177 155.883 155.697 155.073 
154.528 154.236 153.98 153.689 156.355 156.022 156.821 157.126 156.973 
156.556 156.223 155.931 155.552 155.163 156.617 156.999 158.506 157.419 
158.981 160.596 157.752 159.456 161.292 162.933 157.974 159.802 161.949 
163.747 165.019 158.224 160.024 162.376 164.391 165.638 166.588 158.38 
160.164 162.514 164.66 166.059 167.077 168.111 158.162 160.04 162.35 
164.502 166.107 167.362 168.549 169.626 157.713 159.604 161.849 163.979 
165.742 167.229 168.56 169.736 170.655 157.347 159.118 161.178 163.217 
165.076 166.724 168.124 169.331 170.376 171.15 157.603 159.604 158.624 
161.868 160.759 159.658 164.227 163.174 161.961 160.746 166.126 165.423 
164.342 163.054 161.736 167.719 167.156 166.301 165.148 163.844 162.457 
169.373 168.782 167.91 166.849 165.683 164.382 162.947 170.699 170.282 
169.442 168.37 167.249 166.069 164.723 163.257 171.383 171.201 170.569 
169.612 168.53 167.407 166.183 164.817 163.393 171.617 171.646 171.812 
171.602 171.744 171.25 171.473 171.53 170.998 170.46 171.229 171.038 
170.702 170.041 169.432 170.468 170.118 170.202 169.533 168.939 168.316 
169.331 169.185 169.257 168.907 168.393 167.818 167.114 168.409 168.53 
168.217 168.092 167.854 167.31 166.593 165.793 167.715 167.886 167.386 
167.203 167.126 166.754 166.043 165.247 164.387 166.971 167.075 166.648 
166.348 166.195 165.932 165.36 164.635 163.857 162.977 171.012 171.563 
170.73 171.274 170.223 171.726 170.506 169.303 171.17 171.424 169.283 
168.103 170.149 170.59 170.926 168.026 167.022 169.003 169.673 170.025 
170.249 166.99 166.105 167.898 168.756 169.23 169.392 169.435 166.009 
165.093 166.823 167.614 168.238 168.562 168.75 168.808 164.915 163.944 
165.775 166.477 167.051 167.536 167.95 168.242 168.252 163.767 162.816 
164.7 165.473 166.025 166.498 166.996 167.409 167.59 167.47 156.64 
158.28 157.475 159.283 158.316 160.209 160.214 159.177 161.215 162.213 
161.14 160.071 162.186 163.209 164.206 161.968 160.857 163.072 164.183 
165.223 166.086 162.649 161.524 163.756 164.895 166.018 166.941 167.628 
163.252 162.094 164.357 165.409 166.502 167.519 168.286 168.881 163.694 
162.517 164.846 165.848 166.839 167.941 168.907 169.563 170.043 155.17 
155.7 154.271 154.709 153.312 156.402 153.735 152.335 155.323 157.168 
152.782 151.397 154.331 156.05 158.036 151.801 150.57 153.304 154.971 
156.848 158.921 150.895 149.881 152.22 153.855 155.657 157.665 159.714 
150.159 149.251 151.295 152.846 154.606 156.479 158.501 160.432 149.529 
148.63 150.577 152.024 153.743 155.477 157.335 159.278 161.028 148.945 