# vtk DataFile Version 4.0
vtk output
ASCII
DATASET POLYDATA
POINTS 1002 float
-75.7856 -109.238 59.6611 -76.0957 -108.619 58.7752 -76.8063 -108.86 58.9617 
-76.3731 -109.617 59.8204 -77.5348 -109.168 59.1796 -75.4444 -110.19 60.6109 
-76.9924 -110.146 59.9762 -78.2725 -109.475 59.5137 -75.968 -110.75 60.7518 
-75.1418 -111.44 61.6516 -77.6493 -110.656 60.3288 -78.9437 -109.695 60.1019 
-76.5089 -111.461 60.9452 -75.6488 -112.076 61.936 -74.8504 -112.684 62.9032 
-78.1548 -111.175 60.8598 -79.3703 -110.127 60.6859 -76.9817 -112.199 61.3186 
-76.044 -112.914 62.2351 -75.2934 -113.474 63.285 -74.5102 -114.2 63.9965 
-78.1959 -112.148 61.1109 -79.3668 -111.148 60.8314 -77.1476 -113.137 61.6247 
-76.2224 -113.965 62.4538 -75.5294 -114.609 63.474 -74.906 -115.35 64.274 
-74.1794 -116.258 64.7444 -77.7998 -113.607 60.9812 -79.0124 -112.558 60.6616 
-76.9483 -114.461 61.6383 -76.2212 -115.25 62.4998 -75.6333 -115.969 63.4976 
-75.2118 -116.65 64.4646 -74.6631 -117.426 65.1718 -73.9749 -118.147 65.7082 
-77.4965 -115.009 60.9508 -78.6711 -113.922 60.6166 -76.7933 -115.803 61.6803 
-76.3055 -116.535 62.617 -75.8514 -117.3 63.6375 -75.558 -117.901 64.7652 
-75.2219 -118.409 65.7951 -74.6139 -118.958 66.5119 -73.9569 -119.425 67.0265 
-77.6514 -116.074 61.2865 -78.573 -115.079 60.8333 -77.0937 -116.816 62.0709 
-76.7324 -117.524 63.0542 -76.3381 -118.338 64.1022 -76.0373 -118.971 65.2723 
-75.8181 -119.335 66.4696 -75.3644 -119.685 67.3778 -74.704 -120.105 67.9019 
-74.1098 -120.493 68.2351 -78.0975 -116.892 61.8537 -78.6658 -116.044 61.2039 
-77.7276 -117.567 62.7361 -77.4348 -118.254 63.7422 -77.0449 -119.069 64.7759 
-76.6541 -119.764 65.8848 -76.4048 -120.188 67.0257 -76.0813 -120.53 67.9664 
-75.5225 -120.898 68.5753 -74.9055 -121.254 68.9275 -74.3782 -121.566 69.1762 
-76.8771 -108.121 58.1768 -77.7763 -108.298 58.4156 -77.7441 -107.314 57.8473 
-78.7546 -107.393 58.1835 -78.5242 -106.306 57.6578 -78.682 -108.486 58.7376 
-79.5745 -106.349 58.1715 -79.1423 -105.529 57.291 -79.7747 -107.56 58.6005 
-79.4999 -108.643 59.2391 -80.3342 -105.592 57.9948 -79.7735 -105.089 56.6134 
-80.7278 -106.603 58.6762 -80.6072 -107.799 59.1519 -80.1409 -108.799 59.9706 
-81.1676 -105.19 57.3322 -80.6072 -104.715 55.7266 -81.6914 -105.871 58.5366 
-81.6103 -107.046 59.1251 -81.2271 -108.136 59.8459 -80.5976 -109.283 60.5713 
-81.8857 -105.036 56.3291 -81.4926 -104.366 54.8247 -82.5579 -105.558 57.8741 
-82.6525 -106.495 58.8455 -82.282 -107.693 59.6363 -81.8723 -108.71 60.442 
-80.7765 -110.27 60.7295 -82.2105 -105.112 55.434 -82.0596 -104.267 54.087 
-82.9233 -105.739 56.9787 -83.4749 -106.408 58.207 -83.3433 -107.504 59.2134 
-83.0731 -108.497 60.2099 -82.3281 -109.589 60.7278 -80.5644 -111.567 60.6412 
-82.1759 -105.382 54.833 -82.1759 -104.553 53.5575 -82.7388 -106.15 56.2473 
-83.6694 -106.736 57.4488 -84.0786 -107.621 58.5564 -83.9854 -108.63 59.7421 
-83.5283 -109.436 60.5721 -82.1243 -110.785 60.7036 -80.0986 -112.952 60.5846 
-82.0409 -105.827 54.4155 -82.0244 -105.153 53.2048 -82.4161 -106.564 55.6954 
-83.3885 -107.154 56.736 -84.2512 -107.903 57.7551 -84.4562 -108.902 59.0113 
-84.147 -109.708 60.0905 -83.1342 -110.577 60.5153 -81.3638 -112.189 60.5098 
-79.6403 -114.27 60.6382 -81.9194 -106.293 53.6889 -82.1415 -106.933 54.9279 
-82.043 -107.574 54.2144 -82.608 -108.119 55.1946 -82.3016 -108.871 54.5765 
-82.907 -107.535 55.9228 -83.1119 -109.428 55.3736 -82.3524 -110.033 54.9405 
-83.6546 -108.79 55.939 -84.0166 -108.243 56.7939 -83.0695 -110.666 55.8353 
-82.0886 -111.115 55.4691 -84.0414 -110.316 56.2416 -84.5098 -109.77 56.9989 
-84.5907 -109.247 58.0451 -82.4707 -111.815 56.3928 -81.8213 -112.556 55.9539 
-83.4879 -111.547 56.8367 -84.28 -111.261 57.4836 -84.4684 -110.71 58.4102 
-84.3684 -110.164 59.3621 -81.9263 -113.369 56.7909 -81.6771 -114.435 56.3939 
-82.4012 -112.613 57.2439 -83.1465 -112.242 57.8068 -83.6054 -111.852 58.541 
-83.5987 -111.367 59.3292 -83.4431 -110.915 60.0306 -81.6207 -115.344 57.3644 
-81.3612 -116.198 57.1383 -81.6559 -114.295 57.6464 -81.8716 -113.48 58.0017 
-82.2522 -112.986 58.5097 -82.3348 -112.65 59.0911 -82.1127 -112.395 59.6688 
-81.823 -112.212 60.1881 -81.244 -117.15 58.4171 -80.7841 -117.504 58.3238 
-81.355 -116.427 58.5405 -81.2515 -115.537 58.6968 -81.2333 -114.825 58.9914 
-81.1901 -114.427 59.3692 -80.8951 -114.243 59.7207 -80.5062 -114.161 60.0866 
-80.1336 -114.158 60.4344 -80.7873 -118.483 59.8411 -80.247 -118.474 59.7799 
-81.1684 -118.26 59.9211 -81.237 -117.727 60.0294 -81.0676 -117.061 60.2561 
-80.7923 -116.559 60.5329 -80.3886 -116.297 60.6711 -79.9043 -116.152 60.7304 
-79.4883 -116.059 60.8815 -79.1152 -116.026 61.0801 -78.6765 -117.396 62.217 
-79.0975 -117.543 62.1234 -79.0994 -118.563 63.7493 -79.5344 -117.744 62.0599 
-79.6213 -118.841 63.7425 -79.7422 -119.678 65.5713 -80.0791 -117.968 62.1981 
-80.2198 -119.175 63.8429 -80.4232 -120.05 65.6331 -80.5047 -120.913 67.2611 
-80.7024 -118.189 62.4018 -80.9085 -119.438 64.1725 -81.1099 -120.428 65.768 
-81.1946 -121.384 67.3233 -81.2427 -122.294 68.6634 -81.2666 -118.545 62.307 
-81.6799 -119.677 64.3643 -81.8826 -120.65 65.9389 -81.8315 -121.74 67.3109 
-81.8642 -122.746 68.7436 -81.9551 -123.432 70.1433 -81.5669 -119.094 61.9634 
-82.2734 -120.131 64.0863 -82.7636 -120.94 65.7583 -82.6918 -121.924 67.0578 
-82.5491 -122.972 68.546 -82.6784 -123.674 70.2422 -82.8018 -124.021 71.8333 
-81.4235 -119.525 61.7031 -82.2302 -120.62 63.6684 -83.1648 -121.445 65.2931 
-83.5304 -122.256 66.5128 -83.4119 -123.149 67.974 -83.3953 -123.846 69.8776 
-83.5511 -124.23 71.759 -83.6092 -124.486 73.2622 -80.9167 -119.6 61.5704 
-81.5775 -120.731 63.4341 -82.6516 -121.74 64.996 -83.5343 -122.639 66.0963 
-83.8525 -123.482 67.3396 -83.8924 -124.175 69.1781 -83.9592 -124.627 71.1863 
-84.0353 -124.944 72.8641 -84.0125 -125.242 74.103 -80.3174 -119.45 61.4539 
-80.7948 -120.512 63.2758 -81.6896 -121.6 64.8727 -82.6823 -122.672 65.9875 
-83.3838 -123.678 67.0094 -83.7459 -124.532 68.5311 -83.9191 -125.146 70.4068 
-83.9832 -125.536 72.1092 -83.9814 -125.82 73.4572 -83.9036 -126.058 74.4971 
-78.4557 -118.075 63.2719 -78.995 -119.229 65.0812 -78.2426 -118.77 64.4065 
-79.6433 -120.454 66.8956 -78.7702 -120.074 66.2398 -77.898 -119.611 65.4697 
-80.4269 -121.8 68.3985 -79.4346 -121.389 67.8937 -78.4112 -120.939 67.2149 
-77.4461 -120.384 66.5268 -81.1615 -123.113 69.8668 -80.1823 -122.717 69.4069 
-79.1059 -122.208 68.8317 -78.0121 -121.581 68.2006 -77.0818 -120.922 67.5964 
-81.9079 -123.921 71.6768 -80.8307 -123.776 71.1981 -79.7755 -123.44 70.5727 
-78.7049 -122.853 69.8319 -77.6272 -122.179 69.0648 -76.7495 -121.421 68.4726 
-82.8051 -124.32 73.4238 -81.5947 -124.253 73.1148 -80.3726 -124.175 72.5054 
-79.3116 -123.881 71.6999 -78.2084 -123.391 70.6689 -77.1175 -122.768 69.7146 
-76.2345 -121.895 69.1015 -83.5514 -124.931 74.5571 -82.4862 -124.651 74.5356 
-81.0903 -124.459 74.112 -79.8323 -124.272 73.5041 -78.7092 -123.981 72.6104 
-77.5492 -123.61 71.402 -76.4848 -123.053 70.3213 -75.6206 -122.201 69.5781 
-83.7816 -125.779 75.1181 -83.0761 -125.387 75.3435 -81.7638 -124.948 75.1357 
-80.3025 -124.547 74.7666 -79.0579 -124.173 74.2844 -77.9408 -123.836 73.3573 
-76.8623 -123.539 72.0508 -75.8939 -123.104 70.8463 -75.0645 -122.407 69.9296 
-83.4198 -126.537 75.1742 -83.1886 -126.286 75.7518 -82.4258 -126.819 75.7444 
-81.9074 -126.604 76.2616 -80.9109 -127.102 76.0863 -82.2408 -125.838 75.8587 
-80.027 -126.91 76.5228 -79.2184 -127.626 76.1333 -80.6637 -126.188 76.2859 
-80.7114 -125.264 75.6344 -78.0651 -127.396 76.3872 -77.6237 -128.284 75.9488 
-78.6472 -126.523 76.4474 -79.0942 -125.588 76.0876 -79.2156 -124.664 75.3903 
-76.3716 -127.992 75.9451 -76.0193 -128.903 75.5541 -76.7897 -126.865 76.1736 
-77.3382 -125.854 76.1861 -77.8403 -124.884 75.7834 -78.052 -124.116 74.8631 
-74.9269 -128.548 75.3956 -74.4941 -129.38 74.939 -75.327 -127.205 75.7047 
-75.8253 -125.994 75.8783 -76.4724 -125.11 75.6304 -76.955 -124.289 74.913 
-77.0425 -123.741 73.6808 -73.7773 -128.751 74.7638 -73.4015 -129.373 74.2079 
-74.1591 -127.472 75.1947 -74.5606 -126.128 75.4495 -75.1558 -125.224 75.1961 
-75.7731 -124.54 74.4672 -76.0745 -123.901 73.481 -76.0435 -123.477 72.1988 
-72.938 -128.324 74.0412 -72.7136 -128.74 73.481 -73.1986 -127.346 74.5137 
-73.4656 -126.191 74.8387 -73.8957 -125.257 74.713 -74.4546 -124.563 74.0415 
-74.8746 -123.993 73.1144 -75.059 -123.528 72.0578 -75.084 -123.055 70.9201 
-72.2291 -127.509 73.2928 -72.1047 -127.848 72.7599 -72.3673 -126.771 73.7139 
-72.5192 -125.925 73.991 -72.8152 -125.141 74.0052 -73.2524 -124.356 73.6412 
-73.6257 -123.697 72.9327 -73.8898 -123.302 71.9825 -74.1125 -122.935 70.9209 
-74.271 -122.34 69.9479 -83.4704 -126.548 74.0876 -82.7031 -126.832 74.7199 
-82.8136 -126.817 73.498 -81.8171 -127.003 74.0048 -82.1323 -126.975 72.744 
-81.4889 -127.096 75.148 -81.0259 -127.286 73.1098 -81.3847 -127.169 71.7782 
-80.5624 -127.522 74.1943 -80.0647 -127.682 75.2631 -80.2335 -127.548 72.0782 
-80.4179 -127.228 70.7092 -79.8353 -127.971 73.1909 -79.4234 -128.406 74.1132 
-78.7381 -128.44 75.2258 -79.2361 -127.407 71.0145 -79.2461 -126.785 69.8707 
-79.006 -127.942 72.2666 -78.7709 -128.653 73.0978 -78.3078 -129.005 74.0164 
-77.2657 -128.964 75.0959 -78.1021 -126.78 70.1177 -78.0428 -125.866 69.3199 
-77.9528 -127.46 71.2812 -77.7498 -128.218 72.2534 -77.4748 -128.908 72.8469 
-76.674 -129.172 73.7425 -75.458 -129.346 74.6443 -77.0437 -125.92 69.3315 
-77.0095 -124.958 68.6395 -76.9664 -126.833 70.185 -76.7133 -127.62 71.2251 
-76.3768 -128.412 71.8271 -75.8057 -128.97 72.2694 -74.8444 -129.291 73.1347 
-73.918 -129.545 73.9208 -76.1629 -125.135 68.3825 -76.236 -124.391 67.5781 
-76.1435 -126.083 69.0508 -76.0018 -126.963 69.9384 -75.6062 -127.759 70.7479 
-75.0581 -128.476 71.1194 -74.3797 -128.914 71.6285 -73.6201 -129.141 72.5087 
-73.0398 -129.171 73.2028 -75.4337 -124.545 67.247 -75.6433 -124.044 66.3634 
-75.356 -125.282 67.9263 -75.3497 -126.102 68.6435 -75.0981 -126.851 69.5074 
[...]
CELL_DATA 2000
SCALARS Distance double
LOOKUP_TABLE default
144.492 145.155 144.932 145.252 145.902 145.645 145.981 145.811 146.308 
146.696 146.448 146.829 146.619 147.141 147 147.595 147.501 147.28 
147.726 147.524 148.074 147.901 148.525 148.36 148.994 148.318 148.115 
148.605 148.436 149.022 148.862 149.521 149.358 150.068 149.869 150.596 
149.133 148.948 149.469 149.326 149.96 149.823 150.542 150.399 151.192 
151.023 151.835 151.606 152.37 149.972 149.791 150.366 150.227 150.937 
150.812 151.624 151.489 152.368 152.213 153.088 152.879 153.659 153.38 
154.041 150.894 150.708 151.367 151.206 152 151.871 152.772 152.649 
153.592 153.445 154.355 154.153 154.946 154.662 155.313 154.972 155.532 
151.867 151.712 152.455 152.295 153.145 153.011 153.947 153.836 154.785 
154.664 155.556 155.393 156.179 155.934 156.586 156.249 156.8 156.424 
156.93 144.205 144.006 144.373 144.884 143.704 144.162 144.739 145.094 
145.621 143.336 143.841 144.502 144.941 145.525 145.85 146.379 143.06 
143.538 144.276 144.735 145.409 145.76 146.314 146.608 147.146 142.897 
143.358 144.159 144.6 145.34 145.691 146.313 146.586 147.139 147.405 
147.962 142.778 143.242 144.094 144.551 145.345 145.694 146.392 146.661 
147.291 147.496 148.055 148.254 148.793 142.699 143.139 144.02 144.511 
145.389 145.766 146.561 146.838 147.583 147.767 148.384 148.465 148.955 
149.084 149.604 142.697 143.077 143.938 144.441 145.371 145.827 146.706 
147.062 147.898 148.141 148.825 148.883 149.331 149.321 149.729 149.883 
150.438 142.826 143.115 143.919 144.363 145.266 145.77 146.675 147.155 
148.031 148.418 149.138 149.302 149.72 149.691 149.961 150.008 150.422 
150.697 151.308 143.219 144.294 143.891 144.303 145.522 145.06 145.427 
145.074 145.593 146.716 146.323 146.727 146.293 146.791 146.443 147.021 
147.698 147.459 148.005 147.666 148.216 147.775 148.331 147.925 148.455 
148.598 148.343 148.879 148.781 149.359 149.134 149.586 149.224 149.598 
149.234 149.531 149.808 149.296 149.578 149.416 149.824 149.866 150.18 
150.125 150.262 150.097 150.169 149.966 149.992 151.303 150.648 150.766 
150.207 150.378 150.156 150.384 150.365 150.483 150.435 150.443 150.341 
150.339 150.19 150.189 152.685 152.165 152.398 151.653 151.805 151.088 
151.317 150.834 151.124 150.792 151.019 150.718 150.897 150.619 150.806 
150.524 150.709 153.842 153.505 153.968 153.38 153.731 152.9 153.23 
152.364 152.778 152.022 152.462 151.793 152.178 151.586 151.949 151.449 
151.807 151.351 151.673 152.507 152.706 153.083 154.081 152.945 153.343 
154.452 154.813 155.931 153.301 153.704 154.937 155.288 156.506 156.788 
157.945 153.723 154.175 155.524 155.884 157.164 157.435 158.636 158.863 
159.989 154.154 154.658 156.107 156.521 157.822 158.105 159.272 159.532 
160.656 160.886 161.926 154.607 155.116 156.606 157.093 158.418 158.733 
159.839 160.095 161.153 161.455 162.495 162.736 163.653 154.935 155.48 
156.861 157.476 158.789 159.244 160.323 160.603 161.573 161.867 162.861 
163.188 164.127 164.352 165.146 154.938 155.554 156.71 157.471 158.68 
159.382 160.442 160.928 161.836 162.201 163.112 163.479 164.393 164.716 
165.525 165.732 166.402 154.659 155.292 156.259 157.061 158.139 158.997 
160.02 160.762 161.649 162.237 163.083 163.593 164.449 164.882 165.653 
165.974 166.603 166.825 167.319 152.656 154.262 153.413 153.366 156.107 
155.17 155.168 154.214 154.152 158.092 157.111 157.141 156.136 156.104 
155.075 155.003 160.116 159.137 159.168 158.153 158.117 157.073 156.973 
155.933 155.825 162.06 161.148 161.184 160.183 160.13 159.078 158.937 
157.876 157.709 156.699 156.55 163.793 163.01 163.062 162.148 162.104 
161.086 160.94 159.842 159.628 158.555 158.349 157.354 157.146 165.286 
164.631 164.676 163.89 163.822 162.95 162.802 161.809 161.557 160.473 
160.179 159.128 158.838 157.851 157.536 166.567 166.037 166.079 165.374 
165.229 164.464 164.239 163.45 163.148 162.248 161.853 160.869 160.458 
159.478 159.076 158.121 157.722 167.52 167.19 167.255 166.674 166.47 
165.73 165.383 164.657 164.283 163.564 163.129 162.319 161.831 160.954 
160.482 159.584 159.139 158.232 157.816 167.902 168.157 168.027 167.71 
167.974 168.089 167.831 167.582 166.923 167.538 167.729 167.49 167.478 
166.856 166.551 165.751 167.095 167.209 166.889 166.979 166.434 166.323 
165.574 165.307 164.566 166.665 166.72 166.265 166.32 165.787 165.811 
165.171 165.046 164.326 164.113 163.396 166.162 166.24 165.723 165.694 
165.092 165.131 164.555 164.572 163.923 163.803 163.071 162.877 162.122 
165.479 165.67 165.167 165.144 164.477 164.455 163.848 163.908 163.317 
163.314 162.621 162.498 161.741 161.56 160.797 164.491 164.841 164.333 
164.467 163.774 163.807 163.127 163.19 162.56 162.626 161.955 161.952 
161.222 161.135 160.385 160.228 159.469 163.262 163.698 163.172 163.456 
162.767 162.95 162.249 162.393 161.709 161.814 161.105 161.18 160.462 
160.508 159.794 159.758 159.021 158.888 158.143 167.89 167.643 167.919 
168.06 167.129 167.475 167.572 167.882 167.863 166.549 166.9 166.996 
167.322 167.398 167.629 167.549 165.834 166.291 166.45 166.804 166.98 
167.247 167.345 167.416 167.289 164.773 165.44 165.62 166.173 166.371 
166.824 166.969 167.222 167.174 167.172 166.922 163.38 164.205 164.374 
165.122 165.274 165.971 166.063 166.608 166.511 166.823 166.568 166.669 
166.334 161.882 162.732 162.934 163.751 163.907 164.683 164.762 165.446 
165.342 165.862 165.602 165.995 165.704 165.942 165.579 160.496 161.265 
161.477 162.296 162.488 163.284 163.393 164.096 164.048 164.611 164.41 
164.881 164.632 165.063 164.774 165.053 164.601 159.3 159.946 160.087 
160.849 161.009 161.829 161.931 162.699 162.671 163.318 163.162 163.691 
163.458 163.928 163.647 164.063 163.678 163.938 163.391 154.722 155.365 
155.439 156.342 156.131 156.19 157.132 157.209 158.204 156.846 156.963 
157.911 158.02 159.005 159.111 160.068 157.494 157.639 158.599 158.754 
159.737 159.879 160.842 160.926 161.764 158.11 158.277 159.243 159.42 
160.431 160.592 161.597 161.705 162.634 162.608 163.339 158.549 158.812 
159.763 160.027 161.05 161.277 162.318 162.476 163.475 163.525 164.377 
164.217 164.815 158.791 159.116 160.034 160.419 161.446 161.814 162.861 
163.139 164.13 164.309 165.177 165.196 165.838 165.618 166.023 158.958 
159.278 160.138 160.568 161.574 162.066 163.108 163.535 164.472 164.789 
165.567 165.776 166.367 166.411 166.812 166.644 166.903 159.059 159.392 
160.183 160.609 161.539 162.073 163.064 163.606 164.491 164.929 165.605 
165.925 166.412 166.645 167.011 167.134 167.42 167.358 167.552 153.911 
152.887 153.719 154.456 151.876 152.674 153.373 154.323 155.172 150.89 
151.652 152.279 153.201 154.013 155.033 155.876 149.906 150.653 151.199 
152.063 152.783 153.81 154.659 155.703 156.529 148.895 149.642 150.138 
150.948 151.564 152.535 153.343 154.439 155.322 156.367 157.165 147.877 
148.604 149.08 149.867 150.435 151.322 152.048 153.098 153.964 155.091 
155.933 156.961 157.643 146.944 147.597 148.054 148.81 149.384 150.221 
150.898 151.838 152.616 153.691 154.529 155.643 156.401 157.374 157.955 
146.189 146.733 147.161 147.828 148.387 149.186 149.854 150.728 151.441 
152.39 153.169 154.232 155.053 156.107 156.812 157.688 158.204 145.61 
146.065 146.458 147.01 147.507 148.217 148.847 149.684 150.378 151.262 
151.984 152.942 153.734 154.78 155.555 156.533 157.132 157.927 158.349 
145.441 145.445 145.716 146.278 145.457 145.742 146.361 146.626 147.303 
145.542 145.81 146.497 146.762 147.515 147.79 148.624 145.766 145.988 
146.75 146.991 147.83 148.088 148.999 149.26 150.176 146.161 146.324 
147.156 147.36 148.282 148.512 149.49 149.72 150.695 150.892 151.816 
146.682 146.815 147.678 147.857 148.818 149.04 150.05 150.271 151.271 
151.466 152.446 152.6 153.559 147.234 147.373 148.24 148.413 149.361 
149.588 150.597 150.838 151.834 152.047 153.025 153.23 154.218 154.393 
155.343 147.789 147.935 148.814 148.979 149.911 150.12 151.122 151.372 
152.39 152.611 153.576 153.778 154.721 154.957 155.877 156.088 156.899 
148.346 148.499 149.391 149.56 150.488 150.674 151.652 151.891 152.923 
153.172 154.158 154.342 155.232 155.411 156.257 156.487 157.269 157.47 
158.124 148.931 150.215 149.721 150.029 151.612 151.084 151.45 150.889 
151.179 153.128 152.544 152.935 152.369 152.713 152.084 152.371 154.74 
154.11 154.482 153.891 154.272 153.661 154.011 153.351 153.663 156.389 
155.756 156.148 155.504 155.89 155.249 155.632 155.006 155.359 154.676 
154.923 158.069 157.451 157.934 157.265 157.688 156.957 157.316 156.631 
156.979 156.332 156.579 155.852 155.978 159.763 159.183 159.739 159.109 
159.61 158.859 159.219 158.407 158.709 157.966 158.217 157.476 157.604 
156.833 156.933 161.322 160.856 161.413 160.877 161.386 160.75 161.131 
160.351 160.62 159.791 160.015 159.185 159.318 158.478 158.546 157.772 
157.878 162.598 162.3 162.833 162.413 162.842 162.352 162.687 162.102 
162.344 161.642 161.814 161.017 161.106 160.238 160.243 159.391 159.395 
158.656 158.702 148.503 148.245 148.823 149.745 147.976 148.589 149.561 
150.138 151.135 147.69 148.352 149.448 150.044 151.145 151.659 152.72 
147.447 148.105 149.313 149.994 151.242 151.797 152.952 153.361 154.399 
147.349 147.928 149.11 149.838 151.128 151.851 153.064 153.61 154.667 
155.047 156.021 147.354 147.873 148.952 149.611 150.785 151.574 152.749 
153.517 154.613 155.217 156.232 156.655 157.643 147.382 147.869 148.887 
149.451 150.513 151.188 152.282 153.055 154.195 154.985 156.14 156.782 
157.863 158.301 159.307 147.467 147.905 148.883 149.378 150.381 150.952 
152.001 152.656 153.793 154.559 155.792 156.582 157.769 158.408 159.44 
159.902 160.825 147.604 148.007 148.934 149.373 150.307 150.82 151.816 
152.427 153.524 154.236 155.42 156.211 157.372 158.141 159.152 159.814 
160.687 161.237 162.032 147.655 146.249 147.089 147.356 144.753 145.596 
145.817 146.738 147.013 143.274 144.038 144.148 145.084 145.321 146.329 
146.63 141.882 142.549 142.526 143.362 143.528 144.552 144.879 145.949 
146.352 140.534 141.15 141.031 141.74 141.788 142.74 143.067 144.183 
144.671 145.77 146.287 139.333 139.855 139.713 140.273 140.203 141.008 
141.243 142.349 142.857 144.063 144.647 145.771 146.316 138.467 138.854 
138.799 139.136 139.051 139.558 139.717 140.596 141.077 142.231 142.861 
144.07 144.685 145.807 146.358 137.872 138.199 138.287 138.5 138.51 
138.724 138.895 139.381 139.866 140.682 141.352 142.375 143.075 144.175 
144.835 145.895 146.482 137.425 137.709 137.877 138.129 138.25 138.418 
138.628 138.892 139.36 139.848 140.502 141.19 141.896 142.758 143.469 
144.445 145.117 146.093 146.675 137.304 137.31 137.412 137.7 137.504 
137.451 137.698 137.846 138.144 138.037 137.774 137.985 137.962 138.334 
138.369 138.685 138.858 138.472 138.675 138.451 138.84 138.746 139.194 
139.098 139.509 139.762 139.372 139.595 139.284 139.611 139.392 139.808 
139.704 140.186 140.088 140.593 140.71 140.305 140.551 140.23 140.521 
140.213 140.517 140.332 140.78 140.738 141.297 141.25 141.865 141.757 
141.306 141.542 141.192 141.494 141.144 141.434 141.115 141.529 141.379 
141.984 141.944 142.631 142.6 143.342 142.808 142.368 142.569 142.194 
142.488 142.139 142.482 142.127 142.567 142.288 142.887 142.733 143.44 
143.378 144.137 144.132 144.931 143.724 143.357 143.54 143.192 143.469 
143.141 143.506 143.196 143.665 143.39 143.95 143.725 144.34 144.208 
144.894 144.885 145.646 145.697 146.465 144.219 145.034 144.44 144.127 
146.129 145.414 145.134 144.442 144.132 147.406 146.632 146.368 145.586 
145.285 144.523 144.226 148.774 147.952 147.699 146.89 146.615 145.792 
145.517 144.712 144.461 150.368 149.421 149.192 148.292 148.067 147.199 
146.959 146.099 145.854 145.02 144.783 152.144 151.152 150.948 149.935 
149.728 148.76 148.54 147.606 147.338 146.444 146.173 145.346 145.127 
153.808 152.921 152.734 151.753 151.528 150.516 150.278 149.27 148.994 
147.995 147.712 146.783 146.584 145.755 145.654 155.297 154.504 154.353 
153.471 153.26 152.298 152.059 151.051 150.806 149.757 149.52 148.473 
148.315 147.354 147.306 146.436 146.437 156.705 155.964 155.856 155.039 
154.874 153.978 153.78 152.823 152.628 151.619 151.433 150.383 150.232 
149.21 149.136 148.194 148.175 147.289 147.266 147.967 148.928 148.743 
149.307 149.938 149.749 150.357 150.1 150.661 151.065 150.845 151.514 
151.214 151.821 151.524 152.166 152.28 152.064 152.821 152.491 153.173 
152.802 153.522 153.183 153.931 153.459 153.297 154.128 153.869 154.631 
154.265 155.027 154.656 155.461 155.075 155.853 154.566 154.44 155.271 
155.121 155.914 155.683 156.446 156.156 156.921 156.598 157.351 156.991 
157.72 155.632 155.522 156.325 156.2 156.969 156.833 157.594 157.437 
158.179 157.953 158.644 158.366 159.043 158.757 159.421 156.615 156.556 
157.366 157.246 158.002 157.85 158.605 158.485 159.263 159.114 159.828 
159.584 160.243 159.98 160.651 160.377 160.983 157.452 157.469 158.292 
158.248 159.013 158.886 159.622 159.492 160.258 160.149 160.892 160.72 
161.394 161.161 161.833 161.586 162.236 161.906 162.406 142.215 142.059 
141.865 141.401 142.001 141.739 141.224 141.08 140.54 142.02 141.682 
141.059 140.862 140.204 140.027 139.237 142.145 141.732 141.043 140.707 
139.972 139.667 138.842 138.588 137.911 142.393 141.939 141.333 140.85 
140.184 139.642 138.924 138.428 137.91 137.646 137.546 142.74 142.275 
141.783 141.295 140.784 140.156 139.578 138.888 138.462 137.979 137.897 
137.728 137.875 143.128 142.67 142.158 141.737 141.245 140.78 140.239 
139.664 139.159 138.646 138.349 138.083 137.959 137.92 137.809 143.461 
143.041 142.467 142.042 141.454 141.077 140.49 140.115 139.53 139.148 
138.635 138.349 137.968 137.844 137.559 137.564 137.34 143.72 143.344 
142.798 142.342 141.74 141.278 140.698 140.287 139.755 139.374 138.865 
138.51 138.066 137.81 137.509 137.383 137.236 137.189 137.156 142.199 
141.357 141.804 141.93 140.474 140.968 141.022 141.536 141.722 139.179 
139.904 140.018 140.642 140.836 141.401 141.736 137.89 138.51 138.76 
139.544 139.941 140.61 141.023 141.583 142.09 137.571 137.651 137.951 
138.441 139.027 139.744 140.368 140.977 141.498 142.051 142.618 137.943 
137.821 138.076 138.126 138.643 139.054 139.752 140.349 140.967 141.507 
142.023 142.582 143.132 137.892 138.071 138.27 138.397 138.747 138.943 
139.468 139.866 140.484 140.989 141.56 142.053 142.591 143.11 143.652 
137.39 137.696 137.863 138.258 138.573 138.936 139.342 139.678 140.184 
140.592 141.177 141.64 142.224 142.681 143.24 143.691 144.211 137.157 
137.239 137.383 137.7 138.045 138.523 138.991 139.447 139.94 140.341 
140.878 141.305 141.886 142.342 142.91 143.351 143.877 144.285 144.751 
142.811 142.591 143.076 143.888 142.426 142.903 143.783 144.283 145.152 
142.447 142.818 143.743 144.232 145.137 145.557 146.32 142.801 143.005 
143.931 144.298 145.227 145.577 146.308 146.631 147.266 143.343 143.486 
144.384 144.624 145.522 145.758 146.5 146.699 147.358 147.602 148.289 
143.825 144 144.837 145.078 145.886 146.091 146.798 146.971 147.689 
147.876 148.682 148.852 149.672 144.248 144.4 145.14 145.403 146.134 
146.377 147.037 147.253 147.967 148.229 149.064 149.329 150.187 150.36 
151.15 144.708 144.783 145.418 145.623 146.311 146.56 147.237 147.472 
148.181 148.461 149.247 149.588 150.377 150.71 151.433 151.7 152.372 
145.186 145.216 145.764 145.891 146.526 146.741 147.439 147.686 148.415 
148.675 149.419 149.712 150.435 150.76 151.439 151.779 152.43 152.757 
153.406 147.558 146.986 146.907 146.166 146.439 146.338 145.583 145.49 
144.73 145.897 145.794 145.037 144.928 144.175 144.07 143.329 145.394 
145.262 144.504 144.383 143.621 143.522 142.784 142.695 141.973 145.038 
144.829 144.083 143.89 143.119 142.971 142.204 142.114 141.369 141.316 
140.609 144.862 144.579 143.864 143.576 142.832 142.567 141.807 141.591 
140.824 140.691 139.969 139.94 139.343 144.83 144.504 143.831 143.474 
142.779 142.424 141.727 141.375 140.651 140.316 139.584 139.371 138.763 
138.764 138.366 144.876 144.547 143.929 143.54 142.889 142.485 141.846 
141.443 140.808 140.367 139.695 139.246 138.608 138.336 137.894 137.922 
137.696 144.914 144.62 144.049 143.687 143.073 142.665 142.046 141.632 
141.044 140.623 140.056 139.568 138.995 138.484 138.001 137.682 137.408 
137.394 137.287 
POINT_DATA 1002
SCALARS Distance double
LOOKUP_TABLE default
144.726 144.063 144.692 145.381 145.395 145.654 146.164 146.15 146.403 
146.872 147.033 146.91 147.296 147.728 148.188 147.903 147.696 148.248 
148.685 149.168 149.629 148.754 148.511 149.165 149.66 150.225 150.815 
151.349 149.593 149.307 150.069 150.653 151.319 152.035 152.658 153.106 
150.486 150.135 151.027 151.722 152.501 153.286 153.945 154.377 154.643 
151.509 151.045 152.109 152.869 153.727 154.552 155.229 155.666 155.897 
156.057 152.587 151.972 153.271 154.059 154.914 155.717 156.402 156.909 
157.185 157.318 157.417 143.861 144.568 143.592 144.33 143.192 145.322 
144.004 142.813 145.175 146.081 143.799 142.571 145.028 146.028 146.839 
143.707 142.417 144.975 146.02 146.895 147.686 143.606 142.315 144.972 
146.09 147.07 147.91 148.574 143.499 142.286 144.958 146.238 147.356 
148.325 148.919 149.383 143.447 142.362 144.868 146.288 147.595 148.744 
149.407 149.674 150.144 143.538 142.582 144.775 146.155 147.584 148.916 
149.756 149.999 150.221 150.912 143.539 144.599 144.748 145.834 145.987 
145.85 147.15 147.013 147.198 147.327 148.215 147.869 148.652 148.801 
148.866 148.947 148.982 149.477 149.952 150.008 149.924 149.963 150.482 
149.826 150.173 150.419 150.365 150.224 151.502 151.927 150.836 150.476 
150.508 150.528 150.445 150.358 153.069 153.062 152.626 151.957 151.524 
151.349 151.191 151.067 151.006 154.39 154.079 154.449 154.122 153.616 
153.2 152.845 152.507 152.28 152.141 153.411 153.7 155.134 154.051 
155.608 157.055 154.557 156.207 157.706 159.078 155.127 156.892 158.396 
159.808 161.083 155.651 157.547 159.029 160.393 161.77 162.927 156.086 
158.083 159.626 160.865 162.202 163.514 164.522 156.237 158.263 160.024 
161.32 162.535 163.85 165.022 165.897 155.98 157.918 159.862 161.441 
162.749 164.055 165.279 166.279 167.033 155.512 157.287 159.213 160.985 
162.522 163.979 165.316 166.369 167.165 167.761 154.243 156.135 155.13 
158.145 157.146 156.039 160.19 159.171 158.036 156.848 162.173 161.191 
160.029 158.747 157.534 163.933 163.083 162.04 160.752 159.386 158.129 
165.443 164.657 163.731 162.639 161.284 159.87 158.515 166.772 166.025 
165.007 163.984 162.825 161.455 160.05 158.664 167.768 167.227 166.161 
164.983 163.886 162.681 161.361 160.04 158.713 168.179 168.136 168.158 
167.977 167.792 167.385 167.423 167.405 167.076 166.111 166.806 167.079 
166.444 165.786 164.831 166.279 166.641 165.715 165.207 164.524 163.625 
165.803 166.047 165.092 164.474 163.986 163.261 162.329 165.162 165.229 
164.539 163.804 163.268 162.698 161.906 160.993 164.134 164.109 163.704 
163.08 162.499 161.916 161.254 160.51 159.654 162.853 162.825 162.529 
162.067 161.601 161.029 160.372 159.763 159.111 158.299 167.733 167.847 
167.353 167.228 166.81 167.645 166.666 166.175 167.098 167.457 166.037 
165.294 166.652 167.193 167.391 164.994 164.034 165.834 166.63 167.086 
167.051 163.59 162.518 164.541 165.45 166.112 166.339 166.321 162.091 
161.038 163.124 164.061 164.778 165.141 165.333 165.464 160.666 159.786 
161.674 162.669 163.451 163.918 164.173 164.394 164.466 159.387 158.728 
160.209 161.146 161.98 162.586 162.984 163.219 163.33 163.239 154.577 
156.231 155.289 157.054 156.051 158.113 157.786 156.704 158.896 160.008 
158.429 157.351 159.584 160.734 161.786 159.053 157.926 160.249 161.461 
162.598 163.52 159.459 158.265 160.78 162.124 163.371 164.459 165.154 
159.626 158.485 161.02 162.539 163.923 165.098 165.976 166.387 159.727 
158.666 161.062 162.64 164.146 165.349 166.255 166.873 167.178 153.081 
153.505 152.082 152.439 151.111 154.178 151.41 150.153 152.992 154.874 
150.401 149.168 151.792 153.57 155.535 149.362 148.159 150.658 152.247 
154.215 156.217 148.295 147.18 149.588 151.065 152.836 154.843 156.74 
147.319 146.335 148.551 150.016 151.618 153.398 155.348 157.117 146.548 
145.685 147.618 148.996 150.553 152.158 153.953 155.858 157.463 145.962 