# vtk DataFile Version 4.0
vtk output
ASCII
DATASET POLYDATA
POINTS 1002 float
-78.4399 -107.831 58.2334 -78.6115 -107.016 57.3527 -79.2921 -107.286 57.6337 
-79.0198 -108.261 58.4126 -79.8321 -107.729 57.8579 -78.0923 -108.846 59.1137 
-79.4505 -108.914 58.5492 -80.2471 -108.512 57.9183 -78.5724 -109.444 59.2807 
-77.649 -110.219 60.0632 -79.8596 -109.817 58.7443 -80.7637 -109.491 58.0732 
-78.9526 -110.255 59.5105 -78.0727 -111.012 60.3444 -77.2504 -112.033 61.0402 
-80.3882 -110.71 59.2661 -81.4445 -110.162 58.7634 -79.2813 -111.284 59.7974 
-78.3723 -112.049 60.5756 -77.636 -113.063 61.3683 -76.9766 -114.054 61.9931 
-80.8416 -111.393 60.065 -82.0386 -110.481 59.8234 -79.508 -112.387 60.1252 
-78.51 -113.32 60.585 -77.9025 -114.285 61.5514 -77.3668 -115.216 62.4463 
-76.822 -115.98 63.1758 -80.9846 -112.231 60.5983 -82.2588 -111.152 60.503 
-79.5856 -113.534 60.4378 -78.5689 -114.643 60.6001 -78.1203 -115.547 61.6486 
-77.801 -116.392 62.9739 -77.292 -117.134 63.9244 -76.7839 -117.751 64.6718 
-80.8428 -113.54 60.6087 -82.0266 -112.476 60.4907 -79.6818 -114.811 60.7089 
-78.8305 -115.883 61.0362 -78.4398 -116.679 62.0848 -78.2908 -117.44 63.602 
-77.9352 -118.196 64.7835 -77.3779 -118.838 65.5229 -76.9256 -119.336 66.1555 
-80.6235 -114.949 60.5147 -81.5843 -113.94 60.2233 -79.8923 -116.019 61.0715 
-79.4196 -116.941 61.8817 -79.0274 -117.675 62.9937 -78.7555 -118.408 64.3372 
-78.5265 -119.165 65.5159 -78.1058 -119.813 66.3175 -77.6128 -120.313 66.9165 
-77.2416 -120.663 67.4696 -80.5915 -116.034 60.767 -81.2881 -115.117 60.2123 
-80.208 -116.899 61.6703 -80.0916 -117.711 62.8261 -79.8061 -118.511 64.0071 
-79.3086 -119.35 65.0806 -78.9618 -120.155 66.0334 -78.7009 -120.771 66.8779 
-78.3203 -121.209 67.6021 -77.9248 -121.55 68.1933 -77.6005 -121.783 68.6714 
-79.1261 -106.41 56.587 -79.876 -106.627 56.9517 -79.6334 -105.875 55.6596 
-80.4496 -106.056 56.019 -80.1817 -105.449 54.5573 -80.4876 -107.068 57.2236 
-81.0659 -105.643 54.8644 -80.8257 -104.958 53.5321 -81.1909 -106.509 56.3347 
-80.9979 -107.99 57.2303 -81.8018 -105.209 53.8116 -81.6564 -104.314 52.7628 
-81.934 -106.113 55.3018 -81.8097 -107.495 56.461 -81.577 -109.066 57.3607 
-82.7846 -104.58 53.0006 -82.6915 -103.635 52.0651 -82.752 -105.658 54.3801 
-82.6593 -106.958 55.7898 -82.3738 -108.518 56.7776 -82.2857 -109.612 58.1882 
-83.8284 -103.879 52.2406 -83.5448 -103.078 51.2696 -83.6652 -105.059 53.5387 
-83.5571 -106.329 55.1245 -83.2968 -107.813 56.3751 -83.0483 -109.076 57.7237 
-82.9562 -109.883 59.4519 -84.3622 -103.527 51.402 -83.7551 -102.973 50.4393 
-84.3228 -104.648 52.6452 -84.25 -105.919 54.2263 -84.2393 -107.257 55.7115 
-83.9456 -108.661 57.2135 -83.7039 -109.675 59.011 -83.2207 -110.727 60.2638 
-84.2277 -103.853 50.5479 -83.4299 -103.524 49.6995 -84.4279 -104.758 51.718 
-84.3912 -105.962 53.2288 -84.6344 -107.175 54.7299 -84.6907 -108.54 56.3102 
-84.3763 -109.772 58.2664 -83.8976 -110.749 59.8385 -82.922 -112.111 60.2846 
-83.8269 -104.674 49.8555 -83.0095 -104.431 49.1742 -84.2222 -105.34 50.8703 
-84.1847 -106.332 52.3198 -84.3737 -107.403 53.8459 -84.7969 -108.656 55.3423 
-84.804 -109.974 57.1885 -84.3444 -110.957 59.0023 -83.5262 -111.959 59.8747 
-82.3651 -113.451 59.9698 -83.2054 -105.491 49.2764 -83.9033 -105.995 49.9971 
-83.4193 -106.7 49.6424 -83.9379 -107.418 50.4685 -83.4842 -108.104 50.2386 
-84.0535 -106.775 51.2477 -83.8598 -108.91 51.2446 -83.3683 -109.558 51.0581 
-83.9369 -108.214 51.9427 -83.9914 -107.689 52.9309 -83.7386 -110.389 52.2819 
-83.1703 -110.793 52.1905 -83.9892 -109.83 52.8542 -84.0708 -109.221 53.8021 
-84.4069 -108.854 54.598 -83.4977 -111.675 53.3977 -82.8606 -112.093 53.3532 
-84.0423 -111.431 53.7814 -84.4072 -111.066 54.6686 -84.6642 -110.623 55.5709 
-84.8505 -110.272 56.3137 -82.9809 -113.105 54.304 -82.4849 -113.925 54.1954 
-83.5637 -112.636 54.6106 -84.2262 -112.544 55.2916 -84.6932 -112.322 56.2206 
-84.7496 -111.829 57.1251 -84.5786 -111.346 58.0744 -82.4576 -115.052 55.2029 
-82.1801 -115.893 55.0853 -82.7475 -114.083 55.5574 -83.2053 -113.629 56.0519 
-83.7445 -113.528 56.6759 -83.9676 -113.129 57.41 -83.8605 -112.538 58.2772 
-83.704 -112.167 59.1876 -82.1763 -117.006 56.552 -81.9044 -117.304 56.5112 
-82.3616 -116.201 56.8824 -82.4801 -115.376 57.3065 -82.6076 -114.964 57.6644 
-82.6858 -114.625 57.9879 -82.6871 -114.054 58.425 -82.6778 -113.604 59.0195 
-82.5976 -113.477 59.5868 -82.0147 -118.337 58.2887 -81.6106 -118.12 58.3001 
-82.4161 -118.182 58.4766 -82.6617 -117.635 58.7769 -82.5962 -117.046 59.0488 
-82.2472 -116.618 59.2315 -81.9309 -116.158 59.3797 -81.8707 -115.639 59.5925 
-81.858 -115.298 59.8556 -81.6462 -115.175 60.0662 -80.9998 -116.668 61.1395 
-81.4637 -116.953 61.1834 -81.3952 -118.149 62.8531 -81.7362 -117.392 61.1589 
-81.9121 -118.732 62.978 -82.0063 -119.717 64.6465 -81.8787 -117.879 61.0391 
-82.26 -119.293 62.9373 -82.4915 -120.28 64.7341 -82.453 -121.296 66.2765 
-82.3461 -118.259 60.8453 -82.7287 -119.564 62.6788 -82.9786 -120.537 64.6222 
-83.0155 -121.547 66.4523 -83.0597 -122.61 68.0667 -83.0806 -118.62 60.5983 
-83.5474 -119.699 62.2536 -83.6825 -120.572 64.2447 -83.6843 -121.665 66.3926 
-83.8091 -122.805 68.2991 -83.8925 -123.761 69.8097 -83.3671 -119.113 60.3746 
-84.0175 -120.054 61.8824 -84.1927 -120.797 63.7521 -84.2109 -121.992 66.005 
-84.4429 -123.27 68.1362 -84.6195 -124.196 69.8634 -84.4297 -124.969 71.2855 
-82.9714 -119.476 60.2299 -83.5911 -120.431 61.7654 -83.8745 -121.182 63.4669 
-84.0532 -122.426 65.5548 -84.512 -123.907 67.6348 -84.9528 -124.882 69.4559 
-84.9371 -125.514 71.1177 -84.5915 -126.124 72.6849 -82.2955 -119.404 60.1441 
-82.7393 -120.401 61.8076 -83.0687 -121.316 63.4242 -83.3739 -122.58 65.2758 
-83.9747 -124.18 67.1485 -84.6673 -125.39 68.8503 -84.9894 -126.09 70.5233 
-84.9044 -126.664 72.2279 -84.7121 -127.115 73.8474 -81.6846 -119.024 60.1059 
-81.9979 -120.04 61.8169 -82.3801 -121.129 63.3879 -82.7676 -122.431 65.0419 
-83.3426 -124.005 66.7356 -84.0364 -125.407 68.319 -84.5371 -126.35 69.8755 
-84.7675 -127.079 71.4591 -84.8486 -127.681 73.0259 -84.8728 -127.968 74.4988 
-80.7131 -117.435 62.222 -81.3441 -118.851 64.1529 -80.7051 -118.206 63.5258 
-81.8604 -120.611 65.8867 -81.2449 -119.803 65.4103 -80.5883 -119.142 64.7929 
-82.3412 -122.292 67.6552 -81.6201 -121.663 67.1445 -80.868 -120.94 66.5108 
-80.0502 -120.202 65.7996 -83.1037 -123.535 69.5579 -82.2606 -123.128 69.113 
-81.3554 -122.586 68.3787 -80.3738 -122.006 67.4215 -79.5102 -121.187 66.6088 
-83.745 -124.718 71.2365 -82.9563 -124.355 70.9501 -82.087 -123.866 70.4095 
-81.0831 -123.437 69.4304 -80.0316 -122.853 68.2993 -79.2257 -121.878 67.4669 
-84.0625 -125.893 72.9081 -83.4074 -125.611 72.6802 -82.6237 -125.155 72.187 
-81.6954 -124.681 71.4098 -80.648 -124.195 70.3292 -79.6547 -123.376 69.2556 
-78.9053 -122.271 68.3771 -84.3626 -126.786 74.5273 -83.8825 -126.478 74.6248 
-83.1903 -126.123 74.1613 -82.2229 -125.695 73.3222 -81.1167 -125.271 72.2195 
-80.0469 -124.653 71.0777 -79.1647 -123.67 70.0621 -78.4989 -122.558 69.1095 
-84.7008 -127.476 75.5505 -84.3767 -126.947 76.1725 -83.8164 -126.525 76.147 
-82.8777 -126.171 75.4983 -81.6904 -125.868 74.2871 -80.5193 -125.536 72.8163 
-79.5078 -124.888 71.557 -78.7302 -123.879 70.5542 -78.1365 -122.784 69.5982 
-84.917 -128.402 75.5369 -84.7132 -127.64 76.6483 -84.6231 -128.631 76.3531 
-84.1923 -127.727 77.2147 -83.7514 -128.737 76.7063 -84.2368 -126.921 77.2781 
-83.0082 -127.89 77.1126 -82.4485 -128.8 76.4359 -83.3222 -126.995 77.7298 
-83.3635 -126.442 77.3223 -81.503 -128.102 76.6625 -80.8918 -128.984 75.9974 
-81.8133 -127.231 77.5806 -82.135 -126.534 77.929 -82.1744 -126.137 76.5839 
-79.8128 -128.405 76.416 -79.128 -129.303 75.885 -80.2755 -127.448 77.1815 
-80.6667 -126.722 77.86 -81.0533 -126.242 77.1005 -80.9769 -125.948 74.9213 
-78.0513 -128.671 76.2135 -77.4688 -129.408 75.6451 -78.7377 -127.673 76.6256 
-79.3667 -126.822 77.1185 -79.894 -126.308 76.8096 -80.1108 -126.008 75.0889 
-79.8659 -125.62 73.0475 -76.6688 -128.624 75.4804 -76.2252 -129.19 74.8062 
-77.3019 -127.802 75.7272 -78.0554 -126.926 75.8852 -78.6914 -126.239 75.8016 
-79.0513 -125.831 74.7866 -79.0769 -125.474 73.1186 -78.8954 -124.825 71.6847 
-75.7201 -128.325 74.3701 -75.2884 -128.859 73.7506 -76.2405 -127.63 74.6424 
-76.8459 -126.916 74.6655 -77.4283 -126.185 74.5879 -77.8358 -125.538 74.1276 
-78.0541 -125.046 73.0597 -78.1496 -124.489 71.7877 -78.1667 -123.696 70.6595 
-74.8556 -127.905 73.4032 -74.4487 -128.426 72.9337 -75.3477 -127.203 73.7223 
-75.8319 -126.571 73.823 -76.2904 -125.981 73.7039 -76.7011 -125.314 73.3596 
-77.0175 -124.649 72.701 -77.2689 -124.019 71.7514 -77.4771 -123.323 70.7038 
-77.5901 -122.553 69.6725 -84.8433 -128.662 73.9155 -84.7476 -129.205 74.8472 
-84.345 -129.002 73.2748 -84.0291 -129.542 74.0803 -83.3702 -128.794 72.679 
-84.1728 -129.484 75.6913 -82.8882 -129.358 73.1386 -82.3156 -128.436 71.8688 
-83.2041 -129.856 74.7405 -83.0294 -129.525 76.0318 -81.8044 -129.18 71.9097 
-81.4846 -128.303 70.7715 -82.0385 -129.847 73.3263 -81.9155 -129.919 74.8377 
-81.5613 -129.499 75.6771 -80.8971 -129.035 70.7238 -80.6622 -128.012 69.7217 
-81.0524 -129.79 71.8414 -80.8425 -130.054 73.2463 -80.439 -129.918 74.4718 
-79.9364 -129.669 75.2631 -79.9078 -128.39 69.8009 -79.6935 -127.245 68.8247 
-80.0775 -129.395 70.7132 -79.8949 -129.99 71.8267 -79.4164 -130.127 73.0315 
-78.9179 -130.039 74.08 -78.2628 -129.849 75.016 -78.9035 -127.383 68.8736 
-78.8016 -126.33 67.8671 -78.9972 -128.458 69.7325 -78.8518 -129.414 70.612 
-78.405 -130.014 71.5919 -77.9199 -130.124 72.5374 -77.4097 -129.967 73.5014 
-76.774 -129.692 74.3926 -78.0967 -126.485 67.7651 -78.1189 -125.524 66.8094 
-78.0553 -127.441 68.6306 -77.8861 -128.403 69.4168 -77.493 -129.291 70.2233 
-77.0097 -129.745 71.0125 -76.5545 -129.704 71.8117 -76.0647 -129.544 72.7083 
-75.596 -129.333 73.4525 -77.4621 -125.694 66.6231 -77.5561 -124.761 65.7912 
-77.3314 -126.57 67.4694 -77.1512 -127.376 68.2692 -76.8559 -128.171 69.043 
[...]
CELL_DATA 2000
SCALARS Distance double
LOOKUP_TABLE default
144.157 144.855 144.678 145.045 145.625 145.406 145.792 145.608 146.071 
146.58 146.262 146.671 146.42 146.936 146.772 147.423 147.7 147.326 
147.731 147.395 147.931 147.723 148.445 148.309 149.107 148.763 148.447 
148.831 148.49 148.985 148.761 149.508 149.398 150.275 150.119 150.964 
149.688 149.434 149.832 149.546 150.03 149.808 150.565 150.488 151.464 
151.361 152.301 152.06 152.911 150.566 150.333 150.81 150.564 151.161 
150.911 151.726 151.601 152.665 152.605 153.673 153.472 154.373 154.053 
154.863 151.398 151.217 151.802 151.628 152.404 152.182 153.098 152.891 
153.963 153.862 154.976 154.846 155.792 155.52 156.302 155.964 156.679 
152.188 152.068 152.76 152.675 153.585 153.488 154.496 154.328 155.352 
155.194 156.228 156.11 157.052 156.864 157.64 157.35 158.026 157.693 
158.313 143.713 143.253 143.796 144.416 142.795 143.336 143.99 144.527 
145.185 142.389 142.903 143.578 144.124 144.857 145.381 146.138 142.065 
142.541 143.255 143.778 144.574 145.107 145.938 146.445 147.261 141.852 
142.28 143.017 143.516 144.354 144.889 145.748 146.264 147.094 147.585 
148.34 141.675 142.101 142.815 143.303 144.14 144.692 145.572 146.093 
146.931 147.416 148.205 148.639 149.317 141.446 141.895 142.592 143.086 
143.905 144.471 145.385 145.934 146.839 147.316 148.186 148.591 149.36 
149.653 150.257 141.296 141.681 142.397 142.859 143.674 144.226 145.155 
145.747 146.728 147.272 148.235 148.674 149.515 149.796 150.416 150.584 
151.075 141.397 141.654 142.388 142.745 143.55 144.016 144.906 145.492 
146.485 147.129 148.151 148.713 149.583 149.946 150.533 150.722 151.124 
151.308 151.753 141.785 142.83 142.436 142.782 144.049 143.583 143.909 
143.502 143.913 145.354 144.865 145.177 144.688 145.056 144.687 145.215 
146.655 146.207 146.602 146.062 146.483 145.965 146.532 146.15 146.835 
147.869 147.482 147.992 147.562 148.141 147.602 148.255 147.702 148.417 
147.932 148.604 149.136 148.664 149.08 148.797 149.377 149.152 149.791 
149.433 149.989 149.526 150.001 149.565 149.98 150.679 150.028 150.28 
149.805 150.19 150.045 150.554 150.525 150.885 150.706 150.864 150.622 
150.775 150.57 150.76 152.319 151.688 152.018 151.261 151.605 151.009 
151.466 151.155 151.551 151.309 151.468 151.2 151.289 151.105 151.276 
151.135 151.311 153.703 153.303 153.86 153.206 153.728 152.885 153.411 
152.59 153.103 152.377 152.774 152.107 152.421 151.87 152.216 151.807 
152.149 151.795 152.051 152.767 153.026 153.386 154.457 153.275 153.741 
155.023 155.378 156.63 153.574 154.081 155.506 155.982 157.316 157.608 
158.792 153.993 154.479 155.906 156.426 157.761 158.174 159.345 159.671 
160.81 154.481 154.973 156.368 156.815 158.077 158.503 159.695 160.124 
161.339 161.7 162.871 154.899 155.454 156.826 157.248 158.402 158.785 
159.975 160.46 161.797 162.247 163.521 163.784 164.851 155.085 155.729 
156.98 157.523 158.534 158.992 160.079 160.68 162.04 162.671 163.997 
164.397 165.46 165.651 166.528 154.939 155.641 156.685 157.38 158.276 
158.888 159.855 160.589 161.856 162.705 164.005 164.666 165.695 166.089 
166.917 167.166 167.92 154.551 155.231 156.111 156.863 157.736 158.455 
159.401 160.189 161.36 162.292 163.532 164.396 165.413 166.052 166.857 
167.329 168.06 168.401 169.049 152.889 154.585 153.637 153.627 156.72 
155.597 155.582 154.562 154.605 158.924 157.83 157.825 156.701 156.732 
155.657 155.645 161.049 160.041 160.112 158.99 158.991 157.857 157.809 
156.672 156.548 163.11 162.177 162.319 161.261 161.27 160.122 160.038 
158.858 158.707 157.533 157.372 165.028 164.2 164.353 163.404 163.438 
162.362 162.288 161.112 160.949 159.723 159.507 158.33 158.128 166.732 
166.031 166.221 165.37 165.429 164.446 164.384 163.303 163.136 161.958 
161.683 160.457 160.136 158.984 158.684 168.192 167.642 167.895 167.174 
167.27 166.375 166.294 165.286 165.073 164.004 163.68 162.536 162.124 
160.948 160.532 159.42 159.051 169.34 168.965 169.21 168.689 168.774 
168.075 167.962 167.076 166.785 165.789 165.398 164.357 163.903 162.813 
162.329 161.223 160.765 159.706 159.301 169.943 170.545 170.151 169.794 
170.631 170.507 170.157 169.837 169.338 170.165 170.296 169.947 169.931 
169.493 169.219 168.542 169.405 169.636 169.314 169.492 169.138 169.154 
168.58 168.243 167.372 168.696 168.884 168.577 168.776 168.48 168.663 
168.221 168.123 167.334 166.921 165.943 167.981 168.205 167.843 168.028 
167.666 167.919 167.516 167.636 166.947 166.745 165.792 165.403 164.405 
167.013 167.37 166.947 167.196 166.705 166.989 166.495 166.769 166.116 
166.176 165.283 165.101 164.106 163.799 162.813 165.872 166.279 165.857 
166.168 165.637 165.924 165.362 165.648 164.998 165.194 164.381 164.411 
163.485 163.361 162.406 162.165 161.224 164.749 165.127 164.705 165.029 
164.515 164.812 164.258 164.521 163.895 164.087 163.351 163.451 162.624 
162.628 161.754 161.655 160.767 160.576 159.713 170.024 170.092 170.363 
170.675 169.562 170.203 170.646 170.847 170.84 168.518 169.394 169.931 
170.542 170.66 170.757 170.417 167.42 168.252 168.773 169.577 169.808 
170.28 170.064 170.103 169.62 166.391 167.182 167.643 168.403 168.662 
169.264 169.193 169.521 169.206 169.266 168.864 165.106 166.024 166.424 
167.253 167.493 168.143 168.141 168.589 168.404 168.694 168.416 168.528 
168.136 163.569 164.544 164.872 165.834 166.043 166.874 166.895 167.511 
167.339 167.783 167.499 167.843 167.47 167.652 167.14 162.081 162.971 
163.244 164.17 164.347 165.26 165.308 166.112 165.967 166.578 166.244 
166.72 166.311 166.717 166.27 166.512 165.977 160.729 161.531 161.767 
162.59 162.74 163.573 163.631 164.454 164.38 165.089 164.809 165.353 
164.951 165.433 165.057 165.49 165.111 165.357 164.874 154.561 155.098 
155.222 156.093 155.909 155.927 156.847 156.889 157.781 156.804 156.843 
157.82 157.806 158.763 158.695 159.596 157.6 157.701 158.701 158.781 
159.809 159.805 160.822 160.681 161.656 158.406 158.494 159.507 159.612 
160.697 160.813 161.933 161.946 162.995 162.846 163.79 159.165 159.315 
160.367 160.471 161.584 161.705 162.866 162.978 164.061 164.065 164.985 
164.859 165.618 159.683 159.971 161.037 161.284 162.393 162.59 163.692 
163.847 164.87 164.971 165.874 165.883 166.652 166.514 167.114 160.018 
160.367 161.403 161.785 162.874 163.235 164.281 164.541 165.454 165.628 
166.468 166.612 167.429 167.459 168.152 167.946 168.419 160.295 160.645 
161.627 162.037 163.088 163.543 164.585 164.962 165.85 166.082 166.862 
167.074 167.898 168.109 168.896 168.91 169.464 169.18 169.468 153.753 
152.742 153.536 154.22 151.74 152.523 153.165 154.068 154.929 150.675 
151.495 152.095 152.982 153.783 154.826 155.767 149.525 150.397 150.995 
151.874 152.603 153.625 154.543 155.642 156.578 148.368 149.245 149.882 
150.761 151.474 152.438 153.318 154.4 155.378 156.457 157.39 147.319 
148.135 148.784 149.655 150.375 151.316 152.16 153.197 154.144 155.242 
156.195 157.265 158.131 146.41 147.145 147.751 148.576 149.264 150.193 
150.995 152.021 152.904 153.99 154.892 156 156.854 157.916 158.663 
145.598 146.265 146.826 147.578 148.224 149.085 149.841 150.821 151.662 
152.718 153.58 154.667 155.506 156.584 157.357 158.373 159.045 144.881 
145.477 146.017 146.699 147.328 148.1 148.824 149.703 150.508 151.487 
152.335 153.371 154.209 155.256 156.045 157.066 157.782 158.744 159.369 
144.686 144.81 145.088 145.823 145.006 145.275 146.067 146.337 147.16 
145.275 145.527 146.383 146.654 147.552 147.787 148.678 145.689 145.885 
146.784 147.03 147.987 148.237 149.199 149.405 150.356 146.224 146.39 
147.308 147.506 148.483 148.717 149.741 149.972 151.001 151.179 152.179 
146.761 146.944 147.871 148.069 149.051 149.267 150.323 150.563 151.666 
151.873 152.941 153.07 154.063 147.284 147.473 148.408 148.623 149.628 
149.858 150.946 151.194 152.338 152.571 153.683 153.847 154.866 154.954 
155.889 147.826 148.011 148.967 149.177 150.214 150.451 151.574 151.838 
153.005 153.257 154.377 154.57 155.598 155.731 156.679 156.749 157.62 
148.375 148.568 149.551 149.765 150.825 151.064 152.194 152.467 153.628 
153.902 155.01 155.234 156.249 156.421 157.373 157.498 158.384 158.436 
159.222 149.006 150.51 149.904 150.256 152.255 151.553 151.946 151.255 
151.61 154.162 153.406 153.834 153.076 153.467 152.692 153.037 156.115 
155.358 155.796 155.028 155.43 154.627 154.977 154.163 154.481 158.043 
157.309 157.754 156.999 157.404 156.603 156.943 156.12 156.421 155.595 
155.851 159.939 159.233 159.689 158.944 159.363 158.578 158.933 158.099 
158.4 157.544 157.788 156.919 157.095 161.709 161.098 161.532 160.829 
161.217 160.496 160.869 160.091 160.405 159.548 159.79 158.885 159.052 
158.131 158.237 163.16 162.732 163.125 162.537 162.849 162.232 162.584 
161.942 162.266 161.508 161.724 160.863 160.995 160.089 160.159 159.23 
159.251 164.225 163.989 164.391 163.956 164.243 163.724 164.057 163.533 
163.883 163.257 163.474 162.699 162.782 161.939 161.956 161.083 161.045 
160.142 160.062 148.499 148.166 148.872 149.985 147.807 148.577 149.797 
150.499 151.727 147.417 148.238 149.583 150.372 151.722 152.375 153.66 
147.101 147.874 149.303 150.191 151.715 152.457 153.859 154.409 155.668 
147.039 147.659 149.083 149.955 151.612 152.484 154.048 154.681 156.003 
156.441 157.621 147.19 147.708 149.064 149.821 151.446 152.365 154.002 
154.812 156.191 156.748 157.916 158.351 159.478 147.356 147.865 149.136 
149.817 151.288 152.16 153.704 154.627 156.001 156.755 157.89 158.495 
159.582 160.13 161.202 147.499 147.985 149.16 149.802 151.122 151.927 
153.337 154.242 155.575 156.412 157.529 158.254 159.28 160.003 161.05 
161.701 162.636 147.673 148.099 149.17 149.744 150.947 151.682 152.997 
153.847 155.149 155.972 157.096 157.817 158.801 159.538 160.53 161.319 
162.268 162.935 163.694 147.56 146.049 146.9 147.133 144.563 145.349 
145.48 146.412 146.675 143.111 143.844 143.89 144.74 144.925 145.929 
146.239 141.664 142.356 142.327 143.128 143.279 144.227 144.549 145.557 
145.963 140.306 140.92 140.797 141.511 141.599 142.566 142.966 144 
144.488 145.442 145.96 139.065 139.647 139.516 140.052 140.015 140.847 
141.247 142.397 143.028 144.084 144.634 145.558 146.119 137.806 138.45 
138.475 138.96 138.938 139.457 139.738 140.696 141.384 142.564 143.231 
144.245 144.768 145.719 146.28 136.602 137.223 137.425 138.034 138.243 
138.663 138.922 139.48 140.057 141.004 141.751 142.797 143.408 144.365 
144.913 145.879 146.468 135.751 136.175 136.446 137.076 137.513 138.072 
138.48 138.911 139.386 139.975 140.637 141.466 142.154 143.049 143.668 
144.575 145.194 146.122 146.726 135.524 135.679 135.706 136.204 136.249 
136.065 136.519 136.631 137.311 137.062 136.752 137.108 137.059 137.675 
137.816 138.426 138.002 137.611 137.876 137.683 138.198 138.239 138.863 
138.91 139.439 139.062 138.616 138.868 138.519 138.958 138.83 139.445 
139.436 140.049 140.004 140.613 140.163 139.733 140.024 139.605 139.999 
139.702 140.254 140.125 140.762 140.693 141.337 141.302 142.014 141.222 
140.835 141.151 140.769 141.132 140.781 141.23 141.001 141.573 141.463 
142.115 142.058 142.767 142.757 143.516 142.261 141.883 142.193 141.849 
142.198 141.863 142.253 141.97 142.466 142.298 142.929 142.856 143.585 
143.552 144.323 144.297 145.068 143.273 142.906 143.189 142.855 143.195 
142.883 143.278 142.983 143.463 143.228 143.829 143.698 144.414 144.373 
145.148 145.131 145.898 145.861 146.591 143.893 144.796 144.165 143.829 
145.856 145.143 144.847 144.164 143.864 147.234 146.367 146.114 145.306 
145.048 144.289 144.015 148.913 147.926 147.688 146.743 146.514 145.627 
145.388 144.536 144.279 150.757 149.719 149.502 148.458 148.228 147.229 
147.003 146.05 145.81 144.892 144.677 152.704 151.646 151.5 150.394 
150.198 149.075 148.846 147.773 147.542 146.533 146.328 145.391 145.258 
154.66 153.644 153.56 152.474 152.341 151.171 150.963 149.761 149.525 
148.378 148.174 147.132 147 146.063 145.994 156.48 155.563 155.485 
154.499 154.375 153.303 153.116 151.947 151.71 150.49 150.256 149.086 
148.913 147.868 147.767 146.829 146.749 158.114 157.295 157.207 156.315 
156.163 155.21 155.015 153.992 153.766 152.653 152.403 151.225 150.982 
149.84 149.653 148.624 148.49 147.553 147.432 148.101 149.216 148.948 
149.591 150.467 150.164 150.89 150.584 151.366 151.868 151.54 152.35 
152.004 152.858 152.526 153.422 153.287 152.994 153.829 153.513 154.379 
154.071 154.979 154.661 155.539 154.607 154.378 155.205 154.948 155.777 
155.525 156.387 156.149 156.984 156.691 157.426 155.835 155.653 156.518 
156.298 157.158 156.894 157.748 157.493 158.331 158.06 158.801 158.46 
159.114 156.996 156.863 157.778 157.615 158.551 158.314 159.22 158.918 
159.789 159.458 160.258 159.873 160.58 160.163 160.841 158.058 157.997 
158.932 158.845 159.797 159.665 160.586 160.377 161.239 160.953 161.742 
161.378 162.078 161.664 162.32 161.914 162.552 158.966 158.998 159.936 
159.93 160.86 160.814 161.703 161.607 162.428 162.269 163.001 162.759 
163.391 163.073 163.644 163.304 163.852 163.506 163.981 140.765 140.617 
140.344 139.727 140.745 140.302 139.562 139.26 138.607 140.974 140.494 
139.705 139.216 138.458 138.152 137.572 141.158 140.707 139.945 139.423 
138.658 138.181 137.55 137.247 136.789 141.406 140.927 140.223 139.691 
138.975 138.462 137.833 137.398 136.866 136.561 136.164 141.777 141.271 
140.635 140.067 139.394 138.833 138.216 137.729 137.17 136.743 136.251 
135.978 135.696 142.195 141.691 141.101 140.551 139.923 139.334 138.725 
138.168 137.62 137.109 136.604 136.172 135.795 135.592 135.466 142.656 
142.138 141.572 141.038 140.464 139.899 139.33 138.746 138.22 137.652 
137.175 136.638 136.22 135.809 135.543 135.403 135.349 143.154 142.639 
142.113 141.563 141.051 140.485 139.984 139.395 138.903 138.313 137.858 
137.29 136.884 136.353 136.027 135.629 135.464 135.324 135.357 140.77 
139.745 140.368 140.588 138.641 139.312 139.586 140.238 140.514 137.584 
138.198 138.508 139.225 139.564 140.2 140.541 136.745 137.215 137.501 
138.18 138.594 139.26 139.639 140.283 140.758 136.108 136.461 136.709 
137.279 137.742 138.378 138.847 139.443 139.936 140.607 141.217 135.712 
135.937 136.196 136.616 137.103 137.659 138.215 138.768 139.318 139.89 
140.509 141.165 141.823 135.582 135.723 136.051 136.298 136.799 137.185 
137.779 138.253 138.858 139.37 140.002 140.568 141.239 141.837 142.476 
135.519 135.688 136.085 136.306 136.831 137.076 137.656 137.973 138.593 
139.004 139.661 140.147 140.828 141.352 142.012 142.537 143.14 135.511 
135.648 136.075 136.343 136.909 137.176 137.755 137.991 138.579 138.865 
139.512 139.898 140.591 141.036 141.71 142.162 142.779 143.231 143.792 
141.414 141.234 141.658 142.421 141.145 141.515 142.271 142.754 143.629 
141.234 141.524 142.322 142.699 143.607 144.054 144.964 141.56 141.779 
142.7 142.953 143.905 144.182 145.078 145.413 146.251 142.02 142.213 
143.176 143.444 144.422 144.631 145.459 145.629 146.385 146.673 147.465 
142.526 142.672 143.509 143.82 144.723 145.057 145.847 146.041 146.734 
146.908 147.712 147.981 148.858 143.099 143.163 143.873 144.073 144.858 
145.196 146.006 146.323 147.096 147.313 148.159 148.383 149.347 149.554 
150.483 143.719 143.739 144.418 144.488 145.22 145.391 146.213 146.49 
147.381 147.67 148.591 148.862 149.81 150.071 150.981 151.187 152.014 
144.33 144.348 145.02 145.069 145.792 145.873 146.666 146.835 147.722 
147.991 148.917 149.228 150.115 150.426 151.231 151.526 152.254 152.537 
153.242 147.503 146.969 146.84 146.045 146.433 146.302 145.513 145.385 
144.603 145.897 145.758 144.947 144.833 144.043 143.941 143.169 145.356 
145.212 144.374 144.248 143.422 143.331 142.539 142.478 141.728 144.847 
144.679 143.852 143.691 142.852 142.708 141.878 141.799 141.039 141.029 
140.35 144.477 144.245 143.463 143.238 142.436 142.211 141.392 141.202 
140.421 140.338 139.643 139.667 139.041 144.259 143.983 143.246 142.958 
142.197 141.9 141.124 140.841 140.092 139.861 139.157 139.022 138.352 
138.347 137.728 144.108 143.827 143.123 142.818 142.079 141.746 140.985 
140.661 139.945 139.659 139.002 138.73 138.079 137.836 137.193 137.09 
136.547 144.016 143.717 143.04 142.727 142.014 141.671 140.923 140.57 
139.854 139.553 138.925 138.661 138.079 137.77 137.179 136.846 136.308 
136.112 135.742 
POINT_DATA 1002
SCALARS Distance double
LOOKUP_TABLE default
144.504 143.643 144.325 145.208 145.035 145.425 145.979 145.864 146.193 
146.598 146.947 146.931 147.092 147.528 148.148 148.102 148.071 148.149 
148.555 149.256 149.921 149.172 149.051 149.225 149.586 150.389 151.184 
151.789 150.085 149.937 150.251 150.62 151.495 152.512 153.211 153.737 
150.988 150.784 151.37 151.868 152.693 153.813 154.696 155.215 155.637 
151.891 151.53 152.535 153.312 154.116 155.084 156.032 156.651 157.041 
157.36 152.791 152.25 153.603 154.621 155.56 156.385 157.217 157.909 
158.361 158.678 158.902 143.174 143.89 142.698 143.424 142.267 144.659 
143.022 141.881 144.292 145.622 142.723 141.595 144.023 145.41 146.786 
142.525 141.44 143.806 145.237 146.599 147.902 142.343 141.245 143.581 
145.036 146.446 147.751 148.969 142.098 140.995 143.337 144.799 146.323 
147.753 149.058 150.056 141.951 140.943 143.143 144.545 146.122 147.743 
149.214 150.278 150.919 142.071 141.178 143.145 144.365 145.812 147.525 
149.189 150.35 150.975 151.485 142.107 143.134 143.25 144.366 144.534 
144.232 145.697 145.834 145.471 145.47 147.093 147.042 147.022 146.959 
147.172 148.314 148.256 148.574 148.83 148.979 149.103 149.424 149.731 
149.506 150.054 150.493 150.498 150.408 150.933 151.378 150.488 150.58 
151.033 151.134 150.966 150.958 152.758 152.825 152.368 151.966 151.859 
151.77 151.509 151.397 151.48 154.331 153.957 154.496 154.325 153.948 
153.508 153.05 152.71 152.549 152.426 153.631 154.106 155.637 154.571 
156.395 157.86 154.966 156.984 158.571 159.947 155.424 157.33 158.971 
160.497 161.989 155.989 157.694 159.212 160.906 162.615 164.01 156.427 
158.065 159.452 161.266 163.222 164.729 165.815 156.437 158.079 159.463 
161.329 163.529 165.243 166.409 167.363 155.995 157.627 159.127 160.982 
163.261 165.228 166.617 167.729 168.67 155.371 156.971 158.615 160.463 
162.637 164.701 166.313 167.645 168.807 169.673 154.491 156.665 155.594 
158.967 157.847 156.758 161.212 160.159 158.969 157.702 163.334 162.414 
161.24 159.907 158.515 165.26 164.469 163.434 162.193 160.749 159.259 
167.021 166.384 165.438 164.284 162.935 161.367 159.785 168.547 168.121 
167.308 166.141 164.796 163.31 161.696 160.117 169.682 169.403 168.8 
167.783 166.436 164.966 163.435 161.857 160.323 170.475 170.299 170.863 
170.361 170.672 169.812 169.858 169.967 169.623 169.047 169.088 169.165 
169 168.794 167.903 168.403 168.526 168.246 168.198 167.675 166.432 
167.692 167.731 167.439 167.316 167.037 166.135 164.816 166.689 166.62 
166.462 166.217 165.957 165.36 164.358 163.148 165.529 165.47 165.354 
165.096 164.775 164.267 163.52 162.58 161.492 164.382 164.395 164.206 
163.987 163.693 163.22 162.568 161.787 160.896 159.915 169.926 170.692 
169.66 170.26 168.767 170.989 169.156 167.632 170.382 170.614 167.969 
166.661 169.198 169.85 169.732 166.918 165.597 168.045 168.749 168.986 
168.907 165.558 164.165 166.797 167.641 168.038 168.193 168.155 163.912 
162.631 165.147 166.188 166.859 167.124 167.185 167.073 162.37 161.242 
163.451 164.446 165.291 165.755 165.856 165.896 165.845 160.982 159.962 
161.949 162.823 163.626 164.222 164.451 164.549 164.73 164.759 154.359 
155.941 155 156.842 155.887 157.76 157.803 156.725 158.819 159.713 
158.578 157.5 159.724 160.887 161.87 159.408 158.312 160.538 161.831 
163.084 164.033 160.227 158.959 161.468 162.748 164.02 165.081 165.844 
160.728 159.363 162.157 163.554 164.776 165.816 166.727 167.387 161.01 
159.683 162.471 163.996 165.295 166.294 167.296 168.264 168.807 152.949 
153.308 151.977 152.291 150.959 153.903 151.241 149.829 152.76 154.691 
150.125 148.625 151.626 153.43 155.511 148.991 147.493 150.538 152.264 
154.263 156.361 147.926 146.543 149.441 151.153 153.068 155.104 157.124 
146.968 145.722 148.364 149.991 151.845 153.801 155.773 157.667 146.108 
144.966 147.407 148.905 150.632 152.512 154.431 156.315 158.09 145.36 