# vtk DataFile Version 4.0
vtk output
ASCII
DATASET POLYDATA
POINTS 1002 float
-73.9714 -111.732 54.9278 -74.2488 -110.792 54.3374 -75.004 -111.024 54.5212 
-74.6968 -112.077 55.0997 -75.8332 -111.367 54.7436 -73.8401 -112.74 55.7645 
-75.4481 -112.438 55.3318 -76.6562 -111.856 54.8443 -74.5393 -113.15 55.9809 
-73.807 -113.906 56.7572 -76.1354 -112.896 55.4828 -77.4574 -112.428 54.9502 
-75.176 -113.59 56.2685 -74.448 -114.514 56.9553 -73.6763 -115.622 57.4693 
-76.6593 -113.64 55.5155 -78.0447 -113.144 55.3289 -75.6259 -114.364 56.4164 
-74.9577 -115.369 57.1455 -74.2487 -116.6 57.5785 -73.481 -117.855 57.936 
-76.7494 -114.777 55.407 -78.0628 -114.147 55.5949 -75.7769 -115.658 56.2378 
-75.2458 -116.708 57.1669 -74.7471 -117.861 57.6931 -74.1013 -118.999 58.1696 
-73.5304 -120.002 58.6826 -76.449 -115.986 55.0841 -77.5798 -115.221 55.1831 
-75.6957 -117.028 55.8834 -75.3992 -118.192 57.0199 -75.1653 -119.26 57.8322 
-74.7483 -120.176 58.528 -74.2901 -121.009 59.2286 -73.8987 -121.79 59.7597 
-76.327 -116.864 54.8288 -77.121 -116.072 54.5116 -75.8618 -117.924 55.7839 
-75.7438 -119.19 57.0125 -75.6806 -120.36 58.0487 -75.4299 -121.22 58.9767 
-75.0934 -121.918 59.8785 -74.7556 -122.63 60.5236 -74.3983 -123.33 60.9 
-76.6812 -117.525 55.0787 -77.0517 -116.794 54.3683 -76.5194 -118.504 56.1878 
-76.4544 -119.768 57.3559 -76.3883 -121.073 58.3921 -76.2187 -122.064 59.4223 
-75.9502 -122.752 60.4654 -75.6423 -123.394 61.2599 -75.2894 -124.057 61.7142 
-74.9197 -124.652 61.979 -77.287 -118.269 55.7952 -77.3419 -117.584 54.8558 
-77.3297 -119.197 56.9072 -77.2572 -120.421 57.906 -77.097 -121.735 58.8205 
-76.9786 -122.799 59.8574 -76.841 -123.524 60.9594 -76.5719 -124.123 61.8424 
-76.1948 -124.738 62.3879 -75.7979 -125.318 62.6999 -75.4436 -125.796 62.8857 
-75.1033 -110.066 53.8647 -76.0127 -110.253 54.1656 -76.0589 -109.486 53.257 
-77.0494 -109.715 53.6461 -76.9267 -109.098 52.5374 -76.9658 -110.693 54.4082 
-77.9699 -109.384 53.0301 -77.7276 -108.635 51.959 -78.0999 -110.237 53.9965 
-77.9163 -111.365 54.5435 -78.8693 -108.958 52.5457 -78.5653 -107.955 51.5208 
-79.1415 -109.898 53.5912 -79.1178 -111.004 54.4771 -78.8138 -112.071 55.0897 
-79.6804 -108.478 52.0566 -79.2483 -107.371 50.9444 -80.1011 -109.563 53.1989 
-80.1272 -110.73 54.3654 -79.9321 -111.866 55.6143 -79.3938 -112.867 56.1274 
-80.1517 -108.239 51.327 -79.5657 -107.143 50.1872 -80.7829 -109.36 52.6489 
-80.9312 -110.531 53.8847 -80.7206 -111.771 55.4762 -80.421 -112.814 56.8301 
-79.3384 -113.865 56.4674 -80.3601 -108.21 50.4229 -79.6607 -107.211 49.4012 
-81.1285 -109.277 51.8484 -81.473 -110.365 53.1711 -81.3337 -111.617 54.5196 
-81.1541 -112.799 56.2427 -80.4281 -113.748 56.7998 -78.7259 -114.821 55.5698 
-80.5005 -108.256 49.53 -79.7351 -107.478 48.6936 -81.3155 -109.174 50.8323 
-81.793 -110.17 52.2985 -81.8257 -111.359 53.4948 -81.7825 -112.649 54.9245 
-81.3668 -113.65 56.1125 -79.8969 -114.527 55.686 -78.0467 -115.615 54.4981 
-80.5461 -108.423 48.8215 -79.7972 -107.889 48.144 -81.3523 -109.145 49.8345 
-81.914 -110.044 51.2282 -82.1313 -111.168 52.5243 -82.2772 -112.486 53.7508 
-82.1736 -113.578 55.0575 -81.0674 -114.353 55.4444 -79.1695 -115.264 54.6582 
-77.7209 -116.419 54.1647 -80.1946 -108.638 48.1634 -80.9772 -109.199 48.8871 
-80.4128 -109.575 48.3979 -81.1988 -110.359 49.1685 -80.5913 -110.907 48.7759 
-81.7017 -110.021 49.9753 -81.454 -111.862 49.5232 -80.8971 -112.37 49.0203 
-81.9003 -111.365 50.2161 -82.162 -111.106 51.3172 -81.5424 -113.257 49.7411 
-80.8933 -113.636 49.1195 -82.0436 -112.895 50.4611 -82.4075 -112.605 51.4059 
-82.5127 -112.459 52.611 -80.8722 -114.497 50.0346 -80.291 -114.968 49.5101 
-81.5296 -114.195 50.6944 -82.243 -114.016 51.4714 -82.7294 -113.859 52.6534 
-82.6878 -113.681 53.9712 -79.9714 -115.966 50.7223 -79.6903 -116.605 50.3307 
-80.4104 -115.455 51.2013 -81.1574 -115.096 51.6559 -81.9643 -114.852 52.507 
-82.2848 -114.641 53.8137 -81.8803 -114.445 54.8648 -79.7081 -117.686 51.559 
-79.4367 -118.282 51.2482 -79.9338 -117.042 51.9628 -80.1853 -116.38 52.2451 
-80.5452 -115.8 52.5711 -80.855 -115.464 53.3534 -80.6931 -115.327 54.2291 
-80.0002 -115.262 54.6108 -79.7123 -119.353 52.3071 -79.1917 -119.74 52.1439 
-80.1794 -118.842 52.6145 -80.2623 -118.176 52.9736 -79.916 -117.419 53.1995 
-79.5836 -116.846 53.4385 -79.3867 -116.622 53.8673 -78.9725 -116.557 54.1888 
-78.3244 -116.478 54.2121 -79.4255 -120.762 53.1792 -78.8202 -120.967 53.158 
-80.1622 -120.467 53.2643 -80.5558 -120.025 53.5635 -80.1702 -119.441 53.9746 
-79.3725 -118.865 54.2463 -78.8625 -118.486 54.4224 -78.6003 -118.265 54.639 
-78.2202 -118.038 54.7985 -77.7488 -117.78 54.8382 -77.8785 -118.958 56.3164 
-78.261 -119.322 56.2806 -78.5515 -120.663 57.8573 -78.6395 -119.762 56.1272 
-78.9774 -121.085 57.8461 -79.0777 -122.608 59.0471 -78.8824 -120.191 55.8969 
-79.388 -121.605 57.7241 -79.6561 -122.997 59.184 -79.7003 -124.518 60.2987 
-79.1538 -120.556 55.6492 -79.6487 -122.091 57.4847 -80.2325 -123.451 59.2066 
-80.3989 -124.877 60.5341 -80.5228 -126.161 61.8281 -79.7905 -120.898 55.2505 
-79.8895 -122.363 57.0118 -80.5972 -123.783 58.9288 -81.0732 -125.228 60.5186 
-81.2048 -126.534 61.8822 -81.4317 -127.56 63.2078 -80.3899 -121.272 54.6867 
-80.2182 -122.522 56.2927 -80.7319 -123.936 58.2553 -81.4614 -125.531 60.1091 
-81.8032 -126.946 61.6341 -82.0942 -128.003 63.012 -82.5054 -128.783 64.3218 
-80.2468 -121.625 54.3283 -80.2466 -122.762 55.7532 -80.7069 -124.138 57.499 
-81.498 -125.867 59.382 -81.9986 -127.443 61.153 -82.3958 -128.529 62.6821 
-82.9937 -129.286 64.0233 -83.5134 -129.785 65.3241 -79.5204 -121.875 54.3304 
-79.7623 -123.007 55.7027 -80.4228 -124.385 57.142 -81.3103 -126.178 58.6743 
-81.8258 -127.889 60.4684 -82.1295 -129.011 62.3004 -82.7737 -129.732 63.7793 
-83.5494 -130.278 64.9625 -84.0288 -130.591 66.1684 -78.8292 -122.027 54.4054 
-79.1306 -123.149 55.8291 -79.8951 -124.483 57.1415 -80.8844 -126.219 58.2852 
-81.4736 -127.996 59.7349 -81.632 -129.221 61.6653 -82.0613 -129.956 63.4649 
-82.9096 -130.555 64.7162 -83.658 -131.038 65.7058 -84.051 -131.311 66.7918 
-78.0009 -119.872 57.4278 -78.511 -121.912 58.7162 -77.9472 -121.121 58.337 
-78.9905 -123.989 59.8946 -78.3207 -123.301 59.5366 -77.7144 -122.473 59.1908 
-79.846 -125.712 61.5328 -79.051 -125.094 61.1598 -78.2511 -124.338 60.7752 
-77.6075 -123.545 60.3228 -80.8076 -127.19 63.1954 -80.1017 -126.599 62.9592 
-79.2395 -125.805 62.6601 -78.407 -125.018 62.2048 -77.6525 -124.284 61.5705 
-81.8148 -128.495 64.5493 -81.0066 -128.135 64.3789 -80.1554 -127.489 64.0563 
-79.2904 -126.596 63.7424 -78.4298 -125.724 63.2145 -77.5068 -124.922 62.5105 
-83.0095 -129.448 65.8605 -82.1003 -129.216 65.9392 -81.0426 -129.004 65.4632 
-80.0189 -128.447 64.8961 -79.0519 -127.495 64.3888 -78.068 -126.482 63.7582 
-77.0842 -125.571 63.0635 -83.9363 -130.16 67.0102 -83.3392 -129.736 67.6322 
-82.308 -129.592 67.4711 -81.0554 -129.536 66.6419 -79.7963 -129.059 65.7178 
-78.6105 -128.138 64.8796 -77.5336 -127.123 64.0919 -76.6029 -126.179 63.3857 
-84.2521 -130.9 67.7664 -84.0969 -130.298 68.7764 -83.4304 -129.849 69.1902 
-82.2528 -129.765 68.6422 -80.8174 -129.709 67.5226 -79.3928 -129.281 66.3314 
-78.1208 -128.529 65.2189 -77.0696 -127.627 64.2921 -76.2041 -126.68 63.567 
-84.0228 -131.869 67.8748 -84.2109 -131.348 69.033 -83.7445 -132.41 68.8858 
-83.7291 -131.797 69.9605 -82.96 -132.666 69.5218 -83.9789 -130.633 69.9636 
-82.4527 -131.966 70.3798 -81.542 -132.538 69.6916 -83.0758 -131.065 70.4994 
-83.0699 -130.136 70.0205 -80.61 -131.933 70.386 -79.907 -132.468 69.4675 
-81.3019 -131.346 70.5763 -81.7622 -130.556 70.1488 -81.6297 -129.957 69.1694 
-78.8923 -132.14 69.8921 -78.3534 -132.702 68.8445 -79.4149 -131.508 70.3822 
-79.9541 -130.812 70.082 -80.3001 -130.153 69.2613 -80.0851 -129.757 67.9295 
-77.3155 -132.417 68.9838 -76.7082 -132.856 68.0873 -77.8579 -131.661 69.6713 
-78.3894 -130.81 69.7885 -78.8492 -130.159 69.2263 -78.9931 -129.791 68.0289 
-78.6617 -129.366 66.527 -75.6844 -132.374 68.2033 -75.1166 -132.736 67.5381 
-76.3198 -131.645 68.7139 -76.9711 -130.728 68.9688 -77.5272 -130.06 68.7457 
-77.8289 -129.798 67.7827 -77.7771 -129.495 66.379 -77.4414 -128.734 65.161 
-74.3062 -132.131 67.6102 -73.9206 -132.488 67.0142 -74.8787 -131.488 67.9287 
-75.5596 -130.717 67.9975 -76.1931 -130.121 67.8131 -76.6064 -129.845 67.1148 
-76.761 -129.568 65.939 -76.682 -128.869 64.8685 -76.4441 -127.805 64.1519 
-73.3152 -131.823 66.8281 -73.0699 -132.143 66.2317 -73.7707 -131.277 67.1202 
-74.3844 -130.69 67.0957 -74.9965 -130.241 66.847 -75.4223 -129.912 66.3194 
-75.6524 -129.5 65.4334 -75.7673 -128.794 64.5227 -75.7403 -127.814 63.9022 
-75.5921 -126.77 63.4229 -83.6335 -131.855 66.5676 -83.5096 -132.503 67.4982 
-83.0114 -132.252 66.1726 -82.7187 -132.787 66.9261 -82.1223 -132.433 65.439 
-83.0398 -132.979 68.3141 -81.5281 -132.672 66.064 -80.9249 -132.352 64.4754 
-81.9861 -133.029 67.5296 -82.0512 -133.082 68.683 -80.1292 -132.466 64.9409 
-79.7792 -132.185 63.4422 -80.6191 -132.735 66.5152 -80.909 -133.105 67.7034 
-80.6598 -132.965 68.6334 -79.0587 -132.562 63.5805 -79.0116 -132.064 62.2986 
-79.2722 -132.729 65.0918 -79.6172 -133.024 66.5497 -79.6494 -133.224 67.5837 
-79.1588 -132.985 68.3139 -78.3627 -132.561 62.2603 -78.3389 -131.685 61.1949 
-78.2769 -133.047 63.418 -78.3272 -133.274 64.8441 -78.3875 -133.428 66.2754 
-78.1179 -133.319 67.2068 -77.4889 -133.071 67.7184 -77.5643 -131.909 61.2813 
-77.4449 -130.901 60.3425 -77.4775 -132.796 62.1767 -77.2802 -133.404 63.1113 
-77.0894 -133.672 64.3954 -76.8266 -133.553 65.7087 -76.3718 -133.225 66.5585 
-75.7527 -132.99 67.0996 -76.5725 -130.947 60.4415 -76.503 -130.008 59.6448 
-76.572 -131.878 61.314 -76.4323 -132.781 62.0177 -76.1302 -133.471 62.7504 
-75.7559 -133.647 63.8427 -75.3779 -133.335 65.0125 -74.928 -132.988 65.9132 
-74.3969 -132.785 66.5828 -75.7161 -130.127 59.5396 -75.7735 -129.193 58.9595 
-75.6717 -130.982 60.3082 -75.6141 -131.824 61.0782 -75.4017 -132.667 61.6731 
[...]
CELL_DATA 2000
SCALARS Distance double
LOOKUP_TABLE default
143.495 144.201 143.998 144.397 144.992 144.742 145.133 144.992 145.523 
145.826 145.528 145.896 145.752 146.322 146.235 146.92 146.743 146.367 
146.73 146.558 147.204 147.113 147.902 147.795 148.628 147.66 147.277 
147.645 147.473 148.232 148.134 149.054 148.913 149.845 149.667 150.58 
148.312 148.082 148.456 148.4 149.257 149.26 150.295 150.186 151.18 
150.981 151.925 151.702 152.605 148.687 148.62 149.102 149.167 150.12 
150.267 151.403 151.429 152.472 152.332 153.276 153.068 153.969 153.728 
154.571 149.167 149.118 149.851 149.903 150.992 151.144 152.377 152.491 
153.623 153.578 154.555 154.393 155.29 155.073 155.903 155.641 156.387 
150.022 149.921 150.902 150.882 152.081 152.139 153.405 153.491 154.684 
154.701 155.742 155.64 156.547 156.359 157.167 156.928 157.645 157.366 
158 143.13 142.911 143.277 143.846 142.805 143.137 143.747 144.09 
144.696 142.734 143.092 143.769 144.092 144.775 145.036 145.631 142.615 
143.05 143.823 144.184 144.977 145.245 145.972 146.096 146.668 142.422 
142.943 143.831 144.275 145.172 145.512 146.4 146.592 147.317 147.269 
147.726 142.185 142.763 143.748 144.295 145.261 145.693 146.638 147.006 
147.89 148.009 148.514 148.279 148.442 141.966 142.54 143.561 144.191 
145.188 145.71 146.603 147.099 147.999 148.423 149.033 149.005 149.054 
148.727 148.665 141.844 142.343 143.31 143.953 144.931 145.536 146.382 
146.927 147.769 148.344 149.057 149.322 149.463 149.223 148.995 148.763 
148.836 141.866 142.247 143.099 143.662 144.57 145.196 146.046 146.628 
147.471 148.066 148.876 149.291 149.654 149.562 149.401 149.075 148.995 
148.988 149.419 142.184 143.037 142.818 143.352 144.119 143.771 144.302 
144.101 144.756 145.456 145.018 145.538 145.171 145.783 145.57 146.234 
146.641 146.337 146.843 146.483 147.061 146.729 147.395 147.113 147.768 
147.478 147.293 147.728 147.582 148.099 147.938 148.56 148.349 148.972 
148.674 149.186 148.455 148.089 148.426 148.249 148.638 148.634 149.088 
149.176 149.614 149.623 149.879 149.741 149.795 149.85 149.284 149.625 
149.133 149.452 149.134 149.405 149.363 149.6 149.764 149.859 149.965 
149.809 149.776 149.476 151.303 150.792 151.223 150.623 151.009 150.331 
150.569 149.96 150.113 149.795 149.953 149.854 149.901 149.75 149.626 
149.385 149.231 152.534 152.168 152.654 152.22 152.686 152.076 152.387 
151.558 151.73 150.894 151.13 150.508 150.847 150.34 150.615 150.054 
150.237 149.656 149.851 150.797 151.213 151.577 152.831 151.62 152.035 
153.326 153.757 155.09 151.927 152.425 153.8 154.286 155.674 156.046 
157.365 152.28 152.737 154.177 154.741 156.222 156.668 158.037 158.362 
159.661 152.851 153.164 154.492 155.048 156.53 157.14 158.57 159.021 
160.319 160.635 161.842 153.412 153.704 154.787 155.262 156.574 157.287 
158.756 159.429 160.789 161.229 162.435 162.732 163.843 153.619 154.034 
154.949 155.409 156.545 157.234 158.696 159.505 160.987 161.599 162.856 
163.252 164.36 164.654 165.649 153.512 154.012 154.891 155.413 156.497 
157.167 158.589 159.428 160.956 161.706 162.992 163.531 164.586 165.02 
165.956 166.291 167.078 153.331 153.824 154.708 155.276 156.355 157.053 
158.391 159.257 160.691 161.551 162.767 163.458 164.412 165.001 165.839 
166.36 167.093 167.475 168.063 150.961 153.071 151.982 152.024 155.334 
154.242 154.319 153.19 153.268 157.601 156.527 156.642 155.527 155.6 
154.469 154.548 159.912 158.849 159 157.868 157.948 156.795 156.841 
155.725 155.773 162.115 161.158 161.348 160.253 160.322 159.149 159.158 
158.002 157.993 156.88 156.831 164.122 163.284 163.514 162.535 162.617 
161.499 161.468 160.299 160.218 159.068 158.936 157.812 157.63 165.931 
165.216 165.472 164.609 164.734 163.721 163.709 162.573 162.439 161.253 
161.027 159.862 159.585 158.478 158.203 167.379 166.875 167.138 166.45 
166.585 165.732 165.737 164.727 164.573 163.421 163.112 161.904 161.525 
160.371 160.009 158.948 158.629 168.396 168.11 168.392 167.924 168.054 
167.402 167.368 166.556 166.351 165.379 165.003 163.889 163.417 162.26 
161.804 160.706 160.31 159.294 158.944 168.95 169.739 169.284 169.013 
170.154 169.952 169.681 169.196 168.706 169.835 170.033 169.774 169.623 
169.098 168.665 167.979 168.988 169.387 169.163 169.35 168.845 168.743 
168.041 167.711 166.894 168.131 168.495 168.294 168.563 168.127 168.221 
167.572 167.494 166.714 166.446 165.528 167.255 167.649 167.414 167.695 
167.256 167.42 166.821 166.879 166.18 166.094 165.258 164.96 163.964 
166.227 166.673 166.38 166.727 166.229 166.478 165.882 166.061 165.434 
165.495 164.766 164.615 163.709 163.356 162.352 165.214 165.609 165.296 
165.622 165.138 165.399 164.856 165.09 164.548 164.713 164.084 164.075 
163.262 163.046 162.098 161.757 160.812 164.241 164.607 164.277 164.571 
164.131 164.372 163.913 164.136 163.675 163.854 163.286 163.351 162.598 
162.517 161.627 161.423 160.51 160.24 159.388 168.936 168.958 169.248 
169.717 168.585 169.098 169.573 169.902 170.125 167.72 168.44 168.847 
169.467 169.669 169.998 169.829 166.6 167.344 167.66 168.442 168.672 
169.279 169.198 169.419 169.025 165.625 166.244 166.518 167.19 167.465 
168.165 168.282 168.708 168.483 168.579 168.178 164.707 165.352 165.638 
166.185 166.42 167.029 167.229 167.782 167.712 167.987 167.63 167.724 
167.282 163.486 164.311 164.593 165.275 165.438 166.036 166.142 166.727 
166.682 167.115 166.789 167.029 166.566 166.725 166.252 162.043 162.919 
163.163 164.013 164.162 164.905 164.949 165.589 165.514 166.021 165.751 
166.086 165.675 165.915 165.504 165.682 165.263 160.69 161.466 161.679 
162.5 162.665 163.477 163.553 164.283 164.228 164.819 164.606 165.03 
164.696 165.006 164.65 164.908 164.555 164.732 164.317 153.508 154.355 
154.246 154.954 155.38 155.25 156.074 155.886 156.72 156.376 156.342 
157.262 157.123 158.074 157.858 158.832 157.231 157.315 158.317 158.296 
159.286 159.203 160.232 160.077 161.07 158.048 158.168 159.25 159.314 
160.334 160.327 161.319 161.307 162.273 162.192 163.029 158.871 159.006 
160.104 160.228 161.288 161.331 162.311 162.306 163.236 163.216 164.062 
163.956 164.647 159.564 159.77 160.825 161.023 162.068 162.208 163.193 
163.253 164.186 164.176 165.047 164.954 165.71 165.509 166.111 160.024 
160.324 161.339 161.634 162.644 162.879 163.816 163.989 164.879 165.016 
165.879 165.92 166.685 166.568 167.184 166.928 167.388 160.296 160.647 
161.618 162.011 163.003 163.342 164.221 164.461 165.219 165.465 166.226 
166.503 167.253 167.393 168.006 167.913 168.354 168.084 168.377 152.817 
151.987 152.765 153.564 151.063 151.891 152.662 153.557 154.478 149.991 
150.897 151.646 152.582 153.452 154.452 155.388 148.81 149.763 150.519 
151.495 152.326 153.346 154.238 155.28 156.183 147.678 148.574 149.328 
150.32 151.173 152.202 153.109 154.124 155.039 156.056 156.983 146.768 
147.516 148.215 149.132 150.006 151.055 152.048 153.072 154.042 154.994 
155.937 156.91 157.839 146.07 146.696 147.314 148.085 148.89 149.895 
150.917 152.021 153.04 154.036 154.938 155.886 156.759 157.74 158.565 
145.438 146.024 146.577 147.241 147.931 148.81 149.743 150.846 151.851 
152.941 153.788 154.788 155.554 156.577 157.353 158.361 159.061 144.799 
145.369 145.893 146.515 147.135 147.888 148.702 149.679 150.621 151.691 
152.523 153.53 154.24 155.264 156.008 157.074 157.81 158.789 159.401 
144.601 144.731 145.006 145.728 145.037 145.25 146.037 146.241 147.027 
145.459 145.648 146.493 146.669 147.538 147.692 148.615 145.945 146.109 
146.986 147.181 148.118 148.299 149.287 149.448 150.478 146.558 146.655 
147.545 147.712 148.693 148.905 149.935 150.135 151.143 151.325 152.301 
147.259 147.328 148.227 148.347 149.337 149.517 150.558 150.764 151.777 
151.955 152.908 153.072 154.004 147.921 148.014 148.901 149.045 150.022 
150.194 151.208 151.392 152.414 152.592 153.608 153.746 154.75 154.844 
155.824 148.543 148.638 149.494 149.665 150.629 150.842 151.848 152.042 
153.061 153.248 154.322 154.504 155.601 155.709 156.737 156.758 157.678 
149.16 149.251 150.086 150.234 151.18 151.405 152.438 152.668 153.719 
153.918 155.003 155.22 156.345 156.544 157.585 157.67 158.544 158.531 
159.276 149.769 151.1 150.525 150.751 152.624 151.984 152.272 151.614 
151.895 154.377 153.665 154.061 153.308 153.66 152.905 153.224 156.309 
155.571 156.056 155.258 155.683 154.84 155.189 154.327 154.593 158.168 
157.518 158 157.276 157.699 156.905 157.261 156.389 156.657 155.722 
155.934 159.804 159.265 159.726 159.111 159.507 158.818 159.165 158.402 
158.689 157.817 158.039 157.091 157.285 161.298 160.824 161.32 160.762 
161.192 160.552 160.927 160.228 160.548 159.773 160.005 159.144 159.299 
158.389 158.491 162.634 162.26 162.766 162.3 162.745 162.195 162.59 
161.962 162.296 161.581 161.804 161.003 161.101 160.259 160.278 159.42 
159.389 163.687 163.459 163.912 163.593 163.979 163.597 163.958 163.502 
163.815 163.238 163.438 162.718 162.779 161.962 161.924 161.082 161.002 
160.166 160.066 149.395 149.18 149.759 150.708 149 149.593 150.63 
151.165 152.197 148.973 149.549 150.668 151.156 152.223 152.729 153.867 
148.93 149.6 150.779 151.27 152.319 152.784 153.917 154.494 155.741 
148.7 149.484 150.674 151.298 152.303 152.834 153.924 154.542 155.808 
156.431 157.649 148.498 149.224 150.384 151.05 152.028 152.657 153.741 
154.478 155.789 156.501 157.765 158.29 159.348 148.463 149.087 150.208 
150.78 151.739 152.32 153.414 154.206 155.587 156.434 157.768 158.387 
159.464 159.9 160.83 148.431 149.038 150.11 150.656 151.599 152.11 
153.165 153.888 155.243 156.15 157.509 158.281 159.362 159.925 160.834 
161.302 162.144 148.347 148.928 149.938 150.513 151.454 151.994 153.013 
153.673 154.914 155.761 157.04 157.882 158.945 159.653 160.539 161.156 
161.979 162.499 163.217 148.564 147.21 148.008 148.259 145.772 146.581 
146.745 147.625 147.952 144.242 145.074 145.18 146.044 146.266 147.295 
147.766 142.686 143.499 143.572 144.422 144.565 145.546 145.883 147.075 
147.611 141.175 141.958 141.992 142.792 142.905 143.828 144.097 145.173 
145.595 146.841 147.376 139.686 140.469 140.527 141.267 141.357 142.194 
142.485 143.466 143.883 144.937 145.435 146.627 147.226 138.375 139.053 
139.218 139.908 140.039 140.747 141.014 141.913 142.391 143.38 143.891 
144.892 145.459 146.6 147.249 137.505 137.948 138.182 138.773 139.036 
139.611 139.862 140.556 140.995 141.929 142.506 143.479 144.02 144.999 
145.579 146.686 147.294 137.027 137.277 137.472 137.935 138.293 138.804 
139.135 139.618 139.986 140.668 141.238 142.141 142.757 143.664 144.206 
145.142 145.703 146.747 147.304 136.838 136.705 136.884 137.268 136.876 
136.896 137.357 137.55 138.112 137.495 137.284 137.726 137.779 138.366 
138.506 139.018 138.374 138.035 138.359 138.261 138.791 138.842 139.356 
139.392 139.876 139.261 138.894 139.097 138.901 139.336 139.323 139.875 
139.856 140.406 140.391 141.07 140.155 139.754 139.906 139.617 139.983 
139.898 140.494 140.483 141.142 141.084 141.775 141.777 142.561 141.071 
140.67 140.837 140.474 140.805 140.604 141.169 141.144 141.836 141.844 
142.524 142.514 143.201 143.247 143.986 141.931 141.585 141.791 141.444 
141.762 141.487 141.958 141.841 142.445 142.464 143.116 143.168 143.825 
143.868 144.57 144.641 145.423 142.731 142.428 142.67 142.378 142.705 
142.435 142.847 142.645 143.153 143.07 143.689 143.716 144.429 144.486 
145.251 145.291 146.093 146.154 146.99 143.258 144.178 143.541 143.256 
145.336 144.585 144.305 143.613 143.354 146.76 145.888 145.632 144.8 
144.536 143.782 143.545 148.472 147.48 147.279 146.302 146.07 145.136 
144.895 144.057 143.867 150.415 149.346 149.206 148.131 147.973 146.889 
146.697 145.636 145.448 144.517 144.422 152.442 151.374 151.273 150.173 
150.06 148.935 148.799 147.645 147.503 146.367 146.267 145.254 145.234 
154.419 153.413 153.353 152.281 152.185 151.063 150.922 149.783 149.648 
148.523 148.431 147.312 147.245 146.181 146.14 156.243 155.345 155.328 
154.342 154.285 153.2 153.057 151.9 151.715 150.602 150.469 149.424 
149.321 148.261 148.143 147.087 146.999 157.859 157.081 157.079 156.225 
156.19 155.237 155.123 154.029 153.821 152.663 152.453 151.371 151.207 
150.202 150.044 149.044 148.903 147.914 147.845 148.663 149.665 149.495 
150.189 150.782 150.545 151.223 151.038 151.728 152.028 151.76 152.529 
152.229 153.009 152.693 153.439 153.382 153.12 154.023 153.699 154.577 
154.187 155.019 154.587 155.402 154.774 154.545 155.484 155.223 156.118 
155.795 156.606 156.22 156.988 156.602 157.394 156.038 155.896 156.789 
156.605 157.472 157.245 158.063 157.746 158.48 158.108 158.816 158.488 
159.197 157.078 157.039 157.919 157.811 158.692 158.537 159.438 159.191 
160.018 159.623 160.332 159.897 160.568 160.197 160.83 157.953 157.986 
158.905 158.877 159.805 159.728 160.678 160.544 161.42 161.141 161.837 
161.422 162.012 161.593 162.177 161.785 162.317 158.712 158.807 159.753 
159.818 160.778 160.793 161.723 161.685 162.496 162.365 162.977 162.728 
163.203 162.903 163.372 163.065 163.53 163.174 163.555 141.11 140.985 
140.633 139.77 141.077 140.596 139.727 139.254 138.307 141.319 140.786 
139.998 139.421 138.561 137.92 137.102 141.591 141.065 140.307 139.774 
139.015 138.378 137.605 136.969 136.401 141.849 141.346 140.562 140.048 
139.286 138.785 138.07 137.525 136.896 136.408 136.014 142.071 141.622 
140.888 140.331 139.559 139.027 138.359 137.903 137.342 136.88 136.424 
136.047 135.849 142.237 141.862 141.257 140.732 140.058 139.441 138.835 
138.285 137.813 137.327 136.916 136.476 136.224 135.974 136.031 142.405 
142.063 141.571 141.139 140.598 140.041 139.512 138.923 138.477 137.917 
137.508 136.993 136.668 136.339 136.272 136.214 136.393 142.659 142.3 
141.874 141.486 141.029 140.573 140.099 139.595 139.158 138.629 138.212 
137.651 137.272 136.804 136.619 136.416 136.483 136.518 136.693 141.033 
139.658 140.444 140.631 138.042 138.877 139.092 140.061 140.404 136.727 
137.28 137.449 138.425 138.927 139.938 140.442 136.091 136.283 136.429 
137.041 137.624 138.533 139.223 140.121 140.718 135.816 135.899 136.07 
136.408 136.967 137.57 138.298 139.041 139.736 140.515 141.14 135.737 
135.737 135.9 136.151 136.623 137.101 137.734 138.327 139.008 139.674 
140.37 141.058 141.707 136.055 135.887 136.048 136.063 136.429 136.739 
137.281 137.799 138.454 139.071 139.811 140.445 141.179 141.754 142.398 
136.537 136.381 136.573 136.408 136.681 136.688 137.142 137.426 138.084 
138.594 139.386 139.986 140.774 141.332 142.011 142.501 143.088 136.836 
136.804 136.996 136.92 137.139 137.064 137.425 137.498 138.101 138.404 
139.193 139.665 140.467 140.975 141.659 142.136 142.717 143.179 143.718 
141.703 141.382 141.865 142.564 141.211 141.618 142.319 142.782 143.602 
141.255 141.557 142.259 142.614 143.423 143.948 144.903 141.527 141.743 
142.481 142.695 143.464 143.837 144.736 145.276 146.133 141.917 142.101 
142.885 143.049 143.785 143.986 144.764 145.14 145.952 146.405 147.097 
142.374 142.502 143.244 143.443 144.15 144.328 145.002 145.236 145.991 
146.331 147.134 147.448 148.193 142.956 142.979 143.627 143.764 144.431 
144.618 145.275 145.48 146.224 146.5 147.385 147.679 148.577 148.778 
149.606 143.619 143.59 144.199 144.212 144.851 144.933 145.618 145.773 
146.559 146.804 147.724 148.029 148.98 149.235 150.083 150.254 151.009 
144.254 144.246 144.859 144.841 145.467 145.463 146.138 146.212 147.003 
147.196 148.107 148.39 149.321 149.607 150.442 150.663 151.38 151.556 
152.215 148.439 147.819 147.806 147.133 147.156 147.149 146.447 146.444 
145.713 146.444 146.434 145.658 145.678 144.901 144.938 144.167 145.722 
145.677 144.842 144.833 143.995 144.042 143.253 143.341 142.603 145.097 
144.972 144.118 144.032 143.178 143.15 142.34 142.397 141.656 141.774 
141.074 144.607 144.41 143.556 143.389 142.564 142.439 141.641 141.571 
140.792 140.821 140.078 140.213 139.531 144.222 143.982 143.158 142.929 
142.148 141.95 141.191 141.007 140.224 140.08 139.316 139.286 138.622 
138.732 138.208 143.989 143.693 142.943 142.649 141.919 141.647 140.907 
140.648 139.87 139.631 138.889 138.719 138.131 138.064 137.656 137.69 
137.413 143.927 143.59 142.919 142.568 141.889 141.534 140.796 140.44 
139.639 139.327 138.58 138.381 137.831 137.751 137.421 137.392 137.186 
137.173 137.015 
POINT_DATA 1002
SCALARS Distance double
LOOKUP_TABLE default
143.82 143.015 143.653 144.523 144.431 144.851 145.275 145.273 145.605 
146.117 146.039 146.171 146.378 146.986 147.659 146.894 147.168 147.261 
147.978 148.746 149.485 147.776 148.044 148.271 149.169 150.019 150.775 
151.483 148.438 148.465 149.161 150.346 151.373 152.151 152.852 153.483 
148.965 148.64 149.907 151.295 152.57 153.474 154.205 154.852 155.379 
149.751 149.113 150.841 152.23 153.608 154.692 155.501 156.164 156.694 
157.09 150.902 150.053 152.057 153.347 154.638 155.806 156.73 157.412 
157.926 158.315 158.597 142.724 143.456 142.557 143.402 142.458 144.386 
143.417 142.328 144.49 145.452 143.407 142.113 144.647 145.797 146.67 
143.313 141.843 144.775 146.096 147.311 147.972 143.134 141.58 144.799 
146.209 147.614 148.747 148.828 142.909 141.41 144.642 146.124 147.479 
148.909 149.444 148.899 142.712 141.41 144.311 145.843 147.182 148.649 
149.617 149.336 148.761 142.621 141.568 143.964 145.438 146.861 148.371 
149.611 149.74 149.137 149.093 142.364 143.471 143.276 144.568 144.515 
144.868 145.971 145.883 146.077 146.407 147.157 146.884 147.401 147.706 
148.075 147.84 147.713 148.19 148.71 149.268 149.577 148.721 148.935 
148.724 149.007 149.553 150.028 150.037 150.201 150.417 149.958 149.677 
149.536 149.719 149.839 149.558 151.759 151.735 151.71 151.361 150.671 
150.137 150.012 149.86 149.469 153.013 152.855 153.193 153.157 152.645 
151.878 151.382 151.152 150.837 150.408 151.931 152.396 154.169 152.875 
154.709 156.393 153.25 155.277 157.039 158.665 153.584 155.7 157.691 
159.383 160.936 154.034 155.862 158.031 159.989 161.587 163.006 154.435 
155.894 157.971 160.268 162.113 163.605 164.92 154.511 155.903 157.84 
160.279 162.417 164.039 165.439 166.588 154.335 155.83 157.76 160.168 
162.425 164.138 165.582 166.848 167.799 154.128 155.666 157.571 159.844 
162.062 163.817 165.284 166.651 167.781 168.612 153.115 155.442 154.401 
157.746 156.74 155.661 160.137 159.119 157.987 156.877 162.404 161.504 
160.345 159.146 157.957 164.443 163.698 162.651 161.409 160.102 158.751 
166.287 165.689 164.817 163.661 162.249 160.733 159.272 167.752 167.377 
166.693 165.705 164.356 162.733 161.11 159.645 168.781 168.647 168.141 
167.274 166.078 164.58 162.939 161.364 159.922 169.459 169.615 170.146 
170.101 170.219 169.33 169.783 169.506 169.44 168.526 168.878 168.584 
168.832 168.266 167.335 168.027 167.786 167.982 167.571 166.884 165.928 
167.14 166.842 167.08 166.71 166.185 165.474 164.376 166.041 165.802 
165.964 165.647 165.29 164.83 163.999 162.755 164.986 164.856 164.862 
164.59 164.335 164.024 163.403 162.387 161.152 163.98 163.887 163.867 
163.666 163.487 163.208 162.632 161.763 160.73 159.647 168.74 169.549 
168.589 169.158 168.011 170.014 168.154 166.997 169.231 169.765 166.885 
165.921 167.945 168.844 168.989 165.93 165.027 166.744 167.711 168.294 
168.169 165.101 163.994 165.886 166.637 167.346 167.503 167.221 163.839 
162.628 164.842 165.59 166.206 166.501 166.367 166.115 162.29 161.211 
163.361 164.285 164.976 165.363 165.394 165.267 165.133 160.898 159.962 
161.849 162.786 163.589 164.12 164.338 164.36 164.327 164.208 153.542 
155.07 154.455 156.228 155.46 156.924 157.341 156.329 158.217 159.082 
158.278 157.087 159.332 160.311 161.305 159.142 157.916 160.332 161.341 
162.306 163.211 159.96 158.738 161.21 162.322 163.274 164.133 164.845 
160.614 159.342 161.9 163.094 164.164 165.124 165.887 166.399 161.017 
159.715 162.388 163.645 164.712 165.763 166.752 167.419 167.734 152.057 
152.7 151.208 151.769 150.213 153.521 150.712 149.049 152.459 154.378 
149.53 147.854 151.318 153.204 155.134 148.342 146.842 150.116 152.089 
154.037 155.949 147.367 146.097 148.941 150.964 153.094 154.998 156.866 
146.628 145.488 147.95 149.782 152.008 154.02 155.798 157.617 145.957 
144.87 147.148 148.7 150.75 152.799 154.549 156.318 158.126 145.282 