# vtk DataFile Version 4.0
vtk output
ASCII
DATASET POLYDATA
POINTS 1002 float
-77.9409 -107.8 60.4668 -78.1843 -106.953 59.6553 -78.8628 -107.15 59.8854 
-78.5575 -108.125 60.6826 -79.4702 -107.255 60.3293 -77.6731 -108.857 61.4075 
-79.0818 -108.429 61.0163 -80.2008 -107.364 60.9174 -78.2729 -109.34 61.6205 
-77.5098 -110.029 62.5179 -79.6679 -108.903 61.3403 -81.0307 -107.996 61.3165 
-78.674 -109.927 61.8041 -78.0433 -110.731 62.7488 -77.2641 -111.569 63.4786 
-80.141 -109.978 61.4697 -81.4482 -109.362 61.4258 -78.9356 -110.877 61.8377 
-78.2626 -111.746 62.8079 -77.6446 -112.621 63.6564 -76.784 -113.771 63.9799 
-80.1447 -111.469 61.463 -81.2781 -110.893 61.3775 -79.0292 -112.268 61.7923 
-78.3617 -113.18 62.7221 -77.8676 -114.038 63.7169 -77.1673 -115.042 64.2453 
-76.4155 -116.161 64.5409 -79.9602 -112.784 61.3593 -80.9832 -112.116 61.1509 
-79.0586 -113.602 61.8233 -78.5492 -114.617 62.7849 -78.1905 -115.568 63.8428 
-77.6292 -116.396 64.6153 -76.968 -117.256 65.1933 -76.389 -118.083 65.6687 
-80.0161 -113.851 61.3124 -80.8322 -113.148 60.9293 -79.3294 -114.673 61.9652 
-78.9139 -115.7 63.0695 -78.6044 -116.763 64.2169 -78.1338 -117.625 65.0706 
-77.5719 -118.302 65.8698 -77.0232 -118.958 66.5729 -76.5073 -119.648 66.9294 
-80.2388 -114.896 61.6761 -80.7731 -114.21 61.0755 -79.792 -115.712 62.4221 
-79.4167 -116.7 63.5006 -79.0402 -117.737 64.7001 -78.5718 -118.665 65.5946 
-78.1087 -119.39 66.3781 -77.6848 -119.951 67.2391 -77.1948 -120.519 67.8036 
-76.7077 -121.151 67.9253 -80.4997 -115.961 62.3995 -80.8179 -115.309 61.5849 
-80.2261 -116.755 63.2079 -79.9068 -117.736 64.1174 -79.5289 -118.746 65.192 
-79.101 -119.642 66.1509 -78.701 -120.426 66.9073 -78.3812 -121.058 67.703 
-78.0058 -121.555 68.4178 -77.5246 -122.04 68.7583 -77.0821 -122.52 68.7998 
-78.7739 -106.429 58.9422 -79.5423 -106.477 59.3141 -79.302 -105.942 58.153 
-80.2084 -105.841 58.6332 -79.843 -105.331 57.3069 -80.3417 -106.359 59.9932 
-80.8512 -105.277 57.7579 -80.4544 -104.624 56.4208 -81.1556 -105.705 59.3374 
-81.2801 -106.479 60.6719 -81.4763 -104.772 56.7304 -81.119 -103.951 55.38 
-81.7514 -105.413 58.2963 -81.9937 -106.069 59.8235 -82.0594 -107.421 60.9559 
-82.0615 -104.243 55.5207 -81.7313 -103.432 54.0354 -82.2683 -105.233 57.1498 
-82.3975 -106.021 58.6241 -82.5273 -107.151 59.9646 -82.289 -108.955 61.0228 
-82.3968 -103.951 54.1637 -82.064 -103.356 52.5922 -82.7356 -105.011 55.9382 
-82.9663 -105.987 57.5156 -82.9971 -106.931 58.8542 -82.8336 -108.455 60.1923 
-82.1472 -110.375 61.032 -82.331 -104.287 52.9835 -82.0602 -103.839 51.4451 
-82.8464 -105.086 54.7128 -83.4675 -105.97 56.3398 -83.7245 -106.763 57.8066 
-83.5446 -107.935 59.3028 -82.9743 -109.687 60.4371 -81.9277 -111.541 60.7989 
-82.1303 -105.043 52.1278 -81.9741 -104.576 50.662 -82.6261 -105.612 53.7403 
-83.4502 -106.197 55.1497 -84.0466 -106.805 56.5359 -84.1104 -107.734 58.2527 
-83.7443 -109.19 59.7551 -82.8574 -110.954 60.3565 -81.6605 -112.685 60.529 
-82.1084 -105.756 51.4251 -82.0079 -105.29 50.0805 -82.4473 -106.258 53.0094 
-83.1419 -106.673 54.2856 -83.8017 -107.122 55.3422 -84.1086 -107.924 56.935 
-84.1205 -109.163 58.837 -83.6297 -110.666 59.9113 -82.5266 -112.299 60.1685 
-81.4062 -113.903 60.6015 -82.2331 -106.232 50.3021 -82.384 -106.707 51.8958 
-82.4741 -107.214 50.7544 -82.6012 -107.724 52.5611 -82.4978 -108.381 51.5901 
-82.7894 -107.199 53.4883 -82.6082 -109.069 53.4544 -82.4123 -109.78 52.6606 
-82.9667 -108.406 54.062 -83.3636 -107.684 54.5308 -82.709 -110.539 54.3349 
-82.5037 -111.187 53.6425 -83.1471 -110.002 54.7818 -83.5272 -109.261 55.056 
-83.8144 -108.456 55.7264 -82.8841 -111.76 55.0678 -82.6031 -112.578 54.5909 
-83.4317 -111.305 55.4445 -83.9492 -110.962 55.7925 -84.1112 -110.35 56.5442 
-84.1408 -109.64 57.7158 -82.7304 -113.215 55.9232 -82.4789 -114.214 55.7062 
-83.2044 -112.384 56.1502 -83.8786 -112.124 56.486 -84.2993 -112.012 57.303 
-84.2892 -111.576 58.4532 -84.0402 -111.007 59.3717 -82.4115 -115.3 57.0291 
-82.2313 -115.968 56.9267 -82.6073 -114.32 57.2252 -83.0018 -113.666 57.4675 
-83.4505 -113.525 58.0239 -83.6701 -113.361 58.9152 -83.5304 -112.934 59.6224 
-83.0912 -112.51 59.9477 -82.1775 -117.28 58.2662 -81.9075 -117.363 58.1821 
-82.3834 -116.785 58.5554 -82.6085 -116.117 58.8687 -82.7516 -115.633 59.1766 
-82.741 -115.279 59.6316 -82.6109 -114.873 60.0665 -82.3086 -114.464 60.2697 
-81.858 -114.133 60.3976 -81.8949 -118.507 59.5491 -81.4896 -118.291 59.4651 
-82.3545 -118.514 59.8619 -82.8947 -118.243 60.243 -83.2217 -117.758 60.4896 
-83.0273 -117.143 60.695 -82.5137 -116.565 60.9493 -82.0178 -116.186 61.1281 
-81.5739 -115.917 61.2536 -81.1614 -115.618 61.4256 -80.9164 -116.802 62.8398 
-81.3481 -117.13 62.6872 -81.2953 -118.3 64.0983 -81.8677 -117.293 62.4879 
-81.8148 -118.524 63.9728 -81.6213 -119.902 65.3204 -82.5296 -117.387 62.2896 
-82.3556 -118.526 63.8523 -82.037 -120.205 65.4459 -81.9734 -121.756 67.0895 
-83.3583 -117.821 61.9936 -83.0165 -118.651 63.5684 -82.3658 -120.474 65.4921 
-82.3311 -122.419 67.4039 -82.7688 -123.511 69.1811 -83.9013 -118.604 61.7358 
-83.615 -119.291 63.0782 -82.6796 -121.015 65.0805 -82.6148 -123.156 67.2796 
-83.3115 -124.335 69.0913 -83.6844 -124.817 70.6019 -83.591 -119.215 61.6235 
-83.531 -120.004 62.82 -82.6908 -121.668 64.5259 -82.6918 -123.858 66.718 
-83.6729 -125.112 68.5305 -84.1798 -125.566 70.0014 -84.0532 -126.147 71.4437 
-82.7039 -119.435 61.4069 -82.7357 -120.279 62.7865 -82.2141 -121.866 64.3214 
-82.3043 -124.065 66.2996 -83.4682 -125.55 68.0467 -84.2364 -126.21 69.3482 
-84.1603 -126.97 70.7846 -84.0937 -127.853 72.2792 -81.8979 -119.404 61.0612 
-81.8956 -120.31 62.5887 -81.6783 -121.761 64.1468 -81.7385 -123.783 66.0025 
-82.6758 -125.463 67.7965 -83.6339 -126.488 69.0618 -83.8253 -127.529 70.2446 
-83.8989 -128.683 71.664 -84.2665 -129.444 72.9528 -81.3391 -119.234 60.8311 
-81.3102 -120.299 62.2875 -81.3327 -121.746 63.7585 -81.4093 -123.551 65.4497 
-81.8927 -125.199 67.2996 -82.6806 -126.439 68.7936 -83.146 -127.646 69.925 
-83.3985 -128.938 71.0977 -83.8917 -129.945 72.2851 -84.413 -130.457 73.2483 
-80.7184 -117.557 63.7985 -81.0276 -119.239 65.0738 -80.4303 -118.53 64.677 
-81.4221 -120.983 66.5862 -80.7535 -120.307 66.1606 -80.1105 -119.616 65.6715 
-82.1549 -122.671 68.783 -81.4531 -121.896 68.1637 -80.6825 -121.271 67.4791 
-79.8449 -120.553 66.7756 -83.0424 -124.131 70.7674 -82.3071 -123.368 70.3866 
-81.5537 -122.649 69.6682 -80.6379 -122.048 68.731 -79.5645 -121.352 67.7217 
-83.6024 -125.556 71.9046 -82.8632 -124.94 71.8183 -82.0543 -124.184 71.3792 
-81.2804 -123.416 70.6998 -80.3188 -122.811 69.6458 -79.2402 -122.093 68.5077 
-83.9275 -127.173 72.8051 -83.3087 -126.504 72.7768 -82.3626 -125.835 72.396 
-81.4695 -124.977 72.0033 -80.7011 -124.162 71.3372 -79.826 -123.527 70.2381 
-78.859 -122.688 69.1747 -84.2982 -128.754 73.6021 -83.8232 -127.837 73.8002 
-82.9161 -127.054 73.5317 -81.8841 -126.311 73.1251 -80.9683 -125.469 72.5771 
-80.1599 -124.754 71.6452 -79.3071 -124.085 70.531 -78.3763 -123.148 69.5682 
-84.5495 -130.004 73.9651 -84.1404 -129.038 74.4893 -83.3422 -127.973 74.6541 
-82.4414 -127.136 74.4709 -81.4856 -126.431 73.8946 -80.5039 -125.793 72.8695 
-79.6201 -125.214 71.6843 -78.768 -124.482 70.6433 -77.8771 -123.523 69.711 
-84.353 -131.03 73.7722 -84.1782 -130.514 74.5017 -83.5829 -131.648 74.2738 
-83.1853 -131.012 74.9611 -82.378 -132.021 74.7666 -83.4749 -129.37 75.1129 
-82.0092 -131.056 75.2217 -80.9852 -131.582 75.0329 -82.5042 -129.654 75.5142 
-82.6772 -128.111 75.4524 -80.5473 -130.461 75.2613 -79.3211 -130.79 75.1211 
-81.3951 -129.55 75.5416 -81.7707 -128.214 75.8454 -81.847 -127.167 75.2513 
-78.6517 -129.943 75.3936 -77.7457 -130.321 75.1392 -79.7443 -129.152 75.5546 
-80.3938 -128.103 75.8353 -80.6963 -127.213 75.4801 -80.7484 -126.547 74.2256 
-76.9462 -129.536 75.4317 -76.5711 -129.77 74.7992 -77.8127 -128.784 75.7236 
-78.6578 -127.782 75.8414 -79.0942 -127.072 75.4094 -79.4339 -126.635 74.1794 
-79.6557 -126.05 72.7737 -75.7192 -128.779 74.9355 -75.5736 -128.954 74.0362 
-76.2454 -128.229 75.4739 -77.1516 -127.357 75.5945 -77.7686 -126.688 75.1688 
-78.1224 -126.393 74.086 -78.5561 -126.045 72.7312 -78.8139 -125.382 71.5611 
-74.8015 -127.977 74.073 -74.6814 -128.264 73.1666 -75.0823 -127.557 74.667 
-75.8912 -126.973 74.7563 -76.7539 -126.412 74.3968 -77.191 -126.022 73.6806 
-77.5609 -125.668 72.7029 -77.9331 -125.178 71.5944 -78.0075 -124.466 70.5441 
-74.0832 -127.382 73.1705 -73.9074 -127.716 72.3736 -74.2383 -127.018 73.6965 
-74.7787 -126.693 73.7 -75.6375 -126.378 73.295 -76.2365 -125.952 72.7798 
-76.5835 -125.376 72.2246 -76.9831 -124.8 71.4423 -77.2235 -124.239 70.4141 
-77.1771 -123.496 69.4599 -83.9499 -130.716 72.8625 -83.5728 -131.293 73.3775 
-83.0048 -130.538 72.4622 -82.245 -131.192 72.9093 -81.8904 -130.434 71.8782 
-82.559 -132.007 73.9051 -81.0198 -131.203 72.1046 -81.0231 -130.551 70.9645 
-81.2263 -131.975 73.2012 -81.2729 -132.245 74.321 -80.2924 -131.174 71.0581 
-80.3062 -130.223 70.0432 -80.2775 -131.86 72.0782 -80.1549 -132.103 73.2945 
-79.8107 -131.618 74.4893 -79.6 -130.514 70.162 -79.471 -129.165 69.3669 
-79.5958 -131.444 71.0054 -79.3934 -131.77 72.0465 -78.9391 -131.498 73.368 
-78.3625 -130.895 74.5306 -78.6912 -129.387 69.3127 -78.6178 -128.048 68.5619 
-78.6268 -130.56 70.0597 -78.5047 -131.092 71.0114 -78.2781 -131.095 72.1565 
-77.8435 -130.784 73.3732 -77.2515 -130.328 74.3014 -77.8235 -128.327 68.245 
-77.8251 -127.291 67.3853 -77.6318 -129.457 68.9845 -77.4155 -130.151 69.8951 
-77.337 -130.329 70.976 -77.158 -130.281 72.049 -76.7284 -130.032 72.975 
-76.173 -129.575 73.6205 -77.044 -127.38 67.1126 -77.0494 -126.619 66.1724 
-76.8991 -128.257 67.9504 -76.6257 -129.022 68.7701 -76.4213 -129.402 69.7041 
-76.2091 -129.543 70.6974 -75.7951 -129.552 71.6063 -75.3553 -129.318 72.285 
-75.0214 -128.861 72.7635 -76.3234 -126.41 66.1352 -76.3713 -125.777 65.2457 
-76.2556 -127.032 67.0736 -76.0681 -127.723 67.9199 -75.7887 -128.313 68.6689 
[...]
CELL_DATA 2000
SCALARS Distance double
LOOKUP_TABLE default
144.772 145.389 145.267 145.684 146.039 145.897 146.372 146.282 146.822 
146.904 146.616 147.093 146.991 147.616 147.536 148.172 148.052 147.607 
148.009 147.782 148.439 148.374 149.12 148.998 149.711 149.178 148.762 
149.097 148.788 149.441 149.318 150.18 150.047 150.883 150.669 151.474 
150.013 149.746 150.085 149.852 150.538 150.435 151.398 151.265 152.21 
151.961 152.825 152.553 153.392 150.7 150.513 150.968 150.808 151.588 
151.551 152.594 152.544 153.546 153.345 154.213 153.943 154.765 154.486 
155.262 151.522 151.331 151.989 151.814 152.721 152.655 153.749 153.725 
154.763 154.634 155.515 155.296 156.114 155.854 156.628 156.315 157.012 
152.555 152.362 153.191 153.009 153.995 153.882 154.979 154.912 155.966 
155.841 156.771 156.574 157.445 157.204 158.025 157.709 158.429 158.046 
158.679 144.377 144.009 144.459 144.976 143.591 144.085 144.626 145.067 
145.622 143.119 143.663 144.268 144.738 145.368 145.811 146.516 142.629 
143.211 143.893 144.406 145.088 145.58 146.382 146.875 147.708 142.099 
142.722 143.48 144.068 144.793 145.3 146.088 146.679 147.594 148.131 
148.891 141.604 142.188 143.004 143.673 144.525 145.057 145.829 146.354 
147.233 147.884 148.741 149.211 149.767 141.368 141.795 142.629 143.254 
144.224 144.825 145.678 146.15 146.965 147.524 148.398 148.965 149.634 
149.965 150.399 141.456 141.735 142.556 143.023 143.972 144.547 145.424 
145.954 146.749 147.289 148.136 148.687 149.435 149.815 150.324 150.577 
151.07 141.725 141.932 142.717 143.063 143.919 144.36 145.152 145.64 
146.41 146.99 147.873 148.48 149.321 149.724 150.316 150.535 151.035 
151.316 151.96 142.14 143.125 142.775 143.146 144.23 143.831 144.215 
143.879 144.307 145.521 145.036 145.428 145.006 145.381 145.017 145.421 
146.956 146.427 146.877 146.364 146.78 146.22 146.598 146.163 146.665 
148.348 147.829 148.25 147.828 148.343 147.808 148.293 147.644 148.187 
147.643 148.272 149.793 149.175 149.429 149.023 149.473 149.215 149.782 
149.395 149.945 149.386 149.897 149.326 149.768 151.466 150.74 150.978 
150.284 150.638 150.232 150.795 150.603 151.178 150.906 151.29 150.838 
151.042 150.541 150.686 153.078 152.503 152.94 152.141 152.613 151.805 
152.406 151.804 152.435 152.002 152.448 152.007 152.211 151.697 151.794 
151.283 151.412 154.277 153.99 154.573 154.098 154.719 154.033 154.674 
153.857 154.423 153.606 154.026 153.303 153.596 152.946 153.178 152.541 
152.778 152.16 152.427 153.364 153.742 154.06 155.115 154.1 154.426 
155.485 155.855 156.955 154.502 154.774 155.781 156.167 157.326 157.744 
159.009 155.08 155.262 156.218 156.467 157.641 158.116 159.575 160.05 
161.522 155.703 155.939 156.892 156.99 158.083 158.488 160.055 160.667 
162.296 162.676 163.954 155.981 156.443 157.365 157.578 158.504 158.912 
160.394 161.13 162.804 163.357 164.605 164.823 165.734 155.809 156.43 
157.246 157.718 158.502 159.075 160.357 161.265 162.858 163.658 164.874 
165.269 166.133 166.38 167.263 155.418 156.033 156.761 157.353 158.124 
158.803 159.95 160.93 162.392 163.409 164.624 165.289 166.153 166.602 
167.495 167.907 168.856 154.99 155.548 156.255 156.853 157.705 158.385 
159.506 160.394 161.73 162.747 163.961 164.821 165.747 166.414 167.28 
167.91 168.82 169.353 170.111 153.465 155.263 154.309 154.228 157.149 
156.198 156.186 155.17 155.119 159.257 158.186 158.256 157.207 157.229 
156.157 156.129 161.749 160.524 160.621 159.425 159.497 158.35 158.345 
157.196 157.1 164.095 163.042 163.1 161.904 161.923 160.713 160.695 
159.474 159.342 158.117 157.913 165.905 165.134 165.202 164.22 164.156 
163.056 162.942 161.791 161.624 160.396 160.145 158.888 158.616 167.562 
166.851 167.008 166.129 166.065 165.073 164.879 163.849 163.614 162.54 
162.263 161.096 160.758 159.536 159.185 169.216 168.567 168.737 167.89 
167.798 166.852 166.62 165.639 165.345 164.351 164.029 163.015 162.652 
161.563 161.135 159.98 159.54 170.473 170.074 170.172 169.484 169.283 
168.445 168.141 167.262 166.925 165.989 165.597 164.631 164.219 163.254 
162.816 161.786 161.295 160.204 159.726 171.005 171.463 171.16 170.726 
171.57 171.44 170.967 170.556 169.803 171.111 171.305 170.833 170.627 
169.885 169.472 168.649 169.991 170.496 170.118 170.262 169.597 169.427 
168.657 168.292 167.447 168.773 169.261 168.973 169.326 168.789 168.917 
168.207 168.117 167.293 166.988 166.075 167.683 168.133 167.837 168.189 
167.707 167.955 167.304 167.428 166.659 166.613 165.753 165.519 164.63 
166.383 166.948 166.604 167.042 166.542 166.855 166.232 166.435 165.736 
165.837 165.094 165.057 164.257 164.064 163.214 164.995 165.547 165.208 
165.7 165.237 165.641 165.093 165.372 164.752 164.914 164.255 164.335 
163.63 163.589 162.783 162.601 161.712 163.784 164.237 163.928 164.347 
163.957 164.355 163.932 164.266 163.764 163.971 163.358 163.481 162.807 
162.877 162.125 162.072 161.215 161.036 160.142 170.93 170.493 171.023 
171.401 169.643 170.345 170.853 171.379 171.571 168.81 169.444 169.92 
170.627 170.943 171.362 171.167 167.977 168.631 169.006 169.662 169.926 
170.501 170.372 170.62 170.059 166.745 167.629 167.967 168.689 168.841 
169.422 169.303 169.679 169.269 169.402 168.845 165.157 166.172 166.496 
167.407 167.504 168.215 168.082 168.589 168.285 168.589 168.164 168.288 
167.765 163.579 164.525 164.793 165.75 165.83 166.673 166.542 167.239 
166.968 167.506 167.112 167.465 166.934 167.11 166.462 162.108 162.958 
163.141 164.031 164.097 164.94 164.838 165.597 165.366 166.04 165.692 
166.225 165.735 166.091 165.498 165.694 165.063 160.694 161.471 161.577 
162.397 162.445 163.255 163.197 163.938 163.764 164.434 164.171 164.755 
164.39 164.837 164.379 164.684 164.182 164.366 163.845 154.959 155.43 
155.535 156.273 156.16 156.196 157.094 157.067 157.9 157.034 157.074 
158.126 158.109 159.13 158.948 159.874 157.942 158.013 159.132 159.204 
160.343 160.284 161.308 161.079 162.047 158.809 158.936 160.074 160.2 
161.383 161.454 162.554 162.466 163.426 163.236 164.133 159.488 159.729 
160.846 161.064 162.24 162.434 163.617 163.666 164.705 164.553 165.426 
165.195 165.949 159.942 160.275 161.327 161.658 162.758 163.123 164.311 
164.611 165.716 165.761 166.64 166.456 167.198 166.922 167.585 160.236 
160.615 161.607 161.987 163.006 163.447 164.57 165.07 166.165 166.511 
167.349 167.432 168.084 168.033 168.685 168.513 169.117 160.382 160.806 
161.754 162.176 163.152 163.602 164.661 165.189 166.258 166.735 167.569 
167.837 168.424 168.587 169.172 169.321 169.939 169.908 170.368 154.238 
153.199 154.007 154.622 152.087 152.943 153.595 154.466 155.238 150.969 
151.831 152.53 153.438 154.228 155.157 156.038 149.881 150.715 151.396 
152.349 153.167 154.138 155.004 155.976 156.901 148.827 149.62 150.234 
151.175 151.973 153.013 153.879 154.9 155.776 156.805 157.72 147.847 
148.585 149.163 150.018 150.764 151.779 152.639 153.701 154.544 155.598 
156.444 157.536 158.385 146.972 147.654 148.218 148.989 149.677 150.598 
151.419 152.446 153.271 154.308 155.097 156.178 156.99 158.105 158.876 
146.202 146.822 147.35 148.064 148.689 149.531 150.281 151.248 152.041 
153.038 153.795 154.817 155.588 156.68 157.466 158.546 159.233 145.555 
146.094 146.578 147.214 147.782 148.543 149.226 150.121 150.877 151.83 
152.572 153.54 154.283 155.309 156.08 157.145 157.862 158.869 159.449 
145.39 145.488 145.74 146.39 145.637 145.88 146.565 146.823 147.579 
145.872 146.093 146.852 147.08 147.904 148.146 149.032 146.224 146.413 
147.238 147.456 148.353 148.573 149.51 149.728 150.679 146.645 146.821 
147.664 147.892 148.822 149.066 150.03 150.255 151.217 151.423 152.363 
147.109 147.275 148.136 148.348 149.291 149.538 150.522 150.771 151.766 
151.987 152.973 153.143 154.095 147.63 147.787 148.693 148.875 149.846 
150.049 151.057 151.283 152.326 152.56 153.618 153.81 154.831 154.946 
155.905 148.17 148.347 149.284 149.473 150.463 150.654 151.672 151.873 
152.928 153.155 154.238 154.467 155.515 155.688 156.654 156.756 157.649 
148.683 148.884 149.818 150.041 151.016 151.249 152.256 152.488 153.524 
153.763 154.812 155.059 156.073 156.3 157.232 157.414 158.269 158.401 
159.194 149.27 150.581 150.085 150.43 152.019 151.468 151.85 151.308 
151.671 153.696 153.04 153.485 152.846 153.263 152.628 152.981 155.536 
154.843 155.305 154.603 155.042 154.341 154.731 154.005 154.316 157.261 
156.656 157.08 156.423 156.831 156.153 156.542 155.821 156.145 155.365 
155.622 158.861 158.318 158.796 158.164 158.592 157.917 158.32 157.624 
157.967 157.209 157.46 156.654 156.857 160.474 159.959 160.553 159.933 
160.436 159.728 160.16 159.426 159.801 159.038 159.308 158.488 158.666 
157.841 157.99 161.964 161.56 162.156 161.663 162.168 161.561 161.968 
161.275 161.62 160.881 161.155 160.346 160.514 159.655 159.767 158.927 
159.025 163.132 162.885 163.414 163.089 163.552 163.124 163.504 162.955 
163.257 162.616 162.859 162.139 162.303 161.488 161.572 160.711 160.764 
159.917 159.953 148.781 148.505 149.141 150.126 148.33 148.967 150.021 
150.545 151.551 148.224 148.891 149.985 150.478 151.469 152.017 153.141 
148.095 148.793 149.861 150.386 151.301 151.89 153.03 153.732 154.98 
148.029 148.635 149.605 150.132 150.958 151.6 152.744 153.584 154.934 
155.628 156.789 148.19 148.613 149.477 149.863 150.63 151.196 152.344 
153.249 154.703 155.548 156.803 157.35 158.365 148.45 148.802 149.613 
149.864 150.606 150.986 152.088 152.88 154.359 155.277 156.62 157.301 
158.372 158.89 159.9 148.568 148.97 149.767 150.057 150.812 151.109 
152.125 152.724 154.088 154.93 156.277 157.048 158.178 158.822 159.87 
160.431 161.408 148.546 148.969 149.75 150.146 150.948 151.323 152.3 
152.805 154.017 154.701 155.958 156.691 157.836 158.552 159.629 160.304 
161.294 161.838 162.64 147.885 146.424 147.225 147.485 145.124 145.754 
145.816 146.747 147.13 143.989 144.531 144.411 145.066 145.191 146.323 
146.858 142.735 143.388 143.33 143.811 143.72 144.444 144.76 146.041 
146.71 141.336 142.048 142.141 142.771 142.818 143.287 143.452 144.201 
144.786 146.014 146.795 140.1 140.662 140.708 141.475 141.741 142.453 
142.792 143.322 143.781 144.496 145.242 146.313 147.125 139.203 139.548 
139.458 140.056 140.275 141.191 141.704 142.591 143.101 143.761 144.279 
145.045 145.752 146.76 147.473 138.645 138.821 138.722 139.014 139.105 
139.766 140.213 141.233 141.828 142.808 143.267 144.08 144.546 145.453 
146.07 147.082 147.657 138.35 138.437 138.412 138.521 138.607 138.898 
139.242 139.895 140.468 141.381 141.941 142.848 143.315 144.201 144.733 
145.695 146.289 147.238 147.727 138.221 138.086 138.217 138.32 138.067 
138.165 138.399 138.424 138.602 138.402 138.331 138.715 138.685 139.007 
138.899 139.248 139.198 138.894 139.275 139.167 139.608 139.479 139.87 
139.747 140.314 140.215 139.791 140.016 139.804 140.216 140.128 140.577 
140.448 140.935 140.924 141.638 141.187 140.764 140.896 140.572 140.89 
140.747 141.235 141.154 141.691 141.601 142.223 142.271 143.042 142.112 
141.707 141.901 141.513 141.836 141.537 142.012 141.854 142.45 142.369 
143.028 142.972 143.705 143.725 144.53 143.051 142.666 142.94 142.579 
142.966 142.611 143.042 142.742 143.248 143.115 143.765 143.76 144.501 
144.502 145.275 145.284 146.08 143.967 143.622 143.903 143.606 144.001 
143.721 144.12 143.797 144.176 143.928 144.457 144.427 145.157 145.236 
146.009 146.047 146.774 146.798 147.496 144.537 145.473 144.82 144.532 
146.607 145.855 145.567 144.897 144.663 147.947 147.096 146.784 146.007 
145.741 145.067 144.805 149.493 148.555 148.274 147.354 147.07 146.235 
145.945 145.189 144.884 151.26 150.237 150.026 149 148.776 147.766 
147.516 146.53 146.26 145.37 145.191 153.18 152.128 151.941 150.863 
150.666 149.606 149.422 148.341 148.14 147.045 146.898 145.935 145.93 
155.062 154.075 153.918 152.837 152.617 151.527 151.324 150.28 150.108 
149.049 148.882 147.827 147.736 146.802 146.802 156.812 155.914 155.829 
154.82 154.648 153.527 153.295 152.183 151.969 150.938 150.735 149.738 
149.533 148.585 148.444 147.594 147.528 158.46 157.627 157.592 156.692 
156.6 155.566 155.363 154.213 153.945 152.813 152.551 151.504 151.238 
150.264 150.021 149.149 149.001 148.23 148.173 148.788 149.593 149.437 
149.977 150.646 150.366 150.961 150.729 151.304 151.945 151.596 152.297 
151.942 152.655 152.249 152.87 153.368 153.027 153.841 153.46 154.281 
153.83 154.559 154.005 154.648 154.852 154.537 155.419 155.064 155.938 
155.536 156.326 155.8 156.452 155.855 156.48 156.294 156.051 156.945 
156.629 157.502 157.168 158.027 157.587 158.308 157.699 158.305 157.684 
158.306 157.513 157.41 158.304 158.082 158.924 158.661 159.543 159.243 
160.058 159.563 160.199 159.551 160.134 159.51 160.117 158.493 158.506 
159.436 159.336 160.183 159.992 160.83 160.643 161.458 161.173 161.807 
161.328 161.822 161.275 161.781 161.246 161.749 159.352 159.421 160.389 
160.391 161.27 161.161 161.947 161.805 162.543 162.383 162.991 162.7 
163.139 162.739 163.134 162.723 163.127 162.688 163.036 141.111 140.813 
140.675 140.137 140.747 140.472 139.914 139.718 139.18 140.994 140.564 
140.04 139.665 139.104 138.815 138.326 141.456 140.934 140.424 139.959 
139.443 138.962 138.426 138.079 137.696 141.969 141.419 140.874 140.401 
139.922 139.428 138.904 138.383 137.901 137.561 137.309 142.508 141.941 
141.388 140.871 140.395 139.919 139.413 138.891 138.347 137.878 137.514 
137.285 137.242 143.049 142.509 141.994 141.44 140.977 140.449 139.956 
139.396 138.816 138.289 137.832 137.526 137.41 137.355 137.509 143.499 
143.033 142.538 142.038 141.578 141.071 140.601 140.014 139.439 138.801 
138.276 137.834 137.632 137.514 137.624 137.676 137.875 143.881 143.454 
142.97 142.519 142.047 141.605 141.151 140.654 140.142 139.514 138.994 
138.394 138.107 137.786 137.817 137.773 137.945 137.995 138.14 141.187 
140.212 140.826 141.16 139.217 139.83 140.158 140.874 141.338 138.331 
138.857 139.169 139.858 140.296 141.059 141.545 137.68 138.068 138.378 
138.955 139.385 140.037 140.498 141.242 141.764 137.297 137.533 137.834 
138.292 138.746 139.263 139.725 140.307 140.873 141.586 142.245 137.283 
137.315 137.591 137.875 138.351 138.765 139.265 139.708 140.274 140.857 
141.574 142.249 142.943 137.596 137.483 137.706 137.783 138.213 138.497 
139.034 139.387 139.957 140.4 141.076 141.666 142.376 142.978 143.556 
137.957 137.844 137.99 137.966 138.281 138.451 138.956 139.255 139.842 
140.191 140.825 141.267 141.939 142.458 143.067 143.564 144.061 138.208 
138.143 138.255 138.215 138.452 138.543 138.991 139.234 139.823 140.133 
140.754 141.099 141.727 142.126 142.735 143.157 143.701 144.109 144.594 
141.81 141.822 142.111 142.791 142.078 142.277 142.955 143.18 143.913 
142.361 142.616 143.377 143.518 144.23 144.4 145.203 142.579 142.873 
143.726 143.975 144.758 144.874 145.629 145.788 146.637 142.972 143.127 
143.942 144.246 145.113 145.377 146.183 146.32 147.118 147.275 148.115 
143.563 143.595 144.278 144.469 145.299 145.638 146.527 146.808 147.632 
147.805 148.633 148.786 149.637 144.103 144.144 144.739 144.841 145.569 
145.837 146.719 147.07 147.936 148.217 149.029 149.272 150.129 150.341 
151.222 144.566 144.614 145.201 145.284 145.963 146.147 146.961 147.267 
148.117 148.436 149.223 149.535 150.335 150.685 151.53 151.854 152.674 
145.066 145.085 145.682 145.749 146.418 146.549 147.296 147.524 148.317 
148.604 149.374 149.674 150.435 150.784 151.575 151.971 152.74 153.118 
153.809 147.834 147.34 147.205 146.455 146.834 146.719 146.017 145.887 
145.226 146.342 146.224 145.516 145.423 144.745 144.678 144.034 145.888 
145.751 145.015 144.899 144.149 144.089 143.359 143.372 142.674 145.462 
145.302 144.556 144.406 143.645 143.505 142.755 142.67 141.976 141.967 
141.317 145.143 144.922 144.192 143.986 143.27 143.079 142.395 142.21 
141.57 141.42 140.839 140.743 140.201 144.973 144.7 144.014 143.727 
143.049 142.798 142.165 141.952 141.338 141.141 140.542 140.39 139.857 
139.763 139.318 144.869 144.597 143.955 143.645 142.988 142.679 142.045 
141.781 141.159 140.928 140.291 140.103 139.527 139.433 139.005 138.983 
138.692 144.794 144.525 143.916 143.618 142.98 142.66 142.016 141.709 
141.077 140.789 140.158 139.891 139.312 139.137 138.724 138.686 138.454 
138.482 138.347 
POINT_DATA 1002
SCALARS Distance double
LOOKUP_TABLE default
145.123 144.295 144.9 145.781 145.488 146.152 146.424 146.208 146.915 
147.4 147.221 147.287 147.638 148.297 148.823 148.32 148.556 148.494 
149.19 149.878 150.437 149.42 149.568 149.559 150.276 151.079 151.699 
152.292 150.258 150.221 150.584 151.476 152.446 153.109 153.672 154.214 
151.065 150.818 151.587 152.596 153.713 154.482 155.05 155.575 155.999 
152.112 151.638 152.794 153.785 154.87 155.709 156.357 156.938 157.371 
157.668 153.34 152.689 154.123 155.07 156.084 156.947 157.66 158.319 
158.818 159.099 159.27 143.937 144.542 143.549 144.168 143.061 145.172 
143.762 142.535 144.879 146.056 143.34 142.014 144.581 145.808 147.286 
142.817 141.471 144.287 145.515 146.946 148.555 142.279 141.067 143.919 
145.372 146.603 148.155 149.518 142.044 140.997 143.569 145.187 146.478 
147.817 149.229 150.163 142.167 141.206 143.461 144.888 146.199 147.575 
149.021 150.06 150.757 142.425 141.547 143.563 144.735 145.835 147.201 
148.849 150.097 150.796 151.557 142.45 143.453 143.475 144.568 144.65 
144.625 145.893 146.026 145.827 145.693 147.364 147.482 147.374 147.142 
146.963 148.642 148.925 148.746 148.91 148.83 148.772 149.962 150.496 
149.685 149.99 150.449 150.561 150.362 151.769 152.138 151.21 151.026 
151.377 151.717 151.598 151.172 153.606 153.493 153.45 153.185 153.016 
152.92 152.716 152.327 151.889 154.875 154.466 155.242 155.468 155.371 
154.885 154.277 153.799 153.412 153.039 154.367 154.778 156.202 155.092 
156.589 158.076 155.432 156.823 158.57 160.385 156.079 157.148 158.96 
161.198 162.987 156.854 157.747 159.362 161.847 163.844 165.033 157.105 
158.138 159.638 162.187 164.38 165.593 166.578 156.72 157.917 159.461 
161.978 164.409 165.835 166.973 168.241 156.141 157.426 159.037 161.357 
163.842 165.624 167.002 168.512 169.818 155.631 156.997 158.695 160.79 
163.044 164.999 166.62 168.22 169.73 170.785 155.222 157.171 156.167 
159.313 158.286 157.236 161.877 160.677 159.53 158.271 164.265 163.16 
161.934 160.624 159.135 166.105 165.236 164.075 162.819 161.433 159.87 
167.871 167.048 165.911 164.654 163.372 161.987 160.42 169.591 168.751 
167.597 166.353 165.03 163.689 162.283 160.704 170.816 170.112 168.989 
167.838 166.586 165.177 163.793 162.373 160.81 171.415 171.251 171.725 
171.346 171.644 170.309 170.929 170.763 170.23 169.121 169.799 169.414 
169.631 168.935 167.918 168.574 168.334 168.552 168.188 167.5 166.463 
167.494 167.221 167.447 167.129 166.6 165.88 164.921 166.131 165.799 
166.19 165.993 165.578 165.033 164.373 163.479 164.711 164.476 164.781 
164.741 164.548 164.133 163.602 162.917 161.953 163.525 163.352 163.548 
163.544 163.513 163.234 162.709 162.112 161.349 160.346 170.591 171.066 
169.824 170.148 168.958 171.348 169.228 168.247 170.388 171.098 168.419 
167.266 169.373 170.021 170.002 167.205 165.767 168.278 168.875 169.018 
168.791 165.546 164.16 166.739 167.496 167.879 167.961 167.742 163.869 
162.709 164.966 165.787 166.345 166.683 166.693 166.368 162.296 161.32 
163.258 164.068 164.662 165.094 165.301 165.213 164.916 160.798 159.964 
161.638 162.44 163.084 163.548 163.872 164.001 163.925 163.707 154.781 
156.194 155.318 157.078 156.087 158.012 158.061 156.956 159.24 160.14 
159.024 157.85 160.315 161.476 162.31 159.938 158.642 161.263 162.574 
163.613 164.357 160.608 159.216 161.993 163.466 164.812 165.692 166.231 
161.001 159.611 162.374 163.91 165.558 166.781 167.447 167.917 161.234 
159.864 162.588 164.058 165.743 167.198 168.07 168.736 169.403 153.471 
153.772 152.359 152.703 151.205 154.314 151.589 150.12 153.301 155.074 
150.443 149.085 152.162 154.041 155.9 149.339 148.061 150.924 152.838 
154.762 156.67 148.361 147.124 149.795 151.578 153.506 155.367 157.298 
147.482 146.314 148.816 150.426 152.257 154.055 155.871 157.803 146.675 
145.621 147.898 149.357 151.063 152.806 154.528 156.368 158.226 145.99 