# vtk DataFile Version 4.0
vtk output
ASCII
DATASET POLYDATA
POINTS 1002 float
-79.4565 -105.406 58.6999 -79.6427 -104.555 58.0178 -80.4499 -104.913 58.2763 
-80.2621 -105.703 59.0717 -81.253 -105.145 58.8388 -79.054 -106.334 59.5402 
-80.9512 -105.962 59.6839 -81.8969 -105.484 59.7825 -79.6674 -106.777 59.8079 
-78.568 -107.638 60.417 -81.288 -106.651 60.2396 -82.2594 -106.355 60.5484 
-80.0128 -107.47 59.9975 -78.9085 -108.507 60.4182 -78.3477 -109.351 61.3754 
-81.2581 -107.92 60.133 -82.2369 -107.538 60.404 -80.0487 -108.623 59.8724 
-79.0436 -109.62 60.3199 -78.6096 -110.463 61.4467 -78.405 -111.046 62.6355 
-81.0035 -109.113 59.4403 -81.8905 -108.542 59.5374 -80.0299 -109.84 59.522 
-79.2203 -110.728 60.2951 -78.8632 -111.532 61.659 -78.7297 -112.098 63.0057 
-78.3869 -112.588 64.0162 -80.7707 -110.035 58.9962 -81.5386 -109.544 58.8303 
-80.1474 -110.699 59.5327 -79.6609 -111.55 60.6595 -79.3196 -112.404 62.1239 
-79.0951 -113.091 63.4376 -78.7719 -113.65 64.4533 -78.3173 -114.183 65.245 
-80.8061 -111.109 59.2423 -81.4249 -110.732 58.771 -80.4656 -111.566 60.1278 
-80.291 -112.27 61.453 -79.9918 -113.161 62.8464 -79.5982 -114.007 63.9533 
-79.2207 -114.694 64.8714 -78.8242 -115.267 65.7297 -78.4444 -115.762 66.434 
-81.1081 -112.258 59.9547 -81.5369 -111.858 59.2285 -80.9239 -112.66 60.9788 
-80.9163 -113.2 62.3118 -80.7098 -113.961 63.636 -80.2404 -114.828 64.6149 
-79.8097 -115.59 65.4314 -79.4625 -116.199 66.3176 -79.0948 -116.722 67.1083 
-78.724 -117.158 67.6522 -81.5111 -113.208 60.7726 -81.7739 -112.78 59.8801 
-81.3753 -113.689 61.8078 -81.3764 -114.23 63.0258 -81.2599 -114.857 64.2976 
-80.8767 -115.604 65.3234 -80.4753 -116.356 66.1496 -80.1911 -116.968 67.0387 
-79.87 -117.492 67.8764 -79.4603 -117.98 68.4392 -79.0364 -118.366 68.7742 
-80.1844 -103.895 57.5033 -80.9988 -104.281 57.7817 -80.6782 -103.21 56.8828 
-81.5032 -103.632 57.2264 -81.1413 -102.704 56.0617 -81.7826 -104.646 58.4152 
-82.0846 -103.122 56.5217 -81.492 -102.476 54.9563 -82.3759 -104.156 57.8366 
-82.5119 -105.217 59.4808 -82.5191 -102.8 55.5092 -81.6564 -102.339 53.6719 
-83.143 -103.585 57.0601 -83.2304 -104.854 58.7214 -82.9914 -106.157 60.299 
-82.5918 -102.646 54.2351 -81.7721 -102.187 52.4824 -83.5963 -103.091 55.9671 
-83.916 -104.26 57.5744 -83.6195 -105.753 59.3393 -82.971 -107.149 60.1557 
-82.5788 -102.701 52.969 -81.9797 -102.157 51.4495 -83.5547 -103.006 54.6162 
-84.1097 -103.911 56.1727 -83.9628 -105.357 57.9156 -83.4854 -106.733 59.3031 
-82.6376 -108.11 59.3414 -82.6933 -102.932 51.8639 -82.1595 -102.333 50.527 
-83.4723 -103.283 53.2909 -84.001 -104.035 54.7469 -84.0504 -105.354 56.4037 
-83.8452 -106.604 58.0995 -83.3107 -107.814 58.8403 -82.3417 -109.283 58.66 
-82.7484 -103.27 51.0069 -82.1578 -102.71 49.8483 -83.4897 -103.655 52.2019 
-83.9786 -104.275 53.5392 -84.1685 -105.463 55.0978 -84.2498 -106.686 56.8391 
-83.987 -107.715 58.0815 -83.151 -109.027 58.3768 -82.1553 -110.554 58.5053 
-82.6352 -103.742 50.4796 -82.0349 -103.281 49.5011 -83.4184 -104.11 51.4329 
-83.9707 -104.566 52.6117 -84.271 -105.486 54.0832 -84.5934 -106.666 55.7186 
-84.6286 -107.687 57.1494 -83.9198 -108.824 57.8903 -82.8446 -110.293 58.19 
-82.0728 -111.703 58.7909 -82.2541 -104.293 49.9603 -83.0447 -104.687 50.7636 
-82.6762 -105.456 50.4015 -83.4969 -105.92 51.1147 -83.1767 -106.792 50.8695 
-83.7817 -105.077 51.7102 -83.8629 -107.46 51.6753 -83.5179 -108.26 51.5048 
-84.0283 -106.488 52.2284 -84.188 -105.707 53.0971 -84.042 -109.063 52.4709 
-83.5833 -109.742 52.3316 -84.1949 -108.195 52.9388 -84.3618 -107.246 53.7507 
-84.6116 -106.711 54.7147 -83.9912 -110.547 53.3569 -83.3589 -111.148 53.3026 
-84.2973 -109.795 53.673 -84.4686 -108.911 54.3262 -84.7935 -108.153 55.229 
-84.9486 -107.784 56.2107 -83.6506 -112.026 54.3362 -82.9016 -112.431 54.443 
-84.2147 -111.357 54.4667 -84.4382 -110.517 54.9139 -84.5693 -109.76 55.6468 
-84.6459 -109.237 56.485 -84.4231 -108.941 57.2629 -83.1517 -113.431 55.6039 
-82.4443 -113.529 55.7869 -83.871 -113.069 55.5879 -84.2393 -112.332 55.8409 
-84.1983 -111.536 56.3743 -83.9503 -111.03 56.9705 -83.6199 -110.703 57.4583 
-83.2487 -110.44 57.8612 -82.7556 -114.5 57.1797 -82.152 -114.447 57.2762 
-83.4633 -114.505 57.1271 -83.9594 -114.159 57.1994 -83.9985 -113.423 57.5239 
-83.6325 -112.822 57.9472 -83.117 -112.556 58.2034 -82.6919 -112.286 58.3633 
-82.3843 -111.953 58.5768 -82.4986 -115.294 58.8225 -81.9645 -115.288 58.7696 
-83.1349 -115.411 58.8288 -83.6889 -115.456 58.7886 -83.9434 -115.052 58.9026 
-83.7894 -114.377 59.2245 -83.3154 -113.997 59.454 -82.7935 -113.827 59.4907 
-82.4075 -113.5 59.5645 -82.1014 -113.093 59.7376 -81.98 -113.9 61.215 
-82.3516 -114.308 61.1177 -82.2836 -115.162 62.7243 -82.7522 -114.73 61.0455 
-82.6958 -115.589 62.7379 -82.6636 -116.57 64.3439 -83.2662 -114.962 61.091 
-83.1988 -115.923 62.8507 -83.1282 -116.958 64.4865 -83.313 -117.912 66.1498 
-83.799 -115.23 61.025 -83.8061 -116.218 62.9812 -83.6988 -117.355 64.7046 
-83.7906 -118.381 66.2883 -84.0905 -119.238 68.1018 -84.0084 -115.864 60.6931 
-84.1564 -116.834 62.7871 -84.2126 -117.999 64.7751 -84.2529 -119.063 66.3547 
-84.4271 -119.974 68.0837 -84.6269 -120.916 70.0198 -83.7677 -116.37 60.4547 
-83.892 -117.491 62.3818 -84.1272 -118.782 64.5006 -84.3963 -119.88 66.263 
-84.6042 -120.781 67.8893 -84.7858 -121.788 69.8668 -84.9844 -122.796 71.6863 
-83.2665 -116.321 60.484 -83.2973 -117.539 62.2024 -83.4501 -119.047 64.151 
-83.9014 -120.373 66.0322 -84.4034 -121.367 67.6386 -84.7296 -122.401 69.4876 
-85.0206 -123.495 71.4836 -85.314 -124.291 72.9762 -82.674 -116.138 60.4939 
-82.7406 -117.265 62.1672 -82.7977 -118.774 63.9224 -83.1656 -120.316 65.753 
-83.8491 -121.577 67.3667 -84.4379 -122.742 68.999 -84.8252 -123.895 70.9371 
-85.1973 -124.789 72.7002 -85.4924 -125.277 73.9308 -82.099 -116.154 60.3478 
-82.2332 -117.205 61.9973 -82.3496 -118.562 63.6583 -82.6136 -120.082 65.3976 
-83.226 -121.508 67.0282 -83.9937 -122.847 68.4932 -84.5433 -124.116 70.153 
-84.8963 -125.113 71.9563 -85.2203 -125.732 73.4666 -85.4413 -126.043 74.6112 
-81.8189 -114.441 62.3118 -82.1563 -115.886 63.9514 -81.7299 -115.107 63.4919 
-82.6961 -117.38 65.784 -82.0753 -116.684 65.3027 -81.6453 -115.788 64.7886 
-83.546 -118.697 67.8511 -82.7257 -118.201 67.3169 -81.9486 -117.461 66.6503 
-81.4029 -116.494 65.9899 -84.2968 -120.15 69.9524 -83.6083 -119.577 69.4284 
-82.6341 -119.082 68.6056 -81.7643 -118.274 67.7696 -81.1013 -117.253 66.9684 
-84.7701 -122.005 71.778 -84.3012 -121.102 71.4441 -83.4856 -120.472 70.6678 
-82.4622 -119.915 69.7004 -81.5812 -118.994 68.8065 -80.8754 -117.897 67.9402 
-85.1817 -123.723 73.1543 -84.7888 -122.758 73.0747 -84.1693 -121.772 72.655 
-83.2285 -121.129 71.799 -82.1589 -120.491 70.7454 -81.3035 -119.493 69.777 
-80.5896 -118.404 68.84 -85.4743 -124.862 74.2437 -85.1296 -124.088 74.3453 
-84.6078 -123.065 74.2292 -83.8677 -122.206 73.661 -82.7986 -121.629 72.5952 
-81.7322 -120.929 71.4126 -80.9087 -119.932 70.3736 -80.1701 -118.899 69.3994 
-85.5077 -125.668 75.196 -85.2412 -125.023 75.5457 -84.785 -124.16 75.585 
-84.2422 -123.315 75.1235 -83.4056 -122.688 74.1049 -82.3158 -122.127 72.8318 
-81.3257 -121.342 71.6542 -80.4865 -120.343 70.6336 -79.7032 -119.325 69.6812 
-85.3188 -126.597 75.652 -85.2248 -126.053 76.4983 -84.9652 -127.018 76.7058 
-84.7381 -126.3 77.6801 -84.2587 -127.09 77.2862 -84.8466 -125.236 76.9397 
-83.9791 -126.278 77.9559 -82.9959 -126.926 77.0807 -84.3677 -125.36 77.8809 
-84.4012 -124.382 76.6315 -82.7175 -126.114 77.2837 -81.3943 -126.75 76.6007 
-83.6232 -125.33 77.6811 -83.889 -124.567 76.9697 -83.7861 -123.717 75.5179 
-81.1097 -125.763 76.6074 -80.0327 -126.197 76.3306 -82.2783 -125.176 76.7692 
-82.9053 -124.594 76.4557 -83.0161 -123.993 75.39 -82.7987 -123.156 74.0728 
-79.5588 -124.953 76.2154 -78.897 -125.162 75.8995 -80.5603 -124.724 76.0544 
-81.3674 -124.441 75.6324 -81.7492 -124.001 74.9314 -81.8929 -123.338 73.9162 
-81.7127 -122.431 72.7615 -78.1175 -124.068 75.5493 -77.5815 -124.321 75.0535 
-78.9357 -123.961 75.5131 -79.7709 -123.99 74.9926 -80.2869 -123.799 74.3162 
-80.6629 -123.216 73.6188 -80.8702 -122.409 72.7087 -80.7296 -121.451 71.6305 
-76.7611 -123.567 74.5816 -76.1457 -123.917 74.1812 -77.5482 -123.317 74.7222 
-78.406 -123.313 74.4472 -79.0162 -123.309 73.7904 -79.4105 -122.906 73.107 
-79.7508 -122.15 72.4566 -79.875 -121.293 71.5821 -79.7871 -120.353 70.5872 
-75.5532 -123.202 73.7324 -74.8748 -123.534 73.556 -76.3475 -122.888 73.7914 
-77.177 -122.699 73.7345 -77.8512 -122.597 73.3465 -78.2879 -122.335 72.6592 
-78.6074 -121.755 72.0086 -78.8321 -120.984 71.3557 -78.928 -120.156 70.5117 
-78.978 -119.274 69.6091 -85.1249 -126.636 74.2975 -84.9409 -127.248 75.1744 
-84.6292 -127.046 73.5648 -84.2549 -127.527 74.23 -83.9153 -127.094 72.6656 
-84.4626 -127.527 75.9272 -83.2543 -127.432 73.1504 -82.9512 -126.791 71.9054 
-83.5025 -127.549 74.7695 -83.393 -127.394 76.2426 -82.1348 -127.092 72.2284 
-81.9215 -126.114 71.3107 -82.2584 -127.393 73.5529 -82.1111 -127.416 75.0747 
-81.7175 -127.3 76.1365 -81.1166 -126.317 71.5223 -80.956 -125.125 70.5855 
-81.1253 -127.082 72.481 -80.859 -127.407 73.84 -80.4629 -127.518 75.1561 
-80.22 -127.149 75.9703 -80.1076 -125.232 70.7143 -79.9616 -124.242 69.4584 
-80.1668 -126.239 71.6408 -79.9391 -126.948 72.6716 -79.5697 -127.292 73.9283 
-79.4319 -127.091 74.9806 -79.3183 -126.258 75.6422 -79.0962 -124.312 69.516 
-79.0417 -123.605 68.1104 -79.1871 -125.143 70.6913 -79.1565 -125.873 71.6857 
-78.9284 -126.304 72.7392 -78.7941 -126.298 73.6963 -78.7163 -125.819 74.3984 
-78.2744 -125.073 74.8872 -78.3395 -123.526 68.2119 -78.3956 -122.927 66.9521 
-78.3137 -124.162 69.4622 -78.328 -124.736 70.5778 -78.2664 -125.083 71.6484 
-78.0921 -125.157 72.5588 -77.8452 -125.022 73.1403 -77.3785 -124.77 73.6031 
-76.7007 -124.409 74.0267 -77.8771 -122.661 67.1672 -77.9611 -122.101 66.0997 
-77.7404 -123.213 68.2947 -77.608 -123.727 69.3692 -77.5242 -124.084 70.4377 
[...]
CELL_DATA 2000
SCALARS Distance double
LOOKUP_TABLE default
143.204 144.026 143.739 143.999 144.91 144.563 144.798 144.522 144.87 
145.926 145.471 145.633 145.308 145.658 145.496 146.106 146.855 146.443 
146.496 146.141 146.471 146.312 146.996 146.951 147.795 147.331 147.143 
147.184 146.949 147.294 147.171 147.921 147.905 148.833 148.767 149.612 
147.607 147.485 147.698 147.586 148.11 148.054 148.915 148.906 149.901 
149.844 150.743 150.576 151.338 148.263 148.002 148.479 148.298 149.093 
149.017 150.048 150.002 151.053 150.961 151.895 151.733 152.55 152.321 
153.072 149.319 149.004 149.683 149.42 150.369 150.223 151.336 151.237 
152.298 152.159 153.091 152.918 153.772 153.566 154.367 154.102 154.831 
150.451 150.212 150.98 150.767 151.716 151.582 152.638 152.538 153.542 
153.402 154.306 154.134 154.999 154.81 155.642 155.404 156.152 155.843 
156.484 142.811 142.411 142.966 143.646 141.977 142.558 143.316 143.849 
144.576 141.598 142.175 142.993 143.553 144.425 144.916 145.705 141.174 
141.812 142.668 143.271 144.195 144.789 145.716 146.142 146.774 140.659 
141.334 142.183 142.879 143.766 144.479 145.391 146.034 146.729 147.044 
147.313 140.254 140.837 141.647 142.318 143.162 143.914 144.78 145.544 
146.284 146.826 147.21 147.383 147.524 140.068 140.537 141.325 141.852 
142.672 143.311 144.197 144.915 145.761 146.366 146.957 147.259 147.579 
147.672 148.016 140.034 140.434 141.215 141.638 142.418 142.924 143.809 
144.444 145.397 145.996 146.771 147.127 147.62 147.77 148.182 148.335 
148.897 140.149 140.464 141.238 141.59 142.335 142.741 143.566 144.128 
145.097 145.73 146.616 147.058 147.649 147.855 148.284 148.461 148.974 
149.257 149.919 140.567 141.673 141.255 141.611 143.001 142.448 142.724 
142.305 142.677 144.497 143.872 144.122 143.528 143.847 143.415 143.898 
145.998 145.411 145.694 145.03 145.323 144.733 145.203 144.8 145.436 
147.36 146.873 147.181 146.59 146.857 146.254 146.638 146.177 146.726 
146.388 146.935 148.576 148.18 148.532 148.02 148.285 147.713 147.998 
147.525 147.907 147.568 147.946 147.65 147.923 149.717 149.386 149.863 
149.405 149.774 149.165 149.441 148.845 149.136 148.669 148.951 148.565 
148.773 148.425 148.581 150.825 150.544 151.14 150.789 151.316 150.759 
151.11 150.401 150.674 150.005 150.288 149.701 149.957 149.415 149.64 
149.154 149.371 151.914 151.657 152.272 152.035 152.646 152.278 152.725 
152.116 152.395 151.664 151.928 151.223 151.518 150.84 151.121 150.464 
150.735 150.129 150.393 151.24 151.646 151.886 152.829 152.088 152.341 
153.331 153.579 154.63 152.516 152.805 153.841 154.114 155.196 155.464 
156.615 152.952 153.246 154.349 154.656 155.81 156.077 157.26 157.529 
158.763 153.409 153.702 154.843 155.197 156.458 156.765 158.007 158.235 
159.479 159.737 161.034 153.655 154.059 155.109 155.6 156.851 157.355 
158.624 158.969 160.156 160.438 161.696 162.035 163.341 153.491 154.053 
154.945 155.597 156.697 157.459 158.671 159.331 160.452 160.932 162.065 
162.548 163.801 164.256 165.413 153.09 153.698 154.525 155.21 156.195 
157.03 158.178 159.056 160.196 160.932 162.026 162.679 163.844 164.483 
165.614 166.089 166.965 152.725 153.287 154.132 154.762 155.73 156.479 
157.597 158.461 159.643 160.5 161.654 162.444 163.586 164.333 165.421 
166.063 166.95 167.377 168.008 151.3 152.927 152.043 151.963 154.773 
153.82 153.813 152.839 152.806 156.822 155.815 155.872 154.823 154.825 
153.781 153.747 159.017 157.99 158.123 157.012 157.023 155.884 155.816 
154.723 154.618 161.32 160.277 160.466 159.338 159.383 158.179 158.095 
156.872 156.719 155.559 155.387 163.666 162.646 162.841 161.704 161.747 
160.554 160.48 159.226 159.053 157.77 157.549 156.327 156.11 165.738 
164.907 165.067 164.021 163.989 162.852 162.728 161.549 161.339 160.098 
159.808 158.542 158.232 157.023 156.742 167.255 166.705 166.824 166.017 
165.916 164.933 164.728 163.659 163.383 162.242 161.884 160.691 160.288 
159.095 158.702 157.559 157.205 168.293 167.953 168.086 167.507 167.416 
166.632 166.408 165.486 165.172 164.138 163.735 162.622 162.166 161.025 
160.557 159.427 158.974 157.895 157.482 168.844 169.557 169.09 168.672 
169.906 169.691 169.267 168.715 168.039 169.527 169.749 169.431 169.163 
168.476 167.904 167.057 168.525 169.033 168.832 169.008 168.421 168.157 
167.298 166.771 165.808 167.303 167.858 167.635 168.101 167.629 167.774 
166.997 166.785 165.82 165.37 164.332 165.892 166.502 166.176 166.754 
166.319 166.729 166.073 166.196 165.337 165.172 164.177 163.787 162.734 
164.287 164.935 164.582 165.212 164.819 165.349 164.811 165.126 164.404 
164.492 163.62 163.47 162.471 162.125 161.089 162.795 163.35 163.042 
163.626 163.315 163.878 163.467 163.872 163.259 163.477 162.701 162.756 
161.845 161.71 160.706 160.431 159.446 161.539 161.995 161.708 162.199 
161.918 162.449 162.108 162.563 162.03 162.323 161.601 161.762 160.927 
160.955 160.035 159.921 158.979 158.779 157.894 168.888 168.877 169.186 
169.609 168.372 168.945 169.383 169.739 169.901 167.446 168.181 168.532 
169.161 169.283 169.667 169.45 166.275 167.09 167.365 168.073 168.163 
168.744 168.595 168.916 168.486 164.875 165.8 166.083 166.833 166.94 
167.562 167.54 167.992 167.755 167.928 167.412 163.262 164.271 164.576 
165.464 165.599 166.325 166.341 166.933 166.795 167.166 166.74 166.813 
166.094 161.645 162.601 162.88 163.847 163.996 164.861 164.839 165.592 
165.396 166.006 165.568 165.931 165.225 165.315 164.464 160.196 161.023 
161.238 162.14 162.276 163.166 163.142 163.95 163.726 164.419 163.981 
164.52 163.896 164.237 163.508 163.645 162.914 158.913 159.634 159.789 
160.567 160.664 161.473 161.467 162.246 162.091 162.763 162.421 162.946 
162.453 162.864 162.316 162.619 162.059 162.216 161.641 152.822 153.518 
153.531 154.278 154.305 154.329 155.193 155.13 155.952 155.183 155.21 
156.201 156.16 157.101 156.957 157.853 156.161 156.19 157.244 157.227 
158.253 158.168 159.145 158.975 159.9 157.076 157.195 158.269 158.289 
159.301 159.281 160.304 160.251 161.261 161.079 161.976 157.735 157.999 
159.078 159.228 160.208 160.26 161.263 161.325 162.422 162.41 163.433 
163.181 164 158.153 158.501 159.54 159.855 160.849 161.052 162.059 
162.218 163.333 163.476 164.585 164.555 165.453 165.15 165.823 158.42 
158.788 159.751 160.155 161.158 161.537 162.592 162.91 164.016 164.28 
165.363 165.526 166.442 166.399 167.073 166.8 167.284 158.585 158.956 
159.847 160.273 161.244 161.724 162.787 163.275 164.355 164.777 165.773 
166.094 166.952 167.137 167.821 167.8 168.283 168.04 168.337 152.064 
151.096 151.932 152.677 150.054 150.912 151.616 152.544 153.361 148.92 
149.798 150.473 151.433 152.241 153.24 154.157 147.787 148.626 149.301 
150.269 151.11 152.122 153.047 154.083 155.079 146.822 147.553 148.219 
149.128 149.999 151.013 151.948 152.97 153.91 154.983 155.946 146.03 
146.681 147.301 148.108 148.924 149.906 150.817 151.845 152.718 153.761 
154.637 155.749 156.615 145.259 145.909 146.469 147.21 147.9 148.808 
149.619 150.646 151.472 152.516 153.335 154.413 155.258 156.349 157.122 
144.437 145.099 145.621 146.34 146.933 147.752 148.436 149.395 150.161 
151.212 152.02 153.098 153.931 155.014 155.814 156.831 157.493 143.637 
144.266 144.772 145.466 146.025 146.772 147.381 148.226 148.929 149.905 
150.704 151.768 152.605 153.689 154.496 155.538 156.242 157.179 157.735 
143.373 143.418 143.753 144.524 143.578 143.871 144.667 144.985 145.792 
143.832 144.082 144.892 145.184 146.026 146.316 147.157 144.252 144.408 
145.248 145.482 146.392 146.644 147.569 147.792 148.719 144.962 144.981 
145.876 145.987 146.992 147.163 148.204 148.358 149.373 149.511 150.52 
145.887 145.842 146.778 146.793 147.841 147.929 149.03 149.133 150.203 
150.289 151.327 151.419 152.44 146.779 146.783 147.7 147.739 148.746 
148.833 149.89 149.999 151.052 151.153 152.182 152.27 153.283 153.361 
154.332 147.529 147.592 148.458 148.562 149.498 149.642 150.628 150.789 
151.802 151.956 152.977 153.103 154.099 154.191 155.136 155.199 156.066 
148.193 148.273 149.103 149.225 150.117 150.286 151.237 151.435 152.431 
152.637 153.654 153.84 154.824 154.958 155.862 155.948 156.765 156.82 
157.551 148.807 150.053 149.536 149.752 151.383 150.865 151.162 150.566 
150.809 152.88 152.313 152.73 152.097 152.413 151.721 151.98 154.579 
153.947 154.418 153.767 154.163 153.441 153.742 152.973 153.226 156.23 
155.669 156.098 155.478 155.875 155.21 155.539 154.793 155.056 154.258 
154.481 157.598 157.194 157.621 157.086 157.464 156.872 157.204 156.536 
156.798 156.064 156.278 155.492 155.65 158.786 158.471 158.96 158.514 
158.928 158.412 158.783 158.167 158.437 157.737 157.936 157.211 157.359 
156.584 156.663 159.923 159.654 160.179 159.8 160.241 159.814 160.237 
159.721 160.04 159.372 159.566 158.83 158.966 158.22 158.297 157.514 
157.53 160.943 160.753 161.294 160.989 161.451 161.082 161.537 161.117 
161.509 160.947 161.187 160.474 160.598 159.826 159.886 159.102 159.103 
158.313 158.279 148.47 148.341 148.826 149.68 148.209 148.695 149.535 
150.033 150.924 148.048 148.569 149.405 149.884 150.771 151.313 152.339 
147.751 148.376 149.287 149.794 150.711 151.209 152.28 152.868 154.041 
147.377 148.029 149.028 149.66 150.649 151.192 152.24 152.83 153.993 
154.615 155.715 147.21 147.711 148.683 149.348 150.388 151.057 152.051 
152.692 153.687 154.398 155.41 156.105 157.024 147.28 147.649 148.507 
149.04 150.045 150.729 151.739 152.392 153.268 153.922 154.789 155.565 
156.498 157.263 158.152 147.303 147.698 148.473 148.912 149.832 150.432 
151.492 152.115 153.075 153.575 154.411 154.971 155.904 156.655 157.676 
158.409 159.312 147.181 147.63 148.388 148.835 149.69 150.248 151.303 
151.947 153.041 153.546 154.482 154.848 155.757 156.254 157.288 157.959 
158.966 159.587 160.388 147.639 146.259 147.136 147.481 144.71 145.684 
146.053 146.974 147.346 142.958 144.047 144.449 145.482 145.874 146.817 
147.158 141.039 142.183 142.596 143.772 144.178 145.246 145.567 146.535 
146.799 139.141 140.197 140.53 141.784 142.219 143.437 143.791 144.854 
145.141 146.119 146.419 137.475 138.335 138.541 139.68 140.118 141.402 
141.879 143.05 143.459 144.488 144.917 145.87 146.328 136.201 136.826 
136.976 137.831 138.227 139.374 139.952 141.171 141.726 142.842 143.372 
144.418 144.981 145.937 146.45 135.407 135.819 136.019 136.553 136.916 
137.735 138.331 139.399 140.05 141.156 141.728 142.828 143.388 144.494 
145.036 146.035 146.469 134.972 135.275 135.563 135.896 136.273 136.759 
137.325 138.078 138.771 139.674 140.302 141.249 141.803 142.842 143.393 
144.48 144.978 145.967 146.351 134.884 135.086 135.166 135.543 135.45 
135.469 135.907 135.901 136.298 135.984 135.909 136.394 136.374 136.856 
136.787 137.328 136.742 136.512 136.976 136.934 137.523 137.467 138.058 
137.989 138.68 137.759 137.368 137.753 137.589 138.195 138.172 138.83 
138.773 139.4 139.376 140.095 138.921 138.468 138.794 138.469 138.973 
138.863 139.516 139.506 140.148 140.099 140.718 140.738 141.499 140.068 
139.634 139.951 139.564 139.971 139.706 140.258 140.178 140.85 140.829 
141.486 141.424 142.113 142.167 143.023 141.172 140.749 141.046 140.683 
141.063 140.739 141.203 140.987 141.604 141.546 142.266 142.228 142.932 
142.879 143.637 143.727 144.595 142.233 141.812 142.053 141.711 142.075 
141.79 142.239 141.976 142.511 142.355 143.033 143.002 143.738 143.706 
144.415 144.398 145.141 145.247 146.015 142.848 143.668 143.052 142.678 
144.634 143.955 143.663 143.002 142.742 145.979 145.133 144.936 144.146 
143.952 143.209 142.991 147.69 146.719 146.564 145.628 145.462 144.578 
144.374 143.531 143.314 149.456 148.506 148.342 147.371 147.194 146.221 
146.01 145.047 144.835 143.945 143.82 151.152 150.234 150.071 149.129 
148.952 147.987 147.79 146.785 146.583 145.595 145.463 144.577 144.526 
152.892 151.955 151.821 150.855 150.686 149.725 149.549 148.579 148.402 
147.411 147.259 146.299 146.196 145.308 145.228 154.647 153.738 153.638 
152.658 152.496 151.492 151.307 150.326 150.151 149.198 149.032 148.085 
147.926 146.997 146.865 145.985 145.913 156.282 155.458 155.377 154.466 
154.328 153.338 153.157 152.131 151.939 150.94 150.753 149.799 149.605 
148.679 148.493 147.608 147.494 146.679 146.674 147.361 148.148 148.021 
148.598 149.146 148.915 149.527 149.338 149.983 150.309 150.034 150.719 
150.442 151.197 150.926 151.689 151.551 151.3 152.097 151.79 152.63 
152.312 153.16 152.807 153.515 152.827 152.626 153.539 153.262 154.14 
153.815 154.656 154.318 155.032 154.582 155.043 154.075 153.937 154.909 
154.713 155.603 155.307 156.09 155.764 156.464 156.07 156.587 156.011 
156.359 155.219 155.147 156.113 156.013 156.915 156.701 157.478 157.162 
157.869 157.497 158.115 157.599 158.065 157.402 157.834 156.241 156.222 
157.173 157.137 158.064 157.942 158.781 158.532 159.293 158.947 159.626 
159.166 159.703 159.118 159.56 158.939 159.4 157.137 157.176 158.134 
158.151 159.11 159.059 159.956 159.8 160.611 160.353 161.052 160.671 
161.195 160.687 161.069 160.527 160.884 160.378 160.745 139.413 139.237 
138.931 138.239 139.258 138.826 138.047 137.766 137.146 139.447 138.92 
138.125 137.684 136.993 136.736 136.214 139.826 139.197 138.398 137.854 
137.156 136.736 136.167 135.902 135.479 140.328 139.655 138.838 138.21 
137.514 137.004 136.426 136.01 135.502 135.237 134.886 140.803 140.171 
139.38 138.72 138.023 137.445 136.87 136.362 135.796 135.352 134.833 
134.631 134.35 141.25 140.653 139.932 139.291 138.619 138.011 137.433 
136.87 136.301 135.735 135.152 134.694 134.286 134.143 134.028 141.731 
141.15 140.495 139.873 139.244 138.63 138.052 137.462 136.908 136.309 
135.779 135.187 134.797 134.354 134.227 134.043 134.121 142.189 141.663 
141.067 140.479 139.905 139.291 138.742 138.116 137.587 136.968 136.513 
135.922 135.622 135.089 134.991 134.573 134.648 134.381 134.536 139.412 
138.276 138.966 139.335 137.211 137.867 138.28 139.058 139.618 136.236 
136.823 137.211 138.012 138.592 139.42 139.976 135.443 135.888 136.169 
136.905 137.443 138.328 138.889 139.708 140.161 134.908 135.223 135.45 
135.953 136.406 137.161 137.737 138.58 139.114 139.875 140.351 134.508 
134.812 135.132 135.456 135.871 136.318 136.856 137.52 138.15 138.901 
139.523 140.213 140.805 134.197 134.471 134.868 135.226 135.673 135.993 
136.462 136.877 137.486 138.095 138.81 139.487 140.175 140.802 141.419 
134.154 134.245 134.555 134.904 135.344 135.755 136.214 136.601 137.147 
137.618 138.31 138.894 139.613 140.217 140.854 141.429 141.991 134.444 
134.321 134.486 134.629 134.993 135.359 135.854 136.299 136.877 137.34 
138.004 138.504 139.199 139.725 140.365 140.891 141.461 141.987 142.518 
140.147 140.113 140.48 141.318 140.395 140.614 141.439 141.777 142.686 
140.742 140.962 141.748 142.006 142.878 143.221 144.161 140.909 141.222 
142.004 142.309 143.132 143.443 144.329 144.704 145.627 141.059 141.331 
142.117 142.477 143.314 143.664 144.515 144.868 145.754 146.138 146.996 
141.468 141.583 142.339 142.601 143.447 143.799 144.667 145.032 145.898 
146.267 147.105 147.45 148.21 142.055 142.101 142.82 142.943 143.736 
143.977 144.82 145.157 146.014 146.39 147.214 147.56 148.303 148.608 
149.305 142.609 142.683 143.384 143.476 144.205 144.342 145.09 145.327 
146.111 146.46 147.264 147.641 148.396 148.711 149.405 149.693 150.386 
143.114 143.201 143.896 144.006 144.707 144.815 145.488 145.627 146.309 
146.557 147.304 147.661 148.438 148.796 149.534 149.828 150.532 150.802 
151.498 147.467 146.761 146.78 146.074 145.963 146.008 145.227 145.275 
144.486 145.04 145.121 144.275 144.337 143.445 143.546 142.681 144.127 
144.16 143.286 143.32 142.38 142.443 141.519 141.656 140.788 143.443 
143.336 142.464 142.38 141.45 141.417 140.519 140.559 139.72 139.813 
139.008 143.033 142.8 141.945 141.715 140.818 140.638 139.78 139.695 
138.893 138.879 138.098 138.135 137.408 142.792 142.497 141.682 141.363 
140.526 140.211 139.389 139.139 138.333 138.172 137.369 137.31 136.578 
136.64 136.083 142.667 142.333 141.582 141.226 140.471 140.09 139.326 
138.941 138.155 137.797 136.997 136.729 136.005 135.914 135.388 135.496 
135.203 142.674 142.303 141.621 141.234 140.548 140.141 139.432 138.998 
138.265 137.808 137.084 136.631 135.98 135.622 135.131 134.988 134.708 
134.815 134.716 
POINT_DATA 1002
SCALARS Distance double
LOOKUP_TABLE default
143.463 142.669 143.482 144.274 144.326 144.264 145.093 145.314 145.032 
145.319 146.007 146.459 145.805 146.142 146.861 146.87 147.243 146.62 
146.997 147.853 148.672 147.326 147.432 147.367 147.903 148.869 149.778 
150.389 147.702 147.693 148.071 148.897 149.949 150.888 151.564 152.063 
148.615 148.485 149.124 150.089 151.164 152.048 152.75 153.338 153.816 
149.914 149.561 150.524 151.462 152.463 153.27 153.958 154.611 155.153 
155.526 151.163 150.632 151.864 152.763 153.692 154.475 155.176 155.864 
156.451 156.852 157.074 142.284 143.132 141.818 142.726 141.39 144.091 
142.411 140.995 143.842 145.345 142.033 140.499 143.563 145.184 146.624 
141.475 140.009 143.043 144.694 146.299 147.269 141.03 139.726 142.439 
144.008 145.643 146.914 147.453 140.856 139.625 142.091 143.488 145.101 
146.547 147.414 147.876 140.823 139.656 141.969 143.195 144.749 146.345 
147.425 148.026 148.649 140.913 139.88 141.979 143.06 144.444 146.1 
147.407 148.119 148.713 149.566 140.911 141.943 142.167 143.234 143.605 
142.995 144.777 145.11 144.356 144.193 146.347 146.54 145.961 145.656 
145.766 147.735 147.808 147.465 147.148 147.113 147.302 148.999 148.925 
148.864 148.531 148.318 148.293 148.247 150.237 149.991 150.357 150.106 
149.691 149.403 149.163 148.918 151.409 151.078 151.778 151.818 151.413 
150.925 150.542 150.171 149.838 152.489 152.178 152.923 153.241 153.121 
152.657 152.205 151.809 151.386 150.985 152.106 152.57 153.814 153.07 
154.356 155.723 153.538 154.918 156.315 157.809 153.998 155.515 157.002 
158.465 160.018 154.453 156.082 157.781 159.242 160.732 162.356 154.609 
156.27 158.208 159.888 161.342 163.02 164.651 154.314 155.918 157.908 
159.902 161.57 163.286 165.101 166.489 153.864 155.404 157.269 159.362 
161.327 163.184 165.065 166.679 167.728 153.512 155.023 156.769 158.755 
160.814 162.823 164.753 166.447 167.726 168.57 152.864 154.785 153.793 
156.938 155.895 154.79 159.227 158.206 156.972 155.691 161.59 160.584 
159.361 157.956 156.514 163.995 162.941 161.719 160.363 158.842 157.293 
166.078 165.129 163.899 162.568 161.09 159.493 157.913 167.549 166.846 
165.774 164.512 163.071 161.493 159.88 158.313 168.584 168.127 167.278 
166.174 164.833 163.303 161.703 160.089 158.52 169.38 169.308 169.987 
169.782 169.952 168.714 169.516 169.118 168.996 167.721 168.469 167.992 
168.514 167.756 166.419 167.118 166.801 167.322 167.055 166.181 164.861 
165.588 165.286 165.824 165.813 165.355 164.476 163.197 163.933 163.644 
164.225 164.411 164.212 163.646 162.739 161.477 162.473 162.268 162.72 
163 162.993 162.574 161.883 160.914 159.728 161.245 161.103 161.406 
161.629 161.698 161.402 160.829 160.069 159.122 158.089 168.715 169.465 
168.454 168.918 167.746 169.769 167.883 166.712 168.8 169.284 166.677 
165.437 167.54 168.155 168.351 165.288 163.902 166.287 166.998 167.474 
167.445 163.624 162.263 164.818 165.695 166.332 166.582 166.195 161.918 
160.756 163.1 164.072 164.751 165.105 165.018 164.464 160.397 159.436 
161.402 162.327 163.028 163.401 163.438 163.233 162.831 159.07 158.236 
159.902 160.69 161.384 161.863 162.001 161.922 161.797 161.553 152.779 
154.303 153.474 155.214 154.231 156.066 156.188 155.131 157.202 158.039 
157.252 156.102 158.294 159.265 160.132 158.234 156.894 159.323 160.289 
161.36 162.293 158.872 157.443 160.132 161.173 162.33 163.578 164.428 
159.189 157.827 160.563 161.855 163.152 164.519 165.66 166.273 159.35 
158.083 160.716 162.197 163.727 165.17 166.401 167.266 167.682 151.24 
151.782 150.268 150.688 149.209 152.381 149.5 148.054 151.233 153.114 
148.328 146.982 150.078 152.025 154.008 147.352 146.136 148.981 150.942 
152.882 154.843 146.561 145.398 147.994 149.8 151.714 153.561 155.511 
145.771 144.61 147.077 148.634 150.427 152.279 154.17 156.097 144.919 
143.786 146.176 147.55 149.129 150.933 152.851 154.777 156.569 144.094 