# vtk DataFile Version 4.0
vtk output
ASCII
DATASET POLYDATA
POINTS 1002 float
-78.0342 -109.673 62.5321 -78.6041 -109.115 61.6965 -79.2014 -109.267 62.0712 
-78.5621 -110.04 62.8736 -79.7369 -109.602 62.4638 -77.3942 -110.743 63.1659 
-78.9713 -110.77 63.1685 -80.1824 -110.233 62.8176 -77.8233 -111.503 63.4184 
-76.6119 -112.429 63.5916 -79.0873 -111.88 63.2691 -80.3765 -111.224 63.067 
-78.0253 -112.64 63.5313 -76.8587 -113.472 63.7259 -75.8002 -114.323 64.1211 
-78.7631 -113.174 63.0052 -80.1138 -112.537 62.9947 -77.792 -113.897 63.3095 
-76.8595 -114.654 63.6812 -75.9062 -115.42 64.1948 -75.2915 -116.158 64.9464 
-78.197 -114.378 62.4091 -79.534 -113.793 62.5047 -77.2579 -115.014 62.749 
-76.6054 -115.735 63.4106 -75.9561 -116.508 64.2215 -75.4789 -117.287 65.1164 
-75.1725 -118.028 65.9447 -77.8084 -115.299 61.9123 -78.9766 -114.693 61.9129 
-76.9453 -115.959 62.3161 -76.4355 -116.776 63.1613 -76.0686 -117.631 64.2751 
-75.7904 -118.384 65.4133 -75.5613 -119.083 66.3614 -75.2167 -119.698 67.0789 
-77.7605 -116.11 61.9065 -78.5883 -115.522 61.5792 -77.1439 -116.801 62.5168 
-76.7175 -117.767 63.4056 -76.4157 -118.811 64.5446 -76.2425 -119.545 65.7974 
-76.0666 -120.059 66.8926 -75.7475 -120.543 67.7221 -75.327 -120.931 68.373 
-77.9851 -117.063 62.357 -78.4352 -116.521 61.6511 -77.6897 -117.687 63.2552 
-77.4022 -118.599 64.1972 -77.056 -119.707 65.1931 -76.8255 -120.523 66.3231 
-76.6601 -120.965 67.4406 -76.3352 -121.354 68.3506 -75.9081 -121.717 69.0742 
-75.5339 -121.953 69.6686 -78.4082 -118.019 63.0701 -78.5986 -117.473 62.1486 
-78.3175 -118.619 64.1145 -78.1588 -119.381 65.097 -77.8235 -120.314 66.0122 
-77.5041 -121.109 67.0101 -77.308 -121.595 68.0736 -77.0056 -122.024 68.9919 
-76.5351 -122.486 69.7077 -76.1013 -122.801 70.3116 -75.7911 -122.947 70.8116 
-79.6108 -108.753 61.0503 -80.2939 -108.94 61.4959 -80.6503 -108.348 60.5276 
-81.368 -108.676 60.9994 -81.4176 -107.9 60.0893 -80.9525 -109.256 61.9699 
-82.0723 -108.376 60.4848 -81.8296 -107.469 59.4809 -82.1711 -109.023 61.5653 
-81.6209 -109.734 62.5398 -82.5142 -107.995 59.7786 -82.2804 -107.154 58.6568 
-83.0165 -108.741 61.0992 -83.0215 -109.387 62.3865 -81.9523 -110.64 63.118 
-83.1986 -107.689 58.9939 -83.0004 -106.972 57.7892 -83.6941 -108.405 60.3775 
-83.9183 -109.158 61.9258 -83.24 -110.317 63.1009 -81.592 -112.044 63.225 
-83.9326 -107.58 58.2042 -83.6632 -106.8 56.8132 -84.413 -108.26 59.5567 
-84.5247 -109.08 60.9524 -83.8799 -110.288 62.3752 -82.6255 -111.775 63.1265 
-80.8378 -113.311 62.7033 -84.17 -107.571 57.1914 -83.9835 -106.66 55.6602 
-84.6238 -108.354 58.7131 -84.8465 -109.178 59.9516 -84.2596 -110.389 61.1578 
-83.1727 -111.712 62.3186 -81.7988 -112.914 62.5883 -80.0719 -114.191 61.9478 
-84.0487 -107.659 55.991 -84.0035 -106.771 54.6201 -84.2711 -108.537 57.6541 
-84.5855 -109.366 59.097 -84.4277 -110.448 60.1857 -83.6387 -111.648 61.3089 
-82.4761 -112.659 62.0738 -80.9506 -113.771 61.8535 -79.3839 -115.159 61.3638 
-83.9314 -107.957 54.9787 -83.8409 -107.215 53.9811 -83.999 -108.808 56.4662 
-84.1705 -109.631 58.0908 -84.2879 -110.535 59.3838 -83.9846 -111.535 60.4828 
-83.074 -112.47 61.4256 -81.6371 -113.52 61.6191 -80.0683 -114.884 61.214 
-78.9673 -116.298 61.2466 -83.7457 -108.275 54.0887 -83.9651 -109.037 55.1157 
-83.7466 -109.443 54.3368 -84.0483 -110.196 55.4377 -83.6061 -110.579 54.7783 
-84.0563 -109.881 56.648 -83.7108 -111.197 55.9078 -83.0987 -111.628 55.3405 
-84.0198 -110.978 56.8698 -84.1053 -110.714 58.2104 -82.8945 -112.035 56.4387 
-82.4856 -112.805 55.9223 -83.409 -111.793 57.1485 -83.8397 -111.692 58.2499 
-84.0506 -111.541 59.5183 -82.2188 -113.328 57.0707 -81.9883 -114.398 56.7166 
-82.5029 -112.668 57.6129 -83.0218 -112.53 58.3872 -83.4504 -112.474 59.5335 
-83.4417 -112.417 60.654 -81.8751 -115.359 57.9585 -81.4855 -116.192 57.8963 
-81.9854 -114.392 58.3154 -82.1239 -113.859 58.8359 -82.3615 -113.748 59.591 
-82.3484 -113.679 60.4989 -82.0336 -113.573 61.198 -81.598 -117.428 59.0948 
-81.0375 -117.748 59.2197 -81.8191 -116.683 59.2443 -81.7068 -115.868 59.6221 
-81.5406 -115.494 60.0618 -81.2685 -115.433 60.5035 -80.8141 -115.305 60.8424 
-80.3897 -115.071 61.0402 -81.3524 -118.999 60.3234 -80.7772 -118.991 60.4388 
-81.7244 -118.676 60.4022 -81.6781 -117.926 60.7432 -81.3901 -117.265 61.1122 
-81.0101 -117.045 61.3129 -80.4399 -116.972 61.3268 -79.7993 -116.777 61.2187 
-79.3109 -116.52 61.1541 -81.1668 -120.183 61.5525 -80.625 -120.056 61.5769 
-81.6493 -120.166 61.6797 -81.8132 -119.677 62.0608 -81.6357 -118.91 62.4893 
-81.3237 -118.393 62.7114 -80.8933 -118.177 62.7198 -80.2659 -117.988 62.5639 
-79.58 -117.794 62.317 -79.0142 -117.64 62.149 -79.0184 -118.594 63.6493 
-79.601 -118.67 63.8748 -79.6269 -119.788 65.3483 -80.2921 -118.803 64.1593 
-80.2579 -119.922 65.6639 -80.0517 -121.252 66.7763 -80.9227 -119.103 64.3013 
-80.8547 -120.233 65.8361 -80.6959 -121.553 67.0919 -80.5245 -122.642 68.3714 
-81.3855 -119.458 64.2645 -81.2997 -120.664 65.7303 -81.2159 -121.905 67.2023 
-81.271 -122.905 68.8326 -81.2393 -123.647 70.5594 -81.7674 -119.924 64.1353 
-81.7622 -121.071 65.5259 -81.6501 -122.184 67.0525 -81.7942 -123.088 69.0575 
-81.9627 -123.878 71.0627 -81.8896 -124.706 72.6298 -82.0328 -120.657 63.8052 
-82.2484 -121.631 65.2968 -82.212 -122.541 66.7545 -82.1964 -123.375 68.8778 
-82.4004 -124.21 71.196 -82.5433 -125.075 72.8791 -82.581 -125.854 74.0846 
-81.9202 -121.272 63.3082 -82.3069 -122.259 64.92 -82.5484 -123.068 66.3745 
-82.5319 -123.903 68.3344 -82.6082 -124.843 70.8162 -82.9325 -125.652 72.8007 
-83.3029 -126.227 74.1141 -83.5656 -126.613 75.3213 -81.4152 -121.37 62.9536 
-81.788 -122.497 64.5395 -82.2172 -123.404 66.0426 -82.445 -124.301 67.752 
-82.5352 -125.412 70.0612 -82.8853 -126.351 72.3432 -83.5406 -126.81 73.9376 
-84.1521 -127.013 75.1746 -84.4546 -127.159 76.4406 -80.8073 -121.171 62.8267 
-81.0772 -122.336 64.3215 -81.4963 -123.373 65.8582 -81.907 -124.333 67.4064 
-82.148 -125.486 69.3139 -82.4538 -126.63 71.5521 -83.1136 -127.308 73.4776 
-83.957 -127.591 74.8426 -84.5883 -127.763 76.0003 -84.819 -127.866 77.1537 
-78.9488 -119.306 64.7042 -79.4053 -120.742 66.2231 -78.8248 -120.094 65.7014 
-79.727 -122.211 67.7243 -79.118 -121.628 67.1754 -78.5458 -120.914 66.6614 
-80.3374 -123.35 69.8415 -79.5189 -122.945 69.0637 -78.8767 -122.325 68.3842 
-78.2169 -121.631 67.7278 -81.121 -124.399 72.1927 -80.2729 -124.036 71.4343 
-79.4607 -123.57 70.5509 -78.7074 -122.852 69.7216 -77.986 -122.136 68.8895 
-81.8492 -125.636 73.9827 -81.0647 -125.273 73.477 -80.1836 -124.837 72.6455 
-79.2571 -124.207 71.7662 -78.4317 -123.361 70.868 -77.6897 -122.632 69.891 
-82.8108 -126.513 75.477 -81.9249 -126.345 75.1674 -80.9325 -126.04 74.3958 
-79.817 -125.569 73.5006 -78.7958 -124.817 72.6168 -77.9488 -123.974 71.6201 
-77.1842 -123.235 70.5888 -83.8836 -126.932 76.9182 -82.9636 -126.812 76.8873 
-81.8442 -126.704 76.2103 -80.5725 -126.503 75.2107 -79.3254 -126.034 74.1882 
-78.2739 -125.293 73.1389 -77.3826 -124.505 72.0773 -76.6488 -123.692 71.1257 
-84.5492 -127.443 77.9194 -83.8043 -127.114 78.2655 -82.7138 -126.926 77.9081 
-81.4134 -126.839 77.0007 -80.0645 -126.679 75.8489 -78.8275 -126.227 74.621 
-77.7476 -125.53 73.4641 -76.8719 -124.744 72.4722 -76.2489 -123.87 71.6126 
-84.7076 -128.374 78.0517 -84.3204 -127.835 78.8623 -84.167 -128.718 78.7593 
-83.5181 -128.205 79.3912 -83.0518 -128.908 79.2518 -83.4065 -127.357 79.0656 
-82.0245 -128.537 79.5408 -81.3745 -129.196 79.2674 -82.335 -127.608 79.4023 
-82.1167 -127.01 78.565 -80.154 -128.822 79.2397 -79.713 -129.458 78.5814 
-80.6319 -127.782 79.4387 -80.8919 -127.019 78.8702 -80.693 -126.839 77.5396 
-78.6362 -128.909 78.4581 -78.4467 -129.399 77.5586 -78.9047 -127.92 79.0985 
-79.2971 -127.016 78.8643 -79.5277 -126.745 77.7192 -79.3317 -126.663 76.1534 
-77.4372 -128.828 77.4796 -77.0734 -129.272 76.671 -77.6338 -128.091 78.2139 
-77.9123 -127.209 78.3233 -78.2171 -126.711 77.5157 -78.2952 -126.529 76.1772 
-78.0752 -126.169 74.7565 -76.012 -128.773 76.5946 -75.433 -129.288 75.9592 
-76.4124 -128.214 77.0777 -76.7345 -127.48 77.257 -77.0366 -126.74 76.901 
-77.1876 -126.282 76.0312 -77.147 -125.916 74.8649 -77.0099 -125.407 73.6296 
-74.598 -128.657 75.8513 -74.1234 -129.181 75.2905 -75.054 -128.137 76.1407 
-75.4445 -127.507 76.2245 -75.8094 -126.628 76.1355 -76.085 -125.871 75.7362 
-76.2096 -125.468 74.9087 -76.2612 -125.098 73.8027 -76.273 -124.549 72.6702 
-73.6449 -128.312 75.1339 -73.3946 -128.769 74.5773 -73.9639 -127.81 75.4097 
-74.2856 -127.247 75.4784 -74.6065 -126.387 75.4945 -74.9396 -125.446 75.3514 
-75.2331 -124.941 74.7653 -75.4823 -124.712 73.7816 -75.6836 -124.282 72.7234 
-75.7771 -123.63 71.7437 -84.5958 -128.673 76.7839 -84.3469 -129.155 77.4852 
-83.8782 -129.294 76.2275 -83.5719 -129.573 76.7424 -82.9569 -129.433 75.5658 
-83.6852 -129.229 78.2037 -82.5551 -129.638 75.8084 -81.9735 -129.249 74.6592 
-82.8277 -129.499 77.3323 -82.4093 -129.241 78.7684 -81.3333 -129.539 74.5693 
-80.8384 -128.907 73.4696 -81.6833 -129.794 75.9331 -81.4976 -129.614 77.6609 
-80.7362 -129.525 78.6052 -80.0133 -129.092 73.29 -79.6566 -128.276 72.2694 
-80.3496 -129.796 74.2502 -80.3835 -130.01 75.7856 -79.9734 -129.801 77.254 
-79.2804 -129.654 77.6536 -78.8276 -128.293 72.2499 -78.6203 -127.437 71.2066 
-79.0327 -129.15 72.9469 -79.0978 -129.8 73.842 -78.9077 -129.871 75.2596 
-78.4959 -129.68 76.2802 -77.8643 -129.554 76.5554 -77.8181 -127.487 71.2405 
-77.7043 -126.651 70.1651 -77.898 -128.322 72.0201 -77.8444 -129.092 72.5431 
-77.6156 -129.562 73.3499 -77.2412 -129.664 74.4324 -76.713 -129.707 75.2147 
-76.0614 -129.647 75.6657 -76.9468 -126.794 70.0474 -76.8917 -126.022 69.0706 
-76.9697 -127.601 70.9604 -76.8498 -128.365 71.6203 -76.5607 -129.052 72.0927 
-76.1071 -129.513 72.7203 -75.5105 -129.778 73.5411 -74.8992 -129.907 74.3215 
-74.43 -129.72 74.9306 -76.2705 -126.217 68.7617 -76.2675 -125.56 67.9546 
-76.251 -126.896 69.6609 -76.1133 -127.564 70.5423 -75.8634 -128.294 71.168 
[...]
CELL_DATA 2000
SCALARS Distance double
LOOKUP_TABLE default
147.305 147.963 147.689 147.89 148.771 148.445 148.711 148.429 148.785 
149.674 149.329 149.645 149.352 149.737 149.451 149.911 150.48 150.175 
150.422 150.235 150.602 150.395 150.827 150.628 151.215 151.01 150.79 
150.883 150.817 151.149 151.12 151.597 151.51 152.148 152.052 152.841 
151.299 151.153 151.229 151.178 151.59 151.626 152.302 152.301 153.119 
153.053 153.944 153.828 154.678 151.641 151.496 151.799 151.678 152.324 
152.288 153.231 153.209 154.248 154.159 155.145 154.996 155.867 155.665 
156.386 152.314 152.13 152.752 152.566 153.45 153.328 154.421 154.36 
155.485 155.395 156.39 156.229 157.068 156.854 157.563 157.298 157.905 
153.297 153.117 153.962 153.782 154.774 154.628 155.698 155.612 156.659 
156.592 157.519 157.407 158.197 158.019 158.712 158.47 159.085 158.785 
159.333 147.152 147.206 147.383 147.81 147.257 147.498 147.973 148.107 
148.586 147.104 147.518 148.13 148.343 148.858 148.967 149.497 146.784 
147.287 148.033 148.462 149.141 149.324 149.891 149.955 150.435 146.606 
147.027 147.823 148.326 149.158 149.545 150.241 150.405 150.907 150.874 
151.137 146.547 146.959 147.769 148.212 149.057 149.5 150.26 150.615 
151.177 151.306 151.553 151.416 151.435 146.294 146.835 147.639 148.161 
148.949 149.403 150.102 150.517 151.09 151.397 151.69 151.716 151.698 
151.552 151.562 145.92 146.471 147.235 147.863 148.624 149.188 149.852 
150.312 150.869 151.232 151.585 151.736 151.781 151.716 151.685 151.675 
151.939 145.741 146.139 146.867 147.411 148.182 148.767 149.481 150.002 
150.601 151.007 151.418 151.632 151.772 151.771 151.78 151.759 151.966 
152.155 152.711 145.994 146.854 146.603 147.077 147.82 147.549 148.002 
147.781 148.341 148.604 148.439 148.874 148.708 149.195 149.049 149.605 
149.214 149.038 149.362 149.363 149.805 149.804 150.288 150.235 150.71 
150.151 149.691 149.872 149.718 150.111 150.197 150.678 150.77 151.189 
151.182 151.483 151.628 150.936 151.136 150.532 150.872 150.605 151.102 
151.09 151.527 151.534 151.768 151.724 151.8 153.238 152.623 152.976 
152.182 152.492 151.786 152.208 151.791 152.248 151.997 152.274 152.038 
152.11 151.914 151.896 154.661 154.235 154.742 154.099 154.451 153.639 
153.952 153.228 153.622 153.061 153.405 152.872 153.048 152.523 152.609 
152.179 152.268 155.909 155.603 156.213 155.778 156.255 155.571 155.887 
155.081 155.396 154.662 155.019 154.324 154.599 153.857 154.049 153.326 
153.534 152.908 153.16 154.073 154.492 154.779 155.861 155.039 155.275 
156.382 156.681 157.809 155.618 155.867 156.978 157.258 158.424 158.676 
159.784 156.086 156.409 157.513 157.833 158.987 159.298 160.459 160.693 
161.8 156.533 156.866 157.996 158.319 159.433 159.781 160.937 161.305 
162.471 162.733 163.833 157.042 157.372 158.541 158.831 159.923 160.201 
161.318 161.706 162.925 163.323 164.495 164.743 165.78 157.326 157.797 
158.915 159.328 160.372 160.676 161.713 162.077 163.291 163.752 165.007 
165.352 166.43 166.61 167.522 157.169 157.805 158.798 159.437 160.394 
160.915 161.841 162.334 163.434 164.028 165.271 165.789 166.888 167.183 
168.072 168.23 168.997 156.78 157.43 158.328 159.059 159.971 160.666 
161.541 162.194 163.16 163.907 165.03 165.8 166.862 167.431 168.282 
168.627 169.341 169.552 170.168 154.19 156.025 155.061 155.013 157.951 
156.988 156.98 155.969 155.911 159.878 158.911 158.907 157.939 157.902 
156.883 156.817 161.901 160.887 160.896 159.883 159.865 158.852 158.782 
157.765 157.693 163.989 162.99 163.055 161.976 161.99 160.892 160.831 
159.734 159.613 158.589 158.481 165.968 165.087 165.218 164.186 164.21 
163.094 163.021 161.856 161.682 160.537 160.341 159.31 159.138 167.714 
166.991 167.167 166.276 166.289 165.256 165.132 164.014 163.781 162.615 
162.325 161.197 160.925 159.897 159.649 169.192 168.617 168.803 168.075 
168.075 167.18 167.008 165.994 165.704 164.611 164.241 163.122 162.739 
161.67 161.32 160.326 160.004 170.37 169.949 170.106 169.534 169.492 
168.76 168.534 167.676 167.33 166.373 165.938 164.9 164.416 163.374 
162.915 161.931 161.522 160.589 160.219 170.955 171.504 171.123 170.696 
171.593 171.473 171.059 170.663 170.031 171.209 171.323 170.908 170.765 
170.115 169.778 169.012 170.447 170.726 170.282 170.35 169.688 169.598 
168.858 168.61 167.786 169.447 169.824 169.391 169.57 168.926 168.977 
168.278 168.25 167.498 167.282 166.392 168.35 168.769 168.414 168.659 
168.099 168.186 167.531 167.573 166.881 166.835 166.013 165.786 164.847 
167.256 167.673 167.365 167.686 167.203 167.37 166.734 166.808 166.11 
166.141 165.371 165.288 164.42 164.206 163.316 166.228 166.603 166.278 
166.624 166.159 166.417 165.778 165.929 165.189 165.297 164.543 164.587 
163.806 163.722 162.911 162.718 161.909 165.246 165.587 165.228 165.545 
165.081 165.349 164.736 164.908 164.173 164.303 163.578 163.71 163.027 
163.08 162.369 162.283 161.528 161.347 160.589 171.097 171.212 171.39 
171.628 170.824 171.264 171.511 171.697 171.694 169.988 170.634 170.892 
171.329 171.363 171.542 171.327 168.807 169.608 169.887 170.524 170.625 
171.028 170.895 171.015 170.617 167.334 168.255 168.518 169.347 169.495 
170.135 170.065 170.422 170.084 170.159 169.613 165.739 166.683 166.906 
167.819 167.936 168.782 168.724 169.366 169.062 169.424 168.93 169.044 
168.46 164.203 165.099 165.33 166.193 166.286 167.116 167.06 167.821 
167.586 168.184 167.799 168.183 167.711 167.873 167.347 162.778 163.609 
163.852 164.676 164.806 165.554 165.545 166.222 166.089 166.692 166.454 
166.963 166.655 167.02 166.639 166.804 166.338 161.522 162.242 162.451 
163.23 163.37 164.122 164.16 164.836 164.782 165.359 165.208 165.702 
165.48 165.926 165.656 166.005 165.652 165.821 165.369 156.853 157.494 
157.554 158.38 158.176 158.254 159.109 159.174 160.034 158.833 158.953 
159.893 159.971 160.87 160.868 161.68 159.582 159.638 160.613 160.748 
161.727 161.771 162.656 162.566 163.393 160.45 160.432 161.29 161.415 
162.411 162.587 163.569 163.594 164.518 164.406 165.296 161.078 161.19 
161.924 162.042 162.97 163.213 164.284 164.465 165.478 165.506 166.449 
166.35 167.145 161.227 161.561 162.302 162.552 163.452 163.752 164.869 
165.159 166.27 166.409 167.389 167.4 168.229 168.073 168.641 161.166 
161.573 162.391 162.786 163.725 164.142 165.248 165.676 166.808 167.113 
168.106 168.243 169.078 169.053 169.68 169.423 169.778 161.2 161.557 
162.414 162.842 163.799 164.288 165.331 165.874 166.934 167.439 168.391 
168.752 169.548 169.737 170.367 170.335 170.74 170.44 170.619 156.042 
155.072 155.927 156.678 154.078 154.971 155.723 156.576 157.312 153.004 
153.943 154.687 155.575 156.261 157.146 157.89 151.916 152.835 153.575 
154.489 155.161 156.046 156.797 157.756 158.644 150.922 151.749 152.47 
153.377 154.075 154.945 155.691 156.658 157.617 158.644 159.601 150.04 
150.749 151.382 152.275 152.998 153.891 154.602 155.532 156.394 157.512 
158.48 159.542 160.279 149.286 149.866 150.363 151.17 151.867 152.802 
153.528 154.435 155.158 156.187 157.016 158.192 158.936 159.961 160.425 
148.677 149.157 149.587 150.213 150.836 151.683 152.435 153.345 154.062 
154.967 155.686 156.706 157.445 158.499 159.081 159.982 160.377 148.159 
148.612 149.059 149.554 150.104 150.76 151.449 152.277 153.013 153.887 
154.599 155.493 156.22 157.153 157.839 158.713 159.254 160.017 160.45 
148.017 148.166 148.394 148.983 148.293 148.568 149.226 149.413 150.04 
148.411 148.687 149.389 149.652 150.352 150.552 151.306 148.663 148.863 
149.592 149.841 150.619 150.867 151.695 151.934 152.813 149.03 149.201 
149.977 150.168 151.017 151.219 152.12 152.349 153.297 153.522 154.434 
149.378 149.589 150.42 150.637 151.54 151.73 152.655 152.843 153.821 
154.046 155.039 155.202 156.094 149.767 149.971 150.855 151.093 152.037 
152.268 153.209 153.407 154.376 154.602 155.635 155.847 156.813 156.897 
157.71 150.281 150.45 151.373 151.574 152.532 152.757 153.723 153.944 
154.926 155.159 156.192 156.443 157.443 157.601 158.424 158.448 159.119 
150.852 151.015 151.933 152.122 153.061 153.27 154.227 154.455 155.437 
155.687 156.686 156.957 157.918 158.154 158.974 159.086 159.738 159.745 
160.314 151.464 152.784 152.259 152.565 154.261 153.655 153.977 153.412 
153.718 155.897 155.229 155.559 154.913 155.248 154.618 154.917 157.524 
156.9 157.246 156.574 156.912 156.23 156.553 155.869 156.161 159.052 
158.488 158.875 158.257 158.595 157.921 158.218 157.53 157.817 157.131 
157.406 160.637 160.043 160.474 159.869 160.262 159.604 159.901 159.188 
159.427 158.743 158.992 158.341 158.582 162.285 161.697 162.143 161.513 
161.953 161.306 161.683 160.936 161.18 160.384 160.582 159.873 160.079 
159.438 159.596 163.726 163.291 163.725 163.165 163.558 162.976 163.365 
162.72 163.003 162.211 162.372 161.54 161.677 160.926 161.037 160.348 
160.377 164.769 164.547 164.979 164.591 164.916 164.443 164.737 164.241 
164.491 163.898 164.039 163.305 163.372 162.577 162.613 161.824 161.802 
161.045 160.973 151.024 150.795 151.384 152.349 150.542 151.182 152.225 
152.801 153.842 150.158 150.891 152.005 152.697 153.835 154.403 155.491 
149.694 150.442 151.578 152.408 153.641 154.376 155.536 156.082 157.114 
149.392 150.024 151.141 151.947 153.248 154.113 155.39 156.079 157.179 
157.666 158.641 149.324 149.845 150.939 151.603 152.913 153.751 155.155 
155.93 157.165 157.725 158.789 159.217 160.222 149.361 149.838 150.889 
151.469 152.71 153.49 154.923 155.749 157.083 157.724 158.844 159.349 
160.397 160.842 161.845 149.449 149.877 150.854 151.389 152.517 153.259 
154.608 155.492 156.827 157.592 158.695 159.306 160.295 160.881 161.857 
162.376 163.251 149.585 149.955 150.853 151.324 152.346 153.005 154.226 
155.087 156.363 157.219 158.309 159.02 159.945 160.611 161.517 162.179 
163.028 163.583 164.279 150.127 148.63 149.524 149.831 147.108 147.961 
148.229 149.205 149.528 145.695 146.423 146.602 147.555 147.871 148.868 
149.149 144.451 145.035 145.105 145.945 146.241 147.214 147.524 148.463 
148.724 143.389 143.848 143.83 144.503 144.737 145.636 145.97 146.885 
147.177 148.077 148.416 142.552 142.912 142.861 143.32 143.434 144.178 
144.481 145.374 145.675 146.562 146.894 147.848 148.303 141.873 142.225 
142.248 142.523 142.531 142.982 143.19 143.944 144.284 145.122 145.465 
146.35 146.806 147.805 148.349 141.194 141.616 141.782 142.061 142.099 
142.294 142.399 142.845 143.213 143.898 144.35 145.079 145.555 146.396 
146.978 147.932 148.516 140.563 140.968 141.231 141.622 141.798 141.996 
142.101 142.31 142.63 143.088 143.62 144.197 144.731 145.359 145.925 
146.703 147.33 148.188 148.751 140.399 140.529 140.6 141.027 140.909 
140.79 141.104 141.27 141.65 141.553 141.226 141.397 141.394 141.743 
141.833 142.087 142.441 141.95 142.004 141.778 142.086 142.054 142.416 
142.358 142.693 143.422 142.893 142.887 142.49 142.722 142.545 142.954 
142.857 143.299 143.192 143.662 144.323 143.854 143.847 143.409 143.563 
143.273 143.613 143.471 143.911 143.835 144.308 144.241 144.733 145.15 
144.725 144.739 144.331 144.442 144.111 144.358 144.149 144.524 144.428 
144.905 144.86 145.388 145.328 145.891 145.942 145.548 145.567 145.184 
145.269 144.935 145.134 144.887 145.238 145.085 145.587 145.504 146.107 
146.035 146.671 146.587 147.248 146.646 146.309 146.334 145.986 146.071 
145.737 145.934 145.664 146.035 145.856 146.398 146.282 146.922 146.83 
147.491 147.403 148.054 147.983 148.628 147.011 147.596 147.102 146.762 
148.479 147.83 147.491 146.916 146.574 149.655 148.89 148.593 147.843 
147.529 146.834 146.528 151.065 150.222 150.017 149.154 148.908 148.033 
147.765 146.954 146.731 152.735 151.796 151.646 150.711 150.515 149.576 
149.346 148.41 148.197 147.329 147.176 154.536 153.58 153.426 152.431 
152.224 151.244 151.018 150.059 149.833 148.908 148.722 147.858 147.72 
156.202 155.339 155.18 154.223 154.007 153.004 152.774 151.769 151.525 
150.549 150.314 149.412 149.229 148.401 148.264 157.708 156.917 156.783 
155.909 155.718 154.773 154.564 153.568 153.334 152.296 152.028 151.023 
150.789 149.897 149.736 148.931 148.809 159.145 158.401 158.31 157.483 
157.329 156.439 156.249 155.319 155.101 154.112 153.845 152.799 152.519 
151.514 151.301 150.415 150.277 149.476 149.366 149.943 150.887 150.663 
151.203 151.982 151.707 152.334 152.054 152.726 153.257 152.934 153.644 
153.32 154.078 153.764 154.606 154.587 154.278 155.017 154.705 155.499 
155.197 156.053 155.776 156.673 155.844 155.597 156.349 156.077 156.882 
156.615 157.467 157.207 158.053 157.796 158.576 157.022 156.835 157.641 
157.402 158.224 157.975 158.834 158.591 159.431 159.152 159.903 159.583 
160.242 158.127 158.01 158.874 158.692 159.513 159.284 160.088 159.885 
160.7 160.488 161.243 160.936 161.596 161.222 161.832 159.105 159.076 
159.957 159.872 160.677 160.5 161.213 161.029 161.753 161.627 162.37 
162.199 162.862 162.567 163.148 162.787 163.323 159.915 159.966 160.821 
160.841 161.633 161.553 162.236 162.072 162.73 162.595 163.313 163.214 
163.902 163.722 164.288 164.009 164.485 164.159 164.561 145.12 145.225 
144.824 144.228 145.551 145.033 144.364 143.959 143.377 145.839 145.384 
144.726 144.223 143.589 143.147 142.572 145.97 145.615 145.04 144.605 
143.971 143.457 142.818 142.375 141.85 146.16 145.766 145.238 144.866 
144.259 143.799 143.138 142.671 142.13 141.753 141.381 146.477 146.036 
145.486 145.081 144.502 144.052 143.412 142.958 142.44 142.079 141.726 
141.405 141.119 146.694 146.327 145.758 145.357 144.808 144.357 143.778 
143.283 142.762 142.373 141.99 141.704 141.341 141.076 140.721 146.737 
146.466 145.929 145.587 145.06 144.682 144.162 143.709 143.171 142.719 
142.23 141.891 141.443 141.18 140.746 140.553 140.246 146.745 146.507 
146.04 145.733 145.237 144.906 144.418 144.052 143.527 143.099 142.543 
142.126 141.627 141.285 140.892 140.618 140.373 140.196 140.151 145.013 
144.109 144.598 144.76 143.204 143.667 143.81 144.413 144.73 142.344 
142.747 142.838 143.437 143.766 144.455 144.881 141.614 141.911 141.985 
142.509 142.843 143.501 143.951 144.641 145.069 141.126 141.262 141.305 
141.73 142.092 142.681 143.152 143.763 144.206 144.821 145.217 140.854 
140.885 140.832 141.115 141.415 141.967 142.452 143.048 143.503 144.049 
144.474 145.028 145.49 140.55 140.641 140.583 140.744 140.94 141.329 
141.761 142.333 142.834 143.408 143.884 144.404 144.903 145.435 145.985 
140.202 140.337 140.426 140.582 140.836 141.035 141.434 141.771 142.302 
142.793 143.381 143.897 144.465 144.95 145.516 146.019 146.582 140.152 
140.152 140.375 140.514 140.917 141.083 141.552 141.705 142.225 142.485 
143.109 143.514 144.163 144.598 145.195 145.628 146.2 146.651 147.186 
145.567 145.352 145.744 146.421 145.348 145.624 146.251 146.656 147.359 
145.524 145.717 146.294 146.552 147.192 147.594 148.22 145.707 145.923 
146.491 146.669 147.27 147.535 148.203 148.485 149.045 145.826 146.068 
146.647 146.855 147.449 147.686 148.394 148.645 149.348 149.466 150.094 
146.094 146.241 146.849 147.014 147.611 147.838 148.531 148.849 149.601 
149.848 150.551 150.679 151.428 146.591 146.646 147.291 147.348 147.954 
148.053 148.693 148.945 149.671 150.01 150.735 151.029 151.76 152.031 
152.847 147.143 147.186 147.815 147.866 148.463 148.494 149.087 149.187 
149.87 150.103 150.87 151.164 151.95 152.252 153.057 153.38 154.198 
147.669 147.696 148.251 148.326 148.882 148.968 149.547 149.634 150.3 
150.435 151.224 151.427 152.288 152.517 153.369 153.607 154.418 154.685 
155.455 150.02 149.436 149.337 148.551 148.969 148.806 148.045 147.888 
147.115 148.642 148.437 147.728 147.499 146.767 146.539 145.806 148.322 
148.144 147.433 147.221 146.483 146.258 145.524 145.299 144.605 147.964 
147.794 147.045 146.862 146.058 145.892 145.12 144.979 144.271 144.122 
143.508 147.708 147.461 146.715 146.469 145.663 145.435 144.667 144.519 
143.85 143.743 143.14 143.055 142.575 147.586 147.279 146.553 146.236 
145.493 145.165 144.456 144.185 143.588 143.4 142.856 142.703 142.188 
142.146 141.769 147.491 147.187 146.478 146.152 145.45 145.108 144.422 
144.097 143.493 143.255 142.737 142.526 141.996 141.811 141.324 141.325 
141.005 147.406 147.108 146.437 146.111 145.441 145.107 144.425 144.083 
143.416 143.15 142.583 142.409 141.898 141.696 141.183 140.997 140.591 
140.598 140.382 
POINT_DATA 1002
SCALARS Distance double
LOOKUP_TABLE default
147.418 146.957 147.543 148.111 148.239 148.144 148.989 149.089 149.038 
149.178 149.914 150.025 150.036 150.143 150.416 150.597 150.826 150.764 
151.014 151.33 151.904 150.961 151.254 151.1 151.591 152.192 152.927 
153.694 151.254 151.398 151.481 152.194 153.126 154.042 154.866 155.476 
151.842 151.688 152.304 153.191 154.311 155.311 156.083 156.654 157.03 
152.863 152.395 153.555 154.493 155.581 156.565 157.296 157.826 158.212 
158.473 154.094 153.403 154.932 155.838 156.764 157.634 158.361 158.937 
159.374 159.671 159.856 146.96 147.65 147.012 147.836 146.926 148.434 
147.794 146.593 148.762 149.382 147.476 146.285 148.832 149.832 150.464 
147.322 146.214 148.673 149.973 150.923 151.344 147.345 146.084 148.643 
149.858 150.954 151.662 151.663 147.078 145.723 148.497 149.709 150.743 
151.581 151.833 151.606 146.614 145.424 148.017 149.36 150.49 151.38 
151.799 151.718 151.738 146.384 145.419 147.606 148.928 150.159 151.157 
151.722 151.802 151.828 152.337 146.182 147.247 147.135 148.268 148.059 
148.494 148.994 148.763 149.365 149.731 149.362 149.52 149.734 150.319 
150.817 150.196 150.743 150.063 150.541 151.18 151.575 151.874 152.273 
151.341 151.217 151.555 151.854 151.884 153.725 153.721 153.335 152.806 
152.607 152.59 152.388 152.068 155.262 155.002 155.241 154.781 154.274 
153.989 153.642 153.119 152.646 156.546 156.18 156.832 156.695 156.191 
155.727 155.344 154.814 154.216 153.742 155.076 155.521 156.987 156.09 
157.538 158.904 156.698 158.147 159.587 160.864 157.189 158.656 160.161 
161.63 162.912 157.685 159.115 160.529 162.125 163.662 164.93 158.244 
159.694 160.961 162.468 164.187 165.639 166.772 158.455 160.048 161.375 
162.808 164.604 166.231 167.421 168.374 158.13 159.811 161.326 162.824 
164.677 166.535 167.898 168.898 169.72 157.618 159.24 160.864 162.435 
164.225 166.193 167.862 169.087 170.04 170.746 156.014 157.963 156.964 
159.868 158.892 157.85 161.933 160.891 159.815 158.684 164.129 163.108 
161.976 160.705 159.452 166.204 165.324 164.2 162.889 161.456 160.118 
167.997 167.3 166.245 164.954 163.503 162.019 160.639 169.484 168.929 
167.998 166.784 165.376 163.847 162.355 160.968 170.645 170.192 169.357 
168.25 166.961 165.479 163.923 162.471 161.13 171.475 171.253 171.788 
171.38 171.615 170.546 170.978 171.037 170.37 169.432 170.169 170.139 
169.705 168.994 168.151 169.167 169.039 168.841 168.236 167.61 166.739 
168.104 167.908 167.973 167.484 166.876 166.161 165.141 167.009 166.855 
166.984 166.654 166.067 165.391 164.563 163.556 165.946 165.886 165.882 
165.614 165.067 164.434 163.807 163.049 162.129 164.93 164.922 164.809 
164.551 164.043 163.41 162.891 162.384 161.674 160.783 171.073 171.625 
170.94 171.229 170.304 171.683 170.372 169.291 171.078 171.334 169.165 
167.967 170.127 170.677 170.679 167.637 166.4 168.753 169.609 169.916 
169.662 166.012 164.807 167.069 167.989 168.579 168.697 168.434 164.481 
163.322 165.498 166.293 166.901 167.283 167.422 167.283 163.025 161.987 
164.051 164.871 165.474 165.896 166.19 166.36 166.278 161.715 160.864 
162.614 163.445 164.166 164.708 165.022 165.231 165.379 165.302 156.764 
158.284 157.436 159.046 158.048 160 159.767 158.687 160.869 161.744 
160.462 159.6 161.611 162.704 163.523 161.235 160.518 162.175 163.447 
164.559 165.474 161.82 160.897 162.719 164.017 165.39 166.49 167.385 
161.97 160.816 163.119 164.521 166.072 167.352 168.328 168.976 161.936 
160.75 163.271 164.787 166.437 167.917 169.051 169.858 170.208 155.183 
155.837 154.199 154.878 153.16 156.457 153.792 152.062 155.395 156.937 
152.653 151.036 154.282 155.811 157.646 151.56 150.172 153.201 154.747 
156.518 158.687 150.52 149.433 152.068 153.729 155.335 157.333 159.422 
149.647 148.782 150.924 152.612 154.247 155.895 157.821 159.565 149.044 
148.207 150.072 151.516 153.181 154.762 156.405 158.112 159.566 148.588 