# vtk DataFile Version 4.0
vtk output
ASCII
DATASET POLYDATA
POINTS 1002 float
-74.4561 -106.407 60.789 -74.9557 -105.601 59.7984 -75.5726 -105.894 60.0722 
-74.9491 -106.869 60.9955 -76.1611 -106.276 60.4567 -73.995 -107.632 61.7729 
-75.3606 -107.573 61.166 -76.7143 -106.848 60.9256 -74.2886 -108.536 61.6774 
-73.5636 -109.588 62.3953 -75.6649 -108.578 61.367 -77.1848 -107.716 61.2751 
-74.4122 -109.777 61.4874 -73.6699 -110.957 62.1043 -73.0627 -111.974 62.9138 
-75.8858 -109.878 61.4512 -77.4477 -108.831 61.354 -74.4882 -111.197 61.4888 
-73.6832 -112.402 61.9456 -73.209 -113.373 62.9151 -72.6426 -114.178 63.7805 
-76.0712 -111.203 61.3383 -77.4531 -109.975 61.328 -74.7645 -112.623 61.6295 
-73.926 -113.697 62.1698 -73.5072 -114.532 63.1638 -73.0537 -115.366 64.152 
-72.5493 -116.093 64.8363 -76.2567 -112.262 61.2632 -77.3316 -111.032 61.2982 
-75.2669 -113.752 61.8454 -74.5332 -114.843 62.6276 -74.1016 -115.557 63.5938 
-73.6822 -116.399 64.5879 -73.1251 -117.258 65.2932 -72.679 -117.837 65.9248 
-76.4581 -113.225 61.3475 -77.2407 -112.103 61.1967 -75.7808 -114.601 62.1732 
-75.2227 -115.787 63.188 -74.7777 -116.611 64.0942 -74.3658 -117.455 65.0104 
-73.8253 -118.352 65.8001 -73.258 -118.967 66.4476 -72.8558 -119.303 67.1523 
-76.6947 -114.35 61.6186 -77.2507 -113.276 61.1947 -76.2104 -115.549 62.5757 
-75.7855 -116.681 63.7201 -75.37 -117.612 64.6461 -74.9519 -118.479 65.4797 
-74.4995 -119.317 66.3505 -73.9796 -119.909 67.0976 -73.4928 -120.24 67.7413 
-73.1113 -120.48 68.3555 -77.0208 -115.529 62.179 -77.3959 -114.489 61.5432 
-76.6601 -116.602 63.1376 -76.3185 -117.614 64.2264 -75.9824 -118.519 65.1692 
-75.5928 -119.359 65.9982 -75.1691 -120.115 66.9009 -74.7498 -120.663 67.7532 
-74.3121 -121.014 68.3898 -73.8695 -121.289 68.8949 -73.4617 -121.525 69.341 
-75.8677 -104.98 59.1591 -76.5864 -105.289 59.4921 -76.7646 -104.257 58.6407 
-77.5496 -104.659 59.0212 -77.6159 -103.641 57.9997 -77.2728 -105.722 59.9859 
-78.4872 -104.163 58.4367 -78.4884 -103.286 57.1441 -78.2921 -105.312 59.4544 
-77.955 -106.378 60.4999 -79.4125 -103.811 57.733 -79.3253 -102.91 56.372 
-79.2426 -105.007 58.8336 -79.0007 -106.197 59.8796 -78.5402 -107.264 60.9206 
-80.21 -103.459 57.1333 -80.1327 -102.378 55.7971 -80.1215 -104.73 58.2916 
-79.8753 -106.056 59.3574 -79.5949 -107.164 60.64 -78.808 -108.294 61.4241 
-80.9152 -103.222 56.578 -80.9233 -102.061 55.1159 -80.9184 -104.549 57.8879 
-80.7425 -105.849 59.0122 -80.4361 -107.068 60.5599 -79.8674 -108.159 61.9262 
-78.6836 -109.384 61.9471 -81.4407 -103.22 55.8263 -81.4165 -102.124 54.2291 
-81.574 -104.518 57.4185 -81.6312 -105.686 58.665 -81.3077 -106.823 60.2466 
-80.7024 -108.025 62.1759 -79.702 -109.164 62.8333 -78.3551 -110.448 61.9643 
-81.6014 -103.358 54.9274 -81.4845 -102.414 53.3929 -81.8612 -104.548 56.6899 
-82.2136 -105.617 58.1643 -82.1215 -106.622 59.6436 -81.4946 -107.798 61.61 
-80.5525 -108.956 62.9336 -79.2992 -110.079 62.538 -78.0522 -111.509 61.4729 
-81.5685 -103.662 54.1353 -81.3929 -102.896 52.8174 -81.8522 -104.693 55.7911 
-82.3227 -105.692 57.4004 -82.5433 -106.663 58.9262 -82.1725 -107.78 60.7013 
-81.3674 -108.847 62.2018 -80.2227 -109.788 62.3961 -78.9065 -111.01 61.6071 
-77.8858 -112.684 61.1252 -81.54 -104.043 53.18 -81.7933 -104.916 54.5786 
-81.867 -105.557 53.7358 -82.1611 -106.387 55.0666 -82.0548 -107.038 54.4079 
-82.1845 -105.88 56.1698 -82.2397 -107.72 55.6661 -81.7446 -108.165 55.1631 
-82.4545 -107.286 56.5824 -82.5707 -106.886 57.8408 -81.843 -108.933 56.4168 
-81.2282 -109.423 55.9585 -82.3468 -108.69 57.1757 -82.5867 -108.45 58.4191 
-82.5523 -108.07 59.6975 -81.399 -110.588 57.1543 -80.9666 -111.204 56.7665 
-81.812 -110.078 57.7338 -82.1855 -109.827 58.8068 -82.3339 -109.554 60.174 
-82.0216 -109.121 61.2959 -81.0959 -112.581 57.8532 -80.6718 -112.925 57.604 
-81.1613 -111.813 58.1525 -81.2073 -111.009 58.7435 -81.4853 -110.543 59.8452 
-81.5225 -110.196 60.9436 -80.985 -109.874 61.7504 -80.5246 -114.199 58.6744 
-79.9059 -114.201 58.4977 -80.6277 -113.732 58.8103 -80.2724 -112.734 58.9217 
-80.1488 -111.842 59.4382 -80.3427 -111.402 60.2596 -80.185 -111.132 60.8628 
-79.5728 -110.973 61.2779 -79.6081 -115.428 59.6765 -78.9414 -115.392 59.4992 
-80.0759 -115.354 59.8341 -79.9957 -114.825 59.8355 -79.6163 -114.028 59.9765 
-79.4401 -113.49 60.4639 -79.3141 -113.201 60.8715 -78.9126 -112.919 60.9831 
-78.3699 -112.724 61.0421 -78.8559 -116.685 60.7852 -78.3193 -116.736 60.6 
-79.5072 -116.711 60.9749 -79.9977 -116.601 61.0406 -80.0726 -116.221 61.1409 
-79.8081 -115.808 61.5204 -79.3818 -115.549 61.9138 -78.8461 -115.27 61.9528 
-78.2871 -114.917 61.7715 -77.803 -114.643 61.6187 -77.5851 -116.295 62.7629 
-78.1228 -116.531 62.9891 -78.1682 -117.844 64.407 -78.7593 -116.839 63.2401 
-78.8609 -118.04 64.6009 -78.8671 -119.165 65.8893 -79.5356 -117.119 63.411 
-79.5996 -118.236 64.7412 -79.511 -119.452 65.9292 -79.2985 -120.789 67.0743 
-80.3138 -117.329 63.2154 -80.4349 -118.4 64.7458 -80.1476 -119.679 66.0152 
-79.8174 -121.275 67.1459 -79.5638 -122.598 68.392 -80.714 -117.62 62.6624 
-81.0819 -118.692 64.294 -80.8449 -119.928 65.9024 -80.473 -121.57 67.3088 
-80.23 -122.951 68.6359 -80.1703 -123.787 70.1986 -80.4709 -117.946 62.2706 
-81.024 -119.127 63.6159 -81.1668 -120.36 65.247 -81.1067 -121.906 67.01 
-81.0213 -123.216 68.6383 -80.9478 -123.972 70.3454 -81.0643 -124.422 72.102 
-79.7672 -118.09 62.1861 -80.3289 -119.417 63.3241 -80.7635 -120.707 64.6174 
-81.0911 -122.23 66.2572 -81.3738 -123.631 68.0381 -81.4356 -124.456 69.911 
-81.4812 -124.916 71.825 -81.6511 -125.211 73.3842 -79.0182 -118.098 62.0889 
-79.5575 -119.514 63.3131 -80.0639 -120.793 64.4707 -80.4348 -122.209 65.801 
-80.8825 -123.785 67.3547 -81.2275 -124.981 69.1223 -81.3719 -125.654 71.0546 
-81.5618 -126.057 72.7551 -81.7178 -126.248 73.9446 -78.4494 -118.129 61.8865 
-78.9626 -119.551 63.1956 -79.4761 -120.801 64.4162 -79.7256 -122.014 65.6659 
-80.0125 -123.501 67.0218 -80.4785 -124.997 68.5049 -80.8339 -126.027 70.2059 
-81.0913 -126.658 71.9107 -81.3824 -127.063 73.2365 -81.5117 -127.217 74.1821 
-77.3413 -117.301 63.7197 -77.9737 -118.733 65.4388 -77.0489 -118.278 64.7543 
-78.6188 -120.119 66.9182 -77.7003 -119.658 66.3976 -76.7638 -119.205 65.7003 
-78.9794 -121.92 68.2406 -78.2575 -121.2 67.9227 -77.3752 -120.688 67.2576 
-76.4268 -120.114 66.5611 -79.4205 -123.567 69.9278 -78.6071 -123.042 69.5025 
-77.7638 -122.409 68.8586 -76.8845 -121.724 68.1362 -75.963 -120.922 67.5005 
-80.3873 -124.348 72.0512 -79.3685 -124.278 71.506 -78.201 -123.98 70.6478 
-77.1955 -123.369 69.7844 -76.3471 -122.458 69.0892 -75.5168 -121.489 68.4514 
-81.3416 -124.791 73.7857 -80.4994 -124.644 73.6037 -79.1858 -124.604 72.817 
-77.8326 -124.387 71.7533 -76.8035 -123.805 70.7609 -75.9745 -122.877 69.9217 
-75.1303 -121.876 69.154 -81.6362 -125.569 74.6246 -81.0854 -125.051 75.0153 
-80.0647 -124.799 74.8474 -78.765 -124.616 74.0682 -77.5152 -124.392 72.8901 
-76.4895 -123.987 71.6072 -75.5738 -123.205 70.4913 -74.6733 -122.212 69.6234 
-81.4352 -126.573 74.94 -80.959 -125.9 75.6956 -80.2102 -125.433 76.1707 
-79.2922 -125.001 76.0238 -78.1887 -124.563 75.1439 -77.0026 -124.359 73.7205 
-75.9205 -124.126 72.1795 -74.9818 -123.443 70.9257 -74.1548 -122.466 70.0319 
-81.1954 -127.734 74.8801 -80.7666 -127.055 75.8296 -80.5645 -128.104 75.6867 
-79.8763 -127.443 76.7578 -79.531 -128.231 76.2195 -80.052 -126.483 76.7549 
-78.7989 -127.639 77.0319 -78.0519 -128.288 76.1331 -79.1692 -126.985 77.4924 
-79.3533 -125.988 77.2005 -77.3254 -127.824 76.5492 -76.3972 -128.538 75.7557 
-78.126 -127.175 77.233 -78.5239 -126.315 77.4627 -78.5329 -125.202 76.8043 
-75.6079 -128.104 76.0467 -74.9091 -128.771 75.3472 -76.4697 -127.291 76.5064 
-77.2333 -126.357 76.7924 -77.4915 -125.262 76.6632 -77.3379 -124.536 75.6046 
-74.0956 -128.189 75.563 -73.5784 -128.731 74.6771 -74.6292 -127.436 76.0322 
-75.3858 -126.504 76.088 -75.9788 -125.436 75.9601 -76.1036 -124.629 75.3839 
-76.0281 -124.377 73.9601 -72.8717 -128.033 74.7218 -72.3688 -128.521 73.8215 
-73.2412 -127.367 75.4061 -73.7535 -126.609 75.5681 -74.426 -125.758 75.3373 
-74.8243 -124.897 74.8946 -74.9092 -124.395 73.8883 -74.9602 -124.083 72.3539 
-71.7636 -127.768 73.7836 -71.3334 -128.15 73.0923 -72.1543 -127.114 74.446 
-72.5839 -126.37 74.8099 -73.1791 -125.732 74.7117 -73.7332 -125.045 74.3277 
-73.9862 -124.348 73.6022 -74.066 -123.84 72.4 -74.1346 -123.276 71.09 
-70.6675 -127.342 73.0707 -70.4051 -127.578 72.5273 -71.026 -126.775 73.566 
-71.4816 -125.969 73.9314 -72.0241 -125.304 73.9767 -72.5972 -124.812 73.6848 
-73.0394 -124.201 73.1071 -73.2654 -123.542 72.195 -73.3698 -122.953 71.1218 
-73.4344 -122.284 70.1652 -81.1725 -127.927 73.8146 -80.9126 -128.519 74.4614 
-80.5252 -128.202 73.3024 -80.1409 -128.829 73.7896 -79.4912 -128.026 72.5526 
-80.2256 -128.872 75.0247 -78.8631 -128.532 72.856 -78.255 -127.649 71.6874 
-79.2526 -129.129 74.0121 -78.8785 -128.885 75.2238 -77.5303 -128.019 71.8272 
-77.1735 -127.29 70.8014 -77.8322 -128.761 72.8009 -77.6963 -129.105 73.9636 
-77.1008 -128.901 75.0829 -76.5008 -127.721 70.7149 -76.3351 -126.936 69.7279 
-76.5113 -128.402 71.5616 -76.3348 -128.961 72.5664 -75.9614 -129.209 73.7984 
-75.4737 -129.116 74.7899 -75.6099 -127.395 69.4914 -75.5314 -126.478 68.5063 
-75.4881 -128.236 70.3728 -75.1899 -128.907 71.2081 -74.8439 -129.346 72.2541 
-74.4605 -129.471 73.3723 -74.0371 -129.231 74.2028 -74.6819 -126.76 68.3146 
-74.711 -125.907 67.4169 -74.5866 -127.684 69.2668 -74.3312 -128.566 70.1039 
-73.9503 -129.258 70.8603 -73.4783 -129.651 71.7393 -72.9955 -129.587 72.6768 
-72.6431 -129.121 73.4076 -73.8709 -126.048 67.2478 -74.0246 -125.281 66.5146 
-73.7714 -126.851 68.1273 -73.6142 -127.716 69.0385 -73.2759 -128.558 69.7813 
-72.7482 -129.285 70.43 -72.1463 -129.626 71.2243 -71.7143 -129.366 72.0853 
-71.5165 -128.764 72.7342 -73.299 -125.423 66.2552 -73.5173 -124.615 65.6971 
-73.1456 -126.205 66.9141 -72.9855 -126.971 67.716 -72.6664 -127.689 68.5436 
[...]
CELL_DATA 2000
SCALARS Distance double
LOOKUP_TABLE default
142.107 142.806 142.588 142.984 143.631 143.337 143.744 143.609 144.248 
144.609 144.24 144.646 144.443 145.133 145.07 145.903 145.658 145.287 
145.717 145.446 146.151 146.039 146.947 146.872 147.756 146.617 146.338 
146.863 146.614 147.346 147.154 148.07 147.974 148.935 148.791 149.65 
147.423 147.253 147.898 147.787 148.627 148.435 149.344 149.171 150.158 
150.018 150.953 150.729 151.553 148.187 148.067 148.821 148.821 149.805 
149.721 150.679 150.493 151.465 151.302 152.283 152.074 152.927 152.631 
153.379 149.083 148.955 149.838 149.823 150.912 150.893 151.934 151.802 
152.765 152.613 153.577 153.409 154.272 153.999 154.708 154.384 155.024 
150.186 150.042 151.048 150.971 152.095 152.05 153.127 153.03 153.999 
153.865 154.79 154.654 155.503 155.289 155.986 155.678 156.274 155.944 
156.501 141.775 141.556 141.944 142.495 141.338 141.76 142.395 142.742 
143.347 141.182 141.6 142.329 142.702 143.399 143.697 144.35 141.091 
141.517 142.303 142.696 143.482 143.812 144.536 144.776 145.406 140.982 
141.452 142.297 142.722 143.571 143.938 144.775 145.042 145.733 145.857 
146.388 140.916 141.384 142.333 142.777 143.706 144.076 145.009 145.341 
146.205 146.329 146.891 146.825 147.224 140.896 141.37 142.388 142.882 
143.889 144.268 145.208 145.579 146.533 146.827 147.521 147.459 147.757 
147.587 147.906 140.816 141.313 142.301 142.901 143.933 144.426 145.333 
145.736 146.621 147.048 147.8 147.979 148.28 148.119 148.217 148.174 
148.583 140.786 141.204 142.131 142.73 143.752 144.354 145.289 145.774 
146.63 147.074 147.825 148.124 148.487 148.464 148.49 148.404 148.609 
148.83 149.474 141.165 142.42 141.953 142.5 143.892 143.346 143.793 
143.415 144.068 145.104 144.734 145.145 144.75 145.306 145.001 145.62 
146.053 145.784 146.281 146.012 146.61 146.299 146.917 146.543 147.067 
147.287 146.84 147.337 147.046 147.638 147.471 148.074 147.831 148.276 
147.886 148.199 148.798 148.29 148.654 148.147 148.422 148.204 148.535 
148.573 148.827 148.773 148.82 148.635 148.624 149.989 149.712 150.062 
149.512 149.541 148.957 148.951 148.747 148.89 148.932 148.98 148.921 
148.808 148.695 148.585 150.829 150.698 151.192 150.832 151.048 150.306 
150.354 149.582 149.828 149.339 149.721 149.32 149.542 149.089 149.189 
148.798 148.908 151.804 151.573 152.198 151.948 152.491 151.951 152.341 
151.486 151.924 151.038 151.637 150.81 151.354 150.487 150.861 150.017 
150.344 149.627 149.97 151.051 151.524 151.887 153.139 152.126 152.461 
153.733 154.047 155.238 152.719 153.117 154.373 154.653 155.81 156.08 
157.192 153.122 153.66 154.942 155.257 156.364 156.636 157.773 158.059 
159.208 153.375 153.973 155.292 155.723 156.834 157.161 158.32 158.661 
159.867 160.129 161.254 153.532 154.128 155.355 155.921 157.038 157.521 
158.708 159.181 160.421 160.767 161.881 162.106 163.111 153.44 154.09 
155.163 155.831 156.895 157.536 158.69 159.379 160.625 161.194 162.299 
162.64 163.599 163.845 164.712 153.092 153.79 154.821 155.543 156.586 
157.269 158.33 159.11 160.286 161.111 162.229 162.848 163.784 164.195 
165.028 165.3 165.982 152.73 153.392 154.46 155.191 156.268 156.941 
157.924 158.63 159.659 160.534 161.624 162.492 163.453 164.125 164.924 
165.416 166.089 166.383 166.876 151.219 153.302 152.218 152.192 155.381 
154.354 154.325 153.248 153.228 157.35 156.381 156.384 155.355 155.312 
154.262 154.206 159.387 158.396 158.449 157.405 157.393 156.329 156.26 
155.187 155.078 161.461 160.515 160.629 159.554 159.568 158.451 158.392 
157.265 157.131 156.017 155.863 163.36 162.562 162.745 161.758 161.769 
160.655 160.552 159.406 159.224 158.076 157.843 156.744 156.52 164.945 
164.326 164.511 163.727 163.709 162.739 162.556 161.484 161.233 160.12 
159.821 158.692 158.36 157.288 156.967 166.147 165.697 165.807 165.239 
165.192 164.446 164.23 163.31 163.002 161.998 161.662 160.599 160.213 
159.103 158.686 157.622 157.237 167.011 166.683 166.733 166.307 166.275 
165.728 165.58 164.827 164.514 163.608 163.213 162.272 161.848 160.854 
160.38 159.321 158.844 157.823 157.417 167.439 167.88 167.522 167.145 
168.037 167.877 167.549 167.174 166.73 167.679 167.845 167.667 167.531 
167.151 166.725 166.122 166.949 167.283 167.18 167.399 167.089 166.977 
166.324 165.895 165.04 166.21 166.516 166.323 166.653 166.304 166.522 
165.854 165.768 164.851 164.552 163.63 165.397 165.746 165.465 165.736 
165.301 165.539 164.91 165.008 164.181 164.11 163.247 163.066 162.226 
164.38 164.811 164.52 164.826 164.371 164.574 164.009 164.107 163.431 
163.407 162.663 162.575 161.802 161.634 160.783 163.292 163.73 163.428 
163.787 163.329 163.607 163.072 163.271 162.679 162.741 162.051 161.998 
161.236 161.13 160.307 160.128 159.248 162.192 162.626 162.295 162.659 
162.174 162.486 161.93 162.238 161.669 161.911 161.255 161.332 160.555 
160.513 159.691 159.591 158.765 158.6 157.791 167.572 167.626 167.846 
168.069 167.058 167.687 168.061 168.224 168.193 165.911 166.814 167.27 
167.888 167.915 168.057 167.735 164.617 165.496 165.876 166.747 166.873 
167.423 167.189 167.358 166.968 163.458 164.223 164.516 165.29 165.455 
166.168 166.141 166.613 166.4 166.585 166.26 162.27 163.055 163.353 
164.048 164.225 164.857 164.948 165.519 165.486 165.894 165.671 165.852 
165.453 160.953 161.77 162.045 162.844 163.04 163.727 163.83 164.419 
164.432 164.928 164.778 165.112 164.758 164.918 164.432 159.671 160.409 
160.611 161.43 161.619 162.431 162.535 163.247 163.245 163.842 163.724 
164.164 163.881 164.141 163.718 163.85 163.359 158.523 159.166 159.329 
160.035 160.208 160.972 161.083 161.834 161.828 162.527 162.423 163.024 
162.8 163.217 162.846 163.087 162.624 162.765 162.264 152.909 153.836 
153.801 154.69 154.634 154.727 155.652 155.65 156.498 155.254 155.415 
156.354 156.498 157.366 157.367 158.12 155.982 156.052 156.98 157.121 
158.056 158.156 159.018 158.981 159.813 156.779 156.834 157.724 157.8 
158.773 158.888 159.906 159.936 160.914 160.83 161.765 157.381 157.543 
158.389 158.515 159.444 159.625 160.691 160.856 161.914 161.942 162.893 
162.801 163.62 157.79 158.031 158.873 159.069 159.946 160.195 161.198 
161.513 162.534 162.769 163.671 163.766 164.549 164.494 165.125 158.072 
158.367 159.209 159.474 160.338 160.614 161.547 161.883 162.829 163.166 
164.034 164.304 165.098 165.248 165.934 165.867 166.338 158.224 158.561 
159.365 159.718 160.568 160.924 161.809 162.157 163.02 163.357 164.188 
164.529 165.373 165.672 166.454 166.566 167.109 166.948 167.192 152.032 
151.023 151.965 152.876 149.933 150.901 151.751 152.784 153.651 148.716 
149.699 150.485 151.569 152.415 153.464 154.286 147.559 148.438 149.155 
150.219 151.081 152.194 153.1 154.143 155.041 146.589 147.348 147.981 
148.909 149.747 150.855 151.836 152.968 153.953 154.983 155.869 145.658 
146.401 146.961 147.782 148.505 149.542 150.506 151.692 152.709 153.838 
154.737 155.738 156.486 144.737 145.454 145.983 146.747 147.35 148.288 
149.142 150.323 151.334 152.534 153.438 154.512 155.273 156.246 156.899 
143.959 144.586 145.113 145.793 146.347 147.141 147.871 148.934 149.892 
151.111 152.05 153.177 153.958 154.98 155.672 156.619 157.214 143.328 
143.878 144.384 144.993 145.528 146.202 146.837 147.711 148.558 149.676 
150.619 151.774 152.601 153.658 154.373 155.365 156.009 156.911 157.431 
143.148 143.18 143.503 144.19 143.226 143.55 144.288 144.606 145.335 
143.395 143.662 144.451 144.753 145.578 145.843 146.671 143.73 143.944 
144.801 145.041 145.974 146.209 147.174 147.371 148.385 144.195 144.38 
145.32 145.529 146.562 146.767 147.845 148.017 149.112 149.284 150.4 
144.784 144.937 145.938 146.136 147.248 147.464 148.617 148.792 149.914 
150.062 151.156 151.323 152.37 145.456 145.603 146.643 146.825 147.972 
148.196 149.383 149.587 150.711 150.863 151.918 152.063 153.078 153.218 
154.164 146.137 146.303 147.368 147.561 148.7 148.93 150.096 150.325 
151.433 151.616 152.651 152.801 153.799 153.931 154.877 154.97 155.822 
146.832 146.996 148.055 148.261 149.359 149.606 150.712 150.972 152.041 
152.273 153.3 153.495 154.496 154.65 155.588 155.683 156.506 156.552 
157.259 147.593 149.212 148.531 148.829 150.906 150.203 150.503 149.81 
150.134 152.704 151.96 152.297 151.543 151.867 151.151 151.482 154.648 
153.859 154.243 153.425 153.759 152.956 153.278 152.52 152.819 156.501 
155.792 156.142 155.382 155.706 154.901 155.218 154.399 154.704 153.882 
154.13 158.019 157.472 157.768 157.147 157.442 156.76 157.074 156.337 
156.658 155.844 156.104 155.213 155.384 159.312 158.869 159.249 158.696 
159.044 158.411 158.733 158.078 158.395 157.713 157.966 157.171 157.299 
156.403 156.454 160.519 160.164 160.68 160.208 160.667 160.056 160.404 
159.714 159.986 159.323 159.534 158.86 158.94 158.174 158.144 157.32 
157.278 161.575 161.344 161.892 161.583 162.074 161.63 161.985 161.37 
161.584 160.89 161.03 160.337 160.384 159.661 159.596 158.845 158.75 
158.007 157.942 147.126 146.958 147.618 148.767 146.746 147.48 148.701 
149.327 150.476 146.428 147.267 148.588 149.289 150.505 151.065 152.239 
146.067 146.964 148.445 149.231 150.56 151.133 152.368 152.914 154.168 
145.835 146.667 148.255 149.136 150.599 151.237 152.52 153.079 154.39 
154.932 156.121 145.846 146.518 148.02 148.925 150.42 151.212 152.509 
153.179 154.474 155.124 156.344 156.797 157.725 146.001 146.553 147.872 
148.667 150.077 150.924 152.222 153.014 154.275 155.063 156.273 156.902 
157.85 158.218 158.957 146.1 146.633 147.825 148.511 149.823 150.593 
151.886 152.668 153.924 154.738 155.935 156.681 157.665 158.203 158.97 
159.354 160.064 146.096 146.629 147.745 148.408 149.646 150.374 151.628 
152.37 153.588 154.361 155.511 156.271 157.257 157.904 158.71 159.236 
159.961 160.405 161.09 146.056 144.355 145.396 145.805 142.633 143.654 
144.015 145.125 145.544 140.861 141.87 142.194 143.318 143.69 144.806 
145.17 139.098 140.011 140.233 141.406 141.795 142.955 143.27 144.369 
144.731 137.603 138.294 138.34 139.365 139.713 140.968 141.398 142.54 
142.911 144.003 144.508 136.433 136.962 136.961 137.649 137.864 138.902 
139.41 140.65 141.234 142.354 142.925 143.987 144.642 135.459 135.919 
136.025 136.538 136.746 137.385 137.812 138.798 139.494 140.689 141.429 
142.545 143.222 144.257 144.909 134.763 135.088 135.27 135.747 136.079 
136.566 136.971 137.579 138.173 139.102 139.869 141 141.739 142.844 
143.476 144.505 145.064 134.431 134.589 134.776 135.133 135.524 135.993 
136.464 136.955 137.483 138.094 138.741 139.588 140.312 141.331 142.015 
143.054 143.641 144.621 145.125 134.377 134.58 134.524 134.765 135.044 
134.884 135.14 135.078 135.48 135.711 135.45 135.669 135.519 135.884 
135.907 136.422 136.528 136.174 136.334 136.089 136.425 136.369 136.911 
136.941 137.511 137.441 137.033 137.192 136.847 137.193 137.015 137.595 
137.547 138.183 138.118 138.737 138.398 137.978 138.177 137.798 138.158 
137.897 138.467 138.343 139.006 138.895 139.53 139.438 140.166 139.39 
138.964 139.178 138.811 139.152 138.877 139.378 139.228 139.869 139.77 
140.44 140.31 141.013 140.96 141.79 140.382 139.967 140.178 139.815 
140.149 139.853 140.309 140.109 140.716 140.625 141.352 141.264 142.001 
141.878 142.632 142.596 143.408 141.299 140.932 141.159 140.819 141.187 
140.879 141.357 141.084 141.672 141.505 142.237 142.175 142.954 142.867 
143.579 143.467 144.162 144.139 144.875 141.834 142.781 142.11 141.803 
144.106 143.264 143.013 142.223 141.947 145.744 144.77 144.525 143.611 
143.354 142.48 142.198 147.541 146.498 146.21 145.212 144.938 143.994 
143.718 142.796 142.543 149.425 148.351 148.079 146.981 146.702 145.657 
145.408 144.413 144.195 143.249 143.11 151.345 150.295 150.114 148.972 
148.747 147.575 147.348 146.225 146.028 144.993 144.851 143.914 143.821 
153.185 152.229 152.113 151.048 150.869 149.71 149.489 148.299 148.073 
146.924 146.718 145.679 145.507 144.586 144.432 154.845 154.011 153.919 
152.978 152.792 151.748 151.508 150.408 150.168 149.024 148.77 147.613 
147.353 146.287 146.071 145.137 144.98 156.321 155.585 155.506 154.675 
154.482 153.541 153.278 152.288 152.052 151.033 150.812 149.694 149.422 
148.24 147.975 146.873 146.698 145.739 145.657 146.413 147.508 147.305 
148.104 148.834 148.542 149.399 149.164 150.044 150.291 149.968 150.811 
150.535 151.424 151.169 152.024 151.65 151.4 152.202 151.935 152.76 
152.525 153.384 153.138 153.96 152.848 152.666 153.484 153.269 154.064 
153.822 154.639 154.436 155.275 155.045 155.823 154.041 153.847 154.706 
154.525 155.385 155.139 155.941 155.683 156.477 156.273 157.04 156.82 
157.494 155.238 155.06 155.919 155.76 156.669 156.475 157.312 157.024 
157.762 157.474 158.19 157.961 158.636 158.39 158.958 156.274 156.198 
157.044 156.944 157.843 157.727 158.605 158.384 159.128 158.794 159.451 
159.136 159.799 159.528 160.139 159.815 160.292 157.099 157.13 157.987 
157.977 158.854 158.82 159.7 159.6 160.378 160.126 160.761 160.42 
161.02 160.714 161.311 161.007 161.505 161.114 161.469 140.062 140.021 
139.685 139.006 140.038 139.661 138.888 138.568 137.781 140.058 139.655 
138.867 138.477 137.64 137.264 136.505 140.179 139.722 138.971 138.519 
137.74 137.251 136.51 136.14 135.681 140.337 139.894 139.181 138.715 
137.99 137.467 136.727 136.259 135.703 135.494 135.219 140.465 140.047 
139.365 138.943 138.268 137.781 137.032 136.501 135.777 135.447 134.963 
134.944 134.685 140.686 140.231 139.589 139.142 138.532 138.08 137.432 
136.871 136.142 135.58 134.971 134.685 134.365 134.385 134.278 140.988 
140.539 139.95 139.454 138.879 138.403 137.866 137.347 136.781 136.138 
135.595 134.991 134.657 134.317 134.231 134.173 134.22 141.274 140.874 
140.349 139.873 139.33 138.831 138.326 137.837 137.373 136.836 136.4 
135.801 135.467 134.926 134.764 134.409 134.386 134.255 134.302 139.993 
138.931 139.542 139.792 137.696 138.408 138.67 139.443 139.864 136.41 
137.084 137.4 138.274 138.782 139.599 140.057 135.614 135.979 136.278 
137.025 137.631 138.514 139.071 139.797 140.194 135.232 135.441 135.624 
136.096 136.629 137.417 138.04 138.81 139.269 139.926 140.335 134.787 
135.06 135.153 135.509 135.845 136.494 137.072 137.83 138.359 139.027 
139.497 140.148 140.655 134.425 134.634 134.775 135.022 135.274 135.742 
136.27 136.952 137.572 138.222 138.781 139.389 139.966 140.582 141.143 
134.348 134.448 134.695 134.813 135.138 135.352 135.883 136.332 137.033 
137.591 138.259 138.799 139.427 139.985 140.608 141.15 141.705 134.375 
134.456 134.737 134.876 135.28 135.424 135.955 136.198 136.871 137.256 
137.96 138.405 139.061 139.542 140.179 140.687 141.29 141.765 142.3 
140.685 140.571 141.012 141.96 140.661 141.018 141.967 142.468 143.474 
140.77 141.108 141.968 142.469 143.415 143.92 144.708 140.844 141.16 
141.922 142.392 143.273 143.794 144.568 144.977 145.642 141.003 141.244 
141.983 142.345 143.213 143.671 144.527 144.903 145.667 145.997 146.855 
141.316 141.476 142.196 142.46 143.294 143.684 144.589 144.974 145.823 
146.14 147.002 147.386 148.327 141.736 141.836 142.497 142.696 143.451 
143.785 144.627 145.041 145.873 146.27 147.054 147.468 148.26 148.734 
149.483 142.236 142.275 142.895 143.017 143.732 143.967 144.754 145.081 
145.863 146.242 146.994 147.41 148.146 148.582 149.28 149.708 150.345 
142.803 142.801 143.407 143.462 144.165 144.313 145.088 145.294 146.052 
146.294 147.043 147.364 148.158 148.524 149.316 149.636 150.375 150.656 
151.371 145.887 145.178 145.091 144.22 144.522 144.41 143.519 143.416 
142.53 143.88 143.764 142.889 142.756 141.851 141.73 140.823 143.316 
143.154 142.285 142.136 141.258 141.107 140.216 140.055 139.179 142.911 
142.682 141.831 141.597 140.737 140.548 139.714 139.533 138.701 138.508 
137.736 142.646 142.376 141.588 141.272 140.442 140.142 139.347 139.108 
138.344 138.117 137.357 137.169 136.507 142.513 142.201 141.471 141.129 
140.356 139.986 139.227 138.889 138.189 137.883 137.196 136.897 136.231 
136.029 135.494 142.49 142.146 141.441 141.078 140.347 139.967 139.24 
138.87 138.191 137.848 137.219 136.873 136.271 135.928 135.399 135.168 
134.808 142.501 142.166 141.488 141.107 140.4 140.003 139.301 138.917 
138.232 137.876 137.219 136.905 136.313 136.024 135.522 135.239 134.859 
134.659 134.456 
POINT_DATA 1002
SCALARS Distance double
LOOKUP_TABLE default
142.393 141.639 142.295 143.079 143.049 143.485 143.888 143.96 144.269 
144.995 144.878 144.996 145.181 145.955 146.766 145.997 145.992 146.29 
146.989 147.901 148.606 147.038 146.833 147.566 148.189 149.036 149.871 
150.476 147.9 147.545 148.765 149.554 150.291 151.15 151.841 152.344 
148.764 148.259 149.804 150.849 151.637 152.469 153.232 153.711 154.084 
149.847 149.146 150.906 152.03 152.924 153.735 154.53 155.056 155.359 
155.632 151.136 150.279 152.164 153.217 154.137 154.939 155.698 156.283 
156.62 156.843 157.03 141.396 142.145 141.131 142.007 140.879 143.037 
141.917 140.753 143.067 144.098 141.886 140.637 143.109 144.274 145.238 
141.835 140.478 143.173 144.435 145.618 146.347 141.84 140.432 143.324 
144.623 145.973 147.027 147.302 141.842 140.417 143.483 144.86 146.146 
147.486 148.055 147.922 141.684 140.348 143.38 144.936 146.207 147.518 
148.402 148.388 148.35 141.583 140.429 143.129 144.749 146.183 147.505 
148.457 148.607 148.482 149.001 141.485 142.793 142.986 144.262 144.432 
144.327 145.512 145.372 145.665 145.93 146.471 146.319 146.864 147.307 
147.519 147.736 147.81 147.808 148.248 148.673 148.64 149.327 149.261 
148.904 148.561 148.804 149.011 148.813 150.553 150.158 150.309 149.414 
148.885 148.989 148.948 148.672 151.389 150.945 151.64 151.199 150.454 
150.151 150.032 149.655 149.249 152.39 152.08 152.821 153.018 152.809 
152.511 152.253 151.781 151.153 150.635 152.242 152.787 154.389 153.447 
154.967 156.359 154.125 155.548 156.916 158.303 154.604 156.1 157.445 
158.96 160.364 154.807 156.467 157.94 159.58 161.064 162.336 154.771 
156.49 158.16 160.027 161.659 162.922 164.079 154.484 156.236 157.96 
159.954 161.898 163.344 164.536 165.524 154.068 155.913 157.612 159.42 
161.485 163.305 164.708 165.842 166.584 153.721 155.593 157.3 158.862 
160.699 162.689 164.367 165.702 166.726 167.32 153.277 155.396 154.305 
157.391 156.367 155.267 159.497 158.46 157.355 156.16 161.686 160.707 
159.54 158.282 156.953 163.67 162.883 161.72 160.398 158.995 157.582 
165.234 164.632 163.618 162.337 160.969 159.5 158 166.335 165.853 
165.094 163.983 162.692 161.331 159.811 158.247 167.133 166.735 166.24 
165.41 164.155 162.797 161.423 159.907 158.379 167.866 167.572 168.204 
167.86 168.05 167.219 167.627 167.364 167.517 166.72 166.863 166.624 
167.054 166.696 165.559 166.065 165.946 166.045 165.818 165.051 163.944 
165.231 165.019 165.104 164.758 164.158 163.338 162.463 164.186 163.938 
164.145 163.864 163.409 162.729 161.927 161.021 163.07 162.87 163.032 
162.813 162.542 162.088 161.339 160.444 159.459 161.94 161.768 161.876 
161.616 161.362 161.105 160.572 159.757 158.872 157.964 167.532 168.141 
167.207 167.715 166.253 168.331 166.476 165.005 167.622 167.796 165.01 
163.839 166.145 166.856 166.922 163.821 162.714 164.718 165.506 166.068 
166.216 162.633 161.466 163.607 164.352 164.991 165.406 165.398 161.212 
160.183 162.293 163.223 163.917 164.394 164.539 164.342 159.834 158.999 
160.787 161.779 162.604 163.218 163.563 163.544 163.271 158.668 157.903 
159.486 160.351 161.121 161.76 162.292 162.547 162.448 162.154 152.926 
154.758 153.827 155.598 154.479 156.602 156.17 155.115 157.296 158.202 
156.873 155.961 157.9 158.975 159.882 157.671 156.708 158.63 159.791 
160.953 161.91 158.253 157.184 159.247 160.456 161.826 162.963 163.807 
158.658 157.529 159.709 160.883 162.257 163.521 164.531 165.311 158.915 
157.771 160.056 161.25 162.51 163.724 164.862 165.903 166.589 151.093 
151.879 150.102 150.728 148.973 152.65 149.399 147.779 151.333 153.268 
148.142 146.762 149.929 151.986 154.05 147.145 145.863 148.662 150.655 
152.871 154.939 146.2 144.915 147.544 149.314 151.553 153.706 155.569 
145.253 144.046 146.502 148.011 150.105 152.347 154.265 155.987 144.462 
143.373 145.628 146.917 148.69 150.884 152.921 154.689 156.343 143.801 
142.813 144.894 146.067 147.531 149.458 151.519 153.366 155.064 156.62 