# vtk DataFile Version 4.0
vtk output
ASCII
DATASET POLYDATA
POINTS 1002 float
-76.3639 -107.213 60.1298 -76.888 -106.273 59.2936 -77.4312 -106.599 59.4855 
-76.8258 -107.702 60.3068 -78.001 -106.929 59.8006 -75.8722 -108.702 60.8294 
-77.2485 -108.362 60.4878 -78.5054 -107.432 60.1756 -76.2658 -109.411 61.0457 
-75.6004 -110.356 61.7603 -77.5378 -109.317 60.6061 -78.8074 -108.331 60.528 
-76.5442 -110.428 61.1555 -75.9753 -111.269 62.0865 -75.5012 -111.985 62.9903 
-77.6781 -110.528 60.7501 -78.8341 -109.566 60.8188 -76.6969 -111.654 61.1973 
-76.1554 -112.501 62.2422 -75.8008 -113.175 63.2877 -75.2634 -113.979 64.0294 
-77.7681 -111.758 61.0243 -78.713 -110.846 60.953 -76.9075 -112.842 61.4145 
-76.3015 -113.784 62.4085 -75.9401 -114.542 63.5142 -75.5083 -115.381 64.3093 
-74.9384 -116.242 64.9519 -77.9225 -112.879 61.3397 -78.6295 -112.042 60.8932 
-77.2793 -113.889 61.8854 -76.6849 -114.943 62.7832 -76.2155 -115.841 63.8757 
-75.8133 -116.697 64.7479 -75.354 -117.489 65.4946 -74.8726 -118.1 66.2267 
-78.1778 -113.975 61.6663 -78.6515 -113.188 60.8979 -77.7263 -114.898 62.4686 
-77.2314 -115.982 63.3433 -76.7401 -116.991 64.3726 -76.3111 -117.845 65.3184 
-75.9085 -118.567 66.1403 -75.4942 -119.09 66.9412 -75.0721 -119.487 67.5958 
-78.5175 -115.076 62.1588 -78.8085 -114.281 61.2665 -78.1882 -115.954 63.0975 
-77.761 -116.97 63.9893 -77.3087 -117.97 64.9423 -76.8989 -118.822 65.8898 
-76.5064 -119.536 66.737 -76.1091 -120.07 67.5393 -75.7227 -120.434 68.2229 
-75.3456 -120.732 68.6992 -78.9231 -116.077 62.8569 -79.1216 -115.275 61.9755 
-78.6576 -116.957 63.7758 -78.2703 -117.913 64.6492 -77.8434 -118.845 65.5457 
-77.4632 -119.671 66.4472 -77.0987 -120.41 67.268 -76.7057 -121.017 68.0469 
-76.3083 -121.425 68.7514 -75.9445 -121.683 69.2823 -75.6127 -121.86 69.6719 
-77.7657 -105.963 58.3449 -78.4429 -106.199 58.6374 -78.7667 -105.721 57.3861 
-79.5387 -105.881 57.7775 -79.866 -105.162 56.7376 -79.1454 -106.385 59.1682 
-80.6473 -105.29 57.2233 -80.8969 -104.305 56.4575 -80.2877 -106.07 58.4566 
-79.755 -106.815 59.8381 -81.6009 -104.519 56.9947 -81.6938 -103.652 56.1512 
-81.3484 -105.652 57.8823 -80.9363 -106.552 59.3027 -80.0723 -107.701 60.4767 
-82.3816 -104.084 56.6235 -82.444 -103.405 55.3974 -82.3153 -105.13 57.5092 
-82.0734 -106.207 58.7099 -81.3357 -107.277 60.1677 -80.0277 -108.872 60.8773 
-83.1924 -104.041 55.8141 -83.2958 -103.283 54.3019 -83.221 -104.883 57.0713 
-83.215 -105.799 58.2309 -82.6835 -106.781 59.7138 -81.3882 -108.188 60.7408 
-79.7839 -110.119 60.8325 -83.9169 -104.118 54.7985 -83.9331 -103.307 53.2461 
-83.9497 -104.925 56.4192 -84.1114 -105.716 57.7535 -83.9107 -106.576 59.1954 
-82.8329 -107.699 60.477 -81.0724 -109.388 60.7165 -79.482 -111.386 60.4946 
-84.2315 -104.385 53.846 -84.0918 -103.717 52.43 -84.2803 -105.119 55.6054 
-84.476 -105.895 57.1333 -84.5773 -106.815 58.5049 -83.9427 -107.792 59.928 
-82.354 -109.015 60.5872 -80.4923 -110.733 60.342 -79.2473 -112.62 60.3826 
-84.1255 -104.883 53.1099 -83.8911 -104.384 51.9199 -84.2228 -105.489 54.7481 
-84.3948 -106.182 56.3447 -84.6293 -107.105 57.6733 -84.4314 -108.124 59.036 
-83.3015 -109.086 60.1001 -81.5185 -110.343 60.2754 -79.9869 -112.04 60.1982 
-79.2488 -113.783 60.7868 -83.7041 -105.272 52.3229 -83.8905 -105.816 53.6659 
-83.3673 -106.082 53.0494 -83.5805 -106.724 54.3256 -83.0038 -107.006 53.7816 
-84.0609 -106.454 55.2381 -83.2296 -107.65 54.8563 -82.7007 -108.182 54.2166 
-83.8184 -107.435 55.6481 -84.3152 -107.254 56.656 -82.7882 -108.665 55.2686 
-82.4326 -109.519 54.6475 -83.329 -108.31 56.055 -83.9497 -108.235 56.9707 
-84.3852 -108.252 57.9951 -82.348 -110.099 55.9032 -82.097 -111.103 55.5808 
-82.5842 -109.403 56.5669 -83.0585 -109.138 57.3778 -83.5636 -109.172 58.2723 
-83.6805 -109.238 59.2566 -81.995 -112.184 56.9452 -81.6308 -112.984 56.9023 
-82.0244 -111.301 57.3102 -82.0281 -110.665 57.8562 -82.2717 -110.385 58.4768 
-82.4217 -110.365 59.2112 -82.1312 -110.372 59.9006 -81.6166 -114.412 58.1978 
-81.0937 -114.774 58.2234 -81.8157 -113.733 58.3657 -81.6135 -112.952 58.6416 
-81.3734 -112.387 58.9427 -81.2954 -112.122 59.3582 -81.0678 -112.02 59.8386 
-80.5592 -111.984 60.1267 -81.1479 -116.164 59.4878 -80.5959 -116.169 59.484 
-81.6231 -115.885 59.6129 -81.7232 -115.255 59.8118 -81.3883 -114.593 59.9908 
-80.9899 -114.223 60.2078 -80.6805 -114.058 60.5176 -80.25 -113.909 60.7511 
-79.712 -113.801 60.7912 -80.6846 -117.432 60.7915 -80.2021 -117.286 60.7448 
-81.2625 -117.479 60.8985 -81.7351 -117.163 61.0818 -81.7478 -116.546 61.2921 
-81.3348 -116.062 61.5069 -80.9023 -115.886 61.758 -80.5261 -115.766 61.9871 
-80.0506 -115.567 62.0682 -79.5398 -115.389 62.0164 -79.468 -116.709 63.3899 
-79.9819 -116.903 63.4989 -79.8692 -118.166 64.8319 -80.5043 -117.155 63.5205 
-80.4493 -118.411 64.9692 -80.2919 -119.672 66.3027 -80.9011 -117.365 63.3829 
-80.9371 -118.719 64.984 -80.9448 -120.005 66.5627 -80.8912 -121.284 67.9713 
-81.2729 -117.528 63.1286 -81.2695 -119.028 64.845 -81.4742 -120.4 66.6809 
-81.6608 -121.689 68.3416 -81.6503 -122.918 69.4984 -81.7152 -117.914 62.8328 
-81.62 -119.456 64.5496 -81.8444 -120.888 66.5199 -82.3323 -122.093 68.4029 
-82.5206 -123.286 69.6748 -82.3747 -124.358 70.5151 -81.8231 -118.515 62.5515 
-81.8471 -120.06 64.1683 -82.0682 -121.538 66.0678 -82.7156 -122.653 68.0125 
-83.2747 -123.64 69.4437 -83.2889 -124.68 70.4241 -82.99 -125.479 71.3881 
-81.3526 -118.854 62.3423 -81.5379 -120.426 63.8666 -81.8921 -122.011 65.572 
-82.5906 -123.262 67.3911 -83.4457 -124.182 68.8996 -83.9181 -125.071 70.0577 
-83.8359 -125.888 71.2297 -83.4383 -126.38 72.3982 -80.6908 -118.755 62.2131 
-80.8615 -120.298 63.6995 -81.2686 -121.941 65.2419 -81.9486 -123.423 66.8795 
-82.8436 -124.587 68.3776 -83.6961 -125.529 69.6021 -84.1498 -126.367 70.8312 
-84.0648 -126.983 72.1355 -83.6144 -127.248 73.234 -80.169 -118.515 62.1069 
-80.2628 -119.97 63.5538 -80.579 -121.565 64.9965 -81.1417 -123.113 66.4915 
-81.8925 -124.486 67.9743 -82.7682 -125.647 69.2365 -83.5983 -126.639 70.3583 
-84.0442 -127.46 71.5499 -83.9512 -127.974 72.7198 -83.5106 -128.109 73.6704 
-79.2319 -117.611 64.2985 -79.5626 -119.168 65.7511 -78.8841 -118.613 65.1873 
-80.0564 -120.757 67.3509 -79.2377 -120.243 66.7111 -78.4813 -119.607 66.1065 
-80.7977 -122.398 69.0401 -79.8838 -121.849 68.404 -78.9338 -121.267 67.708 
-78.1004 -120.507 67.0428 -81.5643 -123.946 70.4067 -80.6807 -123.381 70.0296 
-79.6112 -122.851 69.3763 -78.5571 -122.205 68.6016 -77.7278 -121.329 67.8853 
-82.1861 -125.175 71.4782 -81.3445 -124.702 71.3598 -80.2705 -124.197 70.9234 
-79.1089 -123.685 70.1934 -78.1293 -122.958 69.4054 -77.3368 -122.012 68.6874 
-82.6587 -126.042 72.572 -81.812 -125.73 72.5134 -80.7748 -125.354 72.216 
-79.6247 -124.838 71.6503 -78.6289 -124.181 70.9509 -77.7361 -123.392 70.2198 
-76.9212 -122.456 69.4591 -82.9358 -126.746 73.5669 -82.112 -126.427 73.603 
-81.1365 -126.274 73.3941 -80.0558 -125.896 72.934 -79.0963 -125.162 72.3046 
-78.2123 -124.367 71.6453 -77.2799 -123.598 70.8978 -76.4909 -122.699 70.0572 
-82.9894 -127.488 74.215 -82.2556 -126.951 74.5142 -81.3655 -126.76 74.5931 
-80.3868 -126.616 74.3558 -79.4665 -126.062 73.7046 -78.5908 -125.238 72.8871 
-77.6319 -124.475 72.1412 -76.7364 -123.709 71.3602 -76.0925 -122.813 70.4919 
-82.9795 -128.542 74.3449 -82.4249 -127.781 75.0264 -82.3158 -128.867 75.1181 
-81.6692 -128.054 75.9783 -81.4166 -129.159 75.8278 -81.6083 -127.155 75.5862 
-80.5544 -128.398 76.6164 -80.1176 -129.394 75.9994 -80.7213 -127.291 76.8046 
-80.656 -126.869 75.912 -79.08 -128.72 76.3819 -78.5098 -129.402 75.6461 
-79.5344 -127.493 77.2885 -79.8058 -126.741 77.1406 -79.7463 -126.554 75.5278 
-77.4762 -128.833 75.742 -76.8182 -129.334 75.2598 -78.1578 -127.768 76.6295 
-78.7804 -126.735 77.192 -78.9931 -126.328 76.2161 -78.834 -125.959 74.3717 
-75.8348 -128.878 75.3718 -75.2087 -129.447 74.8513 -76.6025 -127.946 75.8355 
-77.4582 -126.948 76.2335 -77.9518 -126.354 75.8087 -77.9226 -125.928 74.5152 
-77.7642 -125.247 73.1999 -74.3689 -128.903 74.9575 -73.9457 -129.433 74.122 
-74.9588 -128.007 75.4412 -75.762 -127.067 75.5028 -76.4689 -126.433 75.0499 
-76.7268 -125.929 74.2195 -76.7309 -125.228 73.3104 -76.75 -124.435 72.3754 
-73.391 -128.623 74.1143 -73.1326 -128.974 73.1777 -73.7274 -127.909 74.82 
-74.227 -126.999 75.036 -74.8303 -126.254 74.6553 -75.3379 -125.651 74.0053 
-75.6801 -124.933 73.3822 -75.9215 -124.171 72.5984 -76.0586 -123.494 71.5551 
-72.7523 -128.041 73.1265 -72.5207 -128.299 72.3619 -73.0251 -127.574 73.7689 
-73.3558 -126.816 74.1718 -73.7056 -125.97 74.164 -74.1073 -125.221 73.7892 
-74.6139 -124.472 73.3118 -75.1126 -123.733 72.6765 -75.4319 -123.122 71.701 
-75.5621 -122.539 70.6013 -83.4381 -128.871 73.2562 -82.7834 -129.328 73.9189 
-82.9573 -129.23 72.5664 -82.1699 -129.572 73.1908 -82.1266 -129.11 71.7715 
-81.9756 -129.584 74.6953 -81.2726 -129.413 72.2015 -81.0978 -128.823 71.0309 
-81.2175 -129.724 73.8203 -80.9076 -129.727 75.2484 -80.2602 -129.234 71.1698 
-79.9594 -128.406 70.3926 -80.2513 -129.677 72.4421 -79.9979 -129.808 74.0746 
-79.4374 -129.696 75.2579 -79.122 -128.795 70.3696 -78.8408 -127.704 69.7088 
-79.1839 -129.596 71.1105 -78.9081 -129.893 72.3506 -78.4074 -129.749 73.9123 
-77.6895 -129.525 74.9462 -77.9729 -127.96 69.6296 -77.9154 -126.981 68.7838 
-77.9706 -128.983 70.2748 -77.7442 -129.734 70.9286 -77.2816 -129.903 72.0788 
-76.657 -129.699 73.5306 -75.9275 -129.588 74.4809 -77.0688 -127.178 68.6339 
-77.1702 -126.427 67.6932 -76.891 -128.024 69.4887 -76.6272 -128.938 70.0836 
-76.2688 -129.63 70.6499 -75.7363 -129.845 71.6887 -75.054 -129.827 72.916 
-74.4236 -129.761 73.7191 -76.3973 -126.558 67.4951 -76.4911 -125.838 66.6649 
-76.1792 -127.251 68.3891 -75.8301 -128.014 69.1807 -75.4671 -128.829 69.7105 
-75.0378 -129.442 70.2841 -74.3986 -129.716 71.1945 -73.7634 -129.748 72.1123 
-73.3682 -129.511 72.7532 -75.7984 -125.869 66.4601 -75.8713 -125.1 65.7794 
-75.6337 -126.583 67.2254 -75.2908 -127.278 68.041 -74.8662 -127.988 68.741 
[...]
CELL_DATA 2000
SCALARS Distance double
LOOKUP_TABLE default
143.406 144.062 143.887 144.318 144.816 144.602 145.081 144.973 145.621 
145.707 145.432 145.963 145.826 146.55 146.454 147.237 146.723 146.403 
146.95 146.784 147.566 147.469 148.326 148.191 149.024 147.745 147.457 
148.019 147.831 148.638 148.538 149.457 149.342 150.248 150.065 150.931 
148.684 148.481 149.12 148.946 149.802 149.681 150.66 150.536 151.517 
151.344 152.272 152.041 152.899 149.613 149.469 150.244 150.098 151.035 
150.913 151.948 151.816 152.842 152.667 153.626 153.404 154.27 153.996 
154.759 150.657 150.525 151.44 151.302 152.303 152.182 153.229 153.117 
154.136 153.992 154.932 154.741 155.588 155.34 156.082 155.776 156.423 
151.824 151.695 152.683 152.56 153.574 153.456 154.467 154.361 155.339 
155.225 156.137 155.987 156.819 156.611 157.348 157.067 157.702 157.365 
157.92 143.104 143.017 143.275 143.753 142.997 143.243 143.714 143.966 
144.489 142.911 143.217 143.744 143.995 144.54 144.783 145.384 142.774 
143.114 143.712 144.037 144.675 144.927 145.559 145.773 146.416 142.707 
143.023 143.675 144.024 144.747 145.073 145.771 146.005 146.618 146.815 
147.411 142.727 143.043 143.763 144.079 144.861 145.18 145.94 146.206 
146.833 147.013 147.516 147.718 148.256 142.749 143.106 143.896 144.239 
145.069 145.375 146.193 146.439 147.126 147.254 147.726 147.809 148.218 
148.463 149.036 142.782 143.138 143.937 144.338 145.171 145.56 146.405 
146.731 147.486 147.634 148.119 148.083 148.378 148.43 148.859 149.219 
149.929 142.881 143.183 143.921 144.32 145.099 145.549 146.36 146.827 
147.603 147.935 148.455 148.491 148.71 148.633 148.898 149.071 149.67 
150.167 151.025 143.169 143.866 143.728 144.179 144.575 144.441 144.934 
144.811 145.332 145.331 145.155 145.646 145.561 146.123 146.018 146.595 
146.166 145.882 146.261 146.202 146.748 146.754 147.36 147.306 147.847 
147.296 146.782 147.022 146.785 147.219 147.24 147.779 147.892 148.382 
148.391 148.667 148.875 148.163 148.417 147.789 148.119 147.785 148.215 
148.186 148.608 148.69 148.933 148.901 148.909 150.593 149.944 150.351 
149.536 149.875 149.086 149.448 148.91 149.333 149.059 149.423 149.215 
149.399 149.124 149.19 152.062 151.635 152.187 151.551 151.989 151.128 
151.478 150.586 150.996 150.281 150.781 150.198 150.641 150.051 150.381 
149.795 150.101 153.274 152.992 153.623 153.244 153.806 153.187 153.594 
152.746 153.102 152.244 152.716 151.968 152.509 151.766 152.24 151.446 
151.863 151.104 151.53 152.654 153.053 153.418 154.556 153.47 153.866 
155.043 155.368 156.503 153.759 154.246 155.464 155.866 157.075 157.387 
158.602 153.982 154.484 155.753 156.247 157.558 157.986 159.321 159.625 
160.888 154.367 154.775 156.085 156.56 157.964 158.469 159.912 160.337 
161.658 161.905 163.002 154.79 155.207 156.491 156.96 158.371 158.899 
160.366 160.874 162.215 162.574 163.669 163.85 164.722 154.864 155.44 
156.598 157.231 158.531 159.2 160.573 161.21 162.5 162.996 164.093 
164.406 165.316 165.452 166.185 154.554 155.233 156.248 157.036 158.191 
159.052 160.289 161.14 162.336 163.059 164.123 164.66 165.599 165.942 
166.74 166.848 167.44 154.137 154.786 155.723 156.505 157.572 158.469 
159.609 160.567 161.691 162.609 163.634 164.426 165.346 165.982 166.8 
167.216 167.855 167.971 168.384 152.835 154.716 153.758 153.736 156.651 
155.676 155.671 154.688 154.651 158.752 157.686 157.71 156.671 156.65 
155.613 155.548 161.021 159.907 159.943 158.812 158.805 157.682 157.608 
156.511 156.407 163.113 162.148 162.179 161.088 161.054 159.902 159.802 
158.63 158.474 157.347 157.191 164.814 164.052 164.089 163.181 163.106 
162.07 161.913 160.797 160.588 159.436 159.202 158.083 157.861 166.221 
165.579 165.61 164.882 164.802 163.934 163.73 162.745 162.48 161.438 
161.146 160.062 159.748 158.666 158.361 167.4 166.844 166.813 166.22 
166.149 165.459 165.278 164.417 164.111 163.158 162.812 161.842 161.47 
160.461 160.063 159.044 158.667 168.319 167.868 167.758 167.258 167.157 
166.64 166.52 165.847 165.571 164.695 164.288 163.357 162.925 162.009 
161.566 160.629 160.182 159.238 158.829 168.702 169.011 168.641 168.148 
169.22 168.917 168.442 168.043 167.551 169.139 169.044 168.609 168.311 
167.841 167.48 166.965 168.532 168.743 168.365 168.328 167.873 167.685 
167.152 166.794 166.072 167.582 167.942 167.62 167.833 167.409 167.486 
166.945 166.799 166.03 165.662 164.753 166.678 166.998 166.697 166.959 
166.551 166.787 166.273 166.354 165.61 165.432 164.514 164.203 163.306 
165.828 166.154 165.835 166.058 165.604 165.834 165.31 165.513 164.837 
164.854 164.003 163.84 162.959 162.736 161.912 164.806 165.235 164.913 
165.187 164.688 164.881 164.295 164.493 163.841 163.983 163.229 163.233 
162.418 162.308 161.502 161.329 160.536 163.649 164.121 163.83 164.193 
163.73 163.951 163.351 163.501 162.84 162.981 162.291 162.397 161.674 
161.692 160.942 160.862 160.095 159.942 159.18 168.985 169.123 169.209 
169.297 168.617 169.086 169.324 169.449 169.466 167.669 168.339 168.643 
169.158 169.295 169.478 169.328 166.592 167.315 167.599 168.255 168.423 
168.948 168.87 169.068 168.669 165.352 166.176 166.46 167.159 167.283 
167.89 167.832 168.288 167.985 168.169 167.673 163.934 164.815 165.087 
165.908 166.014 166.689 166.61 167.145 166.919 167.303 166.966 167.152 
166.742 162.575 163.368 163.576 164.414 164.522 165.3 165.258 165.892 
165.721 166.212 165.975 166.345 166.052 166.263 165.874 161.337 162.048 
162.203 162.938 163.039 163.785 163.806 164.501 164.417 165.004 164.821 
165.301 165.041 165.423 165.067 165.307 164.832 160.109 160.806 160.943 
161.629 161.72 162.395 162.434 163.099 163.068 163.691 163.555 164.098 
163.856 164.318 163.988 164.355 163.934 164.171 163.673 154.208 154.932 
154.96 155.826 155.788 155.81 156.743 156.73 157.694 156.626 156.717 
157.732 157.735 158.729 158.701 159.718 157.406 157.552 158.625 158.713 
159.744 159.757 160.772 160.762 161.777 158.166 158.329 159.399 159.548 
160.597 160.704 161.729 161.784 162.794 162.797 163.736 158.84 159.05 
160.072 160.258 161.271 161.46 162.494 162.656 163.676 163.76 164.722 
164.696 165.514 159.328 159.618 160.587 160.832 161.777 162.03 163.037 
163.311 164.342 164.545 165.513 165.607 166.468 166.402 167.052 159.622 
159.977 160.896 161.215 162.103 162.421 163.374 163.737 164.74 165.07 
166.004 166.244 167.079 167.21 167.885 167.793 168.181 159.779 160.163 
161.023 161.4 162.242 162.625 163.525 163.956 164.903 165.324 166.188 
166.538 167.295 167.596 168.247 168.405 168.812 168.68 168.766 153.378 
152.329 153.225 154.026 151.238 152.151 152.925 153.904 154.787 150.099 
151.024 151.751 152.739 153.565 154.634 155.543 148.945 149.847 150.521 
151.5 152.268 153.344 154.229 155.359 156.296 147.894 148.705 149.333 
150.247 150.983 152.025 152.908 154.036 154.999 156.13 157.077 147.043 
147.731 148.335 149.125 149.842 150.785 151.671 152.751 153.726 154.846 
155.805 156.905 157.784 146.345 146.945 147.517 148.218 148.899 149.732 
150.569 151.564 152.512 153.595 154.527 155.618 156.483 157.55 158.315 
145.705 146.247 146.739 147.41 148.032 148.82 149.57 150.486 151.348 
152.379 153.275 154.341 155.184 156.235 157.002 158.015 158.673 145.105 
145.579 145.976 146.596 147.152 147.918 148.612 149.476 150.255 151.212 
152.055 153.088 153.931 154.961 155.732 156.721 157.4 158.338 158.904 
144.893 144.851 145.132 145.742 144.963 145.19 145.875 146.147 146.938 
145.266 145.452 146.243 146.441 147.318 147.543 148.452 145.698 145.876 
146.76 146.942 147.882 148.06 149.012 149.179 150.118 146.187 146.369 
147.273 147.485 148.445 148.66 149.638 149.812 150.789 150.928 151.908 
146.673 146.874 147.776 147.992 148.952 149.192 150.204 150.435 151.471 
151.65 152.682 152.8 153.79 147.147 147.361 148.305 148.519 149.509 
149.726 150.77 151.008 152.098 152.331 153.412 153.585 154.592 154.679 
155.59 147.684 147.871 148.85 149.071 150.101 150.326 151.392 151.62 
152.711 152.952 154.033 154.261 155.269 155.428 156.329 156.405 157.224 
148.301 148.456 149.423 149.631 150.658 150.908 151.976 152.236 153.3 
153.548 154.577 154.82 155.797 156.017 156.916 157.069 157.881 157.961 
158.702 148.97 150.431 149.823 150.121 152.092 151.395 151.719 151.053 
151.383 153.941 153.172 153.528 152.772 153.125 152.401 152.745 155.936 
155.116 155.503 154.685 155.051 154.246 154.578 153.801 154.097 157.998 
157.171 157.551 156.704 157.041 156.206 156.493 155.67 155.918 155.123 
155.354 159.842 159.163 159.481 158.696 158.955 158.147 158.382 157.563 
157.774 156.952 157.153 156.351 156.55 161.179 160.756 161.035 160.439 
160.645 159.945 160.154 159.398 159.613 158.807 159.008 158.176 158.354 
157.53 157.675 162.134 161.871 162.203 161.789 162.043 161.494 161.728 
161.087 161.312 160.593 160.782 160.002 160.145 159.328 159.423 158.594 
158.647 163.007 162.791 163.221 162.895 163.241 162.804 163.088 162.561 
162.786 162.177 162.323 161.647 161.726 161.003 161.036 160.273 160.27 
159.474 159.449 148.521 148.228 148.901 149.958 147.854 148.607 149.775 
150.454 151.623 147.503 148.298 149.621 150.346 151.663 152.261 153.5 
147.241 148.077 149.587 150.337 151.803 152.405 153.74 154.236 155.499 
147.033 147.902 149.534 150.383 151.945 152.614 153.993 154.516 155.812 
156.298 157.563 146.933 147.722 149.31 150.253 151.831 152.673 154.071 
154.721 156.005 156.573 157.836 158.34 159.454 147.012 147.641 149.048 
149.929 151.432 152.39 153.828 154.667 155.979 156.668 157.89 158.49 
159.56 160.02 160.831 147.172 147.694 148.92 149.645 151 151.906 
153.323 154.286 155.652 156.507 157.717 158.411 159.419 159.968 160.752 
161.155 161.765 147.301 147.784 148.898 149.51 150.724 151.488 152.783 
153.712 155.041 156.017 157.232 158.077 159.066 159.714 160.488 160.978 
161.618 162.002 162.586 147.568 145.985 146.936 147.215 144.305 145.263 
145.504 146.507 146.767 142.668 143.524 143.689 144.711 144.928 145.981 
146.274 141.277 141.932 141.976 142.877 143.045 144.074 144.285 145.432 
145.825 140.116 140.644 140.611 141.288 141.397 142.253 142.434 143.437 
143.747 144.987 145.536 138.99 139.51 139.476 140.05 140.128 140.798 
140.999 141.779 142.113 143.079 143.627 144.843 145.552 137.96 138.418 
138.417 138.955 139.057 139.657 139.892 140.565 140.972 141.741 142.333 
143.254 143.992 145.074 145.827 137.217 137.541 137.615 138.033 138.225 
138.711 139 139.582 140.029 140.747 141.369 142.185 142.898 143.784 
144.503 145.464 146.126 136.736 136.974 137.138 137.454 137.766 138.118 
138.487 138.883 139.322 139.885 140.474 141.239 141.925 142.767 143.427 
144.277 144.882 145.77 146.333 136.566 136.658 136.718 137.051 136.992 
136.943 137.327 137.375 137.773 137.487 137.326 137.683 137.733 138.191 
138.183 138.545 138.223 137.88 138.144 138.108 138.593 138.625 139.03 
138.958 139.338 139.244 138.752 138.944 138.68 139.113 139.062 139.535 
139.471 139.904 139.843 140.416 140.292 139.828 139.981 139.59 139.914 
139.701 140.177 140.062 140.589 140.495 141.116 141.097 141.841 141.152 
140.788 140.914 140.571 140.812 140.545 140.965 140.809 141.395 141.29 
141.964 141.884 142.614 142.59 143.334 141.906 141.578 141.727 141.427 
141.688 141.415 141.818 141.635 142.235 142.151 142.87 142.788 143.495 
143.401 144.087 144.045 144.743 142.665 142.348 142.566 142.274 142.621 
142.335 142.778 142.534 143.112 142.996 143.711 143.668 144.381 144.289 
144.931 144.823 145.474 145.436 146.139 143.162 144.134 143.458 143.179 
145.463 144.63 144.384 143.609 143.344 147.045 146.104 145.854 144.968 
144.701 143.852 143.572 148.8 147.775 147.502 146.523 146.241 145.306 
145.019 144.135 143.919 150.717 149.627 149.388 148.288 148.024 146.956 
146.689 145.687 145.484 144.599 144.507 152.693 151.62 151.451 150.309 
150.112 148.927 148.706 147.535 147.333 146.283 146.156 145.265 145.181 
154.544 153.574 153.431 152.38 152.214 151.089 150.893 149.695 149.467 
148.274 148.064 146.996 146.824 145.9 145.741 156.206 155.343 155.206 
154.263 154.076 153.079 152.865 151.805 151.559 150.419 150.149 148.986 
148.733 147.639 147.426 146.451 146.291 157.707 156.934 156.821 155.955 
155.766 154.83 154.599 153.631 153.393 152.38 152.129 151.038 150.772 
149.631 149.385 148.274 148.084 147.077 146.962 147.699 148.882 148.611 
149.327 150.217 149.904 150.658 150.352 151.136 151.609 151.301 152.08 
151.751 152.547 152.238 153.121 152.941 152.687 153.499 153.201 154.009 
153.683 154.56 154.306 155.297 154.18 153.98 154.837 154.611 155.466 
155.162 156.02 155.744 156.697 156.504 157.462 155.387 155.207 156.093 
155.924 156.828 156.596 157.457 157.185 158.066 157.853 158.745 158.547 
159.306 156.567 156.42 157.309 157.163 158.057 157.891 158.739 158.536 
159.358 159.159 159.969 159.768 160.473 160.21 160.744 157.618 157.553 
158.43 158.334 159.184 159.053 159.847 159.699 160.463 160.324 161.077 
160.921 161.596 161.35 161.872 161.529 161.913 158.479 158.502 159.356 
159.349 160.168 160.099 160.855 160.735 161.448 161.325 162.026 161.917 
162.58 162.416 162.964 162.667 163.069 162.658 162.946 142.245 142.064 
141.829 141.229 142.027 141.698 141.053 140.819 140.245 142.075 141.732 
141.114 140.764 140.159 139.873 139.29 142.125 141.809 141.228 140.877 
140.254 139.885 139.224 138.913 138.294 142.216 141.883 141.294 140.954 
140.312 139.962 139.28 138.91 138.216 137.911 137.331 142.374 142.019 
141.414 141.021 140.366 139.995 139.37 139.005 138.388 137.969 137.361 
137.028 136.592 142.504 142.187 141.616 141.199 140.562 140.121 139.536 
139.156 138.645 138.243 137.702 137.239 136.745 136.431 136.191 142.561 
142.294 141.792 141.431 140.868 140.416 139.841 139.401 138.878 138.502 
137.999 137.602 137.109 136.715 136.392 136.182 136.143 142.658 142.373 
141.938 141.624 141.166 140.772 140.262 139.783 139.23 138.764 138.25 
137.861 137.441 137.087 136.799 136.498 136.405 136.261 136.361 142.198 
141.234 141.786 141.941 140.215 140.794 140.998 141.591 141.807 139.185 
139.739 139.904 140.583 140.859 141.489 141.753 138.189 138.704 138.841 
139.487 139.801 140.493 140.845 141.474 141.817 137.264 137.738 137.937 
138.525 138.914 139.544 140.008 140.616 141.07 141.641 142.086 136.539 
136.908 137.161 137.714 138.19 138.802 139.352 139.928 140.466 140.999 
141.527 142.043 142.568 136.192 136.38 136.653 137.065 137.57 138.142 
138.737 139.336 139.907 140.461 141.014 141.547 142.122 142.628 143.185 
136.217 136.257 136.559 136.767 137.263 137.653 138.267 138.779 139.408 
139.937 140.532 141.055 141.659 142.193 142.793 143.279 143.8 136.45 
136.424 136.738 136.833 137.304 137.524 138.119 138.471 139.141 139.566 
140.231 140.668 141.31 141.778 142.402 142.883 143.429 143.86 144.294 
142.75 142.456 142.854 143.41 142.307 142.607 143.111 143.516 144.106 
142.311 142.548 143.089 143.352 143.975 144.325 144.971 142.431 142.647 
143.307 143.511 144.239 144.44 145.176 145.357 146.001 142.665 142.833 
143.53 143.788 144.581 144.828 145.613 145.76 146.456 146.516 147.194 
143.08 143.134 143.741 143.969 144.691 145.046 145.794 146.113 146.799 
146.994 147.682 147.821 148.635 143.665 143.619 144.143 144.211 144.824 
145.077 145.771 146.133 146.839 147.185 147.906 148.207 149.01 149.298 
150.187 144.26 144.218 144.717 144.687 145.246 145.314 145.983 146.187 
146.946 147.237 148.045 148.369 149.211 149.551 150.407 150.754 151.587 
144.73 144.755 145.257 145.261 145.808 145.823 146.458 146.549 147.297 
147.49 148.327 148.592 149.461 149.757 150.609 150.918 151.725 152.046 
152.803 147.443 146.794 146.708 145.883 146.265 146.099 145.254 145.125 
144.27 145.822 145.628 144.803 144.595 143.764 143.567 142.747 145.334 
145.17 144.347 144.175 143.37 143.167 142.379 142.156 141.423 144.85 
144.669 143.831 143.673 142.868 142.738 141.969 141.814 141.069 140.901 
140.229 144.517 144.279 143.511 143.244 142.479 142.261 141.531 141.369 
140.648 140.503 139.798 139.691 139.058 144.35 144.089 143.451 143.111 
142.438 142.072 141.398 141.075 140.4 140.135 139.462 139.269 138.644 
138.54 138.013 144.32 144.045 143.49 143.158 142.532 142.152 141.487 
141.099 140.419 140.042 139.369 139.052 138.444 138.228 137.722 137.611 
137.234 144.393 144.102 143.572 143.235 142.611 142.24 141.563 141.19 
140.499 140.117 139.423 139.051 138.417 138.126 137.607 137.419 137.02 
136.946 136.69 
POINT_DATA 1002
SCALARS Distance double
LOOKUP_TABLE default
143.713 142.95 143.56 144.393 144.239 144.853 145.18 145.034 145.677 
146.338 146.09 146.003 146.626 147.351 148.027 147.125 147.049 147.642 
148.433 149.199 149.85 148.204 147.99 148.733 149.544 150.396 151.151 
151.796 149.254 148.814 149.906 150.77 151.67 152.487 153.18 153.724 
150.344 149.686 151.136 152.065 153.012 153.846 154.547 155.086 155.468 
151.55 150.739 152.428 153.348 154.277 155.12 155.831 156.388 156.774 
157.028 152.798 151.937 153.704 154.593 155.461 156.28 157.012 157.617 
158.04 158.293 158.441 142.805 143.464 142.786 143.484 142.725 144.199 
143.446 142.567 144.307 145.12 143.331 142.425 144.363 145.359 146.203 
143.314 142.383 144.381 145.502 146.459 147.202 143.433 142.369 144.545 
145.66 146.664 147.385 147.971 143.519 142.362 144.74 145.923 146.999 
147.721 148.081 148.613 143.537 142.45 144.758 146.018 147.276 148.188 
148.457 148.606 149.365 143.563 142.631 144.668 145.874 147.189 148.348 
148.837 148.847 149.249 150.4 143.314 144.31 143.976 145.038 144.714 
145.459 145.714 145.569 146.189 146.725 146.366 146.567 146.706 147.352 
148.007 147.419 147.906 147.287 147.668 148.322 148.823 149.171 149.555 
148.668 148.408 148.576 148.933 149.052 151.113 151.116 150.775 150.188 
149.754 149.677 149.669 149.484 152.681 152.393 152.771 152.427 151.822 
151.418 151.253 151.007 150.659 153.906 153.526 154.286 154.367 153.992 
153.496 153.236 153.041 152.676 152.256 153.773 154.228 155.67 154.696 
156.208 157.633 155.003 156.696 158.323 159.852 155.216 157.043 158.94 
160.701 162.113 155.618 157.425 159.429 161.371 162.902 163.994 156.015 
157.843 159.847 161.823 163.451 164.656 165.519 155.943 157.839 159.912 
161.961 163.717 165.112 166.182 166.855 155.475 157.329 159.408 161.548 
163.501 165.154 166.532 167.509 167.958 154.982 156.715 158.674 160.747 
162.779 164.625 166.262 167.609 168.45 168.745 154.706 156.653 155.656 
158.773 157.705 156.592 161.099 159.959 158.752 157.481 163.233 162.207 
160.998 159.659 158.282 164.929 164.105 163.007 161.737 160.369 158.956 
166.29 165.612 164.691 163.494 162.21 160.862 159.427 167.39 166.761 
166.078 165.067 163.772 162.455 161.096 159.667 168.258 167.627 167.085 
166.399 165.25 163.844 162.478 161.126 159.755 169.105 168.561 169.368 
168.825 169.472 167.943 168.839 169.111 168.169 167.416 168.283 168.207 
167.979 167.473 166.571 167.338 167.204 167.243 167.009 166.355 165.168 
166.456 166.379 166.3 166.115 165.7 164.778 163.598 165.63 165.478 
165.421 165.093 164.727 164.087 163.147 162.135 164.599 164.341 164.513 
164.133 163.661 163.137 162.465 161.644 160.728 163.423 163.183 163.468 
163.21 162.711 162.148 161.589 160.969 160.215 159.344 169.106 169.42 
168.848 168.993 168.013 169.562 168.015 166.981 168.924 169.404 166.953 
165.843 167.832 168.52 168.692 165.734 164.48 166.696 167.325 167.658 
167.61 164.233 163.092 165.297 166.051 166.46 166.646 166.647 162.782 
161.854 163.715 164.555 165.17 165.539 165.748 165.767 161.509 160.649 
162.319 163.085 163.778 164.306 164.621 164.758 164.678 160.262 159.417 
161.059 161.782 162.436 162.99 163.371 163.578 163.63 163.496 154.119 
155.783 154.897 156.753 155.716 157.695 157.684 156.479 158.76 159.735 
158.495 157.246 159.697 160.777 161.805 159.248 158.004 160.455 161.642 
162.771 163.806 159.898 158.618 161.073 162.287 163.555 164.703 165.658 
160.339 159.026 161.527 162.734 164.093 165.378 166.461 167.288 160.567 
159.274 161.782 163.003 164.387 165.742 166.894 167.884 168.486 152.493 
153.066 151.43 151.961 150.327 153.752 150.788 149.186 152.51 154.436 
149.571 148.082 151.209 153.09 155.164 148.467 147.139 149.965 151.781 
153.856 155.98 147.593 146.402 148.949 150.616 152.621 154.705 156.73 
146.846 145.793 148.117 149.635 151.46 153.46 155.418 157.302 146.106 
145.222 147.271 148.713 150.367 152.221 154.147 155.988 157.719 145.412 