# vtk DataFile Version 4.0
vtk output
ASCII
DATASET POLYDATA
POINTS 1002 float
-78.1408 -108.854 59.658 -78.2821 -108.241 58.5814 -78.9763 -108.347 58.8572 
-78.7616 -109.069 59.8932 -79.6654 -108.565 59.1813 -77.928 -109.814 60.5673 
-79.2485 -109.554 59.9549 -80.3164 -108.938 59.4726 -78.4056 -110.366 60.5772 
-77.7184 -111.377 61.0461 -79.6508 -110.265 59.9319 -80.8517 -109.433 59.8567 
-78.6762 -111.312 60.3492 -78.08 -112.226 61.0191 -77.5974 -113.074 61.6964 
-80.0192 -111.054 60.0588 -81.1723 -110.087 60.3331 -78.9537 -112.37 60.1986 
-78.3125 -113.368 60.9269 -77.9635 -113.946 61.924 -77.5937 -114.501 62.8291 
-80.2676 -112.01 60.1977 -81.2818 -111.002 60.5406 -79.3449 -113.299 60.3119 
-78.685 -114.377 61.0685 -78.3143 -114.989 62.1175 -78.0128 -115.531 63.0658 
-77.6808 -116.284 63.7145 -80.3772 -113.19 60.2022 -81.2872 -112.112 60.397 
-79.696 -114.286 60.5198 -79.1852 -115.187 61.4386 -78.8186 -115.887 62.4791 
-78.4748 -116.657 63.2721 -78.1494 -117.622 63.8577 -77.8637 -118.601 64.2635 
-80.5214 -114.349 60.3599 -81.2899 -113.252 60.2611 -80.0166 -115.342 60.8919 
-79.6692 -116.092 61.8812 -79.4036 -116.785 62.9386 -79.1068 -117.67 63.6963 
-78.7489 -118.728 64.2618 -78.461 -119.714 64.7719 -78.2139 -120.475 65.1635 
-80.8142 -115.356 60.8081 -81.3325 -114.365 60.3473 -80.4767 -116.252 61.5418 
-80.225 -117.007 62.4581 -80.0262 -117.78 63.4027 -79.8514 -118.683 64.2239 
-79.5697 -119.619 64.9238 -79.2337 -120.411 65.5716 -78.9725 -121.01 66.0914 
-78.7157 -121.47 66.4139 -81.1993 -116.288 61.3597 -81.4349 -115.453 60.6161 
-81.0626 -117.032 62.2557 -80.9141 -117.77 63.1249 -80.7335 -118.625 63.9418 
-80.6119 -119.545 64.7954 -80.4673 -120.369 65.642 -80.1627 -120.992 66.372 
-79.8068 -121.42 66.9476 -79.5147 -121.762 67.348 -79.2185 -122.09 67.5731 
-78.8162 -107.662 57.8432 -79.6411 -107.856 58.1292 -79.4453 -107.068 57.3161 
-80.4212 -107.34 57.5962 -80.1955 -106.583 56.7606 -80.5289 -108.129 58.5501 
-81.2339 -106.76 57.0952 -80.8907 -106.184 55.9913 -81.4308 -107.69 58.0064 
-81.3562 -108.521 59.0497 -81.9474 -106.221 56.5031 -81.476 -105.827 55.1065 
-82.2714 -107.124 57.5154 -82.3067 -108.225 58.5653 -81.9489 -109.02 59.7805 
-82.5912 -105.962 55.7429 -82.1022 -105.477 54.1649 -83.0638 -106.656 57.0569 
-83.2128 -107.807 58.1078 -82.9936 -108.817 59.497 -82.3057 -109.618 60.5761 
-83.0954 -105.812 54.7274 -82.6 -105.029 53.2512 -83.678 -106.505 56.3463 
-83.9957 -107.415 57.6475 -84.0062 -108.522 59.0495 -83.57 -109.39 60.4971 
-82.5047 -110.408 60.891 -83.2933 -105.612 53.6603 -82.7096 -104.744 52.5457 
-83.928 -106.438 55.1949 -84.2982 -107.215 56.7748 -84.5319 -108.269 58.3421 
-84.5994 -109.346 60.0001 -83.8915 -110.198 60.9194 -82.4951 -111.439 60.6565 
-83.2909 -105.757 52.8464 -82.5745 -105.024 52.0684 -83.9985 -106.529 53.9825 
-84.297 -107.21 55.4754 -84.4596 -108.192 57.1899 -84.8554 -109.505 59.0364 
-84.7988 -110.475 60.4311 -83.7082 -111.256 60.6737 -82.2611 -112.603 60.2853 
-83.2378 -106.401 52.3663 -82.4396 -105.768 51.7407 -84.0468 -107.028 53.1588 
-84.3774 -107.535 54.3164 -84.4019 -108.314 55.8943 -84.7187 -109.654 57.7525 
-85.0037 -110.878 59.4305 -84.4118 -111.524 60.2348 -83.1034 -112.334 60.163 
-81.9545 -113.806 60.0866 -82.8252 -107.03 51.9309 -83.7259 -107.638 52.6131 
-83.1015 -108.143 52.3752 -83.7397 -108.587 53.1912 -82.9629 -108.952 53.0819 
-84.3177 -108.079 53.4808 -83.3861 -109.472 53.9809 -82.9118 -110.066 53.7535 
-84.138 -109.07 54.1931 -84.4704 -108.617 54.7703 -83.5347 -110.899 54.4805 
-83.4459 -111.751 54.0579 -84.0021 -110.294 54.9373 -84.5907 -109.93 55.5205 
-84.7203 -109.742 56.4761 -83.9365 -112.408 54.6485 -83.7211 -113.161 54.328 
-84.0614 -111.643 55.265 -84.5503 -111.153 56.0561 -84.9618 -111.038 57.0261 
-85.006 -111.074 58.2284 -83.4953 -113.437 55.2275 -83.0997 -114.151 55.1964 
-83.5552 -112.672 55.6187 -83.7395 -112.069 56.3543 -84.2044 -111.802 57.2661 
-84.4915 -111.848 58.3147 -84.5307 -111.84 59.3973 -82.7561 -114.815 56.4048 
-82.5023 -115.612 56.4764 -82.7634 -113.954 56.5373 -82.6851 -113.293 56.9913 
-82.862 -112.88 57.634 -83.1626 -112.664 58.3202 -83.3151 -112.603 59.053 
-83.316 -112.513 59.7218 -82.8222 -116.908 57.5704 -82.6371 -117.536 57.5816 
-82.8187 -116.041 57.6558 -82.6516 -115.297 57.942 -82.5155 -114.847 58.394 
-82.4747 -114.501 58.8075 -82.4081 -114.189 59.1403 -82.3126 -113.998 59.4859 
-82.1945 -113.881 59.8262 -83.3808 -118.798 58.5228 -83.052 -119.083 58.4795 
-83.5408 -118.165 58.6459 -83.4966 -117.437 58.8803 -83.3021 -116.923 59.2687 
-83.0138 -116.608 59.6779 -82.6261 -116.307 59.9244 -82.2134 -116.021 60.0526 
-81.9034 -115.799 60.2049 -81.6789 -115.608 60.4133 -81.634 -117.005 61.6174 
-81.934 -117.305 61.4814 -82.2728 -118.31 63.0266 -82.3277 -117.56 61.388 
-82.7201 -118.601 63.044 -83.1468 -119.408 64.5822 -82.8737 -117.744 61.3263 
-83.2611 -118.78 63.0462 -83.7237 -119.642 64.6887 -83.9399 -120.622 66.0809 
-83.4561 -117.916 61.1455 -83.7985 -118.886 62.9451 -84.271 -119.898 64.6565 
-84.5397 -120.986 66.0635 -84.4754 -121.986 67.353 -83.901 -118.174 60.736 
-84.1708 -119.12 62.6091 -84.5997 -120.275 64.4858 -85.03 -121.536 65.9095 
-85.0301 -122.497 67.1628 -84.9187 -123.256 68.4662 -84.1442 -118.611 60.2688 
-84.3397 -119.595 62.0993 -84.6303 -120.875 64.105 -85.2059 -122.226 65.7292 
-85.4098 -123.134 66.9729 -85.3413 -123.796 68.2849 -85.3504 -124.516 69.6413 
-84.1566 -119.203 59.952 -84.2958 -120.102 61.6983 -84.4293 -121.444 63.6153 
-84.9931 -122.893 65.3413 -85.3685 -123.73 66.796 -85.3723 -124.322 68.1363 
-85.4661 -125.126 69.4943 -85.577 -125.888 70.8024 -83.922 -119.733 59.7419 
-84.011 -120.429 61.4514 -84.0316 -121.6 63.2706 -84.5044 -123.146 64.8302 
-84.9381 -124.114 66.3477 -84.9497 -124.656 67.9156 -85.0577 -125.54 69.3039 
-85.3951 -126.548 70.5281 -85.5969 -127.136 71.7328 -83.4989 -119.977 59.5823 
-83.5575 -120.558 61.2038 -83.5113 -121.457 63.0117 -83.8853 -122.899 64.4631 
-84.3647 -124.101 65.7794 -84.3982 -124.772 67.3973 -84.4012 -125.614 68.9799 
-84.8072 -126.77 70.1847 -85.3032 -127.666 71.2409 -85.558 -128.019 72.391 
-81.6832 -117.666 62.6662 -82.444 -118.935 64.1308 -81.6928 -118.355 63.6451 
-83.2345 -120.26 65.6963 -82.4283 -119.807 65.1124 -81.5562 -119.241 64.5059 
-83.8459 -121.642 67.2465 -83.0813 -121.262 66.7908 -82.2256 -120.718 66.1732 
-81.3893 -120.161 65.4708 -84.3412 -122.946 68.5177 -83.6016 -122.593 68.2742 
-82.7818 -121.952 67.9353 -82.0281 -121.322 67.3857 -81.2891 -120.908 66.5177 
-84.8754 -124.216 69.704 -84.1127 -123.981 69.3933 -83.2451 -123.366 69.1211 
-82.5058 -122.458 68.9324 -81.8561 -121.889 68.2867 -81.0676 -121.528 67.2978 
-85.2944 -125.489 71.0421 -84.6099 -125.31 70.7405 -83.7283 -125.036 70.1925 
-82.9207 -124.206 69.8911 -82.2359 -123.277 69.4613 -81.4926 -122.64 68.6253 
-80.6435 -122.027 67.7626 -85.4891 -126.621 72.2989 -84.9954 -126.248 72.368 
-84.2412 -126.17 71.8217 -83.418 -125.836 71.1464 -82.6063 -125.022 70.5178 
-81.7707 -124.136 69.6837 -80.9521 -123.25 68.8349 -80.2108 -122.377 68.1346 
-85.5766 -127.523 73.2457 -85.294 -126.909 73.7848 -84.7377 -126.613 73.6142 
-83.9755 -126.53 72.858 -83.0692 -126.155 71.9486 -82.0851 -125.449 70.9906 
-81.1747 -124.578 70.0233 -80.4603 -123.568 69.2096 -79.8539 -122.661 68.4547 
-85.5285 -128.414 73.5456 -85.4958 -127.795 74.6067 -85.2074 -128.709 74.7006 
-85.0871 -128.012 75.7646 -84.3527 -128.892 75.3823 -85.1702 -127.089 75.1052 
-84.0167 -128.117 76.1627 -83.1177 -128.787 75.2232 -84.6007 -127.235 76.0042 
-84.5072 -126.729 74.6735 -82.6398 -127.979 75.6296 -82.0067 -128.529 74.4867 
-83.335 -127.311 76.1231 -83.7128 -126.782 75.2262 -83.5343 -126.543 73.6054 
-81.4688 -127.759 74.7441 -81.0488 -128.365 73.806 -81.8822 -127.227 75.6109 
-82.382 -126.833 75.231 -82.5952 -126.494 73.9029 -82.4003 -126.132 72.4316 
-80.2761 -127.637 74.1393 -79.9797 -128.22 73.3872 -80.4688 -127.116 74.954 
-80.9119 -126.828 74.857 -81.4019 -126.533 73.7885 -81.5056 -126.064 72.5993 
-81.3323 -125.463 71.3366 -79.0018 -127.577 73.6592 -78.8854 -128.012 72.8964 
-79.0386 -127.09 74.3226 -79.3908 -126.773 74.255 -80.0703 -126.531 73.3181 
-80.531 -126.065 72.3356 -80.5861 -125.389 71.457 -80.5131 -124.555 70.3266 
-77.9415 -127.436 72.8359 -77.8833 -127.735 72.0982 -77.9587 -126.987 73.432 
-78.2018 -126.573 73.4739 -78.7986 -126.281 72.7488 -79.4086 -125.918 71.825 
-79.7255 -125.308 71.1238 -79.8395 -124.484 70.3259 -79.8835 -123.546 69.3499 
-77.0631 -127.072 71.7212 -76.9566 -127.305 71.1345 -77.2173 -126.613 72.2268 
-77.5151 -126.076 72.4606 -77.973 -125.681 72.183 -78.4274 -125.427 71.4742 
-78.7461 -125.05 70.6935 -78.9743 -124.39 69.9419 -79.1535 -123.555 69.135 
-79.2433 -122.747 68.3274 -85.3102 -128.453 72.0833 -85.1475 -128.856 73.064 
-84.7814 -128.476 71.5715 -84.3295 -128.874 72.2921 -83.933 -128.318 70.9033 
-84.5171 -129.179 73.9443 -83.2191 -128.764 71.402 -82.9335 -128.213 70.1901 
-83.5075 -129.213 72.8571 -83.485 -129.282 74.3031 -82.1927 -128.693 70.535 
-82.0889 -127.98 69.4455 -82.5036 -129.176 71.7047 -82.6418 -129.348 73.057 
-82.3781 -129.112 74.0949 -81.4051 -128.392 69.6594 -81.4184 -127.497 68.5772 
-81.6158 -129.158 70.5642 -81.826 -129.524 71.7018 -81.6206 -129.413 73.0446 
-81.3139 -128.998 73.6849 -80.6702 -127.808 68.739 -80.7117 -126.959 67.6284 
-80.7155 -128.802 69.5442 -80.8095 -129.643 70.2421 -80.6209 -129.874 71.5614 
-80.3164 -129.528 72.8516 -80.2383 -128.915 73.2416 -79.9677 -127.177 67.7403 
-80.012 -126.426 66.6671 -79.9051 -128.105 68.6571 -79.794 -129.181 69.171 
-79.5864 -129.924 69.9061 -79.3293 -129.88 71.2572 -79.2796 -129.286 72.2923 
-79.2737 -128.597 72.6599 -79.4528 -126.582 66.5978 -79.501 -125.837 65.6764 
-79.3799 -127.406 67.5505 -79.1544 -128.331 68.3095 -78.9026 -129.198 68.856 
-78.7634 -129.538 69.6633 -78.7063 -129.204 70.7226 -78.6424 -128.629 71.4887 
-78.3839 -128.148 71.8936 -79.0906 -126.003 65.4276 -79.1592 -125.234 64.704 
-79.0287 -126.824 66.1782 -78.7969 -127.594 67.0292 -78.4882 -128.249 67.8689 
[...]
CELL_DATA 2000
SCALARS Distance double
LOOKUP_TABLE default
145.321 145.926 145.788 146.196 146.61 146.42 146.829 146.742 147.288 
147.373 147.127 147.539 147.431 148.033 147.976 148.664 148.203 147.92 
148.353 148.219 148.891 148.813 149.561 149.469 150.203 149.058 148.78 
149.247 149.105 149.836 149.756 150.561 150.444 151.227 151.079 151.865 
149.899 149.665 150.198 150.057 150.828 150.749 151.599 151.491 152.328 
152.181 153.055 152.887 153.803 150.756 150.571 151.218 151.079 151.906 
151.796 152.698 152.581 153.499 153.354 154.302 154.151 155.128 154.948 
155.863 151.681 151.535 152.313 152.181 153.075 152.941 153.892 153.76 
154.762 154.617 155.631 155.462 156.434 156.252 157.12 156.911 157.626 
152.678 152.569 153.443 153.332 154.264 154.14 155.104 154.991 156.013 
155.916 156.95 156.81 157.741 157.535 158.31 158.078 158.714 158.471 
158.993 144.905 144.56 144.995 145.549 144.349 144.741 145.362 145.736 
146.303 144.169 144.574 145.236 145.633 146.286 146.582 147.135 143.933 
144.373 145.057 145.515 146.265 146.638 147.294 147.494 148.016 143.717 
144.167 144.918 145.37 146.201 146.638 147.445 147.727 148.335 148.423 
148.889 143.434 143.972 144.798 145.294 146.157 146.613 147.502 147.897 
148.664 148.819 149.304 149.285 149.688 143.028 143.632 144.47 145.098 
145.927 146.49 147.336 147.893 148.782 149.159 149.793 149.783 150.106 
150.03 150.427 142.813 143.289 144.147 144.724 145.53 146.105 146.885 
147.553 148.505 149.178 150.037 150.275 150.663 150.504 150.711 150.709 
151.184 143.003 143.297 144.201 144.575 145.396 145.774 146.523 147.059 
148.022 148.8 149.845 150.409 150.975 150.991 151.097 150.976 151.209 
151.418 152.024 143.526 144.738 144.335 144.716 145.682 145.447 145.795 
145.468 145.774 146.535 146.257 146.643 146.416 146.755 146.44 146.811 
147.879 147.294 147.698 147.325 147.854 147.51 148.067 147.683 148.358 
149.34 148.76 148.995 148.518 148.965 148.673 149.296 149.034 149.733 
149.442 150.151 150.258 149.911 149.915 149.578 149.666 149.529 149.844 
149.902 150.346 150.44 150.859 150.862 151.122 151.267 150.749 150.802 
150.316 150.349 150.036 150.212 150.156 150.446 150.578 150.84 151.028 
151.158 151.249 151.208 153.014 152.203 152.514 151.633 151.926 151.131 
151.543 150.938 151.432 150.996 151.432 151.145 151.473 151.297 151.511 
151.331 151.453 154.934 154.23 154.682 153.778 154.196 153.227 153.738 
152.851 153.465 152.652 153.233 152.45 152.944 152.255 152.705 152.138 
152.547 152.044 152.404 153.349 153.574 154.015 155.142 153.847 154.306 
155.526 155.921 157.074 154.2 154.652 155.921 156.335 157.54 157.883 
159.011 154.564 155.037 156.285 156.717 157.943 158.352 159.533 159.849 
160.928 154.846 155.364 156.578 157.027 158.259 158.744 160.019 160.399 
161.52 161.733 162.695 155.132 155.626 156.844 157.28 158.526 159.057 
160.431 160.908 162.1 162.331 163.274 163.425 164.327 155.52 155.945 
157.116 157.522 158.718 159.286 160.657 161.27 162.475 162.827 163.708 
163.923 164.778 165.031 165.945 155.863 156.283 157.292 157.701 158.71 
159.321 160.535 161.302 162.425 162.985 163.768 164.138 164.883 165.307 
166.2 166.584 167.424 155.955 156.431 157.246 157.688 158.471 159.085 
160.081 160.919 161.941 162.68 163.416 163.945 164.59 165.158 165.979 
166.597 167.443 167.885 168.544 153.559 155.346 154.429 154.421 157.255 
156.306 156.3 155.331 155.285 159.217 158.271 158.318 157.296 157.27 
156.228 156.171 161.134 160.261 160.37 159.374 159.38 158.299 158.259 
157.173 157.127 162.876 162.119 162.249 161.372 161.363 160.367 160.285 
159.258 159.194 158.149 158.069 164.549 163.828 164.001 163.178 163.181 
162.243 162.115 161.154 161.031 160.098 159.976 158.991 158.803 166.223 
165.532 165.759 164.949 165.029 164.083 164.009 162.979 162.835 161.848 
161.68 160.74 160.498 159.545 159.259 167.708 167.147 167.361 166.663 
166.767 165.942 165.931 164.944 164.799 163.72 163.481 162.428 162.119 
161.129 160.78 159.863 159.55 168.838 168.463 168.649 168.107 168.169 
167.525 167.496 166.727 166.547 165.606 165.265 164.219 163.8 162.753 
162.326 161.343 160.959 160.084 159.768 169.405 170.101 169.656 169.276 
170.449 170.25 169.9 169.37 168.805 170.111 170.319 170.039 169.817 
169.241 168.758 168.092 169.169 169.639 169.439 169.629 169.108 168.941 
168.239 167.874 167.097 168.147 168.574 168.392 168.787 168.399 168.529 
167.875 167.752 166.965 166.675 165.785 167.273 167.593 167.354 167.726 
167.419 167.697 167.175 167.223 166.502 166.366 165.528 165.237 164.299 
166.42 166.726 166.428 166.735 166.393 166.704 166.251 166.444 165.82 
165.829 165.07 164.904 164.034 163.72 162.795 165.456 165.819 165.49 
165.793 165.385 165.678 165.202 165.465 164.895 165.057 164.374 164.377 
163.575 163.398 162.515 162.226 161.373 164.326 164.76 164.387 164.755 
164.286 164.613 164.099 164.396 163.848 164.084 163.465 163.592 162.863 
162.843 162.021 161.87 161.049 160.84 160.111 169.428 169.276 169.665 
170.087 168.606 169.249 169.719 170.168 170.381 167.704 168.397 168.83 
169.509 169.762 170.184 170.043 166.805 167.462 167.85 168.524 168.813 
169.371 169.34 169.59 169.187 165.824 166.527 166.907 167.571 167.888 
168.455 168.563 168.89 168.678 168.726 168.281 164.691 165.451 165.805 
166.558 166.863 167.528 167.692 168.159 168.082 168.274 167.956 167.915 
167.461 163.513 164.258 164.564 165.351 165.623 166.383 166.542 167.185 
167.153 167.583 167.325 167.506 167.075 167.072 166.578 162.37 163.071 
163.342 164.089 164.334 165.081 165.231 165.932 165.929 166.507 166.297 
166.685 166.288 166.498 166.008 166.091 165.571 161.294 161.944 162.19 
162.886 163.101 163.801 163.92 164.603 164.601 165.226 165.054 165.547 
165.191 165.544 165.081 165.336 164.831 164.983 164.435 156.159 156.608 
156.741 157.352 157.045 157.151 157.841 157.909 158.586 157.738 157.748 
158.567 158.555 159.396 159.36 160.241 158.527 158.565 159.469 159.461 
160.372 160.32 161.217 161.174 162.035 159.242 159.342 160.249 160.338 
161.23 161.272 162.096 162.093 162.835 162.82 163.462 159.928 160.045 
160.937 161.041 161.908 162.008 162.843 162.889 163.647 163.597 164.271 
164.151 164.75 160.476 160.676 161.546 161.689 162.531 162.646 163.51 
163.606 164.465 164.46 165.248 165.109 165.838 165.599 166.26 160.776 
161.073 161.893 162.166 162.973 163.195 164.023 164.223 165.072 165.217 
166.015 166.051 166.791 166.717 167.409 167.192 167.756 160.948 161.255 
162.026 162.367 163.152 163.486 164.28 164.595 165.38 165.656 166.378 
166.591 167.26 167.424 168.078 168.137 168.693 168.53 168.876 155.338 
154.163 155.161 155.848 152.934 153.948 154.725 155.627 156.28 151.828 
152.743 153.544 154.513 155.287 156.153 156.907 150.868 151.657 152.385 
153.357 154.212 155.173 155.991 156.859 157.652 150.009 150.698 151.301 
152.2 153.033 154.072 154.94 155.898 156.68 157.566 158.341 149.17 
149.831 150.361 151.143 151.875 152.866 153.722 154.757 155.55 156.515 
157.282 158.222 159.006 148.304 148.968 149.488 150.22 150.874 151.748 
152.533 153.516 154.319 155.318 156.111 157.11 157.913 158.869 159.591 
147.542 148.124 148.625 149.325 149.946 150.762 151.491 152.387 153.166 
154.115 154.933 155.93 156.763 157.748 158.497 159.385 159.973 146.999 
147.453 147.899 148.49 149.061 149.817 150.512 151.369 152.119 153.019 
153.808 154.773 155.6 156.594 157.367 158.287 158.918 159.717 160.213 
146.886 146.977 147.19 147.75 147.104 147.315 147.933 148.155 148.876 
147.336 147.516 148.204 148.41 149.203 149.447 150.327 147.705 147.845 
148.592 148.771 149.628 149.854 150.792 151.022 151.956 148.181 148.295 
149.087 149.243 150.141 150.346 151.316 151.536 152.519 152.711 153.661 
148.706 148.815 149.629 149.786 150.712 150.91 151.896 152.096 153.099 
153.302 154.319 154.487 155.46 149.263 149.367 150.197 150.35 151.302 
151.507 152.53 152.721 153.741 153.92 154.962 155.157 156.185 156.32 
157.233 149.878 149.97 150.832 150.955 151.918 152.112 153.164 153.375 
154.43 154.605 155.65 155.828 156.864 157.025 157.952 158.025 158.791 
150.532 150.629 151.513 151.624 152.568 152.738 153.765 153.996 155.056 
155.278 156.313 156.51 157.515 157.691 158.611 158.711 159.47 159.478 
160.101 151.179 152.509 151.969 152.206 153.87 153.336 153.635 153.045 
153.296 155.338 154.761 155.13 154.538 154.878 154.227 154.524 156.927 
156.33 156.755 156.133 156.558 155.895 156.265 155.546 155.847 158.439 
157.935 158.401 157.819 158.27 157.632 158.032 157.329 157.651 156.888 
157.132 159.816 159.398 159.909 159.417 159.88 159.316 159.714 159.07 
159.392 158.676 158.932 158.15 158.337 161.19 160.789 161.355 160.893 
161.408 160.887 161.33 160.722 161.064 160.378 160.64 159.909 160.094 
159.303 159.401 162.536 162.185 162.783 162.354 162.904 162.42 162.913 
162.345 162.717 162.044 162.29 161.571 161.725 160.979 161.026 160.239 
160.208 163.694 163.459 164.048 163.722 164.251 163.862 164.339 163.874 
164.233 163.644 163.84 163.158 163.237 162.521 162.505 161.755 161.654 
160.894 160.779 150.777 150.547 151.136 152.079 150.255 150.872 151.845 
152.462 153.426 149.899 150.528 151.525 152.224 153.299 153.884 154.906 
149.549 150.145 151.18 151.93 153.151 153.821 154.96 155.46 156.49 
149.365 149.858 150.925 151.65 152.979 153.73 154.974 155.534 156.565 
157.021 157.963 149.419 149.789 150.802 151.444 152.737 153.547 154.836 
155.513 156.553 157.045 157.944 158.407 159.3 149.622 149.909 150.779 
151.302 152.409 153.202 154.446 155.27 156.378 156.984 157.893 158.361 
159.249 159.726 160.642 149.831 150.101 150.866 151.257 152.184 152.814 
153.942 154.781 155.953 156.726 157.715 158.277 159.139 159.643 160.541 
161.063 161.962 149.94 150.261 151.027 151.361 152.231 152.663 153.677 
154.327 155.458 156.246 157.287 157.983 158.833 159.427 160.248 160.858 
161.73 162.311 163.119 149.879 148.429 149.308 149.617 146.946 147.801 
148.11 149.047 149.36 145.51 146.255 146.484 147.484 147.882 148.82 
149.086 144.3 144.84 144.871 145.769 146.173 147.286 147.706 148.568 
148.785 143.319 143.763 143.696 144.264 144.524 145.534 146.087 147.145 
147.534 148.312 148.583 142.292 142.844 142.936 143.344 143.53 144.143 
144.652 145.585 146.172 147.062 147.487 148.23 148.642 141.251 141.814 
142.038 142.607 142.869 143.385 143.778 144.433 145.009 145.814 146.404 
147.186 147.709 148.422 148.912 140.501 140.854 140.961 141.582 141.831 
142.549 142.871 143.585 144.011 144.78 145.344 146.161 146.759 147.525 
148.052 148.726 149.165 140.021 140.179 140.085 140.513 140.629 141.326 
141.595 142.421 142.769 143.646 144.11 145.038 145.604 146.507 147.037 
147.816 148.227 148.902 149.246 139.693 139.195 139.478 139.711 139.183 
139.198 139.476 139.705 140.195 139.794 139.546 139.833 139.747 140.182 
140.401 141.103 140.585 140.329 140.619 140.371 140.713 140.609 141.163 
141.438 142.278 141.255 141.072 141.398 141.201 141.529 141.289 141.692 
141.669 142.396 142.73 143.684 141.969 141.747 142.114 141.947 142.34 
142.119 142.497 142.31 142.891 142.999 143.914 144.266 145.257 142.827 
142.546 142.91 142.7 143.123 142.931 143.361 143.148 143.653 143.583 
144.343 144.566 145.521 145.86 146.737 143.725 143.432 143.754 143.513 
143.897 143.717 144.176 144.012 144.524 144.378 144.997 145.032 145.823 
146.089 146.926 147.234 147.945 144.581 144.302 144.588 144.333 144.673 
144.478 144.932 144.81 145.36 145.238 145.812 145.716 146.349 146.421 
147.148 147.386 148.113 148.363 148.989 145.131 146.023 145.425 145.161 
147.149 146.43 146.177 145.506 145.273 148.545 147.719 147.509 146.686 
146.472 145.73 145.583 150.058 149.205 149.017 148.147 147.941 147.089 
146.929 146.166 146.065 151.693 150.762 150.559 149.667 149.441 148.585 
148.381 147.578 147.424 146.675 146.543 153.646 152.559 152.385 151.316 
151.114 150.131 149.945 149.051 148.891 148.067 147.921 147.147 147.048 
155.726 154.655 154.544 153.361 153.224 152.045 151.942 150.825 150.734 
149.693 149.591 148.643 148.564 147.744 147.772 157.487 156.635 156.545 
155.526 155.396 154.278 154.177 153.021 152.937 151.767 151.671 150.536 
150.453 149.429 149.418 148.58 148.683 158.844 158.183 158.089 157.302 
157.137 156.25 156.07 155.115 154.933 153.91 153.728 152.66 152.51 
151.439 151.34 150.343 150.319 149.496 149.552 150.181 151.083 150.889 
151.414 152.193 151.96 152.586 152.234 152.716 153.345 153.126 153.804 
153.496 154.044 153.616 154.145 154.493 154.259 154.914 154.678 155.283 
154.957 155.522 155.138 155.802 155.667 155.409 156.059 155.797 156.458 
156.18 156.806 156.475 157.104 156.816 157.512 156.801 156.581 157.288 
157.024 157.779 157.475 158.197 157.807 158.43 158.058 158.681 158.423 
159.048 157.843 157.686 158.443 158.265 159.098 158.876 159.694 159.319 
159.985 159.485 160.073 159.639 160.269 159.935 160.541 158.772 158.691 
159.471 159.38 160.234 160.13 160.979 160.765 161.476 161.071 161.655 
161.157 161.758 161.303 161.946 161.518 162.097 159.523 159.546 160.342 
160.349 161.206 161.182 162.017 161.918 162.636 162.409 163.001 162.652 
163.203 162.806 163.376 162.97 163.512 163.066 163.507 142.256 142.09 
141.827 141.333 142.3 141.838 141.26 141.018 140.541 142.687 142.156 
141.47 141.035 140.366 140.113 139.534 143.024 142.532 141.834 141.302 
140.571 140.07 139.416 139.133 138.816 143.328 142.868 142.253 141.711 
141.081 140.473 139.935 139.379 139.112 138.832 138.961 143.578 143.176 
142.61 142.146 141.604 141.082 140.654 140.115 139.841 139.394 139.337 
139.183 139.392 143.754 143.388 142.82 142.442 141.908 141.534 141.106 
140.749 140.393 140.024 139.691 139.45 139.308 139.403 139.552 144.016 
143.601 143.076 142.66 142.154 141.779 141.355 141.056 140.696 140.391 
139.971 139.64 139.263 139.173 139.115 139.4 139.616 144.438 143.985 
143.55 143.057 142.627 142.14 141.765 141.354 141.066 140.707 140.409 
139.978 139.62 139.236 139.047 139.016 139.148 139.464 139.725 142.285 
141.352 141.875 142.13 140.583 141.079 141.323 141.85 142.246 139.646 
140.267 140.626 141.185 141.604 142.137 142.704 138.96 139.389 139.914 
140.529 141.111 141.627 142.173 142.718 143.354 139.081 139.096 139.618 
140.006 140.733 141.223 141.838 142.274 142.815 143.351 143.908 139.573 
139.485 139.842 139.96 140.537 140.921 141.526 141.953 142.442 142.869 
143.35 143.854 144.345 139.887 139.919 140.174 140.186 140.456 140.69 
141.078 141.529 141.955 142.441 142.885 143.367 143.875 144.349 144.867 
140.031 140.149 140.404 140.397 140.493 140.542 140.719 141.021 141.38 
141.863 142.326 142.862 143.409 143.94 144.524 144.976 145.512 140.088 
140.242 140.48 140.524 140.585 140.562 140.679 140.788 141.15 141.439 
141.962 142.366 142.965 143.472 144.122 144.643 145.245 145.66 146.149 
143.056 142.848 143.365 144.238 142.909 143.232 144.037 144.527 145.263 
143.376 143.473 144.234 144.476 145.224 145.521 146.217 144.045 144.081 
144.825 144.882 145.616 145.716 146.496 146.7 147.603 144.55 144.683 
145.374 145.48 146.131 146.211 146.929 147.114 148 148.284 149.14 
144.901 145.051 145.69 145.88 146.492 146.638 147.267 147.479 148.234 
148.57 149.326 149.611 150.159 145.359 145.397 146.022 146.165 146.849 
146.987 147.669 147.804 148.516 148.734 149.447 149.703 150.342 150.512 
151.13 145.955 145.912 146.509 146.58 147.307 147.433 148.193 148.292 
149.023 149.113 149.826 149.942 150.677 150.821 151.65 151.789 152.737 
146.547 146.503 147.043 147.093 147.772 147.915 148.649 148.802 149.5 
149.623 150.303 150.416 151.153 151.297 152.163 152.372 153.358 153.583 
154.565 149.736 149.099 149.054 148.318 148.519 148.446 147.723 147.641 
146.897 147.96 147.877 147.14 147.059 146.337 146.259 145.563 147.431 
147.32 146.537 146.44 145.69 145.668 145.028 145 144.408 146.996 
146.837 146.081 145.893 145.128 145.022 144.36 144.387 143.81 143.857 
143.306 146.673 146.473 145.783 145.551 144.859 144.624 143.953 143.795 
143.143 143.13 142.509 142.637 142.098 146.481 146.231 145.544 145.296 
144.622 144.417 143.767 143.537 142.827 142.591 141.898 141.83 141.308 
141.448 141.079 146.41 146.126 145.44 145.108 144.369 144.13 143.443 
143.286 142.584 142.356 141.654 141.433 140.956 140.899 140.675 140.714 
140.532 146.367 146.104 145.47 145.091 144.344 143.953 143.224 142.953 
142.29 142.079 141.462 141.265 140.844 140.756 140.615 140.591 140.517 
140.421 140.23 
POINT_DATA 1002
SCALARS Distance double
LOOKUP_TABLE default
145.677 144.863 145.426 146.264 146.09 146.649 146.909 146.835 147.316 
147.901 147.642 147.646 148.072 148.715 149.378 148.476 148.493 148.949 
149.656 150.316 150.917 149.376 149.311 149.897 150.667 151.362 152.006 
152.675 150.317 150.078 150.906 151.686 152.446 153.177 153.984 154.753 
151.325 150.873 152.017 152.798 153.612 154.439 155.293 156.108 156.728 
152.413 151.762 153.203 154.009 154.873 155.801 156.655 157.356 157.897 
158.255 153.536 152.738 154.382 155.21 156.093 157.075 157.974 158.595 
158.981 159.264 159.461 144.427 145.133 144.122 144.969 143.959 145.987 
144.796 143.753 145.945 146.928 144.571 143.48 145.807 147.044 147.912 
144.453 143.222 145.733 147.065 148.228 148.867 144.245 142.839 145.698 
147.042 148.402 149.367 149.681 143.814 142.434 145.354 146.732 148.237 
149.711 150.303 150.339 143.619 142.387 145.008 146.233 147.693 149.589 
150.814 150.876 150.924 143.886 142.737 145.098 146.084 147.256 149.122 
150.828 151.287 151.134 151.574 143.956 145.165 145.096 146.081 145.871 
146.142 146.822 146.913 147.028 147.097 148.147 148.579 148.128 148.408 
148.701 149.557 149.885 149.282 149.486 149.996 150.506 150.293 150.601 
149.897 149.823 150.227 150.82 151.256 151.357 151.848 150.763 150.394 
150.426 150.692 151.014 151.209 153.407 153.788 152.782 152.239 151.999 
151.876 151.735 151.675 151.657 155.494 155.52 155.146 154.661 154.316 
154.082 153.743 153.358 153.085 152.904 154.406 154.736 156.285 155.099 
156.745 158.193 155.501 157.164 158.714 160.128 155.869 157.487 159.18 
160.706 161.951 156.142 157.727 159.567 161.312 162.543 163.593 156.421 
157.973 159.881 161.848 163.141 164.141 165.249 156.753 158.176 160.009 
162.083 163.495 164.49 165.705 166.882 156.95 158.177 159.783 161.816 
163.38 164.433 165.728 167.169 168.222 156.851 157.941 159.301 161.162 
162.846 164.026 165.315 166.895 168.265 169.146 155.347 157.289 156.265 
159.332 158.335 157.211 161.324 160.456 159.352 158.215 163.085 162.339 
161.297 160.209 159.16 164.807 164.111 163.094 161.957 160.927 159.842 
166.54 165.93 165.047 163.887 162.661 161.453 160.201 168.022 167.523 
166.851 165.899 164.612 163.171 161.733 160.407 169.148 168.78 168.206 
167.434 166.309 164.877 163.355 161.89 160.581 169.922 169.902 170.484 
170.369 170.497 169.431 170.096 169.743 169.654 168.641 169.082 168.685 
169.14 168.531 167.55 167.956 167.801 168.141 167.918 167.18 166.169 
167.024 166.997 167.083 167.035 166.576 165.752 164.665 166.161 166.104 
166.101 165.997 165.724 165.163 164.296 163.141 165.192 165.073 165.119 
164.936 164.676 164.288 163.672 162.757 161.649 164.015 163.891 163.955 
163.786 163.578 163.291 162.817 162.101 161.206 160.292 169.218 169.858 
168.754 169.136 167.931 170.167 168.127 167.058 169.229 169.894 167.205 
166.154 168.219 168.994 169.136 166.224 165.095 167.293 168.155 168.544 
168.358 165.036 163.945 166.157 167.142 167.784 167.925 167.587 163.796 
162.799 164.861 165.852 166.634 167.047 167.007 166.634 162.619 161.693 
163.611 164.532 165.31 165.844 166.003 165.855 165.537 161.521 160.668 
162.431 163.263 163.969 164.525 164.795 164.775 164.615 164.341 156.107 
157.269 156.449 157.738 156.951 158.52 158.559 157.707 159.408 160.262 
159.432 158.445 160.418 161.291 162.1 160.151 159.133 161.165 162.11 
162.89 163.518 160.853 159.799 161.808 162.752 163.669 164.385 164.912 
161.377 160.255 162.408 163.378 164.4 165.329 166.032 166.573 161.589 
160.485 162.713 163.801 164.893 165.924 166.794 167.549 168.108 154.387 
154.991 153.112 153.743 151.949 155.444 152.539 150.998 154.353 156.066 
151.437 150.173 153.181 155.103 156.808 150.486 149.371 151.984 153.935 
155.787 157.449 149.641 148.501 150.961 152.682 154.552 156.314 158.087 
148.764 147.649 150.061 151.603 153.316 155.091 156.931 158.722 147.961 
147.018 149.153 150.626 152.245 153.941 155.769 157.591 159.181 147.382 