# vtk DataFile Version 4.0
vtk output
ASCII
DATASET POLYDATA
POINTS 1002 float
-75.5282 -107.984 59.0662 -75.8907 -107.003 58.4305 -76.5454 -107.241 58.7148 
-76.1758 -108.407 59.35 -77.2695 -107.708 59.0335 -75.1547 -109.247 59.6634 
-76.8613 -109.105 59.6843 -77.9904 -108.422 59.5112 -75.7632 -109.977 59.8906 
-74.8194 -110.926 60.2965 -77.3534 -110.072 59.9648 -78.4267 -109.402 59.9562 
-76.2945 -110.945 60.086 -75.3704 -111.891 60.4902 -74.5939 -112.959 61.0516 
-77.3859 -111.263 59.6801 -78.4149 -110.655 59.7369 -76.5281 -112.031 59.9916 
-75.8055 -112.891 60.589 -75.1465 -113.848 61.3711 -74.5321 -114.906 62.0432 
-77.2017 -112.398 58.7243 -78.2635 -111.825 58.8592 -76.5188 -113.095 59.4404 
-76.1027 -113.903 60.4958 -75.6653 -114.735 61.5933 -75.1648 -115.623 62.6021 
-74.6268 -116.456 63.354 -77.3612 -113.132 58.1299 -78.338 -112.597 58.2695 
-76.7416 -113.879 59.1021 -76.4596 -114.843 60.5444 -76.1615 -115.774 61.8079 
-75.7364 -116.573 62.9868 -75.304 -117.258 64.0035 -74.803 -117.861 64.7191 
-77.9052 -113.734 58.6596 -78.5946 -113.259 58.5079 -77.4061 -114.491 59.7038 
-77.0877 -115.583 61.1801 -76.7329 -116.706 62.3627 -76.241 -117.634 63.3776 
-75.8146 -118.337 64.4185 -75.4593 -118.875 65.2475 -74.9971 -119.4 65.7878 
-78.4865 -114.607 59.8463 -78.8757 -114.128 59.2776 -78.1819 -115.324 60.9074 
-77.8576 -116.347 62.1689 -77.4347 -117.433 63.1739 -76.8887 -118.403 64.0024 
-76.3818 -119.26 64.8878 -76.0387 -119.934 65.6906 -75.7014 -120.451 66.266 
-75.2474 -120.931 66.6549 -78.9944 -115.618 61.0015 -79.2029 -115.092 60.1755 
-78.832 -116.304 62.0304 -78.5465 -117.211 63.0505 -78.1327 -118.176 63.8903 
-77.6792 -119.055 64.6804 -77.2315 -119.922 65.5239 -76.8495 -120.739 66.2704 
-76.5093 -121.367 66.8384 -76.1008 -121.834 67.2677 -75.6166 -122.212 67.5786 
-76.6726 -106.242 57.888 -77.3945 -106.541 58.1403 -77.498 -105.549 57.2828 
-78.2459 -105.966 57.504 -78.32 -104.883 56.7872 -78.1684 -107.111 58.4552 
-79.1111 -105.282 57.1157 -79.1589 -104.148 56.4313 -79.0059 -106.581 57.8264 
-78.9324 -107.824 59.1143 -80.0756 -104.377 56.9352 -80.0073 -103.467 55.9362 
-79.8852 -105.786 57.4441 -79.8016 -107.17 58.5862 -79.4549 -108.749 59.9129 
-81.0267 -103.672 56.482 -80.7828 -103.049 55.118 -80.8929 -104.944 57.1788 
-80.7429 -106.378 57.9866 -80.5101 -107.972 59.5981 -79.6083 -110.009 60.0899 
-81.7368 -103.433 55.5965 -81.427 -102.855 54.1226 -81.7798 -104.592 56.7114 
-81.7298 -105.912 57.3954 -81.5924 -107.251 58.7969 -80.8953 -109.16 60.1372 
-79.5594 -111.217 59.5425 -82.1649 -103.471 54.5363 -81.8519 -102.826 53.1497 
-82.365 -104.58 55.9511 -82.5228 -105.822 56.9265 -82.5484 -106.883 57.9517 
-82.0581 -108.336 59.4356 -80.8755 -110.365 59.8963 -79.4908 -112.105 58.9645 
-82.3218 -103.698 53.5557 -81.9623 -103.053 52.3142 -82.7101 -104.632 54.9455 
-83.1046 -105.709 56.2616 -83.3057 -106.665 57.3768 -82.9756 -107.764 58.5714 
-81.9822 -109.472 59.441 -80.616 -111.407 59.27 -79.4475 -112.946 58.8281 
-82.2215 -104.14 52.8129 -81.8426 -103.571 51.6679 -82.7858 -104.844 53.9771 
-83.4541 -105.667 55.2215 -83.8935 -106.537 56.5645 -83.7114 -107.493 57.8419 
-82.8502 -108.839 58.7408 -81.5958 -110.64 58.9672 -80.3454 -112.449 58.8431 
-79.4939 -113.92 59.1601 -81.8674 -104.615 51.9263 -82.3993 -105.145 53.0709 
-81.9809 -105.696 52.3932 -82.6554 -106.214 53.3932 -82.2003 -106.832 52.8243 
-83.2609 -105.804 54.0522 -82.8472 -107.528 53.6643 -82.419 -108.251 52.9517 
-83.6314 -107.051 54.1909 -84.0966 -106.654 55.2443 -82.7996 -108.914 53.8859 
-82.4482 -109.774 53.0763 -83.5674 -108.465 54.5117 -84.2584 -108.054 55.4234 
-84.2541 -107.609 56.7764 -82.4135 -110.187 54.3253 -82.1306 -111.267 53.7817 
-82.9782 -109.521 54.9461 -83.6464 -109.26 55.7298 -83.8541 -108.97 56.908 
-83.4854 -108.725 58.0074 -81.8648 -112.017 55.184 -81.6114 -113.058 54.9886 
-82.1758 -110.966 55.5271 -82.5622 -110.372 56.0472 -82.7848 -110.221 56.8939 
-82.6615 -110.201 57.8114 -82.2234 -110.311 58.4652 -81.5258 -114.463 56.3349 
-81.1859 -114.99 56.289 -81.7438 -113.605 56.465 -81.8186 -112.667 56.7214 
-81.7896 -112.114 57.1946 -81.7099 -112.004 57.8024 -81.4692 -112.084 58.2738 
-80.9743 -112.246 58.5955 -81.4282 -116.46 57.6484 -80.9146 -116.478 57.6447 
-81.8173 -116.215 57.7233 -81.8825 -115.565 57.9194 -81.6377 -114.774 58.2352 
-81.3584 -114.278 58.6194 -81.1018 -114.099 58.9237 -80.6652 -114.042 59.0652 
-80.0645 -114 59.1397 -81.3179 -117.58 59.0817 -80.7025 -117.433 59.0942 
-81.9342 -117.697 59.1005 -82.2667 -117.491 59.2628 -82.1406 -116.881 59.5922 
-81.771 -116.224 59.9856 -81.4002 -115.835 60.2949 -80.935 -115.652 60.4003 
-80.3049 -115.514 60.3471 -79.682 -115.334 60.2672 -79.5857 -116.354 61.6725 
-80.1568 -116.594 61.8125 -80.2012 -117.619 63.2297 -80.866 -116.746 61.9797 
-80.8422 -117.854 63.4354 -80.7363 -119.085 64.7195 -81.5353 -116.846 62.0467 
-81.5293 -118.003 63.6546 -81.354 -119.472 65.0333 -81.1712 -120.912 66.3371 
-82.0105 -117.071 61.8199 -82.0969 -118.154 63.6597 -81.9879 -119.778 65.3046 
-81.8888 -121.37 66.7262 -81.9425 -122.605 68.0087 -82.3576 -117.609 61.3306 
-82.4121 -118.587 63.2413 -82.4388 -120.232 65.2229 -82.6432 -121.811 66.9044 
-82.9251 -122.916 68.2415 -82.9848 -123.841 69.4153 -82.53 -118.261 60.8382 
-82.507 -119.248 62.5926 -82.496 -120.932 64.6671 -82.934 -122.523 66.6394 
-83.6436 -123.445 68.0874 -83.9476 -124.189 69.3263 -83.5954 -125.032 70.5452 
-82.2626 -118.576 60.5836 -82.3175 -119.657 62.1439 -82.2614 -121.374 64.0103 
-82.5916 -123.112 66.0659 -83.4293 -124.156 67.6883 -84.1714 -124.828 68.9392 
-84.2147 -125.567 70.2752 -83.6975 -126.293 71.5749 -81.5922 -118.494 60.5686 
-81.7537 -119.635 62.0406 -81.8261 -121.292 63.6094 -82.0591 -123.08 65.4647 
-82.6367 -124.409 67.2406 -83.4027 -125.329 68.6012 -83.9449 -126.115 69.8776 
-84.0264 -126.81 71.2645 -83.7954 -127.376 72.4844 -80.8685 -118.317 60.5973 
-81.0348 -119.443 62.0555 -81.2214 -120.998 63.4132 -81.5279 -122.72 64.9175 
-81.972 -124.184 66.6319 -82.4856 -125.348 68.209 -83.0328 -126.32 69.5158 
-83.5467 -127.101 70.7786 -83.9001 -127.741 72.0477 -84.0023 -128.263 73.1234 
-79.4863 -117.018 62.685 -80.0168 -118.447 64.1995 -79.2569 -117.864 63.6505 
-80.4652 -120.157 65.7632 -79.6522 -119.469 65.1186 -78.8463 -118.86 64.4719 
-81.0996 -122.093 67.5148 -80.2282 -121.364 66.8365 -79.2967 -120.641 66.0471 
-78.4657 -119.845 65.3192 -82.0526 -123.635 69.1671 -81.147 -123.188 68.6005 
-80.0997 -122.569 67.855 -79.0946 -121.76 67.047 -78.1745 -120.767 66.2712 
-82.7599 -124.799 70.5918 -81.9958 -124.466 70.2263 -81.0212 -124.022 69.582 
-79.8533 -123.485 68.7767 -78.8447 -122.636 67.9249 -77.8486 -121.62 67.077 
-82.9659 -125.977 71.824 -82.3457 -125.537 71.7486 -81.6695 -125 71.3594 
-80.5358 -124.541 70.5847 -79.3755 -124.028 69.5569 -78.449 -123.224 68.5711 
-77.4617 -122.288 67.6628 -83.1737 -127.09 72.8384 -82.5171 -126.596 72.9662 
-82.0096 -125.948 72.9542 -81.143 -125.358 72.5194 -79.8957 -124.91 71.4342 
-78.8647 -124.371 70.1718 -77.9888 -123.62 69.1098 -77.0045 -122.757 68.1427 
-83.5909 -128.052 73.6034 -82.8688 -127.532 73.8309 -82.2273 -126.806 74.0268 
-81.5314 -126.132 74.036 -80.4454 -125.66 73.2734 -79.2947 -125.24 71.872 
-78.3835 -124.668 70.571 -77.464 -123.935 69.5145 -76.4689 -123.107 68.4973 
-84.0031 -129.029 73.9197 -83.424 -128.611 74.3994 -83.495 -129.581 74.528 
-82.603 -128.845 75.0106 -82.2519 -129.661 74.7382 -82.4958 -127.756 74.69 
-81.135 -128.773 75.1407 -80.7423 -129.51 74.3343 -81.4093 -127.72 75.4101 
-81.6128 -126.843 74.9924 -79.7353 -128.777 74.5256 -79.4058 -129.52 73.5585 
-79.9577 -127.758 75.4996 -80.3786 -126.842 75.6114 -80.6726 -126.267 74.7355 
-78.5033 -128.923 73.5742 -77.9309 -129.595 72.9564 -78.7749 -128.06 74.6414 
-79.0717 -127.091 75.3328 -79.4782 -126.442 74.7686 -79.5791 -125.931 73.4122 
-76.9249 -129.018 72.9597 -76.211 -129.654 72.5468 -77.5088 -128.288 73.5203 
-77.9186 -127.409 74.203 -78.3024 -126.653 74.0561 -78.5897 -126.129 73.0027 
-78.5855 -125.485 71.7843 -75.3085 -129.068 72.5139 -74.8138 -129.657 71.8728 
-75.9054 -128.307 72.862 -76.5088 -127.463 73.1375 -77.0321 -126.699 73.0772 
-77.4499 -126.146 72.3652 -77.6644 -125.579 71.4363 -77.6309 -124.81 70.5388 
-74.2193 -128.902 71.6896 -73.9806 -129.312 70.8419 -74.5439 -128.198 72.2726 
-75.0377 -127.332 72.4669 -75.6039 -126.559 72.3193 -76.1069 -125.985 71.8095 
-76.467 -125.445 71.0688 -76.6099 -124.776 70.3078 -76.5704 -123.98 69.4588 
-73.4933 -128.379 70.5947 -73.3764 -128.604 69.8106 -73.6008 -127.885 71.3294 
-73.8835 -127.121 71.6989 -74.3365 -126.349 71.6107 -74.7891 -125.753 71.2516 
-75.1657 -125.183 70.7271 -75.4379 -124.53 70.048 -75.5598 -123.837 69.2502 
-75.5879 -123.076 68.393 -83.9183 -128.722 72.8121 -83.7745 -129.531 73.4851 
-83.1995 -128.908 72.0786 -82.7779 -129.557 72.5752 -82.0984 -128.804 71.2029 
-82.9752 -129.963 73.9519 -81.488 -129.272 71.5397 -81.0488 -128.618 70.3954 
-81.8089 -129.785 72.9196 -81.5867 -129.927 73.9586 -80.465 -129.138 70.4233 
-80.1904 -128.475 69.3691 -80.5835 -129.581 71.6659 -80.5174 -129.952 72.8533 
-80.1251 -129.965 73.4516 -79.6916 -129.098 69.0114 -79.4035 -128.164 68.0867 
-79.688 -129.662 70.1459 -79.47 -130.133 71.4233 -79.1673 -130.427 72.3917 
-78.6669 -130.172 72.8273 -78.8472 -128.687 67.6974 -78.5403 -127.485 67.0535 
-78.8943 -129.551 68.5605 -78.6256 -130.131 69.724 -78.2084 -130.59 70.8828 
-77.6619 -130.635 71.7512 -76.9503 -130.202 72.2946 -77.8586 -127.843 66.8179 
-77.6063 -126.576 66.3199 -77.9476 -128.961 67.3849 -77.7729 -129.69 68.219 
-77.3901 -130.159 69.1832 -76.7812 -130.459 70.1062 -75.9973 -130.451 70.9654 
-75.2984 -130.145 71.5936 -76.9537 -126.869 66.0142 -76.7936 -125.693 65.518 
-77.0057 -128.063 66.4811 -76.8577 -129 67.0839 -76.563 -129.577 67.7626 
-76.0459 -129.951 68.4413 -75.2684 -130.212 69.2471 -74.5622 -130.23 70.0758 
-74.1843 -129.901 70.6163 -76.2975 -125.969 65.0651 -76.2157 -124.916 64.6005 
-76.2996 -127.071 65.5106 -76.1055 -128.082 66.0555 -75.7812 -128.884 66.6273 
[...]
CELL_DATA 2000
SCALARS Distance double
LOOKUP_TABLE default
143.087 143.845 143.611 143.997 144.84 144.495 144.912 144.648 145.174 
145.955 145.568 145.977 145.667 146.217 145.989 146.7 146.878 146.577 
146.907 146.693 147.218 147.053 147.765 147.641 148.478 147.431 147.246 
147.49 147.451 148.006 147.987 148.742 148.686 149.546 149.463 150.314 
147.847 147.658 147.945 147.963 148.697 148.78 149.718 149.698 150.654 
150.559 151.473 151.312 152.117 148.536 148.24 148.745 148.639 149.617 
149.657 150.81 150.788 151.846 151.732 152.686 152.523 153.379 153.134 
153.882 149.624 149.275 150.041 149.806 150.926 150.842 152.06 151.988 
153.056 152.936 153.876 153.74 154.615 154.417 155.197 154.906 155.596 
150.907 150.617 151.524 151.297 152.395 152.258 153.376 153.261 154.262 
154.128 155.051 154.919 155.823 155.655 156.487 156.227 156.945 156.605 
157.228 142.697 142.371 142.811 143.435 142.113 142.534 143.197 143.657 
144.413 141.899 142.319 142.999 143.456 144.252 144.75 145.564 141.688 
142.119 142.787 143.247 144.031 144.58 145.474 145.961 146.652 141.502 
141.929 142.616 143.043 143.793 144.321 145.257 145.861 146.726 147.03 
147.44 141.35 141.776 142.545 142.958 143.752 144.16 145.064 145.634 
146.628 147.117 147.737 147.757 147.937 141.205 141.641 142.47 142.949 
143.847 144.238 145.1 145.518 146.438 146.979 147.756 148.026 148.347 
148.237 148.443 141.091 141.509 142.336 142.862 143.803 144.31 145.177 
145.576 146.347 146.79 147.512 147.938 148.408 148.547 148.794 148.799 
149.241 141.083 141.439 142.237 142.717 143.62 144.18 145.073 145.563 
146.313 146.698 147.319 147.689 148.19 148.483 148.844 149.016 149.43 
149.65 150.324 141.397 142.342 142.059 142.544 143.408 143.063 143.537 
143.301 143.897 144.579 144.177 144.67 144.375 144.987 144.746 145.361 
145.743 145.334 145.794 145.532 146.145 145.895 146.474 146.181 146.644 
146.835 146.388 146.653 146.467 146.939 146.88 147.357 147.201 147.549 
147.283 147.574 148.194 147.543 147.69 147.247 147.534 147.411 147.792 
147.797 148.109 148.016 148.243 148.065 148.311 149.961 149.199 149.543 
148.685 149.03 148.322 148.746 148.338 148.809 148.574 148.972 148.733 
149.033 148.789 149.029 151.681 151.116 151.717 150.906 151.445 150.428 
150.925 149.953 150.514 149.78 150.374 149.801 150.286 149.758 150.099 
149.614 149.844 153.012 152.71 153.383 152.954 153.567 152.87 153.332 
152.406 152.816 151.898 152.388 151.599 152.1 151.36 151.76 151.027 
151.336 150.638 150.898 151.858 152.357 152.619 153.68 152.857 153.145 
154.238 154.511 155.63 153.274 153.631 154.758 155.077 156.259 156.539 
157.761 153.621 154.006 155.156 155.551 156.804 157.193 158.52 158.808 
160.107 154.055 154.37 155.504 155.904 157.228 157.733 159.187 159.585 
160.938 161.172 162.353 154.499 154.811 155.862 156.239 157.542 158.13 
159.669 160.221 161.627 161.946 163.1 163.274 164.241 154.605 155.075 
156.003 156.477 157.632 158.32 159.775 160.535 161.918 162.458 163.565 
163.889 164.823 165.002 165.805 154.298 154.907 155.746 156.371 157.378 
158.166 159.43 160.351 161.62 162.426 163.471 164.07 164.953 165.383 
166.183 166.426 167.124 153.847 154.46 155.268 155.944 156.887 157.697 
158.823 159.768 160.933 161.864 162.885 163.685 164.549 165.219 165.994 
166.528 167.237 167.589 168.216 151.908 153.789 152.778 152.683 155.742 
154.731 154.689 153.652 153.59 157.883 156.772 156.74 155.667 155.611 
154.571 154.493 160.265 159.088 159.113 157.875 157.841 156.649 156.574 
155.458 155.341 162.517 161.494 161.591 160.387 160.388 159.08 159.021 
157.707 157.585 156.335 156.179 164.373 163.569 163.676 162.72 162.705 
161.577 161.463 160.216 160.037 158.72 158.484 157.193 156.969 165.919 
165.248 165.339 164.57 164.55 163.64 163.47 162.421 162.149 161.013 
160.688 159.477 159.127 157.91 157.595 167.278 166.694 166.775 166.092 
166.09 165.317 165.187 164.248 163.947 162.897 162.523 161.452 161.06 
159.947 159.534 158.399 158.009 168.466 167.994 168.075 167.441 167.387 
166.721 166.6 165.838 165.558 164.605 164.182 163.151 162.722 161.703 
161.273 160.218 159.756 158.682 158.241 169.123 169.803 169.3 168.725 
169.812 169.688 169.09 168.63 167.927 169.089 169.317 168.791 168.688 
168.021 167.72 167.059 168.118 168.433 168.037 168.166 167.629 167.588 
167.004 166.777 166.037 167.204 167.505 167.193 167.409 166.998 167.088 
166.57 166.528 165.844 165.58 164.678 166.289 166.603 166.284 166.573 
166.188 166.396 165.878 165.962 165.296 165.22 164.397 164.118 163.193 
165.375 165.687 165.339 165.621 165.184 165.462 164.916 165.124 164.458 
164.546 163.788 163.714 162.868 162.625 161.724 164.378 164.755 164.394 
164.665 164.169 164.405 163.83 164.063 163.427 163.615 162.912 162.997 
162.217 162.161 161.294 161.1 160.188 163.19 163.663 163.304 163.658 
163.146 163.386 162.78 162.987 162.364 162.571 161.917 162.071 161.338 
161.398 160.581 160.533 159.661 159.51 158.638 169.232 169.14 169.566 
169.96 168.35 169.131 169.63 170.033 170.001 167.261 168.088 168.535 
169.295 169.396 169.698 169.281 166.257 166.974 167.325 168.059 168.264 
168.841 168.696 168.833 168.326 165.226 165.97 166.304 166.941 167.18 
167.769 167.865 168.216 167.978 167.951 167.442 163.968 164.836 165.179 
165.902 166.1 166.739 166.85 167.388 167.282 167.523 167.107 167.054 
166.502 162.533 163.465 163.8 164.645 164.808 165.539 165.548 166.219 
166.072 166.598 166.234 166.504 165.994 166.046 165.52 161.076 161.98 
162.294 163.181 163.362 164.143 164.139 164.812 164.644 165.232 164.929 
165.405 165.004 165.323 164.857 165.002 164.479 159.724 160.541 160.821 
161.67 161.859 162.664 162.708 163.402 163.289 163.857 163.621 164.105 
163.8 164.224 163.847 164.162 163.677 163.849 163.274 153.868 154.465 
154.53 155.317 155.191 155.24 156.109 156.121 157.016 155.929 156.028 
157.004 157.036 158.025 157.994 158.991 156.694 156.81 157.879 157.974 
159.06 159.079 160.13 160.074 161.071 157.517 157.634 158.723 158.853 
159.984 160.097 161.207 161.221 162.222 162.129 163.013 158.227 158.427 
159.473 159.653 160.724 160.927 162.034 162.202 163.225 163.232 164.088 
163.963 164.699 158.687 158.998 160.011 160.286 161.295 161.553 162.596 
162.874 163.889 164.072 164.925 164.935 165.652 165.541 166.167 158.994 
159.344 160.351 160.706 161.727 162.04 163.058 163.355 164.339 164.595 
165.455 165.602 166.348 166.387 167.069 166.96 167.495 159.274 159.611 
160.597 160.986 162.018 162.403 163.42 163.762 164.699 164.98 165.794 
166.013 166.764 166.951 167.71 167.789 168.438 168.254 168.622 153.068 
151.992 152.886 153.621 150.839 151.779 152.531 153.479 154.274 149.678 
150.605 151.36 152.347 153.144 154.124 154.941 148.594 149.462 150.204 
151.175 151.99 152.972 153.796 154.785 155.657 147.544 148.38 149.079 
150.035 150.852 151.835 152.67 153.648 154.52 155.539 156.461 146.495 
147.298 147.944 148.889 149.679 150.685 151.513 152.514 153.361 154.389 
155.28 156.333 157.19 145.584 146.286 146.917 147.772 148.544 149.507 
150.33 151.329 152.162 153.192 154.046 155.106 155.937 156.968 157.695 
144.916 145.498 146.122 146.839 147.584 148.435 149.252 150.185 151.026 
152.004 152.852 153.864 154.688 155.701 156.446 157.408 158.051 144.425 
144.931 145.512 146.121 146.778 147.525 148.284 149.161 150.003 150.936 
151.787 152.725 153.538 154.488 155.247 156.192 156.879 157.775 158.382 
144.351 144.552 144.771 145.425 144.704 144.953 145.629 145.882 146.626 
144.905 145.125 145.832 146.086 146.91 147.197 148.108 145.25 145.421 
146.22 146.411 147.357 147.602 148.666 148.885 149.902 145.73 145.876 
146.791 146.963 148.032 148.235 149.4 149.588 150.688 150.784 151.736 
146.334 146.459 147.444 147.629 148.749 148.978 150.136 150.355 151.43 
151.576 152.519 152.583 153.447 147.026 147.146 148.164 148.337 149.439 
149.665 150.759 151.001 152.021 152.23 153.174 153.317 154.211 154.277 
155.127 147.724 147.865 148.884 149.063 150.118 150.32 151.35 151.563 
152.563 152.778 153.772 153.958 154.934 155.044 155.948 155.966 156.772 
148.379 148.537 149.511 149.718 150.713 150.933 151.915 152.13 153.118 
153.337 154.361 154.58 155.606 155.773 156.719 156.784 157.603 157.574 
158.286 149.04 150.406 149.864 150.178 151.878 151.29 151.628 151.058 
151.386 153.542 152.879 153.273 152.61 152.973 152.319 152.627 155.364 
154.666 155.125 154.395 154.804 154.044 154.382 153.619 153.895 157.173 
156.515 156.973 156.281 156.696 155.949 156.295 155.488 155.778 154.948 
155.194 158.808 158.254 158.69 158.066 158.473 157.796 158.151 157.398 
157.688 156.875 157.121 156.271 156.463 160.199 159.783 160.266 159.727 
160.173 159.543 159.95 159.235 159.557 158.762 159.001 158.173 158.346 
157.486 157.575 161.408 161.102 161.664 161.243 161.731 161.2 161.624 
161.004 161.348 160.616 160.847 160.027 160.165 159.312 159.362 158.485 
158.448 162.505 162.282 162.879 162.566 163.049 162.635 163.009 162.529 
162.836 162.275 162.491 161.796 161.899 161.088 161.092 160.219 160.137 
159.243 159.111 148.598 148.355 148.976 149.96 148.018 148.72 149.776 
150.395 151.428 147.612 148.354 149.507 150.226 151.363 151.947 153.06 
147.342 148 149.236 150 151.283 151.927 153.121 153.671 154.851 
147.287 147.85 149.103 149.831 151.216 151.904 153.182 153.755 154.972 
155.519 156.689 147.252 147.829 149.04 149.751 151.122 151.859 153.164 
153.799 155.022 155.623 156.812 157.331 158.369 147.149 147.75 148.919 
149.631 150.921 151.701 152.98 153.707 154.934 155.616 156.81 157.406 
158.445 158.888 159.743 147.108 147.657 148.793 149.454 150.666 151.421 
152.657 153.437 154.676 155.448 156.666 157.347 158.396 158.897 159.733 
160.136 160.896 147.176 147.656 148.735 149.323 150.462 151.145 152.323 
153.081 154.293 155.109 156.323 157.109 158.173 158.78 159.612 160.065 
160.798 161.227 161.962 147.663 146.134 147.061 147.374 144.574 145.485 
145.764 146.727 147.005 143.039 143.892 144.097 145.059 145.324 146.308 
146.578 141.593 142.351 142.415 143.309 143.499 144.553 144.875 145.916 
146.292 140.204 140.92 140.869 141.606 141.598 142.597 142.898 144.122 
144.61 145.739 146.226 138.753 139.482 139.458 140.129 140.045 140.777 
140.941 142.062 142.609 143.933 144.525 145.69 146.174 137.472 138.044 
138.083 138.768 138.878 139.484 139.686 140.41 140.91 141.987 142.668 
143.883 144.457 145.584 146.06 136.744 137.014 137.07 137.567 137.852 
138.478 138.906 139.508 140.035 140.713 141.353 142.232 142.877 143.887 
144.461 145.507 146.047 136.471 136.594 136.704 136.911 137.202 137.647 
138.148 138.781 139.381 140.033 140.63 141.273 141.865 142.59 143.192 
144.052 144.66 145.609 146.189 136.398 136.568 136.585 136.768 136.815 
136.871 137.137 137.018 137.246 137.083 137.169 137.541 137.454 137.694 
137.605 138.063 137.579 137.539 138.006 137.923 138.222 138.08 138.504 
138.576 139.26 138.414 138.184 138.65 138.512 138.894 138.687 139.091 
139.05 139.726 139.865 140.583 139.398 139.056 139.395 139.219 139.636 
139.448 139.886 139.736 140.369 140.4 141.154 141.197 141.837 140.395 
139.996 140.226 139.968 140.372 140.216 140.733 140.591 141.215 141.143 
141.867 141.846 142.526 142.473 143.102 141.381 140.977 141.201 140.851 
141.245 141.025 141.598 141.462 142.113 142.009 142.681 142.611 143.276 
143.212 143.862 143.806 144.503 142.292 141.945 142.191 141.852 142.229 
141.973 142.526 142.371 143.018 142.896 143.529 143.419 144.041 143.968 
144.617 144.575 145.27 145.254 145.991 142.842 143.74 143.109 142.805 
144.905 144.121 143.846 143.161 142.924 146.472 145.491 145.224 144.362 
144.183 143.43 143.288 148.33 147.264 147.026 145.967 145.777 144.854 
144.734 143.92 143.805 150.174 149.174 148.983 147.9 147.686 146.623 
146.452 145.485 145.326 144.46 144.306 151.925 150.979 150.806 149.809 
149.608 148.568 148.37 147.317 147.106 146.082 145.865 144.956 144.801 
153.675 152.736 152.591 151.608 151.439 150.436 150.265 149.238 149.034 
147.955 147.707 146.641 146.437 145.505 145.394 155.396 154.499 154.404 
153.435 153.3 152.287 152.127 151.107 150.921 149.875 149.638 148.55 
148.313 147.265 147.114 146.174 146.091 157.011 156.187 156.11 155.224 
155.099 154.143 153.969 152.966 152.764 151.739 151.514 150.46 150.225 
149.166 148.979 147.974 147.859 146.915 146.83 147.564 148.638 148.427 
149.118 149.787 149.561 150.312 150.079 150.836 151.038 150.787 151.598 
151.349 152.169 151.889 152.694 152.332 152.092 152.946 152.704 153.579 
153.294 154.145 153.825 154.667 153.594 153.388 154.255 154.054 154.935 
154.702 155.552 155.281 156.134 155.84 156.68 154.807 154.635 155.497 
155.324 156.192 156.004 156.825 156.607 157.411 157.21 158.021 157.784 
158.491 155.936 155.819 156.686 156.537 157.409 157.237 158.071 157.847 
158.622 158.404 159.174 158.991 159.686 159.424 159.938 156.954 156.905 
157.799 157.697 158.585 158.446 159.303 159.1 159.874 159.62 160.35 
160.121 160.825 160.573 161.146 160.774 161.182 157.862 157.882 158.809 
158.775 159.676 159.587 160.433 160.288 161.039 160.828 161.5 161.275 
161.932 161.711 162.319 162.006 162.48 162.028 162.379 140.392 140.4 
140.058 139.426 140.522 140.136 139.482 139.115 138.453 140.656 140.264 
139.579 139.182 138.43 138.067 137.369 140.804 140.385 139.656 139.242 
138.46 138.045 137.294 136.981 136.43 141.014 140.557 139.827 139.345 
138.594 138.123 137.437 137.023 136.472 136.192 135.824 141.268 140.814 
140.145 139.615 138.906 138.365 137.716 137.258 136.724 136.351 135.897 
135.649 135.35 141.534 141.109 140.528 140.017 139.361 138.779 138.086 
137.563 136.968 136.586 136.12 135.803 135.467 135.263 135.181 141.839 
141.424 140.913 140.443 139.866 139.295 138.626 137.999 137.371 136.862 
136.458 136.097 135.913 135.6 135.595 135.382 135.573 142.201 141.783 
141.31 140.856 140.345 139.826 139.278 138.649 138.126 137.474 137.157 
136.649 136.616 136.241 136.355 136.023 136.181 135.945 136.146 140.287 
139.28 139.806 140.007 138.29 138.806 138.998 139.673 140.153 137.254 
137.79 137.991 138.682 139.197 139.992 140.619 136.375 136.811 137.039 
137.684 138.192 139.014 139.672 140.48 141.027 135.803 136.116 136.38 
136.868 137.367 138.046 138.696 139.5 140.127 140.845 141.321 135.379 
135.656 135.974 136.384 136.904 137.399 138.035 138.652 139.347 140.017 
140.639 141.225 141.735 135.247 135.357 135.72 136.059 136.61 137.044 
137.669 138.165 138.865 139.429 140.136 140.676 141.278 141.751 142.256 
135.616 135.49 135.845 135.966 136.5 136.805 137.41 137.84 138.517 
139.046 139.761 140.288 140.925 141.376 141.911 142.318 142.804 136.146 
135.987 136.272 136.256 136.717 136.84 137.398 137.663 138.313 138.737 
139.445 139.941 140.595 141.053 141.613 142.021 142.545 142.921 143.433 
140.917 140.712 141.141 141.904 140.897 141.121 141.884 142.238 143.021 
141.33 141.448 142.155 142.367 143.138 143.438 144.226 141.664 141.829 
142.454 142.662 143.399 143.661 144.468 144.733 145.494 141.905 142.066 
142.658 142.882 143.601 143.91 144.764 145.059 145.887 146.057 146.753 
142.283 142.357 142.984 143.125 143.867 144.12 145 145.335 146.234 
146.491 147.275 147.367 148.1 142.756 142.799 143.437 143.547 144.302 
144.481 145.325 145.591 146.469 146.777 147.608 147.85 148.636 148.794 
149.65 143.258 143.272 143.862 143.983 144.695 144.903 145.688 145.93 
146.723 146.995 147.789 148.094 148.9 149.2 150.031 150.322 151.198 
143.862 143.805 144.352 144.395 145.046 145.224 145.972 146.227 146.996 
147.249 148.011 148.279 149.078 149.394 150.228 150.565 151.389 151.731 
152.516 147.523 146.828 146.784 145.997 146.142 146.084 145.283 145.241 
144.467 145.492 145.419 144.63 144.552 143.756 143.713 142.968 144.923 
144.809 144.026 143.92 143.103 143.017 142.231 142.225 141.538 144.487 
144.306 143.521 143.355 142.551 142.406 141.604 141.516 140.785 140.814 
140.152 144.193 143.945 143.166 142.922 142.151 141.946 141.203 141.007 
140.272 140.139 139.441 139.426 138.748 144.012 143.721 142.955 142.648 
141.891 141.638 140.94 140.711 140.009 139.767 139.064 138.872 138.224 
138.115 137.547 143.874 143.584 142.852 142.514 141.782 141.467 140.772 
140.498 139.794 139.534 138.83 138.603 137.98 137.793 137.291 137.154 
136.808 143.722 143.463 142.798 142.476 141.815 141.459 140.8 140.429 
139.728 139.368 138.661 138.384 137.77 137.593 137.098 136.983 136.618 
136.58 136.393 
POINT_DATA 1002
SCALARS Distance double
LOOKUP_TABLE default
143.409 142.608 143.248 144.18 144.109 144.406 145.198 145.218 145.362 
145.759 146.293 146.358 146.445 146.849 147.497 147.087 147.196 147.346 
147.869 148.582 149.359 147.466 147.642 147.925 148.751 149.609 150.451 
151.135 147.872 148.031 148.502 149.667 150.738 151.619 152.351 152.868 
148.819 148.76 149.547 150.806 151.962 152.841 153.6 154.186 154.593 
150.25 149.866 151.058 152.178 153.2 154.008 154.781 155.465 155.941 
156.256 151.738 151.12 152.587 153.542 154.41 155.178 155.969 156.72 
157.275 157.619 157.81 142.239 142.949 141.927 142.729 141.686 143.915 
142.545 141.469 143.725 145.12 142.347 141.252 143.472 144.898 146.408 
142.19 141.067 143.313 144.596 146.282 147.494 142.075 140.911 143.373 
144.573 146.028 147.582 148.146 141.939 140.767 143.401 144.77 145.958 
147.334 148.362 148.544 141.823 140.685 143.249 144.761 146.001 147.083 
148.126 148.745 149.099 141.81 140.756 143.081 144.532 145.928 147.014 
147.864 148.587 149.209 149.987 141.629 142.742 142.658 143.79 143.777 
144.081 144.965 144.997 145.256 145.626 146.043 146.191 146.376 146.807 
146.993 146.934 147.386 146.984 147.46 147.81 147.848 148.315 148.888 
147.827 147.794 148.127 148.397 148.491 150.4 150.6 149.919 149.351 
149.101 149.209 149.32 149.298 152.353 152.093 152.402 152.019 151.412 
151.036 150.882 150.662 150.341 153.688 153.258 154.109 154.191 153.789 
153.25 152.881 152.539 152.082 151.589 152.869 153.402 154.771 153.953 
155.362 156.76 154.406 155.919 157.497 159.028 154.734 156.331 158.165 
159.9 161.394 155.129 156.652 158.706 160.691 162.223 163.443 155.519 
156.941 159.038 161.268 162.923 164.155 165.126 155.518 156.974 158.987 
161.304 163.185 164.588 165.727 166.566 155.099 156.624 158.541 160.765 
162.792 164.437 165.837 166.988 167.821 154.598 156.112 157.93 160.001 
162.036 163.829 165.384 166.763 167.961 168.867 153.728 155.697 154.644 
157.862 156.663 155.528 160.376 159.103 157.759 156.437 162.714 161.684 
160.38 158.927 157.391 164.551 163.763 162.669 161.343 159.841 158.221 
166.07 165.398 164.491 163.252 161.855 160.371 158.791 167.45 166.809 
166.066 165.006 163.587 162.132 160.68 159.133 168.713 168.065 167.289 
166.446 165.226 163.737 162.299 160.842 159.296 169.79 169.399 170.223 
169.444 169.772 168.428 168.74 168.758 168.194 167.445 167.806 167.794 
167.569 167.127 166.442 166.92 166.901 166.858 166.57 166.017 165.075 
165.992 165.977 165.945 165.765 165.303 164.573 163.545 165.097 165.054 
164.931 164.679 164.308 163.767 163.027 162.033 164.117 163.965 163.969 
163.607 163.205 162.771 162.201 161.423 160.427 162.909 162.697 162.889 
162.583 162.151 161.739 161.244 160.571 159.75 158.809 169.039 169.87 
168.514 169.013 167.525 170.01 167.729 166.532 168.865 169.315 166.663 
165.579 167.585 168.346 168.429 165.673 164.429 166.58 167.379 167.876 
167.633 164.41 163.065 165.459 166.265 166.913 167.063 166.632 162.923 
161.612 164.069 164.898 165.484 165.823 165.821 165.533 161.406 160.21 
162.554 163.464 164.058 164.392 164.577 164.62 164.422 160.007 158.957 
161.051 161.974 162.686 163.124 163.349 163.477 163.447 163.163 153.752 
155.245 154.402 156.077 155.096 157.008 156.914 155.778 158.025 159.045 
157.741 156.566 158.985 160.17 161.177 158.597 157.392 159.833 161.136 
162.316 163.176 159.293 157.998 160.53 161.812 163.155 164.205 164.886 
159.705 158.36 161.036 162.32 163.657 164.857 165.715 166.355 159.969 
158.655 161.379 162.766 164.091 165.272 166.237 167.093 167.763 152.198 
152.713 151.069 151.56 149.894 153.326 150.367 148.778 152.158 153.952 
149.244 147.765 151.006 152.81 154.628 148.135 146.738 149.861 151.694 
153.508 155.427 147.026 145.725 148.676 150.505 152.344 154.234 156.182 
146.111 144.92 147.617 149.344 151.144 153.002 154.905 156.727 145.465 
144.366 146.792 148.348 150.07 151.868 153.687 155.473 157.139 144.965 
143.946 146.108 147.439 149.069 150.873 152.623 154.306 155.966 157.533 