# vtk DataFile Version 4.0
vtk output
ASCII
DATASET POLYDATA
POINTS 1002 float
-77.7838 -109.273 59.7926 -78.2713 -108.431 59.0911 -78.8642 -108.513 59.449 
-78.2938 -109.664 60.0722 -79.1798 -108.577 60.0114 -77.197 -110.761 60.4563 
-78.5558 -110.283 60.4602 -79.2951 -108.872 60.7389 -77.606 -111.613 60.6282 
-76.6961 -112.747 61.209 -78.8062 -111.166 60.8855 -79.568 -109.821 61.1964 
-77.942 -112.596 60.877 -77.0437 -113.797 61.4176 -76.433 -114.76 62.2524 
-79.2123 -112.305 61.0711 -79.9848 -111.224 61.1374 -78.4109 -113.509 61.2396 
-77.5266 -114.762 61.7913 -76.8539 -115.855 62.6345 -76.4819 -116.865 63.4115 
-79.3949 -113.519 61.0404 -80.1242 -112.494 60.9277 -78.7828 -114.522 61.5726 
-78.1078 -115.756 62.3161 -77.4779 -117.044 63.1128 -77.1019 -118.165 63.8708 
-76.7873 -119.234 64.4346 -79.2839 -114.872 61.1207 -79.9962 -113.832 60.8907 
-78.837 -115.899 61.8463 -78.4776 -117.166 62.7602 -78.0534 -118.567 63.5155 
-77.7495 -119.687 64.2348 -77.5204 -120.583 64.9438 -77.1297 -121.437 65.5201 
-79.4174 -116.548 61.4866 -80.0112 -115.54 61.0607 -79.0723 -117.583 62.2438 
-78.8917 -118.846 63.1356 -78.5979 -120.228 63.8499 -78.2718 -121.286 64.539 
-78.0815 -121.976 65.3987 -77.8232 -122.596 66.2173 -77.3624 -123.213 66.84 
-79.9773 -118.126 62.1561 -80.3371 -117.13 61.5053 -79.7611 -119.113 62.929 
-79.6641 -120.275 63.7048 -79.4276 -121.525 64.3802 -78.9977 -122.503 65.0984 
-78.6404 -123.144 66.0269 -78.3798 -123.685 66.9881 -78.021 -124.218 67.7289 
-77.5429 -124.699 68.2371 -80.6943 -119.168 63.0057 -80.8624 -118.214 62.1962 
-80.5636 -120.102 63.8187 -80.4812 -121.18 64.5219 -80.3034 -122.345 65.1653 
-79.9212 -123.281 65.9421 -79.4773 -123.934 66.9091 -79.0873 -124.517 67.88 
-78.679 -125.074 68.6558 -78.214 -125.53 69.1951 -77.7433 -125.895 69.5546 
-79.0052 -107.904 58.5935 -79.5714 -107.841 59.1391 -79.5591 -107.339 58.1555 
-80.198 -107.206 58.8907 -80.0792 -106.603 57.6654 -79.8585 -107.521 60.0298 
-80.8923 -106.557 58.4155 -80.7106 -105.758 56.9004 -80.6242 -106.74 59.8963 
-80.0239 -107.582 60.9582 -81.5539 -105.961 57.4886 -81.3659 -104.989 55.9639 
-81.4041 -106.454 59.1663 -80.8794 -106.936 60.6447 -80.3936 -108.697 61.3222 
-82.1574 -105.465 56.5026 -82.065 -104.364 55.2413 -82.0168 -106.53 57.9692 
-81.6351 -107.174 59.5441 -81.284 -108.199 60.8468 -80.8688 -110.209 61.1954 
-82.9477 -105.024 55.8985 -82.8935 -103.846 54.7193 -82.7468 -106.432 57.078 
-82.3827 -107.592 58.3417 -82.157 -108.34 59.8627 -81.852 -109.483 60.9617 
-81.0381 -111.464 61.0484 -83.7695 -104.719 55.3831 -83.6084 -103.551 54.0603 
-83.6714 -106.041 56.6162 -83.3622 -107.375 57.7345 -83.1749 -108.373 59.1049 
-82.9203 -109.192 60.4883 -82.0827 -110.661 61.0387 -80.8752 -113.001 60.8982 
-84.223 -104.726 54.6262 -83.9471 -103.663 53.2745 -84.3146 -105.815 55.9926 
-84.1925 -106.919 57.2929 -84.1175 -108.048 58.7284 -83.9457 -109.075 60.1145 
-83.1132 -110.329 60.8032 -81.7791 -112.34 60.768 -80.722 -114.859 60.8164 
-84.2961 -105.046 53.8392 -83.9797 -104.17 52.6467 -84.507 -105.961 55.1245 
-84.5579 -106.896 56.5053 -84.6078 -107.982 58.1374 -84.574 -109.149 59.6961 
-83.9003 -110.366 60.4752 -82.5639 -111.98 60.4817 -81.3592 -114.149 60.4965 
-80.8336 -116.402 61.0935 -84.1229 -105.386 52.9079 -84.412 -106.16 54.0551 
-84.2512 -106.666 53.2655 -84.5024 -107.46 54.4332 -84.3221 -108.156 53.7718 
-84.6121 -107.095 55.339 -84.6263 -109.193 55.1058 -84.3458 -110.008 54.5134 
-84.7889 -108.706 55.8726 -84.7641 -108.282 56.9976 -84.6241 -111.022 55.7934 
-84.3036 -111.798 55.2063 -84.8727 -110.471 56.574 -84.8927 -110.084 57.6308 
-84.8019 -109.563 58.8417 -84.1433 -112.473 56.1752 -83.9379 -113.262 55.6572 
-84.3041 -111.754 56.9416 -84.3893 -111.409 57.9057 -84.3603 -111.178 59.0031 
-84.2474 -110.754 59.9379 -83.2713 -114.082 56.7684 -83.2224 -114.89 56.4197 
-83.2169 -113.194 57.2926 -83.22 -112.568 57.9786 -83.232 -112.424 58.7542 
-83.162 -112.351 59.5049 -82.9535 -112.14 60.0804 -82.6512 -116.294 58.1393 
-82.6075 -116.863 57.9117 -82.6106 -115.58 58.3687 -82.5699 -114.816 58.6927 
-82.4935 -114.379 59.1188 -82.3086 -114.228 59.5484 -82.0309 -114.091 59.9058 
-81.7134 -114.05 60.2056 -82.5826 -118.535 59.8862 -82.3815 -118.739 59.6872 
-82.8193 -118.183 59.952 -83.0166 -117.599 60.0355 -82.9511 -117.062 60.2944 
-82.5693 -116.758 60.6015 -82.0652 -116.453 60.783 -81.6058 -116.198 60.8628 
-81.2143 -116.224 60.9558 -82.7834 -120.271 61.3426 -82.4114 -120.231 61.1523 
-83.2711 -120.168 61.3563 -83.7655 -119.752 61.3307 -83.9046 -119.203 61.5335 
-83.5029 -118.917 61.9063 -82.8438 -118.772 62.141 -82.2511 -118.457 62.1717 
-81.7664 -118.163 62.1548 -81.3165 -118.125 62.1733 -81.4382 -119.631 63.5499 
-81.9664 -119.781 63.5238 -82.0296 -121.152 64.8886 -82.4672 -120.126 63.4669 
-82.5823 -121.621 64.7855 -82.541 -122.96 66.1584 -82.9837 -120.416 63.4688 
-83.1037 -121.98 64.7295 -83.1589 -123.408 66.1892 -83.1769 -124.579 67.7807 
-83.6458 -120.383 63.374 -83.6833 -121.909 64.7644 -83.8548 -123.432 66.339 
-83.9583 -124.67 68.0885 -83.9275 -125.641 69.7176 -84.315 -120.401 62.9744 
-84.3451 -121.789 64.5421 -84.5845 -123.384 66.3485 -84.8713 -124.658 68.286 
-84.8099 -125.658 69.9737 -84.438 -126.671 71.3892 -84.5026 -120.897 62.5284 
-84.7395 -122.181 63.9873 -84.9766 -123.831 65.9012 -85.4098 -125.152 68.0618 
-85.5741 -126.019 69.9362 -85.2538 -126.96 71.386 -84.633 -127.936 72.8192 
-84.0604 -121.483 62.4042 -84.5434 -122.791 63.5756 -84.8033 -124.405 65.3014 
-85.1471 -125.816 67.4972 -85.4926 -126.674 69.5935 -85.5954 -127.477 71.1982 
-85.2845 -128.366 72.6842 -84.7303 -128.91 74.3815 -83.38 -121.686 62.4571 
-83.9289 -123.054 63.483 -84.2858 -124.55 64.9313 -84.5338 -125.947 66.9292 
-84.7735 -126.943 69.0675 -85.1006 -127.822 70.8367 -85.3088 -128.745 72.3291 
-85.1262 -129.353 74.0321 -84.7388 -129.382 75.8549 -82.7892 -121.588 62.3834 
-83.2414 -122.957 63.4351 -83.6542 -124.364 64.711 -83.9871 -125.712 66.4325 
-84.1984 -126.817 68.3937 -84.4311 -127.814 70.217 -84.7849 -128.847 71.7615 
-84.9682 -129.641 73.3255 -84.8192 -129.908 75.1031 -84.5424 -129.687 76.7766 
-81.3166 -120.545 64.4918 -81.841 -122.128 65.8797 -81.166 -121.589 65.3061 
-82.3985 -123.972 67.3506 -81.6219 -123.282 66.7958 -80.9813 -122.81 66.0149 
-83.1587 -125.463 69.2637 -82.2642 -124.985 68.6114 -81.3866 -124.447 67.789 
-80.7006 -123.893 66.875 -83.7391 -126.575 71.2737 -83.004 -126.327 70.8002 
-82.0281 -125.929 69.9408 -81.1343 -125.365 68.9438 -80.3571 -124.647 67.9422 
-83.9053 -127.761 72.9864 -83.3032 -127.548 72.8657 -82.56 -127.248 72.2315 
-81.6576 -126.793 71.1391 -80.8333 -126.086 70.0043 -79.9618 -125.287 68.9485 
-84.0531 -128.624 74.6866 -83.4067 -128.388 74.6386 -82.7692 -128.229 74.2535 
-81.9821 -128.002 73.3532 -81.1598 -127.453 72.042 -80.3232 -126.661 70.8047 
-79.4334 -125.877 69.7255 -84.3189 -128.847 76.4089 -83.7651 -128.356 76.3133 
-83.1066 -128.213 75.8466 -82.2923 -128.404 75.2178 -81.3884 -128.359 74.1274 
-80.4892 -127.764 72.6989 -79.6076 -127.001 71.4183 -78.824 -126.306 70.2961 
-84.3903 -128.955 77.6432 -84.0699 -128.113 77.7342 -83.5087 -127.635 77.1567 
-82.6971 -127.92 76.5046 -81.7329 -128.516 75.7662 -80.7097 -128.498 74.553 
-79.7228 -127.853 73.1341 -78.899 -127.191 71.8662 -78.2657 -126.613 70.6864 
-84.1395 -129.684 77.8182 -84.0107 -128.747 78.5705 -83.5675 -129.983 78.3772 
-83.2326 -129.185 79.0183 -82.789 -130.674 78.6836 -83.6109 -127.813 78.3906 
-82.158 -130.239 79.2051 -81.8686 -131.432 78.6697 -82.564 -128.533 78.7733 
-82.8805 -127.579 77.6582 -81.0193 -131.157 78.7255 -80.6744 -132.067 77.8634 
-81.2901 -129.814 78.8796 -81.726 -128.584 78.0622 -81.9595 -128.278 76.9361 
-79.562 -131.78 77.4486 -79.0981 -132.776 76.6792 -79.9804 -130.583 78.1611 
-80.4092 -129.63 78.0739 -80.8273 -129.137 77.1224 -80.9086 -128.883 75.9473 
-77.9022 -132.524 76.3767 -77.6056 -133.415 75.8517 -78.4175 -131.129 76.9626 
-78.9514 -130.017 77.3669 -79.4164 -129.537 76.8736 -79.7237 -129.166 75.7813 
-79.7666 -128.546 74.5475 -76.6913 -133.012 75.6957 -76.4832 -133.545 74.991 
-77.0825 -131.863 76.0415 -77.5518 -130.541 76.3372 -77.9591 -129.668 76.1997 
-78.3472 -129.152 75.3827 -78.6525 -128.537 74.3139 -78.8034 -127.83 73.1426 
-75.7792 -132.858 74.6895 -75.4245 -133.263 73.7388 -76.2277 -132.119 75.1083 
-76.6382 -131.137 75.2414 -76.9218 -130.133 75.2207 -77.222 -129.297 74.7653 
-77.6206 -128.601 73.9173 -77.9506 -127.938 72.9223 -78.1374 -127.288 71.8214 
-74.7365 -132.5 73.4676 -74.3508 -132.942 72.5449 -75.31 -131.854 73.9692 
-75.847 -131.161 74.0971 -76.1803 -130.409 74.1126 -76.4355 -129.551 73.9302 
-76.7969 -128.741 73.3476 -77.1824 -128.077 72.4918 -77.441 -127.433 71.535 
-77.5979 -126.704 70.5368 -84.2877 -130.275 76.2075 -83.7928 -130.528 76.9756 
-83.8581 -130.768 75.4272 -83.3839 -131.169 75.9508 -83.313 -131.022 74.757 
-83.2188 -130.96 77.3703 -82.8537 -131.508 75.0342 -82.6288 -130.984 73.8866 
-82.7821 -131.581 76.1733 -82.4592 -131.486 77.6568 -82.0791 -131.494 73.8445 
-81.8613 -130.715 72.4782 -82.048 -131.913 74.9534 -81.7925 -131.975 76.302 
-81.4091 -132.027 77.5546 -81.1815 -131.148 72.3332 -81.0965 -130.336 70.9973 
-81.0978 -131.859 73.5259 -80.7958 -132.278 74.7219 -80.5218 -132.469 76.005 
-80.0409 -132.677 76.72 -80.3357 -130.651 70.9804 -80.3464 -129.849 69.8124 
-80.2572 -131.449 72.0918 -79.9443 -132.193 73.0848 -79.6128 -132.696 74.1541 
-79.2928 -133.012 75.1653 -78.5794 -133.331 75.7038 -79.5914 -130.08 69.7547 
-79.6943 -129.25 68.6406 -79.5368 -130.901 70.7894 -79.3573 -131.762 71.6387 
-79.0006 -132.545 72.4134 -78.6421 -133.019 73.3039 -78.1138 -133.351 74.1331 
-77.2786 -133.635 74.6974 -78.9912 -129.454 68.4196 -79.2106 -128.671 67.3333 
-78.8268 -130.245 69.4598 -78.713 -131.098 70.3024 -78.4524 -132.016 70.9782 
-78.0268 -132.719 71.6698 -77.504 -133.096 72.3446 -76.8115 -133.389 72.893 
-76.0342 -133.531 73.3737 -78.5254 -128.846 67.0867 -78.8108 -128.158 66.0949 
-78.207 -129.522 68.1353 -77.9898 -130.264 69.0258 -77.7905 -131.148 69.706 
[...]
CELL_DATA 2000
SCALARS Distance double
LOOKUP_TABLE default
145.594 146.142 146.035 146.435 146.734 146.661 147.22 147.1 147.747 
147.592 147.426 148.131 147.997 148.744 148.612 149.425 148.729 148.472 
149.191 149.016 149.818 149.679 150.554 150.431 151.386 149.783 149.594 
150.265 150.118 150.961 150.836 151.823 151.679 152.754 152.584 153.679 
150.73 150.567 151.319 151.205 152.197 152.099 153.261 153.109 154.309 
154.096 155.255 155.009 156.075 151.984 151.697 152.663 152.448 153.656 
153.518 154.846 154.686 155.942 155.715 156.847 156.599 157.627 157.35 
158.26 153.538 153.23 154.339 154.059 155.342 155.155 156.504 156.333 
157.549 157.318 158.366 158.122 159.09 158.843 159.73 159.423 160.199 
155.01 154.83 155.93 155.746 156.923 156.8 158.014 157.906 159.017 
158.832 159.8 159.566 160.478 160.247 161.112 160.842 161.597 161.26 
161.903 145.312 145.07 145.407 145.795 144.748 145.155 145.506 145.809 
146.23 144.313 144.836 145.268 145.532 145.873 146.268 146.939 143.791 
144.406 145.005 145.344 145.736 146.001 146.631 147.173 148.084 143.357 
143.939 144.697 145.148 145.731 145.979 146.609 146.995 147.866 148.412 
149.245 143.177 143.657 144.523 144.982 145.78 146.079 146.796 147.078 
147.871 148.273 149.054 149.48 150.181 143.146 143.607 144.528 144.964 
145.849 146.207 147.024 147.315 148.089 148.364 149.075 149.363 150.043 
150.436 151.271 143.119 143.603 144.528 144.992 145.848 146.268 147.112 
147.51 148.345 148.633 149.323 149.49 150.089 150.355 151.121 151.645 
152.667 143.159 143.585 144.478 144.937 145.762 146.209 147.064 147.547 
148.472 148.872 149.625 149.788 150.29 150.426 151.01 151.439 152.329 
153.031 154.083 143.564 144.616 144.302 144.789 145.814 145.38 145.809 
145.532 146.046 147.331 146.728 147.21 146.725 147.296 146.893 147.464 
148.933 148.34 148.808 148.281 148.866 148.366 148.955 148.457 148.982 
150.118 149.708 149.912 149.604 149.921 149.709 150.096 149.843 150.185 
149.822 150.065 151.151 150.687 150.74 150.374 150.454 150.307 150.506 
150.505 150.718 150.649 150.767 150.545 150.608 152.705 151.983 152.29 
151.51 151.809 151.119 151.516 151.049 151.498 151.166 151.512 151.181 
151.432 151.082 151.347 154.708 153.943 154.572 153.64 154.275 153.224 
153.903 152.886 153.618 152.698 153.356 152.503 153.042 152.304 152.83 
152.226 152.776 156.6 156.038 156.769 156.07 156.77 155.908 156.56 
155.607 156.266 155.295 155.946 154.927 155.504 154.472 155.03 154.127 
154.734 153.988 154.592 155.837 156.1 156.599 157.849 156.512 156.975 
158.339 158.713 159.968 157.014 157.465 158.84 159.25 160.562 160.906 
162.161 157.409 157.901 159.183 159.672 160.967 161.446 162.726 163.097 
164.275 157.693 158.185 159.402 159.908 161.222 161.793 163.165 163.619 
164.841 165.126 166.171 157.974 158.448 159.664 160.125 161.491 162.082 
163.585 164.098 165.421 165.71 166.784 166.96 167.904 158.137 158.689 
159.883 160.384 161.685 162.33 163.785 164.449 165.755 166.213 167.263 
167.544 168.471 168.654 169.484 158.037 158.704 159.824 160.452 161.597 
162.329 163.57 164.381 165.525 166.235 167.192 167.761 168.634 169.062 
169.857 170.096 170.718 157.74 158.446 159.478 160.19 161.212 161.992 
163.066 163.913 164.938 165.74 166.645 167.388 168.245 168.922 169.71 
170.216 170.825 171.088 171.477 156.104 158.06 157.078 157.083 160.118 
159.074 159.094 158.086 158.109 162.334 161.229 161.242 160.152 160.198 
159.164 159.192 164.503 163.497 163.561 162.411 162.423 161.3 161.312 
160.238 160.172 166.404 165.587 165.758 164.738 164.763 163.598 163.553 
162.391 162.293 161.148 160.961 168.107 167.397 167.64 166.818 166.929 
165.894 165.839 164.663 164.516 163.309 163.098 161.896 161.647 169.633 
169.007 169.182 168.525 168.64 167.866 167.835 166.843 166.64 165.489 
165.191 164.007 163.688 162.529 162.226 170.805 170.332 170.319 169.794 
169.707 169.21 169.118 168.518 168.309 167.424 167.028 165.947 165.493 
164.418 164.015 162.981 162.622 171.543 171.242 171.096 170.646 170.323 
169.909 169.655 169.362 169.204 168.753 168.425 167.586 167.047 166.036 
165.517 164.571 164.153 163.238 162.856 171.813 171.994 171.761 171.346 
172.207 171.905 171.374 171.048 170.476 172.466 172.172 171.614 171.118 
170.454 170.138 169.732 172.341 172.315 171.849 171.441 170.784 170.293 
169.854 169.609 169.375 171.695 171.886 171.447 171.435 170.856 170.612 
170.102 169.836 169.463 169.248 168.75 171.051 171.165 170.682 170.772 
170.218 170.313 169.766 169.799 169.23 169.16 168.46 168.265 167.401 
170.451 170.603 170.152 170.116 169.548 169.559 169.002 169.114 168.502 
168.586 167.831 167.776 166.902 166.723 165.85 169.454 169.863 169.472 
169.608 169.049 169.024 168.433 168.4 167.796 167.788 167.124 167.084 
166.35 166.224 165.461 165.265 164.515 168.202 168.701 168.35 168.712 
168.195 168.395 167.799 167.861 167.229 167.197 166.544 166.48 165.827 
165.737 165.063 164.912 164.196 163.994 163.25 171.912 171.905 172.031 
172.165 171.669 171.946 172.178 172.269 172.401 171.171 171.638 171.901 
172.163 172.348 172.494 172.594 170.234 170.962 171.259 171.731 171.866 
172.22 172.321 172.548 172.446 168.967 169.824 170.144 170.853 170.977 
171.518 171.574 172.022 171.989 172.186 171.889 167.676 168.496 168.804 
169.595 169.775 170.449 170.522 171.105 171.125 171.561 171.439 171.571 
171.262 166.41 167.198 167.477 168.263 168.488 169.21 169.343 169.981 
170.025 170.586 170.522 170.941 170.728 170.918 170.554 165.143 165.9 
166.134 166.923 167.125 167.905 168.051 168.768 168.815 169.433 169.337 
169.866 169.625 170.069 169.694 169.989 169.476 163.96 164.64 164.812 
165.548 165.684 166.472 166.58 167.379 167.421 168.141 168.032 168.611 
168.332 168.818 168.436 168.869 168.419 168.732 168.21 157.873 158.571 
158.678 159.578 159.347 159.408 160.352 160.415 161.337 160.274 160.264 
161.236 161.263 162.256 162.267 163.216 161.213 161.218 162.177 162.205 
163.243 163.267 164.262 164.201 165.076 161.967 162.081 163.023 163.114 
164.145 164.245 165.282 165.276 166.161 166.022 166.788 162.516 162.737 
163.715 163.887 164.876 165.043 166.052 166.191 167.121 167.097 167.885 
167.715 168.428 162.956 163.227 164.229 164.496 165.469 165.677 166.605 
166.814 167.745 167.913 168.765 168.76 169.479 169.317 169.921 163.332 
163.614 164.558 164.902 165.853 166.152 167.041 167.287 168.189 168.439 
169.337 169.494 170.232 170.221 170.772 170.634 171.032 163.61 163.909 
164.761 165.128 166.02 166.4 167.269 167.61 168.488 168.822 169.711 
169.976 170.708 170.807 171.3 171.277 171.604 171.497 171.678 156.871 
155.56 156.663 157.557 154.222 155.305 156.198 157.348 158.302 152.947 
153.937 154.752 155.93 156.958 158.18 159.236 151.811 152.682 153.399 
154.478 155.495 156.796 157.985 159.203 160.237 150.745 151.566 152.219 
153.182 154.113 155.347 156.554 157.891 159.026 160.154 161.017 149.648 
150.46 151.073 152.012 152.877 154.016 155.144 156.449 157.608 158.849 
159.779 160.82 161.55 148.649 149.372 149.972 150.861 151.72 152.797 
153.874 155.081 156.205 157.427 158.425 159.537 160.355 161.328 162.024 
147.926 148.507 149.131 149.873 150.742 151.7 152.761 153.858 154.935 
156.075 157.074 158.203 159.106 160.146 160.927 161.832 162.483 147.433 
147.93 148.563 149.183 150.012 150.829 151.822 152.796 153.797 154.839 
155.767 156.863 157.757 158.871 159.706 160.721 161.42 162.276 162.828 
147.367 147.641 147.841 148.54 147.928 148.168 149.001 149.174 150.027 
148.312 148.529 149.448 149.68 150.647 150.821 151.8 148.816 148.998 
149.918 150.15 151.141 151.405 152.432 152.653 153.676 149.337 149.525 
150.44 150.651 151.642 151.9 152.967 153.235 154.309 154.53 155.579 
149.89 150.06 151.024 151.215 152.286 152.502 153.669 153.875 155.039 
155.205 156.326 156.479 157.561 150.565 150.699 151.745 151.901 153.074 
153.268 154.545 154.73 155.974 156.077 157.219 157.301 158.4 158.507 
159.537 151.313 151.459 152.577 152.731 153.946 154.135 155.427 155.643 
156.904 157.05 158.165 158.23 159.253 159.34 160.325 160.415 161.282 
152.072 152.244 153.403 153.59 154.803 155.006 156.242 156.475 157.689 
157.903 158.997 159.114 160.061 160.135 161.016 161.118 161.933 162.006 
162.695 152.907 154.835 153.984 154.308 156.995 156.043 156.328 155.444 
155.751 158.995 158.171 158.399 157.508 157.772 156.899 157.188 160.484 
159.946 160.185 159.463 159.704 158.905 159.182 158.338 158.607 161.736 
161.29 161.637 161.069 161.36 160.717 161.03 160.295 160.561 159.718 
159.895 163.289 162.7 163.148 162.531 162.89 162.287 162.648 162.033 
162.324 161.586 161.724 160.876 160.925 164.988 164.389 164.819 164.167 
164.548 163.889 164.259 163.621 163.917 163.234 163.363 162.591 162.608 
161.791 161.807 166.389 165.95 166.325 165.794 166.17 165.576 165.951 
165.294 165.574 164.836 164.959 164.17 164.188 163.399 163.404 162.629 
162.652 167.483 167.18 167.594 167.178 167.57 167.094 167.474 166.925 
167.204 166.511 166.62 165.806 165.808 164.979 164.963 164.177 164.162 
163.412 163.381 152.37 152.151 152.928 154.315 151.912 152.764 154.304 
155.079 156.55 151.627 152.53 154.185 155.109 156.711 157.378 158.648 
151.354 152.233 153.943 154.993 156.718 157.513 158.777 159.244 160.13 
151.107 151.948 153.664 154.781 156.642 157.531 158.812 159.262 160.05 
160.451 161.25 150.809 151.642 153.305 154.488 156.448 157.487 158.883 
159.318 160.071 160.352 161.189 161.687 162.762 150.517 151.299 152.872 
154.045 155.983 157.204 158.751 159.389 160.256 160.502 161.376 161.783 
162.981 163.462 164.589 150.371 151.053 152.552 153.589 155.418 156.639 
158.254 159.144 160.209 160.682 161.631 162.08 163.258 163.752 164.877 
165.232 166.071 150.379 150.978 152.403 153.295 154.994 156.081 157.67 
158.622 159.824 160.521 161.559 162.197 163.304 163.917 164.922 165.389 
166.147 166.475 167.095 151.2 149.39 150.454 150.847 147.671 148.608 
148.883 150.058 150.51 146.14 146.926 147.071 148.09 148.473 149.719 
150.218 144.725 145.462 145.503 146.327 146.569 147.697 148.199 149.476 
150.005 143.203 144.034 144.088 144.821 144.84 145.764 146.099 147.406 
147.993 149.316 149.824 141.535 142.417 142.558 143.397 143.387 144.097 
144.124 145.201 145.683 147.167 147.804 149.138 149.589 140.053 140.752 
140.884 141.807 142.011 142.752 142.779 143.442 143.69 144.854 145.556 
147.021 147.678 148.912 149.35 139.117 139.479 139.541 140.247 140.599 
141.44 141.783 142.382 142.639 143.285 143.856 144.963 145.784 147.034 
147.669 148.752 149.237 138.787 138.868 138.935 139.247 139.584 140.231 
140.767 141.478 141.952 142.513 142.996 143.693 144.41 145.394 146.156 
147.181 147.774 148.747 149.282 138.802 139.043 138.904 138.956 139.295 
139.216 139.313 139.19 139.507 139.555 139.511 139.75 139.63 139.947 
139.947 140.56 140.144 139.946 140.286 140.133 140.489 140.424 140.97 
141.107 141.787 141.098 140.751 141.072 140.805 141.165 141.003 141.499 
141.533 142.204 142.321 142.968 142.121 141.752 142.034 141.7 142.049 
141.781 142.25 142.131 142.781 142.82 143.565 143.595 144.341 143.11 
142.734 143.011 142.68 143.052 142.755 143.228 142.99 143.586 143.496 
144.234 144.263 145.065 145.111 145.942 144.059 143.685 143.926 143.627 
144.016 143.771 144.258 144.012 144.544 144.356 144.998 144.967 145.74 
145.808 146.623 146.71 147.516 144.888 144.561 144.754 144.492 144.87 
144.691 145.194 145.006 145.51 145.295 145.851 145.742 146.461 146.491 
147.312 147.376 148.189 148.243 149.035 145.356 146.214 145.576 145.302 
147.537 146.67 146.416 145.687 145.516 149.249 148.227 147.984 147.041 
146.853 146.058 145.915 151.225 150.093 149.865 148.778 148.525 147.543 
147.306 146.472 146.256 153.486 152.229 152.013 150.78 150.502 149.334 
149.033 147.986 147.723 146.827 146.637 155.866 154.606 154.423 153.087 
152.845 151.492 151.227 149.936 149.71 148.545 148.397 147.385 147.318 
158.053 156.933 156.805 155.554 155.383 154.01 153.804 152.374 152.177 
150.805 150.66 149.417 149.328 148.24 148.204 159.986 159.003 158.912 
157.832 157.722 156.523 156.37 155.024 154.804 153.386 153.158 151.804 
151.625 150.392 150.26 149.16 149.081 161.702 160.847 160.776 159.824 
159.729 158.707 158.587 157.449 157.242 155.942 155.656 154.289 154.037 
152.727 152.547 151.314 151.17 150.037 149.937 150.807 152.182 151.919 
152.915 153.637 153.416 154.545 154.307 155.493 155.137 154.916 156.089 
155.94 157.14 156.932 158.022 156.727 156.459 157.59 157.44 158.614 
158.463 159.487 159.253 160.104 158.254 158.025 159.057 158.889 159.971 
159.845 160.855 160.646 161.516 161.206 161.966 159.551 159.425 160.382 
160.243 161.205 161.101 162.05 161.93 162.805 162.6 163.402 163.077 
163.778 160.679 160.62 161.585 161.473 162.393 162.264 163.161 163.05 
163.895 163.77 164.522 164.359 165.018 164.762 165.293 161.698 161.695 
162.666 162.614 163.517 163.408 164.261 164.141 164.966 164.829 165.567 
165.385 166.011 165.808 166.33 166.072 166.46 162.552 162.618 163.519 
163.569 164.397 164.397 165.153 165.126 165.865 165.824 166.535 166.414 
167.046 166.824 167.377 167.086 167.542 167.173 167.482 142.31 142.217 
141.834 141.144 142.279 141.834 141.107 140.8 140.302 142.397 141.959 
141.269 140.861 140.233 139.981 139.474 142.618 142.137 141.503 141.072 
140.387 139.955 139.269 139.041 138.597 143.026 142.435 141.77 141.319 
140.666 140.164 139.433 138.97 138.498 138.353 138.315 143.58 142.908 
142.16 141.614 140.987 140.491 139.829 139.272 138.78 138.469 138.45 
138.441 138.662 144.15 143.504 142.767 142.094 141.474 140.914 140.351 
139.763 139.248 138.822 138.69 138.628 138.795 138.839 138.937 144.598 
144.085 143.462 142.79 142.202 141.56 141.073 140.425 139.939 139.351 
139.079 138.844 138.915 138.928 139.016 138.981 138.925 144.887 144.509 
144.009 143.475 142.949 142.349 141.896 141.263 140.833 140.157 139.816 
139.326 139.263 139.088 139.163 139.077 139.036 138.917 138.822 142.229 
141.093 141.703 141.997 140.297 140.744 141.001 141.644 142.129 139.522 
140.023 140.278 140.809 141.221 141.898 142.479 138.69 139.183 139.489 
140.085 140.504 141.109 141.633 142.327 142.963 138.434 138.566 138.896 
139.327 139.832 140.414 140.99 141.603 142.223 142.889 143.544 138.756 
138.653 138.946 139.056 139.574 139.918 140.544 141.034 141.668 142.243 
142.872 143.507 144.139 138.948 138.943 139.149 139.254 139.699 139.908 
140.457 140.749 141.311 141.739 142.338 142.896 143.539 144.147 144.794 
138.88 138.947 139.092 139.299 139.686 139.982 140.455 140.722 141.173 
141.471 142.012 142.452 143.134 143.664 144.388 144.911 145.576 138.805 
138.855 139.024 139.194 139.583 139.869 140.345 140.636 141.086 141.357 
141.884 142.242 142.947 143.4 144.181 144.64 145.363 145.777 146.391 
143.013 142.825 143.315 144.18 142.99 143.333 144.243 144.601 145.471 
143.358 143.637 144.607 144.87 145.771 146.014 146.961 143.802 144.044 
145.034 145.318 146.253 146.443 147.34 147.614 148.578 144.305 144.488 
145.403 145.707 146.618 146.881 147.71 147.979 148.841 149.165 149.93 
144.852 144.98 145.811 146.05 146.894 147.158 147.934 148.224 149.017 
149.364 150.142 150.384 151.036 145.451 145.517 146.303 146.47 147.288 
147.473 148.252 148.45 149.253 149.531 150.382 150.647 151.455 151.602 
152.438 146.124 146.115 146.823 146.946 147.74 147.916 148.726 148.878 
149.702 149.881 150.77 150.995 151.908 152.105 153.036 153.223 154.255 
146.837 146.771 147.363 147.424 148.13 148.323 149.119 149.346 150.16 
150.365 151.196 151.422 152.303 152.565 153.494 153.768 154.753 155.052 
156.068 151.047 150.321 150.227 149.316 149.632 149.534 148.663 148.539 
147.675 148.998 148.873 148.024 147.912 147.074 146.961 146.171 148.446 
148.277 147.398 147.27 146.413 146.329 145.499 145.454 144.688 147.921 
147.739 146.838 146.667 145.776 145.65 144.774 144.707 143.853 143.879 
143.086 147.442 147.233 146.373 146.159 145.286 145.074 144.187 144.013 
143.147 143.054 142.239 142.245 141.479 147.121 146.852 146.058 145.787 
144.958 144.671 143.786 143.514 142.661 142.467 141.715 141.579 140.888 
140.782 140.138 146.917 146.637 145.878 145.567 144.75 144.412 143.529 
143.19 142.351 142.093 141.402 141.217 140.619 140.424 139.862 139.681 
139.234 146.717 146.467 145.726 145.417 144.595 144.238 143.372 143.001 
142.218 141.907 141.302 141.056 140.548 140.297 139.807 139.567 139.173 
139.021 138.822 
POINT_DATA 1002
SCALARS Distance double
LOOKUP_TABLE default
145.854 145.203 145.727 146.529 146.173 146.927 147.286 146.75 147.849 
148.469 148.249 147.784 148.863 149.525 150.286 149.389 149.021 149.94 
150.654 151.486 152.389 150.381 149.954 151.031 151.917 152.901 153.878 
154.772 151.373 150.871 152.209 153.355 154.515 155.513 156.377 157.079 
152.855 152.231 153.767 154.995 156.192 157.121 157.909 158.597 159.106 
154.608 153.779 155.557 156.705 157.815 158.642 159.338 160.024 160.569 
160.923 156.107 155.147 157.076 158.139 159.199 160.041 160.72 161.38 
161.934 162.289 162.498 145.008 145.488 144.717 145.263 144.266 145.771 
144.981 143.695 145.565 146.288 144.546 143.136 145.492 146.155 147.454 
144.139 142.799 145.41 146.296 147.379 148.769 144.035 142.7 145.399 
146.536 147.563 148.675 149.726 144.089 142.652 145.462 146.689 147.85 
148.858 149.696 150.719 144.07 142.637 145.428 146.657 147.994 149.193 
149.922 150.66 151.995 144.05 142.791 145.315 146.546 147.992 149.433 
150.252 150.705 151.673 153.324 143.853 145.005 144.991 146.145 146.308 
146.279 147.733 147.956 147.755 147.858 149.334 149.512 149.359 149.488 
149.525 150.281 150.564 150.124 150.283 150.521 150.515 151.222 151.672 
150.725 150.521 150.72 150.919 150.876 153.064 153.385 152.591 152.119 
151.914 151.869 151.757 151.674 155.387 155.359 155.271 154.967 154.627 
154.315 153.889 153.486 153.336 157.37 157.072 157.553 157.489 157.227 
156.945 156.58 156.044 155.562 155.306 157.059 157.434 159.054 157.932 
159.651 161.201 158.42 160.169 161.868 163.416 158.703 160.429 162.304 
164.008 165.403 158.91 160.594 162.647 164.547 165.97 167.142 159.208 
160.875 163.007 165.104 166.615 167.769 168.803 159.37 161.072 163.112 
165.24 166.925 168.252 169.395 170.259 159.19 160.915 162.808 164.796 
166.546 168.111 169.542 170.638 171.262 158.78 160.467 162.255 164.139 
165.883 167.51 169.117 170.473 171.368 171.803 158.069 160.101 159.115 
162.385 161.242 160.24 164.692 163.609 162.421 161.279 166.671 165.916 
164.766 163.476 162.127 168.381 167.871 167.005 165.749 164.325 162.844 
169.843 169.327 168.726 167.779 166.396 164.856 163.367 170.9 170.218 
169.581 169.051 168.101 166.593 165.034 163.645 171.568 170.824 169.932 
169.456 169.11 168.068 166.484 165.035 163.782 172.07 171.647 172.269 
171.802 172.554 170.675 172.164 172.684 170.881 169.811 172.102 172.242 
171.284 170.192 169.563 171.321 171.528 170.925 170.363 169.756 169.074 
170.653 170.976 170.077 169.656 169.284 168.655 167.654 170.183 170.195 
169.622 168.949 168.405 167.823 167.02 166.035 169.213 168.957 169.022 
168.504 167.848 167.14 166.413 165.62 164.729 167.936 167.714 167.904 
167.661 167.234 166.606 165.889 165.181 164.39 163.472 171.869 172.159 
171.69 171.994 171.327 172.384 171.596 170.592 172.115 172.548 170.7 
169.414 171.485 172.002 172.417 169.36 168.13 170.376 171.073 171.652 
171.904 168.002 166.899 169.051 169.902 170.597 171.132 171.288 166.694 
165.638 167.738 168.679 169.45 170.033 170.406 170.494 165.371 164.422 
166.338 167.3 168.177 168.821 169.163 169.312 169.281 164.131 163.329 
164.936 165.78 166.661 167.426 167.853 167.982 168.018 167.961 157.768 
159.489 158.459 160.277 159.308 161.291 161.208 160.309 162.224 163.256 
162.139 161.195 163.186 164.322 165.211 162.912 161.797 164.02 165.23 
166.297 166.976 163.504 162.251 164.731 165.88 167.048 168.02 168.661 
163.928 162.692 165.257 166.422 167.517 168.675 169.604 170.176 164.225 
163.082 165.524 166.779 167.924 169.13 170.209 170.888 171.257 155.776 
156.448 154.462 155.01 153.2 157.142 153.607 152.04 155.643 158.093 
152.405 150.994 154.19 156.654 159.209 151.303 149.944 152.955 155.199 
157.812 160.061 150.138 148.866 151.782 153.897 156.339 158.676 160.604 
149.114 147.971 150.666 152.716 155.011 157.268 159.334 161.131 148.439 
147.371 149.843 151.72 153.849 155.948 158.009 159.977 161.675 147.983 