# vtk DataFile Version 4.0
vtk output
ASCII
DATASET POLYDATA
POINTS 1002 float
-74.2367 -102.887 53.3898 -74.3898 -101.93 52.3399 -75.0954 -102.365 52.4865 
-74.8242 -103.479 53.5417 -75.7864 -102.886 52.7524 -74.029 -104.225 54.3909 
-75.3995 -104.157 53.7502 -76.513 -103.421 53.1576 -74.5338 -105.053 54.473 
-73.8271 -106.237 55.1301 -76.0215 -104.911 54.0601 -77.2529 -104.075 53.5999 
-75.0504 -105.977 54.6128 -74.3969 -107.198 55.3462 -73.7456 -108.408 56.1506 
-76.5915 -105.929 54.3656 -77.8594 -104.93 54.0265 -75.5458 -107.095 54.8625 
-74.9236 -108.256 55.6993 -74.3886 -109.301 56.7319 -73.7231 -110.167 57.709 
-76.9549 -107.229 54.615 -78.2528 -105.994 54.4129 -75.9246 -108.515 55.1272 
-75.2967 -109.59 56.0799 -74.8555 -110.435 57.2856 -74.2912 -111.212 58.3261 
-73.6427 -112.037 59.0811 -77.1485 -108.66 54.905 -78.4187 -107.344 54.6581 
-76.2165 -109.972 55.5001 -75.6358 -111.036 56.4836 -75.1871 -111.842 57.689 
-74.7327 -112.571 58.7737 -74.2092 -113.395 59.5541 -73.6444 -114.277 60.1355 
-77.3579 -110.05 55.318 -78.3861 -108.83 54.8051 -76.6065 -111.212 56.1137 
-76.1335 -112.206 57.1091 -75.6877 -113.105 58.1828 -75.2273 -113.94 59.2209 
-74.8266 -114.731 60.1166 -74.4036 -115.51 60.8142 -73.8842 -116.203 61.3571 
-77.7079 -111.186 55.8838 -78.3312 -110.118 55.0573 -77.226 -112.208 56.8717 
-76.8314 -113.135 57.8673 -76.4123 -114.078 58.8538 -75.9634 -115.019 59.8531 
-75.5633 -115.811 60.8369 -75.2216 -116.467 61.6822 -74.815 -117.061 62.2643 
-74.2872 -117.561 62.6462 -78.1625 -112.061 56.5536 -78.4329 -111.137 55.5021 
-77.9551 -113.026 57.6342 -77.6263 -113.993 58.5704 -77.1867 -114.98 59.4965 
-76.8121 -115.923 60.5336 -76.4749 -116.677 61.5842 -76.1053 -117.24 62.516 
-75.7265 -117.754 63.1745 -75.2787 -118.258 63.5211 -74.7412 -118.669 63.726 
-75.0397 -101.163 51.5635 -75.8651 -101.607 51.7356 -75.8135 -100.351 50.8949 
-76.6733 -100.801 51.1151 -76.6294 -99.8108 49.9972 -76.6835 -102.117 52.0796 
-77.4806 -100.242 50.3063 -77.4485 -99.5647 48.7754 -77.5352 -101.372 51.4324 
-77.5346 -102.713 52.5044 -78.4336 -99.9058 49.2805 -78.313 -99.2321 47.702 
-78.4686 -100.804 50.6817 -78.4446 -102.148 51.7653 -78.3519 -103.441 53.0067 
-79.4881 -99.5324 48.3636 -79.2464 -98.7072 46.963 -79.6834 -100.286 49.9557 
-79.4944 -101.597 51.1465 -79.2999 -102.988 52.3892 -79.0634 -104.189 53.7109 
-80.3153 -99.2402 47.5448 -80.1639 -98.2815 46.2122 -80.7387 -99.8717 49.3184 
-80.7493 -100.963 50.765 -80.3296 -102.504 51.9314 -80.1223 -103.706 53.3692 
-79.6052 -105.116 54.3516 -80.8285 -99.2603 46.6623 -80.8425 -98.178 45.4175 
-81.1954 -99.9417 48.5722 -81.6572 -100.695 50.3742 -81.4845 -102.048 51.5285 
-81.1051 -103.395 52.8336 -80.7329 -104.618 54.1194 -79.7103 -106.494 54.5599 
-81.1432 -99.532 45.9001 -81.0758 -98.4532 44.9074 -81.3586 -100.436 47.6888 
-82.0256 -101.125 49.7311 -82.4639 -102.048 51.0414 -82.1862 -103.229 52.0941 
-81.6056 -104.42 53.4823 -80.6751 -105.992 54.3082 -79.3537 -108.085 54.4924 
-81.2579 -99.9416 45.4883 -80.9118 -99.0774 44.7771 -81.5293 -100.934 46.9179 
-82.1595 -101.81 48.8832 -83.0215 -102.541 50.4211 -83.2441 -103.327 51.3933 
-82.5535 -104.343 52.6289 -81.3964 -105.759 53.7858 -80.0794 -107.601 54.1911 
-78.9654 -109.512 54.5263 -80.9885 -100.336 45.1509 -81.5145 -101.105 46.1004 
-81.2426 -101.564 45.6856 -81.7881 -102.268 46.9362 -81.4609 -102.797 46.4315 
-82.0511 -102.124 47.7484 -81.7866 -103.573 47.8422 -81.475 -104.346 47.2679 
-82.4181 -103.298 48.5503 -82.9741 -103.048 49.5114 -81.6594 -105.167 48.5949 
-81.4507 -106.201 47.9589 -82.3763 -104.509 49.2174 -83.4012 -104.111 49.9517 
-83.8046 -103.687 50.7216 -81.6024 -106.84 49.2143 -81.2831 -107.846 48.6909 
-82.1324 -105.911 49.795 -83.0774 -105.247 50.4053 -83.7539 -104.78 51.1324 
-83.4527 -104.473 51.8864 -81.2826 -108.487 50.0752 -80.7067 -109.198 49.8584 
-81.7384 -107.618 50.482 -82.1907 -106.874 50.9525 -82.6047 -106.396 51.6006 
-82.5565 -106.093 52.4254 -82.0025 -105.887 53.1864 -80.7279 -110.334 51.3113 
-80.0404 -110.667 51.3497 -81.2571 -109.724 51.4605 -81.3709 -108.989 51.7197 
-81.2346 -108.493 52.1068 -81.088 -108.261 52.7287 -80.8155 -108.036 53.3899 
-80.4302 -107.775 53.8661 -80.3717 -112.209 52.7004 -79.7043 -112.246 52.8207 
-81.0158 -111.933 52.681 -81.2048 -111.274 52.8117 -80.8246 -110.564 53.0449 
-80.3696 -110.222 53.3707 -80.0715 -110.108 53.7251 -79.7159 -109.902 54.0096 
-79.3138 -109.643 54.258 -80.2327 -113.681 54.1107 -79.6332 -113.608 54.1793 
-80.9379 -113.66 54.0594 -81.4302 -113.266 54.141 -81.3332 -112.498 54.3932 
-80.8172 -111.837 54.7104 -80.3198 -111.627 54.9049 -79.8356 -111.602 54.9484 
-79.2777 -111.446 55.0234 -78.7942 -111.237 55.234 -78.663 -112.647 56.8709 
-79.0738 -112.883 56.6736 -79.1724 -114.379 58.4463 -79.6804 -113.092 56.5764 
-79.6169 -114.728 58.3668 -79.7978 -116.152 59.9975 -80.4157 -113.098 56.6548 
-80.2992 -114.854 58.3963 -80.3947 -116.401 60.0899 -80.7406 -117.383 61.9717 
-81.1017 -113.155 56.636 -81.1287 -114.848 58.4689 -81.1493 -116.443 60.2245 
-81.5161 -117.53 62.2847 -81.7704 -118.384 64.3323 -81.6427 -113.677 56.3058 
-81.7802 -115.195 58.2657 -81.842 -116.718 60.1612 -82.1939 -117.825 62.4087 
-82.4729 -118.877 64.5888 -82.3288 -120.043 65.9812 -81.7648 -114.41 55.9198 
-81.913 -115.781 57.9068 -82.055 -117.328 59.8491 -82.5365 -118.535 62.0866 
-83.0215 -119.632 64.382 -82.9989 -120.877 65.8455 -82.7116 -121.841 66.758 
-81.2841 -114.808 55.7243 -81.4263 -116.026 57.7201 -81.6175 -117.602 59.6748 
-82.2633 -119.142 61.6258 -83.1333 -120.426 63.7189 -83.5711 -121.621 65.3238 
-83.4852 -122.483 66.3746 -83.3207 -122.845 67.6941 -80.5386 -114.834 55.6616 
-80.6729 -115.94 57.6001 -80.8718 -117.399 59.6012 -81.5337 -119.138 61.3467 
-82.5691 -120.742 63.0353 -83.4463 -122.039 64.6421 -83.8238 -122.876 65.9056 
-83.8494 -123.243 67.2507 -83.8439 -123.424 69.029 -79.8977 -114.76 55.6147 
-80.0343 -115.849 57.3853 -80.221 -117.183 59.3209 -80.7936 -118.851 61.0244 
-81.7042 -120.562 62.463 -82.5943 -122.016 63.9556 -83.2369 -122.992 65.4475 
-83.6049 -123.489 66.8449 -83.8218 -123.825 68.4088 -84.0091 -124.209 70.1149 
-78.6418 -113.625 58.1034 -79.1739 -115.437 59.6264 -78.4629 -114.691 59.1187 
-79.8242 -117.014 61.4433 -78.8902 -116.475 60.7788 -78.0056 -115.788 60.0747 
-80.8318 -118.028 63.859 -79.6513 -117.757 63.1298 -78.5435 -117.43 62.1472 
-77.6438 -116.785 61.2401 -81.6604 -119.369 65.8891 -80.707 -118.849 65.493 
-79.553 -118.589 64.6166 -78.4806 -118.242 63.4449 -77.4661 -117.538 62.419 
-82.0828 -121.218 67.0104 -81.4107 -120.513 66.9555 -80.4858 -119.949 66.4546 
-79.4185 -119.497 65.4735 -78.293 -118.882 64.3496 -77.1252 -118.071 63.3908 
-82.6892 -122.466 68.2379 -81.9879 -121.989 68.3382 -81.0675 -121.475 67.9182 
-79.9824 -120.921 67.1254 -78.9028 -120.251 66.0893 -77.765 -119.442 65.0355 
-76.6488 -118.573 64.0981 -83.4802 -123.098 69.9036 -82.8168 -122.708 70.2142 
-81.7629 -122.35 69.7376 -80.4458 -121.996 68.8529 -79.2778 -121.515 67.8282 
-78.2733 -120.854 66.6464 -77.2076 -120.027 65.4783 -76.1682 -119.116 64.462 
-84.0021 -123.921 71.2131 -83.5609 -123.42 71.7698 -82.5491 -122.889 71.3998 
-81.065 -122.528 70.447 -79.6495 -122.291 69.3879 -78.6308 -121.953 68.1971 
-77.701 -121.364 66.8698 -76.645 -120.523 65.6464 -75.6198 -119.571 64.6216 
-84.081 -125.125 71.3613 -84.0162 -124.71 72.3391 -83.8027 -125.847 71.9346 
-83.3481 -125.228 72.5829 -82.6144 -125.911 72.0371 -83.2549 -123.925 72.4351 
-81.632 -125.249 72.5116 -80.5403 -125.829 71.842 -82.0478 -124.235 72.4304 
-81.758 -123.16 71.6874 -79.3704 -125.354 72.222 -78.4916 -126.206 71.1578 
-80.0481 -124.338 72.5383 -80.241 -123.414 71.7898 -80.0298 -122.779 70.6422 
-77.4074 -125.69 71.3755 -76.8087 -126.508 70.3965 -78.0076 -124.515 72.2852 
-78.4525 -123.569 72.0188 -78.6857 -123.048 70.7263 -78.7506 -122.612 69.4377 
-75.6934 -125.711 70.572 -75.0507 -126.293 70.0714 -76.2937 -124.683 71.2335 
-76.8679 -123.612 71.5257 -77.3453 -123.01 70.6872 -77.6961 -122.702 69.3144 
-77.839 -122.223 68.0654 -74.0814 -125.405 70.1385 -73.4481 -125.914 69.6778 
-74.7261 -124.648 70.2718 -75.4068 -123.644 70.397 -76.0764 -122.753 70.18 
-76.5674 -122.285 69.2906 -76.8122 -122.02 68.0232 -76.8181 -121.482 66.7409 
-72.8633 -125.01 69.4781 -72.4179 -125.512 68.7825 -73.4099 -124.369 69.6517 
-74.0262 -123.565 69.5541 -74.722 -122.624 69.4507 -75.3485 -121.855 69.1013 
-75.6853 -121.485 68.1695 -75.75 -121.188 66.8201 -75.6967 -120.537 65.5558 
-71.9163 -124.511 68.5085 -71.68 -124.951 67.7807 -72.3291 -123.874 68.9209 
-72.8507 -123.161 68.9849 -73.4027 -122.425 68.8494 -73.9852 -121.728 68.5469 
-74.4716 -121.217 67.8862 -74.6886 -120.847 66.7873 -74.7044 -120.326 65.545 
-74.7003 -119.547 64.514 -83.6529 -124.817 69.7121 -83.595 -125.743 70.5268 
-82.8489 -125.128 69.0233 -82.5629 -125.786 69.3886 -81.8226 -125.076 68.159 
-82.9977 -126.152 70.8825 -81.1681 -125.561 68.2517 -80.7402 -124.934 67.172 
-81.5025 -126.022 69.5564 -81.3693 -126.047 70.9948 -79.811 -125.495 67.1626 
-79.5964 -124.835 66.0278 -79.835 -126.077 68.2543 -79.748 -126.276 69.6031 
-79.3258 -126.276 70.6924 -78.704 -125.408 65.9331 -78.4355 -124.568 64.8056 
-78.6295 -126.192 67.0359 -78.4648 -126.719 68.1587 -78.2565 -126.822 69.2912 
-77.699 -126.796 70.0139 -77.6539 -125.016 64.6444 -77.3729 -123.999 63.7555 
-77.6669 -125.82 65.779 -77.4897 -126.582 66.8565 -77.3228 -127.037 67.8457 
-76.8654 -127.076 68.7889 -75.9842 -126.845 69.5549 -76.5874 -124.377 63.5688 
-76.474 -123.23 62.8924 -76.527 -125.162 64.5213 -76.2604 -125.819 65.6219 
-76.028 -126.547 66.4911 -75.6445 -126.984 67.3056 -74.858 -126.95 68.2801 
-74.0103 -126.553 69.182 -75.7317 -123.575 62.6361 -75.7762 -122.403 61.9675 
-75.5162 -124.5 63.3727 -75.0673 -125.138 64.3297 -74.6535 -125.853 65.1768 
-74.2963 -126.58 65.8065 -73.7038 -126.894 66.5854 -73.0321 -126.712 67.5626 
-72.622 -126.2 68.3794 -75.1622 -122.671 61.6366 -75.262 -121.611 60.9008 
-74.9141 -123.699 62.3042 -74.4194 -124.532 63.06 -73.8828 -125.288 63.8237 
[...]
CELL_DATA 2000
SCALARS Distance double
LOOKUP_TABLE default
136.213 137.03 136.831 137.348 137.936 137.692 138.228 138.082 138.802 
138.946 138.649 139.208 139.03 139.821 139.738 140.664 140.072 139.738 
140.344 140.112 140.968 140.854 141.852 141.745 142.691 141.256 140.932 
141.619 141.366 142.278 142.111 143.149 143.004 143.989 143.784 144.665 
142.467 142.168 142.939 142.713 143.681 143.498 144.545 144.363 145.377 
145.148 146.094 145.815 146.732 143.687 143.435 144.27 144.072 145.074 
144.908 145.959 145.78 146.808 146.588 147.586 147.32 148.289 147.98 
148.889 144.837 144.679 145.588 145.431 146.447 146.288 147.338 147.175 
148.222 148.035 149.056 148.827 149.802 149.53 150.415 150.083 150.84 
145.9 145.832 146.828 146.742 147.784 147.647 148.685 148.535 149.592 
149.441 150.477 150.28 151.228 150.98 151.821 151.528 152.247 151.89 
152.491 135.697 135.243 135.81 136.525 134.884 135.401 136.146 136.704 
137.452 134.653 135.097 135.829 136.361 137.167 137.7 138.481 134.53 
134.932 135.662 136.115 136.945 137.464 138.323 138.807 139.607 134.457 
134.866 135.657 136.051 136.894 137.335 138.238 138.707 139.568 139.984 
140.773 134.41 134.831 135.683 136.1 136.981 137.381 138.287 138.704 
139.614 140.01 140.836 141.183 141.964 134.425 134.821 135.7 136.141 
137.092 137.515 138.454 138.826 139.74 140.111 140.977 141.306 142.063 
142.374 143.129 134.544 134.888 135.796 136.212 137.258 137.697 138.75 
139.084 140.009 140.293 141.133 141.446 142.184 142.472 143.117 143.463 
144.18 134.782 135.063 135.982 136.37 137.466 137.937 139.095 139.469 
140.439 140.644 141.41 141.616 142.29 142.546 143.129 143.413 144.001 
144.42 145.147 135.25 136.427 136.011 136.461 137.698 137.256 137.783 
137.404 138.02 139.027 138.539 139.088 138.774 139.492 139.117 139.721 
140.493 139.894 140.331 140.013 140.702 140.496 141.115 140.715 141.059 
141.963 141.357 141.625 141.198 141.7 141.522 142.08 141.879 142.207 
141.786 141.932 143.238 142.743 142.978 142.466 142.788 142.449 142.871 
142.679 143.026 142.754 142.936 142.533 142.687 144.528 144.061 144.482 
143.893 144.228 143.633 143.948 143.523 143.871 143.565 143.85 143.492 
143.684 143.28 143.468 146.035 145.559 146.214 145.604 146.105 145.318 
145.637 144.862 145.184 144.619 145.004 144.542 144.856 144.358 144.59 
144.105 144.353 147.562 147.163 147.892 147.42 148.051 147.348 147.754 
146.832 147.132 146.261 146.663 145.972 146.416 145.763 146.116 145.443 
145.765 145.161 145.533 146.564 146.84 147.266 148.535 147.231 147.634 
148.945 149.419 150.8 147.592 148.055 149.391 149.879 151.29 151.738 
153.074 147.934 148.421 149.823 150.331 151.76 152.232 153.626 154.021 
155.324 148.462 148.862 150.323 150.798 152.275 152.729 154.178 154.604 
156.026 156.351 157.623 149.022 149.429 150.794 151.288 152.729 153.24 
154.707 155.191 156.687 157.096 158.465 158.666 159.747 149.193 149.758 
150.894 151.524 152.775 153.486 154.873 155.582 157.057 157.678 159.065 
159.442 160.508 160.611 161.414 148.944 149.615 150.58 151.295 152.366 
153.216 154.487 155.433 156.83 157.744 159.079 159.779 160.808 161.16 
161.877 162.028 162.691 148.574 149.227 150.146 150.829 151.829 152.651 
153.849 154.835 156.153 157.202 158.457 159.418 160.423 161.112 161.802 
162.215 162.795 163.121 163.79 146.827 148.829 147.824 147.893 151.066 
149.979 150.022 148.942 148.919 153.308 152.237 152.264 151.136 151.082 
149.946 149.849 155.542 154.473 154.535 153.398 153.378 152.191 152.118 
150.913 150.806 157.784 156.731 156.824 155.698 155.724 154.543 154.51 
153.273 153.155 151.893 151.715 159.836 158.916 159.013 157.974 157.998 
156.875 156.818 155.635 155.46 154.218 153.941 152.7 152.411 161.531 
160.817 160.952 160.066 160.086 159.057 158.943 157.827 157.587 156.404 
156.054 154.833 154.447 153.266 152.924 162.961 162.415 162.65 161.899 
161.926 160.998 160.815 159.789 159.488 158.403 158.036 156.87 156.448 
155.247 154.822 153.681 153.296 164.239 163.842 164.183 163.538 163.544 
162.683 162.378 161.439 161.023 160.099 159.696 158.718 158.286 157.182 
156.692 155.533 155.039 153.943 153.495 165.035 166.03 165.479 165.025 
166.132 166.109 165.61 165.077 164.242 165.289 165.706 165.25 165.176 
164.265 163.863 162.861 164.186 164.647 164.292 164.478 163.684 163.545 
162.588 162.307 161.408 163.209 163.583 163.241 163.49 162.862 162.871 
162.06 161.917 161.131 160.904 160.116 162.16 162.559 162.132 162.439 
161.847 162.021 161.3 161.331 160.596 160.541 159.813 159.615 158.763 
160.997 161.417 160.972 161.287 160.686 160.939 160.259 160.446 159.735 
159.855 159.134 159.147 158.33 158.143 157.176 159.826 160.245 159.836 
160.141 159.573 159.803 159.164 159.367 158.712 158.894 158.217 158.338 
157.574 157.553 156.647 156.456 155.478 158.625 159.062 158.642 158.997 
158.444 158.715 158.097 158.315 157.69 157.885 157.259 157.41 156.716 
156.76 155.935 155.843 154.931 154.756 153.869 164.987 164.825 165.36 
165.959 164.047 164.842 165.386 165.968 166.062 162.946 163.771 164.153 
164.973 165.068 165.576 165.228 161.836 162.585 162.878 163.62 163.759 
164.387 164.259 164.593 164.193 160.674 161.456 161.785 162.459 162.693 
163.251 163.334 163.714 163.579 163.724 163.343 159.346 160.219 160.549 
161.335 161.569 162.255 162.377 162.898 162.825 163.126 162.813 162.885 
162.351 157.946 158.833 159.102 159.946 160.064 160.902 160.929 161.717 
161.594 162.18 161.834 162.166 161.645 161.758 161.146 156.567 157.423 
157.665 158.456 158.515 159.279 159.253 160.065 159.982 160.723 160.467 
160.992 160.556 160.877 160.356 160.511 159.942 155.229 156.045 156.29 
157.054 157.152 157.822 157.833 158.5 158.502 159.173 159.075 159.63 
159.343 159.745 159.332 159.622 159.142 159.308 158.755 148.697 149.457 
149.471 150.267 150.267 150.29 151.158 151.122 152.001 151.091 151.141 
152.135 152.129 153.146 153.054 154.081 152.052 152.059 153.13 153.156 
154.277 154.273 155.386 155.286 156.373 153.104 153.122 154.193 154.194 
155.3 155.358 156.49 156.522 157.609 157.56 158.595 153.869 154.072 
155.099 155.202 156.235 156.331 157.425 157.526 158.597 158.647 159.637 
159.633 160.499 154.231 154.593 155.579 155.882 156.878 157.126 158.186 
158.388 159.439 159.547 160.488 160.526 161.333 161.31 161.923 154.479 
154.842 155.828 156.203 157.21 157.582 158.623 158.979 159.997 160.255 
161.153 161.277 162.055 162.072 162.727 162.601 163.06 154.768 155.102 
156.085 156.448 157.453 157.84 158.846 159.258 160.213 160.597 161.437 
161.735 162.496 162.691 163.418 163.436 164.049 163.8 164.202 147.775 
146.563 147.631 148.538 145.323 146.398 147.351 148.423 149.319 144.16 
145.158 146.079 147.197 148.132 149.182 150.079 143.09 143.997 144.848 
145.931 146.871 147.953 148.877 149.953 150.957 142.085 142.917 143.708 
144.731 145.664 146.72 147.639 148.713 149.718 150.886 151.963 141.196 
141.923 142.635 143.588 144.509 145.562 146.497 147.517 148.465 149.593 
150.637 151.839 152.777 140.493 141.102 141.7 142.506 143.322 144.374 
145.329 146.398 147.329 148.375 149.33 150.464 151.389 152.5 153.229 
139.902 140.464 140.982 141.609 142.236 143.145 144.007 145.139 146.084 
147.202 148.109 149.19 150.063 151.128 151.899 152.889 153.528 139.302 
139.881 140.386 140.925 141.417 142.102 142.789 143.785 144.681 145.846 
146.764 147.907 148.762 149.837 150.615 151.612 152.301 153.226 153.843 
139.133 139.245 139.554 140.229 139.334 139.655 140.346 140.611 141.261 
139.444 139.755 140.517 140.787 141.546 141.755 142.598 139.693 139.946 
140.824 141.085 142.011 142.202 143.168 143.355 144.441 140.137 140.323 
141.27 141.518 142.573 142.805 143.883 144.054 145.167 145.367 146.524 
140.689 140.857 141.814 142.041 143.125 143.409 144.557 144.798 145.934 
146.132 147.275 147.467 148.562 141.29 141.453 142.446 142.639 143.737 
143.996 145.18 145.457 146.64 146.876 148.028 148.229 149.328 149.468 
150.447 141.973 142.112 143.155 143.327 144.461 144.678 145.88 146.123 
147.324 147.564 148.724 148.952 150.055 150.23 151.224 151.3 152.157 
142.727 142.847 143.886 144.056 145.175 145.409 146.588 146.842 148.003 
148.241 149.359 149.601 150.686 150.912 151.922 152.059 152.942 152.964 
153.725 143.501 145.088 144.407 144.672 146.795 146.057 146.355 145.652 
145.986 148.726 147.895 148.242 147.441 147.823 147.071 147.44 150.788 
149.965 150.365 149.473 149.845 148.996 149.363 148.559 148.867 152.634 
151.983 152.416 151.621 151.966 151.082 151.397 150.526 150.822 149.968 
150.221 154.187 153.678 154.142 153.531 153.936 153.166 153.508 152.622 
152.929 152 152.267 151.342 151.564 155.62 155.17 155.687 155.168 
155.675 155.052 155.5 154.725 155.075 154.164 154.418 153.449 153.635 
152.675 152.807 156.934 156.58 157.136 156.693 157.219 156.719 157.183 
156.587 156.907 156.17 156.34 155.499 155.593 154.697 154.746 153.816 
153.815 158.03 157.813 158.372 158.049 158.529 158.142 158.542 158.083 
158.33 157.75 157.825 157.153 157.163 156.445 156.445 155.642 155.586 
154.689 154.577 143.048 142.804 143.523 144.658 142.432 143.275 144.558 
145.221 146.39 142.033 142.918 144.359 145.156 146.48 147.05 148.287 
141.758 142.589 144.14 145.025 146.529 147.187 148.503 149.033 150.295 
141.611 142.368 143.928 144.869 146.519 147.294 148.718 149.269 150.525 
151.021 152.165 141.548 142.219 143.68 144.633 146.317 147.262 148.805 
149.485 150.772 151.261 152.379 152.787 153.766 141.573 142.155 143.485 
144.34 145.924 146.949 148.524 149.434 150.771 151.429 152.518 152.98 
153.915 154.293 155.165 141.635 142.179 143.418 144.143 145.574 146.501 
147.979 148.977 150.308 151.192 152.266 152.935 153.798 154.318 155.122 
155.592 156.401 141.678 142.217 143.404 144.062 145.371 146.158 147.5 
148.395 149.661 150.578 151.653 152.458 153.305 153.977 154.727 155.354 
156.128 156.706 157.456 141.982 140.252 141.294 141.641 138.531 139.531 
139.806 140.874 141.194 136.739 137.762 138.025 139.069 139.349 140.407 
140.76 134.853 135.818 136.013 137.198 137.526 138.634 138.975 140.044 
140.486 133.385 133.977 133.96 135.032 135.348 136.657 137.088 138.299 
138.748 139.867 140.382 132.571 132.844 132.747 133.271 133.466 134.471 
134.939 136.247 136.819 138.111 138.68 139.833 140.391 131.856 132.21 
132.267 132.531 132.709 133.121 133.488 134.302 134.885 136.094 136.795 
138.09 138.742 139.89 140.465 130.959 131.441 131.587 132.058 132.309 
132.697 133.016 133.396 133.808 134.483 135.107 136.21 136.958 138.196 
138.859 139.981 140.545 130.177 130.557 130.623 131.17 131.388 132.057 
132.429 133 133.373 133.8 134.213 134.845 135.473 136.483 137.214 
138.352 138.991 140.062 140.613 129.869 129.507 129.803 130.176 129.328 
129.465 129.777 130.193 130.858 129.596 129.48 129.784 129.944 130.654 
131.153 132.054 130.34 130.031 130.382 130.25 130.96 131.203 132.19 
132.542 133.289 131.306 130.954 131.325 131.062 131.695 131.723 132.628 
132.852 133.638 133.723 134.22 132.273 131.951 132.298 132.025 132.529 
132.462 133.213 133.351 134.118 134.183 134.766 134.717 135.338 133.22 
132.905 133.241 132.957 133.378 133.223 133.864 133.921 134.718 134.778 
135.498 135.421 136.119 136.084 136.95 134.211 133.868 134.217 133.906 
134.324 134.081 134.678 134.617 135.446 135.491 136.354 136.3 137.073 
136.969 137.78 137.796 138.699 135.248 134.887 135.244 134.918 135.362 
135.079 135.671 135.514 136.317 136.311 137.212 137.21 138.028 137.944 
138.698 138.639 139.443 139.487 140.33 135.942 137.104 136.317 135.979 
138.61 137.646 137.334 136.456 136.164 140.496 139.377 139.105 138.026 
137.763 136.779 136.569 142.495 141.381 141.143 139.986 139.742 138.599 
138.4 137.354 137.259 144.443 143.366 143.169 142.06 141.842 140.682 
140.454 139.315 139.163 138.152 138.112 146.512 145.373 145.233 144.105 
143.954 142.8 142.591 141.405 141.182 140.078 139.937 138.981 138.899 
148.663 147.533 147.42 146.258 146.145 144.969 144.821 143.597 143.391 
142.162 141.967 140.845 140.704 139.714 139.597 150.597 149.615 149.486 
148.42 148.271 147.158 146.996 145.836 145.652 144.432 144.236 142.999 
142.824 141.65 141.51 140.447 140.352 152.241 151.398 151.267 150.337 
150.155 149.155 148.936 147.89 147.666 146.588 146.383 145.251 145.059 
143.869 143.692 142.507 142.372 141.281 141.214 142.057 143.29 143.041 
143.849 144.645 144.378 145.239 144.959 145.822 145.985 145.747 146.615 
146.373 147.256 146.985 147.875 147.244 147.038 147.9 147.715 148.63 
148.413 149.316 149.049 149.94 148.496 148.279 149.154 148.981 149.945 
149.779 150.724 150.478 151.318 151.047 151.843 149.789 149.573 150.49 
150.287 151.276 151.106 152.073 151.857 152.659 152.366 153.039 152.787 
153.444 151.029 150.881 151.851 151.675 152.671 152.474 153.414 153.182 
153.974 153.667 154.307 153.971 154.577 154.301 154.913 152.125 152.069 
153.053 152.983 153.972 153.834 154.726 154.502 155.266 154.97 155.637 
155.281 155.911 155.542 156.178 155.824 156.412 153.076 153.09 154.059 
154.078 155.042 155.006 155.855 155.712 156.422 156.2 156.842 156.576 
157.206 156.897 157.517 157.167 157.74 157.34 157.805 134.002 133.72 
133.46 132.719 133.59 133.23 132.413 132.163 131.539 133.582 133.158 
132.337 131.953 131.264 131.101 130.726 133.679 133.224 132.462 131.998 
131.321 130.971 130.472 130.389 130.085 133.839 133.397 132.704 132.223 
131.573 131.134 130.527 130.215 129.659 129.612 129.221 134.004 133.592 
132.942 132.496 131.834 131.392 130.717 130.292 129.59 129.27 128.725 
128.723 128.553 134.22 133.784 133.156 132.725 132.079 131.633 130.971 
130.497 129.841 129.359 128.854 128.54 128.412 128.427 128.655 134.587 
134.081 133.494 133.004 132.443 131.949 131.398 130.866 130.34 129.79 
129.395 128.942 128.838 128.623 128.83 128.848 129.182 135.093 134.55 
134.03 133.48 133.013 132.467 132.042 131.468 131.054 130.459 130.096 
129.584 129.392 129.099 129.15 129.097 129.316 129.384 129.641 134.026 
132.755 133.521 133.905 131.645 132.305 132.723 133.557 134.197 130.911 
131.392 131.811 132.482 133.111 133.991 134.765 130.302 130.792 131.156 
131.695 132.18 132.924 133.62 134.58 135.349 129.501 130.109 130.47 
131.029 131.374 131.986 132.521 133.411 134.204 135.181 135.897 128.901 
129.352 129.839 130.35 130.763 131.228 131.714 132.395 133.204 134.124 
134.995 135.79 136.387 128.942 129.063 129.6 129.925 130.497 130.822 
131.398 131.825 132.637 133.335 134.278 135.018 135.731 136.304 136.795 
129.35 129.303 129.697 129.873 130.43 130.727 131.365 131.711 132.487 
132.987 133.872 134.465 135.205 135.73 136.277 136.768 137.312 129.775 
129.685 129.94 129.998 130.439 130.695 131.322 131.695 132.449 132.895 
133.705 134.183 134.905 135.333 135.917 136.336 136.923 137.408 138.053 
134.812 134.764 135.165 136.019 135.101 135.319 136.177 136.476 137.325 
135.689 135.819 136.663 136.803 137.627 137.851 138.711 136.248 136.405 
137.201 137.331 138.113 138.27 139.138 139.356 140.271 136.655 136.84 
137.545 137.75 138.479 138.712 139.579 139.848 140.787 140.991 141.82 
136.973 137.135 137.75 137.976 138.677 138.975 139.834 140.205 141.135 
141.448 142.228 142.395 143.034 137.339 137.434 138.04 138.193 138.898 
139.156 139.992 140.372 141.252 141.645 142.382 142.652 143.241 143.455 
144.127 137.906 137.907 138.567 138.605 139.309 139.448 140.223 140.509 
141.313 141.676 142.397 142.711 143.344 143.604 144.309 144.617 145.494 
138.65 138.6 139.273 139.24 139.898 139.929 140.617 140.772 141.512 
141.767 142.513 142.78 143.52 143.77 144.576 144.854 145.767 146.098 
147.039 141.801 141.033 140.98 140.12 140.368 140.249 139.363 139.287 
138.419 139.796 139.637 138.734 138.579 137.669 137.585 136.674 139.269 
139.095 138.209 138.006 137.112 136.93 136.057 135.885 134.986 138.878 
138.64 137.816 137.557 136.736 136.493 135.741 135.486 134.743 134.414 
133.689 138.695 138.382 137.626 137.297 136.534 136.231 135.527 135.28 
134.608 134.325 133.63 133.323 132.746 138.595 138.266 137.518 137.191 
136.439 136.111 135.36 135.08 134.327 134.102 133.312 133.123 132.383 
132.314 131.783 138.473 138.144 137.356 137.058 136.309 136.018 135.26 
134.931 134.115 133.792 132.934 132.679 131.867 131.762 131.14 131.232 
130.821 138.36 138.009 137.217 136.894 136.181 135.894 135.202 134.86 
134.085 133.669 132.844 132.432 131.664 131.355 130.758 130.649 130.273 
130.353 130.11 
POINT_DATA 1002
SCALARS Distance double
LOOKUP_TABLE default
136.65 135.613 136.379 137.468 137.246 137.93 138.366 138.198 138.853 
139.627 139.386 139.259 139.877 140.738 141.631 140.573 140.391 141.079 
141.952 142.871 143.576 141.839 141.545 142.454 143.307 144.193 144.908 
145.513 143.13 142.736 143.855 144.74 145.594 146.348 147.028 147.658 
144.449 143.887 145.238 146.132 147.009 147.824 148.587 149.256 149.754 
145.71 144.922 146.611 147.497 148.387 149.274 150.073 150.749 151.242 
151.525 146.87 145.914 147.908 148.836 149.725 150.666 151.495 152.119 
152.596 152.905 153.044 135.102 135.953 134.677 135.574 134.403 136.915 
135.317 134.242 136.598 137.99 135.241 134.113 136.431 137.807 139.174 
135.25 134.013 136.486 137.771 139.142 140.391 135.234 133.986 136.57 
137.892 139.203 140.502 141.62 135.247 134.045 136.624 138.086 139.388 
140.633 141.799 142.776 135.373 134.215 136.771 138.383 139.781 140.861 
141.91 142.848 143.738 135.603 134.529 136.971 138.66 140.243 141.293 
142.082 142.886 143.663 144.608 135.62 136.812 136.851 138.108 138.137 
138.433 139.376 139.572 139.785 140.262 140.739 141.172 140.881 141.443 
141.643 142.164 142.557 141.977 142.246 142.555 142.427 143.513 143.65 
143.261 143.13 143.244 143.29 143.102 145.026 144.913 144.912 144.516 
144.207 144.176 144.098 143.866 146.743 146.453 146.879 146.531 145.871 
145.481 145.362 145.118 144.796 148.295 147.942 148.64 148.638 148.096 
147.433 147.076 146.812 146.421 146.082 147.7 148.021 149.887 148.465 
150.354 152.162 148.892 150.821 152.699 154.365 149.297 151.285 153.179 
155.005 156.607 149.859 151.817 153.728 155.632 157.446 158.818 150.335 
152.194 154.18 156.218 158.215 159.735 160.688 150.306 152.049 154.09 
156.353 158.605 160.378 161.411 162.143 149.903 151.539 153.516 155.86 
158.279 160.355 161.691 162.531 163.403 149.488 151.051 152.903 155.132 
157.469 159.624 161.292 162.425 163.434 164.534 148.904 151.15 150.015 
153.4 152.245 150.989 155.66 154.552 153.341 152.028 157.93 156.886 
155.74 154.453 152.988 160.003 159.107 158.003 156.714 155.217 153.621 
161.763 161.091 160.062 158.765 157.284 155.664 154.059 163.343 162.848 
161.844 160.541 159.161 157.664 156.019 154.389 164.784 164.427 163.36 
161.934 160.598 159.332 157.866 156.193 154.536 165.789 165.866 166.437 
166.025 165.938 164.939 165.16 164.774 164.567 163.292 164.013 163.78 
163.711 162.779 161.696 162.965 162.889 162.751 162.129 161.279 160.422 
161.829 161.765 161.606 161.187 160.587 159.925 159.095 160.66 160.567 
160.429 160.027 159.565 159.054 158.425 157.472 159.511 159.402 159.337 
158.956 158.51 158.063 157.537 156.764 155.706 158.275 158.201 158.143 
157.855 157.481 157.083 156.633 155.981 155.062 154.028 164.641 165.654 
164.183 164.691 163.27 165.816 163.354 162.217 164.416 164.979 162.186 
161.109 163.097 163.773 164.032 161.076 159.839 162.098 162.89 163.345 
163.366 159.743 158.459 160.833 161.781 162.463 162.672 162.405 158.3 
157.081 159.265 160.097 160.912 161.41 161.426 161.109 156.891 155.731 
157.805 158.477 159.188 159.851 160.146 160.104 159.861 155.514 154.443 
156.466 157.187 157.837 158.483 158.895 158.989 158.905 158.664 148.663 
150.267 149.446 151.16 150.198 152.052 152.069 151.008 153.179 154.21 
153.103 152.046 154.222 155.432 156.518 154.22 153.049 155.259 156.421 
157.617 158.694 154.95 153.611 156.132 157.316 158.541 159.635 160.585 
155.222 153.863 156.57 157.934 159.309 160.469 161.363 162.056 155.445 
154.131 156.82 158.242 159.695 160.99 162.003 162.802 163.326 146.724 
147.51 145.458 146.23 144.286 148.317 144.962 143.237 147.049 149.035 
143.799 142.24 145.788 147.781 149.819 142.718 141.303 144.612 146.598 
148.543 150.796 141.755 140.534 143.438 145.483 147.415 149.443 151.674 
141.022 139.926 142.329 144.205 146.304 148.272 150.279 152.217 140.448 
139.336 141.481 142.906 144.914 147.037 149.022 150.891 152.591 139.864 