# vtk DataFile Version 4.0
vtk output
ASCII
DATASET POLYDATA
POINTS 1002 float
-73.19 -107.703 53.6464 -73.4884 -106.916 52.9831 -74.0532 -107.485 52.9054 
-73.7964 -108.367 53.6743 -74.7926 -108.074 53.194 -72.8452 -108.966 54.2863 
-74.4694 -109.226 54.0179 -75.5987 -108.8 53.8613 -73.3932 -109.792 54.3664 
-72.4683 -110.659 54.9414 -75.0053 -110.298 54.3752 -76.1857 -109.786 54.344 
-73.8354 -110.863 54.4617 -72.8671 -111.623 54.9623 -72.1674 -112.472 55.7537 
-75.1751 -111.372 54.1119 -76.3232 -110.883 54.1909 -74.0498 -111.914 54.2249 
-73.1238 -112.696 54.8082 -72.4787 -113.594 55.7624 -71.9198 -114.461 56.6303 
-75.0512 -112.282 53.3238 -76.1966 -111.835 53.695 -74.0522 -112.733 53.561 
-73.2902 -113.59 54.4586 -72.7638 -114.7 55.707 -72.2571 -115.723 56.7621 
-71.6399 -116.621 57.4286 -75.0518 -113.084 52.7681 -76.222 -112.574 53.2416 
-74.1185 -113.527 53.1267 -73.4796 -114.438 54.229 -73.0796 -115.725 55.6769 
-72.6877 -116.863 56.9379 -72.1173 -117.767 57.7563 -71.512 -118.529 58.3527 
-75.3444 -113.853 52.7408 -76.4217 -113.227 52.9431 -74.4848 -114.437 53.3866 
-73.8777 -115.427 54.5565 -73.4839 -116.783 55.8877 -73.1816 -117.913 57.1769 
-72.7588 -118.727 58.1714 -72.213 -119.458 58.898 -71.7328 -120.08 59.5608 
-75.6752 -114.656 53.1415 -76.5383 -113.955 52.9661 -74.9874 -115.395 54.0834 
-74.4653 -116.43 55.3082 -74.0643 -117.735 56.4374 -73.7643 -118.807 57.5989 
-73.4627 -119.536 58.7207 -73.0412 -120.254 59.5696 -72.5785 -120.955 60.24 
-72.1857 -121.462 60.8464 -75.9085 -115.532 53.8765 -76.5429 -114.789 53.3967 
-75.4187 -116.367 54.9275 -75.0328 -117.393 56.1094 -74.705 -118.562 57.1057 
-74.432 -119.54 58.1532 -74.1928 -120.228 59.3546 -73.8757 -120.946 60.3414 
-73.452 -121.744 60.9918 -73.0323 -122.352 61.5146 -72.6708 -122.693 61.9823 
-74.1608 -106.568 52.2898 -74.8647 -107.109 52.3145 -75.0851 -105.938 51.8385 
-75.9759 -106.415 51.972 -76.1865 -105.08 51.5107 -75.7636 -107.547 52.7554 
-77.1658 -105.614 51.6556 -77.0802 -104.506 50.8692 -76.9482 -106.831 52.3468 
-76.6896 -108.145 53.478 -78.0477 -105.17 51.0297 -77.7474 -104.298 49.9256 
-78.0442 -106.305 51.8399 -77.8192 -107.542 52.8238 -77.3187 -109.13 54.0176 
-78.8326 -104.853 50.2213 -78.633 -103.961 49.1292 -78.872 -106.076 51.2386 
-78.7627 -107.303 52.1188 -78.3866 -108.588 53.4252 -77.4792 -110.244 54.2899 
-79.7905 -104.343 49.4902 -79.5826 -103.478 48.5457 -79.7542 -105.672 50.6296 
-79.6156 -107.128 51.6068 -79.3413 -108.304 52.822 -78.6524 -109.551 54.2748 
-77.474 -111.137 54.3848 -80.4508 -104.084 48.7897 -80.0008 -103.34 47.9332 
-80.6208 -105.234 49.9464 -80.5655 -106.698 51.16 -80.3562 -108.022 52.2899 
-79.8662 -109.058 53.882 -78.9047 -110.309 54.9033 -77.6085 -111.845 54.1353 
-80.53 -104.397 48.0518 -79.8976 -103.716 47.2563 -81.0112 -105.29 49.1371 
-81.2489 -106.434 50.5362 -81.2791 -107.71 51.7549 -81.0657 -108.807 53.1253 
-80.3828 -109.813 54.6566 -79.1405 -111.109 54.8486 -77.6931 -112.596 53.6808 
-80.3732 -105.009 47.3674 -79.6895 -104.376 46.6526 -80.991 -105.737 48.3128 
-81.4115 -106.595 49.7117 -81.6808 -107.662 51.1199 -81.8398 -108.785 52.3445 
-81.5992 -109.753 53.816 -80.6069 -110.774 54.8185 -79.0457 -112.073 54.3894 
-77.5415 -113.479 53.4535 -80.0208 -105.48 46.6054 -80.7349 -106.109 47.3555 
-80.4001 -106.563 46.6876 -80.9727 -107.178 47.5566 -80.4843 -107.729 46.9724 
-81.2422 -106.835 48.5494 -80.9348 -108.47 47.9645 -80.2634 -109.07 47.4654 
-81.3307 -108.085 48.9189 -81.5833 -107.814 50.1266 -80.839 -109.939 48.4606 
-79.9816 -110.352 48.0439 -81.4382 -109.661 49.2767 -81.7468 -109.364 50.4704 
-81.978 -109.006 51.5455 -80.5386 -111.214 48.8639 -79.5248 -111.599 48.5305 
-81.4579 -111.078 49.4865 -81.9408 -110.913 50.6121 -82.2015 -110.518 51.8876 
-82.1981 -110.053 52.9313 -79.689 -112.424 49.3133 -78.836 -113.019 49.1216 
-80.6954 -112.048 49.6747 -81.4583 -111.845 50.5497 -81.8749 -111.605 51.9188 
-81.9838 -111.279 53.2563 -81.5617 -110.957 54.2364 -78.7202 -113.858 50.2268 
-78.2009 -114.468 50.1526 -79.3879 -113.211 50.3414 -80.0934 -112.677 50.7701 
-80.6367 -112.347 51.7575 -80.8811 -112.232 53.0255 -80.6625 -112.192 54.0201 
-79.9748 -112.101 54.4593 -78.0902 -115.493 51.4951 -77.6959 -115.863 51.4374 
-78.4923 -114.973 51.5348 -78.9305 -114.339 51.6765 -79.327 -113.752 52.1161 
-79.5332 -113.462 52.832 -79.383 -113.489 53.5386 -78.8776 -113.547 53.9079 
-78.2136 -113.503 53.8205 -77.6471 -117.194 52.641 -77.2069 -117.296 52.5781 
-78.0851 -117.002 52.7031 -78.4877 -116.633 52.8285 -78.7552 -116.057 53.0896 
-78.8031 -115.48 53.4129 -78.5829 -115.185 53.6954 -78.1109 -115.122 53.8996 
-77.5346 -115.047 53.9161 -77.0042 -114.909 53.6961 -76.2969 -116.237 54.5498 
-76.7569 -116.501 54.7569 -76.4829 -117.977 56.2403 -77.2949 -116.768 54.8406 
-76.9936 -118.396 56.3648 -76.9086 -119.928 57.8296 -77.8566 -117.023 54.8249 
-77.4847 -118.827 56.4159 -77.3928 -120.511 57.9893 -77.3962 -121.858 59.3836 
-78.3426 -117.41 54.7838 -77.9551 -119.271 56.471 -77.8601 -121.021 58.1915 
-77.9611 -122.487 59.711 -78.1726 -123.527 61.2573 -78.6399 -118.044 54.5645 
-78.3962 -119.856 56.326 -78.3681 -121.46 58.2327 -78.6958 -122.88 59.9693 
-79.0232 -123.985 61.5688 -79.3022 -124.882 63.0547 -78.5984 -118.66 54.1467 
-78.5994 -120.5 55.7993 -78.704 -121.992 57.7978 -79.3091 -123.267 59.7685 
-79.9824 -124.261 61.5207 -80.2804 -125.132 63.0812 -80.3633 -125.999 64.4063 
-78.1778 -118.943 53.816 -78.3213 -120.819 55.2407 -78.5646 -122.384 57.1777 
-79.2812 -123.765 59.2338 -80.3179 -124.789 61.0575 -81.0104 -125.487 62.716 
-81.1933 -126.222 64.2441 -81.1018 -126.906 65.6721 -77.5807 -118.948 53.6776 
-77.6757 -120.741 54.9539 -77.9952 -122.316 56.7953 -78.6895 -123.872 58.8624 
-79.7609 -125.258 60.649 -80.8245 -126.093 62.2556 -81.4934 -126.673 63.8524 
-81.6942 -127.257 65.4366 -81.5648 -127.632 67.0568 -77.0233 -118.865 53.614 
-77.0055 -120.521 54.8284 -77.303 -121.988 56.5625 -77.962 -123.482 58.6061 
-78.896 -125.102 60.4009 -79.9454 -126.337 61.9574 -80.9261 -127.061 63.5168 
-81.6146 -127.654 65.0399 -81.8671 -128.118 66.5911 -81.7679 -128.264 68.2585 
-75.9198 -117.157 55.5869 -76.2648 -119.066 57.3575 -75.6162 -118.215 56.7368 
-76.7759 -121.004 58.9498 -76.0397 -120.186 58.3825 -75.3431 -119.351 57.7229 
-77.4878 -122.776 60.8376 -76.6877 -122 60.2527 -75.8356 -121.226 59.4841 
-75.1069 -120.342 58.7592 -78.5481 -124.394 62.8593 -77.6823 -123.684 62.3983 
-76.6082 -123.006 61.6089 -75.6632 -122.13 60.7517 -74.9116 -121.086 60.042 
-79.6525 -125.814 64.4455 -78.8466 -125.296 64.1933 -77.6807 -124.698 63.5581 
-76.4403 -124.022 62.6718 -75.4822 -122.984 61.8996 -74.6655 -121.851 61.1844 
-80.445 -126.824 65.8885 -79.7326 -126.561 65.7732 -78.728 -126.091 65.3065 
-77.4286 -125.583 64.4515 -76.2155 -124.87 63.4825 -75.192 -123.823 62.6781 
-74.2708 -122.719 61.8812 -80.9893 -127.403 67.5854 -80.3086 -127.217 67.662 
-79.4849 -126.95 67.2992 -78.3873 -126.565 66.5305 -77.1355 -126.093 65.3722 
-75.8925 -125.4 64.1682 -74.752 -124.442 63.1968 -73.8072 -123.382 62.3481 
-81.3705 -127.84 69.2135 -80.7739 -127.498 69.6466 -80.0477 -127.301 69.4029 
-79.1264 -127.07 68.68 -77.9995 -126.73 67.5536 -76.7263 -126.295 66.0989 
-75.4155 -125.639 64.7166 -74.2759 -124.725 63.6521 -73.3952 -123.7 62.7851 
-81.6004 -128.586 69.9529 -81.2217 -128.002 71.0983 -81.213 -128.908 71.4472 
-80.7828 -128.274 72.4387 -80.4096 -129.254 72.2606 -80.5988 -127.58 71.334 
-79.7111 -128.618 72.8401 -79.0716 -129.416 72.1825 -79.9805 -127.765 72.2841 
-79.7246 -127.339 70.6916 -78.0796 -128.813 72.4545 -77.5085 -129.318 71.4691 
-78.6222 -127.964 72.512 -78.8556 -127.349 71.3557 -78.6152 -127.069 69.5861 
-76.4794 -128.868 71.5377 -76.0275 -129.221 70.4444 -76.9659 -128.094 72.1803 
-77.4448 -127.332 71.5964 -77.6226 -127.009 70.0104 -77.3476 -126.766 68.0996 
-75.0409 -128.872 70.265 -74.5153 -129.217 69.2304 -75.516 -128.152 71.1386 
-76.019 -127.315 71.1777 -76.3658 -126.937 70.0128 -76.3524 -126.779 68.2497 
-75.9666 -126.342 66.4064 -73.5363 -128.738 68.9572 -72.9995 -129.089 67.9904 
-74.0522 -128.077 69.739 -74.5996 -127.264 69.9696 -75.0377 -126.82 69.3103 
-75.1925 -126.7 67.9798 -75.0235 -126.304 66.4494 -74.6482 -125.577 64.9504 
-72.107 -128.422 67.8409 -71.7123 -128.74 66.953 -72.5221 -127.867 68.5452 
-73.018 -127.174 68.7143 -73.4955 -126.687 68.2217 -73.8178 -126.487 67.2838 
-73.9195 -126.129 66.1672 -73.806 -125.406 64.987 -73.5886 -124.565 63.8316 
-70.9018 -128.001 66.9161 -70.6484 -128.276 66.1813 -71.1906 -127.56 67.5529 
-71.5808 -127.01 67.7576 -71.9935 -126.542 67.3676 -72.3431 -126.229 66.5983 
-72.6215 -125.85 65.7054 -72.7856 -125.194 64.7608 -72.8099 -124.363 63.8081 
-72.7509 -123.528 62.8863 -81.7347 -128.873 67.9803 -81.4119 -129.324 69.3382 
-81.1523 -129.191 67.3657 -80.6923 -129.643 68.2796 -80.1037 -128.999 66.7006 
-80.8079 -129.693 70.5116 -79.5609 -129.379 67.2399 -78.8598 -128.625 65.9895 
-79.9493 -129.907 69.1302 -79.7827 -129.881 71.0987 -78.2059 -129.023 66.1993 
-77.5993 -128.411 64.9687 -78.707 -129.594 67.7281 -78.8013 -129.93 69.5319 
-78.3621 -129.743 70.894 -76.803 -128.821 64.9404 -76.3992 -128.159 63.6891 
-77.2058 -129.279 66.246 -77.4493 -129.692 67.7597 -77.3427 -129.769 69.2439 
-76.8232 -129.478 70.1648 -75.5331 -128.441 63.6322 -75.3029 -127.627 62.4649 
-75.7308 -128.995 64.7482 -75.9095 -129.463 65.8676 -75.9493 -129.787 67.2071 
-75.7139 -129.678 68.4796 -75.1935 -129.42 69.1306 -74.4355 -127.75 62.4323 
-74.2825 -126.855 61.4057 -74.4961 -128.504 63.4259 -74.5308 -129.143 64.2441 
-74.4942 -129.694 65.1476 -74.2664 -129.895 66.3668 -73.8947 -129.706 67.4135 
-73.4776 -129.433 67.8639 -73.4499 -126.895 61.3091 -73.3349 -125.942 60.456 
-73.4709 -127.824 62.1866 -73.4305 -128.684 62.9212 -73.3065 -129.389 63.5492 
-72.9649 -129.806 64.4114 -72.5007 -129.833 65.4863 -72.1945 -129.585 66.2821 
-72.0077 -129.214 66.6826 -72.5827 -125.965 60.2921 -72.526 -124.986 59.583 
-72.5871 -126.988 61.0245 -72.5311 -128.014 61.7065 -72.3894 -128.865 62.2909 
[...]
CELL_DATA 2000
SCALARS Distance double
LOOKUP_TABLE default
139.604 140.432 140.115 140.458 141.536 141.088 141.431 141.118 141.639 
142.771 142.288 142.584 142.175 142.635 142.411 143.072 143.74 143.384 
143.543 143.226 143.575 143.393 144.035 143.938 144.73 144.298 144.053 
144.059 143.904 144.198 144.187 144.879 144.91 145.802 145.719 146.585 
144.736 144.468 144.478 144.313 144.716 144.757 145.635 145.769 146.835 
146.838 147.796 147.626 148.446 145.288 144.993 145.195 144.948 145.575 
145.51 146.593 146.678 147.906 147.929 148.98 148.844 149.7 149.472 
150.253 145.979 145.719 146.173 145.943 146.777 146.657 147.824 147.825 
149.071 149.067 150.144 150.033 150.932 150.734 151.559 151.305 152.083 
146.813 146.599 147.27 147.104 148.07 147.973 149.127 149.097 150.261 
150.234 151.278 151.192 152.123 151.973 152.846 152.629 153.434 153.141 
153.843 139.315 139.18 139.523 140.129 139.052 139.426 140.067 140.428 
141.18 138.912 139.324 140.005 140.374 141.125 141.569 142.409 138.786 
139.217 139.962 140.337 141.083 141.502 142.354 142.817 143.535 138.702 
139.12 139.93 140.342 141.138 141.505 142.333 142.764 143.565 143.873 
144.322 138.648 139.045 139.858 140.325 141.204 141.606 142.44 142.802 
143.61 143.943 144.542 144.613 144.857 138.595 138.984 139.78 140.257 
141.185 141.665 142.561 142.935 143.739 144.053 144.734 144.889 145.265 
145.161 145.335 138.574 138.947 139.761 140.205 141.143 141.645 142.598 
143.034 143.888 144.22 144.961 145.161 145.664 145.612 145.825 145.652 
145.864 138.672 138.995 139.826 140.22 141.124 141.603 142.55 143.042 
143.952 144.361 145.177 145.445 146.059 146.078 146.371 146.169 146.318 
146.186 146.515 139.062 140.091 139.773 140.213 141.12 140.803 141.238 
140.967 141.485 142.174 141.841 142.307 142.021 142.587 142.322 142.908 
143.271 142.964 143.535 143.212 143.872 143.535 144.19 143.829 144.38 
144.21 144.022 144.641 144.461 145.155 144.89 145.549 145.187 145.733 
145.287 145.675 145.008 144.827 145.283 145.285 145.805 145.855 146.344 
146.303 146.713 146.505 146.777 146.393 146.51 145.988 145.633 145.919 
145.75 146.053 146.107 146.411 146.599 146.88 147.035 147.212 147.162 
147.148 146.879 146.723 147.241 146.764 147.104 146.614 146.942 146.55 
146.883 146.69 147.031 147.032 147.308 147.331 147.411 147.277 147.148 
146.862 146.658 148.58 148.139 148.649 148.092 148.612 147.952 148.46 
147.782 148.257 147.699 148.122 147.73 148.032 147.69 147.809 147.403 
147.399 146.941 146.93 147.559 148.032 148.204 149.22 148.475 148.701 
149.774 150.121 151.416 148.827 149.15 150.306 150.704 152.08 152.445 
153.79 149.161 149.564 150.847 151.267 152.718 153.134 154.577 154.867 
156.196 149.532 150.012 151.424 151.856 153.333 153.776 155.274 155.659 
157.05 157.296 158.57 149.809 150.406 151.854 152.391 153.821 154.329 
155.796 156.297 157.709 158.077 159.323 159.569 160.682 149.854 150.543 
151.888 152.602 153.93 154.611 155.997 156.673 158.077 158.612 159.846 
160.189 161.25 161.496 162.43 149.715 150.399 151.57 152.37 153.576 
154.423 155.723 156.616 157.996 158.781 160.024 160.555 161.597 161.949 
162.875 163.11 163.908 149.501 150.125 151.144 151.904 152.998 153.87 
155.08 156.086 157.41 158.427 159.667 160.479 161.506 162.094 162.989 
163.418 164.214 164.469 165.119 147.554 149.35 148.329 148.26 151.592 
150.427 150.405 149.26 149.237 153.937 152.767 152.76 151.563 151.531 
150.35 150.336 156.337 155.155 155.187 153.961 153.933 152.699 152.635 
151.452 151.407 158.765 157.633 157.742 156.477 156.493 155.175 155.106 
153.8 153.685 152.475 152.373 160.934 160.017 160.2 159.057 159.086 
157.788 157.71 156.348 156.199 154.843 154.666 153.406 153.242 162.68 
161.998 162.221 161.34 161.376 160.265 160.145 158.888 158.688 157.361 
157.111 155.771 155.506 154.237 153.99 164.118 163.569 163.789 163.122 
163.19 162.324 162.21 161.141 160.895 159.698 159.368 158.108 157.726 
156.464 156.086 154.882 154.542 165.322 164.882 165.075 164.528 164.6 
163.927 163.839 162.987 162.727 161.704 161.311 160.172 159.693 158.508 
158.008 156.848 156.386 155.284 154.877 165.97 166.769 166.208 165.754 
167.263 166.909 166.456 165.86 165.253 167.133 167.149 166.704 166.365 
165.708 165.191 164.45 166.319 166.681 166.286 166.293 165.619 165.373 
164.593 164.187 163.316 165.184 165.682 165.385 165.626 165.023 165.009 
164.248 164.078 163.23 162.874 161.892 163.982 164.518 164.262 164.63 
164.106 164.259 163.555 163.559 162.77 162.611 161.676 161.313 160.254 
162.699 163.269 162.973 163.43 162.902 163.21 162.53 162.723 161.982 
162.026 161.155 160.965 159.933 159.584 158.525 161.386 161.935 161.62 
162.088 161.566 161.923 161.261 161.56 160.859 161.089 160.298 160.32 
159.356 159.159 158.125 157.839 156.861 160.155 160.638 160.333 160.764 
160.303 160.636 160.044 160.311 159.665 159.915 159.213 159.367 158.523 
158.49 157.535 157.367 156.428 156.207 155.325 166.124 166.216 166.487 
166.891 165.633 166.286 166.79 167.125 167.356 164.543 165.409 165.949 
166.677 166.984 167.328 167.219 163.311 164.179 164.64 165.544 165.88 
166.591 166.544 166.828 166.379 162.053 162.897 163.232 164.108 164.375 
165.243 165.283 165.873 165.537 165.759 165.199 160.687 161.561 161.816 
162.644 162.797 163.652 163.72 164.482 164.309 164.773 164.336 164.54 
163.989 159.207 160.11 160.342 161.175 161.287 162.081 162.129 162.913 
162.842 163.476 163.171 163.567 163.079 163.296 162.72 157.671 158.576 
158.809 159.672 159.83 160.611 160.681 161.405 161.366 162.019 161.801 
162.319 161.915 162.28 161.768 161.992 161.42 156.157 157.029 157.265 
158.141 158.35 159.176 159.303 160.027 160.008 160.623 160.439 160.964 
160.648 161.082 160.677 160.999 160.532 160.729 160.211 149.667 150.408 
150.438 151.291 151.218 151.253 152.17 152.179 153.126 152.023 152.105 
153.102 153.133 154.171 154.155 155.237 152.789 152.924 154.02 154.116 
155.274 155.299 156.49 156.444 157.611 153.572 153.734 154.922 155.072 
156.336 156.442 157.702 157.726 158.919 158.85 159.889 154.348 154.559 
155.78 155.981 157.26 157.464 158.73 158.862 160.017 160.05 161.068 
160.975 161.78 155 155.299 156.5 156.771 157.975 158.264 159.465 
159.727 160.828 160.985 161.967 162.017 162.875 162.731 163.353 155.449 
155.838 156.994 157.358 158.485 158.833 159.942 160.287 161.326 161.606 
162.544 162.748 163.623 163.7 164.419 164.215 164.648 155.715 156.151 
157.235 157.69 158.757 159.189 160.216 160.623 161.586 161.945 162.826 
163.145 163.994 164.267 165.04 165.115 165.638 165.374 165.59 148.843 
147.83 148.705 149.499 146.802 147.644 148.389 149.368 150.243 145.791 
146.588 147.267 148.226 149.086 150.123 151.016 144.775 145.553 146.167 
147.085 147.898 148.94 149.83 150.869 151.74 143.741 144.511 145.075 
145.953 146.698 147.725 148.588 149.652 150.512 151.562 152.449 142.747 
143.486 144.023 144.841 145.521 146.498 147.336 148.398 149.252 150.302 
151.156 152.252 153.165 141.843 142.534 143.061 143.811 144.436 145.326 
146.136 147.167 148.052 149.073 149.907 150.94 151.802 152.93 153.815 
141.058 141.68 142.191 142.882 143.461 144.265 145.008 145.989 146.887 
147.918 148.783 149.751 150.559 151.578 152.416 153.524 154.321 140.413 
140.947 141.422 142.045 142.587 143.312 143.977 144.869 145.706 146.742 
147.628 148.638 149.44 150.393 151.164 152.168 152.942 153.987 154.679 
140.242 140.289 140.569 141.216 140.385 140.654 141.353 141.635 142.383 
140.611 140.838 141.619 141.864 142.694 142.93 143.8 140.996 141.178 
142.035 142.249 143.168 143.367 144.323 144.52 145.532 141.501 141.653 
142.554 142.755 143.744 143.943 144.962 145.143 146.203 146.396 147.456 
142.078 142.218 143.144 143.328 144.357 144.572 145.641 145.831 146.904 
147.095 148.166 148.334 149.308 142.698 142.84 143.789 143.954 144.987 
145.207 146.301 146.519 147.599 147.794 148.86 149.042 150.056 150.155 
151.057 143.335 143.486 144.444 144.605 145.614 145.831 146.909 147.159 
148.24 148.463 149.522 149.726 150.767 150.916 151.881 151.923 152.803 
143.956 144.12 145.062 145.234 146.204 146.421 147.46 147.731 148.803 
149.063 150.119 150.356 151.408 151.616 152.623 152.739 153.647 153.669 
154.499 144.604 146.011 145.441 145.735 147.607 146.936 147.244 146.613 
146.909 149.429 148.657 148.996 148.254 148.597 147.884 148.217 151.419 
150.604 151.012 150.176 150.574 149.737 150.097 149.289 149.605 153.496 
152.696 153.199 152.33 152.78 151.86 152.229 151.302 151.601 150.711 
150.966 155.52 154.813 155.376 154.563 155.038 154.124 154.5 153.525 
153.829 152.832 153.081 152.105 152.31 157.235 156.722 157.263 156.625 
157.069 156.295 156.661 155.78 156.102 155.126 155.377 154.329 154.493 
153.451 153.556 158.529 158.209 158.703 158.27 158.667 158.105 158.441 
157.77 158.083 157.295 157.528 156.585 156.679 155.635 155.637 154.6 
154.575 159.527 159.322 159.809 159.508 159.909 159.501 159.834 159.336 
159.625 159.041 159.241 158.515 158.558 157.665 157.585 156.601 156.491 
155.502 155.404 144.123 143.8 144.482 145.533 143.459 144.176 145.335 
146.01 147.159 143.188 143.891 145.156 145.882 147.195 147.797 149.017 
143.048 143.721 145.062 145.793 147.241 147.915 149.264 149.763 150.991 
142.966 143.654 145.012 145.747 147.213 147.976 149.414 150.027 151.306 
151.769 152.999 142.848 143.561 144.871 145.634 147.003 147.848 149.287 
150.09 151.447 152.049 153.291 153.777 154.982 142.75 143.408 144.629 
145.378 146.632 147.493 148.871 149.819 151.248 152.072 153.374 153.991 
155.16 155.666 156.717 142.784 143.32 144.452 145.102 146.283 147.063 
148.382 149.328 150.767 151.739 153.093 153.904 155.06 155.7 156.692 
157.204 158.041 142.942 143.38 144.439 144.975 146.109 146.767 148.034 
148.87 150.254 151.206 152.54 153.456 154.608 155.402 156.378 157.028 
157.858 158.359 159.051 143.17 141.598 142.519 142.79 140.021 140.9 
141.136 142.104 142.397 138.472 139.262 139.367 140.362 140.621 141.687 
142.046 137.03 137.66 137.534 138.451 138.596 139.77 140.12 141.329 
141.799 135.849 136.319 136.09 136.674 136.672 137.676 138.022 139.292 
139.789 141.087 141.648 134.727 135.27 135.201 135.551 135.527 136.064 
136.382 137.337 137.898 139.081 139.681 140.95 141.555 133.371 134.095 
134.216 134.778 134.875 135.274 135.531 136.103 136.639 137.479 138.113 
139.132 139.778 140.932 141.567 132.119 132.722 132.885 133.654 133.901 
134.559 134.827 135.4 135.835 136.502 137.1 137.871 138.513 139.402 
140.072 141.083 141.729 131.52 131.731 131.87 132.42 132.779 133.49 
133.893 134.573 135.004 135.692 136.25 136.99 137.623 138.375 139.015 
139.824 140.472 141.367 141.983 131.512 131.834 131.602 131.749 132.454 
132.106 132.207 132.082 132.56 133.12 132.812 132.969 132.711 133.074 
133.049 133.671 133.786 133.496 133.711 133.492 133.824 133.664 134.143 
134.175 134.828 134.648 134.259 134.489 134.231 134.574 134.386 134.811 
134.728 135.33 135.398 136.131 135.753 135.275 135.516 135.119 135.434 
135.147 135.562 135.414 136.016 136.015 136.778 136.826 137.577 136.908 
136.439 136.66 136.215 136.462 136.079 136.448 136.22 136.822 136.766 
137.543 137.556 138.331 138.304 138.99 137.937 137.53 137.695 137.294 
137.495 137.109 137.445 137.169 137.754 137.636 138.397 138.359 139.123 
139.081 139.777 139.712 140.387 138.804 138.455 138.608 138.256 138.484 
138.124 138.494 138.201 138.791 138.62 139.359 139.254 139.989 139.895 
140.582 140.506 141.19 141.135 141.837 139.302 140.168 139.522 139.178 
141.396 140.585 140.265 139.504 139.163 142.892 141.988 141.723 140.81 
140.503 139.616 139.306 144.565 143.593 143.36 142.394 142.132 141.154 
140.885 139.924 139.701 146.399 145.369 145.146 144.11 143.869 142.858 
142.625 141.63 141.414 140.446 140.275 148.267 147.261 147.089 146.005 
145.794 144.696 144.486 143.426 143.217 142.201 141.986 141.028 140.846 
150.098 149.138 149.037 147.994 147.834 146.719 146.525 145.39 145.182 
144.07 143.845 142.778 142.553 141.58 141.409 151.926 150.993 150.933 
149.936 149.806 148.747 148.557 147.449 147.224 146.093 145.855 144.721 
144.483 143.383 143.178 142.178 142.034 153.663 152.805 152.751 151.811 
151.685 150.677 150.483 149.421 149.179 148.09 147.833 146.73 146.474 
145.362 145.121 144.037 143.839 142.837 142.695 143.384 144.579 144.265 
144.883 145.904 145.559 146.234 145.871 146.562 147.286 146.956 147.714 
147.337 148.111 147.699 148.514 148.666 148.374 149.21 148.88 149.739 
149.348 150.216 149.794 150.7 150.045 149.788 150.698 150.411 151.338 
150.996 151.887 151.499 152.371 151.994 152.883 151.384 151.189 152.16 
151.926 152.913 152.611 153.541 153.159 154.016 153.617 154.451 154.095 
154.905 152.605 152.498 153.495 153.352 154.358 154.153 155.109 154.799 
155.666 155.265 156.066 155.651 156.411 156.021 156.7 153.67 153.65 
154.644 154.596 155.59 155.495 156.434 156.254 157.094 156.817 157.567 
157.217 157.9 157.508 158.116 157.699 158.205 154.566 154.626 155.606 
155.644 156.632 156.627 157.563 157.465 158.271 158.081 158.773 158.536 
159.161 158.874 159.423 159.057 159.504 159.07 159.415 137.897 137.825 
137.472 136.732 137.898 137.5 136.753 136.338 135.583 137.948 137.586 
136.833 136.397 135.542 135.143 134.364 137.954 137.597 136.837 136.435 
135.53 135.072 134.158 133.848 133.152 138.027 137.614 136.889 136.47 
135.665 135.127 134.224 133.713 132.988 132.737 132.331 138.182 137.728 
137.025 136.599 135.951 135.436 134.708 134.034 133.35 132.815 132.458 
132.225 132.148 138.379 137.922 137.206 136.762 136.13 135.744 135.151 
134.629 134.001 133.395 132.961 132.558 132.428 132.25 132.239 138.598 
138.171 137.512 137.004 136.337 135.906 135.313 134.943 134.369 133.947 
133.443 133.063 132.756 132.524 132.337 132.229 132.058 138.817 138.442 
137.912 137.409 136.812 136.248 135.658 135.154 134.623 134.207 133.76 
133.418 133.067 132.787 132.48 132.264 131.964 131.867 131.646 137.802 
136.568 137.213 137.353 135.392 135.983 136.107 136.833 137.102 134.227 
134.815 134.95 135.651 135.996 136.722 137.093 133.094 133.653 133.803 
134.511 134.91 135.694 136.18 136.853 137.273 132.287 132.633 132.766 
133.376 133.773 134.599 135.163 135.96 136.46 137.1 137.529 132.077 
132.109 132.195 132.506 132.866 133.524 134.119 134.932 135.518 136.248 
136.726 137.367 137.821 132.179 132.12 132.179 132.222 132.531 132.865 
133.448 134.045 134.698 135.358 135.938 136.576 137.117 137.721 138.244 
132.051 132.164 132.25 132.324 132.615 132.778 133.314 133.65 134.305 
134.756 135.406 135.927 136.578 137.13 137.761 138.27 138.829 131.694 
131.908 132.077 132.307 132.654 132.888 133.411 133.674 134.293 134.588 
135.227 135.595 136.274 136.736 137.429 137.902 138.516 138.934 139.452 
138.542 138.16 138.76 139.599 137.89 138.428 139.304 139.876 140.684 
137.785 138.202 139.064 139.629 140.517 141.002 141.77 137.894 138.166 
138.981 139.462 140.427 140.918 141.752 142.12 142.832 138.16 138.351 
139.127 139.484 140.458 140.919 141.827 142.169 142.856 143.151 143.779 
138.465 138.642 139.383 139.676 140.57 140.993 141.905 142.277 143.001 
143.239 143.848 144.093 144.704 138.838 138.961 139.655 139.901 140.696 
141.072 141.923 142.332 143.104 143.401 144.064 144.273 144.927 145.114 
145.771 139.346 139.382 140.028 140.178 140.914 141.187 141.987 142.346 
143.141 143.49 144.215 144.492 145.174 145.401 146.086 146.27 146.964 
139.918 139.917 140.525 140.599 141.296 141.461 142.221 142.474 143.255 
143.562 144.312 144.616 145.317 145.598 146.286 146.548 147.249 147.482 
148.201 143.078 142.433 142.341 141.512 141.807 141.693 140.859 140.77 
139.977 141.224 141.094 140.275 140.153 139.392 139.304 138.559 140.683 
140.546 139.742 139.601 138.834 138.746 138.045 137.946 137.229 140.213 
140.052 139.277 139.104 138.318 138.188 137.448 137.392 136.691 136.627 
135.958 139.885 139.668 138.946 138.716 137.963 137.737 136.973 136.814 
136.068 136 135.281 135.303 134.65 139.728 139.455 138.786 138.493 
137.783 137.482 136.753 136.471 135.74 135.496 134.757 134.61 133.896 
133.915 133.267 139.681 139.39 138.754 138.422 137.716 137.369 136.647 
136.332 135.645 135.335 134.65 134.315 133.632 133.36 132.745 132.634 
132.134 139.656 139.376 138.754 138.424 137.713 137.336 136.59 136.247 
135.563 135.276 134.645 134.329 133.714 133.352 132.815 132.481 132.09 
131.855 131.628 
POINT_DATA 1002
SCALARS Distance double
LOOKUP_TABLE default
139.836 139.139 139.841 140.67 140.787 140.87 141.808 142.017 141.817 
142.233 143.043 143.259 142.904 143.188 143.799 143.856 144.111 143.736 
144.091 144.83 145.564 144.201 144.59 144.125 144.739 145.813 146.767 
147.428 144.62 145.005 144.617 145.411 146.76 147.938 148.686 149.227 
145.359 145.505 145.608 146.505 147.868 149.094 149.91 150.506 151.027 
146.298 146.137 146.865 147.863 149.108 150.242 151.098 151.79 152.384 
152.838 147.366 146.941 148.152 149.198 150.324 151.354 152.24 153.035 
153.715 154.203 154.488 138.968 139.762 138.814 139.704 138.641 140.738 
139.632 138.465 140.683 141.957 139.557 138.339 140.701 141.869 143.241 
139.467 138.302 140.769 141.947 143.188 144.273 139.369 138.277 140.742 
142.103 143.274 144.373 144.985 139.308 138.202 140.664 142.153 143.431 
144.518 145.316 145.503 139.332 138.191 140.646 142.121 143.521 144.715 
145.655 146.027 145.955 139.466 138.361 140.684 142.045 143.486 144.849 
145.971 146.558 146.536 146.471 139.362 140.492 140.42 141.497 141.442 
141.728 142.586 142.498 142.841 143.196 143.81 143.509 144.21 144.57 
144.807 144.749 144.375 145.365 145.894 146.186 146.207 145.36 145.292 
145.745 146.31 146.834 147.124 147.005 146.252 146.423 146.151 146.271 
146.659 147.154 147.364 147.083 147.622 147.683 147.444 147.236 147.15 
147.292 147.486 147.394 146.977 149.115 148.946 149.215 149.182 148.967 
148.662 148.42 148.197 147.844 147.382 148.359 148.875 150.431 149.389 
151.061 152.76 149.87 151.665 153.517 155.096 150.407 152.27 154.224 
155.992 157.501 150.974 152.896 154.837 156.762 158.398 159.812 151.282 
153.31 155.259 157.294 159.072 160.501 161.734 151.169 153.217 155.268 
157.468 159.472 160.997 162.254 163.304 150.818 152.727 154.789 157.117 
159.405 161.197 162.599 163.774 164.649 150.446 152.171 154.1 156.355 
158.761 160.837 162.487 163.885 164.985 165.725 149.265 151.588 150.366 
153.957 152.738 151.49 156.416 155.191 153.872 152.545 158.985 157.827 
156.465 154.986 153.527 161.256 160.36 159.074 157.595 156.017 154.455 
163.004 162.406 161.364 159.998 158.472 156.844 155.223 164.405 163.961 
163.206 162.064 160.626 159.008 157.328 155.71 165.598 165.226 164.62 
163.696 162.426 160.885 159.191 157.508 155.941 166.591 166.441 167.279 
167.011 167.505 165.918 166.935 166.962 166.17 165.038 166.149 165.849 
165.776 164.915 163.831 165.053 164.652 164.957 164.34 163.493 162.371 
163.853 163.446 163.883 163.482 162.849 161.975 160.689 162.512 162.143 
162.558 162.27 161.843 161.26 160.236 158.877 161.154 160.862 161.197 
160.946 160.572 160.168 159.471 158.366 157.134 159.901 159.704 159.944 
159.768 159.419 159.008 158.466 157.636 156.604 155.546 166.064 166.811 
165.777 166.275 164.851 167.292 165.103 163.676 166.472 167.195 163.759 
162.499 165.062 166.112 166.332 162.435 161.228 163.507 164.56 165.183 
165.101 161.023 159.814 161.995 162.895 163.711 164.041 163.872 159.495 
158.313 160.511 161.358 162.139 162.685 162.795 162.577 157.921 156.779 
159.013 159.968 160.722 161.242 161.485 161.474 161.259 156.387 155.306 
157.489 158.55 159.395 159.909 160.171 160.291 160.269 160.07 149.611 
151.259 150.358 152.144 151.155 153.111 153.019 151.898 154.147 155.259 
153.859 152.613 155.185 156.494 157.721 154.733 153.372 156.176 157.65 
158.965 160.072 155.573 154.101 157.037 158.568 159.974 161.115 162.019 
156.226 154.675 157.704 159.187 160.643 161.872 162.92 163.689 156.613 
155.06 158.145 159.61 161.033 162.306 163.456 164.496 165.076 147.976 
148.531 146.987 147.42 146.005 149.221 146.344 145.029 148.043 149.998 
145.29 144.01 146.873 148.782 150.713 144.237 142.98 145.702 147.524 
149.463 151.364 143.245 142.019 144.591 146.275 148.213 150.083 152.024 
142.341 141.174 143.602 145.119 147.019 148.927 150.715 152.669 141.529 
140.477 142.708 144.077 145.833 147.811 149.613 151.352 153.23 140.838 
139.929 141.903 143.154 144.703 146.585 148.492 150.217 151.925 153.672 