# vtk DataFile Version 4.0
vtk output
ASCII
DATASET POLYDATA
POINTS 1002 float
-73.2485 -107.574 60.1351 -73.4028 -106.68 59.2134 -73.9051 -107.238 59.197 
-73.7165 -108.308 60.1123 -74.5454 -107.877 59.3347 -72.9911 -108.877 60.9846 
-74.2882 -109.122 60.2617 -75.281 -108.507 59.7637 -73.426 -109.68 61.0123 
-72.7481 -110.355 61.9359 -74.8379 -109.884 60.6469 -75.8725 -109.197 60.3014 
-73.8482 -110.581 61.141 -73.1113 -111.226 62.0394 -72.574 -111.992 63.043 
-75.0137 -110.833 60.7879 -76.111 -110.096 60.5508 -74.0893 -111.582 61.2539 
-73.36 -112.344 62.0691 -72.8285 -113.166 63.1309 -72.3477 -114.062 63.997 
-74.8345 -112.111 60.4309 -76.1208 -111.166 60.4681 -73.9906 -112.878 61.0033 
-73.4867 -113.645 61.9992 -73.0345 -114.567 63.114 -72.5795 -115.513 64.1 
-72.0835 -116.393 64.8078 -74.8456 -113.313 60.211 -76.133 -112.275 60.3603 
-74.0005 -114.175 60.7937 -73.6531 -114.922 62.0071 -73.3682 -115.85 63.2619 
-72.9345 -116.88 64.3133 -72.4657 -117.782 65.1632 -72.0014 -118.596 65.8314 
-75.2202 -114.258 60.5687 -76.1536 -113.414 60.3987 -74.5632 -115.067 61.2854 
-74.2096 -115.871 62.5155 -73.9486 -116.826 63.7898 -73.5496 -117.916 64.8562 
-73.0526 -118.918 65.7553 -72.5799 -119.763 66.4893 -72.1636 -120.555 67.0261 
-75.6166 -115.221 61.1921 -76.1384 -114.571 60.5855 -75.3119 -115.859 62.1922 
-75.0055 -116.681 63.3903 -74.6485 -117.709 64.5223 -74.2774 -118.797 65.5587 
-73.8421 -119.81 66.5277 -73.3395 -120.67 67.3304 -72.8583 -121.425 67.885 
-72.4591 -122.13 68.199 -75.8858 -116.277 61.7852 -76.1706 -115.651 60.9269 
-75.8136 -116.858 62.9597 -75.6039 -117.68 64.1458 -75.1913 -118.762 65.1382 
-74.8291 -119.816 66.1059 -74.5512 -120.708 67.1714 -74.174 -121.469 68.1301 
-73.6832 -122.108 68.8115 -73.2087 -122.689 69.2017 -72.8128 -123.25 69.3478 
-73.8206 -106.355 58.2012 -74.5156 -106.776 58.3112 -74.4469 -105.907 57.3175 
-75.3231 -106.172 57.5974 -75.2946 -105.188 56.653 -75.3288 -107.247 58.6232 
-76.2243 -105.537 56.9635 -76.1068 -104.552 55.8845 -76.1814 -106.684 57.9136 
-76.1441 -107.881 59.134 -77.052 -105.062 56.1536 -76.7739 -104.241 54.8418 
-77.0689 -106.254 57.1831 -76.9785 -107.489 58.3366 -76.8362 -108.623 59.7963 
-77.797 -104.642 55.2046 -77.4715 -103.961 53.7777 -77.9753 -105.731 56.4906 
-77.8718 -107.104 57.6029 -77.7796 -108.203 59.1557 -77.3366 -109.37 60.4349 
-78.4241 -104.309 54.2282 -78.1248 -103.625 52.8078 -78.7332 -105.234 55.778 
-78.7795 -106.594 57.0371 -78.6757 -107.878 58.4497 -78.4897 -108.845 60.1136 
-77.5764 -110.29 60.7364 -78.7626 -104.351 53.1966 -78.4337 -103.59 51.8891 
-79.1203 -105.242 54.8402 -79.4136 -106.39 56.3833 -79.4502 -107.748 57.7084 
-79.3744 -108.797 59.3222 -78.8438 -109.845 60.5632 -77.5104 -111.528 60.6146 
-78.7987 -104.794 52.2498 -78.3905 -104.043 51.1319 -79.1714 -105.696 53.7648 
-79.6367 -106.604 55.4658 -79.9826 -107.749 56.9496 -80.0638 -108.951 58.4136 
-79.7915 -109.91 59.8496 -78.7671 -111.143 60.4683 -77.2411 -112.883 60.3702 
-78.7038 -105.443 51.5915 -78.2324 -104.826 50.6412 -79.0944 -106.234 52.8924 
-79.61 -106.929 54.4823 -80.2224 -107.736 56.0818 -80.5895 -108.886 57.6132 
-80.5222 -109.986 59.0988 -79.8244 -110.982 60.0655 -78.4275 -112.384 60.253 
-76.9717 -114.115 60.318 -78.45 -106.049 50.891 -78.9036 -106.66 52.0294 
-78.6873 -107.294 51.4214 -79.142 -107.8 52.7481 -78.8524 -108.505 52.2067 
-79.3979 -107.253 53.4486 -79.3833 -109.093 53.5279 -78.9239 -109.771 53.0559 
-79.8573 -108.365 54.065 -80.1607 -107.838 54.9755 -79.5205 -110.493 54.2254 
-78.9002 -111.027 53.8133 -80.3255 -109.953 54.5966 -80.8449 -109.238 55.3947 
-80.8913 -108.826 56.602 -79.3684 -111.609 54.9291 -78.7552 -112.286 54.5847 
-80.3617 -111.317 55.2387 -81.1594 -110.983 55.8479 -81.3405 -110.395 57.0906 
-81.0556 -110.047 58.3294 -78.9963 -112.883 55.7717 -78.5182 -113.765 55.6371 
-79.7737 -112.196 56.0885 -80.5657 -111.987 56.5636 -80.9226 -111.772 57.5152 
-80.872 -111.321 58.7784 -80.4938 -111.046 59.6358 -78.6649 -114.822 56.8394 
-78.2063 -115.399 56.9827 -79.1008 -113.856 56.9985 -79.4927 -113.027 57.4123 
-79.6969 -112.723 57.9823 -79.7855 -112.521 58.8415 -79.7046 -112.271 59.6778 
-79.2111 -112.257 60.087 -78.3688 -116.842 58.0951 -77.8159 -116.901 58.3419 
-78.7434 -116.334 58.0296 -78.8675 -115.337 58.3052 -78.7405 -114.499 58.6748 
-78.5922 -114.146 59.0659 -78.544 -113.951 59.6107 -78.2753 -113.879 60.0519 
-77.6535 -114.004 60.2236 -77.9897 -118.326 59.4031 -77.4149 -118.161 59.5542 
-78.4681 -118.349 59.2924 -78.7082 -117.872 59.4394 -78.5939 -117.037 59.7516 
-78.2392 -116.406 59.9803 -77.9342 -116.083 60.2201 -77.6548 -115.872 60.5358 
-77.1812 -115.787 60.7332 -76.6096 -115.769 60.8139 -76.2139 -117.118 62.0655 
-76.6424 -117.385 62.0292 -76.6635 -118.582 63.6907 -77.1985 -117.594 62.0342 
-77.1942 -118.897 63.8319 -77.2497 -120.082 65.5066 -77.6965 -117.849 61.9319 
-77.7591 -119.181 63.9672 -77.8518 -120.404 65.7684 -77.7983 -121.805 67.2888 
-78.1391 -118.158 61.7521 -78.2546 -119.472 63.9333 -78.3718 -120.712 65.8917 
-78.3962 -122.237 67.5075 -78.4631 -123.719 69.0254 -78.562 -118.616 61.5476 
-78.6797 -119.856 63.7208 -78.8022 -121.104 65.7524 -78.9357 -122.663 67.4758 
-79.1512 -124.184 69.1826 -79.3839 -125.317 70.7848 -78.7072 -119.234 61.2227 
-78.8284 -120.374 63.3669 -79.0371 -121.697 65.4104 -79.3352 -123.294 67.1853 
-79.7605 -124.692 69.0044 -80.2011 -125.679 70.8639 -80.3794 -126.441 72.3629 
-78.434 -119.618 60.907 -78.5018 -120.738 62.9502 -78.8135 -122.195 65.004 
-79.3331 -123.981 66.8219 -79.9466 -125.4 68.6284 -80.6163 -126.233 70.5185 
-81.1335 -126.871 72.2109 -81.2087 -127.5 73.4712 -77.9323 -119.571 60.793 
-77.9233 -120.739 62.6253 -78.2013 -122.242 64.6197 -78.8237 -124.161 66.4769 
-79.5483 -125.81 68.2856 -80.2992 -126.799 70.0865 -81.1147 -127.465 71.7121 
-81.6868 -128.077 73.0865 -81.7153 -128.587 74.1861 -77.3896 -119.382 60.7888 
-77.3773 -120.582 62.4133 -77.5555 -122.004 64.2873 -78.0755 -123.807 66.1108 
-78.7815 -125.565 67.9042 -79.4989 -126.847 69.7055 -80.3472 -127.78 71.2555 
-81.2572 -128.542 72.5269 -81.8071 -129.103 73.6947 -81.7778 -129.442 74.7231 
-76.1758 -117.792 63.2826 -76.5752 -119.46 64.9786 -76.0565 -118.638 64.5546 
-77.0469 -121.219 66.7703 -76.26 -120.624 66.1583 -75.6558 -119.8 65.6032 
-77.7453 -123.091 68.6295 -76.8494 -122.463 68.0093 -75.9109 -121.859 67.2326 
-75.2613 -120.947 66.5764 -78.6241 -124.9 70.4644 -77.7986 -124.231 69.9371 
-76.7313 -123.58 69.2113 -75.7051 -122.856 68.385 -75.0609 -121.816 67.7298 
-79.4907 -126.241 72.2089 -78.6165 -125.828 71.7163 -77.6172 -125.255 71.0577 
-76.4163 -124.615 70.2492 -75.4597 -123.677 69.4857 -74.8253 -122.511 68.8518 
-80.3057 -127.244 73.6371 -79.3018 -126.925 73.3943 -78.3419 -126.553 72.8206 
-77.1614 -126.203 71.9222 -75.9567 -125.519 70.9844 -75.1071 -124.307 70.3306 
-74.418 -123.055 69.6942 -80.9962 -128.25 74.6021 -80.0168 -127.776 74.7604 
-79.129 -127.258 74.6159 -78.111 -127.004 73.8654 -76.7866 -126.813 72.5997 
-75.5928 -125.979 71.608 -74.7206 -124.621 71.0197 -73.9409 -123.469 70.2513 
-81.3269 -129.157 75.2568 -80.523 -128.638 75.6573 -79.7522 -127.896 75.9994 
-78.9754 -127.309 75.8684 -77.8031 -127.19 74.7345 -76.3914 -126.976 73.2198 
-75.2171 -126.041 72.2443 -74.3 -124.805 71.5229 -73.4919 -123.889 70.5082 
-81.285 -129.936 75.5626 -80.7413 -129.556 76.1095 -80.4118 -130.31 76.2261 
-79.7619 -129.772 76.8317 -79.315 -130.624 76.5726 -79.9971 -128.859 76.684 
-78.484 -129.958 77.2715 -78.0004 -130.917 76.7122 -78.9956 -128.998 77.6162 
-79.3139 -127.959 77.2627 -77.0687 -130.31 77.3178 -76.381 -131.263 76.7568 
-77.6452 -129.279 78.0237 -78.2271 -128.145 78.1653 -78.3982 -127.378 76.9193 
-75.6145 -130.701 76.9549 -74.7266 -131.446 76.5512 -76.326 -129.66 77.6262 
-76.8485 -128.462 78.1451 -77.1665 -127.571 77.3303 -77.0237 -127.263 75.294 
-74.1562 -130.608 76.3959 -73.3781 -131.093 76.0171 -74.9683 -129.691 76.8371 
-75.5745 -128.539 77.3529 -75.8449 -127.67 76.9425 -75.8645 -127.278 75.3863 
-75.6323 -126.869 73.6255 -72.754 -129.979 75.853 -72.2575 -130.376 75.3396 
-73.3756 -129.207 76.2313 -74.0771 -128.216 76.5563 -74.5597 -127.476 76.2468 
-74.7074 -127.162 75.0465 -74.6793 -126.749 73.6622 -74.5256 -125.885 72.5296 
-71.483 -129.306 75.2799 -71.192 -129.717 74.6676 -71.8417 -128.629 75.7092 
-72.4086 -127.83 75.9159 -73.0469 -127.223 75.5853 -73.4519 -126.949 74.5462 
-73.6128 -126.631 73.3002 -73.6555 -125.889 72.2903 -73.5967 -124.879 71.4087 
-70.3688 -128.784 74.5924 -70.1965 -129.17 73.9959 -70.6073 -128.19 74.9918 
-71.051 -127.549 75.0974 -71.6494 -127.058 74.7514 -72.1413 -126.75 73.9028 
-72.4275 -126.419 72.8072 -72.6299 -125.841 71.7843 -72.7735 -125.037 70.9035 
-72.8187 -124.153 70.1028 -81.4814 -129.912 74.5129 -80.8312 -130.45 75.2837 
-80.6068 -130.188 74.0061 -79.9049 -130.883 74.5564 -79.4544 -130.232 73.2888 
-79.9313 -131.044 75.7444 -78.808 -130.973 73.6939 -78.3427 -130.037 72.6179 
-79.1372 -131.686 74.8225 -78.8932 -131.583 75.8688 -77.6733 -130.568 73.0384 
-77.2568 -129.709 71.9123 -78.0314 -131.57 73.9545 -78.0393 -132.197 74.8649 
-77.3582 -131.893 75.9586 -76.4622 -130.064 72.1968 -76.1673 -129.289 70.8851 
-76.6186 -130.782 73.2752 -76.5991 -131.765 73.9274 -76.1459 -132.302 74.8586 
-75.3576 -132.015 76.0323 -75.3834 -129.588 70.9012 -75.2304 -128.622 69.706 
-75.2808 -130.179 72.2193 -75.0514 -130.922 73.0438 -74.7058 -131.839 73.6135 
-74.1588 -132.15 74.6984 -73.6812 -131.775 75.731 -74.5536 -128.807 69.5989 
-74.4316 -127.731 68.6299 -74.3811 -129.661 70.7917 -74.0466 -130.403 71.8846 
-73.7405 -131.202 72.5036 -73.3215 -131.697 73.182 -72.8492 -131.582 74.2412 
-72.5463 -131.081 75.0473 -73.7702 -127.798 68.4955 -73.6524 -126.83 67.5855 
-73.6726 -128.76 69.4714 -73.4126 -129.727 70.5115 -73.1844 -130.574 71.3682 
-72.854 -131.051 71.9933 -72.3011 -131.055 72.7479 -71.8291 -130.762 73.6338 
-71.5377 -130.318 74.3025 -72.9677 -126.83 67.4356 -72.9317 -125.984 66.5272 
-72.8854 -127.688 68.3336 -72.6874 -128.655 69.1997 -72.4954 -129.591 70.0528 
[...]
CELL_DATA 2000
SCALARS Distance double
LOOKUP_TABLE default
141.939 142.711 142.524 143.028 143.666 143.396 143.889 143.709 144.316 
144.696 144.399 144.865 144.625 145.205 145.075 145.804 145.631 145.373 
145.799 145.587 146.157 146.013 146.777 146.696 147.568 146.431 146.202 
146.605 146.46 147.083 146.991 147.834 147.763 148.728 148.613 149.555 
147.232 146.979 147.429 147.283 148.018 147.964 148.932 148.895 149.955 
149.86 150.881 150.691 151.636 148.147 147.875 148.446 148.252 149.113 
149.025 150.108 150.069 151.215 151.14 152.227 152.064 153.057 152.82 
153.753 149.156 148.92 149.643 149.441 150.409 150.275 151.411 151.331 
152.515 152.438 153.572 153.436 154.462 154.246 155.166 154.91 155.747 
150.193 150.026 150.876 150.73 151.759 151.64 152.77 152.674 153.827 
153.748 154.874 154.775 155.811 155.633 156.526 156.275 157.045 156.773 
157.449 141.465 141.063 141.557 142.218 140.715 141.198 141.863 142.389 
143.152 140.4 140.891 141.589 142.079 142.856 143.404 144.214 140.116 
140.618 141.384 141.864 142.666 143.168 144.02 144.519 145.258 139.852 
140.356 141.158 141.685 142.529 143.03 143.904 144.392 145.207 145.575 
146.176 139.597 140.093 140.897 141.458 142.358 142.903 143.819 144.319 
145.197 145.597 146.294 146.504 147.011 139.389 139.858 140.699 141.241 
142.214 142.769 143.772 144.277 145.231 145.651 146.452 146.695 147.256 
147.362 147.855 139.333 139.733 140.624 141.12 142.125 142.677 143.725 
144.264 145.28 145.742 146.622 146.912 147.539 147.641 148.091 148.2 
148.728 139.512 139.806 140.696 141.114 142.071 142.587 143.579 144.166 
145.181 145.755 146.687 147.092 147.771 147.927 148.354 148.416 148.831 
149.034 149.629 139.993 141.181 140.743 141.152 142.445 141.971 142.339 
141.958 142.459 143.772 143.28 143.656 143.19 143.663 143.314 143.917 
145.074 144.64 145.13 144.639 145.174 144.666 145.29 144.892 145.568 
146.207 145.847 146.36 146.076 146.698 146.287 146.897 146.408 147.024 
146.582 147.127 147.419 146.936 147.282 147.065 147.58 147.497 147.999 
147.81 148.217 147.919 148.26 147.909 148.149 148.982 148.328 148.625 
148.061 148.393 148.128 148.488 148.442 148.729 148.693 148.882 148.746 
148.856 148.609 148.658 150.626 150.05 150.515 149.742 150.094 149.308 
149.623 149.067 149.405 149.112 149.431 149.236 149.472 149.227 149.376 
149.055 149.164 152.011 151.647 152.251 151.694 152.188 151.361 151.736 
150.784 151.165 150.342 150.807 150.189 150.658 150.137 150.517 150.002 
150.298 149.783 150.043 150.915 151.228 151.584 152.7 151.541 151.956 
153.168 153.556 154.821 151.811 152.313 153.634 154.075 155.41 155.768 
157.088 152.103 152.636 154.05 154.546 155.927 156.351 157.724 158.104 
159.505 152.558 153.029 154.48 154.967 156.371 156.835 158.249 158.715 
160.187 160.598 162.006 153.081 153.521 154.89 155.377 156.762 157.269 
158.729 159.244 160.768 161.245 162.697 163.048 164.275 153.346 153.864 
155.023 155.608 156.889 157.555 159.031 159.697 161.236 161.792 163.217 
163.645 164.878 165.157 166.158 153.225 153.826 154.783 155.462 156.591 
157.432 158.84 159.772 161.269 162.066 163.399 163.993 165.145 165.601 
166.61 166.888 167.703 152.892 153.502 154.374 155.054 156.082 156.94 
158.225 159.284 160.682 161.735 162.981 163.847 164.897 165.6 166.546 
167.099 167.912 168.237 168.835 151.054 152.897 151.92 151.909 155.021 
153.953 153.987 152.92 152.916 157.304 156.184 156.252 155.123 155.147 
154.008 153.98 159.775 158.59 158.707 157.489 157.534 156.322 156.304 
155.101 155.043 162.287 161.148 161.302 160.046 160.091 158.798 158.77 
157.488 157.412 156.17 156.08 164.498 163.55 163.692 162.582 162.598 
161.364 161.288 159.987 159.851 158.559 158.399 157.162 156.991 166.326 
165.548 165.649 164.74 164.726 163.694 163.59 162.418 162.215 160.948 
160.677 159.42 159.128 157.936 157.648 167.856 167.21 167.279 166.496 
166.457 165.596 165.498 164.524 164.314 163.177 162.831 161.597 161.18 
159.968 159.561 158.434 158.081 169 168.556 168.595 167.964 167.885 
167.161 167.044 166.242 166.034 165.081 164.711 163.599 163.107 161.922 
161.41 160.26 159.809 158.757 158.396 169.475 169.835 169.544 169.108 
169.86 169.742 169.378 169.035 168.443 169.63 169.628 169.323 169.19 
168.728 168.323 167.648 169.255 169.318 169.045 169.052 168.69 168.497 
167.889 167.445 166.632 168.704 168.877 168.59 168.696 168.319 168.306 
167.694 167.47 166.622 166.231 165.263 167.783 168.152 167.778 168.044 
167.545 167.714 167.03 167.022 166.149 165.975 165.002 164.681 163.638 
166.514 167.01 166.554 166.954 166.351 166.677 165.959 166.143 165.309 
165.324 164.416 164.268 163.281 162.971 161.927 165.193 165.665 165.208 
165.601 165.005 165.355 164.697 164.975 164.251 164.401 163.597 163.597 
162.7 162.531 161.552 161.258 160.289 163.983 164.395 163.963 164.303 
163.758 164.066 163.486 163.767 163.143 163.35 162.632 162.729 161.909 
161.879 160.986 160.828 159.932 159.687 158.846 169.582 169.498 169.769 
169.953 168.941 169.503 169.87 170.049 170.048 168.075 168.816 169.362 
169.854 170.069 170.083 169.897 167.027 167.849 168.389 169.162 169.529 
169.944 169.893 169.832 169.501 165.813 166.684 167.061 167.944 168.219 
169.032 169.068 169.513 169.236 169.285 168.866 164.434 165.351 165.639 
166.478 166.61 167.468 167.505 168.292 168.142 168.64 168.27 168.447 
167.916 162.93 163.88 164.177 165.018 165.171 165.925 166.004 166.727 
166.694 167.323 167.077 167.525 167.064 167.278 166.65 161.387 162.323 
162.596 163.5 163.699 164.529 164.673 165.395 165.405 165.981 165.768 
166.234 165.839 166.221 165.71 165.925 165.318 159.885 160.762 160.976 
161.873 162.035 162.957 163.083 163.969 163.964 164.678 164.433 164.947 
164.535 164.962 164.521 164.889 164.423 164.637 164.1 152.964 153.655 
153.684 154.484 154.461 154.488 155.378 155.345 156.263 155.253 155.336 
156.343 156.358 157.399 157.337 158.44 156.154 156.206 157.325 157.379 
158.534 158.54 159.715 159.677 160.86 157.183 157.236 158.423 158.46 
159.693 159.713 160.93 160.926 162.104 162.075 163.143 158.015 158.222 
159.405 159.553 160.777 160.879 162.104 162.134 163.293 163.267 164.333 
164.239 165.126 158.578 158.899 160.056 160.355 161.527 161.801 162.983 
163.184 164.295 164.374 165.384 165.369 166.274 166.126 166.842 159.05 
159.387 160.527 160.875 162.026 162.379 163.525 163.855 164.916 165.156 
166.081 166.23 167.069 167.128 167.86 167.722 168.238 159.421 159.795 
160.884 161.279 162.388 162.788 163.883 164.267 165.28 165.598 166.475 
166.717 167.496 167.698 168.403 168.505 169.039 168.909 169.181 152.122 
151 151.949 152.761 149.846 150.811 151.643 152.645 153.511 148.689 
149.644 150.459 151.494 152.366 153.381 154.248 147.539 148.462 149.231 
150.274 151.143 152.201 153.088 154.12 155.074 146.448 147.306 148.005 
149.007 149.846 150.94 151.853 152.943 153.908 155.007 156.034 145.431 
146.228 146.858 147.777 148.556 149.623 150.538 151.673 152.631 153.775 
154.747 155.907 156.849 144.474 145.22 145.811 146.653 147.372 148.356 
149.241 150.356 151.321 152.46 153.397 154.54 155.446 156.595 157.44 
143.629 144.295 144.869 145.639 146.316 147.207 148.03 149.08 150.041 
151.166 152.129 153.22 154.121 155.204 156.073 157.16 157.961 142.947 
143.516 144.064 144.751 145.394 146.189 146.937 147.887 148.786 149.89 
150.872 151.984 152.906 153.951 154.802 155.841 156.647 157.681 158.395 
142.771 142.895 143.163 143.887 143.113 143.358 144.137 144.398 145.218 
143.46 143.661 144.493 144.723 145.602 145.837 146.761 143.943 144.099 
144.983 145.175 146.127 146.323 147.335 147.538 148.614 144.526 144.651 
145.582 145.758 146.795 146.972 148.075 148.242 149.405 149.574 150.728 
145.19 145.29 146.26 146.427 147.538 147.731 148.9 149.068 150.249 
150.419 151.589 151.729 152.794 145.93 146.012 147.014 147.163 148.301 
148.51 149.696 149.894 151.037 151.224 152.341 152.536 153.608 153.727 
154.689 146.697 146.786 147.792 147.939 149.039 149.252 150.393 150.628 
151.73 151.941 153.005 153.218 154.284 154.479 155.498 155.59 156.51 
147.426 147.539 148.513 148.677 149.704 149.92 150.976 151.236 152.306 
152.565 153.631 153.861 154.928 155.138 156.182 156.347 157.309 157.38 
158.232 148.113 149.556 148.959 149.245 151.153 150.497 150.814 150.16 
150.455 152.914 152.203 152.559 151.826 152.139 151.422 151.728 154.787 
154.061 154.51 153.718 154.098 153.252 153.586 152.779 153.098 156.745 
156.011 156.561 155.785 156.269 155.373 155.75 154.81 155.139 154.234 
154.509 158.774 158.038 158.618 157.876 158.402 157.57 157.958 157.034 
157.341 156.387 156.641 155.669 155.858 160.688 160.046 160.591 159.9 
160.397 159.642 160.032 159.18 159.473 158.558 158.79 157.827 157.986 
156.989 157.103 162.245 161.796 162.294 161.73 162.183 161.541 161.967 
161.213 161.568 160.679 160.922 159.947 160.085 159.087 159.158 158.171 
158.212 163.396 163.143 163.633 163.233 163.656 163.17 163.609 163.048 
163.461 162.735 162.993 162.068 162.153 161.145 161.153 160.165 160.149 
159.183 159.133 147.699 147.504 148.093 149.104 147.261 147.9 148.959 
149.573 150.681 146.978 147.668 148.795 149.447 150.631 151.25 152.433 
146.737 147.434 148.63 149.3 150.55 151.229 152.506 153.091 154.297 
146.604 147.269 148.483 149.146 150.401 151.134 152.503 153.196 154.514 
155.029 156.253 146.536 147.162 148.336 148.991 150.193 150.939 152.329 
153.16 154.622 155.282 156.604 157.059 158.288 146.506 147.069 148.178 
148.818 149.988 150.707 152.061 152.937 154.462 155.316 156.74 157.368 
158.607 159.071 160.199 146.547 147.029 148.08 148.666 149.827 150.509 
151.826 152.659 154.129 155.056 156.479 157.309 158.534 159.204 160.275 
160.805 161.743 146.644 147.078 148.089 148.609 149.738 150.37 151.635 
152.41 153.772 154.659 155.979 156.873 158.04 158.871 159.896 160.63 
161.533 162.115 162.87 146.77 145.262 146.197 146.537 143.619 144.594 
144.892 145.899 146.227 141.932 142.865 143.058 144.109 144.375 145.486 
145.829 140.351 141.186 141.291 142.229 142.405 143.5 143.809 145.028 
145.48 138.8 139.625 139.738 140.568 140.734 141.633 141.926 143.009 
143.493 144.746 145.338 137.231 138.034 138.172 139.05 139.292 140.145 
140.49 141.372 141.876 142.915 143.563 144.734 145.374 136.01 136.568 
136.674 137.476 137.751 138.689 139.099 140.047 140.577 141.524 142.163 
143.164 143.838 144.876 145.476 135.375 135.631 135.695 136.18 136.419 
137.189 137.609 138.581 139.138 140.185 140.826 141.856 142.512 143.493 
144.108 145.051 145.599 135.076 135.206 135.248 135.48 135.677 136.131 
136.526 137.235 137.783 138.713 139.363 140.428 141.109 142.164 142.791 
143.755 144.312 145.214 145.728 134.923 134.755 134.92 135.115 134.795 
134.85 135.147 135.246 135.576 135.252 135.111 135.502 135.483 135.93 
135.925 136.421 136.025 135.767 136.18 136.055 136.568 136.462 136.964 
136.929 137.582 136.925 136.624 137.018 136.833 137.316 137.177 137.653 
137.547 138.13 138.2 139.051 137.955 137.591 137.985 137.713 138.156 
137.945 138.411 138.259 138.837 138.814 139.629 139.795 140.788 139.078 
138.687 139.078 138.739 139.175 138.864 139.353 139.111 139.742 139.62 
140.434 140.465 141.416 141.573 142.522 140.14 139.789 140.157 139.836 
140.265 139.942 140.435 140.157 140.797 140.625 141.412 141.343 142.207 
142.248 143.13 143.246 144.074 141.094 140.787 141.147 140.869 141.296 
141.013 141.485 141.23 141.814 141.659 142.377 142.301 143.071 143.045 
143.833 143.877 144.673 144.754 145.507 141.723 142.822 142.102 141.835 
144.141 143.328 143.064 142.291 142.031 145.667 144.764 144.514 143.627 
143.339 142.516 142.254 147.424 146.416 146.185 145.186 144.893 143.933 
143.66 142.803 142.62 149.371 148.286 148.076 146.983 146.735 145.644 
145.4 144.375 144.209 143.31 143.222 151.452 150.323 150.152 148.99 
148.807 147.645 147.475 146.32 146.165 145.078 144.964 144.007 143.931 
153.612 152.495 152.399 151.185 151.038 149.823 149.691 148.505 148.369 
147.184 147.023 145.89 145.754 144.753 144.68 155.638 154.66 154.635 
153.491 153.358 152.12 151.948 150.735 150.573 149.394 149.211 148.025 
147.831 146.694 146.557 145.546 145.494 157.335 156.551 156.551 155.613 
155.491 154.381 154.164 152.969 152.74 151.557 151.339 150.173 149.949 
148.793 148.59 147.492 147.353 146.367 146.298 147.016 148.142 147.873 
148.512 149.431 149.122 149.833 149.492 150.198 150.827 150.512 151.304 
150.934 151.717 151.322 152.127 152.271 151.982 152.865 152.501 153.347 
152.933 153.778 153.367 154.238 153.721 153.47 154.43 154.112 155.004 
154.603 155.428 155.017 155.849 155.48 156.335 155.137 154.924 155.889 
155.646 156.561 156.236 157.061 156.654 157.436 157.042 157.847 157.509 
158.32 156.413 156.275 157.189 157.016 157.914 157.701 158.567 158.251 
159.053 158.644 159.418 159.015 159.796 159.44 160.185 157.43 157.413 
158.301 158.215 159.098 158.97 159.862 159.672 160.513 160.211 160.961 
160.577 161.28 160.902 161.59 161.229 161.844 158.189 158.284 159.186 
159.219 160.124 160.089 160.981 160.883 161.712 161.533 162.246 161.976 
162.592 162.279 162.865 162.553 163.105 162.757 163.202 138.774 138.568 
138.303 137.678 138.652 138.232 137.525 137.237 136.616 138.887 138.412 
137.652 137.186 136.391 136.111 135.483 139.124 138.655 137.896 137.369 
136.486 135.975 135.174 134.961 134.503 139.374 138.885 138.166 137.645 
136.87 136.239 135.442 134.888 134.349 134.177 134.01 139.707 139.182 
138.496 137.968 137.337 136.76 136.149 135.463 134.932 134.373 134.122 
133.933 133.949 140.095 139.577 138.921 138.363 137.744 137.245 136.734 
136.214 135.729 135.133 134.741 134.29 134.168 134.016 134.121 140.495 
140.01 139.42 138.849 138.22 137.672 137.132 136.691 136.227 135.784 
135.326 134.88 134.579 134.318 134.312 134.265 134.438 140.939 140.463 
139.972 139.415 138.871 138.248 137.722 137.154 136.719 136.233 135.84 
135.376 135.046 134.695 134.584 134.461 134.576 134.599 134.78 138.82 
137.711 138.383 138.727 136.635 137.288 137.596 138.363 138.82 135.553 
136.2 136.462 137.205 137.608 138.456 138.954 134.673 135.201 135.495 
136.109 136.464 137.22 137.715 138.601 139.18 134.195 134.531 134.902 
135.337 135.745 136.258 136.782 137.482 138.171 138.983 139.68 134.05 
134.219 134.563 134.91 135.382 135.782 136.352 136.839 137.57 138.201 
139.002 139.669 140.357 134.17 134.167 134.394 134.621 135.047 135.461 
136.031 136.522 137.201 137.762 138.519 139.127 139.834 140.397 140.962 
134.501 134.378 134.526 134.546 134.878 135.152 135.691 136.157 136.799 
137.352 138.034 138.64 139.315 139.901 140.484 140.981 141.46 134.856 
134.737 134.865 134.777 135.051 135.132 135.643 135.929 136.587 136.991 
137.671 138.161 138.836 139.385 140.01 140.523 141.052 141.492 141.96 
139.578 139.517 139.931 140.785 139.636 139.969 140.801 141.203 142.074 
139.814 140.132 140.945 141.281 142.126 142.517 143.381 140.045 140.326 
141.143 141.444 142.272 142.618 143.478 143.85 144.675 140.443 140.611 
141.396 141.648 142.465 142.788 143.68 144.024 144.894 145.173 145.931 
140.981 141.056 141.757 141.929 142.695 142.979 143.865 144.242 145.182 
145.49 146.33 146.492 147.25 141.498 141.557 142.191 142.316 143.031 
143.238 144.061 144.404 145.332 145.733 146.626 146.915 147.715 147.888 
148.711 141.959 142.016 142.63 142.746 143.457 143.618 144.403 144.64 
145.499 145.849 146.73 147.106 147.926 148.246 149.044 149.335 150.182 
142.445 142.475 143.091 143.189 143.905 144.058 144.838 145.022 145.835 
146.075 146.921 147.226 148.07 148.394 149.215 149.545 150.366 150.712 
151.52 146.596 145.835 145.847 145.086 145.067 145.061 144.271 144.284 
143.485 144.341 144.299 143.486 143.463 142.645 142.653 141.854 143.68 
143.595 142.75 142.682 141.831 141.816 141.014 141.044 140.287 143.11 
142.973 142.128 141.99 141.135 141.043 140.241 140.227 139.462 139.492 
138.73 142.662 142.468 141.669 141.466 140.668 140.475 139.716 139.574 
138.828 138.73 137.957 137.927 137.193 142.362 142.113 141.36 141.109 
140.361 140.123 139.401 139.187 138.463 138.246 137.487 137.295 136.597 
136.525 136.005 142.203 141.916 141.211 140.904 140.171 139.878 139.144 
138.904 138.174 137.946 137.193 136.951 136.268 136.106 135.642 135.613 
135.362 142.148 141.849 141.221 140.87 140.188 139.796 139.07 138.71 
137.987 137.69 136.97 136.701 136.032 135.841 135.372 135.335 135.101 
135.157 135.039 
POINT_DATA 1002
SCALARS Distance double
LOOKUP_TABLE default
142.367 141.391 142.061 143.147 142.928 143.573 144.114 143.958 144.409 
144.968 145.128 145.004 145.356 145.852 146.593 145.991 145.904 146.282 
146.836 147.648 148.466 146.72 146.678 147.113 147.861 148.81 149.731 
150.471 147.55 147.477 148.023 148.923 150.017 151.042 151.873 152.568 
148.605 148.366 149.187 150.134 151.269 152.363 153.279 154.022 154.671 
149.792 149.314 150.536 151.508 152.594 153.686 154.67 155.44 156.037 
156.535 150.975 150.292 151.864 152.881 153.923 154.966 155.972 156.792 
157.35 157.748 158.064 140.945 141.668 140.577 141.351 140.221 142.573 
141.103 139.878 142.315 143.683 140.875 139.599 142.177 143.509 144.872 
140.598 139.364 142.005 143.408 144.798 145.954 140.321 139.109 141.774 
143.298 144.754 146.043 146.889 140.148 138.912 141.631 143.238 144.782 
146.161 147.157 147.73 140.143 138.945 141.585 143.163 144.776 146.285 
147.422 148.042 148.511 140.331 139.262 141.616 143.014 144.561 146.208 
147.572 148.322 148.705 149.284 140.389 141.511 141.646 142.759 142.933 
142.75 144.149 144.236 144.063 144.18 145.535 145.452 145.706 145.757 
145.937 146.557 146.614 146.989 147.402 147.536 147.603 147.639 148.007 
147.653 148.102 148.498 148.625 148.556 149.343 149.599 148.897 148.634 
148.733 148.964 149.064 148.955 151.213 151.069 150.992 150.401 149.841 
149.648 149.69 149.671 149.512 152.663 152.303 152.881 152.694 152.118 
151.543 151.235 151.057 150.83 150.558 151.897 152.3 153.905 152.741 
154.467 156.094 153.145 155.021 156.745 158.427 153.533 155.476 157.289 
159.141 160.949 154.016 155.896 157.743 159.718 161.705 163.368 154.434 
156.224 158.172 160.274 162.314 164.073 165.387 154.467 156.172 158.276 
160.649 162.788 164.55 166.013 167.075 154.134 155.754 157.853 160.395 
162.765 164.645 166.241 167.577 168.457 153.714 155.278 157.217 159.607 
162.046 164.134 165.916 167.481 168.679 169.372 152.891 155.066 154.006 
157.394 156.298 155.14 159.953 158.776 157.532 156.242 162.545 161.411 
160.09 158.692 157.305 164.74 163.792 162.592 161.183 159.681 158.212 
166.519 165.69 164.699 163.481 161.982 160.368 158.806 168.039 167.281 
166.403 165.396 164.071 162.44 160.732 159.147 169.174 168.575 167.801 
166.931 165.781 164.287 162.595 160.902 159.378 169.881 169.577 170.048 
169.605 169.93 168.955 169.352 169.611 169.015 168.216 168.995 169.164 
168.793 168.265 167.191 168.477 168.476 168.302 167.864 166.956 165.727 
167.505 167.37 167.357 166.98 166.249 165.248 164.036 166.157 166.018 
166.002 165.696 165.202 164.479 163.525 162.284 164.822 164.741 164.646 
164.369 164.029 163.525 162.79 161.786 160.587 163.624 163.584 163.444 
163.185 162.906 162.498 161.876 161.062 160.114 159.097 169.495 169.934 
169.069 169.51 168.247 170.169 168.692 167.287 169.887 170.156 167.57 
166.226 168.908 169.795 169.733 166.259 164.957 167.356 168.395 169.017 
168.964 164.839 163.506 165.822 166.657 167.468 167.947 167.905 163.297 
161.989 164.397 165.299 166.058 166.559 166.728 166.563 161.684 160.488 
162.808 163.895 164.828 165.329 165.419 165.373 165.197 160.114 159.053 
161.13 162.169 163.186 163.879 164.094 164.095 164.098 163.976 152.876 
154.464 153.627 155.377 154.382 156.297 156.252 155.129 157.403 158.5 
157.241 156.097 158.484 159.719 160.928 158.371 157.082 159.658 160.94 
162.134 163.253 159.213 157.75 160.632 162.042 163.331 164.416 165.331 
159.734 158.252 161.221 162.73 164.18 165.377 166.359 167.132 160.177 
158.723 161.672 163.187 164.658 165.913 166.954 167.894 168.555 151.19 
151.783 150.032 150.621 148.891 152.529 149.424 147.755 151.338 153.236 
148.212 146.654 150.063 152.032 154 147.058 145.637 148.75 150.73 
152.8 154.926 145.995 144.665 147.528 149.394 151.494 153.602 155.716 
145.003 143.757 146.442 148.15 150.183 152.288 154.304 156.319 144.13 
143.005 145.479 147.034 148.91 151.032 153.07 154.991 156.91 143.417 