# vtk DataFile Version 4.0
vtk output
ASCII
DATASET POLYDATA
POINTS 1002 float
-77.4729 -107.402 58.7773 -77.8884 -106.446 57.9743 -78.4687 -106.768 58.2108 
-77.9681 -107.831 59.0339 -79.0313 -107.181 58.5642 -76.9242 -108.658 59.6602 
-78.4852 -108.401 59.3731 -79.7015 -107.662 59.0783 -77.3756 -109.336 59.8658 
-76.4701 -110.314 60.4309 -79.1009 -109.102 59.8588 -80.317 -108.346 59.62 
-77.9481 -110.079 60.2359 -76.9891 -111.095 60.7559 -76.2438 -111.991 61.4118 
-79.397 -110.178 60.1289 -80.4363 -109.531 59.8799 -78.4994 -110.952 60.6828 
-77.6356 -111.796 61.3433 -76.8153 -112.653 62.0752 -76.1206 -113.495 62.9111 
-79.0164 -111.601 59.8455 -80.0213 -111.024 59.6663 -78.4975 -112.153 60.7117 
-78.0584 -112.706 61.8348 -77.3883 -113.392 62.8293 -76.643 -114.297 63.6663 
-76.0572 -115.254 64.3692 -78.5486 -112.744 59.4087 -79.5496 -112.228 59.1683 
-78.1746 -113.241 60.5007 -78.0803 -113.824 62.0218 -77.7504 -114.501 63.3434 
-77.1713 -115.376 64.2832 -76.6154 -116.377 64.9226 -76.2016 -117.207 65.4497 
-78.6347 -113.449 59.4697 -79.3672 -113.022 58.9119 -78.3808 -113.883 60.7782 
-78.3386 -114.635 62.4264 -78.1375 -115.627 63.8021 -77.7486 -116.584 64.7892 
-77.321 -117.5 65.4933 -76.9334 -118.273 66.0602 -76.5766 -118.77 66.6846 
-79.1304 -114.099 60.2133 -79.5017 -113.661 59.3239 -79.0845 -114.539 61.6353 
-79.0643 -115.309 63.2114 -78.8417 -116.464 64.4534 -78.5114 -117.557 65.3701 
-78.1657 -118.382 66.1785 -77.7948 -119.054 66.891 -77.4181 -119.546 67.5617 
-77.0505 -119.857 68.2359 -79.7297 -114.795 61.3803 -79.8781 -114.278 60.3405 
-79.7846 -115.392 62.6854 -79.772 -116.205 64.0024 -79.5575 -117.282 65.0732 
-79.2941 -118.324 65.9639 -79.0287 -119.072 66.8813 -78.6623 -119.643 67.7741 
-78.2387 -120.127 68.531 -77.8538 -120.484 69.1656 -77.5116 -120.755 69.6563 
-78.5511 -105.739 57.4384 -79.219 -106.141 57.681 -79.1797 -105.093 56.8779 
-80.0145 -105.572 57.1407 -79.9213 -104.544 56.2121 -79.9834 -106.593 58.1314 
-80.9175 -105.048 56.4784 -80.7908 -104.063 55.5471 -80.9607 -106.106 57.5716 
-80.826 -107.058 58.7179 -81.7701 -104.607 55.8047 -81.6381 -103.653 54.9118 
-81.7941 -105.733 56.798 -81.7859 -106.672 58.1123 -81.4694 -107.764 59.373 
-82.5201 -104.25 55.1577 -82.4206 -103.347 54.0449 -82.4364 -105.485 56.0812 
-82.4249 -106.554 57.3072 -82.4456 -107.485 58.9649 -81.6799 -109.023 59.9353 
-83.2526 -103.922 54.2932 -83.0338 -103.218 52.9174 -83.1575 -105.154 55.4689 
-83.0146 -106.478 56.5877 -83.1401 -107.482 58.2907 -82.897 -108.703 59.9047 
-81.4274 -110.524 59.9558 -83.7226 -103.836 53.235 -83.2476 -103.458 51.9008 
-83.8848 -104.743 54.6604 -83.7801 -106.103 55.9069 -83.721 -107.37 57.4303 
-83.6656 -108.503 59.3288 -82.7403 -110.009 60.0916 -80.8721 -111.72 59.3466 
-83.7261 -104.246 52.3321 -83.1142 -104.116 51.2292 -84.1902 -104.726 53.7118 
-84.3905 -105.77 55.0781 -84.3074 -107.075 56.5049 -84.0659 -108.275 58.3208 
-83.4386 -109.564 59.6234 -82.0192 -111.118 59.427 -80.3771 -112.58 58.8276 
-83.5175 -104.973 51.719 -82.9496 -104.931 50.8079 -84.0709 -105.226 52.9189 
-84.5338 -105.965 54.2295 -84.7209 -107.079 55.5873 -84.4659 -108.2 57.2367 
-83.8107 -109.31 58.7521 -82.7256 -110.645 59.155 -81.3281 -112.091 58.8034 
-80.2303 -113.322 59.0602 -83.281 -105.719 50.9395 -83.7726 -105.849 51.9975 
-83.7599 -106.526 51.1133 -84.0398 -106.915 52.3514 -84.1282 -107.643 51.4363 
-84.2588 -106.396 53.2788 -84.0613 -108.29 52.8544 -84.1034 -109.25 52.0915 
-84.3158 -107.808 53.7198 -84.7121 -107.407 54.6097 -83.9091 -110.052 53.6386 
-83.9386 -111.173 53.0558 -84.105 -109.289 54.3382 -84.6296 -108.903 55.1285 
-84.7936 -108.477 56.1454 -84.0532 -112.142 54.5246 -83.8887 -112.984 54.0049 
-83.9917 -111.027 55.1236 -84.243 -110.265 55.7028 -84.4636 -109.804 56.6178 
-84.202 -109.439 57.7535 -84.1016 -113.93 55.2869 -83.4475 -114.196 54.937 
-84.1504 -113.026 55.8559 -83.902 -111.895 56.2539 -83.7584 -111.151 56.7902 
-83.5199 -110.797 57.6977 -83.1077 -110.624 58.5641 -83.2569 -114.855 56.3632 
-82.3888 -114.821 56.3245 -83.7605 -114.521 56.7395 -83.5834 -113.65 57.0684 
-83.073 -112.765 57.2669 -82.6632 -112.35 57.6887 -82.2945 -112.188 58.2498 
-81.8406 -112.069 58.6228 -82.0282 -115.406 58.1565 -81.3933 -115.406 58.2549 
-82.6796 -115.396 58.2772 -82.9599 -115.023 58.5279 -82.6847 -114.344 58.7007 
-82.1897 -113.91 58.8452 -81.7868 -113.782 59.056 -81.365 -113.595 59.1841 
-80.8147 -113.382 59.1483 -81.3902 -116.249 60.2173 -80.9924 -116.284 60.2168 
-81.9106 -116.337 60.2477 -82.4395 -116.269 60.3902 -82.6627 -115.802 60.6347 
-82.4229 -115.293 60.8708 -81.9635 -115.116 61.0094 -81.501 -114.979 61.0082 
-80.9818 -114.668 60.8481 -80.4018 -114.396 60.5848 -80.4029 -115.29 62.3269 
-80.9643 -115.518 62.6619 -81.2071 -116.562 64.2047 -81.5605 -115.901 62.9311 
-81.8186 -116.905 64.4188 -81.9812 -118.119 65.617 -82.1547 -116.201 63.0624 
-82.4185 -117.315 64.5071 -82.5742 -118.556 65.7131 -82.5686 -119.756 67.1862 
-82.7806 -116.356 62.9898 -83.1121 -117.531 64.4789 -83.1455 -118.868 65.7011 
-83.1187 -120.132 67.3736 -83.1237 -121.157 69.1122 -83.1835 -116.819 62.6743 
-83.7948 -117.868 64.2321 -83.8139 -119.064 65.5729 -83.6892 -120.366 67.4026 
-83.8201 -121.426 69.3655 -83.9599 -122.307 70.7976 -82.9959 -117.5 62.3096 
-83.9346 -118.658 63.819 -84.2332 -119.636 65.2476 -84.0927 -120.783 67.2095 
-84.3499 -121.886 69.337 -84.7836 -122.685 70.9565 -84.8982 -123.389 72.2231 
-82.381 -117.747 62.128 -83.387 -119.238 63.5664 -84.0017 -120.342 64.9187 
-84.004 -121.393 66.8473 -84.2762 -122.574 69.0336 -84.9764 -123.433 70.7751 
-85.4153 -123.955 72.2061 -85.401 -124.388 73.6648 -81.7702 -117.576 62.0704 
-82.6127 -119.17 63.5144 -83.3114 -120.511 64.7716 -83.5213 -121.65 66.4964 
-83.7769 -122.926 68.5873 -84.4707 -124.036 70.366 -85.1579 -124.667 71.8496 
-85.4474 -125.02 73.3981 -85.4533 -125.25 74.9188 -81.3066 -117.433 61.9688 
-81.9467 -118.883 63.4189 -82.5569 -120.285 64.6513 -82.9092 -121.52 66.169 
-83.2476 -122.805 68.0563 -83.84 -124.061 69.8125 -84.5205 -124.973 71.3096 
-85.0171 -125.532 72.8439 -85.294 -125.867 74.4108 -85.4221 -126.011 75.7591 
-80.4379 -116.025 63.4643 -81.1552 -117.554 65.135 -80.3918 -116.982 64.5493 
-81.8158 -119.194 66.6842 -80.8979 -118.704 66.0562 -80.158 -118.076 65.5191 
-82.4512 -120.757 68.6297 -81.5991 -120.246 67.9206 -80.663 -119.728 67.1441 
-79.9423 -119.071 66.509 -83.136 -122.137 70.4797 -82.3764 -121.708 69.9759 
-81.4791 -121.096 69.2831 -80.5462 -120.481 68.4472 -79.7783 -119.791 67.6347 
-84.0218 -123.278 72.0935 -83.1112 -123.066 71.7264 -82.2276 -122.508 71.2258 
-81.2168 -121.849 70.5144 -80.2492 -121.159 69.6288 -79.435 -120.369 68.7145 
-84.841 -124.151 73.8705 -83.9527 -123.994 73.6625 -82.9639 -123.674 73.0772 
-81.8882 -123.222 72.221 -80.7575 -122.666 71.2783 -79.7573 -121.832 70.4285 
-78.9493 -120.886 69.5594 -85.2465 -124.843 75.4788 -84.6628 -124.485 75.6616 
-83.7716 -124.208 75.2492 -82.7044 -124.049 74.1787 -81.5298 -123.867 72.8175 
-80.3309 -123.27 71.7453 -79.2966 -122.252 71.0043 -78.5123 -121.252 70.1912 
-85.3719 -125.532 76.4918 -85.0241 -124.943 77.0091 -84.3267 -124.437 77.0721 
-83.3689 -124.263 76.3411 -82.2886 -124.362 74.8419 -81.098 -124.193 73.2799 
-79.8832 -123.435 72.2191 -78.8878 -122.416 71.4549 -78.1548 -121.509 70.6171 
-85.4306 -126.464 76.7964 -85.2281 -125.854 77.5633 -85.1104 -126.867 77.6758 
-84.6254 -126.214 78.428 -84.0827 -127.148 78.2521 -84.6538 -125.067 78.0944 
-83.3093 -126.534 78.7594 -82.4834 -127.153 78.0461 -83.7251 -125.336 78.816 
-83.727 -124.476 78.0556 -81.5829 -126.672 78.1809 -80.8485 -127.002 77.2578 
-82.2658 -125.7 78.7296 -82.6173 -124.727 78.4507 -82.6549 -124.423 77.0086 
-79.9466 -126.83 77.4976 -79.4606 -127.135 76.8473 -80.6854 -126.091 77.8958 
-81.2905 -125.124 77.9488 -81.5586 -124.655 77.0929 -81.5293 -124.535 75.2394 
-78.6107 -127.113 77.3565 -78.3543 -127.472 76.6186 -79.2219 -126.496 77.332 
-80.0142 -125.578 77.0515 -80.4188 -124.919 76.5567 -80.4565 -124.574 75.3289 
-80.2856 -124.137 73.6334 -77.5979 -127.169 76.7848 -77.4779 -127.522 75.7106 
-77.9552 -126.634 76.9237 -78.694 -125.836 76.4223 -79.2881 -125.127 75.8756 
-79.3873 -124.636 75.0381 -79.2924 -124.052 73.7322 -79.1324 -123.282 72.4616 
-76.7347 -126.941 75.4086 -76.6034 -127.277 74.4266 -76.9699 -126.438 75.8076 
-77.4501 -125.746 75.5976 -78.0063 -125.087 75.2034 -78.294 -124.62 74.5489 
-78.3502 -124.09 73.4348 -78.3526 -123.297 72.3136 -78.2809 -122.378 71.4654 
-75.7687 -126.713 74.1156 -75.5897 -127.03 73.4861 -76.0864 -126.219 74.4097 
-76.4716 -125.562 74.3788 -76.8157 -124.904 74.2609 -77.0925 -124.42 73.8922 
-77.3441 -123.994 72.9559 -77.5505 -123.351 71.8731 -77.6285 -122.462 71.1428 
-77.5846 -121.539 70.5247 -85.3133 -126.653 75.5292 -85.2728 -127.116 76.4394 
-84.9445 -127.057 74.976 -84.6035 -127.369 75.6024 -84.0826 -127.104 74.0719 
-84.6217 -127.393 77.1456 -83.3672 -127.29 74.3374 -82.9023 -126.933 72.9951 
-83.5471 -127.488 75.9653 -83.2417 -127.451 77.3915 -82.087 -127.232 73.0649 
-81.9145 -126.807 71.8976 -82.2404 -127.59 74.4462 -82.1777 -127.642 75.9408 
-81.6761 -127.311 76.8753 -81.1414 -127.274 71.9468 -81.1291 -126.708 70.7538 
-81.1717 -127.843 73.1496 -81.2356 -128.239 74.4259 -80.9569 -127.905 75.474 
-80.2747 -127.311 76.16 -80.3217 -127.133 70.8129 -80.2751 -126.352 69.6346 
-80.3027 -127.815 72.0168 -80.3581 -128.622 73.1241 -80.1844 -128.912 74.1129 
-79.6366 -128.324 74.9005 -78.988 -127.709 75.738 -79.5633 -126.68 69.6276 
-79.4867 -125.724 68.5651 -79.5346 -127.436 70.7686 -79.4854 -128.242 71.8057 
-79.2914 -129.098 72.7577 -78.805 -129.257 73.5801 -78.3169 -128.652 74.2639 
-77.9398 -127.998 75.0485 -78.987 -126.062 68.3846 -78.923 -125.093 67.4193 
-78.9506 -126.941 69.4027 -78.7953 -127.639 70.3646 -78.5588 -128.397 71.3268 
-78.1453 -129.025 72.3019 -77.6797 -128.983 72.9778 -77.3881 -128.403 73.4218 
-77.0854 -127.783 73.9658 -78.504 -125.411 67.1107 -78.4661 -124.556 66.2363 
[...]
CELL_DATA 2000
SCALARS Distance double
LOOKUP_TABLE default
143.563 144.258 144.061 144.448 145.096 144.82 145.232 145.058 145.601 
146.105 145.756 146.195 145.948 146.542 146.369 147.048 147.16 146.811 
147.273 147.006 147.619 147.401 148.099 147.918 148.669 148.019 147.76 
148.178 148.038 148.664 148.511 149.222 149.028 149.806 149.628 150.475 
148.579 148.419 148.759 148.777 149.463 149.491 150.31 150.194 151.051 
150.857 151.77 151.565 152.477 149.064 148.916 149.34 149.345 150.189 
150.291 151.334 151.326 152.346 152.187 153.17 152.947 153.889 153.623 
154.471 149.783 149.597 150.29 150.181 151.226 151.229 152.459 152.462 
153.633 153.525 154.555 154.359 155.286 155.038 155.864 155.563 156.293 
150.811 150.618 151.55 151.408 152.56 152.487 153.728 153.696 154.874 
154.807 155.834 155.69 156.58 156.372 157.158 156.899 157.595 157.291 
157.914 143.168 142.837 143.296 143.887 142.571 143.025 143.706 144.11 
144.757 142.399 142.83 143.582 144.004 144.725 145.075 145.764 142.304 
142.708 143.465 143.908 144.679 145.075 145.812 146.152 146.841 142.222 
142.627 143.372 143.805 144.596 145.027 145.858 146.249 147.044 147.297 
147.873 142.085 142.517 143.275 143.725 144.541 144.979 145.882 146.331 
147.284 147.607 148.293 148.307 148.612 141.945 142.354 143.104 143.593 
144.425 144.924 145.819 146.34 147.311 147.807 148.585 148.749 149.045 
148.895 149.011 141.962 142.257 142.968 143.407 144.232 144.761 145.639 
146.198 147.089 147.681 148.448 148.857 149.205 149.229 149.27 149.201 
149.44 142.194 142.36 143.019 143.333 144.138 144.598 145.503 146.014 
146.89 147.406 148.145 148.595 149.033 149.234 149.362 149.373 149.552 
149.687 150.223 142.583 143.462 143.107 143.377 144.509 144.068 144.392 
144.055 144.502 145.762 145.207 145.556 145.182 145.706 145.363 145.903 
147.289 146.576 146.855 146.391 146.927 146.616 147.17 146.801 147.277 
149.056 148.287 148.51 147.792 148.16 147.759 148.236 147.958 148.339 
148.027 148.38 150.492 150.041 150.325 149.563 149.686 149.001 149.195 
148.831 149.078 148.864 149.062 148.888 149.092 151.168 151.13 151.489 
151.134 151.188 150.501 150.414 149.792 149.857 149.507 149.681 149.449 
149.575 149.39 149.459 151.652 151.612 152.052 151.967 152.226 151.802 
151.809 151.108 151.145 150.516 150.765 150.279 150.547 150.075 150.222 
149.792 149.872 152.63 152.327 152.909 152.675 153.251 152.889 153.29 
152.636 152.91 152.121 152.485 151.758 152.184 151.459 151.772 151.007 
151.221 150.516 150.732 151.688 152.247 152.499 153.669 152.879 153.14 
154.327 154.604 155.834 153.383 153.764 154.979 155.28 156.499 156.776 
157.998 153.746 154.216 155.487 155.867 157.064 157.394 158.613 158.94 
160.157 154.136 154.607 155.941 156.348 157.554 157.889 159.096 159.49 
160.754 161.094 162.264 154.408 154.978 156.338 156.828 158.061 158.378 
159.562 159.945 161.263 161.678 162.944 163.19 164.27 154.287 155.041 
156.371 157.096 158.332 158.806 159.91 160.349 161.611 162.141 163.453 
163.841 164.945 165.129 166.047 153.917 154.718 155.984 156.882 158.09 
158.814 159.837 160.46 161.571 162.283 163.515 164.154 165.225 165.629 
166.479 166.714 167.437 153.608 154.312 155.495 156.365 157.527 158.354 
159.354 160.113 161.127 161.962 163.082 163.921 164.943 165.607 166.426 
166.895 167.587 167.894 168.482 151.776 153.814 152.732 152.698 155.98 
154.894 154.905 153.792 153.796 158.162 157.084 157.105 156.012 156.025 
154.922 154.927 160.375 159.321 159.381 158.242 158.244 157.12 157.113 
156.023 156.001 162.483 161.532 161.665 160.569 160.582 159.396 159.352 
158.193 158.13 157.028 156.927 164.451 163.59 163.769 162.796 162.843 
161.725 161.644 160.456 160.316 159.148 158.973 157.854 157.651 166.24 
165.503 165.703 164.83 164.894 163.88 163.787 162.668 162.471 161.307 
161.048 159.883 159.59 158.477 158.192 167.665 167.136 167.331 166.634 
166.674 165.806 165.688 164.683 164.455 163.363 163.049 161.899 161.515 
160.372 159.988 158.921 158.584 168.72 168.361 168.526 168.025 168.011 
167.356 167.188 166.388 166.119 165.193 164.831 163.78 163.315 162.2 
161.708 160.639 160.21 159.221 158.856 169.296 169.959 169.495 169.085 
170.245 170.01 169.555 169.093 168.521 169.856 170.032 169.613 169.371 
168.739 168.35 167.672 168.814 169.323 169.033 169.147 168.542 168.375 
167.697 167.383 166.63 167.819 168.244 168.088 168.367 167.901 167.96 
167.335 167.239 166.523 166.229 165.357 167.288 167.51 167.386 167.54 
167.169 167.251 166.711 166.736 166.064 165.948 165.091 164.794 163.803 
166.674 166.997 166.77 166.937 166.486 166.564 166.009 166.074 165.432 
165.398 164.574 164.383 163.418 163.134 162.154 165.624 166.106 165.768 
166.109 165.545 165.755 165.112 165.287 164.634 164.715 163.937 163.831 
162.922 162.7 161.78 161.518 160.643 164.476 164.916 164.564 164.934 
164.387 164.658 164.011 164.255 163.606 163.81 163.092 163.139 162.302 
162.191 161.326 161.137 160.307 160.074 159.276 169.419 169.565 169.769 
170.108 169.086 169.636 169.987 170.257 170.341 168.02 168.79 169.076 
169.725 169.789 170.136 169.864 166.865 167.578 167.846 168.574 168.705 
169.272 169.061 169.306 168.789 165.893 166.513 166.835 167.455 167.771 
168.292 168.317 168.519 168.164 168.189 167.789 164.86 165.563 165.891 
166.544 166.93 167.537 167.791 168.049 167.886 167.799 167.478 167.443 
167.251 163.629 164.44 164.758 165.506 165.797 166.569 166.843 167.458 
167.441 167.611 167.274 167.228 166.902 166.961 166.675 162.354 163.172 
163.515 164.29 164.517 165.277 165.448 166.242 166.304 166.888 166.639 
166.856 166.394 166.487 166.03 166.159 165.676 161.146 161.914 162.24 
163.024 163.243 163.961 164.058 164.785 164.831 165.556 165.439 165.938 
165.538 165.777 165.249 165.409 164.907 165.045 164.552 153.844 154.786 
154.76 155.707 155.708 155.728 156.687 156.692 157.643 156.661 156.684 
157.693 157.677 158.623 158.585 159.469 157.627 157.674 158.737 158.733 
159.748 159.655 160.598 160.451 161.349 158.5 158.598 159.638 159.73 
160.763 160.785 161.768 161.675 162.609 162.432 163.329 159.275 159.397 
160.386 160.528 161.52 161.663 162.645 162.729 163.664 163.639 164.509 
164.377 165.152 159.912 160.084 161.041 161.219 162.211 162.369 163.361 
163.494 164.467 164.554 165.469 165.45 166.242 166.076 166.686 160.361 
160.599 161.52 161.789 162.787 163.03 164.01 164.183 165.113 165.265 
166.191 166.308 167.165 167.118 167.781 167.515 167.947 160.698 160.965 
161.854 162.171 163.128 163.476 164.396 164.688 165.482 165.735 166.498 
166.803 167.611 167.856 168.561 168.533 168.988 168.668 168.895 152.962 
152.012 152.905 153.812 151.057 151.903 152.704 153.72 154.674 150.057 
150.876 151.591 152.573 153.488 154.573 155.584 149.055 149.835 150.527 
151.463 152.366 153.408 154.426 155.517 156.547 148.143 148.858 149.553 
150.442 151.36 152.347 153.338 154.375 155.388 156.47 157.451 147.37 
148.014 148.693 149.517 150.418 151.371 152.311 153.291 154.224 155.285 
156.275 157.36 158.285 146.745 147.319 147.956 148.686 149.496 150.404 
151.276 152.231 153.085 154.099 155.052 156.168 157.161 158.193 159.011 
146.254 146.762 147.335 147.954 148.625 149.436 150.216 151.148 151.96 
152.942 153.839 154.935 155.935 157.045 157.932 158.865 159.528 145.831 
146.299 146.8 147.328 147.872 148.549 149.226 150.081 150.867 151.813 
152.661 153.704 154.635 155.77 156.673 157.725 158.443 159.313 159.879 
145.742 145.851 146.101 146.691 145.98 146.225 146.865 147.082 147.736 
146.23 146.437 147.163 147.346 148.097 148.269 149.082 146.599 146.783 
147.608 147.78 148.648 148.781 149.68 149.808 150.738 147.103 147.245 
148.136 148.315 149.264 149.425 150.378 150.5 151.458 151.568 152.544 
147.771 147.86 148.792 148.927 149.915 150.074 151.067 151.21 152.192 
152.319 153.337 153.452 154.5 148.506 148.596 149.555 149.663 150.67 
150.788 151.823 151.944 152.989 153.095 154.156 154.271 155.355 155.468 
156.506 149.202 149.325 150.283 150.423 151.412 151.552 152.589 152.742 
153.838 153.965 155.058 155.143 156.207 156.304 157.317 157.406 158.29 
149.846 149.99 150.922 151.093 152.044 152.224 153.218 153.443 154.53 
154.772 155.868 156.028 157.043 157.137 158.086 158.169 159.03 159.062 
159.781 150.493 151.872 151.313 151.598 153.379 152.773 153.082 152.467 
152.742 155.052 154.394 154.776 154.071 154.388 153.675 153.97 156.863 
156.185 156.67 155.919 156.32 155.494 155.839 155.028 155.363 158.708 
158.047 158.565 157.865 158.322 157.528 157.889 157.026 157.342 156.49 
156.754 160.48 159.865 160.338 159.699 160.152 159.474 159.853 159.062 
159.332 158.475 158.68 157.811 157.941 161.989 161.511 161.943 161.385 
161.825 161.231 161.653 160.953 161.244 160.414 160.592 159.715 159.831 
158.926 158.977 163.106 162.814 163.246 162.854 163.318 162.849 163.31 
162.709 163.024 162.26 162.427 161.589 161.691 160.81 160.841 159.912 
159.883 163.948 163.775 164.241 164.003 164.509 164.217 164.717 164.28 
164.602 163.947 164.059 163.303 163.348 162.574 162.565 161.713 161.607 
160.706 160.571 150.062 149.826 150.441 151.432 149.532 150.225 151.299 
151.89 152.937 149.168 149.948 151.165 151.822 152.953 153.476 154.577 
148.819 149.602 150.943 151.726 153.008 153.577 154.715 155.19 156.343 
148.65 149.308 150.606 151.459 152.878 153.644 154.889 155.39 156.526 
157.003 158.185 148.657 149.209 150.337 151.077 152.461 153.409 154.823 
155.537 156.712 157.201 158.35 158.856 159.995 148.604 149.202 150.236 
150.82 152.025 152.927 154.412 155.359 156.68 157.32 158.43 158.972 
160.078 160.594 161.557 148.376 149.064 150.13 150.703 151.783 152.52 
153.892 154.881 156.296 157.148 158.292 158.936 159.962 160.562 161.503 
161.982 162.706 148.137 148.804 149.917 150.554 151.634 152.288 153.501 
154.367 155.7 156.64 157.82 158.621 159.613 160.31 161.202 161.795 
162.525 162.958 163.531 149.163 147.732 148.585 148.869 146.236 147.103 
147.302 148.215 148.478 144.578 145.516 145.669 146.589 146.759 147.735 
148.008 142.784 143.76 143.951 144.922 145.099 146.017 146.232 147.248 
147.625 141.018 141.936 142.146 143.185 143.463 144.406 144.609 145.519 
145.847 146.938 147.475 139.409 140.192 140.322 141.358 141.697 142.763 
143.008 143.911 144.092 145.118 145.565 146.831 147.454 138.183 138.721 
138.778 139.595 139.9 140.966 141.322 142.298 142.471 143.361 143.616 
144.794 145.352 146.747 147.351 137.487 137.78 137.85 138.309 138.531 
139.304 139.703 140.655 141.044 141.882 142.2 143.043 143.515 144.645 
145.278 146.589 147.153 137.104 137.308 137.409 137.658 137.811 138.225 
138.521 139.227 139.716 140.58 141.145 141.926 142.491 143.236 143.852 
144.764 145.4 146.479 147.034 136.927 136.75 136.979 137.257 136.705 
136.844 137.172 137.356 137.662 137.095 136.988 137.334 137.38 137.735 
137.832 138.278 137.894 137.618 137.986 137.809 138.185 138.065 138.524 
138.641 139.372 138.747 138.479 138.871 138.654 139.027 138.735 139.139 
139.049 139.802 140.01 140.918 139.578 139.286 139.646 139.5 139.881 
139.626 139.942 139.748 140.415 140.559 141.535 141.687 142.479 140.568 
140.159 140.461 140.241 140.643 140.43 140.759 140.526 141.071 141.153 
142.105 142.342 143.224 143.209 143.837 141.678 141.22 141.486 141.136 
141.538 141.265 141.685 141.392 141.906 141.817 142.675 142.88 143.832 
143.939 144.635 144.547 145.199 142.713 142.315 142.563 142.192 142.561 
142.258 142.726 142.426 142.962 142.735 143.476 143.505 144.43 144.553 
145.353 145.329 145.986 145.943 146.699 143.299 144.217 143.566 143.227 
145.385 144.611 144.314 143.582 143.287 146.836 145.942 145.666 144.813 
144.555 143.761 143.504 148.488 147.526 147.28 146.314 146.062 145.155 
144.923 144.065 143.823 150.331 149.304 149.137 148.074 147.847 146.8 
146.578 145.608 145.43 144.503 144.383 152.32 151.266 151.174 150.072 
149.918 148.755 148.549 147.419 147.264 146.246 146.184 145.248 145.266 
154.28 153.275 153.202 152.155 152.06 150.925 150.748 149.535 149.342 
148.201 148.104 147.105 147.068 146.166 146.13 156.102 155.181 155.107 
154.133 154.043 153.017 152.867 151.732 151.508 150.33 150.147 149.061 
148.959 147.966 147.863 146.93 146.81 157.748 156.934 156.881 155.975 
155.873 154.917 154.773 153.749 153.545 152.438 152.224 151.111 150.966 
149.9 149.793 148.75 148.643 147.636 147.567 148.427 149.515 149.368 
150.19 150.7 150.529 151.385 151.194 152 151.913 151.755 152.677 
152.479 153.357 153.069 153.916 153.165 152.999 153.97 153.807 154.743 
154.491 155.371 155.084 156.002 154.435 154.268 155.228 155.096 156.057 
155.867 156.75 156.506 157.382 157.166 158.044 155.646 155.513 156.442 
156.325 157.274 157.139 158.037 157.838 158.696 158.484 159.338 159.114 
159.882 156.771 156.688 157.625 157.513 158.446 158.324 159.226 159.074 
159.921 159.741 160.551 160.359 161.105 160.852 161.475 157.774 157.766 
158.716 158.659 159.587 159.486 160.382 160.243 161.07 160.899 161.644 
161.476 162.157 161.978 162.562 162.311 162.769 158.592 158.671 159.589 
159.641 160.548 160.551 161.44 161.371 162.187 162.023 162.724 162.516 
163.154 162.963 163.55 163.327 163.795 163.488 163.816 141.637 141.329 
141.17 140.556 141.262 140.94 140.251 140.025 139.357 141.381 140.966 
140.255 139.862 139.159 138.88 138.304 141.52 141.111 140.405 139.963 
139.266 138.855 138.255 137.982 137.554 141.617 141.238 140.573 140.148 
139.493 139.053 138.485 138.098 137.627 137.355 137.016 141.723 141.345 
140.745 140.351 139.773 139.34 138.818 138.403 137.937 137.549 137.115 
136.854 136.589 141.922 141.505 140.93 140.548 140.007 139.626 139.096 
138.721 138.206 137.837 137.323 136.989 136.597 136.458 136.344 142.245 
141.784 141.203 140.767 140.194 139.816 139.256 138.917 138.352 138.016 
137.452 137.128 136.684 136.487 136.324 136.321 136.405 142.636 142.171 
141.611 141.104 140.519 140.046 139.514 139.101 138.627 138.217 137.752 
137.324 136.943 136.628 136.498 136.391 136.504 136.522 136.715 141.727 
140.636 141.341 141.652 139.396 140.144 140.49 141.293 141.705 138.302 
138.917 139.251 140.076 140.561 141.386 141.864 137.535 137.963 138.259 
138.932 139.434 140.238 140.789 141.59 142.115 137.005 137.326 137.622 
138.128 138.621 139.254 139.831 140.563 141.177 141.928 142.493 136.639 
136.892 137.239 137.648 138.183 138.651 139.229 139.777 140.432 141.099 
141.778 142.42 142.972 136.48 136.643 137.023 137.366 137.941 138.349 
138.939 139.352 139.975 140.507 141.222 141.825 142.484 142.989 143.506 
136.549 136.6 136.932 137.191 137.718 138.124 138.713 139.12 139.7 
140.142 140.795 141.343 142.036 142.574 143.182 143.609 144.138 136.795 
136.746 136.982 137.116 137.538 137.88 138.448 138.875 139.475 139.893 
140.509 140.97 141.632 142.15 142.806 143.299 143.896 144.308 144.851 
142.328 142.323 142.613 143.222 142.431 142.69 143.356 143.598 144.279 
142.617 142.865 143.602 143.834 144.603 144.806 145.591 142.865 143.093 
143.854 144.115 144.941 145.198 146.055 146.245 147.129 143.178 143.363 
144.087 144.349 145.122 145.452 146.275 146.621 147.483 147.8 148.73 
143.529 143.662 144.32 144.56 145.268 145.568 146.293 146.671 147.44 
147.907 148.721 149.226 150.004 143.959 144 144.585 144.772 145.458 
145.715 146.407 146.686 147.386 147.762 148.499 148.99 149.678 150.186 
150.712 144.563 144.487 145.019 145.076 145.716 145.911 146.592 146.833 
147.504 147.779 148.474 148.818 149.504 149.873 150.459 150.791 151.287 
145.28 145.162 145.668 145.601 146.17 146.227 146.853 147.023 147.669 
147.909 148.58 148.871 149.566 149.856 150.527 150.763 151.401 151.594 
152.262 149.032 148.367 148.34 147.618 147.66 147.644 146.902 146.903 
146.152 146.927 146.906 146.125 146.136 145.335 145.349 144.496 146.273 
146.186 145.36 145.32 144.459 144.463 143.575 143.594 142.7 145.806 
145.622 144.791 144.616 143.724 143.607 142.723 142.687 141.837 141.831 
140.997 145.491 145.251 144.455 144.178 143.312 143.031 142.161 141.969 
141.163 141.068 140.285 140.22 139.458 145.289 145.007 144.241 143.929 
143.111 142.77 141.933 141.603 140.792 140.544 139.77 139.607 138.879 
138.795 138.207 145.198 144.88 144.14 143.783 142.998 142.638 141.854 
141.489 140.712 140.344 139.579 139.254 138.554 138.342 137.805 137.753 
137.436 145.13 144.835 144.144 143.767 143.026 142.614 141.876 141.476 
140.771 140.372 139.692 139.266 138.622 138.235 137.719 137.5 137.184 
137.172 137.018 
POINT_DATA 1002
SCALARS Distance double
LOOKUP_TABLE default
143.887 143.079 143.726 144.574 144.478 144.888 145.411 145.404 145.716 
146.204 146.457 146.46 146.722 147.192 147.75 147.522 147.502 147.846 
148.294 148.816 149.444 148.265 148.298 148.754 149.398 149.978 150.629 
151.354 148.702 148.747 149.317 150.325 151.211 151.969 152.716 153.363 
149.302 149.146 150.02 151.234 152.447 153.384 154.159 154.792 155.26 
150.347 149.86 151.225 152.438 153.707 154.747 155.537 156.164 156.637 
156.983 151.651 150.924 152.657 153.802 154.946 155.97 156.788 157.416 
157.898 158.253 158.505 142.703 143.461 142.35 143.267 142.097 144.393 
143.127 141.975 144.354 145.432 143.025 141.913 144.244 145.441 146.566 
142.945 141.81 144.148 145.396 146.741 147.829 142.8 141.649 144.084 
145.394 146.86 148.255 148.803 142.615 141.574 143.898 145.296 146.77 
148.308 149.197 149.146 142.583 141.732 143.708 145.091 146.532 147.97 
149.072 149.354 149.318 142.768 142.083 143.71 144.998 146.423 147.721 
148.749 149.284 149.455 149.887 142.9 143.657 143.831 144.72 144.98 
144.802 145.924 146.386 146.029 146.291 147.423 148.064 147.224 147.53 
147.693 149.379 149.729 148.734 148.526 148.655 148.674 151.019 150.732 
150.579 149.747 149.317 149.269 149.248 151.645 151.133 151.809 151.182 
150.317 149.943 149.837 149.646 152.067 151.765 152.455 152.422 151.831 
151.294 151.063 150.746 150.278 153.157 152.974 153.511 153.796 153.661 
153.245 152.922 152.573 152.001 151.386 152.757 153.358 154.897 154.067 
155.56 157.047 154.657 156.216 157.721 159.229 155.074 156.73 158.247 
159.872 161.374 155.507 157.242 158.69 160.354 162.04 163.38 155.771 
157.738 159.204 160.795 162.643 164.152 165.28 155.56 157.783 159.478 
161.055 162.99 164.729 165.957 166.906 155.087 157.305 159.185 160.853 
162.81 164.746 166.202 167.282 168.124 154.697 156.704 158.574 160.306 
162.227 164.21 165.875 167.204 168.278 169.045 153.79 155.996 154.931 
158.211 157.11 156.036 160.526 159.409 158.216 157.089 162.697 161.775 
160.566 159.277 158.025 164.695 163.917 162.838 161.53 160.145 158.751 
166.537 165.88 164.888 163.637 162.247 160.755 159.266 167.968 167.491 
166.654 165.526 164.205 162.695 161.097 159.603 168.994 168.618 167.926 
166.988 165.85 164.442 162.809 161.219 159.809 169.849 169.644 170.385 
170.005 170.348 169.02 169.747 169.478 169.092 168.107 168.747 168.219 
168.608 167.929 167.058 167.77 167.472 167.752 167.346 166.733 165.785 
167.29 167.104 167.1 166.658 166.132 165.333 164.16 166.599 166.323 
166.423 165.937 165.435 164.733 163.66 162.436 165.399 165.153 165.306 
164.909 164.491 163.978 163.103 162.005 160.9 164.198 164.078 164.098 
163.76 163.367 162.963 162.338 161.467 160.507 159.515 169.365 170.094 
169.237 169.578 168.447 170.294 168.349 167.265 169.307 169.771 167.122 
166.211 168.071 168.744 168.674 166.21 165.262 167.178 168.067 168.145 
167.679 165.219 164.1 166.247 167.369 167.94 167.58 167.181 164.004 
162.786 165.054 166.093 167.069 167.32 166.929 166.602 162.729 161.55 
163.815 164.685 165.568 166.277 166.322 165.934 165.558 161.464 160.426 
162.53 163.386 164.104 164.824 165.216 165.077 164.737 164.427 153.864 
155.721 154.775 156.69 155.662 157.652 157.701 156.621 158.69 159.53 
158.701 157.561 159.809 160.747 161.519 159.533 158.406 160.681 161.8 
162.761 163.551 160.255 159.165 161.371 162.511 163.627 164.606 165.372 
160.835 159.738 162.034 163.229 164.346 165.431 166.373 166.982 161.227 
160.121 162.501 163.828 164.975 166.022 167.123 168.002 168.362 152.054 
152.802 151.187 151.727 150.265 153.588 150.643 149.268 152.409 154.471 
149.6 148.302 151.344 153.351 155.461 148.676 147.455 150.387 152.354 
154.316 156.388 147.915 146.744 149.492 151.378 153.209 155.152 157.286 
147.302 146.192 148.654 150.346 152.112 153.939 156.068 158.131 146.796 
145.778 147.91 149.314 150.994 152.779 154.8 156.938 158.729 146.328 