# vtk DataFile Version 4.0
vtk output
ASCII
DATASET POLYDATA
POINTS 1002 float
-78.6529 -107.128 58.4636 -78.9727 -106.179 57.6498 -79.5891 -106.372 58.094 
-79.2646 -107.489 58.9888 -80.2426 -106.826 58.6396 -78.3332 -108.261 59.4823 
-79.8816 -108.122 59.5598 -80.9341 -107.69 59.2372 -78.8948 -108.838 59.9325 
-77.9919 -109.684 60.4226 -80.3432 -109.074 59.8711 -81.486 -108.773 59.7334 
-79.24 -109.726 60.1046 -78.4124 -110.613 60.6156 -77.5617 -111.517 61.1714 
-80.4532 -110.174 59.6532 -81.5917 -109.821 59.7364 -79.252 -110.849 59.7213 
-78.4782 -111.81 60.4088 -77.878 -112.704 61.3242 -77.0953 -113.565 62.008 
-80.2085 -111.325 59.0685 -81.1523 -110.937 59.0453 -79.1641 -111.996 59.2009 
-78.4487 -112.982 60.0608 -78.0546 -113.879 61.3986 -77.524 -114.673 62.4227 
-76.8736 -115.534 63.0729 -79.9593 -112.54 58.6781 -80.629 -112.159 58.2379 
-79.3255 -113.099 59.3126 -78.8111 -113.97 60.3527 -78.456 -114.872 61.7413 
-78.0432 -115.688 62.8885 -77.5263 -116.546 63.6399 -77.0207 -117.36 64.2667 
-80.1524 -113.634 58.9614 -80.5902 -113.227 58.1676 -79.8523 -114.138 60.1025 
-79.5767 -114.874 61.359 -79.2017 -115.792 62.5321 -78.6756 -116.757 63.4345 
-78.1741 -117.668 64.1416 -77.7579 -118.411 64.8708 -77.2705 -118.955 65.5524 
-80.7672 -114.492 59.9132 -81.0282 -114.074 58.9795 -80.5728 -115.073 61.1208 
-80.354 -115.81 62.3599 -79.9942 -116.73 63.3679 -79.3822 -117.829 64.0607 
-78.7515 -118.849 64.6709 -78.3587 -119.525 65.4441 -77.984 -119.918 66.2419 
-77.4191 -120.221 66.8122 -81.4304 -115.279 61.0878 -81.5875 -114.851 60.1459 
-81.2258 -115.977 62.0817 -80.9198 -116.825 63.0551 -80.567 -117.726 63.9492 
-80.0905 -118.752 64.6901 -79.4709 -119.766 65.3614 -78.9784 -120.429 66.1447 
-78.6381 -120.75 66.9547 -78.176 -120.993 67.5422 -77.5547 -121.261 67.8668 
-79.7221 -105.368 57.2803 -80.3693 -105.504 57.7099 -80.5011 -104.5 56.9335 
-81.1155 -104.671 57.2331 -81.1831 -103.757 56.2901 -81.0109 -106.113 58.0939 
-81.8006 -104.096 56.4713 -81.805 -103.335 55.214 -81.645 -105.433 57.3451 
-81.693 -107.204 58.6044 -82.5517 -103.794 55.4555 -82.5058 -103.052 53.9199 
-82.2866 -104.879 56.4824 -82.2427 -106.506 57.7022 -82.294 -108.314 59.2712 
-83.3343 -103.476 54.2581 -83.2083 -102.648 52.6031 -83.0723 -104.539 55.5557 
-82.8933 -105.771 56.7729 -82.9481 -107.454 58.4512 -82.4458 -109.312 59.4609 
-83.9115 -103.155 52.9104 -83.6847 -102.399 51.3162 -83.7524 -104.317 54.4106 
-83.6382 -105.433 55.7976 -83.7347 -106.641 57.5055 -83.3128 -108.455 58.8544 
-81.9836 -110.498 58.7625 -84.1918 -103.176 51.6104 -83.8494 -102.621 50.1796 
-84.163 -104.166 53.1548 -84.1501 -105.351 54.6583 -84.4119 -106.319 56.4077 
-84.2403 -107.648 58.0716 -82.9994 -109.735 58.4479 -81.4228 -111.799 57.9282 
-84.2589 -103.55 50.5508 -83.7966 -103.144 49.3187 -84.4262 -104.225 52.0587 
-84.5032 -105.279 53.5739 -84.7959 -106.245 55.1844 -84.8712 -107.183 56.973 
-83.9859 -108.892 57.9926 -82.4381 -111.166 57.8547 -81.3024 -112.971 57.8847 
-84.2304 -104.035 49.7498 -83.6873 -103.723 48.7436 -84.594 -104.518 51.14 
-84.8186 -105.369 52.6584 -85.0924 -106.305 54.107 -85.2049 -107.063 55.6875 
-84.6265 -108.294 57.0973 -83.3675 -110.435 57.6399 -82.1535 -112.608 57.812 
-81.585 -113.998 58.6509 -84.0161 -104.528 48.8548 -84.5583 -104.88 49.9718 
-84.4199 -105.546 49.104 -84.8135 -106.084 50.3342 -84.6288 -106.91 49.5944 
-84.9272 -105.586 51.4961 -84.7258 -107.563 50.9422 -84.4993 -108.444 50.4358 
-85.0647 -106.974 51.9386 -85.2472 -106.545 53.0496 -84.4157 -109.053 51.8977 
-84.255 -110.048 51.6213 -84.785 -108.337 52.5894 -85.2768 -107.809 53.5066 
-85.4035 -107.308 54.5137 -84.1549 -110.774 53.1212 -83.9106 -111.818 52.9988 
-84.3762 -109.755 53.4807 -84.7895 -109.052 54.1279 -85.0553 -108.539 54.9658 
-84.9465 -108.223 56.0006 -83.7616 -112.86 54.4183 -83.2861 -113.626 54.3169 
-84.0604 -111.821 54.5103 -84.2717 -110.848 54.8744 -84.3785 -110.278 55.5527 
-84.2317 -110.093 56.327 -83.873 -110.168 57.0839 -83.2326 -114.852 55.6491 
-82.6794 -115.253 55.4886 -83.7362 -114.235 55.6666 -84 -113.373 55.8007 
-84.0128 -112.624 56.3578 -83.7853 -112.401 57.0218 -83.3391 -112.523 57.4729 
-82.7742 -112.605 57.7342 -82.9379 -116.438 56.8775 -82.4307 -116.624 56.7201 
-83.5171 -116.211 56.9517 -83.9004 -115.763 57.0265 -83.9925 -115.016 57.4846 
-83.8479 -114.464 58.1864 -83.4283 -114.437 58.6108 -82.8019 -114.496 58.7364 
-82.1613 -114.294 58.7409 -82.8706 -117.674 58.2342 -82.3819 -117.727 58.1359 
-83.4538 -117.636 58.3335 -83.8845 -117.516 58.4465 -84.0374 -116.993 58.8518 
-84.0261 -116.178 59.5754 -83.8088 -115.704 60.1239 -83.2735 -115.659 60.2868 
-82.6133 -115.542 60.309 -82.0513 -115.198 60.2769 -82.0198 -115.978 61.8329 
-82.4749 -116.339 61.9056 -82.3813 -117.567 63.201 -83.0636 -116.613 61.8885 
-82.8892 -117.937 63.2463 -82.8097 -119.406 64.5058 -83.6945 -116.757 61.8876 
-83.4881 -118.269 63.3253 -83.3772 -119.89 64.7286 -83.5588 -120.916 66.4577 
-84.0412 -117.172 61.6829 -83.9965 -118.702 63.4491 -83.9555 -120.506 65.0003 
-84.1444 -121.599 66.8568 -84.5799 -122.066 68.7319 -84.0724 -118.055 61.0331 
-84.1635 -119.453 63.2341 -84.4252 -121.194 65.1205 -84.8159 -122.394 66.9962 
-85.2999 -122.858 68.931 -85.6212 -123.306 70.3069 -84.011 -118.791 60.3258 
-84.0998 -120.239 62.5752 -84.5542 -121.821 64.7904 -85.3603 -122.976 66.7512 
-86.1452 -123.507 68.6036 -86.5771 -123.968 70.1508 -86.4444 -124.545 71.1284 
-83.7444 -118.947 59.9669 -83.8927 -120.515 61.9377 -84.3257 -122.169 64.1362 
-85.3091 -123.355 66.2095 -86.4728 -123.922 67.9894 -87.312 -124.408 69.5637 
-87.4335 -125.036 70.8154 -86.8836 -125.463 71.7847 -83.1762 -118.832 59.8328 
-83.3825 -120.306 61.5879 -83.7876 -122.059 63.5225 -84.7099 -123.532 65.5508 
-85.9218 -124.317 67.3616 -87.0679 -124.833 68.8888 -87.7719 -125.476 70.2304 
-87.6471 -125.989 71.3686 -86.92 -126.126 72.4163 -82.5568 -118.74 59.735 
-82.6834 -119.992 61.4004 -83.0175 -121.623 63.0851 -83.8609 -123.311 64.9034 
-84.9786 -124.481 66.7293 -86.0517 -125.185 68.2831 -87.0572 -125.882 69.5808 
-87.6196 -126.503 70.7325 -87.3632 -126.737 71.7885 -86.6129 -126.637 72.835 
-81.8277 -116.754 62.7242 -82.1226 -118.664 64.0419 -81.47 -117.773 63.5304 
-82.7538 -120.358 65.7577 -81.804 -119.711 65.0231 -81.0725 -118.752 64.4046 
-83.8349 -121.499 68.0743 -82.736 -121.144 67.1447 -81.5949 -120.555 66.1845 
-80.7679 -119.654 65.3601 -84.8539 -122.677 69.9931 -83.8646 -122.271 69.2297 
-82.5988 -121.924 68.2666 -81.4172 -121.289 67.2662 -80.3738 -120.528 66.2679 
-85.5275 -124.034 71.1461 -84.5796 -123.5 70.7328 -83.4188 -123.119 69.9732 
-82.2136 -122.605 69.0863 -81.0377 -121.848 68.164 -79.867 -121.14 67.1428 
-85.9579 -125.012 72.1156 -85.0561 -124.415 72.1734 -83.9997 -123.953 71.7464 
-82.807 -123.65 70.828 -81.6799 -123.052 69.8231 -80.5133 -122.195 68.9096 
-79.4115 -121.454 67.9337 -86.1668 -125.616 73.079 -85.4719 -124.933 73.6205 
-84.6391 -124.28 73.7001 -83.4473 -124.051 72.9341 -82.1966 -123.973 71.5923 
-81.0495 -123.423 70.3609 -79.9013 -122.549 69.3795 -78.8979 -121.747 68.4449 
-86.0786 -126.15 73.7553 -85.6243 -125.509 74.624 -85.0696 -124.715 75.098 
-84.0238 -124.17 74.7232 -82.6536 -124.191 73.4563 -81.4022 -124.251 71.9002 
-80.2683 -123.78 70.5943 -79.1692 -122.956 69.5636 -78.2386 -122.094 68.6757 
-85.7364 -126.74 73.6515 -85.4098 -126.325 74.7847 -84.676 -126.831 74.291 
-84.4142 -126.592 75.3623 -83.3983 -127.016 74.5287 -85.0561 -125.699 75.6311 
-82.8231 -126.85 75.3195 -81.8495 -127.359 74.3948 -83.7386 -126.024 75.8659 
-84.2176 -124.848 75.71 -80.8638 -127.118 74.9215 -80.1248 -127.827 74.0785 
-81.7185 -126.308 75.5627 -82.4754 -125.143 75.5275 -82.8255 -124.314 74.8364 
-79.0834 -127.444 74.3391 -78.4789 -128.239 73.6294 -79.8193 -126.606 75.0823 
-80.5666 -125.488 75.1835 -81.1564 -124.547 74.5263 -81.4477 -124.361 73.3647 
-77.6232 -127.598 73.6583 -77.0754 -128.384 73.1476 -78.3625 -126.818 74.3218 
-79.1489 -125.867 74.6714 -79.7348 -124.837 74.2281 -80.1204 -124.423 73.1604 
-80.3003 -124.369 71.8236 -76.2488 -127.429 73.1984 -75.8546 -128.177 72.7901 
-76.9262 -126.657 73.5672 -77.7971 -125.958 73.8135 -78.4775 -125.123 73.6143 
-78.8863 -124.457 72.8559 -79.1176 -124.259 71.6891 -79.1859 -123.874 70.4951 
-74.8802 -127.093 72.9553 -74.7392 -127.716 72.4149 -75.3483 -126.282 73.2111 
-76.1772 -125.632 73.1698 -76.9723 -125.098 72.8566 -77.5188 -124.477 72.3191 
-77.8968 -124.024 71.4847 -78.0749 -123.691 70.4083 -78.1346 -123.021 69.4398 
-73.7135 -126.767 72.5149 -73.7815 -127.22 71.7786 -73.9238 -126.015 72.9007 
-74.589 -125.277 72.8245 -75.4115 -124.787 72.3811 -76.0599 -124.319 71.8321 
-76.5981 -123.755 71.235 -76.9953 -123.291 70.3986 -77.1628 -122.796 69.4205 
-77.3022 -122.067 68.5834 -86.4523 -127.128 72.3279 -85.239 -127.087 72.9312 
-85.7883 -127.406 71.6739 -84.3207 -127.295 72.1537 -84.6279 -127.382 71.0195 
-83.8437 -127.084 73.3845 -83.1558 -127.483 71.42 -83.289 -127.24 70.2424 
-82.8386 -127.499 72.5314 -82.4988 -127.437 73.5777 -82.0491 -127.646 70.455 
-82.0862 -127.108 69.2414 -81.9138 -128.088 71.6421 -81.6751 -128.236 72.7179 
-81.1024 -128.095 73.5656 -81.0332 -127.54 69.3312 -81.0136 -126.794 68.3093 
-81.0632 -128.346 70.4314 -80.941 -128.909 71.5953 -80.3758 -128.975 72.6865 
-79.4355 -128.69 73.3737 -80.0123 -127.115 68.3785 -80.0039 -126.287 67.4556 
-80.0734 -128.032 69.2739 -80.0404 -128.84 70.1926 -79.4868 -129.282 71.3063 
-78.5578 -129.334 72.3786 -77.7244 -129.024 72.9671 -79.1196 -126.622 67.308 
-79.1657 -125.794 66.3551 -79.0626 -127.493 68.2672 -78.9759 -128.266 69.072 
-78.4718 -128.863 69.8525 -77.5456 -129.31 70.894 -76.795 -129.408 71.915 
-76.3481 -128.982 72.5042 -78.4495 -126.093 65.9802 -78.5364 -125.278 65.1295 
-78.2793 -126.937 66.9784 -78.0467 -127.632 67.9753 -77.5941 -128.164 68.75 
-76.7876 -128.717 69.5307 -76.0179 -129.123 70.5459 -75.6236 -129.027 71.4582 
-75.2999 -128.472 72.0316 -77.8576 -125.393 64.8067 -77.9803 -124.629 64.1016 
[...]
CELL_DATA 2000
SCALARS Distance double
LOOKUP_TABLE default
143.843 144.635 144.396 144.82 145.7 145.314 145.737 145.483 145.991 
146.909 146.434 146.744 146.434 146.929 146.741 147.339 147.878 147.486 
147.592 147.325 147.743 147.656 148.323 148.194 148.894 148.42 148.186 
148.217 148.015 148.414 148.408 149.182 149.183 150.01 149.85 150.631 
148.834 148.66 148.908 148.7 149.285 149.201 150.139 150.125 151.119 
151.002 151.891 151.68 152.528 149.536 149.318 149.918 149.685 150.556 
150.365 151.45 151.307 152.402 152.226 153.212 152.993 153.906 153.653 
154.486 150.63 150.362 151.207 150.982 152.013 151.821 152.934 152.754 
153.83 153.621 154.608 154.374 155.298 155.049 155.879 155.569 156.244 
151.939 151.673 152.593 152.395 153.424 153.268 154.313 154.172 155.182 
155.021 155.97 155.766 156.644 156.408 157.188 156.908 157.544 157.189 
157.689 143.449 143.108 143.549 144.182 142.733 143.192 143.832 144.381 
145.221 142.363 142.82 143.45 144.004 144.908 145.576 146.53 142.079 
142.524 143.152 143.622 144.45 145.181 146.256 146.937 147.708 141.777 
142.285 142.96 143.383 144.095 144.692 145.697 146.53 147.482 147.979 
148.382 141.395 141.949 142.681 143.184 143.909 144.398 145.282 145.985 
146.986 147.65 148.254 148.491 148.703 141.124 141.594 142.337 142.871 
143.663 144.199 145.061 145.657 146.599 147.226 147.961 148.327 148.68 
148.82 149.171 141.067 141.423 142.148 142.591 143.399 143.937 144.813 
145.402 146.275 146.877 147.623 148.081 148.576 148.81 149.229 149.449 
150.082 141.154 141.434 142.137 142.495 143.296 143.756 144.639 145.157 
145.986 146.516 147.221 147.727 148.32 148.711 149.265 149.548 150.201 
150.515 151.328 141.48 142.405 142.074 142.451 143.578 143.111 143.498 
143.168 143.656 144.873 144.343 144.715 144.337 144.855 144.503 145.025 
146.228 145.626 145.906 145.526 145.997 145.704 146.162 145.835 146.277 
147.773 147.053 147.223 146.678 147.016 146.714 147.104 146.844 147.189 
146.949 147.364 149.403 148.711 148.92 148.153 148.404 147.812 148.194 
147.787 148.208 147.869 148.31 148.042 148.494 150.887 150.355 150.754 
150.011 150.351 149.512 149.928 149.203 149.762 149.175 149.775 149.249 
149.777 149.288 149.667 152.276 151.843 152.415 151.858 152.377 151.613 
152.079 151.234 151.775 151.029 151.656 150.99 151.549 150.863 151.251 
150.546 150.795 153.643 153.26 153.899 153.486 154.123 153.57 154.097 
153.37 153.816 153.067 153.54 152.875 153.338 152.677 153.025 152.285 
152.525 151.741 151.96 152.948 153.505 153.709 154.747 154.01 154.249 
155.285 155.577 156.751 154.388 154.712 155.801 156.134 157.387 157.711 
159.007 154.699 155.085 156.302 156.694 158.091 158.451 159.875 160.107 
161.409 155.041 155.45 156.769 157.235 158.764 159.227 160.771 161.059 
162.418 162.536 163.697 155.291 155.788 157.092 157.663 159.186 159.821 
161.383 161.87 163.221 163.481 164.615 164.713 165.638 155.229 155.871 
157.072 157.796 159.197 160.016 161.492 162.225 163.516 164.026 165.108 
165.437 166.348 166.452 167.105 154.915 155.61 156.684 157.505 158.757 
159.725 161.103 162.05 163.299 164.032 165.071 165.638 166.559 166.941 
167.643 167.705 168.113 154.577 155.211 156.167 156.945 158.043 159.034 
160.312 161.413 162.656 163.595 164.611 165.354 166.246 166.884 167.651 
168.028 168.489 168.512 168.704 152.965 154.846 153.825 153.718 156.906 
155.832 155.769 154.676 154.58 159.157 158.016 157.989 156.816 156.707 
155.563 155.452 161.499 160.346 160.357 159.14 159.05 157.789 157.644 
156.451 156.322 163.725 162.654 162.653 161.508 161.43 160.189 160.018 
158.734 158.533 157.313 157.123 165.615 164.717 164.648 163.653 163.516 
162.437 162.221 161.043 160.747 159.52 159.206 158.027 157.752 167.03 
166.353 166.232 165.424 165.231 164.316 164.067 163.051 162.721 161.594 
161.182 160.02 159.618 158.528 158.199 168.01 167.527 167.419 166.802 
166.626 165.862 165.611 164.73 164.411 163.418 163.002 161.892 161.408 
160.295 159.85 158.843 158.468 168.62 168.326 168.273 167.849 167.736 
167.131 166.861 166.105 165.715 164.903 164.463 163.556 163.046 162.008 
161.467 160.422 159.934 158.987 158.563 168.749 168.763 168.751 168.569 
168.556 168.755 168.735 168.561 168.152 168.035 168.406 168.413 168.543 
168.13 167.914 167.229 167.336 167.707 167.596 167.93 167.479 167.549 
166.821 166.716 165.958 166.624 166.908 166.699 167.016 166.598 166.727 
166.041 166.065 165.379 165.378 164.695 165.863 166.111 165.833 166.138 
165.799 165.943 165.357 165.326 164.685 164.716 164.133 164.114 163.372 
164.996 165.247 164.844 165.182 164.815 165.127 164.611 164.697 164.029 
164.049 163.429 163.483 162.805 162.712 161.845 164.029 164.3 163.798 
164.09 163.615 164.001 163.506 163.803 163.162 163.302 162.618 162.725 
162.044 162.069 161.272 161.141 160.275 162.995 163.301 162.811 163.037 
162.507 162.793 162.297 162.624 162.073 162.314 161.674 161.838 161.173 
161.271 160.542 160.518 159.719 159.607 158.841 168.851 168.637 168.745 
168.655 167.997 168.296 168.135 168.386 168.295 167.086 167.541 167.488 
167.783 167.723 167.984 167.874 166.071 166.647 166.834 167.22 167.354 
167.563 167.581 167.632 167.421 164.965 165.65 165.965 166.572 166.876 
167.271 167.399 167.501 167.353 167.224 166.855 163.762 164.51 164.808 
165.579 165.872 166.562 166.673 167.114 166.958 167.095 166.732 166.621 
166.143 162.52 163.273 163.543 164.331 164.557 165.328 165.367 166.023 
165.85 166.343 166.044 166.296 165.882 165.84 165.309 161.281 162.017 
162.254 163.027 163.208 163.951 163.959 164.605 164.442 165.032 164.817 
165.335 165.048 165.343 164.89 164.898 164.314 160.05 160.757 160.926 
161.687 161.811 162.559 162.545 163.202 163.05 163.644 163.454 164.037 
163.806 164.298 163.916 164.213 163.678 163.77 163.179 154.708 155.341 
155.421 156.247 155.96 156.071 156.972 157.067 158.086 156.666 156.772 
157.789 157.878 159.017 159.13 160.364 157.422 157.562 158.66 158.782 
159.984 160.131 161.424 161.546 162.737 158.058 158.277 159.367 159.61 
160.778 161.03 162.254 162.501 163.659 163.774 164.709 158.615 158.836 
159.885 160.197 161.323 161.662 162.787 163.127 164.221 164.507 165.497 
165.584 166.377 159.158 159.363 160.355 160.655 161.743 162.099 163.167 
163.516 164.541 164.907 165.93 166.235 167.14 167.196 167.83 159.555 
159.825 160.728 161.053 162.034 162.423 163.399 163.786 164.693 165.099 
166.005 166.471 167.341 167.705 168.329 168.398 168.68 159.742 160.09 
160.923 161.291 162.151 162.57 163.427 163.866 164.657 165.097 165.825 
166.328 167.013 167.559 168.089 168.493 168.743 168.86 168.861 153.878 
152.833 153.742 154.491 151.735 152.65 153.367 154.3 155.038 150.614 
151.514 152.173 153.111 153.826 154.821 155.637 149.437 150.351 150.994 
151.915 152.612 153.584 154.406 155.465 156.354 148.24 149.133 149.789 
150.736 151.455 152.409 153.218 154.243 155.145 156.197 157.047 147.223 
147.997 148.632 149.531 150.255 151.232 152.022 153.053 153.933 155 
155.893 156.887 157.678 146.441 147.115 147.722 148.465 149.119 150.011 
150.75 151.783 152.628 153.745 154.661 155.742 156.601 157.543 158.274 
145.733 146.397 146.992 147.643 148.21 148.943 149.595 150.51 151.318 
152.402 153.323 154.464 155.365 156.42 157.183 158.095 158.709 145.036 
145.687 146.266 146.907 147.428 148.08 148.657 149.439 150.196 151.16 
152.064 153.143 154.046 155.127 155.903 156.903 157.523 158.416 158.914 
144.867 145.009 145.312 146.061 145.195 145.461 146.191 146.489 147.215 
145.446 145.679 146.42 146.666 147.442 147.694 148.484 145.736 145.965 
146.76 146.982 147.846 148.061 148.986 149.158 150.089 146.1 146.304 
147.17 147.397 148.36 148.588 149.636 149.821 150.873 150.97 151.981 
146.591 146.751 147.668 147.883 148.917 149.167 150.281 150.523 151.631 
151.797 152.83 152.917 153.904 147.171 147.31 148.251 148.451 149.507 
149.758 150.873 151.146 152.241 152.485 153.498 153.677 154.621 154.761 
155.68 147.776 147.918 148.865 149.059 150.096 150.345 151.416 151.692 
152.738 153.015 154.002 154.242 155.166 155.366 156.254 156.428 157.271 
148.381 148.532 149.475 149.665 150.667 150.904 151.923 152.186 153.182 
153.457 154.422 154.691 155.619 155.854 156.741 156.941 157.777 157.934 
158.683 149.023 150.452 149.868 150.168 151.998 151.376 151.696 151.073 
151.382 153.608 152.962 153.3 152.656 152.978 152.328 152.632 155.293 
154.614 154.972 154.304 154.662 153.981 154.298 153.6 153.886 157.007 
156.331 156.704 156.024 156.421 155.728 156.086 155.338 155.624 154.871 
155.131 158.613 158.011 158.397 157.764 158.183 157.519 157.907 157.166 
157.464 156.67 156.913 156.128 156.347 160.073 159.559 159.994 159.433 
159.902 159.285 159.7 158.986 159.294 158.513 158.756 157.95 158.152 
157.334 157.492 161.404 160.995 161.508 161.021 161.544 160.986 161.423 
160.755 161.063 160.316 160.562 159.783 159.985 159.159 159.288 158.438 
158.523 162.508 162.274 162.852 162.496 163.025 162.559 162.959 162.382 
162.645 161.995 162.21 161.523 161.706 160.947 161.037 160.204 160.216 
159.385 159.388 148.569 148.295 148.945 149.984 147.994 148.688 149.804 
150.45 151.541 147.658 148.406 149.589 150.293 151.472 152.074 153.177 
147.253 148.079 149.346 150.109 151.359 152.019 153.21 153.765 154.876 
146.825 147.69 149.068 149.899 151.213 151.911 153.131 153.77 154.966 
155.516 156.609 146.542 147.332 148.762 149.634 151 151.748 152.953 
153.638 154.851 155.541 156.738 157.256 158.256 146.479 147.133 148.473 
149.312 150.643 151.459 152.645 153.391 154.575 155.351 156.606 157.303 
158.412 158.846 159.718 146.561 147.09 148.269 148.998 150.212 151.018 
152.178 152.989 154.166 155.006 156.257 157.081 158.253 158.887 159.818 
160.215 160.98 146.717 147.144 148.191 148.787 149.902 150.598 151.729 
152.503 153.69 154.543 155.776 156.651 157.809 158.588 159.538 160.135 
160.884 161.332 161.991 147.643 146.11 147.013 147.29 144.48 145.391 
145.617 146.612 146.924 142.851 143.698 143.855 144.863 145.149 146.215 
146.537 141.351 142.068 142.098 143.038 143.269 144.371 144.668 145.769 
146.064 140.014 140.603 140.489 141.268 141.373 142.434 142.735 143.866 
144.151 145.247 145.572 138.863 139.33 139.166 139.735 139.733 140.591 
140.903 141.986 142.4 143.434 143.798 144.84 145.303 137.954 138.309 
138.216 138.606 138.637 139.194 139.521 140.371 140.948 141.894 142.444 
143.315 143.822 144.768 145.353 137.199 137.517 137.522 137.866 138.028 
138.409 138.766 139.321 139.921 140.697 141.401 142.201 142.819 143.57 
144.148 144.985 145.582 136.517 136.817 136.88 137.267 137.543 137.959 
138.365 138.791 139.298 139.874 140.532 141.283 141.982 142.719 143.33 
144.009 144.572 145.308 145.86 136.182 136.021 136.205 136.603 136.327 
136.262 136.707 136.865 137.417 137.063 136.794 137.208 137.186 137.774 
137.848 138.379 137.972 137.63 137.96 137.807 138.298 138.288 138.8 
138.818 139.311 138.891 138.519 138.785 138.568 138.968 138.851 139.306 
139.266 139.803 139.831 140.476 139.892 139.438 139.668 139.388 139.792 
139.59 140.056 139.889 140.466 140.42 141.155 141.183 141.939 141.003 
140.489 140.689 140.323 140.737 140.487 140.982 140.753 141.318 141.198 
141.928 141.931 142.706 142.685 143.339 142.078 141.61 141.808 141.402 
141.786 141.486 141.953 141.699 142.2 142.048 142.697 142.698 143.442 
143.447 144.098 144.011 144.565 143.018 142.643 142.877 142.51 142.867 
142.549 142.971 142.675 143.123 142.902 143.484 143.431 144.157 144.167 
144.851 144.776 145.347 145.222 145.782 143.583 144.555 143.871 143.54 
145.722 144.948 144.629 143.904 143.598 147.071 146.204 145.88 145.079 
144.775 144.019 143.71 148.638 147.67 147.366 146.444 146.165 145.297 
145.003 144.172 143.88 150.414 149.377 149.134 148.09 147.86 146.857 
146.634 145.648 145.408 144.472 144.297 152.347 151.282 151.112 150 
149.788 148.692 148.486 147.431 147.237 146.201 146.032 145.064 144.978 
154.28 153.266 153.134 152.044 151.841 150.697 150.441 149.327 149.091 
148.056 147.853 146.865 146.681 145.762 145.625 155.992 155.112 154.973 
154.008 153.834 152.756 152.51 151.34 151.059 149.925 149.681 148.644 
148.412 147.436 147.196 146.303 146.099 157.424 156.673 156.529 155.709 
155.56 154.649 154.461 153.4 153.139 151.969 151.692 150.539 150.282 
149.192 148.927 147.907 147.657 146.742 146.549 147.144 148.304 147.983 
148.603 149.647 149.273 149.925 149.577 150.28 151.102 150.731 151.461 
151.029 151.738 151.337 152.09 152.58 152.247 153.046 152.632 153.372 
152.91 153.665 153.246 154.072 154.009 153.727 154.521 154.173 154.906 
154.519 155.27 154.878 155.694 155.307 156.159 155.274 155.083 155.852 
155.572 156.276 155.957 156.69 156.389 157.178 156.874 157.675 157.347 
158.122 156.326 156.227 157.014 156.83 157.557 157.283 158.007 157.733 
158.486 158.231 158.962 158.709 159.405 159.146 159.783 157.259 157.204 
158.022 157.931 158.711 158.523 159.248 159.007 159.709 159.463 160.113 
159.868 160.471 160.261 160.847 160.629 161.132 158.126 158.104 158.931 
158.903 159.716 159.615 160.344 160.166 160.832 160.617 161.219 160.962 
161.489 161.243 161.765 161.579 162.094 161.866 162.277 140.488 140.331 
140.033 139.269 140.368 139.932 139.073 138.708 137.894 140.656 140.099 
139.287 138.696 137.819 137.382 136.751 141.051 140.484 139.773 139.132 
138.377 137.654 136.976 136.511 136.214 141.392 140.873 140.189 139.656 
139.039 138.4 137.794 137.092 136.671 136.258 136.153 141.776 141.25 
140.593 140.051 139.455 138.974 138.45 137.907 137.42 136.886 136.566 
136.245 136.103 142.236 141.735 141.172 140.556 139.945 139.384 138.852 
138.397 137.906 137.472 137.006 136.634 136.287 136.076 135.907 142.626 
142.212 141.709 141.169 140.556 139.946 139.348 138.813 138.296 137.843 
137.343 136.94 136.484 136.203 135.922 135.838 135.807 142.949 142.567 
142.07 141.626 141.027 140.497 139.877 139.337 138.806 138.299 137.837 
137.333 136.901 136.455 136.149 135.899 135.835 135.828 135.992 140.444 
139.247 139.966 140.24 137.926 138.717 139.095 139.899 140.38 136.82 
137.482 137.967 138.789 139.37 140.158 140.694 136.258 136.624 137.096 
137.777 138.382 139.153 139.709 140.462 140.94 136.117 136.268 136.59 
137.052 137.538 138.187 138.691 139.442 139.962 140.708 141.198 136.01 
136.118 136.267 136.589 136.933 137.419 137.865 138.489 139.062 139.784 
140.399 141.067 141.611 135.882 135.959 136.062 136.263 136.575 136.922 
137.404 137.86 138.497 139.075 139.803 140.404 141.059 141.597 142.177 
135.932 135.937 136.146 136.194 136.571 136.75 137.32 137.626 138.319 
138.734 139.486 139.978 140.692 141.171 141.804 142.271 142.904 136.209 
136.17 136.505 136.475 136.915 136.964 137.558 137.735 138.429 138.707 
139.412 139.777 140.468 140.891 141.55 141.983 142.632 143.085 143.751 
141.084 140.973 141.339 142.066 141.151 141.402 142.194 142.491 143.297 
141.433 141.668 142.476 142.75 143.604 143.854 144.665 141.642 141.903 
142.66 142.997 143.858 144.19 145.047 145.273 146.083 141.878 142.09 
142.812 143.122 143.954 144.352 145.258 145.62 146.511 146.748 147.613 
142.25 142.386 143.13 143.345 144.189 144.489 145.417 145.788 146.739 
147.1 148.006 148.282 149.134 142.779 142.839 143.603 143.758 144.627 
144.844 145.771 146.044 146.995 147.32 148.24 148.566 149.412 149.704 
150.505 143.501 143.471 144.232 144.304 145.14 145.308 146.188 146.434 
147.344 147.632 148.539 148.822 149.682 149.947 150.767 151.034 151.849 
144.342 144.274 145.014 145.002 145.764 145.831 146.615 146.804 147.653 
147.948 148.838 149.141 150.004 150.262 151.094 151.335 152.16 152.407 
153.217 147.542 146.939 146.856 146.054 146.346 146.256 145.452 145.333 
144.478 145.776 145.669 144.871 144.743 143.892 143.746 142.902 145.297 
145.132 144.335 144.181 143.346 143.185 142.356 142.218 141.451 144.953 
144.718 143.919 143.701 142.884 142.683 141.864 141.697 140.937 140.829 
140.14 144.683 144.42 143.607 143.341 142.529 142.289 141.496 141.271 
140.51 140.342 139.668 139.574 138.981 144.436 144.158 143.332 143.043 
142.214 141.965 141.201 140.97 140.242 140.006 139.336 139.165 138.604 
138.514 138.04 144.237 143.93 143.114 142.793 141.971 141.68 140.927 
140.697 140.008 139.784 139.117 138.905 138.316 138.187 137.709 137.653 
137.247 144.085 143.759 142.971 142.633 141.86 141.518 140.785 140.485 
139.803 139.557 138.889 138.673 138.036 137.891 137.365 137.312 136.892 
136.884 136.535 
POINT_DATA 1002
SCALARS Distance double
LOOKUP_TABLE default
144.192 143.341 143.998 145.002 144.909 145.269 146.034 146.162 146.18 
146.527 147.111 147.458 147.092 147.519 147.976 147.895 148.286 147.778 
148.364 149.093 149.618 148.385 148.597 148.381 149.088 150.098 150.844 
151.433 149.006 148.908 149.339 150.138 151.194 152.067 152.764 153.389 
150.042 149.661 150.711 151.622 152.594 153.422 154.149 154.807 155.263 
151.386 150.846 152.198 153.135 154.05 154.849 155.555 156.192 156.639 
156.831 152.792 152.182 153.604 154.474 155.333 156.167 156.898 157.48 
157.895 158.1 158.138 143.011 143.641 142.674 143.262 142.266 144.595 
142.933 141.895 144.158 145.973 142.748 141.599 143.78 145.414 147.383 
142.513 141.223 143.624 144.884 146.796 148.272 142.114 140.852 143.42 
144.688 146.278 147.888 148.614 141.819 140.703 143.082 144.491 146.007 
147.516 148.489 148.948 141.75 140.749 142.878 144.24 145.71 147.113 
148.247 149.004 149.742 141.804 140.908 142.859 144.154 145.524 146.728 
147.827 148.895 149.904 150.959 141.729 142.691 142.798 143.847 144.091 
143.958 145.094 145.438 145.209 145.401 146.35 146.9 146.279 146.506 
146.583 147.913 148.511 147.411 147.363 147.447 147.541 149.715 149.99 
149.139 148.668 148.557 148.628 148.768 151.367 151.31 151.185 150.735 
150.389 150.346 150.361 150.211 152.856 152.666 153.025 152.924 152.584 
152.357 152.269 152.021 151.526 154.261 154.004 154.582 154.765 154.606 
154.264 154.004 153.745 153.312 152.741 153.924 154.464 155.854 154.976 
156.416 157.985 155.42 157.012 158.735 160.305 155.834 157.655 159.609 
161.285 162.64 156.259 158.22 160.42 162.287 163.687 164.766 156.507 
158.518 160.826 162.906 164.473 165.688 166.462 156.345 158.368 160.708 
162.945 164.701 166.152 167.207 167.65 155.905 157.806 160.102 162.502 
164.454 166.062 167.465 168.259 168.432 155.471 157.129 159.199 161.637 
163.832 165.55 167.127 168.362 168.848 168.835 154.761 156.882 155.665 
159.182 157.905 156.552 161.556 160.337 158.911 157.469 163.769 162.635 
161.322 159.825 158.306 165.617 164.557 163.357 161.985 160.433 158.881 
166.981 166.101 165.036 163.812 162.367 160.749 159.226 167.952 167.327 
166.455 165.348 164.079 162.563 160.914 159.412 168.598 168.272 167.614 
166.517 165.286 164.028 162.548 160.942 159.451 168.819 168.84 168.633 
168.797 168.242 168.573 168.185 167.684 168.263 167.558 167.259 167.069 
167.349 166.832 166.077 166.399 166.408 166.444 166.005 165.291 164.776 
165.53 165.654 165.575 165.382 164.686 164.084 163.543 164.56 164.776 
164.444 164.428 164.026 163.379 162.827 162.048 163.567 163.746 163.269 
163.135 162.958 162.505 161.972 161.334 160.434 162.591 162.649 162.276 
161.977 161.781 161.481 161.04 160.508 159.786 158.936 168.903 168.517 
168.497 167.879 167.618 168.013 167.13 166.515 167.461 167.701 166.301 
165.4 167.074 167.532 167.517 165.252 164.246 166.346 167.211 167.458 
167.092 164.033 163.01 165.141 166.132 166.68 166.742 166.369 162.779 
161.771 163.821 164.712 165.262 165.615 165.781 165.5 161.503 160.569 
162.484 163.323 163.844 164.224 164.615 164.751 164.42 160.2 159.383 
161.078 161.874 162.441 162.866 163.275 163.529 163.47 163.144 154.652 
156.144 155.232 156.841 155.81 157.933 157.666 156.525 158.862 160.259 
158.497 157.247 159.818 161.273 162.743 159.09 157.84 160.517 162.003 
163.488 164.748 159.58 158.428 160.985 162.47 163.891 165.287 166.458 
160.084 158.964 161.402 162.843 164.189 165.545 166.961 168.004 160.429 
159.275 161.674 163.027 164.328 165.564 166.909 168.155 168.832 152.984 
153.596 151.925 152.433 150.853 154.077 151.262 149.733 152.828 154.58 
150.062 148.52 151.662 153.35 155.292 148.822 147.381 150.488 152.221 
154.089 156.056 147.794 146.498 149.287 150.994 152.855 154.856 156.769 
147.057 145.771 148.319 149.756 151.503 153.527 155.602 157.434 146.365 
145.065 147.557 148.76 150.275 152.179 154.266 156.227 157.89 145.635 