# vtk DataFile Version 4.0
vtk output
ASCII
DATASET POLYDATA
POINTS 1002 float
-76.4971 -108.859 61.53 -76.9196 -107.939 60.5786 -77.4787 -108.18 60.787 
-76.9417 -109.316 61.6545 -78.0482 -108.651 61.0264 -76.1211 -110.143 62.5291 
-77.21 -110.112 61.6946 -78.3503 -109.505 61.2888 -76.3775 -110.954 62.557 
-75.6607 -111.969 63.342 -77.1395 -111.248 61.6676 -78.1739 -110.682 61.3498 
-76.362 -112.095 62.4837 -75.7427 -113.132 63.3998 -74.9683 -114.232 63.965 
-76.8654 -112.51 61.4758 -77.6887 -111.903 60.9415 -76.2361 -113.401 62.3877 
-75.7116 -114.504 63.416 -75.0774 -115.548 64.2284 -74.3379 -116.467 64.7342 
-76.7596 -113.663 61.2488 -77.335 -112.955 60.4724 -76.3075 -114.653 62.353 
-75.8528 -115.862 63.4398 -75.3162 -116.931 64.4208 -74.7032 -117.712 65.2046 
-74.1425 -118.361 65.797 -77.0394 -114.687 61.5367 -77.4157 -113.948 60.6862 
-76.6745 -115.752 62.6471 -76.1997 -117.036 63.6657 -75.712 -118.161 64.6312 
-75.2273 -118.899 65.5936 -74.7184 -119.453 66.3696 -74.2209 -119.976 66.9468 
-77.6007 -115.736 62.443 -77.861 -115.042 61.5608 -77.2289 -116.776 63.3895 
-76.6531 -118.03 64.2138 -76.1195 -119.158 65.0679 -75.7606 -119.903 66.0708 
-75.3734 -120.414 66.9853 -74.8665 -120.924 67.6224 -74.3317 -121.401 68.0632 
-78.1872 -116.843 63.4302 -78.3944 -116.159 62.5277 -77.8169 -117.837 64.2399 
-77.2283 -118.993 64.8959 -76.6428 -120.057 65.6559 -76.2912 -120.832 66.6399 
-76.0256 -121.339 67.6133 -75.6115 -121.778 68.3643 -75.0761 -122.232 68.8554 
-74.5408 -122.613 69.1681 -78.6583 -117.886 64.1679 -78.8511 -117.167 63.2976 
-78.3322 -118.868 64.9248 -77.8735 -119.948 65.5379 -77.3843 -120.932 66.2728 
-76.9925 -121.737 67.2237 -76.6925 -122.332 68.1354 -76.3521 -122.743 68.9017 
-75.911 -123.064 69.5459 -75.4101 -123.354 69.986 -74.8953 -123.589 70.2255 
-77.7366 -107.282 59.8762 -78.4917 -107.519 60.2076 -78.6396 -106.727 59.2566 
-79.5173 -107 59.7173 -79.5708 -106.23 58.6213 -79.2328 -108.007 60.7206 
-80.4071 -106.529 59.1272 -80.5559 -105.586 58.0047 -80.3047 -107.488 60.4999 
-79.6105 -108.914 61.3199 -81.2943 -106 58.4754 -81.5163 -104.886 57.5002 
-81.162 -107.05 59.9926 -80.7751 -108.415 61.3692 -79.3996 -110.162 61.4633 
-82.2051 -105.58 57.8813 -82.2609 -104.53 56.8931 -82.0098 -106.692 59.1811 
-81.7538 -108.031 60.8816 -80.7 -109.677 61.587 -78.7675 -111.387 60.8566 
-82.9365 -105.383 57.1688 -82.7441 -104.544 55.971 -82.815 -106.373 58.3154 
-82.5083 -107.711 59.8362 -81.8013 -109.267 61.1524 -80.0805 -110.881 60.9839 
-78.1979 -112.457 60.2417 -83.4202 -105.324 56.2172 -83.0154 -104.692 54.9647 
-83.4707 -106.084 57.4462 -83.0515 -107.348 58.7371 -82.4528 -108.895 60.1525 
-81.2445 -110.436 60.7717 -79.3682 -112.046 60.3545 -78.0723 -113.61 60.3801 
-83.6604 -105.476 55.2736 -83.0898 -104.998 54.2088 -83.9855 -106.079 56.5433 
-83.6383 -107.201 57.8535 -82.9307 -108.661 59.1581 -82.0272 -110.083 60.1179 
-80.5199 -111.673 60.2878 -78.9809 -113.396 60.3055 -78.3376 -114.875 61.1085 
-83.6287 -105.928 54.6238 -83.0128 -105.544 53.7828 -84.2155 -106.494 55.7572 
-84.2163 -107.534 57.0909 -83.5692 -108.838 58.3908 -82.6711 -109.996 59.3969 
-81.429 -111.331 59.9026 -79.9235 -113.107 60.1577 -78.9381 -114.777 60.7864 
-78.7398 -116.038 61.9614 -83.172 -106.493 54.0409 -83.8729 -106.985 54.9676 
-83.2111 -107.576 54.5218 -83.8386 -108.302 55.5011 -83.0515 -108.688 55.0649 
-84.3881 -107.942 56.1812 -83.3695 -109.437 55.9847 -82.6032 -109.785 55.5247 
-84.0973 -109.453 56.6395 -84.1685 -109.228 57.5271 -82.5548 -110.517 56.4485 
-81.9566 -111.229 56.1139 -83.2203 -110.462 56.9593 -83.581 -110.539 57.7658 
-83.3031 -110.26 58.6546 -81.9102 -112.398 57.1614 -81.4961 -113.312 56.931 
-82.211 -111.781 57.4685 -82.4407 -111.592 57.9464 -82.4347 -111.438 58.6651 
-82.0495 -111.281 59.3641 -81.6891 -114.92 58.0799 -81.2473 -115.478 57.8807 
-81.7592 -114.134 58.4016 -81.568 -113.446 58.6656 -81.342 -113.038 59.0253 
-81.0382 -112.906 59.504 -80.5534 -112.987 59.9048 -81.4013 -116.904 59.2405 
-80.7993 -117.006 59.1665 -81.6557 -116.492 59.553 -81.4717 -115.778 59.8797 
-81.0462 -115.129 60.1426 -80.5349 -114.856 60.4143 -79.9879 -114.873 60.617 
-79.4547 -114.897 60.7168 -80.7975 -118.054 60.7709 -80.1555 -117.984 60.7949 
-81.3202 -118.015 60.8792 -81.5443 -117.602 61.1327 -81.4342 -116.962 61.4747 
-80.9891 -116.568 61.8064 -80.3058 -116.515 61.9668 -79.6445 -116.489 61.9339 
-79.142 -116.31 61.8971 -80.2448 -118.96 62.35 -79.6911 -118.897 62.3128 
-80.8508 -119.09 62.3171 -81.3722 -118.981 62.3461 -81.6709 -118.488 62.6042 
-81.5872 -117.991 63.0319 -81.0583 -117.843 63.3285 -80.3217 -117.832 63.3322 
-79.6851 -117.678 63.2181 -79.2205 -117.417 63.2043 -79.1489 -118.578 64.5177 
-79.6052 -118.822 64.5142 -79.4584 -120.127 65.8949 -80.1747 -119.078 64.5973 
-80.0101 -120.358 66.0758 -79.8861 -121.517 67.6213 -80.8603 -119.195 64.7 
-80.6061 -120.569 66.2211 -80.4909 -121.709 67.9527 -80.3161 -122.735 69.4657 
-81.499 -119.248 64.5773 -81.1964 -120.684 66.2515 -81.0745 -121.92 68.0811 
-81.0019 -122.999 69.78 -80.7431 -124.181 71.0523 -81.7843 -119.605 64.1366 
-81.6592 -120.956 65.9751 -81.5692 -122.244 67.9662 -81.6449 -123.393 69.7928 
-81.6312 -124.569 71.2751 -81.5957 -125.648 72.5018 -81.5786 -120.158 63.7179 
-81.7498 -121.519 65.4212 -81.8234 -122.822 67.4853 -81.9859 -124.004 69.4892 
-82.2261 -125.075 71.1803 -82.5499 -125.954 72.63 -82.8795 -126.531 73.9745 
-81.0342 -120.363 63.6344 -81.3633 -121.859 65.0338 -81.618 -123.287 66.8232 
-81.8419 -124.577 68.8499 -82.1607 -125.659 70.7801 -82.7274 -126.379 72.4635 
-83.4781 -126.806 73.9066 -83.918 -127.049 75.2383 -80.3903 -120.193 63.7044 
-80.7194 -121.713 64.9589 -81.0171 -123.224 66.4133 -81.2825 -124.64 68.174 
-81.625 -125.914 70.1115 -82.176 -126.784 72.0272 -83.0813 -127.26 73.6165 
-83.9761 -127.552 74.8957 -84.2868 -127.704 76.1114 -79.8201 -120.035 63.6274 
-80.1103 -121.457 64.8466 -80.3579 -122.91 66.1849 -80.5869 -124.293 67.7333 
-80.9659 -125.67 69.4268 -81.4841 -126.824 71.2941 -82.2301 -127.577 73.0647 
-83.2051 -128.063 74.4047 -83.9501 -128.349 75.5169 -84.0884 -128.425 76.6462 
-78.884 -119.543 65.3828 -79.2254 -121.136 66.8584 -78.5684 -120.635 66.1268 
-79.6668 -122.438 68.7105 -79.02 -122.132 67.7783 -78.2507 -121.641 66.9283 
-79.9773 -123.787 70.5054 -79.4046 -123.404 69.7164 -78.7693 -123.042 68.8178 
-77.8915 -122.512 67.9345 -80.5287 -125.346 72.1225 -79.7045 -124.833 71.4779 
-79.0792 -124.326 70.7077 -78.3249 -123.914 69.7545 -77.4583 -123.279 68.8128 
-81.767 -126.429 73.8682 -80.5449 -126.131 73.2879 -79.5467 -125.621 72.4335 
-78.6208 -125.183 71.3957 -77.7461 -124.71 70.2679 -77.0116 -123.844 69.4435 
-83.115 -126.85 75.5547 -81.8317 -126.716 75.3012 -80.5314 -126.508 74.409 
-79.2533 -126.237 73.1664 -78.0753 -125.888 71.8185 -77.2389 -125.195 70.7492 
-76.5929 -124.134 70.1157 -83.8344 -127.265 76.7726 -82.7821 -126.923 77.0004 
-81.5247 -126.768 76.4573 -80.1588 -126.747 75.2634 -78.6962 -126.647 73.768 
-77.5502 -126.179 72.3843 -76.8303 -125.286 71.443 -76.1603 -124.258 70.7574 
-83.8718 -127.934 77.481 -83.1016 -127.367 78.0187 -82.0467 -126.919 77.9354 
-80.8337 -126.77 77.161 -79.374 -126.828 75.8501 -77.9732 -126.679 74.3062 
-77.0445 -126.069 72.9739 -76.3882 -125.196 72.0009 -75.6582 -124.349 71.1325 
-83.5144 -128.765 77.5561 -83.0836 -128.263 78.3503 -82.5209 -129.054 78.1813 
-81.8697 -128.645 78.6785 -81.1135 -129.391 78.2136 -82.2187 -127.592 78.6571 
-80.1179 -129.043 78.4551 -79.2959 -129.641 77.8217 -80.8374 -127.916 78.7215 
-81.1259 -126.984 78.3972 -78.0507 -129.255 78.0957 -77.36 -129.763 77.389 
-78.905 -128.281 78.4314 -79.6225 -127.187 78.3969 -79.7773 -126.76 77.5516 
-76.3118 -129.381 77.6111 -75.7347 -130.033 76.7835 -77.0483 -128.552 77.9564 
-77.8375 -127.571 77.9796 -78.304 -126.892 77.466 -78.2757 -126.756 76.1176 
-75.0417 -129.568 76.6862 -74.5013 -130.248 75.8165 -75.702 -128.704 77.1127 
-76.398 -127.897 77.165 -76.9134 -127.193 76.8701 -77.1076 -126.72 75.9362 
-77.1091 -126.436 74.4857 -73.8951 -129.491 75.5888 -73.44 -129.983 74.7862 
-74.4512 -128.672 76.0626 -75.1164 -127.911 76.1596 -75.7093 -127.319 76.0082 
-76.0448 -126.741 75.4343 -76.2156 -126.207 74.3559 -76.3469 -125.729 73.1299 
-72.7488 -129.083 74.7034 -72.3882 -129.463 73.9584 -73.1346 -128.423 75.1982 
-73.6889 -127.709 75.2996 -74.359 -127.158 75.1379 -74.8787 -126.643 74.7794 
-75.1856 -126.058 74.0384 -75.4294 -125.493 73.0199 -75.6078 -124.948 72.0264 
-71.6767 -128.662 73.9694 -71.3816 -129.037 73.2921 -71.9732 -128.124 74.4659 
-72.4054 -127.492 74.5995 -73.0175 -126.932 74.3696 -73.6093 -126.436 74.0016 
-74.0221 -125.89 73.5128 -74.3418 -125.318 72.759 -74.6239 -124.771 71.8544 
-74.8055 -124.209 70.9962 -83.5512 -128.988 76.2232 -82.8729 -129.215 76.9878 
-82.5838 -129.239 75.4933 -81.789 -129.391 76.0026 -81.3472 -129.2 74.5371 
-81.7769 -129.404 77.4505 -80.4794 -129.481 74.7978 -80.059 -129.026 73.596 
-80.6492 -129.605 76.2428 -80.3353 -129.665 77.3073 -79.2074 -129.448 73.6499 
-78.9233 -128.779 72.6094 -79.3154 -129.79 74.8812 -79.2592 -129.848 75.9897 
-78.578 -129.859 76.781 -78.1165 -129.159 72.4021 -77.998 -128.488 71.3304 
-78.0136 -129.681 73.5814 -77.947 -129.965 74.6358 -77.645 -130.078 75.4313 
-76.7188 -130.138 76.2135 -77.2065 -128.764 70.9786 -77.1844 -128.127 69.9776 
-76.9681 -129.275 72.1372 -76.7215 -129.79 73.26 -76.5691 -130.223 74.0736 
-75.9994 -130.465 74.796 -75.1232 -130.52 75.4858 -76.4196 -128.319 69.7049 
-76.4399 -127.601 68.838 -76.1943 -128.865 70.6699 -75.8662 -129.458 71.679 
-75.6573 -130.113 72.5536 -75.2716 -130.505 73.3181 -74.5258 -130.592 74.0333 
-73.8609 -130.45 74.5377 -75.7274 -127.728 68.6209 -75.8075 -126.938 67.8339 
-75.5107 -128.387 69.445 -75.2094 -129.05 70.2131 -74.9468 -129.769 70.9199 
-74.5649 -130.231 71.6867 -73.8698 -130.3 72.5007 -73.1615 -130.198 73.16 
-72.7182 -129.95 73.6155 -75.1244 -127.015 67.5855 -75.2775 -126.222 66.9082 
-74.842 -127.728 68.3507 -74.5211 -128.435 69.0457 -74.2449 -129.158 69.6079 
[...]
CELL_DATA 2000
SCALARS Distance double
LOOKUP_TABLE default
145.202 145.846 145.695 146.188 146.645 146.402 146.895 146.832 147.509 
147.48 147.218 147.683 147.602 148.344 148.314 149.097 148.154 147.995 
148.484 148.433 149.251 149.241 150.14 150.025 150.825 148.698 148.642 
149.291 149.292 150.238 150.248 151.271 151.174 152.073 151.84 152.626 
149.477 149.369 150.258 150.237 151.328 151.328 152.436 152.369 153.341 
153.143 153.964 153.681 154.43 150.723 150.49 151.541 151.417 152.566 
152.499 153.608 153.545 154.54 154.402 155.254 155.014 155.762 155.461 
156.141 152.211 151.958 153.023 152.839 153.939 153.791 154.843 154.727 
155.721 155.597 156.497 156.292 157.073 156.783 157.469 157.128 157.732 
153.596 153.42 154.422 154.279 155.304 155.148 156.146 155.988 156.974 
156.823 157.761 157.559 158.379 158.098 158.798 158.459 159.064 158.679 
159.197 144.802 144.567 144.926 145.477 144.46 144.796 145.417 145.738 
146.35 144.331 144.716 145.412 145.776 146.481 146.733 147.29 144.163 
144.573 145.308 145.762 146.593 146.948 147.571 147.661 148.01 144.07 
144.453 145.206 145.651 146.553 147.042 147.815 147.99 148.291 148.221 
148.422 144.017 144.414 145.151 145.559 146.391 146.94 147.793 148.179 
148.587 148.524 148.587 148.554 148.94 143.906 144.341 145.042 145.454 
146.156 146.685 147.474 148.033 148.592 148.76 148.9 148.789 149.037 
149.219 149.989 143.82 144.217 144.938 145.328 146.034 146.45 147.198 
147.692 148.352 148.693 149.042 149.08 149.351 149.417 150.049 150.438 
151.425 143.9 144.194 144.966 145.314 146.15 146.48 147.308 147.61 
148.313 148.56 149.038 149.179 149.554 149.687 150.252 150.546 151.392 
151.881 152.843 144.258 145.229 144.92 145.334 146.252 145.979 146.499 
146.164 146.631 147.056 146.921 147.502 147.354 147.898 147.511 147.858 
147.785 147.588 148.05 148.1 148.635 148.582 148.89 148.553 148.706 
149.075 148.511 148.866 148.602 149.037 149.021 149.336 149.258 149.367 
149.152 149.237 150.941 150.197 150.636 149.869 150.261 149.693 150.049 
149.707 149.982 149.719 149.926 149.659 149.836 152.629 152.121 152.662 
151.922 152.33 151.437 151.784 150.965 151.362 150.721 151.149 150.618 
150.997 150.483 150.766 153.829 153.572 154.139 153.737 154.184 153.517 
153.847 153.009 153.375 152.549 153.009 152.251 152.708 151.987 152.373 
151.667 151.997 154.871 154.644 155.245 154.998 155.538 155.127 155.534 
154.922 155.278 154.571 154.975 154.239 154.646 153.874 154.229 153.449 
153.782 153.037 153.393 154.451 154.85 155.163 156.257 155.332 155.621 
156.743 157.066 158.225 155.785 156.117 157.249 157.588 158.77 159.084 
160.212 156.108 156.512 157.648 158.055 159.245 159.622 160.801 161.076 
162.182 156.359 156.785 157.942 158.402 159.635 160.072 161.325 161.677 
162.891 163.12 164.277 156.527 156.995 158.151 158.672 159.947 160.45 
161.763 162.201 163.478 163.816 165.016 165.247 166.337 156.447 157.029 
158.115 158.769 159.989 160.645 161.906 162.52 163.755 164.274 165.419 
165.823 166.858 167.141 168.021 156.105 156.767 157.763 158.53 159.628 
160.432 161.555 162.372 163.497 164.266 165.329 165.963 166.925 167.416 
168.27 168.592 169.274 155.711 156.344 157.291 158.048 159.069 159.883 
160.897 161.764 162.795 163.71 164.736 165.585 166.527 167.232 168.067 
168.613 169.306 169.645 170.14 154.606 156.438 155.499 155.491 158.4 
157.422 157.435 156.443 156.4 160.367 159.414 159.449 158.448 158.426 
157.369 157.271 162.317 161.365 161.42 160.457 160.478 159.448 159.382 
158.262 158.123 164.415 163.393 163.45 162.429 162.449 161.462 161.422 
160.373 160.221 159.092 158.882 166.508 165.557 165.623 164.538 164.494 
163.426 163.329 162.312 162.133 161.091 160.819 159.738 159.438 168.215 
167.506 167.577 166.645 166.545 165.479 165.281 164.199 163.943 162.893 
162.584 161.551 161.199 160.166 159.807 169.457 168.97 169.015 168.332 
168.189 167.334 167.068 166.081 165.729 164.673 164.275 163.235 162.831 
161.828 161.42 160.432 160.028 170.316 170.005 170.014 169.513 169.313 
168.672 168.345 167.595 167.176 166.297 165.792 164.826 164.303 163.348 
162.859 161.934 161.466 160.548 160.102 170.671 170.89 170.723 170.379 
170.714 170.767 170.426 170.205 169.641 170.089 170.373 170.037 170.038 
169.462 169.286 168.63 169.155 169.56 169.25 169.442 168.89 168.909 
168.273 168.171 167.465 168.25 168.602 168.334 168.576 168.1 168.221 
167.63 167.663 166.994 166.9 166.106 167.426 167.745 167.451 167.687 
167.254 167.424 166.893 166.977 166.336 166.322 165.569 165.447 164.611 
166.418 166.833 166.457 166.755 166.261 166.524 166.003 166.202 165.59 
165.641 164.902 164.845 164.054 163.942 163.145 165.22 165.692 165.305 
165.655 165.121 165.43 164.888 165.198 164.629 164.823 164.123 164.152 
163.377 163.336 162.574 162.496 161.742 164.076 164.497 164.165 164.5 
164.023 164.294 163.767 164.052 163.517 163.783 163.162 163.309 162.585 
162.624 161.884 161.875 161.151 161.097 160.374 170.693 170.407 170.745 
170.889 169.581 170.192 170.395 170.754 170.703 168.484 169.204 169.448 
170.028 170.063 170.379 170.105 167.337 168.08 168.345 168.993 169.072 
169.561 169.383 169.612 169.19 166.124 166.894 167.124 167.833 167.915 
168.505 168.402 168.791 168.509 168.679 168.293 164.861 165.618 165.777 
166.513 166.585 167.277 167.268 167.802 167.658 167.976 167.717 167.864 
167.502 163.619 164.342 164.478 165.156 165.23 165.923 166.001 166.653 
166.627 167.098 166.881 167.183 166.823 166.995 166.504 162.384 163.099 
163.245 163.902 163.978 164.628 164.71 165.389 165.395 165.981 165.755 
166.184 165.769 166.106 165.611 165.837 165.279 161.153 161.853 161.982 
162.659 162.718 163.381 163.413 164.091 164.052 164.676 164.441 164.934 
164.525 164.93 164.487 164.831 164.388 164.61 164.13 155.812 156.576 
156.578 157.423 157.402 157.43 158.31 158.302 159.191 158.15 158.26 
159.202 159.224 160.118 160.093 160.986 158.856 159.004 160.017 160.104 
161.06 161.052 161.972 161.931 162.874 159.549 159.724 160.747 160.891 
161.886 161.967 162.938 162.951 163.928 163.892 164.84 160.07 160.343 
161.323 161.552 162.502 162.691 163.646 163.811 164.802 164.906 165.877 
165.847 166.685 160.37 160.721 161.669 161.998 162.91 163.185 164.082 
164.353 165.303 165.587 166.567 166.754 167.634 167.595 168.272 160.601 
160.948 161.874 162.244 163.16 163.498 164.38 164.69 165.579 165.921 
166.845 167.208 168.099 168.339 169.062 169.035 169.523 160.808 161.151 
162.026 162.403 163.28 163.667 164.526 164.901 165.742 166.11 166.935 
167.329 168.135 168.542 169.268 169.549 170.077 170.079 170.357 155.007 
154.049 154.901 155.704 153.035 153.926 154.695 155.62 156.465 151.87 
152.849 153.601 154.555 155.335 156.32 157.147 150.61 151.618 152.383 
153.387 154.137 155.131 155.924 156.955 157.81 149.456 150.373 151.131 
152.134 152.912 153.912 154.706 155.725 156.587 157.641 158.512 148.483 
149.278 149.974 150.912 151.71 152.707 153.535 154.534 155.382 156.417 
157.273 158.314 159.078 147.623 148.329 148.943 149.794 150.561 151.539 
152.391 153.389 154.219 155.214 156.015 157.04 157.79 158.787 159.428 
146.858 147.485 148.037 148.79 149.494 150.415 151.254 152.252 153.073 
154.042 154.787 155.765 156.487 157.486 158.166 159.11 159.705 146.208 
146.762 147.274 147.923 148.552 149.371 150.155 151.118 151.934 152.892 
153.611 154.538 155.22 156.191 156.887 157.862 158.511 159.409 159.962 
146.038 146.16 146.42 147.103 146.365 146.592 147.316 147.566 148.367 
146.698 146.872 147.639 147.855 148.733 148.993 149.963 147.149 147.294 
148.119 148.29 149.232 149.459 150.486 150.729 151.738 147.654 147.807 
148.701 148.868 149.859 150.053 151.088 151.295 152.284 152.485 153.4 
148.217 148.36 149.295 149.484 150.49 150.698 151.708 151.903 152.857 
153.031 153.94 154.109 155.002 148.846 148.968 149.891 150.075 151.044 
151.27 152.231 152.46 153.389 153.591 154.516 154.691 155.633 155.775 
156.689 149.447 149.584 150.453 150.639 151.542 151.763 152.67 152.912 
153.834 154.082 155.034 155.266 156.238 156.429 157.369 157.487 158.333 
149.94 150.105 150.914 151.126 151.981 152.211 153.096 153.335 154.266 
154.524 155.504 155.765 156.744 156.984 157.915 158.108 158.95 159.058 
159.788 150.434 151.57 151.124 151.438 152.99 152.404 152.742 152.223 
152.554 154.633 153.974 154.326 153.681 154.03 153.421 153.733 156.298 
155.668 156.065 155.384 155.77 155.061 155.41 154.691 154.986 158.026 
157.384 157.865 157.177 157.627 156.901 157.308 156.527 156.851 156.029 
156.289 159.852 159.212 159.733 159.029 159.479 158.765 159.18 158.45 
158.785 157.967 158.192 157.336 157.529 161.453 160.971 161.427 160.831 
161.184 160.537 160.877 160.234 160.552 159.833 160.038 159.215 159.349 
158.521 158.666 162.621 162.327 162.707 162.291 162.577 162.068 162.362 
161.818 162.134 161.51 161.734 160.98 161.096 160.288 160.384 159.591 
159.682 163.511 163.314 163.71 163.398 163.731 163.327 163.677 163.221 
163.576 163.033 163.273 162.598 162.698 161.95 162.002 161.244 161.283 
160.515 160.513 150.037 149.787 150.31 151.154 149.516 150.088 151.006 
151.548 152.552 149.169 149.823 150.825 151.436 152.525 153.098 154.197 
148.759 149.474 150.551 151.249 152.426 153.091 154.261 154.793 155.86 
148.422 149.111 150.235 150.96 152.204 152.973 154.255 154.877 156.009 
156.46 157.54 148.302 148.886 150.004 150.664 151.89 152.705 154.091 
154.871 156.144 156.66 157.775 158.205 159.332 148.396 148.869 149.93 
150.48 151.608 152.358 153.724 154.641 156.051 156.773 157.952 158.44 
159.509 159.971 160.974 148.585 148.988 149.965 150.435 151.463 152.085 
153.328 154.217 155.633 156.549 157.802 158.484 159.502 160.041 160.957 
161.428 162.201 148.771 149.134 150.032 150.461 151.424 151.956 153.082 
153.832 155.137 156.049 157.308 158.145 159.177 159.853 160.718 161.283 
162.033 162.48 163.097 149.286 147.911 148.738 148.966 146.296 147.206 
147.426 148.359 148.608 144.734 145.528 145.68 146.667 146.923 147.931 
148.185 143.469 144.078 144.144 144.951 145.172 146.156 146.417 147.439 
147.707 142.266 142.892 142.934 143.578 143.743 144.531 144.764 145.666 
145.925 146.945 147.307 140.891 141.632 141.71 142.387 142.52 143.234 
143.456 144.2 144.444 145.267 145.631 146.652 147.182 139.603 140.296 
140.468 141.141 141.296 141.999 142.257 143.001 143.332 144.032 144.416 
145.193 145.745 146.714 147.36 138.691 139.209 139.484 140.05 140.312 
140.886 141.195 141.863 142.304 143.029 143.529 144.216 144.763 145.515 
146.156 147.033 147.667 138.127 138.476 138.755 139.244 139.617 140.118 
140.511 141.014 141.471 142.092 142.655 143.366 143.955 144.664 145.252 
145.993 146.595 147.393 147.948 137.958 137.876 138.07 138.518 138.047 
138.081 138.588 138.83 139.44 138.666 138.457 138.961 139.059 139.748 
139.888 140.458 139.602 139.245 139.655 139.581 140.235 140.305 140.901 
140.915 141.425 140.601 140.213 140.518 140.317 140.836 140.829 141.397 
141.4 141.926 141.937 142.546 141.621 141.211 141.469 141.164 141.588 
141.462 142.022 141.965 142.545 142.503 143.144 143.176 143.872 142.661 
142.25 142.496 142.126 142.512 142.28 142.866 142.735 143.394 143.261 
143.923 143.849 144.547 144.54 145.211 143.624 143.269 143.516 143.155 
143.513 143.241 143.808 143.666 144.356 144.215 144.862 144.703 145.336 
145.254 145.913 145.876 146.521 144.472 144.182 144.46 144.15 144.505 
144.23 144.74 144.591 145.243 145.149 145.777 145.63 146.195 146.06 
146.66 146.594 147.232 147.194 147.825 145.018 146.037 145.36 145.092 
147.366 146.537 146.264 145.496 145.22 148.914 147.988 147.708 146.812 
146.536 145.711 145.507 150.583 149.601 149.33 148.363 148.098 147.167 
146.958 146.123 146.008 152.364 151.336 151.092 150.069 149.836 148.833 
148.61 147.666 147.482 146.658 146.521 154.183 153.172 152.955 151.904 
151.683 150.638 150.415 149.389 149.153 148.19 147.972 147.127 146.948 
155.898 154.971 154.776 153.771 153.536 152.498 152.255 151.216 150.965 
149.927 149.672 148.68 148.463 147.576 147.423 157.474 156.627 156.455 
155.532 155.307 154.315 154.058 153.036 152.769 151.738 151.465 150.437 
150.178 149.196 148.997 148.11 147.984 158.922 158.146 157.991 157.147 
156.952 156.034 155.797 154.812 154.537 153.517 153.218 152.197 151.898 
150.907 150.646 149.718 149.53 148.683 148.56 149.148 150.138 149.879 
150.4 151.273 150.954 151.521 151.226 151.82 152.556 152.193 152.824 
152.472 153.161 152.805 153.534 153.924 153.562 154.252 153.878 154.63 
154.265 155.07 154.695 155.547 155.291 154.977 155.715 155.353 156.106 
155.757 156.559 156.236 157.072 156.758 157.607 156.566 156.336 157.113 
156.807 157.55 157.212 157.98 157.676 158.487 158.206 159.008 158.722 
159.456 157.704 157.555 158.355 158.143 158.9 158.613 159.358 159.063 
159.844 159.571 160.343 160.061 160.757 160.437 161.023 158.723 158.631 
159.435 159.307 160.084 159.889 160.633 160.388 161.115 160.865 161.565 
161.316 161.951 161.674 162.216 161.885 162.33 159.639 159.595 160.385 
160.316 161.092 160.987 161.741 161.581 162.279 162.058 162.675 162.433 
162.989 162.756 163.263 162.999 163.424 163.085 163.405 143.216 143.067 
142.756 142.022 143.11 142.667 141.845 141.511 140.757 143.214 142.742 
141.907 141.453 140.691 140.33 139.67 143.324 142.865 142.082 141.596 
140.885 140.434 139.764 139.361 138.771 143.491 143.034 142.315 141.822 
141.155 140.704 140.073 139.584 138.911 138.499 138.009 143.687 143.256 
142.559 142.074 141.392 140.966 140.375 139.933 139.303 138.77 138.2 
137.851 137.614 143.855 143.466 142.802 142.326 141.631 141.184 140.593 
140.21 139.659 139.193 138.628 138.168 137.817 137.613 137.573 144.048 
143.672 143.111 142.63 142.011 141.49 140.92 140.471 139.967 139.537 
139.001 138.557 138.103 137.824 137.643 137.596 137.616 144.355 143.961 
143.519 143.045 142.543 141.99 141.479 140.931 140.463 139.948 139.474 
138.958 138.507 138.096 137.846 137.672 137.667 137.658 137.754 143.204 
142.007 142.729 143.008 140.684 141.422 141.708 142.572 142.957 139.518 
140.105 140.317 141.182 141.625 142.535 142.936 138.631 139.07 139.242 
139.902 140.342 141.199 141.731 142.557 142.97 137.961 138.311 138.562 
139.054 139.491 140.119 140.683 141.438 142.016 142.722 143.191 137.625 
137.814 138.11 138.507 138.96 139.453 139.959 140.562 141.158 141.856 
142.456 143.084 143.586 137.609 137.66 137.87 138.13 138.513 138.945 
139.407 139.929 140.475 141.101 141.73 142.385 142.971 143.542 144.042 
137.663 137.68 137.778 137.917 138.17 138.505 138.947 139.418 139.989 
140.525 141.167 141.746 142.381 142.95 143.515 144.036 144.555 137.776 
137.727 137.782 137.817 137.997 138.211 138.647 139.049 139.692 140.162 
140.849 141.318 141.968 142.451 143.061 143.557 144.135 144.612 145.153 
143.866 143.732 144.115 144.817 143.725 144.065 144.731 145.101 145.787 
143.683 144.051 144.725 145.065 145.712 146.064 146.665 143.628 143.963 
144.632 145.027 145.73 146.074 146.714 146.954 147.542 143.765 143.954 
144.57 144.914 145.654 146.076 146.825 147.119 147.805 147.989 148.795 
144.129 144.202 144.777 144.957 145.654 146.008 146.803 147.199 147.987 
148.298 149.15 149.462 150.486 144.59 144.634 145.228 145.299 145.961 
146.136 146.897 147.21 148.053 148.434 149.338 149.743 150.714 151.146 
152.108 145.104 145.134 145.764 145.815 146.492 146.568 147.301 147.454 
148.291 148.577 149.527 149.908 150.884 151.285 152.184 152.575 153.354 
145.674 145.681 146.312 146.364 147.048 147.126 147.854 147.953 148.761 
148.945 149.878 150.175 151.159 151.487 152.384 152.679 153.452 153.736 
154.439 149.221 148.662 148.6 147.839 148.019 147.971 147.184 147.113 
146.276 147.379 147.302 146.526 146.455 145.67 145.56 144.786 146.827 
146.694 145.901 145.809 145.05 144.981 144.26 144.174 143.513 146.35 
146.181 145.344 145.197 144.376 144.321 143.563 143.57 142.85 142.879 
142.209 145.933 145.73 144.881 144.664 143.791 143.65 142.825 142.792 
141.983 142.034 141.245 141.393 140.708 145.63 145.372 144.552 144.264 
143.422 143.167 142.364 142.163 141.339 141.191 140.343 140.346 139.624 
139.838 139.328 145.459 145.155 144.386 144.041 143.26 142.931 142.196 
141.886 141.123 140.777 139.947 139.66 138.942 138.903 138.456 138.666 
138.423 145.38 145.061 144.357 143.985 143.267 142.888 142.198 141.837 
141.137 140.734 139.976 139.534 138.849 138.544 138.128 138.079 137.913 
138.046 137.964 
POINT_DATA 1002
SCALARS Distance double
LOOKUP_TABLE default
145.588 144.73 145.291 146.212 146.04 146.769 146.96 146.941 147.518 
148.244 147.76 147.746 148.334 149.185 149.867 148.486 148.237 149.213 
150.212 151.031 151.582 149.209 148.655 150.182 151.323 152.283 152.911 
153.388 150.245 149.533 151.323 152.484 153.505 154.238 154.746 155.157 
151.695 150.943 152.686 153.694 154.65 155.467 156.06 156.482 156.785 
153.237 152.455 154.138 154.997 155.84 156.676 157.35 157.81 158.117 
158.294 154.569 153.765 155.464 156.312 157.13 157.956 158.654 159.134 
159.449 159.627 159.671 144.388 145.104 144.211 145.076 144.096 146.073 
144.979 143.921 146.183 147.19 144.822 143.749 146.126 147.475 148.056 
144.791 143.673 146.007 147.529 148.448 148.382 144.782 143.599 145.882 
147.289 148.567 148.755 148.635 144.645 143.475 145.701 146.889 148.248 
148.967 148.988 149.494 144.532 143.455 145.641 146.765 147.944 148.87 
149.297 149.776 150.88 144.597 143.649 145.772 147.038 148.128 148.872 
149.379 149.997 150.987 152.31 144.53 145.636 145.525 146.779 146.455 
147.085 147.531 147.186 148.199 148.414 148.05 148.123 148.573 149.139 
149.124 149.367 149.74 149.188 149.357 149.518 149.465 151.489 151.599 
151.059 150.542 150.255 150.181 150.141 153.28 153.012 153.223 152.714 
152.103 151.734 151.54 151.319 154.429 154.053 154.714 154.618 154.212 
153.814 153.482 153.107 152.697 155.456 155.11 155.853 156.051 155.936 
155.689 155.422 155.035 154.546 154.105 155.486 155.901 157.387 156.418 
157.914 159.377 156.899 158.435 159.964 161.296 157.217 158.834 160.47 
161.971 163.283 157.454 159.16 160.915 162.594 164.11 165.439 157.597 
159.406 161.28 163.096 164.746 166.195 167.379 157.44 159.309 161.255 
163.189 164.983 166.531 167.851 168.837 157.011 158.842 160.737 162.676 
164.628 166.377 167.87 169.091 169.896 156.57 158.294 160.074 161.883 
163.829 165.754 167.452 168.88 169.95 170.576 156.443 158.439 157.426 
160.428 159.482 158.371 162.373 161.463 160.493 159.286 164.524 163.454 
162.432 161.343 160.037 166.71 165.636 164.393 163.163 161.895 160.526 
168.433 167.593 166.411 165.043 163.625 162.233 160.84 169.642 168.975 
168.003 166.794 165.356 163.848 162.413 161.01 170.479 169.924 169.041 
167.993 166.746 165.279 163.786 162.381 161.009 170.959 170.735 170.98 
170.588 170.577 169.958 169.957 169.736 169.571 168.86 168.994 168.741 
168.805 168.3 167.662 168.075 167.938 167.936 167.564 167.03 166.296 
167.226 167.117 167.053 166.776 166.341 165.643 164.771 166.159 165.979 
165.988 165.745 165.491 164.941 164.124 163.27 164.938 164.743 164.819 
164.559 164.361 164.037 163.394 162.616 161.839 163.812 163.675 163.746 
163.505 163.238 162.953 162.499 161.866 161.172 160.444 170.548 170.731 
169.945 169.903 168.899 170.556 168.815 167.741 169.63 170.007 167.686 
166.586 168.54 169.05 169.098 166.411 165.376 167.278 167.93 168.231 
168.205 165.07 164.14 165.854 166.627 167.25 167.498 167.455 163.817 
162.902 164.548 165.293 166.086 166.55 166.599 166.418 162.579 161.671 
163.341 164.047 164.792 165.311 165.407 165.303 165.115 161.31 160.479 
162.058 162.757 163.437 163.929 164.087 164.083 164.077 163.973 155.758 
157.407 156.566 158.318 157.325 159.205 159.14 157.988 160.15 161.002 
159.887 158.695 161.026 162.007 162.91 160.592 159.362 161.764 162.872 
163.938 164.938 161.076 159.773 162.303 163.442 164.628 165.844 166.85 
161.316 160.022 162.617 163.814 164.992 166.292 167.569 168.485 161.507 
160.275 162.801 164.064 165.266 166.48 167.766 168.963 169.74 154.158 
154.79 153.202 153.791 152.116 155.507 152.644 150.853 154.372 156.129 
151.361 149.621 153.15 154.895 156.75 150.142 148.611 151.897 153.695 
155.531 157.481 149.085 147.757 150.703 152.534 154.379 156.24 158.1 
148.15 146.966 149.601 151.385 153.256 155.025 156.783 158.489 147.343 
146.268 148.624 150.262 152.118 153.849 155.491 157.189 158.82 146.677 