# vtk DataFile Version 4.0
vtk output
ASCII
DATASET POLYDATA
POINTS 1002 float
-77.4793 -107.41 59.7222 -78.02 -106.322 58.9381 -78.5586 -106.625 59.2085 
-77.9867 -107.95 59.9457 -79.1444 -107.053 59.5566 -76.962 -109.118 60.4218 
-78.4297 -108.735 60.2124 -79.5869 -107.672 59.9758 -77.3711 -110.019 60.5878 
-76.5421 -111.11 61.3119 -78.6452 -109.808 60.4603 -79.7482 -108.696 60.1484 
-77.6445 -111.128 60.8356 -76.8212 -112.204 61.5638 -76.1825 -112.937 62.6014 
-78.6923 -111.167 60.4652 -79.6233 -110.101 59.881 -77.8441 -112.305 61.183 
-77.068 -113.308 61.9973 -76.4237 -114.068 63.0243 -75.8312 -114.875 63.9305 
-78.7602 -112.516 60.4289 -79.4564 -111.43 59.6046 -78.1386 -113.47 61.5527 
-77.4609 -114.308 62.6248 -76.7737 -115.171 63.5976 -76.1458 -116.114 64.4395 
-75.534 -117.154 65.04 -79.0388 -113.521 60.8832 -79.6155 -112.403 59.8955 
-78.5139 -114.503 62.11 -77.9305 -115.333 63.2892 -77.258 -116.307 64.2255 
-76.5832 -117.423 64.9501 -75.9841 -118.435 65.59 -75.4324 -119.247 66.1948 
-79.5393 -114.341 61.8276 -80.0802 -113.267 60.7931 -78.9341 -115.412 62.9154 
-78.3228 -116.411 63.9361 -77.7123 -117.526 64.799 -77.0798 -118.763 65.4629 
-76.5138 -119.777 66.0854 -76.0497 -120.403 66.8179 -75.5961 -120.837 67.5192 
-80.0225 -115.299 62.8174 -80.5226 -114.291 61.8969 -79.3637 -116.394 63.7054 
-78.7178 -117.511 64.5344 -78.1783 -118.699 65.3337 -77.6278 -119.928 66.0595 
-77.0759 -120.946 66.7143 -76.6602 -121.549 67.4451 -76.3117 -121.858 68.23 
-75.8951 -122.145 68.8395 -80.3445 -116.364 63.6047 -80.8084 -115.406 62.844 
-79.7233 -117.433 64.361 -79.1369 -118.562 65.1289 -78.7138 -119.741 65.9192 
-78.2861 -120.885 66.7126 -77.7315 -121.825 67.4686 -77.2461 -122.462 68.2091 
-76.9259 -122.83 68.9569 -76.6013 -123.078 69.6001 -76.1653 -123.345 70.02 
-78.866 -105.727 58.2434 -79.5504 -106.069 58.544 -79.8175 -105.179 57.5817 
-80.6312 -105.606 57.9053 -80.8783 -104.492 57.0556 -80.2454 -106.407 59.0436 
-81.7229 -104.993 57.421 -81.8823 -103.783 56.5472 -81.4299 -105.973 58.5324 
-80.8151 -106.895 59.6708 -82.6932 -104.353 57.0046 -82.7043 -103.253 55.9618 
-82.5822 -105.598 58.1161 -82.1925 -106.535 59.451 -81.0494 -107.881 59.9947 
-83.5894 -103.856 56.5441 -83.5068 -102.879 55.3502 -83.551 -105.243 57.671 
-83.4229 -106.501 59.2702 -82.5099 -107.587 60.1719 -80.7757 -109.269 59.7378 
-84.474 -103.503 55.971 -84.2467 -102.686 54.6487 -84.3781 -104.8 57.0751 
-84.2144 -106.408 58.7718 -83.6618 -107.684 60.2924 -82.083 -108.878 60.0352 
-80.3781 -110.538 59.2672 -85.0362 -103.427 55.2101 -84.5892 -102.778 53.8049 
-85.0737 -104.45 56.3461 -84.7821 -106.045 57.8797 -84.3323 -107.626 59.7662 
-83.1786 -108.784 60.185 -81.4743 -109.983 59.2665 -80.3746 -111.545 59.3163 
-85.0637 -103.698 54.3638 -84.5546 -103.12 52.9695 -85.3838 -104.537 55.5819 
-85.3218 -105.861 56.9078 -84.9281 -107.378 58.6903 -84.0176 -108.616 59.7329 
-82.5057 -109.702 59.2645 -81.1949 -111.011 58.9999 -80.6685 -112.596 60.1567 
-84.8308 -104.187 53.6268 -84.4725 -103.643 52.3112 -85.2488 -104.977 54.8952 
-85.5602 -106.094 56.1017 -85.4757 -107.347 57.5689 -84.7383 -108.477 58.8399 
-83.3671 -109.566 59.0256 -81.9604 -110.813 58.865 -81.185 -112.25 59.7097 
-80.963 -113.818 61.3466 -84.5966 -104.665 52.6324 -84.8511 -105.358 53.9684 
-84.6392 -105.972 53.0759 -84.8673 -106.727 54.2966 -84.6379 -107.448 53.4322 
-85.292 -106.333 55.2183 -84.7475 -108.046 54.5258 -84.4982 -108.95 53.8048 
-85.1574 -107.583 55.5077 -85.5848 -107.434 56.4949 -84.3557 -109.598 55.0354 
-84.0926 -110.58 54.6436 -84.5511 -108.834 55.8614 -84.9667 -108.592 56.8053 
-85.1454 -108.513 57.8076 -83.9935 -111.723 56.0726 -83.5366 -112.326 55.9121 
-84.0239 -110.874 56.6285 -83.981 -110.27 57.2738 -84.0583 -109.967 57.8909 
-83.8951 -109.705 58.5182 -83.6753 -113.756 57.2446 -82.8828 -113.85 57.2071 
-84.0798 -113.303 57.6311 -83.8502 -112.605 58.0783 -83.3544 -112.045 58.34 
-82.9155 -111.571 58.5576 -82.4728 -111.099 58.7587 -82.9547 -115.142 58.4235 
-82.0931 -115.102 58.539 -83.7974 -114.983 58.5893 -84.0551 -114.415 58.9699 
-83.5637 -113.802 59.2252 -82.7702 -113.426 59.363 -82.0855 -113.031 59.547 
-81.5889 -112.56 59.6724 -82.0448 -116.329 59.827 -81.3999 -116.352 60.0038 
-82.8181 -116.216 59.7659 -83.3707 -115.736 60.0156 -83.3733 -115.042 60.3923 
-82.9028 -114.666 60.6564 -82.2718 -114.584 60.9181 -81.714 -114.383 61.1946 
-81.3023 -114.052 61.3289 -81.4891 -117.665 61.3339 -81.0201 -117.656 61.4194 
-82.0189 -117.669 61.2358 -82.4686 -117.447 61.3952 -82.6756 -116.867 61.8512 
-82.6162 -116.273 62.2707 -82.3631 -116.033 62.497 -81.9812 -115.97 62.6772 
-81.5589 -115.811 62.8266 -81.1714 -115.584 62.8698 -80.7621 -117.089 64.0494 
-81.2205 -117.29 64.1313 -80.7229 -118.762 65.3661 -81.6914 -117.523 64.2202 
-81.2702 -119.038 65.6134 -80.868 -120.442 67.1164 -82.1134 -117.798 64.3349 
-81.821 -119.437 65.9368 -81.4345 -120.892 67.445 -81.2402 -122.398 68.7907 
-82.4204 -118.224 64.3809 -82.4189 -120.019 66.2333 -82.0847 -121.363 67.6894 
-81.8182 -122.907 68.9362 -81.8275 -124.517 69.9528 -82.5427 -118.858 64.0807 
-82.9391 -120.788 66.1951 -82.9311 -121.905 67.6525 -82.5728 -123.107 68.8084 
-82.5287 -124.768 70.0466 -82.5823 -126.016 71.3423 -82.4169 -119.367 63.4454 
-82.9706 -121.391 65.6629 -83.4057 -122.563 67.2798 -83.3339 -123.41 68.3715 
-83.3292 -124.763 69.7828 -83.4241 -126.032 71.5843 -83.3314 -126.627 73.3174 
-82.073 -119.422 62.9378 -82.47 -121.389 64.9495 -82.9279 -122.902 66.7619 
-83.2598 -123.984 67.9897 -83.6913 -125.166 69.3012 -84.0785 -126.262 71.2787 
-84.0946 -126.863 73.3784 -83.9343 -127.093 75.0691 -81.616 -119.21 62.7798 
-81.8462 -120.959 64.4378 -82.0286 -122.665 66.2233 -82.3621 -124.249 67.7559 
-83.1317 -125.705 69.0686 -83.9703 -126.806 70.7752 -84.3448 -127.438 72.8462 
-84.3556 -127.767 74.6757 -84.3169 -127.944 76.0737 -81.139 -119.034 62.7491 
-81.312 -120.569 64.1485 -81.3686 -122.227 65.708 -81.5473 -124.028 67.3559 
-82.2405 -125.753 68.8931 -83.1848 -127.005 70.4589 -83.8275 -127.793 72.2294 
-84.1378 -128.38 73.9432 -84.3222 -128.782 75.3624 -84.3874 -128.932 76.5324 
-80.199 -118.14 64.8311 -80.2227 -119.837 66.4417 -79.6374 -119.274 65.7295 
-80.5472 -121.608 68.3386 -79.8359 -121.031 67.5748 -79.2622 -120.499 66.6535 
-81.0873 -123.741 69.7443 -80.2439 -122.921 69.322 -79.5544 -122.37 68.4724 
-78.9588 -121.729 67.4915 -81.784 -125.687 71.0031 -80.8456 -124.962 70.6587 
-79.9388 -124.291 70.0624 -79.2012 -123.608 69.1623 -78.4633 -122.718 68.2825 
-82.5507 -126.588 73.0331 -81.6681 -126.342 72.5368 -80.6588 -125.937 71.8189 
-79.6436 -125.367 70.8215 -78.704 -124.43 69.8978 -77.8837 -123.375 69.0914 
-83.3061 -126.84 75.2629 -82.5281 -126.736 75.0329 -81.5686 -126.666 74.2918 
-80.4274 -126.506 72.9883 -79.2474 -125.929 71.6579 -78.2244 -124.896 70.7234 
-77.4756 -123.81 69.8814 -83.9583 -127.39 76.7192 -83.2906 -126.984 77.0027 
-82.309 -126.777 76.6756 -81.109 -126.754 75.5167 -79.8825 -126.691 73.8633 
-78.7565 -126.172 72.4643 -77.8337 -125.202 71.462 -77.1523 -124.116 70.5327 
-84.2687 -128.325 77.3858 -83.7637 -127.675 78.0058 -82.785 -127.118 78.1191 
-81.4818 -126.782 77.4834 -80.2366 -126.766 76.1123 -79.1954 -126.762 74.4704 
-78.2391 -126.308 73.0626 -77.3905 -125.407 71.9468 -76.7212 -124.357 70.9564 
-84.0938 -129.421 77.3396 -83.8331 -128.802 78.2272 -83.2131 -129.717 77.9469 
-82.6856 -129.219 78.6961 -81.8894 -129.995 78.1238 -83.0514 -128.079 78.721 
-81.073 -129.637 78.6907 -80.4574 -130.337 77.9546 -81.6051 -128.532 78.9245 
-81.7306 -127.358 78.5946 -79.3385 -129.98 78.4263 -78.8485 -130.641 77.6943 
-79.8488 -129.018 78.7392 -80.2368 -127.769 78.6014 -80.3427 -126.922 77.7859 
-77.6894 -130.245 77.8873 -77.1835 -130.957 77.1768 -78.2415 -129.42 78.2715 
-78.8029 -128.311 78.2695 -79.1925 -127.324 77.7124 -79.3162 -126.915 76.355 
-76.3941 -130.426 76.937 -75.9338 -131.128 76.3388 -76.9901 -129.633 77.3895 
-77.6221 -128.71 77.5381 -78.1494 -127.805 77.1789 -78.4216 -127.212 76.1744 
-78.4208 -126.849 74.65 -75.3305 -130.273 76.0389 -75.0535 -130.856 75.557 
-75.8321 -129.507 76.4199 -76.462 -128.694 76.6066 -77.0051 -127.973 76.3329 
-77.3381 -127.39 75.5666 -77.4559 -126.885 74.4267 -77.448 -126.265 73.1457 
-74.2833 -129.869 75.4217 -74.2615 -130.322 74.8374 -74.4911 -129.156 75.7998 
-74.9956 -128.376 75.9271 -75.5868 -127.76 75.6248 -76.0175 -127.268 74.951 
-76.2679 -126.75 74.0553 -76.439 -126.122 73.005 -76.5985 -125.306 71.9489 
-73.4197 -129.543 74.6208 -73.5303 -129.868 73.8643 -73.3424 -128.92 75.1656 
-73.5609 -128.154 75.364 -74.0855 -127.52 75.0751 -74.6439 -127.023 74.4598 
-75.0658 -126.488 73.7373 -75.3923 -125.881 72.8467 -75.692 -125.161 71.8328 
-75.9654 -124.275 70.8887 -84.1067 -129.695 76.0666 -83.5717 -130.032 76.7515 
-83.4724 -130.017 75.45 -82.7054 -130.181 75.9559 -82.5641 -129.885 74.6943 
-82.4531 -130.144 77.1631 -81.5484 -130.025 75.0504 -81.447 -129.587 73.7854 
-81.4201 -130.285 76.16 -81.1681 -130.426 77.1173 -80.2805 -129.822 74.0391 
-80.2878 -129.229 72.7882 -80.1765 -130.341 75.1583 -80.2288 -130.812 75.9573 
-79.8915 -130.91 76.8606 -79.2714 -129.562 72.8739 -79.2787 -128.73 71.7753 
-79.0885 -130.326 74.0659 -79.1414 -131.124 74.8744 -79.0614 -131.562 75.6142 
-78.2458 -131.385 76.6083 -78.5235 -129.113 71.6474 -78.4159 -128.145 70.7011 
-78.4142 -130.046 72.766 -78.2988 -131.028 73.7275 -78.1459 -131.89 74.3829 
-77.5019 -132.128 75.2533 -76.5807 -131.747 76.106 -77.7774 -128.479 70.4331 
-77.6924 -127.532 69.5166 -77.7794 -129.44 71.4187 -77.6633 -130.408 72.4454 
-77.4148 -131.434 73.1653 -76.8341 -132.203 73.7966 -76.0538 -132.241 74.6707 
-75.4716 -131.657 75.3494 -77.1023 -127.748 69.1969 -77.1641 -126.828 68.3111 
-77.0289 -128.696 70.0682 -76.927 -129.59 71.0442 -76.7448 -130.475 71.8959 
-76.289 -131.391 72.4261 -75.613 -131.929 73.0333 -75.0749 -131.72 73.8772 
-74.7071 -131.044 74.541 -76.6198 -126.949 68.0012 -76.7641 -125.997 67.2218 
-76.4337 -127.942 68.7182 -76.255 -128.852 69.5198 -76.1146 -129.593 70.4183 
[...]
CELL_DATA 2000
SCALARS Distance double
LOOKUP_TABLE default
143.933 144.653 144.464 144.961 145.508 145.285 145.841 145.706 146.425 
146.436 146.218 146.844 146.69 147.457 147.327 148.13 147.372 147.204 
147.903 147.76 148.569 148.42 149.249 149.089 149.923 148.267 148.182 
148.986 148.876 149.743 149.579 150.449 150.268 151.16 150.974 151.888 
149.201 149.15 150.091 150.012 150.965 150.806 151.738 151.544 152.507 
152.302 153.277 153.049 153.975 150.347 150.24 151.281 151.183 152.202 
152.062 153.058 152.892 153.919 153.726 154.743 154.498 155.432 155.137 
155.96 151.703 151.534 152.587 152.441 153.467 153.326 154.36 154.232 
155.301 155.153 156.184 155.967 156.887 156.597 157.399 157.057 157.766 
153.07 152.903 153.887 153.74 154.725 154.598 155.639 155.542 156.627 
156.514 157.533 157.351 158.237 157.99 158.764 158.463 159.152 158.796 
159.411 143.569 143.389 143.731 144.284 143.303 143.639 144.213 144.515 
145.107 143.206 143.592 144.249 144.534 145.119 145.389 146.006 143.086 
143.509 144.285 144.64 145.371 145.565 146.154 146.326 146.923 143.018 
143.429 144.291 144.724 145.678 145.97 146.712 146.702 147.144 147.194 
147.728 143.025 143.42 144.271 144.73 145.753 146.269 147.225 147.377 
147.804 147.582 147.793 147.89 148.48 143.011 143.436 144.234 144.674 
145.587 146.207 147.23 147.733 148.3 148.22 148.237 148.032 148.284 
148.634 149.462 142.928 143.376 144.175 144.608 145.462 146.001 146.979 
147.588 148.307 148.516 148.612 148.414 148.439 148.513 149.133 149.732 
150.785 142.908 143.29 144.11 144.547 145.436 145.918 146.863 147.383 
148.152 148.466 148.746 148.683 148.726 148.679 149.126 149.505 150.471 
151.153 152.238 143.247 144.262 143.936 144.418 145.417 145.017 145.495 
145.222 145.803 146.531 146.12 146.508 146.283 146.867 146.661 147.238 
147.711 147.199 147.434 147.154 147.613 147.551 148.065 147.96 148.352 
149.206 148.577 148.882 148.25 148.625 148.267 148.709 148.568 148.858 
148.747 148.828 150.703 150.238 150.795 150.068 150.512 149.701 150.083 
149.449 149.736 149.285 149.382 149.035 148.996 151.827 151.614 152.237 
151.884 152.336 151.691 151.923 151.128 151.299 150.543 150.712 150.004 
150.153 149.493 149.669 152.861 152.631 153.197 153.016 153.443 153.115 
153.285 152.738 152.81 152.166 152.349 151.65 151.939 151.15 151.499 
150.678 151.102 154.122 153.76 154.36 154.027 154.586 154.183 154.592 
154.022 154.317 153.652 153.997 153.336 153.766 153.067 153.501 152.723 
153.151 152.351 152.806 153.953 154.323 154.67 155.729 154.687 155.081 
156.218 156.519 157.662 154.997 155.484 156.767 157.107 158.352 158.606 
159.889 155.296 155.866 157.379 157.792 159.143 159.362 160.651 160.924 
162.255 155.612 156.245 157.961 158.524 159.983 160.188 161.347 161.59 
162.852 163.244 164.495 155.784 156.507 158.205 159.024 160.538 160.934 
161.96 162.167 163.25 163.691 164.961 165.373 166.441 155.676 156.464 
157.929 158.945 160.372 161.145 162.166 162.584 163.567 164.025 165.274 
165.77 166.936 167.196 168.052 155.398 156.153 157.378 158.365 159.618 
160.608 161.696 162.479 163.539 164.208 165.427 166.035 167.217 167.623 
168.535 168.704 169.406 155.114 155.789 156.865 157.699 158.813 159.746 
160.87 161.829 163.015 163.941 165.151 165.968 167.055 167.695 168.571 
169.004 169.703 169.935 170.505 154.104 155.863 154.955 154.906 157.8 
156.791 156.786 155.809 155.776 160.046 158.901 158.941 157.835 157.871 
156.79 156.779 162.458 161.284 161.325 160.127 160.174 159.023 159.043 
157.88 157.825 164.739 163.691 163.742 162.551 162.546 161.368 161.348 
160.174 160.057 158.871 158.691 166.644 165.82 165.924 164.893 164.89 
163.734 163.665 162.457 162.269 161.043 160.761 159.595 159.323 168.192 
167.54 167.687 166.894 166.938 165.964 165.87 164.726 164.474 163.224 
162.862 161.625 161.268 160.131 159.819 169.549 168.987 169.143 168.494 
168.527 167.763 167.61 166.691 166.363 165.29 164.862 163.685 163.246 
162.067 161.67 160.56 160.193 170.682 170.255 170.387 169.837 169.79 
169.129 168.859 168.104 167.684 166.862 166.403 165.477 165.002 163.949 
163.463 162.363 161.899 160.839 160.412 171.202 171.594 171.333 170.945 
171.492 171.521 171.204 170.889 170.284 171.062 171.245 170.955 170.885 
170.253 169.967 169.203 170.462 170.704 170.397 170.463 169.85 169.709 
168.932 168.712 167.947 169.732 170.002 169.687 169.839 169.311 169.255 
168.569 168.388 167.685 167.466 166.743 168.918 169.19 168.855 169.082 
168.628 168.705 168.115 168.035 167.378 167.211 166.506 166.258 165.444 
167.997 168.294 167.874 168.164 167.681 167.919 167.338 167.457 166.779 
166.781 166.024 165.918 165.073 164.847 163.919 166.964 167.29 166.804 
167.092 166.538 166.837 166.233 166.495 165.813 165.978 165.21 165.255 
164.411 164.335 163.433 163.243 162.322 165.9 166.243 165.794 166.029 
165.472 165.692 165.101 165.343 164.721 164.929 164.241 164.358 163.593 
163.601 162.777 162.684 161.828 161.655 160.805 171.322 171.267 171.498 
171.638 170.645 171.147 171.268 171.529 171.456 169.611 170.28 170.414 
170.9 170.89 171.185 171.038 168.404 169.136 169.327 169.936 170.061 
170.529 170.552 170.766 170.546 167.158 167.922 168.199 168.873 169.15 
169.729 169.935 170.29 170.226 170.269 169.914 165.878 166.687 167.032 
167.78 168.129 168.825 169.128 169.658 169.721 169.934 169.677 169.615 
169.161 164.547 165.387 165.723 166.559 166.874 167.696 167.958 168.695 
168.785 169.281 169.098 169.281 168.87 168.812 168.272 163.205 164.026 
164.301 165.158 165.401 166.28 166.457 167.313 167.356 168.091 167.929 
168.439 168.063 168.31 167.78 167.801 167.2 161.893 162.675 162.906 
163.712 163.912 164.744 164.886 165.719 165.742 166.522 166.371 167.042 
166.707 167.217 166.731 167.047 166.477 166.61 166.031 155.291 156.072 
156.119 157.019 156.876 156.946 157.905 157.931 158.891 157.764 157.832 
158.909 158.911 159.964 159.918 160.964 158.703 158.79 159.966 160.017 
161.212 161.156 162.312 162.166 163.258 159.571 159.709 160.876 161.045 
162.276 162.391 163.57 163.547 164.628 164.484 165.451 160.302 160.49 
161.579 161.826 162.996 163.275 164.403 164.582 165.563 165.631 166.526 
166.489 167.276 160.86 161.111 162.126 162.405 163.494 163.838 164.945 
165.231 166.213 166.366 167.251 167.343 168.182 168.152 168.806 161.24 
161.559 162.53 162.846 163.853 164.223 165.276 165.656 166.664 166.935 
167.857 168.02 168.903 168.973 169.727 169.59 170.052 161.487 161.848 
162.785 163.149 164.09 164.478 165.427 165.855 166.778 167.207 168.07 
168.449 169.259 169.551 170.268 170.374 170.872 170.687 170.907 154.388 
153.27 154.246 155.101 152.101 153.075 153.878 154.928 155.829 150.899 
151.867 152.631 153.668 154.549 155.66 156.639 149.751 150.675 151.453 
152.441 153.298 154.369 155.349 156.508 157.546 148.775 149.604 150.401 
151.326 152.166 153.15 154.071 155.198 156.244 157.431 158.451 147.958 
148.699 149.451 150.323 151.129 152.047 152.881 153.921 154.897 156.093 
157.144 158.314 159.247 147.248 147.906 148.57 149.374 150.116 150.998 
151.773 152.737 153.619 154.739 155.741 156.951 157.919 159.044 159.849 
146.635 147.207 147.781 148.486 149.148 149.973 150.715 151.632 152.465 
153.487 154.399 155.533 156.455 157.632 158.468 159.56 160.253 146.077 
146.59 147.076 147.695 148.277 149.024 149.733 150.598 151.415 152.364 
153.215 154.227 155.063 156.156 156.971 158.106 158.856 159.911 160.538 
145.899 145.919 146.216 146.879 146.092 146.305 147.026 147.304 148.082 
146.469 146.602 147.354 147.565 148.436 148.675 149.578 146.858 147.025 
147.805 148.001 148.94 149.164 150.17 150.345 151.316 147.236 147.424 
148.285 148.498 149.507 149.753 150.835 151.029 152.049 152.162 153.112 
147.831 147.937 148.903 149.064 150.143 150.374 151.507 151.722 152.771 
152.904 153.854 153.949 154.888 148.635 148.691 149.691 149.797 150.882 
151.068 152.199 152.407 153.477 153.626 154.606 154.701 155.666 155.758 
156.747 149.419 149.509 150.469 150.595 151.63 151.811 152.895 153.098 
154.165 154.336 155.368 155.49 156.515 156.596 157.614 157.674 158.647 
150.079 150.216 151.137 151.3 152.296 152.5 153.554 153.768 154.824 
155.018 156.075 156.255 157.329 157.467 158.504 158.57 159.514 159.532 
160.367 150.712 152.14 151.543 151.831 153.805 153.114 153.438 152.753 
153.054 155.617 154.879 155.239 154.49 154.819 154.069 154.364 157.489 
156.736 157.115 156.356 156.721 155.934 156.246 155.426 155.671 159.334 
158.619 159.029 158.278 158.701 157.904 158.281 157.41 157.691 156.772 
156.982 161.042 160.422 160.89 160.211 160.699 159.94 160.391 159.529 
159.878 158.911 159.152 158.142 158.309 162.629 162.087 162.599 162.021 
162.543 161.899 162.371 161.621 161.982 161.101 161.327 160.345 160.471 
159.444 159.501 164.108 163.654 164.197 163.684 164.214 163.65 164.111 
163.475 163.809 163.065 163.237 162.38 162.426 161.498 161.477 160.506 
160.453 165.323 165.045 165.62 165.227 165.768 165.269 165.722 165.128 
165.443 164.759 164.907 164.129 164.13 163.284 163.208 162.329 162.227 
161.322 161.219 150.257 149.926 150.605 151.657 149.546 150.275 151.417 
152.12 153.295 149.241 149.953 151.148 151.883 153.161 153.87 155.118 
149.038 149.755 150.988 151.669 153.004 153.762 155.16 155.808 157.059 
148.789 149.597 150.888 151.563 152.893 153.653 155.164 155.914 157.32 
157.817 158.962 148.476 149.333 150.676 151.423 152.721 153.517 155.031 
155.918 157.44 158.092 159.304 159.675 160.667 148.273 149.053 150.414 
151.18 152.462 153.256 154.673 155.652 157.18 158.082 159.373 159.943 
160.955 161.308 162.225 148.238 148.906 150.243 150.972 152.262 152.986 
154.286 155.179 156.589 157.611 158.948 159.808 160.909 161.488 162.424 
162.809 163.668 148.291 148.872 150.128 150.831 152.109 152.81 154.039 
154.791 156.049 156.955 158.243 159.213 160.404 161.241 162.247 162.853 
163.685 164.115 164.834 149.345 147.798 148.709 148.942 146.135 147.092 
147.3 148.239 148.494 144.404 145.403 145.626 146.566 146.764 147.752 
148.092 142.583 143.62 143.897 144.905 145.076 145.996 146.193 147.301 
147.733 140.821 141.737 142.007 143.13 143.424 144.363 144.462 145.373 
145.604 146.856 147.354 139.49 140.085 140.202 141.208 141.616 142.709 
142.997 143.811 143.946 144.829 145.194 146.466 147.045 138.608 138.979 
138.957 139.586 139.871 140.894 141.388 142.398 142.764 143.499 143.818 
144.631 145.159 146.301 146.952 137.843 138.211 138.227 138.604 138.738 
139.377 139.789 140.776 141.366 142.343 142.86 143.599 144.075 144.822 
145.409 146.397 147.05 137.133 137.495 137.629 137.993 138.181 138.55 
138.844 139.444 139.978 140.911 141.603 142.573 143.183 143.945 144.462 
145.179 145.739 146.622 147.229 136.865 136.839 136.986 137.387 137.125 
137.095 137.499 137.645 138.075 137.689 137.5 137.893 137.923 138.396 
138.402 138.803 138.482 138.165 138.517 138.434 138.936 138.87 139.291 
139.217 139.793 139.465 139.066 139.379 139.146 139.62 139.493 139.958 
139.823 140.393 140.436 141.313 140.538 140.138 140.446 140.086 140.467 
140.234 140.708 140.559 141.164 141.133 141.968 142.104 143.004 141.547 
141.211 141.512 141.148 141.438 141.118 141.536 141.359 141.992 141.946 
142.751 142.804 143.641 143.704 144.4 142.414 142.138 142.413 142.124 
142.403 142.082 142.468 142.242 142.87 142.796 143.592 143.593 144.383 
144.378 145.064 145.023 145.646 143.188 142.93 143.209 142.969 143.321 
143.046 143.492 143.236 143.859 143.719 144.493 144.44 145.217 145.16 
145.851 145.762 146.412 146.337 147.038 143.715 144.762 144.047 143.8 
146.233 145.314 145.052 144.252 144.014 147.93 146.934 146.676 145.711 
145.465 144.567 144.322 149.724 148.691 148.449 147.429 147.189 146.19 
145.951 144.981 144.774 151.704 150.591 150.382 149.272 149.041 147.977 
147.751 146.724 146.517 145.538 145.398 153.782 152.671 152.503 151.326 
151.107 149.931 149.711 148.595 148.396 147.346 147.173 146.204 146.077 
155.739 154.723 154.579 153.47 153.269 152.083 151.863 150.668 150.467 
149.312 149.118 148.029 147.834 146.851 146.683 157.535 156.605 156.48 
155.47 155.286 154.194 153.973 152.829 152.606 151.44 151.208 150.041 
149.794 148.676 148.443 147.434 147.252 159.188 158.343 158.247 157.313 
157.149 156.132 155.908 154.842 154.597 153.506 153.243 152.113 151.831 
150.679 150.419 149.301 149.099 148.059 147.919 148.717 149.942 149.7 
150.53 151.261 150.986 151.842 151.628 152.503 152.661 152.352 153.208 
152.973 153.885 153.63 154.465 154.074 153.773 154.631 154.374 155.316 
155.061 155.958 155.617 156.45 155.444 155.183 156.066 155.816 156.786 
156.543 157.511 157.181 158.067 157.677 158.564 156.785 156.565 157.499 
157.261 158.253 158.028 159.042 158.768 159.709 159.339 160.224 159.839 
160.709 158.048 157.907 158.881 158.693 159.674 159.472 160.447 160.241 
161.154 160.897 161.73 161.427 162.218 161.884 162.585 159.133 159.098 
160.067 159.99 160.93 160.803 161.687 161.533 162.34 162.168 162.891 
162.71 163.385 163.195 163.819 163.542 164.036 160.04 160.082 161.019 
161.039 161.94 161.908 162.737 162.643 163.383 163.234 163.884 163.714 
164.309 164.162 164.733 164.581 165.084 164.816 165.183 142.158 142.1 
141.713 140.965 142.142 141.679 140.822 140.495 139.846 142.164 141.706 
140.808 140.387 139.631 139.416 138.86 142.225 141.766 140.943 140.442 
139.648 139.257 138.552 138.369 137.764 142.363 141.913 141.223 140.711 
140.017 139.455 138.722 138.21 137.506 137.244 136.765 142.502 142.082 
141.415 141.006 140.421 139.945 139.336 138.676 138.015 137.358 136.883 
136.551 136.417 142.646 142.23 141.533 141.139 140.54 140.231 139.725 
139.306 138.742 138.112 137.589 137.017 136.757 136.487 136.473 142.842 
142.434 141.828 141.343 140.754 140.346 139.854 139.541 139.051 138.671 
138.125 137.674 137.23 136.884 136.659 136.518 136.484 143.112 142.726 
142.288 141.797 141.332 140.775 140.317 139.805 139.352 138.911 138.439 
138.033 137.599 137.248 136.961 136.719 136.628 136.534 136.625 142.084 
140.915 141.588 141.881 139.841 140.44 140.747 141.516 141.987 138.906 
139.457 139.744 140.434 140.94 141.724 142.224 137.856 138.507 138.806 
139.491 139.978 140.735 141.287 141.991 142.417 136.86 137.432 137.801 
138.525 139.028 139.795 140.347 141.081 141.543 142.175 142.565 136.471 
136.701 137.099 137.628 138.203 138.879 139.467 140.167 140.685 141.327 
141.784 142.39 142.888 136.51 136.577 136.917 137.208 137.796 138.262 
138.912 139.441 140.044 140.588 141.173 141.726 142.346 142.901 143.546 
136.551 136.622 136.901 137.128 137.652 138.028 138.681 139.098 139.74 
140.157 140.804 141.275 141.983 142.5 143.222 143.713 144.37 136.722 
136.699 136.985 137.116 137.591 137.899 138.515 138.92 139.558 139.961 
140.588 141.015 141.695 142.192 142.907 143.42 144.077 144.535 145.092 
142.781 142.656 143.059 143.85 142.774 143.077 143.872 144.242 145.054 
142.926 143.213 143.964 144.32 145.139 145.503 146.278 143.045 143.321 
144.022 144.378 145.193 145.598 146.437 146.752 147.517 143.227 143.465 
144.209 144.49 145.313 145.659 146.52 146.892 147.709 148.018 148.841 
143.566 143.73 144.541 144.782 145.621 145.871 146.674 146.977 147.764 
148.125 148.91 149.316 150.147 144.139 144.172 144.921 145.126 145.911 
146.165 146.867 147.126 147.813 148.149 148.903 149.302 150.084 150.522 
151.292 144.874 144.811 145.434 145.511 146.185 146.381 147.022 147.253 
147.889 148.19 148.938 149.314 150.131 150.502 151.299 151.651 152.416 
145.568 145.516 146.071 146.052 146.657 146.714 147.357 147.47 148.146 
148.335 149.11 149.412 150.278 150.621 151.476 151.785 152.606 152.885 
153.692 149.252 148.553 148.523 147.705 147.718 147.726 146.855 146.864 
146.001 146.925 146.868 145.98 145.958 145.069 145.102 144.238 146.429 
146.224 145.381 145.194 144.336 144.232 143.376 143.348 142.478 146.142 
145.901 145.107 144.791 143.937 143.669 142.835 142.646 141.813 141.672 
140.861 145.778 145.618 144.833 144.563 143.652 143.341 142.435 142.197 
141.371 141.175 140.42 140.246 139.612 145.41 145.228 144.469 144.233 
143.339 143.028 142.083 141.801 140.943 140.75 140.006 139.87 139.236 
139.151 138.659 145.271 144.976 144.274 143.949 143.15 142.776 141.929 
141.547 140.749 140.426 139.709 139.481 138.838 138.729 138.184 138.199 
137.779 145.292 144.961 144.302 143.911 143.172 142.737 141.975 141.541 
140.835 140.424 139.774 139.382 138.76 138.444 137.891 137.739 137.308 
137.333 137.033 
POINT_DATA 1002
SCALARS Distance double
LOOKUP_TABLE default
144.282 143.448 144.073 145.043 144.847 145.563 145.97 145.712 146.517 
147.2 146.981 146.623 147.59 148.27 148.925 148.019 147.485 148.718 
149.406 150.077 150.769 149.049 148.274 149.897 150.619 151.327 152.079 
152.82 150.132 149.202 151.096 151.907 152.692 153.505 154.25 154.858 
151.391 150.453 152.326 153.188 154.083 154.985 155.743 156.306 156.719 
152.764 151.897 153.611 154.467 155.429 156.394 157.176 157.745 158.148 
158.431 154.053 153.266 154.848 155.721 156.732 157.722 158.485 159.051 
159.499 159.811 159.991 143.189 143.936 143.046 143.939 142.928 144.767 
143.912 142.782 144.902 145.691 143.836 142.642 145.111 146.105 146.671 
143.812 142.601 145.229 146.699 147.336 147.435 143.85 142.626 145.152 
146.882 148.099 147.984 147.969 143.833 142.575 145.022 146.593 148.223 
148.583 148.154 148.736 143.723 142.489 144.972 146.394 147.955 148.748 
148.513 148.657 150.01 143.662 142.576 144.949 146.391 147.808 148.7 
148.796 148.874 149.852 151.555 143.505 144.646 144.64 145.769 145.846 
146.073 146.747 147.003 147.01 147.521 147.851 148.283 147.709 148.126 
148.555 149.602 149.737 149.199 148.975 149.033 148.993 151.378 151 
151.409 150.934 150.346 149.838 149.324 152.468 152.018 152.87 152.732 
152.106 151.448 150.855 150.286 153.412 153.156 153.716 153.75 153.38 
152.949 152.653 152.315 151.902 154.716 154.498 154.958 155.091 154.945 
154.636 154.413 154.237 153.956 153.6 154.996 155.418 156.776 155.874 
157.367 158.846 156.347 158.084 159.61 161.215 156.845 158.951 160.397 
161.95 163.602 157.262 159.781 161.22 162.427 164.181 165.703 157.324 
160.033 161.803 162.858 164.467 166.237 167.387 156.984 159.484 161.601 
163.094 164.752 166.607 167.969 168.803 156.523 158.631 160.744 162.745 
164.781 166.75 168.296 169.343 170.074 156.131 157.945 159.866 162.003 
164.299 166.376 168.042 169.377 170.39 171.052 155.819 157.78 156.762 
160.08 158.965 157.888 162.559 161.34 160.22 159.024 164.914 163.755 
162.546 161.281 159.869 166.848 166.014 164.904 163.547 161.981 160.434 
168.39 167.828 166.979 165.732 164.146 162.462 160.91 169.772 169.27 
168.489 167.369 165.996 164.448 162.831 161.272 170.922 170.471 169.631 
168.46 167.228 165.992 164.569 162.989 161.437 171.636 171.446 171.704 
171.417 171.36 170.752 170.962 170.867 170.491 169.52 170.29 170.233 
169.943 169.121 168.159 169.487 169.48 169.288 168.705 167.885 167.014 
168.607 168.671 168.474 168.126 167.518 166.736 165.773 167.605 167.717 
167.412 167.159 166.731 166.092 165.249 164.201 166.549 166.629 166.26 
165.943 165.599 165.113 164.429 163.558 162.541 165.554 165.519 165.281 
164.875 164.488 164.079 163.534 162.819 161.956 160.988 171.282 171.579 
170.944 170.92 170.074 171.308 169.849 168.914 170.475 170.89 168.648 
167.655 169.487 170.225 170.545 167.466 166.357 168.486 169.479 170.105 
170.036 166.241 165.039 167.391 168.513 169.395 169.668 169.335 164.883 
163.721 166.048 167.185 168.178 168.786 168.846 168.432 163.477 162.42 
164.547 165.609 166.579 167.313 167.691 167.655 167.256 162.128 161.132 
163.114 164.078 164.972 165.678 166.125 166.308 166.233 165.946 155.245 
156.984 155.99 157.868 156.773 158.865 158.857 157.666 160.003 161.025 
159.849 158.594 161.193 162.44 163.473 160.685 159.437 162.095 163.541 
164.731 165.681 161.351 160.12 162.703 164.193 165.477 166.486 167.415 
161.866 160.599 163.164 164.62 166.026 167.139 168.132 169.002 162.216 
160.91 163.511 164.886 166.325 167.643 168.791 169.788 170.392 153.425 
154.071 152.319 152.839 151.151 154.727 151.616 149.934 153.441 155.482 
150.479 148.846 152.269 154.188 156.38 149.493 147.99 151.236 152.999 
155.032 157.322 148.619 147.269 150.246 151.912 153.737 155.926 158.185 
147.833 146.646 149.263 150.844 152.568 154.557 156.743 158.831 147.146 
146.117 148.368 149.818 151.49 153.34 155.302 157.323 159.252 146.51 