# vtk DataFile Version 4.0
vtk output
ASCII
DATASET POLYDATA
POINTS 1002 float
-75.594 -107.098 57.5823 -76.1536 -106.354 56.5187 -76.83 -106.55 56.8732 
-76.1502 -107.481 57.9366 -77.5103 -106.749 57.4193 -75.0881 -108.304 58.6522 
-76.6727 -108.057 58.3091 -78.0711 -107.23 58.0416 -75.5193 -109.072 58.8426 
-74.7398 -109.975 59.548 -76.9769 -109.101 58.4276 -78.2853 -108.211 58.5456 
-75.7904 -110.106 58.8592 -75.0731 -110.974 59.6812 -74.4085 -111.789 60.454 
-76.9136 -110.479 58.2071 -78.162 -109.373 58.7388 -75.7594 -111.487 58.5255 
-75.1537 -112.126 59.6298 -74.7105 -112.816 60.7575 -73.9669 -113.734 61.4956 
-76.8006 -111.615 57.9587 -78.0491 -110.392 58.4843 -75.6728 -112.793 58.2445 
-75.0973 -113.42 59.4687 -74.8923 -113.957 60.9652 -74.3686 -114.875 61.9734 
-73.6315 -115.847 62.5979 -76.977 -112.568 57.965 -78.0535 -111.531 58.0094 
-75.9985 -113.696 58.5634 -75.3701 -114.529 59.7421 -75.1674 -115.203 61.2223 
-74.869 -116.104 62.4586 -74.234 -117.06 63.2305 -73.6369 -117.789 63.8386 
-77.2577 -113.767 58.3604 -78.0406 -112.911 57.9269 -76.5896 -114.632 59.3481 
-76.0401 -115.47 60.5357 -75.6776 -116.37 61.7483 -75.4005 -117.357 62.9572 
-74.9368 -118.246 63.9256 -74.3585 -118.918 64.6196 -73.8501 -119.466 65.2033 
-77.5134 -115.026 59.1896 -78.0848 -114.221 58.5037 -77.0774 -115.778 60.2774 
-76.6927 -116.528 61.4223 -76.2716 -117.464 62.4232 -75.8795 -118.508 63.4719 
-75.5011 -119.352 64.5542 -75.0404 -119.96 65.4066 -74.5375 -120.503 66.0097 
-74.0336 -121.022 66.4727 -77.8719 -116.047 60.216 -78.2988 -115.305 59.4071 
-77.534 -116.803 61.2288 -77.2357 -117.565 62.2523 -76.8607 -118.482 63.1445 
-76.415 -119.519 64.0543 -76.0138 -120.345 65.1138 -75.6315 -120.9 66.1017 
-75.1826 -121.418 66.7976 -74.6811 -121.949 67.2512 -74.1685 -122.375 67.574 
-77.1359 -105.849 55.809 -77.9749 -106.037 56.1931 -78.1176 -105.2 55.316 
-79.0544 -105.481 55.6943 -79.0077 -104.354 54.997 -78.7301 -106.219 56.8426 
-79.995 -104.667 55.5234 -79.7616 -103.552 54.5978 -79.755 -105.792 56.4012 
-79.2057 -106.71 57.8032 -80.7651 -103.68 55.4544 -80.3018 -103.003 53.725 
-80.6369 -105.03 56.3551 -80.0721 -106.414 57.6497 -79.3163 -107.64 58.9355 
-81.246 -102.966 54.788 -80.723 -102.585 52.3535 -81.384 -104.017 56.3322 
-80.9336 -105.847 57.5261 -80.2516 -107.399 59.2001 -79.3038 -108.669 59.6075 
-81.5285 -102.874 53.3743 -81.1896 -102.325 50.9788 -81.7735 -103.591 55.558 
-81.6859 -105.18 56.9328 -81.2785 -107.08 58.7287 -80.5169 -108.384 60.0308 
-79.3087 -109.691 59.2405 -81.7503 -103.306 51.8681 -81.5603 -102.453 49.9312 
-81.8525 -104.063 54.1732 -81.956 -105.14 55.7505 -81.9865 -106.733 57.3572 
-81.5981 -108.133 59.2698 -80.5431 -109.323 59.5506 -79.1518 -110.96 58.3644 
-81.8349 -103.895 50.7103 -81.665 -102.957 49.1466 -81.8262 -104.776 52.8449 
-81.8806 -105.622 54.5344 -82.1289 -106.718 55.8428 -82.162 -107.871 57.6504 
-81.4652 -108.985 58.9105 -80.1682 -110.503 58.5747 -78.8934 -112.416 58.0047 
-81.781 -104.453 49.8983 -81.6069 -103.682 48.5553 -81.7869 -105.24 51.7918 
-81.8042 -106.012 53.5164 -82.0506 -106.921 54.7359 -82.3059 -107.843 56.1467 
-82.0012 -108.753 57.6751 -80.99 -110.108 58.2441 -79.7448 -111.968 58.0872 
-78.791 -113.809 58.3789 -81.668 -104.933 48.8944 -81.7793 -105.495 50.5128 
-81.7707 -106.137 49.5789 -81.9954 -106.557 51.1026 -82.018 -107.466 50.2817 
-81.8549 -106.141 52.2773 -82.4072 -108.145 51.4623 -82.2349 -109.197 50.8041 
-82.2529 -107.395 52.4832 -82.0555 -107.07 53.6714 -82.5208 -110.04 51.8796 
-82.045 -110.943 51.4034 -82.6345 -109.199 52.6823 -82.4694 -108.518 53.8204 
-82.3464 -108.07 54.9778 -82.0499 -111.476 52.7087 -81.4287 -112.226 52.3963 
-82.4634 -110.753 53.2893 -82.503 -109.998 54.2494 -82.4177 -109.327 55.3863 
-82.2708 -108.884 56.5021 -81.3387 -112.798 53.9082 -80.739 -113.443 53.7898 
-81.8553 -112.067 54.2574 -81.9945 -111.289 54.9392 -81.9447 -110.673 55.8325 
-81.8253 -110.31 56.7134 -81.4873 -110.12 57.5356 -80.6878 -114.625 55.3375 
-80.1348 -114.941 55.4186 -81.2184 -114.056 55.4493 -81.4006 -113.239 55.8494 
-81.2544 -112.567 56.4333 -81.075 -112.335 56.9887 -80.7945 -112.246 57.4796 
-80.308 -112.078 57.8885 -80.0677 -116.429 56.9271 -79.5609 -116.35 57.0982 
-80.6166 -116.311 56.8911 -80.9805 -115.801 57.1079 -80.9185 -115.09 57.5174 
-80.5818 -114.705 57.8605 -80.217 -114.63 58.0697 -79.8095 -114.408 58.2768 
-79.3137 -114.048 58.4191 -79.4958 -117.662 58.5526 -79.0495 -117.425 58.6573 
-80.0334 -117.888 58.5007 -80.6078 -117.867 58.6204 -80.919 -117.416 58.9661 
-80.7148 -116.846 59.3207 -80.1749 -116.566 59.4338 -79.6525 -116.376 59.4266 
-79.2208 -115.985 59.4821 -78.7734 -115.562 59.507 -78.4486 -116.749 60.8803 
-78.9085 -117.135 60.9377 -78.8031 -118.357 62.4013 -79.3303 -117.58 60.9663 
-79.2348 -118.869 62.4958 -79.2083 -120.193 63.9321 -79.9063 -117.863 61.0972 
-79.7583 -119.215 62.6933 -79.7204 -120.736 64.1585 -79.7124 -121.93 65.5893 
-80.6712 -118.14 61.1666 -80.5713 -119.426 62.8902 -80.4716 -121 64.4117 
-80.4509 -122.354 65.8944 -80.4142 -123.239 67.4518 -81.1059 -118.723 60.8894 
-81.2576 -119.953 62.7185 -81.2642 -121.359 64.3515 -81.2861 -122.67 65.9706 
-81.2042 -123.587 67.7569 -81.0191 -124.199 69.6332 -80.7995 -119.235 60.4643 
-81.146 -120.638 62.259 -81.4238 -122.063 63.8954 -81.7086 -123.219 65.6098 
-81.7951 -124.076 67.6218 -81.499 -124.722 69.8011 -81.2898 -125.057 71.7307 
-80.0754 -119.201 60.2396 -80.393 -120.76 61.9725 -80.8357 -122.506 63.5006 
-81.3899 -123.826 65.0778 -81.8709 -124.674 67.0728 -81.8016 -125.424 69.4014 
-81.4965 -125.926 71.5258 -81.5657 -126.008 73.0547 -79.4158 -118.849 60.1827 
-79.615 -120.351 61.8858 -80.0606 -122.288 63.3702 -80.6738 -124.005 64.7172 
-81.3772 -125.074 66.4114 -81.7431 -125.936 68.6024 -81.6726 -126.714 70.8117 
-81.7149 -127.078 72.5054 -82.0234 -127.048 73.6363 -78.9301 -118.56 60.1306 
-79.0384 -119.962 61.7354 -79.4139 -121.811 63.2369 -79.9567 -123.716 64.4993 
-80.5985 -125.096 65.873 -81.1595 -126.071 67.7261 -81.4487 -126.988 69.8144 
-81.6784 -127.706 71.6189 -82.0333 -128.004 72.9455 -82.2816 -127.962 73.9314 
-78.172 -117.525 61.8894 -78.6208 -119.213 63.4996 -77.9003 -118.354 62.9272 
-79.0675 -121.08 65.1456 -78.3626 -120.126 64.6178 -77.5717 -119.304 63.8929 
-79.6138 -122.768 66.9451 -78.8279 -122.039 66.379 -78.004 -121.227 65.669 
-77.1413 -120.411 64.8106 -80.3333 -123.947 69.1561 -79.4021 -123.645 68.3919 
-78.4591 -123.087 67.5549 -77.5713 -122.288 66.6858 -76.6963 -121.34 65.8329 
-80.9704 -124.599 71.6634 -80.1525 -124.41 71.0234 -78.9892 -124.238 69.9285 
-78.0125 -123.778 68.7623 -77.1633 -122.944 67.7668 -76.3013 -121.913 66.901 
-81.4682 -125.181 73.493 -80.9139 -124.617 73.5186 -79.6842 -124.434 72.7707 
-78.4471 -124.446 71.3219 -77.6082 -124.197 69.8567 -76.7541 -123.437 68.7177 
-75.8541 -122.423 67.7285 -81.9668 -126.115 74.2845 -81.5441 -125.199 74.8369 
-80.4171 -124.606 74.857 -78.9718 -124.59 73.784 -77.9535 -124.889 72.0225 
-77.1773 -124.743 70.4904 -76.213 -123.961 69.3098 -75.304 -122.956 68.2296 
-82.244 -127.204 74.6288 -81.8732 -126.303 75.3047 -80.9377 -125.46 75.7565 
-79.5218 -125.035 75.3096 -78.2746 -125.259 73.7766 -77.4527 -125.53 72.0586 
-76.5859 -125.136 70.7643 -75.5626 -124.265 69.6387 -74.7247 -123.328 68.5354 
-81.9857 -128.281 74.6536 -81.7568 -127.574 75.4159 -80.8698 -128.349 75.2664 
-80.5239 -127.754 75.9786 -79.3076 -128.302 75.3655 -81.1414 -126.772 76.0422 
-78.9297 -127.926 75.9391 -77.6921 -128.659 75.0621 -79.8652 -127.097 76.3775 
-79.9979 -126.01 76.1236 -76.9895 -128.413 75.6967 -75.8996 -129.334 75.008 
-78.136 -127.34 76.2209 -78.7042 -126.417 75.9976 -78.6032 -125.719 75.0683 
-74.8329 -128.779 75.6947 -74.2179 -129.525 75.0054 -75.8683 -127.615 76.0339 
-76.9109 -126.577 75.7536 -77.4404 -126.107 74.6898 -77.5372 -125.9 73.3547 
-73.3688 -128.6 75.2619 -73.173 -129.165 74.304 -73.876 -127.667 75.6907 
-74.8981 -126.608 75.5127 -75.948 -126.03 74.6375 -76.5402 -125.907 73.2908 
-76.6892 -125.712 71.9673 -72.643 -128.247 74.0922 -72.3845 -128.735 73.1686 
-72.8715 -127.482 74.6979 -73.4936 -126.513 74.8102 -74.5066 -125.786 74.412 
-75.3469 -125.469 73.4502 -75.6827 -125.278 72.1358 -75.6674 -124.94 70.8254 
-71.766 -127.865 72.9502 -71.3512 -128.259 72.2948 -72.1029 -127.184 73.5032 
-72.5556 -126.25 73.779 -73.3052 -125.457 73.7014 -74.1075 -125.048 73.1625 
-74.5721 -124.787 72.1086 -74.6737 -124.503 70.8084 -74.6677 -124.075 69.5862 
-70.5972 -127.292 72.2321 -70.254 -127.651 71.7246 -70.9857 -126.69 72.656 
-71.4579 -125.827 72.9288 -72.0848 -125.015 72.9465 -72.8048 -124.603 72.5769 
-73.3913 -124.42 71.7359 -73.6885 -124.168 70.5789 -73.8087 -123.802 69.421 
-73.955 -123.226 68.43 -82.0121 -128.688 73.4918 -81.2975 -128.926 74.1262 
-81.1709 -129.028 72.6894 -80.1604 -129.307 73.11 -79.9361 -128.997 71.625 
-79.8511 -128.855 74.498 -78.9229 -129.417 71.8793 -78.7777 -128.8 70.5751 
-78.7345 -129.332 73.3273 -78.2555 -128.835 74.4018 -77.8453 -129.276 70.7446 
-77.7999 -128.546 69.5835 -77.705 -129.658 72.0829 -77.3133 -129.47 73.3465 
-76.7172 -129.356 74.2347 -76.8487 -128.935 69.6433 -76.7797 -128.045 68.6121 
-76.7113 -129.691 70.7816 -76.361 -129.966 72.1036 -75.8225 -129.978 73.2885 
-75.0786 -129.952 74.2316 -75.8597 -128.329 68.5738 -75.7432 -127.222 67.6994 
-75.7869 -129.407 69.4394 -75.4023 -130.114 70.5318 -74.8813 -130.368 71.8044 
-74.3149 -130.354 72.9299 -73.7096 -129.933 73.8025 -74.9261 -127.468 67.5557 
-74.8605 -126.36 66.7384 -74.9593 -128.687 68.3048 -74.627 -129.697 69.118 
-74.0461 -130.265 70.1351 -73.5226 -130.462 71.2307 -73.0827 -130.197 72.1842 
-72.7093 -129.499 72.8581 -74.1133 -126.594 66.4664 -74.1738 -125.642 65.6905 
-74.1483 -127.665 67.2517 -73.9264 -128.689 68.0481 -73.3589 -129.462 68.8549 
-72.7884 -129.948 69.7405 -72.3473 -130.04 70.6861 -71.9705 -129.617 71.4956 
-71.66 -128.936 72.021 -73.4803 -125.831 65.36 -73.6453 -124.966 64.7117 
-73.4117 -126.718 66.0822 -73.2079 -127.565 66.9179 -72.6878 -128.317 67.7265 
[...]
CELL_DATA 2000
SCALARS Distance double
LOOKUP_TABLE default
141.938 142.639 142.407 142.776 143.47 143.177 143.595 143.425 144.023 
144.45 144.094 144.518 144.312 144.951 144.831 145.544 145.394 145.075 
145.449 145.247 145.856 145.764 146.521 146.422 147.183 146.119 145.905 
146.267 146.13 146.731 146.657 147.465 147.421 148.307 148.169 149.015 
146.816 146.612 147.102 146.971 147.703 147.6 148.526 148.465 149.516 
149.403 150.397 150.148 151.033 147.78 147.513 148.221 148.014 148.931 
148.751 149.804 149.682 150.844 150.739 151.85 151.621 152.557 152.218 
153.049 149.001 148.725 149.594 149.357 150.369 150.149 151.23 151.064 
152.211 152.113 153.231 153.072 154.02 153.733 154.539 154.194 154.944 
150.301 150.067 150.987 150.792 151.798 151.612 152.65 152.487 153.562 
153.452 154.516 154.393 155.33 155.115 155.908 155.619 156.332 156.003 
156.648 141.668 141.57 141.874 142.377 141.434 141.814 142.376 142.634 
143.19 141.195 141.677 142.35 142.669 143.275 143.538 144.175 140.84 
141.419 142.17 142.619 143.338 143.675 144.384 144.62 145.215 140.334 
141.003 141.79 142.378 143.206 143.717 144.6 144.93 145.606 145.653 
146.047 139.851 140.493 141.344 141.973 142.87 143.515 144.554 145.129 
146.006 146.153 146.551 146.397 146.674 139.648 140.164 141.109 141.646 
142.579 143.174 144.209 144.943 145.953 146.441 146.965 146.928 147.095 
146.996 147.405 139.697 140.123 141.093 141.562 142.482 142.962 143.872 
144.524 145.474 146.167 146.825 147.135 147.364 147.362 147.633 147.775 
148.427 139.877 140.225 141.122 141.563 142.417 142.867 143.669 144.196 
145.023 145.648 146.358 146.841 147.252 147.466 147.786 147.954 148.513 
148.844 149.653 140.334 141.417 141.041 141.48 142.644 142.138 142.475 
142.193 142.688 144.148 143.483 143.77 143.268 143.717 143.418 143.95 
145.694 145.071 145.368 144.733 145.12 144.606 145.096 144.739 145.285 
146.86 146.453 146.706 146.244 146.514 146.025 146.347 145.933 146.321 
146.031 146.478 147.879 147.494 147.754 147.374 147.586 147.189 147.385 
147.032 147.292 146.995 147.292 147.065 147.356 149.216 148.706 149.148 
148.583 148.942 148.326 148.611 148.067 148.417 147.994 148.385 147.979 
148.294 147.897 148.114 150.697 150.239 150.854 150.274 150.843 150.077 
150.541 149.691 150.167 149.436 149.976 149.348 149.808 149.16 149.47 
148.822 149.052 151.966 151.671 152.322 151.964 152.637 152.097 152.692 
151.903 152.401 151.516 152.003 151.195 151.656 150.897 151.248 150.47 
150.741 149.972 150.242 151.255 151.781 152.026 153.123 152.318 152.58 
153.712 154.01 155.238 152.812 153.123 154.291 154.618 155.911 156.234 
157.51 153.314 153.662 154.908 155.227 156.56 156.919 158.265 158.534 
159.737 153.786 154.21 155.534 155.884 157.224 157.582 158.941 159.265 
160.502 160.704 161.786 153.959 154.554 155.837 156.393 157.691 158.172 
159.464 159.874 161.097 161.4 162.486 162.67 163.618 153.703 154.43 
155.562 156.374 157.611 158.372 159.599 160.21 161.377 161.854 162.95 
163.28 164.248 164.403 165.206 153.24 153.948 154.942 155.83 157.026 
157.995 159.235 160.078 161.214 161.902 162.978 163.549 164.555 164.924 
165.771 165.897 166.572 152.808 153.431 154.352 155.155 156.314 157.296 
158.561 159.53 160.674 161.514 162.53 163.306 164.274 164.952 165.816 
166.264 166.955 167.136 167.658 151.317 153.223 152.188 152.092 155.357 
154.229 154.147 153.046 152.947 157.623 156.465 156.4 155.21 155.112 
153.95 153.839 159.848 158.758 158.748 157.548 157.482 156.236 156.133 
154.898 154.785 161.929 160.958 161.026 159.906 159.883 158.659 158.56 
157.28 157.119 155.858 155.7 163.767 162.961 163.071 162.107 162.071 
160.968 160.829 159.645 159.429 158.182 157.911 156.69 156.443 165.3 
164.646 164.735 163.966 163.877 162.946 162.724 161.71 161.468 160.371 
160.076 158.864 158.516 157.317 156.997 166.63 166.05 166.106 165.446 
165.334 164.534 164.254 163.374 163.102 162.212 161.965 160.927 160.567 
159.369 158.946 157.773 157.398 167.736 167.272 167.307 166.722 166.611 
165.884 165.588 164.758 164.418 163.643 163.386 162.6 162.264 161.27 
160.771 159.646 159.139 158.064 157.643 168.189 168.386 168.225 167.806 
168.003 168.216 167.978 167.73 167.12 167.339 167.69 167.625 167.701 
167.201 166.868 166.063 166.812 167.058 166.965 167.182 166.775 166.718 
165.974 165.652 164.837 166.27 166.504 166.213 166.429 165.959 166.088 
165.436 165.38 164.669 164.449 163.773 165.387 165.742 165.316 165.553 
164.979 165.17 164.567 164.705 164.107 164.129 163.508 163.373 162.65 
164.265 164.688 164.267 164.541 163.954 164.155 163.574 163.795 163.262 
163.436 162.831 162.881 162.136 162.04 161.156 163.067 163.52 163.126 
163.45 162.874 163.104 162.497 162.765 162.234 162.509 161.918 162.066 
161.325 161.345 160.507 160.414 159.522 161.836 162.292 161.883 162.264 
161.687 161.972 161.326 161.621 161.053 161.398 160.85 161.096 160.423 
160.504 159.741 159.723 158.939 158.831 158.027 168.36 168.246 168.473 
168.464 167.494 168.052 168.061 168.246 167.955 166.411 167.121 167.262 
167.643 167.413 167.54 167.237 165.303 166.029 166.297 166.82 166.795 
167.007 166.835 166.938 166.795 164.122 164.906 165.202 165.868 166.012 
166.416 166.385 166.593 166.508 166.608 166.39 162.735 163.623 163.94 
164.735 164.946 165.557 165.601 166.026 165.938 166.214 165.962 166.04 
165.565 161.229 162.151 162.497 163.398 163.644 164.396 164.456 165.05 
164.959 165.423 165.167 165.43 164.96 165.017 164.417 159.793 160.643 
160.946 161.878 162.114 162.979 163.018 163.742 163.621 164.244 164.013 
164.471 164.06 164.286 163.724 163.799 163.194 158.514 159.253 159.472 
160.315 160.494 161.362 161.379 162.17 162.021 162.748 162.521 163.162 
162.828 163.266 162.778 163.009 162.444 162.554 161.97 152.857 153.537 
153.584 154.457 154.426 154.445 155.459 155.424 156.478 155.345 155.433 
156.536 156.543 157.651 157.62 158.721 156.097 156.295 157.382 157.534 
158.611 158.72 159.788 159.819 160.803 156.723 156.948 157.991 158.227 
159.28 159.511 160.576 160.742 161.747 161.776 162.663 157.318 157.529 
158.553 158.791 159.887 160.141 161.263 161.466 162.514 162.628 163.585 
163.591 164.426 157.787 158.05 159.033 159.325 160.432 160.757 161.908 
162.16 163.183 163.334 164.264 164.4 165.298 165.318 166.03 158.047 
158.385 159.301 159.685 160.72 161.175 162.271 162.678 163.636 163.889 
164.715 164.939 165.804 166.027 166.823 166.806 167.282 158.183 158.544 
159.416 159.833 160.796 161.299 162.315 162.832 163.751 164.147 164.916 
165.23 166 166.349 167.133 167.384 167.938 167.854 168.049 152.045 
150.93 151.841 152.606 149.757 150.672 151.41 152.432 153.344 148.64 
149.498 150.194 151.191 152.053 153.184 154.177 147.59 148.396 149.063 
150.004 150.809 151.861 152.791 153.975 154.945 146.567 147.325 147.939 
148.87 149.646 150.644 151.491 152.586 153.541 154.715 155.642 145.603 
146.287 146.788 147.681 148.409 149.442 150.275 151.327 152.23 153.35 
154.324 155.441 156.312 144.697 145.331 145.752 146.524 147.163 148.154 
148.994 150.082 150.977 152.074 153.001 154.131 155.04 156.103 156.846 
143.828 144.441 144.875 145.551 146.134 146.973 147.757 148.787 149.673 
150.776 151.646 152.774 153.629 154.764 155.54 156.559 157.162 143.058 
143.62 144.085 144.727 145.302 146.032 146.729 147.615 148.427 149.455 
150.286 151.374 152.18 153.307 154.09 155.188 155.867 156.822 157.346 
142.809 142.838 143.149 143.863 142.951 143.25 144.027 144.329 145.125 
143.159 143.429 144.251 144.549 145.417 145.691 146.565 143.49 143.722 
144.588 144.846 145.776 146.049 147.012 147.253 148.23 143.91 144.123 
145.038 145.271 146.27 146.518 147.571 147.794 148.839 149.033 150.062 
144.417 144.601 145.553 145.777 146.828 147.089 148.217 148.453 149.564 
149.728 150.784 150.923 151.953 145.023 145.181 146.172 146.36 147.44 
147.684 148.843 149.115 150.281 150.495 151.596 151.72 152.763 152.857 
153.866 145.647 145.823 146.849 147.041 148.142 148.353 149.503 149.748 
150.918 151.179 152.327 152.53 153.6 153.708 154.692 154.756 155.658 
146.227 146.43 147.458 147.701 148.804 149.054 150.177 150.415 151.536 
151.794 152.926 153.197 154.287 154.487 155.453 155.549 156.384 156.429 
157.162 146.879 148.443 147.795 148.172 150.332 149.529 149.903 149.193 
149.582 152.331 151.51 151.831 151.026 151.383 150.648 150.993 154.14 
153.441 153.751 152.962 153.272 152.497 152.838 152.069 152.374 155.796 
155.167 155.546 154.829 155.174 154.406 154.769 153.976 154.322 153.489 
153.783 157.465 156.85 157.284 156.61 157.015 156.297 156.687 155.927 
156.287 155.475 155.774 154.915 155.148 159.019 158.515 158.98 158.364 
158.786 158.111 158.488 157.782 158.106 157.37 157.629 156.845 157.026 
156.188 156.293 160.279 159.957 160.483 160.01 160.474 159.865 160.241 
159.539 159.834 159.107 159.345 158.602 158.756 157.964 158.019 157.187 
157.181 161.274 161.095 161.682 161.392 161.922 161.477 161.894 161.267 
161.56 160.829 161.064 160.307 160.473 159.665 159.704 158.85 158.798 
157.961 157.897 146.388 146.15 146.79 147.928 145.946 146.603 147.82 
148.505 149.823 145.725 146.425 147.694 148.432 149.83 150.536 151.866 
145.461 146.211 147.528 148.311 149.732 150.513 151.882 152.529 153.693 
145.194 145.952 147.306 148.132 149.553 150.37 151.727 152.457 153.67 
154.259 155.334 145.027 145.708 147.024 147.864 149.259 150.123 151.453 
152.24 153.483 154.183 155.367 155.929 157.006 145.032 145.589 146.806 
147.56 148.886 149.746 151.057 151.9 153.16 153.955 155.192 155.903 
157.045 157.585 158.548 145.164 145.628 146.76 147.382 148.628 149.379 
150.671 151.49 152.785 153.612 154.867 155.651 156.788 157.47 158.425 
158.963 159.757 145.337 145.757 146.832 147.371 148.549 149.185 150.426 
151.162 152.466 153.271 154.546 155.315 156.42 157.108 158.027 158.661 
159.455 160.012 160.712 145.427 143.844 144.79 145.111 142.172 143.108 
143.393 144.45 144.833 140.605 141.399 141.542 142.6 142.951 144.127 
144.54 139.188 139.877 139.83 140.702 140.901 142.093 142.501 143.773 
144.207 137.732 138.452 138.391 139.08 139.112 140.062 140.405 141.653 
142.161 143.443 143.938 136.448 137.048 137.113 137.735 137.812 138.499 
138.794 139.75 140.322 141.485 142.119 143.29 143.864 135.73 136.04 
136.14 136.613 136.818 137.395 137.758 138.47 139.06 139.955 140.676 
141.677 142.362 143.378 143.983 135.371 135.555 135.619 135.894 136.105 
136.556 136.967 137.593 138.186 138.941 139.638 140.477 141.178 142.062 
142.704 143.609 144.194 134.978 135.211 135.303 135.527 135.725 136.026 
136.393 136.882 137.426 138.104 138.743 139.522 140.175 140.992 141.62 
142.448 143.034 143.875 144.425 134.746 134.695 134.858 135.182 134.961 
134.983 135.373 135.409 135.728 135.493 135.396 135.811 135.765 136.125 
136.051 136.414 136.199 135.983 136.339 136.262 136.626 136.534 136.897 
136.851 137.374 137.1 136.738 137.011 136.826 137.189 137.066 137.445 
137.369 137.888 137.938 138.63 138.168 137.713 137.971 137.63 138.001 
137.744 138.144 137.969 138.477 138.471 139.167 139.275 140.042 139.268 
138.811 139.072 138.688 139.045 138.699 139.064 138.766 139.214 139.1 
139.766 139.839 140.634 140.729 141.49 140.282 139.869 140.088 139.749 
140.07 139.751 140.077 139.737 140.117 139.892 140.503 140.491 141.296 
141.367 142.164 142.193 142.909 141.157 140.803 140.983 140.682 140.981 
140.708 141.057 140.744 141.14 140.853 141.434 141.31 142.097 142.096 
142.909 142.906 143.633 143.607 144.283 141.652 142.531 141.876 141.563 
143.793 142.951 142.629 141.896 141.617 145.313 144.369 144.028 143.13 
142.814 142.034 141.747 146.963 145.971 145.655 144.656 144.346 143.401 
143.112 142.238 141.943 148.799 147.733 147.489 146.405 146.149 145.089 
144.854 143.821 143.579 142.576 142.354 150.795 149.694 149.517 148.379 
148.169 147.024 146.803 145.694 145.477 144.395 144.191 143.154 143.022 
152.81 151.741 151.599 150.476 150.291 149.122 148.885 147.711 147.458 
146.334 146.103 145.042 144.856 143.873 143.761 154.732 153.743 153.624 
152.549 152.371 151.236 151.013 149.83 149.581 148.382 148.137 146.983 
146.765 145.699 145.521 144.566 144.44 156.445 155.589 155.486 154.511 
154.324 153.26 153.036 151.923 151.697 150.537 150.303 149.102 148.864 
147.682 147.463 146.368 146.188 145.216 145.085 145.756 146.945 146.644 
147.3 148.302 147.964 148.688 148.325 149.035 149.76 149.417 150.184 
149.792 150.534 150.138 150.894 151.218 150.913 151.71 151.324 152.094 
151.695 152.519 152.113 152.949 152.602 152.357 153.2 152.858 153.662 
153.284 154.157 153.79 154.681 154.245 155.037 153.935 153.728 154.629 
154.347 155.192 154.85 155.69 155.375 156.209 155.881 156.598 156.189 
156.803 155.217 155.052 155.976 155.76 156.626 156.34 157.111 156.803 
157.498 157.218 157.833 157.541 158.084 157.755 158.29 156.354 156.271 
157.165 157.035 157.879 157.686 158.425 158.136 158.741 158.41 158.966 
158.669 159.239 158.948 159.517 159.189 159.719 157.28 157.291 158.146 
158.102 158.913 158.82 159.567 159.365 159.977 159.641 160.171 159.826 
160.413 160.123 160.751 160.436 160.991 160.602 161.038 139.098 138.847 
138.596 137.975 138.787 138.411 137.757 137.571 137.057 139.025 138.477 
137.771 137.427 136.816 136.631 136.032 139.532 138.864 138.087 137.543 
136.793 136.41 135.671 135.478 134.911 140.03 139.389 138.572 137.938 
137.109 136.508 135.686 135.232 134.647 134.519 134.314 140.411 139.825 
139.023 138.41 137.635 136.968 136.179 135.497 134.886 134.49 134.279 
134.232 134.243 140.748 140.207 139.463 138.864 138.178 137.561 136.894 
136.179 135.545 134.934 134.573 134.315 134.225 134.201 134.167 141.005 
140.563 139.904 139.344 138.694 138.126 137.533 136.918 136.329 135.671 
135.194 134.708 134.474 134.249 134.185 134.128 134.165 141.186 140.827 
140.278 139.797 139.199 138.656 138.083 137.527 137 136.417 135.977 
135.413 135.143 134.691 134.605 134.324 134.392 134.291 134.482 139.121 
138.015 138.659 139.042 137.066 137.62 137.937 138.714 139.328 136.041 
136.649 136.891 137.624 138.179 139.106 139.831 135.007 135.583 135.876 
136.575 137.081 137.952 138.665 139.616 140.266 134.458 134.759 135.131 
135.672 136.238 136.948 137.631 138.477 139.181 140.017 140.561 134.321 
134.453 134.732 135.109 135.658 136.247 136.918 137.592 138.276 139.018 
139.667 140.374 140.905 134.198 134.31 134.448 134.738 135.145 135.689 
136.308 136.948 137.596 138.249 138.911 139.586 140.212 140.824 141.339 
134.23 134.223 134.385 134.499 134.862 135.22 135.82 136.364 137.034 
137.626 138.293 138.925 139.587 140.199 140.76 141.288 141.737 134.574 
134.447 134.685 134.63 135.021 135.139 135.741 136.063 136.766 137.193 
137.879 138.388 139.062 139.63 140.234 140.753 141.233 141.689 142.109 
139.88 139.867 140.243 141.073 140.217 140.428 141.279 141.547 142.398 
140.703 140.868 141.662 141.862 142.7 142.967 143.879 141.031 141.255 
141.937 142.181 142.964 143.284 144.201 144.53 145.422 141.223 141.445 
142.055 142.324 143.094 143.491 144.48 144.871 145.787 146.01 146.688 
141.521 141.652 142.274 142.456 143.241 143.609 144.665 145.138 146.14 
146.398 147.066 147.134 147.691 141.926 142.027 142.69 142.806 143.575 
143.828 144.788 145.256 146.235 146.646 147.338 147.5 148.036 148.158 
148.857 142.286 142.424 143.091 143.257 143.986 144.189 144.973 145.32 
146.133 146.581 147.277 147.624 148.202 148.45 149.122 149.405 150.222 
142.624 142.753 143.394 143.595 144.285 144.511 145.195 145.454 146.141 
146.473 147.163 147.519 148.19 148.525 149.236 149.582 150.363 150.718 
151.49 145.335 144.728 144.618 143.765 144.114 143.994 143.128 143.008 
142.152 143.529 143.383 142.53 142.394 141.573 141.449 140.677 143.034 
142.838 141.976 141.814 140.987 140.881 140.099 140.018 139.258 142.646 
142.403 141.546 141.315 140.468 140.302 139.46 139.363 138.514 138.49 
137.7 142.368 142.087 141.284 140.985 140.191 139.905 139.105 138.826 
137.986 137.77 137.003 136.957 136.389 142.218 141.906 141.176 140.835 
140.114 139.769 139.075 138.697 137.978 137.546 136.866 136.539 136.073 
135.97 135.719 142.173 141.853 141.203 140.838 140.163 139.78 139.11 
138.749 138.092 137.699 137.039 136.639 136.108 135.869 135.563 135.516 
135.344 142.215 141.892 141.329 140.961 140.346 139.913 139.233 138.813 
138.133 137.772 137.092 136.752 136.104 135.86 135.378 135.32 135.018 
135.089 134.883 
POINT_DATA 1002
SCALARS Distance double
LOOKUP_TABLE default
142.179 141.495 142.145 142.902 142.876 143.25 143.759 143.783 144.129 
144.694 144.748 144.828 145.055 145.674 146.269 145.661 145.704 145.95 
146.568 147.326 147.958 146.362 146.304 146.788 147.46 148.372 149.226 
149.867 147.18 146.975 147.77 148.556 149.566 150.614 151.355 151.879 
148.392 147.98 149.097 149.931 150.928 152.041 152.897 153.423 153.847 
149.808 149.222 150.589 151.425 152.336 153.372 154.282 154.883 155.314 
155.672 151.175 150.51 151.983 152.826 153.703 154.651 155.528 156.183 
156.66 157.024 157.25 141.368 142.114 141.23 142.1 140.974 142.917 
141.959 140.654 142.993 143.92 141.646 140.225 142.908 144.117 145.119 
141.143 139.644 142.584 144.131 145.559 146.143 140.7 139.218 142.195 
143.834 145.702 146.763 146.755 140.582 139.15 142.051 143.497 145.3 
146.865 147.273 147.269 140.643 139.303 142.06 143.342 144.782 146.344 
147.273 147.556 148.085 140.734 139.596 141.993 143.203 144.466 145.823 
146.912 147.578 148.232 149.229 140.673 141.719 141.862 142.837 143.237 
142.872 144.378 144.834 144.099 144.182 146.003 146.248 145.725 145.54 
145.57 147.112 147.225 147.007 146.815 146.692 146.705 148.149 148.27 
148.007 147.751 147.596 147.594 147.583 149.704 149.68 149.598 149.228 
148.861 148.8 148.77 148.539 151.34 151.078 151.526 151.411 150.993 
150.653 150.483 150.179 149.7 152.599 152.227 153.031 153.36 153.31 
152.906 152.454 152.035 151.535 150.991 152.268 152.821 154.282 153.388 
154.929 156.505 153.951 155.539 157.269 158.76 154.584 156.193 157.952 
159.577 160.877 155.144 156.878 158.603 160.269 161.662 162.824 155.211 
157.16 159.038 160.753 162.273 163.529 164.507 154.724 156.756 158.921 
160.841 162.54 164.043 165.178 165.937 154.094 156.013 158.311 160.474 
162.329 164.07 165.557 166.581 167.2 153.604 155.363 157.567 159.807 
161.741 163.523 165.235 166.659 167.629 168.146 153.122 155.286 154.036 
157.607 156.31 154.991 159.91 158.73 157.408 156.004 162.092 161.081 
159.842 158.433 156.923 163.975 163.154 161.986 160.664 159.193 157.621 
165.459 164.775 163.709 162.486 161.259 159.78 158.149 166.755 166.107 
165.124 163.934 162.894 161.746 160.179 158.512 167.862 167.305 166.422 
165.22 164.105 163.162 161.887 160.249 158.658 168.561 168.254 168.347 
168.05 167.615 167.634 167.41 166.999 167.421 166.55 166.772 166.674 
166.721 166.186 165.19 166.074 166.066 165.802 165.36 164.767 164.057 
165.089 165.009 164.788 164.353 163.992 163.568 162.903 163.967 163.821 
163.748 163.328 163.045 162.752 162.175 161.333 162.773 162.609 162.638 
162.239 161.927 161.732 161.273 160.528 159.662 161.495 161.403 161.383 
161.042 160.698 160.537 160.285 159.715 158.981 158.175 168.374 168.487 
167.881 167.793 166.81 167.908 166.763 165.662 167.235 167.102 165.664 
164.586 166.467 166.689 166.719 164.47 163.312 165.477 166.096 166.376 
166.436 163.09 161.806 164.263 165.102 165.611 165.835 165.621 161.56 
160.323 162.844 163.827 164.441 164.831 164.84 164.424 160.049 159.009 
161.232 162.268 162.961 163.464 163.746 163.596 163.155 158.702 157.832 
159.666 160.587 161.283 161.821 162.28 162.459 162.279 161.9 152.743 
154.407 153.463 155.467 154.352 156.505 156.484 155.201 157.66 158.789 
157.203 155.89 158.461 159.714 160.862 157.755 156.527 159.019 160.362 
161.654 162.729 158.307 157.122 159.6 161.045 162.384 163.506 164.524 
158.725 157.517 160.069 161.629 163.052 164.115 165.173 166.199 158.917 
157.708 160.262 161.829 163.356 164.502 165.53 166.71 167.562 151.169 
151.617 150.011 150.395 148.874 152.222 149.232 147.824 150.961 152.98 
148.141 146.813 149.825 151.646 153.749 147.029 145.865 148.655 150.466 
152.367 154.511 145.975 144.975 147.366 149.212 151.154 153.175 155.287 
145.05 144.071 146.238 147.89 149.886 151.897 153.934 155.901 144.206 
143.213 145.372 146.798 148.589 150.548 152.496 154.46 156.262 143.446 
142.518 144.607 145.93 147.465 149.233 151.081 152.966 154.845 156.497 