# vtk DataFile Version 4.0
vtk output
ASCII
DATASET POLYDATA
POINTS 1002 float
-77.4574 -106.431 57.9286 -77.7004 -105.632 57.1376 -78.3425 -106.012 57.3028 
-78.0696 -106.851 58.1801 -78.9901 -106.514 57.5604 -77.0515 -107.341 58.9415 
-78.7363 -107.35 58.5851 -79.7836 -106.883 58.1572 -77.5758 -107.824 59.2641 
-76.5806 -108.399 60.1319 -79.4505 -107.724 59.2706 -80.5595 -107.133 59.134 
-78.1101 -108.378 59.7182 -76.9706 -109.026 60.4747 -76.2546 -109.735 61.3565 
-79.7319 -108.237 59.8537 -80.8062 -107.756 59.89 -78.4839 -108.968 60.1868 
-77.3316 -109.816 60.8675 -76.5807 -110.655 61.7087 -76.1326 -111.518 62.5352 
-79.309 -109.246 59.7662 -80.4399 -108.795 59.8253 -78.3576 -109.887 60.2558 
-77.6104 -110.792 61.1695 -76.9937 -111.78 62.0788 -76.5086 -112.724 62.916 
-76.0915 -113.614 63.6585 -78.8181 -110.381 59.3023 -79.8797 -109.804 59.2219 
-78.1039 -111.048 60.0519 -77.7843 -111.946 61.3486 -77.5014 -112.977 62.4877 
-77.0462 -113.95 63.3254 -76.5502 -114.864 64.0606 -76.1286 -115.661 64.7145 
-78.7638 -111.336 59.2614 -79.4599 -110.733 58.865 -78.3543 -112.047 60.2456 
-78.1713 -112.997 61.7051 -77.9872 -114.097 62.9852 -77.6047 -115.085 63.8465 
-77.1256 -115.972 64.5502 -76.7119 -116.818 65.1906 -76.3822 -117.493 65.7601 
-79.0163 -112.283 59.879 -79.3647 -111.698 59.1633 -78.9061 -112.97 60.9936 
-78.7765 -113.918 62.3451 -78.5002 -115.085 63.5142 -78.117 -116.151 64.3806 
-77.7286 -117.019 65.1477 -77.4122 -117.839 65.8302 -77.1456 -118.566 66.3812 
-76.8766 -119.078 66.8541 -79.4247 -113.253 60.8306 -79.6285 -112.611 59.9584 
-79.3936 -113.983 61.9079 -79.284 -114.913 63.0514 -79.0129 -116.044 64.0252 
-78.719 -117.138 64.8449 -78.476 -118.029 65.7097 -78.2509 -118.809 66.5231 
-78.0249 -119.512 67.1163 -77.779 -120.041 67.5572 -77.4922 -120.379 67.9298 
-78.2811 -105.077 56.5102 -78.9474 -105.558 56.6361 -78.8822 -104.537 55.7934 
-79.6039 -105.037 55.9328 -79.538 -103.967 54.952 -79.6526 -106.061 56.9269 
-80.3995 -104.391 55.2105 -80.2315 -103.422 53.9801 -80.3855 -105.48 56.2901 
-80.5096 -106.337 57.6972 -81.1959 -103.814 54.4315 -80.9216 -102.98 52.8808 
-81.2248 -104.88 55.6425 -81.1514 -105.833 57.0759 -81.3029 -106.673 58.9119 
-81.7876 -103.459 53.4814 -81.5324 -102.54 51.7028 -81.9745 -104.489 54.9759 
-81.8004 -105.521 56.2644 -81.8503 -106.435 58.2284 -81.7002 -107.471 59.8432 
-82.1241 -103.248 52.2844 -81.9189 -102.162 50.5054 -82.5043 -104.273 54.1586 
-82.5209 -105.291 55.5178 -82.4487 -106.297 57.1709 -82.4874 -107.28 59.1909 
-81.5758 -108.45 59.8312 -82.2254 -103.25 50.9841 -82.0387 -102.207 49.3916 
-82.77 -104.172 52.9965 -83.1866 -105.001 54.7223 -83.2249 -106.002 56.2238 
-83.2599 -107.057 58.1232 -82.6578 -108.117 59.3579 -80.9917 -109.381 59.1533 
-82.1733 -103.562 49.9299 -82.0163 -102.748 48.5412 -82.7428 -104.298 51.7316 
-83.465 -104.895 53.5639 -83.827 -105.714 55.2015 -83.9275 -106.811 57.0366 
-83.5644 -107.892 58.5803 -82.1422 -109.049 58.8892 -80.3503 -110.388 58.6718 
-82.1046 -104.052 49.2943 -81.979 -103.496 48.0323 -82.5649 -104.62 50.8281 
-83.3189 -105.13 52.4021 -83.9322 -105.801 53.9164 -84.2184 -106.776 55.7422 
-84.1136 -107.823 57.622 -83.1412 -108.874 58.4989 -81.4525 -110.096 58.5119 
-80.0985 -111.403 58.8621 -82.0459 -104.502 48.4934 -82.3125 -104.938 49.9307 
-82.2444 -105.469 49.0933 -82.5957 -105.924 50.6427 -82.4398 -106.603 49.7002 
-82.9034 -105.473 51.4221 -82.7624 -107.131 51.3683 -82.4237 -107.811 50.4927 
-83.1903 -106.629 52.0371 -83.6288 -106.169 52.7124 -82.5917 -108.204 52.2498 
-82.1731 -108.876 51.6284 -83.2342 -107.804 52.7899 -83.7818 -107.483 53.2297 
-84.1227 -107.065 54.2652 -82.1536 -109.197 53.2144 -81.8934 -110.126 52.8661 
-82.793 -108.639 53.6621 -83.5302 -108.468 54.0883 -84.0058 -108.296 54.9765 
-84.2163 -108.012 56.3854 -81.8616 -110.79 54.1556 -81.7131 -111.842 54.0634 
-82.1762 -109.802 54.481 -82.7371 -109.331 54.9709 -83.2705 -109.236 55.7601 
-83.5965 -109.131 56.9066 -83.577 -108.979 57.9138 -81.788 -112.858 55.3531 
-81.5195 -113.533 55.4469 -81.9304 -111.809 55.4989 -82.0578 -110.91 55.8875 
-82.2078 -110.518 56.4303 -82.4186 -110.373 57.1764 -82.5017 -110.24 57.9186 
-82.1428 -110.148 58.3326 -81.5864 -114.559 56.984 -81.1903 -114.691 57.1115 
-81.8389 -113.972 57.0192 -81.8727 -113.069 57.2656 -81.6558 -112.383 57.5159 
-81.4447 -112.051 57.7857 -81.4468 -111.789 58.2453 -81.3119 -111.571 58.669 
-80.7718 -111.469 58.8336 -81.1745 -115.651 58.774 -80.7826 -115.459 58.8303 
-81.5245 -115.612 58.799 -81.7461 -115.113 59.0026 -81.654 -114.413 59.1874 
-81.2745 -113.929 59.22 -81.0044 -113.58 59.3924 -80.9398 -113.19 59.7867 
-80.6962 -112.89 60.056 -80.1664 -112.737 60.0599 -80.0054 -113.954 61.5451 
-80.5182 -114.18 61.7435 -80.5261 -115.623 63.0968 -80.9039 -114.53 61.7751 
-81.009 -116.027 63.3467 -81.089 -117.575 64.4435 -81.0855 -115.037 61.5182 
-81.4066 -116.566 63.4597 -81.6391 -118.081 64.7448 -81.9368 -119.336 66.0476 
-81.3339 -115.5 61.2265 -81.8303 -117.112 63.3071 -82.2942 -118.589 64.8805 
-82.6286 -119.771 66.3164 -83.0377 -120.702 67.8845 -81.6698 -115.934 61.1329 
-82.2067 -117.576 63.0702 -82.953 -119.056 64.6938 -83.4393 -120.208 66.2095 
-83.7629 -121.17 67.9212 -84.0486 -122.11 69.368 -81.7167 -116.513 60.9884 
-82.1571 -118.109 62.8563 -83.0545 -119.582 64.4159 -83.8684 -120.727 65.8158 
-84.3362 -121.741 67.4691 -84.6095 -122.748 69.1677 -84.7861 -123.628 70.4909 
-81.4226 -116.924 60.6965 -81.7125 -118.53 62.5365 -82.5309 -120.074 64.1762 
-83.5062 -121.239 65.5797 -84.2711 -122.269 66.9895 -84.7732 -123.355 68.6031 
-85.0877 -124.294 70.1782 -85.3101 -124.905 71.5755 -81.0338 -116.836 60.5137 
-81.2204 -118.457 62.2093 -81.9131 -120.186 63.8527 -82.8271 -121.506 65.4328 
-83.6663 -122.543 66.8261 -84.3938 -123.671 68.1671 -84.9783 -124.747 69.6335 
-85.4375 -125.512 71.1431 -85.8063 -125.932 72.5807 -80.6547 -116.49 60.4754 
-80.777 -118.034 62.0314 -81.3679 -119.899 63.5076 -82.2167 -121.468 65.0814 
-83.0022 -122.589 66.6254 -83.7428 -123.708 67.9177 -84.4807 -124.888 69.1435 
-85.1651 -125.83 70.5225 -85.7927 -126.448 71.9737 -86.2675 -126.784 73.3116 
-79.9019 -114.83 62.5146 -80.4008 -116.76 63.9738 -79.7683 -115.849 63.5358 
-81.1704 -118.695 65.5371 -80.3028 -117.899 65.0405 -79.568 -116.972 64.518 
-82.2968 -120.233 67.4785 -81.3631 -119.634 66.911 -80.3404 -118.898 66.1832 
-79.4517 -118.054 65.4153 -83.3719 -121.66 69.1812 -82.4847 -121.149 68.7455 
-81.4656 -120.507 68.1371 -80.4587 -119.798 67.2673 -79.4263 -118.99 66.3872 
-84.2613 -123.192 70.5093 -83.3974 -122.793 70.1681 -82.3191 -122.255 69.7032 
-81.3473 -121.52 69.0675 -80.405 -120.723 68.2043 -79.2906 -119.83 67.3245 
-85.001 -124.437 71.9175 -84.3574 -124.064 71.8207 -83.2981 -123.8 71.3078 
-82.0913 -123.327 70.5425 -81.0742 -122.529 69.6642 -80.0925 -121.582 68.7982 
-79.0116 -120.564 67.9644 -85.6159 -125.395 73.2672 -85.1714 -124.764 73.6473 
-84.4075 -124.415 73.4171 -83.226 -124.329 72.48 -81.8862 -124.004 71.191 
-80.7282 -123.205 70.0526 -79.7041 -122.157 69.1945 -78.7014 -121.082 68.3999 
-86.1792 -126.335 74.1761 -85.7321 -125.522 74.9012 -85.0738 -124.717 75.1874 
-84.1602 -124.408 74.659 -82.8871 -124.475 73.3264 -81.5182 -124.264 71.7582 
-80.3542 -123.493 70.5109 -79.3443 -122.439 69.6031 -78.379 -121.386 68.7711 
-86.5375 -127.278 74.326 -86.2537 -126.747 75.2292 -86.0998 -127.498 74.9971 
-85.5622 -127.02 75.7906 -84.6406 -127.415 75.2372 -85.4949 -125.747 75.9426 
-83.9938 -127.149 75.884 -82.6334 -127.315 75.1866 -84.5682 -126.052 76.4111 
-84.5567 -124.758 76.1608 -82.0358 -127.238 75.7301 -80.8643 -127.537 75.0556 
-83.0341 -126.337 76.441 -83.434 -124.975 76.6132 -83.4435 -124.398 75.4806 
-80.2527 -127.405 75.493 -79.5692 -128.017 74.897 -81.2246 -126.455 76.1587 
-81.9285 -125.184 76.5564 -82.2324 -124.49 75.8579 -82.1173 -124.5 73.9282 
-78.9445 -127.549 75.1248 -78.6223 -128.248 74.5298 -79.5709 -126.521 75.6566 
-80.3608 -125.323 75.9724 -80.8838 -124.617 75.5388 -81.0635 -124.515 74.0986 
-80.8427 -124.268 72.1622 -78.0328 -127.354 74.44 -77.7813 -127.885 73.8715 
-78.3974 -126.526 74.9339 -79.0551 -125.535 75.1578 -79.6558 -124.833 74.7312 
-79.9591 -124.567 73.6132 -79.9828 -124.204 72.1705 -79.7307 -123.428 70.7685 
-77.064 -126.815 73.5826 -76.7286 -127.222 73.1542 -77.4351 -126.232 73.9765 
-78.0018 -125.568 74.2272 -78.565 -124.998 73.9435 -78.8623 -124.602 72.9912 
-78.954 -124.115 71.7973 -78.8948 -123.309 70.713 -78.6769 -122.34 69.7202 
-75.8382 -126.298 72.9031 -75.4702 -126.712 72.5772 -76.2804 -125.75 73.1123 
-76.8536 -125.224 73.2386 -77.4162 -124.805 73.1046 -77.7405 -124.421 72.4693 
-77.8544 -123.905 71.4625 -77.8884 -123.139 70.4758 -77.8357 -122.206 69.6244 
-77.6869 -121.271 68.7856 -86.147 -127.234 72.9783 -86.0701 -127.567 73.8217 
-85.3052 -127.344 72.3445 -84.6877 -127.54 72.9732 -83.9641 -127.266 71.5014 
-85.0372 -127.548 74.3093 -83.1596 -127.673 71.9656 -82.7704 -127.147 70.7137 
-83.4122 -127.721 73.3087 -83.2081 -127.407 74.4429 -82.1715 -127.858 71.0945 
-81.8212 -126.957 69.9846 -82.3559 -128.436 72.2459 -82.0907 -128.1 73.406 
-81.4683 -127.554 74.3963 -81.2279 -127.598 70.2383 -80.7951 -126.639 69.0878 
-81.6773 -128.686 71.3263 -81.6705 -129.106 72.3043 -80.9694 -128.563 73.3496 
-80.1586 -128.117 74.2998 -80.0626 -127.018 69.192 -79.8067 -126.123 68.1113 
-80.4641 -127.961 70.3461 -80.7499 -128.914 71.2582 -80.3348 -129.249 72.1118 
-79.5378 -129 73.1677 -79.0056 -128.7 74.0841 -79.1139 -126.4 68.1061 
-79.0019 -125.395 67.2014 -79.1777 -127.147 69.1936 -79.2503 -127.89 70.1833 
-78.9783 -128.711 70.934 -78.3656 -129.193 71.8163 -78.0481 -129.143 72.8712 
-78.0126 -128.659 73.6254 -78.3644 -125.657 67.0872 -78.2363 -124.597 66.2706 
-78.3147 -126.504 68.0223 -78.1477 -127.12 69.0089 -77.8297 -127.798 69.8447 
-77.2993 -128.509 70.6162 -76.9625 -128.831 71.5444 -77.0378 -128.582 72.4507 
-77.0565 -127.959 72.9986 -77.5791 -124.757 66.1083 -77.4684 -123.837 65.3045 
-77.5569 -125.641 66.9428 -77.374 -126.387 67.8078 -77.1213 -127.02 68.6719 
[...]
CELL_DATA 2000
SCALARS Distance double
LOOKUP_TABLE default
142.529 143.284 143.036 143.351 144.171 143.856 144.152 143.897 144.28 
145.133 144.781 145.056 144.744 145.101 144.893 145.424 146.021 145.683 
145.901 145.626 145.984 145.771 146.342 146.202 146.964 146.658 146.397 
146.53 146.371 146.806 146.692 147.391 147.253 148.12 147.971 148.9 
147.033 146.866 147.038 146.963 147.58 147.582 148.509 148.432 149.422 
149.249 150.222 150.023 150.95 147.431 147.288 147.713 147.631 148.494 
148.52 149.662 149.649 150.749 150.599 151.574 151.371 152.298 152.076 
152.952 148.166 147.983 148.727 148.601 149.664 149.64 150.871 150.868 
152.019 151.912 152.904 152.715 153.655 153.441 154.357 154.089 154.923 
149.25 149.05 149.993 149.854 150.987 150.923 152.126 152.098 153.24 
153.164 154.205 154.051 155.043 154.835 155.791 155.526 156.388 156.052 
156.788 142.157 141.837 142.299 142.921 141.496 141.995 142.659 143.122 
143.801 141.139 141.667 142.367 142.86 143.577 144.055 144.777 140.807 
141.347 142.102 142.594 143.328 143.818 144.625 145.106 145.8 140.463 
141.049 141.88 142.393 143.157 143.6 144.432 144.968 145.836 146.188 
146.669 140.031 140.686 141.597 142.207 143.048 143.486 144.296 144.8 
145.74 146.24 146.893 146.971 147.126 139.634 140.251 141.206 141.899 
142.831 143.371 144.189 144.677 145.581 146.14 146.91 147.162 147.393 
147.28 147.332 139.505 139.955 140.88 141.513 142.467 143.092 143.944 
144.501 145.375 145.968 146.796 147.178 147.554 147.518 147.561 147.488 
147.772 139.683 139.957 140.789 141.261 142.161 142.733 143.594 144.18 
145.052 145.69 146.564 147.077 147.619 147.715 147.853 147.737 147.944 
148.052 148.647 140.114 141.104 140.752 141.153 142.217 141.809 142.21 
141.906 142.441 143.407 142.991 143.416 143.043 143.548 143.251 143.831 
144.483 144.131 144.556 144.256 144.761 144.426 144.981 144.684 145.319 
145.519 145.099 145.401 145.209 145.674 145.525 146.059 145.85 146.453 
146.219 146.826 146.923 146.242 146.41 145.989 146.347 146.223 146.718 
146.704 147.23 147.188 147.647 147.518 147.799 148.673 147.89 148.097 
147.299 147.578 147.047 147.473 147.268 147.744 147.72 148.1 148.068 
148.231 148.091 148.05 150.264 149.692 150.055 149.243 149.55 148.683 
149.03 148.351 148.763 148.361 148.769 148.531 148.818 148.551 148.659 
148.299 148.309 151.471 151.153 151.658 151.132 151.556 150.785 151.139 
150.25 150.608 149.801 150.225 149.596 150.049 149.51 149.886 149.303 
149.571 148.937 149.167 150.143 150.587 150.93 152.122 150.96 151.393 
152.673 153.058 154.373 151.224 151.759 153.175 153.656 155.074 155.405 
156.763 151.515 152.061 153.609 154.188 155.741 156.146 157.549 157.835 
159.164 151.967 152.45 154.035 154.648 156.286 156.8 158.248 158.593 
159.91 160.196 161.45 152.454 152.923 154.421 155.049 156.644 157.267 
158.715 159.183 160.473 160.855 162.101 162.409 163.557 152.695 153.239 
154.554 155.266 156.726 157.475 158.861 159.478 160.711 161.238 162.434 
162.914 164.058 164.393 165.39 152.585 153.198 154.307 155.118 156.443 
157.339 158.669 159.442 160.617 161.269 162.385 163.023 164.13 164.685 
165.692 166.062 166.934 152.261 152.87 153.827 154.65 155.877 156.858 
158.174 159.088 160.256 161.012 162.062 162.783 163.83 164.539 165.539 
166.138 167.031 167.457 168.223 150.244 152.281 151.19 151.14 154.536 
153.381 153.367 152.216 152.203 156.945 155.751 155.779 154.55 154.535 
153.339 153.325 159.384 158.236 158.333 157.069 157.068 155.763 155.709 
154.468 154.411 161.682 160.648 160.787 159.619 159.639 158.352 158.29 
156.953 156.85 155.55 155.42 163.798 162.881 163.054 161.993 162.036 
160.851 160.797 159.523 159.409 158.073 157.893 156.541 156.318 165.658 
164.902 165.127 164.196 164.299 163.201 163.168 161.95 161.805 160.537 
160.305 158.997 158.691 157.365 157.045 167.239 166.635 166.876 166.123 
166.235 165.34 165.312 164.237 164.035 162.822 162.494 161.246 160.859 
159.612 159.2 157.959 157.567 168.577 168.116 168.339 167.702 167.725 
167.01 166.901 166.096 165.844 164.858 164.453 163.305 162.826 161.628 
161.143 159.961 159.489 158.334 157.891 169.287 169.949 169.554 169.068 
169.833 169.935 169.54 169.067 168.361 169.028 169.527 169.35 169.262 
168.591 168.163 167.418 168.097 168.63 168.638 168.86 168.339 168.158 
167.423 167.11 166.34 167.462 167.783 167.733 168.056 167.651 167.712 
167.035 166.927 166.188 165.916 165.015 166.985 167.171 166.907 167.148 
166.715 166.895 166.288 166.367 165.689 165.62 164.788 164.456 163.417 
166.226 166.508 166.096 166.308 165.822 165.987 165.438 165.558 164.95 
165.003 164.252 164.107 163.129 162.77 161.695 165.052 165.478 165.019 
165.354 164.865 165.12 164.612 164.765 164.175 164.24 163.512 163.471 
162.558 162.36 161.322 161.016 159.992 163.782 164.203 163.751 164.141 
163.651 164.04 163.545 163.862 163.269 163.43 162.674 162.691 161.797 
161.704 160.725 160.541 159.551 159.309 158.363 169.332 169.091 169.567 
169.917 168.163 168.922 169.211 169.729 169.659 167.098 167.835 168.116 
168.733 168.668 169.076 168.75 166.214 166.895 167.37 167.854 167.994 
168.192 167.992 168.144 167.887 165.193 166.009 166.615 167.295 167.703 
167.918 167.885 167.762 167.587 167.561 167.45 163.907 164.812 165.272 
166.259 166.661 167.425 167.465 167.709 167.466 167.467 167.298 167.307 
167.133 162.574 163.438 163.75 164.68 164.912 165.907 165.945 166.739 
166.513 166.994 166.718 167.02 166.762 166.866 166.436 161.222 162.08 
162.369 163.174 163.331 164.139 164.184 164.996 164.909 165.633 165.436 
166.039 165.768 166.188 165.749 165.893 165.257 159.821 160.679 160.931 
161.763 161.893 162.655 162.69 163.411 163.385 164.072 163.957 164.598 
164.367 164.933 164.555 164.951 164.412 164.574 163.948 152.306 152.972 
153.02 153.932 153.919 153.904 154.961 154.941 156.064 154.987 155.002 
156.17 156.145 157.338 157.277 158.406 156.05 156.106 157.302 157.351 
158.531 158.544 159.644 159.567 160.502 157.101 157.169 158.321 158.398 
159.522 159.605 160.689 160.714 161.683 161.548 162.352 157.979 158.14 
159.246 159.359 160.445 160.53 161.624 161.699 162.762 162.722 163.642 
163.408 164.164 158.56 158.842 159.927 160.17 161.25 161.411 162.477 
162.604 163.667 163.75 164.731 164.664 165.49 165.225 165.89 158.982 
159.302 160.364 160.706 161.775 162.074 163.085 163.326 164.27 164.483 
165.371 165.536 166.364 166.385 167.106 166.876 167.418 159.344 159.681 
160.702 161.064 162.079 162.447 163.412 163.751 164.628 164.906 165.675 
165.928 166.669 166.941 167.697 167.842 168.477 168.282 168.662 151.527 
150.496 151.337 152.068 149.408 150.272 150.995 151.95 152.869 148.333 
149.179 149.893 150.845 151.713 152.782 153.817 147.304 148.119 148.804 
149.733 150.559 151.588 152.564 153.724 154.838 146.292 147.08 147.722 
148.632 149.426 150.424 151.357 152.468 153.572 154.782 155.926 145.361 
146.071 146.666 147.529 148.283 149.27 150.164 151.253 152.311 153.52 
154.667 155.863 156.877 144.594 145.192 145.725 146.488 147.184 148.115 
148.952 150.014 150.997 152.205 153.307 154.56 155.586 156.707 157.527 
143.948 144.465 144.918 145.58 146.203 147.043 147.819 148.797 149.691 
150.829 151.861 153.13 154.174 155.376 156.249 157.279 157.992 143.366 
143.827 144.212 144.786 145.331 146.086 146.811 147.704 148.536 149.546 
150.485 151.662 152.685 153.927 154.865 155.985 156.747 157.725 158.377 
143.172 143.165 143.429 144.009 143.259 143.488 144.135 144.391 145.138 
143.5 143.688 144.42 144.638 145.488 145.733 146.65 143.879 144.04 
144.853 145.045 145.986 146.212 147.224 147.418 148.411 144.359 144.513 
145.399 145.579 146.59 146.805 147.893 148.087 149.163 149.293 150.358 
144.941 145.083 146.056 146.219 147.292 147.484 148.623 148.816 149.964 
150.117 151.261 151.372 152.523 145.633 145.76 146.804 146.959 148.076 
148.246 149.409 149.594 150.779 150.955 152.146 152.299 153.475 153.588 
154.688 146.393 146.519 147.595 147.753 148.875 149.044 150.196 150.391 
151.585 151.789 152.981 153.163 154.314 154.473 155.544 155.646 156.585 
147.155 147.294 148.365 148.54 149.639 149.816 150.932 151.144 152.32 
152.567 153.745 153.956 155.048 155.224 156.239 156.4 157.333 157.417 
158.231 147.914 149.518 148.86 149.172 151.205 150.537 150.889 150.182 
150.475 153.046 152.316 152.751 151.991 152.339 151.53 151.81 155.166 
154.326 154.84 153.995 154.429 153.533 153.874 152.96 153.258 157.385 
156.539 157.022 156.163 156.587 155.698 156.041 155.113 155.397 154.456 
154.696 159.368 158.644 159.022 158.248 158.58 157.779 158.067 157.218 
157.443 156.55 156.72 155.807 155.948 160.981 160.416 160.751 160.082 
160.399 159.672 159.99 159.185 159.437 158.543 158.71 157.781 157.908 
156.988 157.103 162.258 161.865 162.262 161.713 162.09 161.446 161.827 
161.098 161.412 160.555 160.758 159.807 159.948 158.978 159.091 158.135 
158.205 163.265 163.05 163.571 163.176 163.621 163.086 163.453 162.839 
163.111 162.414 162.573 161.773 161.865 160.991 161.054 160.124 160.131 
159.168 159.111 147.453 147.286 147.92 149.038 147.129 147.791 148.956 
149.569 150.716 146.922 147.636 148.876 149.533 150.734 151.304 152.522 
146.675 147.39 148.682 149.455 150.784 151.406 152.699 153.246 154.61 
146.478 147.126 148.393 149.234 150.711 151.489 152.912 153.501 154.902 
155.465 156.867 146.312 146.934 148.156 148.967 150.485 151.388 152.913 
153.659 155.065 155.719 157.114 157.7 158.943 146.104 146.753 147.965 
148.746 150.187 151.115 152.603 153.498 154.868 155.689 157.037 157.808 
159.077 159.626 160.616 145.945 146.561 147.76 148.516 149.848 150.737 
152.101 153.039 154.348 155.283 156.592 157.525 158.8 159.58 160.609 
161.096 161.853 145.946 146.467 147.619 148.297 149.538 150.333 151.591 
152.469 153.732 154.673 155.962 156.947 158.205 159.124 160.17 160.874 
161.637 162.128 162.748 146.429 144.847 145.813 146.202 143.209 144.171 
144.471 145.537 145.957 141.483 142.433 142.619 143.695 144.044 145.241 
145.698 139.839 140.669 140.751 141.751 142.016 143.234 143.736 145.004 
145.513 138.45 139.107 139.108 139.921 140.068 141.163 141.644 143 
143.657 144.903 145.416 137.34 137.826 137.78 138.405 138.451 139.3 
139.616 140.864 141.518 142.956 143.598 144.813 145.253 136.615 136.882 
136.826 137.238 137.281 137.869 138.076 138.974 139.474 140.77 141.453 
142.844 143.397 144.591 145.002 136.249 136.37 136.332 136.52 136.598 
136.947 137.2 137.741 138.178 139.013 139.656 140.799 141.497 142.704 
143.277 144.38 144.867 135.975 136.104 136.101 136.208 136.296 136.498 
136.794 137.147 137.62 138.11 138.71 139.421 140.151 141.084 141.825 
142.811 143.446 144.398 144.954 135.802 135.695 135.818 135.988 135.835 
135.805 136.002 136.061 136.262 136.308 136.093 136.295 136.233 136.546 
136.516 136.846 137.035 136.705 136.923 136.728 137.116 136.996 137.436 
137.316 137.737 137.875 137.514 137.767 137.506 137.91 137.714 138.171 
138.012 138.473 138.318 138.801 138.771 138.401 138.678 138.406 138.793 
138.558 138.954 138.762 139.215 139.085 139.63 139.5 140.14 139.737 
139.345 139.624 139.327 139.696 139.435 139.794 139.548 139.984 139.844 
140.468 140.383 141.098 140.984 141.736 140.74 140.345 140.612 140.283 
140.633 140.343 140.718 140.429 140.879 140.68 141.328 141.256 142.026 
141.952 142.689 142.587 143.311 141.69 141.331 141.578 141.255 141.582 
141.29 141.679 141.396 141.863 141.633 142.241 142.135 142.86 142.823 
143.539 143.478 144.147 144.082 144.774 142.252 143.091 142.498 142.183 
144.06 143.416 143.144 142.505 142.227 145.261 144.51 144.289 143.567 
143.325 142.625 142.369 146.824 145.9 145.708 144.848 144.632 143.832 
143.611 142.848 142.624 148.742 147.673 147.492 146.452 146.237 145.278 
145.072 144.205 144.024 143.206 143.053 150.788 149.703 149.556 148.414 
148.223 147.087 146.89 145.834 145.659 144.717 144.581 143.736 143.65 
152.792 151.755 151.655 150.541 150.402 149.226 149.067 147.866 147.692 
146.541 146.381 145.364 145.253 144.385 144.311 154.742 153.748 153.677 
152.62 152.503 151.399 151.252 150.095 149.917 148.714 148.521 147.339 
147.176 146.107 145.989 145.062 144.959 156.583 155.666 155.604 154.609 
154.49 153.441 153.269 152.184 151.971 150.86 150.636 149.5 149.293 
148.151 147.976 146.883 146.738 145.741 145.621 146.349 147.551 147.282 
148.031 148.858 148.579 149.367 149.088 149.917 150.186 149.926 150.752 
150.473 151.312 151.034 151.913 151.508 151.265 152.15 151.897 152.827 
152.521 153.456 153.125 154.065 152.867 152.628 153.592 153.357 154.413 
154.136 155.181 154.808 155.795 155.383 156.34 154.226 154.037 155.077 
154.87 155.983 155.761 156.844 156.542 157.505 157.132 158.029 157.648 
158.529 155.482 155.39 156.474 156.349 157.461 157.303 158.363 158.126 
159.035 158.715 159.502 159.188 159.947 159.668 160.39 156.591 156.588 
157.67 157.648 158.738 158.676 159.724 159.569 160.491 160.192 160.946 
160.573 161.233 160.919 161.545 161.294 161.837 157.546 157.616 158.675 
158.732 159.793 159.821 160.846 160.811 161.744 161.579 162.347 162.012 
162.617 162.21 162.749 162.398 162.91 162.6 163.02 139.024 138.735 
138.528 137.924 138.813 138.365 137.654 137.42 136.839 139.235 138.634 
137.899 137.367 136.671 136.377 135.921 139.717 139.142 138.464 137.822 
137.087 136.468 135.905 135.651 135.51 140.104 139.599 138.999 138.438 
137.775 137.067 136.442 135.898 135.667 135.532 135.631 140.48 139.985 
139.44 138.958 138.427 137.805 137.229 136.575 136.213 135.849 135.787 
135.703 135.705 140.872 140.385 139.846 139.396 138.921 138.434 137.939 
137.357 136.912 136.423 136.152 135.879 135.705 135.614 135.495 141.249 
140.783 140.231 139.78 139.269 138.859 138.372 137.938 137.456 137.013 
136.599 136.227 135.916 135.666 135.49 135.41 135.411 141.622 141.176 
140.654 140.174 139.653 139.198 138.709 138.292 137.828 137.426 136.994 
136.61 136.255 135.933 135.727 135.534 135.531 135.488 135.636 139.108 
138.047 138.734 139.091 136.968 137.671 138.083 138.815 139.29 136.06 
136.645 137.102 137.837 138.385 139.106 139.649 135.645 135.926 136.34 
136.932 137.509 138.228 138.818 139.517 140.051 135.714 135.751 136.009 
136.318 136.771 137.371 137.935 138.663 139.223 139.91 140.389 135.753 
135.836 135.987 136.124 136.415 136.754 137.215 137.797 138.35 139.048 
139.591 140.245 140.735 135.562 135.73 135.91 136.086 136.371 136.564 
136.98 137.292 137.834 138.31 138.909 139.493 140.094 140.683 141.252 
135.503 135.568 135.797 135.972 136.32 136.544 136.994 137.237 137.776 
138.061 138.663 139.035 139.679 140.155 140.805 141.314 141.9 135.726 
135.67 135.881 135.942 136.267 136.47 136.915 137.215 137.747 138.066 
138.635 138.947 139.54 139.9 140.523 140.952 141.55 141.989 142.492 
139.774 139.775 140.084 140.777 139.989 140.198 140.887 141.156 141.892 
140.339 140.496 141.204 141.387 142.102 142.337 143.078 140.686 140.843 
141.526 141.731 142.446 142.634 143.332 143.54 144.221 140.964 141.12 
141.711 141.959 142.655 142.936 143.667 143.874 144.587 144.724 145.407 
141.3 141.386 141.926 142.095 142.757 143.068 143.87 144.187 145.004 
145.197 145.986 146.058 146.852 141.817 141.813 142.379 142.407 143.054 
143.235 144.058 144.381 145.266 145.572 146.411 146.632 147.459 147.606 
148.461 142.424 142.402 142.976 142.957 143.576 143.645 144.401 144.632 
145.478 145.789 146.6 146.917 147.7 148.021 148.817 149.109 149.894 
142.952 142.972 143.507 143.533 144.103 144.165 144.825 144.992 145.75 
146.005 146.772 147.057 147.803 148.13 148.889 149.254 149.998 150.345 
151.033 146.245 145.473 145.463 144.683 144.721 144.686 143.889 143.895 
143.098 144.068 143.974 143.162 143.111 142.294 142.275 141.437 143.551 
143.401 142.607 142.462 141.651 141.534 140.718 140.64 139.855 143.123 
142.948 142.187 141.996 141.234 141.034 140.273 140.074 139.333 139.192 
138.519 142.804 142.589 141.856 141.629 140.904 140.699 139.998 139.772 
139.057 138.817 138.142 137.985 137.431 142.646 142.379 141.71 141.402 
140.711 140.439 139.779 139.542 138.863 138.604 137.926 137.703 137.159 
137.044 136.686 142.613 142.324 141.721 141.374 140.729 140.374 139.748 
139.425 138.802 138.478 137.846 137.553 137.022 136.852 136.513 136.462 
136.27 142.64 142.346 141.759 141.423 140.785 140.438 139.816 139.481 
138.893 138.538 137.961 137.593 137.08 136.802 136.434 136.315 136.086 
136.092 135.942 
POINT_DATA 1002
SCALARS Distance double
LOOKUP_TABLE default
142.816 142.039 142.735 143.558 143.561 143.684 144.45 144.505 144.453 
144.709 145.39 145.507 145.333 145.522 146.043 146.157 146.404 146.161 
146.462 147.046 147.807 146.637 146.94 146.804 147.46 148.255 149.063 
149.833 147.031 147.139 147.453 148.487 149.584 150.43 151.176 151.844 
147.7 147.462 148.412 149.622 150.88 151.787 152.508 153.211 153.801 
148.789 148.251 149.695 150.89 152.105 153.073 153.854 154.604 155.256 
155.714 150.113 149.39 151.08 152.189 153.301 154.316 155.228 156.049 
156.72 157.188 157.464 141.697 142.467 141.349 142.171 140.969 143.341 
141.863 140.588 143.071 144.322 141.594 140.243 142.852 144.065 145.492 
141.314 139.838 142.736 143.885 145.35 146.669 140.909 139.352 142.572 
143.838 145.169 146.705 147.31 140.496 139.058 142.218 143.706 145.027 
146.553 147.476 147.402 140.317 139.143 141.831 143.356 144.773 146.328 
147.51 147.684 147.607 140.414 139.496 141.639 143.015 144.415 145.973 
147.395 147.957 147.927 148.303 140.435 141.409 141.471 142.55 142.634 
142.672 143.794 143.798 143.908 144.066 144.807 144.849 145.07 145.306 
145.575 145.646 146.069 145.754 146.201 146.673 147.116 147.016 147.69 
146.573 146.718 147.242 147.783 148.049 148.968 149.365 148.312 147.856 
147.852 148.145 148.379 148.274 150.748 150.683 150.455 149.888 149.352 
149.093 149.077 149.006 148.703 152.033 151.702 152.199 152.019 151.516 
150.962 150.624 150.453 150.205 149.81 151.232 151.751 153.385 152.229 
154.042 155.693 152.601 154.699 156.482 158.115 152.962 155.268 157.258 
158.909 160.471 153.428 155.717 157.875 159.612 161.21 162.669 153.831 
156.006 158.21 160.062 161.745 163.349 164.656 153.872 155.963 158.211 
160.163 161.909 163.651 165.176 166.34 153.53 155.522 157.846 159.953 
161.736 163.511 165.23 166.674 167.79 153.054 154.901 157.209 159.468 
161.348 163.103 164.877 166.511 167.908 168.974 152.228 154.532 153.341 
157.027 155.778 154.488 159.569 158.404 157.025 155.617 161.906 160.886 
159.629 158.218 156.717 164.07 163.186 162.038 160.725 159.284 157.679 
165.98 165.333 164.379 163.088 161.603 160.029 158.367 167.59 167.061 
166.314 165.246 163.775 162.107 160.441 158.792 168.97 168.459 167.658 
166.734 165.557 164.034 162.338 160.652 159.023 169.919 169.776 170.154 
169.879 169.468 168.969 169.236 168.383 168.941 167.865 168.277 167.636 
168.408 167.671 166.736 167.439 167.313 167.489 167.061 166.376 165.46 
166.764 166.88 166.521 166.14 165.667 165.03 163.881 165.882 165.918 
165.644 165.306 164.871 164.316 163.416 162.094 164.636 164.603 164.539 
164.413 164.12 163.538 162.686 161.573 160.301 163.37 163.375 163.247 
163.169 163.055 162.634 161.852 160.854 159.749 158.604 169.106 169.679 
168.492 168.599 167.402 169.358 167.508 166.385 168.247 168.405 166.793 
165.465 167.813 167.929 167.648 165.771 164.344 167.282 168.016 167.715 
167.404 164.321 163.059 165.725 166.98 167.402 167.288 167.208 162.934 
161.731 163.995 165.019 165.84 166.301 166.57 166.511 161.577 160.36 
162.596 163.404 164.131 164.76 165.251 165.485 165.253 160.1 159.005 
161.118 161.967 162.7 163.327 163.785 164.066 164.117 163.869 152.166 
153.842 152.912 154.96 153.888 156.082 156.16 154.914 157.393 158.542 
157.245 155.992 158.502 159.699 160.693 158.272 157.041 159.447 160.617 
161.753 162.606 159.109 157.789 160.36 161.528 162.729 163.807 164.515 
159.629 158.263 161.043 162.346 163.558 164.716 165.672 166.284 160.016 
158.668 161.448 162.834 164.077 165.177 166.222 167.2 167.835 150.719 
151.133 149.643 150.047 148.539 151.811 148.957 147.509 150.682 152.651 
147.897 146.514 149.565 151.436 153.61 146.836 145.533 148.44 150.278 
152.362 154.748 145.85 144.705 147.317 149.097 151.123 153.452 155.803 
145.027 144.055 146.303 147.937 149.828 152.042 154.428 156.529 144.319 
143.475 145.417 146.896 148.63 150.619 152.922 155.173 157.048 143.692 
142.936 144.631 145.952 147.59 149.392 151.447 153.689 155.735 157.46 