# vtk DataFile Version 4.0
vtk output
ASCII
DATASET POLYDATA
POINTS 1002 float
-77.3661 -106.31 57.5147 -77.5944 -105.16 56.8558 -78.3215 -105.496 57.1609 
-77.9945 -106.923 57.6639 -79.0465 -105.959 57.544 -76.9789 -107.869 58.1582 
-78.5732 -107.657 57.8932 -79.5599 -106.527 57.9833 -77.497 -108.759 58.2169 
-76.6672 -109.73 58.9235 -78.92 -108.458 58.1743 -79.8079 -107.369 58.2749 
-78.0112 -109.651 58.4676 -77.1789 -110.706 59.169 -76.5875 -111.586 60.0948 
-79.0821 -109.526 58.2524 -79.9955 -108.617 58.1464 -78.3778 -110.577 58.7876 
-77.7209 -111.61 59.65 -77.0933 -112.534 60.597 -76.5132 -113.444 61.4615 
-79.2756 -110.81 58.1057 -80.1773 -109.96 57.7059 -78.6759 -111.724 58.9862 
-78.1931 -112.653 60.1087 -77.6177 -113.578 61.144 -76.9745 -114.565 61.9468 
-76.3876 -115.574 62.6091 -79.5452 -111.959 58.1671 -80.2893 -111.13 57.5091 
-79.0637 -112.866 59.2982 -78.686 -113.829 60.5563 -78.1713 -114.797 61.6343 
-77.5097 -115.84 62.4415 -76.901 -116.883 63.1027 -76.4534 -117.699 63.8138 
-79.9038 -113.023 58.7416 -80.4654 -112.263 57.9471 -79.5351 -113.89 59.9248 
-79.232 -114.888 61.1912 -78.7912 -115.918 62.2552 -78.1627 -116.983 63.0877 
-77.5103 -118.062 63.7889 -77.0344 -118.88 64.5216 -76.6976 -119.324 65.3522 
-80.39 -114.135 59.6683 -80.8021 -113.411 58.8317 -80.0647 -114.973 60.7129 
-79.7551 -115.94 61.8655 -79.3673 -116.932 62.946 -78.8624 -117.912 63.8708 
-78.2402 -118.933 64.6593 -77.6748 -119.82 65.3666 -77.3002 -120.327 66.1102 
-76.9862 -120.536 66.8746 -80.9127 -115.152 60.6004 -81.2004 -114.452 59.7296 
-80.6257 -115.994 61.5061 -80.2855 -116.964 62.4885 -79.8805 -117.947 63.5351 
-79.4834 -118.868 64.5461 -79.0219 -119.764 65.459 -78.4493 -120.615 66.2172 
-77.9676 -121.237 66.8466 -77.6445 -121.529 67.4787 -77.3133 -121.633 68.0944 
-78.1573 -104.355 56.4303 -79.0065 -104.573 56.9233 -78.723 -103.613 55.9957 
-79.6987 -103.736 56.6354 -79.3694 -103.096 55.2699 -79.8425 -104.883 57.541 
-80.5097 -103.186 56.0411 -80.0984 -102.834 54.2353 -80.6728 -103.98 57.3981 
-80.4336 -105.419 58.1657 -81.2914 -102.977 55.1787 -80.7918 -102.552 53.2464 
-81.5632 -103.53 56.846 -81.4224 -104.65 58.0988 -80.8462 -106.44 58.5193 
-81.8514 -102.899 54.2325 -81.4418 -102.166 52.3652 -82.2623 -103.533 55.954 
-82.3932 -104.423 57.5102 -82.0727 -105.846 58.55 -81.2115 -107.845 58.3172 
-82.2818 -102.885 53.2009 -82.0042 -102.055 51.3984 -82.6997 -103.634 54.9383 
-83.0998 -104.49 56.553 -83.1589 -105.591 58.0939 -82.5266 -107.179 58.478 
-81.3327 -109.202 57.7085 -82.5391 -103.114 52.2007 -82.2518 -102.409 50.5018 
-82.9652 -103.73 53.9386 -83.5356 -104.486 55.5252 -83.913 -105.443 57.2035 
-83.5775 -106.667 58.2615 -82.4716 -108.425 57.8965 -81.2205 -110.459 57.3576 
-82.5186 -103.578 51.418 -82.1932 -102.97 49.8779 -82.9852 -104.029 53.0504 
-83.6756 -104.557 54.5632 -84.3411 -105.368 56.1141 -84.3207 -106.393 57.5002 
-83.3821 -107.827 57.8217 -82.1114 -109.779 57.4242 -81.1892 -111.769 57.6755 
-82.4551 -104.073 50.7671 -82.143 -103.513 49.4171 -82.8882 -104.5 52.2257 
-83.5479 -104.911 53.6527 -84.386 -105.568 55.0578 -84.7628 -106.468 56.4381 
-84.1087 -107.634 57.2602 -82.86 -109.304 57.3207 -81.8441 -111.285 57.4907 
-81.3469 -113.059 58.4017 -82.525 -104.405 49.6704 -82.8928 -104.879 50.9852 
-83.2371 -105.306 49.7539 -83.5317 -105.687 51.073 -83.8903 -106.271 49.9844 
-83.3446 -105.315 52.4295 -83.9762 -106.7 51.4282 -84.1138 -107.614 50.5926 
-83.8436 -106.274 52.683 -84.0716 -105.931 53.9278 -84.077 -108.385 52.0929 
-84.1047 -109.61 51.3625 -84.0425 -107.629 53.2322 -84.378 -107.264 54.3551 
-84.7757 -106.847 55.3746 -84.0816 -110.683 52.8583 -84.0197 -111.739 52.3261 
-83.9233 -109.649 53.8182 -84.1268 -109.025 54.8146 -84.5354 -108.53 55.6428 
-84.5434 -107.974 56.4563 -84.0059 -112.753 53.9198 -83.6358 -113.342 53.7096 
-83.8429 -111.891 54.42 -83.6366 -111.13 55.0914 -83.7159 -110.556 55.7675 
-83.6972 -109.975 56.3737 -83.3505 -109.48 56.9235 -83.7163 -114.314 55.2955 
-83.0421 -114.579 55.2545 -83.9171 -113.782 55.4118 -83.6096 -113.111 55.6512 
-83.2163 -112.559 56.0828 -82.9135 -112.132 56.5686 -82.5906 -111.715 56.9792 
-82.2343 -111.397 57.3062 -83.2888 -115.689 56.7014 -82.5548 -115.764 56.6931 
-83.8757 -115.425 56.733 -83.9496 -114.88 56.8382 -83.5259 -114.284 57.1244 
-82.9471 -113.944 57.4823 -82.4464 -113.761 57.7428 -82.0643 -113.511 57.9883 
-81.7296 -113.241 58.2514 -82.8327 -116.904 58.1103 -82.2263 -116.842 58.0912 
-83.5303 -116.893 58.1644 -84.0118 -116.584 58.3201 -83.9867 -115.968 58.6489 
-83.5244 -115.465 59.0106 -82.9265 -115.325 59.1595 -82.3985 -115.246 59.1989 
-81.9791 -114.993 59.3782 -81.6016 -114.687 59.6199 -81.4524 -115.84 61.0835 
-81.859 -116.166 60.9557 -81.7479 -117.357 62.4679 -82.319 -116.535 60.7883 
-82.1721 -117.803 62.4349 -82.1537 -119.102 64.0002 -82.8901 -116.724 60.8024 
-82.7414 -118.154 62.4628 -82.6532 -119.573 64.1304 -82.7528 -120.861 65.6787 
-83.503 -116.805 60.8533 -83.4293 -118.305 62.5366 -83.3619 -119.767 64.2705 
-83.3929 -121.109 65.9514 -83.4395 -122.228 67.4688 -83.9581 -117.215 60.6041 
-83.9594 -118.666 62.3566 -84.0803 -120.057 64.1113 -84.1928 -121.233 66.0616 
-84.2119 -122.329 67.8298 -84.1164 -123.23 69.3992 -83.9911 -117.865 60.1749 
-84.0274 -119.327 61.9717 -84.3311 -120.779 63.6427 -84.6992 -121.875 65.6659 
-84.8769 -122.77 67.8023 -84.8924 -123.638 69.5978 -84.7668 -124.238 71.1207 
-83.5151 -118.18 59.8753 -83.5585 -119.641 61.7044 -83.9246 -121.253 63.349 
-84.4728 -122.618 65.1559 -84.8994 -123.581 67.2997 -85.1952 -124.419 69.277 
-85.3264 -125.051 70.9181 -85.2047 -125.327 72.315 -82.8153 -118.076 59.7319 
-82.8337 -119.408 61.5509 -83.1637 -121.015 63.2479 -83.7331 -122.64 64.8992 
-84.2489 -123.899 66.8072 -84.7531 -124.912 68.7117 -85.2162 -125.747 70.3459 
-85.3868 -126.2 71.8321 -85.2425 -126.35 73.1705 -82.2229 -117.891 59.6386 
-82.2152 -119.073 61.3702 -82.459 -120.559 63.0278 -82.9718 -122.223 64.594 
-83.4468 -123.637 66.3526 -83.9085 -124.759 68.1926 -84.5003 -125.786 69.7702 
-84.9497 -126.569 71.1811 -85.0614 -126.997 72.5859 -84.9597 -127.232 73.8725 
-81.2334 -116.656 62.0544 -81.6134 -118.294 63.5926 -80.9538 -117.649 63.0327 
-82.1464 -120.099 65.3218 -81.3832 -119.342 64.7915 -80.5446 -118.731 64.1004 
-82.7531 -121.816 67.131 -81.9547 -121.081 66.7278 -80.9905 -120.469 65.9893 
-80.1292 -119.8 65.1823 -83.3031 -123.046 69.0982 -82.4675 -122.615 68.7079 
-81.5547 -122.108 67.9997 -80.6229 -121.608 67.0299 -79.7809 -120.777 66.1918 
-83.9239 -123.874 71.1028 -82.9644 -123.638 70.755 -82.0531 -123.359 70.0456 
-81.1769 -123.058 69.004 -80.2503 -122.525 67.9643 -79.2957 -121.605 67.0841 
-84.5611 -124.714 72.6385 -83.6161 -124.39 72.5037 -82.6217 -124.242 71.9022 
-81.6926 -124.029 70.9361 -80.7284 -123.708 69.8177 -79.6898 -123.135 68.738 
-78.7247 -122.236 67.7521 -84.8916 -125.717 73.711 -84.1531 -125.237 73.8237 
-83.2036 -125.074 73.4229 -82.2113 -124.908 72.6037 -81.167 -124.549 71.5535 
-80.0919 -124.132 70.4047 -79.1157 -123.532 69.269 -78.3014 -122.596 68.2913 
-84.8548 -126.781 74.5844 -84.3416 -126.217 74.9871 -83.5097 -125.875 74.9086 
-82.5597 -125.727 74.2738 -81.521 -125.405 73.2237 -80.413 -124.907 72.0311 
-79.4373 -124.406 70.8437 -78.652 -123.706 69.7544 -77.9484 -122.703 68.8562 
-84.6132 -127.916 74.9577 -84.4146 -127.438 75.7855 -84.1877 -128.575 75.8221 
-83.7253 -127.865 76.782 -83.3595 -128.903 76.2236 -83.7001 -126.75 76.302 
-82.5157 -127.949 77.1051 -81.8297 -128.987 76.2062 -82.7334 -126.914 77.387 
-82.7262 -126.304 76.177 -80.7485 -128.158 76.7552 -79.9216 -129.194 76.041 
-81.396 -126.979 77.4975 -81.691 -126.384 77.0363 -81.712 -126.063 75.1949 
-78.8438 -128.554 76.2952 -78.2281 -129.361 75.6975 -79.707 -127.392 76.8275 
-80.4179 -126.532 76.8111 -80.6496 -126.126 75.6041 -80.5771 -125.622 73.7344 
-77.2583 -128.551 75.79 -76.8903 -129.205 74.9595 -77.912 -127.672 76.1928 
-78.7985 -126.833 76.0487 -79.3528 -126.181 75.2836 -79.4714 -125.61 73.9487 
-79.4847 -125.02 72.3575 -76.0688 -128.26 74.9332 -75.747 -128.963 74.0257 
-76.4492 -127.475 75.4918 -77.1194 -126.831 75.3745 -77.831 -126.204 74.7277 
-78.2373 -125.499 73.8387 -78.4839 -124.886 72.6264 -78.6637 -124.35 71.1544 
-75.0642 -128.12 73.9153 -74.7198 -128.768 73.2066 -75.3878 -127.304 74.4435 
-75.8302 -126.634 74.539 -76.4459 -126.082 74.1195 -77.009 -125.395 73.4515 
-77.4243 -124.681 72.5797 -77.7647 -124.084 71.3859 -77.9579 -123.452 70.0627 
-74.1195 -127.958 73.0063 -73.8403 -128.415 72.4563 -74.4556 -127.254 73.3531 
-74.8469 -126.516 73.4948 -75.3605 -125.886 73.344 -75.9476 -125.255 72.8656 
-76.4433 -124.568 72.1107 -76.8041 -123.895 71.1514 -77.0758 -123.182 70.1169 
-77.2492 -122.392 69.1011 -84.5003 -127.751 73.6335 -84.1084 -128.47 74.5559 
-83.718 -127.883 73.1412 -83.2327 -128.551 73.8144 -82.8094 -127.797 72.4418 
-83.6176 -129.119 75.1161 -82.2497 -128.452 72.8701 -81.9728 -127.719 71.5871 
-82.6028 -129.172 74.1552 -82.5936 -129.429 75.348 -81.3652 -128.42 71.7757 
-81.1682 -127.569 70.5497 -81.5614 -129.179 72.94 -81.5123 -129.559 74.333 
-80.9293 -129.529 75.4786 -80.4551 -128.172 70.5876 -80.318 -127.234 69.3377 
-80.6572 -129.184 71.5025 -80.588 -129.703 72.7709 -80.0405 -129.723 74.3689 
-79.1669 -129.66 75.3576 -79.5377 -127.612 69.3758 -79.5562 -126.793 68.0568 
-79.6567 -128.692 70.2532 -79.6745 -129.603 71.0285 -79.2297 -129.839 72.4258 
-78.4491 -129.782 73.8879 -77.6316 -129.684 74.6465 -78.8303 -127.056 68.0533 
-78.9518 -126.281 66.7684 -78.6987 -127.904 69.1779 -78.5683 -128.899 69.8564 
-78.198 -129.597 70.5915 -77.5367 -129.779 71.7887 -76.8409 -129.758 72.9203 
-76.2508 -129.54 73.6241 -78.2716 -126.524 66.6184 -78.401 -125.65 65.5126 
-78.0109 -127.261 67.8591 -77.6571 -128.036 68.859 -77.1979 -128.885 69.4417 
-76.6088 -129.478 70.0621 -75.9857 -129.671 71.0229 -75.4615 -129.616 72.0293 
-75.0572 -129.321 72.7869 -77.7006 -125.819 65.2894 -77.8529 -124.911 64.3816 
-77.4523 -126.601 66.3869 -77.0855 -127.273 67.5236 -76.6099 -128.021 68.3538 
[...]
CELL_DATA 2000
SCALARS Distance double
LOOKUP_TABLE default
142.105 142.941 142.72 143.197 143.845 143.616 144.118 143.921 144.552 
144.725 144.521 145.078 144.904 145.586 145.43 146.23 145.643 145.413 
146.018 145.887 146.656 146.528 147.375 147.232 148.116 146.608 146.375 
147.023 146.895 147.765 147.657 148.592 148.438 149.363 149.183 150.105 
147.545 147.361 148.096 147.991 148.967 148.869 149.906 149.738 150.738 
150.518 151.498 151.265 152.228 148.606 148.395 149.267 149.152 150.23 
150.151 151.265 151.119 152.166 151.954 152.961 152.726 153.703 153.439 
154.337 149.925 149.656 150.626 150.447 151.566 151.464 152.604 152.485 
153.546 153.374 154.371 154.171 155.123 154.89 155.753 155.464 156.207 
151.304 151.073 152.04 151.862 152.928 152.811 153.906 153.801 154.857 
154.72 155.722 155.545 156.485 156.262 157.107 156.83 157.556 157.221 
157.836 141.624 141.206 141.748 142.451 140.857 141.368 142.089 142.631 
143.351 140.636 141.093 141.832 142.318 143.066 143.557 144.255 140.499 
140.959 141.744 142.161 142.958 143.378 144.156 144.542 145.24 140.325 
140.849 141.713 142.149 143.011 143.404 144.284 144.616 145.38 145.619 
146.254 140.16 140.687 141.607 142.11 143.03 143.496 144.441 144.837 
145.655 145.866 146.435 146.584 147.123 140.13 140.581 141.486 141.985 
142.906 143.448 144.408 144.935 145.773 146.098 146.628 146.755 147.172 
147.391 148.025 140.22 140.601 141.446 141.879 142.741 143.268 144.203 
144.8 145.663 146.109 146.664 146.859 147.235 147.42 147.982 148.367 
149.218 140.37 140.696 141.485 141.853 142.649 143.103 143.996 144.568 
145.476 145.974 146.623 146.868 147.275 147.447 147.969 148.318 149.119 
149.633 150.571 140.761 141.758 141.424 141.822 142.848 142.431 142.771 
142.496 142.954 144.057 143.528 143.839 143.499 144.007 143.738 144.325 
145.593 144.859 145.161 144.67 145.239 144.916 145.566 145.244 145.822 
147.459 146.611 146.877 146.162 146.658 146.225 146.836 146.499 146.966 
146.61 146.913 149.204 148.523 148.777 147.979 148.276 147.669 148.093 
147.691 148.038 147.648 147.819 147.438 147.557 150.586 150.146 150.512 
149.825 150.051 149.3 149.553 148.953 149.251 148.737 148.967 148.439 
148.637 148.136 148.376 151.799 151.474 152.019 151.498 151.871 151.111 
151.376 150.569 150.883 150.166 150.533 149.849 150.218 149.535 149.921 
149.264 149.657 152.971 152.698 153.341 152.986 153.542 152.949 153.343 
152.531 152.872 152.031 152.441 151.659 152.104 151.346 151.78 151.037 
151.458 150.736 151.135 152.199 152.563 152.905 153.974 152.943 153.306 
154.444 154.771 155.964 153.317 153.723 154.938 155.296 156.559 156.9 
158.205 153.686 154.118 155.392 155.806 157.11 157.504 158.827 159.186 
160.443 154.124 154.529 155.84 156.271 157.616 158.04 159.379 159.771 
161.044 161.357 162.488 154.518 154.957 156.232 156.71 158.066 158.54 
159.913 160.327 161.644 161.97 163.179 163.386 164.419 154.562 155.143 
156.262 156.912 158.164 158.839 160.164 160.763 162.056 162.523 163.74 
164.071 165.152 165.294 166.153 154.236 154.902 155.844 156.623 157.714 
158.604 159.811 160.695 161.879 162.64 163.748 164.38 165.398 165.839 
166.676 166.849 167.48 153.819 154.442 155.297 156.033 157.026 157.927 
159.063 160.056 161.181 162.121 163.131 163.997 164.923 165.692 166.486 
167.029 167.633 167.911 168.39 152.322 154.133 153.186 153.136 156.145 
155.111 155.122 154.093 154.064 158.411 157.287 157.322 156.191 156.185 
155.087 155.046 160.672 159.622 159.685 158.508 158.496 157.304 157.259 
156.099 156.015 162.689 161.787 161.891 160.839 160.831 159.663 159.613 
158.401 158.303 157.077 156.92 164.526 163.694 163.793 162.893 162.896 
161.885 161.822 160.718 160.601 159.399 159.185 157.933 157.674 166.186 
165.434 165.477 164.669 164.657 163.785 163.697 162.745 162.581 161.541 
161.277 160.123 159.769 158.572 158.227 167.547 166.948 166.968 166.248 
166.225 165.442 165.353 164.48 164.266 163.319 163.006 162.004 161.617 
160.537 160.11 158.998 158.603 168.591 168.179 168.26 167.648 167.633 
166.93 166.854 166.06 165.837 164.916 164.538 163.575 163.155 162.199 
161.764 160.756 160.298 159.257 158.824 169.136 169.897 169.378 168.914 
170.266 170.008 169.545 168.969 168.301 169.918 170.029 169.606 169.379 
168.737 168.234 167.49 169.133 169.391 169.013 169.117 168.583 168.43 
167.722 167.285 166.426 168.318 168.566 168.195 168.384 167.932 168.028 
167.408 167.255 166.39 165.997 165.03 167.37 167.705 167.301 167.544 
167.065 167.265 166.67 166.719 165.907 165.731 164.784 164.477 163.564 
166.257 166.644 166.215 166.537 166.015 166.3 165.694 165.866 165.108 
165.101 164.241 164.1 163.242 163.014 162.17 165.217 165.546 165.127 
165.409 164.897 165.182 164.62 164.848 164.178 164.267 163.498 163.479 
162.683 162.588 161.767 161.577 160.713 164.24 164.562 164.153 164.389 
163.882 164.108 163.577 163.804 163.22 163.366 162.681 162.723 161.97 
161.949 161.153 161.066 160.223 160.059 159.211 169.181 169.03 169.45 
169.924 168.361 169.049 169.63 170.085 170.316 167.491 168.226 168.787 
169.503 169.844 170.202 170.041 166.589 167.319 167.816 168.549 168.922 
169.501 169.517 169.699 169.317 165.502 166.317 166.782 167.551 167.896 
168.534 168.638 169.042 168.848 168.942 168.51 164.234 165.086 165.482 
166.363 166.668 167.432 167.505 168.072 167.918 168.291 167.947 168.073 
167.547 162.975 163.771 164.076 164.935 165.18 166.032 166.082 166.791 
166.61 167.169 166.85 167.256 166.818 166.983 166.419 161.723 162.501 
162.754 163.531 163.71 164.5 164.554 165.286 165.16 165.775 165.514 
166.03 165.706 166.088 165.685 165.852 165.36 160.415 161.202 161.415 
162.188 162.318 163.063 163.108 163.811 163.761 164.379 164.223 164.742 
164.511 164.958 164.674 165.02 164.653 164.827 164.362 153.886 154.549 
154.582 155.37 155.328 155.354 156.22 156.203 157.122 156.129 156.208 
157.218 157.204 158.213 158.149 159.188 156.931 157.048 158.155 158.246 
159.352 159.333 160.373 160.292 161.292 157.746 157.877 158.985 159.146 
160.283 160.398 161.444 161.437 162.371 162.307 163.208 158.507 158.682 
159.785 159.958 161.067 161.232 162.286 162.383 163.324 163.318 164.194 
164.147 164.996 159.14 159.38 160.477 160.707 161.78 161.967 162.987 
163.142 164.095 164.18 165.046 165.065 165.883 165.86 166.581 159.635 
159.926 160.963 161.273 162.284 162.56 163.514 163.754 164.659 164.846 
165.668 165.784 166.533 166.612 167.297 167.288 167.796 159.983 160.321 
161.273 161.624 162.547 162.896 163.786 164.128 164.992 165.283 166.064 
166.263 166.959 167.113 167.78 167.884 168.446 168.367 168.683 153.071 
151.988 152.912 153.694 150.839 151.783 152.562 153.548 154.377 149.689 
150.6 151.312 152.329 153.144 154.206 155.077 148.536 149.422 150.062 
151.04 151.823 152.91 153.82 154.925 155.859 147.392 148.243 148.871 
149.804 150.56 151.602 152.532 153.663 154.661 155.751 156.693 146.394 
147.135 147.77 148.655 149.423 150.395 151.295 152.39 153.403 154.543 
155.519 156.578 157.457 145.601 146.212 146.796 147.613 148.388 149.312 
150.168 151.177 152.134 153.264 154.268 155.382 156.292 157.307 158.117 
144.915 145.448 145.93 146.667 147.39 148.294 149.118 150.068 150.933 
151.989 152.959 154.108 155.067 156.137 156.97 157.934 158.666 144.263 
144.752 145.151 145.796 146.428 147.284 148.081 149.011 149.819 150.791 
151.659 152.77 153.714 154.862 155.723 156.76 157.483 158.425 159.057 
144.011 143.971 144.274 144.925 144.131 144.363 145.117 145.376 146.233 
144.534 144.7 145.561 145.747 146.694 146.921 147.912 145.075 145.232 
146.167 146.331 147.321 147.499 148.503 148.689 149.666 145.654 145.818 
146.78 146.973 147.983 148.168 149.169 149.326 150.318 150.471 151.492 
146.282 146.427 147.404 147.594 148.638 148.835 149.883 150.033 151.066 
151.193 152.273 152.418 153.528 146.955 147.09 148.087 148.257 149.329 
149.52 150.636 150.802 151.905 152.019 153.117 153.243 154.36 154.499 
155.545 147.616 147.769 148.773 148.956 150.021 150.225 151.341 151.562 
152.701 152.879 153.973 154.097 155.151 155.288 156.301 156.419 157.32 
148.245 148.412 149.406 149.614 150.653 150.878 151.94 152.2 153.301 
153.582 154.664 154.877 155.874 156.024 156.972 157.112 158.012 158.101 
158.897 148.909 150.394 149.789 150.119 152.078 151.392 151.748 151.079 
151.406 153.954 153.186 153.56 152.808 153.135 152.402 152.712 155.945 
155.133 155.507 154.703 155.04 154.224 154.536 153.757 154.087 157.87 
157.111 157.487 156.694 157.072 156.221 156.552 155.683 156.003 155.186 
155.482 159.605 158.965 159.393 158.674 159.122 158.313 158.695 157.785 
158.079 157.167 157.414 156.546 156.725 161.178 160.65 161.152 160.535 
161.026 160.333 160.749 159.92 160.193 159.261 159.442 158.507 158.645 
157.731 157.827 162.59 162.183 162.699 162.196 162.642 162.09 162.461 
161.814 162.052 161.26 161.386 160.5 160.592 159.672 159.742 158.812 
158.856 163.71 163.47 163.948 163.583 163.943 163.505 163.789 163.297 
163.499 162.901 163.006 162.284 162.337 161.53 161.557 160.689 160.677 
159.773 159.725 148.449 148.202 148.844 149.909 147.918 148.614 149.748 
150.401 151.571 147.615 148.333 149.535 150.255 151.519 152.183 153.459 
147.374 148.048 149.273 150.042 151.418 152.176 153.6 154.219 155.528 
147.208 147.84 149.038 149.796 151.232 152.084 153.651 154.409 155.847 
156.347 157.523 147.052 147.681 148.871 149.596 151.011 151.888 153.495 
154.406 155.928 156.611 157.819 158.231 159.218 146.936 147.539 148.742 
149.444 150.814 151.656 153.2 154.162 155.681 156.536 157.763 158.363 
159.338 159.781 160.696 146.939 147.47 148.651 149.319 150.644 151.436 
152.889 153.811 155.271 156.179 157.413 158.142 159.132 159.728 160.649 
161.174 162.063 147.046 147.504 148.616 149.231 150.491 151.235 152.596 
153.457 154.834 155.726 156.939 157.72 158.714 159.397 160.312 160.969 
161.859 162.429 163.195 147.503 145.953 146.873 147.176 144.307 145.226 
145.445 146.475 146.804 142.617 143.5 143.61 144.636 144.929 146.068 
146.464 140.913 141.761 141.77 142.735 142.976 144.144 144.608 145.79 
146.266 139.216 140.029 139.95 140.843 140.968 142.135 142.616 143.921 
144.496 145.66 146.136 137.672 138.387 138.306 139.056 139.073 140.093 
140.489 141.845 142.48 143.826 144.37 145.517 145.959 136.452 137.021 
137.072 137.642 137.738 138.42 138.76 139.809 140.459 141.773 142.453 
143.703 144.244 145.354 145.843 135.57 136.008 136.185 136.681 136.975 
137.462 137.874 138.49 139.105 140.024 140.792 141.905 142.633 143.721 
144.341 145.353 145.914 134.949 135.28 135.473 135.941 136.319 136.858 
137.357 137.887 138.449 139.052 139.725 140.546 141.325 142.298 143.051 
144.005 144.653 145.549 146.115 134.716 134.636 134.813 135.239 134.798 
134.836 135.267 135.493 136.106 135.27 135.134 135.524 135.619 136.278 
136.539 137.252 136.055 135.766 136.127 136.021 136.629 136.792 137.571 
137.771 138.439 137.031 136.657 136.986 136.744 137.249 137.239 137.949 
138.118 138.871 138.992 139.675 138.06 137.648 137.896 137.607 138.022 
137.905 138.519 138.573 139.344 139.474 140.3 140.38 141.21 139.102 
138.668 138.879 138.519 138.903 138.695 139.293 139.235 140.022 140.078 
140.997 141.089 142.026 142.065 142.933 140.147 139.726 140.002 139.589 
140.011 139.685 140.299 140.116 140.906 140.87 141.794 141.864 142.825 
142.894 143.768 143.768 144.534 141.17 140.791 141.135 140.766 141.236 
140.894 141.489 141.22 141.939 141.808 142.652 142.673 143.585 143.666 
144.523 144.556 145.302 145.279 145.964 141.831 142.947 142.194 141.877 
144.333 143.452 143.186 142.364 142.092 146.037 145.018 144.771 143.82 
143.583 142.677 142.416 147.947 146.871 146.645 145.563 145.313 144.283 
144.032 143.071 142.862 149.943 148.853 148.687 147.555 147.328 146.168 
145.92 144.814 144.628 143.637 143.557 152.051 150.926 150.806 149.657 
149.493 148.296 148.093 146.877 146.703 145.56 145.477 144.466 144.472 
154.149 153.074 152.969 151.827 151.681 150.497 150.316 149.109 148.93 
147.74 147.598 146.479 146.393 145.397 145.367 156.009 155.079 154.988 
153.954 153.81 152.681 152.478 151.298 151.073 149.912 149.705 148.581 
148.393 147.323 147.171 146.21 146.111 157.618 156.806 156.727 155.84 
155.724 154.729 154.543 153.421 153.162 151.993 151.734 150.607 150.378 
149.288 149.073 148.026 147.848 146.894 146.769 147.451 148.607 148.335 
149.041 149.89 149.601 150.388 150.101 150.935 151.23 150.956 151.815 
151.536 152.446 152.133 153.049 152.632 152.357 153.278 153.011 153.968 
153.682 154.631 154.312 155.235 154.108 153.837 154.809 154.526 155.488 
155.198 156.115 155.834 156.707 156.427 157.24 155.48 155.304 156.288 
156.064 157.008 156.716 157.574 157.263 158.067 157.792 158.559 158.287 
158.981 156.606 156.549 157.5 157.415 158.346 158.163 159.005 158.708 
159.473 159.144 159.893 159.584 160.31 159.978 160.627 157.569 157.563 
158.491 158.485 159.407 159.353 160.212 160.046 160.81 160.534 161.238 
160.927 161.623 161.314 161.981 161.624 162.2 158.45 158.479 159.404 
159.421 160.326 160.319 161.166 161.113 161.875 161.737 162.397 162.174 
162.77 162.529 163.109 162.869 163.405 163.092 163.518 139.6 139.376 
139.083 138.311 139.229 138.857 138.005 137.752 137.004 139.239 138.759 
137.9 137.517 136.726 136.466 135.759 139.437 138.876 138.05 137.552 
136.813 136.37 135.622 135.272 134.627 139.686 139.146 138.345 137.808 
137.096 136.599 135.875 135.342 134.586 134.221 133.758 139.915 139.423 
138.676 138.138 137.405 136.9 136.194 135.666 134.925 134.378 133.793 
133.539 133.411 140.206 139.72 139.085 138.532 137.849 137.26 136.577 
136.015 135.389 134.826 134.313 133.828 133.613 133.451 133.61 140.591 
140.101 139.554 139.023 138.45 137.828 137.215 136.553 136.008 135.406 
135.013 134.484 134.273 133.888 133.918 133.803 134.037 141.038 140.546 
140.033 139.531 139.021 138.47 137.943 137.311 136.811 136.17 135.788 
135.234 135.005 134.573 134.503 134.233 134.328 134.248 134.458 139.543 
138.296 139.01 139.29 137.043 137.775 138.115 138.916 139.443 135.783 
136.528 136.928 137.783 138.376 139.235 139.879 134.639 135.309 135.735 
136.61 137.276 138.187 138.859 139.691 140.256 133.881 134.357 134.84 
135.549 136.264 137.116 137.851 138.682 139.272 140.013 140.527 133.656 
133.907 134.474 134.932 135.639 136.262 137.002 137.737 138.404 139.107 
139.69 140.368 141.012 133.853 133.938 134.5 134.785 135.428 135.825 
136.464 137.017 137.703 138.354 139.043 139.675 140.39 141.048 141.825 
134.213 134.222 134.681 134.874 135.434 135.704 136.258 136.621 137.268 
137.797 138.561 139.156 139.941 140.544 141.334 141.957 142.685 134.579 
134.545 134.896 135.024 135.515 135.733 136.283 136.539 137.18 137.546 
138.323 138.809 139.63 140.168 140.948 141.513 142.216 142.764 143.325 
140.279 140.098 140.554 141.37 140.296 140.577 141.457 141.794 142.599 
140.724 140.933 141.827 142.069 142.938 143.131 143.909 141.052 141.332 
142.194 142.479 143.354 143.569 144.406 144.553 145.436 141.295 141.577 
142.412 142.749 143.593 143.912 144.761 145.039 145.958 146.209 147.215 
141.785 141.909 142.752 142.972 143.801 144.086 144.917 145.273 146.176 
146.584 147.542 147.923 148.848 142.564 142.561 143.372 143.438 144.222 
144.365 145.159 145.427 146.296 146.689 147.593 148.039 148.899 149.328 
150.124 143.321 143.333 144.028 144.07 144.737 144.824 145.532 145.725 
146.548 146.851 147.726 148.076 148.917 149.295 150.101 150.503 151.289 
143.851 143.927 144.502 144.591 145.157 145.261 145.887 146.072 146.836 
147.118 147.968 148.272 149.107 149.403 150.223 150.544 151.364 151.708 
152.491 147.383 146.735 146.668 145.868 146.064 145.997 145.18 145.118 
144.283 145.38 145.297 144.437 144.386 143.529 143.488 142.628 144.739 
144.611 143.692 143.601 142.671 142.65 141.759 141.779 140.919 144.17 
143.998 143.067 142.889 141.922 141.795 140.855 140.84 139.978 140.037 
139.218 143.697 143.489 142.62 142.368 141.472 141.203 140.305 140.084 
139.227 139.136 138.351 138.374 137.657 143.409 143.141 142.372 142.059 
141.26 140.925 140.116 139.764 138.943 138.626 137.841 137.657 136.971 
136.948 136.395 143.346 143.016 142.328 141.951 141.192 140.815 140.021 
139.658 138.845 138.482 137.689 137.366 136.672 136.462 135.919 135.875 
135.495 143.436 143.075 142.415 141.998 141.234 140.805 139.982 139.576 
138.738 138.371 137.59 137.272 136.606 136.33 135.79 135.589 135.186 
135.137 134.88 
POINT_DATA 1002
SCALARS Distance double
LOOKUP_TABLE default
142.511 141.521 142.287 143.364 143.177 143.721 144.312 144.051 144.684 
145.255 145.205 144.923 145.724 146.355 147.083 146.117 145.895 146.738 
147.511 148.263 149.005 147.121 146.816 147.835 148.727 149.543 150.287 
151.027 148.151 147.673 149.021 150.049 150.947 151.727 152.484 153.177 
149.365 148.786 150.288 151.386 152.365 153.19 153.969 154.659 155.178 
150.822 150.17 151.694 152.722 153.708 154.57 155.357 156.045 156.558 
156.886 152.23 151.514 153.072 154.02 154.978 155.887 156.711 157.389 
157.889 158.221 158.401 141.067 141.891 140.663 141.551 140.361 142.827 
141.372 140.181 142.578 143.797 141.328 139.994 142.536 143.765 144.911 
141.229 139.758 142.586 143.915 145.176 146.061 141.077 139.648 142.518 
143.99 145.423 146.369 146.886 141.022 139.725 142.362 143.84 145.396 
146.504 147.019 147.62 141.062 139.877 142.258 143.606 145.167 146.43 
147.063 147.631 148.702 141.153 140.083 142.242 143.448 144.935 146.328 
147.115 147.657 148.626 150.032 141.049 142.075 142.155 143.069 143.325 
143.175 144.196 144.656 144.256 144.594 145.731 146.398 145.563 145.9 
146.206 147.709 148.275 147.197 147.218 147.395 147.301 149.591 149.752 
149.036 148.6 148.469 148.257 147.908 151.098 150.913 150.852 150.267 
149.797 149.494 149.16 148.853 152.415 152.072 152.548 152.218 151.646 
151.21 150.899 150.598 150.316 153.612 153.234 153.999 154.085 153.733 
153.243 152.872 152.544 152.199 151.862 153.223 153.633 155.07 154.088 
155.615 157.211 154.539 156.189 157.878 159.528 154.947 156.695 158.45 
160.157 161.647 155.401 157.175 158.98 160.71 162.27 163.552 155.741 
157.557 159.468 161.295 162.932 164.339 165.369 155.61 157.442 159.496 
161.531 163.346 164.945 166.176 166.917 155.104 156.824 158.879 161.061 
163.049 164.854 166.4 167.455 168.07 154.615 156.176 158.081 160.231 
162.255 164.093 165.824 167.235 168.211 168.892 154.108 156.157 155.103 
158.495 157.315 156.141 160.845 159.717 158.458 157.182 162.873 161.96 
160.819 159.566 158.165 164.661 163.851 162.88 161.771 160.467 158.925 
166.274 165.497 164.627 163.587 162.387 160.98 159.404 167.656 166.976 
166.204 165.229 163.986 162.647 161.227 159.7 168.814 168.315 167.611 
166.75 165.535 164.096 162.725 161.342 159.851 169.706 169.616 170.371 
170.041 170.391 168.98 169.661 169.708 169.12 168.113 168.812 168.885 
168.573 168.059 166.997 168.007 168.068 167.773 167.456 166.714 165.464 
167.043 167.003 166.856 166.569 165.991 165.018 163.874 165.89 165.88 
165.714 165.478 165.04 164.297 163.411 162.444 164.87 164.902 164.625 
164.356 164.028 163.467 162.731 161.912 160.947 163.915 163.903 163.675 
163.347 163.03 162.604 161.975 161.208 160.341 159.382 168.949 169.697 
168.447 169.005 167.634 170.19 168.041 166.799 169.316 170.029 167.118 
165.851 168.292 169.162 169.365 165.984 164.672 167.246 168.154 168.603 
168.582 164.602 163.431 165.861 166.899 167.467 167.692 167.573 163.283 
162.213 164.344 165.337 166.014 166.357 166.509 166.378 162.012 160.946 
162.97 163.82 164.509 164.959 165.231 165.383 165.3 160.649 159.651 
161.585 162.402 163.106 163.671 164.04 164.264 164.379 164.282 153.813 
155.323 154.515 156.228 155.243 157.113 157.156 155.989 158.273 159.254 
158.001 156.805 159.31 160.476 161.393 158.828 157.609 160.13 161.412 
162.448 163.278 159.611 158.304 160.919 162.156 163.294 164.233 165.073 
160.228 158.89 161.594 162.829 163.98 165.016 165.892 166.686 160.663 
159.354 161.999 163.26 164.455 165.545 166.447 167.262 167.945 152.17 
152.757 151.04 151.557 149.923 153.376 150.325 148.823 152.058 154.003 
149.123 147.667 150.743 152.675 154.785 147.945 146.57 149.55 151.393 
153.533 155.667 146.894 145.723 148.475 150.247 152.248 154.432 156.46 
146.026 145.061 147.474 149.219 151.041 153.117 155.258 157.159 145.264 
144.426 146.507 148.192 149.947 151.814 153.951 155.995 157.756 144.571 