# vtk DataFile Version 4.0
vtk output
ASCII
DATASET POLYDATA
POINTS 1002 float
-78.8546 -106.939 61.509 -78.9289 -106.075 60.6059 -79.5273 -106.379 60.7901 
-79.4507 -107.451 61.7075 -80.2396 -106.781 61.0956 -78.8082 -108.078 62.3383 
-80.1721 -108.136 61.9708 -81.0256 -107.311 61.4918 -79.3503 -108.801 62.4743 
-78.7102 -109.439 63.037 -80.8259 -108.957 62.1818 -81.5685 -108.086 61.6668 
-79.9426 -109.673 62.5834 -79.1833 -110.275 63.1322 -78.5382 -111.098 63.7464 
-80.9859 -110.037 62.0335 -81.7118 -109.145 61.4897 -80.2424 -110.699 62.5178 
-79.5676 -111.249 63.1465 -78.9647 -112.106 63.92 -78.3676 -113.177 64.6121 
-80.7886 -111.331 61.7035 -81.7547 -110.315 61.3295 -80.0944 -112.003 62.2637 
-79.6311 -112.472 63.0594 -79.2459 -113.268 64.064 -78.7591 -114.375 64.9368 
-78.2835 -115.289 65.6375 -80.816 -112.527 61.7093 -81.889 -111.466 61.4454 
-80.0996 -113.283 62.3085 -79.7323 -113.811 63.2109 -79.5158 -114.537 64.343 
-79.1864 -115.538 65.3838 -78.7644 -116.412 66.1501 -78.4235 -116.992 66.8496 
-81.1667 -113.532 62.1272 -82.0099 -112.589 61.741 -80.6337 -114.231 62.874 
-80.3564 -114.807 63.9087 -80.1704 -115.574 65.0276 -79.8898 -116.507 66.0627 
-79.4909 -117.332 66.8827 -79.1313 -117.958 67.5513 -78.8338 -118.497 68.1805 
-81.6255 -114.418 62.7769 -82.1286 -113.618 62.1662 -81.382 -115.012 63.6888 
-81.2479 -115.527 64.8504 -81.0729 -116.288 65.964 -80.7962 -117.245 66.8819 
-80.4005 -118.083 67.691 -79.9955 -118.773 68.4051 -79.6571 -119.434 68.962 
-79.3237 -120.038 69.3738 -82.1374 -115.173 63.5497 -82.3722 -114.473 62.7513 
-82.0873 -115.752 64.5436 -82.035 -116.272 65.7036 -81.8505 -116.994 66.7921 
-81.5757 -117.955 67.6291 -81.2287 -118.837 68.3734 -80.8234 -119.532 69.1598 
-80.4384 -120.211 69.7983 -80.0841 -120.881 70.1423 -79.7205 -121.389 70.3164 
-79.4212 -105.529 59.7617 -80.0985 -105.76 59.9665 -79.9731 -105.01 58.8948 
-80.7462 -105.24 59.1133 -80.6033 -104.464 58.089 -80.8774 -106.048 60.3453 
-81.4868 -104.815 58.2537 -81.3107 -103.935 57.2717 -81.5381 -105.606 59.434 
-81.6275 -106.534 60.7417 -82.2409 -104.405 57.3488 -81.9785 -103.603 56.3165 
-82.3004 -105.377 58.443 -82.2475 -106.179 59.765 -82.168 -107.305 60.915 
-82.8584 -104.133 56.4117 -82.5937 -103.548 55.2857 -83.0439 -105.072 57.5085 
-83.0437 -106.018 58.8213 -82.9529 -106.863 60.1428 -82.6099 -108.256 60.9906 
-83.3984 -104.15 55.4997 -83.2173 -103.603 54.2928 -83.5934 -104.873 56.6892 
-83.7717 -105.795 57.9733 -83.8433 -106.633 59.4181 -83.7255 -107.611 60.6148 
-83.0187 -109.316 61.1885 -83.9095 -104.312 54.5863 -83.7049 -103.703 53.354 
-84.0937 -104.984 55.9474 -84.3555 -105.737 57.18 -84.5005 -106.523 58.4802 
-84.5564 -107.326 59.94 -84.2207 -108.588 60.981 -83.1569 -110.541 61.3886 
-84.2571 -104.53 53.721 -83.931 -104.012 52.586 -84.6024 -105.204 55.2166 
-85.0686 -105.872 56.5143 -85.2224 -106.525 57.526 -85.0621 -107.254 58.8258 
-84.8634 -108.272 60.236 -84.1843 -109.872 61.0769 -83.0031 -111.854 61.5163 
-84.4114 -104.924 53.111 -83.9893 -104.59 52.1654 -84.94 -105.47 54.5537 
-85.7388 -106.056 55.9389 -86.1965 -106.593 56.8611 -85.8499 -107.227 57.8473 
-85.2927 -108.151 59.2189 -84.7555 -109.519 60.3723 -83.8402 -111.284 61.0631 
-82.8428 -113.056 61.7556 -84.324 -105.48 52.5491 -84.8752 -105.83 53.7369 
-84.6976 -106.508 53.2882 -85.4326 -106.857 54.5045 -84.9851 -107.585 54.0799 
-85.8186 -106.31 55.172 -85.6805 -107.958 55.0575 -85.0124 -108.657 54.7196 
-86.5179 -107.295 55.5813 -86.8268 -106.795 56.2449 -85.5052 -109.138 55.5644 
-84.9265 -109.868 55.3681 -86.4254 -108.513 55.8949 -87.1709 -107.845 56.4994 
-86.8547 -107.358 57.1648 -85.307 -110.519 56.2259 -84.8664 -111.424 56.0166 
-85.8614 -109.865 56.495 -86.5596 -109.281 57.0234 -86.6727 -108.625 57.7835 
-85.9928 -108.232 58.4705 -85.0222 -112.234 56.8814 -84.542 -113.139 56.6639 
-85.3378 -111.369 57.2453 -85.6843 -110.786 57.6961 -85.8851 -110.254 58.4132 
-85.6211 -109.785 59.1438 -85.1321 -109.565 59.735 -84.3572 -114.002 57.8466 
-83.8491 -114.534 57.7762 -84.6906 -113.194 58.1722 -84.8972 -112.447 58.495 
-84.9831 -111.918 58.9493 -84.8743 -111.57 59.5844 -84.5927 -111.382 60.1269 
-84.2438 -111.296 60.5938 -83.6552 -115.376 59.4749 -83.1839 -115.499 59.4955 
-84.0517 -115.001 59.6406 -84.335 -114.384 59.7895 -84.4159 -113.735 59.9744 
-84.2712 -113.319 60.3936 -84.0155 -113.18 60.857 -83.7014 -113.128 61.1885 
-83.3043 -113.066 61.4865 -83.3363 -116.381 61.3191 -82.8708 -116.327 61.29 
-83.8113 -116.379 61.3878 -84.2399 -116.138 61.4047 -84.4747 -115.599 61.4591 
-84.3848 -115.033 61.7872 -84.067 -114.756 62.2453 -83.6866 -114.69 62.5051 
-83.2674 -114.61 62.6016 -82.8114 -114.518 62.6851 -82.7495 -115.644 64.0842 
-83.2451 -115.784 64.1469 -83.443 -116.845 65.6352 -83.7896 -115.948 64.2207 
-83.9968 -117.107 65.7282 -84.0196 -118.261 67.1275 -84.3274 -116.061 64.2077 
-84.6194 -117.32 65.8356 -84.5923 -118.605 67.2518 -84.5407 -119.802 68.7488 
-84.7867 -116.242 63.8411 -85.1866 -117.473 65.7511 -85.2393 -118.806 67.378 
-85.2464 -120.088 69.0259 -85.4971 -121.16 70.5918 -85.0171 -116.729 63.2438 
-85.4917 -117.833 65.2247 -85.6664 -119.079 67.2224 -85.9415 -120.32 69.1129 
-86.4222 -121.341 70.8072 -86.72 -122.209 72.1755 -84.8622 -117.306 62.9316 
-85.4315 -118.427 64.6067 -85.6585 -119.636 66.7159 -86.1415 -120.856 68.8425 
-87.0412 -121.771 70.5781 -87.6114 -122.444 72.0585 -87.607 -123.045 73.3865 
-84.3794 -117.559 62.9399 -85.0466 -118.819 64.3374 -85.3695 -120.124 66.2099 
-85.8075 -121.428 68.4079 -86.8556 -122.455 70.1632 -87.8719 -123.067 71.6222 
-88.2233 -123.479 73.1417 -88.132 -123.804 74.5592 -83.7742 -117.489 62.9454 
-84.4422 -118.832 64.2674 -84.9282 -120.235 65.8336 -85.3245 -121.555 67.9186 
-86.1174 -122.706 69.8014 -87.2136 -123.549 71.2858 -88.0625 -124.053 72.8341 
-88.4407 -124.36 74.3502 -88.4596 -124.551 75.611 -83.1938 -117.351 62.8588 
-83.7668 -118.668 64.1632 -84.3286 -120.096 65.508 -84.8025 -121.382 67.3368 
-85.3778 -122.471 69.2966 -86.1643 -123.424 70.9635 -87.088 -124.173 72.5702 
-87.9328 -124.668 74.0967 -88.4211 -125.004 75.2852 -88.4589 -125.222 76.2746 
-82.7643 -116.31 65.1304 -83.4219 -117.616 66.7725 -82.7506 -116.961 66.2856 
-83.9322 -119.173 68.3513 -83.2911 -118.461 67.9326 -82.5627 -117.732 67.4055 
-84.6848 -120.757 70.1098 -83.9289 -120.104 69.5692 -83.0766 -119.455 68.9718 
-82.2647 -118.736 68.3049 -85.7924 -122.093 71.9191 -84.8752 -121.644 71.3833 
-83.8609 -121.069 70.7127 -82.8057 -120.51 69.8898 -81.9425 -119.73 69.0737 
-86.7809 -123.001 73.462 -85.8493 -122.822 73.165 -84.7784 -122.363 72.6165 
-83.5829 -121.884 71.7965 -82.4585 -121.302 70.8066 -81.5619 -120.449 69.9282 
-87.493 -123.555 74.8617 -86.6707 -123.402 74.833 -85.646 -123.152 74.4337 
-84.4416 -122.792 73.689 -83.1959 -122.375 72.6756 -82.0468 -121.805 71.6352 
-81.1419 -121.054 70.6995 -88.0335 -124.108 76.1345 -87.3539 -123.681 76.4293 
-86.4307 -123.42 76.2234 -85.2716 -123.274 75.4654 -84.0325 -123.054 74.3711 
-82.7639 -122.696 73.214 -81.5952 -122.259 72.1172 -80.7295 -121.68 71.0864 
-88.2507 -124.825 77.0332 -87.7364 -124.18 77.7048 -86.9509 -123.639 77.8581 
-85.8876 -123.477 77.2327 -84.71 -123.476 76.0518 -83.5017 -123.286 74.7405 
-82.2281 -122.978 73.4719 -81.1089 -122.665 72.2545 -80.3204 -122.176 71.1767 
-88.0174 -125.675 77.2137 -87.7669 -125.159 78.2847 -87.2171 -126.014 78.276 
-86.9411 -125.35 79.3198 -86.3091 -126.108 78.9885 -87.1922 -124.329 78.9926 
-85.8456 -125.39 79.434 -85.1073 -126.131 78.7582 -86.2478 -124.456 79.5721 
-86.2568 -123.76 78.8021 -84.1342 -125.563 78.7951 -83.2234 -126.336 78.1694 
-84.8347 -124.617 79.1416 -85.1329 -123.967 78.8986 -85.0794 -123.703 77.7374 
-81.9726 -125.887 78.5526 -81.2743 -126.475 77.9993 -82.8478 -124.954 78.6618 
-83.5696 -124.183 78.4587 -83.915 -123.886 77.7421 -83.8913 -123.681 76.3275 
-80.3429 -125.939 78.5682 -79.9437 -126.323 77.7412 -80.9684 -125.248 78.7195 
-81.7935 -124.419 78.2737 -82.467 -123.927 77.5887 -82.7598 -123.705 76.4492 
-82.6376 -123.411 74.8844 -79.2622 -125.737 77.942 -78.8272 -126.154 77.0256 
-79.7448 -125.216 78.4029 -80.3743 -124.54 78.1171 -81.029 -123.95 77.4091 
-81.4596 -123.612 76.4261 -81.549 -123.387 74.9556 -81.3667 -123.124 73.402 
-78.0881 -125.596 76.973 -77.6098 -126.091 76.2938 -78.6416 -125.055 77.442 
-79.2477 -124.477 77.4372 -79.8121 -123.94 76.9442 -80.2222 -123.539 76.1418 
-80.4309 -123.272 74.8979 -80.45 -123.09 73.3304 -80.3795 -122.804 72.0295 
-76.9008 -125.469 76.2185 -76.5778 -125.947 75.7302 -77.3863 -124.923 76.4995 
-78.0212 -124.362 76.531 -78.635 -123.855 76.2217 -79.0767 -123.443 75.5924 
-79.3767 -123.117 74.6223 -79.5685 -122.885 73.2857 -79.6522 -122.665 71.9481 
-79.6913 -122.206 70.9876 -88.0581 -125.565 76.0081 -87.3776 -126.023 76.7337 
-87.1152 -125.57 75.5278 -86.3458 -126.033 76.0527 -85.9986 -125.567 74.8465 
-86.4723 -126.344 77.6657 -85.324 -126.133 75.18 -85.0863 -125.811 73.9875 
-85.535 -126.402 76.7435 -85.5789 -126.45 78.1752 -84.4081 -126.395 74.1412 
-84.1412 -125.913 73.0699 -84.5443 -126.555 75.5127 -84.5898 -126.614 76.9613 
-84.209 -126.576 77.8043 -83.3042 -126.317 73.1359 -82.9363 -125.531 72.2146 
-83.3886 -126.669 74.2218 -83.2828 -126.767 75.5541 -82.9847 -126.85 76.6287 
-82.2536 -126.785 77.3149 -82.1345 -125.816 72.2421 -81.8543 -124.982 71.3111 
-82.1659 -126.435 73.1485 -81.8735 -126.789 74.2759 -81.5715 -127.049 75.4303 
-81.2048 -127.083 76.2886 -80.5927 -126.786 77.0361 -81.2072 -125.253 71.2547 
-81.0893 -124.534 70.2205 -81.1787 -125.982 72.1602 -80.8073 -126.601 73.1164 
-80.4192 -127.112 74.1874 -80.213 -127.34 75.118 -79.8755 -127.112 75.8397 
-79.3438 -126.642 76.5094 -80.4365 -124.708 70.1355 -80.4229 -124.052 69.0921 
-80.3706 -125.454 71.0673 -80.0564 -126.203 71.9264 -79.673 -126.856 72.8499 
-79.4601 -127.285 73.7765 -79.1624 -127.316 74.5505 -78.6132 -127.009 75.2286 
-78.0494 -126.576 75.8579 -79.7197 -124.061 69.0914 -79.77 -123.412 68.1407 
-79.61 -124.798 69.9841 -79.3579 -125.565 70.7887 -79.0455 -126.211 71.6158 
[...]
CELL_DATA 2000
SCALARS Distance double
LOOKUP_TABLE default
144.977 145.713 145.559 146.06 146.643 146.421 146.945 146.738 147.278 
147.627 147.428 147.959 147.697 148.206 147.994 148.594 148.468 148.357 
148.873 148.673 149.145 148.939 149.552 149.419 150.202 149.234 149.124 
149.641 149.5 150.001 149.844 150.518 150.432 151.316 151.22 152.136 
150.128 149.932 150.503 150.321 150.955 150.776 151.591 151.49 152.5 
152.413 153.407 153.227 154.095 151.156 150.923 151.578 151.353 152.139 
151.923 152.881 152.728 153.824 153.697 154.747 154.544 155.447 155.178 
156.001 152.216 152.018 152.772 152.564 153.446 153.246 154.262 154.111 
155.21 155.075 156.115 155.915 156.831 156.566 157.417 157.122 157.937 
153.266 153.123 153.968 153.814 154.748 154.588 155.593 155.466 156.516 
156.409 157.411 157.251 158.15 157.93 158.77 158.522 159.315 159.025 
159.721 144.494 144.032 144.543 145.18 143.642 144.117 144.733 145.285 
146.04 143.334 143.79 144.421 144.889 145.587 146.186 146.988 143.073 
143.528 144.218 144.654 145.328 145.793 146.521 147.117 147.867 142.894 
143.302 144.014 144.474 145.209 145.627 146.335 146.765 147.5 148.006 
148.717 142.862 143.192 143.883 144.297 145.075 145.526 146.305 146.697 
147.449 147.822 148.568 148.957 149.669 142.892 143.21 143.921 144.264 
145.046 145.442 146.245 146.657 147.434 147.835 148.585 148.946 149.654 
149.988 150.679 142.929 143.245 144.013 144.371 145.215 145.546 146.336 
146.639 147.352 147.736 148.457 148.907 149.603 149.989 150.629 150.986 
151.66 143.104 143.331 144.121 144.487 145.419 145.789 146.639 146.855 
147.502 147.697 148.321 148.699 149.391 149.845 150.494 150.892 151.516 
151.927 152.626 143.531 144.655 144.194 144.557 145.931 145.442 145.843 
145.419 145.916 147.072 146.689 147.1 146.743 147.216 146.812 147.167 
148.092 147.732 148.114 147.865 148.305 148.014 148.294 147.851 147.97 
149.284 148.79 149.106 148.79 149.209 148.973 149.285 148.898 149.015 
148.53 148.687 150.628 150.071 150.3 149.829 150.15 149.845 150.187 
149.863 150.078 149.618 149.806 149.36 149.687 151.864 151.398 151.629 
151.086 151.319 150.853 151.138 150.777 151.059 150.685 150.94 150.521 
150.822 150.433 150.787 152.981 152.612 153.002 152.483 152.822 152.2 
152.514 151.918 152.263 151.765 152.146 151.695 152.073 151.619 151.975 
151.533 151.863 154.137 153.804 154.382 153.949 154.494 153.886 154.348 
153.599 154.029 153.29 153.778 153.131 153.643 153.035 153.485 152.88 
153.263 152.69 153.04 153.978 154.282 154.646 155.737 154.604 155.018 
156.19 156.545 157.705 154.858 155.369 156.637 157.045 158.26 158.566 
159.748 155.05 155.618 156.963 157.471 158.745 159.127 160.364 160.68 
161.94 155.309 155.841 157.192 157.746 159.064 159.556 160.857 161.285 
162.6 162.939 164.167 155.579 156.108 157.399 157.95 159.252 159.813 
161.173 161.726 163.101 163.548 164.781 165.061 166.057 155.621 156.243 
157.442 158.068 159.297 159.931 161.261 161.942 163.329 163.934 165.174 
165.574 166.567 166.769 167.556 155.384 156.077 157.182 157.925 159.075 
159.823 161.039 161.843 163.112 163.915 165.089 165.742 166.726 167.151 
167.96 168.162 168.826 155.042 155.711 156.735 157.513 158.605 159.425 
160.54 161.407 162.519 163.42 164.456 165.322 166.245 166.997 167.801 
168.339 168.991 169.276 169.773 154.138 155.917 154.987 154.96 157.875 
156.895 156.892 155.888 155.83 159.928 158.915 158.951 157.908 157.876 
156.803 156.726 162.161 161.081 161.166 160.048 160.058 158.929 158.872 
157.743 157.659 164.402 163.396 163.521 162.372 162.394 161.198 161.152 
159.956 159.845 158.678 158.536 166.253 165.492 165.636 164.672 164.666 
163.537 163.436 162.246 162.079 160.874 160.654 159.483 159.256 167.699 
167.108 167.246 166.534 166.519 165.615 165.444 164.394 164.137 163.012 
162.71 161.557 161.259 160.129 159.863 168.957 168.437 168.55 167.95 
167.938 167.219 167.043 166.174 165.867 164.882 164.505 163.46 163.082 
162.034 161.704 160.662 160.362 169.959 169.594 169.693 169.17 169.131 
168.499 168.321 167.584 167.281 166.433 166.03 165.088 164.634 163.674 
163.25 162.327 161.958 161.035 160.683 170.396 170.864 170.564 170.226 
171.015 170.922 170.618 170.223 169.65 170.608 170.81 170.488 170.389 
169.808 169.465 168.767 169.689 170.084 169.728 169.929 169.381 169.358 
168.696 168.448 167.698 168.724 169.084 168.758 169.006 168.523 168.696 
168.149 168.171 167.5 167.275 166.455 167.883 168.224 167.982 168.155 
167.721 167.841 167.36 167.496 166.936 166.918 166.155 165.917 165.039 
166.948 167.372 167.167 167.437 167.024 167.135 166.62 166.726 166.188 
166.263 165.577 165.488 164.656 164.445 163.617 165.933 166.356 166.116 
166.503 166.108 166.36 165.827 165.977 165.4 165.505 164.856 164.854 
164.092 163.984 163.212 163.056 162.32 165.001 165.337 165.04 165.396 
165.008 165.334 164.844 165.087 164.518 164.681 164.051 164.121 163.421 
163.394 162.676 162.602 161.912 161.786 161.073 170.39 170.039 170.469 
170.775 169.244 169.869 170.269 170.745 170.927 168.458 169.029 169.438 
170.054 170.347 170.744 170.631 167.732 168.293 168.611 169.186 169.448 
169.994 169.977 170.217 169.799 166.698 167.438 167.67 168.282 168.397 
168.988 168.972 169.415 169.128 169.274 168.802 165.384 166.222 166.457 
167.165 167.215 167.835 167.812 168.358 168.21 168.538 168.199 168.318 
167.899 164.107 164.892 165.155 165.883 165.992 166.616 166.656 167.233 
167.23 167.661 167.468 167.678 167.305 167.407 166.968 162.896 163.637 
163.873 164.607 164.757 165.414 165.493 166.111 166.165 166.708 166.614 
166.942 166.623 166.775 166.356 166.446 166.004 161.673 162.392 162.575 
163.316 163.452 164.159 164.217 164.893 164.903 165.557 165.47 165.985 
165.712 166.021 165.633 165.815 165.422 165.52 165.114 155.171 155.978 
155.976 156.871 156.9 156.867 157.782 157.788 158.744 157.809 157.799 
158.715 158.729 159.711 159.72 160.696 158.671 158.689 159.625 159.66 
160.675 160.712 161.725 161.701 162.657 159.522 159.56 160.526 160.572 
161.632 161.7 162.749 162.738 163.682 163.626 164.525 160.294 160.399 
161.345 161.434 162.468 162.619 163.7 163.763 164.701 164.633 165.496 
165.445 166.3 160.851 161.07 161.959 162.129 163.057 163.307 164.355 
164.597 165.549 165.591 166.389 166.363 167.182 167.17 167.92 161.17 
161.486 162.339 162.593 163.444 163.739 164.715 165.082 166.041 166.267 
167.008 167.089 167.772 167.891 168.606 168.647 169.179 161.337 161.698 
162.538 162.863 163.692 164.018 164.926 165.328 166.262 166.609 167.339 
167.513 168.071 168.249 168.852 169.089 169.652 169.701 170.01 154.321 
153.346 154.208 155.059 152.413 153.229 154.044 155.011 155.962 151.486 
152.271 153.009 153.966 154.903 155.932 156.879 150.536 151.303 151.944 
152.865 153.715 154.797 155.759 156.812 157.724 149.601 150.33 150.905 
151.753 152.507 153.548 154.475 155.604 156.56 157.627 158.536 148.777 
149.44 150.014 150.75 151.473 152.382 153.282 154.334 155.293 156.39 
157.334 158.413 159.294 148.074 148.699 149.304 149.956 150.665 151.445 
152.315 153.243 154.172 155.171 156.078 157.143 158.03 159.102 159.882 
147.396 148.025 148.633 149.286 149.945 150.672 151.437 152.299 153.141 
154.087 154.92 155.912 156.736 157.788 158.579 159.601 160.254 146.725 
147.329 147.897 148.571 149.18 149.902 150.553 151.361 152.074 152.992 
153.75 154.732 155.505 156.517 157.28 158.291 158.979 159.921 160.476 
146.537 146.63 146.933 147.689 146.845 147.093 147.885 148.177 148.995 
147.193 147.397 148.21 148.45 149.293 149.545 150.382 147.596 147.786 
148.61 148.831 149.684 149.906 150.764 150.987 151.872 148.056 148.21 
149.036 149.246 150.143 150.359 151.269 151.452 152.382 152.579 153.54 
148.602 148.721 149.567 149.729 150.679 150.883 151.886 152.056 153.054 
153.198 154.209 154.355 155.338 149.189 149.312 150.205 150.342 151.323 
151.498 152.541 152.725 153.769 153.927 154.96 155.099 156.105 156.198 
157.128 149.792 149.929 150.865 151.019 152.012 152.18 153.204 153.391 
154.424 154.618 155.647 155.831 156.832 156.967 157.89 157.958 158.798 
150.414 150.559 151.509 151.678 152.663 152.844 153.837 154.03 155.038 
155.245 156.266 156.475 157.473 157.647 158.563 158.672 159.487 159.545 
160.28 151.08 152.562 151.943 152.227 154.18 153.507 153.794 153.132 
153.399 155.946 155.204 155.51 154.772 155.049 154.337 154.595 157.871 
157.08 157.439 156.611 156.93 156.106 156.395 155.596 155.846 159.745 
159.029 159.417 158.618 158.964 158.104 158.414 157.53 157.792 156.908 
157.121 161.364 160.787 161.151 160.497 160.818 160.084 160.36 159.55 
159.779 158.906 159.082 158.181 158.325 162.732 162.273 162.625 162.08 
162.387 161.779 162.034 161.348 161.545 160.785 160.927 160.096 160.185 
159.314 159.38 163.831 163.52 163.895 163.459 163.797 163.27 163.569 
162.941 163.159 162.447 162.593 161.832 161.915 161.099 161.121 160.272 
160.271 164.619 164.47 164.868 164.603 164.975 164.605 164.954 164.445 
164.688 164.03 164.158 163.433 163.501 162.744 162.753 161.946 161.904 
161.078 161.029 150.621 150.317 151.01 152.088 149.914 150.705 151.895 
152.584 153.731 149.491 150.333 151.654 152.426 153.7 154.316 155.507 
149.142 149.971 151.4 152.241 153.643 154.33 155.631 156.192 157.422 
148.92 149.666 151.105 152.01 153.513 154.305 155.702 156.34 157.638 
158.158 159.323 148.897 149.485 150.833 151.708 153.252 154.152 155.635 
156.393 157.736 158.342 159.528 159.989 160.988 149.06 149.511 150.74 
151.474 152.966 153.869 155.388 156.253 157.617 158.342 159.51 160.089 
161.083 161.52 162.356 149.25 149.669 150.791 151.41 152.77 153.592 
155.04 155.933 157.272 158.091 159.22 159.915 160.866 161.455 162.278 
162.742 163.428 149.366 149.799 150.835 151.409 152.62 153.362 154.671 
155.527 156.793 157.645 158.748 159.504 160.425 161.093 161.889 162.485 
163.171 163.65 164.2 149.693 148.268 149.091 149.325 146.891 147.67 
147.803 148.637 148.837 145.458 146.284 146.408 147.149 147.225 148.08 
148.315 143.894 144.796 145.004 145.79 145.885 146.579 146.711 147.591 
147.938 142.289 143.191 143.439 144.349 144.582 145.332 145.519 146.205 
146.501 147.353 147.811 140.794 141.596 141.794 142.735 143.031 143.967 
144.289 145.091 145.441 146.165 146.599 147.392 147.913 139.582 140.185 
140.308 141.116 141.374 142.348 142.726 143.73 144.167 145.076 145.533 
146.333 146.817 147.604 148.136 138.764 139.132 139.177 139.751 139.961 
140.776 141.176 142.151 142.649 143.66 144.176 145.14 145.639 146.516 
147.004 147.837 148.342 138.244 138.46 138.443 138.792 138.957 139.551 
139.978 140.786 141.351 142.238 142.801 143.728 144.276 145.223 145.748 
146.653 147.144 148.001 148.477 137.985 137.729 137.934 138.176 137.802 
137.824 138.107 138.255 138.686 138.3 138.122 138.439 138.403 138.906 
139.042 139.738 139.062 138.779 139.092 138.93 139.45 139.462 140.18 
140.321 141.125 139.957 139.616 139.923 139.682 140.157 140.087 140.755 
140.836 141.589 141.737 142.526 140.985 140.581 140.893 140.575 141.012 
140.835 141.439 141.429 142.149 142.227 142.985 143.136 143.959 142.094 
141.663 141.959 141.593 142.007 141.744 142.31 142.182 142.884 142.861 
143.628 143.673 144.481 144.617 145.458 143.168 142.768 143.058 142.681 
143.086 142.779 143.318 143.112 143.775 143.675 144.419 144.394 145.174 
145.216 146.016 146.123 146.905 144.142 143.803 144.125 143.781 144.202 
143.884 144.404 144.145 144.745 144.581 145.258 145.195 145.93 145.933 
146.69 146.731 147.483 147.549 148.265 144.766 145.843 145.132 144.831 
147.064 146.307 146.044 145.279 144.995 148.407 147.593 147.37 146.577 
146.331 145.513 145.239 150.049 149.079 148.879 147.984 147.769 146.909 
146.653 145.801 145.566 151.982 150.913 150.74 149.676 149.486 148.475 
148.261 147.299 147.083 146.201 146.057 153.923 152.902 152.772 151.68 
151.521 150.391 150.214 149.095 148.916 147.866 147.731 146.804 146.74 
155.83 154.834 154.753 153.713 153.587 152.487 152.32 151.176 151.002 
149.86 149.709 148.629 148.523 147.56 147.507 157.772 156.786 156.74 
155.703 155.603 154.527 154.368 153.261 153.08 151.964 151.79 150.677 
150.51 149.437 149.304 148.338 148.272 159.551 158.69 158.644 157.681 
157.579 156.538 156.385 155.291 155.112 154.008 153.831 152.728 152.538 
151.434 151.237 150.181 150.032 149.089 149.015 149.715 150.798 150.555 
151.242 152.055 151.765 152.518 152.238 153.043 153.411 153.124 153.934 
153.618 154.46 154.164 155.05 154.76 154.53 155.421 155.112 155.973 
155.638 156.512 156.22 157.107 156.07 155.894 156.848 156.604 157.485 
157.164 157.997 157.68 158.509 158.227 159.016 157.34 157.203 158.159 
157.979 158.847 158.598 159.388 159.108 159.869 159.586 160.303 160.014 
160.666 158.515 158.429 159.349 159.215 160.044 159.856 160.61 160.391 
161.112 160.87 161.534 161.25 161.842 161.548 162.103 159.54 159.512 
160.382 160.304 161.096 160.969 161.708 161.538 162.242 162.035 162.679 
162.42 162.973 162.679 163.18 162.898 163.369 160.389 160.424 161.234 
161.219 161.971 161.925 162.657 162.567 163.261 163.106 163.734 163.513 
164.055 163.774 164.237 163.938 164.352 164.066 164.418 142.49 142.242 
142.03 141.376 142.18 141.846 141.071 140.814 140.095 142.185 141.821 
141.036 140.62 139.852 139.585 139.078 142.245 141.866 141.181 140.716 
140.008 139.561 139.048 138.83 138.596 142.414 141.993 141.387 140.954 
140.362 139.881 139.336 138.949 138.54 138.404 138.148 142.696 142.232 
141.619 141.195 140.642 140.241 139.681 139.256 138.655 138.326 137.813 
137.772 137.501 143.072 142.582 141.975 141.476 140.883 140.472 139.916 
139.525 138.911 138.467 137.857 137.533 137.182 137.192 137.198 143.511 
143.025 142.482 141.922 141.325 140.784 140.228 139.771 139.258 138.789 
138.285 137.798 137.456 137.164 137.16 137.185 137.433 143.986 143.513 
143.035 142.49 141.95 141.345 140.812 140.235 139.784 139.264 138.882 
138.372 138.073 137.644 137.552 137.36 137.516 137.565 137.828 142.568 
141.432 142.164 142.481 140.13 140.904 141.215 142.06 142.429 139.097 
139.64 139.93 140.731 141.164 142.017 142.465 138.621 138.876 139.09 
139.6 140.059 140.821 141.417 142.209 142.796 138.27 138.552 138.745 
139.028 139.404 139.924 140.564 141.294 142.003 142.714 143.318 137.767 
138.159 138.492 138.796 139.159 139.484 140.03 140.589 141.313 141.995 
142.657 143.269 143.789 137.506 137.766 138.238 138.572 139.061 139.344 
139.846 140.208 140.847 141.393 142.094 142.675 143.276 143.777 144.296 
137.677 137.737 138.168 138.409 138.934 139.251 139.785 140.096 140.666 
141.055 141.726 142.218 142.897 143.373 143.968 144.389 144.945 138.008 
137.989 138.281 138.4 138.809 139.101 139.624 139.99 140.561 140.925 
141.544 141.955 142.627 143.076 143.712 144.128 144.692 145.088 145.631 
143.231 143.237 143.583 144.344 143.243 143.63 144.421 144.787 145.588 
143.266 143.632 144.452 144.854 145.65 146.017 146.743 143.534 143.747 
144.552 144.892 145.708 146.065 146.808 147.119 147.808 143.98 144.113 
144.867 145.093 145.882 146.156 146.915 147.21 147.975 148.261 149.041 
144.374 144.516 145.218 145.437 146.178 146.397 147.113 147.357 148.137 
148.46 149.32 149.614 150.414 144.821 144.887 145.554 145.743 146.479 
146.695 147.406 147.606 148.348 148.635 149.48 149.841 150.658 150.937 
151.616 145.451 145.42 146.072 146.14 146.871 147.02 147.768 147.938 
148.685 148.895 149.682 149.98 150.76 151.077 151.755 152.015 152.632 
146.145 146.108 146.755 146.75 147.44 147.493 148.206 148.331 149.064 
149.247 149.99 150.214 150.943 151.191 151.875 152.123 152.777 153.027 
153.708 149.584 148.971 148.908 148.195 148.378 148.297 147.551 147.512 
146.806 147.809 147.708 146.909 146.833 146.042 146.054 145.313 147.264 
147.135 146.303 146.178 145.319 145.259 144.44 144.482 143.725 146.783 
146.605 145.752 145.579 144.718 144.583 143.752 143.67 142.87 142.883 
142.151 146.387 146.166 145.323 145.087 144.251 144.054 143.259 143.092 
142.278 142.138 141.343 141.343 140.68 146.093 145.839 145.068 144.773 
143.988 143.702 142.948 142.702 141.919 141.662 140.837 140.658 139.966 
139.989 139.5 145.932 145.643 144.961 144.64 143.93 143.573 142.853 
142.515 141.796 141.446 140.689 140.337 139.663 139.472 139.029 139.035 
138.749 145.868 145.566 144.932 144.617 143.96 143.595 142.897 142.513 
141.832 141.453 140.802 140.387 139.781 139.408 138.96 138.771 138.502 
138.472 138.271 
POINT_DATA 1002
SCALARS Distance double
LOOKUP_TABLE default
145.415 144.447 145.07 146.194 145.879 146.573 147.194 146.858 147.449 
147.815 148.235 147.791 148.451 148.721 149.249 149.05 148.568 149.338 
149.648 150.291 151.07 149.761 149.381 150.118 150.551 151.361 152.302 
153.04 150.663 150.347 151.09 151.662 152.563 153.579 154.343 154.905 
151.766 151.361 152.309 153.02 153.962 154.951 155.713 156.287 156.813 
152.932 152.359 153.619 154.413 155.355 156.314 157.082 157.7 158.266 
158.732 154.081 153.36 154.893 155.735 156.633 157.561 158.359 159.011 
159.602 160.077 160.354 143.968 144.592 143.539 144.223 143.167 145.386 
143.982 142.854 145.06 146.317 143.751 142.617 144.922 146.005 147.245 
143.539 142.529 144.752 145.956 147.048 148.21 143.509 142.55 144.602 
145.872 147.091 148.212 149.287 143.574 142.554 144.683 145.853 147.012 
148.203 149.344 150.337 143.61 142.626 144.858 146.104 147.053 147.995 
149.177 150.292 151.267 143.76 142.926 144.997 146.406 147.409 148.045 
148.928 150.072 151.125 152.161 143.908 144.917 145.142 146.269 146.383 
146.346 147.417 147.418 147.617 147.687 148.365 148.497 148.562 148.739 
148.457 149.51 149.85 149.447 149.621 149.501 149.093 150.858 151.18 
150.534 150.474 150.474 150.267 150.064 152.163 152.254 151.871 151.557 
151.39 151.321 151.24 151.169 153.425 153.27 153.425 153.178 152.814 
152.591 152.531 152.453 152.311 154.723 154.422 155.003 155.061 154.809 
154.47 154.276 154.126 153.88 153.601 154.974 155.367 156.872 155.809 
157.397 158.847 156.175 157.93 159.455 160.945 156.406 158.311 159.998 
161.643 163.234 156.65 158.524 160.361 162.216 163.943 165.327 156.869 
158.68 160.559 162.603 164.486 165.915 166.931 156.802 158.657 160.56 
162.668 164.717 166.322 167.464 168.274 156.429 158.317 160.256 162.306 
164.364 166.189 167.668 168.75 169.456 155.983 157.795 159.704 161.663 
163.592 165.414 167.136 168.601 169.623 170.241 155.907 157.907 156.865 
159.993 158.954 157.811 162.307 161.2 160.023 158.785 164.649 163.611 
162.373 161.062 159.689 166.502 165.759 164.63 163.307 161.872 160.401 
167.894 167.345 166.458 165.248 163.861 162.401 160.977 169.145 168.615 
167.858 166.818 165.538 164.12 162.726 161.409 170.183 169.753 169.027 
168.081 166.947 165.608 164.177 162.848 161.618 170.765 170.745 171.086 
170.94 171.023 170.173 170.471 170.334 170.055 169.196 169.451 169.287 
169.265 168.826 168.069 168.522 168.368 168.308 168.001 167.623 166.812 
167.786 167.5 167.641 167.218 166.866 166.323 165.335 166.831 166.516 
166.885 166.549 166.098 165.603 164.811 163.828 165.724 165.562 165.795 
165.647 165.288 164.817 164.151 163.319 162.493 164.727 164.716 164.67 
164.56 164.328 163.941 163.399 162.716 161.996 161.248 170.167 170.478 
169.474 169.658 168.602 170.675 168.829 167.945 169.832 170.537 168.108 
167.146 168.901 169.616 169.782 167.061 165.888 167.843 168.454 168.851 
168.758 165.718 164.548 166.595 167.213 167.776 168.01 167.833 164.41 
163.364 165.339 166.044 166.716 167.203 167.194 166.891 163.138 162.189 
164.072 164.861 165.576 166.208 166.433 166.244 165.936 161.85 160.979 
162.738 163.546 164.246 164.888 165.316 165.389 165.269 165.066 155.109 
156.836 155.989 157.777 156.934 158.733 158.689 157.806 159.679 160.724 
159.574 158.635 160.614 161.736 162.717 160.474 159.461 161.532 162.752 
163.762 164.57 161.265 160.158 162.299 163.575 164.776 165.568 166.352 
161.791 160.606 162.825 164.051 165.442 166.431 167.17 168.026 162.063 
160.843 163.165 164.343 165.754 166.928 167.668 168.48 169.315 153.437 
154.083 152.522 153.087 151.635 154.965 152.096 150.729 153.849 155.898 
151.086 149.796 152.654 154.647 156.733 150.112 148.899 151.523 153.347 
155.435 157.515 149.313 148.124 150.621 152.279 154.224 156.224 158.265 
148.664 147.437 149.938 151.44 153.228 155.069 156.943 158.883 147.978 
146.774 149.26 150.642 152.231 153.967 155.728 157.541 159.315 147.238 