# vtk DataFile Version 4.0
vtk output
ASCII
DATASET POLYDATA
POINTS 1002 float
-77.9482 -109.132 62.1536 -78.3281 -108.43 61.3746 -78.9822 -108.777 61.6205 
-78.6341 -109.59 62.5254 -79.6419 -109.181 62.0348 -77.5761 -110.23 62.7881 
-79.1921 -110.283 62.954 -80.3206 -109.721 62.702 -78.1138 -111.025 63.0861 
-77.0861 -111.848 63.2166 -79.4802 -111.334 63.2339 -80.8147 -110.65 63.2012 
-78.2861 -112.129 63.1931 -77.3202 -112.934 63.3304 -76.431 -113.76 63.7691 
-79.3294 -112.658 62.9634 -80.7613 -111.943 63.1171 -78.0132 -113.446 62.8383 
-77.1401 -114.164 63.1333 -76.4988 -114.915 63.8187 -75.951 -115.692 64.6906 
-78.8064 -113.865 62.2855 -80.3133 -113.202 62.6784 -77.5392 -114.646 62.1395 
-76.823 -115.325 62.6867 -76.4455 -116.042 63.7432 -76.1505 -116.889 64.8117 
-75.8876 -117.65 65.7584 -78.4574 -114.792 61.7976 -79.9557 -114.159 62.1806 
-77.3386 -115.579 61.7734 -76.887 -116.29 62.5427 -76.7178 -116.995 63.872 
-76.4863 -117.933 65.0807 -76.2497 -118.879 66.0038 -75.9895 -119.543 66.8181 
-78.5726 -115.624 61.7262 -79.7292 -114.918 61.7206 -77.7055 -116.429 62.0867 
-77.4585 -117.168 63.0854 -77.4558 -117.851 64.4697 -77.1871 -118.766 65.6462 
-76.7761 -119.836 66.4863 -76.4337 -120.642 67.2483 -76.0944 -121.096 67.972 
-78.8863 -116.502 62.0397 -79.5331 -115.706 61.5816 -78.3859 -117.32 62.8079 
-78.2317 -118.037 63.9873 -78.2464 -118.689 65.3188 -78.0039 -119.536 66.3652 
-77.5104 -120.593 67.1165 -77.0555 -121.48 67.8527 -76.681 -121.994 68.5904 
-76.3141 -122.265 69.1838 -79.2377 -117.388 62.7058 -79.5244 -116.589 61.965 
-79.0292 -118.182 63.6602 -78.9226 -118.869 64.8262 -78.847 -119.502 66.0301 
-78.6197 -120.298 66.9979 -78.2172 -121.283 67.7459 -77.7987 -122.148 68.5135 
-77.4217 -122.687 69.2906 -77.0392 -122.989 69.8951 -76.6529 -123.176 70.3067 
-79.0812 -108.105 60.6528 -79.6714 -108.58 60.7663 -79.6761 -107.847 59.848 
-80.2438 -108.444 59.9406 -80.2492 -107.312 59.1639 -80.3854 -108.943 61.2713 
-80.9461 -107.98 59.3604 -81.0604 -106.462 58.5278 -81.0571 -108.829 60.5307 
-81.2663 -109.311 62.1508 -81.8088 -107.207 58.8077 -81.8395 -105.829 57.6816 
-81.7801 -108.511 59.9164 -81.9704 -109.12 61.3882 -81.8804 -110.131 62.8048 
-82.4361 -106.542 58.0411 -82.3425 -105.51 56.6978 -82.5181 -107.907 59.3229 
-82.5664 -108.892 60.6402 -82.5549 -109.883 62.1168 -81.9192 -111.497 63.0199 
-82.9272 -106.06 57.1393 -82.9934 -105.093 55.767 -83.132 -107.268 58.6369 
-83.2715 -108.499 60.0499 -83.1873 -109.748 61.5291 -82.8215 -111.322 62.7748 
-81.6911 -112.883 62.9395 -83.5972 -105.702 56.1736 -83.8099 -104.729 54.8715 
-83.6601 -106.8 57.7421 -83.8606 -108.095 59.325 -83.8436 -109.6 60.9621 
-83.5833 -111.251 62.4408 -82.8086 -112.709 62.9634 -81.3031 -113.813 62.3828 
-84.0706 -105.65 55.2433 -84.1783 -104.832 54.0756 -84.0063 -106.602 56.6953 
-84.0621 -107.825 58.2358 -84.0826 -109.42 59.9588 -83.9835 -111.127 61.6975 
-83.4832 -112.503 62.5758 -82.2375 -113.475 62.242 -80.6564 -114.459 61.5829 
-83.966 -105.925 54.5695 -83.9117 -105.335 53.549 -83.9588 -106.692 55.8201 
-83.9591 -107.772 57.1088 -83.9688 -109.288 58.6221 -84.0047 -110.958 60.4469 
-83.7819 -112.273 61.7452 -82.8159 -113.161 61.8109 -81.3142 -114.052 61.2892 
-80.0759 -115.245 61.2403 -83.4164 -106.214 53.8897 -83.5169 -106.797 55.037 
-82.9214 -107.076 54.5781 -83.137 -107.9 55.6862 -82.6536 -108.244 55.3637 
-83.6545 -107.753 56.1558 -83.0349 -109.414 56.2543 -82.5934 -109.887 55.8823 
-83.5494 -109.261 56.5572 -83.8196 -109.196 57.3074 -82.9477 -110.971 56.6297 
-82.5929 -111.717 56.0962 -83.5866 -110.816 57.0405 -84.0007 -110.857 57.7219 
-84.0087 -110.862 58.9716 -82.6885 -112.522 56.9916 -82.5496 -113.681 56.4012 
-83.1459 -111.938 57.6116 -83.8765 -112.054 58.3239 -84.175 -112.209 59.3962 
-83.9877 -112.209 60.6461 -82.5175 -114.64 57.5605 -82.3608 -115.698 57.1817 
-82.5357 -113.463 58.182 -82.922 -113.06 58.8322 -83.5089 -113.251 59.6319 
-83.5696 -113.27 60.4841 -83.1746 -113.131 61.1934 -82.4171 -116.836 58.4982 
-81.9806 -117.18 58.4692 -82.4871 -115.856 58.8378 -82.3077 -114.897 59.2802 
-82.3554 -114.65 59.7748 -82.4747 -114.668 60.3061 -82.1705 -114.39 60.6672 
-81.6589 -114.083 60.9282 -82.1025 -118.224 59.8085 -81.5295 -118.032 59.9764 
-82.561 -117.959 59.8638 -82.5315 -117.151 60.1208 -82.1006 -116.472 60.42 
-81.7386 -116.304 60.7293 -81.413 -116.143 60.9572 -80.8857 -115.715 61.0123 
-80.3774 -115.349 61.0611 -81.6531 -119.099 61.2324 -81.1719 -118.829 61.3686 
-82.2408 -119.259 61.2195 -82.6365 -118.916 61.445 -82.4678 -118.208 61.7497 
-81.9046 -117.745 61.9499 -81.4048 -117.625 62.0642 -80.9448 -117.42 62.1008 
-80.377 -117.044 62.0439 -79.8675 -116.736 61.975 -79.7691 -117.989 63.324 
-80.3113 -118.198 63.4851 -80.4107 -119.285 65.0048 -80.9131 -118.481 63.5795 
-81.0357 -119.5 65.1573 -81.0987 -120.536 66.6014 -81.3771 -118.739 63.6034 
-81.5171 -119.824 65.1914 -81.6631 -120.899 66.772 -81.803 -121.95 68.2215 
-81.8005 -118.93 63.6325 -81.8568 -120.241 65.2151 -82.0663 -121.464 66.8434 
-82.3741 -122.474 68.494 -82.5495 -123.342 69.9055 -82.3453 -119.324 63.5959 
-82.3413 -120.757 65.2272 -82.5646 -122.123 66.7473 -82.9149 -123.032 68.5068 
-83.1756 -123.758 70.1417 -83.1292 -124.472 71.4885 -82.5947 -119.991 63.3064 
-82.734 -121.394 65.0379 -83.1681 -122.759 66.4013 -83.5619 -123.531 68.0213 
-83.7217 -124.066 69.9278 -83.7176 -124.769 71.6187 -83.6001 -125.406 73.0569 
-82.2455 -120.435 62.8863 -82.5316 -121.889 64.6381 -83.27 -123.24 66.0131 
-83.9424 -123.987 67.3376 -84.0931 -124.462 69.1861 -84.0426 -125.183 71.2359 
-84.0969 -125.867 73.0352 -84.1634 -126.236 74.4797 -81.6654 -120.371 62.6437 
-81.9494 -121.949 64.257 -82.7204 -123.374 65.7779 -83.6086 -124.234 67.0442 
-83.9889 -124.865 68.5243 -84.0107 -125.753 70.465 -84.1862 -126.587 72.4494 
-84.5068 -126.961 74.1128 -84.6751 -127.063 75.3727 -81.192 -120.099 62.6015 
-81.4096 -121.709 64.0039 -81.9893 -123.19 65.5714 -82.7947 -124.162 67.026 
-83.3608 -124.942 68.3246 -83.588 -126.003 69.8444 -83.8659 -127.095 71.6216 
-84.3475 -127.701 73.2877 -84.7791 -127.868 74.6461 -84.9025 -127.944 75.72 
-79.6695 -118.784 64.3362 -80.3094 -120.083 66.0564 -79.5706 -119.541 65.4224 
-81.0131 -121.437 67.694 -80.1573 -120.929 67.074 -79.4271 -120.258 66.5176 
-81.7821 -122.856 69.4583 -80.8737 -122.4 68.8079 -79.9509 -121.843 68.0898 
-79.1868 -121.088 67.5131 -82.3938 -124.131 71.2195 -81.5617 -123.735 70.7213 
-80.6634 -123.356 69.9522 -79.6983 -122.802 69.127 -78.8655 -122.054 68.4095 
-82.8797 -125.184 72.9122 -82.0403 -124.889 72.5072 -81.2406 -124.562 71.8417 
-80.3554 -124.151 71.0163 -79.3804 -123.554 70.1803 -78.5229 -122.861 69.3346 
-83.5451 -125.954 74.5786 -82.6726 -125.775 74.2371 -81.758 -125.552 73.5445 
-80.822 -125.176 72.69 -79.8307 -124.591 71.8867 -78.928 -123.942 71.0935 
-78.1474 -123.334 70.1993 -84.2283 -126.609 75.8467 -83.4509 -126.318 75.8418 
-82.4863 -126.13 75.322 -81.3717 -125.907 74.3768 -80.1621 -125.448 73.3161 
-79.1347 -124.776 72.4443 -78.3922 -124.164 71.6654 -77.7205 -123.621 70.7977 
-84.5934 -127.455 76.4772 -83.9209 -126.935 76.9157 -83.0379 -126.469 76.8922 
-81.9819 -126.187 76.2512 -80.6992 -125.987 75.0152 -79.4335 -125.534 73.7147 
-78.5317 -124.904 72.779 -77.9034 -124.365 72.0133 -77.2819 -123.835 71.173 
-84.7168 -128.604 76.3859 -84.1861 -128.061 77.2335 -84.1337 -129.111 76.9654 
-83.3899 -128.397 77.7741 -83.2043 -129.041 77.1392 -83.3178 -127.258 77.7847 
-82.4209 -128.221 77.6604 -81.9736 -128.69 76.6667 -82.3964 -127.358 78.2576 
-82.3382 -126.51 77.8018 -81.2366 -128.019 76.9295 -80.3986 -128.777 76.0912 
-81.3893 -127.363 77.874 -81.3636 -126.637 78.0634 -81.2107 -126.213 76.9069 
-79.5588 -128.215 76.3899 -78.5849 -129.162 75.9208 -80.0672 -127.534 77.0398 
-80.2118 -126.977 77.4732 -80.2357 -126.421 76.9128 -79.9048 -126.02 75.3326 
-77.6647 -128.493 76.1551 -76.9443 -129.31 75.6731 -78.2895 -127.744 76.4733 
-78.7094 -127.196 76.7259 -79.0616 -126.542 76.569 -79.0924 -125.936 75.5211 
-78.7635 -125.464 73.9932 -76.1897 -128.55 75.657 -75.7629 -129.196 74.9847 
-76.6294 -127.8 76.0039 -77.0959 -127.112 76.1576 -77.6852 -126.313 76.231 
-78.1381 -125.549 75.7857 -78.1461 -125.153 74.5238 -77.9679 -124.85 73.091 
-75.1984 -128.395 74.9418 -74.9079 -128.946 74.2229 -75.4461 -127.709 75.4277 
-75.789 -126.957 75.6176 -76.3695 -126.074 75.7122 -77.0029 -125.186 75.6641 
-77.3301 -124.727 74.9291 -77.3468 -124.614 73.5368 -77.3004 -124.35 72.1961 
-74.3871 -128.102 74.3086 -74.1684 -128.584 73.6672 -74.5309 -127.504 74.8603 
-74.757 -126.814 75.1432 -75.2274 -126.013 75.1403 -75.8282 -125.152 75.0283 
-76.2879 -124.534 74.6473 -76.5211 -124.305 73.67 -76.6116 -124.133 72.3658 
-76.6414 -123.734 71.2255 -84.7917 -128.69 75.169 -84.4969 -129.295 75.7683 
-84.152 -129.047 74.5132 -83.6744 -129.507 74.9814 -83.0468 -128.943 73.8755 
-83.757 -129.52 76.2344 -82.4406 -129.412 74.0791 -81.8879 -128.686 73.1095 
-82.7059 -129.563 75.2387 -82.5058 -129.243 76.2273 -81.3289 -129.248 73.0134 
-80.9668 -128.445 72.0645 -81.4155 -129.631 74.0701 -81.1907 -129.511 75.1832 
-80.8591 -129.223 75.8086 -80.4478 -128.975 71.8025 -80.1368 -128.135 70.9127 
-80.4284 -129.649 72.7605 -80.0189 -129.903 73.9812 -79.5503 -129.891 75.0037 
-79.1288 -129.687 75.5438 -79.5279 -128.584 70.6505 -79.2788 -127.746 69.8622 
-79.5672 -129.391 71.4134 -79.2181 -129.978 72.4683 -78.718 -130.185 73.749 
-78.1777 -130.168 74.739 -77.5469 -129.898 75.3339 -78.5895 -128.079 69.6525 
-78.4978 -127.286 68.8546 -78.6213 -128.88 70.3062 -78.3744 -129.644 71.0168 
-77.9935 -130.051 72.0429 -77.576 -130.082 73.1945 -76.9178 -130.012 74.1039 
-76.2194 -129.753 74.6827 -77.7861 -127.45 68.6531 -77.8424 -126.748 67.803 
-77.7509 -128.17 69.386 -77.523 -128.963 70.0132 -77.1139 -129.624 70.7162 
-76.7673 -129.903 71.5817 -76.3055 -129.952 72.4766 -75.6475 -129.888 73.2514 
-75.16 -129.552 73.8327 -77.1326 -126.81 67.591 -77.2728 -126.175 66.7794 
-77.0304 -127.452 68.377 -76.8262 -128.136 69.1067 -76.3916 -128.832 69.8317 
[...]
CELL_DATA 2000
SCALARS Distance double
LOOKUP_TABLE default
146.62 147.415 147.119 147.393 148.364 148.008 148.339 148.019 148.406 
149.443 149.03 149.333 148.998 149.382 149.109 149.598 150.385 150.025 
150.175 149.894 150.181 150.003 150.483 150.35 151.004 150.967 150.699 
150.677 150.512 150.713 150.661 151.175 151.174 151.931 151.893 152.756 
151.352 151.093 151.053 150.905 151.226 151.199 151.893 151.922 152.858 
152.869 153.873 153.798 154.729 151.768 151.527 151.7 151.484 152.091 
151.98 152.944 152.884 153.992 153.937 155.034 154.959 155.945 155.79 
156.609 152.32 152.154 152.676 152.463 153.323 153.166 154.272 154.161 
155.307 155.196 156.271 156.163 157.143 156.999 157.833 157.597 158.269 
153.112 152.99 153.81 153.662 154.645 154.519 155.592 155.501 156.557 
156.472 157.465 157.375 158.308 158.184 159.012 158.804 159.478 159.179 
159.723 146.36 146.206 146.553 147.108 145.979 146.402 146.992 147.352 
148.015 145.652 146.176 146.879 147.271 147.97 148.354 149.116 145.285 
145.866 146.683 147.172 147.911 148.317 149.096 149.511 150.197 144.907 
145.496 146.344 146.95 147.745 148.218 148.992 149.465 150.259 150.576 
151.033 144.555 145.096 145.924 146.583 147.479 148.036 148.903 149.387 
150.315 150.715 151.405 151.405 151.599 144.328 144.772 145.566 146.178 
147.132 147.776 148.783 149.354 150.402 150.88 151.728 151.854 152.14 
151.885 151.88 144.239 144.602 145.324 145.844 146.712 147.389 148.394 
149.145 150.219 150.906 151.765 152.109 152.383 152.288 152.151 151.997 
152.053 144.202 144.52 145.147 145.587 146.317 146.922 147.816 148.611 
149.652 150.51 151.388 151.956 152.256 152.339 152.158 152.065 151.99 
152.131 152.52 144.367 144.914 144.832 145.293 145.728 145.496 145.999 
145.877 146.461 146.944 146.533 147.101 146.798 147.449 147.233 147.983 
148.297 147.83 148.389 148.071 148.792 148.472 149.259 148.986 149.859 
149.679 149.107 149.454 149.204 149.858 149.764 150.517 150.332 151.042 
150.842 151.512 151.338 150.578 150.745 150.194 150.604 150.519 151.169 
151.262 151.786 151.75 152.031 151.992 152.168 153.027 152.369 152.64 
151.776 152.021 151.401 151.87 151.723 152.233 152.203 152.379 152.242 
152.158 152.122 152.029 154.284 153.95 154.427 153.774 154.081 153.192 
153.482 152.78 153.219 152.819 153.18 152.77 152.843 152.368 152.343 
152.04 152.093 155.259 155.066 155.661 155.356 155.835 155.213 155.503 
154.661 154.939 154.199 154.583 153.964 154.286 153.577 153.766 153.009 
153.217 152.605 152.89 153.808 154.247 154.553 155.699 154.809 155.082 
156.234 156.545 157.695 155.285 155.618 156.738 157.082 158.255 158.557 
159.728 155.638 156.017 157.177 157.564 158.81 159.156 160.425 160.695 
161.897 156.117 156.433 157.705 158.07 159.428 159.78 161.116 161.414 
162.639 162.852 163.905 156.646 156.982 158.268 158.675 160.06 160.447 
161.736 162.052 163.178 163.467 164.478 164.702 165.604 156.798 157.318 
158.472 159.085 160.384 160.951 162.123 162.52 163.489 163.831 164.778 
165.136 166.093 166.337 167.193 156.497 157.154 158.185 158.983 160.194 
160.982 162.083 162.658 163.532 163.967 164.856 165.325 166.335 166.745 
167.682 167.885 168.621 156.067 156.71 157.695 158.513 159.674 160.557 
161.635 162.373 163.225 163.81 164.639 165.25 166.225 166.84 167.788 
168.219 168.956 169.154 169.701 153.963 155.853 154.862 154.831 157.843 
156.847 156.827 155.802 155.765 159.882 158.859 158.866 157.829 157.79 
156.75 156.704 162.029 160.981 161.021 159.929 159.91 158.807 158.747 
157.684 157.627 164.021 163.101 163.152 162.12 162.13 161.013 160.965 
159.803 159.723 158.611 158.533 165.755 164.969 165.041 164.142 164.15 
163.169 163.118 162.032 161.904 160.758 160.611 159.498 159.363 167.348 
166.644 166.755 165.937 165.938 165.049 164.948 163.999 163.783 162.775 
162.502 161.484 161.232 160.223 159.995 168.743 168.162 168.267 167.564 
167.544 166.736 166.577 165.679 165.36 164.414 164.005 163.101 162.729 
161.878 161.56 160.686 160.377 169.837 169.413 169.486 168.921 168.847 
168.173 167.962 167.175 166.804 165.888 165.384 164.448 163.97 163.156 
162.792 162.047 161.715 160.919 160.565 170.378 170.924 170.514 170.047 
170.934 170.863 170.392 169.986 169.352 170.218 170.54 170.158 170.082 
169.447 169.123 168.407 169.197 169.615 169.372 169.594 169.092 169.02 
168.338 168.05 167.234 168.373 168.653 168.43 168.731 168.39 168.528 
167.962 167.844 167.041 166.72 165.787 167.653 167.885 167.563 167.828 
167.489 167.75 167.271 167.345 166.61 166.425 165.511 165.194 164.314 
166.805 167.09 166.707 166.947 166.509 166.786 166.294 166.519 165.871 
165.889 165.085 164.893 164.077 163.816 163.108 165.891 166.197 165.835 
166.059 165.586 165.796 165.273 165.494 164.917 165.07 164.416 164.414 
163.715 163.57 162.887 162.687 162.038 165.007 165.302 164.97 165.196 
164.755 164.92 164.41 164.553 164.011 164.153 163.589 163.699 163.099 
163.117 162.47 162.384 161.708 161.563 160.885 170.525 170.547 170.803 
171.065 169.94 170.541 170.847 171.115 171.045 168.923 169.691 169.991 
170.546 170.474 170.705 170.274 167.826 168.599 168.902 169.525 169.511 
169.904 169.608 169.746 169.272 166.707 167.482 167.803 168.45 168.548 
168.986 168.894 169.123 168.896 168.908 168.553 165.537 166.312 166.615 
167.33 167.488 168.059 168.07 168.469 168.361 168.561 168.302 168.283 
167.87 164.349 165.099 165.349 166.089 166.232 166.915 166.929 167.513 
167.39 167.84 167.57 167.833 167.419 167.476 166.973 163.147 163.867 
164.051 164.784 164.895 165.603 165.619 166.261 166.159 166.704 166.482 
166.898 166.563 166.821 166.397 166.492 166.019 161.963 162.633 162.767 
163.466 163.556 164.254 164.276 164.933 164.883 165.466 165.345 165.815 
165.608 165.939 165.639 165.839 165.466 165.55 165.127 156.139 156.915 
156.927 157.84 157.729 157.794 158.774 158.808 159.825 158.47 158.582 
159.576 159.704 160.706 160.793 161.72 159.269 159.344 160.333 160.453 
161.446 161.571 162.485 162.547 163.314 160.027 160.143 161.124 161.24 
162.244 162.331 163.277 163.306 164.165 164.111 164.851 160.579 160.779 
161.712 161.941 162.931 163.118 164.057 164.129 165.01 165.016 165.89 
165.779 166.541 161.044 161.247 162.123 162.389 163.328 163.641 164.558 
164.787 165.614 165.764 166.613 166.732 167.574 167.494 168.125 161.443 
161.678 162.523 162.765 163.649 163.947 164.849 165.148 165.985 166.222 
167.033 167.274 168.115 168.296 168.999 168.908 169.307 161.662 161.982 
162.797 163.104 163.936 164.239 165.09 165.402 166.244 166.528 167.336 
167.605 168.419 168.69 169.443 169.572 170.074 169.902 170.096 155.332 
154.356 155.203 155.998 153.346 154.2 154.939 155.892 156.744 152.268 
153.136 153.822 154.771 155.572 156.592 157.465 151.204 152.03 152.687 
153.61 154.377 155.389 156.285 157.341 158.271 150.263 150.998 151.641 
152.503 153.269 154.219 155.102 156.156 157.124 158.183 159.066 149.409 
150.087 150.684 151.503 152.27 153.173 154.012 154.99 155.9 156.979 
157.889 158.916 159.678 148.567 149.223 149.753 150.535 151.249 152.165 
152.964 153.907 154.716 155.73 156.597 157.676 158.514 159.489 160.187 
147.781 148.399 148.896 149.594 150.215 151.088 151.839 152.799 153.565 
154.539 155.34 156.385 157.24 158.29 159.068 159.989 160.612 147.103 
147.675 148.179 148.782 149.335 150.071 150.751 151.647 152.408 153.367 
154.151 155.151 155.977 157.021 157.823 158.819 159.483 160.354 160.866 
146.932 147.066 147.339 148.015 147.241 147.502 148.215 148.455 149.173 
147.514 147.728 148.491 148.717 149.503 149.719 150.561 147.914 148.07 
148.864 149.071 149.942 150.148 151.063 151.261 152.212 148.36 148.505 
149.31 149.513 150.456 150.678 151.68 151.86 152.861 153.015 153.995 
148.814 148.967 149.819 150.017 151.022 151.258 152.321 152.521 153.556 
153.716 154.729 154.854 155.835 149.338 149.484 150.425 150.607 151.667 
151.883 152.961 153.163 154.192 154.385 155.405 155.589 156.596 156.718 
157.66 149.948 150.095 151.093 151.277 152.344 152.553 153.598 153.79 
154.784 154.984 156 156.228 157.251 157.435 158.374 158.478 159.305 
150.59 150.748 151.737 151.935 152.954 153.18 154.174 154.384 155.346 
155.554 156.561 156.806 157.844 158.061 158.998 159.127 159.919 159.993 
160.683 151.279 152.753 152.144 152.445 154.324 153.669 153.962 153.346 
153.657 156.008 155.309 155.632 154.94 155.259 154.593 154.884 157.776 
157.067 157.461 156.724 157.088 156.316 156.619 155.854 156.106 159.555 
158.86 159.266 158.575 158.963 158.212 158.528 157.707 157.975 157.139 
157.386 161.283 160.631 161.017 160.348 160.719 160.025 160.328 159.582 
159.843 159.057 159.307 158.472 158.685 162.772 162.274 162.683 162.078 
162.458 161.768 162.061 161.315 161.547 160.822 161.048 160.319 160.489 
159.69 159.786 163.861 163.582 164.006 163.605 163.984 163.443 163.721 
163.03 163.211 162.474 162.638 161.937 162.071 161.35 161.396 160.631 
160.635 164.625 164.498 164.915 164.703 165.054 164.736 164.991 164.517 
164.664 164.049 164.146 163.472 163.552 162.851 162.878 162.144 162.122 
161.379 161.354 150.81 150.577 151.24 152.317 150.36 151.073 152.27 
152.851 153.941 150.162 150.939 152.273 152.89 154.072 154.541 155.623 
149.933 150.796 152.276 152.977 154.252 154.73 155.844 156.267 157.361 
149.644 150.55 152.128 152.991 154.38 154.941 156.08 156.506 157.627 
158.058 159.168 149.409 150.22 151.741 152.743 154.236 155.009 156.206 
156.716 157.831 158.316 159.467 159.888 160.927 149.378 149.994 151.323 
152.26 153.737 154.711 156.008 156.729 157.837 158.429 159.54 160.093 
161.127 161.54 162.393 149.539 150.003 151.155 151.86 153.177 154.118 
155.448 156.364 157.529 158.281 159.332 159.999 160.973 161.547 162.362 
162.795 163.453 149.767 150.178 151.24 151.752 152.887 153.607 154.831 
155.732 156.938 157.82 158.887 159.647 160.572 161.23 162.02 162.578 
163.228 163.67 164.206 149.828 148.234 149.168 149.487 146.621 147.505 
147.71 148.758 149.135 145.003 145.815 145.879 146.889 147.144 148.341 
148.789 143.49 144.162 144.074 144.979 145.121 146.275 146.637 147.954 
148.465 142.191 142.738 142.589 143.254 143.332 144.294 144.667 145.856 
146.376 147.668 148.231 140.99 141.546 141.535 142.031 142.151 142.789 
143.198 144.115 144.736 145.808 146.448 147.578 148.181 139.926 140.446 
140.629 141.162 141.437 141.931 142.339 142.969 143.577 144.427 145.116 
146.064 146.712 147.698 148.31 139.252 139.584 139.827 140.352 140.76 
141.312 141.755 142.289 142.793 143.451 144.065 144.881 145.514 146.397 
147 147.928 148.532 138.945 139.114 139.322 139.703 140.141 140.673 
141.185 141.715 142.201 142.746 143.286 143.948 144.556 145.306 145.898 
146.709 147.292 148.186 148.782 138.864 138.994 138.997 139.285 139.474 
139.332 139.699 139.649 140.124 140.254 140.005 140.402 140.237 140.7 
140.637 141.165 141.135 140.838 141.155 140.967 141.338 141.236 141.674 
141.667 142.172 142.073 141.7 141.875 141.628 141.859 141.757 142.139 
142.158 142.683 142.704 143.273 143.1 142.652 142.773 142.371 142.521 
142.257 142.63 142.614 143.262 143.312 143.992 143.932 144.553 144.11 
143.673 143.819 143.367 143.531 143.088 143.412 143.217 143.896 143.957 
144.751 144.735 145.369 145.246 145.842 145.008 144.62 144.757 144.392 
144.578 144.169 144.41 144.096 144.607 144.602 145.365 145.454 146.129 
146.059 146.618 146.523 147.162 145.813 145.454 145.555 145.246 145.423 
145.12 145.335 145.034 145.4 145.286 145.936 146.02 146.754 146.775 
147.404 147.316 147.956 147.897 148.623 146.286 147.03 146.422 146.051 
148.035 147.286 146.878 146.251 145.932 149.315 148.456 148.075 147.247 
146.899 146.211 145.917 150.859 149.924 149.69 148.701 148.432 147.458 
147.183 146.329 146.113 152.663 151.656 151.547 150.517 150.403 149.308 
149.134 147.984 147.794 146.777 146.713 154.609 153.586 153.484 152.453 
152.367 151.348 151.247 150.13 149.944 148.758 148.589 147.561 147.518 
156.454 155.515 155.401 154.393 154.24 153.245 153.086 152.107 151.903 
150.857 150.605 149.523 149.311 148.334 148.199 158.079 157.253 157.151 
156.237 156.08 155.09 154.877 153.868 153.623 152.638 152.395 151.409 
151.183 150.168 149.971 148.979 148.823 159.515 158.781 158.686 157.882 
157.753 156.864 156.677 155.681 155.425 154.378 154.128 153.131 152.945 
151.985 151.829 150.831 150.668 149.653 149.511 150.23 151.422 151.126 
151.725 152.578 152.334 152.963 152.651 153.301 153.691 153.48 154.167 
153.894 154.58 154.299 155.11 154.909 154.657 155.422 155.142 155.901 
155.612 156.449 156.227 157.155 156.235 155.969 156.774 156.477 157.275 
156.979 157.828 157.587 158.493 158.282 159.132 157.467 157.28 158.07 
157.83 158.601 158.342 159.154 158.936 159.79 159.588 160.384 160.139 
160.818 158.512 158.414 159.197 159.04 159.787 159.589 160.344 160.168 
160.954 160.794 161.529 161.321 161.948 161.689 162.233 159.432 159.387 
160.19 160.098 160.855 160.701 161.412 161.254 161.956 161.832 162.503 
162.361 162.946 162.742 163.244 162.994 163.432 160.238 160.25 161.042 
161.027 161.778 161.699 162.372 162.239 162.856 162.731 163.321 163.217 
163.763 163.635 164.117 163.931 164.342 164.094 164.426 143.651 143.617 
143.346 142.783 143.689 143.341 142.739 142.451 141.894 143.921 143.499 
142.914 142.503 141.887 141.566 141.034 144.213 143.768 143.192 142.76 
142.132 141.67 141.043 140.728 140.206 144.513 144.03 143.401 143.008 
142.402 141.958 141.317 140.864 140.264 139.922 139.389 144.921 144.363 
143.698 143.219 142.621 142.197 141.602 141.165 140.568 140.119 139.537 
139.15 138.708 145.37 144.837 144.214 143.633 143.028 142.495 141.911 
141.442 140.867 140.429 139.856 139.413 138.932 138.616 138.43 145.683 
145.27 144.71 144.187 143.595 143.017 142.43 141.858 141.298 140.777 
140.254 139.772 139.321 138.925 138.683 138.505 138.538 145.867 145.536 
145.036 144.623 144.085 143.58 143.033 142.461 141.95 141.359 140.918 
140.335 139.968 139.437 139.192 138.833 138.777 138.66 138.743 143.523 
142.686 143.123 143.194 141.802 142.262 142.358 142.853 143.044 140.954 
141.394 141.488 141.991 142.185 142.743 143.021 140.112 140.554 140.646 
141.14 141.324 141.865 142.159 142.757 143.113 139.224 139.663 139.745 
140.287 140.492 141.035 141.361 141.944 142.383 142.954 143.399 138.553 
138.829 138.934 139.411 139.692 140.231 140.606 141.193 141.699 142.306 
142.835 143.357 143.859 138.415 138.445 138.65 138.863 139.252 139.604 
140.048 140.512 141.039 141.638 142.234 142.824 143.373 143.885 144.441 
138.626 138.577 138.853 138.896 139.326 139.469 139.955 140.183 140.713 
141.105 141.736 142.265 142.909 143.427 144.03 144.531 145.154 138.816 
138.819 139.057 139.139 139.512 139.655 140.125 140.282 140.815 141.018 
141.644 141.97 142.665 143.076 143.752 144.188 144.839 145.304 145.936 
143.956 143.646 144.007 144.501 143.557 143.818 144.322 144.644 145.289 
143.618 143.853 144.434 144.643 145.315 145.639 146.49 143.731 143.973 
144.658 144.885 145.642 145.863 146.745 147.046 147.968 143.972 144.146 
144.883 145.153 146.016 146.278 147.212 147.457 148.423 148.632 149.534 
144.433 144.505 145.269 145.473 146.394 146.667 147.625 147.909 148.861 
149.13 150.063 150.257 151.162 145.062 145.08 145.883 146 146.923 
147.114 148.029 148.267 149.137 149.448 150.315 150.661 151.517 151.825 
152.659 145.775 145.773 146.565 146.657 147.52 147.669 148.489 148.658 
149.419 149.66 150.445 150.788 151.592 151.975 152.735 153.111 153.814 
146.498 146.486 147.197 147.279 148.03 148.179 148.902 149.062 149.744 
149.933 150.658 150.928 151.713 152.033 152.799 153.118 153.822 154.142 
154.806 149.704 149.071 148.984 148.174 148.512 148.392 147.601 147.469 
146.645 148.049 147.893 147.1 146.928 146.101 145.949 145.113 147.61 
147.451 146.614 146.418 145.538 145.393 144.583 144.454 143.672 147.146 
146.987 146.123 145.908 144.985 144.811 143.997 143.913 143.183 143.071 
142.341 146.75 146.539 145.721 145.464 144.608 144.344 143.558 143.385 
142.67 142.551 141.804 141.706 141 146.5 146.223 145.46 145.17 
144.415 144.11 143.39 143.102 142.404 142.145 141.411 141.189 140.481 
140.39 139.861 146.343 146.038 145.284 144.983 144.243 143.965 143.253 
142.983 142.29 141.998 141.311 140.983 140.354 140.074 139.609 139.487 
139.22 146.223 145.907 145.156 144.837 144.084 143.791 143.048 142.789 
142.08 141.85 141.211 140.964 140.41 140.128 139.699 139.461 139.191 
139.072 138.934 
POINT_DATA 1002
SCALARS Distance double
LOOKUP_TABLE default
146.813 146.171 146.877 147.67 147.7 147.698 148.656 148.739 148.694 
148.829 149.701 149.894 149.649 149.809 150.161 150.491 150.781 150.343 
150.558 151.087 151.768 150.84 151.294 150.715 151.09 151.882 152.826 
153.676 151.157 151.616 151.171 151.796 152.796 153.9 154.894 155.62 
151.816 151.88 152.13 152.974 154.064 155.118 156.085 156.858 157.351 
152.769 152.316 153.445 154.395 155.449 156.41 157.289 158.057 158.585 
158.872 153.889 153.133 154.774 155.72 156.663 157.561 158.427 159.209 
159.772 160.08 160.218 146.035 146.749 145.837 146.621 145.479 147.609 
146.43 145.05 147.587 148.719 146.121 144.687 147.501 148.649 149.923 
145.683 144.353 147.231 148.506 149.825 151.032 145.255 144.06 146.837 
148.373 149.833 151.291 151.897 145.003 143.925 146.443 148.12 149.859 
151.518 152.379 152.151 144.882 143.913 146.09 147.607 149.459 151.345 
152.434 152.342 151.967 144.768 143.928 145.793 147.072 148.771 150.731 
152.092 152.246 151.893 152.114 144.409 145.321 145.014 146.157 146.016 
146.521 147.428 147.391 147.719 148.11 148.673 148.831 149.069 149.59 
150.081 149.82 150.391 149.873 150.635 151.33 151.718 151.528 152.099 
150.892 151.052 151.825 152.207 152.171 153.484 153.502 152.912 152.265 
152.298 152.583 152.355 151.955 154.868 154.486 154.931 154.404 153.78 
153.583 153.38 152.802 152.279 155.848 155.446 156.271 156.307 155.803 
155.237 154.931 154.551 153.949 153.425 154.867 155.369 156.863 155.93 
157.407 158.818 156.374 157.912 159.45 160.919 156.749 158.41 160.11 
161.717 163.056 157.315 159.053 160.822 162.417 163.785 164.875 157.832 
159.659 161.468 162.919 164.202 165.449 166.49 157.82 159.769 161.726 
163.176 164.376 165.759 167.074 168.015 157.376 159.363 161.452 163.072 
164.352 165.844 167.406 168.568 169.282 156.908 158.804 160.858 162.597 
164.009 165.559 167.275 168.685 169.616 170.206 155.832 157.849 156.803 
159.912 158.838 157.73 162.115 161.04 159.854 158.659 164.135 163.208 
162.146 160.897 159.614 165.902 165.088 164.157 163.054 161.764 160.456 
167.541 166.825 165.903 164.786 163.51 162.235 161.007 168.932 168.329 
167.482 166.35 164.947 163.559 162.395 161.281 170.025 169.503 168.712 
167.696 166.369 164.838 163.515 162.467 161.399 170.903 170.616 171.255 
170.722 170.828 169.842 170.07 169.759 169.686 168.816 169.019 168.816 
169.029 168.561 167.641 168.128 168.182 168.148 167.995 167.332 166.155 
167.351 167.429 167.215 167.11 166.71 165.79 164.59 166.494 166.496 
166.278 166.037 165.737 165.168 164.3 163.344 165.604 165.576 165.407 
165.074 164.709 164.307 163.777 163.07 162.25 164.728 164.717 164.58 
164.28 163.878 163.446 163.015 162.507 161.835 161.041 170.468 171.04 
170.134 170.452 169.237 171.053 169.387 168.147 170.137 170.236 168.265 
167.069 169.056 169.346 169.246 167.114 165.941 168.032 168.562 168.781 
168.668 165.884 164.786 166.848 167.587 168.068 168.238 168.005 164.627 
163.635 165.537 166.313 166.889 167.217 167.259 166.998 163.34 162.468 
164.189 164.962 165.583 166.009 166.222 166.211 165.986 162.092 161.329 
162.87 163.612 164.257 164.809 165.218 165.387 165.323 165.091 156.065 
157.808 156.874 158.701 157.614 159.815 159.433 158.364 160.597 161.709 
160.237 159.209 161.332 162.411 163.338 160.985 159.889 162.152 163.25 
164.17 164.988 161.463 160.388 162.689 163.953 164.969 165.892 166.793 
161.893 160.853 163.016 164.282 165.44 166.435 167.515 168.416 162.289 
161.188 163.388 164.544 165.723 166.795 167.873 168.96 169.623 154.487 
155.059 153.526 154.017 152.499 155.746 152.897 151.413 154.555 156.42 
151.784 150.42 153.383 155.197 157.242 150.796 149.578 152.347 154.08 
156.032 158.101 149.891 148.759 151.371 153.096 154.862 156.808 158.759 
149.022 147.923 150.348 152.033 153.766 155.522 157.464 159.321 148.254 
147.167 149.414 150.887 152.602 154.331 156.17 158.088 159.795 147.606 