# vtk DataFile Version 4.0
vtk output
ASCII
DATASET POLYDATA
POINTS 1002 float
-76.7983 -102.655 56.67 -77.312 -101.683 55.8177 -77.8523 -101.997 56.0442 
-77.2987 -103.108 56.9474 -78.4213 -102.537 56.2999 -76.1343 -103.988 57.5176 
-77.8902 -103.757 57.3033 -79.0187 -103.151 56.8507 -76.6432 -104.722 57.7759 
-75.6426 -105.888 58.2518 -78.4218 -104.436 57.8853 -79.4686 -103.649 57.6961 
-77.2741 -105.594 58.115 -76.2246 -106.787 58.6446 -75.494 -107.871 59.3911 
-78.6217 -105.197 58.3958 -79.6816 -104.289 58.245 -77.7118 -106.533 58.5407 
-76.8318 -107.752 59.1415 -76.0671 -108.682 60.1529 -75.4762 -109.562 61.1343 
-78.6102 -106.358 58.3532 -79.7701 -105.38 58.1351 -77.8117 -107.66 58.8276 
-77.1948 -108.849 59.6626 -76.5156 -109.715 60.8446 -75.896 -110.607 61.8768 
-75.4041 -111.602 62.6022 -78.6454 -107.834 58.0963 -79.6984 -106.785 57.8119 
-77.9372 -108.966 59.0116 -77.453 -110.056 60.2064 -76.8811 -110.99 61.4125 
-76.2466 -112.01 62.354 -75.7515 -113.135 62.9874 -75.3637 -114.07 63.5787 
-78.7043 -109.274 58.3646 -79.4532 -108.267 57.8342 -78.2701 -110.194 59.5533 
-77.9103 -111.177 60.924 -77.3856 -112.251 62.0372 -76.7752 -113.425 62.8182 
-76.2637 -114.621 63.4079 -75.8503 -115.531 64.0608 -75.4565 -116.121 64.7799 
-78.8749 -110.517 59.2485 -79.3388 -109.657 58.355 -78.7031 -111.26 60.5468 
-78.5031 -112.181 61.8144 -78.034 -113.371 62.751 -77.4737 -114.61 63.4621 
-77.0284 -115.737 64.1241 -76.6191 -116.609 64.8421 -76.1649 -117.161 65.611 
-75.7071 -117.575 66.2537 -79.3358 -111.502 60.3611 -79.5883 -110.788 59.2341 
-79.2552 -112.18 61.6242 -79.0999 -113.134 62.6656 -78.6861 -114.421 63.4059 
-78.1895 -115.665 64.1262 -77.8315 -116.624 64.9819 -77.5048 -117.377 65.8329 
-77.0623 -117.969 66.563 -76.5611 -118.421 67.1464 -76.0891 -118.803 67.559 
-77.971 -100.928 55.1939 -78.592 -101.35 55.3378 -78.5854 -100.28 54.4768 
-79.342 -100.757 54.657 -79.4259 -99.8341 53.5537 -79.2532 -102.046 55.5762 
-80.3345 -100.199 53.9609 -80.4924 -99.5376 52.4586 -80.1346 -101.512 54.9422 
-79.9368 -102.733 56.2274 -81.3999 -99.7665 53.1038 -81.4236 -99.2953 51.3127 
-81.1948 -100.809 54.3868 -80.9243 -102.277 55.543 -80.5123 -103.24 57.2032 
-82.2828 -99.4872 52.0587 -82.2603 -98.9371 50.1786 -82.2427 -100.184 53.7624 
-82.0051 -101.614 54.9317 -81.6405 -102.948 56.5484 -80.9416 -103.849 57.9856 
-83.1345 -99.173 50.9153 -83.1991 -98.41 49.0886 -83.1371 -99.8417 52.9863 
-83.0308 -101.019 54.4294 -82.7351 -102.554 55.9768 -82.2403 -103.576 57.7829 
-81.1513 -104.755 58.2648 -83.8511 -98.927 49.7285 -83.8403 -98.1203 48.1413 
-83.8205 -99.7356 51.9331 -83.7809 -100.744 53.8063 -83.6144 -102.204 55.4047 
-83.3297 -103.356 57.4357 -82.5149 -104.249 58.5674 -80.939 -105.972 58.1019 
-84.0606 -99.1135 48.7023 -83.8221 -98.4199 47.5052 -84.1242 -99.9527 50.6417 
-84.0942 -100.848 52.7745 -84.044 -102.105 54.5812 -84.0141 -103.337 56.6021 
-83.5903 -104.085 58.3157 -82.2214 -105.304 58.4297 -80.4446 -107.484 57.8769 
-83.8079 -99.7026 48.1101 -83.3869 -99.1263 47.2448 -84.0648 -100.49 49.5522 
-84.1001 -101.299 51.5267 -84.0804 -102.329 53.4989 -84.2162 -103.552 55.4549 
-84.1777 -104.38 57.3448 -83.2426 -105.166 58.1776 -81.5382 -106.838 57.9347 
-80.1122 -109.035 58.0544 -83.2283 -100.237 47.689 -83.7148 -100.939 48.6626 
-83.1876 -101.379 48.3406 -83.6163 -102.112 49.5069 -83.0392 -102.464 49.1964 
-83.9732 -101.762 50.2122 -83.3193 -103.181 50.5586 -82.6867 -103.636 50.239 
-83.8277 -103.005 51.1395 -84.0059 -102.688 52.1925 -82.8996 -104.383 51.646 
-82.4773 -105.185 51.3655 -83.5403 -104.141 52.1609 -83.9727 -104.106 53.0601 
-84.1488 -103.878 54.2357 -82.6086 -106.113 52.7145 -82.494 -107.249 52.4463 
-83.0181 -105.343 53.0893 -83.6578 -105.235 53.8422 -84.1144 -105.259 54.9681 
-84.2943 -104.917 56.1897 -82.4052 -108.428 53.8399 -82.3205 -109.381 53.5487 
-82.4158 -107.194 54.0903 -82.7629 -106.44 54.508 -83.2902 -106.336 55.3971 
-83.6276 -106.191 56.487 -83.6318 -105.669 57.4496 -82.1407 -110.567 55.1077 
-81.7947 -110.929 54.9145 -82.1236 -109.622 55.3311 -82.0373 -108.482 55.4983 
-82.1253 -107.849 55.9263 -82.2592 -107.671 56.6722 -82.2843 -107.408 57.3135 
-82.0605 -107.026 57.7122 -81.785 -111.942 56.5663 -81.1689 -111.904 56.5757 
-82.1146 -111.64 56.7137 -82.0849 -110.856 56.8872 -81.8696 -110.035 57.0738 
-81.5754 -109.62 57.4439 -81.2876 -109.447 57.8427 -81.0248 -109.251 58.0106 
-80.6378 -109.085 58.0372 -81.3858 -112.902 58.1144 -80.6927 -112.8 58.244 
-81.9877 -112.958 58.1299 -82.2926 -112.679 58.3507 -82.283 -112.088 58.6189 
-81.9825 -111.585 58.8639 -81.4786 -111.346 59.1327 -81.0007 -111.194 59.3069 
-80.5854 -111.032 59.3103 -80.1036 -110.9 59.2584 -80.0665 -112.103 61.0662 
-80.6203 -112.307 61.1359 -80.7264 -113.434 62.8711 -81.1027 -112.551 61.1549 
-81.199 -113.795 62.9609 -81.104 -115.359 64.2428 -81.5993 -112.791 61.0498 
-81.6328 -114.195 62.9561 -81.5461 -115.879 64.428 -81.5673 -117.616 65.6034 
-82.1527 -113.008 60.8327 -82.1776 -114.508 62.8235 -82.1288 -116.265 64.5152 
-82.257 -117.991 65.9011 -82.4624 -119.246 67.2586 -82.4623 -113.378 60.562 
-82.5802 -114.863 62.5647 -82.8038 -116.565 64.3367 -83.0991 -118.135 65.9208 
-83.2649 -119.318 67.4887 -83.162 -120.28 69.0003 -82.3693 -113.904 60.1756 
-82.4474 -115.424 62.1574 -82.9903 -117.112 63.8893 -83.745 -118.5 65.4222 
-83.9661 -119.478 67.1939 -83.7345 -120.435 69.0981 -83.4428 -121.468 70.6931 
-82.0226 -114.206 59.7709 -81.9839 -115.85 61.6605 -82.4844 -117.673 63.4368 
-83.6214 -119.145 64.8191 -84.2729 -120.106 66.3982 -84.0996 -120.991 68.5628 
-83.8894 -121.975 70.6581 -83.8769 -122.771 72.1771 -81.4783 -114.15 59.6129 
-81.4994 -115.837 61.2966 -81.7945 -117.731 63.116 -82.8094 -119.386 64.6121 
-83.8645 -120.643 65.8728 -84.1152 -121.733 67.6964 -84.0541 -122.742 69.9864 
-84.2654 -123.458 71.9113 -84.506 -123.791 73.2599 -80.8104 -114.009 59.6832 
-80.9851 -115.626 61.1384 -81.2362 -117.432 62.8098 -81.9044 -119.086 64.5079 
-82.9259 -120.541 65.8358 -83.6083 -121.947 67.1825 -83.8375 -123.205 69.0913 
-84.142 -124.056 71.1357 -84.6018 -124.45 72.7542 -84.888 -124.559 73.9753 
-79.9836 -112.811 62.3127 -80.5196 -114.554 63.8139 -79.7902 -113.852 63.2848 
-80.8816 -116.851 65.1261 -80.1376 -116.081 64.5683 -79.3841 -115.305 63.9701 
-81.5854 -118.853 66.8433 -80.6488 -118.233 66.2545 -79.7519 -117.555 65.4829 
-78.93 -116.687 64.7537 -82.3829 -120.159 68.7354 -81.4103 -119.763 68.3034 
-80.4366 -119.229 67.5696 -79.5068 -118.536 66.6743 -78.6243 -117.598 65.8377 
-82.7713 -121.358 70.5237 -81.8814 -121.117 70.1401 -80.9949 -120.663 69.519 
-80.1345 -120.045 68.6869 -79.2153 -119.203 67.8429 -78.3277 -118.244 66.9192 
-83.1975 -122.546 72.2207 -82.2357 -122.393 71.8907 -81.3108 -122.11 71.2308 
-80.4903 -121.594 70.3471 -79.5979 -120.836 69.4846 -78.6935 -119.874 68.6562 
-77.8683 -118.872 67.6761 -83.9521 -123.402 73.6341 -82.9495 -123.159 73.5987 
-81.8761 -123.009 73.0506 -80.926 -122.745 72.0691 -79.9359 -122.232 70.9853 
-78.9367 -121.467 70.0125 -78.0995 -120.493 69.0928 -77.3349 -119.425 68.1426 
-84.6181 -124.086 74.6225 -83.7813 -123.622 74.9552 -82.6715 -123.332 74.7364 
-81.5863 -123.187 73.8919 -80.4675 -122.974 72.6926 -79.3072 -122.521 71.4829 
-78.3478 -121.809 70.3827 -77.5914 -120.873 69.3975 -76.8392 -119.815 68.4859 
-84.921 -125.071 75.0127 -84.5297 -124.489 75.7365 -84.6092 -125.693 75.8828 
-83.9787 -124.977 76.474 -83.7244 -126.159 76.2142 -83.5319 -123.834 76.0001 
-82.6196 -125.336 76.5448 -81.9385 -126.305 76.0805 -82.6935 -124.09 76.5259 
-82.2841 -123.398 75.5605 -80.4024 -125.533 76.3674 -79.6357 -126.399 75.9768 
-80.9842 -124.315 76.5753 -81.1999 -123.52 75.9709 -80.9921 -123.246 74.4866 
-78.1956 -125.731 76.2726 -77.717 -126.506 75.7598 -78.8654 -124.538 76.5279 
-79.4899 -123.691 76.1306 -79.7854 -123.343 74.8526 -79.6612 -123.043 73.1379 
-76.656 -125.82 75.7673 -76.3046 -126.468 75.0086 -77.1949 -124.744 76.162 
-77.8626 -123.834 75.955 -78.3647 -123.36 74.9662 -78.5688 -122.969 73.4642 
-78.5163 -122.505 71.8135 -75.4639 -125.732 74.7879 -75.084 -126.343 74.0402 
-75.964 -124.792 75.2462 -76.5898 -123.887 75.213 -77.128 -123.244 74.5889 
-77.46 -122.68 73.5313 -77.6472 -122.197 72.1163 -77.6744 -121.705 70.6054 
-74.3992 -125.531 73.8548 -74.105 -126.114 73.2233 -74.8148 -124.671 74.2574 
-75.3679 -123.818 74.2889 -75.9287 -123.127 73.854 -76.3458 -122.423 73.1512 
-76.6592 -121.793 72.1635 -76.8681 -121.361 70.8193 -76.9004 -120.764 69.5134 
-73.5795 -125.182 73.0198 -73.4199 -125.672 72.4185 -73.8394 -124.419 73.4051 
-74.2298 -123.619 73.5038 -74.7155 -122.986 73.152 -75.1775 -122.337 72.5095 
-75.5584 -121.601 71.7668 -75.8661 -121.042 70.7485 -76.0421 -120.54 69.5394 
-76.0825 -119.765 68.4766 -84.67 -125.203 73.7415 -84.5306 -125.852 74.6866 
-83.8576 -125.542 73.2503 -83.5441 -126.211 73.9609 -82.7905 -125.467 72.4959 
-84.0657 -126.459 75.3437 -82.3942 -126.13 72.8416 -81.832 -125.202 71.5113 
-82.9358 -126.629 74.2991 -82.9297 -126.649 75.5169 -81.3692 -125.866 71.5681 
-80.915 -124.885 70.4156 -81.6782 -126.506 72.849 -81.6558 -126.641 74.372 
-80.9691 -126.605 75.4756 -80.3056 -125.381 70.4022 -79.8969 -124.389 69.2766 
-80.5397 -126.288 71.4035 -80.4198 -126.712 72.7468 -79.8978 -126.703 74.2935 
-78.9023 -126.696 75.3213 -79.1525 -124.635 69.279 -78.9246 -123.705 68.1205 
-79.366 -125.67 70.2211 -79.3208 -126.611 71.1162 -78.9483 -126.924 72.3732 
-78.2208 -126.818 73.748 -77.2236 -126.739 74.6606 -78.1268 -123.849 68.0948 
-78.0916 -122.95 66.9973 -78.2028 -124.8 69.0798 -78.1847 -125.871 69.8579 
-77.9321 -126.647 70.6107 -77.3798 -126.801 71.6467 -76.5593 -126.742 72.8092 
-75.7191 -126.682 73.663 -77.3015 -123.064 66.8965 -77.355 -122.183 65.8668 
-77.2519 -123.973 67.8503 -77.1623 -124.915 68.6936 -76.9024 -125.748 69.4107 
-76.3979 -126.256 70.1114 -75.6983 -126.515 70.9909 -75.0016 -126.673 71.9988 
-74.4752 -126.585 72.8128 -76.6321 -122.24 65.681 -76.7365 -121.453 64.6709 
-76.5069 -123.091 66.6354 -76.3715 -123.992 67.4671 -76.1125 -124.79 68.2501 
[...]
CELL_DATA 2000
SCALARS Distance double
LOOKUP_TABLE default
138.862 139.578 139.358 139.728 140.497 140.182 140.589 140.356 140.918 
141.489 141.171 141.618 141.351 141.978 141.778 142.574 142.365 142.121 
142.618 142.433 143.133 142.945 143.773 143.602 144.504 143.175 142.956 
143.519 143.425 144.241 144.133 145.024 144.852 145.777 145.599 146.556 
144.063 143.833 144.501 144.407 145.366 145.293 146.309 146.149 147.143 
146.943 147.966 147.755 148.773 145.076 144.858 145.676 145.55 146.63 
146.54 147.674 147.516 148.6 148.389 149.471 149.249 150.307 150.041 
150.998 146.248 146.041 147.011 146.865 148.017 147.909 149.096 148.951 
150.084 149.891 150.996 150.787 151.845 151.588 152.522 152.198 153.002 
147.558 147.366 148.416 148.269 149.423 149.318 150.495 150.381 151.518 
151.366 152.458 152.28 153.313 153.087 153.999 153.692 154.467 154.101 
154.783 138.462 138.07 138.556 139.176 137.776 138.216 138.913 139.388 
140.104 137.667 138.023 138.741 139.192 139.987 140.425 141.135 137.634 
137.974 138.661 139.073 139.89 140.354 141.139 141.482 142.081 137.53 
137.922 138.603 139.002 139.795 140.272 141.151 141.555 142.26 142.443 
142.947 137.355 137.79 138.526 138.946 139.758 140.207 141.153 141.621 
142.509 142.745 143.316 143.335 143.794 137.178 137.617 138.4 138.874 
139.735 140.198 141.161 141.667 142.672 143.047 143.753 143.786 144.16 
144.149 144.636 137.087 137.474 138.262 138.75 139.625 140.137 141.075 
141.637 142.657 143.187 144.012 144.203 144.591 144.515 144.82 144.953 
145.6 137.153 137.454 138.235 138.656 139.522 140.003 140.911 141.473 
142.479 143.102 144.027 144.407 144.904 144.896 145.12 145.119 145.591 
145.938 146.779 137.49 138.461 138.154 138.598 139.497 139.2 139.667 
139.371 139.873 140.492 140.218 140.733 140.479 141.014 140.705 141.262 
141.642 141.221 141.739 141.525 142.178 141.923 142.575 142.223 142.879 
143.249 142.528 142.879 142.512 143.133 143.014 143.742 143.559 144.209 
143.881 144.405 145.184 144.331 144.504 143.772 144.102 143.831 144.412 
144.442 145.001 144.951 145.276 145.058 145.176 146.903 146.264 146.506 
145.599 145.749 144.985 145.321 145.019 145.499 145.45 145.767 145.641 
145.707 145.459 145.411 148.153 147.814 148.275 147.606 147.891 146.942 
147.218 146.362 146.805 146.244 146.729 146.3 146.634 146.166 146.368 
145.862 146.04 149.205 148.974 149.583 149.223 149.726 149.063 149.448 
148.552 148.969 148.078 148.597 147.81 148.337 147.591 148.047 147.294 
147.699 146.954 147.344 148.497 148.904 149.312 150.538 149.293 149.745 
151.03 151.415 152.681 149.643 150.142 151.487 151.923 153.272 153.645 
155.022 149.983 150.501 151.901 152.388 153.813 154.261 155.717 156.106 
157.495 150.357 150.851 152.26 152.792 154.262 154.795 156.28 156.755 
158.122 158.475 159.634 150.68 151.172 152.495 153.088 154.554 155.195 
156.692 157.243 158.562 158.968 160.093 160.408 161.427 150.74 151.309 
152.475 153.169 154.562 155.353 156.845 157.542 158.853 159.322 160.437 
160.803 161.899 162.208 163.254 150.469 151.123 152.167 152.95 154.234 
155.152 156.577 157.479 158.791 159.469 160.594 161.093 162.212 162.652 
163.771 164.063 164.995 150.067 150.722 151.726 152.517 153.72 154.652 
155.968 156.974 158.243 159.157 160.287 161.046 162.127 162.793 163.862 
164.399 165.314 165.617 166.296 148.657 150.71 149.644 149.596 152.867 
151.773 151.77 150.659 150.633 155.245 154.054 154.111 152.921 152.933 
151.756 151.723 157.726 156.559 156.646 155.389 155.421 154.155 154.126 
152.871 152.779 159.868 158.938 159.035 157.909 157.91 156.679 156.621 
155.334 155.204 153.904 153.735 161.695 160.91 161.063 160.118 160.121 
159.039 158.949 157.762 157.589 156.318 156.082 154.798 154.555 163.505 
162.728 162.927 162.049 162.093 161.111 161.027 159.948 159.754 158.583 
158.296 157.067 156.736 155.508 155.179 165.179 164.498 164.647 163.853 
163.869 162.988 162.885 161.907 161.674 160.601 160.265 159.131 158.742 
157.577 157.166 155.997 155.592 166.482 165.989 166.076 165.415 165.348 
164.596 164.42 163.59 163.297 162.359 161.952 160.931 160.478 159.423 
158.965 157.874 157.41 156.298 155.854 167.127 167.893 167.31 166.753 
168.282 167.931 167.311 166.716 165.971 167.9 167.965 167.33 167.027 
166.219 165.758 164.959 166.927 167.227 166.653 166.691 165.922 165.754 
164.957 164.624 163.791 165.945 166.216 165.712 165.848 165.207 165.243 
164.545 164.428 163.633 163.328 162.427 165.004 165.302 164.838 164.977 
164.4 164.494 163.881 163.897 163.164 163.018 162.149 161.863 160.934 
163.945 164.313 163.872 164.098 163.515 163.678 163.05 163.159 162.437 
162.427 161.592 161.461 160.575 160.336 159.421 162.897 163.241 162.806 
163.068 162.491 162.712 162.074 162.249 161.528 161.608 160.803 160.797 
159.966 159.876 159.011 158.797 157.876 161.893 162.219 161.772 162.015 
161.448 161.663 161.052 161.242 160.568 160.679 159.921 159.965 159.181 
159.188 158.385 158.299 157.427 157.219 156.308 167.282 167.327 167.647 
168.074 166.718 167.422 167.993 168.325 168.494 165.673 166.563 167.141 
167.866 168.103 168.4 168.123 164.501 165.406 165.902 166.747 166.978 
167.611 167.459 167.676 167.151 163.196 164.137 164.573 165.432 165.662 
166.363 166.338 166.802 166.517 166.651 166.156 161.711 162.685 163.058 
164.006 164.262 165.059 165.105 165.683 165.507 165.878 165.522 165.666 
165.158 160.197 161.12 161.418 162.383 162.626 163.557 163.634 164.385 
164.203 164.747 164.39 164.795 164.36 164.579 164.057 158.738 159.6 
159.846 160.742 160.945 161.864 161.947 162.786 162.64 163.305 162.977 
163.518 163.169 163.607 163.249 163.48 163.023 157.325 158.137 158.34 
159.187 159.357 160.218 160.304 161.114 161.039 161.726 161.509 162.094 
161.858 162.391 162.172 162.591 162.287 162.488 162.036 150.16 151.027 
150.993 151.904 152.047 152.008 152.994 152.924 153.949 153.03 153.06 
154.116 154.088 155.154 155.084 156.171 153.985 154.047 155.168 155.207 
156.324 156.299 157.399 157.341 158.406 154.906 155.003 156.139 156.241 
157.409 157.452 158.582 158.553 159.638 159.549 160.516 155.673 155.859 
156.967 157.149 158.304 158.462 159.595 159.672 160.753 160.747 161.769 
161.627 162.479 156.245 156.522 157.616 157.875 158.989 159.237 160.338 
160.539 161.579 161.715 162.717 162.777 163.707 163.552 164.267 156.657 
156.999 158.069 158.408 159.489 159.812 160.889 161.168 162.19 162.4 
163.362 163.543 164.474 164.579 165.37 165.214 165.723 156.922 157.311 
158.315 158.73 159.751 160.171 161.209 161.605 162.619 162.925 163.865 
164.092 164.994 165.195 166.028 166.099 166.693 166.474 166.744 149.305 
148.274 149.183 150.073 147.23 148.143 148.998 150.019 151.012 146.084 
147.04 147.843 148.887 149.83 150.933 151.938 144.852 145.811 146.57 
147.647 148.567 149.705 150.724 151.854 152.884 143.742 144.58 145.293 
146.325 147.256 148.421 149.488 150.652 151.727 152.829 153.832 142.897 
143.571 144.207 145.092 145.983 147.116 148.201 149.409 150.487 151.642 
152.627 153.715 154.603 142.206 142.794 143.327 144.068 144.831 145.862 
146.876 148.082 149.118 150.316 151.252 152.409 153.273 154.378 155.17 
141.514 142.08 142.52 143.179 143.802 144.713 145.611 146.742 147.729 
148.899 149.819 150.974 151.849 152.99 153.819 154.894 155.626 140.82 
141.354 141.739 142.339 142.869 143.672 144.469 145.497 146.44 147.541 
148.463 149.57 150.475 151.597 152.478 153.558 154.337 155.329 155.971 
140.575 140.536 140.849 141.479 140.601 140.872 141.562 141.858 142.647 
140.77 141.027 141.827 142.092 143.024 143.284 144.303 141.068 141.309 
142.24 142.502 143.558 143.816 144.933 145.161 146.271 141.57 141.767 
142.822 143.054 144.187 144.43 145.583 145.829 146.971 147.185 148.276 
142.26 142.427 143.58 143.778 144.967 145.143 146.302 146.499 147.68 
147.907 149.086 149.242 150.333 143.034 143.197 144.387 144.602 145.833 
145.999 147.169 147.295 148.484 148.672 149.922 150.109 151.285 151.352 
152.375 143.855 143.996 145.161 145.389 146.615 146.843 148.029 148.189 
149.346 149.515 150.715 150.934 152.101 152.265 153.282 153.325 154.206 
144.716 144.827 145.943 146.135 147.31 147.562 148.738 148.976 150.109 
150.318 151.425 151.652 152.726 152.956 153.936 154.098 154.956 155.022 
155.794 145.568 147.303 146.546 146.81 149.122 148.348 148.635 147.854 
148.162 151.019 150.221 150.556 149.744 150.065 149.265 149.588 153.02 
152.187 152.56 151.727 152.087 151.237 151.563 150.714 150.997 155.02 
154.215 154.601 153.779 154.179 153.319 153.66 152.753 153.013 152.105 
152.323 156.908 156.185 156.609 155.829 156.263 155.435 155.806 154.891 
155.135 154.164 154.332 153.399 153.575 158.684 158.057 158.543 157.819 
158.255 157.479 157.847 157.002 157.251 156.299 156.433 155.437 155.544 
154.615 154.745 160.234 159.774 160.267 159.664 160.028 159.345 159.624 
158.902 159.123 158.317 158.452 157.521 157.58 156.6 156.646 155.721 
155.77 161.384 161.142 161.592 161.178 161.453 160.908 161.092 160.493 
160.672 160.024 160.174 159.408 159.463 158.567 158.546 157.606 157.57 
156.659 156.617 145.122 144.968 145.658 146.861 144.741 145.51 146.799 
147.459 148.676 144.466 145.289 146.666 147.407 148.72 149.329 150.573 
144.167 145.026 146.496 147.313 148.762 149.428 150.801 151.337 152.617 
143.856 144.727 146.273 147.184 148.785 149.545 151.059 151.649 153.035 
153.467 154.675 143.607 144.42 145.959 146.941 148.621 149.554 151.162 
151.907 153.35 153.889 155.118 155.472 156.54 143.522 144.213 145.639 
146.572 148.177 149.244 150.846 151.831 153.275 154.049 155.271 155.801 
156.843 157.228 158.224 143.57 144.161 145.447 146.234 147.669 148.678 
150.182 151.283 152.7 153.707 154.93 155.72 156.755 157.348 158.303 
158.794 159.715 143.624 144.182 145.365 146.038 147.335 148.178 149.568 
150.562 151.935 152.972 154.211 155.162 156.224 157.028 157.968 158.651 
159.525 160.097 160.859 143.979 142.081 143.267 143.72 139.99 141.223 
141.619 142.93 143.408 137.856 139.011 139.331 140.705 141.19 142.582 
143.091 136.044 136.898 137.056 138.333 138.808 140.291 140.861 142.27 
142.786 134.784 135.28 135.176 136.098 136.382 137.815 138.419 139.983 
140.578 141.973 142.483 133.801 134.174 133.922 134.427 134.396 135.429 
135.876 137.433 138.132 139.713 140.332 141.708 142.267 132.859 133.238 
133.093 133.405 133.295 133.782 134.003 135.064 135.742 137.251 138.055 
139.554 140.258 141.596 142.245 132.131 132.423 132.46 132.752 132.835 
133.066 133.271 133.722 134.275 135.234 136.09 137.401 138.276 139.634 
140.412 141.685 142.37 131.717 131.886 131.989 132.271 132.512 132.783 
133.098 133.355 133.822 134.291 135.007 135.847 136.714 137.832 138.687 
139.909 140.673 141.862 142.503 131.545 131.376 131.557 131.832 131.423 
131.498 131.88 132.033 132.431 131.969 131.777 132.179 132.208 132.695 
132.765 133.161 132.941 132.551 132.864 132.685 133.151 133.133 133.629 
133.588 133.992 133.926 133.54 133.776 133.49 133.877 133.717 134.227 
134.157 134.695 134.571 135.117 134.838 134.453 134.687 134.395 134.777 
134.545 135.04 134.882 135.473 135.356 135.996 135.881 136.639 135.894 
135.429 135.677 135.32 135.719 135.468 135.972 135.777 136.362 136.217 
136.886 136.783 137.558 137.53 138.46 137.042 136.572 136.812 136.383 
136.729 136.422 136.899 136.7 137.278 137.135 137.802 137.699 138.471 
138.433 139.332 139.387 140.379 138.054 137.679 137.9 137.503 137.787 
137.442 137.861 137.625 138.202 138.054 138.751 138.643 139.421 139.354 
140.212 140.229 141.159 141.255 142.191 138.616 139.477 138.861 138.521 
140.679 139.865 139.552 138.825 138.488 142.368 141.332 141.053 140.087 
139.791 138.92 138.638 144.324 143.216 142.984 141.856 141.599 140.5 
140.244 139.253 139.053 146.381 145.245 145.046 143.893 143.669 142.503 
142.274 141.115 140.906 139.835 139.681 148.594 147.402 147.24 146.02 
145.818 144.62 144.424 143.245 143.042 141.863 141.661 140.55 140.398 
150.81 149.675 149.567 148.324 148.156 146.87 146.684 145.436 145.244 
144.03 143.808 142.619 142.416 141.307 141.188 152.804 151.813 151.748 
150.638 150.509 149.271 149.084 147.783 147.572 146.281 146.053 144.794 
144.573 143.385 143.242 142.155 142.109 154.579 153.701 153.654 152.693 
152.583 151.51 151.324 150.136 149.909 148.646 148.413 147.112 146.887 
145.608 145.439 144.262 144.185 143.119 143.105 143.99 145.127 144.947 
145.764 146.455 146.22 147.146 146.87 147.767 147.961 147.698 148.736 
148.418 149.395 149.019 149.976 149.481 149.254 150.334 150.079 151.105 
150.738 151.67 151.283 152.248 150.916 150.721 151.75 151.59 152.61 
152.38 153.294 152.952 153.824 153.507 154.432 152.282 152.101 153.073 
152.917 153.911 153.764 154.713 154.473 155.333 155.025 155.874 155.598 
156.439 153.531 153.416 154.385 154.223 155.198 155.042 156.02 155.838 
156.745 156.479 157.306 157.008 157.806 157.513 158.239 154.605 154.591 
155.586 155.495 156.445 156.31 157.243 157.108 158.005 157.824 158.624 
158.372 159.104 158.835 159.53 159.228 159.83 155.515 155.587 156.589 
156.601 157.525 157.46 158.313 158.231 159.055 158.963 159.718 159.56 
160.219 160.014 160.632 160.416 160.989 160.705 161.161 136.533 136.441 
136.188 135.637 136.503 136.153 135.53 135.268 134.631 136.664 136.25 
135.574 135.205 134.488 134.176 133.494 136.855 136.424 135.728 135.292 
134.581 134.147 133.456 133.115 132.641 136.995 136.608 135.931 135.483 
134.815 134.349 133.719 133.26 132.746 132.468 132.243 137.049 136.716 
136.096 135.698 135.069 134.635 134.025 133.574 132.976 132.606 132.17 
132.086 131.952 137.169 136.797 136.22 135.851 135.267 134.883 134.277 
133.853 133.172 132.745 132.102 131.897 131.552 131.692 131.649 137.498 
137.037 136.477 136.031 135.462 135.067 134.506 134.101 133.466 132.962 
132.273 131.84 131.373 131.29 131.191 131.41 131.486 137.95 137.472 
136.94 136.405 135.83 135.332 134.807 134.376 133.88 133.376 132.823 
132.224 131.76 131.342 131.198 131.129 131.233 131.371 131.501 136.488 
135.581 136.086 136.253 134.551 135.132 135.275 135.889 136.199 133.417 
134.02 134.19 134.864 135.168 135.887 136.37 132.607 133.004 133.25 
133.833 134.218 134.878 135.38 136.153 136.797 132.303 132.493 132.791 
133.151 133.625 134.108 134.674 135.286 135.974 136.711 137.407 132.154 
132.348 132.654 132.908 133.364 133.722 134.291 134.761 135.445 136.047 
136.781 137.404 138.023 131.95 132.195 132.506 132.771 133.164 133.504 
134.017 134.447 135.074 135.602 136.29 136.867 137.506 138.039 138.593 
131.764 131.989 132.295 132.566 132.939 133.272 133.768 134.174 134.771 
135.24 135.873 136.394 137.01 137.544 138.12 138.635 139.193 131.679 
131.826 132.103 132.346 132.736 133.058 133.587 133.965 134.574 134.975 
135.583 136.013 136.607 137.083 137.676 138.179 138.76 139.259 139.801 
137.072 136.867 137.285 138.009 136.894 137.2 137.913 138.305 139.053 
137.189 137.401 138.179 138.386 139.114 139.39 140.107 137.654 137.83 
138.696 138.833 139.601 139.676 140.399 140.554 141.359 138.13 138.292 
139.105 139.333 140.12 140.251 140.984 141.057 141.903 142.05 143.053 
138.586 138.689 139.339 139.592 140.311 140.61 141.343 141.585 142.406 
142.65 143.642 143.897 144.945 139.127 139.137 139.722 139.822 140.483 
140.721 141.466 141.79 142.613 142.987 143.904 144.314 145.264 145.64 
146.517 139.761 139.737 140.362 140.337 140.994 141.041 141.773 141.962 
142.796 143.123 144.023 144.43 145.316 145.739 146.543 146.946 147.671 
140.348 140.375 141.006 141.017 141.651 141.653 142.311 142.385 143.143 
143.364 144.235 144.567 145.457 145.799 146.616 146.937 147.683 148.013 
148.727 143.739 142.842 142.837 141.891 142.001 141.95 140.985 140.932 
139.889 141.249 141.153 140.214 140.098 139.082 138.927 137.872 140.643 
140.489 139.623 139.445 138.521 138.275 137.315 137.067 136.197 140.252 
140.023 139.239 138.993 138.166 137.872 137.024 136.712 135.943 135.675 
135.026 140.055 139.778 139.047 138.737 137.956 137.632 136.853 136.539 
135.813 135.528 134.86 134.624 134.009 139.956 139.667 138.964 138.622 
137.852 137.496 136.748 136.429 135.737 135.434 134.734 134.444 133.748 
133.549 132.962 139.919 139.609 138.929 138.573 137.825 137.447 136.726 
136.384 135.731 135.403 134.735 134.37 133.674 133.342 132.749 132.568 
132.173 139.96 139.617 138.958 138.58 137.878 137.48 136.801 136.426 
135.803 135.45 134.831 134.444 133.81 133.406 132.861 132.535 132.167 
131.986 131.774 
POINT_DATA 1002
SCALARS Distance double
LOOKUP_TABLE default
139.17 138.4 139.019 139.888 139.831 140.132 140.831 140.831 141.053 
141.575 141.855 141.784 142.174 142.712 143.44 142.729 142.589 143.276 
143.953 144.659 145.418 143.557 143.388 144.28 145.174 145.95 146.726 
147.526 144.563 144.249 145.391 146.432 147.328 148.158 149.018 149.778 
145.771 145.217 146.701 147.803 148.792 149.685 150.575 151.331 151.887 
147.141 146.393 148.128 149.228 150.262 151.201 152.103 152.86 153.378 
153.742 148.568 147.718 149.544 150.602 151.657 152.637 153.537 154.301 
154.84 155.185 155.422 137.969 138.681 137.562 138.408 137.36 139.653 
138.303 137.343 139.517 140.794 138.282 137.284 139.403 140.755 141.874 
138.206 137.106 139.325 140.661 142.043 142.87 138.065 136.9 139.313 
140.639 142.164 143.327 143.755 137.891 136.748 139.25 140.647 142.202 
143.656 144.282 144.455 137.787 136.73 139.115 140.518 142.066 143.709 
144.677 144.82 145.199 137.849 136.883 139.074 140.384 141.839 143.536 
144.841 145.198 145.354 146.231 137.74 138.875 138.768 139.96 139.766 
140.168 140.933 140.78 141.312 141.569 141.953 142.195 142.336 142.892 
143.268 143.441 144.115 143.249 143.818 144.521 144.844 145.445 145.998 
144.632 144.432 144.992 145.496 145.495 147.355 147.362 146.726 145.897 
145.642 145.872 145.943 145.695 148.732 148.371 148.743 148.209 147.553 
147.226 147.096 146.872 146.548 149.824 149.425 150.198 150.24 149.899 
149.458 149.112 148.809 148.466 148.088 149.688 150.163 151.765 150.61 
152.319 153.961 151.012 152.844 154.656 156.451 151.383 153.312 155.285 
157.213 158.824 151.717 153.685 155.791 157.767 159.39 160.693 151.905 
153.868 156.113 158.172 159.75 161.145 162.447 151.785 153.741 156.083 
158.342 160.047 161.52 163.037 164.281 151.39 153.33 155.635 158.013 
160.02 161.718 163.405 164.873 165.831 150.956 152.837 154.996 157.276 
159.441 161.404 163.262 164.922 166.149 166.909 150.68 152.878 151.754 
155.325 154.133 152.914 157.904 156.712 155.422 154.045 160.09 159.114 
157.907 156.537 155.032 161.95 161.153 160.099 158.845 157.389 155.828 
163.789 163.046 162.083 160.903 159.516 157.985 156.398 165.428 164.728 
163.838 162.736 161.386 159.894 158.349 156.754 166.709 166.093 165.226 
164.201 162.957 161.514 160.027 158.52 156.956 167.764 167.46 168.457 
167.879 168.513 166.596 167.506 167.687 166.609 165.455 166.497 166.604 
165.963 165.199 164.22 165.555 165.683 165.091 164.572 163.87 162.813 
164.673 164.659 164.29 163.823 163.252 162.375 161.264 163.611 163.567 
163.334 162.924 162.406 161.657 160.747 159.719 162.548 162.579 162.262 
161.881 161.419 160.763 159.99 159.164 158.153 161.532 161.568 161.237 
160.848 160.429 159.859 159.145 158.412 157.581 156.548 167.175 168.004 
166.805 167.461 165.889 168.516 166.343 164.789 167.623 168.175 165.088 
163.627 166.279 167.038 167.171 163.699 162.265 164.933 165.779 166.203 
166.185 162.091 160.779 163.387 164.468 165.074 165.253 165.134 160.491 
159.324 161.674 162.819 163.617 163.922 164.003 163.949 158.986 157.906 
160.062 161.101 161.925 162.38 162.634 162.876 162.927 157.522 156.549 
158.515 159.495 160.319 160.876 161.273 161.669 161.975 161.961 150.104 
151.921 151.06 153.046 152.037 154.016 154.099 152.957 155.205 156.244 
155.087 153.914 156.32 157.45 158.504 156.012 154.793 157.32 158.591 
159.709 160.704 156.774 155.453 158.118 159.477 160.72 161.831 162.776 
157.342 155.942 158.735 160.117 161.421 162.597 163.727 164.622 157.716 
156.313 159.151 160.585 161.968 163.183 164.307 165.392 166.101 148.391 
149.06 147.38 147.997 146.321 149.942 146.81 145.129 148.729 150.824 
145.5 143.934 147.408 149.568 151.784 144.314 142.985 146.074 148.292 
150.609 152.791 143.42 142.293 144.896 146.986 149.329 151.528 153.564 
142.674 141.656 143.894 145.711 147.935 150.094 152.139 154.118 141.914 
140.975 142.978 144.542 146.585 148.672 150.694 152.717 154.624 141.177 