# vtk DataFile Version 4.0
vtk output
ASCII
DATASET POLYDATA
POINTS 1002 float
-76.7309 -108.733 63.4126 -76.9661 -108.063 62.4745 -77.555 -108.36 62.609 
-77.3068 -109.198 63.5682 -78.1118 -108.87 62.8104 -76.4192 -109.814 64.2103 
-77.8698 -109.875 63.7665 -78.6788 -109.42 63.1612 -76.9672 -110.497 64.302 
-76.1762 -111.332 64.8739 -78.3012 -110.604 63.9782 -79.2379 -109.936 63.5575 
-77.3821 -111.41 64.3249 -76.6377 -112.238 64.9056 -76.0092 -113.151 65.6344 
-78.4545 -111.544 63.9682 -79.6059 -110.677 63.7621 -77.4674 -112.458 64.2337 
-76.809 -113.363 64.8249 -76.318 -114.239 65.7568 -75.7648 -115.071 66.5799 
-78.3734 -112.886 63.7436 -79.6819 -111.781 63.7501 -77.358 -113.788 64.0622 
-76.7773 -114.578 64.774 -76.4031 -115.453 65.8262 -75.996 -116.257 66.8807 
-75.5359 -116.902 67.5797 -78.3313 -114.281 63.714 -79.6097 -113.063 63.7388 
-77.4295 -115.221 64.1532 -76.9602 -115.853 65.0214 -76.6257 -116.635 66.0499 
-76.2398 -117.498 67.1169 -75.8755 -118.119 67.9906 -75.5357 -118.604 68.5805 
-78.5 -115.44 64.0662 -79.5427 -114.369 63.8789 -77.82 -116.343 64.6706 
-77.4619 -116.971 65.626 -77.1277 -117.719 66.5552 -76.7057 -118.645 67.4327 
-76.3112 -119.357 68.3111 -75.9933 -119.808 69.0344 -75.6611 -120.198 69.6019 
-78.8191 -116.441 64.6102 -79.5555 -115.556 64.167 -78.3601 -117.229 65.3387 
-78.0698 -117.888 66.2841 -77.6831 -118.674 67.1359 -77.2336 -119.621 67.8821 
-76.8613 -120.394 68.716 -76.5182 -120.908 69.5021 -76.1488 -121.299 70.1064 
-75.7743 -121.594 70.6132 -79.2085 -117.289 65.1799 -79.7022 -116.484 64.5581 
-78.8786 -118.054 65.9424 -78.6307 -118.761 66.817 -78.2318 -119.565 67.6324 
-77.7441 -120.478 68.3639 -77.4173 -121.215 69.2135 -77.1615 -121.716 70.0943 
-76.7745 -122.163 70.7355 -76.3261 -122.536 71.1723 -75.9535 -122.724 71.5627 
-77.5019 -107.672 61.5752 -78.1125 -108.024 61.6776 -78.0804 -107.193 60.7713 
-78.7395 -107.598 60.851 -78.8303 -106.48 60.1873 -78.6526 -108.569 61.8645 
-79.6437 -106.856 60.3064 -79.6651 -105.7 59.5902 -79.3301 -108.202 60.944 
-79.2979 -109.073 62.2528 -80.6379 -105.994 59.8536 -80.325 -105.262 58.6693 
-80.3803 -107.509 60.3646 -80.0626 -108.762 61.2664 -80.0851 -109.446 62.8595 
-81.3302 -105.563 59.1215 -80.8631 -105.176 57.5239 -81.4543 -106.754 60.0388 
-81.0759 -108.287 60.6086 -80.9307 -109.142 62.0131 -80.7317 -109.962 63.4573 
-81.7699 -105.583 58.0555 -81.4027 -105.084 56.4619 -82.0988 -106.471 59.478 
-82.0007 -107.849 60.2309 -81.764 -108.957 61.2472 -81.7077 -109.611 62.8823 
-81.0174 -110.903 63.767 -82.0935 -105.713 56.9492 -81.748 -105.053 55.6064 
-82.4219 -106.576 58.5032 -82.623 -107.688 59.6855 -82.5449 -108.819 60.6112 
-82.4787 -109.622 62.052 -82.1228 -110.552 63.407 -80.9383 -112.268 63.8042 
-82.2149 -106.007 56.1054 -81.8056 -105.424 54.9765 -82.5902 -106.806 57.4838 
-83.0367 -107.731 58.8441 -83.2829 -108.705 59.9556 -83.1823 -109.634 61.2316 
-82.8295 -110.577 62.6899 -81.9504 -111.936 63.5418 -80.6255 -113.767 63.7885 
-82.1588 -106.576 55.6081 -81.7515 -106.155 54.5921 -82.5827 -107.186 56.7876 
-83.2079 -107.943 58.0338 -83.8239 -108.76 59.2032 -83.8725 -109.625 60.4508 
-83.3231 -110.583 61.8879 -82.4601 -111.799 62.9968 -81.3729 -113.373 63.4921 
-80.3368 -115.045 63.8734 -81.9518 -107.209 55.0083 -82.332 -107.623 56.1113 
-82.1275 -108.253 55.5243 -82.5236 -108.688 56.6667 -82.306 -109.374 55.9456 
-82.9384 -108.224 57.2864 -82.6719 -109.896 57.1177 -82.4678 -110.754 56.3164 
-83.2808 -109.381 57.7827 -83.8395 -109.003 58.405 -82.6673 -111.274 57.541 
-82.4957 -112.278 56.8709 -83.2797 -110.648 58.2189 -84.0823 -110.267 58.8021 
-84.3102 -109.852 59.5869 -82.4913 -112.689 58.0776 -82.2937 -113.742 57.6732 
-82.8611 -111.818 58.689 -83.542 -111.456 59.2591 -83.9227 -111.128 60.0484 
-83.7326 -110.748 61.0466 -82.1982 -114.254 58.7965 -81.917 -115.15 58.6993 
-82.3324 -113.126 59.2633 -82.6403 -112.481 59.8442 -82.8758 -112.29 60.5311 
-82.7722 -112.067 61.4683 -82.5956 -111.879 62.3652 -81.8438 -116.001 59.813 
-81.4754 -116.465 59.9545 -81.9258 -115.04 60.0452 -81.9807 -114.049 60.6107 
-82.0268 -113.608 61.1909 -81.8308 -113.511 61.7844 -81.5866 -113.427 62.4724 
-81.5066 -113.393 63.0768 -81.4723 -117.585 61.1056 -81.0358 -117.601 61.305 
-81.6662 -117.194 61.1392 -81.7115 -116.341 61.5986 -81.7002 -115.57 62.1697 
-81.4732 -115.275 62.4928 -81.096 -115.173 62.7623 -80.8398 -115.076 63.1757 
-80.6544 -115.045 63.5932 -81.1211 -118.797 62.4576 -80.6544 -118.589 62.5692 
-81.48 -118.895 62.442 -81.6999 -118.525 62.7669 -81.7658 -117.788 63.3256 
-81.56 -117.246 63.6562 -81.1435 -117.006 63.7068 -80.7807 -116.768 63.8453 
-80.4993 -116.553 64.1463 -80.1475 -116.483 64.4156 -79.7816 -117.733 65.5387 
-80.2993 -117.788 65.5009 -80.0932 -119.061 66.7932 -80.7067 -118.032 65.3511 
-80.6613 -119.263 66.926 -80.4288 -120.644 68.1547 -81.0115 -118.434 65.1823 
-81.0811 -119.65 66.9483 -81.0674 -120.962 68.4664 -80.8942 -122.294 69.6253 
-81.4406 -118.759 65.1254 -81.4325 -120.049 66.8499 -81.6064 -121.252 68.6488 
-81.7196 -122.514 70.0798 -81.7014 -123.669 71.1487 -81.9034 -119.151 64.984 
-81.9429 -120.39 66.6698 -82.0906 -121.535 68.5027 -82.4882 -122.618 70.2665 
-82.7466 -123.728 71.5646 -82.6576 -124.808 72.4636 -81.9821 -119.779 64.528 
-82.2723 -120.89 66.3354 -82.4651 -122.01 68.1056 -82.9331 -123.042 69.883 
-83.5822 -123.948 71.4356 -83.7372 -124.915 72.5802 -83.369 -125.833 73.5046 
-81.6484 -120.173 64.0386 -82.0028 -121.322 65.86 -82.3401 -122.488 67.6625 
-82.8047 -123.673 69.3148 -83.6466 -124.622 70.7967 -84.3214 -125.389 72.0906 
-84.2536 -126.11 73.294 -83.7795 -126.658 74.4706 -81.1644 -120.039 63.8272 
-81.3929 -121.285 65.4602 -81.7482 -122.548 67.2246 -82.1994 -123.873 68.8908 
-82.9459 -125.058 70.3223 -83.8919 -125.95 71.5348 -84.4376 -126.626 72.7238 
-84.3745 -127.106 74.0533 -84.0731 -127.364 75.3887 -80.6622 -119.717 63.7953 
-80.8068 -120.959 65.2294 -81.1142 -122.27 66.8278 -81.5433 -123.631 68.4578 
-82.1123 -124.906 70.0013 -82.8925 -125.965 71.3238 -83.7078 -126.843 72.3989 
-84.2231 -127.53 73.4923 -84.3676 -127.953 74.7836 -84.2859 -128.131 76.081 
-79.4501 -118.608 66.3425 -79.7602 -120.092 67.6506 -79.1821 -119.485 67.1982 
-80.1303 -121.724 69.1239 -79.4927 -121.072 68.6378 -78.8654 -120.358 68.1018 
-80.8012 -123.255 70.7186 -80.0524 -122.583 70.3491 -79.2653 -121.959 69.7236 
-78.4175 -121.278 68.957 -81.7058 -124.62 72.1563 -80.8835 -124.024 71.919 
-79.9815 -123.397 71.4768 -78.9527 -122.813 70.6583 -78.0549 -122.047 69.8496 
-82.4831 -125.795 73.3965 -81.6732 -125.456 73.1497 -80.7145 -124.901 72.8063 
-79.6222 -124.298 72.1927 -78.66 -123.461 71.4985 -77.8547 -122.525 70.8235 
-83.026 -126.565 74.6451 -82.2982 -126.441 74.4479 -81.3598 -126.166 74.0276 
-80.182 -125.749 73.4038 -79.1936 -124.968 72.7887 -78.3795 -123.895 72.2688 
-77.5235 -122.958 71.5724 -83.487 -127.053 75.8637 -82.8309 -126.839 75.8861 
-81.9778 -126.703 75.5331 -80.7672 -126.591 74.8453 -79.621 -126.208 74.0098 
-78.7784 -125.331 73.3658 -77.9079 -124.301 72.7725 -76.9985 -123.408 71.9874 
-83.8899 -127.664 76.8045 -83.2797 -127.199 77.0981 -82.4697 -126.881 76.9707 
-81.3231 -126.787 76.4541 -80.0524 -126.741 75.5368 -79.0618 -126.342 74.554 
-78.2336 -125.526 73.7909 -77.3329 -124.591 73.0729 -76.5174 -123.666 72.2902 
-84.185 -128.705 77.0972 -83.7017 -128.098 77.8043 -83.6647 -129.227 77.8882 
-82.972 -128.547 78.4648 -82.5254 -129.501 78.3234 -82.8958 -127.447 78.0169 
-81.6177 -128.861 78.7266 -80.9535 -129.569 78.4026 -81.9226 -127.768 78.591 
-81.7877 -126.994 77.8279 -79.9034 -129.062 78.6873 -79.232 -129.635 78.2395 
-80.4691 -128.035 78.8111 -80.6575 -127.164 78.3645 -80.4467 -126.852 77.1559 
-78.123 -129.188 78.4012 -77.5302 -129.629 77.8301 -78.779 -128.209 78.728 
-79.2842 -127.228 78.5872 -79.3678 -126.829 77.5934 -79.2315 -126.728 76.0279 
-76.5838 -129.096 77.7623 -76.0339 -129.452 77.1156 -77.1397 -128.262 78.2605 
-77.8067 -127.173 78.4621 -78.225 -126.594 77.8236 -78.3215 -126.502 76.403 
-78.3187 -126.237 74.9167 -75.4331 -128.774 76.8887 -74.8637 -129.168 76.3188 
-75.8779 -128.115 77.4174 -76.4575 -127.103 77.8557 -77.0725 -126.318 77.6848 
-77.4183 -126.1 76.635 -77.5299 -125.924 75.2303 -77.4812 -125.397 74.0172 
-74.51 -128.294 76.1509 -73.9925 -128.716 75.6852 -74.9128 -127.761 76.5815 
-75.3711 -126.971 76.9935 -75.9667 -126.159 77.0674 -76.4697 -125.752 76.4518 
-76.7459 -125.517 75.341 -76.7889 -125.055 74.1878 -76.6513 -124.404 73.178 
-73.6693 -127.662 75.6272 -73.3165 -128.046 75.1547 -73.9773 -127.234 76.0093 
-74.3624 -126.663 76.2936 -74.89 -125.97 76.3256 -75.4038 -125.467 75.9068 
-75.7924 -125.144 75.0926 -76.0267 -124.659 74.1543 -76.0503 -124.015 73.2505 
-75.9655 -123.378 72.3863 -84.3029 -128.879 75.6966 -84.0285 -129.527 76.5729 
-83.7857 -129.346 75.0516 -83.2362 -129.836 75.7035 -82.8147 -129.261 74.4038 
-83.1889 -129.862 77.2691 -81.9939 -129.523 74.8501 -81.63 -128.768 73.9032 
-82.1327 -129.855 76.2532 -81.8072 -129.818 77.6321 -80.6665 -128.976 74.1583 
-80.3672 -128.17 73.3357 -80.8173 -129.511 75.1475 -80.7301 -129.702 76.456 
-80.1918 -129.743 77.6159 -79.4662 -128.444 73.3515 -79.2193 -127.61 72.4317 
-79.5795 -129.21 74.1287 -79.5236 -129.629 75.0534 -79.1902 -129.759 76.2413 
-78.453 -129.781 77.311 -78.4954 -127.908 72.2763 -78.3613 -127.132 71.3052 
-78.5168 -128.78 73.1308 -78.3624 -129.5 73.8391 -78.0309 -129.819 74.6528 
-77.4122 -129.848 75.763 -76.6465 -129.748 76.7402 -77.6848 -127.359 71.1501 
-77.6342 -126.62 70.2567 -77.604 -128.125 72.0745 -77.3332 -128.915 72.8843 
-76.9619 -129.502 73.4786 -76.373 -129.769 74.1955 -75.5969 -129.823 75.2135 
-75.0606 -129.648 76.0335 -76.8733 -126.697 70.1629 -76.8664 -125.909 69.3847 
-76.7687 -127.394 71.0038 -76.4598 -128.06 71.8986 -76.1022 -128.678 72.6362 
-75.6653 -129.167 73.1805 -74.9059 -129.546 73.8918 -74.1778 -129.699 74.7834 
-73.9445 -129.4 75.4253 -76.087 -125.861 69.2964 -76.1462 -125.061 68.606 
-75.9929 -126.578 70.0111 -75.7373 -127.201 70.8177 -75.4024 -127.749 71.6761 
[...]
CELL_DATA 2000
SCALARS Distance double
LOOKUP_TABLE default
146.097 146.78 146.591 146.98 147.609 147.372 147.786 147.583 148.103 
148.458 148.233 148.663 148.452 148.987 148.84 149.528 149.271 149.055 
149.465 149.297 149.845 149.745 150.474 150.403 151.206 150.114 149.872 
150.296 150.103 150.686 150.595 151.391 151.369 152.254 152.161 152.965 
151.035 150.777 151.302 151.062 151.744 151.561 152.434 152.355 153.335 
153.255 154.152 153.954 154.718 152.037 151.784 152.427 152.203 152.999 
152.781 153.699 153.535 154.54 154.419 155.38 155.192 156.014 155.738 
156.465 153.089 152.865 153.584 153.398 154.252 154.077 154.989 154.829 
155.781 155.656 156.598 156.443 157.285 157.043 157.771 157.468 158.118 
154.098 153.943 154.702 154.566 155.427 155.298 156.189 156.055 156.951 
156.837 157.734 157.62 158.459 158.278 159.007 158.741 159.368 159.047 
159.592 145.711 145.339 145.79 146.366 144.984 145.44 146.032 146.506 
147.157 144.65 145.119 145.734 146.19 146.846 147.338 148.015 144.33 
144.815 145.491 145.941 146.614 147.062 147.767 148.228 148.887 144.07 
144.54 145.296 145.762 146.501 146.904 147.628 148.044 148.761 149.145 
149.77 143.879 144.334 145.139 145.631 146.458 146.863 147.619 147.982 
148.732 149.096 149.786 150.076 150.678 143.712 144.164 144.985 145.505 
146.391 146.853 147.657 148.018 148.784 149.135 149.886 150.172 150.811 
151.027 151.638 143.665 144.043 144.87 145.36 146.275 146.786 147.656 
148.065 148.848 149.206 149.969 150.298 150.971 151.199 151.774 151.996 
152.621 143.869 144.113 144.92 145.299 146.206 146.692 147.622 148.075 
148.903 149.267 149.991 150.334 150.97 151.279 151.812 152.079 152.608 
152.926 153.549 144.337 145.392 144.997 145.337 146.476 146.072 146.441 
146.1 146.59 147.637 147.183 147.6 147.262 147.809 147.478 148.023 
148.901 148.375 148.742 148.421 148.991 148.717 149.259 148.897 149.324 
150.17 149.608 149.793 149.452 149.88 149.739 150.214 150.007 150.356 
150.034 150.338 151.444 150.853 150.911 150.413 150.618 150.425 150.785 
150.714 151.016 150.863 151.116 150.911 151.201 152.778 152.203 152.35 
151.649 151.795 151.262 151.58 151.296 151.662 151.454 151.763 151.577 
151.896 151.724 152.027 154.078 153.623 153.994 153.297 153.592 152.792 
153.165 152.487 152.953 152.413 152.849 152.408 152.81 152.484 152.874 
152.59 152.903 155.238 154.933 155.486 155.003 155.499 154.786 155.243 
154.423 154.899 154.108 154.577 153.858 154.293 153.687 154.116 153.63 
154.031 153.59 153.917 154.724 154.918 155.283 156.251 155.13 155.531 
156.623 156.978 158.088 155.424 155.831 157.033 157.424 158.656 158.965 
160.147 155.8 156.211 157.456 157.87 159.162 159.556 160.825 161.106 
162.274 156.211 156.643 157.909 158.311 159.587 160.023 161.327 161.734 
162.962 163.22 164.294 156.545 157.037 158.312 158.752 159.996 160.429 
161.712 162.174 163.446 163.827 164.943 165.152 166.062 156.632 157.22 
158.394 158.994 160.166 160.728 161.932 162.482 163.716 164.217 165.352 
165.697 166.617 166.774 167.491 156.414 157.063 158.057 158.799 159.85 
160.617 161.712 162.465 163.586 164.286 165.354 165.919 166.829 167.182 
167.903 168.056 168.645 156.04 156.662 157.528 158.274 159.238 160.072 
161.104 161.977 163.022 163.878 164.864 165.64 166.511 167.134 167.867 
168.282 168.901 169.111 169.651 154.872 156.43 155.611 155.595 158.247 
157.316 157.327 156.426 156.394 160.275 159.252 159.273 158.278 158.261 
157.277 157.201 162.399 161.36 161.397 160.334 160.336 159.258 159.179 
158.106 157.99 164.431 163.482 163.548 162.503 162.514 161.411 161.334 
160.18 160.024 158.906 158.765 166.194 165.419 165.52 164.597 164.601 
163.563 163.467 162.341 162.146 160.983 160.757 159.656 159.464 167.599 
167.013 167.127 166.409 166.411 165.525 165.394 164.374 164.143 163.041 
162.751 161.63 161.332 160.267 159.989 168.752 168.271 168.37 167.813 
167.808 167.125 166.974 166.129 165.858 164.892 164.557 163.517 163.141 
162.077 161.692 160.67 160.314 169.799 169.367 169.451 168.936 168.893 
168.323 168.151 167.485 167.186 166.404 166.026 165.144 164.72 163.756 
163.297 162.297 161.846 160.884 160.483 170.406 171.076 170.56 170.038 
171.285 171.046 170.498 170.005 169.377 170.918 170.993 170.505 170.249 
169.574 169.195 168.54 170.196 170.45 170.051 170.031 169.4 169.199 
168.515 168.236 167.548 169.308 169.661 169.306 169.443 168.871 168.847 
168.185 168.054 167.363 167.137 166.397 168.248 168.694 168.354 168.613 
168.065 168.187 167.555 167.577 166.909 166.826 166.106 165.903 165.107 
167.11 167.57 167.251 167.589 167.079 167.296 166.706 166.844 166.232 
166.275 165.601 165.516 164.745 164.539 163.692 166.027 166.439 166.126 
166.479 166.026 166.288 165.751 165.952 165.396 165.537 164.925 164.946 
164.213 164.097 163.267 163.068 162.22 164.965 165.357 165.024 165.38 
164.963 165.255 164.757 164.99 164.446 164.651 164.064 164.196 163.502 
163.496 162.692 162.578 161.755 161.596 160.82 170.612 170.785 170.992 
171.301 170.271 170.853 171.213 171.454 171.468 169.205 169.997 170.308 
170.943 170.996 171.28 171.022 167.929 168.753 168.993 169.757 169.839 
170.443 170.312 170.607 170.25 166.593 167.422 167.678 168.425 168.543 
169.192 169.162 169.678 169.472 169.749 169.342 165.271 166.077 166.367 
167.139 167.307 167.963 167.954 168.503 168.338 168.791 168.473 168.748 
168.268 164.025 164.781 165.027 165.808 165.974 166.701 166.696 167.295 
167.111 167.605 167.319 167.735 167.37 167.628 167.148 162.763 163.516 
163.687 164.442 164.54 165.291 165.283 165.962 165.815 166.366 166.127 
166.586 166.326 166.695 166.372 166.568 166.117 161.432 162.188 162.314 
163.059 163.106 163.832 163.811 164.511 164.422 165.047 164.882 165.411 
165.21 165.666 165.431 165.768 165.419 165.572 165.089 156.084 156.68 
156.751 157.573 157.416 157.464 158.349 158.387 159.306 158.152 158.254 
159.23 159.277 160.256 160.247 161.211 158.841 158.984 160.029 160.172 
161.242 161.279 162.277 162.218 163.155 159.548 159.69 160.74 160.936 
162.075 162.237 163.3 163.303 164.228 164.139 164.992 160.188 160.389 
161.417 161.626 162.739 162.991 164.103 164.25 165.195 165.17 165.99 
165.9 166.643 160.636 160.943 161.943 162.216 163.23 163.544 164.607 
164.914 165.898 166.033 166.863 166.845 167.587 167.475 168.075 160.918 
161.291 162.255 162.601 163.52 163.877 164.828 165.245 166.217 166.563 
167.44 167.606 168.38 168.38 169.027 168.834 169.244 161.087 161.492 
162.411 162.802 163.662 164.036 164.889 165.325 166.224 166.699 167.576 
167.971 168.777 169.021 169.724 169.731 170.21 169.917 170.112 155.311 
154.347 155.15 155.851 153.383 154.188 154.868 155.729 156.509 152.363 
153.201 153.85 154.711 155.44 156.377 157.181 151.278 152.129 152.752 
153.635 154.32 155.265 156.057 157.036 157.864 150.249 151.024 151.613 
152.49 153.169 154.116 154.909 155.906 156.758 157.737 158.573 149.375 
150.03 150.559 151.369 152.041 152.964 153.749 154.747 155.584 156.599 
157.417 158.411 159.185 148.603 149.181 149.641 150.364 150.987 151.854 
152.594 153.565 154.362 155.383 156.168 157.185 157.927 158.932 159.628 
147.888 148.418 148.837 149.482 150.042 150.824 151.49 152.392 153.138 
154.136 154.924 155.934 156.685 157.659 158.352 159.316 159.951 147.258 
147.734 148.136 148.709 149.228 149.916 150.524 151.316 152 152.919 
153.702 154.709 155.507 156.472 157.178 158.084 158.711 159.614 160.177 
147.057 147.084 147.347 147.949 147.167 147.427 148.088 148.348 149.054 
147.324 147.564 148.286 148.55 149.323 149.566 150.348 147.631 147.815 
148.591 148.822 149.661 149.897 150.742 150.95 151.81 148.08 148.228 
149.043 149.223 150.098 150.305 151.217 151.418 152.364 152.548 153.521 
148.561 148.715 149.546 149.726 150.613 150.805 151.747 151.952 152.961 
153.172 154.215 154.38 155.359 149.041 149.19 150.021 150.223 151.137 
151.346 152.315 152.524 153.55 153.782 154.838 155.061 156.049 156.182 
157.037 149.548 149.681 150.521 150.713 151.658 151.88 152.882 153.108 
154.141 154.373 155.407 155.64 156.612 156.8 157.66 157.764 158.532 
150.063 150.202 151.058 151.245 152.196 152.417 153.412 153.655 154.67 
154.93 155.939 156.183 157.132 157.328 158.192 158.336 159.128 159.221 
159.962 150.613 151.9 151.384 151.69 153.367 152.795 153.16 152.57 
152.89 155.041 154.382 154.789 154.139 154.482 153.823 154.124 156.915 
156.174 156.586 155.86 156.208 155.48 155.788 155.091 155.393 158.777 
158.058 158.437 157.706 158.055 157.284 157.599 156.831 157.149 156.409 
156.694 160.474 159.833 160.191 159.514 159.884 159.157 159.498 158.712 
159.022 158.227 158.493 157.7 157.895 162.037 161.483 161.896 161.245 
161.644 160.961 161.331 160.596 160.888 160.101 160.319 159.507 159.656 
158.837 158.938 163.397 163.005 163.488 162.932 163.324 162.687 163.024 
162.352 162.611 161.882 162.054 161.278 161.395 160.585 160.66 159.831 
159.878 164.44 164.239 164.736 164.377 164.723 164.226 164.478 163.913 
164.116 163.486 163.626 162.922 163.017 162.266 162.334 161.538 161.566 
160.734 160.725 150.207 149.986 150.542 151.463 149.829 150.4 151.386 
151.894 152.902 149.697 150.332 151.417 151.9 152.928 153.423 154.546 
149.467 150.192 151.348 151.938 153.003 153.51 154.668 155.21 156.445 
149.232 149.911 151.042 151.754 152.865 153.524 154.743 155.38 156.697 
157.22 158.408 149.242 149.733 150.787 151.416 152.543 153.28 154.577 
155.382 156.792 157.47 158.726 159.141 160.151 149.45 149.833 150.833 
151.295 152.391 153.009 154.311 155.142 156.6 157.446 158.757 159.358 
160.377 160.755 161.632 149.605 150.015 150.983 151.417 152.461 152.972 
154.177 154.896 156.278 157.15 158.466 159.226 160.26 160.81 161.655 
162.098 162.896 149.66 150.091 151.028 151.509 152.511 153.028 154.122 
154.759 155.986 156.785 158.029 158.837 159.892 160.555 161.403 161.953 
162.716 163.215 163.917 149.423 148.148 148.876 149.104 146.826 147.524 
147.619 148.472 148.782 145.547 146.199 146.21 146.932 147.093 148.09 
148.502 144.304 144.99 145.097 145.665 145.751 146.457 146.745 147.793 
148.263 142.902 143.72 143.978 144.668 144.855 145.37 145.561 146.23 
146.631 147.616 148.141 141.501 142.251 142.494 143.401 143.709 144.473 
144.704 145.277 145.57 146.254 146.762 147.663 148.263 140.651 141.036 
141.159 141.866 142.16 143.095 143.46 144.304 144.645 145.337 145.768 
146.508 147.081 147.935 148.53 140.395 140.51 140.577 140.842 141.046 
141.656 142.091 142.958 143.486 144.328 144.828 145.576 146.082 146.847 
147.378 148.207 148.717 140.214 140.36 140.433 140.536 140.679 140.925 
141.306 141.86 142.468 143.226 143.857 144.617 145.157 145.875 146.356 
147.095 147.563 148.356 148.813 140.022 139.792 140.068 140.332 139.725 
139.902 140.277 140.433 140.677 140.038 139.988 140.386 140.499 140.923 
140.945 141.327 140.695 140.456 140.796 140.775 141.299 141.334 141.868 
141.839 142.425 141.544 141.211 141.513 141.336 141.843 141.828 142.439 
142.446 143.068 143.076 143.749 142.518 142.135 142.43 142.141 142.586 
142.465 143.068 143.058 143.708 143.712 144.352 144.382 145.03 143.555 
143.16 143.433 143.086 143.461 143.251 143.809 143.747 144.421 144.392 
145.042 144.998 145.604 145.606 146.214 144.527 144.176 144.431 144.082 
144.414 144.141 144.643 144.522 145.193 145.154 145.835 145.752 146.346 
146.242 146.812 146.782 147.392 145.37 145.079 145.342 145.045 145.389 
145.107 145.576 145.386 146.001 145.929 146.606 146.55 147.163 147.042 
147.593 147.466 148.04 147.996 148.624 145.889 146.77 146.172 145.917 
147.919 147.188 146.973 146.3 146.069 149.382 148.51 148.331 147.525 
147.342 146.56 146.348 151.053 150.104 149.916 149.015 148.833 147.966 
147.763 146.928 146.771 152.766 151.81 151.596 150.651 150.439 149.522 
149.301 148.41 148.223 147.419 147.325 154.5 153.537 153.347 152.362 
152.165 151.186 150.983 150.015 149.818 148.918 148.778 147.989 147.883 
156.261 155.316 155.187 154.181 154.03 152.999 152.83 151.792 151.604 
150.598 150.423 149.504 149.344 148.512 148.342 157.922 157.07 156.975 
156.038 155.901 154.9 154.721 153.682 153.466 152.426 152.2 151.203 
150.987 150.048 149.838 148.965 148.789 159.385 158.645 158.55 157.734 
157.583 156.688 156.482 155.516 155.263 154.252 153.976 152.964 152.699 
151.719 151.48 150.538 150.341 149.465 149.344 149.986 150.996 150.762 
151.373 152.146 151.86 152.5 152.247 152.903 153.399 153.085 153.77 
153.471 154.189 153.874 154.575 154.717 154.406 155.156 154.835 155.612 
155.266 156.041 155.665 156.439 156.023 155.753 156.545 156.26 157.072 
156.746 157.542 157.183 157.977 157.61 158.401 157.237 157.031 157.827 
157.611 158.424 158.169 158.956 158.655 159.427 159.108 159.86 159.52 
160.203 158.335 158.195 159.004 158.842 159.669 159.468 160.264 160.007 
160.77 160.491 161.221 160.908 161.548 161.183 161.721 159.302 159.237 
160.073 159.979 160.843 160.695 161.522 161.292 162.047 161.782 162.489 
162.207 162.831 162.486 163.002 162.602 163.047 160.131 160.142 160.99 
160.986 161.864 161.816 162.649 162.503 163.223 162.997 163.633 163.391 
163.97 163.693 164.186 163.841 164.261 163.868 164.239 143.164 142.915 
142.658 141.977 142.981 142.563 141.821 141.492 140.854 143.193 142.748 
142.039 141.531 140.788 140.44 139.956 143.409 142.988 142.36 141.856 
141.119 140.56 139.926 139.671 139.443 143.68 143.228 142.639 142.191 
141.566 140.997 140.337 139.825 139.425 139.298 139.262 144.029 143.544 
142.938 142.484 141.935 141.465 140.926 140.366 139.877 139.448 139.195 
139.135 139.121 144.418 143.932 143.336 142.826 142.267 141.83 141.374 
140.94 140.494 139.991 139.572 139.205 138.998 138.973 139.015 144.834 
144.369 143.846 143.299 142.748 142.225 141.757 141.342 140.942 140.527 
140.099 139.646 139.319 139.037 139.015 139.018 139.237 145.254 144.828 
144.392 143.875 143.388 142.808 142.333 141.804 141.398 140.95 140.579 
140.143 139.839 139.468 139.404 139.232 139.445 139.447 139.749 143.235 
142.031 142.782 143.143 140.905 141.598 142.016 142.809 143.286 140.054 
140.59 141.04 141.773 142.356 143.074 143.56 139.601 139.926 140.315 
140.893 141.468 142.196 142.76 143.405 143.849 139.458 139.653 139.932 
140.269 140.672 141.293 141.855 142.594 143.128 143.739 144.21 139.346 
139.558 139.824 140.004 140.273 140.603 141.086 141.717 142.376 143.049 
143.643 144.193 144.738 139.247 139.431 139.757 139.939 140.255 140.408 
140.846 141.193 141.881 142.433 143.159 143.696 144.3 144.792 145.349 
139.414 139.426 139.733 139.881 140.247 140.438 140.885 141.139 141.741 
142.136 142.827 143.298 143.924 144.389 144.935 145.402 145.907 139.829 
139.704 139.891 139.909 140.188 140.379 140.793 141.108 141.634 142.013 
142.589 143.01 143.581 144.025 144.564 145.009 145.508 145.939 146.388 
143.98 143.93 144.315 145.066 144.021 144.332 145.087 145.436 146.166 
144.203 144.452 145.208 145.532 146.328 146.612 147.376 144.446 144.645 
145.399 145.712 146.594 146.885 147.74 147.945 148.732 144.803 144.928 
145.671 145.943 146.821 147.158 148.029 148.32 149.124 149.33 150.061 
145.327 145.374 146.099 146.27 147.063 147.342 148.104 148.454 149.19 
149.569 150.308 150.594 151.293 145.919 145.952 146.644 146.744 147.454 
147.603 148.258 148.481 149.145 149.503 150.255 150.681 151.458 151.784 
152.51 146.432 146.497 147.127 147.241 147.883 147.997 148.606 148.719 
149.369 149.572 150.347 150.672 151.51 151.87 152.659 152.972 153.696 
146.852 146.928 147.488 147.621 148.207 148.355 148.945 149.082 149.732 
149.905 150.677 150.916 151.751 152.021 152.815 153.093 153.82 154.11 
154.798 149.344 148.849 148.784 148.136 148.328 148.268 147.62 147.552 
146.867 147.799 147.715 147.008 146.972 146.266 146.228 145.536 147.305 
147.178 146.418 146.332 145.588 145.557 144.83 144.846 144.171 146.906 
146.728 145.994 145.812 145.073 144.935 144.202 144.127 143.391 143.419 
142.733 146.659 146.425 145.746 145.494 144.785 144.545 143.821 143.615 
142.861 142.712 141.989 141.982 141.401 146.544 146.276 145.63 145.334 
144.642 144.344 143.633 143.349 142.613 142.332 141.619 141.426 140.897 
140.879 140.595 146.504 146.224 145.613 145.288 144.628 144.277 143.612 
143.265 142.609 142.241 141.596 141.256 140.752 140.587 140.346 140.371 
140.313 146.52 146.23 145.667 145.33 144.727 144.349 143.742 143.355 
142.774 142.374 141.811 141.4 140.908 140.6 140.295 140.205 140.081 
140.163 140.099 
POINT_DATA 1002
SCALARS Distance double
LOOKUP_TABLE default
146.418 145.645 146.231 147.128 146.985 147.399 148.006 147.838 148.226 
148.688 148.859 148.681 149.127 149.611 150.29 149.63 149.507 149.911 
150.503 151.312 152.018 150.49 150.356 150.776 151.377 152.297 153.156 
153.722 151.498 151.262 151.928 152.534 153.395 154.316 154.987 155.448 
152.601 152.258 153.188 153.885 154.679 155.549 156.277 156.781 157.167 
153.743 153.272 154.41 155.16 155.925 156.741 157.507 158.074 158.459 
158.728 154.818 154.206 155.547 156.326 157.083 157.848 158.615 159.256 
159.691 159.955 160.094 145.258 145.885 144.877 145.561 144.516 146.651 
145.281 144.155 146.361 147.528 145.013 143.825 146.184 147.3 148.477 
144.786 143.603 146.092 147.232 148.357 149.453 144.618 143.42 146.017 
147.268 148.36 149.483 150.426 144.458 143.261 145.883 147.276 148.429 
149.566 150.613 151.402 144.412 143.323 145.742 147.202 148.491 149.626 
150.717 151.588 152.338 144.606 143.682 145.744 147.133 148.534 149.687 
150.663 151.537 152.318 153.173 144.726 145.663 145.788 146.765 146.875 
146.896 147.911 148.128 148.127 148.405 149.09 149.487 149.227 149.62 
149.753 150.251 150.776 150.043 150.372 150.652 150.668 151.537 152.022 
150.949 150.865 151.124 151.279 151.409 153.053 153.263 152.465 151.977 
151.904 151.966 152.053 152.233 154.557 154.419 154.377 153.94 153.585 
153.375 153.21 153.172 153.223 155.826 155.472 156.08 156.044 155.748 
155.368 154.992 154.681 154.498 154.375 155.594 155.884 157.278 156.213 
157.774 159.215 156.602 158.287 159.908 161.319 157.043 158.725 160.476 
162.092 163.412 157.519 159.167 160.871 162.637 164.158 165.314 157.846 
159.573 161.251 163.015 164.687 165.984 166.891 157.774 159.565 161.362 
163.184 164.951 166.421 167.447 168.137 157.338 159.062 160.926 162.851 
164.725 166.387 167.679 168.585 169.216 156.824 158.423 160.231 162.158 
164.058 165.81 167.338 168.584 169.536 170.202 156.422 158.25 157.31 
160.294 159.277 158.197 162.468 161.432 160.302 159.04 164.568 163.61 
162.502 161.201 159.832 166.377 165.615 164.578 163.322 161.918 160.523 
167.772 167.235 166.384 165.223 163.885 162.451 161.023 168.906 168.434 
167.759 166.781 165.57 164.217 162.757 161.298 169.982 169.468 168.779 
167.92 166.862 165.648 164.295 162.838 161.401 171.036 170.665 171.529 
170.947 171.382 169.884 170.653 170.723 169.917 168.924 169.978 169.893 
169.527 168.757 167.868 169.116 168.918 168.829 168.26 167.54 166.684 
168.05 167.777 167.898 167.473 166.934 166.256 165.38 166.883 166.671 
166.823 166.519 166.127 165.637 164.914 163.944 165.764 165.646 165.732 
165.525 165.212 164.85 164.29 163.436 162.422 164.663 164.588 164.646 
164.511 164.235 163.893 163.452 162.765 161.877 160.965 170.601 171.342 
170.415 170.805 169.595 171.497 169.593 168.43 170.531 170.965 168.238 
167.121 169.152 169.838 170.138 166.909 165.753 167.888 168.59 169.063 
169.22 165.571 164.492 166.623 167.414 167.863 168.095 168.11 164.281 
163.304 165.232 166.068 166.61 166.862 167.006 166.999 162.965 162.021 
163.816 164.575 165.21 165.628 165.892 166.083 166.036 161.58 160.695 
162.397 163.108 163.751 164.305 164.714 165.025 165.187 165.035 155.958 
157.474 156.61 158.309 157.33 159.265 159.126 158.003 160.258 161.246 
159.827 158.697 161.135 162.334 163.252 160.547 159.401 161.847 163.242 
164.325 165.109 161.221 159.943 162.484 163.885 165.183 166.079 166.784 
161.666 160.301 162.945 164.263 165.675 166.838 167.673 168.304 161.909 
160.547 163.193 164.424 165.8 167.178 168.306 169.162 169.615 154.506 
154.989 153.551 154.028 152.572 155.59 153.007 151.514 154.519 156.214 
151.871 150.452 153.382 155.063 156.896 150.751 149.548 152.221 153.906 
155.761 157.621 149.793 148.787 151.137 152.768 154.576 156.419 158.211 
148.968 148.06 150.167 151.661 153.355 155.158 156.928 158.642 148.232 
147.377 149.315 150.648 152.164 153.898 155.72 157.41 159.006 147.598 