# vtk DataFile Version 4.0
vtk output
ASCII
DATASET POLYDATA
POINTS 1002 float
-76.8144 -108.559 61.1838 -77.1165 -107.329 60.7176 -77.6552 -107.68 60.7836 
-77.3561 -109.075 61.2673 -78.1621 -108.124 60.9359 -76.6056 -109.819 61.8981 
-77.8932 -109.593 61.5509 -78.6546 -108.646 61.1477 -77.1601 -110.42 62.1098 
-76.5165 -111.1 62.8928 -78.3416 -110.2 61.8771 -79.1134 -109.363 61.2781 
-77.7326 -111.017 62.5376 -77.0355 -111.912 63.1291 -76.4178 -113.025 63.6624 
-78.5984 -111.162 61.965 -79.4575 -110.343 61.3497 -78.1294 -111.861 62.8446 
-77.5853 -112.856 63.4261 -76.8643 -114.219 63.7637 -76.3384 -115.593 64.155 
-78.731 -112.353 61.9699 -79.6046 -111.428 61.4676 -78.2657 -113.131 62.8487 
-77.9686 -114.104 63.5395 -77.3914 -115.499 63.924 -76.807 -116.856 64.3724 
-76.5249 -117.77 65.0261 -78.9374 -113.438 62.1322 -79.5937 -112.512 61.542 
-78.4717 -114.445 62.9256 -78.2524 -115.523 63.6088 -77.9256 -116.784 64.1593 
-77.4379 -117.984 64.7984 -77.1126 -118.783 65.5505 -76.9577 -119.265 66.3029 
-79.311 -114.44 62.408 -79.6592 -113.57 61.644 -79.022 -115.544 63.2588 
-78.8065 -116.738 63.9451 -78.5752 -117.889 64.5988 -78.2486 -118.898 65.414 
-77.9212 -119.646 66.2162 -77.6578 -120.173 66.8837 -77.4042 -120.623 67.4697 
-79.8488 -115.409 62.8569 -80.0061 -114.507 62.0483 -79.7598 -116.528 63.7438 
-79.6292 -117.707 64.4956 -79.411 -118.753 65.2201 -79.1659 -119.623 66.1149 
-78.9157 -120.352 66.9493 -78.6016 -120.967 67.5192 -78.221 -121.495 67.986 
-77.8487 -121.929 68.4581 -80.5005 -116.275 63.5236 -80.5727 -115.335 62.7482 
-80.4925 -117.394 64.3447 -80.439 -118.52 65.1137 -80.2665 -119.469 65.8877 
-80.0581 -120.253 66.7844 -79.8752 -120.971 67.6352 -79.6188 -121.635 68.2078 
-79.2257 -122.206 68.6108 -78.7772 -122.657 69.0232 -78.3778 -122.966 69.4306 
-77.7858 -106.481 60.2121 -78.3558 -106.749 60.355 -78.4576 -105.868 59.4706 
-79.127 -106.165 59.6392 -79.1927 -105.368 58.637 -78.926 -107.179 60.5279 
-80.0093 -105.838 58.7573 -80.0252 -104.738 58.0231 -79.8691 -106.634 59.838 
-79.5751 -107.707 60.724 -80.8657 -105.383 58.05 -80.8327 -104.123 57.5481 
-80.8093 -106.36 58.9756 -80.6894 -107.014 60.2358 -80.2304 -108.362 60.9912 
-81.6949 -104.764 57.5327 -81.6829 -103.724 56.9262 -81.55 -105.985 58.2445 
-81.5785 -106.618 59.6062 -81.4085 -107.455 60.8989 -80.6321 -109.305 61.3099 
-82.745 -104.16 57.044 -82.6417 -103.377 56.2323 -82.4377 -105.452 57.7937 
-82.3231 -106.408 58.9426 -82.3154 -107.021 60.4939 -81.7109 -108.438 61.3864 
-80.5629 -110.566 61.3937 -83.7065 -103.712 56.5231 -83.307 -103.109 55.6379 
-83.5493 -104.917 57.4691 -83.3298 -106.167 58.5309 -83.2771 -106.928 59.8614 
-82.7015 -108.007 61.0176 -81.4352 -109.927 61.2927 -80.2317 -111.927 61.1931 
-84.0196 -103.669 55.937 -83.3906 -103.229 55.1321 -84.2273 -104.643 56.9373 
-84.1945 -105.892 58.1621 -84.2463 -106.808 59.4492 -83.8171 -107.719 60.5533 
-82.4697 -109.377 61.0345 -80.9735 -111.393 60.968 -80.137 -113.083 61.1777 
-83.813 -104.122 55.3513 -83.1546 -103.785 54.6949 -84.2772 -104.844 56.1743 
-84.4748 -105.888 57.4236 -84.695 -106.806 58.9508 -84.6405 -107.584 60.2509 
-83.6028 -108.873 60.8781 -81.9792 -110.744 60.8871 -80.82 -112.537 60.9559 
-80.4489 -113.995 61.6289 -83.3272 -104.779 54.7037 -83.9978 -105.292 55.2836 
-83.6951 -105.97 54.7778 -84.3481 -106.656 55.4023 -84.0594 -107.161 55.1166 
-84.4205 -106.14 56.2306 -84.5099 -107.899 55.9519 -83.8875 -108.209 55.7443 
-84.659 -107.567 56.5909 -84.6864 -107.096 57.831 -84.0178 -108.773 56.7494 
-83.206 -109.191 56.4457 -84.6263 -108.749 57.2811 -84.838 -108.49 58.379 
-84.897 -107.897 59.6039 -83.2138 -109.718 57.3802 -82.6707 -110.639 57.0771 
-83.9739 -109.5 57.8584 -84.511 -109.667 58.7111 -84.618 -109.389 59.8699 
-84.3307 -108.898 60.6536 -82.734 -111.677 57.883 -82.4623 -112.822 57.738 
-83.099 -110.779 58.2251 -83.513 -110.633 58.7598 -83.6574 -110.769 59.5839 
-83.4174 -110.603 60.4152 -82.8129 -110.494 60.8147 -82.4911 -114.337 58.6989 
-82.2101 -115.029 58.6549 -82.5823 -113.348 58.9223 -82.5982 -112.512 59.2534 
-82.524 -112.234 59.6692 -82.331 -112.255 60.1927 -82.0051 -112.235 60.6715 
-81.4662 -112.315 60.8985 -82.1622 -116.428 59.9991 -81.8084 -116.578 59.9024 
-82.3718 -116.043 60.194 -82.426 -115.289 60.4804 -82.2706 -114.48 60.7753 
-81.9506 -114.117 60.9864 -81.6673 -114.057 61.2128 -81.397 -113.973 61.469 
-80.9672 -113.932 61.5997 -81.8304 -117.653 61.4751 -81.4757 -117.621 61.2673 
-82.2213 -117.743 61.6667 -82.6376 -117.569 61.867 -82.8602 -116.909 62.139 
-82.6374 -116.236 62.3479 -82.1499 -115.989 62.4228 -81.7647 -115.856 62.5447 
-81.4542 -115.591 62.7168 -81.0413 -115.382 62.7774 -81.2023 -116.822 64.0253 
-81.6562 -117.059 64.0505 -81.9557 -118.497 65.2491 -82.037 -117.448 63.9076 
-82.3986 -118.822 65.221 -82.8264 -119.977 66.476 -82.4982 -117.695 63.6985 
-82.824 -119.1 65.0166 -83.323 -120.128 66.5488 -83.7433 -121.027 68.025 
-83.177 -117.784 63.5466 -83.4379 -119.153 64.7008 -83.7921 -120.195 66.3837 
-84.2982 -121.038 68.2515 -84.4337 -122.017 69.6291 -83.6327 -118.208 63.3468 
-84.0511 -119.354 64.3308 -84.2429 -120.407 65.9117 -84.708 -121.325 67.9978 
-84.9919 -122.301 69.6429 -84.8967 -123.424 70.7568 -83.3712 -118.84 63.1298 
-84.0511 -119.938 64.0467 -84.3553 -120.995 65.402 -84.7857 -121.999 67.3973 
-85.2622 -123.004 69.137 -85.3979 -124.084 70.4111 -85.5127 -125.024 71.6482 
-82.6642 -118.998 63.0548 -83.4006 -120.285 64.0342 -83.9629 -121.535 65.1861 
-84.4504 -122.63 66.9399 -85.0422 -123.675 68.601 -85.4331 -124.78 69.8848 
-85.7615 -125.712 71.2711 -86.2874 -126.248 72.6797 -82.0244 -118.762 62.9812 
-82.6324 -120.119 64.133 -83.3472 -121.582 65.1784 -83.9256 -122.817 66.6614 
-84.512 -123.891 68.2341 -85.0335 -125.065 69.4804 -85.4505 -126.127 70.8505 
-86.0543 -126.748 72.4146 -86.7749 -126.993 73.6373 -81.5765 -118.626 62.7456 
-82.0261 -119.898 64.0391 -82.7261 -121.372 65.0956 -83.3614 -122.699 66.3413 
-83.9072 -123.808 67.7959 -84.4699 -124.997 69.0478 -84.949 -126.194 70.3107 
-85.4302 -126.996 71.8819 -86.0925 -127.356 73.3295 -86.7525 -127.535 74.2391 
-81.2303 -117.911 64.8311 -82.0604 -119.544 66.0965 -81.2288 -119.061 65.6293 
-82.974 -120.899 67.5018 -82.0452 -120.56 67.0084 -81.1203 -120.053 66.4789 
-83.7746 -122.007 69.1335 -82.9582 -121.88 68.5299 -81.9639 -121.458 67.9977 
-80.9597 -120.868 67.418 -84.2803 -123.203 70.6491 -83.6811 -123.123 70.0933 
-82.9172 -122.851 69.4627 -81.8652 -122.311 68.8995 -80.8027 -121.642 68.3006 
-84.8981 -124.589 71.9216 -84.181 -124.33 71.6672 -83.5522 -124.128 70.9619 
-82.699 -123.739 70.2324 -81.5887 -123.112 69.6196 -80.5524 -122.372 68.9539 
-85.9483 -125.806 73.0623 -85.0117 -125.398 73.1412 -84.0246 -125.156 72.639 
-83.1891 -124.924 71.7449 -82.2019 -124.444 70.9489 -81.1329 -123.73 70.2517 
-80.1592 -122.961 69.439 -86.9099 -126.643 73.9651 -86.15 -126.211 74.1958 
-84.843 -125.905 74.0872 -83.7033 -125.778 73.3643 -82.7346 -125.525 72.3831 
-81.6841 -124.924 71.5764 -80.6605 -124.149 70.7853 -79.6975 -123.397 69.8732 
-87.2161 -127.295 74.5476 -86.8857 -126.894 74.8143 -85.7317 -126.483 75.0165 
-84.4208 -126.303 74.7045 -83.337 -126.254 73.7524 -82.2613 -125.934 72.7306 
-81.1722 -125.247 71.935 -80.185 -124.446 71.1316 -79.2446 -123.695 70.2446 
-86.7415 -128.047 74.7938 -86.9576 -127.779 75.1685 -86.2687 -128.691 75.3188 
-86.0851 -128.281 75.9262 -85.3089 -129.184 75.8192 -86.3138 -127.246 75.5984 
-84.7523 -128.571 76.4623 -83.8988 -129.387 75.8902 -85.2251 -127.511 76.4575 
-85.0934 -126.747 75.7768 -83.135 -128.735 76.2441 -82.2137 -129.472 75.5804 
-83.8055 -127.671 76.7428 -84.0659 -126.917 76.3148 -83.8685 -126.61 75.103 
-81.3546 -128.886 75.7989 -80.4731 -129.449 75.4243 -82.1613 -127.871 76.3071 
-82.6226 -127.05 76.2702 -82.767 -126.788 75.2079 -82.6458 -126.567 73.8395 
-79.4937 -128.859 75.7501 -78.8247 -129.307 75.3891 -80.3432 -127.974 75.9682 
-80.9823 -127.104 75.9759 -81.2275 -126.783 75.199 -81.369 -126.671 73.859 
-81.3984 -126.138 72.772 -77.8682 -128.711 75.7233 -77.5367 -129.177 75.1228 
-78.533 -127.894 75.8895 -79.3688 -126.994 75.7741 -79.8482 -126.544 75.2246 
-80.0379 -126.47 74.0626 -80.2639 -126.12 72.847 -80.3535 -125.33 71.9736 
-76.8494 -128.521 75.2956 -76.7444 -128.933 74.5605 -77.1985 -127.806 75.5656 
-77.9531 -126.942 75.4074 -78.7165 -126.324 74.9851 -79.1003 -126.086 74.1766 
-79.313 -125.811 73.0392 -79.4784 -125.201 72.0108 -79.4391 -124.437 71.1499 
-76.2713 -128.139 74.4955 -76.1836 -128.42 73.7758 -76.4608 -127.618 74.8511 
-76.9535 -126.939 74.7545 -77.6685 -126.31 74.3884 -78.2344 -125.848 73.8609 
-78.532 -125.41 73.0557 -78.6891 -124.843 72.0752 -78.6906 -124.221 71.1541 
-78.5401 -123.615 70.2879 -86.0279 -127.934 74.0709 -85.8962 -128.541 74.551 
-85.2007 -128.244 73.4722 -84.9426 -128.832 73.8696 -84.366 -128.37 72.6356 
-85.4146 -129.191 74.9508 -83.9156 -128.893 72.9581 -83.3755 -128.25 71.9127 
-84.381 -129.331 74.1382 -84.4303 -129.571 75.2114 -82.7625 -128.763 72.1053 
-82.3439 -127.948 71.1951 -83.1643 -129.289 73.0828 -83.2858 -129.586 74.2731 
-82.9151 -129.693 75.1789 -81.7127 -128.424 71.2401 -81.5416 -127.581 70.1797 
-81.9061 -129.173 72.0284 -81.989 -129.596 73.0589 -81.7409 -129.728 74.2734 
-81.187 -129.691 75.0492 -80.8816 -127.922 70.2098 -80.8659 -127.198 68.9828 
-80.868 -128.786 71.074 -80.8213 -129.572 71.75 -80.5621 -129.846 72.849 
-80.0957 -129.719 74.0644 -79.517 -129.556 74.8697 -80.098 -127.397 69.0337 
-80.139 -126.747 67.8432 -80.0143 -128.12 70.1382 -79.9187 -129.083 70.7403 
-79.5893 -129.797 71.3306 -79.036 -129.847 72.4169 -78.5323 -129.629 73.586 
-78.069 -129.468 74.4843 -79.3285 -126.84 67.8296 -79.4299 -126.169 66.8335 
-79.2045 -127.408 69.0213 -79.1319 -128.177 69.9134 -78.8546 -129.113 70.3794 
-78.2278 -129.682 71.0113 -77.6319 -129.74 72.0286 -77.316 -129.608 73.0803 
-77.0681 -129.371 73.9597 -78.6598 -126.167 66.7647 -78.8208 -125.483 65.9713 
-78.4644 -126.724 67.7831 -78.352 -127.284 68.8356 -78.1764 -128.045 69.6016 
[...]
CELL_DATA 2000
SCALARS Distance double
LOOKUP_TABLE default
144.948 145.593 145.497 145.997 146.32 146.213 146.767 146.647 147.231 
147.115 146.993 147.61 147.49 148.137 147.997 148.737 147.998 147.838 
148.5 148.392 149.136 149 149.82 149.697 150.646 148.939 148.764 
149.454 149.348 150.19 150.084 151.017 150.889 151.895 151.774 152.791 
149.855 149.722 150.476 150.382 151.318 151.231 152.27 152.162 153.224 
153.085 154.096 153.922 154.829 150.774 150.681 151.573 151.501 152.554 
152.465 153.579 153.471 154.572 154.433 155.443 155.245 156.128 155.885 
156.671 151.808 151.72 152.763 152.709 153.869 153.786 154.93 154.811 
155.9 155.768 156.775 156.588 157.466 157.204 157.971 157.681 158.381 
152.978 152.886 154.005 153.971 155.161 155.113 156.234 156.132 157.163 
157.049 158.023 157.88 158.758 158.53 159.285 158.988 159.658 159.342 
159.947 144.474 144.02 144.502 145.072 143.685 144.106 144.656 145.14 
145.768 143.462 143.863 144.458 144.83 145.436 145.89 146.562 143.27 
143.695 144.362 144.723 145.335 145.676 146.32 146.753 147.464 143.126 
143.523 144.2 144.614 145.254 145.613 146.25 146.616 147.311 147.726 
148.433 143.105 143.43 144.103 144.477 145.179 145.542 146.238 146.587 
147.295 147.653 148.325 148.691 149.329 143.109 143.436 144.14 144.482 
145.272 145.595 146.383 146.663 147.4 147.682 148.334 148.62 149.183 
149.526 150.145 143.051 143.406 144.119 144.526 145.356 145.759 146.607 
146.909 147.645 147.856 148.456 148.653 149.158 149.402 149.935 150.333 
151.051 143.056 143.354 144.046 144.454 145.266 145.759 146.631 147.075 
147.843 148.111 148.679 148.813 149.253 149.401 149.87 150.158 150.8 
151.294 152.144 143.362 144.312 143.962 144.347 145.493 145.05 145.414 
145.061 145.571 146.597 146.265 146.663 146.256 146.737 146.404 146.97 
147.319 147.188 147.654 147.462 147.978 147.66 148.177 147.819 148.248 
148.018 147.77 148.17 148.185 148.748 148.732 149.223 148.984 149.289 
148.909 149.072 149.401 148.726 148.987 148.679 149.136 149.19 149.665 
149.713 149.962 149.775 149.835 149.512 149.559 151.332 150.493 150.797 
149.965 150.324 149.803 150.244 150.052 150.423 150.284 150.487 150.225 
150.356 150.014 150.176 153.063 152.468 152.949 152.116 152.572 151.612 
152.079 151.233 151.742 151.125 151.627 151.129 151.557 151.048 151.407 
150.88 151.214 154.364 154.02 154.615 154.139 154.754 154.02 154.579 
153.599 154.12 153.11 153.683 152.818 153.426 152.663 153.209 152.463 
152.927 152.206 152.642 153.803 154.158 154.599 155.873 154.516 155.001 
156.312 156.743 158.007 154.812 155.356 156.685 157.156 158.41 158.83 
159.999 155.155 155.676 156.997 157.463 158.677 159.153 160.338 160.764 
161.856 155.631 156.093 157.385 157.769 158.929 159.372 160.586 161.077 
162.262 162.616 163.665 155.983 156.514 157.735 158.143 159.241 159.644 
160.848 161.348 162.617 163.041 164.184 164.454 165.504 155.922 156.593 
157.695 158.305 159.358 159.886 161.02 161.579 162.806 163.343 164.494 
164.91 165.97 166.293 167.306 155.569 156.262 157.259 158.021 159.073 
159.8 160.881 161.573 162.674 163.347 164.408 165.017 166.014 166.55 
167.504 167.936 168.764 155.212 155.822 156.762 157.506 158.568 159.372 
160.445 161.226 162.238 162.994 163.963 164.703 165.643 166.345 167.233 
167.855 168.623 169.1 169.676 154.034 156.119 155.076 155.14 158.25 
157.232 157.3 156.252 156.307 160.264 159.337 159.422 158.404 158.424 
157.376 157.351 162.131 161.304 161.453 160.498 160.536 159.479 159.43 
158.349 158.263 163.909 163.135 163.348 162.493 162.604 161.601 161.577 
160.461 160.355 159.237 159.112 165.759 164.954 165.188 164.356 164.508 
163.611 163.619 162.588 162.453 161.335 161.139 160.034 159.822 167.616 
166.86 167.082 166.216 166.313 165.437 165.43 164.509 164.36 163.336 
163.076 161.996 161.696 160.627 160.317 169.106 168.588 168.775 168.025 
168.012 167.167 167.075 166.214 166.054 165.123 164.849 163.827 163.475 
162.423 162.049 161.013 160.65 170.027 169.793 169.957 169.457 169.372 
168.676 168.483 167.728 167.515 166.703 166.412 165.49 165.099 164.106 
163.676 162.671 162.248 161.264 160.877 170.45 170.979 170.68 170.422 
171.262 171.092 170.782 170.41 169.861 171.059 171.148 170.812 170.615 
170.048 169.665 168.983 170.337 170.654 170.336 170.405 169.859 169.699 
169.049 168.717 168.005 169.421 169.788 169.485 169.716 169.216 169.29 
168.671 168.591 167.905 167.651 166.87 168.508 168.86 168.547 168.805 
168.324 168.503 167.914 168.009 167.352 167.328 166.585 166.38 165.531 
167.644 167.959 167.629 167.866 167.378 167.579 167.028 167.185 166.589 
166.663 165.994 165.941 165.163 164.958 164.096 166.836 167.125 166.79 
166.978 166.495 166.658 166.154 166.324 165.813 165.922 165.328 165.326 
164.615 164.505 163.7 163.496 162.653 165.93 166.284 165.947 166.164 
165.695 165.837 165.353 165.506 165.042 165.179 164.631 164.671 163.982 
163.927 163.149 163.032 162.23 162.054 161.262 170.339 170.091 170.491 
170.901 169.534 170.106 170.592 170.987 171.235 168.726 169.41 169.87 
170.479 170.775 171.135 171.072 167.739 168.486 168.881 169.58 169.841 
170.427 170.43 170.716 170.386 166.645 167.416 167.775 168.492 168.714 
169.364 169.417 169.898 169.701 169.903 169.488 165.495 166.262 166.587 
167.328 167.55 168.218 168.292 168.84 168.715 169.095 168.787 168.977 
168.559 164.305 165.055 165.314 166.08 166.298 167.026 167.118 167.715 
167.598 168.05 167.782 168.14 167.821 168.05 167.684 163.078 163.805 
163.987 164.747 164.916 165.701 165.806 166.495 166.421 166.927 166.706 
167.109 166.877 167.232 166.994 167.218 166.889 161.857 162.542 162.66 
163.378 163.476 164.254 164.336 165.103 165.09 165.72 165.586 166.066 
165.893 166.301 166.114 166.453 166.178 166.39 165.983 155.328 156.109 
156.086 156.911 157.001 156.982 157.876 157.828 158.741 157.872 157.893 
158.824 158.826 159.758 159.721 160.62 158.741 158.766 159.695 159.732 
160.672 160.696 161.603 161.565 162.401 159.556 159.63 160.556 160.597 
161.539 161.578 162.529 162.53 163.428 163.338 164.144 160.211 160.377 
161.318 161.424 162.347 162.422 163.381 163.448 164.421 164.4 165.288 
165.123 165.882 160.768 160.975 161.936 162.113 163.031 163.16 164.074 
164.22 165.188 165.321 166.25 166.238 167.024 166.834 167.483 161.244 
161.49 162.427 162.666 163.579 163.767 164.647 164.826 165.734 165.95 
166.853 167.02 167.8 167.817 168.448 168.305 168.822 161.529 161.852 
162.716 163.045 163.907 164.202 165.041 165.298 166.136 166.393 167.224 
167.468 168.222 168.387 169.013 169.058 169.563 169.47 169.846 154.535 
153.482 154.401 155.217 152.283 153.27 154.095 155.121 156.033 151.099 
152.048 152.876 153.936 154.877 155.948 156.895 150.105 150.943 151.752 
152.736 153.685 154.767 155.774 156.831 157.784 149.233 150.021 150.796 
151.687 152.586 153.6 154.6 155.692 156.687 157.721 158.604 148.383 
149.148 149.891 150.75 151.585 152.528 153.454 154.512 155.494 156.577 
157.483 158.477 159.263 147.628 148.313 149.014 149.828 150.621 151.518 
152.381 153.374 154.321 155.383 156.321 157.338 158.17 159.101 159.842 
147.002 147.6 148.235 148.965 149.705 150.548 151.366 152.302 153.201 
154.227 155.171 156.202 157.079 158.03 158.801 159.682 160.363 146.428 
146.981 147.543 148.199 148.867 149.644 150.406 151.285 152.12 153.1 
153.991 155.036 155.908 156.92 157.69 158.621 159.284 160.144 160.702 
146.268 146.392 146.667 147.389 146.627 146.863 147.646 147.898 148.72 
146.995 147.192 148.029 148.248 149.14 149.36 150.269 147.463 147.634 
148.519 148.718 149.661 149.864 150.831 151.016 151.987 148.023 148.16 
149.067 149.255 150.234 150.441 151.446 151.633 152.651 152.82 153.844 
148.642 148.763 149.67 149.837 150.828 151.038 152.073 152.275 153.312 
153.502 154.552 154.726 155.745 149.268 149.394 150.314 150.469 151.46 
151.653 152.696 152.906 153.952 154.156 155.195 155.402 156.427 156.596 
157.529 149.91 150.028 150.964 151.124 152.118 152.3 153.326 153.53 
154.572 154.784 155.811 156.019 157.017 157.218 158.156 158.299 159.122 
150.574 150.679 151.596 151.764 152.745 152.94 153.94 154.144 155.159 
155.383 156.399 156.615 157.585 157.779 158.682 158.859 159.681 159.803 
160.522 151.229 152.597 152.02 152.283 154.137 153.495 153.81 153.175 
153.47 155.912 155.176 155.533 154.809 155.125 154.42 154.696 157.798 
157.04 157.386 156.615 156.919 156.153 156.433 155.68 155.938 159.523 
158.855 159.153 158.442 158.722 157.97 158.247 157.477 157.748 156.963 
157.199 161.067 160.477 160.821 160.165 160.502 159.77 160.074 159.303 
159.578 158.793 159.019 158.21 158.379 162.602 162.049 162.537 161.899 
162.362 161.621 161.98 161.164 161.424 160.609 160.802 159.996 160.131 
159.322 159.431 164.082 163.628 164.178 163.64 164.119 163.479 163.823 
163.066 163.278 162.452 162.587 161.752 161.844 161.029 161.102 160.314 
160.388 165.293 165.006 165.484 165.11 165.465 165.012 165.253 164.705 
164.864 164.195 164.288 163.505 163.54 162.714 162.732 161.936 161.962 
161.202 161.215 150.865 150.716 151.262 152.203 150.492 151.119 152.126 
152.664 153.7 150.26 150.932 152.058 152.626 153.724 154.26 155.432 
150.107 150.785 152.039 152.64 153.819 154.335 155.562 156.124 157.362 
149.941 150.648 151.952 152.665 153.928 154.481 155.738 156.303 157.615 
158.112 159.216 149.729 150.404 151.649 152.49 153.823 154.548 155.847 
156.484 157.824 158.39 159.562 159.891 160.788 149.681 150.193 151.339 
152.12 153.482 154.343 155.72 156.499 157.833 158.522 159.707 160.181 
161.096 161.375 162.207 149.856 150.233 151.296 151.889 153.202 154.013 
155.423 156.269 157.571 158.357 159.482 160.143 161.063 161.543 162.364 
162.749 163.597 150.061 150.428 151.416 151.906 153.097 153.8 155.131 
155.943 157.174 157.956 158.985 159.725 160.627 161.304 162.153 162.733 
163.567 164.046 164.818 149.987 148.556 149.455 149.786 146.992 147.95 
148.245 149.182 149.486 145.268 146.296 146.619 147.61 147.897 148.834 
149.169 143.421 144.437 144.772 145.926 146.347 147.326 147.67 148.574 
148.987 141.767 142.551 142.706 143.91 144.434 145.716 146.241 147.214 
147.597 148.465 148.878 140.604 141.089 141.081 141.912 142.306 143.624 
144.296 145.631 146.152 147.145 147.5 148.366 148.755 139.792 140.171 
140.264 140.688 140.979 141.766 142.38 143.592 144.285 145.51 146.008 
147.005 147.414 148.298 148.761 139.099 139.486 139.721 140.12 140.477 
140.913 141.436 142.116 142.806 143.763 144.44 145.459 146.024 146.982 
147.515 148.41 148.953 138.525 138.853 139.073 139.554 139.944 140.468 
140.96 141.493 142.084 142.717 143.39 144.155 144.817 145.666 146.278 
147.171 147.749 148.637 149.173 138.3 138.191 138.382 138.827 138.396 
138.418 138.875 139.092 139.728 138.963 138.83 139.24 139.262 139.883 
140.132 140.84 139.678 139.512 139.877 139.738 140.221 140.345 141.09 
141.337 142.048 140.421 140.226 140.569 140.386 140.763 140.737 141.42 
141.649 142.504 142.656 143.365 141.299 140.991 141.31 141.083 141.483 
141.345 141.998 142.098 143.014 143.191 144.025 144.047 144.734 142.297 
141.917 142.22 141.922 142.392 142.18 142.857 142.811 143.691 143.793 
144.654 144.709 145.411 145.414 146.11 143.267 142.911 143.228 142.917 
143.416 143.189 143.853 143.732 144.501 144.505 145.273 145.319 146.004 
146.04 146.723 146.79 147.538 144.165 143.858 144.202 143.928 144.414 
144.212 144.817 144.685 145.339 145.276 145.945 145.938 146.609 146.629 
147.33 147.388 148.146 148.228 148.976 144.764 145.809 145.125 144.869 
147.046 146.274 146.049 145.328 145.147 148.588 147.664 147.476 146.633 
146.474 145.708 145.579 150.541 149.444 149.305 148.261 148.109 147.164 
147.017 146.198 146.09 152.679 151.557 151.445 150.29 150.147 149.01 
148.85 147.802 147.661 146.768 146.687 154.681 153.663 153.541 152.444 
152.286 151.144 150.99 149.834 149.691 148.567 148.439 147.452 147.382 
156.515 155.582 155.479 154.456 154.283 153.209 153.037 151.96 151.818 
150.706 150.545 149.403 149.247 148.213 148.142 158.225 157.368 157.314 
156.357 156.219 155.169 154.98 153.922 153.743 152.716 152.525 151.467 
151.246 150.168 150 149.008 148.954 159.775 159.013 158.974 158.13 
158.026 157.072 156.895 155.854 155.633 154.579 154.34 153.313 153.063 
152.054 151.832 150.856 150.717 149.807 149.746 150.431 151.449 151.224 
151.841 152.562 152.318 153.038 152.786 153.552 153.792 153.512 154.29 
154.06 154.932 154.676 155.552 155.132 154.834 155.646 155.382 156.263 
156.043 156.912 156.676 157.485 156.497 156.236 157.091 156.8 157.65 
157.378 158.186 157.94 158.685 158.466 159.183 157.757 157.58 158.449 
158.222 159.072 158.791 159.599 159.267 160.016 159.681 160.405 160.126 
160.83 158.849 158.757 159.612 159.482 160.348 160.166 161.027 160.741 
161.544 161.151 161.899 161.488 162.21 161.831 162.476 159.782 159.761 
160.615 160.557 161.431 161.352 162.235 162.092 162.897 162.635 163.327 
162.985 163.631 163.267 163.881 163.468 163.98 160.577 160.623 161.484 
161.496 162.358 162.351 163.197 163.16 163.905 163.784 164.373 164.179 
164.694 164.489 165.006 164.762 165.234 164.864 165.223 142.451 142.404 
142.102 141.471 142.456 142.107 141.414 141.08 140.399 142.471 142.149 
141.475 141.089 140.372 140.016 139.386 142.467 142.136 141.494 141.154 
140.493 140.096 139.45 139.096 138.574 142.573 142.166 141.499 141.158 
140.541 140.216 139.605 139.236 138.643 138.334 137.909 142.829 142.364 
141.698 141.24 140.591 140.233 139.622 139.319 138.712 138.404 137.898 
137.711 137.505 143.172 142.717 142.148 141.594 140.943 140.399 139.759 
139.34 138.778 138.453 137.998 137.75 137.523 137.465 137.537 143.556 
143.128 142.661 142.136 141.567 140.928 140.33 139.706 139.233 138.724 
138.407 138.006 137.835 137.599 137.623 137.619 137.8 143.999 143.563 
143.137 142.664 142.18 141.608 141.108 140.469 140.09 139.478 139.261 
138.699 138.567 138.103 138.065 137.82 137.923 137.907 138.091 142.392 
141.391 141.964 142.16 140.298 140.899 141.118 141.806 142.161 139.26 
139.789 140.003 140.73 141.17 141.913 142.386 138.445 138.841 139.033 
139.664 140.147 140.925 141.513 142.231 142.741 137.857 138.153 138.374 
138.857 139.374 140.033 140.703 141.405 142.012 142.63 143.106 137.591 
137.745 138.045 138.377 138.934 139.448 140.156 140.752 141.418 141.976 
142.503 143.015 143.477 137.716 137.73 138.076 138.236 138.763 139.129 
139.789 140.302 140.953 141.472 142.014 142.487 142.98 143.458 143.983 
137.977 137.977 138.285 138.369 138.786 139.019 139.553 139.957 140.543 
141.026 141.573 142.041 142.556 143.023 143.579 144.061 144.646 138.214 
138.207 138.449 138.527 138.852 139.026 139.462 139.756 140.299 140.683 
141.261 141.668 142.237 142.656 143.241 143.698 144.306 144.772 145.35 
142.979 142.814 143.205 143.938 142.814 143.113 143.828 144.263 145.08 
143.001 143.181 143.808 144.157 144.921 145.409 146.155 143.337 143.442 
144.024 144.21 144.906 145.267 146.003 146.403 146.976 143.689 143.809 
144.44 144.55 145.251 145.421 146.184 146.406 147.095 147.267 147.858 
144.035 144.157 144.825 144.988 145.73 145.883 146.652 146.784 147.541 
147.632 148.388 148.443 149.278 144.523 144.557 145.2 145.347 146.074 
146.294 147.035 147.24 147.958 148.128 148.892 149.062 149.94 150.1 
151.062 145.176 145.132 145.736 145.77 146.439 146.596 147.312 147.531 
148.229 148.451 149.168 149.439 150.267 150.597 151.493 151.797 152.662 
145.863 145.814 146.401 146.367 146.995 147.033 147.736 147.859 148.59 
148.742 149.467 149.673 150.465 150.788 151.657 152.033 152.87 153.195 
153.941 149.804 149.096 149.095 148.379 148.431 148.377 147.596 147.599 
146.818 147.795 147.71 146.87 146.81 145.958 145.963 145.109 147.162 
147.054 146.179 146.079 145.199 145.138 144.287 144.253 143.396 146.611 
146.447 145.575 145.414 144.553 144.437 143.65 143.561 142.803 142.672 
141.912 146.19 145.976 145.158 144.921 144.111 143.904 143.159 143.021 
142.32 142.191 141.481 141.333 140.703 145.87 145.629 144.863 144.605 
143.84 143.582 142.839 142.622 141.897 141.732 141.005 140.883 140.22 
140.187 139.71 145.673 145.386 144.647 144.364 143.622 143.355 142.62 
142.361 141.626 141.378 140.66 140.452 139.818 139.709 139.234 139.269 
138.964 145.594 145.273 144.563 144.224 143.51 143.191 142.502 142.199 
141.526 141.212 140.564 140.26 139.702 139.468 139.054 138.93 138.65 
138.649 138.455 
POINT_DATA 1002
SCALARS Distance double
LOOKUP_TABLE default
145.388 144.443 145.015 146.09 145.676 146.514 146.875 146.411 147.338 
147.842 147.697 147.239 148.26 148.814 149.557 148.582 148.176 149.223 
149.928 150.724 151.661 149.541 149.106 150.243 151.106 152.023 152.943 
153.772 150.526 149.937 151.366 152.347 153.362 154.293 155.054 155.661 
151.584 150.803 152.613 153.685 154.708 155.648 156.39 156.942 157.409 
152.774 151.85 153.932 155.063 156.042 156.95 157.728 158.28 158.693 
159.043 154.035 153.051 155.208 156.345 157.294 158.155 158.965 159.582 
159.992 160.291 160.507 143.965 144.527 143.571 144.221 143.265 145.221 
144.106 143.017 145.05 146.04 143.965 142.831 145.017 145.94 146.985 
143.775 142.776 144.862 145.886 146.928 148.025 143.742 142.801 144.795 
145.881 146.949 148.01 148.95 143.768 142.761 144.914 146.11 147.163 
148.092 148.909 149.698 143.691 142.7 144.898 146.257 147.458 148.317 
148.967 149.608 150.502 143.671 142.797 144.776 146.125 147.513 148.561 
149.163 149.64 150.369 151.53 143.619 144.597 144.723 145.832 145.926 
145.814 147.037 146.83 147.123 147.276 147.698 147.433 148.229 148.585 
148.673 148.182 148.444 148.632 149.387 149.701 149.497 149.557 150.205 
149.226 149.556 150.059 150.135 149.883 151.721 152.072 151.118 150.634 
150.55 150.668 150.667 150.527 153.617 153.505 153.515 153.091 152.52 
152.162 152.056 151.952 151.746 154.942 154.65 155.291 155.459 155.19 
154.652 154.239 153.985 153.693 153.344 155.015 155.44 157.165 155.872 
157.626 159.231 156.213 157.972 159.632 161.137 156.576 158.204 159.858 
161.527 162.908 157.053 158.527 160.057 161.848 163.413 164.674 157.302 
158.85 160.349 162.142 163.863 165.276 166.563 157.019 158.765 160.462 
162.252 164.028 165.593 167.043 168.313 156.478 158.28 160.175 162.008 
163.765 165.432 167.017 168.454 169.528 156.048 157.761 159.663 161.498 
163.211 164.913 166.586 168.096 169.32 170.181 156.177 158.354 157.37 
160.425 159.488 158.414 162.351 161.584 160.537 159.34 164.148 163.545 
162.686 161.509 160.217 166.042 165.376 164.604 163.57 162.28 160.921 
167.975 167.231 166.334 165.355 164.159 162.79 161.379 169.479 168.872 
167.937 166.955 165.856 164.534 163.103 161.668 170.372 170.023 169.222 
168.293 167.299 166.081 164.682 163.244 161.833 170.798 170.871 171.27 
171.139 171.38 170.339 170.93 170.87 170.372 169.435 170.165 169.981 
169.918 169.291 168.424 169.222 169.064 169.072 168.663 168.062 167.232 
168.299 168.166 168.126 167.778 167.306 166.695 165.83 167.416 167.351 
167.177 166.835 166.475 165.991 165.299 164.362 166.61 166.549 166.345 
165.965 165.664 165.303 164.692 163.857 162.883 165.693 165.549 165.539 
165.204 164.892 164.571 164.021 163.233 162.358 161.449 170.04 170.636 
169.599 170.084 168.919 171.057 169.23 168.03 170.299 170.971 168.2 
166.988 169.215 170.013 170.31 167.062 165.887 168.063 168.867 169.375 
169.421 165.839 164.763 166.86 167.728 168.284 168.493 168.45 164.564 
163.59 165.543 166.492 167.136 167.378 167.481 167.537 163.263 162.384 
164.137 165.07 165.858 166.271 166.473 166.681 166.769 161.982 161.206 
162.738 163.556 164.383 165.031 165.457 165.751 165.913 165.854 155.289 
156.924 156.117 157.906 156.981 158.8 158.792 157.843 159.774 160.702 
159.664 158.717 160.631 161.614 162.495 160.51 159.443 161.497 162.491 
163.482 164.309 161.179 160.013 162.267 163.28 164.372 165.41 166.147 
161.735 160.558 162.894 163.934 165.011 166.183 167.158 167.77 162.177 
160.997 163.369 164.475 165.535 166.657 167.72 168.524 169.052 153.671 
154.248 152.53 153.037 151.286 155.003 151.822 150.191 153.771 155.861 
150.82 149.306 152.616 154.67 156.792 149.941 148.454 151.629 153.515 
155.616 157.655 149.051 147.646 150.684 152.443 154.407 156.461 158.333 
148.244 146.996 149.751 151.431 153.273 155.283 157.22 158.957 147.564 
146.448 148.901 150.466 152.205 154.127 156.105 157.914 159.534 146.933 
145.905 148.135 149.566 151.188 152.969 154.878 156.742 158.416 159.902 