# vtk DataFile Version 4.0
vtk output
ASCII
DATASET POLYDATA
POINTS 1002 float
-77.7551 -107.382 59.1869 -78.0935 -106.585 58.4916 -78.6986 -107.02 58.5348 
-78.366 -107.784 59.4062 -79.3829 -107.474 58.689 -77.3928 -108.336 60.0656 
-79.0581 -108.153 59.7641 -80.1673 -107.894 59.0631 -78.0463 -108.687 60.5099 
-77.1687 -109.506 61.0944 -79.7363 -108.629 60.1569 -80.9372 -108.284 59.7723 
-78.6698 -109.169 60.9212 -77.8105 -110.045 61.5961 -77.012 -111.133 62.0916 
-80.1969 -109.367 60.5647 -81.4387 -108.848 60.658 -79.0125 -110.103 61.0283 
-78.2091 -111.007 61.8665 -77.4472 -112.113 62.465 -76.6551 -113.184 63.0058 
-80.2855 -110.426 60.8445 -81.5013 -109.836 61.1743 -78.9805 -111.433 60.9237 
-78.1788 -112.493 61.7848 -77.6176 -113.492 62.6916 -76.8366 -114.496 63.2383 
-76.1908 -115.243 63.9108 -80.0131 -111.726 60.7176 -81.1446 -111.13 61.0151 
-78.784 -112.791 60.7667 -77.959 -114.036 61.6001 -77.6117 -115.029 62.8018 
-77.1022 -115.874 63.5754 -76.4388 -116.63 64.1091 -76.088 -117.094 64.8619 
-79.5813 -113.024 60.3781 -80.6055 -112.355 60.5435 -78.6697 -113.993 60.6859 
-78.0029 -115.225 61.589 -77.737 -116.31 62.8762 -77.5398 -117.095 63.9478 
-77.0808 -117.785 64.588 -76.6504 -118.374 65.183 -76.4467 -118.758 65.8861 
-79.3452 -114.13 60.3514 -80.219 -113.375 60.2782 -78.7934 -115.043 60.9594 
-78.4512 -116.149 61.9506 -78.2334 -117.253 63.1009 -78.1215 -118.095 64.2335 
-77.9056 -118.72 65.1263 -77.5194 -119.291 65.7929 -77.1718 -119.798 66.3929 
-76.9086 -120.173 66.9448 -79.4985 -115.095 60.7835 -80.1336 -114.321 60.4072 
-79.2273 -115.969 61.6325 -79.1541 -116.97 62.6655 -79.0104 -118.02 63.6085 
-78.8276 -118.911 64.5644 -78.6826 -119.546 65.5617 -78.4105 -120.045 66.4127 
-77.9917 -120.523 67.061 -77.5881 -120.954 67.5664 -77.2354 -121.268 67.9822 
-78.7182 -106.21 57.7922 -79.4322 -106.67 57.8128 -79.3404 -105.943 56.9515 
-80.1785 -106.343 57.0807 -80.0154 -105.685 56.0244 -80.2486 -107.17 57.9884 
-80.9759 -105.948 56.3743 -80.731 -105.427 55.0789 -81.1574 -106.721 57.4815 
-81.1668 -107.576 58.5652 -81.7772 -105.579 55.5632 -81.4319 -105.192 54.1088 
-82.1019 -106.11 57.0767 -82.1414 -107.045 58.2802 -81.9514 -107.932 59.6054 
-82.5006 -105.2 54.571 -82.1744 -104.727 53.2059 -82.9183 -105.595 56.4596 
-83.0611 -106.451 57.9651 -82.8019 -107.566 59.2991 -82.3679 -108.592 60.689 
-83.1702 -104.672 53.5451 -82.9048 -104.07 52.4654 -83.4525 -105.266 55.465 
-83.7285 -106.147 57.3815 -83.6181 -107.318 58.7451 -83.1624 -108.495 60.235 
-82.413 -109.704 61.2574 -83.6918 -104.375 52.5966 -83.3123 -103.841 51.7892 
-83.8257 -105.158 54.1983 -84.0019 -106.213 56.3488 -84.2038 -107.359 58.0014 
-84.0288 -108.461 59.4561 -83.3614 -109.622 60.8887 -82.1418 -110.935 61.1904 
-83.8204 -104.691 51.7913 -83.2424 -104.3 51.1204 -84.0769 -105.422 52.9927 
-84.102 -106.496 54.9909 -84.3266 -107.612 56.9608 -84.5844 -108.557 58.5114 
-84.3128 -109.518 60.0979 -83.2772 -110.68 61.0567 -81.692 -112.002 60.7845 
-83.5515 -105.384 51.2162 -82.9128 -105.086 50.5445 -84.0483 -105.959 52.1686 
-84.1648 -106.843 53.7904 -84.2276 -107.84 55.7801 -84.5761 -108.728 57.4753 
-84.7848 -109.562 58.9965 -84.2335 -110.521 60.3242 -82.8719 -111.674 60.7445 
-81.268 -112.978 60.4336 -82.9325 -106.04 50.5852 -83.5914 -106.445 51.4715 
-83.012 -107.028 50.9729 -83.66 -107.552 52.0502 -83.178 -108.154 51.5965 
-84.059 -107.11 52.7188 -83.7534 -108.815 52.6939 -83.2737 -109.379 52.3027 
-84.0515 -108.271 53.4634 -84.1515 -107.962 54.5352 -83.6314 -110.089 53.4422 
-83.0149 -110.409 53.1563 -84.0309 -109.638 54.2164 -84.1767 -109.137 55.3621 
-84.3326 -108.874 56.4501 -83.1059 -111.01 54.3888 -82.4634 -111.325 54.0868 
-83.7813 -110.901 55.0085 -84.2167 -110.546 56.0827 -84.476 -110.11 57.0938 
-84.7273 -109.796 57.9864 -82.467 -111.947 55.2785 -82.0243 -112.624 55.0122 
-83.1387 -111.737 55.6993 -83.8334 -111.648 56.5064 -84.3198 -111.405 57.4231 
-84.5726 -111.079 58.2629 -84.5908 -110.741 59.2919 -82.0503 -113.531 56.2747 
-81.7835 -114.336 56.1935 -82.4031 -112.902 56.4542 -82.8768 -112.575 56.9052 
-83.374 -112.412 57.6175 -83.694 -112.283 58.3668 -83.7469 -112.071 59.2228 
-83.477 -111.805 60.1436 -81.7918 -115.474 57.7135 -81.5449 -115.996 57.6776 
-81.9462 -114.831 57.7937 -82.0678 -114.247 57.9845 -82.2579 -113.805 58.4213 
-82.4411 -113.561 59.0067 -82.4776 -113.457 59.5419 -82.3147 -113.296 60.0127 
-81.8916 -113.088 60.343 -81.5861 -117.149 59.2855 -81.2972 -117.352 59.0956 
-81.775 -116.824 59.508 -81.8832 -116.428 59.6783 -81.9934 -115.916 59.9046 
-82.0412 -115.361 60.3176 -81.8771 -115.036 60.6837 -81.5582 -114.92 60.7617 
-81.169 -114.75 60.6579 -80.6764 -114.507 60.5238 -80.0528 -115.857 61.2557 
-80.5991 -116.212 61.458 -80.671 -117.555 62.7161 -81.2037 -116.476 61.8042 
-81.3075 -117.962 62.8982 -81.5336 -119.193 64.0771 -81.9295 -116.552 62.1264 
-82.1963 -118.066 63.2035 -82.2513 -119.499 64.1796 -82.1095 -120.677 65.188 
-82.5859 -116.805 62.0616 -83.2635 -118.055 63.3261 -83.2605 -119.456 64.32 
-82.8043 -120.928 65.3632 -82.4779 -122.048 66.5603 -82.7243 -117.494 61.6909 
-83.8121 -118.563 63.029 -84.117 -119.581 64.1784 -83.6148 -121.032 65.4566 
-83.1448 -122.362 66.8232 -82.9238 -123.28 68.2006 -82.3762 -118.129 61.4648 
-83.3852 -119.396 62.7609 -84.0402 -120.276 63.8528 -83.9876 -121.456 65.2336 
-83.7704 -122.763 66.7807 -83.6022 -123.68 68.3384 -83.3581 -124.395 69.7445 
-81.9843 -118.368 61.3085 -82.5781 -119.775 62.7306 -83.1898 -120.882 63.8066 
-83.5752 -122.044 65.0102 -83.9145 -123.344 66.4021 -84.0939 -124.296 67.9959 
-83.9529 -124.915 69.7091 -83.7127 -125.47 71.1399 -81.6862 -118.459 60.9367 
-82.0138 -119.781 62.4639 -82.4127 -121.002 63.7742 -82.8308 -122.235 65.0136 
-83.4588 -123.631 66.1509 -84.0257 -124.844 67.4087 -84.1488 -125.591 69.1423 
-84.0629 -126.098 70.9433 -84.0721 -126.472 72.3091 -81.3748 -118.551 60.4811 
-81.6464 -119.82 61.879 -81.9663 -121.049 63.3187 -82.2434 -122.199 64.8167 
-82.7359 -123.472 66.0838 -83.4027 -124.859 67.0881 -83.7708 -125.941 68.4484 
-83.8728 -126.611 70.2551 -84.0673 -127.073 71.8816 -84.3377 -127.34 73.0674 
-79.9098 -116.7 62.2062 -80.801 -118.398 63.817 -79.9792 -117.629 63.3326 
-81.5066 -120.028 65.017 -80.7923 -119.303 64.7622 -79.9128 -118.653 64.2302 
-81.9078 -121.537 66.2745 -81.2833 -120.869 66.0039 -80.5033 -120.238 65.602 
-79.6401 -119.612 65.0551 -82.3325 -122.93 67.9649 -81.7324 -122.332 67.6763 
-81.0134 -121.633 67.2817 -80.2127 -120.997 66.72 -79.4253 -120.325 66.0979 
-82.7513 -124.177 69.6418 -82.1841 -123.743 69.451 -81.5704 -122.981 69.1843 
-80.8248 -122.211 68.6628 -80.0104 -121.566 67.9052 -79.2011 -120.85 67.1212 
-83.1458 -125.223 71.161 -82.5321 -124.931 70.9908 -81.9595 -124.312 70.7905 
-81.3079 -123.48 70.395 -80.4961 -122.773 69.6609 -79.6024 -122.107 68.7548 
-78.7539 -121.32 67.8793 -83.7076 -126.067 72.5929 -83.0679 -125.688 72.5755 
-82.3504 -125.264 72.3586 -81.6243 -124.656 71.9224 -80.8226 -123.982 71.2076 
-79.9137 -123.327 70.292 -78.9951 -122.562 69.3359 -78.2167 -121.734 68.4206 
-84.2732 -126.846 73.674 -83.7791 -126.236 74.0402 -82.9606 -125.766 74.0257 
-82.0026 -125.397 73.5378 -81.058 -124.918 72.7144 -80.1723 -124.315 71.7795 
-79.2785 -123.605 70.8045 -78.4265 -122.806 69.8057 -77.7525 -122.027 68.8404 
-84.4447 -127.884 73.9795 -84.3074 -127.172 74.8112 -83.9777 -128.329 74.7441 
-83.6342 -127.476 75.5844 -82.7872 -128.473 75.0735 -83.6434 -126.394 75.3109 
-82.2383 -127.661 75.5238 -81.2729 -128.225 74.787 -82.7543 -126.692 75.8585 
-82.5372 -125.916 75.0999 -80.5662 -127.63 75.0192 -79.776 -128.085 74.4152 
-81.2157 -126.914 75.5662 -81.4169 -126.112 75.3649 -81.2763 -125.524 74.228 
-78.9346 -127.657 74.8824 -78.4062 -128.317 74.3534 -79.528 -126.893 75.3295 
-79.954 -126.076 75.2613 -80.1563 -125.423 74.4602 -80.24 -124.936 73.1879 
-77.5337 -127.687 74.7959 -77.2703 -128.295 74.1661 -77.9916 -126.875 75.2442 
-78.6351 -126 75.2149 -79.1075 -125.222 74.5657 -79.3646 -124.676 73.499 
-79.4111 -124.232 72.1814 -76.3985 -127.392 74.2521 -76.2269 -127.822 73.6371 
-76.6608 -126.77 74.6653 -77.3746 -126.048 74.7065 -78.1457 -125.288 74.2916 
-78.5458 -124.558 73.5215 -78.6358 -123.986 72.4266 -78.5443 -123.473 71.0941 
-75.3279 -126.976 73.5386 -75.104 -127.371 73.007 -75.4992 -126.431 73.8792 
-76.0368 -125.832 73.9152 -76.8788 -125.239 73.6274 -77.4858 -124.564 73.1229 
-77.7125 -123.852 72.3502 -77.75 -123.262 71.2205 -77.739 -122.705 69.9597 
-74.284 -126.647 72.8468 -74.0483 -127.051 72.3486 -74.4817 -126.033 73.2289 
-74.8436 -125.324 73.3761 -75.4836 -124.719 73.1693 -76.1447 -124.206 72.7024 
-76.5822 -123.628 72.0727 -76.836 -123.043 71.1703 -77.0074 -122.524 70.0317 
-77.1446 -121.957 68.9231 -84.1019 -127.937 72.7944 -83.9697 -128.601 73.5213 
-83.422 -128.115 72.2512 -83.0617 -128.802 72.8007 -82.5279 -127.918 71.5143 
-83.1793 -129.059 74.1112 -82.0471 -128.63 71.8105 -81.5873 -127.702 70.6077 
-82.1865 -129.22 73.2116 -81.8521 -128.916 74.3394 -81.0191 -128.383 70.6869 
-80.5743 -127.421 69.7232 -81.2373 -129.131 71.9194 -80.9674 -129.041 73.3152 
-80.4084 -128.473 74.1067 -79.9217 -127.867 69.8112 -79.5771 -126.887 68.8674 
-80.1745 -128.883 70.6314 -80.0378 -129.233 71.8637 -79.5286 -128.888 73.1419 
-78.9877 -128.585 73.8616 -78.9066 -127.219 68.8776 -78.7897 -126.466 67.6503 
-78.9951 -128.192 69.7692 -78.8943 -129.066 70.5705 -78.4725 -129.313 71.7719 
-78.0213 -129.171 72.9399 -77.7161 -128.884 73.687 -78.1378 -126.907 67.3958 
-78.2118 -126.264 66.1777 -77.9981 -127.472 68.7048 -77.8118 -128.263 69.6279 
-77.4436 -128.996 70.4746 -76.9609 -129.271 71.5768 -76.7205 -129.097 72.5855 
-76.6052 -128.552 73.2699 -77.5722 -126.609 65.8921 -77.7057 -125.795 65.0481 
-77.3211 -127.016 67.1859 -77.0364 -127.426 68.4305 -76.6997 -128.103 69.308 
-76.1859 -128.684 70.1537 -75.7214 -128.811 71.1387 -75.563 -128.491 72.0476 
-75.45 -127.941 72.693 -77.0753 -125.817 64.9716 -77.1879 -124.878 64.3988 
-76.8486 -126.368 65.9152 -76.5229 -126.713 67.0684 -76.1476 -127.238 68.0417 
[...]
CELL_DATA 2000
SCALARS Distance double
LOOKUP_TABLE default
143.951 144.667 144.419 144.718 145.482 145.176 145.482 145.272 145.717 
146.401 146.027 146.324 146.084 146.582 146.424 147.069 147.4 146.97 
147.241 146.968 147.518 147.371 148.1 147.955 148.734 148.385 147.952 
148.183 147.902 148.486 148.374 149.203 149.076 149.902 149.705 150.479 
149.194 148.843 149.034 148.807 149.401 149.359 150.279 150.234 151.146 
150.941 151.73 151.464 152.223 149.769 149.531 149.762 149.616 150.26 
150.271 151.263 151.312 152.335 152.214 153.068 152.789 153.571 153.27 
154.06 150.295 150.108 150.519 150.412 151.212 151.207 152.281 152.326 
153.433 153.392 154.341 154.137 154.947 154.659 155.438 155.139 155.887 
151.011 150.818 151.477 151.365 152.357 152.312 153.458 153.432 154.551 
154.506 155.5 155.375 156.22 155.994 156.736 156.467 157.15 156.868 
157.477 143.649 143.463 143.821 144.372 143.3 143.669 144.273 144.618 
145.219 143.147 143.528 144.183 144.559 145.238 145.553 146.19 143.003 
143.391 144.072 144.484 145.217 145.596 146.32 146.599 147.24 142.789 
143.217 143.896 144.363 145.128 145.571 146.348 146.718 147.458 147.701 
148.295 142.466 142.924 143.582 144.126 144.949 145.484 146.331 146.752 
147.567 147.903 148.614 148.762 149.204 142.209 142.598 143.252 143.779 
144.664 145.29 146.265 146.771 147.659 148.033 148.829 149.074 149.609 
149.591 149.819 142.172 142.456 143.133 143.541 144.429 145.026 146.065 
146.678 147.635 148.109 148.928 149.273 149.885 149.978 150.241 150.102 
150.239 142.298 142.525 143.211 143.535 144.367 144.853 145.815 146.43 
147.377 147.969 148.791 149.276 149.925 150.19 150.536 150.495 150.614 
150.497 150.747 142.6 143.444 143.173 143.556 144.484 144.128 144.556 
144.255 144.741 145.677 145.27 145.688 145.33 145.825 145.538 146.125 
146.772 146.461 146.898 146.532 147.016 146.667 147.237 146.983 147.62 
147.563 147.396 147.885 147.698 148.244 147.928 148.485 148.144 148.741 
148.471 149.051 148.382 148.102 148.527 148.478 149.032 148.986 149.512 
149.328 149.801 149.555 150.013 149.778 150.168 149.714 149.126 149.443 
149.124 149.557 149.515 149.967 150.009 150.375 150.351 150.64 150.547 
150.767 150.622 150.726 151.428 150.723 151.076 150.384 150.781 150.274 
150.721 150.455 150.889 150.766 151.109 151.006 151.219 151.072 151.133 
150.931 150.859 153.053 152.491 152.973 152.263 152.77 151.98 152.531 
151.779 152.354 151.73 152.263 151.765 152.175 151.732 151.967 151.516 
151.593 151.139 151.143 151.758 152.292 152.454 153.51 152.801 153.048 
154.176 154.476 155.738 153.19 153.58 154.804 155.152 156.411 156.697 
157.827 153.498 154.015 155.364 155.763 157.016 157.316 158.43 158.656 
159.659 153.785 154.395 155.866 156.318 157.563 157.862 158.954 159.223 
160.272 160.483 161.484 154.009 154.688 156.18 156.747 157.961 158.325 
159.374 159.704 160.793 161.092 162.149 162.331 163.284 154.119 154.807 
156.17 156.864 158.008 158.537 159.535 160.008 161.1 161.554 162.662 
162.959 163.935 164.079 164.94 154.12 154.759 155.932 156.654 157.718 
158.377 159.345 159.974 161.028 161.68 162.788 163.315 164.296 164.62 
165.478 165.655 166.434 154.027 154.612 155.634 156.315 157.331 158.013 
158.976 159.651 160.64 161.389 162.431 163.176 164.126 164.718 165.531 
165.968 166.712 167.001 167.662 151.735 153.613 152.533 152.469 155.884 
154.725 154.708 153.532 153.532 157.945 156.962 156.955 155.861 155.83 
154.677 154.649 159.784 158.899 158.918 157.958 157.921 156.887 156.81 
155.724 155.652 161.647 160.77 160.87 159.902 159.915 158.893 158.844 
157.795 157.704 156.647 156.54 163.447 162.657 162.825 161.914 161.97 
160.938 160.895 159.822 159.725 158.656 158.507 157.448 157.252 165.087 
164.39 164.563 163.788 163.853 162.946 162.868 161.849 161.686 160.635 
160.419 159.36 159.086 158.038 157.747 166.603 165.971 166.124 165.414 
165.464 164.678 164.593 163.69 163.48 162.495 162.212 161.187 160.841 
159.8 159.431 158.427 158.099 167.897 167.405 167.548 166.899 166.908 
166.184 166.076 165.271 165.024 164.136 163.792 162.853 162.448 161.461 
161.017 160.029 159.62 158.695 158.354 168.553 169.237 168.759 168.246 
169.352 169.237 168.782 168.269 167.581 168.704 169.016 168.681 168.562 
167.922 167.453 166.672 167.676 168.126 167.903 168.145 167.601 167.496 
166.721 166.366 165.523 166.911 167.175 166.97 167.247 166.794 166.906 
166.196 166.116 165.308 165.069 164.226 166.313 166.515 166.217 166.407 
165.991 166.102 165.499 165.483 164.774 164.678 163.922 163.708 162.869 
165.413 165.752 165.343 165.606 165.151 165.346 164.826 164.869 164.237 
164.159 163.454 163.312 162.523 162.293 161.429 164.297 164.685 164.253 
164.573 164.069 164.384 163.873 164.12 163.524 163.599 162.878 162.812 
162.018 161.87 161.042 160.83 160.01 163.232 163.583 163.177 163.46 
162.939 163.228 162.682 163.012 162.433 162.699 162.013 162.117 161.34 
161.307 160.519 160.401 159.639 159.461 158.731 168.671 168.634 168.992 
169.352 167.986 168.682 169.147 169.458 169.459 166.999 167.829 168.346 
168.968 169.023 169.203 168.783 165.914 166.755 167.248 168.008 168.154 
168.547 168.203 168.26 167.73 164.706 165.576 166.013 166.845 167.071 
167.621 167.462 167.652 167.302 167.323 167.004 163.426 164.268 164.636 
165.511 165.763 166.491 166.494 166.915 166.738 166.935 166.73 166.779 
166.483 162.267 162.996 163.276 164.073 164.274 165.088 165.151 165.829 
165.723 166.211 166.002 166.325 165.995 166.106 165.597 161.194 161.87 
162.06 162.738 162.841 163.581 163.625 164.382 164.312 164.977 164.758 
165.296 164.948 165.325 164.848 165.01 164.439 160.022 160.734 160.863 
161.514 161.536 162.186 162.178 162.878 162.835 163.513 163.351 163.932 
163.645 164.124 163.758 164.105 163.672 163.844 163.351 154.231 154.965 
155.005 155.823 155.716 155.805 156.727 156.705 157.533 156.406 156.579 
157.589 157.649 158.532 158.438 159.201 157.022 157.229 158.242 158.429 
159.349 159.391 160.188 160.092 160.857 157.671 157.837 158.805 159.002 
159.933 160.092 160.961 161.015 161.861 161.8 162.624 158.309 158.481 
159.418 159.575 160.515 160.676 161.635 161.762 162.707 162.752 163.641 
163.574 164.33 158.838 159.06 159.977 160.162 161.086 161.282 162.269 
162.461 163.441 163.56 164.453 164.488 165.274 165.183 165.791 159.283 
159.537 160.431 160.649 161.522 161.774 162.712 163.011 163.954 164.192 
165.037 165.179 165.954 166.015 166.709 166.578 167.061 159.623 159.927 
160.786 161.037 161.842 162.11 162.965 163.314 164.213 164.554 165.385 
165.63 166.403 166.585 167.338 167.401 168.001 167.793 168.104 153.412 
152.381 153.276 154.054 151.306 152.181 152.9 153.879 154.701 150.234 
151.055 151.714 152.684 153.474 154.512 155.354 149.21 149.959 150.55 
151.483 152.269 153.29 154.134 155.161 156.006 148.266 148.955 149.479 
150.324 151.072 152.084 152.941 153.97 154.831 155.84 156.689 147.349 
148.04 148.537 149.286 149.934 150.876 151.705 152.758 153.624 154.668 
155.52 156.533 157.341 146.418 147.123 147.63 148.352 148.925 149.758 
150.504 151.509 152.375 153.436 154.285 155.325 156.131 157.136 157.881 
145.576 146.219 146.732 147.438 147.999 148.763 149.44 150.347 151.186 
152.208 153.078 154.093 154.891 155.89 156.647 157.633 158.337 144.919 
145.458 145.957 146.587 147.145 147.851 148.487 149.312 150.093 151.059 
151.925 152.921 153.721 154.676 155.403 156.375 157.084 158.059 158.702 
144.762 144.883 145.131 145.787 145.03 145.286 145.975 146.228 146.956 
145.225 145.466 146.195 146.448 147.226 147.481 148.306 145.496 145.714 
146.482 146.721 147.568 147.819 148.746 148.979 149.94 145.811 146.031 
146.856 147.088 148.017 148.257 149.282 149.519 150.585 150.774 151.791 
146.203 146.411 147.329 147.554 148.578 148.809 149.902 150.135 151.243 
151.456 152.502 152.649 153.582 146.748 146.924 147.938 148.136 149.22 
149.437 150.545 150.779 151.869 152.1 153.129 153.318 154.259 154.377 
155.243 147.39 147.565 148.613 148.81 149.874 150.086 151.138 151.38 
152.423 152.678 153.687 153.907 154.863 155.026 155.94 156.039 156.908 
148.035 148.215 149.226 149.448 150.449 150.678 151.656 151.904 152.904 
153.181 154.194 154.445 155.42 155.618 156.556 156.715 157.616 157.711 
158.529 148.726 150.186 149.588 149.907 151.857 151.14 151.447 150.813 
151.133 153.754 152.953 153.266 152.478 152.775 152.065 152.36 155.595 
154.871 155.198 154.393 154.678 153.848 154.131 153.353 153.65 157.243 
156.61 156.937 156.248 156.553 155.788 156.088 155.262 155.554 154.72 
154.988 158.881 158.252 158.619 157.937 158.29 157.595 157.953 157.211 
157.524 156.693 156.926 156.055 156.236 160.465 159.921 160.349 159.677 
160.053 159.349 159.725 159.025 159.353 158.594 158.814 157.977 158.123 
157.254 157.376 161.766 161.405 161.842 161.33 161.678 161.073 161.396 
160.752 161.032 160.333 160.517 159.757 159.884 159.088 159.203 158.361 
158.442 162.739 162.541 162.982 162.643 162.986 162.532 162.825 162.294 
162.533 161.915 162.055 161.356 161.437 160.725 160.816 160.091 160.159 
159.353 159.345 148.278 148.162 148.734 149.781 148.09 148.708 149.833 
150.334 151.456 147.894 148.653 149.883 150.444 151.607 152.118 153.32 
147.562 148.415 149.755 150.464 151.695 152.278 153.499 154.031 155.188 
147.324 148.105 149.472 150.269 151.586 152.304 153.587 154.2 155.398 
155.855 156.894 147.289 147.945 149.226 149.971 151.267 152.086 153.425 
154.208 155.466 156.043 157.12 157.514 158.492 147.328 147.924 149.09 
149.736 150.903 151.689 152.976 153.893 155.181 155.972 157.06 157.631 
158.593 159.061 159.994 147.351 147.914 149.012 149.592 150.664 151.33 
152.513 153.373 154.636 155.527 156.629 157.371 158.311 158.963 159.876 
160.441 161.273 147.391 147.9 148.95 149.498 150.538 151.124 152.243 
152.966 154.181 154.99 156.104 156.851 157.796 158.513 159.419 160.13 
160.983 161.561 162.252 147.278 145.594 146.62 147.048 143.856 144.816 
145.129 146.334 146.83 142.252 143.024 143.111 144.256 144.642 146.011 
146.512 140.862 141.429 141.314 142.223 142.461 143.736 144.212 145.62 
146.149 139.682 140.1 139.868 140.514 140.64 141.678 142.152 143.412 
144.006 145.336 145.967 138.637 139.006 138.766 139.21 139.247 140.031 
140.491 141.574 142.216 143.388 144.064 145.313 146.013 137.686 138.041 
137.933 138.289 138.348 138.862 139.26 140.105 140.757 141.785 142.455 
143.561 144.244 145.448 146.128 136.961 137.221 137.269 137.625 137.86 
138.227 138.631 139.15 139.756 140.518 141.2 142.109 142.77 143.8 
144.475 145.6 146.238 136.573 136.681 136.77 137.097 137.47 137.877 
138.372 138.759 139.315 139.793 140.432 141.076 141.746 142.531 143.2 
144.115 144.781 145.778 146.383 136.443 136.436 136.441 136.66 136.74 
136.597 136.889 136.947 137.43 137.386 137.065 137.336 137.303 137.853 
137.923 138.458 138.316 137.856 138.046 137.848 138.359 138.399 139.004 
138.994 139.464 139.383 138.882 139.046 138.67 139.065 138.952 139.542 
139.554 140.113 140.033 140.523 140.439 139.979 140.157 139.724 140.006 
139.723 140.191 140.123 140.721 140.7 141.279 141.182 141.76 141.42 
141.011 141.18 140.787 141.009 140.661 141.009 140.821 141.38 141.348 
142.015 141.967 142.605 142.495 143.151 142.324 141.946 142.099 141.744 
141.965 141.623 141.951 141.684 142.206 142.089 142.784 142.741 143.45 
143.362 144.029 143.927 144.643 143.163 142.813 142.969 142.633 142.878 
142.565 142.931 142.658 143.177 142.992 143.658 143.566 144.283 144.209 
144.895 144.803 145.489 145.43 146.173 143.66 144.447 143.857 143.516 
145.485 144.769 144.458 143.796 143.494 146.871 145.994 145.726 144.906 
144.649 143.898 143.649 148.556 147.58 147.357 146.38 146.152 145.24 
145.032 144.191 143.993 150.307 149.356 149.19 148.168 147.951 146.912 
146.69 145.722 145.534 144.646 144.495 152.035 151.105 150.978 150.014 
149.839 148.797 148.572 147.504 147.29 146.287 146.12 145.216 145.095 
153.861 152.883 152.754 151.779 151.629 150.653 150.492 149.452 149.268 
148.174 147.99 146.938 146.783 145.844 145.717 155.706 154.76 154.638 
153.61 153.439 152.433 152.293 151.328 151.201 150.18 150.005 148.909 
148.709 147.635 147.463 146.484 146.348 157.321 156.532 156.446 155.499 
155.323 154.292 154.104 153.111 152.951 152.006 151.819 150.839 150.603 
149.57 149.34 148.308 148.134 147.152 147.036 147.777 148.883 148.642 
149.306 150.074 149.791 150.462 150.217 150.901 151.3 151.001 151.677 
151.421 152.177 151.902 152.658 152.522 152.24 152.941 152.678 153.513 
153.269 154.136 153.8 154.599 153.754 153.512 154.312 154.023 154.911 
154.664 155.59 155.306 156.105 155.734 156.429 155.006 154.817 155.734 
155.47 156.371 156.1 156.98 156.717 157.485 157.158 157.794 157.436 
158.055 156.227 156.098 157.037 156.863 157.732 157.504 158.285 158.033 
158.734 158.45 159.086 158.758 159.387 159.042 159.687 157.283 157.24 
158.116 158.042 158.866 158.729 159.475 159.259 159.929 159.658 160.291 
160.005 160.645 160.356 160.998 160.674 161.259 158.095 158.143 158.957 
158.974 159.774 159.739 160.517 160.388 161.108 160.864 161.504 161.202 
161.802 161.532 162.123 161.878 162.412 162.116 162.531 141.727 141.577 
141.359 140.799 141.621 141.272 140.645 140.39 139.822 141.875 141.419 
140.748 140.323 139.681 139.435 138.946 142.168 141.713 141.025 140.517 
139.823 139.412 138.851 138.632 138.188 142.367 141.96 141.288 140.808 
140.125 139.648 139.044 138.658 138.119 137.869 137.418 142.529 142.136 
141.498 141.055 140.416 139.965 139.384 138.94 138.366 137.931 137.4 
137.137 136.854 142.72 142.329 141.729 141.29 140.674 140.243 139.682 
139.274 138.721 138.257 137.684 137.262 136.882 136.737 136.695 142.93 
142.555 142.006 141.569 140.983 140.527 139.96 139.546 139.004 138.586 
138.014 137.575 137.086 136.815 136.599 136.624 136.646 143.16 142.799 
142.314 141.895 141.38 140.904 140.373 139.886 139.355 138.888 138.348 
137.893 137.391 137.024 136.692 136.54 136.426 136.507 136.519 141.703 
140.782 141.317 141.51 139.793 140.343 140.525 141.156 141.467 138.908 
139.369 139.478 140.084 140.33 141.081 141.464 138.154 138.56 138.659 
139.117 139.296 139.903 140.251 141.06 141.545 137.399 137.816 138.015 
138.452 138.743 139.13 139.498 140.013 140.561 141.285 141.901 136.895 
137.16 137.426 137.863 138.318 138.761 139.25 139.6 140.124 140.571 
141.216 141.822 142.446 136.844 136.928 137.193 137.426 137.852 138.306 
138.846 139.347 139.853 140.28 140.79 141.279 141.86 142.42 142.954 
136.873 137.001 137.27 137.379 137.694 137.934 138.386 138.844 139.378 
139.887 140.378 140.855 141.36 141.877 142.417 142.934 143.423 136.736 
136.95 137.244 137.437 137.749 137.898 138.295 138.543 139.094 139.472 
140.064 140.462 141.014 141.436 141.998 142.463 143.013 143.457 143.949 
142.24 142.077 142.421 143.051 142.117 142.373 142.987 143.321 144.07 
142.238 142.505 143.134 143.36 144.065 144.441 145.262 142.354 142.644 
143.301 143.524 144.167 144.483 145.246 145.651 146.376 142.61 142.802 
143.438 143.648 144.274 144.57 145.323 145.683 146.408 146.696 147.259 
143.048 143.132 143.726 143.839 144.491 144.717 145.556 145.867 146.723 
146.904 147.566 147.633 148.216 143.507 143.574 144.163 144.231 144.914 
145.061 145.949 146.22 147.191 147.384 148.183 148.184 148.864 148.83 
149.582 143.941 144.004 144.611 144.703 145.412 145.554 146.395 146.643 
147.551 147.829 148.64 148.801 149.502 149.563 150.306 150.359 151.196 
144.426 144.452 145.062 145.158 145.87 146.032 146.805 147.026 147.795 
148.073 148.798 149.088 149.774 150.027 150.738 150.955 151.724 151.912 
152.706 147.121 146.441 146.352 145.483 145.849 145.717 144.894 144.748 
143.899 145.393 145.214 144.46 144.271 143.501 143.275 142.459 145.052 
144.841 144.086 143.883 143.111 142.917 142.145 141.914 141.139 144.756 
144.533 143.757 143.521 142.702 142.495 141.71 141.554 140.835 140.651 
139.955 144.507 144.257 143.515 143.238 142.474 142.174 141.43 141.173 
140.504 140.322 139.689 139.505 138.863 144.34 144.058 143.354 143.06 
142.38 142.071 141.416 141.074 140.435 140.121 139.509 139.258 138.644 
138.432 137.85 144.228 143.94 143.251 142.946 142.27 141.998 141.358 
141.086 140.432 140.122 139.473 139.174 138.59 138.311 137.787 137.538 
137.113 144.154 143.868 143.22 142.89 142.219 141.904 141.261 140.988 
140.343 140.059 139.403 139.127 138.57 138.333 137.908 137.642 137.29 
137.01 136.75 
POINT_DATA 1002
SCALARS Distance double
LOOKUP_TABLE default
144.189 143.5 144.166 144.904 144.934 145.063 145.694 145.821 145.853 
146.239 146.571 146.814 146.71 147.185 147.786 147.529 147.861 147.628 
148.221 148.899 149.522 148.472 148.829 148.557 149.281 150.114 150.699 
151.22 149.239 149.523 149.405 150.25 151.314 152.015 152.478 152.973 
149.842 149.952 150.216 151.167 152.378 153.315 153.876 154.36 154.848 
150.538 150.402 151.182 152.242 153.437 154.485 155.222 155.743 156.211 
156.601 151.518 151.118 152.377 153.514 154.62 155.597 156.419 157.019 
157.448 157.793 158.037 143.281 144.018 143.091 143.899 142.912 144.904 
143.776 142.757 144.877 145.937 143.644 142.612 144.801 145.978 147.048 
143.401 142.358 144.649 145.939 147.132 148.197 143.016 142.026 144.333 
145.868 147.19 148.383 149.264 142.753 141.85 143.991 145.672 147.258 
148.531 149.577 149.991 142.765 141.903 143.883 145.42 147.108 148.542 
149.714 150.371 150.37 142.909 142.082 143.959 145.262 146.768 148.259 
149.575 150.49 150.752 150.726 142.81 143.802 143.722 144.862 144.87 
145.007 146.079 146.085 146.125 146.348 147.223 147.011 147.396 147.532 
147.836 147.957 147.724 148.481 148.861 149.067 149.321 148.629 148.795 
148.999 149.62 150.058 150.28 150.442 149.959 150.391 149.746 149.931 
150.353 150.72 150.924 150.941 151.824 152.073 151.452 151.151 151.089 
151.232 151.383 151.359 151.107 153.58 153.509 153.52 153.344 153.104 
152.874 152.688 152.462 152.087 151.59 152.57 153.203 154.758 153.857 
155.468 156.99 154.424 156.133 157.633 158.858 154.935 156.735 158.183 
159.477 160.644 155.378 157.286 158.67 160.012 161.33 162.481 155.583 
157.58 159.02 160.435 161.936 163.185 164.189 155.497 157.431 159.014 
160.574 162.294 163.758 164.866 165.768 155.264 157.037 158.689 160.336 
162.175 163.896 165.238 166.334 167.203 154.994 156.645 158.313 159.928 
161.659 163.459 165.025 166.335 167.47 168.315 153.513 155.907 154.706 
157.989 156.972 155.813 159.85 158.916 157.877 156.74 161.819 160.944 
159.888 158.769 157.605 163.675 162.983 161.987 160.812 159.597 158.32 
165.307 164.708 163.871 162.75 161.498 160.165 158.776 166.839 166.228 
165.459 164.453 163.239 161.901 160.46 159.058 168.174 167.632 166.868 
165.904 164.718 163.421 162.023 160.57 159.235 169.172 168.934 169.609 
169.171 169.28 168.244 168.601 168.234 168.275 167.248 167.548 167.249 
167.563 166.967 165.949 166.733 166.753 166.634 166.189 165.434 164.542 
166.063 166.126 165.858 165.484 164.827 164.061 163.164 165.069 165.047 
164.899 164.699 164.297 163.589 162.713 161.694 163.94 163.906 163.752 
163.556 163.366 162.912 162.135 161.207 160.227 162.903 162.889 162.69 
162.376 162.115 161.821 161.306 160.582 159.769 158.923 168.529 169.278 
168.095 168.674 167.191 169.492 167.625 166.182 168.742 168.84 166.46 
165.102 167.662 168.063 167.709 165.166 163.85 166.415 167.142 167.186 
167.014 163.788 162.64 164.955 165.921 166.425 166.609 166.573 162.564 
161.601 163.479 164.391 165.145 165.605 165.795 165.621 161.447 160.536 
162.174 162.874 163.611 164.183 164.489 164.561 164.366 160.22 159.311 
160.924 161.512 162.149 162.746 163.126 163.323 163.391 163.261 154.193 
155.83 154.873 156.713 155.564 157.641 157.462 156.196 158.595 159.362 
158.031 156.84 159.234 160.219 160.987 158.643 157.531 159.742 160.825 
161.842 162.756 159.272 158.125 160.342 161.462 162.619 163.66 164.508 
159.785 158.605 160.874 162.043 163.303 164.403 165.299 166.019 160.223 
159.024 161.288 162.405 163.688 164.873 165.837 166.729 167.382 152.538 
153.1 151.512 151.936 150.477 153.668 150.759 149.471 152.452 154.306 
149.653 148.511 151.243 153.115 154.983 148.708 147.583 150.082 151.898 
153.814 155.699 147.834 146.634 149.073 150.654 152.566 154.494 156.37 
146.905 145.718 148.154 149.551 151.31 153.252 155.112 156.913 146.038 
144.974 147.257 148.588 150.186 152.066 153.917 155.646 157.383 145.365 