# vtk DataFile Version 4.0
vtk output
ASCII
DATASET POLYDATA
POINTS 1002 float
-74.9317 -107.689 60.3008 -75.2677 -106.829 59.7234 -75.8955 -107.029 60.1314 
-75.5589 -108.031 60.6292 -76.5081 -107.182 60.6694 -74.5181 -109.076 60.601 
-76.0561 -108.343 61.1023 -77.2263 -107.408 61.0839 -74.9813 -109.633 60.8638 
-73.9927 -110.895 61.0144 -76.5241 -108.866 61.377 -77.933 -107.992 61.3095 
-75.2641 -110.262 61.299 -74.2344 -111.712 61.3165 -73.5162 -112.731 62.0539 
-76.8918 -109.866 61.2675 -78.3529 -108.917 61.5407 -75.5602 -111.183 61.491 
-74.5007 -112.625 61.7662 -73.7723 -113.705 62.4297 -73.3171 -114.371 63.4961 
-77.0192 -111.045 61.0334 -78.4891 -109.822 61.637 -75.7878 -112.401 61.2814 
-74.925 -113.659 62.0261 -74.2817 -114.645 62.8987 -73.8031 -115.322 63.9413 
-73.3494 -115.96 64.8446 -77.0153 -112.073 60.8749 -78.4151 -110.755 61.3229 
-75.9068 -113.502 61.1544 -75.2577 -114.694 62.1435 -74.8318 -115.573 63.3233 
-74.4341 -116.235 64.4787 -73.9923 -116.848 65.4586 -73.4421 -117.532 66.1356 
-76.9739 -113.211 60.8485 -78.1116 -112.019 60.9259 -76.1396 -114.456 61.4369 
-75.628 -115.548 62.5839 -75.2484 -116.458 63.8213 -74.8999 -117.215 65.0113 
-74.5631 -117.831 66.0826 -74.1157 -118.406 66.8579 -73.565 -118.965 67.4006 
-76.9616 -114.522 61.148 -77.791 -113.424 60.9398 -76.4915 -115.521 62.0118 
-76.2144 -116.367 63.3324 -75.853 -117.219 64.5461 -75.3986 -118.112 65.5658 
-75.0319 -118.85 66.5838 -74.7055 -119.378 67.4384 -74.2636 -119.835 68.0087 
-73.7646 -120.255 68.4385 -77.1555 -115.624 61.829 -77.7329 -114.576 61.3773 
-76.9023 -116.517 62.768 -76.7913 -117.224 64.0665 -76.5564 -117.955 65.2571 
-76.1338 -118.834 66.1572 -75.6891 -119.669 67.0222 -75.3298 -120.271 67.8724 
-74.9645 -120.71 68.4993 -74.5198 -121.098 68.923 -74.0638 -121.422 69.285 
-75.9688 -106.303 59.2056 -76.5949 -106.413 59.7822 -76.6506 -105.699 58.8081 
-77.4616 -105.868 59.3803 -77.4587 -105.06 58.5204 -77.4224 -106.559 60.3418 
-78.577 -105.44 58.9399 -78.4442 -104.54 58.1127 -78.5931 -106.206 59.8867 
-78.4563 -106.897 60.8253 -79.6916 -105.078 58.4612 -79.4422 -104.15 57.6004 
-79.7924 -105.997 59.4647 -79.6771 -106.734 60.7009 -79.2646 -107.543 61.567 
-80.6118 -104.701 58.0757 -80.3281 -103.815 57.1045 -80.804 -105.684 59.0895 
-80.6774 -106.592 60.5457 -80.32 -107.361 61.9925 -79.6866 -108.287 62.381 
-81.3768 -104.407 57.6773 -81.0374 -103.531 56.4241 -81.7882 -105.281 58.7806 
-81.8033 -106.207 60.0956 -81.3183 -107.147 61.7041 -80.789 -107.94 62.7595 
-79.9037 -108.994 62.4231 -81.8872 -104.315 56.9696 -81.4497 -103.418 55.5335 
-82.622 -105.048 58.3335 -83.102 -105.737 59.5762 -82.674 -106.734 60.819 
-81.8978 -107.749 61.9903 -81.1315 -108.628 62.4078 -79.7854 -109.995 61.7395 
-82.0553 -104.472 56.1216 -81.5639 -103.65 54.7999 -82.9573 -105.118 57.5434 
-83.8676 -105.558 58.9182 -83.8611 -106.371 60.0536 -83.0216 -107.591 60.9872 
-82.1573 -108.636 61.6993 -81.0136 -109.71 61.7362 -79.3059 -111.384 61.1879 
-82.0166 -104.869 55.5351 -81.523 -104.21 54.4295 -82.882 -105.447 56.7117 
-83.887 -105.818 57.9814 -84.2813 -106.453 59.2281 -83.7649 -107.65 60.2622 
-82.9536 -108.86 61.0695 -82.009 -109.804 61.4908 -80.5158 -111.027 61.3563 
-78.8284 -112.767 61.1082 -81.7232 -105.259 54.9458 -82.4508 -105.821 55.9429 
-82.0301 -106.258 55.4715 -82.8325 -106.791 56.3003 -82.2701 -107.239 55.8151 
-83.4048 -106.298 56.9157 -82.878 -107.931 56.6203 -82.1986 -108.387 56.0219 
-83.5922 -107.53 57.1091 -84.1052 -106.935 58.052 -82.5336 -109.156 57.0075 
-81.8369 -109.676 56.2871 -83.4588 -109.015 57.499 -84.0377 -108.721 58.2039 
-84.0835 -108.105 59.3305 -82.0026 -110.293 57.3172 -81.4531 -111.023 56.6133 
-82.9651 -110.091 57.9772 -83.8596 -110.222 58.5946 -83.9737 -109.998 59.5346 
-83.5301 -109.389 60.4819 -81.4243 -111.68 57.4432 -81.0571 -112.583 56.9686 
-81.9692 -110.943 58.1071 -82.8659 -110.805 58.8121 -83.4558 -110.945 59.6387 
-83.2753 -110.76 60.5493 -82.6831 -110.267 61.1753 -80.7162 -113.579 57.8141 
-80.3942 -114.353 57.599 -80.8105 -112.522 58.1414 -81.099 -111.686 58.6729 
-81.7016 -111.451 59.3967 -82.0755 -111.514 60.1813 -81.8742 -111.432 60.8672 
-81.2666 -111.212 61.2605 -79.9309 -115.558 58.8267 -79.562 -116.011 58.704 
-79.9948 -114.735 58.8257 -79.8743 -113.73 58.9247 -79.9582 -113.012 59.3866 
-80.2718 -112.778 59.9817 -80.4221 -112.756 60.4872 -80.1481 -112.728 60.9274 
-79.5308 -112.728 61.1598 -79.4002 -117.14 60.2591 -78.9738 -117.323 60.1058 
-79.6898 -116.727 60.1832 -79.7213 -116.074 60.0208 -79.6152 -115.391 60.2333 
-79.5354 -114.941 60.7477 -79.4606 -114.711 61.0622 -79.2784 -114.543 61.2244 
-78.8841 -114.451 61.432 -78.3083 -114.494 61.5091 -77.7217 -116.106 62.4799 
-78.2887 -116.103 62.6043 -78.2413 -117.436 64.1361 -78.7898 -116.273 62.5962 
-78.7952 -117.666 64.2922 -78.821 -118.799 65.8048 -79.2447 -116.587 62.6871 
-79.3296 -118.048 64.4496 -79.3972 -119.204 65.9593 -79.3079 -120.358 67.1647 
-79.7548 -116.867 62.7571 -80.0605 -118.324 64.7467 -80.1291 -119.466 66.1411 
-80.0215 -120.683 67.2955 -79.8803 -121.935 68.4604 -80.1552 -117.167 62.3105 
-80.8027 -118.503 64.6631 -81.0307 -119.507 66.2836 -80.95 -120.74 67.3897 
-80.7163 -122.134 68.6781 -80.3757 -123.315 69.9591 -80.2711 -117.607 61.7086 
-81.078 -118.867 63.9022 -81.4962 -119.798 65.8784 -81.6393 -120.919 67.2909 
-81.5814 -122.304 68.7365 -81.1915 -123.525 70.2863 -80.6511 -124.432 71.5434 
-80.1122 -118.047 61.6181 -80.9141 -119.313 63.2556 -81.3764 -120.412 65.0654 
-81.586 -121.545 66.7802 -81.8485 -122.807 68.4521 -81.8095 -123.89 70.2269 
-81.3912 -124.698 71.7809 -80.9501 -125.346 72.9779 -79.6919 -118.309 61.7658 
-80.4785 -119.546 63.1329 -81.0564 -120.824 64.522 -81.208 -122.114 66.1411 
-81.4693 -123.382 67.8857 -81.7871 -124.412 69.6943 -81.7644 -125.129 71.4605 
-81.5414 -125.719 72.9386 -81.3442 -126.206 74.1189 -79.1354 -118.393 61.6993 
-79.8206 -119.544 63.1147 -80.5389 -120.839 64.3183 -80.8169 -122.196 65.6854 
-80.9725 -123.515 67.3194 -81.3286 -124.652 69.0072 -81.5955 -125.496 70.714 
-81.6549 -126.162 72.3746 -81.6703 -126.724 73.7884 -81.6276 -127.057 74.9112 
-77.4966 -117.052 63.4312 -78.0772 -118.3 65.2452 -77.3552 -117.857 64.5967 
-78.5605 -119.78 66.7692 -77.7593 -119.254 66.2193 -77.1414 -118.654 65.7335 
-79.1229 -121.508 68.1126 -78.2349 -120.962 67.609 -77.4479 -120.324 67.1143 
-76.8429 -119.561 66.6759 -79.6885 -123.079 69.5946 -78.9052 -122.648 69.1355 
-77.9921 -122.062 68.6235 -77.2198 -121.279 68.1027 -76.482 -120.439 67.5588 
-79.967 -124.3 71.2533 -79.342 -123.958 70.8789 -78.5707 -123.447 70.42 
-77.7019 -122.798 69.8127 -76.8939 -121.981 69.1104 -76.0754 -121.124 68.4371 
-80.2557 -125.237 72.9579 -79.6239 -124.949 72.7906 -79.0093 -124.435 72.4186 
-78.195 -123.904 71.7207 -77.2819 -123.344 70.8188 -76.4397 -122.573 69.9156 
-75.6547 -121.652 69.1314 -80.7838 -126.006 74.4548 -80.1465 -125.734 74.6469 
-79.5775 -125.231 74.5155 -78.8494 -124.649 73.8135 -77.8194 -124.262 72.7145 
-76.8015 -123.833 71.5754 -75.9678 -123.056 70.5165 -75.2101 -122.071 69.6135 
-81.2538 -126.705 75.5037 -80.6814 -126.356 76.0234 -80.1231 -125.922 76.2524 
-79.4879 -125.298 75.8068 -78.4742 -124.761 74.7193 -77.2696 -124.477 73.452 
-76.2913 -124.063 72.2149 -75.504 -123.292 71.0163 -74.7445 -122.356 70.0089 
-81.5365 -127.585 75.8673 -81.0318 -127.043 76.6286 -81.0319 -127.915 76.6214 
-80.296 -127.335 77.4471 -80.1434 -128.257 77.0478 -80.3836 -126.614 77.2529 
-79.2953 -127.85 77.7357 -79.2061 -128.753 77.0166 -79.541 -126.995 77.9127 
-79.7556 -126.117 77.2974 -78.4218 -128.428 77.3749 -78.1815 -129.157 76.5026 
-78.5409 -127.551 77.8097 -78.7759 -126.436 77.5668 -78.861 -125.379 76.4829 
-77.333 -128.654 76.6028 -76.6383 -129.349 75.8392 -77.6588 -127.882 77.0882 
-77.6847 -126.81 77.1025 -77.6831 -125.536 76.5169 -77.5925 -124.784 75.2139 
-75.6861 -128.656 75.9055 -74.8546 -129.49 75.2937 -76.3973 -127.811 76.2403 
-76.6551 -127.005 76.2857 -76.5661 -125.839 76.0397 -76.5048 -124.812 75.3073 
-76.4541 -124.422 73.9031 -74.1203 -128.656 75.297 -73.5693 -129.424 74.6805 
-74.7686 -127.659 75.5519 -75.2973 -126.941 75.5317 -75.5193 -126.125 75.3644 
-75.5763 -125.005 74.9806 -75.6347 -124.26 74.0216 -75.6154 -123.893 72.5152 
-73.0856 -128.446 74.5259 -72.7782 -128.941 73.8712 -73.4532 -127.513 74.832 
-73.8841 -126.692 74.8488 -74.307 -126.06 74.7094 -74.6166 -125.162 74.4318 
-74.8016 -124.219 73.7589 -74.8632 -123.642 72.5493 -74.8143 -123.124 71.1581 
-72.2504 -127.942 73.6633 -72.0366 -128.231 73.0216 -72.4857 -127.226 74.024 
-72.7834 -126.358 74.1258 -73.1719 -125.648 74.0551 -73.5662 -124.963 73.8278 
-73.8537 -124.176 73.2916 -74.0089 -123.499 72.3377 -74.0521 -122.927 71.1722 
-74.0428 -122.24 70.1148 -81.7034 -127.804 74.7574 -81.5361 -128.447 75.5411 
-81.412 -128.357 74.2738 -81.1745 -129.042 74.8274 -80.7864 -128.342 73.4639 
-80.9638 -128.867 76.0292 -80.4175 -128.962 73.7754 -79.9104 -127.893 72.486 
-80.5397 -129.525 75.0467 -80.057 -129.221 76.1874 -79.3255 -128.417 72.6752 
-78.8888 -127.437 71.5619 -79.5943 -129.41 73.8536 -79.526 -129.775 75.0098 
-78.9947 -129.51 75.9541 -78.1252 -127.843 71.715 -77.8772 -126.962 70.6793 
-78.2925 -128.743 72.7427 -78.3875 -129.497 73.7596 -78.2087 -129.737 74.6797 
-77.527 -129.649 75.3989 -77.1216 -127.26 70.6872 -77.0376 -126.317 69.6324 
-77.1132 -128.056 71.6661 -77.0797 -128.826 72.5381 -76.9709 -129.409 73.3186 
-76.4467 -129.71 74.0863 -75.5859 -129.805 74.8089 -76.427 -126.602 69.4193 
-76.3996 -125.633 68.4003 -76.3517 -127.462 70.3959 -76.1698 -128.264 71.2376 
-75.9047 -129.016 71.9057 -75.3898 -129.513 72.5711 -74.6067 -129.794 73.4047 
-73.9398 -129.844 74.2143 -75.8663 -125.909 68.0811 -75.8415 -124.992 67.1858 
-75.8286 -126.819 68.9937 -75.6422 -127.677 69.8602 -75.2924 -128.536 70.5667 
-74.7564 -129.187 71.1273 -74.0349 -129.449 71.8064 -73.3779 -129.517 72.6855 
-72.9992 -129.406 73.4617 -75.2678 -125.183 66.8952 -75.277 -124.346 66.1424 
[...]
CELL_DATA 2000
SCALARS Distance double
LOOKUP_TABLE default
143.133 143.808 143.607 143.943 144.498 144.296 144.666 144.514 145.017 
145.286 145.015 145.411 145.265 145.826 145.73 146.43 146.216 145.86 
146.264 146.087 146.737 146.622 147.398 147.301 148.129 147.093 146.773 
147.16 147.007 147.73 147.636 148.493 148.369 149.243 149.099 149.944 
147.762 147.551 147.959 147.887 148.661 148.655 149.581 149.512 150.427 
150.281 151.156 150.962 151.779 148.419 148.235 148.789 148.723 149.6 
149.609 150.617 150.594 151.576 151.478 152.398 152.221 153.062 152.813 
153.564 149.295 149.089 149.842 149.726 150.736 150.677 151.759 151.69 
152.72 152.629 153.592 153.459 154.325 154.104 154.844 154.552 155.198 
150.338 150.162 151.041 150.928 151.983 151.908 152.985 152.895 153.903 
153.797 154.744 154.63 155.498 155.326 156.064 155.804 156.428 156.114 
156.673 142.819 142.581 142.958 143.472 142.412 142.763 143.323 143.656 
144.193 142.394 142.714 143.386 143.644 144.274 144.49 145.067 142.461 
142.798 143.582 143.851 144.607 144.772 145.452 145.531 146.107 142.526 
142.896 143.72 144.071 144.902 145.171 145.947 146.064 146.677 146.641 
147.071 142.537 142.959 143.81 144.201 145.059 145.41 146.216 146.485 
147.14 147.216 147.598 147.488 147.721 142.427 142.933 143.85 144.305 
145.204 145.566 146.358 146.656 147.307 147.521 147.943 147.944 148.122 
148.008 148.232 142.304 142.807 143.765 144.302 145.234 145.681 146.463 
146.777 147.398 147.629 148.113 148.214 148.493 148.401 148.581 148.526 
148.92 142.381 142.762 143.694 144.193 145.108 145.612 146.407 146.811 
147.473 147.747 148.314 148.45 148.869 148.812 149.052 148.913 149.195 
149.257 149.809 142.82 143.912 143.58 144.072 144.962 144.667 145.122 
144.859 145.395 145.912 145.676 146.162 145.902 146.404 146.161 146.668 
146.775 146.583 147.161 146.975 147.589 147.278 147.799 147.433 147.834 
147.586 147.374 147.901 147.88 148.592 148.487 149.087 148.711 149.079 
148.569 148.774 148.507 148.154 148.42 148.378 148.856 149.091 149.607 
149.709 149.989 149.736 149.783 149.332 149.29 149.67 149.165 149.255 
148.862 148.963 148.998 149.243 149.617 149.827 150.097 150.091 150.03 
149.871 149.582 149.4 150.979 150.455 150.638 149.942 149.974 149.387 
149.52 149.34 149.636 149.748 149.987 150.059 150.114 149.987 149.929 
149.632 149.564 152.302 151.854 152.249 151.558 151.807 150.919 151.201 
150.39 150.874 150.301 150.861 150.436 150.868 150.475 150.756 150.338 
150.537 150.062 150.244 151.08 151.366 151.726 152.815 151.634 152.043 
153.228 153.639 154.85 151.919 152.403 153.732 154.147 155.452 155.743 
156.908 152.168 152.792 154.303 154.759 156.109 156.386 157.562 157.793 
158.913 152.34 153.073 154.715 155.321 156.686 157.018 158.143 158.41 
159.535 159.809 160.908 152.614 153.267 154.885 155.6 156.977 157.457 
158.569 158.923 160.062 160.407 161.557 161.786 162.764 153.03 153.553 
155.006 155.684 157.032 157.61 158.765 159.244 160.418 160.881 162.07 
162.401 163.406 163.541 164.35 153.289 153.82 155.06 155.722 156.974 
157.606 158.755 159.336 160.489 161.092 162.256 162.77 163.768 164.073 
164.88 165.022 165.735 153.225 153.816 154.877 155.589 156.716 157.439 
158.513 159.197 160.247 160.959 162.019 162.713 163.666 164.207 165.01 
165.378 166.102 166.317 166.958 151.212 153.034 152.078 152.083 155.022 
154.029 154.051 153.062 153.075 157.028 156.034 156.031 155.04 155.043 
154.068 154.053 159.088 158.086 158.125 157.062 157.066 156.037 156.029 
155.02 154.96 161.108 160.182 160.299 159.242 159.271 158.156 158.142 
157.043 156.979 155.904 155.794 162.898 162.119 162.245 161.35 161.38 
160.357 160.297 159.196 159.069 157.949 157.774 156.693 156.51 164.472 
163.797 163.943 163.17 163.219 162.324 162.249 161.245 161.07 159.995 
159.751 158.649 158.371 157.313 157.039 165.907 165.317 165.531 164.832 
164.953 164.113 164.065 163.095 162.906 161.884 161.624 160.566 160.241 
159.148 158.782 157.732 157.381 167.139 166.672 166.886 166.337 166.48 
165.794 165.754 164.865 164.602 163.612 163.265 162.298 161.933 160.934 
160.51 159.451 159.006 157.986 157.593 167.777 168.37 167.934 167.512 
168.575 168.348 168.014 167.614 167.132 168.575 168.454 168.175 167.962 
167.549 167.119 166.427 168.37 168.4 168.114 168.01 167.548 167.299 
166.568 166.126 165.19 167.723 167.994 167.679 167.77 167.206 167.087 
166.248 165.977 165.016 164.672 163.736 166.767 167.124 166.756 167.039 
166.468 166.544 165.698 165.521 164.559 164.326 163.456 163.21 162.374 
165.828 166.129 165.685 165.954 165.4 165.631 164.935 164.927 164.055 
163.865 163.014 162.838 162.046 161.828 160.963 164.844 165.182 164.694 
164.896 164.288 164.524 163.918 164.098 163.374 163.34 162.502 162.366 
161.543 161.398 160.555 160.337 159.44 163.68 164.114 163.65 163.892 
163.248 163.442 162.804 163.044 162.398 162.549 161.784 161.772 160.939 
160.846 160.014 159.867 159.021 158.811 157.985 168.014 168.382 168.442 
168.64 168.169 168.62 168.936 168.896 168.852 167.257 168.091 168.583 
168.977 169.047 168.963 168.806 165.978 166.929 167.465 168.284 168.532 
168.9 168.789 168.779 168.519 164.684 165.572 165.983 166.924 167.211 
167.999 167.988 168.409 168.126 168.245 167.825 163.375 164.235 164.539 
165.399 165.608 166.479 166.53 167.251 167.055 167.508 167.145 167.342 
166.882 162.019 162.876 163.173 163.975 164.166 164.938 165.035 165.755 
165.679 166.258 166.013 166.447 166.125 166.364 165.947 160.689 161.511 
161.812 162.617 162.836 163.582 163.722 164.403 164.411 164.968 164.784 
165.25 164.968 165.409 165.079 165.378 164.922 159.418 160.185 160.44 
161.245 161.443 162.229 162.344 163.091 163.107 163.747 163.585 164.065 
163.743 164.179 163.822 164.281 163.884 164.226 163.714 153.401 154.168 
154.191 155.075 154.992 155.024 155.956 155.983 156.912 155.777 155.862 
156.806 156.867 157.823 157.84 158.718 156.477 156.622 157.609 157.707 
158.68 158.734 159.677 159.644 160.488 157.15 157.308 158.341 158.497 
159.53 159.613 160.609 160.618 161.555 161.458 162.276 157.805 157.963 
158.968 159.188 160.265 160.45 161.496 161.572 162.538 162.513 163.373 
163.234 163.929 158.364 158.556 159.5 159.754 160.809 161.1 162.165 
162.376 163.345 163.432 164.306 164.273 165.02 164.817 165.356 158.764 
159.022 159.933 160.218 161.229 161.566 162.609 162.918 163.882 164.099 
164.997 165.118 165.957 165.893 166.543 166.21 166.587 159.027 159.342 
160.238 160.571 161.53 161.903 162.891 163.261 164.194 164.506 165.403 
165.677 166.58 166.739 167.494 167.362 167.798 167.357 167.512 152.553 
151.517 152.422 153.247 150.487 151.363 152.171 153.149 154.038 149.51 
150.307 151.035 152.023 152.883 153.921 154.789 148.633 149.316 149.902 
150.824 151.626 152.696 153.567 154.622 155.466 147.808 148.43 148.913 
149.703 150.455 151.455 152.376 153.417 154.331 155.324 156.177 146.936 
147.574 148.036 148.752 149.463 150.375 151.326 152.326 153.303 154.266 
155.175 156.092 156.907 146.074 146.702 147.186 147.882 148.545 149.409 
150.29 151.295 152.235 153.243 154.123 155.091 155.902 156.8 157.506 
145.347 145.91 146.414 147.062 147.691 148.477 149.247 150.196 151.037 
152.072 152.894 153.937 154.716 155.713 156.416 157.312 157.912 144.764 
145.261 145.756 146.346 146.946 147.642 148.333 149.152 149.909 150.846 
151.641 152.654 153.445 154.464 155.192 156.147 156.773 157.642 158.179 
144.608 144.688 144.957 145.609 144.804 145.083 145.816 146.073 146.82 
145.026 145.275 146.081 146.343 147.176 147.396 148.212 145.379 145.594 
146.449 146.687 147.588 147.814 148.706 148.884 149.762 145.801 146.007 
146.896 147.123 148.066 148.292 149.266 149.454 150.413 150.544 151.486 
146.284 146.468 147.391 147.614 148.595 148.821 149.851 150.07 151.124 
151.279 152.282 152.357 153.303 146.847 147 147.944 148.151 149.168 
149.39 150.447 150.682 151.777 152 153.052 153.178 154.117 154.167 
155.036 147.44 147.592 148.531 148.729 149.744 149.976 151.035 151.284 
152.372 152.63 153.693 153.892 154.836 154.936 155.77 155.821 156.602 
148.01 148.18 149.103 149.303 150.28 150.523 151.551 151.831 152.895 
153.187 154.231 154.479 155.427 155.585 156.422 156.507 157.273 157.316 
158.024 148.621 150.017 149.454 149.767 151.572 150.949 151.273 150.654 
150.968 153.212 152.564 152.916 152.248 152.583 151.921 152.263 154.981 
154.27 154.675 153.969 154.35 153.632 154.002 153.294 153.647 156.938 
156.152 156.585 155.818 156.225 155.463 155.831 155.088 155.432 154.699 
154.991 158.833 158.126 158.545 157.79 158.183 157.386 157.711 156.918 
157.211 156.467 156.73 155.986 156.175 160.381 159.855 160.255 159.652 
160.054 159.341 159.67 158.837 159.095 158.261 158.506 157.717 157.9 
157.101 157.189 161.695 161.267 161.681 161.195 161.622 161.084 161.487 
160.786 161.074 160.215 160.43 159.553 159.724 158.859 158.933 158.063 
158.061 162.92 162.566 163.018 162.561 162.969 162.515 162.932 162.442 
162.772 162.106 162.279 161.461 161.543 160.682 160.697 159.813 159.754 
158.872 158.792 148.143 147.811 148.484 149.525 147.476 148.179 149.306 
149.98 151.096 147.189 147.903 149.117 149.817 151.032 151.637 152.762 
146.976 147.696 149.011 149.717 151.032 151.647 152.873 153.383 154.544 
146.849 147.555 148.939 149.675 151.066 151.716 153.031 153.572 154.838 
155.299 156.522 146.767 147.445 148.785 149.574 150.968 151.723 153.074 
153.73 155.056 155.622 156.9 157.339 158.461 146.696 147.313 148.521 
149.316 150.64 151.503 152.849 153.663 155 155.737 157.023 157.621 
158.732 159.134 160.032 146.706 147.208 148.285 148.98 150.206 151.07 
152.395 153.31 154.65 155.526 156.804 157.565 158.669 159.24 160.139 
160.53 161.307 146.849 147.24 148.228 148.77 149.899 150.639 151.907 
152.798 154.118 155.055 156.316 157.188 158.283 159.003 159.906 160.472 
161.263 161.708 162.45 147.243 145.761 146.615 146.842 144.2 145.068 
145.255 146.175 146.441 142.614 143.451 143.597 144.533 144.76 145.749 
146.068 141.15 141.874 141.927 142.812 142.979 143.99 144.253 145.342 
145.743 139.794 140.453 140.388 141.138 141.177 142.132 142.347 143.457 
143.838 145.036 145.563 138.375 139.066 138.982 139.645 139.59 140.372 
140.539 141.559 141.981 143.151 143.727 144.942 145.551 137.084 137.674 
137.695 138.311 138.344 138.961 139.15 139.946 140.415 141.43 142.076 
143.203 143.876 145.01 145.609 136.332 136.641 136.766 137.229 137.437 
137.937 138.243 138.841 139.346 140.125 140.781 141.716 142.411 143.444 
144.112 145.144 145.728 136.119 136.205 136.358 136.61 136.898 137.263 
137.648 138.129 138.653 139.274 139.898 140.626 141.272 142.122 142.794 
143.751 144.417 145.362 145.949 136.117 136.284 136.232 136.386 136.641 
136.523 136.718 136.633 136.893 137.179 136.993 137.192 137.034 137.283 
137.227 137.617 137.837 137.602 137.808 137.585 137.837 137.692 138.107 
138.088 138.644 138.637 138.324 138.569 138.29 138.573 138.343 138.763 
138.671 139.253 139.244 139.877 139.611 139.208 139.451 139.125 139.425 
139.152 139.545 139.386 139.93 139.888 140.516 140.514 141.181 140.614 
140.196 140.368 140.026 140.296 140.02 140.393 140.191 140.699 140.597 
141.23 141.191 141.894 141.886 142.65 141.511 141.124 141.243 140.905 
141.162 140.895 141.3 141.074 141.604 141.431 142.085 141.986 142.739 
142.686 143.49 143.461 144.271 142.335 141.97 142.101 141.762 142.051 
141.788 142.263 142.042 142.625 142.412 143.062 142.907 143.643 143.574 
144.37 144.338 145.125 145.087 145.819 142.832 143.67 143.034 142.669 
144.828 144.053 143.754 143.006 142.728 146.305 145.417 145.206 144.319 
144.101 143.258 143.056 147.996 147.044 146.859 145.91 145.703 144.782 
144.575 143.692 143.482 149.789 148.811 148.627 147.627 147.39 146.415 
146.169 145.249 145.016 144.131 143.924 151.61 150.637 150.491 149.458 
149.247 148.178 147.93 146.896 146.665 145.706 145.525 144.628 144.502 
153.377 152.457 152.34 151.347 151.178 150.111 149.902 148.791 148.575 
147.485 147.316 146.316 146.219 145.302 145.239 155.01 154.178 154.077 
153.159 152.989 152.002 151.791 150.759 150.546 149.474 149.279 148.211 
148.073 147.081 146.997 146.071 145.989 156.496 155.749 155.683 154.843 
154.687 153.751 153.522 152.55 152.323 151.351 151.153 150.153 149.969 
148.957 148.797 147.829 147.689 146.775 146.643 147.267 148.363 148.073 
148.643 149.555 149.261 149.911 149.584 150.297 150.776 150.522 151.267 
150.95 151.726 151.401 152.27 151.946 151.753 152.565 152.333 153.173 
152.884 153.78 153.491 154.449 153.109 152.93 153.8 153.629 154.537 
154.314 155.232 154.987 155.94 155.69 156.62 154.336 154.148 155.079 
154.91 155.879 155.678 156.605 156.382 157.293 157.097 157.992 157.766 
158.556 155.518 155.395 156.342 156.214 157.189 157.023 157.935 157.717 
158.562 158.362 159.189 159.017 159.784 159.55 160.179 156.501 156.491 
157.414 157.388 158.325 158.253 159.145 158.992 159.799 159.586 160.34 
160.144 160.881 160.694 161.363 161.082 161.6 157.292 157.363 158.265 
158.326 159.229 159.254 160.132 160.094 160.914 160.772 161.491 161.272 
161.939 161.745 162.415 162.22 162.811 162.472 162.877 141.584 141.434 
141.096 140.429 141.558 141.069 140.308 140.007 139.442 141.723 141.25 
140.475 140.023 139.352 139.072 138.512 141.735 141.354 140.605 140.199 
139.505 139.11 138.455 138.136 137.508 141.674 141.318 140.566 140.235 
139.564 139.241 138.584 138.194 137.488 137.122 136.541 141.686 141.302 
140.569 140.189 139.516 139.223 138.61 138.295 137.605 137.189 136.538 
136.257 135.959 141.835 141.428 140.791 140.315 139.649 139.23 138.633 
138.307 137.721 137.336 136.731 136.35 135.984 135.875 135.896 142.086 
141.692 141.166 140.672 140.066 139.519 138.926 138.459 137.968 137.557 
137.116 136.676 136.341 136.03 135.952 135.928 136.042 142.342 141.986 
141.521 141.096 140.576 140.04 139.493 138.926 138.473 137.982 137.66 
137.206 136.961 136.536 136.402 136.13 136.129 136.066 136.105 141.567 
140.458 141.108 141.386 139.487 140.082 140.401 141.055 141.396 138.491 
139.097 139.385 140.095 140.472 141.118 141.465 137.375 137.982 138.172 
138.969 139.337 140.13 140.527 141.216 141.637 136.417 136.864 137.001 
137.702 138.094 138.931 139.426 140.228 140.759 141.479 142.015 136.017 
136.19 136.413 136.778 137.24 137.856 138.5 139.233 139.914 140.637 
141.283 141.942 142.487 136.112 136.148 136.498 136.59 137.074 137.36 
138.036 138.561 139.331 139.951 140.666 141.276 141.884 142.437 142.921 
136.238 136.339 136.701 136.823 137.26 137.418 137.971 138.303 139.001 
139.503 140.217 140.76 141.39 141.904 142.44 142.903 143.359 136.179 
136.335 136.601 136.866 137.248 137.52 137.979 138.273 138.841 139.237 
139.886 140.364 140.996 141.479 142.046 142.493 142.996 143.399 143.854 
142.328 142.107 142.59 143.415 142.019 142.399 143.142 143.675 144.468 
142.042 142.318 142.972 143.415 144.188 144.707 145.438 142.247 142.403 
143.014 143.306 144.069 144.506 145.296 145.707 146.374 142.633 142.707 
143.291 143.442 144.161 144.494 145.338 145.702 146.448 146.709 147.322 
143.057 143.129 143.689 143.777 144.424 144.657 145.47 145.817 146.616 
146.884 147.549 147.726 148.343 143.436 143.522 144.086 144.181 144.822 
144.977 145.745 146.005 146.795 147.06 147.743 147.965 148.607 148.808 
149.477 143.832 143.891 144.462 144.572 145.24 145.396 146.149 146.343 
147.094 147.286 147.951 148.144 148.779 149.02 149.709 149.965 150.682 
144.297 144.315 144.867 144.956 145.6 145.774 146.483 146.703 147.39 
147.587 148.208 148.38 149 149.206 149.896 150.158 150.903 151.172 
151.917 147.178 146.608 146.515 145.726 146.017 145.929 145.136 145.026 
144.193 145.453 145.339 144.544 144.429 143.587 143.461 142.631 144.963 
144.799 143.98 143.839 142.993 142.857 142.027 141.927 141.187 144.557 
144.348 143.515 143.311 142.461 142.283 141.459 141.339 140.586 140.534 
139.837 144.258 144.004 143.219 142.94 142.131 141.855 141.066 140.847 
140.092 139.952 139.202 139.14 138.405 144.104 143.807 143.102 142.769 
142.037 141.678 140.95 140.613 139.905 139.603 138.87 138.609 137.871 
137.728 137.108 144.054 143.749 143.111 142.761 142.093 141.702 141.016 
140.622 139.955 139.574 138.923 138.52 137.879 137.49 136.949 136.71 
136.378 144.035 143.75 143.166 142.831 142.215 141.826 141.175 140.755 
140.099 139.693 139.084 138.695 138.159 137.745 137.294 136.887 136.576 
136.305 136.174 
POINT_DATA 1002
SCALARS Distance double
LOOKUP_TABLE default
143.388 142.682 143.33 144.106 143.991 144.338 144.795 144.711 145.103 
145.614 145.543 145.611 145.902 146.479 147.202 146.434 146.612 146.825 
147.492 148.227 148.96 147.284 147.393 147.773 148.598 149.392 150.112 
150.762 147.989 147.917 148.615 149.6 150.548 151.344 152.014 152.563 
148.815 148.538 149.573 150.618 151.637 152.545 153.308 153.865 154.266 
149.923 149.433 150.795 151.843 152.819 153.707 154.527 155.141 155.527 
155.801 151.135 150.451 152.069 153.088 154.025 154.868 155.658 156.31 
156.743 157.014 157.206 142.447 143.099 142.199 142.994 142.046 143.88 
143.104 142.036 144.062 144.884 143.256 142.095 144.39 145.374 146.102 
143.338 142.147 144.568 145.753 146.719 147.214 143.395 142.072 144.701 
145.912 146.988 147.717 147.866 143.336 141.875 144.823 146.091 147.075 
147.862 148.255 148.253 143.212 141.825 144.75 146.132 147.169 147.956 
148.527 148.703 148.799 143.251 142.068 144.619 145.957 147.134 148.12 
148.871 149.212 149.248 149.548 143.143 144.348 144.248 145.408 145.233 
145.612 146.39 146.115 146.689 146.915 147.246 146.968 147.849 148.233 
148.255 147.91 147.882 148.548 149.382 149.651 149.337 148.673 148.969 
148.679 149.344 150.098 150.224 149.79 149.857 150.187 149.24 148.978 
149.414 149.975 150.08 149.749 151.326 151.43 150.736 149.952 149.638 
149.865 150.13 150.141 149.908 152.81 152.67 152.616 152.073 151.584 
151.406 151.32 151.163 150.973 150.739 152.053 152.39 154.005 152.772 
154.524 156.023 153.279 155.149 156.684 158.019 153.782 155.852 157.328 
158.677 160.046 154.035 156.333 157.876 159.227 160.705 161.976 154.187 
156.438 158.165 159.669 161.292 162.679 163.64 154.403 156.43 158.232 
159.901 161.685 163.236 164.308 165.103 154.445 156.334 158.16 159.877 
161.693 163.392 164.678 165.656 166.447 154.198 155.99 157.826 159.555 
161.31 163.057 164.552 165.801 166.85 167.577 153.048 155.039 154.071 
157.042 156.013 155.047 159.2 158.134 157.052 155.989 161.303 160.395 
159.285 158.09 156.859 163.08 162.354 161.393 160.217 158.901 157.563 
164.675 164.078 163.229 162.128 160.869 159.485 158.066 166.174 165.747 
165.036 163.934 162.659 161.346 159.893 158.386 167.396 167.092 166.602 
165.627 164.247 162.892 161.564 160.075 158.559 168.358 168.051 168.704 
168.292 168.733 167.703 168.341 168.655 167.894 167.052 168.206 168.254 
167.797 166.954 165.699 167.525 167.394 167.308 166.513 165.28 164.072 
166.459 166.452 166.287 165.811 164.771 163.628 162.67 165.481 165.554 
165.119 164.798 164.199 163.196 162.219 161.252 164.512 164.468 164.091 
163.658 163.3 162.626 161.685 160.727 159.687 163.365 163.21 163.074 
162.58 162.174 161.722 161.006 160.128 159.189 158.189 168.11 168.863 
168.175 168.825 167.509 169.125 167.941 166.322 168.987 169.035 166.527 
165.087 167.928 168.684 168.653 165.104 163.863 166.32 167.388 167.895 
167.833 163.741 162.522 164.774 165.731 166.472 166.803 166.807 162.365 
161.17 163.413 164.313 165.064 165.505 165.736 165.837 160.999 159.9 
162.074 163.023 163.834 164.339 164.513 164.657 164.746 159.658 158.698 
160.664 161.592 162.419 163.071 163.346 163.371 163.441 163.467 153.338 
155.04 154.128 155.907 154.944 156.921 156.737 155.651 157.774 158.776 
157.479 156.304 158.613 159.654 160.602 158.143 157.004 159.403 160.576 
161.6 162.465 158.743 157.67 160.021 161.374 162.541 163.476 164.182 
159.257 158.167 160.501 161.908 163.214 164.283 165.163 165.718 159.644 
158.484 160.899 162.29 163.633 164.8 165.91 166.8 167.113 151.655 
152.278 150.622 151.194 149.65 153.047 150.083 148.803 151.832 153.774 
149.067 148.036 150.563 152.486 154.444 148.193 147.199 149.485 151.322 
153.324 155.226 147.334 146.28 148.584 150.324 152.337 154.252 156.048 
146.495 145.451 147.731 149.323 151.227 153.145 154.977 156.683 145.786 
144.806 146.964 148.381 150.041 151.846 153.693 155.481 157.086 145.194 