# vtk DataFile Version 4.0
vtk output
ASCII
DATASET POLYDATA
POINTS 1002 float
-75.8377 -105.131 56.8314 -76.086 -104.204 55.9161 -76.8168 -104.555 56.0891 
-76.5531 -105.517 57.1275 -77.7035 -104.818 56.4563 -75.6076 -106.279 57.9276 
-77.2814 -105.966 57.4978 -78.4825 -105.214 56.9337 -76.2078 -106.841 58.2822 
-75.2935 -107.914 58.9635 -77.8413 -106.645 57.8689 -79.0748 -105.806 57.4468 
-76.6947 -107.666 58.5138 -75.754 -108.836 59.2344 -74.8622 -110.131 59.8033 
-78.3374 -107.408 58.2943 -79.6586 -106.388 57.9473 -77.1084 -108.696 58.7219 
-76.1147 -110.028 59.3648 -75.338 -111.286 60.1154 -74.5699 -112.396 60.8409 
-78.7452 -108.316 58.6391 -80.1047 -107.134 58.335 -77.5657 -109.804 59.0554 
-76.5278 -111.265 59.6356 -75.7898 -112.49 60.4892 -75.2169 -113.464 61.4603 
-74.6302 -114.304 62.3128 -78.78 -109.744 58.7251 -80.1435 -108.438 58.5105 
-77.7963 -111.266 59.3141 -76.9666 -112.636 60.0967 -76.2563 -113.705 61.05 
-75.8062 -114.585 62.1402 -75.364 -115.39 63.1034 -74.8511 -116.19 63.8338 
-78.6076 -111.478 58.7344 -79.8719 -110.095 58.486 -77.7744 -112.952 59.5103 
-77.2596 -114.182 60.5877 -76.7442 -115.061 61.7054 -76.3298 -115.837 62.8285 
-76.013 -116.666 63.8247 -75.561 -117.468 64.579 -75.0667 -118.162 65.2067 
-78.6062 -112.958 58.9281 -79.5413 -111.602 58.4326 -77.9613 -114.29 59.9217 
-77.626 -115.397 61.2023 -77.3409 -116.253 62.433 -76.9831 -117.036 63.5504 
-76.6644 -117.903 64.5533 -76.2961 -118.744 65.3409 -75.8157 -119.397 65.9662 
-75.3813 -119.851 66.5619 -78.8244 -114.047 59.3708 -79.329 -112.786 58.5695 
-78.4748 -115.213 60.5639 -78.2453 -116.177 61.9359 -78.0763 -117.046 63.206 
-77.8295 -117.933 64.3141 -77.4913 -118.847 65.3306 -77.1164 -119.712 66.1899 
-76.6747 -120.396 66.8339 -76.2105 -120.851 67.3661 -75.8243 -121.134 67.8743 
-76.8026 -103.601 55.1692 -77.719 -103.873 55.4202 -77.6203 -102.992 54.4561 
-78.7072 -103.163 54.8231 -78.4915 -102.317 53.7387 -78.751 -104.064 55.9021 
-79.7009 -102.411 54.2127 -79.3859 -101.588 53.0342 -79.8059 -103.334 55.3965 
-79.5885 -104.506 56.463 -80.6445 -101.773 53.59 -80.2199 -101.136 52.3063 
-80.8159 -102.709 54.7938 -80.6789 -103.984 55.8773 -80.3042 -105.192 56.965 
-81.5128 -101.478 52.8851 -80.9653 -100.977 51.426 -81.7805 -102.304 54.111 
-81.6777 -103.684 55.1002 -81.5136 -104.909 56.2635 -81.0968 -105.766 57.5373 
-82.3551 -101.246 52.0354 -81.6627 -100.626 50.5306 -82.7713 -102.005 53.346 
-82.5972 -103.427 54.3123 -82.4373 -104.814 55.4818 -82.4241 -105.54 57.0818 
-81.6812 -106.466 58.2271 -83.0118 -100.915 51.2733 -82.176 -100.245 49.9027 
-83.6973 -101.63 52.5447 -83.604 -103.004 53.5914 -83.1905 -104.619 54.8014 
-83.2716 -105.55 56.5873 -83.0734 -106.234 58.1806 -81.7 -107.743 58.6313 
-83.1924 -100.979 50.7849 -82.3357 -100.448 49.5581 -84.1258 -101.535 51.889 
-84.4485 -102.662 52.929 -84.0639 -104.312 54.1933 -83.9055 -105.604 55.9646 
-83.9661 -106.369 57.8096 -83.0594 -107.461 58.6686 -81.1885 -109.346 58.5072 
-82.9622 -101.614 50.4951 -82.221 -101.2 49.3697 -83.9262 -102.035 51.4349 
-84.6626 -102.84 52.3471 -84.7265 -104.227 53.5823 -84.5428 -105.678 55.2518 
-84.5659 -106.69 57.0518 -84.0329 -107.586 58.2347 -82.3845 -108.942 58.39 
-80.4816 -110.812 58.1996 -82.4016 -102.347 49.9694 -83.2149 -102.783 50.92 
-82.6412 -103.48 50.4917 -83.4885 -104.127 51.2213 -82.9219 -104.761 50.9072 
-84.183 -103.396 51.6999 -83.7812 -105.678 51.6165 -83.0359 -106.285 51.4345 
-84.3991 -105.073 52.0537 -84.815 -104.475 52.7966 -83.9184 -107.356 52.3326 
-82.9445 -107.767 52.1967 -84.5962 -106.904 52.7018 -84.8976 -106.343 53.5108 
-84.9223 -105.889 54.4489 -83.7061 -108.792 53.1604 -82.6779 -109.041 52.9049 
-84.5222 -108.568 53.5163 -84.8259 -108.103 54.3093 -84.9634 -107.568 55.3392 
-84.9368 -107.113 56.2575 -82.9456 -109.975 53.7752 -82.0732 -110.478 53.4356 
-83.7912 -109.715 54.1325 -84.2359 -109.367 54.84 -84.4954 -108.932 55.8851 
-84.7166 -108.534 56.8156 -84.5619 -108.072 57.576 -81.881 -111.541 54.4188 
-81.2862 -112.353 54.1892 -82.506 -110.864 54.6415 -82.9723 -110.326 55.1103 
-83.3332 -109.977 56.0261 -83.6436 -109.812 56.9365 -83.5592 -109.578 57.5168 
-83.0355 -109.218 57.9855 -81.1674 -113.671 55.4974 -80.7579 -114.332 55.4307 
-81.517 -112.819 55.5332 -81.7525 -111.944 55.6951 -81.9689 -111.386 56.2728 
-82.2201 -111.28 57.0415 -82.1449 -111.239 57.5046 -81.5974 -111.021 57.7091 
-80.9732 -110.829 57.9426 -80.9745 -115.733 56.9446 -80.5775 -115.928 56.9534 
-81.2726 -115.24 56.8977 -81.3731 -114.422 56.9213 -81.3247 -113.622 57.2247 
-81.3146 -113.272 57.7303 -81.2117 -113.2 58.0775 -80.734 -113 58.1658 
-80.0953 -112.759 58.2187 -79.6403 -112.7 58.3701 -79.2364 -114.573 59.6844 
-79.5955 -114.57 59.5961 -79.8394 -116.276 61.5818 -80.1138 -114.737 59.5407 
-80.3709 -116.398 61.6535 -80.6323 -117.917 63.6376 -80.7142 -115.089 59.5369 
-80.9286 -116.693 61.6404 -81.265 -118.172 63.8056 -81.2162 -119.686 65.3731 
-81.1246 -115.384 59.5047 -81.4012 -117.129 61.6126 -81.7644 -118.594 63.7736 
-81.8427 -120.133 65.5665 -81.8421 -121.603 67.0109 -81.3888 -115.709 59.2507 
-81.8076 -117.551 61.5356 -82.2118 -119.043 63.6415 -82.3821 -120.599 65.5033 
-82.5417 -122.08 67.2389 -82.81 -123.105 68.9643 -81.6207 -116.397 58.8205 
-82.1627 -118.165 61.1348 -82.6843 -119.533 63.2988 -82.9951 -120.93 65.1846 
-83.2695 -122.349 67.1269 -83.6058 -123.344 69.1487 -83.8026 -123.844 71.0901 
-81.6094 -117.127 58.546 -82.1555 -118.864 60.5474 -82.7801 -120.197 62.6292 
-83.3666 -121.387 64.5722 -83.8758 -122.597 66.6083 -84.2975 -123.539 68.8308 
-84.4772 -124.084 70.9728 -84.4204 -124.353 72.8908 -81.279 -117.387 58.5208 
-81.6853 -119.043 60.2282 -82.229 -120.53 62.0511 -83.0017 -121.846 63.9441 
-83.8308 -123.021 65.9503 -84.4825 -123.956 68.1197 -84.8077 -124.592 70.2996 
-84.8002 -124.976 72.3311 -84.7055 -125.148 74.1418 -80.8148 -117.247 58.5572 
-81.076 -118.663 60.1876 -81.4329 -120.195 61.8387 -82.1362 -121.772 63.6129 
-83.0911 -123.174 65.5317 -83.9344 -124.278 67.4969 -84.5045 -125.126 69.4371 
-84.7579 -125.725 71.3709 -84.7882 -126.037 73.2586 -84.8087 -126.086 74.9329 
-79.1596 -115.768 61.0231 -79.8342 -117.41 63.0417 -79.0262 -116.772 62.4684 
-80.4032 -119.178 64.8458 -79.595 -118.505 64.2987 -78.8473 -117.705 63.8 
-81.0016 -121.105 66.5433 -80.1021 -120.545 65.9855 -79.3822 -119.69 65.5159 
-78.6803 -118.735 65.0039 -81.9711 -122.785 68.6102 -80.9292 -122.401 68.0255 
-79.9734 -121.794 67.3888 -79.2305 -120.796 66.8134 -78.4107 -119.745 66.147 
-83.0777 -123.711 71.0401 -82.0701 -123.519 70.5705 -80.8755 -123.245 69.7219 
-79.8358 -122.619 68.805 -78.9533 -121.607 68.0182 -78.017 -120.608 67.1641 
-83.9005 -124.092 73.3121 -83.1029 -123.921 73.2012 -81.949 -123.855 72.3863 
-80.682 -123.733 71.0977 -79.5749 -123.177 69.9185 -78.5576 -122.244 68.9553 
-77.5577 -121.31 67.9212 -84.4299 -124.593 74.9786 -83.8742 -124.167 75.3377 
-82.8949 -124.014 74.8953 -81.6215 -124.141 73.6162 -80.3584 -124.164 72.0517 
-79.1842 -123.657 70.7272 -78.0648 -122.759 69.5847 -77.0547 -121.809 68.445 
-84.7703 -125.411 75.9818 -84.4288 -124.721 76.6873 -83.578 -124.271 76.7158 
-82.3322 -124.231 75.8497 -81.0455 -124.44 74.3389 -79.8118 -124.436 72.7172 
-78.5847 -123.932 71.2695 -77.4795 -123.076 70.0021 -76.5714 -122.116 68.8764 
-84.7931 -126.519 76.14 -84.7489 -125.775 77.1695 -84.3423 -126.774 76.9395 
-83.9862 -126.096 77.8499 -83.03 -126.891 77.1577 -84.0951 -125.03 77.7353 
-82.196 -126.399 77.931 -81.0855 -127.022 76.8964 -82.8094 -125.486 78.205 
-82.7961 -124.594 77.4837 -80.0481 -126.751 77.4255 -79.188 -127.44 76.3483 
-80.834 -126.028 78.0334 -81.3147 -125.092 77.6875 -81.3925 -124.518 76.3639 
-78.157 -127.243 76.5585 -77.4964 -128.208 75.7788 -78.9611 -126.472 77.2337 
-79.7049 -125.58 77.2985 -80.1319 -124.77 76.4495 -80.1484 -124.561 74.7474 
-76.3557 -127.765 75.916 -75.8717 -128.885 75.3902 -77.1632 -126.721 76.3222 
-78.1384 -125.845 76.4867 -78.7886 -124.981 76.0781 -78.9556 -124.539 74.8242 
-78.8441 -124.422 73.0082 -74.7669 -128.063 75.5574 -74.5668 -129.057 74.9195 
-75.3211 -126.882 75.8395 -76.3023 -125.922 75.8079 -77.1942 -125.156 75.471 
-77.5601 -124.614 74.5632 -77.6171 -124.339 73.0418 -77.5982 -123.899 71.402 
-73.7966 -128.023 74.8775 -73.7589 -128.751 74.0648 -74.0241 -127.027 75.3374 
-74.6655 -126.046 75.3146 -75.511 -125.262 74.9147 -76.0893 -124.704 74.1414 
-76.3732 -124.307 72.8939 -76.5703 -123.8 71.4281 -76.6472 -123.021 70.0778 
-73.2458 -127.678 73.7769 -73.1761 -128.209 73.0231 -73.3769 -126.983 74.3286 
-73.7285 -126.166 74.4924 -74.2902 -125.315 74.2494 -74.8304 -124.618 73.6378 
-75.2517 -124.129 72.6222 -75.6235 -123.6 71.36 -75.8723 -122.848 70.1273 
-75.9058 -121.982 68.9796 -84.6384 -126.918 74.4613 -84.3149 -127.219 75.5296 
-84.117 -127.327 73.7073 -83.3657 -127.407 74.5373 -83.2431 -127.269 72.6771 
-83.3826 -127.294 76.0479 -82.1487 -127.334 73.2141 -82.0803 -127.129 71.4978 
-82.0258 -127.453 74.7865 -81.7819 -127.351 75.9743 -80.876 -127.377 71.8151 
-80.7695 -126.954 70.463 -80.7515 -127.63 73.3493 -80.4947 -127.786 74.6398 
-80.0131 -127.649 75.6522 -79.6469 -127.283 70.652 -79.5426 -126.442 69.6201 
-79.6713 -127.88 71.9398 -79.5131 -128.302 73.3002 -79.0878 -128.424 74.4632 
-78.3948 -128.356 75.316 -78.5804 -126.786 69.6638 -78.5568 -125.759 68.6549 
-78.6212 -127.749 70.7135 -78.5812 -128.539 71.8867 -78.2419 -128.966 73.1144 
-77.6062 -129.133 74.2218 -76.79 -129.203 74.9734 -77.7326 -126.15 68.5672 
-77.7609 -125.174 67.4763 -77.6762 -127.167 69.6034 -77.5751 -128.188 70.5593 
-77.2889 -128.964 71.5124 -76.7531 -129.357 72.6481 -76.0644 -129.626 73.754 
-75.3059 -129.633 74.5012 -76.9922 -125.487 67.3693 -77.0384 -124.526 66.3213 
-76.9107 -126.439 68.4086 -76.7457 -127.444 69.351 -76.4371 -128.465 70.0848 
-75.9808 -129.168 70.8917 -75.4134 -129.522 72.0083 -74.8037 -129.697 73.061 
-74.232 -129.467 73.7293 -76.2755 -124.661 66.258 -76.3629 -123.674 65.3206 
-76.2112 -125.638 67.1667 -76.1003 -126.595 68.0718 -75.8305 -127.647 68.844 
[...]
CELL_DATA 2000
SCALARS Distance double
LOOKUP_TABLE default
140.168 140.947 140.737 141.194 141.815 141.566 142.041 141.878 142.499 
142.757 142.477 142.972 142.785 143.461 143.338 144.132 143.728 143.451 
143.981 143.781 144.519 144.385 145.273 145.142 146.055 144.703 144.444 
145.06 144.874 145.695 145.539 146.501 146.367 147.365 147.183 148.13 
145.739 145.473 146.214 146.058 147.019 146.841 147.865 147.679 148.735 
148.555 149.577 149.333 150.294 146.847 146.596 147.433 147.315 148.411 
148.271 149.368 149.139 150.212 149.993 151.084 150.848 151.877 151.566 
152.517 147.911 147.754 148.659 148.589 149.735 149.676 150.829 150.662 
151.741 151.52 152.619 152.402 153.484 153.195 154.158 153.791 154.648 
148.868 148.831 149.834 149.818 150.968 150.954 152.113 152.046 153.147 
153.008 154.09 153.922 154.991 154.769 155.725 155.402 156.211 155.824 
156.54 139.744 139.443 139.895 140.528 139.187 139.642 140.302 140.736 
141.405 138.917 139.402 140.11 140.555 141.26 141.676 142.365 138.721 
139.173 139.941 140.393 141.175 141.597 142.347 142.7 143.369 138.682 
139.083 139.893 140.299 141.151 141.575 142.429 142.779 143.507 143.744 
144.363 138.622 139.088 139.925 140.328 141.187 141.603 142.51 142.912 
143.758 144.004 144.671 144.792 145.397 138.453 138.988 139.875 140.345 
141.204 141.643 142.535 142.987 143.918 144.288 145.103 145.24 145.842 
145.879 146.47 138.418 138.87 139.805 140.275 141.179 141.638 142.557 
143.017 144 144.451 145.408 145.69 146.384 146.399 146.848 146.884 
147.419 138.667 138.974 139.894 140.274 141.199 141.635 142.605 143.069 
144.101 144.573 145.605 145.99 146.786 146.898 147.3 147.236 147.522 
147.669 148.199 139.187 140.338 139.949 140.349 141.553 141.131 141.556 
141.163 141.634 142.908 142.444 142.943 142.478 143.011 142.56 143.096 
144.326 143.905 144.508 144.011 144.617 144.082 144.673 144.138 144.679 
145.525 145.277 145.933 145.585 146.18 145.709 146.264 145.763 146.298 
145.75 146.204 146.406 146.261 146.786 146.705 147.151 146.974 147.349 
147.11 147.507 147.197 147.527 147.082 147.279 147.401 147.063 147.386 
147.253 147.508 147.486 147.699 147.738 147.999 148.006 148.195 148.025 
148.026 147.724 147.633 148.911 148.288 148.611 148.047 148.281 147.875 
148.108 147.953 148.293 148.298 148.577 148.466 148.485 148.213 148.1 
147.822 147.774 150.693 150.047 150.55 149.737 150.14 149.248 149.626 
148.893 149.402 148.957 149.501 149.116 149.419 148.899 149 148.473 
148.626 148.207 148.483 149.399 149.533 150.028 151.385 149.901 150.28 
151.693 152.302 153.862 150.386 150.766 152.181 152.729 154.36 154.884 
156.36 150.645 151.226 152.706 153.28 154.905 155.437 156.989 157.387 
158.787 150.758 151.456 153.111 153.778 155.433 155.986 157.55 158.021 
159.504 159.871 161.253 151.114 151.736 153.529 154.205 155.924 156.485 
158.027 158.54 160.026 160.518 161.919 162.287 163.483 151.619 152.215 
153.936 154.627 156.282 156.903 158.378 158.941 160.362 160.934 162.312 
162.805 163.983 164.294 165.218 151.887 152.553 154.01 154.796 156.217 
157.011 158.356 159.102 160.438 161.136 162.454 163.059 164.23 164.661 
165.601 165.847 166.608 151.832 152.523 153.695 154.515 155.681 156.596 
157.808 158.773 160.051 160.97 162.222 163.008 164.131 164.747 165.692 
166.114 166.894 167.142 167.798 149.725 151.8 150.769 150.915 154.211 
153.065 153.169 152.05 152.118 156.607 155.48 155.541 154.377 154.386 
153.248 153.256 159.023 157.87 157.983 156.78 156.829 155.6 155.601 
154.395 154.353 161.525 160.379 160.568 159.324 159.444 158.151 158.185 
156.864 156.803 155.498 155.374 163.754 162.829 163.037 161.921 162.011 
160.778 160.762 159.461 159.334 157.997 157.799 156.481 156.265 165.461 
164.807 165.015 164.169 164.212 163.17 163.07 161.896 161.693 160.433 
160.15 158.853 158.536 157.266 156.947 166.838 166.32 166.543 165.892 
165.94 165.106 164.976 163.983 163.751 162.636 162.319 161.095 160.696 
159.435 159.008 157.79 157.377 168.041 167.615 167.843 167.29 167.33 
166.631 166.468 165.648 165.367 164.464 164.111 163.082 162.623 161.462 
160.935 159.743 159.238 158.09 157.639 168.691 169.348 168.938 168.516 
169.359 169.367 169.017 168.575 167.942 168.681 169.066 168.842 168.784 
168.163 167.762 166.988 167.75 168.208 168.094 168.342 167.839 167.717 
166.965 166.637 165.836 167.013 167.293 167.148 167.491 167.124 167.224 
166.555 166.419 165.651 165.397 164.575 166.484 166.592 166.246 166.522 
166.156 166.416 165.838 165.879 165.122 165.032 164.221 164.018 163.095 
165.911 166 165.472 165.611 165.118 165.387 164.866 165.058 164.365 
164.389 163.584 163.506 162.621 162.412 161.413 165.105 165.302 164.763 
164.844 164.277 164.411 163.887 164.073 163.478 163.579 162.848 162.829 
162.001 161.87 160.947 160.7 159.716 164.062 164.382 163.909 164.092 
163.547 163.649 163.086 163.189 162.596 162.7 162.026 162.074 161.307 
161.252 160.395 160.221 159.296 159.039 158.11 168.818 168.837 169.105 
169.388 168.18 168.76 168.975 169.335 169.286 167.068 167.787 167.942 
168.55 168.491 168.867 168.556 165.872 166.585 166.764 167.401 167.457 
167.94 167.796 168.035 167.701 164.633 165.397 165.668 166.32 166.553 
167.053 167.154 167.414 167.329 167.377 167.145 163.279 164.126 164.469 
165.246 165.575 166.229 166.452 166.877 166.926 167.119 167.038 167.017 
166.776 161.916 162.768 163.123 163.978 164.307 165.127 165.345 166.015 
166.052 166.538 166.467 166.775 166.595 166.618 166.238 160.577 161.418 
161.739 162.593 162.882 163.741 163.951 164.735 164.79 165.436 165.364 
165.91 165.763 166.14 165.821 165.895 165.372 159.189 160.04 160.313 
161.172 161.416 162.272 162.478 163.298 163.417 164.125 164.112 164.705 
164.588 165.1 164.857 165.201 164.762 164.858 164.271 152.068 152.793 
152.892 153.829 153.564 153.638 154.619 154.711 155.743 154.513 154.554 
155.651 155.642 156.775 156.784 157.933 155.465 155.592 156.83 156.848 
158.08 158.017 159.252 159.16 160.313 156.306 156.516 157.803 157.99 
159.255 159.327 160.527 160.515 161.663 161.552 162.542 157.114 157.323 
158.564 158.835 160.086 160.32 161.479 161.614 162.699 162.759 163.767 
163.661 164.462 157.846 158.076 159.229 159.508 160.712 161.02 162.198 
162.425 163.514 163.654 164.688 164.742 165.638 165.465 166.077 158.386 
158.688 159.751 160.062 161.158 161.528 162.66 163.022 164.091 164.357 
165.348 165.54 166.46 166.504 167.206 166.953 167.347 158.726 159.095 
160.095 160.449 161.43 161.827 162.826 163.288 164.248 164.69 165.548 
165.941 166.747 167.073 167.787 167.876 168.346 168.07 168.274 151.113 
149.948 150.961 151.816 148.747 149.743 150.565 151.626 152.529 147.525 
148.492 149.262 150.339 151.246 152.374 153.368 146.337 147.25 147.983 
149.028 149.919 151.059 152.039 153.219 154.237 145.257 146.08 146.757 
147.747 148.592 149.72 150.673 151.852 152.85 154.056 155.074 144.27 
145.018 145.595 146.51 147.273 148.365 149.276 150.457 151.441 152.655 
153.696 154.909 155.933 143.296 144.008 144.516 145.354 146.055 147.058 
147.93 149.057 150.03 151.233 152.277 153.525 154.583 155.778 156.729 
142.372 143.03 143.524 144.299 144.978 145.895 146.739 147.771 148.718 
149.85 150.871 152.093 153.138 154.38 155.349 156.503 157.318 141.599 
142.17 142.654 143.351 144.001 144.853 145.653 146.622 147.511 148.575 
149.538 150.701 151.7 152.915 153.865 155.058 155.894 157 157.699 
141.367 141.401 141.709 142.426 141.553 141.831 142.632 142.92 143.797 
141.885 142.119 143.01 143.246 144.198 144.462 145.465 142.348 142.574 
143.543 143.747 144.739 144.955 146.007 146.253 147.33 142.859 143.087 
144.112 144.343 145.39 145.582 146.667 146.876 148.03 148.237 149.381 
143.485 143.657 144.729 144.956 146.092 146.295 147.449 147.629 148.837 
149.029 150.257 150.401 151.557 144.256 144.379 145.497 145.675 146.891 
147.081 148.321 148.488 149.74 149.91 151.167 151.322 152.513 152.603 
153.697 145.068 145.197 146.328 146.505 147.736 147.944 149.222 149.41 
150.687 150.851 152.111 152.256 153.449 153.55 154.642 154.698 155.703 
145.852 145.999 147.102 147.302 148.498 148.754 150.027 150.287 151.575 
151.788 153.044 153.203 154.386 154.487 155.565 155.62 156.603 156.63 
157.519 146.633 148.318 147.609 147.932 150.305 149.468 149.853 149.026 
149.391 152.668 151.701 152.189 151.179 151.585 150.626 151.005 155.183 
154.202 154.735 153.689 154.108 153.015 153.373 152.322 152.632 157.55 
156.635 157.076 156.158 156.547 155.544 155.855 154.778 155.037 153.942 
154.141 159.647 158.839 159.197 158.349 158.725 157.843 158.174 157.19 
157.429 156.353 156.505 155.388 155.474 161.352 160.765 161.168 160.408 
160.812 159.978 160.361 159.44 159.701 158.674 158.798 157.705 157.737 
156.623 156.614 162.629 162.297 162.794 162.252 162.662 161.982 162.331 
161.544 161.767 160.845 160.911 159.89 159.865 158.804 158.742 157.666 
157.6 163.608 163.455 164.022 163.694 164.09 163.6 163.856 163.266 
163.405 162.693 162.692 161.832 161.737 160.79 160.674 159.687 159.57 
158.559 158.451 146.14 145.873 146.597 147.799 145.583 146.343 147.608 
148.34 149.697 145.4 146.129 147.442 148.162 149.573 150.376 151.951 
145.315 146.053 147.413 148.071 149.51 150.292 151.969 152.825 154.523 
145.09 145.942 147.316 148.048 149.486 150.289 152.045 152.942 154.807 
155.531 157.106 144.705 145.59 146.93 147.803 149.246 150.197 151.995 
153.04 155.004 155.873 157.552 158.06 159.311 144.455 145.198 146.516 
147.363 148.861 149.871 151.716 152.89 154.873 155.942 157.61 158.35 
159.553 160.006 160.928 144.438 145.039 146.338 147.072 148.609 149.551 
151.41 152.566 154.504 155.638 157.227 158.129 159.251 159.934 160.781 
161.323 162.079 144.514 145.058 146.296 146.976 148.442 149.341 151.095 
152.221 154.037 155.164 156.647 157.575 158.635 159.407 160.243 160.935 
161.695 162.298 163.001 145.052 143.291 144.343 144.707 141.541 142.534 
142.802 143.924 144.33 139.783 140.762 140.895 141.942 142.216 143.482 
144.005 137.895 138.917 138.962 139.961 140.004 141.211 141.577 143.104 
143.76 136.088 136.997 137.026 137.97 137.899 138.934 139.065 140.501 
141.073 142.805 143.508 134.677 135.335 135.367 136.15 136.18 136.986 
137.095 138.14 138.617 140.115 140.905 142.565 143.262 133.642 134.098 
134.121 134.732 134.909 135.575 135.867 136.582 137.093 138.084 138.892 
140.214 141.094 142.48 143.181 132.918 133.211 133.237 133.691 133.926 
134.533 134.954 135.622 136.197 136.953 137.712 138.66 139.53 140.641 
141.45 142.603 143.277 132.504 132.666 132.733 133.011 133.261 133.723 
134.158 134.783 135.347 136.094 136.777 137.639 138.404 139.346 140.093 
141.086 141.766 142.804 143.421 132.362 132.372 132.44 132.648 132.566 
132.586 132.876 132.871 133.205 132.945 132.898 133.279 133.238 133.612 
133.585 134.076 133.616 133.404 133.822 133.745 134.19 134.099 134.573 
134.577 135.224 134.676 134.249 134.643 134.428 134.949 134.789 135.299 
135.174 135.806 135.852 136.659 135.961 135.435 135.767 135.401 135.917 
135.68 136.253 136.033 136.658 136.556 137.357 137.415 138.298 137.188 
136.702 136.962 136.553 136.969 136.699 137.265 137.056 137.686 137.507 
138.232 138.184 139.027 139.083 139.935 138.268 137.845 138.074 137.677 
138.015 137.717 138.233 138.051 138.7 138.543 139.233 139.1 139.848 
139.822 140.639 140.697 141.535 139.26 138.878 139.128 138.747 139.089 
138.754 139.256 139.033 139.707 139.556 140.284 140.118 140.838 140.701 
141.471 141.435 142.271 142.313 143.162 139.882 140.938 140.195 139.824 
142.284 141.407 141.065 140.225 139.871 143.936 142.926 142.638 141.654 
141.346 140.403 140.124 145.843 144.734 144.48 143.394 143.143 142.079 
141.836 140.824 140.63 147.914 146.755 146.535 145.369 145.143 144.003 
143.782 142.68 142.462 141.425 141.23 150.095 148.919 148.778 147.553 
147.363 146.121 145.901 144.703 144.478 143.34 143.1 142.028 141.802 
152.318 151.169 151.1 149.885 149.754 148.457 148.248 146.935 146.712 
145.453 145.229 144.015 143.774 142.633 142.44 154.44 153.383 153.335 
152.201 152.092 150.859 150.661 149.347 149.111 147.789 147.563 146.262 
146.025 144.752 144.529 143.358 143.224 156.339 155.415 155.374 154.351 
154.238 153.113 152.925 151.707 151.478 150.197 149.946 148.634 148.359 
147.051 146.782 145.533 145.33 144.193 144.089 144.939 146.227 145.939 
146.753 147.704 147.351 148.252 147.942 148.952 149.341 148.955 149.935 
149.585 150.742 150.419 151.663 151.015 150.685 151.76 151.396 152.594 
152.29 153.597 153.292 154.54 152.56 152.348 153.491 153.233 154.397 
154.122 155.296 155.075 156.197 155.967 156.946 153.965 153.828 154.96 
154.835 155.958 155.778 156.811 156.604 157.562 157.376 158.242 158.043 
158.802 155.267 155.181 156.284 156.2 157.287 157.171 158.16 157.98 
158.888 158.676 159.533 159.285 160.049 159.766 160.434 156.395 156.402 
157.489 157.457 158.508 158.422 159.382 159.237 160.119 159.949 160.794 
160.589 161.358 161.066 161.722 161.373 161.943 157.312 157.41 158.464 
158.537 159.543 159.546 160.452 160.375 161.182 161.07 161.812 161.705 
162.386 162.244 162.842 162.611 163.132 162.813 163.268 137.781 137.442 
137.112 136.204 137.485 136.926 135.937 135.545 134.729 137.74 137.138 
136.207 135.565 134.736 134.293 133.695 137.866 137.39 136.56 135.978 
135.21 134.611 133.967 133.495 132.999 137.935 137.481 136.681 136.235 
135.5 135.057 134.372 133.882 133.21 132.8 132.307 138.177 137.647 
136.859 136.346 135.597 135.197 134.5 134.118 133.37 132.952 132.288 
132.053 131.751 138.516 137.992 137.266 136.663 135.919 135.365 134.667 
134.201 133.503 133.052 132.409 132.063 131.72 131.644 131.669 138.839 
138.367 137.739 137.162 136.478 135.837 135.142 134.525 133.871 133.315 
132.776 132.322 132.033 131.778 131.79 131.758 131.939 139.188 138.734 
138.197 137.674 137.089 136.469 135.827 135.141 134.516 133.863 133.391 
132.86 132.627 132.254 132.24 132.032 132.143 132.084 132.234 137.807 
136.265 137.2 137.532 134.785 135.662 136.116 137.052 137.497 133.641 
134.295 134.776 135.72 136.35 137.191 137.711 132.839 133.282 133.642 
134.483 135.206 136.129 136.793 137.534 138.064 132.231 132.565 132.848 
133.483 134.178 135.06 135.836 136.645 137.227 137.905 138.405 131.864 
132.09 132.447 132.871 133.54 134.212 135.026 135.768 136.436 137.085 
137.595 138.237 138.768 131.852 131.94 132.335 132.615 133.234 133.735 
134.494 135.114 135.815 136.394 136.959 137.509 138.065 138.681 139.295 
132.072 132.074 132.387 132.561 133.046 133.439 134.078 134.633 135.303 
135.867 136.477 136.99 137.591 138.116 138.758 139.321 139.948 132.32 
132.302 132.541 132.625 133.004 133.252 133.798 134.231 134.887 135.405 
136.065 136.573 137.221 137.725 138.385 138.893 139.525 140.016 140.569 
138.697 138.43 138.988 139.867 138.318 138.772 139.654 140.191 141.085 
138.452 138.753 139.631 140.078 141.024 141.494 142.428 138.775 138.986 
139.851 140.194 141.174 141.557 142.479 142.879 143.781 139.128 139.339 
140.164 140.465 141.388 141.754 142.637 142.978 143.771 144.173 144.966 
139.514 139.706 140.514 140.761 141.58 141.906 142.73 143.095 143.879 
144.213 144.956 145.306 146.01 140.019 140.151 140.977 141.148 141.937 
142.122 142.894 143.176 144.015 144.353 145.193 145.461 146.238 146.436 
147.17 140.583 140.68 141.469 141.634 142.429 142.561 143.31 143.458 
144.274 144.549 145.458 145.764 146.639 146.844 147.669 147.797 148.651 
141.109 141.191 141.885 142.065 142.819 143.017 143.756 143.917 144.669 
144.878 145.723 146.028 146.917 147.222 148.085 148.327 149.194 149.391 
150.298 144.884 144.082 144.044 143.16 143.279 143.233 142.344 142.309 
141.448 142.524 142.44 141.526 141.475 140.556 140.563 139.678 141.891 
141.728 140.775 140.657 139.658 139.608 138.625 138.688 137.771 141.386 
141.156 140.197 139.979 138.991 138.787 137.795 137.683 136.787 136.813 
136.028 140.995 140.721 139.822 139.527 138.641 138.322 137.445 137.122 
136.304 136.082 135.39 135.31 134.712 140.779 140.455 139.653 139.294 
138.497 138.138 137.358 136.984 136.209 135.853 135.146 134.905 134.316 
134.203 133.711 140.724 140.38 139.668 139.265 138.51 138.101 137.343 
136.958 136.188 135.813 135.053 134.741 134.091 133.907 133.411 133.328 
132.965 140.74 140.405 139.742 139.349 138.623 138.188 137.445 137.009 
136.276 135.84 135.111 134.698 134.042 133.746 133.254 133.103 132.769 
132.715 132.504 
POINT_DATA 1002
SCALARS Distance double
LOOKUP_TABLE default
140.541 139.621 140.346 141.33 141.169 141.714 142.203 142.077 142.595 
143.192 143.157 143.041 143.561 144.233 144.978 144.16 143.989 144.633 
145.369 146.222 146.97 145.191 144.937 145.836 146.624 147.516 148.362 
149.06 146.305 145.987 147.157 148.072 148.903 149.79 150.581 151.242 
147.513 147.058 148.494 149.591 150.447 151.289 152.175 152.879 153.432 
148.703 147.984 149.768 150.948 151.952 152.826 153.744 154.534 155.062 
155.452 149.814 148.814 150.988 152.152 153.242 154.248 155.198 156.032 
156.611 156.96 157.209 139.269 140.072 138.992 139.866 138.706 140.972 
139.639 138.409 140.83 141.983 139.475 138.283 140.714 141.983 143.081 
139.496 138.271 140.712 142.031 143.278 144.168 139.502 138.096 140.781 
142.071 143.431 144.571 145.278 139.37 137.897 140.757 142.079 143.461 
144.867 145.874 146.381 139.346 138.014 140.701 142.082 143.515 145.029 
146.332 146.949 147.227 139.563 138.424 140.776 142.123 143.613 145.178 
146.612 147.417 147.543 147.808 139.577 140.711 140.729 141.956 141.977 
142.005 143.4 143.35 143.475 143.555 144.967 144.664 145.159 145.219 
145.25 146.202 145.712 146.631 146.754 146.825 146.826 146.873 146.638 
147.286 147.54 147.758 147.945 147.813 147.686 147.887 147.606 147.639 
147.924 148.321 148.324 147.949 149.297 149.553 148.857 148.388 148.306 
148.657 148.762 148.379 147.987 151.295 151.236 151.062 150.506 149.991 
149.915 149.939 149.566 149.064 148.836 150.551 150.702 152.905 151.079 
153.302 155.383 151.66 153.811 155.971 157.728 152.087 154.375 156.534 
158.465 160.17 152.373 154.876 157.052 159.068 160.981 162.611 152.851 
155.369 157.53 159.503 161.509 163.272 164.572 153.294 155.666 157.815 
159.793 161.794 163.638 165.043 166.044 153.307 155.433 157.554 159.701 
161.823 163.75 165.306 166.457 167.328 152.97 154.81 156.805 159.067 
161.39 163.456 165.19 166.584 167.645 168.426 151.946 154.348 153.218 
156.712 155.567 154.376 159.174 158.065 156.859 155.57 161.797 160.738 
159.533 158.164 156.679 164.085 163.234 162.069 160.689 159.151 157.569 
165.772 165.196 164.214 162.934 161.461 159.841 158.2 167.148 166.715 
165.914 164.809 163.517 161.984 160.264 158.561 168.373 168.011 167.267 
166.228 165.072 163.749 162.139 160.404 158.749 169.277 169.167 169.602 
169.336 169.143 168.55 168.724 168.182 168.47 167.471 167.726 167.348 
167.839 167.213 166.215 166.812 166.886 166.914 166.626 165.833 164.911 
166.086 166.487 165.846 165.712 165.18 164.356 163.401 165.431 165.82 
164.904 164.606 164.285 163.633 162.768 161.699 164.658 164.84 164.201 
163.727 163.332 162.823 162.092 161.147 159.997 163.65 163.696 163.419 
163.021 162.512 161.948 161.312 160.519 159.519 158.373 168.754 169.29 
168.472 168.524 167.549 169.117 167.294 166.365 168.014 168.348 166.103 
165.151 166.901 167.464 167.582 164.941 163.808 165.962 166.801 167.204 
167.208 163.63 162.402 164.837 165.929 166.631 166.95 166.962 162.273 
161.076 163.469 164.617 165.492 166.04 166.417 166.41 160.907 159.75 
162.04 163.139 164.1 164.781 165.278 165.598 165.458 159.464 158.354 
160.57 161.639 162.657 163.497 164.061 164.428 164.55 164.28 152 
153.709 152.674 154.534 153.487 155.618 155.645 154.41 156.778 157.931 
156.725 155.265 158.122 159.342 160.485 157.562 156.095 159.125 160.52 
161.722 162.784 158.313 156.935 159.819 161.318 162.605 163.774 164.745 
158.982 157.623 160.394 161.925 163.355 164.585 165.708 166.463 159.461 
158.075 160.813 162.269 163.788 165.133 166.33 167.344 167.816 150.107 
150.78 148.963 149.49 147.793 151.43 148.199 146.588 150.101 152.21 
146.967 145.46 148.789 150.871 153.041 145.82 144.498 147.489 149.504 
151.649 153.866 144.744 143.574 146.227 148.108 150.221 152.456 154.769 
143.713 142.608 145.098 146.843 148.845 151.027 153.352 155.63 142.775 
141.739 144.091 145.748 147.631 149.684 151.905 154.16 156.258 142 
141.064 143.191 144.723 146.491 148.416 150.517 152.682 154.756 156.669 