# vtk DataFile Version 4.0
vtk output
ASCII
DATASET POLYDATA
POINTS 1002 float
-75.1255 -107.571 56.0402 -75.4307 -106.597 55.068 -76.0724 -106.911 55.5625 
-75.7254 -108.076 56.4555 -76.7171 -107.349 56.1067 -74.707 -109.126 56.668 
-76.2537 -108.683 56.8533 -77.2977 -107.87 56.6978 -75.1883 -109.878 56.9213 
-74.1093 -111.095 57.2368 -76.6748 -109.386 57.309 -77.8877 -108.607 57.3571 
-75.5513 -110.659 57.2648 -74.5032 -111.954 57.6344 -73.587 -113.042 58.3699 
-77.0224 -110.452 57.7197 -78.2655 -109.837 57.7068 -75.8359 -111.604 57.7679 
-74.8415 -112.875 58.2472 -74.0383 -113.987 59.0961 -73.3928 -115.039 59.8285 
-77.0435 -111.876 57.724 -77.924 -111.405 57.2748 -76.1087 -112.839 58.2709 
-75.2342 -114.022 58.9582 -74.5038 -115.122 59.8336 -73.9092 -116.241 60.5 
-73.398 -117.276 60.9601 -76.7645 -113.148 57.5022 -77.2033 -112.745 56.5796 
-76.3406 -113.998 58.7017 -75.7617 -115.198 59.6916 -75.1015 -116.332 60.5171 
-74.4934 -117.406 61.1654 -73.938 -118.461 61.5869 -73.4752 -119.183 62.171 
-76.8824 -114.084 57.8119 -77.0806 -113.626 56.6681 -76.7716 -114.891 59.3274 
-76.4142 -116.127 60.5103 -75.81 -117.368 61.2591 -75.2207 -118.334 61.9544 
-74.6749 -119.221 62.5562 -74.1289 -119.981 63.1228 -73.6903 -120.426 63.8695 
-77.5985 -114.971 58.804 -77.6958 -114.326 57.6829 -77.5249 -115.839 60.1953 
-77.1866 -117.007 61.3366 -76.5513 -118.253 62.0361 -75.9454 -119.173 62.7579 
-75.4971 -119.841 63.6061 -75.0153 -120.512 64.2864 -74.4733 -121.092 64.8786 
-74.0043 -121.48 65.5051 -78.3609 -115.999 59.9225 -78.4425 -115.17 58.9556 
-78.2208 -116.962 60.9981 -77.8822 -118.007 61.9746 -77.3062 -119.088 62.7076 
-76.6859 -119.994 63.4458 -76.2305 -120.634 64.3766 -75.8507 -121.221 65.1874 
-75.3684 -121.823 65.7281 -74.8123 -122.299 66.2101 -74.2949 -122.611 66.7079 
-76.205 -106.063 54.1945 -76.9413 -106.379 54.7354 -77.1662 -105.479 53.4076 
-77.9697 -105.842 53.9222 -78.1248 -104.682 52.9051 -77.64 -106.838 55.3579 
-78.9562 -105.216 53.2453 -78.899 -104.032 52.2617 -78.6569 -106.439 54.4465 
-78.3186 -107.418 56.1285 -79.7728 -104.747 52.4493 -79.6591 -103.836 51.1797 
-79.5855 -105.958 53.5632 -79.3088 -107.122 55.2781 -79.0617 -108.254 57.0982 
-80.6368 -104.312 51.6674 -80.6221 -103.528 50.2319 -80.4786 -105.331 52.837 
-80.1745 -106.584 54.3982 -80.0362 -107.966 56.5634 -79.3622 -109.617 57.5931 
-81.5793 -103.57 51.1376 -81.5791 -102.791 49.581 -81.4988 -104.541 52.4168 
-81.1581 -105.778 53.7297 -80.8553 -107.396 55.8212 -80.2301 -109.364 57.3289 
-78.6821 -111.296 56.9948 -82.2436 -103.02 50.3554 -82.2245 -102.368 48.6703 
-82.2859 -103.96 51.9284 -82.1254 -105.148 53.2702 -81.7141 -106.783 55.0288 
-80.9993 -108.941 56.7482 -79.4941 -111.109 56.8471 -77.7816 -112.635 56.152 
-82.519 -103.295 49.134 -82.5288 -102.781 47.5541 -82.5419 -104.122 50.9102 
-82.5579 -105.167 52.6227 -82.3164 -106.58 54.3261 -81.674 -108.585 55.9476 
-80.3737 -110.803 56.5164 -78.6818 -112.445 56.0796 -77.667 -113.411 56.2661 
-82.5855 -104.165 48.0783 -82.5918 -103.703 46.7881 -82.5378 -104.897 49.723 
-82.561 -105.79 51.64 -82.4936 -106.888 53.5483 -82.0799 -108.463 55.1387 
-81.1152 -110.463 55.961 -79.6839 -112.186 55.9775 -78.5186 -113.218 56.182 
-78.2029 -114.036 57.3195 -82.5353 -104.99 47.2034 -82.521 -105.622 48.5241 
-82.384 -106.282 47.9666 -82.4704 -107 49.3851 -82.2106 -107.521 48.911 
-82.528 -106.463 50.3115 -82.3955 -108.362 50.4165 -82.054 -109.044 49.9464 
-82.5847 -107.936 51.2033 -82.5494 -107.41 52.3804 -82.1203 -110.11 51.4352 
-81.8678 -111.063 51.0711 -82.4079 -109.424 51.9817 -82.4699 -108.942 52.9658 
-82.308 -108.593 54.168 -81.72 -112.247 52.5589 -81.4797 -113.074 52.3306 
-81.8528 -111.276 52.7724 -81.9586 -110.522 53.2923 -81.8696 -110.204 54.2763 
-81.5655 -110.27 55.2535 -81.3418 -114.133 53.9732 -80.7911 -114.438 53.8951 
-81.488 -113.431 54.0498 -81.3653 -112.539 54.2273 -81.1749 -111.964 54.7238 
-80.8649 -111.904 55.321 -80.3579 -112.065 55.7284 -80.8469 -115.43 55.6256 
-80.0423 -115.381 55.6892 -81.4066 -115.282 55.6585 -81.3808 -114.738 55.8797 
-80.9213 -114.079 56.241 -80.3795 -113.681 56.4694 -79.8478 -113.473 56.4368 
-79.2329 -113.303 56.3049 -80.2979 -116.595 57.2071 -79.5888 -116.52 57.2982 
-81.0944 -116.682 57.16 -81.54 -116.477 57.3916 -81.3007 -115.98 57.8757 
-80.5869 -115.521 58.1835 -79.8691 -115.116 58.0801 -79.3163 -114.621 57.8067 
-78.7891 -114.206 57.5538 -80.0118 -117.973 58.4975 -79.5007 -117.915 58.5117 
-80.669 -118.047 58.4471 -81.3365 -117.892 58.5696 -81.6164 -117.424 58.9799 
-81.2382 -116.982 59.4014 -80.4682 -116.736 59.5074 -79.7785 -116.38 59.4002 
-79.3009 -115.837 59.2871 -78.8879 -115.393 59.1469 -78.9188 -116.88 60.5521 
-79.319 -117.295 60.6385 -79.1954 -118.823 61.7846 -79.8202 -117.787 60.644 
-79.8094 -119.246 61.8882 -79.7638 -120.32 63.1409 -80.5165 -118.095 60.6375 
-80.6098 -119.545 61.986 -80.6542 -120.592 63.4381 -80.6847 -121.477 64.915 
-81.336 -118.152 60.6218 -81.493 -119.63 62.0661 -81.4876 -120.819 63.6858 
-81.3983 -121.739 65.2108 -81.2091 -122.906 66.7095 -81.8411 -118.426 60.4155 
-82.2213 -119.819 62.0316 -82.2857 -121.189 63.7422 -81.9387 -122.186 65.2961 
-81.6093 -123.277 66.8941 -81.384 -124.265 68.6636 -81.6481 -119.052 60.0413 
-82.3208 -120.41 61.779 -82.8941 -121.831 63.5271 -82.7311 -122.882 65.0505 
-82.1613 -123.802 66.7651 -81.8382 -124.677 68.8747 -81.804 -124.879 70.889 
-81.0123 -119.502 59.7699 -81.7313 -120.975 61.4201 -82.7076 -122.395 63.1312 
-83.2666 -123.51 64.5651 -83.0284 -124.334 66.2135 -82.474 -125.087 68.5345 
-82.1819 -125.426 70.874 -82.1613 -125.088 72.5819 -80.4017 -119.538 59.6699 
-81.0107 -121.072 61.1158 -81.8567 -122.476 62.7192 -82.7433 -123.706 64.0941 
-83.2203 -124.67 65.5083 -83.0072 -125.407 67.6485 -82.4824 -125.872 70.1743 
-82.1828 -125.891 72.1512 -82.1006 -125.557 73.3934 -79.9051 -119.401 59.6042 
-80.4368 -120.861 60.8822 -81.0215 -122.2 62.3567 -81.6738 -123.514 63.7283 
-82.376 -124.741 64.9867 -82.745 -125.661 66.6982 -82.5197 -126.215 69.0204 
-82.1268 -126.479 71.2477 -81.9654 -126.511 72.8056 -81.893 -126.374 73.7919 
-78.7179 -117.914 61.4125 -78.9385 -119.712 62.667 -78.4234 -118.897 62.3158 
-79.6473 -121.079 64.3635 -78.7438 -120.514 63.7755 -78.0514 -119.82 63.2363 
-80.4485 -122.564 66.3444 -79.4537 -122.053 65.7531 -78.5249 -121.405 64.95 
-77.5763 -120.73 64.1359 -80.7558 -124.015 68.3359 -79.8803 -123.7 67.7962 
-79.0373 -123.124 66.9737 -78.095 -122.373 65.9669 -77.0563 -121.54 65.0872 
-81.2141 -124.484 70.7076 -80.264 -124.376 70.1355 -79.3552 -124.326 69.2135 
-78.5265 -123.932 68.0319 -77.5202 -123.203 66.8563 -76.5835 -122.234 65.9538 
-81.8993 -124.313 72.8712 -81.1478 -123.944 72.708 -80.1001 -124.201 71.9205 
-79.0794 -124.485 70.6155 -77.992 -124.329 69.0592 -76.925 -123.772 67.5973 
-76.0937 -122.85 66.5429 -82.0874 -124.585 74.0037 -81.7354 -123.812 74.4201 
-80.9196 -123.785 74.2006 -79.8067 -124.232 73.1925 -78.5483 -124.461 71.7078 
-77.2969 -124.414 69.9248 -76.2909 -124.087 68.2068 -75.5154 -123.301 67.0197 
-81.8208 -125.485 74.4125 -81.5751 -124.562 75.0624 -81.0206 -124.14 75.3306 
-80.0922 -124.302 74.783 -78.8873 -124.465 73.7009 -77.621 -124.423 72.3407 
-76.5114 -124.423 70.5566 -75.6304 -124.231 68.7682 -74.9084 -123.552 67.5312 
-81.6156 -126.908 74.4871 -81.2348 -126.013 75.1017 -80.9887 -127.483 75.0339 
-80.3057 -126.672 75.5937 -79.853 -128.008 75.2498 -80.6936 -125.224 75.6758 
-79.0158 -127.394 75.7984 -78.3354 -128.61 75.3247 -79.5234 -126.034 75.9677 
-79.914 -124.956 75.6078 -77.3668 -128.16 75.9069 -76.7897 -129.207 75.4167 
-78.0921 -126.84 76.0402 -78.5723 -125.792 75.537 -78.8415 -124.969 74.771 
-75.7636 -128.665 75.6975 -75.5637 -129.61 74.9593 -76.4195 -127.494 75.8683 
-77.1894 -126.519 75.3272 -77.5643 -125.633 74.5431 -77.6698 -124.771 73.7788 
-74.7053 -128.926 74.6386 -74.5964 -129.916 73.6886 -75.0455 -127.82 75.0462 
-75.8556 -127.016 74.6972 -76.5318 -126.285 74.0516 -76.6709 -125.285 73.539 
-76.5921 -124.572 72.4871 -73.7986 -129.195 73.1512 -73.4383 -130.085 72.3497 
-74.1043 -128.063 73.7212 -74.6817 -127.235 73.6587 -75.459 -126.686 73.1576 
-75.8257 -125.856 72.7879 -75.7361 -124.96 72.1471 -75.6228 -124.523 70.6278 
-72.5279 -129.356 72.0779 -72.0587 -130.002 71.504 -72.9605 -128.325 72.636 
-73.4 -127.349 72.8237 -74.0471 -126.723 72.437 -74.6398 -126.091 71.9395 
-74.8038 -125.285 71.4312 -74.7489 -124.659 70.3866 -74.7859 -124.197 68.8898 
-71.2657 -129.327 71.4489 -70.9417 -129.811 70.9172 -71.6361 -128.441 71.9787 
-71.9671 -127.395 72.3205 -72.4419 -126.584 72.1133 -73.1173 -125.976 71.5181 
-73.6301 -125.324 70.8849 -73.8259 -124.693 70.0424 -73.9512 -124.119 68.8856 
-74.1307 -123.433 67.7154 -81.833 -127.36 73.5988 -81.6173 -128.017 74.3175 
-81.6875 -128.143 73.1146 -81.3206 -128.777 73.6799 -81.1321 -128.535 72.0315 
-80.8117 -128.5 74.7011 -80.4737 -129.072 72.2779 -80.1763 -128.482 70.6431 
-80.2209 -129.08 73.8534 -79.3653 -128.83 74.7423 -79.3822 -128.975 70.6902 
-79.1516 -128.162 69.5536 -79.3268 -129.332 72.319 -78.7289 -129.244 73.8373 
-77.806 -129.247 74.7713 -78.3281 -128.602 69.5742 -78.1553 -127.755 68.6599 
-78.4132 -129.389 70.6573 -78.0945 -129.607 72.188 -77.3716 -129.58 73.6299 
-76.4865 -129.741 74.5577 -77.2617 -128.088 68.6107 -77.1824 -127.297 67.5558 
-77.4219 -129.115 69.3808 -77.3184 -129.843 70.296 -76.7702 -129.955 71.6141 
-76.0624 -130.065 72.8606 -75.3267 -130.223 73.5787 -76.328 -127.62 67.3799 
-76.3968 -126.834 66.3276 -76.4129 -128.613 68.1886 -76.3571 -129.565 68.8101 
-75.8858 -129.999 69.668 -75.2763 -130.204 70.7729 -74.7211 -130.508 71.7319 
-74.0891 -130.532 72.256 -75.7051 -127.199 66.056 -75.8754 -126.385 65.1601 
-75.649 -128.118 66.8406 -75.49 -129.001 67.5017 -74.9897 -129.537 68.2658 
-74.4039 -129.9 69.1476 -73.946 -130.365 69.9983 -73.3749 -130.629 70.7603 
-72.6615 -130.457 71.2793 -75.3019 -126.671 64.8476 -75.5283 -125.894 64.0355 
-75.1227 -127.527 65.5684 -74.8381 -128.364 66.2101 -74.2766 -128.942 66.9728 
[...]
CELL_DATA 2000
SCALARS Distance double
LOOKUP_TABLE default
141.296 142.134 141.9 142.361 143.038 142.779 143.251 143.069 143.655 
144.034 143.697 144.164 143.978 144.605 144.465 145.19 145.211 144.765 
145.211 144.947 145.638 145.481 146.314 146.162 147.059 146.269 145.929 
146.383 146.11 146.871 146.661 147.607 147.416 148.424 148.218 149.209 
146.914 146.814 147.382 147.291 148.175 148.027 149.047 148.836 149.876 
149.654 150.656 150.417 151.332 147.552 147.483 148.31 148.311 149.405 
149.361 150.472 150.306 151.323 151.104 152.052 151.826 152.697 152.442 
153.222 148.658 148.473 149.57 149.476 150.737 150.664 151.846 151.698 
152.702 152.493 153.394 153.172 154.017 153.767 154.536 154.245 154.942 
150.118 149.903 151.096 150.948 152.188 152.07 153.197 153.046 154.01 
153.815 154.69 154.479 155.323 155.083 155.865 155.568 156.264 155.928 
156.548 140.871 140.607 141.043 141.703 140.399 140.837 141.51 141.94 
142.63 140.159 140.643 141.37 141.799 142.537 142.937 143.682 139.962 
140.425 141.19 141.651 142.444 142.9 143.765 144.147 144.945 139.877 
140.285 141.01 141.452 142.223 142.754 143.714 144.27 145.197 145.491 
146.096 139.731 140.172 140.852 141.282 141.994 142.493 143.445 144.136 
145.208 145.714 146.353 146.443 146.716 139.475 139.934 140.637 141.114 
141.864 142.315 143.228 143.861 144.992 145.649 146.452 146.652 146.884 
146.858 147.128 139.401 139.728 140.481 140.93 141.787 142.244 143.184 
143.718 144.811 145.452 146.387 146.731 147.104 147.057 147.244 147.338 
147.948 139.691 139.843 140.612 140.922 141.836 142.252 143.238 143.714 
144.742 145.305 146.245 146.685 147.224 147.298 147.534 147.525 148.001 
148.33 149.256 140.196 141.321 140.85 141.113 142.507 142.052 142.392 
141.925 142.337 143.8 143.305 143.744 143.286 143.753 143.271 143.757 
145.372 144.719 145.117 144.636 145.095 144.67 145.137 144.706 145.216 
147.15 146.417 146.668 146.02 146.313 145.869 146.239 145.932 146.374 
146.089 146.555 148.716 148.171 148.467 147.697 147.905 147.169 147.453 
146.967 147.361 147.074 147.444 147.209 147.438 149.887 149.594 150.132 
149.55 149.941 149.067 149.396 148.518 148.905 148.233 148.588 148.084 
148.268 147.857 147.877 151.017 150.754 151.452 151.124 151.731 151.131 
151.564 150.704 151.049 150.128 150.436 149.567 149.786 148.99 149.13 
148.429 148.563 152.386 152.023 152.745 152.438 153.12 152.743 153.251 
152.673 153.002 152.238 152.491 151.61 151.842 150.887 151.126 150.165 
150.458 149.558 149.922 151.187 151.733 152.097 153.367 152.383 152.697 
153.99 154.296 155.473 153.039 153.341 154.625 154.959 156.183 156.39 
157.509 153.601 153.917 155.16 155.566 156.825 157.107 158.228 158.424 
159.548 154.04 154.386 155.615 156.074 157.416 157.761 158.915 159.1 
160.178 160.43 161.542 154.258 154.717 155.956 156.508 157.958 158.407 
159.669 159.832 160.879 161.04 162.145 162.396 163.392 154.152 154.781 
155.997 156.713 158.146 158.838 160.153 160.534 161.55 161.732 162.721 
162.975 163.961 164.129 164.815 153.824 154.549 155.72 156.54 157.824 
158.713 159.931 160.678 161.657 162.147 162.999 163.391 164.234 164.552 
165.219 165.314 165.698 153.468 154.185 155.301 156.111 157.244 158.137 
159.214 160.118 161.083 161.875 162.72 163.354 164.106 164.595 165.223 
165.529 165.982 166.056 166.369 151.351 153.524 152.418 152.379 155.547 
154.528 154.487 153.443 153.401 157.588 156.543 156.506 155.47 155.425 
154.4 154.314 159.753 158.707 158.762 157.606 157.582 156.438 156.349 
155.251 155.098 161.787 160.879 161.01 159.939 159.935 158.734 158.622 
157.381 157.193 156.008 155.797 163.499 162.747 162.798 161.969 161.943 
160.979 160.851 159.694 159.451 158.192 157.91 156.699 156.436 164.777 
164.199 164.119 163.47 163.392 162.692 162.597 161.718 161.477 160.367 
160.008 158.81 158.447 157.284 156.952 165.626 165.205 165.087 164.581 
164.486 163.946 163.871 163.222 163.007 162.141 161.738 160.715 160.262 
159.192 158.766 157.689 157.297 166.323 165.938 165.851 165.422 165.335 
164.905 164.815 164.32 164.088 163.424 162.997 162.178 161.678 160.785 
160.31 159.362 158.911 157.923 157.51 166.744 167.2 166.741 166.233 
167.398 167.095 166.577 166.174 165.706 167.317 167.177 166.735 166.438 
165.948 165.618 165.156 167.127 167.067 166.687 166.496 165.983 165.731 
165.175 164.929 164.355 166.76 166.804 166.378 166.322 165.79 165.643 
165.029 164.813 164.149 163.937 163.243 166.105 166.257 165.732 165.809 
165.25 165.288 164.724 164.613 163.951 163.703 162.975 162.727 161.981 
165.243 165.467 164.919 165.032 164.447 164.588 164.078 164.176 163.59 
163.476 162.732 162.479 161.692 161.442 160.664 164.271 164.555 164.068 
164.207 163.621 163.748 163.203 163.392 162.837 162.937 162.223 162.132 
161.306 161.12 160.303 160.097 159.293 163.345 163.624 163.222 163.381 
162.823 162.924 162.318 162.47 161.88 162.058 161.406 161.471 160.709 
160.636 159.835 159.689 158.894 158.703 157.908 167.097 167.666 167.544 
167.649 167.676 167.954 168.135 167.954 167.808 166.905 167.597 167.853 
168.114 167.973 167.848 167.579 165.719 166.548 166.869 167.482 167.476 
167.707 167.507 167.504 167.303 164.514 165.307 165.662 166.395 166.568 
167.037 166.986 167.227 167.115 167.195 166.975 163.267 164.066 164.403 
165.206 165.472 166.1 166.127 166.545 166.449 166.779 166.628 166.744 
166.377 161.992 162.768 163.078 163.914 164.186 164.94 164.973 165.532 
165.381 165.88 165.731 166.149 165.887 165.999 165.503 160.835 161.53 
161.819 162.591 162.839 163.598 163.632 164.253 164.091 164.66 164.51 
165.083 164.909 165.296 164.914 165.009 164.463 159.78 160.421 160.658 
161.361 161.554 162.26 162.284 162.897 162.762 163.334 163.214 163.821 
163.714 164.229 163.961 164.258 163.82 163.931 163.459 153.634 154.43 
154.507 155.457 155.158 155.285 156.271 156.366 157.342 155.954 156.039 
157.066 157.172 158.18 158.256 159.235 156.805 156.877 157.904 158.008 
159.069 159.136 160.147 160.17 161.113 157.489 157.644 158.605 158.791 
159.846 160.019 161.071 161.133 162.086 162.044 162.858 158.048 158.232 
159.178 159.395 160.413 160.677 161.724 161.945 162.897 162.976 163.764 
163.687 164.301 158.615 158.789 159.757 159.963 160.985 161.218 162.235 
162.478 163.424 163.622 164.431 164.494 165.115 164.999 165.431 159.097 
159.31 160.206 160.48 161.447 161.746 162.704 162.96 163.855 164.077 
164.935 165.093 165.835 165.796 166.289 166.041 166.285 159.414 159.672 
160.452 160.773 161.618 162.018 162.891 163.278 164.102 164.423 165.247 
165.538 166.367 166.507 167.123 166.946 167.211 166.799 166.808 152.645 
151.44 152.5 153.412 150.256 151.279 152.163 153.235 154.126 149.106 
150.078 150.912 151.974 152.885 153.965 154.912 147.999 148.907 149.684 
150.717 151.634 152.74 153.748 154.84 155.809 146.973 147.801 148.513 
149.488 150.372 151.484 152.497 153.655 154.654 155.716 156.556 146.04 
146.789 147.435 148.33 149.155 150.221 151.192 152.356 153.34 154.481 
155.359 156.372 157.121 145.21 145.88 146.47 147.276 148.047 149.03 
149.97 151.066 152.044 153.155 154.084 155.148 156 156.96 157.713 
144.501 145.09 145.651 146.361 147.099 147.978 148.902 149.911 150.907 
151.945 152.919 153.947 154.877 155.866 156.705 157.592 158.281 143.9 
144.425 144.972 145.609 146.331 147.11 148.009 148.921 149.906 150.884 
151.86 152.857 153.791 154.783 155.64 156.573 157.29 158.111 158.668 
143.738 143.9 144.142 144.851 144.221 144.433 145.272 145.448 146.291 
144.679 144.885 145.85 146.025 146.995 147.086 148.023 145.198 145.418 
146.455 146.681 147.736 147.875 148.874 148.931 149.902 145.791 145.983 
147.042 147.294 148.38 148.597 149.629 149.768 150.767 150.844 151.825 
146.519 146.646 147.706 147.91 149.005 149.223 150.284 150.474 151.512 
151.667 152.696 152.776 153.746 147.318 147.419 148.462 148.623 149.716 
149.894 150.978 151.15 152.217 152.39 153.442 153.593 154.594 154.666 
155.568 148.097 148.201 149.215 149.376 150.445 150.625 151.701 151.876 
152.938 153.107 154.133 154.295 155.266 155.414 156.311 156.393 157.182 
148.861 148.955 149.933 150.089 151.115 151.311 152.349 152.56 153.59 
153.793 154.775 154.945 155.856 156.014 156.874 157.024 157.811 157.888 
158.553 149.6 151.086 150.452 150.691 152.572 151.977 152.257 151.604 
151.872 154.082 153.504 153.876 153.223 153.533 152.836 153.118 155.786 
155.148 155.649 154.954 155.362 154.594 154.907 154.127 154.389 157.694 
157.007 157.581 156.862 157.344 156.538 156.862 155.998 156.218 155.389 
155.572 159.542 158.913 159.423 158.779 159.218 158.502 158.777 157.942 
158.073 157.214 157.317 156.504 156.618 161.052 160.569 160.957 160.441 
160.782 160.203 160.41 159.699 159.771 158.98 159.038 158.234 158.322 
157.519 157.617 162.152 161.834 162.178 161.785 162.094 161.608 161.79 
161.171 161.235 160.546 160.622 159.906 160.011 159.231 159.304 158.492 
158.537 162.95 162.774 163.172 162.895 163.246 162.839 163.038 162.475 
162.545 161.923 162.02 161.409 161.538 160.857 160.896 160.123 160.078 
159.302 159.242 149.222 149.105 149.68 150.692 148.876 149.533 150.571 
151.155 152.143 148.486 149.227 150.307 150.994 152.029 152.595 153.601 
148.029 148.78 149.942 150.728 151.902 152.516 153.591 154.109 155.228 
147.726 148.359 149.588 150.421 151.791 152.487 153.655 154.144 155.272 
155.837 157.083 147.726 148.19 149.361 150.125 151.575 152.408 153.653 
154.205 155.257 155.835 157.081 157.763 159.003 147.883 148.303 149.332 
149.926 151.217 152.101 153.375 154.094 155.106 155.718 156.889 157.674 
158.995 159.643 160.664 147.871 148.431 149.388 149.868 150.898 151.652 
152.864 153.702 154.817 155.502 156.641 157.416 158.736 159.53 160.644 
161.13 161.836 147.552 148.295 149.294 149.826 150.713 151.304 152.373 
153.179 154.395 155.194 156.393 157.154 158.38 159.187 160.29 160.953 
161.7 162.097 162.589 148.233 146.577 147.631 148.045 144.645 145.808 
146.19 147.372 147.774 142.562 143.724 144.024 145.327 145.764 147.031 
147.39 140.634 141.661 141.852 143.053 143.434 144.842 145.337 146.619 
146.964 138.834 139.814 139.972 140.983 141.195 142.444 142.919 144.402 
144.97 146.25 146.681 137.021 137.965 138.145 139.172 139.344 140.356 
140.622 141.936 142.515 144.065 144.739 146.076 146.656 135.673 136.254 
136.375 137.322 137.609 138.604 138.856 139.863 140.24 141.578 142.238 
143.849 144.598 146.068 146.718 135.181 135.306 135.314 135.802 136.061 
136.92 137.322 138.263 138.639 139.609 140.063 141.354 142.023 143.656 
144.393 145.985 146.59 135.11 135.112 135.074 135.153 135.237 135.657 
136.004 136.809 137.319 138.207 138.665 139.551 140.038 141.218 141.877 
143.419 144.112 145.691 146.229 134.998 134.8 134.985 135.059 134.69 
134.853 135.033 135.055 135.155 134.928 134.934 135.214 135.15 135.309 
135.291 135.72 135.471 135.355 135.707 135.561 135.811 135.623 136.046 
136.161 136.955 136.184 135.958 136.324 136.19 136.547 136.314 136.736 
136.656 137.375 137.558 138.38 137.167 136.762 137.095 136.883 137.328 
137.126 137.613 137.457 138.119 138.117 138.869 138.949 139.721 138.34 
137.858 138.166 137.808 138.27 138.002 138.563 138.376 139.077 138.977 
139.722 139.616 140.35 140.374 141.35 139.427 139.016 139.323 138.955 
139.391 139.064 139.608 139.376 140.086 139.975 140.756 140.604 141.311 
141.162 142.017 142.18 143.401 140.386 140.037 140.351 140.048 140.471 
140.182 140.68 140.434 141.069 140.954 141.707 141.621 142.313 142.154 
142.866 142.878 143.894 144.254 145.503 141.011 142.092 141.346 141.035 
143.411 142.556 142.243 141.468 141.207 144.974 144.006 143.709 142.802 
142.532 141.712 141.474 146.846 145.735 145.477 144.42 144.167 143.187 
142.966 142.074 141.915 148.987 147.784 147.559 146.364 146.143 145.003 
144.79 143.733 143.566 142.64 142.547 151.127 149.99 149.804 148.578 
148.383 147.144 146.94 145.726 145.497 144.393 144.202 143.281 143.134 
153.043 152.059 151.931 150.813 150.645 149.441 149.261 147.999 147.769 
146.482 146.226 145.05 144.864 143.868 143.759 154.772 153.897 153.83 
152.848 152.709 151.622 151.446 150.288 150.103 148.847 148.641 147.307 
147.153 145.886 145.881 144.749 144.872 156.369 155.58 155.552 154.677 
154.572 153.586 153.395 152.341 152.144 151.063 150.907 149.741 149.627 
148.372 148.369 147.145 147.307 146.165 146.436 147.659 148.51 148.592 
149.484 149.525 149.504 150.406 150.305 151.001 150.672 150.573 151.47 
151.324 152.11 151.888 152.67 151.818 151.696 152.578 152.45 153.344 
153.15 154.078 153.82 154.739 153.009 152.84 153.743 153.602 154.581 
154.45 155.494 155.315 156.327 156.009 156.863 154.292 154.104 155.07 
154.878 155.89 155.733 156.756 156.647 157.633 157.491 158.369 158.059 
158.815 155.475 155.385 156.364 156.236 157.209 157.054 157.956 157.814 
158.642 158.57 159.369 159.309 160.061 159.877 160.545 156.424 156.451 
157.386 157.388 158.289 158.238 159.047 158.921 159.626 159.49 160.178 
160.13 160.843 160.834 161.481 161.377 161.868 157.205 157.288 158.181 
158.251 159.111 159.146 159.944 159.896 160.597 160.453 161.085 160.946 
161.589 161.535 162.163 162.119 162.62 162.474 162.797 139.111 138.798 
138.661 138.19 138.863 138.515 137.969 137.782 137.292 139.095 138.687 
138.092 137.723 137.106 136.861 136.312 139.166 138.826 138.199 137.874 
137.251 136.852 136.215 135.919 135.456 139.192 138.804 138.136 137.871 
137.327 137.032 136.489 136.071 135.572 135.253 134.96 139.429 138.926 
138.253 137.851 137.324 137.064 136.61 136.329 135.82 135.481 135.019 
134.816 134.573 139.752 139.266 138.629 138.12 137.526 137.131 136.603 
136.34 135.779 135.54 134.951 134.77 134.369 134.376 134.292 140.012 
139.594 139 138.521 137.874 137.387 136.744 136.353 135.761 135.449 
134.904 134.646 134.285 134.19 134.157 134.253 134.456 140.307 139.884 
139.354 138.888 138.285 137.75 137.115 136.596 136.07 135.626 135.253 
134.843 134.635 134.335 134.384 134.302 134.555 134.614 134.872 139.266 
138.317 138.942 139.302 137.409 138.026 138.393 139.044 139.485 136.443 
137.11 137.566 138.231 138.708 139.31 139.803 135.528 136.122 136.638 
137.415 137.991 138.618 139.079 139.661 140.152 134.947 135.312 135.721 
136.452 137.083 137.845 138.344 138.95 139.378 139.998 140.496 134.637 
134.867 135.166 135.655 136.234 136.931 137.534 138.186 138.693 139.279 
139.816 140.413 140.983 134.504 134.65 134.993 135.279 135.829 136.296 
136.973 137.516 138.187 138.714 139.373 139.888 140.546 141.043 141.65 
134.681 134.689 135.082 135.239 135.801 136.105 136.784 137.186 137.903 
138.362 139.086 139.569 140.267 140.727 141.356 141.781 142.334 135 
134.965 135.283 135.392 135.905 136.157 136.794 137.117 137.768 138.153 
138.816 139.29 139.962 140.455 141.069 141.509 142.044 142.444 142.932 
139.941 139.998 140.314 141.04 140.176 140.432 141.151 141.444 142.18 
140.499 140.697 141.459 141.657 142.397 142.627 143.449 140.867 141.072 
141.887 142.076 142.884 143.008 143.855 144.066 145.07 141.185 141.401 
142.186 142.466 143.295 143.524 144.381 144.589 145.564 145.834 146.869 
141.584 141.703 142.395 142.661 143.423 143.777 144.596 144.971 145.842 
146.227 147.113 147.484 148.311 142.17 142.165 142.795 142.906 143.612 
143.863 144.647 145.026 145.848 146.289 147.072 147.511 148.225 148.653 
149.352 142.815 142.782 143.385 143.403 144.086 144.184 144.946 145.158 
145.974 146.286 147.093 147.439 148.198 148.546 149.298 149.675 150.474 
143.397 143.39 143.969 143.996 144.648 144.72 145.442 145.57 146.351 
146.544 147.363 147.602 148.437 148.688 149.534 149.797 150.679 150.978 
151.884 148.012 147.208 147.218 146.385 146.387 146.381 145.489 145.483 
144.512 145.548 145.516 144.567 144.544 143.521 143.495 142.467 144.815 
144.699 143.734 143.632 142.596 142.507 141.467 141.453 140.522 144.248 
144.058 143.134 142.926 141.951 141.722 140.73 140.565 139.63 139.601 
138.732 143.775 143.564 142.691 142.452 141.554 141.262 140.367 140.065 
139.198 138.928 138.05 137.884 137.042 143.407 143.168 142.363 142.097 
141.262 140.959 140.133 139.834 139.073 138.738 137.957 137.54 136.755 
136.424 135.822 143.205 142.926 142.229 141.905 141.168 140.79 140.026 
139.672 138.98 138.679 138.025 137.637 136.95 136.485 135.928 135.596 
135.322 143.135 142.845 142.241 141.905 141.267 140.854 140.161 139.711 
139.037 138.66 138.054 137.719 137.11 136.728 136.159 135.824 135.46 
135.29 135.147 
POINT_DATA 1002
SCALARS Distance double
LOOKUP_TABLE default
141.674 140.723 141.493 142.534 142.379 142.878 143.427 143.311 143.798 
144.294 144.357 144.438 144.715 145.308 145.971 145.505 145.697 145.778 
146.427 147.213 147.996 146.594 146.525 147.056 147.786 148.613 149.449 
150.186 147.33 146.896 148.229 149.245 150.115 150.903 151.62 152.194 
148.226 147.538 149.378 150.612 151.562 152.295 152.959 153.515 153.958 
149.658 148.781 150.83 152.005 152.923 153.624 154.266 154.831 155.265 
155.604 151.273 150.305 152.36 153.377 154.211 154.9 155.55 156.154 
156.612 156.917 157.124 140.399 141.241 140.184 141.09 139.928 142.203 
140.914 139.638 142.111 143.302 140.727 139.523 141.934 143.294 144.705 
140.608 139.503 141.7 143.039 144.815 146.076 140.411 139.284 141.543 
142.745 144.559 146.255 146.737 140.113 139.032 141.391 142.661 144.286 
146.138 146.974 146.952 140.044 139.13 141.29 142.684 144.212 145.941 
147.093 147.256 147.527 140.359 139.588 141.437 142.786 144.25 145.771 
147.032 147.556 147.795 148.685 140.645 141.55 141.772 142.838 142.916 
142.793 144.166 144.321 144.232 144.241 145.675 146.125 145.516 145.544 
145.633 147.459 147.873 146.876 146.555 146.626 146.87 149.187 149.094 
148.761 148.084 147.728 147.735 147.734 150.508 150.066 150.707 150.362 
149.75 149.244 148.79 148.284 151.692 151.297 152.161 152.329 152.006 
151.397 150.671 149.9 149.211 153.083 152.779 153.463 153.741 153.688 
153.315 152.765 152.093 151.387 150.78 152.479 153.035 154.59 153.67 
155.267 156.563 154.262 155.944 157.341 158.627 154.726 156.495 158.039 
159.308 160.713 155.118 157.003 158.753 159.957 161.272 162.646 155.348 
157.405 159.468 160.79 161.896 163.273 164.263 155.257 157.39 159.645 
161.348 162.514 163.76 164.858 165.33 154.93 156.976 159.108 161.042 
162.584 163.905 165.047 165.758 166.008 154.545 156.43 158.329 160.207 
162.001 163.579 164.842 165.787 166.404 166.697 153.505 155.491 154.467 
157.577 156.453 155.358 159.921 158.792 157.505 156.185 162.006 161.108 
159.91 158.454 156.943 163.595 162.801 161.926 160.722 159.182 157.607 
164.745 164.026 163.361 162.513 161.202 159.644 158.092 165.542 164.977 
164.458 163.803 162.714 161.306 159.842 158.366 166.267 165.747 165.283 
164.705 163.762 162.522 161.214 159.88 158.489 167.271 166.686 167.645 
166.956 167.597 166.091 166.983 167.377 166.271 165.484 166.847 167.163 
166.239 165.442 164.602 166.407 166.713 165.885 165.251 164.398 163.45 
165.655 165.952 165.138 164.731 164.193 163.264 162.214 164.798 164.982 
164.307 163.899 163.607 162.974 161.961 160.905 163.89 163.943 163.52 
163.039 162.673 162.234 161.464 160.498 159.511 163.042 163.053 162.738 
162.215 161.702 161.269 160.717 159.949 159.061 158.112 167.327 168.035 
167.639 168.19 167.203 168.183 167.403 166.112 167.972 167.767 166.132 
164.916 167.076 167.387 167.373 164.875 163.754 165.981 166.654 166.925 
167.053 163.57 162.479 164.767 165.67 166.065 166.366 166.47 162.257 
161.243 163.408 164.386 164.868 165.219 165.617 165.58 161.093 160.171 
162.11 163.002 163.51 163.899 164.418 164.696 164.469 160.001 159.17 
160.882 161.671 162.183 162.597 163.149 163.578 163.612 163.382 153.58 
155.399 154.313 156.146 155.019 157.27 156.954 155.892 158.102 159.172 
157.788 156.737 158.971 160.137 161.134 158.411 157.321 159.617 160.95 
162.128 162.998 158.966 157.86 160.159 161.466 162.759 163.807 164.491 
159.542 158.445 160.766 162.032 163.212 164.304 165.189 165.672 159.945 
158.903 161.134 162.444 163.639 164.716 165.789 166.532 166.669 151.577 
152.345 150.4 151.097 149.275 153.05 149.866 148.182 151.778 153.829 
148.679 147.143 150.512 152.615 154.803 147.587 146.194 149.279 151.33 
153.551 155.613 146.593 145.337 148.132 150.059 152.191 154.282 156.186 
145.714 144.585 147.109 148.905 150.951 152.995 154.979 156.837 144.978 
143.944 146.267 147.926 149.88 151.894 153.871 155.785 157.497 144.358 