# vtk DataFile Version 4.0
vtk output
ASCII
DATASET POLYDATA
POINTS 1002 float
-74.7989 -106.026 55.6695 -74.9471 -105.195 54.9942 -75.6178 -105.637 54.9963 
-75.4927 -106.499 55.8566 -76.3498 -106.186 55.2171 -74.5649 -107 56.573 
-76.2209 -107.027 56.3884 -77.1329 -106.584 56.0006 -75.2206 -107.619 56.839 
-74.1683 -108.34 57.3626 -76.8716 -107.446 57.2627 -77.8578 -106.803 57.0616 
-75.772 -108.325 57.251 -74.6475 -109.239 57.4264 -73.7151 -110.109 57.9373 
-77.2788 -107.947 57.7869 -78.334 -107.252 57.6684 -76.1009 -109.049 57.5303 
-74.9509 -110.192 57.4757 -74.0419 -111.178 57.9622 -73.4969 -111.943 58.8883 
-77.3968 -108.869 57.5956 -78.5681 -108.203 57.695 -76.2112 -109.971 57.3356 
-75.1514 -111.136 57.4487 -74.3245 -112.147 58.1704 -73.8408 -112.955 59.2582 
-73.545 -113.506 60.3769 -77.415 -110.14 57.2465 -78.6837 -109.437 57.5237 
-76.2454 -111.136 57.0958 -75.3973 -112.167 57.528 -74.7542 -113.052 58.5873 
-74.2826 -113.83 59.8413 -73.9647 -114.478 60.9225 -73.6307 -114.967 61.7748 
-77.4435 -111.448 57.1723 -78.5919 -110.665 57.2963 -76.3781 -112.338 57.3247 
-75.7289 -113.21 58.066 -75.3298 -113.987 59.2645 -74.9309 -114.696 60.5187 
-74.5351 -115.371 61.5296 -74.1388 -115.993 62.2845 -73.7245 -116.527 62.9092 
-77.4245 -112.611 57.3541 -78.2606 -111.776 57.0913 -76.6413 -113.438 57.9028 
-76.1662 -114.18 58.903 -75.9002 -114.885 60.1239 -75.6004 -115.594 61.2391 
-75.2321 -116.257 62.1626 -74.8128 -116.893 62.9116 -74.3532 -117.514 63.5233 
-73.9183 -118.035 64.0477 -77.4369 -113.575 57.7834 -77.9535 -112.747 57.1301 
-76.9868 -114.376 58.6289 -76.7056 -115.075 59.7211 -76.4835 -115.736 60.9005 
-76.178 -116.454 61.9234 -75.8492 -117.148 62.7868 -75.5148 -117.743 63.5836 
-75.1005 -118.321 64.2664 -74.6307 -118.887 64.7826 -74.1839 -119.328 65.1665 
-75.5288 -104.616 54.463 -76.2859 -105.182 54.3871 -76.2581 -104.06 53.8715 
-77.0711 -104.647 53.8349 -77.0474 -103.546 53.1057 -77.0636 -105.816 54.5736 
-77.8644 -104.035 53.1938 -77.739 -103.229 52.1046 -77.8526 -105.318 53.955 
-77.9017 -106.217 55.3038 -78.6396 -103.611 52.3357 -78.3724 -103.162 50.9595 
-78.7053 -104.674 53.3278 -78.7043 -105.829 54.4211 -78.6847 -106.479 56.262 
-79.4601 -103.378 51.2716 -79.0611 -102.941 49.8202 -79.6488 -104.1 52.6848 
-79.6219 -105.291 53.7198 -79.4815 -106.324 55.159 -79.2373 -107.064 56.9752 
-80.1665 -103.033 50.0322 -79.6629 -102.479 48.741 -80.4702 -103.692 51.7875 
-80.56 -104.723 53.2688 -80.3493 -106.025 54.3732 -80.0481 -107.081 56.0009 
-79.6072 -108.049 57.4013 -80.5061 -102.851 48.8132 -79.9114 -102.416 47.813 
-80.8693 -103.54 50.4845 -81.1137 -104.475 52.4483 -81.1073 -105.715 53.7793 
-80.8125 -106.98 55.084 -80.4284 -108.015 56.7191 -79.7294 -109.162 57.4918 
-80.4413 -103.262 47.9654 -79.769 -103.036 47.1882 -80.8905 -103.825 49.2431 
-81.194 -104.683 51.1592 -81.4249 -105.773 52.8321 -81.4007 -106.959 54.1194 
-81.0677 -107.996 55.6953 -80.4258 -108.987 56.9323 -79.4003 -110.265 57.1519 
-80.1325 -104.059 47.556 -79.4537 -103.934 46.8666 -80.7176 -104.437 48.4821 
-81.0919 -105.122 50.0037 -81.3704 -106.077 51.702 -81.6001 -107.162 53.1178 
-81.5362 -108.134 54.5935 -80.9526 -108.973 55.9691 -79.9252 -109.992 56.567 
-78.7984 -111.328 56.6889 -79.5522 -104.854 47.1467 -80.2707 -105.086 47.8563 
-79.749 -105.85 47.4234 -80.5364 -106.231 48.1828 -80.1084 -107.152 47.7133 
-80.8848 -105.553 48.9491 -80.9051 -107.751 48.5961 -80.575 -108.784 48.2897 
-81.0685 -106.815 49.441 -81.1999 -106.329 50.5347 -81.1612 -109.464 49.3134 
-80.8463 -110.28 49.1691 -81.0962 -108.367 50.0272 -81.1442 -107.635 51.1434 
-81.4274 -107.374 52.1756 -80.9655 -110.713 50.1683 -80.572 -111.41 50.0095 
-80.7973 -109.712 50.7439 -80.7681 -108.888 51.8321 -81.2409 -108.57 52.9379 
-81.6314 -108.404 53.7616 -80.2976 -111.688 51.0101 -79.8852 -112.516 50.8905 
-80.1917 -110.605 51.471 -80.0908 -109.771 52.3507 -80.605 -109.482 53.4997 
-81.2186 -109.43 54.4256 -81.272 -109.234 55.151 -79.5733 -113.082 52.2005 
-79.1993 -113.734 52.2074 -79.6172 -111.984 52.4846 -79.4575 -110.985 52.9458 
-79.658 -110.532 53.6786 -80.1762 -110.453 54.5079 -80.3616 -110.353 55.1686 
-80.1617 -110.148 55.8322 -79.0573 -114.667 53.8818 -78.6789 -114.811 53.9353 
-79.3351 -114.061 54.0241 -79.3076 -113.203 54.172 -79.1228 -112.513 54.3745 
-79.136 -112.11 54.7701 -79.2185 -111.836 55.1879 -79.1058 -111.592 55.5948 
-78.9262 -111.41 56.133 -78.7462 -115.856 55.6947 -78.337 -115.639 55.715 
-79.2525 -115.839 55.7554 -79.5781 -115.474 55.7997 -79.4272 -114.897 55.8426 
-79.0186 -114.297 56.0269 -78.7598 -113.766 56.2545 -78.6025 -113.338 56.3839 
-78.3777 -113.025 56.5554 -78.1467 -112.838 56.8482 -77.752 -114.174 58.1781 
-78.1731 -114.383 58.1721 -78.1611 -115.61 59.8902 -78.6208 -114.713 58.2051 
-78.7939 -115.964 60.0655 -78.7518 -117.052 61.5385 -78.9561 -115.139 58.2811 
-79.3661 -116.372 60.2291 -79.3621 -117.495 61.6613 -79.1864 -118.489 62.9902 
-79.2999 -115.623 58.1607 -79.8156 -116.695 60.2776 -79.9204 -117.847 61.7744 
-79.7382 -118.939 63.1365 -79.772 -119.886 64.6906 -79.8421 -116.166 57.7668 
-80.3561 -116.972 59.902 -80.5088 -118.027 61.7012 -80.3581 -119.298 63.2745 
-80.4332 -120.319 64.9467 -80.5774 -121.231 66.3959 -80.1652 -116.68 57.4523 
-80.8065 -117.364 59.2453 -81.0648 -118.274 61.1754 -80.9842 -119.688 63.1078 
-81.0772 -120.838 64.9699 -81.2651 -121.624 66.5453 -81.1565 -122.419 67.8104 
-79.8117 -116.958 57.388 -80.5994 -117.745 58.871 -81.111 -118.687 60.5486 
-81.2216 -120.18 62.5663 -81.3967 -121.509 64.5868 -81.6868 -122.239 66.2867 
-81.6945 -122.816 67.7779 -81.4722 -123.406 69.2873 -79.0856 -116.884 57.4109 
-79.819 -117.84 58.8824 -80.5312 -118.966 60.2998 -80.8586 -120.507 62.0636 
-81.1087 -121.967 64.0408 -81.5454 -122.843 65.7859 -81.8176 -123.421 67.3437 
-81.7998 -123.967 69.0433 -81.7474 -124.352 70.7815 -78.4764 -116.589 57.4107 
-79.0244 -117.644 58.9741 -79.7647 -118.914 60.3304 -80.2347 -120.462 61.8003 
-80.463 -121.933 63.5727 -80.871 -122.959 65.3363 -81.3719 -123.738 66.8708 
-81.6549 -124.495 68.4335 -81.7976 -125.063 70.179 -81.9147 -125.304 71.8071 
-77.4995 -115.007 59.2428 -78.0359 -116.423 61.0357 -77.3433 -115.79 60.3622 
-78.5835 -117.878 62.6677 -77.9098 -117.243 62.1294 -77.1769 -116.523 61.4995 
-79.1205 -119.359 64.3624 -78.4188 -118.74 63.866 -77.6301 -118.068 63.2004 
-76.8296 -117.289 62.5459 -79.8423 -120.878 66.127 -79.0288 -120.288 65.6821 
-78.1475 -119.614 64.9998 -77.2222 -118.918 64.2009 -76.436 -118.076 63.4659 
-80.4626 -122.298 67.6766 -79.6486 -121.906 67.336 -78.7853 -121.216 66.7857 
-77.833 -120.51 65.976 -76.882 -119.719 65.1223 -76.1288 -118.736 64.3474 
-80.8987 -123.297 69.3528 -80.134 -123.171 69.0385 -79.3151 -122.728 68.5283 
-78.4476 -122.07 67.7606 -77.4632 -121.315 66.8076 -76.5296 -120.346 65.9486 
-75.7713 -119.282 65.1391 -81.3872 -123.994 71.1966 -80.7048 -123.807 70.9967 
-79.8259 -123.63 70.4195 -78.9283 -123.26 69.629 -77.9833 -122.695 68.5555 
-76.9765 -121.881 67.4513 -76.0695 -120.848 66.5561 -75.3024 -119.822 65.6978 
-81.7981 -124.774 72.5766 -81.2752 -124.305 72.6752 -80.3783 -124.039 72.1851 
-79.3755 -123.832 71.4407 -78.4362 -123.524 70.4165 -77.4625 -123.034 69.0847 
-76.4519 -122.27 67.8443 -75.5444 -121.298 66.888 -74.7909 -120.298 66.0258 
-81.8701 -125.884 72.9493 -81.6225 -125.263 73.645 -81.3515 -126.353 73.7509 
-80.807 -125.737 74.3533 -80.3589 -126.579 74.395 -80.8517 -124.677 73.5995 
-79.6091 -125.938 74.9634 -79.2752 -126.471 74.6207 -79.8334 -125.052 74.3595 
-79.7743 -124.258 73.0798 -78.425 -125.803 75.0075 -78.1094 -126.337 74.0083 
-78.6244 -125.149 75.0347 -78.8168 -124.392 73.9423 -78.7737 -123.915 72.2682 
-77.0221 -125.764 74.2013 -76.6036 -126.437 73.1612 -77.3494 -125.057 74.8605 
-77.7082 -124.342 74.3919 -77.9689 -123.882 72.8654 -77.8499 -123.607 70.9134 
-75.4171 -125.904 73.3454 -75.0515 -126.481 72.6415 -75.86 -125.119 73.8902 
-76.3868 -124.31 73.8316 -76.865 -123.831 72.7909 -77.0132 -123.642 71.0293 
-76.781 -123.198 69.2347 -74.1253 -125.85 72.5987 -73.8321 -126.262 71.9321 
-74.5175 -125.18 72.9424 -75.0627 -124.354 72.8442 -75.5868 -123.796 72.127 
-75.8528 -123.626 70.7456 -75.8235 -123.292 69.1404 -75.6684 -122.445 67.848 
-73.1576 -125.541 71.51 -72.8516 -125.931 70.8113 -73.4762 -124.977 71.9583 
-73.9434 -124.249 71.9567 -74.4651 -123.638 71.4354 -74.7436 -123.383 70.3783 
-74.7522 -123.119 68.9979 -74.7221 -122.423 67.7651 -74.7488 -121.396 66.849 
-72.2262 -125.124 70.341 -71.9463 -125.563 69.7604 -72.4677 -124.563 70.8494 
-72.8191 -123.919 71.0236 -73.3531 -123.317 70.7193 -73.7926 -122.93 69.9649 
-73.8966 -122.62 68.874 -73.8743 -122.052 67.7381 -73.9525 -121.211 66.8031 
-74.0817 -120.276 65.9967 -81.7202 -126.062 71.374 -81.4937 -126.6 72.3286 
-81.1219 -126.329 70.6451 -80.7359 -126.713 71.4417 -80.2473 -126.063 69.94 
-80.8315 -126.909 73.1427 -79.7649 -126.47 70.553 -79.3019 -125.781 69.2168 
-80.0228 -126.992 72.2263 -79.8499 -126.979 73.7469 -78.734 -126.327 69.5534 
-78.3765 -125.599 68.2958 -79.0102 -126.972 71.0728 -79.0285 -127.249 72.6151 
-78.7678 -126.928 73.5734 -77.7253 -126.051 68.4254 -77.4474 -125.166 67.2746 
-77.9419 -126.825 69.7102 -77.9548 -127.379 71.1767 -77.8489 -127.424 72.2542 
-77.4635 -126.98 72.7739 -76.7597 -125.494 67.2903 -76.5732 -124.613 66.206 
-76.9439 -126.304 68.3473 -76.9126 -127.001 69.6215 -76.7641 -127.445 70.8767 
-76.5309 -127.411 71.6685 -75.9214 -126.999 72.2032 -75.8977 -124.972 66.092 
-75.8758 -124.162 65.057 -75.9866 -125.725 67.0324 -75.9673 -126.41 68.0508 
-75.7717 -126.959 69.2575 -75.527 -127.218 70.3327 -75.1071 -127.114 71.1164 
-74.4499 -126.752 71.6875 -75.2153 -124.444 64.8955 -75.3321 -123.611 63.9686 
-75.1211 -125.204 65.7598 -75.0428 -125.95 66.5688 -74.8388 -126.567 67.4787 
-74.5126 -126.859 68.4878 -74.1239 -126.868 69.4613 -73.6515 -126.715 70.2771 
-73.1972 -126.407 70.7414 -74.662 -123.706 63.8592 -74.8138 -122.827 63.0545 
-74.4466 -124.493 64.6565 -74.2587 -125.315 65.3596 -74.0247 -126.126 65.9988 
[...]
CELL_DATA 2000
SCALARS Distance double
LOOKUP_TABLE default
139.883 140.675 140.418 140.78 141.644 141.311 141.682 141.408 141.837 
142.645 142.319 142.676 142.372 142.788 142.528 143.042 143.513 143.246 
143.554 143.311 143.692 143.473 143.99 143.819 144.505 144.296 144.014 
144.27 144.078 144.463 144.319 144.882 144.772 145.524 145.428 146.263 
145.156 144.794 145.039 144.797 145.272 145.129 145.826 145.723 146.58 
146.491 147.396 147.263 148.084 146.045 145.699 145.997 145.699 146.291 
146.106 146.959 146.821 147.784 147.646 148.597 148.435 149.297 149.079 
149.837 146.814 146.598 147.036 146.782 147.48 147.287 148.222 148.079 
149.087 148.929 149.883 149.689 150.557 150.326 151.119 150.848 151.579 
147.507 147.409 148.045 147.889 148.7 148.546 149.5 149.369 150.354 
150.215 151.144 150.969 151.824 151.605 152.401 152.145 152.885 152.591 
153.258 139.504 139.239 139.662 140.298 139.015 139.446 140.118 140.548 
141.258 138.77 139.217 139.911 140.382 141.11 141.557 142.269 138.586 
138.985 139.674 140.154 140.908 141.393 142.129 142.558 143.202 138.45 
138.843 139.526 139.959 140.729 141.198 141.981 142.426 143.158 143.506 
144.099 138.161 138.646 139.336 139.823 140.608 141.081 141.896 142.327 
143.137 143.523 144.262 144.491 145.05 137.836 138.296 138.994 139.549 
140.375 140.947 141.81 142.286 143.115 143.535 144.34 144.681 145.33 
145.47 145.924 137.805 138.088 138.789 139.234 140.094 140.68 141.619 
142.177 143.047 143.51 144.304 144.714 145.375 145.65 146.076 146.21 
146.549 138.078 138.225 138.901 139.183 140.003 140.469 141.407 141.97 
142.895 143.414 144.234 144.661 145.308 145.611 146.008 146.198 146.457 
146.673 147.038 138.484 139.398 139.039 139.309 140.515 140.045 140.36 
139.982 140.395 142.003 141.342 141.635 141.123 141.544 141.194 141.74 
143.653 142.962 143.152 142.485 142.795 142.367 142.896 142.619 143.211 
144.887 144.425 144.452 143.87 143.945 143.536 143.959 143.747 144.345 
144.085 144.589 145.696 145.353 145.248 144.81 144.667 144.384 144.62 
144.603 145.136 145.09 145.534 145.292 145.583 146.657 146.194 146.196 
145.594 145.492 145.003 145.153 145.051 145.501 145.602 145.982 145.958 
146.12 145.985 146.107 147.901 147.411 147.735 146.984 147.203 146.314 
146.588 145.915 146.364 146.051 146.486 146.315 146.544 146.371 146.499 
146.368 146.528 149.13 148.784 149.369 148.81 149.342 148.486 148.938 
147.929 148.384 147.493 147.979 147.287 147.705 147.133 147.457 146.995 
147.299 146.962 147.255 147.982 148.179 148.569 149.668 148.492 148.91 
150.181 150.548 151.766 148.885 149.349 150.746 151.159 152.444 152.684 
153.78 149.325 149.813 151.255 151.724 153.034 153.34 154.44 154.64 
155.724 149.861 150.315 151.72 152.172 153.451 153.843 154.992 155.282 
156.422 156.663 157.83 150.379 150.847 152.144 152.563 153.749 154.184 
155.401 155.818 157.063 157.378 158.565 158.775 159.823 150.579 151.164 
152.305 152.817 153.886 154.398 155.615 156.183 157.512 157.976 159.171 
159.445 160.435 160.602 161.469 150.376 151.053 152.055 152.721 153.728 
154.381 155.54 156.262 157.554 158.236 159.398 159.868 160.799 161.092 
161.929 162.14 162.959 149.979 150.639 151.557 152.294 153.302 154.069 
155.185 156.004 157.177 158.005 159.067 159.778 160.656 161.206 162.007 
162.438 163.246 163.557 164.307 148.166 149.85 148.934 148.912 151.881 
150.845 150.813 149.797 149.741 153.88 152.899 152.883 151.835 151.777 
150.7 150.613 155.892 154.908 154.961 153.918 153.878 152.785 152.672 
151.576 151.448 158.034 157.036 157.15 156.059 156.049 154.911 154.803 
153.657 153.497 152.384 152.219 160.016 159.173 159.319 158.295 158.296 
157.141 157.041 155.84 155.675 154.478 154.272 153.125 152.905 161.679 
161.005 161.198 160.356 160.395 159.36 159.264 158.1 157.911 156.688 
156.429 155.211 154.921 153.762 153.477 163.204 162.594 162.813 162.09 
162.151 161.298 161.207 160.208 159.987 158.855 158.524 157.322 156.942 
155.759 155.391 154.268 153.933 164.579 164.075 164.26 163.608 163.597 
162.863 162.717 161.914 161.662 160.733 160.361 159.285 158.829 157.689 
157.23 156.116 155.696 154.636 154.255 165.298 166.003 165.507 164.974 
166.237 166 165.476 164.945 164.221 166.012 166.032 165.559 165.239 
164.512 164.024 163.255 165.322 165.601 165.227 165.164 164.496 164.164 
163.397 162.976 162.186 164.327 164.726 164.411 164.633 164.059 163.984 
163.236 162.981 162.181 161.807 160.911 163.349 163.7 163.359 163.67 
163.147 163.314 162.617 162.613 161.826 161.649 160.757 160.392 159.388 
162.377 162.736 162.365 162.636 162.111 162.311 161.668 161.807 161.092 
161.115 160.279 160.098 159.121 158.775 157.758 161.247 161.681 161.3 
161.626 161.092 161.306 160.679 160.842 160.179 160.29 159.53 159.496 
158.581 158.387 157.405 157.122 156.174 160.047 160.478 160.072 160.46 
159.918 160.225 159.596 159.836 159.181 159.362 158.639 158.695 157.837 
157.756 156.826 156.668 155.765 155.553 154.695 165.435 165.427 165.768 
166.126 164.762 165.441 165.9 166.244 166.357 163.78 164.565 165.091 
165.747 166.007 166.274 166.132 162.785 163.549 164.07 164.827 165.205 
165.728 165.709 165.846 165.447 161.669 162.491 162.936 163.75 164.127 
164.824 164.927 165.288 164.997 165.018 164.494 160.382 161.244 161.608 
162.476 162.761 163.598 163.739 164.371 164.229 164.493 164.078 164.057 
163.538 159.131 159.923 160.233 161.055 161.274 162.111 162.225 163.017 
162.959 163.539 163.233 163.507 163.021 163.073 162.525 157.962 158.694 
158.942 159.689 159.875 160.637 160.74 161.49 161.443 162.121 161.873 
162.406 161.981 162.322 161.796 161.947 161.365 156.756 157.489 157.672 
158.393 158.534 159.269 159.372 160.081 160.046 160.658 160.425 160.962 
160.611 161.098 160.694 161.051 160.578 160.742 160.193 150.025 150.682 
150.744 151.616 151.565 151.562 152.519 152.511 153.459 152.511 152.542 
153.568 153.548 154.566 154.485 155.445 153.397 153.49 154.551 154.597 
155.62 155.609 156.578 156.495 157.409 154.24 154.371 155.459 155.545 
156.574 156.603 157.545 157.532 158.418 158.379 159.209 154.968 155.167 
156.242 156.403 157.448 157.533 158.498 158.481 159.362 159.313 160.161 
160.097 160.832 155.532 155.789 156.795 157.048 158.055 158.294 159.283 
159.402 160.297 160.275 161.122 161.057 161.869 161.709 162.334 155.993 
156.268 157.207 157.477 158.407 158.731 159.698 160.011 160.91 161.077 
161.877 161.944 162.745 162.735 163.462 163.222 163.703 156.341 156.651 
157.539 157.82 158.681 158.998 159.908 160.284 161.183 161.497 162.276 
162.489 163.229 163.418 164.166 164.22 164.802 164.526 164.818 149.216 
148.23 149.043 149.789 147.255 148.044 148.74 149.672 150.568 146.262 
147.04 147.675 148.585 149.423 150.474 151.44 145.281 146.043 146.648 
147.501 148.269 149.281 150.205 151.314 152.291 144.344 145.088 145.715 
146.512 147.248 148.152 149.02 150.062 151.025 152.146 153.12 143.466 
144.175 144.809 145.604 146.341 147.188 148.012 148.94 149.841 150.885 
151.841 152.957 153.877 142.671 143.312 143.883 144.671 145.373 146.248 
147.037 147.953 148.786 149.745 150.611 151.663 152.559 153.658 154.492 
141.948 142.516 143 143.726 144.356 145.214 145.954 146.901 147.703 
148.671 149.468 150.447 151.257 152.316 153.157 154.234 154.999 141.284 
141.791 142.223 142.864 143.441 144.206 144.89 145.779 146.555 147.531 
148.325 149.293 150.051 151.035 151.821 152.883 153.681 154.721 155.404 
141.049 141.085 141.356 142.023 141.253 141.496 142.223 142.479 143.256 
141.49 141.728 142.503 142.755 143.582 143.827 144.696 141.812 142.025 
142.852 143.091 143.985 144.225 145.165 145.39 146.36 142.254 142.433 
143.32 143.526 144.491 144.711 145.728 145.942 146.97 147.163 148.151 
142.793 142.949 143.885 144.077 145.087 145.294 146.343 146.557 147.615 
147.814 148.826 148.971 149.903 143.396 143.534 144.482 144.677 145.693 
145.91 146.949 147.176 148.235 148.461 149.514 149.681 150.676 150.753 
151.686 144.022 144.154 145.086 145.276 146.279 146.502 147.532 147.762 
148.826 149.073 150.175 150.391 151.465 151.582 152.582 152.609 153.541 
144.634 144.767 145.679 145.867 146.857 147.08 148.116 148.346 149.423 
149.673 150.802 151.058 152.172 152.363 153.383 153.484 154.402 154.433 
155.256 145.267 146.68 146.078 146.357 148.33 147.632 147.952 147.279 
147.591 150.173 149.424 149.809 149.035 149.382 148.611 148.913 152.1 
151.358 151.819 151.019 151.424 150.561 150.892 150.014 150.294 154.043 
153.329 153.835 153.067 153.525 152.683 153.063 152.136 152.437 151.473 
151.732 155.912 155.269 155.763 155.043 155.483 154.733 155.138 154.311 
154.629 153.682 153.907 152.92 153.105 157.49 157.02 157.463 156.849 
157.196 156.551 156.922 156.26 156.591 155.788 155.975 155.041 155.146 
154.198 154.285 158.66 158.389 158.813 158.357 158.643 158.096 158.405 
157.877 158.219 157.596 157.792 156.974 157.02 156.126 156.153 155.26 
155.277 159.549 159.402 159.883 159.564 159.904 159.438 159.741 159.255 
159.588 159.08 159.306 158.64 158.673 157.869 157.835 157.012 156.991 
156.148 156.097 144.873 144.732 145.28 146.276 144.585 145.18 146.245 
146.792 147.894 144.312 145.008 146.141 146.782 147.945 148.51 149.695 
143.891 144.648 145.842 146.639 147.928 148.593 149.846 150.383 151.602 
143.564 144.223 145.447 146.309 147.766 148.588 149.991 150.583 151.836 
152.318 153.53 143.502 144.017 145.213 145.985 147.496 148.415 149.947 
150.702 152.001 152.543 153.718 154.223 155.379 143.526 144.019 145.146 
145.825 147.215 148.114 149.591 150.506 151.808 152.549 153.667 154.294 
155.374 155.955 156.957 143.472 143.993 145.053 145.712 146.952 147.775 
149.09 150.008 151.247 152.133 153.236 154.029 155.047 155.765 156.715 
157.326 158.13 143.423 143.906 144.915 145.542 146.697 147.448 148.663 
149.482 150.663 151.511 152.619 153.458 154.477 155.273 156.194 156.918 
157.726 158.327 159.003 143.981 142.487 143.404 143.747 140.844 141.795 
142.095 143.13 143.519 139.202 140.085 140.314 141.374 141.751 142.862 
143.232 137.7 138.444 138.546 139.534 139.858 141.016 141.432 142.537 
142.86 136.325 136.947 136.873 137.728 137.901 139.043 139.462 140.692 
141.144 142.207 142.58 135.113 135.599 135.418 136.069 136.075 137.051 
137.378 138.645 139.197 140.464 141.004 142.056 142.526 134.255 134.545 
134.399 134.785 134.771 135.41 135.675 136.666 137.219 138.481 139.159 
140.414 141.009 142.069 142.551 133.784 133.915 133.827 134.02 134.078 
134.443 134.759 135.352 135.879 136.754 137.432 138.575 139.284 140.463 
141.046 142.074 142.528 133.501 133.574 133.479 133.601 133.671 133.955 
134.322 134.762 135.302 135.826 136.414 137.145 137.823 138.82 139.519 
140.566 141.142 142.077 142.538 133.309 133.004 133.18 133.277 132.959 
132.966 133.129 133.264 133.535 133.412 133.159 133.36 133.322 133.749 
133.827 134.329 134.223 133.826 134.008 133.795 134.261 134.253 134.874 
134.872 135.405 135.112 134.704 134.868 134.57 134.971 134.875 135.467 
135.474 136.029 135.961 136.446 136.046 135.628 135.826 135.474 135.824 
135.619 136.134 136.079 136.648 136.592 137.128 137.049 137.696 137.083 
136.646 136.892 136.49 136.818 136.504 136.956 136.792 137.382 137.294 
137.938 137.829 138.527 138.474 139.299 138.124 137.723 137.979 137.585 
137.881 137.516 137.897 137.651 138.204 138.098 138.789 138.717 139.451 
139.37 140.133 140.116 140.912 139.057 138.718 138.961 138.623 138.899 
138.551 138.889 138.6 139.088 138.936 139.584 139.543 140.259 140.239 
140.949 140.923 141.62 141.625 142.317 139.62 140.502 139.877 139.557 
141.544 140.836 140.51 139.856 139.536 142.8 141.992 141.706 140.931 
140.644 139.902 139.604 144.354 143.426 143.229 142.317 142.107 141.209 
140.96 140.097 139.87 146.134 145.147 144.994 144.003 143.837 142.852 
142.635 141.641 141.406 140.498 140.363 147.917 146.966 146.8 145.814 
145.625 144.639 144.424 143.405 143.147 142.141 141.951 141.081 141.018 
149.66 148.735 148.597 147.613 147.436 146.435 146.249 145.224 145.01 
143.952 143.746 142.751 142.636 141.774 141.725 151.417 150.509 150.446 
149.459 149.352 148.313 148.183 147.12 146.972 145.887 145.721 144.639 
144.489 143.482 143.375 142.48 142.4 153.094 152.265 152.237 151.326 
151.258 150.271 150.16 149.111 148.957 147.881 147.709 146.634 146.458 
145.395 145.221 144.208 144.062 143.15 143.061 143.737 144.797 144.561 
145.257 146.027 145.748 146.5 146.244 147.058 147.3 147.042 147.842 
147.578 148.425 148.161 149.014 148.568 148.335 149.172 148.937 149.828 
149.579 150.456 150.155 150.985 149.858 149.641 150.512 150.277 151.192 
150.977 151.892 151.618 152.447 152.114 152.9 151.094 150.946 151.856 
151.64 152.549 152.336 153.244 153.014 153.838 153.544 154.293 153.982 
154.719 152.179 152.126 153.058 152.936 153.853 153.682 154.579 154.354 
155.168 154.882 155.613 155.318 156.024 155.736 156.415 153.132 153.142 
154.079 154.048 154.988 154.915 155.847 155.682 156.521 156.232 156.966 
156.633 157.332 157.017 157.682 157.367 157.954 153.969 154.035 154.973 
155.006 155.956 155.968 156.92 156.871 157.731 157.545 158.272 157.981 
158.651 158.334 158.973 158.635 159.193 158.827 159.275 137.519 137.194 
137.056 136.513 137.179 136.821 136.183 136.014 135.505 137.477 136.956 
136.221 135.806 135.225 135.093 134.769 137.794 137.307 136.552 135.988 
135.31 134.961 134.616 134.556 134.407 137.982 137.583 136.932 136.39 
135.69 135.174 134.695 134.484 134.276 134.259 134.082 138.165 137.775 
137.218 136.774 136.17 135.628 135.037 134.619 134.204 134.072 133.788 
133.816 133.591 138.392 137.988 137.416 137.035 136.484 136.062 135.481 
134.997 134.425 134.05 133.609 133.479 133.219 133.302 133.219 138.65 
138.233 137.649 137.235 136.665 136.295 135.753 135.36 134.798 134.346 
133.815 133.452 133.116 133.012 132.943 133.067 133.164 138.98 138.549 
138.032 137.548 137.001 136.532 136.015 135.606 135.122 134.706 134.216 
133.777 133.37 133.072 132.913 132.889 132.972 133.124 133.284 137.611 
136.621 137.254 137.555 135.634 136.25 136.609 137.281 137.71 134.875 
135.327 135.693 136.359 136.865 137.544 138.021 134.416 134.671 134.903 
135.473 135.997 136.722 137.258 137.877 138.273 134.062 134.248 134.312 
134.712 135.119 135.834 136.431 137.129 137.592 138.116 138.5 133.684 
133.89 133.978 134.214 134.523 135.029 135.604 136.292 136.865 137.466 
137.946 138.455 138.975 133.414 133.59 133.815 133.997 134.343 134.634 
135.155 135.621 136.212 136.769 137.337 137.912 138.491 139.045 139.616 
133.361 133.458 133.698 133.877 134.226 134.51 134.986 135.341 135.873 
136.28 136.838 137.339 137.936 138.513 139.088 139.637 140.107 133.451 
133.487 133.651 133.764 134.01 134.293 134.7 135.109 135.609 136.018 
136.541 136.955 137.52 138 138.57 139.081 139.569 140.046 140.441 
138.21 138.179 138.477 139.111 138.355 138.55 139.201 139.463 140.221 
138.666 138.834 139.526 139.697 140.474 140.735 141.69 138.866 139.116 
139.844 140.085 140.844 141.061 141.935 142.303 143.307 139.037 139.247 
139.959 140.306 141.059 141.356 142.073 142.435 143.287 143.79 144.598 
139.505 139.522 140.164 140.391 141.133 141.454 142.136 142.458 143.167 
143.633 144.438 144.899 145.531 140.146 140.105 140.667 140.709 141.361 
141.559 142.266 142.522 143.239 143.561 144.359 144.768 145.549 145.85 
146.478 140.615 140.675 141.189 141.223 141.778 141.875 142.537 142.731 
143.475 143.727 144.516 144.825 145.621 145.936 146.657 146.899 147.567 
140.919 141.032 141.554 141.652 142.201 142.294 142.919 143.066 143.781 
143.997 144.752 145.019 145.767 146.06 146.77 147.053 147.723 147.997 
148.677 143.841 143.201 143.153 142.377 142.554 142.491 141.687 141.621 
140.78 141.944 141.843 141.031 140.938 140.106 140.014 139.196 141.429 
141.275 140.47 140.327 139.529 139.401 138.632 138.518 137.781 141.029 
140.824 140.041 139.841 139.072 138.902 138.174 138.032 137.327 137.189 
136.486 140.752 140.505 139.759 139.5 138.748 138.519 137.787 137.611 
136.883 136.741 136.023 135.907 135.259 140.565 140.304 139.615 139.317 
138.605 138.294 137.566 137.287 136.536 136.308 135.567 135.425 134.812 
134.764 134.327 140.463 140.188 139.569 139.258 138.612 138.256 137.582 
137.203 136.511 136.124 135.435 135.108 134.547 134.393 134.054 134.036 
133.833 140.506 140.192 139.648 139.301 138.711 138.332 137.711 137.316 
136.711 136.286 135.706 135.244 134.737 134.368 134.048 133.888 133.737 
133.7 133.577 
POINT_DATA 1002
SCALARS Distance double
LOOKUP_TABLE default
140.193 139.383 140.074 140.99 140.964 141.16 141.983 141.989 142.076 
142.279 142.99 142.962 143.06 143.233 143.619 143.79 143.793 143.889 
144.132 144.61 145.29 144.465 144.636 144.565 144.943 145.577 146.387 
147.115 145.291 145.549 145.371 145.887 146.653 147.513 148.29 148.85 
146.265 146.331 146.443 147.064 147.929 148.774 149.506 150.097 150.564 
147.207 146.912 147.643 148.358 149.247 150.088 150.789 151.378 151.883 
152.292 148.113 147.501 148.821 149.641 150.504 151.313 152.033 152.652 
153.176 153.599 153.884 139.055 139.858 138.807 139.674 138.565 140.825 
139.413 138.336 140.648 141.862 139.209 138.217 140.404 141.674 142.856 
139.106 138.031 140.267 141.519 142.752 143.871 138.806 137.65 140.101 
141.458 142.714 143.949 144.969 138.436 137.423 139.745 141.286 142.688 
143.947 145.127 145.897 138.408 137.587 139.527 141.015 142.559 143.897 
145.072 145.928 146.408 138.682 137.966 139.616 140.869 142.341 143.789 
145.019 145.837 146.263 146.705 138.806 139.63 139.759 140.749 141.04 
140.703 142.239 142.73 141.92 142.014 143.919 144.312 143.301 143.171 
143.506 145.047 145.305 144.396 144.144 144.568 144.964 145.711 146.077 
144.992 144.619 145.102 145.743 145.898 146.799 147.101 146.085 145.405 
145.439 145.967 146.239 146.227 148.339 148.269 148.073 147.457 146.907 
146.753 146.745 146.653 146.623 149.75 149.377 150.025 149.933 149.428 
148.823 148.367 148.007 147.715 147.563 148.886 149.261 150.861 149.759 
151.525 152.916 150.287 152.196 153.614 154.814 150.789 152.693 154.214 
155.496 156.864 151.336 153.038 154.625 156.14 157.633 158.994 151.779 
153.318 154.893 156.69 158.363 159.701 160.775 151.783 153.357 154.986 
156.971 158.879 160.273 161.332 162.302 151.356 153.028 154.802 156.835 
158.862 160.455 161.672 162.787 163.792 150.814 152.502 154.379 156.378 
158.322 160.021 161.494 162.859 164.097 165.035 149.806 151.87 150.766 
153.912 152.87 151.696 156.001 154.973 153.793 152.53 158.246 157.206 
155.97 154.649 153.313 160.28 159.435 158.251 156.904 155.475 154.031 
161.962 161.355 160.398 159.146 157.686 156.128 154.604 163.522 162.958 
162.143 161.084 159.734 158.154 156.546 155.026 164.913 164.346 163.491 
162.52 161.385 159.968 158.367 156.779 155.284 165.947 165.664 166.399 
165.938 166.376 164.827 165.786 165.877 164.955 163.757 165.142 164.95 
164.754 163.782 162.655 164.09 163.946 164.004 163.419 162.51 161.383 
163.07 163.033 162.919 162.521 161.914 161.061 159.831 162.105 161.995 
161.922 161.495 160.991 160.375 159.407 158.129 160.945 160.803 160.852 
160.503 160.042 159.509 158.709 157.628 156.459 159.688 159.651 159.584 
159.321 158.966 158.538 157.871 156.932 155.92 154.917 165.326 166.034 
164.924 165.369 163.995 166.301 164.333 163.014 165.575 166.148 163.302 
162.041 164.578 165.466 165.518 162.132 160.835 163.375 164.434 164.886 
164.592 160.768 159.546 161.925 162.988 163.798 164.006 163.639 159.458 
158.392 160.475 161.424 162.268 162.815 162.88 162.548 158.233 157.261 
159.136 160.016 160.782 161.283 161.526 161.543 161.299 156.974 156.034 
157.812 158.656 159.447 159.913 160.082 160.23 160.313 160.125 149.886 
151.535 150.628 152.527 151.544 153.497 153.557 152.433 154.622 155.58 
154.483 153.276 155.615 156.627 157.531 155.357 154.089 156.539 157.569 
158.441 159.287 156.059 154.758 157.314 158.494 159.435 160.215 160.985 
156.553 155.287 157.775 159.078 160.281 161.178 161.975 162.651 156.965 
155.729 158.106 159.344 160.676 161.776 162.68 163.581 164.158 148.39 
148.857 147.448 147.833 146.488 149.535 146.804 145.498 148.392 150.347 
145.832 144.518 147.313 149.109 151.165 144.92 143.597 146.397 148.042 
149.916 151.998 144.013 142.793 145.499 147.133 148.868 150.744 152.785 
143.133 142.093 144.506 146.118 147.866 149.631 151.462 153.432 142.327 
141.428 143.545 145.021 146.725 148.525 150.254 152.057 153.983 141.622 