# vtk DataFile Version 4.0
vtk output
ASCII
DATASET POLYDATA
POINTS 1002 float
-76.3591 -105.268 56.3711 -76.5609 -104.302 55.6525 -77.3272 -104.666 55.8316 
-77.0877 -105.713 56.6175 -78.0956 -105.087 56.1126 -76.0613 -106.523 57.1989 
-77.723 -106.242 56.9723 -78.781 -105.448 56.5923 -76.6567 -107.184 57.469 
-75.7284 -108.27 58.018 -78.2507 -106.877 57.422 -79.4009 -105.929 57.1601 
-77.132 -108.017 57.7949 -76.2241 -109.167 58.2946 -75.5204 -110.23 58.9468 
-78.6828 -107.833 57.7534 -79.888 -106.795 57.6109 -77.5766 -109.067 58.1399 
-76.729 -110.156 58.689 -76.0574 -111.134 59.3808 -75.4901 -111.975 60.2582 
-78.8531 -109.111 57.7762 -80.0551 -108.032 57.7262 -77.9045 -110.334 58.3353 
-77.2918 -111.23 59.1891 -76.692 -112.002 59.9966 -76.0485 -112.871 60.8578 
-75.5099 -113.683 61.7337 -78.7702 -110.474 57.5566 -79.8959 -109.47 57.4638 
-77.9903 -111.586 58.3536 -77.6713 -112.379 59.6072 -77.3002 -112.973 60.6493 
-76.6367 -113.821 61.461 -76.0152 -114.771 62.2668 -75.563 -115.569 62.9555 
-78.7751 -111.733 57.5533 -79.6766 -110.883 57.2732 -78.1659 -112.649 58.5423 
-77.9442 -113.462 59.9966 -77.722 -114.123 61.1972 -77.1751 -114.941 62.0098 
-76.5717 -115.899 62.7591 -76.1484 -116.675 63.4989 -75.7752 -117.265 64.0987 
-79.0916 -112.731 58.1722 -79.6863 -112.033 57.6018 -78.7152 -113.494 59.2766 
-78.5063 -114.36 60.6655 -78.2287 -115.222 61.8118 -77.7445 -116.086 62.6415 
-77.2322 -116.959 63.4173 -76.8681 -117.644 64.2041 -76.547 -118.093 64.9172 
-76.1426 -118.475 65.4768 -79.6412 -113.452 59.2097 -79.9845 -112.878 58.3469 
-79.4538 -114.157 60.3797 -79.2975 -115.078 61.6084 -78.9799 -116.078 62.6032 
-78.5117 -116.984 63.4391 -78.0722 -117.777 64.3041 -77.7317 -118.403 65.1358 
-77.4089 -118.808 65.854 -77.0152 -119.09 66.4594 -76.5594 -119.373 66.9067 
-77.185 -103.558 55.1164 -78.0386 -103.982 55.2762 -77.8853 -102.831 54.4804 
-78.8072 -103.244 54.666 -78.7107 -102.235 53.6083 -78.8717 -104.411 55.5896 
-79.6653 -102.599 53.8912 -79.5706 -101.834 52.607 -79.6345 -103.772 54.9648 
-79.6248 -104.81 56.1023 -80.5355 -102.239 53.0222 -80.3742 -101.562 51.7103 
-80.4632 -103.294 54.16 -80.3631 -104.465 55.3433 -80.3458 -105.392 56.7522 
-81.3233 -102.076 52.1733 -81.1681 -101.298 50.8498 -81.3923 -102.933 53.3752 
-81.1922 -104.159 54.4208 -81.1182 -105.25 55.9595 -80.9516 -106.282 57.4257 
-81.9833 -101.938 51.2933 -81.8532 -101.059 49.9368 -82.288 -102.631 52.7059 
-82.2436 -103.61 53.7664 -81.957 -104.925 54.9903 -81.8074 -106.059 56.7605 
-81.1869 -107.463 57.7134 -82.4713 -101.93 50.4052 -82.2391 -101.077 49.1383 
-82.9767 -102.583 51.907 -83.2359 -103.258 53.2751 -82.9299 -104.424 54.3069 
-82.5744 -105.715 55.7168 -82.0939 -107.045 57.1617 -80.9666 -108.883 57.4639 
-82.7738 -102.238 49.6299 -82.3884 -101.535 48.5151 -83.4014 -102.861 50.9384 
-83.8706 -103.451 52.4508 -83.7283 -104.391 53.7326 -83.2938 -105.547 54.8269 
-82.8134 -106.703 56.1559 -81.8761 -108.319 57.0643 -80.5931 -110.338 57.2254 
-82.8986 -102.835 49.0418 -82.4834 -102.325 48.0022 -83.5304 -103.329 50.1158 
-84.1075 -103.882 51.4135 -84.1958 -104.755 52.88 -83.8926 -105.809 54.1368 
-83.4579 -106.727 55.2768 -82.6567 -107.932 56.3397 -81.4612 -109.762 56.9573 
-80.4352 -111.596 57.4181 -82.7543 -103.475 48.3223 -83.2026 -103.849 49.4389 
-82.7689 -104.536 49.1075 -83.2452 -104.962 50.191 -82.6909 -105.813 50.108 
-83.8641 -104.298 50.4798 -83.4277 -106.521 50.8704 -83.0424 -107.499 50.4653 
-84.0202 -105.632 51.0754 -84.3379 -105.093 51.7766 -83.8124 -108.071 50.9798 
-83.4594 -108.869 50.2378 -84.2961 -107.265 51.5697 -84.5785 -106.603 52.3225 
-84.3744 -106.193 53.304 -83.5566 -108.941 51.1376 -83.1879 -109.732 50.6126 
-84.0534 -108.439 51.8982 -84.5572 -107.991 52.8512 -84.5616 -107.566 53.8771 
-84.066 -107.13 54.6631 -82.7969 -110.111 52.0768 -82.5868 -111.114 51.8984 
-83.0223 -109.423 52.5804 -83.5193 -109.092 53.3596 -83.931 -108.837 54.3317 
-83.7971 -108.497 55.1736 -83.2612 -108.118 55.767 -82.4153 -112.27 53.5621 
-82.1471 -112.993 53.5587 -82.4164 -111.373 53.7675 -82.4221 -110.675 54.1252 
-82.5928 -110.325 54.6925 -82.6848 -110.156 55.422 -82.4748 -109.952 56.0795 
-82.0125 -109.771 56.5794 -82.2252 -114.188 55.2874 -81.6989 -114.312 55.37 
-82.4619 -113.702 55.2756 -82.3394 -112.918 55.3151 -82.0297 -112.215 55.4716 
-81.7661 -111.916 55.8711 -81.6082 -111.866 56.4412 -81.381 -111.771 56.963 
-80.9589 -111.649 57.2947 -81.8075 -115.122 57.0903 -81.1915 -114.933 57.1734 
-82.3023 -115.184 56.9755 -82.4897 -114.869 56.8774 -82.2948 -114.195 56.8904 
-81.8547 -113.594 57.1146 -81.4747 -113.383 57.5039 -81.2495 -113.341 57.9088 
-80.9618 -113.201 58.2191 -80.5029 -113.013 58.3664 -80.3243 -113.933 59.9065 
-80.8424 -114.179 59.9062 -80.8059 -115.273 61.6415 -81.2835 -114.447 59.8242 
-81.274 -115.652 61.6641 -81.2265 -117.144 63.1277 -81.6325 -114.611 59.6907 
-81.7809 -115.942 61.7607 -81.7472 -117.55 63.2596 -81.8866 -118.891 64.6642 
-82.0137 -114.832 59.4046 -82.3519 -116.17 61.7602 -82.4827 -117.739 63.3922 
-82.5798 -119.131 64.7986 -82.8615 -119.944 66.5175 -82.3495 -115.4 58.9872 
-82.7449 -116.689 61.3979 -83.2317 -118.042 63.2106 -83.4145 -119.28 64.6316 
-83.5271 -120.191 66.4564 -83.657 -120.939 68.2846 -82.3854 -116.036 58.7092 
-82.5862 -117.393 60.8928 -83.3452 -118.709 62.7868 -83.9596 -119.759 64.209 
-84.0562 -120.655 66.0042 -84.0927 -121.5 68.1346 -84.1851 -122.327 69.7983 
-82.1212 -116.219 58.6778 -82.0651 -117.654 60.5844 -82.6929 -119.218 62.4845 
-83.6844 -120.397 63.9751 -84.1509 -121.356 65.523 -84.2157 -122.294 67.6319 
-84.4273 -123.08 69.6772 -84.7175 -123.632 71.2099 -81.6876 -115.978 58.7502 
-81.6131 -117.388 60.4207 -81.961 -119.171 62.2267 -82.8469 -120.628 63.914 
-83.6512 -121.772 65.3311 -83.9802 -122.908 67.0436 -84.2549 -123.814 69.0917 
-84.7333 -124.348 70.8987 -85.183 -124.615 72.352 -81.1548 -115.681 58.795 
-81.2363 -117.029 60.2712 -81.4978 -118.878 61.8329 -82.0599 -120.483 63.6005 
-82.8165 -121.685 65.1764 -83.4011 -122.933 66.6049 -83.7956 -124.082 68.3222 
-84.2939 -124.81 70.1194 -84.8997 -125.227 71.6729 -85.3807 -125.452 73.0235 
-80.1839 -114.626 61.1424 -80.7015 -116.31 62.8415 -80.0769 -115.61 62.3605 
-81.2331 -118.227 64.3298 -80.5759 -117.416 63.9573 -79.8278 -116.714 63.3693 
-82.1042 -119.581 66.2244 -81.2395 -118.98 65.7294 -80.3532 -118.301 65.1003 
-79.4305 -117.663 64.3083 -82.9938 -120.621 68.1793 -82.0958 -120.233 67.7436 
-81.1257 -119.686 67.0788 -80.1369 -119.053 66.2825 -79.0745 -118.437 65.3384 
-83.5987 -121.976 69.7366 -82.7172 -121.707 69.3657 -81.8086 -121.305 68.745 
-80.9138 -120.626 68.0045 -79.873 -119.82 67.2269 -78.7371 -119.095 66.2601 
-84.2586 -123.24 71.3089 -83.3323 -122.999 71.0065 -82.3214 -122.787 70.35 
-81.4299 -122.317 69.4384 -80.4587 -121.479 68.574 -79.3535 -120.486 67.8368 
-78.3025 -119.585 66.9427 -85.0125 -124.121 72.8655 -84.2345 -123.683 72.9116 
-83.098 -123.428 72.4274 -81.9967 -123.245 71.4159 -80.9421 -122.849 70.1178 
-79.8126 -122.049 69.0424 -78.7335 -120.961 68.2966 -77.8131 -119.914 67.4913 
-85.5025 -124.945 73.9085 -85.0444 -124.282 74.3682 -84.0012 -123.736 74.2299 
-82.7346 -123.477 73.4974 -81.556 -123.414 72.1789 -80.4152 -123.184 70.5955 
-79.2573 -122.426 69.398 -78.2064 -121.263 68.6757 -77.32 -120.165 67.9258 
-85.4958 -126.024 74.0484 -85.4855 -125.374 74.9781 -85.1605 -126.425 74.9114 
-84.8088 -125.715 75.5997 -84.1059 -126.437 75.412 -84.7542 -124.56 75.2499 
-83.2383 -125.839 75.8298 -82.3922 -126.322 75.3184 -83.6115 -124.907 75.575 
-83.4086 -123.917 74.9006 -81.1822 -125.907 75.6967 -80.5276 -126.511 74.6669 
-81.6879 -125.082 75.8213 -82.0257 -124.197 75.1796 -82.0204 -123.65 74.0152 
-79.4221 -126.11 74.9678 -78.8579 -126.778 73.9552 -79.8588 -125.12 75.695 
-80.3157 -124.246 75.3948 -80.8241 -123.849 74.1498 -80.8854 -123.665 72.4115 
-78.0208 -126.234 73.9349 -77.2893 -126.761 73.4515 -78.6402 -125.304 74.5291 
-79.0227 -124.287 74.783 -79.4899 -123.85 73.8975 -79.9043 -123.803 72.2195 
-79.7489 -123.397 70.6116 -76.5358 -126.139 73.1553 -75.8404 -126.619 72.8486 
-77.4146 -125.467 73.1739 -77.9774 -124.594 73.2976 -78.2353 -123.94 72.9989 
-78.5778 -123.696 71.809 -78.7622 -123.316 70.4454 -78.5275 -122.424 69.4732 
-75.0757 -125.998 72.5338 -74.7391 -126.502 71.9661 -75.8249 -125.402 72.5062 
-76.5824 -124.759 72.2465 -76.934 -124.114 72.0031 -77.1339 -123.569 71.3572 
-77.4277 -122.999 70.3311 -77.5447 -122.173 69.4769 -77.4318 -121.145 68.7816 
-74.0398 -125.846 71.7265 -74.0227 -126.278 70.9642 -74.4183 -125.24 72.0291 
-75.06 -124.625 71.8128 -75.5683 -124.043 71.4177 -75.8485 -123.422 70.9338 
-76.1559 -122.712 70.1855 -76.4552 -121.896 69.3699 -76.5564 -121.009 68.6647 
-76.5464 -120.141 67.8794 -85.0047 -126.065 72.4977 -84.9504 -126.687 73.3627 
-84.2756 -126.299 71.7408 -83.9793 -126.86 72.3762 -83.2685 -126.168 70.9252 
-84.3451 -126.924 74.1456 -82.7328 -126.714 71.2971 -82.1242 -126.009 69.9885 
-83.0698 -127.005 72.9531 -83.0545 -126.708 74.4901 -81.4963 -126.583 70.1665 
-81.0962 -125.92 68.8439 -81.6649 -126.967 71.6909 -81.7017 -126.891 73.1146 
-81.4133 -126.659 74.0658 -80.4929 -126.423 68.8739 -80.2572 -125.662 67.6279 
-80.4758 -126.872 70.4201 -80.4204 -127.063 71.8258 -80.3427 -127.062 72.6957 
-79.7735 -126.996 73.3745 -79.6043 -126.068 67.4866 -79.4594 -125.196 66.444 
-79.4992 -126.615 68.8564 -79.3081 -127 70.3825 -79.2437 -127.313 71.4482 
-78.8948 -127.382 72.2132 -78.0769 -127.176 73.0153 -78.7228 -125.51 66.2176 
-78.7046 -124.656 65.2279 -78.5809 -126.193 67.267 -78.3146 -126.751 68.5481 
-78.1243 -127.274 69.7709 -77.8586 -127.551 70.7624 -77.2356 -127.438 71.7614 
-76.4592 -127.087 72.5716 -77.9558 -124.801 65.0453 -78.0648 -124.071 63.9804 
-77.774 -125.526 66.0288 -77.5262 -126.302 66.9572 -77.2543 -127.026 67.9148 
-76.929 -127.444 68.897 -76.4562 -127.473 69.9571 -75.8729 -127.275 70.9742 
-75.2779 -126.953 71.6611 -77.3241 -124.058 63.8506 -77.4852 -123.419 62.841 
[...]
CELL_DATA 2000
SCALARS Distance double
LOOKUP_TABLE default
140.395 141.202 140.967 141.379 142.052 141.813 142.251 142.054 142.634 
142.947 142.694 143.19 142.986 143.623 143.469 144.23 143.972 143.67 
144.245 144.019 144.733 144.54 145.345 145.189 146.033 145.032 144.738 
145.353 145.162 145.954 145.75 146.579 146.366 147.224 147.047 147.917 
145.969 145.733 146.33 146.244 147.095 146.994 147.86 147.648 148.494 
148.282 149.175 148.987 149.877 146.864 146.637 147.265 147.194 148.121 
148.108 149.078 148.932 149.816 149.59 150.493 150.289 151.21 150.985 
151.832 147.872 147.628 148.374 148.239 149.261 149.215 150.309 150.186 
151.17 150.947 151.883 151.654 152.589 152.348 153.2 152.908 153.641 
148.978 148.76 149.615 149.472 150.551 150.476 151.617 151.497 152.534 
152.331 153.291 153.066 153.994 153.746 154.582 154.277 154.984 154.638 
155.246 139.959 139.576 140.101 140.774 139.222 139.74 140.454 140.963 
141.631 138.96 139.423 140.145 140.658 141.379 141.843 142.519 138.841 
139.232 139.953 140.403 141.175 141.638 142.398 142.815 143.547 138.806 
139.181 139.917 140.297 141.065 141.493 142.323 142.766 143.589 143.954 
144.675 138.742 139.157 139.925 140.309 141.056 141.431 142.226 142.69 
143.568 144.025 144.806 145.091 145.684 138.68 139.096 139.921 140.335 
141.141 141.477 142.234 142.607 143.427 143.924 144.745 145.17 145.796 
146.026 146.539 138.775 139.109 139.983 140.378 141.266 141.615 142.422 
142.705 143.463 143.812 144.577 145.013 145.69 146.049 146.59 146.85 
147.42 139.095 139.32 140.167 140.495 141.366 141.741 142.589 142.921 
143.702 143.962 144.669 144.934 145.586 145.906 146.506 146.832 147.425 
147.753 148.423 139.617 140.693 140.295 140.62 141.828 141.368 141.683 
141.332 141.75 143.265 142.648 142.973 142.469 142.901 142.533 142.995 
144.65 144.138 144.45 143.902 144.316 143.819 144.291 143.836 144.211 
145.434 145.183 145.384 145.162 145.506 145.207 145.609 145.19 145.505 
144.981 145.18 146.278 145.831 145.953 145.755 146.049 146.02 146.387 
146.274 146.537 146.186 146.309 145.826 145.966 147.892 147.115 147.37 
146.656 146.972 146.562 146.961 146.814 147.174 147.008 147.227 146.877 
147.034 146.605 146.826 149.605 149.003 149.447 148.591 148.952 148.048 
148.395 147.719 148.123 147.725 148.144 147.813 148.168 147.74 148.038 
147.554 147.826 150.746 150.511 151.038 150.575 150.99 150.223 150.515 
149.593 149.897 149.104 149.55 148.989 149.509 149.021 149.464 148.91 
149.243 148.644 148.912 149.8 150.191 150.481 151.53 150.483 150.878 
151.998 152.36 153.599 150.614 151.145 152.392 152.849 154.163 154.55 
155.872 150.771 151.316 152.721 153.267 154.689 155.128 156.474 156.831 
158.067 151.194 151.622 153.107 153.662 155.181 155.662 157.01 157.382 
158.593 158.921 160.039 151.729 152.103 153.468 154.043 155.544 156.126 
157.481 157.883 159.056 159.394 160.546 160.864 161.977 151.984 152.431 
153.527 154.189 155.534 156.312 157.665 158.252 159.421 159.824 160.967 
161.352 162.53 162.837 163.909 151.823 152.356 153.226 153.951 155.127 
156.046 157.37 158.21 159.398 160.023 161.118 161.66 162.784 163.269 
164.329 164.662 165.553 151.423 151.974 152.759 153.479 154.577 155.499 
156.777 157.727 158.902 159.733 160.771 161.532 162.546 163.255 164.213 
164.8 165.627 166.047 166.736 149.867 151.69 150.707 150.673 153.822 
152.743 152.797 151.71 151.731 156.098 154.999 155.067 153.944 153.966 
152.84 152.802 158.293 157.282 157.34 156.223 156.197 155.063 154.977 
153.842 153.695 160.295 159.402 159.514 158.462 158.441 157.292 157.2 
156.019 155.87 154.681 154.48 162.236 161.379 161.563 160.591 160.64 
159.542 159.477 158.284 158.127 156.894 156.666 155.441 155.18 164.153 
163.34 163.535 162.615 162.688 161.686 161.632 160.521 160.315 159.114 
158.794 157.58 157.22 156.044 155.694 165.827 165.179 165.355 164.524 
164.536 163.621 163.518 162.531 162.283 161.178 160.786 159.603 159.147 
157.978 157.53 156.422 156.016 167.091 166.676 166.864 166.192 166.126 
165.302 165.086 164.216 163.92 162.974 162.579 161.497 161.009 159.844 
159.329 158.185 157.7 156.639 156.214 167.739 168.479 168.023 167.563 
168.613 168.516 168.037 167.54 166.775 167.995 168.285 167.848 167.697 
166.915 166.49 165.624 166.982 167.428 167.079 167.209 166.505 166.362 
165.554 165.242 164.407 165.988 166.399 166.097 166.332 165.732 165.775 
165.076 164.999 164.268 163.988 163.107 165.017 165.412 165.091 165.365 
164.816 164.949 164.3 164.386 163.734 163.695 162.887 162.578 161.564 
163.972 164.373 164.022 164.344 163.827 164.024 163.387 163.531 162.868 
162.986 162.227 162.167 161.198 160.903 159.834 162.942 163.3 162.935 
163.256 162.777 163.026 162.434 162.598 161.918 162.045 161.286 161.35 
160.46 160.367 159.362 159.124 158.134 161.985 162.303 161.939 162.213 
161.752 161.995 161.448 161.638 160.989 161.105 160.359 160.414 159.591 
159.573 158.687 158.569 157.662 157.466 156.607 167.729 167.544 168.013 
168.479 166.796 167.554 168.068 168.524 168.622 165.72 166.58 167.048 
167.777 167.892 168.281 167.983 164.61 165.426 165.834 166.595 166.732 
167.3 167.105 167.399 166.966 163.501 164.292 164.654 165.381 165.564 
166.154 166.109 166.492 166.247 166.426 166.032 162.291 163.108 163.399 
164.155 164.323 165.006 165.067 165.581 165.474 165.757 165.473 165.569 
165.13 160.992 161.809 162.036 162.809 162.924 163.682 163.76 164.462 
164.428 164.927 164.687 164.952 164.548 164.63 164.117 159.677 160.457 
160.64 161.402 161.516 162.265 162.358 163.095 163.104 163.735 163.551 
164.005 163.656 163.934 163.493 163.593 163.09 158.386 159.114 159.246 
159.992 160.114 160.876 161.005 161.739 161.78 162.408 162.265 162.778 
162.497 162.921 162.576 162.87 162.462 162.583 162.116 151.379 151.948 
152.003 152.832 152.864 152.837 153.833 153.774 154.799 153.857 153.887 
154.979 154.953 156.043 155.948 157.003 154.807 154.884 155.996 156.061 
157.129 157.137 158.137 158.098 159.046 155.765 155.845 156.954 157.028 
158.086 158.122 159.106 159.113 160.069 160.041 160.936 156.604 156.748 
157.811 157.938 158.986 159.06 160.066 160.076 161.063 161.049 162.02 
161.935 162.785 157.247 157.456 158.45 158.662 159.666 159.864 160.862 
160.99 161.954 162.016 162.959 162.977 163.861 163.754 164.472 157.742 
157.994 158.948 159.195 160.167 160.427 161.406 161.644 162.576 162.758 
163.642 163.781 164.637 164.7 165.463 165.343 165.911 158.041 158.374 
159.282 159.604 160.535 160.851 161.79 162.086 162.98 163.233 164.072 
164.299 165.132 165.331 166.134 166.203 166.855 166.682 167.088 150.676 
149.716 150.464 151.111 148.72 149.502 150.149 151.011 151.875 147.653 
148.489 149.163 150.041 150.85 151.822 152.782 146.572 147.399 148.09 
149.018 149.817 150.771 151.657 152.695 153.693 145.64 146.362 147.03 
147.931 148.752 149.709 150.567 151.561 152.518 153.612 154.646 144.877 
145.511 146.131 146.928 147.736 148.659 149.52 150.471 151.365 152.419 
153.422 154.555 155.531 144.166 144.78 145.352 146.069 146.8 147.67 
148.501 149.428 150.253 151.24 152.141 153.27 154.245 155.373 156.237 
143.501 144.088 144.636 145.287 145.922 146.719 147.475 148.387 149.167 
150.106 150.906 151.954 152.867 154.029 154.948 156.028 156.787 142.935 
143.473 144.017 144.594 145.167 145.845 146.52 147.354 148.115 149.016 
149.784 150.735 151.57 152.655 153.565 154.697 155.515 156.524 157.147 
142.824 143.014 143.256 143.912 143.18 143.461 144.166 144.375 145.054 
143.388 143.662 144.454 144.677 145.437 145.604 146.393 143.735 143.956 
144.829 145.053 145.932 146.092 146.962 147.095 147.983 144.184 144.378 
145.276 145.506 146.45 146.652 147.585 147.734 148.65 148.766 149.665 
144.686 144.864 145.78 145.998 146.951 147.174 148.12 148.329 149.281 
149.452 150.411 150.508 151.462 145.284 145.427 146.399 146.574 147.578 
147.737 148.717 148.878 149.886 150.08 151.14 151.3 152.356 152.422 
153.44 145.976 146.096 147.108 147.268 148.336 148.471 149.527 149.615 
150.683 150.794 151.912 152.065 153.177 153.308 154.345 154.411 155.353 
146.696 146.818 147.819 147.989 149.051 149.238 150.324 150.479 151.571 
151.687 152.779 152.894 153.95 154.08 155.056 155.188 156.071 156.169 
156.954 147.423 148.979 148.312 148.587 150.661 149.949 150.232 149.537 
149.831 152.407 151.682 151.983 151.245 151.562 150.844 151.149 154.167 
153.463 153.806 153.052 153.387 152.635 152.987 152.219 152.486 155.889 
155.234 155.633 154.909 155.262 154.494 154.842 154.087 154.398 153.566 
153.742 157.568 156.964 157.421 156.744 157.137 156.379 156.719 155.949 
156.257 155.461 155.658 154.773 154.866 159.168 158.641 159.129 158.513 
158.931 158.232 158.6 157.845 158.164 157.345 157.542 156.65 156.728 
155.829 155.888 160.532 160.156 160.636 160.137 160.527 159.938 160.294 
159.656 159.982 159.246 159.432 158.546 158.577 157.649 157.659 156.797 
156.846 161.53 161.339 161.805 161.477 161.842 161.39 161.701 161.194 
161.477 160.904 161.063 160.328 160.311 159.445 159.378 158.52 158.51 
157.699 157.707 146.989 146.791 147.433 148.534 146.545 147.242 148.423 
149.074 150.231 146.237 146.99 148.242 148.978 150.243 150.844 152.001 
145.874 146.665 147.998 148.822 150.234 150.919 152.199 152.679 153.79 
145.591 146.324 147.722 148.605 150.186 150.991 152.45 152.974 154.152 
154.489 155.519 145.539 146.143 147.531 148.378 150.028 150.953 152.534 
153.226 154.465 154.867 155.862 156.178 157.15 145.603 146.154 147.455 
148.228 149.794 150.747 152.284 153.146 154.364 154.991 155.947 156.417 
157.334 157.752 158.697 145.577 146.158 147.347 148.092 149.508 150.436 
151.852 152.747 153.887 154.642 155.576 156.256 157.171 157.78 158.703 
159.202 160.049 145.462 146.048 147.149 147.867 149.142 150.038 151.362 
152.248 153.355 154.098 155.018 155.742 156.683 157.433 158.382 159.043 
159.878 160.385 161.059 146.007 144.481 145.407 145.746 142.889 143.837 
144.118 145.102 145.45 141.09 142.142 142.396 143.424 143.72 144.762 
145.104 139.139 140.21 140.457 141.591 141.867 142.968 143.272 144.366 
144.708 137.402 138.255 138.421 139.553 139.842 141.022 141.334 142.484 
142.852 143.983 144.415 136.088 136.639 136.614 137.543 137.79 138.958 
139.313 140.509 140.932 142.125 142.65 143.81 144.381 135.129 135.461 
135.274 135.875 135.983 136.968 137.325 138.502 138.952 140.185 140.744 
142.016 142.661 143.866 144.472 134.456 134.666 134.488 134.765 134.739 
135.356 135.638 136.622 137.09 138.243 138.781 140.049 140.686 142.025 
142.678 143.919 144.47 133.999 134.174 134.127 134.231 134.19 134.422 
134.603 135.203 135.677 136.58 137.163 138.211 138.827 140.034 140.706 
142.01 142.648 143.865 144.387 133.798 133.699 133.852 134.005 133.727 
133.826 134.012 134.037 134.119 133.999 133.976 134.235 134.172 134.313 
134.233 134.486 134.61 134.422 134.745 134.582 134.851 134.645 134.971 
134.891 135.482 135.505 135.187 135.512 135.259 135.617 135.373 135.803 
135.607 136.188 136.143 136.921 136.541 136.168 136.464 136.126 136.454 
136.198 136.662 136.51 137.106 136.981 137.656 137.643 138.5 137.578 
137.219 137.512 137.13 137.396 137.058 137.459 137.317 137.934 137.874 
138.543 138.451 139.21 139.273 140.272 138.555 138.224 138.524 138.171 
138.441 138.049 138.4 138.148 138.754 138.682 139.424 139.347 140.108 
140.063 140.977 141.123 142.194 139.497 139.166 139.453 139.143 139.457 
139.108 139.493 139.177 139.768 139.597 140.37 140.27 141.076 140.992 
141.852 141.882 142.854 143.02 143.995 140.112 141.101 140.404 140.077 
142.395 141.536 141.209 140.447 140.138 144.031 143.031 142.741 141.778 
141.489 140.611 140.315 145.85 144.808 144.564 143.498 143.247 142.201 
141.955 140.947 140.716 147.746 146.693 146.487 145.401 145.175 144.087 
143.864 142.778 142.559 141.504 141.328 149.717 148.656 148.499 147.382 
147.181 146.059 145.846 144.739 144.521 143.427 143.225 142.181 142.028 
151.668 150.661 150.56 149.459 149.299 148.137 147.944 146.774 146.575 
145.43 145.252 144.142 144.003 142.934 142.842 153.46 152.564 152.504 
151.507 151.39 150.284 150.108 148.93 148.735 147.55 147.388 146.235 
146.121 144.999 144.927 143.838 143.82 155.053 154.265 154.228 153.363 
153.279 152.303 152.141 151.052 150.839 149.7 149.509 148.382 148.242 
147.134 147.03 145.944 145.883 144.847 144.855 145.741 146.782 146.631 
147.453 147.956 147.77 148.655 148.489 149.461 149.186 149.004 149.932 
149.77 150.777 150.633 151.64 150.438 150.254 151.189 151.048 152.039 
151.929 152.889 152.743 153.572 151.753 151.543 152.466 152.296 153.257 
153.14 154.079 153.937 154.751 154.531 155.234 153.049 152.874 153.8 
153.603 154.538 154.364 155.296 155.128 155.999 155.762 156.541 156.232 
156.957 154.165 154.098 155.025 154.902 155.82 155.654 156.561 156.378 
157.262 157.05 157.88 157.607 158.365 158.024 158.699 155.082 155.104 
156.021 156.009 156.914 156.847 157.73 157.61 158.46 158.295 159.09 
158.886 159.603 159.355 159.981 159.665 160.182 155.883 155.95 156.87 
156.92 157.83 157.837 158.712 158.672 159.497 159.406 160.152 160.001 
160.648 160.455 161.011 160.785 161.252 160.965 161.334 138.348 138.007 
137.805 137.15 137.942 137.604 136.964 136.712 136.121 138.01 137.625 
136.967 136.643 136.017 135.747 135.154 138.077 137.695 136.985 136.641 
135.955 135.654 134.978 134.748 134.218 138.168 137.779 137.101 136.688 
136 135.611 134.938 134.606 134.029 133.87 133.573 138.323 137.922 
137.324 136.892 136.264 135.785 135.142 134.685 134.108 133.785 133.41 
133.357 133.266 138.567 138.13 137.547 137.141 136.549 136.104 135.463 
134.98 134.363 133.948 133.494 133.28 133.088 133.126 133.144 138.937 
138.446 137.873 137.41 136.853 136.397 135.808 135.319 134.727 134.253 
133.792 133.448 133.234 133.089 133.107 133.124 133.256 139.389 138.891 
138.389 137.861 137.382 136.835 136.352 135.781 135.307 134.741 134.363 
133.887 133.711 133.403 133.441 133.291 133.45 133.398 133.593 138.454 
137.201 137.962 138.366 136.063 136.704 137.05 137.951 138.535 135.071 
135.604 135.845 136.649 137.248 138.233 138.94 134.242 134.69 134.943 
135.565 136.113 136.993 137.767 138.729 139.448 133.734 134.056 134.426 
134.866 135.408 136.033 136.757 137.611 138.413 139.288 139.94 133.503 
133.755 134.189 134.537 135.083 135.514 136.138 136.755 137.51 138.314 
139.067 139.817 140.374 133.357 133.576 133.967 134.327 134.828 135.236 
135.785 136.257 136.924 137.56 138.33 139.032 139.695 140.287 140.771 
133.381 133.462 133.774 134.06 134.521 134.93 135.483 135.932 136.589 
137.11 137.874 138.457 139.184 139.72 140.296 140.756 141.246 133.668 
133.598 133.87 133.965 134.423 134.692 135.302 135.684 136.397 136.853 
137.626 138.126 138.865 139.339 139.967 140.388 140.941 141.339 141.876 
139.246 139.221 139.609 140.377 139.415 139.686 140.441 140.745 141.52 
139.793 139.966 140.682 140.887 141.667 141.996 142.921 140.236 140.371 
141.055 141.194 141.959 142.227 143.167 143.53 144.387 140.642 140.778 
141.437 141.581 142.334 142.574 143.492 143.816 144.659 144.866 145.38 
140.979 141.124 141.75 141.927 142.653 142.917 143.78 144.115 144.944 
145.163 145.758 145.769 146.27 141.305 141.426 142.034 142.214 142.903 
143.165 143.937 144.288 145.061 145.381 146.05 146.207 146.84 146.893 
147.679 141.747 141.79 142.404 142.527 143.198 143.395 144.084 144.364 
145.055 145.401 146.087 146.416 147.109 147.376 148.127 148.378 149.194 
142.356 142.32 142.928 142.968 143.62 143.727 144.371 144.531 145.166 
145.41 146.094 146.425 147.157 147.512 148.239 148.588 149.283 149.638 
150.285 145.838 145.111 145.095 144.339 144.427 144.374 143.591 143.572 
142.766 143.848 143.731 142.904 142.818 141.925 141.892 140.963 143.35 
143.192 142.33 142.16 141.194 141.046 140.046 139.996 139.052 142.893 
142.702 141.83 141.616 140.653 140.401 139.427 139.221 138.356 138.238 
137.472 142.565 142.291 141.439 141.168 140.278 139.976 139.105 138.809 
138.06 137.814 137.165 136.941 136.32 142.41 142.069 141.265 140.909 
140.11 139.749 138.976 138.634 137.926 137.648 137.003 136.766 136.14 
135.917 135.354 142.302 141.978 141.232 140.861 140.13 139.736 139.012 
138.613 137.877 137.533 136.804 136.552 135.852 135.678 135.07 134.969 
134.534 142.163 141.882 141.197 140.871 140.193 139.825 139.124 138.706 
137.947 137.518 136.741 136.371 135.645 135.378 134.765 134.632 134.194 
134.198 133.944 
POINT_DATA 1002
SCALARS Distance double
LOOKUP_TABLE default
140.739 139.847 140.604 141.56 141.446 141.843 142.437 142.278 142.762 
143.303 143.372 143.197 143.766 144.347 145.044 144.446 144.28 144.925 
145.513 146.179 146.879 145.496 145.329 146.125 146.816 147.411 148.087 
148.789 146.384 146.205 147.118 148.047 148.722 149.353 150.089 150.755 
147.331 147.066 148.087 149.162 150.029 150.699 151.429 152.114 152.629 
148.492 148.061 149.302 150.399 151.37 152.115 152.838 153.503 153.983 
154.311 149.731 149.144 150.626 151.731 152.724 153.512 154.248 154.898 
155.347 155.623 155.805 139.427 140.272 139.031 139.92 138.719 141.172 
139.632 138.532 140.886 142.084 139.535 138.459 140.695 141.948 143.166 
139.553 138.41 140.665 141.839 143.185 144.42 139.512 138.307 140.712 
141.793 143.049 144.475 145.529 139.47 138.264 140.784 141.929 142.983 
144.254 145.512 146.354 139.596 138.467 140.883 142.134 143.205 144.203 
145.278 146.286 147.137 139.898 138.922 141.006 142.209 143.426 144.48 
145.327 146.159 147.081 148.065 140.034 140.956 141.092 142.059 142.335 
142.037 143.55 143.91 143.313 143.355 144.955 145.089 144.846 144.792 
144.73 145.509 145.707 145.688 145.987 146.051 145.738 146.282 146.853 
146.075 146.39 146.79 146.776 146.418 148.218 148.614 147.619 147.23 
147.272 147.468 147.447 147.247 150.185 150.023 149.943 149.3 148.661 
148.441 148.531 148.534 148.341 151.332 150.89 151.602 151.429 150.821 
150.215 149.999 150 149.86 149.53 150.728 151.188 152.679 151.591 
153.218 154.902 151.848 153.742 155.532 157.183 152.106 154.215 156.113 
157.778 159.241 152.552 154.669 156.661 158.258 159.746 161.135 152.943 
154.915 157.052 158.732 160.182 161.715 163.082 152.928 154.716 156.973 
158.973 160.561 162.163 163.717 164.931 152.543 154.214 156.453 158.686 
160.537 162.26 163.932 165.34 166.392 152.053 153.686 155.835 158.044 
159.978 161.802 163.578 165.132 166.413 167.406 151.666 153.886 152.84 
156.209 155.108 153.953 158.457 157.356 156.13 154.851 160.511 159.577 
158.392 157.079 155.682 162.494 161.685 160.659 159.382 157.922 156.397 
164.447 163.667 162.716 161.524 160.038 158.424 156.84 166.161 165.461 
164.486 163.357 161.973 160.348 158.672 157.081 167.477 166.956 165.964 
164.812 163.597 162.171 160.512 158.804 157.215 168.337 168.258 168.845 
168.447 168.55 167.408 167.862 167.578 167.239 166.1 166.849 166.526 
166.533 165.749 164.816 165.829 165.615 165.62 165.048 164.437 163.557 
164.797 164.642 164.65 164.18 163.676 163.096 162.012 163.683 163.594 
163.589 163.246 162.74 162.192 161.398 160.186 162.625 162.609 162.5 
162.246 161.812 161.206 160.463 159.52 158.383 161.677 161.67 161.516 
161.242 160.857 160.3 159.574 158.738 157.805 156.8 167.447 168.258 
166.931 167.477 165.981 168.474 166.286 164.895 167.384 167.825 165.098 
163.84 166.121 166.697 166.799 163.941 162.725 164.928 165.648 165.987 
165.96 162.66 161.489 163.599 164.447 165.112 165.329 165.136 161.281 
160.209 162.17 163.006 163.834 164.344 164.395 164.118 159.883 158.942 
160.758 161.622 162.451 163.033 163.283 163.295 163.071 158.52 157.699 
159.337 160.25 161.146 161.744 162.022 162.189 162.248 162.072 151.199 
152.759 151.89 153.863 152.843 154.878 154.956 153.774 156.119 157.133 
155.924 154.724 157.11 158.161 159.118 156.889 155.685 158.052 159.097 
160.063 161.029 157.672 156.457 158.876 160.033 161.071 162.058 162.976 
158.241 157.046 159.439 160.686 161.87 162.923 163.899 164.71 158.698 
157.484 159.907 161.157 162.378 163.483 164.522 165.491 166.19 149.948 
150.251 148.957 149.306 147.905 150.897 148.265 146.795 149.926 151.731 
147.142 145.783 148.87 150.66 152.584 146.166 144.977 147.787 149.603 
151.444 153.529 145.395 144.263 146.836 148.591 150.37 152.287 154.453 
144.685 143.554 145.98 147.59 149.328 151.066 153.072 155.21 144.027 
142.924 145.199 146.592 148.249 149.93 151.727 153.805 155.83 143.469 
142.414 144.559 145.748 147.225 148.875 150.552 152.434 154.457 156.259 