# vtk DataFile Version 4.0
vtk output
ASCII
DATASET POLYDATA
POINTS 1002 float
-77.2224 -107.896 58.9078 -77.4634 -106.702 58.0891 -78.012 -107.059 58.1865 
-77.7673 -108.425 58.9732 -78.496 -107.63 58.2589 -77.0197 -109.243 59.7793 
-78.2455 -109.2 59.0453 -78.9667 -108.478 58.3993 -77.5399 -109.894 59.8517 
-76.7604 -110.786 60.5969 -78.6375 -110.253 59.2208 -79.4137 -109.506 58.617 
-77.9343 -110.843 59.9472 -77.1419 -111.706 60.6754 -76.3813 -112.851 61.361 
-78.8363 -111.429 59.3323 -79.6156 -110.595 58.7262 -78.1748 -112.041 60.092 
-77.3878 -112.943 60.8096 -76.645 -114.128 61.528 -76.0955 -115.163 62.3489 
-78.7532 -112.584 59.246 -79.4954 -111.805 58.665 -78.267 -113.251 60.1192 
-77.6201 -114.243 61.0221 -76.925 -115.494 61.8358 -76.4495 -116.481 62.6778 
-76.0821 -117.113 63.5792 -78.6715 -113.756 59.2905 -79.3848 -113.076 58.696 
-78.3159 -114.434 60.1682 -77.9471 -115.451 61.2425 -77.4049 -116.664 62.2877 
-76.964 -117.611 63.196 -76.6345 -118.225 64.0633 -76.2807 -118.716 64.9074 
-78.989 -114.872 59.7415 -79.5765 -114.143 59.0312 -78.6055 -115.649 60.5828 
-78.3618 -116.674 61.6137 -78.0395 -117.754 62.767 -77.6761 -118.543 63.8283 
-77.3537 -119.111 64.7544 -77.0045 -119.65 65.6113 -76.649 -120.105 66.3703 
-79.6505 -115.817 60.4437 -79.9991 -114.995 59.6095 -79.2563 -116.741 61.2924 
-78.9223 -117.799 62.2225 -78.6688 -118.789 63.315 -78.415 -119.473 64.432 
-78.14 -119.957 65.4543 -77.8316 -120.453 66.3952 -77.4895 -120.914 67.1921 
-77.1516 -121.212 67.7941 -80.3115 -116.672 61.1881 -80.4456 -115.857 60.2836 
-80.0114 -117.631 62.054 -79.6211 -118.665 62.9318 -79.3232 -119.579 63.9616 
-79.1137 -120.271 65.0665 -78.8869 -120.816 66.0761 -78.6327 -121.296 67.015 
-78.3592 -121.692 67.865 -78.0459 -121.958 68.5018 -77.6857 -122.104 68.9343 
-78.1098 -105.914 57.3263 -78.7036 -106.169 57.5026 -78.7966 -105.317 56.4825 
-79.47 -105.518 56.7357 -79.4684 -104.776 55.5948 -79.2357 -106.695 57.6459 
-80.2425 -105.146 55.7954 -80.2024 -104.12 54.819 -80.1418 -106.036 56.9174 
-79.8593 -107.47 57.8468 -81.1112 -104.696 54.9567 -81.1175 -103.446 54.2236 
-81.1061 -105.744 56.031 -81.0376 -106.595 57.2921 -80.5208 -108.307 58.196 
-82.1361 -103.936 54.4136 -81.9937 -102.941 53.5183 -82.1129 -105.299 55.3006 
-82.2248 -106.102 56.7413 -81.9563 -107.117 57.997 -80.839 -109.367 58.4608 
-82.9663 -103.316 53.7514 -82.4501 -102.717 52.4943 -83.0849 -104.56 54.6801 
-83.1699 -105.787 56.079 -83.1749 -106.572 57.7148 -82.3083 -108.236 58.4218 
-80.6808 -110.862 58.4049 -83.3067 -103.329 52.7764 -82.5454 -102.889 51.4478 
-83.7178 -104.178 53.8449 -83.8063 -105.561 55.11 -83.8352 -106.675 56.8628 
-83.3507 -107.844 58.0575 -81.9373 -109.975 58.2045 -80.3807 -112.362 58.2953 
-83.3539 -103.85 51.8621 -82.5999 -103.434 50.714 -83.9244 -104.427 52.9583 
-84.1389 -105.585 54.0977 -84.1507 -106.925 55.6606 -83.8605 -108.02 57.1463 
-82.8208 -109.492 57.7561 -81.3191 -111.547 57.909 -80.2734 -113.481 58.4907 
-83.341 -104.515 51.2563 -82.6892 -104.145 50.3104 -83.9102 -104.992 52.2812 
-84.25 -105.886 53.3396 -84.36 -107.119 54.6715 -84.2025 -108.237 56.1425 
-83.4684 -109.351 57.1152 -82.1458 -110.916 57.5123 -80.9284 -112.761 57.9999 
-80.4058 -114.44 58.9896 -83.0583 -105.083 50.6345 -83.6559 -105.513 51.5695 
-83.1856 -106.088 51.1229 -83.8493 -106.817 51.9028 -83.2444 -107.408 51.6155 
-84.1677 -106.266 52.5522 -84.0253 -108.437 52.15 -83.334 -109.049 51.9465 
-84.4177 -107.861 52.8122 -84.4818 -107.357 53.7466 -83.8705 -110.012 52.5141 
-83.1105 -110.818 52.2984 -84.4157 -109.443 53.1108 -84.5962 -108.888 54.1568 
-84.4874 -108.458 55.2177 -83.2204 -111.564 53.2144 -82.5773 -112.687 52.9867 
-83.7711 -110.764 53.7282 -84.0888 -110.279 54.5774 -84.195 -109.824 55.6085 
-83.9568 -109.487 56.4564 -82.6726 -113.509 54.1346 -82.1924 -114.541 54.0328 
-82.9916 -112.411 54.5865 -83.0673 -111.767 55.1469 -83.1913 -111.412 55.8341 
-83.2077 -111.055 56.5737 -82.7737 -110.842 57.1259 -82.3819 -115.593 55.2982 
-81.8893 -116.116 55.3318 -82.6587 -114.711 55.5947 -82.4477 -113.868 55.9611 
-82.1402 -113.385 56.2731 -82.129 -113.084 56.7363 -81.9713 -112.781 57.2894 
-81.4611 -112.632 57.7023 -81.9466 -117.275 56.8191 -81.4363 -117.402 56.8018 
-82.4062 -116.93 56.9794 -82.3997 -116.292 57.2005 -81.8908 -115.626 57.3481 
-81.5043 -115.243 57.5396 -81.3877 -115.011 57.9307 -81.1376 -114.711 58.3776 
-80.7535 -114.469 58.7234 -81.4917 -118.546 58.4524 -81.0515 -118.565 58.2823 
-82.0519 -118.538 58.6013 -82.4623 -118.286 58.7254 -82.328 -117.697 58.8601 
-81.8269 -117.159 59.0374 -81.4643 -116.96 59.288 -81.2449 -116.799 59.5998 
-80.9872 -116.432 59.8968 -80.7218 -116.051 60.1247 -80.8502 -117.361 61.6473 
-81.1523 -117.769 61.6081 -81.2609 -118.992 63.1695 -81.4728 -118.243 61.487 
-81.7204 -119.424 63.2369 -81.8121 -120.526 64.7372 -81.8371 -118.481 61.3037 
-82.2641 -119.759 63.1942 -82.5287 -120.839 64.8324 -82.7925 -121.852 66.4006 
-82.2765 -118.53 61.0243 -82.8418 -119.859 63.0236 -83.2445 -121.056 64.825 
-83.6372 -122.095 66.5876 -84.0777 -122.9 68.3031 -82.7735 -118.878 60.6333 
-83.3883 -120.044 62.5745 -83.8098 -121.27 64.6099 -84.2774 -122.389 66.6611 
-84.8275 -123.212 68.5666 -85.143 -123.723 70.1146 -82.9204 -119.492 60.3254 
-83.6433 -120.59 61.984 -84.1397 -121.725 64.0353 -84.6763 -122.808 66.3658 
-85.4272 -123.635 68.4328 -85.8047 -124.18 70.0384 -85.7409 -124.607 71.2924 
-82.4543 -119.812 60.2201 -83.2815 -121.057 61.6852 -84.0002 -122.27 63.4705 
-84.7212 -123.347 65.7446 -85.839 -124.116 67.8047 -86.5508 -124.636 69.3566 
-86.404 -125.122 70.7427 -86.1027 -125.625 72.0513 -81.7685 -119.771 60.1252 
-82.5436 -121.09 61.6331 -83.3808 -122.439 63.239 -84.2 -123.678 65.2631 
-85.5939 -124.571 67.1386 -86.9461 -125.087 68.47 -87.1326 -125.527 69.8093 
-86.6752 -126.074 71.4041 -86.4971 -126.569 72.8804 -81.2394 -119.716 59.8897 
-81.8808 -120.959 61.4745 -82.666 -122.254 63.0699 -83.3671 -123.548 64.9482 
-84.5883 -124.685 66.7483 -86.3258 -125.451 67.9349 -87.2572 -125.933 68.9991 
-87.0738 -126.435 70.5472 -86.8014 -126.98 72.2803 -86.8943 -127.353 73.6809 
-80.7147 -118.254 62.6271 -81.095 -119.906 64.2169 -80.3953 -119.263 63.5563 
-81.8181 -121.439 65.9576 -80.9322 -120.832 65.3158 -80.0969 -120.175 64.6047 
-83.0888 -122.685 67.8588 -81.9746 -122.307 67.2629 -80.9015 -121.628 66.5515 
-79.9197 -120.921 65.7896 -84.4104 -123.501 69.8122 -83.3491 -123.431 69.2001 
-82.0804 -123.109 68.4646 -80.8048 -122.414 67.6731 -79.7129 -121.631 66.8367 
-85.2228 -124.223 71.4181 -84.445 -124.082 71.0128 -83.272 -124.098 70.2459 
-81.8732 -123.8 69.3761 -80.521 -123.116 68.5058 -79.4455 -122.24 67.7098 
-85.6532 -125.227 72.5126 -85.0413 -124.811 72.5252 -84.0856 -124.604 72.038 
-82.8501 -124.457 71.1936 -81.4845 -124.094 70.2139 -80.2115 -123.46 69.2932 
-79.192 -122.604 68.5498 -86.1358 -126.261 73.4323 -85.4944 -125.766 73.6828 
-84.5271 -125.242 73.5811 -83.433 -124.813 73.0788 -82.2889 -124.464 72.2138 
-81.062 -124.111 71.1184 -79.8971 -123.569 70.0742 -78.9031 -122.79 69.25 
-86.7164 -127.054 74.2961 -86.0753 -126.572 74.6211 -84.9562 -125.981 74.6767 
-83.7283 -125.39 74.4482 -82.669 -124.883 73.9184 -81.6453 -124.529 73.0288 
-80.545 -124.205 71.8257 -79.4717 -123.662 70.6463 -78.512 -122.898 69.7186 
-87.127 -127.867 74.6577 -86.7649 -127.373 75.2571 -86.7271 -128.248 75.2689 
-86.0311 -127.643 75.8926 -85.3122 -128.612 75.5561 -85.7085 -126.747 75.4941 
-84.4709 -128.057 76.1136 -83.3618 -128.991 75.4802 -84.7565 -126.96 76.0224 
-84.2372 -126.123 75.3538 -82.4936 -128.441 75.863 -81.5544 -129.227 75.0117 
-83.2422 -127.308 76.1225 -83.2193 -126.344 75.6019 -82.8824 -125.561 74.9188 
-80.5285 -128.486 75.3391 -80.0148 -129.192 74.4789 -81.2099 -127.513 75.9179 
-81.702 -126.563 75.5722 -81.8084 -125.787 74.9508 -81.7973 -125.086 74.3046 
-78.9707 -128.227 74.8211 -78.6 -128.908 74.1266 -79.2479 -127.464 75.5522 
-79.7678 -126.623 75.5323 -80.359 -125.824 74.9197 -80.7162 -125.221 74.3284 
-80.7772 -124.707 73.3458 -77.7364 -127.872 74.327 -77.1996 -128.506 73.851 
-77.9365 -127.286 74.9688 -78.2018 -126.625 75.3004 -78.8534 -125.746 74.9705 
-79.5027 -125.054 74.3341 -79.7634 -124.687 73.3909 -79.7072 -124.251 72.0285 
-76.4027 -127.558 73.8646 -75.8327 -128.112 73.5459 -76.8211 -127.033 74.2559 
-77.1304 -126.53 74.654 -77.6615 -125.755 74.6793 -78.325 -124.913 74.2316 
-78.6858 -124.458 73.3446 -78.7271 -124.117 72.0695 -78.6552 -123.554 70.7728 
-75.001 -127.306 73.4591 -74.6422 -127.749 73.1499 -75.4752 -126.764 73.6711 
-75.9719 -126.257 73.8919 -76.5436 -125.664 73.9709 -77.1655 -124.935 73.7066 
-77.5646 -124.36 73.0345 -77.6762 -123.939 71.9885 -77.7125 -123.378 70.8197 
-77.7356 -122.714 69.8031 -86.9311 -127.947 73.399 -86.9157 -128.557 74.1119 
-86.5308 -128.47 72.5957 -86.1456 -129.013 72.9751 -85.7397 -128.615 71.5331 
-86.0405 -128.926 74.4737 -85.0245 -128.99 71.7731 -84.6493 -128.287 70.7543 
-84.891 -129.156 73.2951 -84.2261 -129.108 74.7084 -83.6915 -128.68 70.9616 
-83.3017 -127.805 70.2558 -83.6243 -129.076 72.1186 -83.1144 -129.094 73.6713 
-82.3701 -129.281 74.647 -82.2631 -128.265 70.3336 -81.8949 -127.37 69.5283 
-82.2665 -129.023 71.057 -82.0373 -129.163 72.354 -81.5846 -129.253 73.6698 
-80.8678 -129.514 74.2211 -80.9432 -127.64 69.5299 -80.6255 -126.882 68.4877 
-80.9261 -128.617 70.2255 -80.7501 -129.289 70.9872 -80.524 -129.432 72.2399 
-80.0111 -129.627 73.3078 -79.2837 -129.605 73.8099 -79.7018 -126.933 68.5087 
-79.4464 -126.286 67.4439 -79.7315 -127.726 69.5004 -79.5175 -128.68 70.2083 
-79.2003 -129.307 70.9685 -78.7062 -129.619 71.9982 -78.0764 -129.765 72.9356 
-77.5787 -129.366 73.5379 -78.4843 -126.307 67.412 -78.359 -125.637 66.4906 
-78.5596 -126.923 68.474 -78.4753 -127.644 69.53 -78.1619 -128.42 70.3188 
-77.58 -129.063 70.9355 -76.884 -129.489 71.7096 -76.3877 -129.454 72.6029 
-76.1154 -128.881 73.263 -77.4835 -125.701 66.3495 -77.5017 -125.022 65.5144 
-77.4828 -126.35 67.214 -77.477 -126.905 68.2834 -77.337 -127.437 69.4053 
[...]
CELL_DATA 2000
SCALARS Distance double
LOOKUP_TABLE default
143.646 144.319 144.245 144.825 145.157 145.006 145.611 145.505 146.136 
146.187 145.96 146.571 146.373 147.024 146.893 147.639 147.214 147.021 
147.629 147.407 148.074 147.889 148.706 148.585 149.507 148.069 147.947 
148.558 148.433 149.153 149.017 149.907 149.78 150.77 150.617 151.562 
148.93 148.768 149.42 149.332 150.18 150.127 151.133 151.05 152.088 
151.935 152.886 152.665 153.514 149.975 149.753 150.514 150.344 151.336 
151.261 152.402 152.329 153.418 153.26 154.211 153.99 154.849 154.594 
155.396 151.131 150.941 151.838 151.634 152.692 152.565 153.738 153.65 
154.752 154.593 155.537 155.314 156.18 155.937 156.759 156.474 157.203 
152.307 152.179 153.169 153.018 154.064 153.943 155.032 154.954 155.999 
155.884 156.814 156.626 157.483 157.261 158.076 157.816 158.531 158.203 
158.785 143.104 142.606 143.118 143.735 142.228 142.679 143.251 143.795 
144.53 141.909 142.363 142.969 143.405 144.101 144.683 145.536 141.664 
142.115 142.836 143.236 143.932 144.361 145.155 145.749 146.592 141.494 
141.934 142.709 143.161 143.942 144.313 145.063 145.475 146.27 146.795 
147.537 141.284 141.758 142.505 143.017 143.874 144.348 145.169 145.512 
146.266 146.612 147.35 147.753 148.446 141.07 141.539 142.305 142.796 
143.67 144.236 145.168 145.628 146.416 146.711 147.373 147.666 148.318 
148.695 149.401 141.081 141.443 142.267 142.66 143.529 144.048 145.023 
145.577 146.443 146.823 147.432 147.688 148.204 148.539 149.149 149.633 
150.398 141.365 141.607 142.428 142.726 143.573 143.983 144.93 145.451 
146.363 146.8 147.446 147.7 148.137 148.385 148.881 149.308 150.008 
150.613 151.474 141.846 142.855 142.517 142.856 143.973 143.582 143.985 
143.598 144.017 145.289 144.833 145.311 144.854 145.33 144.88 145.383 
146.592 146.158 146.598 146.208 146.668 146.247 146.699 146.286 146.745 
147.828 147.346 147.626 147.313 147.668 147.413 147.77 147.477 147.789 
147.469 147.735 149.296 148.639 148.838 148.307 148.563 148.236 148.547 
148.334 148.609 148.355 148.532 148.23 148.38 150.932 150.27 150.586 
149.81 150.082 149.365 149.66 149.167 149.521 149.174 149.474 149.084 
149.3 148.897 149.15 152.391 151.918 152.417 151.747 152.16 151.27 
151.579 150.686 151.058 150.386 150.867 150.302 150.739 150.128 150.515 
149.941 150.372 153.676 153.323 153.944 153.512 154.097 153.415 153.83 
152.884 153.232 152.3 152.806 152.046 152.655 151.914 152.454 151.667 
152.157 151.436 151.934 153.094 153.434 153.873 155.11 153.805 154.295 
155.617 155.992 157.219 154.043 154.653 156.048 156.521 157.803 158.126 
159.349 154.217 154.845 156.303 156.896 158.256 158.69 159.972 160.308 
161.566 154.626 155.104 156.563 157.134 158.564 159.092 160.465 160.91 
162.234 162.554 163.709 155.125 155.572 156.934 157.446 158.847 159.393 
160.816 161.36 162.752 163.181 164.359 164.567 165.454 155.243 155.855 
157.078 157.709 159.007 159.632 161.01 161.648 163.05 163.61 164.801 
165.121 165.981 166.107 166.802 154.962 155.675 156.796 157.585 158.802 
159.592 160.883 161.675 163.02 163.756 164.946 165.432 166.283 166.513 
167.179 167.342 168.021 154.618 155.283 156.35 157.149 158.315 159.179 
160.379 161.293 162.535 163.469 164.642 165.383 166.265 166.68 167.325 
167.594 168.245 168.51 169.189 153.319 155.292 154.28 154.257 157.365 
156.32 156.292 155.242 155.199 159.532 158.455 158.461 157.343 157.294 
156.201 156.154 161.796 160.72 160.815 159.632 159.607 158.387 158.304 
157.165 157.087 163.884 162.959 163.093 162.024 162.045 160.81 160.698 
159.412 159.254 158.068 157.909 165.561 164.849 164.946 164.116 164.134 
163.132 163.002 161.803 161.551 160.288 160.024 158.831 158.593 166.951 
166.363 166.471 165.766 165.758 164.955 164.806 163.855 163.552 162.446 
162.074 160.915 160.573 159.443 159.148 168.265 167.736 167.903 167.226 
167.195 166.43 166.241 165.419 165.11 164.193 163.8 162.786 162.373 
161.318 160.929 159.888 159.53 169.482 169.047 169.228 168.613 168.526 
167.784 167.507 166.729 166.38 165.583 165.209 164.343 163.935 162.979 
162.538 161.542 161.096 160.125 159.708 170.167 170.818 170.379 169.875 
170.867 170.759 170.249 169.804 169.071 170.404 170.569 170.135 169.924 
169.168 168.76 167.939 169.605 169.946 169.601 169.625 168.917 168.672 
167.851 167.526 166.746 168.593 169.002 168.65 168.906 168.265 168.251 
167.463 167.309 166.569 166.331 165.591 167.528 167.903 167.503 167.84 
167.278 167.446 166.736 166.768 166.087 166.043 165.367 165.153 164.363 
166.466 166.814 166.422 166.737 166.282 166.486 165.903 165.986 165.369 
165.439 164.83 164.802 164.056 163.831 162.962 165.396 165.743 165.368 
165.7 165.313 165.581 165.106 165.225 164.651 164.713 164.119 164.166 
163.471 163.388 162.54 162.338 161.468 164.37 164.694 164.312 164.639 
164.245 164.587 164.152 164.405 163.863 163.991 163.377 163.442 162.76 
162.741 161.941 161.822 160.978 160.826 160.037 170.296 170.416 170.661 
170.972 169.941 170.489 170.789 171.026 170.981 168.958 169.703 169.947 
170.484 170.438 170.699 170.421 167.756 168.554 168.775 169.423 169.405 
169.883 169.699 169.976 169.619 166.47 167.298 167.55 168.229 168.278 
168.806 168.742 169.157 168.982 169.166 168.744 165.063 165.94 166.198 
166.98 167.088 167.706 167.698 168.205 168.137 168.499 168.245 168.305 
167.78 163.575 164.454 164.666 165.534 165.667 166.439 166.445 167.085 
166.99 167.534 167.335 167.684 167.271 167.307 166.708 162.106 162.933 
163.097 163.952 164.081 164.928 164.972 165.718 165.614 166.247 166.039 
166.583 166.27 166.61 166.129 166.192 165.603 160.741 161.49 161.633 
162.413 162.528 163.341 163.41 164.195 164.147 164.821 164.647 165.232 
164.994 165.487 165.155 165.458 164.997 165.079 164.547 154.78 155.671 
155.64 156.545 156.601 156.614 157.572 157.533 158.505 157.454 157.53 
158.519 158.548 159.532 159.527 160.538 158.307 158.38 159.385 159.448 
160.46 160.514 161.588 161.616 162.699 159.124 159.233 160.243 160.324 
161.37 161.443 162.571 162.662 163.831 163.841 164.848 159.709 159.945 
160.943 161.133 162.182 162.338 163.458 163.618 164.771 164.894 165.896 
165.84 166.516 160.053 160.392 161.389 161.705 162.738 163.025 164.094 
164.37 165.445 165.686 166.649 166.735 167.426 167.261 167.654 160.271 
160.656 161.652 162.047 163.07 163.447 164.473 164.833 165.843 166.179 
167.126 167.354 168.137 168.121 168.658 168.356 168.678 160.408 160.813 
161.762 162.217 163.203 163.662 164.644 165.079 166.028 166.432 167.331 
167.69 168.519 168.737 169.414 169.351 169.804 169.433 169.68 153.914 
152.854 153.803 154.699 151.713 152.682 153.529 154.597 155.556 150.552 
151.502 152.312 153.37 154.303 155.421 156.39 149.497 150.377 151.172 
152.158 153.061 154.149 155.143 156.266 157.258 148.566 149.382 150.133 
151.044 151.878 152.909 153.866 155.012 156.045 157.168 158.11 147.674 
148.459 149.138 149.997 150.722 151.692 152.541 153.683 154.68 155.895 
156.86 157.951 158.73 146.776 147.533 148.151 148.971 149.622 150.514 
151.257 152.313 153.232 154.456 155.428 156.616 157.428 158.451 159.092 
145.913 146.615 147.183 147.962 148.587 149.427 150.122 151.059 151.9 
153.017 153.983 155.17 156.051 157.121 157.812 158.76 159.337 145.148 
145.77 146.298 147.009 147.615 148.414 149.096 149.963 150.738 151.737 
152.649 153.778 154.707 155.792 156.562 157.513 158.129 159.006 159.535 
144.931 145.02 145.32 146.065 145.228 145.486 146.273 146.552 147.392 
145.531 145.775 146.62 146.86 147.741 147.994 148.899 145.917 146.14 
147.037 147.273 148.193 148.421 149.37 149.595 150.567 146.462 146.613 
147.549 147.749 148.723 148.93 149.937 150.149 151.216 151.409 152.492 
147.18 147.274 148.258 148.381 149.417 149.558 150.628 150.8 151.94 
152.144 153.313 153.468 154.553 147.959 148.059 149.088 149.192 150.258 
150.36 151.444 151.57 152.707 152.904 154.081 154.285 155.37 155.483 
156.407 148.74 148.851 149.88 150.016 151.065 151.203 152.254 152.393 
153.47 153.657 154.775 155.001 156.059 156.225 157.124 157.194 157.966 
149.522 149.624 150.61 150.755 151.753 151.926 152.932 153.121 154.148 
154.358 155.411 155.641 156.66 156.853 157.746 157.853 158.614 158.658 
159.351 150.275 151.78 151.133 151.366 153.403 152.703 152.952 152.262 
152.503 155.167 154.411 154.682 153.922 154.17 153.441 153.696 156.928 
156.201 156.472 155.708 155.968 155.189 155.458 154.693 154.956 158.545 
157.902 158.189 157.486 157.764 157.009 157.29 156.518 156.8 156.003 
156.248 160.111 159.509 159.896 159.218 159.562 158.81 159.103 158.338 
158.618 157.853 158.095 157.287 157.47 161.661 161.128 161.612 160.981 
161.398 160.656 160.967 160.165 160.42 159.639 159.859 159.082 159.228 
158.424 158.508 162.991 162.63 163.131 162.645 163.056 162.44 162.739 
162.008 162.227 161.44 161.611 160.811 160.919 160.114 160.152 159.351 
159.35 163.958 163.796 164.304 163.999 164.39 163.933 164.205 163.628 
163.831 163.162 163.303 162.539 162.598 161.777 161.776 160.956 160.928 
160.123 160.08 149.878 149.744 150.336 151.38 149.569 150.215 151.319 
151.892 152.991 149.359 150.066 151.255 151.862 153.051 153.607 154.775 
149.116 149.876 151.168 151.84 153.13 153.734 155.014 155.498 156.618 
148.885 149.629 150.942 151.72 153.078 153.816 155.179 155.772 156.957 
157.318 158.271 148.779 149.416 150.655 151.436 152.781 153.646 155.027 
155.823 157.054 157.595 158.57 158.886 159.761 148.787 149.341 150.508 
151.184 152.472 153.289 154.629 155.504 156.751 157.506 158.547 159.071 
159.97 160.344 161.226 148.771 149.32 150.436 151.07 152.3 153.026 
154.3 155.087 156.301 157.09 158.183 158.885 159.847 160.408 161.277 
161.721 162.516 148.718 149.245 150.292 150.935 152.09 152.821 154.023 
154.776 155.93 156.668 157.739 158.465 159.449 160.129 160.998 161.585 
162.329 162.817 163.453 148.861 147.183 148.243 148.667 145.4 146.476 
146.853 147.984 148.414 143.599 144.643 144.918 146.052 146.403 147.634 
148.082 141.795 142.799 142.998 144.074 144.31 145.506 145.899 147.244 
147.761 140.067 140.964 141.115 142.145 142.368 143.457 143.813 145.059 
145.629 146.986 147.597 138.668 139.331 139.418 140.305 140.571 141.604 
142.024 143.143 143.751 144.991 145.718 146.967 147.618 137.744 138.173 
138.247 138.829 139.081 139.936 140.421 141.476 142.115 143.27 144 
145.208 145.926 147.087 147.694 137.119 137.464 137.61 137.964 138.195 
138.73 139.187 140.022 140.669 141.707 142.405 143.542 144.238 145.414 
146.058 147.177 147.722 136.552 136.916 137.13 137.479 137.745 138.107 
138.512 139.056 139.656 140.433 141.116 142.05 142.73 143.78 144.455 
145.557 146.179 147.225 147.747 136.279 136.151 136.433 136.921 136.314 
136.436 136.983 137.186 137.66 136.85 136.761 137.28 137.38 137.944 
138.021 138.51 137.656 137.403 137.822 137.789 138.374 138.43 139.024 
139.026 139.628 138.644 138.27 138.611 138.417 138.953 138.944 139.603 
139.627 140.284 140.282 140.993 139.746 139.318 139.646 139.313 139.795 
139.629 140.276 140.259 140.976 140.976 141.692 141.711 142.514 140.82 
140.425 140.765 140.413 140.873 140.587 141.168 141.022 141.741 141.711 
142.491 142.471 143.278 143.302 144.193 141.818 141.469 141.824 141.515 
141.978 141.688 142.219 141.984 142.643 142.546 143.361 143.336 144.199 
144.16 145.023 145.031 145.916 142.79 142.468 142.854 142.559 143.029 
142.758 143.278 143.028 143.639 143.488 144.272 144.243 145.13 145.111 
145.96 145.91 146.709 146.706 147.492 143.467 144.649 143.89 143.6 
145.966 145.159 144.88 144.079 143.804 147.495 146.58 146.35 145.457 
145.191 144.338 144.083 149.367 148.302 148.133 147.097 146.893 145.88 
145.652 144.707 144.513 151.384 150.299 150.146 149.045 148.882 147.766 
147.577 146.475 146.312 145.293 145.204 153.321 152.295 152.14 151.076 
150.903 149.81 149.614 148.497 148.318 147.234 147.13 146.119 146.074 
155.21 154.215 154.09 153.043 152.874 151.798 151.596 150.506 150.302 
149.232 149.075 148.059 147.952 146.979 146.884 156.998 156.083 155.982 
154.984 154.833 153.771 153.583 152.484 152.285 151.193 151.008 149.96 
149.794 148.803 148.652 147.706 147.58 158.553 157.767 157.662 156.792 
156.646 155.685 155.499 154.459 154.249 153.173 152.959 151.885 151.671 
150.627 150.428 149.444 149.293 148.375 148.289 149.026 150.03 149.849 
150.588 151.183 150.937 151.708 151.541 152.4 152.465 152.177 152.956 
152.733 153.623 153.458 154.35 153.792 153.513 154.301 154.032 154.901 
154.714 155.634 155.436 156.263 155.103 154.86 155.683 155.403 156.252 
156.019 156.928 156.73 157.59 157.321 158.059 156.355 156.169 157.039 
156.796 157.661 157.398 158.278 158.041 158.889 158.635 159.38 159.072 
159.736 157.477 157.372 158.269 158.122 159.023 158.806 159.671 159.406 
160.204 159.923 160.629 160.34 160.972 160.676 161.257 158.454 158.415 
159.306 159.266 160.182 160.086 160.949 160.75 161.514 161.232 161.894 
161.571 162.151 161.841 162.38 162.092 162.576 159.317 159.323 160.195 
160.218 161.119 161.124 161.964 161.885 162.615 162.443 163.076 162.809 
163.344 163.008 163.475 163.155 163.599 163.307 163.697 140.574 140.193 
139.929 139.119 140.22 139.705 138.79 138.469 137.798 140.55 139.955 
139.092 138.442 137.684 137.362 136.963 140.795 140.325 139.589 138.951 
138.195 137.579 137.058 136.764 136.507 140.944 140.514 139.823 139.367 
138.679 138.145 137.53 137.059 136.63 136.371 136.115 141.27 140.755 
140.084 139.581 138.935 138.489 137.886 137.462 136.906 136.545 136.112 
135.94 135.724 141.708 141.205 140.622 140.015 139.39 138.813 138.239 
137.758 137.213 136.785 136.261 135.947 135.595 135.543 135.464 142.117 
141.671 141.176 140.629 140.055 139.423 138.848 138.241 137.728 137.18 
136.7 136.208 135.829 135.529 135.408 135.395 135.511 142.59 142.116 
141.666 141.171 140.675 140.105 139.571 138.946 138.447 137.836 137.418 
136.83 136.515 136.006 135.893 135.595 135.73 135.659 135.926 140.644 
139.254 140.133 140.504 137.968 138.772 139.252 140.105 140.553 137.081 
137.648 138.104 138.902 139.432 140.229 140.721 136.502 136.878 137.17 
137.827 138.308 139.114 139.671 140.48 141.051 136.068 136.321 136.462 
136.936 137.32 138.035 138.632 139.463 140.135 140.914 141.514 135.799 
135.968 136.136 136.377 136.743 137.212 137.852 138.557 139.33 140.077 
140.76 141.419 141.976 135.663 135.816 136.105 136.254 136.659 136.906 
137.53 138.006 138.789 139.407 140.134 140.74 141.349 141.927 142.513 
135.694 135.777 136.095 136.269 136.672 136.913 137.455 137.825 138.509 
138.997 139.692 140.211 140.849 141.381 142.017 142.571 143.222 136.015 
135.932 136.188 136.268 136.621 136.852 137.335 137.698 138.311 138.752 
139.411 139.863 140.514 140.981 141.648 142.152 142.83 143.346 143.978 
141.445 141.288 141.718 142.458 141.28 141.616 142.313 142.726 143.514 
141.452 141.687 142.379 142.67 143.453 143.885 144.8 141.805 141.965 
142.707 142.886 143.697 143.974 144.909 145.304 146.228 142.215 142.369 
143.129 143.307 144.147 144.358 145.302 145.577 146.547 146.803 147.649 
142.619 142.762 143.497 143.71 144.538 144.797 145.71 146.005 146.965 
147.233 148.141 148.302 149.138 143.155 143.212 143.951 144.093 144.904 
145.136 145.995 146.31 147.203 147.564 148.457 148.767 149.612 149.822 
150.641 143.857 143.848 144.602 144.649 145.455 145.568 146.392 146.587 
147.415 147.717 148.567 148.948 149.794 150.149 150.945 151.228 151.991 
144.564 144.568 145.294 145.338 146.117 146.188 146.987 147.077 147.871 
148.014 148.825 149.077 149.924 150.262 151.1 151.428 152.213 152.494 
153.246 148.641 147.803 147.806 146.967 147.007 146.962 146.072 146.073 
145.214 146.262 146.19 145.282 145.209 144.298 144.302 143.444 145.58 
145.475 144.589 144.468 143.537 143.44 142.535 142.535 141.687 145.045 
144.86 143.992 143.826 142.933 142.765 141.866 141.734 140.879 140.832 
140.043 144.688 144.424 143.565 143.318 142.46 142.241 141.384 141.177 
140.327 140.161 139.379 139.308 138.668 144.445 144.149 143.318 142.998 
142.152 141.86 141.021 140.763 139.911 139.681 138.864 138.727 138.072 
138.084 137.655 144.288 143.97 143.18 142.825 141.997 141.644 140.827 
140.495 139.68 139.354 138.553 138.293 137.623 137.539 137.095 137.198 
136.942 144.22 143.876 143.118 142.74 141.948 141.561 140.794 140.413 
139.681 139.279 138.568 138.167 137.547 137.263 136.82 136.736 136.457 
136.559 136.373 
POINT_DATA 1002
SCALARS Distance double
LOOKUP_TABLE default
144.172 143.084 143.683 144.882 144.396 145.423 145.743 145.334 146.212 
146.776 146.806 146.425 147.168 147.696 148.448 147.835 147.387 148.25 
148.809 149.617 150.461 148.624 148.203 149.219 149.997 150.921 151.778 
152.448 149.483 149.111 150.158 151.169 152.238 153.109 153.772 154.324 
150.67 150.148 151.394 152.459 153.583 154.436 155.091 155.687 156.18 
152.007 151.24 152.84 153.845 154.912 155.762 156.417 157.036 157.555 
157.874 153.293 152.39 154.208 155.145 156.107 156.981 157.701 158.333 
158.859 159.18 159.302 142.546 143.128 142.147 142.766 141.773 143.863 
142.554 141.403 143.589 144.855 142.39 141.202 143.567 144.644 145.972 
142.213 141.071 143.529 144.733 145.815 147.033 141.993 140.79 143.312 
144.784 145.992 146.996 148.033 141.837 140.587 143.087 144.615 146.11 
147.15 147.984 148.949 141.907 140.751 143.059 144.445 146.012 147.212 
147.942 148.697 149.808 142.166 141.179 143.214 144.448 145.902 147.18 
147.952 148.526 149.428 150.794 142.196 143.19 143.181 144.377 144.363 
144.391 145.76 145.747 145.797 145.804 146.968 147.065 147.069 147.142 
147.156 148.01 148.416 147.906 148.034 148.139 148.075 149.498 149.98 
149.012 148.777 148.836 148.858 148.669 151.337 151.481 150.928 150.312 
149.897 149.839 149.735 149.504 152.939 152.758 152.981 152.576 151.854 
151.43 151.34 151.151 150.897 154.277 153.996 154.621 154.693 154.226 
153.62 153.373 153.256 152.958 152.619 154.276 154.727 156.33 155.205 
156.922 158.407 155.503 157.44 159.051 160.591 155.661 157.748 159.582 
161.285 162.826 156.035 157.996 159.95 161.866 163.555 164.75 156.459 
158.312 160.236 162.268 164.126 165.399 166.216 156.417 158.36 160.352 
162.446 164.441 165.84 166.708 167.484 155.991 157.981 160.068 162.233 
164.384 166.017 166.996 167.837 168.744 155.584 157.476 159.492 161.581 
163.794 165.749 167.029 167.952 168.95 169.875 155.272 157.359 156.247 
159.599 158.426 157.213 161.973 160.874 159.523 158.177 164.08 163.229 
162.036 160.538 159.049 165.718 165.043 164.134 162.838 161.279 159.745 
167.156 166.541 165.692 164.597 163.223 161.721 160.253 168.569 167.984 
167.062 165.973 164.764 163.416 161.983 160.552 169.829 169.287 168.309 
167.154 166.015 164.852 163.541 162.093 160.645 170.799 170.51 171.147 
170.621 170.837 169.617 170.252 170.13 169.535 168.355 169.463 169.229 
169.092 168.127 167.072 168.321 168.234 168.17 167.537 166.728 165.909 
167.157 167.197 167.035 166.635 166.04 165.494 164.701 166.089 166.116 
166.022 165.792 165.285 164.786 164.214 163.256 165.026 165.049 164.991 
164.929 164.598 164.071 163.502 162.699 161.669 164.01 164.052 163.904 
163.842 163.688 163.305 162.756 162.025 161.102 160.165 170.216 170.971 
170.063 170.438 169.324 170.963 169.35 168.202 170.056 170.302 168.111 
166.957 168.868 169.297 169.502 166.828 165.626 167.713 168.259 168.676 
168.772 165.368 164.198 166.401 167.153 167.688 168.054 167.912 163.797 
162.734 164.836 165.766 166.42 166.868 167.091 166.815 162.272 161.314 
163.225 164.184 164.969 165.457 165.796 165.927 165.648 160.885 160.026 
161.744 162.616 163.433 164.04 164.448 164.74 164.802 164.542 154.763 
156.577 155.675 157.592 156.539 158.549 158.461 157.364 159.506 160.544 
159.316 158.245 160.381 161.496 162.727 160.139 158.992 161.277 162.456 
163.765 165.004 160.706 159.433 161.986 163.285 164.634 165.915 166.771 
161.039 159.69 162.424 163.807 165.192 166.51 167.524 167.986 161.241 
159.885 162.678 164.111 165.503 166.837 168.031 168.858 169.135 152.988 
153.663 151.917 152.471 150.754 154.457 151.285 149.62 153.186 155.27 
150.229 148.646 152.007 153.994 156.167 149.274 147.781 150.902 152.729 
154.877 157.094 148.326 146.917 149.819 151.45 153.447 155.718 157.769 
147.36 146.054 148.771 150.28 152.047 154.206 156.363 158.154 146.433 
145.254 147.76 149.234 150.856 152.8 154.944 156.847 158.438 145.626 
144.566 146.837 148.252 149.804 151.557 153.591 155.586 157.255 158.697 