# vtk DataFile Version 4.0
vtk output
ASCII
DATASET POLYDATA
POINTS 1002 float
-87.4696 -101.732 73.3727 -82.4375 -107.299 72.3966 -81.3603 -97.537 72.6457 
-77.8683 -105.137 72.2149 -83.4254 -104.158 77.9311 -80.753 -102.091 77.3107 
-84.9165 -103.561 67.8287 -80.4358 -101.377 67.9377 -78.6218 -109.676 75.5073 
-85.0677 -97.3712 75.8101 -78.0908 -109.747 68.5618 -86.6959 -96.3032 70.0315 
-87.1538 -102.209 73.2554 -86.54 -102.6 72.9945 -85.8875 -103.023 72.8258 
-85.5939 -103.77 72.8884 -85.4543 -104.777 72.9268 -84.9181 -105.522 72.7947 
-84.0921 -105.912 72.661 -83.393 -106.31 72.5729 -82.8659 -106.806 72.4796 
-87.1145 -101.82 73.7683 -86.678 -101.922 74.1835 -86.2238 -102.052 74.6168 
-85.6681 -102.172 75.027 -85.0803 -102.379 75.4651 -84.772 -102.83 76.0773 
-84.7211 -103.41 76.8639 -84.5303 -103.837 77.5458 -84.0346 -104.04 77.8696 
-87.5416 -101.921 72.8743 -87.4425 -102.104 72.2223 -87.3446 -102.392 71.4689 
-87.2843 -102.744 70.6914 -86.9873 -102.917 70.0003 -86.4606 -102.865 69.4363 
-86.0277 -102.822 68.9138 -85.6987 -102.934 68.4365 -85.3207 -103.201 68.0807 
-87.4135 -101.202 73.6031 -87.3811 -100.526 73.8529 -87.5127 -99.8787 74.3032 
-87.5477 -99.4164 74.7977 -87.3059 -98.9507 75.0412 -87.034 -98.2816 75.1868 
-86.6932 -97.7043 75.4097 -86.0923 -97.5071 75.5532 -85.4683 -97.4869 75.6287 
-87.6831 -101.29 73.0821 -87.832 -100.694 72.6871 -88.092 -99.9503 72.241 
-88.398 -99.2643 71.7958 -88.3752 -98.8763 71.413 -88.0006 -98.5421 71.0774 
-87.6678 -97.8773 70.6966 -87.4488 -97.0945 70.3373 -87.1317 -96.5729 70.1285 
-82.4793 -107.106 72.8976 -82.4956 -106.769 73.3852 -82.5021 -106.339 73.8858 
-82.5974 -106.034 74.5275 -82.913 -105.908 75.3564 -83.2907 -105.721 76.1602 
-83.4576 -105.408 76.7681 -83.466 -105.068 77.2553 -83.4591 -104.66 77.6623 
-82.6219 -107.115 71.9102 -82.8378 -106.88 71.3687 -83.0805 -106.624 70.7813 
-83.3696 -106.372 70.189 -83.7341 -106.066 69.6709 -84.0978 -105.626 69.2316 
-84.3753 -105.141 68.8201 -84.5933 -104.689 68.432 -84.7814 -104.17 68.0909 
-82.1117 -107.714 72.6428 -81.8035 -108.189 72.9057 -81.5087 -108.715 73.2408 
-81.1939 -109.177 73.738 -80.7226 -109.441 74.2651 -80.0673 -109.524 74.52 
-79.4801 -109.586 74.5907 -79.112 -109.716 74.848 -78.8493 -109.803 75.2626 
-82.1643 -107.718 72.0137 -81.9031 -108.235 71.5488 -81.6145 -108.771 70.9974 
-81.1553 -109.124 70.4387 -80.5449 -109.366 69.9427 -80.0438 -109.746 69.4984 
-79.6571 -110.106 69.1232 -79.1396 -110.151 68.8446 -78.5352 -109.968 68.6531 
-81.0975 -98.1511 72.636 -80.711 -98.8062 72.5737 -80.1412 -99.3316 72.5263 
-79.6814 -99.9451 72.416 -79.5424 -100.963 72.232 -79.3258 -102.005 72.2179 
-78.7864 -102.685 72.3707 -78.3009 -103.353 72.4097 -78.0631 -104.25 72.3085 
-81.2501 -97.7725 73.1482 -81.254 -98.1813 73.563 -81.3408 -98.7813 74.03 
-81.2938 -99.2629 74.6814 -81.0746 -99.4907 75.3577 -80.9549 -99.8883 75.8348 
-80.9991 -100.608 76.173 -80.9981 -101.257 76.5328 -80.8862 -101.691 76.933 
-81.3236 -97.6656 72.0583 -81.2321 -97.8411 71.4044 -81.137 -98.1925 70.8463 
-81.0696 -98.6686 70.4203 -80.8955 -99.0775 69.9457 -80.6505 -99.4922 69.4042 
-80.5646 -100.026 68.9849 -80.5921 -100.546 68.6593 -80.5465 -100.975 68.2934 
-81.5784 -97.1416 72.9272 -81.9052 -96.7691 73.2534 -82.2605 -96.3975 73.7326 
-82.5898 -96.1542 74.2605 -83.0366 -96.1423 74.6856 -83.6392 -96.1499 75.111 
-84.1946 -96.1341 75.5349 -84.5884 -96.3879 75.7412 -84.8617 -96.9048 75.7587 
-81.6603 -97.0931 72.1938 -82.1036 -96.6452 71.6363 -82.7424 -96.2401 71.2052 
-83.5597 -95.9614 70.9554 -84.3398 -95.6144 70.5818 -84.8629 -95.0593 70.0748 
-85.2483 -94.7452 69.8543 -85.7322 -95.0361 69.949 -86.2747 -95.6719 70.0399 
-78.0496 -104.885 72.6123 -78.3472 -104.645 73.067 -78.601 -104.293 73.6746 
-78.6396 -103.784 74.4531 -78.7637 -103.338 75.1405 -79.237 -103.041 75.6025 
-79.745 -102.756 76.0872 -80.0861 -102.502 76.628 -80.4147 -102.315 77.0238 
-77.9374 -104.949 71.817 -78.0629 -104.785 71.3029 -78.1423 -104.451 70.7298 
-78.2635 -103.916 70.1684 -78.5792 -103.425 69.6896 -79.0198 -103.064 69.3701 
-79.4341 -102.677 69.1187 -79.7819 -102.225 68.7521 -80.0963 -101.783 68.303 
-77.7397 -105.803 72.3693 -77.6587 -106.465 72.4826 -77.5683 -107.056 72.6673 
-77.4653 -107.651 73.1032 -77.5079 -108.283 73.5663 -77.7055 -108.801 73.7263 
-77.8719 -109.186 73.9351 -78.0236 -109.531 74.5494 -78.2865 -109.74 75.2084 
-77.5181 -105.714 71.9521 -76.8945 -106.059 71.6966 -76.3066 -106.33 71.3308 
-76.2367 -106.933 70.7545 -76.4591 -107.878 70.0683 -76.4759 -108.682 69.5328 
-76.5767 -109.127 69.3031 -77.0644 -109.41 69.1996 -77.6402 -109.641 68.9451 
-83.001 -103.915 78.0849 -82.652 -103.771 78.4229 -82.5037 -103.727 78.992 
-82.2975 -103.498 79.4907 -81.7354 -103.011 79.6445 -81.1727 -102.67 79.4182 
-81.0191 -102.592 78.8708 -81.0227 -102.472 78.23 -80.9023 -102.248 77.7191 
-82.9409 -104.682 77.8899 -82.5393 -105.257 78.0028 -82.0223 -105.746 78.0608 
-81.4598 -106.361 77.8326 -81.1009 -107.252 77.5916 -80.6534 -107.939 77.4617 
-79.9232 -108.187 77.0253 -79.313 -108.465 76.3174 -78.9506 -109.035 75.7967 
-83.7608 -103.566 78.0797 -84.0675 -102.927 78.086 -84.2649 -101.981 77.9681 
-84.5537 -100.782 77.9647 -84.9863 -99.9096 78.0651 -85.1742 -99.3901 77.9213 
-85.0615 -98.7533 77.4778 -84.9975 -98.1245 76.9134 -85.0445 -97.7296 76.321 
-80.3337 -102.656 77.5627 -79.8124 -103.192 77.8653 -79.5533 -103.931 77.8697 
-79.5272 -104.951 77.5628 -79.2636 -105.902 77.3942 -78.8566 -106.604 77.3034 
-78.7144 -107.29 76.8573 -78.7193 -108.105 76.2253 -78.6698 -108.954 75.782 
-81.0129 -101.406 77.5085 -81.2 -100.588 77.8168 -81.6524 -99.8836 77.9849 
-82.2404 -99.1381 78.1227 -82.5658 -98.1974 78.3982 -82.9364 -97.5043 78.4178 
-83.7028 -97.3375 77.908 -84.4368 -97.3923 77.1477 -84.8142 -97.4144 76.4132 
-84.6346 -103.329 67.6533 -84.2338 -102.998 67.5327 -83.8317 -102.714 67.2053 
-83.381 -102.45 66.7732 -82.8871 -102.075 66.7034 -82.4622 -101.718 67.045 
-81.9618 -101.546 67.3715 -81.291 -101.472 67.5057 -80.7191 -101.407 67.6423 
-84.5341 -104.432 67.6393 -84.0094 -105.254 67.4492 -82.9959 -105.726 67.566 
-81.8643 -106.178 67.8282 -81.1512 -107.02 67.8787 -80.5207 -107.956 67.7502 
-79.6391 -108.628 67.5816 -78.8713 -109.118 67.5641 -78.423 -109.497 67.9335 
-85.3969 -102.838 67.6601 -86.0081 -102.422 67.4918 -86.2628 -102.033 67.7488 
-86.0743 -101.35 68.3811 -86.0295 -100.519 68.8576 -86.3008 -99.6911 69.1431 
-86.5374 -98.8041 69.4809 -86.6628 -97.9163 69.7628 -86.7286 -97.0851 69.9129 
-80.0449 -102.053 67.8324 -79.6392 -102.831 67.8006 -79.3243 -103.874 67.7758 
-78.9367 -105.054 67.6528 -78.4682 -105.955 67.6747 -78.311 -106.804 68.0059 
-78.4021 -107.962 68.1944 -78.3115 -108.955 68.1041 -78.1076 -109.439 68.1878 
-80.8658 -100.706 67.8607 -81.3692 -100.088 67.867 -82.1556 -99.6624 68.0454 
-83.0822 -99.2859 68.3973 -83.7773 -98.7486 68.7487 -84.4446 -98.164 69.0302 
-85.2837 -97.6454 69.342 -85.9397 -97.129 69.6537 -86.3271 -96.647 69.8727 
-78.4069 -110.368 75.1426 -78.2972 -110.877 74.4706 -78.2401 -111.226 73.5061 
-77.9986 -111.386 72.723 -77.6567 -111.25 72.058 -77.5805 -111.08 71.019 
-77.7429 -111.02 70.0068 -77.8789 -110.733 69.5178 -77.9677 -110.196 69.152 
-85.3129 -97.0018 75.2585 -85.696 -96.5881 74.7223 -86.0951 -96.3219 74.0023 
-86.3476 -96.1232 73.0728 -86.5549 -95.6968 72.2829 -86.8996 -95.2078 71.7599 
-87.1914 -95.0673 71.2375 -87.1635 -95.2907 70.6793 -86.9232 -95.727 70.2666 
-86.718 -102.29 73.6532 -86.2495 -102.401 74.1007 -86.0773 -102.687 73.4304 
-85.7467 -102.565 74.5568 -85.669 -102.891 73.9453 -85.5438 -103.272 73.368 
-85.1679 -102.817 75.0131 -85.249 -103.241 74.4627 -85.2356 -103.667 73.8915 
-85.3565 -104.231 73.4487 -84.759 -103.246 75.5732 -84.8859 -103.737 75.075 
-84.9112 -104.155 74.4143 -84.9277 -104.608 73.8237 -85.0268 -105.141 73.3627 
-84.6294 -103.785 76.2825 -84.7077 -104.284 75.8059 -84.7004 -104.705 75.1603 
-84.4701 -104.939 74.3012 -84.326 -105.242 73.644 -84.2528 -105.628 73.1736 
-84.4392 -104.218 76.9909 -84.4706 -104.68 76.469 -84.4784 -105.14 75.9238 
-84.1474 -105.325 75.0571 -83.7391 -105.382 74.1357 -83.5565 -105.641 73.5286 
-83.4711 -106.017 73.0708 -83.9978 -104.481 77.4623 -84.0007 -104.9 76.9513 
-84.0218 -105.329 76.4343 -83.7716 -105.61 75.7208 -83.3119 -105.66 74.7916 
-83.0358 -105.791 74.0094 -82.9606 -106.162 73.4759 -82.9172 -106.552 72.9936 
-87.0561 -101.269 74.0265 -87.1285 -100.622 74.3758 -86.6721 -101.419 74.4975 
-87.3128 -100.058 74.9519 -86.7845 -100.872 74.9219 -86.2327 -101.606 74.9738 
-87.1948 -99.5865 75.3965 -86.776 -100.389 75.417 -86.2332 -101.154 75.3898 
-85.6437 -101.747 75.4304 -86.8118 -98.9872 75.5096 -86.4116 -99.8738 75.6554 
-85.9856 -100.706 75.7504 -85.545 -101.323 75.8855 -85.0915 -101.996 75.9889 
-86.4422 -98.3095 75.6785 -86.0351 -99.222 75.8461 -85.6538 -100.154 76.0447 
-85.2926 -100.806 76.3009 -85.0078 -101.547 76.5406 -84.8636 -102.519 76.7405 
-85.952 -97.9053 75.9717 -85.7256 -98.6328 76.2986 -85.5357 -99.5566 76.5811 
-85.2207 -100.211 76.81 -84.8504 -100.913 76.9789 -84.7708 -102.029 77.241 
-84.7747 -103.099 77.5044 -85.4006 -97.8074 76.1623 -85.3246 -98.3119 76.706 
-85.3722 -99.0967 77.177 -85.3103 -99.7365 77.4712 -84.9032 -100.306 77.4955 
-84.5831 -101.357 77.5351 -84.5556 -102.578 77.7911 -84.4129 -103.44 77.9658 
-84.7899 -97.7656 77.0039 -84.3582 -97.6641 77.8197 -84.7451 -98.2383 77.5813 
-83.6499 -97.5854 78.5729 -84.3062 -98.1785 78.2924 -84.7933 -98.8938 78.07 
-83.0541 -98.0075 78.841 -83.7112 -98.2952 78.7924 -84.314 -98.9458 78.5577 
-84.786 -99.5341 78.4042 -82.566 -98.9885 78.6245 -83.1003 -99.076 78.7851 
-83.7072 -99.4334 78.7209 -84.2192 -99.9498 78.6897 -84.5012 -100.404 78.4572 
-81.833 -99.8981 78.4918 -82.2418 -100.134 78.6954 -82.8845 -100.425 78.656 
-83.5342 -100.8 78.7255 -83.921 -101.251 78.7225 -84.0815 -101.627 78.3613 
-81.2301 -100.612 78.4156 -81.3852 -100.906 78.8306 -81.8587 -101.25 78.9015 
-82.6284 -101.597 78.8803 -83.2314 -102.028 78.9051 -83.4633 -102.38 78.6753 
[...]
POINT_DATA 1002
FIELD FieldData 2
Theta 1 1002 float
2.58802 2.58802 0.553574 0.553574 2.12437 1.01722 2.12437 1.01722 1.5708 
1.5708 1.5708 1.5708 2.68241 2.78649 2.89924 3.01861 3.14159 3.01861 
2.89924 2.78649 2.68241 2.61035 2.61791 2.60515 2.56958 2.51327 2.44184 
2.36202 2.27983 2.1997 2.61035 2.61791 2.60515 2.56958 2.51327 2.44184 
2.36202 2.27983 2.1997 2.50947 2.41899 2.31794 2.20864 2.0944 1.97902 
1.86631 1.75944 1.66056 2.50947 2.41899 2.31794 2.20864 2.0944 1.97902 
1.86631 1.75944 1.66056 2.61035 2.61791 2.60515 2.56958 2.51327 2.44184 
2.36202 2.27983 2.1997 2.61035 2.61791 2.60515 2.56958 2.51327 2.44184 
2.36202 2.27983 2.1997 2.50947 2.41899 2.31794 2.20864 2.0944 1.97902 
1.86631 1.75944 1.66056 2.50947 2.41899 2.31794 2.20864 2.0944 1.97902 
1.86631 1.75944 1.66056 0.459179 0.355101 0.242354 0.122983 0 0.122983 
0.242354 0.355101 0.459179 0.531246 0.523681 0.536438 0.57201 0.628319 0.699757 
0.779574 0.86176 0.941896 0.531246 0.523681 0.536438 0.57201 0.628319 0.699757 
0.779574 0.86176 0.941896 0.632123 0.7226 0.823657 0.932948 1.0472 1.16257 
1.27528 1.38216 1.48103 0.632123 0.7226 0.823657 0.932948 1.0472 1.16257 
1.27528 1.38216 1.48103 0.531246 0.523681 0.536438 0.57201 0.628319 0.699757 
0.779574 0.86176 0.941896 0.531246 0.523681 0.536438 0.57201 0.628319 0.699757 
0.779574 0.86176 0.941896 0.632123 0.7226 0.823657 0.932948 1.0472 1.16257 
1.27528 1.38216 1.48103 0.632123 0.7226 0.823657 0.932948 1.0472 1.16257 
1.27528 1.38216 1.48103 2.02998 1.9259 1.81315 1.69378 1.5708 1.44781 
1.32844 1.2157 1.11162 2.0928 2.05283 2.00422 1.94767 1.88496 1.81867 
1.75177 1.68695 1.62623 2.0928 2.05283 2.00422 1.94767 1.88496 1.81867 
1.75177 1.68695 1.62623 1.0488 1.08876 1.13737 1.19392 1.25664 1.32292 
1.38982 1.45464 1.51537 1.0488 1.08876 1.13737 1.19392 1.25664 1.32292 
1.38982 1.45464 1.51537 2.02998 1.9259 1.81315 1.69378 1.5708 1.44781 
1.32844 1.2157 1.11162 2.0928 2.05283 2.00422 1.94767 1.88496 1.81867 
1.75177 1.68695 1.62623 2.0928 2.05283 2.00422 1.94767 1.88496 1.81867 
1.75177 1.68695 1.62623 1.0488 1.08876 1.13737 1.19392 1.25664 1.32292 
1.38982 1.45464 1.51537 1.0488 1.08876 1.13737 1.19392 1.25664 1.32292 
1.38982 1.45464 1.51537 1.5708 1.5708 1.5708 1.5708 1.5708 1.5708 
1.5708 1.5708 1.5708 1.5708 1.5708 1.5708 1.5708 1.5708 1.5708 
1.5708 1.5708 1.5708 2.70908 2.71362 2.81592 2.68886 2.81002 2.92597 
2.6349 2.76254 2.89233 3.01997 2.55881 2.68262 2.80854 2.92834 3.01997 
2.47007 2.58462 2.70048 2.80854 2.89233 2.92597 2.37702 2.48017 2.58462 
2.68262 2.76254 2.81002 2.81592 2.28567 2.37702 2.47007 2.55881 2.6349 
2.68886 2.71362 2.70908 2.52097 2.4195 2.51718 2.30791 2.40503 2.49426 
2.18928 2.28408 2.3734 2.45144 2.06758 2.15805 2.24572 2.32523 2.39165 
1.94707 2.03138 2.11543 2.19453 2.26401 2.32035 1.83164 1.90847 1.98711 
2.06376 2.13422 2.1949 2.24359 1.72413 1.79288 1.86489 1.93728 2.00658 
2.06938 2.12312 2.16654 1.5708 1.50988 1.63171 1.44492 1.5708 1.69667 
1.37826 1.5059 1.63569 1.76333 1.31281 1.43962 1.5708 1.70197 1.82878 
1.25155 1.37501 1.50478 1.63681 1.76659 1.89004 1.19686 1.31493 1.44074 
1.5708 1.70086 1.82666 1.94473 1.15011 1.26149 1.38136 1.50697 1.63462 
1.76024 1.88011 1.99148 1.99148 1.88011 1.94473 1.76024 1.82666 1.89004 
1.63462 1.70086 1.76659 1.82878 1.50697 1.5708 1.63681 1.70197 1.76333 
1.38136 1.44074 1.50478 1.5708 1.63569 1.69667 1.26149 1.31493 1.37501 
1.43962 1.5059 1.5708 1.63171 1.15011 1.19686 1.25155 1.31281 1.37826 
1.44492 1.50988 1.5708 2.16654 2.12312 2.24359 2.06938 2.1949 2.32035 
2.00658 2.13422 2.26401 2.39165 1.93728 2.06376 2.19453 2.32523 2.45144 
1.86489 1.98711 2.11543 2.24572 2.3734 2.49426 1.79288 1.90847 2.03138 
2.15805 2.28408 2.40503 2.51718 1.72413 1.83164 1.94707 2.06758 2.18928 
2.30791 2.4195 2.52097 1.66533 1.66946 1.76911 1.67254 1.777 1.88041 
1.67418 1.78222 1.89102 1.99634 1.67418 1.78405 1.89674 2.00785 2.11299 
1.67254 1.78222 1.89674 2.01191 2.12307 2.22608 1.66946 1.777 1.89102 
2.00785 2.12307 2.23222 2.33166 1.66533 1.76911 1.88041 1.99634 2.11299 
2.22608 2.33166 2.42672 1.47626 1.37249 1.47213 1.26118 1.36459 1.46906 
1.14526 1.25058 1.35938 1.46741 1.0286 1.13374 1.24485 1.35755 1.46741 
0.915514 1.01852 1.12969 1.24485 1.35938 1.46906 0.809937 0.909371 1.01852 
1.13374 1.25058 1.36459 1.47213 0.714871 0.809937 0.915514 1.0286 1.14526 
1.26118 1.37249 1.47626 0.975055 0.898002 1.01847 0.821245 0.946693 1.07221 
0.749941 0.877585 1.00737 1.13501 0.690152 0.816367 0.94706 1.07784 1.20431 
0.647337 0.768195 0.895868 1.02616 1.15448 1.2767 0.624416 0.736561 0.857515 
0.983547 1.11021 1.23313 1.34871 0.620619 0.722093 0.833684 0.952313 1.07402 
1.19452 1.30996 1.41746 0.855925 0.764569 0.764569 0.671524 0.661425 0.671524 
0.582786 0.556971 0.556971 0.582786 0.506696 0.458968 0.441109 0.458968 0.506696 
0.45273 0.379052 0.333054 0.333054 0.379052 0.45273 0.427969 0.331576 0.249267 
0.21325 0.249267 0.331576 0.427969 0.432512 0.325669 0.215619 0.121622 0.121622 
0.215619 0.325669 0.432512 0.432512 0.427969 0.325669 0.45273 0.331576 0.215619 
0.506696 0.379052 0.249267 0.121622 0.582786 0.458968 0.333054 0.21325 0.121622 
0.671524 0.556971 0.441109 0.333054 0.249267 0.215619 0.764569 0.661425 0.556971 
0.458968 0.379052 0.331576 0.325669 0.855925 0.764569 0.671524 0.582786 0.506696 
0.45273 0.427969 0.432512 0.975055 1.01847 0.898002 1.07221 0.946693 0.821245 
1.13501 1.00737 0.877585 0.749941 1.20431 1.07784 0.94706 0.816367 0.690152 
1.2767 1.15448 1.02616 0.895868 0.768195 0.647337 1.34871 1.23313 1.11021 
0.983547 0.857515 0.736561 0.624416 1.41746 1.30996 1.19452 1.07402 0.952313 
0.833684 0.722093 0.620619 1.15011 1.26149 1.19686 1.38136 1.31493 1.25155 
1.50697 1.44074 1.37501 1.31281 1.63462 1.5708 1.50478 1.43962 1.37826 
1.76024 1.70086 1.63681 1.5708 1.5059 1.44492 1.88011 1.82666 1.76659 
1.70197 1.63569 1.5708 1.50988 1.99148 1.94473 1.89004 1.82878 1.76333 
1.69667 1.63171 1.5708 1.15011 1.19686 1.26149 1.25155 1.31493 1.38136 
1.31281 1.37501 1.44074 1.50697 1.37826 1.43962 1.50478 1.5708 1.63462 
1.44492 1.5059 1.5708 1.63681 1.70086 1.76024 1.50988 1.5708 1.63569 
1.70197 1.76659 1.82666 1.88011 1.5708 1.63171 1.69667 1.76333 1.82878 
1.89004 1.94473 1.99148 1.72413 1.83164 1.79288 1.94707 1.90847 1.86489 
2.06758 2.03138 1.98711 1.93728 2.18928 2.15805 2.11543 2.06376 2.00658 
2.30791 2.28408 2.24572 2.19453 2.13422 2.06938 2.4195 2.40503 2.3734 
2.32523 2.26401 2.1949 2.12312 2.52097 2.51718 2.49426 2.45144 2.39165 
2.32035 2.24359 2.16654 2.70908 2.81592 2.71362 2.92597 2.81002 2.68886 
3.01997 2.89233 2.76254 2.6349 3.01997 2.92834 2.80854 2.68262 2.55881 
2.92597 2.89233 2.80854 2.70048 2.58462 2.47007 2.81592 2.81002 2.76254 
2.68262 2.58462 2.48017 2.37702 2.70908 2.71362 2.68886 2.6349 2.55881 
2.47007 2.37702 2.28567 2.16654 2.24359 2.12312 2.32035 2.1949 2.06938 
2.39165 2.26401 2.13422 2.00658 2.45144 2.32523 2.19453 2.06376 1.93728 
2.49426 2.3734 2.24572 2.11543 1.98711 1.86489 2.51718 2.40503 2.28408 
2.15805 2.03138 1.90847 1.79288 2.52097 2.4195 2.30791 2.18928 2.06758 
1.94707 1.83164 1.72413 1.66533 1.76911 1.66946 1.88041 1.777 1.67254 
1.99634 1.89102 1.78222 1.67418 2.11299 2.00785 1.89674 1.78405 1.67418 
2.22608 2.12307 2.01191 1.89674 1.78222 1.67254 2.33166 2.23222 2.12307 
2.00785 1.89102 1.777 1.66946 2.42672 2.33166 2.22608 2.11299 1.99634 
1.88041 1.76911 1.66533 1.47626 1.47213 1.37249 1.46906 1.36459 1.26118 
1.46741 1.35938 1.25058 1.14526 1.46741 1.35755 1.24485 1.13374 1.0286 
1.46906 1.35938 1.24485 1.12969 1.01852 0.915514 1.47213 1.36459 1.25058 
1.13374 1.01852 0.909371 0.809937 1.47626 1.37249 1.26118 1.14526 1.0286 
0.915514 0.809937 0.714871 1.41746 1.30996 1.34871 1.19452 1.23313 1.2767 
1.07402 1.11021 1.15448 1.20431 0.952313 0.983547 1.02616 1.07784 1.13501 
0.833684 0.857515 0.895868 0.94706 1.00737 1.07221 0.722093 0.736561 0.768195 
0.816367 0.877585 0.946693 1.01847 0.620619 0.624416 0.647337 0.690152 0.749941 
0.821245 0.898002 0.975055 0.975055 0.898002 1.01847 0.821245 0.946693 1.07221 
0.749941 0.877585 1.00737 1.13501 0.690152 0.816367 0.94706 1.07784 1.20431 
0.647337 0.768195 0.895868 1.02616 1.15448 1.2767 0.624416 0.736561 0.857515 
0.983547 1.11021 1.23313 1.34871 0.620619 0.722093 0.833684 0.952313 1.07402 
1.19452 1.30996 1.41746 
Phi 1 1002 float
6.28319 3.14159 6.28319 3.14159 4.71239 4.71239 1.5708 1.5708 3.69517 
5.72961 2.58802 0.553574 6.28319 6.28319 6.28319 6.28319 3.14159 3.14159 
3.14159 3.14159 3.14159 6.1053 5.8988 5.67687 5.45995 5.26596 5.10322 
4.97131 4.86569 4.78095 0.177881 0.384387 0.606312 0.823235 1.01722 1.17997 
1.31187 1.4175 1.50223 6.18928 6.10703 6.03531 5.97283 5.91832 5.87061 
5.82869 5.79168 5.75886 0.0939024 0.176153 0.247873 0.310351 0.364864 0.412573 
0.454497 0.491504 0.524326 3.31947 3.52598 3.7479 3.96483 4.15881 4.32156 
4.45346 4.55909 4.64383 2.96371 2.75721 2.53528 2.31836 2.12437 1.96162 
1.82972 1.72409 1.63936 3.2355 3.31775 3.38947 3.45194 3.50646 3.55417 
3.59609 3.6331 3.66592 3.04769 2.96544 2.89372 2.83124 2.77673 2.72902 
2.6871 2.65009 2.61727 6.28319 6.28319 6.28319 6.28319 3.14159 3.14159 
3.14159 3.14159 3.14159 6.1053 5.8988 5.67687 5.45995 5.26596 5.10322 
4.97131 4.86569 4.78095 0.177881 0.384387 0.606312 0.823235 1.01722 1.17997 
1.31187 1.4175 1.50223 6.18928 6.10703 6.03531 5.97283 5.91832 5.87061 
5.82869 5.79168 5.75886 0.0939024 0.176153 0.247873 0.310351 0.364864 0.412573 
0.454497 0.491504 0.524326 3.31947 3.52598 3.7479 3.96483 4.15881 4.32156 
4.45346 4.55909 4.64383 2.96371 2.75721 2.53528 2.31836 2.12437 1.96162 
1.82972 1.72409 1.63936 3.2355 3.31775 3.38947 3.45194 3.50646 3.55417 
3.59609 3.6331 3.66592 3.04769 2.96544 2.89372 2.83124 2.77673 2.72902 
2.6871 2.65009 2.61727 4.71239 4.71239 4.71239 4.71239 4.71239 4.71239 
4.71239 4.71239 4.71239 4.60879 4.49914 4.3857 4.27128 4.15881 4.05096 
3.94976 3.85646 3.77161 4.81599 4.92564 5.03907 5.1535 5.26596 5.37381 
5.47502 5.56831 5.65317 4.60879 4.49914 4.3857 4.27128 4.15881 4.05096 
3.94976 3.85646 3.77161 4.81599 4.92564 5.03907 5.1535 5.26596 5.37381 
5.47502 5.56831 5.65317 1.5708 1.5708 1.5708 1.5708 1.5708 1.5708 
1.5708 1.5708 1.5708 1.6744 1.78405 1.89748 2.01191 2.12437 2.23222 
2.33343 2.42672 2.51157 1.4672 1.35755 1.24411 1.12969 1.01722 0.909371 
0.808166 0.714871 0.63002 1.6744 1.78405 1.89748 2.01191 2.12437 2.23222 
2.33343 2.42672 2.51157 1.4672 1.35755 1.24411 1.12969 1.01722 0.909371 
0.808166 0.714871 0.63002 3.60077 3.49669 3.38395 3.26458 3.14159 3.01861 
2.89924 2.78649 2.68241 5.82401 5.92808 6.04083 6.1602 6.28319 0.122983 
0.242354 0.355101 0.459179 6.05603 5.78856 5.97021 5.51259 5.60297 5.78856 
5.26596 5.26596 5.26596 5.26596 5.06749 5.0121 4.91556 4.71239 4.15881 
4.91556 4.83537 4.71239 4.50922 4.15881 3.63622 4.80045 4.71239 4.58941 
4.41268 4.15881 3.82181 3.45456 4.71239 4.62433 4.50922 4.35729 4.15881 
3.91219 3.63622 3.36875 6.01742 5.94343 5.82633 5.88092 5.76745 5.62798 
5.8278 5.71897 5.58911 5.43724 5.78235 5.67854 5.55757 5.41926 5.26596 
5.74316 5.64441 5.5315 5.40467 5.26596 5.11955 5.70914 5.61528 5.50962 
5.3926 5.26596 5.13292 4.99789 5.67937 5.59016 5.49102 5.38246 5.26596 
5.14407 5.02016 4.89798 5.56831 5.47502 5.47502 5.37381 5.37381 5.37381 
5.26596 5.26596 5.26596 5.26596 5.1535 5.1535 5.1535 5.1535 5.1535 
5.03907 5.03907 5.03907 5.03907 5.03907 5.03907 4.92564 4.92564 4.92564 
4.92564 4.92564 4.92564 4.92564 4.81599 4.81599 4.81599 4.81599 4.81599 
4.81599 4.81599 4.81599 4.60879 4.60879 4.49914 4.60879 4.49914 4.3857 
4.60879 4.49914 4.3857 4.27128 4.60879 4.49914 4.3857 4.27128 4.15881 
4.60879 4.49914 4.3857 4.27128 4.15881 4.05096 4.60879 4.49914 4.3857 
4.27128 4.15881 4.05096 3.94976 4.60879 4.49914 4.3857 4.27128 4.15881 
4.05096 3.94976 3.85646 4.5268 4.40462 4.42689 4.28071 4.29185 4.30523 
4.15881 4.15881 4.15881 4.15881 4.04232 4.03217 4.02011 4.00552 3.98753 
3.93376 3.91515 3.89328 3.86721 3.83566 3.7968 3.83461 3.8095 3.78037 
3.74624 3.70581 3.65733 3.59845 3.7454 3.71564 3.68161 3.64243 3.59698 
3.54386 3.48135 3.40735 3.56428 3.45246 3.52338 3.33203 3.40312 3.47739 
3.20576 3.27463 3.34802 3.42551 3.07742 3.14159 3.21128 3.28647 3.36688 
2.95116 3.00855 3.0719 3.14159 3.21784 3.3006 2.83072 2.88006 2.93517 
2.99672 3.06535 3.14159 3.22575 2.7189 2.7598 2.8058 2.85768 2.9163 
2.98259 3.05743 3.14159 3.56428 3.52338 3.45246 3.47739 3.40312 3.33203 
3.42551 3.34802 3.27463 3.20576 3.36688 3.28647 3.21128 3.14159 3.07742 
3.3006 3.21784 3.14159 3.0719 3.00855 2.95116 3.22575 3.14159 3.06535 
2.99672 2.93517 2.88006 2.83072 3.14159 3.05743 2.98259 2.9163 2.85768 
2.8058 2.7598 2.7189 4.5268 4.42689 4.40462 4.30523 4.29185 4.28071 
4.15881 4.15881 4.15881 4.15881 3.98753 4.00552 4.02011 4.03217 4.04232 
3.7968 3.83566 3.86721 3.89328 3.91515 3.93376 3.59845 3.65733 3.70581 
3.74624 3.78037 3.8095 3.83461 3.40735 3.48135 3.54386 3.59698 3.64243 
3.68161 3.71564 3.7454 4.71239 4.80045 4.62433 4.91556 4.71239 4.50922 
5.06749 4.83537 4.58941 4.35729 5.26596 5.0121 4.71239 4.41268 4.15881 
5.51259 5.26596 4.91556 4.50922 4.15881 3.91219 5.78856 5.60297 5.26596 
4.71239 4.15881 3.82181 3.63622 6.05603 5.97021 5.78856 5.26596 4.15881 
3.63622 3.45456 3.36875 0.227158 0.494626 0.312971 0.770593 0.680215 0.494626 
1.01722 1.01722 1.01722 1.01722 1.2157 1.27109 1.36763 1.5708 2.12437 
1.36763 1.44781 1.5708 1.77397 2.12437 2.64697 1.48273 1.5708 1.69378 
1.8705 2.12437 2.46138 2.82862 1.5708 1.65886 1.77397 1.9259 2.12437 
2.371 2.64697 2.91443 1.75639 1.87857 1.8563 2.00248 1.99133 1.97796 
2.12437 2.12437 2.12437 2.12437 2.24087 2.25101 2.26308 2.27767 2.29565 
2.34943 2.36803 2.38991 2.41597 2.44752 2.48639 2.44857 2.47368 2.50281 
2.53694 2.57738 2.62586 2.68474 2.53778 2.56754 2.60157 2.64076 2.68621 
2.73933 2.80184 2.87583 1.6744 1.6744 1.78405 1.6744 1.78405 1.89748 
1.6744 1.78405 1.89748 2.01191 1.6744 1.78405 1.89748 2.01191 2.12437 
1.6744 1.78405 1.89748 2.01191 2.12437 2.23222 1.6744 1.78405 1.89748 
2.01191 2.12437 2.23222 2.33343 1.6744 1.78405 1.89748 2.01191 2.12437 
2.23222 2.33343 2.42672 1.4672 1.35755 1.4672 1.24411 1.35755 1.4672 
1.12969 1.24411 1.35755 1.4672 1.01722 1.12969 1.24411 1.35755 1.4672 
0.909371 1.01722 1.12969 1.24411 1.35755 1.4672 0.808166 0.909371 1.01722 
1.12969 1.24411 1.35755 1.4672 0.714871 0.808166 0.909371 1.01722 1.12969 
1.24411 1.35755 1.4672 0.603812 0.57405 0.693022 0.540021 0.667908 0.792164 
0.500837 0.638778 0.773562 0.900726 0.455383 0.604649 0.751687 0.890581 1.01722 
0.402264 0.564217 0.725619 0.878514 1.01722 1.13912 0.339753 0.515737 0.694072 
0.863926 1.01722 1.15026 1.26302 0.265762 0.456853 0.655207 0.845941 1.01722 
1.16363 1.28529 1.38521 0.227158 0.312971 0.494626 0.494626 0.680215 0.770593 
1.01722 1.01722 1.01722 1.01722 2.12437 1.5708 1.36763 1.27109 1.2157 
2.64697 2.12437 1.77397 1.5708 1.44781 1.36763 2.82862 2.46138 2.12437 
1.8705 1.69378 1.5708 1.48273 2.91443 2.64697 2.371 2.12437 1.9259 
1.77397 1.65886 1.5708 1.75639 1.8563 1.87857 1.97796 1.99133 2.00248 
2.12437 2.12437 2.12437 2.12437 2.29565 2.27767 2.26308 2.25101 2.24087 
2.48639 2.44752 2.41597 2.38991 2.36803 2.34943 2.68474 2.62586 2.57738 
2.53694 2.50281 2.47368 2.44857 2.87583 2.80184 2.73933 2.68621 2.64076 
2.60157 2.56754 2.53778 5.86049 5.90139 5.97231 5.94739 6.02165 6.09275 
5.99927 6.07676 6.15015 6.21902 6.0579 6.13831 6.2135 0 0.0641696 
6.12418 6.20694 6.28319 0.069689 0.13304 0.190437 6.19903 0 0.0762451 
0.144876 0.206423 0.261531 0.310872 0 0.0841597 0.159004 0.225289 0.283913 
0.335793 0.381792 0.422692 5.86049 5.97231 5.90139 6.09275 6.02165 5.94739 
6.21902 6.15015 6.07676 5.99927 0.0641696 0 6.2135 6.13831 6.0579 
0.190437 0.13304 0.069689 6.28319 6.20694 6.12418 0.310872 0.261531 0.206423 
0.144876 0.0762451 6.28319 6.19903 0.422692 0.381792 0.335793 0.283913 0.225289 
0.159004 0.0841597 0 5.67937 5.70914 5.59016 5.74316 5.61528 5.49102 
5.78235 5.64441 5.50962 5.38246 5.8278 5.67854 5.5315 5.3926 5.26596 
5.88092 5.71897 5.55757 5.40467 5.26596 5.14407 5.94343 5.76745 5.58911 
5.41926 5.26596 5.13292 5.02016 6.01742 5.82633 5.62798 5.43724 5.26596 
5.11955 4.99789 4.89798 1.38521 1.28529 1.26302 1.16363 1.15026 1.13912 
1.01722 1.01722 1.01722 1.01722 0.845941 0.863926 0.878514 0.890581 0.900726 
0.655207 0.694072 0.725619 0.751687 0.773562 0.792164 0.456853 0.515737 0.564217 
0.604649 0.638778 0.667908 0.693022 0.265762 0.339753 0.402264 0.455383 0.500837 
0.540021 0.57405 0.603812 
