# vtk DataFile Version 4.0
vtk output
ASCII
DATASET POLYDATA
POINTS 1002 float
-85.426 -96.9453 66.4079 -79.6274 -103.931 65.0271 -79.9862 -93.3313 66.4885 
-74.0776 -99.8785 65.37 -80.6047 -100.223 70.6769 -78.1138 -98.5513 70.7201 
-82.9346 -99.3924 60.7725 -78.2915 -96.7549 61.4258 -75.4872 -106.197 67.5494 
-83.993 -92.9655 70.2471 -75.02 -105.938 61.1934 -85.4804 -91.0999 63.6543 
-85.0371 -97.5891 66.3547 -84.8395 -98.6841 66.3084 -84.602 -99.7427 66.2839 
-83.9585 -100.273 66.2434 -83.0307 -100.713 66.0793 -82.3287 -101.561 65.8382 
-81.8263 -102.439 65.6703 -81.1331 -103.005 65.5257 -80.2968 -103.435 65.2962 
-85.0611 -97.0259 66.7258 -84.9508 -97.5367 67.3318 -84.8372 -98.2283 68.1292 
-84.352 -98.5881 68.6936 -83.5545 -98.6308 68.9422 -82.7914 -98.8053 69.2413 
-82.1651 -99.1732 69.6801 -81.5979 -99.5402 70.0811 -81.0729 -99.8808 70.3997 
-85.6413 -97.347 66.095 -85.8056 -97.7873 65.6182 -85.7398 -98.1777 64.9733 
-85.4864 -98.5365 64.3046 -85.2062 -98.8969 63.6822 -84.8378 -99.1833 63.008 
-84.3362 -99.3567 62.2728 -83.8403 -99.4419 61.6229 -83.3913 -99.4389 61.1313 
-85.6546 -96.5105 66.641 -85.993 -96.1826 67.0961 -86.4107 -95.9798 67.8779 
-86.6779 -95.6502 68.6514 -86.5479 -94.8788 69.0476 -86.13 -94.0269 69.2402 
-85.6473 -93.6336 69.5101 -85.1042 -93.4932 69.8097 -84.5153 -93.2499 70.0458 
-86.1691 -96.853 66.2973 -86.9806 -96.6107 66.091 -87.4413 -95.9001 65.8655 
-87.4181 -95.0882 65.7425 -87.2028 -94.309 65.3637 -87.0996 -93.241 64.6259 
-86.9947 -92.2473 64.1822 -86.6157 -91.7512 64.1533 -86.0307 -91.4543 64.0149 
-79.8924 -103.892 65.7082 -80.1146 -103.721 66.3538 -80.1108 -103.261 66.8812 
-80.1181 -102.786 67.4756 -80.4744 -102.627 68.3119 -80.8583 -102.429 69.1365 
-80.8105 -101.774 69.6022 -80.543 -100.972 69.8163 -80.461 -100.455 70.1382 
-79.8276 -103.689 64.5388 -80.2087 -103.55 64.0141 -80.6721 -103.355 63.4717 
-81.0409 -102.92 63.0324 -81.3106 -102.366 62.6559 -81.6249 -101.832 62.197 
-81.9526 -101.185 61.778 -82.2183 -100.447 61.5075 -82.5304 -99.8351 61.208 
-79.2873 -104.524 65.2114 -78.999 -105.183 65.4808 -78.6828 -105.835 65.7665 
-78.3103 -106.43 66.0072 -77.7831 -106.732 66.1971 -77.1401 -106.664 66.3136 
-76.6156 -106.586 66.4777 -76.2045 -106.639 66.8623 -75.7967 -106.557 67.3126 
-79.261 -104.411 64.4832 -79.0477 -105.119 64.0322 -78.6906 -105.794 63.6417 
-78.0266 -106.128 63.2178 -77.4059 -106.347 62.7428 -76.9681 -106.715 62.1571 
-76.4642 -106.892 61.5947 -75.9276 -106.65 61.3587 -75.4711 -106.263 61.3369 
-79.4812 -93.9478 66.1905 -78.9222 -94.6682 65.8849 -78.3143 -95.2714 65.7321 
-77.6152 -95.7354 65.7324 -76.7486 -96.2127 65.7738 -75.8843 -96.7686 65.799 
-75.3447 -97.5625 65.7375 -75.0387 -98.5774 65.5763 -74.625 -99.4067 65.4349 
-79.8573 -93.627 66.8992 -79.6378 -93.9535 67.4186 -79.3234 -94.2892 68.0071 
-79.0492 -94.7321 68.5228 -78.933 -95.3797 68.9836 -78.822 -96.1034 69.4718 
-78.5861 -96.7347 69.9028 -78.3594 -97.3101 70.2172 -78.2257 -97.9232 70.4751 
-79.7837 -93.4522 65.8766 -79.5819 -93.6433 65.1869 -79.3511 -93.7786 64.5642 
-79.0303 -93.8929 63.9747 -78.6483 -94.0978 63.2544 -78.3174 -94.3378 62.4841 
-78.1356 -94.6844 61.9489 -78.134 -95.3399 61.7341 -78.2283 -96.1472 61.6302 
-80.4025 -93.0353 66.9221 -80.7471 -92.7352 67.3525 -81.0155 -92.2022 68.0624 
-81.2531 -91.5223 68.9883 -81.494 -91.1359 69.616 -81.9851 -91.2307 69.8911 
-82.7826 -91.566 70.1185 -83.4444 -91.9661 70.2394 -83.7703 -92.4454 70.2188 
-80.3665 -92.8462 66.3501 -80.8518 -92.3694 66.0128 -81.3733 -91.8126 65.5099 
-81.7718 -91.1372 65.0919 -82.2513 -90.5834 64.8117 -83.0563 -90.3172 64.462 
-83.8832 -90.2152 64.0431 -84.4753 -90.2856 63.7501 -84.9801 -90.6187 63.6455 
-74.2319 -99.7261 65.9362 -74.549 -99.566 66.4781 -75.0857 -99.4014 66.9793 
-75.7074 -99.2905 67.4794 -76.2258 -99.2588 67.975 -76.6064 -99.1635 68.5744 
-76.8565 -98.8827 69.3744 -77.1056 -98.5961 70.0979 -77.5522 -98.5153 70.4918 
-74.3159 -99.7714 64.8132 -74.5687 -99.5654 64.2119 -74.8898 -99.3574 63.7068 
-75.2879 -99.1564 63.3539 -75.6407 -98.6794 62.8598 -75.9282 -97.9347 62.183 
-76.3264 -97.39 61.7631 -76.9135 -97.1716 61.6469 -77.5956 -97.0022 61.5404 
-73.6326 -100.183 65.69 -73.4196 -100.811 66.0595 -73.4564 -101.856 66.3636 
-73.5124 -102.991 66.4815 -73.6309 -104.062 66.5596 -73.9942 -104.992 66.6853 
-74.4508 -105.488 66.7356 -74.8278 -105.695 66.8498 -75.1548 -105.96 67.1831 
-73.7104 -100.25 64.9683 -73.463 -100.827 64.4518 -73.3869 -101.613 63.8471 
-73.4545 -102.49 63.2664 -73.5234 -103.48 62.5946 -73.4506 -104.486 61.769 
-73.4081 -105.197 61.1994 -73.729 -105.607 61.0989 -74.3732 -105.863 61.1706 
-80.4407 -100.327 71.2436 -80.2463 -100.384 71.8401 -80.0422 -100.451 72.4066 
-79.6868 -100.487 72.8089 -79.0301 -100.176 72.9112 -78.4214 -99.5716 72.7043 
-78.2924 -99.2064 72.2238 -78.4075 -99.1182 71.6033 -78.3469 -98.9193 71.0766 
-80.0796 -100.748 70.6233 -79.5807 -101.471 70.655 -79.0102 -102.225 70.6154 
-78.4761 -102.846 70.3965 -78.0507 -103.5 70.0749 -77.4664 -104.329 69.7202 
-76.7209 -105.098 69.3147 -76.1576 -105.604 68.8018 -75.8111 -105.932 68.1769 
-81.1598 -99.8536 71.1568 -81.7242 -99.2936 71.5082 -82.1185 -98.4369 71.5669 
-82.5244 -97.5778 71.5711 -83.1936 -96.8784 71.6556 -83.8877 -96.0136 71.644 
-84.2025 -94.9429 71.4853 -84.1383 -94.074 71.1641 -83.9972 -93.4988 70.6856 
-77.5654 -99.1291 70.8462 -77.0153 -99.7522 70.9201 -76.7255 -100.545 70.8141 
-76.5147 -101.436 70.5985 -76.1264 -102.185 70.2505 -75.8378 -102.824 69.6079 
-75.79 -103.642 68.8722 -75.7055 -104.625 68.3562 -75.5496 -105.508 67.977 
-78.5921 -98.0531 70.9482 -78.8133 -97.2346 71.4409 -79.1283 -96.307 71.8711 
-79.8353 -95.5367 71.9553 -80.7262 -94.8024 71.9496 -81.6129 -94.0075 72.0035 
-82.4398 -93.4397 71.7972 -83.0543 -93.2024 71.271 -83.5112 -93.0836 70.7074 
-82.8201 -99.0831 60.2937 -82.5133 -98.7475 59.9067 -82.0774 -98.3971 59.8261 
-81.6335 -97.9315 60.0637 -81.1631 -97.3983 60.3205 -80.5886 -97.0141 60.4949 
-79.9641 -96.8541 60.7416 -79.363 -96.8315 61.0217 -78.7927 -96.8272 61.2329 
-82.236 -99.7476 60.783 -81.5435 -100.418 60.8108 -80.6194 -101.26 60.8282 
-79.4235 -102.168 60.7704 -78.2954 -103.108 60.6196 -77.3831 -103.825 60.5033 
-76.6159 -104.264 60.536 -76.0051 -104.778 60.7045 -75.4977 -105.432 60.943 
-83.6806 -99.0558 60.5208 -84.249 -98.5472 60.5856 -84.4001 -97.6187 61.0687 
-84.4284 -96.4894 61.6034 -84.6134 -95.4917 62.0683 -84.8174 -94.5556 62.6727 
-85.0808 -93.5329 63.1707 -85.4525 -92.5158 63.3199 -85.6321 -91.6739 63.4028 
-77.7799 -97.2715 61.1001 -77.1706 -97.8043 60.7678 -76.634 -98.8277 60.6616 
-76.128 -100.325 60.7182 -75.6308 -101.633 60.74 -75.2928 -102.564 60.5556 
-75.0869 -103.553 60.2269 -74.925 -104.595 60.2124 -74.8909 -105.377 60.6748 
-78.9549 -96.1099 61.4962 -79.6887 -95.376 61.5438 -80.6446 -94.6826 61.5455 
-81.6454 -94.0022 61.5141 -82.4016 -93.4112 61.7678 -83.0767 -92.9818 62.3783 
-83.8745 -92.4193 62.8086 -84.6077 -91.6709 62.9193 -85.1172 -91.1684 63.1485 
-75.2557 -106.806 66.9401 -75.0891 -107.474 66.4099 -75.0269 -107.922 65.7764 
-74.8263 -108.04 64.9343 -74.4622 -108.023 64.0964 -74.3783 -107.895 63.3122 
-74.6378 -107.529 62.5158 -74.8427 -107.014 61.9089 -74.908 -106.481 61.5427 
-84.4129 -92.4633 69.8033 -84.7908 -91.9561 69.353 -84.9911 -91.6915 68.7266 
-85.219 -91.536 67.9267 -85.603 -91.1704 67.1671 -85.8202 -90.8181 66.507 
-85.6999 -90.8237 65.8401 -85.5233 -90.9639 65.1003 -85.4851 -90.9985 64.3218 
-84.8575 -98.0323 66.8402 -84.7963 -98.6923 67.5566 -84.6623 -99.1683 66.9031 
-84.4236 -99.0624 68.1486 -84.2883 -99.4118 67.4872 -84.133 -99.8335 66.8333 
-83.6384 -99.0522 68.4277 -83.5198 -99.3824 67.7949 -83.4026 -99.7774 67.2634 
-83.301 -100.305 66.737 -82.8387 -99.1875 68.7601 -82.7227 -99.577 68.1219 
-82.6532 -100.062 67.6211 -82.6826 -100.67 67.2193 -82.5906 -101.217 66.607 
-82.1648 -99.5791 69.2335 -82.1642 -100.1 68.719 -82.1861 -100.7 68.1875 
-82.2226 -101.288 67.6922 -82.1962 -101.817 67.0949 -82.0532 -102.198 66.3777 
-81.5012 -99.8981 69.5796 -81.6147 -100.512 69.2209 -81.8099 -101.222 68.8215 
-81.8099 -101.718 68.202 -81.6474 -102.08 67.4419 -81.5294 -102.495 66.7482 
-81.3882 -102.826 66.1443 -80.9155 -100.141 69.838 -81.0356 -100.731 69.5178 
-81.3265 -101.534 69.2667 -81.3365 -102.052 68.7062 -80.9988 -102.224 67.8337 
-80.7804 -102.546 67.0491 -80.7518 -103.037 66.4911 -80.5938 -103.336 65.9403 
-85.2473 -96.5263 67.0263 -85.5638 -96.2326 67.6391 -85.0558 -96.9754 67.7321 
-85.9614 -96.1286 68.5105 -85.2715 -96.6231 68.3983 -84.8003 -97.6264 68.5762 
-86.1053 -95.7949 69.1223 -85.5363 -96.4588 69.1441 -84.8288 -97.1554 69.1193 
-84.1529 -97.9932 69.0692 -85.797 -95.0093 69.3447 -85.4391 -96.0401 69.5713 
-84.8458 -96.8027 69.6626 -83.9461 -97.4288 69.4364 -83.2645 -98.1136 69.2603 
-85.346 -94.318 69.6481 -84.9806 -95.3339 69.8479 -84.5897 -96.3244 70.0903 
-83.8005 -96.9606 69.9523 -82.988 -97.5702 69.6606 -82.5721 -98.3908 69.6558 
-84.9513 -94.0217 70.1294 -84.6473 -94.799 70.3326 -84.3165 -95.8266 70.5258 
-83.7389 -96.6366 70.5567 -82.955 -97.2046 70.3403 -82.4665 -97.9918 70.2668 
-82.1316 -98.8889 70.2874 -84.4992 -93.7976 70.4956 -84.4567 -94.4457 70.8562 
-84.287 -95.4083 71.0454 -83.8287 -96.4014 71.1256 -83.1043 -97.0813 71.0576 
-82.5225 -97.7674 70.9928 -82.1719 -98.6677 71.0166 -81.6912 -99.4186 70.8272 
-83.6054 -93.567 71.2053 -83.1127 -93.7725 71.7228 -83.7877 -94.2937 71.6736 
-82.3199 -94.3262 72.0205 -83.0775 -94.7612 72.0884 -83.6769 -95.3627 72.0133 
-81.3903 -95.1811 71.9953 -82.0892 -95.5021 72.2342 -82.684 -95.8365 72.4341 
-83.0693 -96.385 72.1834 -80.4298 -95.9467 72.0091 -81.1396 -96.2396 72.2182 
-81.716 -96.3497 72.5733 -82.0641 -96.6491 72.5344 -82.3326 -97.1964 72.0787 
-79.4675 -96.5715 72.17 -80.0574 -96.7915 72.3969 -80.8092 -96.921 72.6415 
-81.3283 -97.1307 72.6423 -81.5788 -97.6076 72.2934 -81.855 -98.1456 71.9201 
-78.9049 -97.3809 71.9988 -79.057 -97.4399 72.5073 -79.6076 -97.5974 72.826 
-80.4299 -97.9658 72.8257 -80.9569 -98.4087 72.5135 -81.2045 -98.8446 72.1602 
[...]
POINT_DATA 1002
FIELD FieldData 2
Theta 1 1002 float
2.58802 2.58802 0.553574 0.553574 2.12437 1.01722 2.12437 1.01722 1.5708 
1.5708 1.5708 1.5708 2.68241 2.78649 2.89924 3.01861 3.14159 3.01861 
2.89924 2.78649 2.68241 2.61035 2.61791 2.60515 2.56958 2.51327 2.44184 
2.36202 2.27983 2.1997 2.61035 2.61791 2.60515 2.56958 2.51327 2.44184 
2.36202 2.27983 2.1997 2.50947 2.41899 2.31794 2.20864 2.0944 1.97902 
1.86631 1.75944 1.66056 2.50947 2.41899 2.31794 2.20864 2.0944 1.97902 
1.86631 1.75944 1.66056 2.61035 2.61791 2.60515 2.56958 2.51327 2.44184 
2.36202 2.27983 2.1997 2.61035 2.61791 2.60515 2.56958 2.51327 2.44184 
2.36202 2.27983 2.1997 2.50947 2.41899 2.31794 2.20864 2.0944 1.97902 
1.86631 1.75944 1.66056 2.50947 2.41899 2.31794 2.20864 2.0944 1.97902 
1.86631 1.75944 1.66056 0.459179 0.355101 0.242354 0.122983 0 0.122983 
0.242354 0.355101 0.459179 0.531246 0.523681 0.536438 0.57201 0.628319 0.699757 
0.779574 0.86176 0.941896 0.531246 0.523681 0.536438 0.57201 0.628319 0.699757 
0.779574 0.86176 0.941896 0.632123 0.7226 0.823657 0.932948 1.0472 1.16257 
1.27528 1.38216 1.48103 0.632123 0.7226 0.823657 0.932948 1.0472 1.16257 
1.27528 1.38216 1.48103 0.531246 0.523681 0.536438 0.57201 0.628319 0.699757 
0.779574 0.86176 0.941896 0.531246 0.523681 0.536438 0.57201 0.628319 0.699757 
0.779574 0.86176 0.941896 0.632123 0.7226 0.823657 0.932948 1.0472 1.16257 
1.27528 1.38216 1.48103 0.632123 0.7226 0.823657 0.932948 1.0472 1.16257 
1.27528 1.38216 1.48103 2.02998 1.9259 1.81315 1.69378 1.5708 1.44781 
1.32844 1.2157 1.11162 2.0928 2.05283 2.00422 1.94767 1.88496 1.81867 
1.75177 1.68695 1.62623 2.0928 2.05283 2.00422 1.94767 1.88496 1.81867 
1.75177 1.68695 1.62623 1.0488 1.08876 1.13737 1.19392 1.25664 1.32292 
1.38982 1.45464 1.51537 1.0488 1.08876 1.13737 1.19392 1.25664 1.32292 
1.38982 1.45464 1.51537 2.02998 1.9259 1.81315 1.69378 1.5708 1.44781 
1.32844 1.2157 1.11162 2.0928 2.05283 2.00422 1.94767 1.88496 1.81867 
1.75177 1.68695 1.62623 2.0928 2.05283 2.00422 1.94767 1.88496 1.81867 
1.75177 1.68695 1.62623 1.0488 1.08876 1.13737 1.19392 1.25664 1.32292 
1.38982 1.45464 1.51537 1.0488 1.08876 1.13737 1.19392 1.25664 1.32292 
1.38982 1.45464 1.51537 1.5708 1.5708 1.5708 1.5708 1.5708 1.5708 
1.5708 1.5708 1.5708 1.5708 1.5708 1.5708 1.5708 1.5708 1.5708 
1.5708 1.5708 1.5708 2.70908 2.71362 2.81592 2.68886 2.81002 2.92597 
2.6349 2.76254 2.89233 3.01997 2.55881 2.68262 2.80854 2.92834 3.01997 
2.47007 2.58462 2.70048 2.80854 2.89233 2.92597 2.37702 2.48017 2.58462 
2.68262 2.76254 2.81002 2.81592 2.28567 2.37702 2.47007 2.55881 2.6349 
2.68886 2.71362 2.70908 2.52097 2.4195 2.51718 2.30791 2.40503 2.49426 
2.18928 2.28408 2.3734 2.45144 2.06758 2.15805 2.24572 2.32523 2.39165 
1.94707 2.03138 2.11543 2.19453 2.26401 2.32035 1.83164 1.90847 1.98711 
2.06376 2.13422 2.1949 2.24359 1.72413 1.79288 1.86489 1.93728 2.00658 
2.06938 2.12312 2.16654 1.5708 1.50988 1.63171 1.44492 1.5708 1.69667 
1.37826 1.5059 1.63569 1.76333 1.31281 1.43962 1.5708 1.70197 1.82878 
1.25155 1.37501 1.50478 1.63681 1.76659 1.89004 1.19686 1.31493 1.44074 
1.5708 1.70086 1.82666 1.94473 1.15011 1.26149 1.38136 1.50697 1.63462 
1.76024 1.88011 1.99148 1.99148 1.88011 1.94473 1.76024 1.82666 1.89004 
1.63462 1.70086 1.76659 1.82878 1.50697 1.5708 1.63681 1.70197 1.76333 
1.38136 1.44074 1.50478 1.5708 1.63569 1.69667 1.26149 1.31493 1.37501 
1.43962 1.5059 1.5708 1.63171 1.15011 1.19686 1.25155 1.31281 1.37826 
1.44492 1.50988 1.5708 2.16654 2.12312 2.24359 2.06938 2.1949 2.32035 
2.00658 2.13422 2.26401 2.39165 1.93728 2.06376 2.19453 2.32523 2.45144 
1.86489 1.98711 2.11543 2.24572 2.3734 2.49426 1.79288 1.90847 2.03138 
2.15805 2.28408 2.40503 2.51718 1.72413 1.83164 1.94707 2.06758 2.18928 
2.30791 2.4195 2.52097 1.66533 1.66946 1.76911 1.67254 1.777 1.88041 
1.67418 1.78222 1.89102 1.99634 1.67418 1.78405 1.89674 2.00785 2.11299 
1.67254 1.78222 1.89674 2.01191 2.12307 2.22608 1.66946 1.777 1.89102 
2.00785 2.12307 2.23222 2.33166 1.66533 1.76911 1.88041 1.99634 2.11299 
2.22608 2.33166 2.42672 1.47626 1.37249 1.47213 1.26118 1.36459 1.46906 
1.14526 1.25058 1.35938 1.46741 1.0286 1.13374 1.24485 1.35755 1.46741 
0.915514 1.01852 1.12969 1.24485 1.35938 1.46906 0.809937 0.909371 1.01852 
1.13374 1.25058 1.36459 1.47213 0.714871 0.809937 0.915514 1.0286 1.14526 
1.26118 1.37249 1.47626 0.975055 0.898002 1.01847 0.821245 0.946693 1.07221 
0.749941 0.877585 1.00737 1.13501 0.690152 0.816367 0.94706 1.07784 1.20431 
0.647337 0.768195 0.895868 1.02616 1.15448 1.2767 0.624416 0.736561 0.857515 
0.983547 1.11021 1.23313 1.34871 0.620619 0.722093 0.833684 0.952313 1.07402 
1.19452 1.30996 1.41746 0.855925 0.764569 0.764569 0.671524 0.661425 0.671524 
0.582786 0.556971 0.556971 0.582786 0.506696 0.458968 0.441109 0.458968 0.506696 
0.45273 0.379052 0.333054 0.333054 0.379052 0.45273 0.427969 0.331576 0.249267 
0.21325 0.249267 0.331576 0.427969 0.432512 0.325669 0.215619 0.121622 0.121622 
0.215619 0.325669 0.432512 0.432512 0.427969 0.325669 0.45273 0.331576 0.215619 
0.506696 0.379052 0.249267 0.121622 0.582786 0.458968 0.333054 0.21325 0.121622 
0.671524 0.556971 0.441109 0.333054 0.249267 0.215619 0.764569 0.661425 0.556971 
0.458968 0.379052 0.331576 0.325669 0.855925 0.764569 0.671524 0.582786 0.506696 
0.45273 0.427969 0.432512 0.975055 1.01847 0.898002 1.07221 0.946693 0.821245 
1.13501 1.00737 0.877585 0.749941 1.20431 1.07784 0.94706 0.816367 0.690152 
1.2767 1.15448 1.02616 0.895868 0.768195 0.647337 1.34871 1.23313 1.11021 
0.983547 0.857515 0.736561 0.624416 1.41746 1.30996 1.19452 1.07402 0.952313 
0.833684 0.722093 0.620619 1.15011 1.26149 1.19686 1.38136 1.31493 1.25155 
1.50697 1.44074 1.37501 1.31281 1.63462 1.5708 1.50478 1.43962 1.37826 
1.76024 1.70086 1.63681 1.5708 1.5059 1.44492 1.88011 1.82666 1.76659 
1.70197 1.63569 1.5708 1.50988 1.99148 1.94473 1.89004 1.82878 1.76333 
1.69667 1.63171 1.5708 1.15011 1.19686 1.26149 1.25155 1.31493 1.38136 
1.31281 1.37501 1.44074 1.50697 1.37826 1.43962 1.50478 1.5708 1.63462 
1.44492 1.5059 1.5708 1.63681 1.70086 1.76024 1.50988 1.5708 1.63569 
1.70197 1.76659 1.82666 1.88011 1.5708 1.63171 1.69667 1.76333 1.82878 
1.89004 1.94473 1.99148 1.72413 1.83164 1.79288 1.94707 1.90847 1.86489 
2.06758 2.03138 1.98711 1.93728 2.18928 2.15805 2.11543 2.06376 2.00658 
2.30791 2.28408 2.24572 2.19453 2.13422 2.06938 2.4195 2.40503 2.3734 
2.32523 2.26401 2.1949 2.12312 2.52097 2.51718 2.49426 2.45144 2.39165 
2.32035 2.24359 2.16654 2.70908 2.81592 2.71362 2.92597 2.81002 2.68886 
3.01997 2.89233 2.76254 2.6349 3.01997 2.92834 2.80854 2.68262 2.55881 
2.92597 2.89233 2.80854 2.70048 2.58462 2.47007 2.81592 2.81002 2.76254 
2.68262 2.58462 2.48017 2.37702 2.70908 2.71362 2.68886 2.6349 2.55881 
2.47007 2.37702 2.28567 2.16654 2.24359 2.12312 2.32035 2.1949 2.06938 
2.39165 2.26401 2.13422 2.00658 2.45144 2.32523 2.19453 2.06376 1.93728 
2.49426 2.3734 2.24572 2.11543 1.98711 1.86489 2.51718 2.40503 2.28408 
2.15805 2.03138 1.90847 1.79288 2.52097 2.4195 2.30791 2.18928 2.06758 
1.94707 1.83164 1.72413 1.66533 1.76911 1.66946 1.88041 1.777 1.67254 
1.99634 1.89102 1.78222 1.67418 2.11299 2.00785 1.89674 1.78405 1.67418 
2.22608 2.12307 2.01191 1.89674 1.78222 1.67254 2.33166 2.23222 2.12307 
2.00785 1.89102 1.777 1.66946 2.42672 2.33166 2.22608 2.11299 1.99634 
1.88041 1.76911 1.66533 1.47626 1.47213 1.37249 1.46906 1.36459 1.26118 
1.46741 1.35938 1.25058 1.14526 1.46741 1.35755 1.24485 1.13374 1.0286 
1.46906 1.35938 1.24485 1.12969 1.01852 0.915514 1.47213 1.36459 1.25058 
1.13374 1.01852 0.909371 0.809937 1.47626 1.37249 1.26118 1.14526 1.0286 
0.915514 0.809937 0.714871 1.41746 1.30996 1.34871 1.19452 1.23313 1.2767 
1.07402 1.11021 1.15448 1.20431 0.952313 0.983547 1.02616 1.07784 1.13501 
0.833684 0.857515 0.895868 0.94706 1.00737 1.07221 0.722093 0.736561 0.768195 
0.816367 0.877585 0.946693 1.01847 0.620619 0.624416 0.647337 0.690152 0.749941 
0.821245 0.898002 0.975055 0.975055 0.898002 1.01847 0.821245 0.946693 1.07221 
0.749941 0.877585 1.00737 1.13501 0.690152 0.816367 0.94706 1.07784 1.20431 
0.647337 0.768195 0.895868 1.02616 1.15448 1.2767 0.624416 0.736561 0.857515 
0.983547 1.11021 1.23313 1.34871 0.620619 0.722093 0.833684 0.952313 1.07402 
1.19452 1.30996 1.41746 
Phi 1 1002 float
6.28319 3.14159 6.28319 3.14159 4.71239 4.71239 1.5708 1.5708 3.69517 
5.72961 2.58802 0.553574 6.28319 6.28319 6.28319 6.28319 3.14159 3.14159 
3.14159 3.14159 3.14159 6.1053 5.8988 5.67687 5.45995 5.26596 5.10322 
4.97131 4.86569 4.78095 0.177881 0.384387 0.606312 0.823235 1.01722 1.17997 
1.31187 1.4175 1.50223 6.18928 6.10703 6.03531 5.97283 5.91832 5.87061 
5.82869 5.79168 5.75886 0.0939024 0.176153 0.247873 0.310351 0.364864 0.412573 
0.454497 0.491504 0.524326 3.31947 3.52598 3.7479 3.96483 4.15881 4.32156 
4.45346 4.55909 4.64383 2.96371 2.75721 2.53528 2.31836 2.12437 1.96162 
1.82972 1.72409 1.63936 3.2355 3.31775 3.38947 3.45194 3.50646 3.55417 
3.59609 3.6331 3.66592 3.04769 2.96544 2.89372 2.83124 2.77673 2.72902 
2.6871 2.65009 2.61727 6.28319 6.28319 6.28319 6.28319 3.14159 3.14159 
3.14159 3.14159 3.14159 6.1053 5.8988 5.67687 5.45995 5.26596 5.10322 
4.97131 4.86569 4.78095 0.177881 0.384387 0.606312 0.823235 1.01722 1.17997 
1.31187 1.4175 1.50223 6.18928 6.10703 6.03531 5.97283 5.91832 5.87061 
5.82869 5.79168 5.75886 0.0939024 0.176153 0.247873 0.310351 0.364864 0.412573 
0.454497 0.491504 0.524326 3.31947 3.52598 3.7479 3.96483 4.15881 4.32156 
4.45346 4.55909 4.64383 2.96371 2.75721 2.53528 2.31836 2.12437 1.96162 
1.82972 1.72409 1.63936 3.2355 3.31775 3.38947 3.45194 3.50646 3.55417 
3.59609 3.6331 3.66592 3.04769 2.96544 2.89372 2.83124 2.77673 2.72902 
2.6871 2.65009 2.61727 4.71239 4.71239 4.71239 4.71239 4.71239 4.71239 
4.71239 4.71239 4.71239 4.60879 4.49914 4.3857 4.27128 4.15881 4.05096 
3.94976 3.85646 3.77161 4.81599 4.92564 5.03907 5.1535 5.26596 5.37381 
5.47502 5.56831 5.65317 4.60879 4.49914 4.3857 4.27128 4.15881 4.05096 
3.94976 3.85646 3.77161 4.81599 4.92564 5.03907 5.1535 5.26596 5.37381 
5.47502 5.56831 5.65317 1.5708 1.5708 1.5708 1.5708 1.5708 1.5708 
1.5708 1.5708 1.5708 1.6744 1.78405 1.89748 2.01191 2.12437 2.23222 
2.33343 2.42672 2.51157 1.4672 1.35755 1.24411 1.12969 1.01722 0.909371 
0.808166 0.714871 0.63002 1.6744 1.78405 1.89748 2.01191 2.12437 2.23222 
2.33343 2.42672 2.51157 1.4672 1.35755 1.24411 1.12969 1.01722 0.909371 
0.808166 0.714871 0.63002 3.60077 3.49669 3.38395 3.26458 3.14159 3.01861 
2.89924 2.78649 2.68241 5.82401 5.92808 6.04083 6.1602 6.28319 0.122983 
0.242354 0.355101 0.459179 6.05603 5.78856 5.97021 5.51259 5.60297 5.78856 
5.26596 5.26596 5.26596 5.26596 5.06749 5.0121 4.91556 4.71239 4.15881 
4.91556 4.83537 4.71239 4.50922 4.15881 3.63622 4.80045 4.71239 4.58941 
4.41268 4.15881 3.82181 3.45456 4.71239 4.62433 4.50922 4.35729 4.15881 
3.91219 3.63622 3.36875 6.01742 5.94343 5.82633 5.88092 5.76745 5.62798 
5.8278 5.71897 5.58911 5.43724 5.78235 5.67854 5.55757 5.41926 5.26596 
5.74316 5.64441 5.5315 5.40467 5.26596 5.11955 5.70914 5.61528 5.50962 
5.3926 5.26596 5.13292 4.99789 5.67937 5.59016 5.49102 5.38246 5.26596 
5.14407 5.02016 4.89798 5.56831 5.47502 5.47502 5.37381 5.37381 5.37381 
5.26596 5.26596 5.26596 5.26596 5.1535 5.1535 5.1535 5.1535 5.1535 
5.03907 5.03907 5.03907 5.03907 5.03907 5.03907 4.92564 4.92564 4.92564 
4.92564 4.92564 4.92564 4.92564 4.81599 4.81599 4.81599 4.81599 4.81599 
4.81599 4.81599 4.81599 4.60879 4.60879 4.49914 4.60879 4.49914 4.3857 
4.60879 4.49914 4.3857 4.27128 4.60879 4.49914 4.3857 4.27128 4.15881 
4.60879 4.49914 4.3857 4.27128 4.15881 4.05096 4.60879 4.49914 4.3857 
4.27128 4.15881 4.05096 3.94976 4.60879 4.49914 4.3857 4.27128 4.15881 
4.05096 3.94976 3.85646 4.5268 4.40462 4.42689 4.28071 4.29185 4.30523 
4.15881 4.15881 4.15881 4.15881 4.04232 4.03217 4.02011 4.00552 3.98753 
3.93376 3.91515 3.89328 3.86721 3.83566 3.7968 3.83461 3.8095 3.78037 
3.74624 3.70581 3.65733 3.59845 3.7454 3.71564 3.68161 3.64243 3.59698 
3.54386 3.48135 3.40735 3.56428 3.45246 3.52338 3.33203 3.40312 3.47739 
3.20576 3.27463 3.34802 3.42551 3.07742 3.14159 3.21128 3.28647 3.36688 
2.95116 3.00855 3.0719 3.14159 3.21784 3.3006 2.83072 2.88006 2.93517 
2.99672 3.06535 3.14159 3.22575 2.7189 2.7598 2.8058 2.85768 2.9163 
2.98259 3.05743 3.14159 3.56428 3.52338 3.45246 3.47739 3.40312 3.33203 
3.42551 3.34802 3.27463 3.20576 3.36688 3.28647 3.21128 3.14159 3.07742 
3.3006 3.21784 3.14159 3.0719 3.00855 2.95116 3.22575 3.14159 3.06535 
2.99672 2.93517 2.88006 2.83072 3.14159 3.05743 2.98259 2.9163 2.85768 
2.8058 2.7598 2.7189 4.5268 4.42689 4.40462 4.30523 4.29185 4.28071 
4.15881 4.15881 4.15881 4.15881 3.98753 4.00552 4.02011 4.03217 4.04232 
3.7968 3.83566 3.86721 3.89328 3.91515 3.93376 3.59845 3.65733 3.70581 
3.74624 3.78037 3.8095 3.83461 3.40735 3.48135 3.54386 3.59698 3.64243 
3.68161 3.71564 3.7454 4.71239 4.80045 4.62433 4.91556 4.71239 4.50922 
5.06749 4.83537 4.58941 4.35729 5.26596 5.0121 4.71239 4.41268 4.15881 
5.51259 5.26596 4.91556 4.50922 4.15881 3.91219 5.78856 5.60297 5.26596 
4.71239 4.15881 3.82181 3.63622 6.05603 5.97021 5.78856 5.26596 4.15881 
3.63622 3.45456 3.36875 0.227158 0.494626 0.312971 0.770593 0.680215 0.494626 
1.01722 1.01722 1.01722 1.01722 1.2157 1.27109 1.36763 1.5708 2.12437 
1.36763 1.44781 1.5708 1.77397 2.12437 2.64697 1.48273 1.5708 1.69378 
1.8705 2.12437 2.46138 2.82862 1.5708 1.65886 1.77397 1.9259 2.12437 
2.371 2.64697 2.91443 1.75639 1.87857 1.8563 2.00248 1.99133 1.97796 
2.12437 2.12437 2.12437 2.12437 2.24087 2.25101 2.26308 2.27767 2.29565 
2.34943 2.36803 2.38991 2.41597 2.44752 2.48639 2.44857 2.47368 2.50281 
2.53694 2.57738 2.62586 2.68474 2.53778 2.56754 2.60157 2.64076 2.68621 
2.73933 2.80184 2.87583 1.6744 1.6744 1.78405 1.6744 1.78405 1.89748 
1.6744 1.78405 1.89748 2.01191 1.6744 1.78405 1.89748 2.01191 2.12437 
1.6744 1.78405 1.89748 2.01191 2.12437 2.23222 1.6744 1.78405 1.89748 
2.01191 2.12437 2.23222 2.33343 1.6744 1.78405 1.89748 2.01191 2.12437 
2.23222 2.33343 2.42672 1.4672 1.35755 1.4672 1.24411 1.35755 1.4672 
1.12969 1.24411 1.35755 1.4672 1.01722 1.12969 1.24411 1.35755 1.4672 
0.909371 1.01722 1.12969 1.24411 1.35755 1.4672 0.808166 0.909371 1.01722 
1.12969 1.24411 1.35755 1.4672 0.714871 0.808166 0.909371 1.01722 1.12969 
1.24411 1.35755 1.4672 0.603812 0.57405 0.693022 0.540021 0.667908 0.792164 
0.500837 0.638778 0.773562 0.900726 0.455383 0.604649 0.751687 0.890581 1.01722 
0.402264 0.564217 0.725619 0.878514 1.01722 1.13912 0.339753 0.515737 0.694072 
0.863926 1.01722 1.15026 1.26302 0.265762 0.456853 0.655207 0.845941 1.01722 
1.16363 1.28529 1.38521 0.227158 0.312971 0.494626 0.494626 0.680215 0.770593 
1.01722 1.01722 1.01722 1.01722 2.12437 1.5708 1.36763 1.27109 1.2157 
2.64697 2.12437 1.77397 1.5708 1.44781 1.36763 2.82862 2.46138 2.12437 
1.8705 1.69378 1.5708 1.48273 2.91443 2.64697 2.371 2.12437 1.9259 
1.77397 1.65886 1.5708 1.75639 1.8563 1.87857 1.97796 1.99133 2.00248 
2.12437 2.12437 2.12437 2.12437 2.29565 2.27767 2.26308 2.25101 2.24087 
2.48639 2.44752 2.41597 2.38991 2.36803 2.34943 2.68474 2.62586 2.57738 
2.53694 2.50281 2.47368 2.44857 2.87583 2.80184 2.73933 2.68621 2.64076 
2.60157 2.56754 2.53778 5.86049 5.90139 5.97231 5.94739 6.02165 6.09275 
5.99927 6.07676 6.15015 6.21902 6.0579 6.13831 6.2135 0 0.0641696 
6.12418 6.20694 6.28319 0.069689 0.13304 0.190437 6.19903 0 0.0762451 
0.144876 0.206423 0.261531 0.310872 0 0.0841597 0.159004 0.225289 0.283913 
0.335793 0.381792 0.422692 5.86049 5.97231 5.90139 6.09275 6.02165 5.94739 
6.21902 6.15015 6.07676 5.99927 0.0641696 0 6.2135 6.13831 6.0579 
0.190437 0.13304 0.069689 6.28319 6.20694 6.12418 0.310872 0.261531 0.206423 
0.144876 0.0762451 6.28319 6.19903 0.422692 0.381792 0.335793 0.283913 0.225289 
0.159004 0.0841597 0 5.67937 5.70914 5.59016 5.74316 5.61528 5.49102 
5.78235 5.64441 5.50962 5.38246 5.8278 5.67854 5.5315 5.3926 5.26596 
5.88092 5.71897 5.55757 5.40467 5.26596 5.14407 5.94343 5.76745 5.58911 
5.41926 5.26596 5.13292 5.02016 6.01742 5.82633 5.62798 5.43724 5.26596 
5.11955 4.99789 4.89798 1.38521 1.28529 1.26302 1.16363 1.15026 1.13912 
1.01722 1.01722 1.01722 1.01722 0.845941 0.863926 0.878514 0.890581 0.900726 
0.655207 0.694072 0.725619 0.751687 0.773562 0.792164 0.456853 0.515737 0.564217 
0.604649 0.638778 0.667908 0.693022 0.265762 0.339753 0.402264 0.455383 0.500837 
0.540021 0.57405 0.603812 
