# vtk DataFile Version 4.0
vtk output
ASCII
DATASET POLYDATA
POINTS 1002 float
-87.0784 -97.7348 71.0765 -81.5483 -104.11 70.7018 -80.6687 -93.3755 70.8244 
-76.6816 -101.9 70.8204 -82.6001 -100.002 75.4546 -79.5741 -98.0023 75.6387 
-83.611 -100.169 66.3813 -79.131 -97.911 66.6299 -78.2001 -106.472 74.16 
-84.7197 -92.8716 73.4073 -76.985 -107.902 66.9696 -86.1022 -91.2011 67.5418 
-86.9813 -98.5989 71.1802 -86.3855 -99.0246 71.0477 -85.4741 -99.222 70.814 
-84.9485 -99.9635 70.7725 -84.8747 -101.174 70.8658 -84.3947 -101.906 70.8553 
-83.2777 -102.116 70.7945 -82.2486 -102.505 70.7783 -81.7378 -103.26 70.752 
-87.1384 -98.1558 71.7554 -87.0634 -98.4911 72.4512 -86.5541 -98.5444 72.8039 
-85.7144 -98.4626 72.8795 -85.062 -98.6395 73.2897 -84.8 -99.1453 74.1241 
-84.5547 -99.6538 74.806 -84.0132 -99.9108 75.1266 -83.2807 -99.9617 75.2967 
-87.0759 -97.9464 70.5675 -87.0195 -98.1836 69.9544 -86.8459 -98.4812 69.2098 
-86.6414 -98.8107 68.3981 -86.5022 -99.0871 67.6571 -86.1545 -99.2838 67.1609 
-85.4242 -99.4827 66.957 -84.6685 -99.7346 66.8363 -84.1178 -99.9799 66.6215 
-86.9692 -96.9071 71.2157 -86.909 -96.0734 71.3882 -87.1029 -95.4694 71.7805 
-87.2783 -94.9219 72.3101 -87.0617 -94.2269 72.6761 -86.634 -93.7229 72.7919 
-86.1985 -93.5705 72.8214 -85.6654 -93.403 72.9179 -85.1204 -93.1015 73.1301 
-87.079 -96.919 70.649 -87.3555 -96.3061 70.3558 -87.841 -95.7702 69.9857 
-88.0101 -94.957 69.3855 -87.5617 -93.9828 69.0073 -86.9298 -93.1179 69.0705 
-86.6268 -92.3131 68.9668 -86.5865 -91.654 68.4209 -86.4627 -91.3112 67.8478 
-81.4507 -103.621 71.1335 -81.5287 -103.242 71.6364 -81.7686 -103.006 72.2242 
-82.0212 -102.712 72.8688 -82.2284 -102.28 73.4983 -82.3767 -101.836 73.9942 
-82.4238 -101.377 74.3565 -82.4366 -100.859 74.7318 -82.5033 -100.379 75.1384 
-81.7422 -104.017 70.3001 -81.8186 -103.699 69.8414 -81.8905 -103.24 69.3103 
-82.1682 -102.85 68.7163 -82.5374 -102.497 68.1353 -82.7754 -102.03 67.684 
-82.9816 -101.504 67.3565 -83.2422 -101.009 67.0361 -83.4597 -100.563 66.6902 
-81.2664 -104.588 70.9489 -80.9114 -105.024 71.2998 -80.5835 -105.43 71.7348 
-80.194 -105.742 72.1761 -79.5688 -105.922 72.5356 -78.9729 -106.103 72.7827 
-78.7437 -106.375 73.0435 -78.6728 -106.6 73.4471 -78.4721 -106.632 73.8838 
-81.5298 -104.894 70.3968 -81.2727 -105.45 70.0428 -80.5814 -105.665 69.6301 
-79.7171 -105.911 69.1721 -79.1343 -106.509 68.7356 -78.7996 -107.165 68.3076 
-78.4383 -107.637 67.8126 -78.0163 -108.005 67.3474 -77.537 -108.145 67.0677 
-80.0036 -93.6331 70.7974 -79.4949 -94.2246 70.9066 -79.2669 -95.3784 71.0132 
-79.0776 -96.5629 70.9229 -78.7207 -97.4454 70.7692 -78.3465 -98.4811 70.7511 
-78.0156 -99.6726 70.7601 -77.5651 -100.564 70.7371 -77.0412 -101.21 70.7698 
-80.4243 -93.5239 71.306 -80.2619 -93.8513 71.9053 -80.1223 -94.2852 72.5565 
-79.9396 -94.728 73.0968 -79.8633 -95.2929 73.4857 -79.9083 -95.943 73.9084 
-79.8023 -96.3896 74.4734 -79.563 -96.7175 75.0339 -79.4713 -97.2558 75.422 
-80.5195 -93.4739 70.3478 -80.3909 -93.6881 69.8765 -80.2889 -94.0402 69.3725 
-80.0713 -94.3933 68.7934 -79.6863 -94.759 68.1752 -79.3504 -95.3465 67.6778 
-79.2242 -96.1075 67.4158 -79.2135 -96.797 67.2441 -79.1907 -97.3701 66.9701 
-81.0872 -93.0223 71.2069 -81.2861 -92.3605 71.61 -81.3929 -91.7045 72.0048 
-81.7032 -91.3476 72.4382 -82.2664 -91.1758 72.8647 -82.9709 -91.2417 73.1589 
-83.6772 -91.6538 73.2967 -84.1908 -92.1158 73.3347 -84.4926 -92.4739 73.3512 
-81.24 -93.0961 70.5989 -81.6783 -92.5402 70.2566 -81.9232 -91.8038 69.749 
-82.2998 -91.3432 69.2466 -83.0559 -91.1949 68.8711 -83.8669 -90.8656 68.4789 
-84.4779 -90.4271 67.9687 -85.0813 -90.4109 67.5241 -85.7011 -90.7929 67.3771 
-77.0037 -101.783 71.2312 -77.4003 -101.598 71.6273 -77.7664 -101.216 72.0526 
-78.0763 -100.655 72.5466 -78.3534 -100.11 73.1008 -78.6175 -99.6753 73.7237 
-78.8621 -99.2175 74.3896 -79.0507 -98.6796 74.9845 -79.2489 -98.2324 75.404 
-76.5641 -101.486 70.4209 -76.5015 -101.029 70.0758 -76.5308 -100.676 69.6689 
-76.6238 -100.354 69.0312 -76.8519 -99.9482 68.2985 -77.3468 -99.6041 67.86 
-78.0162 -99.3587 67.6945 -78.5787 -98.9888 67.4334 -78.9071 -98.4487 67.0128 
-76.6268 -102.553 71.1263 -76.5586 -103.153 71.4557 -76.4733 -103.833 71.8378 
-76.4847 -104.629 72.2892 -76.668 -105.276 72.6409 -76.9242 -105.748 72.8817 
-77.1514 -106.212 73.2256 -77.4074 -106.528 73.6329 -77.7738 -106.578 73.9435 
-76.5153 -102.595 70.4981 -76.4992 -103.476 70.1026 -76.2848 -104.143 69.8292 
-75.8798 -104.643 69.635 -75.7155 -105.516 69.2049 -75.7763 -106.544 68.5257 
-75.8046 -107.111 67.9179 -75.9664 -107.384 67.4922 -76.4126 -107.692 67.1748 
-82.2961 -99.8746 75.7114 -82.0387 -99.7984 76.0847 -81.8168 -99.7303 76.7541 
-81.5489 -99.6224 77.5087 -81.1816 -99.4714 77.685 -80.8268 -99.3123 77.1133 
-80.5872 -99.1423 76.414 -80.334 -98.8645 76.0163 -79.9598 -98.4424 75.8191 
-82.0102 -100.44 75.5157 -81.6657 -101.218 75.761 -81.4011 -102.052 76.0905 
-80.8092 -102.527 76.092 -80.0399 -102.942 75.7605 -79.5936 -103.834 75.6562 
-79.3572 -104.887 75.7497 -79.0131 -105.584 75.4558 -78.6063 -106.023 74.7707 
-83.0674 -99.5772 75.5509 -83.4588 -98.8985 75.5338 -83.8778 -97.9452 75.5813 
-84.4195 -97.1173 75.7363 -84.7085 -96.4872 75.5541 -84.5947 -95.6405 74.9959 
-84.5413 -94.6583 74.594 -84.6762 -93.9391 74.3253 -84.7439 -93.4192 73.8865 
-79.489 -98.8874 75.6989 -79.3156 -99.6874 75.8128 -79.0442 -100.394 75.9547 
-78.8861 -101.23 75.9137 -78.8083 -102.226 75.6288 -78.5734 -103.263 75.3623 
-78.3156 -104.297 75.2295 -78.2316 -105.207 75.0238 -78.2212 -105.907 74.6295 
-79.9911 -97.429 75.6581 -80.619 -96.9284 75.5814 -81.2878 -96.3812 75.4457 
-81.7784 -95.589 75.4366 -82.1571 -94.5871 75.5994 -82.7189 -93.7464 75.5969 
-83.4627 -93.3278 75.2194 -84.0682 -93.1846 74.6291 -84.4284 -93.0601 73.9938 
-83.3277 -100.025 66.1095 -82.9637 -99.8177 65.9858 -82.4942 -99.4905 66.0512 
-81.9332 -99.065 66.0938 -81.3365 -98.6859 65.9872 -80.6993 -98.4249 65.9084 
-80.0421 -98.22 65.9402 -79.5327 -98.0558 66.0409 -79.2616 -97.9584 66.2691 
-82.8595 -100.605 66.4198 -81.9818 -101.207 66.5629 -81.2425 -102.01 66.6662 
-80.6377 -102.878 66.6866 -79.9326 -103.75 66.7454 -79.1525 -104.734 66.8376 
-78.458 -105.826 66.8169 -77.8685 -106.814 66.7335 -77.3772 -107.509 66.7713 
-84.077 -99.6165 66.2969 -84.5442 -98.7919 66.3334 -84.9588 -97.7142 66.5005 
-85.1717 -96.7931 66.8632 -85.2402 -96.1833 67.3621 -85.3705 -95.3149 67.7801 
-85.5476 -93.9595 68.0238 -85.7284 -92.677 68.0627 -85.9459 -91.8047 67.8526 
-78.9239 -98.8517 66.5777 -78.6677 -99.8959 66.7113 -78.2186 -100.857 66.8718 
-77.5975 -101.739 66.8398 -77.0747 -102.805 66.7813 -76.7377 -104.115 66.8389 
-76.4748 -105.357 66.8079 -76.4028 -106.365 66.7241 -76.6286 -107.215 66.7899 
-79.5292 -97.1497 66.5777 -80.2101 -96.551 66.6354 -81.0472 -96.029 66.8065 
-81.8616 -95.4101 67.1023 -82.6728 -94.6587 67.3378 -83.4994 -93.8507 67.3908 
-84.251 -93.0333 67.4622 -84.9168 -92.2504 67.5852 -85.5411 -91.6056 67.5874 
-77.8826 -107.186 73.7234 -77.5074 -107.94 73.4627 -77.2057 -108.518 72.997 
-77.0697 -108.823 72.1437 -77.0037 -108.833 71.0743 -76.9062 -108.719 69.8386 
-76.8592 -108.715 68.6083 -76.9142 -108.68 67.7562 -76.9739 -108.387 67.2867 
-84.9553 -92.2929 72.9158 -85.2723 -91.7576 72.5597 -85.5376 -91.6011 71.9943 
-85.6323 -91.6085 71.0565 -85.6374 -91.3149 70.2285 -85.8029 -90.8695 69.6616 
-86.1829 -90.636 68.8804 -86.4703 -90.6276 67.9851 -86.4128 -90.8066 67.5197 
-86.9263 -98.9371 71.8527 -86.6198 -99.095 72.4146 -86.0803 -99.1573 71.613 
-85.8857 -99.0704 72.68 -85.6236 -99.3397 72.1209 -85.1171 -99.4637 71.3409 
-85.0225 -99.1079 72.9179 -84.966 -99.5985 72.5101 -84.81 -100.005 71.9193 
-84.7905 -100.542 71.3321 -84.5253 -99.4259 73.5001 -84.3611 -99.869 72.9191 
-84.428 -100.503 72.4375 -84.5656 -101.136 71.9501 -84.6303 -101.653 71.412 
-84.2971 -99.8958 74.1969 -84.0013 -100.177 73.4742 -84.0253 -100.764 72.9441 
-84.1638 -101.43 72.5468 -84.0921 -101.857 72.0294 -83.7737 -102.053 71.3858 
-83.8645 -100.214 74.6422 -83.6077 -100.486 74.0072 -83.5675 -100.97 73.5107 
-83.658 -101.601 73.1479 -83.4915 -102.016 72.6569 -83.0572 -102.162 71.978 
-82.5938 -102.284 71.3048 -83.1718 -100.312 74.8967 -83.0105 -100.688 74.387 
-82.9645 -101.166 73.983 -83.0089 -101.737 73.6552 -82.8931 -102.23 73.173 
-82.5286 -102.476 72.4997 -82.0941 -102.596 71.8004 -81.8088 -102.845 71.2141 
-87.023 -97.3022 71.9606 -86.9479 -96.4645 72.2024 -86.8677 -97.6429 72.67 
-87.0847 -95.8818 72.6525 -86.7233 -96.8726 72.9242 -86.2782 -97.759 72.9311 
-87.0385 -95.2304 73.0943 -86.7322 -96.3172 73.3269 -86.137 -97.1639 73.2171 
-85.558 -97.8708 73.1007 -86.6003 -94.4704 73.2312 -86.4817 -95.5938 73.578 
-86.085 -96.688 73.6551 -85.5207 -97.4456 73.5978 -85.1161 -98.2514 73.8008 
-86.0843 -94.0977 73.2122 -85.9414 -94.869 73.588 -85.8172 -96.0263 73.9203 
-85.4903 -96.9892 74.1461 -85.0746 -97.7865 74.3509 -84.843 -98.7841 74.6655 
-85.587 -94.0021 73.3175 -85.3941 -94.5203 73.6816 -85.3616 -95.42 74.0682 
-85.3671 -96.4545 74.5327 -85.0262 -97.2394 74.8091 -84.6331 -98.1662 74.972 
-84.4074 -99.2177 75.1553 -85.1022 -93.7579 73.5773 -84.9502 -94.2858 73.9728 
-84.8764 -95.026 74.3012 -85.0471 -96.0135 74.8141 -84.9833 -96.7996 75.2455 
-84.4933 -97.5416 75.2907 -84.0728 -98.5587 75.3012 -83.7611 -99.4581 75.3822 
-84.4886 -93.4674 74.5533 -84.1316 -93.5994 75.1753 -84.4017 -94.0971 74.8937 
-83.4591 -93.9592 75.6733 -83.9827 -94.4894 75.3986 -84.2423 -95.117 75.1187 
-82.6684 -94.6164 75.888 -83.2765 -95.0275 75.8045 -83.7743 -95.6501 75.6146 
-84.2355 -96.1519 75.6107 -82.0868 -95.4934 75.8127 -82.5066 -95.6412 75.9933 
-83.0968 -96.1327 75.9802 -83.6665 -96.5944 76.0373 -84.1357 -96.8717 76.0361 
-81.6188 -96.3898 75.7608 -81.8505 -96.4145 76.0779 -82.3074 -96.7409 76.2652 
-82.9282 -97.1678 76.3328 -83.4055 -97.4132 76.272 -83.6884 -97.6228 75.9799 
-81.0573 -97.1757 75.8195 -81.2857 -97.3221 76.1524 -81.5356 -97.5672 76.5498 
-82.0536 -97.9477 76.7885 -82.5896 -98.1937 76.6557 -82.928 -98.3321 76.2397 
[...]
POINT_DATA 1002
FIELD FieldData 2
Theta 1 1002 float
2.58802 2.58802 0.553574 0.553574 2.12437 1.01722 2.12437 1.01722 1.5708 
1.5708 1.5708 1.5708 2.68241 2.78649 2.89924 3.01861 3.14159 3.01861 
2.89924 2.78649 2.68241 2.61035 2.61791 2.60515 2.56958 2.51327 2.44184 
2.36202 2.27983 2.1997 2.61035 2.61791 2.60515 2.56958 2.51327 2.44184 
2.36202 2.27983 2.1997 2.50947 2.41899 2.31794 2.20864 2.0944 1.97902 
1.86631 1.75944 1.66056 2.50947 2.41899 2.31794 2.20864 2.0944 1.97902 
1.86631 1.75944 1.66056 2.61035 2.61791 2.60515 2.56958 2.51327 2.44184 
2.36202 2.27983 2.1997 2.61035 2.61791 2.60515 2.56958 2.51327 2.44184 
2.36202 2.27983 2.1997 2.50947 2.41899 2.31794 2.20864 2.0944 1.97902 
1.86631 1.75944 1.66056 2.50947 2.41899 2.31794 2.20864 2.0944 1.97902 
1.86631 1.75944 1.66056 0.459179 0.355101 0.242354 0.122983 0 0.122983 
0.242354 0.355101 0.459179 0.531246 0.523681 0.536438 0.57201 0.628319 0.699757 
0.779574 0.86176 0.941896 0.531246 0.523681 0.536438 0.57201 0.628319 0.699757 
0.779574 0.86176 0.941896 0.632123 0.7226 0.823657 0.932948 1.0472 1.16257 
1.27528 1.38216 1.48103 0.632123 0.7226 0.823657 0.932948 1.0472 1.16257 
1.27528 1.38216 1.48103 0.531246 0.523681 0.536438 0.57201 0.628319 0.699757 
0.779574 0.86176 0.941896 0.531246 0.523681 0.536438 0.57201 0.628319 0.699757 
0.779574 0.86176 0.941896 0.632123 0.7226 0.823657 0.932948 1.0472 1.16257 
1.27528 1.38216 1.48103 0.632123 0.7226 0.823657 0.932948 1.0472 1.16257 
1.27528 1.38216 1.48103 2.02998 1.9259 1.81315 1.69378 1.5708 1.44781 
1.32844 1.2157 1.11162 2.0928 2.05283 2.00422 1.94767 1.88496 1.81867 
1.75177 1.68695 1.62623 2.0928 2.05283 2.00422 1.94767 1.88496 1.81867 
1.75177 1.68695 1.62623 1.0488 1.08876 1.13737 1.19392 1.25664 1.32292 
1.38982 1.45464 1.51537 1.0488 1.08876 1.13737 1.19392 1.25664 1.32292 
1.38982 1.45464 1.51537 2.02998 1.9259 1.81315 1.69378 1.5708 1.44781 
1.32844 1.2157 1.11162 2.0928 2.05283 2.00422 1.94767 1.88496 1.81867 
1.75177 1.68695 1.62623 2.0928 2.05283 2.00422 1.94767 1.88496 1.81867 
1.75177 1.68695 1.62623 1.0488 1.08876 1.13737 1.19392 1.25664 1.32292 
1.38982 1.45464 1.51537 1.0488 1.08876 1.13737 1.19392 1.25664 1.32292 
1.38982 1.45464 1.51537 1.5708 1.5708 1.5708 1.5708 1.5708 1.5708 
1.5708 1.5708 1.5708 1.5708 1.5708 1.5708 1.5708 1.5708 1.5708 
1.5708 1.5708 1.5708 2.70908 2.71362 2.81592 2.68886 2.81002 2.92597 
2.6349 2.76254 2.89233 3.01997 2.55881 2.68262 2.80854 2.92834 3.01997 
2.47007 2.58462 2.70048 2.80854 2.89233 2.92597 2.37702 2.48017 2.58462 
2.68262 2.76254 2.81002 2.81592 2.28567 2.37702 2.47007 2.55881 2.6349 
2.68886 2.71362 2.70908 2.52097 2.4195 2.51718 2.30791 2.40503 2.49426 
2.18928 2.28408 2.3734 2.45144 2.06758 2.15805 2.24572 2.32523 2.39165 
1.94707 2.03138 2.11543 2.19453 2.26401 2.32035 1.83164 1.90847 1.98711 
2.06376 2.13422 2.1949 2.24359 1.72413 1.79288 1.86489 1.93728 2.00658 
2.06938 2.12312 2.16654 1.5708 1.50988 1.63171 1.44492 1.5708 1.69667 
1.37826 1.5059 1.63569 1.76333 1.31281 1.43962 1.5708 1.70197 1.82878 
1.25155 1.37501 1.50478 1.63681 1.76659 1.89004 1.19686 1.31493 1.44074 
1.5708 1.70086 1.82666 1.94473 1.15011 1.26149 1.38136 1.50697 1.63462 
1.76024 1.88011 1.99148 1.99148 1.88011 1.94473 1.76024 1.82666 1.89004 
1.63462 1.70086 1.76659 1.82878 1.50697 1.5708 1.63681 1.70197 1.76333 
1.38136 1.44074 1.50478 1.5708 1.63569 1.69667 1.26149 1.31493 1.37501 
1.43962 1.5059 1.5708 1.63171 1.15011 1.19686 1.25155 1.31281 1.37826 
1.44492 1.50988 1.5708 2.16654 2.12312 2.24359 2.06938 2.1949 2.32035 
2.00658 2.13422 2.26401 2.39165 1.93728 2.06376 2.19453 2.32523 2.45144 
1.86489 1.98711 2.11543 2.24572 2.3734 2.49426 1.79288 1.90847 2.03138 
2.15805 2.28408 2.40503 2.51718 1.72413 1.83164 1.94707 2.06758 2.18928 
2.30791 2.4195 2.52097 1.66533 1.66946 1.76911 1.67254 1.777 1.88041 
1.67418 1.78222 1.89102 1.99634 1.67418 1.78405 1.89674 2.00785 2.11299 
1.67254 1.78222 1.89674 2.01191 2.12307 2.22608 1.66946 1.777 1.89102 
2.00785 2.12307 2.23222 2.33166 1.66533 1.76911 1.88041 1.99634 2.11299 
2.22608 2.33166 2.42672 1.47626 1.37249 1.47213 1.26118 1.36459 1.46906 
1.14526 1.25058 1.35938 1.46741 1.0286 1.13374 1.24485 1.35755 1.46741 
0.915514 1.01852 1.12969 1.24485 1.35938 1.46906 0.809937 0.909371 1.01852 
1.13374 1.25058 1.36459 1.47213 0.714871 0.809937 0.915514 1.0286 1.14526 
1.26118 1.37249 1.47626 0.975055 0.898002 1.01847 0.821245 0.946693 1.07221 
0.749941 0.877585 1.00737 1.13501 0.690152 0.816367 0.94706 1.07784 1.20431 
0.647337 0.768195 0.895868 1.02616 1.15448 1.2767 0.624416 0.736561 0.857515 
0.983547 1.11021 1.23313 1.34871 0.620619 0.722093 0.833684 0.952313 1.07402 
1.19452 1.30996 1.41746 0.855925 0.764569 0.764569 0.671524 0.661425 0.671524 
0.582786 0.556971 0.556971 0.582786 0.506696 0.458968 0.441109 0.458968 0.506696 
0.45273 0.379052 0.333054 0.333054 0.379052 0.45273 0.427969 0.331576 0.249267 
0.21325 0.249267 0.331576 0.427969 0.432512 0.325669 0.215619 0.121622 0.121622 
0.215619 0.325669 0.432512 0.432512 0.427969 0.325669 0.45273 0.331576 0.215619 
0.506696 0.379052 0.249267 0.121622 0.582786 0.458968 0.333054 0.21325 0.121622 
0.671524 0.556971 0.441109 0.333054 0.249267 0.215619 0.764569 0.661425 0.556971 
0.458968 0.379052 0.331576 0.325669 0.855925 0.764569 0.671524 0.582786 0.506696 
0.45273 0.427969 0.432512 0.975055 1.01847 0.898002 1.07221 0.946693 0.821245 
1.13501 1.00737 0.877585 0.749941 1.20431 1.07784 0.94706 0.816367 0.690152 
1.2767 1.15448 1.02616 0.895868 0.768195 0.647337 1.34871 1.23313 1.11021 
0.983547 0.857515 0.736561 0.624416 1.41746 1.30996 1.19452 1.07402 0.952313 
0.833684 0.722093 0.620619 1.15011 1.26149 1.19686 1.38136 1.31493 1.25155 
1.50697 1.44074 1.37501 1.31281 1.63462 1.5708 1.50478 1.43962 1.37826 
1.76024 1.70086 1.63681 1.5708 1.5059 1.44492 1.88011 1.82666 1.76659 
1.70197 1.63569 1.5708 1.50988 1.99148 1.94473 1.89004 1.82878 1.76333 
1.69667 1.63171 1.5708 1.15011 1.19686 1.26149 1.25155 1.31493 1.38136 
1.31281 1.37501 1.44074 1.50697 1.37826 1.43962 1.50478 1.5708 1.63462 
1.44492 1.5059 1.5708 1.63681 1.70086 1.76024 1.50988 1.5708 1.63569 
1.70197 1.76659 1.82666 1.88011 1.5708 1.63171 1.69667 1.76333 1.82878 
1.89004 1.94473 1.99148 1.72413 1.83164 1.79288 1.94707 1.90847 1.86489 
2.06758 2.03138 1.98711 1.93728 2.18928 2.15805 2.11543 2.06376 2.00658 
2.30791 2.28408 2.24572 2.19453 2.13422 2.06938 2.4195 2.40503 2.3734 
2.32523 2.26401 2.1949 2.12312 2.52097 2.51718 2.49426 2.45144 2.39165 
2.32035 2.24359 2.16654 2.70908 2.81592 2.71362 2.92597 2.81002 2.68886 
3.01997 2.89233 2.76254 2.6349 3.01997 2.92834 2.80854 2.68262 2.55881 
2.92597 2.89233 2.80854 2.70048 2.58462 2.47007 2.81592 2.81002 2.76254 
2.68262 2.58462 2.48017 2.37702 2.70908 2.71362 2.68886 2.6349 2.55881 
2.47007 2.37702 2.28567 2.16654 2.24359 2.12312 2.32035 2.1949 2.06938 
2.39165 2.26401 2.13422 2.00658 2.45144 2.32523 2.19453 2.06376 1.93728 
2.49426 2.3734 2.24572 2.11543 1.98711 1.86489 2.51718 2.40503 2.28408 
2.15805 2.03138 1.90847 1.79288 2.52097 2.4195 2.30791 2.18928 2.06758 
1.94707 1.83164 1.72413 1.66533 1.76911 1.66946 1.88041 1.777 1.67254 
1.99634 1.89102 1.78222 1.67418 2.11299 2.00785 1.89674 1.78405 1.67418 
2.22608 2.12307 2.01191 1.89674 1.78222 1.67254 2.33166 2.23222 2.12307 
2.00785 1.89102 1.777 1.66946 2.42672 2.33166 2.22608 2.11299 1.99634 
1.88041 1.76911 1.66533 1.47626 1.47213 1.37249 1.46906 1.36459 1.26118 
1.46741 1.35938 1.25058 1.14526 1.46741 1.35755 1.24485 1.13374 1.0286 
1.46906 1.35938 1.24485 1.12969 1.01852 0.915514 1.47213 1.36459 1.25058 
1.13374 1.01852 0.909371 0.809937 1.47626 1.37249 1.26118 1.14526 1.0286 
0.915514 0.809937 0.714871 1.41746 1.30996 1.34871 1.19452 1.23313 1.2767 
1.07402 1.11021 1.15448 1.20431 0.952313 0.983547 1.02616 1.07784 1.13501 
0.833684 0.857515 0.895868 0.94706 1.00737 1.07221 0.722093 0.736561 0.768195 
0.816367 0.877585 0.946693 1.01847 0.620619 0.624416 0.647337 0.690152 0.749941 
0.821245 0.898002 0.975055 0.975055 0.898002 1.01847 0.821245 0.946693 1.07221 
0.749941 0.877585 1.00737 1.13501 0.690152 0.816367 0.94706 1.07784 1.20431 
0.647337 0.768195 0.895868 1.02616 1.15448 1.2767 0.624416 0.736561 0.857515 
0.983547 1.11021 1.23313 1.34871 0.620619 0.722093 0.833684 0.952313 1.07402 
1.19452 1.30996 1.41746 
Phi 1 1002 float
6.28319 3.14159 6.28319 3.14159 4.71239 4.71239 1.5708 1.5708 3.69517 
5.72961 2.58802 0.553574 6.28319 6.28319 6.28319 6.28319 3.14159 3.14159 
3.14159 3.14159 3.14159 6.1053 5.8988 5.67687 5.45995 5.26596 5.10322 
4.97131 4.86569 4.78095 0.177881 0.384387 0.606312 0.823235 1.01722 1.17997 
1.31187 1.4175 1.50223 6.18928 6.10703 6.03531 5.97283 5.91832 5.87061 
5.82869 5.79168 5.75886 0.0939024 0.176153 0.247873 0.310351 0.364864 0.412573 
0.454497 0.491504 0.524326 3.31947 3.52598 3.7479 3.96483 4.15881 4.32156 
4.45346 4.55909 4.64383 2.96371 2.75721 2.53528 2.31836 2.12437 1.96162 
1.82972 1.72409 1.63936 3.2355 3.31775 3.38947 3.45194 3.50646 3.55417 
3.59609 3.6331 3.66592 3.04769 2.96544 2.89372 2.83124 2.77673 2.72902 
2.6871 2.65009 2.61727 6.28319 6.28319 6.28319 6.28319 3.14159 3.14159 
3.14159 3.14159 3.14159 6.1053 5.8988 5.67687 5.45995 5.26596 5.10322 
4.97131 4.86569 4.78095 0.177881 0.384387 0.606312 0.823235 1.01722 1.17997 
1.31187 1.4175 1.50223 6.18928 6.10703 6.03531 5.97283 5.91832 5.87061 
5.82869 5.79168 5.75886 0.0939024 0.176153 0.247873 0.310351 0.364864 0.412573 
0.454497 0.491504 0.524326 3.31947 3.52598 3.7479 3.96483 4.15881 4.32156 
4.45346 4.55909 4.64383 2.96371 2.75721 2.53528 2.31836 2.12437 1.96162 
1.82972 1.72409 1.63936 3.2355 3.31775 3.38947 3.45194 3.50646 3.55417 
3.59609 3.6331 3.66592 3.04769 2.96544 2.89372 2.83124 2.77673 2.72902 
2.6871 2.65009 2.61727 4.71239 4.71239 4.71239 4.71239 4.71239 4.71239 
4.71239 4.71239 4.71239 4.60879 4.49914 4.3857 4.27128 4.15881 4.05096 
3.94976 3.85646 3.77161 4.81599 4.92564 5.03907 5.1535 5.26596 5.37381 
5.47502 5.56831 5.65317 4.60879 4.49914 4.3857 4.27128 4.15881 4.05096 
3.94976 3.85646 3.77161 4.81599 4.92564 5.03907 5.1535 5.26596 5.37381 
5.47502 5.56831 5.65317 1.5708 1.5708 1.5708 1.5708 1.5708 1.5708 
1.5708 1.5708 1.5708 1.6744 1.78405 1.89748 2.01191 2.12437 2.23222 
2.33343 2.42672 2.51157 1.4672 1.35755 1.24411 1.12969 1.01722 0.909371 
0.808166 0.714871 0.63002 1.6744 1.78405 1.89748 2.01191 2.12437 2.23222 
2.33343 2.42672 2.51157 1.4672 1.35755 1.24411 1.12969 1.01722 0.909371 
0.808166 0.714871 0.63002 3.60077 3.49669 3.38395 3.26458 3.14159 3.01861 
2.89924 2.78649 2.68241 5.82401 5.92808 6.04083 6.1602 6.28319 0.122983 
0.242354 0.355101 0.459179 6.05603 5.78856 5.97021 5.51259 5.60297 5.78856 
5.26596 5.26596 5.26596 5.26596 5.06749 5.0121 4.91556 4.71239 4.15881 
4.91556 4.83537 4.71239 4.50922 4.15881 3.63622 4.80045 4.71239 4.58941 
4.41268 4.15881 3.82181 3.45456 4.71239 4.62433 4.50922 4.35729 4.15881 
3.91219 3.63622 3.36875 6.01742 5.94343 5.82633 5.88092 5.76745 5.62798 
5.8278 5.71897 5.58911 5.43724 5.78235 5.67854 5.55757 5.41926 5.26596 
5.74316 5.64441 5.5315 5.40467 5.26596 5.11955 5.70914 5.61528 5.50962 
5.3926 5.26596 5.13292 4.99789 5.67937 5.59016 5.49102 5.38246 5.26596 
5.14407 5.02016 4.89798 5.56831 5.47502 5.47502 5.37381 5.37381 5.37381 
5.26596 5.26596 5.26596 5.26596 5.1535 5.1535 5.1535 5.1535 5.1535 
5.03907 5.03907 5.03907 5.03907 5.03907 5.03907 4.92564 4.92564 4.92564 
4.92564 4.92564 4.92564 4.92564 4.81599 4.81599 4.81599 4.81599 4.81599 
4.81599 4.81599 4.81599 4.60879 4.60879 4.49914 4.60879 4.49914 4.3857 
4.60879 4.49914 4.3857 4.27128 4.60879 4.49914 4.3857 4.27128 4.15881 
4.60879 4.49914 4.3857 4.27128 4.15881 4.05096 4.60879 4.49914 4.3857 
4.27128 4.15881 4.05096 3.94976 4.60879 4.49914 4.3857 4.27128 4.15881 
4.05096 3.94976 3.85646 4.5268 4.40462 4.42689 4.28071 4.29185 4.30523 
4.15881 4.15881 4.15881 4.15881 4.04232 4.03217 4.02011 4.00552 3.98753 
3.93376 3.91515 3.89328 3.86721 3.83566 3.7968 3.83461 3.8095 3.78037 
3.74624 3.70581 3.65733 3.59845 3.7454 3.71564 3.68161 3.64243 3.59698 
3.54386 3.48135 3.40735 3.56428 3.45246 3.52338 3.33203 3.40312 3.47739 
3.20576 3.27463 3.34802 3.42551 3.07742 3.14159 3.21128 3.28647 3.36688 
2.95116 3.00855 3.0719 3.14159 3.21784 3.3006 2.83072 2.88006 2.93517 
2.99672 3.06535 3.14159 3.22575 2.7189 2.7598 2.8058 2.85768 2.9163 
2.98259 3.05743 3.14159 3.56428 3.52338 3.45246 3.47739 3.40312 3.33203 
3.42551 3.34802 3.27463 3.20576 3.36688 3.28647 3.21128 3.14159 3.07742 
3.3006 3.21784 3.14159 3.0719 3.00855 2.95116 3.22575 3.14159 3.06535 
2.99672 2.93517 2.88006 2.83072 3.14159 3.05743 2.98259 2.9163 2.85768 
2.8058 2.7598 2.7189 4.5268 4.42689 4.40462 4.30523 4.29185 4.28071 
4.15881 4.15881 4.15881 4.15881 3.98753 4.00552 4.02011 4.03217 4.04232 
3.7968 3.83566 3.86721 3.89328 3.91515 3.93376 3.59845 3.65733 3.70581 
3.74624 3.78037 3.8095 3.83461 3.40735 3.48135 3.54386 3.59698 3.64243 
3.68161 3.71564 3.7454 4.71239 4.80045 4.62433 4.91556 4.71239 4.50922 
5.06749 4.83537 4.58941 4.35729 5.26596 5.0121 4.71239 4.41268 4.15881 
5.51259 5.26596 4.91556 4.50922 4.15881 3.91219 5.78856 5.60297 5.26596 
4.71239 4.15881 3.82181 3.63622 6.05603 5.97021 5.78856 5.26596 4.15881 
3.63622 3.45456 3.36875 0.227158 0.494626 0.312971 0.770593 0.680215 0.494626 
1.01722 1.01722 1.01722 1.01722 1.2157 1.27109 1.36763 1.5708 2.12437 
1.36763 1.44781 1.5708 1.77397 2.12437 2.64697 1.48273 1.5708 1.69378 
1.8705 2.12437 2.46138 2.82862 1.5708 1.65886 1.77397 1.9259 2.12437 
2.371 2.64697 2.91443 1.75639 1.87857 1.8563 2.00248 1.99133 1.97796 
2.12437 2.12437 2.12437 2.12437 2.24087 2.25101 2.26308 2.27767 2.29565 
2.34943 2.36803 2.38991 2.41597 2.44752 2.48639 2.44857 2.47368 2.50281 
2.53694 2.57738 2.62586 2.68474 2.53778 2.56754 2.60157 2.64076 2.68621 
2.73933 2.80184 2.87583 1.6744 1.6744 1.78405 1.6744 1.78405 1.89748 
1.6744 1.78405 1.89748 2.01191 1.6744 1.78405 1.89748 2.01191 2.12437 
1.6744 1.78405 1.89748 2.01191 2.12437 2.23222 1.6744 1.78405 1.89748 
2.01191 2.12437 2.23222 2.33343 1.6744 1.78405 1.89748 2.01191 2.12437 
2.23222 2.33343 2.42672 1.4672 1.35755 1.4672 1.24411 1.35755 1.4672 
1.12969 1.24411 1.35755 1.4672 1.01722 1.12969 1.24411 1.35755 1.4672 
0.909371 1.01722 1.12969 1.24411 1.35755 1.4672 0.808166 0.909371 1.01722 
1.12969 1.24411 1.35755 1.4672 0.714871 0.808166 0.909371 1.01722 1.12969 
1.24411 1.35755 1.4672 0.603812 0.57405 0.693022 0.540021 0.667908 0.792164 
0.500837 0.638778 0.773562 0.900726 0.455383 0.604649 0.751687 0.890581 1.01722 
0.402264 0.564217 0.725619 0.878514 1.01722 1.13912 0.339753 0.515737 0.694072 
0.863926 1.01722 1.15026 1.26302 0.265762 0.456853 0.655207 0.845941 1.01722 
1.16363 1.28529 1.38521 0.227158 0.312971 0.494626 0.494626 0.680215 0.770593 
1.01722 1.01722 1.01722 1.01722 2.12437 1.5708 1.36763 1.27109 1.2157 
2.64697 2.12437 1.77397 1.5708 1.44781 1.36763 2.82862 2.46138 2.12437 
1.8705 1.69378 1.5708 1.48273 2.91443 2.64697 2.371 2.12437 1.9259 
1.77397 1.65886 1.5708 1.75639 1.8563 1.87857 1.97796 1.99133 2.00248 
2.12437 2.12437 2.12437 2.12437 2.29565 2.27767 2.26308 2.25101 2.24087 
2.48639 2.44752 2.41597 2.38991 2.36803 2.34943 2.68474 2.62586 2.57738 
2.53694 2.50281 2.47368 2.44857 2.87583 2.80184 2.73933 2.68621 2.64076 
2.60157 2.56754 2.53778 5.86049 5.90139 5.97231 5.94739 6.02165 6.09275 
5.99927 6.07676 6.15015 6.21902 6.0579 6.13831 6.2135 0 0.0641696 
6.12418 6.20694 6.28319 0.069689 0.13304 0.190437 6.19903 0 0.0762451 
0.144876 0.206423 0.261531 0.310872 0 0.0841597 0.159004 0.225289 0.283913 
0.335793 0.381792 0.422692 5.86049 5.97231 5.90139 6.09275 6.02165 5.94739 
6.21902 6.15015 6.07676 5.99927 0.0641696 0 6.2135 6.13831 6.0579 
0.190437 0.13304 0.069689 6.28319 6.20694 6.12418 0.310872 0.261531 0.206423 
0.144876 0.0762451 6.28319 6.19903 0.422692 0.381792 0.335793 0.283913 0.225289 
0.159004 0.0841597 0 5.67937 5.70914 5.59016 5.74316 5.61528 5.49102 
5.78235 5.64441 5.50962 5.38246 5.8278 5.67854 5.5315 5.3926 5.26596 
5.88092 5.71897 5.55757 5.40467 5.26596 5.14407 5.94343 5.76745 5.58911 
5.41926 5.26596 5.13292 5.02016 6.01742 5.82633 5.62798 5.43724 5.26596 
5.11955 4.99789 4.89798 1.38521 1.28529 1.26302 1.16363 1.15026 1.13912 
1.01722 1.01722 1.01722 1.01722 0.845941 0.863926 0.878514 0.890581 0.900726 
0.655207 0.694072 0.725619 0.751687 0.773562 0.792164 0.456853 0.515737 0.564217 
0.604649 0.638778 0.667908 0.693022 0.265762 0.339753 0.402264 0.455383 0.500837 
0.540021 0.57405 0.603812 
