# vtk DataFile Version 4.0
vtk output
ASCII
DATASET POLYDATA
POINTS 1002 float
-88.1169 -98.5825 72.1716 -83.6395 -104.829 70.438 -81.9111 -94.3742 71.765 
-78.3617 -102.628 70.3099 -83.8188 -101.535 76.2212 -81.3408 -99.9138 75.5752 
-85.3516 -100.451 66.3648 -81.3052 -98.3634 66.9305 -79.3924 -108.278 72.7991 
-85.6546 -93.5599 75.6595 -79.374 -106.523 66.5327 -87.1784 -91.7668 68.8698 
-88.0335 -99.2446 72.235 -87.564 -99.742 72.0761 -87.0784 -100.393 71.7745 
-86.929 -101.353 71.5671 -86.6364 -102.099 71.3794 -85.7584 -102.378 71.0689 
-84.8513 -102.774 70.8195 -84.3835 -103.555 70.7321 -84.0775 -104.331 70.639 
-87.7778 -98.8024 72.525 -87.4498 -99.0491 73.0374 -87.0572 -99.2302 73.487 
-86.4811 -99.3821 73.7645 -85.8666 -99.6727 74.1053 -85.3985 -100.067 74.5793 
-85.0003 -100.438 75.0055 -84.5902 -100.833 75.4226 -84.1946 -101.24 75.8806 
-88.456 -98.8943 71.8903 -88.592 -99.2002 71.32 -88.4218 -99.3469 70.5517 
-88.0474 -99.3487 69.9018 -87.6751 -99.4962 69.3173 -87.4243 -99.8676 68.476 
-87.1973 -100.166 67.5904 -86.74 -100.287 67.0578 -86.029 -100.37 66.7529 
-87.7508 -97.8721 72.1863 -87.4417 -97.1236 72.3992 -87.3371 -96.492 72.9344 
-87.2218 -95.9982 73.4189 -87.0352 -95.4573 73.845 -87.0391 -94.7501 74.5982 
-87.0799 -94.1188 75.2853 -86.764 -93.7985 75.4365 -86.1814 -93.6677 75.4353 
-88.1923 -97.9034 72.0131 -88.2328 -97.0801 71.9333 -88.4356 -96.1892 71.6916 
-88.6522 -95.3407 71.2523 -88.4604 -94.6859 70.9306 -88.0013 -94.1183 70.6833 
-87.7972 -93.3711 70.12 -87.8086 -92.5715 69.3909 -87.6377 -92.0253 68.9542 
-83.788 -104.824 71.023 -83.8263 -104.628 71.5798 -83.6785 -104.159 72.0568 
-83.5124 -103.68 72.4894 -83.535 -103.395 73.1086 -83.7324 -103.122 73.9281 
-83.9527 -102.75 74.6509 -84.0575 -102.373 75.2265 -83.9931 -101.984 75.7686 
-83.8245 -104.587 69.9405 -84.084 -104.338 69.3773 -84.3821 -103.951 68.8616 
-84.5989 -103.356 68.4493 -84.7257 -102.697 68.1042 -84.8015 -102.027 67.8038 
-84.8204 -101.389 67.4885 -84.8875 -100.971 67.0805 -85.0986 -100.735 66.6537 
-83.1298 -105.169 70.5406 -82.4942 -105.491 70.6367 -81.8772 -105.889 70.7945 
-81.4221 -106.428 71.0146 -81.1855 -107.127 71.2995 -81.0607 -107.861 71.6837 
-80.8173 -108.345 72.0884 -80.3595 -108.466 72.4097 -79.8248 -108.401 72.6432 
-83.2025 -105.028 69.8689 -82.7525 -105.265 69.2917 -82.2778 -105.581 68.8397 
-81.7573 -105.9 68.4329 -81.3172 -106.228 67.9501 -80.9639 -106.58 67.5292 
-80.5529 -106.769 67.2427 -80.1261 -106.722 66.9469 -79.7507 -106.612 66.6601 
-81.7483 -95.2083 71.7787 -81.3612 -96.0337 71.8071 -80.5631 -96.5706 71.8275 
-79.7518 -96.9941 71.7808 -79.4381 -97.86 71.5832 -79.372 -99.1413 71.2404 
-79.1355 -100.248 70.8394 -78.8384 -101.064 70.4937 -78.604 -101.849 70.3194 
-81.9198 -94.7676 72.2178 -81.8798 -95.1674 72.7661 -81.8319 -95.6744 73.2788 
-81.7825 -96.3144 73.6857 -81.6289 -96.9199 74.1002 -81.4041 -97.4826 74.5608 
-81.2974 -98.1091 74.9639 -81.3158 -98.7357 75.2554 -81.3373 -99.3258 75.4475 
-81.8107 -94.5139 71.344 -81.769 -94.7971 70.8076 -81.7262 -95.191 70.1866 
-81.614 -95.7062 69.6475 -81.4386 -96.2752 69.1519 -81.2394 -96.6779 68.554 
-81.0804 -96.9559 67.9555 -81.048 -97.3673 67.4842 -81.1492 -97.8942 67.1458 
-82.1765 -93.9637 72.0523 -82.6077 -93.7018 72.4601 -83.1669 -93.5342 72.9319 
-83.7535 -93.468 73.3598 -84.1611 -93.3415 73.8497 -84.3748 -92.983 74.53 
-84.6338 -92.7253 75.1758 -84.9875 -92.8881 75.5225 -85.3306 -93.253 75.625 
-82.046 -93.693 71.5274 -82.4453 -93.2384 71.2634 -83.1464 -93.0826 70.9151 
-83.7777 -92.8024 70.4654 -84.0847 -92.0331 69.9254 -84.415 -91.1443 69.4291 
-85.0935 -90.7158 69.1679 -85.9293 -90.8196 69.0781 -86.6486 -91.2222 68.9765 
-78.511 -102.518 70.7584 -78.5465 -102.257 71.3893 -78.6655 -101.921 72.0776 
-79.0127 -101.646 72.6287 -79.3759 -101.324 73.1669 -79.612 -100.842 73.8808 
-79.9234 -100.447 74.5466 -80.4088 -100.288 74.9482 -80.9222 -100.156 75.2323 
-78.1866 -102.102 69.9378 -77.9084 -101.429 69.5802 -77.9783 -100.957 69.1858 
-78.4968 -100.805 68.7411 -78.9044 -100.489 68.2111 -79.0833 -99.8007 67.6542 
-79.5472 -99.2334 67.3269 -80.2907 -98.9776 67.2598 -80.9042 -98.7297 67.1703 
-78.1385 -103.288 70.6096 -77.8524 -103.952 70.9248 -77.8322 -104.877 71.1426 
-78.1519 -105.892 71.1744 -78.4933 -106.494 71.0895 -78.6659 -106.962 71.2025 
-78.7396 -107.771 71.6976 -78.8043 -108.441 72.2898 -78.9909 -108.517 72.6519 
-78.1143 -103.181 70.0597 -78.0653 -103.955 69.6101 -78.0969 -104.949 69.0012 
-77.8119 -105.833 68.5173 -77.2847 -106.331 68.1264 -77.1157 -106.645 67.6016 
-77.4932 -106.934 67.1424 -78.1097 -106.999 66.9186 -78.7549 -106.796 66.7414 
-83.4266 -101.342 76.524 -83.0591 -101.209 76.7654 -82.8071 -101.336 77.227 
-82.4787 -101.547 77.8991 -81.9901 -101.383 78.1978 -81.7054 -100.855 77.8006 
-81.7445 -100.421 77.0807 -81.7565 -100.226 76.4279 -81.58 -100.088 75.9335 
-83.5601 -102.035 76.1197 -83.1428 -102.53 75.7918 -82.5243 -103.158 75.3892 
-81.9858 -104.026 75.148 -81.5948 -104.978 75.0368 -81.1587 -105.823 74.7975 
-80.7458 -106.536 74.2918 -80.3728 -107.136 73.6509 -79.8964 -107.698 73.1277 
-83.9271 -100.896 76.4042 -84.2086 -100.257 76.5476 -84.5277 -99.6312 76.7299 
-84.7296 -98.8967 76.8607 -84.908 -98.0521 76.7344 -85.1544 -97.1566 76.3767 
-85.3955 -96.0673 76.0937 -85.5807 -94.8816 76.0248 -85.6779 -94.0156 75.9442 
-81.0753 -100.678 75.4679 -80.6549 -101.373 75.4643 -80.0562 -101.998 75.59 
-79.5348 -102.862 75.6279 -79.4099 -104.093 75.2948 -79.5054 -105.243 74.6619 
-79.4816 -106.052 74.0091 -79.3826 -106.809 73.4759 -79.3508 -107.624 73.0899 
-81.6686 -99.2376 75.9303 -81.9907 -98.5839 76.2947 -82.299 -97.925 76.6424 
-82.5241 -97.1409 76.9047 -82.8689 -96.4428 76.7887 -83.5654 -95.9374 76.4125 
-84.3374 -95.2533 76.3285 -84.8711 -94.3886 76.4188 -85.261 -93.7856 76.1822 
-85.1496 -100.211 65.9284 -84.9699 -99.9129 65.4924 -84.7078 -99.7054 65.2829 
-84.2106 -99.6024 65.407 -83.5218 -99.451 65.6127 -82.9016 -99.1484 65.7622 
-82.4509 -98.7724 66.0049 -82.0468 -98.4917 66.3369 -81.6479 -98.3826 66.6476 
-84.7424 -100.756 65.9388 -84.3753 -101.175 65.4964 -84.0624 -101.742 65.3032 
-83.4356 -102.229 65.5408 -82.4801 -102.496 66.1011 -81.5951 -103.055 66.4796 
-81.0009 -104.209 66.3366 -80.5141 -105.345 66.0874 -79.9587 -106.032 66.1964 
-85.9058 -99.9735 66.5333 -86.3531 -99.2366 66.7849 -86.762 -98.2615 66.9134 
-87.1563 -97.3098 66.9536 -87.2585 -96.6408 67.3988 -87.091 -96.1126 68.2994 
-87.0591 -95.2877 68.9603 -87.202 -94.0554 69.0415 -87.2694 -92.7666 68.8879 
-81.1877 -99.0296 66.9153 -80.904 -99.7204 66.7839 -80.548 -100.471 66.5743 
-80.2259 -101.284 66.3847 -79.8078 -102.143 66.1434 -79.3111 -103.112 65.9029 
-79.0599 -104.225 65.915 -79.1353 -105.28 66.1258 -79.2954 -106.037 66.3281 
-81.5837 -97.6882 66.751 -82.0731 -97.068 66.7782 -82.7907 -96.5819 67.191 
-83.5071 -96.127 67.8059 -84.2384 -95.623 68.3465 -85.0292 -95.0136 68.7553 
-85.6264 -94.1637 69.016 -86.0817 -93.1532 69.0552 -86.6338 -92.2897 68.9325 
-79.1879 -108.856 72.4055 -79.1112 -109.203 71.7565 -79.1112 -109.414 70.7524 
-78.9662 -109.545 69.5352 -78.6816 -109.518 68.4423 -78.5389 -109.338 67.7495 
-78.5973 -108.886 67.3955 -78.7595 -108.074 67.1463 -79.0346 -107.195 66.8675 
-85.7971 -93.2946 75.0158 -85.8504 -92.8662 74.3967 -86.0103 -92.2716 73.9579 
-86.4098 -91.831 73.443 -86.8197 -91.585 72.5652 -87.0365 -91.3318 71.5482 
-87.1658 -91.1143 70.6424 -87.2777 -91.0493 69.8057 -87.299 -91.2315 69.1479 
-87.6581 -99.428 72.7432 -87.3137 -99.643 73.2307 -87.3027 -100.03 72.6626 
-86.7855 -99.8371 73.4594 -87.0228 -100.379 73.0892 -87.0441 -100.916 72.3906 
-86.0665 -100.087 73.5982 -86.3633 -100.657 73.2305 -86.6959 -101.297 72.827 
-86.8343 -101.842 72.1624 -85.4779 -100.431 73.9721 -85.5827 -100.898 73.4102 
-85.8665 -101.443 73.0356 -86.1797 -101.971 72.6366 -86.1579 -102.313 71.8991 
-85.0295 -100.77 74.4576 -85.0491 -101.174 73.849 -85.1501 -101.63 73.2939 
-85.3368 -102.065 72.9041 -85.3914 -102.435 72.3947 -85.1896 -102.669 71.5738 
-84.5992 -101.151 74.8971 -84.6221 -101.522 74.3604 -84.683 -101.98 73.7473 
-84.7458 -102.409 73.1349 -84.7482 -102.775 72.6551 -84.6855 -103.127 72.0813 
-84.5593 -103.393 71.3574 -84.2658 -101.61 75.3609 -84.2835 -101.964 74.826 
-84.262 -102.388 74.2438 -84.2098 -102.811 73.5021 -84.1502 -103.142 72.8127 
-84.1667 -103.522 72.3229 -84.2402 -103.956 71.8134 -84.2167 -104.231 71.222 
-87.4453 -98.1916 72.5552 -87.1696 -97.5329 72.86 -87.1912 -98.5542 73.1826 
-87.0358 -96.9633 73.4689 -87.0459 -98.0365 73.6508 -86.87 -98.8137 73.7916 
-86.9137 -96.4623 74.0946 -87.0432 -97.5364 74.3701 -86.8717 -98.4069 74.4005 
-86.3277 -99.0178 74.2461 -86.9032 -95.8594 74.7967 -87.0284 -96.9908 75.0561 
-86.9478 -97.9347 75.0943 -86.2947 -98.65 74.8694 -85.7046 -99.3442 74.6955 
-87.0038 -95.1596 75.4743 -86.9293 -96.3824 75.5695 -86.7838 -97.4101 75.5721 
-86.1826 -98.1997 75.3764 -85.5369 -98.9666 75.2106 -85.2452 -99.7496 75.1404 
-86.8081 -94.5782 75.7195 -86.6214 -95.7803 75.7698 -86.308 -96.946 75.7773 
-85.7988 -97.8015 75.7176 -85.2921 -98.575 75.6261 -85.0672 -99.3934 75.6119 
-84.8852 -100.156 75.5633 -86.2467 -94.2111 75.7422 -86.0899 -95.2508 75.8137 
-85.768 -96.5039 75.8753 -85.3558 -97.5055 76.033 -85.0065 -98.3062 76.1375 
-84.8598 -99.1019 76.1485 -84.7194 -99.8568 76.1122 -84.4395 -100.563 76.0255 
-85.2237 -94.5118 76.3398 -84.8211 -95.3514 76.5562 -85.1522 -95.5806 76.4081 
-84.1491 -96.1218 76.7591 -84.7606 -96.2993 76.8773 -85.0811 -96.6639 76.687 
-83.2341 -96.5314 77.254 -83.9896 -96.6818 77.4934 -84.7347 -97.0557 77.471 
-84.9637 -97.6127 77.2182 -82.6647 -97.0541 77.5801 -83.122 -97.0255 77.9871 
-83.9937 -97.349 78.0932 -84.6443 -98.0237 77.9997 -84.7488 -98.6185 77.5729 
-82.4703 -97.9186 77.3091 -82.6428 -97.8428 77.8563 -83.1841 -98.0031 78.136 
-83.9376 -98.5781 78.2101 -84.32 -99.2037 77.9898 -84.3935 -99.5225 77.4136 
-82.2088 -98.7206 76.8267 -82.2943 -98.812 77.3738 -82.4881 -98.9762 77.8029 
-83.0442 -99.3816 78.0168 -83.5777 -99.8353 77.9015 -83.7704 -100.061 77.4882 
[...]
POINT_DATA 1002
FIELD FieldData 2
Theta 1 1002 float
2.58802 2.58802 0.553574 0.553574 2.12437 1.01722 2.12437 1.01722 1.5708 
1.5708 1.5708 1.5708 2.68241 2.78649 2.89924 3.01861 3.14159 3.01861 
2.89924 2.78649 2.68241 2.61035 2.61791 2.60515 2.56958 2.51327 2.44184 
2.36202 2.27983 2.1997 2.61035 2.61791 2.60515 2.56958 2.51327 2.44184 
2.36202 2.27983 2.1997 2.50947 2.41899 2.31794 2.20864 2.0944 1.97902 
1.86631 1.75944 1.66056 2.50947 2.41899 2.31794 2.20864 2.0944 1.97902 
1.86631 1.75944 1.66056 2.61035 2.61791 2.60515 2.56958 2.51327 2.44184 
2.36202 2.27983 2.1997 2.61035 2.61791 2.60515 2.56958 2.51327 2.44184 
2.36202 2.27983 2.1997 2.50947 2.41899 2.31794 2.20864 2.0944 1.97902 
1.86631 1.75944 1.66056 2.50947 2.41899 2.31794 2.20864 2.0944 1.97902 
1.86631 1.75944 1.66056 0.459179 0.355101 0.242354 0.122983 0 0.122983 
0.242354 0.355101 0.459179 0.531246 0.523681 0.536438 0.57201 0.628319 0.699757 
0.779574 0.86176 0.941896 0.531246 0.523681 0.536438 0.57201 0.628319 0.699757 
0.779574 0.86176 0.941896 0.632123 0.7226 0.823657 0.932948 1.0472 1.16257 
1.27528 1.38216 1.48103 0.632123 0.7226 0.823657 0.932948 1.0472 1.16257 
1.27528 1.38216 1.48103 0.531246 0.523681 0.536438 0.57201 0.628319 0.699757 
0.779574 0.86176 0.941896 0.531246 0.523681 0.536438 0.57201 0.628319 0.699757 
0.779574 0.86176 0.941896 0.632123 0.7226 0.823657 0.932948 1.0472 1.16257 
1.27528 1.38216 1.48103 0.632123 0.7226 0.823657 0.932948 1.0472 1.16257 
1.27528 1.38216 1.48103 2.02998 1.9259 1.81315 1.69378 1.5708 1.44781 
1.32844 1.2157 1.11162 2.0928 2.05283 2.00422 1.94767 1.88496 1.81867 
1.75177 1.68695 1.62623 2.0928 2.05283 2.00422 1.94767 1.88496 1.81867 
1.75177 1.68695 1.62623 1.0488 1.08876 1.13737 1.19392 1.25664 1.32292 
1.38982 1.45464 1.51537 1.0488 1.08876 1.13737 1.19392 1.25664 1.32292 
1.38982 1.45464 1.51537 2.02998 1.9259 1.81315 1.69378 1.5708 1.44781 
1.32844 1.2157 1.11162 2.0928 2.05283 2.00422 1.94767 1.88496 1.81867 
1.75177 1.68695 1.62623 2.0928 2.05283 2.00422 1.94767 1.88496 1.81867 
1.75177 1.68695 1.62623 1.0488 1.08876 1.13737 1.19392 1.25664 1.32292 
1.38982 1.45464 1.51537 1.0488 1.08876 1.13737 1.19392 1.25664 1.32292 
1.38982 1.45464 1.51537 1.5708 1.5708 1.5708 1.5708 1.5708 1.5708 
1.5708 1.5708 1.5708 1.5708 1.5708 1.5708 1.5708 1.5708 1.5708 
1.5708 1.5708 1.5708 2.70908 2.71362 2.81592 2.68886 2.81002 2.92597 
2.6349 2.76254 2.89233 3.01997 2.55881 2.68262 2.80854 2.92834 3.01997 
2.47007 2.58462 2.70048 2.80854 2.89233 2.92597 2.37702 2.48017 2.58462 
2.68262 2.76254 2.81002 2.81592 2.28567 2.37702 2.47007 2.55881 2.6349 
2.68886 2.71362 2.70908 2.52097 2.4195 2.51718 2.30791 2.40503 2.49426 
2.18928 2.28408 2.3734 2.45144 2.06758 2.15805 2.24572 2.32523 2.39165 
1.94707 2.03138 2.11543 2.19453 2.26401 2.32035 1.83164 1.90847 1.98711 
2.06376 2.13422 2.1949 2.24359 1.72413 1.79288 1.86489 1.93728 2.00658 
2.06938 2.12312 2.16654 1.5708 1.50988 1.63171 1.44492 1.5708 1.69667 
1.37826 1.5059 1.63569 1.76333 1.31281 1.43962 1.5708 1.70197 1.82878 
1.25155 1.37501 1.50478 1.63681 1.76659 1.89004 1.19686 1.31493 1.44074 
1.5708 1.70086 1.82666 1.94473 1.15011 1.26149 1.38136 1.50697 1.63462 
1.76024 1.88011 1.99148 1.99148 1.88011 1.94473 1.76024 1.82666 1.89004 
1.63462 1.70086 1.76659 1.82878 1.50697 1.5708 1.63681 1.70197 1.76333 
1.38136 1.44074 1.50478 1.5708 1.63569 1.69667 1.26149 1.31493 1.37501 
1.43962 1.5059 1.5708 1.63171 1.15011 1.19686 1.25155 1.31281 1.37826 
1.44492 1.50988 1.5708 2.16654 2.12312 2.24359 2.06938 2.1949 2.32035 
2.00658 2.13422 2.26401 2.39165 1.93728 2.06376 2.19453 2.32523 2.45144 
1.86489 1.98711 2.11543 2.24572 2.3734 2.49426 1.79288 1.90847 2.03138 
2.15805 2.28408 2.40503 2.51718 1.72413 1.83164 1.94707 2.06758 2.18928 
2.30791 2.4195 2.52097 1.66533 1.66946 1.76911 1.67254 1.777 1.88041 
1.67418 1.78222 1.89102 1.99634 1.67418 1.78405 1.89674 2.00785 2.11299 
1.67254 1.78222 1.89674 2.01191 2.12307 2.22608 1.66946 1.777 1.89102 
2.00785 2.12307 2.23222 2.33166 1.66533 1.76911 1.88041 1.99634 2.11299 
2.22608 2.33166 2.42672 1.47626 1.37249 1.47213 1.26118 1.36459 1.46906 
1.14526 1.25058 1.35938 1.46741 1.0286 1.13374 1.24485 1.35755 1.46741 
0.915514 1.01852 1.12969 1.24485 1.35938 1.46906 0.809937 0.909371 1.01852 
1.13374 1.25058 1.36459 1.47213 0.714871 0.809937 0.915514 1.0286 1.14526 
1.26118 1.37249 1.47626 0.975055 0.898002 1.01847 0.821245 0.946693 1.07221 
0.749941 0.877585 1.00737 1.13501 0.690152 0.816367 0.94706 1.07784 1.20431 
0.647337 0.768195 0.895868 1.02616 1.15448 1.2767 0.624416 0.736561 0.857515 
0.983547 1.11021 1.23313 1.34871 0.620619 0.722093 0.833684 0.952313 1.07402 
1.19452 1.30996 1.41746 0.855925 0.764569 0.764569 0.671524 0.661425 0.671524 
0.582786 0.556971 0.556971 0.582786 0.506696 0.458968 0.441109 0.458968 0.506696 
0.45273 0.379052 0.333054 0.333054 0.379052 0.45273 0.427969 0.331576 0.249267 
0.21325 0.249267 0.331576 0.427969 0.432512 0.325669 0.215619 0.121622 0.121622 
0.215619 0.325669 0.432512 0.432512 0.427969 0.325669 0.45273 0.331576 0.215619 
0.506696 0.379052 0.249267 0.121622 0.582786 0.458968 0.333054 0.21325 0.121622 
0.671524 0.556971 0.441109 0.333054 0.249267 0.215619 0.764569 0.661425 0.556971 
0.458968 0.379052 0.331576 0.325669 0.855925 0.764569 0.671524 0.582786 0.506696 
0.45273 0.427969 0.432512 0.975055 1.01847 0.898002 1.07221 0.946693 0.821245 
1.13501 1.00737 0.877585 0.749941 1.20431 1.07784 0.94706 0.816367 0.690152 
1.2767 1.15448 1.02616 0.895868 0.768195 0.647337 1.34871 1.23313 1.11021 
0.983547 0.857515 0.736561 0.624416 1.41746 1.30996 1.19452 1.07402 0.952313 
0.833684 0.722093 0.620619 1.15011 1.26149 1.19686 1.38136 1.31493 1.25155 
1.50697 1.44074 1.37501 1.31281 1.63462 1.5708 1.50478 1.43962 1.37826 
1.76024 1.70086 1.63681 1.5708 1.5059 1.44492 1.88011 1.82666 1.76659 
1.70197 1.63569 1.5708 1.50988 1.99148 1.94473 1.89004 1.82878 1.76333 
1.69667 1.63171 1.5708 1.15011 1.19686 1.26149 1.25155 1.31493 1.38136 
1.31281 1.37501 1.44074 1.50697 1.37826 1.43962 1.50478 1.5708 1.63462 
1.44492 1.5059 1.5708 1.63681 1.70086 1.76024 1.50988 1.5708 1.63569 
1.70197 1.76659 1.82666 1.88011 1.5708 1.63171 1.69667 1.76333 1.82878 
1.89004 1.94473 1.99148 1.72413 1.83164 1.79288 1.94707 1.90847 1.86489 
2.06758 2.03138 1.98711 1.93728 2.18928 2.15805 2.11543 2.06376 2.00658 
2.30791 2.28408 2.24572 2.19453 2.13422 2.06938 2.4195 2.40503 2.3734 
2.32523 2.26401 2.1949 2.12312 2.52097 2.51718 2.49426 2.45144 2.39165 
2.32035 2.24359 2.16654 2.70908 2.81592 2.71362 2.92597 2.81002 2.68886 
3.01997 2.89233 2.76254 2.6349 3.01997 2.92834 2.80854 2.68262 2.55881 
2.92597 2.89233 2.80854 2.70048 2.58462 2.47007 2.81592 2.81002 2.76254 
2.68262 2.58462 2.48017 2.37702 2.70908 2.71362 2.68886 2.6349 2.55881 
2.47007 2.37702 2.28567 2.16654 2.24359 2.12312 2.32035 2.1949 2.06938 
2.39165 2.26401 2.13422 2.00658 2.45144 2.32523 2.19453 2.06376 1.93728 
2.49426 2.3734 2.24572 2.11543 1.98711 1.86489 2.51718 2.40503 2.28408 
2.15805 2.03138 1.90847 1.79288 2.52097 2.4195 2.30791 2.18928 2.06758 
1.94707 1.83164 1.72413 1.66533 1.76911 1.66946 1.88041 1.777 1.67254 
1.99634 1.89102 1.78222 1.67418 2.11299 2.00785 1.89674 1.78405 1.67418 
2.22608 2.12307 2.01191 1.89674 1.78222 1.67254 2.33166 2.23222 2.12307 
2.00785 1.89102 1.777 1.66946 2.42672 2.33166 2.22608 2.11299 1.99634 
1.88041 1.76911 1.66533 1.47626 1.47213 1.37249 1.46906 1.36459 1.26118 
1.46741 1.35938 1.25058 1.14526 1.46741 1.35755 1.24485 1.13374 1.0286 
1.46906 1.35938 1.24485 1.12969 1.01852 0.915514 1.47213 1.36459 1.25058 
1.13374 1.01852 0.909371 0.809937 1.47626 1.37249 1.26118 1.14526 1.0286 
0.915514 0.809937 0.714871 1.41746 1.30996 1.34871 1.19452 1.23313 1.2767 
1.07402 1.11021 1.15448 1.20431 0.952313 0.983547 1.02616 1.07784 1.13501 
0.833684 0.857515 0.895868 0.94706 1.00737 1.07221 0.722093 0.736561 0.768195 
0.816367 0.877585 0.946693 1.01847 0.620619 0.624416 0.647337 0.690152 0.749941 
0.821245 0.898002 0.975055 0.975055 0.898002 1.01847 0.821245 0.946693 1.07221 
0.749941 0.877585 1.00737 1.13501 0.690152 0.816367 0.94706 1.07784 1.20431 
0.647337 0.768195 0.895868 1.02616 1.15448 1.2767 0.624416 0.736561 0.857515 
0.983547 1.11021 1.23313 1.34871 0.620619 0.722093 0.833684 0.952313 1.07402 
1.19452 1.30996 1.41746 
Phi 1 1002 float
6.28319 3.14159 6.28319 3.14159 4.71239 4.71239 1.5708 1.5708 3.69517 
5.72961 2.58802 0.553574 6.28319 6.28319 6.28319 6.28319 3.14159 3.14159 
3.14159 3.14159 3.14159 6.1053 5.8988 5.67687 5.45995 5.26596 5.10322 
4.97131 4.86569 4.78095 0.177881 0.384387 0.606312 0.823235 1.01722 1.17997 
1.31187 1.4175 1.50223 6.18928 6.10703 6.03531 5.97283 5.91832 5.87061 
5.82869 5.79168 5.75886 0.0939024 0.176153 0.247873 0.310351 0.364864 0.412573 
0.454497 0.491504 0.524326 3.31947 3.52598 3.7479 3.96483 4.15881 4.32156 
4.45346 4.55909 4.64383 2.96371 2.75721 2.53528 2.31836 2.12437 1.96162 
1.82972 1.72409 1.63936 3.2355 3.31775 3.38947 3.45194 3.50646 3.55417 
3.59609 3.6331 3.66592 3.04769 2.96544 2.89372 2.83124 2.77673 2.72902 
2.6871 2.65009 2.61727 6.28319 6.28319 6.28319 6.28319 3.14159 3.14159 
3.14159 3.14159 3.14159 6.1053 5.8988 5.67687 5.45995 5.26596 5.10322 
4.97131 4.86569 4.78095 0.177881 0.384387 0.606312 0.823235 1.01722 1.17997 
1.31187 1.4175 1.50223 6.18928 6.10703 6.03531 5.97283 5.91832 5.87061 
5.82869 5.79168 5.75886 0.0939024 0.176153 0.247873 0.310351 0.364864 0.412573 
0.454497 0.491504 0.524326 3.31947 3.52598 3.7479 3.96483 4.15881 4.32156 
4.45346 4.55909 4.64383 2.96371 2.75721 2.53528 2.31836 2.12437 1.96162 
1.82972 1.72409 1.63936 3.2355 3.31775 3.38947 3.45194 3.50646 3.55417 
3.59609 3.6331 3.66592 3.04769 2.96544 2.89372 2.83124 2.77673 2.72902 
2.6871 2.65009 2.61727 4.71239 4.71239 4.71239 4.71239 4.71239 4.71239 
4.71239 4.71239 4.71239 4.60879 4.49914 4.3857 4.27128 4.15881 4.05096 
3.94976 3.85646 3.77161 4.81599 4.92564 5.03907 5.1535 5.26596 5.37381 
5.47502 5.56831 5.65317 4.60879 4.49914 4.3857 4.27128 4.15881 4.05096 
3.94976 3.85646 3.77161 4.81599 4.92564 5.03907 5.1535 5.26596 5.37381 
5.47502 5.56831 5.65317 1.5708 1.5708 1.5708 1.5708 1.5708 1.5708 
1.5708 1.5708 1.5708 1.6744 1.78405 1.89748 2.01191 2.12437 2.23222 
2.33343 2.42672 2.51157 1.4672 1.35755 1.24411 1.12969 1.01722 0.909371 
0.808166 0.714871 0.63002 1.6744 1.78405 1.89748 2.01191 2.12437 2.23222 
2.33343 2.42672 2.51157 1.4672 1.35755 1.24411 1.12969 1.01722 0.909371 
0.808166 0.714871 0.63002 3.60077 3.49669 3.38395 3.26458 3.14159 3.01861 
2.89924 2.78649 2.68241 5.82401 5.92808 6.04083 6.1602 6.28319 0.122983 
0.242354 0.355101 0.459179 6.05603 5.78856 5.97021 5.51259 5.60297 5.78856 
5.26596 5.26596 5.26596 5.26596 5.06749 5.0121 4.91556 4.71239 4.15881 
4.91556 4.83537 4.71239 4.50922 4.15881 3.63622 4.80045 4.71239 4.58941 
4.41268 4.15881 3.82181 3.45456 4.71239 4.62433 4.50922 4.35729 4.15881 
3.91219 3.63622 3.36875 6.01742 5.94343 5.82633 5.88092 5.76745 5.62798 
5.8278 5.71897 5.58911 5.43724 5.78235 5.67854 5.55757 5.41926 5.26596 
5.74316 5.64441 5.5315 5.40467 5.26596 5.11955 5.70914 5.61528 5.50962 
5.3926 5.26596 5.13292 4.99789 5.67937 5.59016 5.49102 5.38246 5.26596 
5.14407 5.02016 4.89798 5.56831 5.47502 5.47502 5.37381 5.37381 5.37381 
5.26596 5.26596 5.26596 5.26596 5.1535 5.1535 5.1535 5.1535 5.1535 
5.03907 5.03907 5.03907 5.03907 5.03907 5.03907 4.92564 4.92564 4.92564 
4.92564 4.92564 4.92564 4.92564 4.81599 4.81599 4.81599 4.81599 4.81599 
4.81599 4.81599 4.81599 4.60879 4.60879 4.49914 4.60879 4.49914 4.3857 
4.60879 4.49914 4.3857 4.27128 4.60879 4.49914 4.3857 4.27128 4.15881 
4.60879 4.49914 4.3857 4.27128 4.15881 4.05096 4.60879 4.49914 4.3857 
4.27128 4.15881 4.05096 3.94976 4.60879 4.49914 4.3857 4.27128 4.15881 
4.05096 3.94976 3.85646 4.5268 4.40462 4.42689 4.28071 4.29185 4.30523 
4.15881 4.15881 4.15881 4.15881 4.04232 4.03217 4.02011 4.00552 3.98753 
3.93376 3.91515 3.89328 3.86721 3.83566 3.7968 3.83461 3.8095 3.78037 
3.74624 3.70581 3.65733 3.59845 3.7454 3.71564 3.68161 3.64243 3.59698 
3.54386 3.48135 3.40735 3.56428 3.45246 3.52338 3.33203 3.40312 3.47739 
3.20576 3.27463 3.34802 3.42551 3.07742 3.14159 3.21128 3.28647 3.36688 
2.95116 3.00855 3.0719 3.14159 3.21784 3.3006 2.83072 2.88006 2.93517 
2.99672 3.06535 3.14159 3.22575 2.7189 2.7598 2.8058 2.85768 2.9163 
2.98259 3.05743 3.14159 3.56428 3.52338 3.45246 3.47739 3.40312 3.33203 
3.42551 3.34802 3.27463 3.20576 3.36688 3.28647 3.21128 3.14159 3.07742 
3.3006 3.21784 3.14159 3.0719 3.00855 2.95116 3.22575 3.14159 3.06535 
2.99672 2.93517 2.88006 2.83072 3.14159 3.05743 2.98259 2.9163 2.85768 
2.8058 2.7598 2.7189 4.5268 4.42689 4.40462 4.30523 4.29185 4.28071 
4.15881 4.15881 4.15881 4.15881 3.98753 4.00552 4.02011 4.03217 4.04232 
3.7968 3.83566 3.86721 3.89328 3.91515 3.93376 3.59845 3.65733 3.70581 
3.74624 3.78037 3.8095 3.83461 3.40735 3.48135 3.54386 3.59698 3.64243 
3.68161 3.71564 3.7454 4.71239 4.80045 4.62433 4.91556 4.71239 4.50922 
5.06749 4.83537 4.58941 4.35729 5.26596 5.0121 4.71239 4.41268 4.15881 
5.51259 5.26596 4.91556 4.50922 4.15881 3.91219 5.78856 5.60297 5.26596 
4.71239 4.15881 3.82181 3.63622 6.05603 5.97021 5.78856 5.26596 4.15881 
3.63622 3.45456 3.36875 0.227158 0.494626 0.312971 0.770593 0.680215 0.494626 
1.01722 1.01722 1.01722 1.01722 1.2157 1.27109 1.36763 1.5708 2.12437 
1.36763 1.44781 1.5708 1.77397 2.12437 2.64697 1.48273 1.5708 1.69378 
1.8705 2.12437 2.46138 2.82862 1.5708 1.65886 1.77397 1.9259 2.12437 
2.371 2.64697 2.91443 1.75639 1.87857 1.8563 2.00248 1.99133 1.97796 
2.12437 2.12437 2.12437 2.12437 2.24087 2.25101 2.26308 2.27767 2.29565 
2.34943 2.36803 2.38991 2.41597 2.44752 2.48639 2.44857 2.47368 2.50281 
2.53694 2.57738 2.62586 2.68474 2.53778 2.56754 2.60157 2.64076 2.68621 
2.73933 2.80184 2.87583 1.6744 1.6744 1.78405 1.6744 1.78405 1.89748 
1.6744 1.78405 1.89748 2.01191 1.6744 1.78405 1.89748 2.01191 2.12437 
1.6744 1.78405 1.89748 2.01191 2.12437 2.23222 1.6744 1.78405 1.89748 
2.01191 2.12437 2.23222 2.33343 1.6744 1.78405 1.89748 2.01191 2.12437 
2.23222 2.33343 2.42672 1.4672 1.35755 1.4672 1.24411 1.35755 1.4672 
1.12969 1.24411 1.35755 1.4672 1.01722 1.12969 1.24411 1.35755 1.4672 
0.909371 1.01722 1.12969 1.24411 1.35755 1.4672 0.808166 0.909371 1.01722 
1.12969 1.24411 1.35755 1.4672 0.714871 0.808166 0.909371 1.01722 1.12969 
1.24411 1.35755 1.4672 0.603812 0.57405 0.693022 0.540021 0.667908 0.792164 
0.500837 0.638778 0.773562 0.900726 0.455383 0.604649 0.751687 0.890581 1.01722 
0.402264 0.564217 0.725619 0.878514 1.01722 1.13912 0.339753 0.515737 0.694072 
0.863926 1.01722 1.15026 1.26302 0.265762 0.456853 0.655207 0.845941 1.01722 
1.16363 1.28529 1.38521 0.227158 0.312971 0.494626 0.494626 0.680215 0.770593 
1.01722 1.01722 1.01722 1.01722 2.12437 1.5708 1.36763 1.27109 1.2157 
2.64697 2.12437 1.77397 1.5708 1.44781 1.36763 2.82862 2.46138 2.12437 
1.8705 1.69378 1.5708 1.48273 2.91443 2.64697 2.371 2.12437 1.9259 
1.77397 1.65886 1.5708 1.75639 1.8563 1.87857 1.97796 1.99133 2.00248 
2.12437 2.12437 2.12437 2.12437 2.29565 2.27767 2.26308 2.25101 2.24087 
2.48639 2.44752 2.41597 2.38991 2.36803 2.34943 2.68474 2.62586 2.57738 
2.53694 2.50281 2.47368 2.44857 2.87583 2.80184 2.73933 2.68621 2.64076 
2.60157 2.56754 2.53778 5.86049 5.90139 5.97231 5.94739 6.02165 6.09275 
5.99927 6.07676 6.15015 6.21902 6.0579 6.13831 6.2135 0 0.0641696 
6.12418 6.20694 6.28319 0.069689 0.13304 0.190437 6.19903 0 0.0762451 
0.144876 0.206423 0.261531 0.310872 0 0.0841597 0.159004 0.225289 0.283913 
0.335793 0.381792 0.422692 5.86049 5.97231 5.90139 6.09275 6.02165 5.94739 
6.21902 6.15015 6.07676 5.99927 0.0641696 0 6.2135 6.13831 6.0579 
0.190437 0.13304 0.069689 6.28319 6.20694 6.12418 0.310872 0.261531 0.206423 
0.144876 0.0762451 6.28319 6.19903 0.422692 0.381792 0.335793 0.283913 0.225289 
0.159004 0.0841597 0 5.67937 5.70914 5.59016 5.74316 5.61528 5.49102 
5.78235 5.64441 5.50962 5.38246 5.8278 5.67854 5.5315 5.3926 5.26596 
5.88092 5.71897 5.55757 5.40467 5.26596 5.14407 5.94343 5.76745 5.58911 
5.41926 5.26596 5.13292 5.02016 6.01742 5.82633 5.62798 5.43724 5.26596 
5.11955 4.99789 4.89798 1.38521 1.28529 1.26302 1.16363 1.15026 1.13912 
1.01722 1.01722 1.01722 1.01722 0.845941 0.863926 0.878514 0.890581 0.900726 
0.655207 0.694072 0.725619 0.751687 0.773562 0.792164 0.456853 0.515737 0.564217 
0.604649 0.638778 0.667908 0.693022 0.265762 0.339753 0.402264 0.455383 0.500837 
0.540021 0.57405 0.603812 
