# vtk DataFile Version 4.0
vtk output
ASCII
DATASET POLYDATA
POINTS 1002 float
-86.7654 -95.8438 70.091 -81.2828 -102.927 69.1434 -80.8194 -92.0124 68.6048 
-75.803 -99.5079 68.0645 -81.6524 -98.2372 74.7888 -78.8052 -95.8935 74.3364 
-84.3422 -98.9518 63.6673 -79.7848 -96.5378 63.0036 -76.4263 -105.746 72.5105 
-84.4834 -90.2584 72.8306 -76.827 -105.09 64.596 -86.9297 -90.1366 65.1926 
-86.3475 -96.3842 70.0602 -85.7851 -96.9263 69.9431 -85.2516 -97.6413 69.8225 
-84.7689 -98.4874 69.7479 -84.1321 -99.1974 69.6485 -83.3885 -99.8642 69.537 
-82.7903 -100.699 69.516 -82.2922 -101.539 69.506 -81.763 -102.255 69.3671 
-86.3075 -95.7998 70.5044 -85.7187 -95.7398 70.8514 -85.2097 -95.898 71.3386 
-84.8398 -96.3008 72.0095 -84.3655 -96.6877 72.6131 -83.6278 -96.9109 73.0221 
-82.8504 -97.0726 73.377 -82.3039 -97.327 73.7946 -81.9611 -97.7438 74.2865 
-86.8246 -96.1308 69.5316 -86.7578 -96.3518 68.8036 -86.717 -96.6541 68.0504 
-86.6434 -97.0884 67.3842 -86.3691 -97.4373 66.6755 -85.9759 -97.6277 65.884 
-85.564 -97.8931 65.2048 -85.1221 -98.3043 64.6559 -84.7098 -98.6934 64.1287 
-86.7842 -95.232 70.3708 -86.7517 -94.5967 70.7135 -86.8742 -93.9973 71.2365 
-87.0216 -93.3314 71.8679 -86.8089 -92.6311 72.2196 -86.2446 -92.0647 72.1454 
-85.649 -91.5262 72.0876 -85.1836 -90.9221 72.3268 -84.8308 -90.4587 72.6383 
-87.1176 -95.3775 69.6874 -87.331 -94.7305 69.194 -87.4849 -94.0228 68.7554 
-87.7387 -93.2327 68.2298 -88.1416 -92.3141 67.5057 -88.4674 -91.5826 66.9461 
-88.4122 -91.226 66.6665 -87.9792 -90.9318 66.2676 -87.4274 -90.5101 65.6727 
-81.2929 -102.67 69.6381 -81.2679 -102.264 70.0723 -81.2103 -101.76 70.6603 
-81.2785 -101.412 71.4134 -81.4448 -101.073 72.1227 -81.4826 -100.42 72.7717 
-81.4756 -99.739 73.3763 -81.5789 -99.2712 73.8728 -81.6678 -98.7979 74.3301 
-81.5174 -102.714 68.6186 -81.761 -102.444 67.9534 -82.04 -102.056 67.3447 
-82.2736 -101.531 66.8339 -82.516 -101.006 66.235 -82.9648 -100.601 65.5447 
-83.5077 -100.259 64.9397 -83.8929 -99.8945 64.4396 -84.14 -99.4657 64.0019 
-80.8346 -103.461 69.2666 -80.2939 -103.9 69.4156 -79.659 -104.134 69.6239 
-79.035 -104.387 69.9294 -78.5572 -104.888 70.3598 -78.1856 -105.323 70.8418 
-77.7951 -105.489 71.3082 -77.3397 -105.656 71.7987 -76.8486 -105.83 72.2565 
-81.0986 -103.556 68.6377 -80.9554 -104.26 68.191 -80.5263 -104.755 67.826 
-79.8494 -104.927 67.3358 -79.4109 -105.119 66.6721 -79.0863 -105.409 66.0977 
-78.4314 -105.43 65.7229 -77.7068 -105.209 65.391 -77.2268 -105.088 65 
-80.4142 -92.5913 68.6201 -79.787 -93.0413 68.5284 -79.0647 -93.6119 68.3897 
-78.469 -94.4895 68.3221 -77.9708 -95.4548 68.2803 -77.3924 -96.3075 68.1342 
-76.757 -97.0424 67.9579 -76.2567 -97.7304 67.9192 -75.9722 -98.5451 67.9998 
-80.6528 -92.2447 69.3221 -80.368 -92.3734 69.9238 -79.8938 -92.3934 70.3894 
-79.3847 -92.4463 70.9754 -79.1466 -92.8014 71.7848 -79.1379 -93.4962 72.5131 
-79.0764 -94.2165 73.028 -78.9367 -94.7801 73.5038 -78.8403 -95.3076 73.9701 
-80.7277 -92.1345 67.912 -80.6604 -92.3993 67.3225 -80.6451 -92.8941 66.8167 
-80.4747 -93.3167 66.1729 -80.1123 -93.5438 65.3743 -79.8656 -93.942 64.6627 
-79.8147 -94.6269 64.1858 -79.8101 -95.3754 63.8578 -79.812 -96.039 63.4923 
-81.0283 -91.454 68.9956 -81.2932 -90.8338 69.35 -81.7283 -90.3503 69.67 
-82.1144 -89.9466 70.1074 -82.2276 -89.3982 70.8288 -82.4255 -88.9637 71.6411 
-83.0289 -89.0879 72.1463 -83.7369 -89.5797 72.3507 -84.2229 -89.9906 72.5537 
-81.1114 -91.3821 68.095 -81.4926 -90.7582 67.6135 -82.1143 -90.4116 67.2899 
-82.9744 -90.2753 67.0409 -83.8011 -90.0047 66.6686 -84.4504 -89.7095 66.2533 
-85.0572 -89.6805 65.9679 -85.6961 -89.7821 65.7164 -86.3335 -89.895 65.414 
-76.0399 -99.3668 68.4935 -76.2526 -99.0969 69.0241 -76.3758 -98.6537 69.7529 
-76.4699 -98.1537 70.5847 -76.7035 -97.7383 71.3549 -77.206 -97.4459 71.9903 
-77.8872 -97.2132 72.4983 -78.4455 -96.8924 73.0175 -78.7079 -96.4136 73.6635 
-75.7218 -99.0347 67.5717 -75.7749 -98.6765 66.9976 -76.0662 -98.4826 66.4633 
-76.6613 -98.3698 66.036 -77.3524 -98.1817 65.5777 -77.8188 -97.7779 64.9769 
-78.1658 -97.261 64.3335 -78.6689 -96.891 63.7749 -79.268 -96.6999 63.3335 
-75.7658 -100.428 68.3535 -75.6326 -101.185 68.6882 -75.3746 -101.708 69.1899 
-75.1362 -102.41 69.879 -75.1092 -103.473 70.4363 -75.3157 -104.388 70.623 
-75.5957 -104.911 70.8251 -75.8184 -105.304 71.3944 -76.0514 -105.623 72.07 
-75.5576 -100.218 67.7496 -75.3034 -100.929 67.3219 -75.1138 -101.583 66.9194 
-75.091 -102.291 66.5208 -75.1342 -103.118 65.9368 -75.0407 -103.883 65.3233 
-75.0289 -104.459 64.9818 -75.435 -104.861 64.8341 -76.1332 -105.068 64.7027 
-81.4 -98.1804 75.3289 -81.1931 -98.1634 75.777 -81.0099 -98.144 76.1939 
-80.5851 -97.8555 76.6153 -79.9588 -97.2839 76.6948 -79.5614 -96.8591 76.2281 
-79.3987 -96.658 75.6465 -79.171 -96.381 75.2547 -78.9192 -96.0589 74.8652 
-81.2971 -99.0586 74.9422 -80.7738 -99.7523 74.8857 -80.115 -100.383 74.6673 
-79.4847 -101.162 74.5536 -79.0151 -101.993 74.4443 -78.608 -102.827 74.0045 
-78.0762 -103.865 73.4883 -77.4508 -104.873 73.2309 -76.88 -105.466 72.9914 
-81.8372 -97.3761 74.9167 -82.1634 -96.6238 75.0331 -82.6575 -95.9309 75.143 
-83.1828 -95.009 75.2039 -83.6104 -93.949 75.13 -83.9039 -93.0773 74.87 
-84.0748 -92.2394 74.4817 -84.2048 -91.3295 74.01 -84.3551 -90.6454 73.4371 
-78.6547 -96.7886 74.2512 -78.3195 -97.5992 74.1665 -77.9482 -98.4046 74.0467 
-77.6986 -99.4073 73.8503 -77.446 -100.567 73.5832 -77.0594 -101.724 73.2763 
-76.6459 -102.942 73.0523 -76.3831 -104.19 72.9778 -76.3395 -105.175 72.864 
-78.9193 -94.986 74.7609 -79.1964 -94.0771 75.1071 -79.7326 -93.2989 75.2789 
-80.4129 -92.6269 75.2787 -81.1088 -91.9214 75.2691 -81.7994 -91.2426 75.2196 
-82.5095 -90.8113 74.8225 -83.253 -90.5935 74.0952 -83.9484 -90.4088 73.3831 
-84.193 -98.6994 63.2902 -83.7902 -98.3744 63.0471 -83.039 -98.0353 62.8445 
-82.3797 -97.7537 62.352 -82.1223 -97.4532 61.6505 -81.7884 -97.0891 61.3245 
-81.0683 -96.8073 61.5372 -80.3832 -96.6889 61.9791 -80.0151 -96.6365 62.483 
-83.6932 -99.3936 63.5515 -82.8085 -99.801 63.5756 -82.0618 -100.547 63.4796 
-81.5247 -101.558 63.3066 -80.7459 -102.281 63.4509 -79.7224 -102.777 63.8342 
-78.897 -103.55 64.006 -78.231 -104.426 64.0044 -77.5098 -104.935 64.1749 
-84.6702 -98.1254 63.7532 -84.9556 -97.1475 63.9589 -85.4507 -96.2768 64.0468 
-86.1383 -95.4589 64.026 -86.6277 -94.4939 64.2368 -86.8278 -93.4508 64.6413 
-87.0786 -92.3899 64.7638 -87.3487 -91.3367 64.633 -87.2978 -90.5422 64.7351 
-79.3745 -97.003 62.5991 -78.9012 -97.4251 62.2989 -78.5406 -98.0815 62.4283 
-78.3175 -99.1817 62.9668 -77.954 -100.456 63.4809 -77.3523 -101.678 63.6814 
-76.85 -103.024 63.6389 -76.6889 -104.275 63.6387 -76.7463 -104.937 63.9667 
-80.2707 -96.0361 63.0717 -80.7551 -95.4413 63.1917 -81.4861 -94.7781 63.4469 
-82.5627 -93.9594 63.7697 -83.5543 -93.0988 64.0462 -84.3289 -92.3553 64.3174 
-85.2437 -91.5209 64.4673 -86.1518 -90.6402 64.4551 -86.6846 -90.1541 64.6352 
-76.2197 -106.213 71.7294 -76.0524 -106.98 70.9299 -76.0721 -107.75 70.2457 
-76.1138 -108.027 69.2417 -75.95 -108.104 67.7363 -75.8555 -108.105 66.5469 
-76.0533 -107.354 66.1732 -76.3161 -106.092 65.973 -76.5386 -105.295 65.3806 
-84.7713 -89.9855 72.1677 -84.9658 -89.5969 71.4712 -85.2591 -89.1339 70.7738 
-85.8645 -88.823 70.1385 -86.5581 -88.6223 69.3131 -86.9111 -88.4939 68.1681 
-86.8741 -88.8351 67.2138 -86.7468 -89.5512 66.6337 -86.7764 -90.0123 65.9903 
-85.8485 -96.3836 70.4133 -85.2796 -96.4891 70.828 -85.2938 -97.1055 70.318 
-84.8152 -96.8102 71.4694 -84.7862 -97.426 70.87 -84.7982 -97.9922 70.2991 
-84.3603 -97.1556 72.1019 -84.304 -97.7574 71.5238 -84.3211 -98.3677 70.9437 
-84.2798 -98.7975 70.2908 -83.6524 -97.364 72.5102 -83.6948 -97.9455 71.9852 
-83.7626 -98.6113 71.5187 -83.724 -99.1079 70.9272 -83.5492 -99.4546 70.1635 
-82.8075 -97.543 72.8725 -82.9151 -98.1249 72.3774 -83.0911 -98.8023 71.9285 
-83.0707 -99.3743 71.4441 -82.9065 -99.7949 70.714 -82.8318 -100.25 69.9987 
-82.2063 -97.8249 73.3182 -82.2262 -98.4001 72.8857 -82.414 -99.086 72.3951 
-82.4468 -99.706 71.8586 -82.249 -100.124 71.1807 -82.2147 -100.602 70.434 
-82.328 -101.157 69.9168 -81.9081 -98.2691 73.8172 -81.8228 -98.7776 73.4019 
-81.8626 -99.3892 72.9121 -81.9301 -100.096 72.3044 -81.7731 -100.567 71.6292 
-81.6353 -100.915 70.8754 -81.7489 -101.451 70.2417 -81.8429 -101.96 69.8256 
-86.2504 -95.1556 70.8374 -86.296 -94.5472 71.3115 -85.6655 -95.106 71.2333 
-86.6244 -93.9869 71.9918 -85.7893 -94.5136 71.7501 -85.1792 -95.3227 71.7321 
-86.8152 -93.3835 72.5842 -86.0591 -93.9402 72.4052 -85.1613 -94.7252 72.2043 
-84.7485 -95.7909 72.4126 -86.3739 -92.7938 72.6672 -85.9615 -93.4211 72.8564 
-85.1094 -94.1597 72.7965 -84.5556 -95.2348 72.8988 -84.2284 -96.2431 73.0841 
-85.586 -92.2163 72.5109 -85.3258 -92.9666 72.9096 -84.8437 -93.7291 73.2401 
-84.4213 -94.7396 73.5008 -84.0972 -95.8099 73.6758 -83.554 -96.529 73.6064 
-84.9857 -91.5554 72.6917 -84.686 -92.4202 73.0467 -84.4272 -93.2909 73.5062 
-84.2709 -94.2431 73.9758 -84.0404 -95.3621 74.2827 -83.5205 -96.1984 74.2937 
-82.8412 -96.7139 74.0421 -84.6472 -90.9699 73.1211 -84.3824 -91.8101 73.5296 
-84.1681 -92.7516 73.9443 -84.049 -93.6285 74.3819 -83.864 -94.6937 74.7172 
-83.415 -95.7413 74.8392 -82.7847 -96.3959 74.7151 -82.2627 -96.9641 74.4715 
-83.865 -90.8515 74.1317 -83.2436 -91.0587 74.8505 -83.8465 -91.617 74.7656 
-82.4714 -91.3017 75.3639 -83.2836 -91.8937 75.3335 -83.7689 -92.5503 75.2266 
-81.6184 -91.8266 75.5791 -82.438 -92.2985 75.6389 -83.1433 -92.9573 75.7147 
-83.4353 -93.4157 75.5541 -80.8186 -92.6325 75.6842 -81.507 -92.9887 75.8394 
-82.2765 -93.5187 76.0318 -82.726 -93.8974 76.0279 -82.9322 -94.3336 75.6326 
-80.1331 -93.4915 75.7008 -80.7118 -93.8566 75.9161 -81.3792 -94.177 76.2212 
-81.9464 -94.4118 76.3745 -82.2646 -94.7766 75.9976 -82.4485 -95.3621 75.4843 
-79.5688 -94.3427 75.5193 -80.0909 -94.762 75.7269 -80.5805 -94.9717 76.1076 
-81.0824 -95.0618 76.5372 -81.5869 -95.3953 76.3781 -81.8788 -95.917 75.807 
[...]
POINT_DATA 1002
FIELD FieldData 2
Theta 1 1002 float
2.58802 2.58802 0.553574 0.553574 2.12437 1.01722 2.12437 1.01722 1.5708 
1.5708 1.5708 1.5708 2.68241 2.78649 2.89924 3.01861 3.14159 3.01861 
2.89924 2.78649 2.68241 2.61035 2.61791 2.60515 2.56958 2.51327 2.44184 
2.36202 2.27983 2.1997 2.61035 2.61791 2.60515 2.56958 2.51327 2.44184 
2.36202 2.27983 2.1997 2.50947 2.41899 2.31794 2.20864 2.0944 1.97902 
1.86631 1.75944 1.66056 2.50947 2.41899 2.31794 2.20864 2.0944 1.97902 
1.86631 1.75944 1.66056 2.61035 2.61791 2.60515 2.56958 2.51327 2.44184 
2.36202 2.27983 2.1997 2.61035 2.61791 2.60515 2.56958 2.51327 2.44184 
2.36202 2.27983 2.1997 2.50947 2.41899 2.31794 2.20864 2.0944 1.97902 
1.86631 1.75944 1.66056 2.50947 2.41899 2.31794 2.20864 2.0944 1.97902 
1.86631 1.75944 1.66056 0.459179 0.355101 0.242354 0.122983 0 0.122983 
0.242354 0.355101 0.459179 0.531246 0.523681 0.536438 0.57201 0.628319 0.699757 
0.779574 0.86176 0.941896 0.531246 0.523681 0.536438 0.57201 0.628319 0.699757 
0.779574 0.86176 0.941896 0.632123 0.7226 0.823657 0.932948 1.0472 1.16257 
1.27528 1.38216 1.48103 0.632123 0.7226 0.823657 0.932948 1.0472 1.16257 
1.27528 1.38216 1.48103 0.531246 0.523681 0.536438 0.57201 0.628319 0.699757 
0.779574 0.86176 0.941896 0.531246 0.523681 0.536438 0.57201 0.628319 0.699757 
0.779574 0.86176 0.941896 0.632123 0.7226 0.823657 0.932948 1.0472 1.16257 
1.27528 1.38216 1.48103 0.632123 0.7226 0.823657 0.932948 1.0472 1.16257 
1.27528 1.38216 1.48103 2.02998 1.9259 1.81315 1.69378 1.5708 1.44781 
1.32844 1.2157 1.11162 2.0928 2.05283 2.00422 1.94767 1.88496 1.81867 
1.75177 1.68695 1.62623 2.0928 2.05283 2.00422 1.94767 1.88496 1.81867 
1.75177 1.68695 1.62623 1.0488 1.08876 1.13737 1.19392 1.25664 1.32292 
1.38982 1.45464 1.51537 1.0488 1.08876 1.13737 1.19392 1.25664 1.32292 
1.38982 1.45464 1.51537 2.02998 1.9259 1.81315 1.69378 1.5708 1.44781 
1.32844 1.2157 1.11162 2.0928 2.05283 2.00422 1.94767 1.88496 1.81867 
1.75177 1.68695 1.62623 2.0928 2.05283 2.00422 1.94767 1.88496 1.81867 
1.75177 1.68695 1.62623 1.0488 1.08876 1.13737 1.19392 1.25664 1.32292 
1.38982 1.45464 1.51537 1.0488 1.08876 1.13737 1.19392 1.25664 1.32292 
1.38982 1.45464 1.51537 1.5708 1.5708 1.5708 1.5708 1.5708 1.5708 
1.5708 1.5708 1.5708 1.5708 1.5708 1.5708 1.5708 1.5708 1.5708 
1.5708 1.5708 1.5708 2.70908 2.71362 2.81592 2.68886 2.81002 2.92597 
2.6349 2.76254 2.89233 3.01997 2.55881 2.68262 2.80854 2.92834 3.01997 
2.47007 2.58462 2.70048 2.80854 2.89233 2.92597 2.37702 2.48017 2.58462 
2.68262 2.76254 2.81002 2.81592 2.28567 2.37702 2.47007 2.55881 2.6349 
2.68886 2.71362 2.70908 2.52097 2.4195 2.51718 2.30791 2.40503 2.49426 
2.18928 2.28408 2.3734 2.45144 2.06758 2.15805 2.24572 2.32523 2.39165 
1.94707 2.03138 2.11543 2.19453 2.26401 2.32035 1.83164 1.90847 1.98711 
2.06376 2.13422 2.1949 2.24359 1.72413 1.79288 1.86489 1.93728 2.00658 
2.06938 2.12312 2.16654 1.5708 1.50988 1.63171 1.44492 1.5708 1.69667 
1.37826 1.5059 1.63569 1.76333 1.31281 1.43962 1.5708 1.70197 1.82878 
1.25155 1.37501 1.50478 1.63681 1.76659 1.89004 1.19686 1.31493 1.44074 
1.5708 1.70086 1.82666 1.94473 1.15011 1.26149 1.38136 1.50697 1.63462 
1.76024 1.88011 1.99148 1.99148 1.88011 1.94473 1.76024 1.82666 1.89004 
1.63462 1.70086 1.76659 1.82878 1.50697 1.5708 1.63681 1.70197 1.76333 
1.38136 1.44074 1.50478 1.5708 1.63569 1.69667 1.26149 1.31493 1.37501 
1.43962 1.5059 1.5708 1.63171 1.15011 1.19686 1.25155 1.31281 1.37826 
1.44492 1.50988 1.5708 2.16654 2.12312 2.24359 2.06938 2.1949 2.32035 
2.00658 2.13422 2.26401 2.39165 1.93728 2.06376 2.19453 2.32523 2.45144 
1.86489 1.98711 2.11543 2.24572 2.3734 2.49426 1.79288 1.90847 2.03138 
2.15805 2.28408 2.40503 2.51718 1.72413 1.83164 1.94707 2.06758 2.18928 
2.30791 2.4195 2.52097 1.66533 1.66946 1.76911 1.67254 1.777 1.88041 
1.67418 1.78222 1.89102 1.99634 1.67418 1.78405 1.89674 2.00785 2.11299 
1.67254 1.78222 1.89674 2.01191 2.12307 2.22608 1.66946 1.777 1.89102 
2.00785 2.12307 2.23222 2.33166 1.66533 1.76911 1.88041 1.99634 2.11299 
2.22608 2.33166 2.42672 1.47626 1.37249 1.47213 1.26118 1.36459 1.46906 
1.14526 1.25058 1.35938 1.46741 1.0286 1.13374 1.24485 1.35755 1.46741 
0.915514 1.01852 1.12969 1.24485 1.35938 1.46906 0.809937 0.909371 1.01852 
1.13374 1.25058 1.36459 1.47213 0.714871 0.809937 0.915514 1.0286 1.14526 
1.26118 1.37249 1.47626 0.975055 0.898002 1.01847 0.821245 0.946693 1.07221 
0.749941 0.877585 1.00737 1.13501 0.690152 0.816367 0.94706 1.07784 1.20431 
0.647337 0.768195 0.895868 1.02616 1.15448 1.2767 0.624416 0.736561 0.857515 
0.983547 1.11021 1.23313 1.34871 0.620619 0.722093 0.833684 0.952313 1.07402 
1.19452 1.30996 1.41746 0.855925 0.764569 0.764569 0.671524 0.661425 0.671524 
0.582786 0.556971 0.556971 0.582786 0.506696 0.458968 0.441109 0.458968 0.506696 
0.45273 0.379052 0.333054 0.333054 0.379052 0.45273 0.427969 0.331576 0.249267 
0.21325 0.249267 0.331576 0.427969 0.432512 0.325669 0.215619 0.121622 0.121622 
0.215619 0.325669 0.432512 0.432512 0.427969 0.325669 0.45273 0.331576 0.215619 
0.506696 0.379052 0.249267 0.121622 0.582786 0.458968 0.333054 0.21325 0.121622 
0.671524 0.556971 0.441109 0.333054 0.249267 0.215619 0.764569 0.661425 0.556971 
0.458968 0.379052 0.331576 0.325669 0.855925 0.764569 0.671524 0.582786 0.506696 
0.45273 0.427969 0.432512 0.975055 1.01847 0.898002 1.07221 0.946693 0.821245 
1.13501 1.00737 0.877585 0.749941 1.20431 1.07784 0.94706 0.816367 0.690152 
1.2767 1.15448 1.02616 0.895868 0.768195 0.647337 1.34871 1.23313 1.11021 
0.983547 0.857515 0.736561 0.624416 1.41746 1.30996 1.19452 1.07402 0.952313 
0.833684 0.722093 0.620619 1.15011 1.26149 1.19686 1.38136 1.31493 1.25155 
1.50697 1.44074 1.37501 1.31281 1.63462 1.5708 1.50478 1.43962 1.37826 
1.76024 1.70086 1.63681 1.5708 1.5059 1.44492 1.88011 1.82666 1.76659 
1.70197 1.63569 1.5708 1.50988 1.99148 1.94473 1.89004 1.82878 1.76333 
1.69667 1.63171 1.5708 1.15011 1.19686 1.26149 1.25155 1.31493 1.38136 
1.31281 1.37501 1.44074 1.50697 1.37826 1.43962 1.50478 1.5708 1.63462 
1.44492 1.5059 1.5708 1.63681 1.70086 1.76024 1.50988 1.5708 1.63569 
1.70197 1.76659 1.82666 1.88011 1.5708 1.63171 1.69667 1.76333 1.82878 
1.89004 1.94473 1.99148 1.72413 1.83164 1.79288 1.94707 1.90847 1.86489 
2.06758 2.03138 1.98711 1.93728 2.18928 2.15805 2.11543 2.06376 2.00658 
2.30791 2.28408 2.24572 2.19453 2.13422 2.06938 2.4195 2.40503 2.3734 
2.32523 2.26401 2.1949 2.12312 2.52097 2.51718 2.49426 2.45144 2.39165 
2.32035 2.24359 2.16654 2.70908 2.81592 2.71362 2.92597 2.81002 2.68886 
3.01997 2.89233 2.76254 2.6349 3.01997 2.92834 2.80854 2.68262 2.55881 
2.92597 2.89233 2.80854 2.70048 2.58462 2.47007 2.81592 2.81002 2.76254 
2.68262 2.58462 2.48017 2.37702 2.70908 2.71362 2.68886 2.6349 2.55881 
2.47007 2.37702 2.28567 2.16654 2.24359 2.12312 2.32035 2.1949 2.06938 
2.39165 2.26401 2.13422 2.00658 2.45144 2.32523 2.19453 2.06376 1.93728 
2.49426 2.3734 2.24572 2.11543 1.98711 1.86489 2.51718 2.40503 2.28408 
2.15805 2.03138 1.90847 1.79288 2.52097 2.4195 2.30791 2.18928 2.06758 
1.94707 1.83164 1.72413 1.66533 1.76911 1.66946 1.88041 1.777 1.67254 
1.99634 1.89102 1.78222 1.67418 2.11299 2.00785 1.89674 1.78405 1.67418 
2.22608 2.12307 2.01191 1.89674 1.78222 1.67254 2.33166 2.23222 2.12307 
2.00785 1.89102 1.777 1.66946 2.42672 2.33166 2.22608 2.11299 1.99634 
1.88041 1.76911 1.66533 1.47626 1.47213 1.37249 1.46906 1.36459 1.26118 
1.46741 1.35938 1.25058 1.14526 1.46741 1.35755 1.24485 1.13374 1.0286 
1.46906 1.35938 1.24485 1.12969 1.01852 0.915514 1.47213 1.36459 1.25058 
1.13374 1.01852 0.909371 0.809937 1.47626 1.37249 1.26118 1.14526 1.0286 
0.915514 0.809937 0.714871 1.41746 1.30996 1.34871 1.19452 1.23313 1.2767 
1.07402 1.11021 1.15448 1.20431 0.952313 0.983547 1.02616 1.07784 1.13501 
0.833684 0.857515 0.895868 0.94706 1.00737 1.07221 0.722093 0.736561 0.768195 
0.816367 0.877585 0.946693 1.01847 0.620619 0.624416 0.647337 0.690152 0.749941 
0.821245 0.898002 0.975055 0.975055 0.898002 1.01847 0.821245 0.946693 1.07221 
0.749941 0.877585 1.00737 1.13501 0.690152 0.816367 0.94706 1.07784 1.20431 
0.647337 0.768195 0.895868 1.02616 1.15448 1.2767 0.624416 0.736561 0.857515 
0.983547 1.11021 1.23313 1.34871 0.620619 0.722093 0.833684 0.952313 1.07402 
1.19452 1.30996 1.41746 
Phi 1 1002 float
6.28319 3.14159 6.28319 3.14159 4.71239 4.71239 1.5708 1.5708 3.69517 
5.72961 2.58802 0.553574 6.28319 6.28319 6.28319 6.28319 3.14159 3.14159 
3.14159 3.14159 3.14159 6.1053 5.8988 5.67687 5.45995 5.26596 5.10322 
4.97131 4.86569 4.78095 0.177881 0.384387 0.606312 0.823235 1.01722 1.17997 
1.31187 1.4175 1.50223 6.18928 6.10703 6.03531 5.97283 5.91832 5.87061 
5.82869 5.79168 5.75886 0.0939024 0.176153 0.247873 0.310351 0.364864 0.412573 
0.454497 0.491504 0.524326 3.31947 3.52598 3.7479 3.96483 4.15881 4.32156 
4.45346 4.55909 4.64383 2.96371 2.75721 2.53528 2.31836 2.12437 1.96162 
1.82972 1.72409 1.63936 3.2355 3.31775 3.38947 3.45194 3.50646 3.55417 
3.59609 3.6331 3.66592 3.04769 2.96544 2.89372 2.83124 2.77673 2.72902 
2.6871 2.65009 2.61727 6.28319 6.28319 6.28319 6.28319 3.14159 3.14159 
3.14159 3.14159 3.14159 6.1053 5.8988 5.67687 5.45995 5.26596 5.10322 
4.97131 4.86569 4.78095 0.177881 0.384387 0.606312 0.823235 1.01722 1.17997 
1.31187 1.4175 1.50223 6.18928 6.10703 6.03531 5.97283 5.91832 5.87061 
5.82869 5.79168 5.75886 0.0939024 0.176153 0.247873 0.310351 0.364864 0.412573 
0.454497 0.491504 0.524326 3.31947 3.52598 3.7479 3.96483 4.15881 4.32156 
4.45346 4.55909 4.64383 2.96371 2.75721 2.53528 2.31836 2.12437 1.96162 
1.82972 1.72409 1.63936 3.2355 3.31775 3.38947 3.45194 3.50646 3.55417 
3.59609 3.6331 3.66592 3.04769 2.96544 2.89372 2.83124 2.77673 2.72902 
2.6871 2.65009 2.61727 4.71239 4.71239 4.71239 4.71239 4.71239 4.71239 
4.71239 4.71239 4.71239 4.60879 4.49914 4.3857 4.27128 4.15881 4.05096 
3.94976 3.85646 3.77161 4.81599 4.92564 5.03907 5.1535 5.26596 5.37381 
5.47502 5.56831 5.65317 4.60879 4.49914 4.3857 4.27128 4.15881 4.05096 
3.94976 3.85646 3.77161 4.81599 4.92564 5.03907 5.1535 5.26596 5.37381 
5.47502 5.56831 5.65317 1.5708 1.5708 1.5708 1.5708 1.5708 1.5708 
1.5708 1.5708 1.5708 1.6744 1.78405 1.89748 2.01191 2.12437 2.23222 
2.33343 2.42672 2.51157 1.4672 1.35755 1.24411 1.12969 1.01722 0.909371 
0.808166 0.714871 0.63002 1.6744 1.78405 1.89748 2.01191 2.12437 2.23222 
2.33343 2.42672 2.51157 1.4672 1.35755 1.24411 1.12969 1.01722 0.909371 
0.808166 0.714871 0.63002 3.60077 3.49669 3.38395 3.26458 3.14159 3.01861 
2.89924 2.78649 2.68241 5.82401 5.92808 6.04083 6.1602 6.28319 0.122983 
0.242354 0.355101 0.459179 6.05603 5.78856 5.97021 5.51259 5.60297 5.78856 
5.26596 5.26596 5.26596 5.26596 5.06749 5.0121 4.91556 4.71239 4.15881 
4.91556 4.83537 4.71239 4.50922 4.15881 3.63622 4.80045 4.71239 4.58941 
4.41268 4.15881 3.82181 3.45456 4.71239 4.62433 4.50922 4.35729 4.15881 
3.91219 3.63622 3.36875 6.01742 5.94343 5.82633 5.88092 5.76745 5.62798 
5.8278 5.71897 5.58911 5.43724 5.78235 5.67854 5.55757 5.41926 5.26596 
5.74316 5.64441 5.5315 5.40467 5.26596 5.11955 5.70914 5.61528 5.50962 
5.3926 5.26596 5.13292 4.99789 5.67937 5.59016 5.49102 5.38246 5.26596 
5.14407 5.02016 4.89798 5.56831 5.47502 5.47502 5.37381 5.37381 5.37381 
5.26596 5.26596 5.26596 5.26596 5.1535 5.1535 5.1535 5.1535 5.1535 
5.03907 5.03907 5.03907 5.03907 5.03907 5.03907 4.92564 4.92564 4.92564 
4.92564 4.92564 4.92564 4.92564 4.81599 4.81599 4.81599 4.81599 4.81599 
4.81599 4.81599 4.81599 4.60879 4.60879 4.49914 4.60879 4.49914 4.3857 
4.60879 4.49914 4.3857 4.27128 4.60879 4.49914 4.3857 4.27128 4.15881 
4.60879 4.49914 4.3857 4.27128 4.15881 4.05096 4.60879 4.49914 4.3857 
4.27128 4.15881 4.05096 3.94976 4.60879 4.49914 4.3857 4.27128 4.15881 
4.05096 3.94976 3.85646 4.5268 4.40462 4.42689 4.28071 4.29185 4.30523 
4.15881 4.15881 4.15881 4.15881 4.04232 4.03217 4.02011 4.00552 3.98753 
3.93376 3.91515 3.89328 3.86721 3.83566 3.7968 3.83461 3.8095 3.78037 
3.74624 3.70581 3.65733 3.59845 3.7454 3.71564 3.68161 3.64243 3.59698 
3.54386 3.48135 3.40735 3.56428 3.45246 3.52338 3.33203 3.40312 3.47739 
3.20576 3.27463 3.34802 3.42551 3.07742 3.14159 3.21128 3.28647 3.36688 
2.95116 3.00855 3.0719 3.14159 3.21784 3.3006 2.83072 2.88006 2.93517 
2.99672 3.06535 3.14159 3.22575 2.7189 2.7598 2.8058 2.85768 2.9163 
2.98259 3.05743 3.14159 3.56428 3.52338 3.45246 3.47739 3.40312 3.33203 
3.42551 3.34802 3.27463 3.20576 3.36688 3.28647 3.21128 3.14159 3.07742 
3.3006 3.21784 3.14159 3.0719 3.00855 2.95116 3.22575 3.14159 3.06535 
2.99672 2.93517 2.88006 2.83072 3.14159 3.05743 2.98259 2.9163 2.85768 
2.8058 2.7598 2.7189 4.5268 4.42689 4.40462 4.30523 4.29185 4.28071 
4.15881 4.15881 4.15881 4.15881 3.98753 4.00552 4.02011 4.03217 4.04232 
3.7968 3.83566 3.86721 3.89328 3.91515 3.93376 3.59845 3.65733 3.70581 
3.74624 3.78037 3.8095 3.83461 3.40735 3.48135 3.54386 3.59698 3.64243 
3.68161 3.71564 3.7454 4.71239 4.80045 4.62433 4.91556 4.71239 4.50922 
5.06749 4.83537 4.58941 4.35729 5.26596 5.0121 4.71239 4.41268 4.15881 
5.51259 5.26596 4.91556 4.50922 4.15881 3.91219 5.78856 5.60297 5.26596 
4.71239 4.15881 3.82181 3.63622 6.05603 5.97021 5.78856 5.26596 4.15881 
3.63622 3.45456 3.36875 0.227158 0.494626 0.312971 0.770593 0.680215 0.494626 
1.01722 1.01722 1.01722 1.01722 1.2157 1.27109 1.36763 1.5708 2.12437 
1.36763 1.44781 1.5708 1.77397 2.12437 2.64697 1.48273 1.5708 1.69378 
1.8705 2.12437 2.46138 2.82862 1.5708 1.65886 1.77397 1.9259 2.12437 
2.371 2.64697 2.91443 1.75639 1.87857 1.8563 2.00248 1.99133 1.97796 
2.12437 2.12437 2.12437 2.12437 2.24087 2.25101 2.26308 2.27767 2.29565 
2.34943 2.36803 2.38991 2.41597 2.44752 2.48639 2.44857 2.47368 2.50281 
2.53694 2.57738 2.62586 2.68474 2.53778 2.56754 2.60157 2.64076 2.68621 
2.73933 2.80184 2.87583 1.6744 1.6744 1.78405 1.6744 1.78405 1.89748 
1.6744 1.78405 1.89748 2.01191 1.6744 1.78405 1.89748 2.01191 2.12437 
1.6744 1.78405 1.89748 2.01191 2.12437 2.23222 1.6744 1.78405 1.89748 
2.01191 2.12437 2.23222 2.33343 1.6744 1.78405 1.89748 2.01191 2.12437 
2.23222 2.33343 2.42672 1.4672 1.35755 1.4672 1.24411 1.35755 1.4672 
1.12969 1.24411 1.35755 1.4672 1.01722 1.12969 1.24411 1.35755 1.4672 
0.909371 1.01722 1.12969 1.24411 1.35755 1.4672 0.808166 0.909371 1.01722 
1.12969 1.24411 1.35755 1.4672 0.714871 0.808166 0.909371 1.01722 1.12969 
1.24411 1.35755 1.4672 0.603812 0.57405 0.693022 0.540021 0.667908 0.792164 
0.500837 0.638778 0.773562 0.900726 0.455383 0.604649 0.751687 0.890581 1.01722 
0.402264 0.564217 0.725619 0.878514 1.01722 1.13912 0.339753 0.515737 0.694072 
0.863926 1.01722 1.15026 1.26302 0.265762 0.456853 0.655207 0.845941 1.01722 
1.16363 1.28529 1.38521 0.227158 0.312971 0.494626 0.494626 0.680215 0.770593 
1.01722 1.01722 1.01722 1.01722 2.12437 1.5708 1.36763 1.27109 1.2157 
2.64697 2.12437 1.77397 1.5708 1.44781 1.36763 2.82862 2.46138 2.12437 
1.8705 1.69378 1.5708 1.48273 2.91443 2.64697 2.371 2.12437 1.9259 
1.77397 1.65886 1.5708 1.75639 1.8563 1.87857 1.97796 1.99133 2.00248 
2.12437 2.12437 2.12437 2.12437 2.29565 2.27767 2.26308 2.25101 2.24087 
2.48639 2.44752 2.41597 2.38991 2.36803 2.34943 2.68474 2.62586 2.57738 
2.53694 2.50281 2.47368 2.44857 2.87583 2.80184 2.73933 2.68621 2.64076 
2.60157 2.56754 2.53778 5.86049 5.90139 5.97231 5.94739 6.02165 6.09275 
5.99927 6.07676 6.15015 6.21902 6.0579 6.13831 6.2135 0 0.0641696 
6.12418 6.20694 6.28319 0.069689 0.13304 0.190437 6.19903 0 0.0762451 
0.144876 0.206423 0.261531 0.310872 0 0.0841597 0.159004 0.225289 0.283913 
0.335793 0.381792 0.422692 5.86049 5.97231 5.90139 6.09275 6.02165 5.94739 
6.21902 6.15015 6.07676 5.99927 0.0641696 0 6.2135 6.13831 6.0579 
0.190437 0.13304 0.069689 6.28319 6.20694 6.12418 0.310872 0.261531 0.206423 
0.144876 0.0762451 6.28319 6.19903 0.422692 0.381792 0.335793 0.283913 0.225289 
0.159004 0.0841597 0 5.67937 5.70914 5.59016 5.74316 5.61528 5.49102 
5.78235 5.64441 5.50962 5.38246 5.8278 5.67854 5.5315 5.3926 5.26596 
5.88092 5.71897 5.55757 5.40467 5.26596 5.14407 5.94343 5.76745 5.58911 
5.41926 5.26596 5.13292 5.02016 6.01742 5.82633 5.62798 5.43724 5.26596 
5.11955 4.99789 4.89798 1.38521 1.28529 1.26302 1.16363 1.15026 1.13912 
1.01722 1.01722 1.01722 1.01722 0.845941 0.863926 0.878514 0.890581 0.900726 
0.655207 0.694072 0.725619 0.751687 0.773562 0.792164 0.456853 0.515737 0.564217 
0.604649 0.638778 0.667908 0.693022 0.265762 0.339753 0.402264 0.455383 0.500837 
0.540021 0.57405 0.603812 
