# vtk DataFile Version 4.0
vtk output
ASCII
DATASET POLYDATA
POINTS 1002 float
-89.7403 -99.8253 72.7684 -84.094 -106.847 73.1981 -83.9121 -95.6685 72.2793 
-78.9441 -103.774 72.8916 -85.2287 -102.068 77.7544 -82.4392 -100.075 77.578 
-86.0267 -102.656 67.5925 -81.803 -100.693 68.1279 -79.6361 -108.838 77.168 
-87.9444 -94.1454 75.5689 -79.1068 -109.227 69.5551 -88.8673 -94.6787 69.7913 
-89.1733 -100.183 72.7813 -88.4373 -100.576 72.8195 -87.9688 -101.488 72.8889 
-87.642 -102.57 72.9649 -86.9508 -103.217 73.0618 -86.0933 -103.793 73.1534 
-85.4046 -104.595 73.1309 -84.7803 -105.324 73.0422 -84.3037 -106.024 73.0594 
-89.3753 -99.8177 73.2274 -88.9862 -99.873 73.6797 -88.5619 -100.056 74.2396 
-87.9594 -100.217 74.8281 -87.2522 -100.323 75.2743 -86.6891 -100.568 75.7212 
-86.2767 -100.927 76.2843 -85.9017 -101.26 76.8167 -85.5545 -101.629 77.2861 
-89.8063 -100.166 72.3087 -89.6427 -100.461 71.8244 -89.178 -100.602 71.2097 
-88.7457 -100.793 70.4855 -88.4684 -101.234 69.8125 -88.0901 -101.747 69.2393 
-87.6129 -102.116 68.6774 -87.1527 -102.337 68.1597 -86.629 -102.492 67.7986 
-89.909 -99.2638 73.1523 -90.1005 -98.5951 73.6481 -90.2309 -97.8514 73.9897 
-90.1122 -96.9969 74.1191 -89.9088 -96.1022 74.3641 -89.8027 -95.3664 74.7607 
-89.4947 -94.8452 74.9888 -88.8937 -94.481 75.0863 -88.3353 -94.2569 75.2878 
-90.0131 -99.282 72.3709 -90.0715 -98.4025 71.8858 -90.237 -97.7022 71.5055 
-90.5907 -97.3628 71.1963 -90.8295 -96.784 70.7156 -90.809 -95.782 70.124 
-90.6048 -95.0187 69.7739 -90.1891 -94.7671 69.7408 -89.5587 -94.7144 69.7949 
-84.0542 -106.475 73.6217 -84.0376 -105.97 74.0719 -84.1548 -105.485 74.5945 
-84.2883 -105.038 75.1155 -84.2125 -104.433 75.5601 -84.161 -103.767 76.021 
-84.4727 -103.342 76.5697 -84.9067 -103.034 77.0919 -85.1348 -102.591 77.4768 
-84.2254 -106.595 72.6794 -84.4265 -106.333 72.1471 -84.6688 -106.061 71.5006 
-84.8954 -105.642 70.7659 -85.0035 -104.995 70.1415 -85.0029 -104.282 69.7019 
-85.1017 -103.679 69.2691 -85.3891 -103.226 68.7089 -85.7342 -102.911 68.1049 
-83.9706 -107.53 73.7038 -83.6859 -108.06 74.2175 -83.0559 -108.29 74.5248 
-82.3216 -108.524 74.7915 -81.8074 -108.962 75.3214 -81.4464 -109.247 75.8683 
-81.057 -109.219 76.1407 -80.5708 -109.133 76.4037 -80.0355 -109.046 76.8295 
-83.9568 -107.495 72.9376 -83.5513 -107.928 72.5006 -82.9214 -108.163 72.0668 
-82.338 -108.447 71.7155 -81.8391 -108.874 71.2674 -81.3273 -109.258 70.804 
-80.8387 -109.434 70.5216 -80.2882 -109.433 70.233 -79.635 -109.364 69.8345 
-83.4498 -96.3855 72.3972 -82.6327 -96.9131 72.5516 -81.9881 -97.5914 72.632 
-81.6655 -98.625 72.6042 -81.0705 -99.5875 72.5814 -80.3102 -100.341 72.6266 
-79.9626 -101.25 72.6837 -79.7404 -102.24 72.7388 -79.3176 -103.057 72.8167 
-83.8484 -96.0122 72.7382 -83.7094 -96.3473 73.2646 -83.5041 -96.6864 73.8929 
-83.2751 -97.1301 74.5459 -83.1566 -97.7217 75.0803 -83.2236 -98.4237 75.4799 
-83.2922 -99.1433 75.9014 -83.1473 -99.6715 76.4613 -82.8096 -99.9165 77.0753 
-83.7459 -95.8918 71.8622 -83.4678 -96.2086 71.3699 -83.0707 -96.53 70.771 
-82.6559 -96.8651 70.162 -82.4488 -97.498 69.7784 -82.5206 -98.4933 69.6671 
-82.5996 -99.4029 69.5074 -82.4395 -99.9447 69.0738 -82.1085 -100.301 68.5397 
-84.0743 -95.0281 72.5228 -84.3056 -94.4535 72.84 -84.8201 -94.0608 73.1534 
-85.383 -93.7572 73.5287 -85.6891 -93.4484 74.0844 -85.9563 -93.243 74.6315 
-86.4776 -93.28 74.9859 -87.1228 -93.5114 75.2578 -87.6355 -93.8068 75.482 
-83.9969 -94.881 71.9267 -84.1041 -94.1078 71.4606 -84.5397 -93.6024 70.8967 
-85.2995 -93.3313 70.4645 -86.1577 -93.1439 70.269 -86.9475 -93.0443 70.0649 
-87.5335 -93.0829 69.7786 -87.9639 -93.3672 69.644 -88.4133 -93.9574 69.7046 
-79.1886 -103.478 73.2833 -79.6823 -103.303 73.6843 -80.2418 -103.223 74.1301 
-80.5264 -102.962 74.6838 -80.6478 -102.442 75.2689 -80.9574 -101.881 75.7334 
-81.3992 -101.362 76.1337 -81.7968 -100.874 76.6068 -82.145 -100.456 77.1224 
-79.0059 -103.608 72.4461 -79.1017 -103.3 71.8954 -79.1808 -102.84 71.2004 
-79.3175 -102.419 70.5295 -79.5614 -102.1 70.0297 -79.9357 -101.788 69.5888 
-80.4912 -101.528 69.179 -81.0844 -101.321 68.8461 -81.5046 -101.041 68.4964 
-78.8907 -104.414 73.1849 -79.0288 -105.26 73.4344 -79.1285 -106.092 73.702 
-79.0403 -106.725 74.1367 -78.9297 -107.308 74.6752 -78.9532 -107.905 75.1521 
-79.0403 -108.32 75.6378 -79.1259 -108.536 76.2216 -79.2948 -108.696 76.7829 
-78.7434 -104.45 72.6643 -78.5253 -105.134 72.4275 -78.1987 -105.802 72.1672 
-77.9469 -106.548 71.7607 -77.933 -107.399 71.2329 -78.0741 -108.256 70.7997 
-78.2794 -108.943 70.4668 -78.5004 -109.275 70.0931 -78.7412 -109.293 69.7467 
-85.102 -102.059 78.2237 -84.9973 -102.077 78.725 -84.761 -101.94 79.0947 
-84.289 -101.554 79.1737 -83.7457 -101.115 79.0874 -83.2384 -100.72 78.9808 
-82.757 -100.311 78.7733 -82.4472 -100.026 78.4434 -82.3879 -99.9812 78.0468 
-84.7739 -102.792 78.0637 -84.1661 -103.356 78.2603 -83.4585 -103.827 78.231 
-82.7854 -104.45 78.0161 -82.3192 -105.341 77.7699 -82.0336 -106.542 77.7133 
-81.5951 -107.829 77.9053 -80.8782 -108.636 78.0241 -80.1556 -108.822 77.7517 
-85.5657 -101.263 77.746 -86.0603 -100.542 77.8453 -86.7359 -99.9637 78.0404 
-87.3536 -99.1969 78.1359 -87.6391 -98.0908 77.9283 -87.6654 -97.1073 77.3914 
-87.6983 -96.4132 76.7007 -87.8169 -95.6592 76.1451 -87.9209 -94.8157 75.8241 
-81.9834 -100.678 77.6938 -81.6275 -101.618 77.7398 -81.3118 -102.678 77.7793 
-81.0646 -103.669 77.7277 -81.0072 -104.73 77.3542 -80.9895 -105.949 76.886 
-80.7081 -107.116 76.9446 -80.1987 -107.985 77.4233 -79.7736 -108.499 77.5813 
-82.9407 -99.5579 77.6965 -83.4618 -98.9571 77.6904 -84.0159 -98.2197 77.561 
-84.6244 -97.4236 77.4737 -85.1608 -96.7219 77.4054 -85.6577 -96.1234 77.1227 
-86.3338 -95.5098 76.7196 -87.0659 -94.9144 76.3802 -87.5862 -94.457 76.0124 
-85.789 -102.608 67.243 -85.4576 -102.513 66.8952 -84.8985 -102.261 66.5976 
-84.1791 -101.937 66.6326 -83.6224 -101.776 67.0257 -83.2239 -101.662 67.2913 
-82.7148 -101.349 67.2854 -82.1896 -100.985 67.3802 -81.8914 -100.776 67.7125 
-85.2439 -103.036 67.7231 -84.5961 -103.582 67.83 -84.1369 -104.487 67.8703 
-83.5776 -105.61 67.9027 -82.8063 -106.361 68.1574 -82.0414 -106.749 68.6606 
-81.2605 -107.438 69.0224 -80.3708 -108.348 69.1251 -79.5932 -108.933 69.2642 
-86.6372 -102.181 67.2845 -87.129 -101.489 67.1554 -87.5375 -100.699 67.2314 
-88.005 -99.8502 67.3642 -88.4291 -98.8222 67.6187 -88.5534 -97.8581 68.2543 
-88.4885 -97.2499 69.0747 -88.5592 -96.6836 69.6217 -88.7642 -95.791 69.8056 
-81.482 -101.474 68.1142 -81.3587 -102.457 68.2714 -81.1124 -103.444 68.3327 
-80.4907 -104.337 68.1296 -79.8803 -105.125 67.9831 -79.7085 -105.815 68.3025 
-79.6543 -106.645 68.8846 -79.3651 -107.715 69.2321 -79.088 -108.67 69.3382 
-82.4097 -100.126 68.1038 -83.2383 -99.6176 68.2281 -84.0066 -99.0026 68.2916 
-84.6088 -98.1921 68.2388 -85.3203 -97.4249 68.3275 -86.2083 -96.9332 68.7161 
-86.9783 -96.5848 69.2239 -87.574 -96.1043 69.6042 -88.1913 -95.4123 69.7704 
-79.4621 -109.359 76.3589 -79.372 -110.441 75.7491 -79.232 -111.477 75.3605 
-79.1134 -111.741 74.5878 -79.1552 -111.632 73.2325 -79.2089 -111.644 72.0047 
-79.1502 -111.258 71.2854 -79.0773 -110.385 70.7121 -79.051 -109.66 70.0816 
-88.2034 -93.7094 75.0552 -88.5279 -93.3253 74.4379 -88.7298 -92.8971 73.7849 
-88.7288 -92.5676 73.0855 -88.7099 -92.5594 72.2484 -88.7896 -92.6903 71.3147 
-88.9668 -92.7182 70.4821 -89.1721 -92.9113 69.9472 -89.1731 -93.6123 69.7669 
-88.5726 -100.041 73.1157 -88.1088 -100.178 73.5757 -87.8969 -100.633 73.156 
-87.8391 -100.644 74.3324 -87.6426 -101.077 73.7613 -87.6364 -101.789 73.3264 
-87.4822 -101.101 75.0926 -87.5408 -101.743 74.6425 -87.3636 -102.185 73.9839 
-87.2011 -102.735 73.4876 -86.9218 -101.364 75.558 -87.1795 -102.197 75.3429 
-86.963 -102.563 74.6859 -86.5201 -102.787 74.0106 -86.2895 -103.294 73.6053 
-86.3287 -101.556 75.9316 -86.4756 -102.303 75.7153 -86.3394 -102.79 75.2159 
-85.8484 -102.98 74.4847 -85.4919 -103.371 73.9797 -85.4544 -104.046 73.6095 
-85.8338 -101.796 76.3977 -85.7087 -102.32 76.0414 -85.5287 -102.826 75.63 
-85.3103 -103.297 75.0402 -85.0426 -103.725 74.4381 -84.8603 -104.257 73.941 
-84.8179 -104.861 73.4751 -85.4592 -102.158 76.9292 -85.1827 -102.566 76.5032 
-84.8038 -102.929 76.0398 -84.6794 -103.512 75.5737 -84.7386 -104.173 75.0775 
-84.611 -104.649 74.5089 -84.3857 -105.09 73.9229 -84.2964 -105.594 73.437 
-89.8022 -99.5066 73.7836 -90.1123 -98.9703 74.3602 -89.5576 -99.7352 74.3583 
-90.0323 -98.1236 74.6196 -89.7461 -99.251 74.9182 -88.9193 -99.8241 74.8424 
-89.6819 -97.1836 74.6868 -89.4167 -98.3922 75.0979 -88.8821 -99.3134 75.2628 
-87.9891 -99.7401 75.1921 -89.4455 -96.4451 74.9086 -89.0208 -97.5331 75.1689 
-88.6337 -98.5897 75.4911 -88.065 -99.3297 75.6363 -87.2623 -99.8225 75.6329 
-89.195 -95.9143 75.1449 -88.7512 -96.9136 75.368 -88.4111 -97.8439 75.7574 
-88.1837 -98.8709 76.1901 -87.6202 -99.6531 76.3791 -86.817 -100.212 76.3264 
-88.7037 -95.4562 75.2658 -88.3888 -96.4446 75.5732 -88.1289 -97.2324 76.0921 
-88.0843 -98.2388 76.7115 -87.8815 -99.3861 77.1443 -87.1644 -100.087 77.1613 
-86.3739 -100.574 76.9498 -88.2254 -95.0725 75.484 -88.0322 -96.0219 75.8106 
-87.8553 -96.7867 76.4026 -87.8331 -97.6151 77.1047 -87.8047 -98.8035 77.6312 
-87.3565 -99.7929 77.7683 -86.5673 -100.307 77.5731 -85.9246 -100.852 77.354 
-87.5767 -95.2079 76.3604 -86.978 -95.6258 76.9103 -87.478 -95.9568 76.8795 
-86.167 -96.0172 77.4984 -86.8882 -96.1577 77.6571 -87.4404 -96.5824 77.5735 
-85.512 -96.488 77.9693 -86.1581 -96.4264 78.3206 -86.9405 -96.7364 78.332 
-87.4362 -97.366 78.1588 -84.9651 -97.1899 78.0757 -85.4867 -97.0991 78.591 
-86.1794 -97.2343 78.7644 -86.8199 -97.7065 78.6652 -87.196 -98.4601 78.4324 
-84.247 -97.9732 78.0642 -84.7034 -98.0027 78.5634 -85.2656 -98.2148 78.838 
-85.8277 -98.4741 78.8791 -86.3535 -98.9363 78.7588 -86.669 -99.5201 78.4396 
-83.4907 -98.6577 78.1724 -83.7952 -98.6915 78.6189 -84.3114 -99.0945 78.8838 
-84.8109 -99.484 78.9452 -85.35 -99.7955 78.9551 -85.8604 -100.147 78.777 
[...]
POINT_DATA 1002
FIELD FieldData 2
Theta 1 1002 float
2.58802 2.58802 0.553574 0.553574 2.12437 1.01722 2.12437 1.01722 1.5708 
1.5708 1.5708 1.5708 2.68241 2.78649 2.89924 3.01861 3.14159 3.01861 
2.89924 2.78649 2.68241 2.61035 2.61791 2.60515 2.56958 2.51327 2.44184 
2.36202 2.27983 2.1997 2.61035 2.61791 2.60515 2.56958 2.51327 2.44184 
2.36202 2.27983 2.1997 2.50947 2.41899 2.31794 2.20864 2.0944 1.97902 
1.86631 1.75944 1.66056 2.50947 2.41899 2.31794 2.20864 2.0944 1.97902 
1.86631 1.75944 1.66056 2.61035 2.61791 2.60515 2.56958 2.51327 2.44184 
2.36202 2.27983 2.1997 2.61035 2.61791 2.60515 2.56958 2.51327 2.44184 
2.36202 2.27983 2.1997 2.50947 2.41899 2.31794 2.20864 2.0944 1.97902 
1.86631 1.75944 1.66056 2.50947 2.41899 2.31794 2.20864 2.0944 1.97902 
1.86631 1.75944 1.66056 0.459179 0.355101 0.242354 0.122983 0 0.122983 
0.242354 0.355101 0.459179 0.531246 0.523681 0.536438 0.57201 0.628319 0.699757 
0.779574 0.86176 0.941896 0.531246 0.523681 0.536438 0.57201 0.628319 0.699757 
0.779574 0.86176 0.941896 0.632123 0.7226 0.823657 0.932948 1.0472 1.16257 
1.27528 1.38216 1.48103 0.632123 0.7226 0.823657 0.932948 1.0472 1.16257 
1.27528 1.38216 1.48103 0.531246 0.523681 0.536438 0.57201 0.628319 0.699757 
0.779574 0.86176 0.941896 0.531246 0.523681 0.536438 0.57201 0.628319 0.699757 
0.779574 0.86176 0.941896 0.632123 0.7226 0.823657 0.932948 1.0472 1.16257 
1.27528 1.38216 1.48103 0.632123 0.7226 0.823657 0.932948 1.0472 1.16257 
1.27528 1.38216 1.48103 2.02998 1.9259 1.81315 1.69378 1.5708 1.44781 
1.32844 1.2157 1.11162 2.0928 2.05283 2.00422 1.94767 1.88496 1.81867 
1.75177 1.68695 1.62623 2.0928 2.05283 2.00422 1.94767 1.88496 1.81867 
1.75177 1.68695 1.62623 1.0488 1.08876 1.13737 1.19392 1.25664 1.32292 
1.38982 1.45464 1.51537 1.0488 1.08876 1.13737 1.19392 1.25664 1.32292 
1.38982 1.45464 1.51537 2.02998 1.9259 1.81315 1.69378 1.5708 1.44781 
1.32844 1.2157 1.11162 2.0928 2.05283 2.00422 1.94767 1.88496 1.81867 
1.75177 1.68695 1.62623 2.0928 2.05283 2.00422 1.94767 1.88496 1.81867 
1.75177 1.68695 1.62623 1.0488 1.08876 1.13737 1.19392 1.25664 1.32292 
1.38982 1.45464 1.51537 1.0488 1.08876 1.13737 1.19392 1.25664 1.32292 
1.38982 1.45464 1.51537 1.5708 1.5708 1.5708 1.5708 1.5708 1.5708 
1.5708 1.5708 1.5708 1.5708 1.5708 1.5708 1.5708 1.5708 1.5708 
1.5708 1.5708 1.5708 2.70908 2.71362 2.81592 2.68886 2.81002 2.92597 
2.6349 2.76254 2.89233 3.01997 2.55881 2.68262 2.80854 2.92834 3.01997 
2.47007 2.58462 2.70048 2.80854 2.89233 2.92597 2.37702 2.48017 2.58462 
2.68262 2.76254 2.81002 2.81592 2.28567 2.37702 2.47007 2.55881 2.6349 
2.68886 2.71362 2.70908 2.52097 2.4195 2.51718 2.30791 2.40503 2.49426 
2.18928 2.28408 2.3734 2.45144 2.06758 2.15805 2.24572 2.32523 2.39165 
1.94707 2.03138 2.11543 2.19453 2.26401 2.32035 1.83164 1.90847 1.98711 
2.06376 2.13422 2.1949 2.24359 1.72413 1.79288 1.86489 1.93728 2.00658 
2.06938 2.12312 2.16654 1.5708 1.50988 1.63171 1.44492 1.5708 1.69667 
1.37826 1.5059 1.63569 1.76333 1.31281 1.43962 1.5708 1.70197 1.82878 
1.25155 1.37501 1.50478 1.63681 1.76659 1.89004 1.19686 1.31493 1.44074 
1.5708 1.70086 1.82666 1.94473 1.15011 1.26149 1.38136 1.50697 1.63462 
1.76024 1.88011 1.99148 1.99148 1.88011 1.94473 1.76024 1.82666 1.89004 
1.63462 1.70086 1.76659 1.82878 1.50697 1.5708 1.63681 1.70197 1.76333 
1.38136 1.44074 1.50478 1.5708 1.63569 1.69667 1.26149 1.31493 1.37501 
1.43962 1.5059 1.5708 1.63171 1.15011 1.19686 1.25155 1.31281 1.37826 
1.44492 1.50988 1.5708 2.16654 2.12312 2.24359 2.06938 2.1949 2.32035 
2.00658 2.13422 2.26401 2.39165 1.93728 2.06376 2.19453 2.32523 2.45144 
1.86489 1.98711 2.11543 2.24572 2.3734 2.49426 1.79288 1.90847 2.03138 
2.15805 2.28408 2.40503 2.51718 1.72413 1.83164 1.94707 2.06758 2.18928 
2.30791 2.4195 2.52097 1.66533 1.66946 1.76911 1.67254 1.777 1.88041 
1.67418 1.78222 1.89102 1.99634 1.67418 1.78405 1.89674 2.00785 2.11299 
1.67254 1.78222 1.89674 2.01191 2.12307 2.22608 1.66946 1.777 1.89102 
2.00785 2.12307 2.23222 2.33166 1.66533 1.76911 1.88041 1.99634 2.11299 
2.22608 2.33166 2.42672 1.47626 1.37249 1.47213 1.26118 1.36459 1.46906 
1.14526 1.25058 1.35938 1.46741 1.0286 1.13374 1.24485 1.35755 1.46741 
0.915514 1.01852 1.12969 1.24485 1.35938 1.46906 0.809937 0.909371 1.01852 
1.13374 1.25058 1.36459 1.47213 0.714871 0.809937 0.915514 1.0286 1.14526 
1.26118 1.37249 1.47626 0.975055 0.898002 1.01847 0.821245 0.946693 1.07221 
0.749941 0.877585 1.00737 1.13501 0.690152 0.816367 0.94706 1.07784 1.20431 
0.647337 0.768195 0.895868 1.02616 1.15448 1.2767 0.624416 0.736561 0.857515 
0.983547 1.11021 1.23313 1.34871 0.620619 0.722093 0.833684 0.952313 1.07402 
1.19452 1.30996 1.41746 0.855925 0.764569 0.764569 0.671524 0.661425 0.671524 
0.582786 0.556971 0.556971 0.582786 0.506696 0.458968 0.441109 0.458968 0.506696 
0.45273 0.379052 0.333054 0.333054 0.379052 0.45273 0.427969 0.331576 0.249267 
0.21325 0.249267 0.331576 0.427969 0.432512 0.325669 0.215619 0.121622 0.121622 
0.215619 0.325669 0.432512 0.432512 0.427969 0.325669 0.45273 0.331576 0.215619 
0.506696 0.379052 0.249267 0.121622 0.582786 0.458968 0.333054 0.21325 0.121622 
0.671524 0.556971 0.441109 0.333054 0.249267 0.215619 0.764569 0.661425 0.556971 
0.458968 0.379052 0.331576 0.325669 0.855925 0.764569 0.671524 0.582786 0.506696 
0.45273 0.427969 0.432512 0.975055 1.01847 0.898002 1.07221 0.946693 0.821245 
1.13501 1.00737 0.877585 0.749941 1.20431 1.07784 0.94706 0.816367 0.690152 
1.2767 1.15448 1.02616 0.895868 0.768195 0.647337 1.34871 1.23313 1.11021 
0.983547 0.857515 0.736561 0.624416 1.41746 1.30996 1.19452 1.07402 0.952313 
0.833684 0.722093 0.620619 1.15011 1.26149 1.19686 1.38136 1.31493 1.25155 
1.50697 1.44074 1.37501 1.31281 1.63462 1.5708 1.50478 1.43962 1.37826 
1.76024 1.70086 1.63681 1.5708 1.5059 1.44492 1.88011 1.82666 1.76659 
1.70197 1.63569 1.5708 1.50988 1.99148 1.94473 1.89004 1.82878 1.76333 
1.69667 1.63171 1.5708 1.15011 1.19686 1.26149 1.25155 1.31493 1.38136 
1.31281 1.37501 1.44074 1.50697 1.37826 1.43962 1.50478 1.5708 1.63462 
1.44492 1.5059 1.5708 1.63681 1.70086 1.76024 1.50988 1.5708 1.63569 
1.70197 1.76659 1.82666 1.88011 1.5708 1.63171 1.69667 1.76333 1.82878 
1.89004 1.94473 1.99148 1.72413 1.83164 1.79288 1.94707 1.90847 1.86489 
2.06758 2.03138 1.98711 1.93728 2.18928 2.15805 2.11543 2.06376 2.00658 
2.30791 2.28408 2.24572 2.19453 2.13422 2.06938 2.4195 2.40503 2.3734 
2.32523 2.26401 2.1949 2.12312 2.52097 2.51718 2.49426 2.45144 2.39165 
2.32035 2.24359 2.16654 2.70908 2.81592 2.71362 2.92597 2.81002 2.68886 
3.01997 2.89233 2.76254 2.6349 3.01997 2.92834 2.80854 2.68262 2.55881 
2.92597 2.89233 2.80854 2.70048 2.58462 2.47007 2.81592 2.81002 2.76254 
2.68262 2.58462 2.48017 2.37702 2.70908 2.71362 2.68886 2.6349 2.55881 
2.47007 2.37702 2.28567 2.16654 2.24359 2.12312 2.32035 2.1949 2.06938 
2.39165 2.26401 2.13422 2.00658 2.45144 2.32523 2.19453 2.06376 1.93728 
2.49426 2.3734 2.24572 2.11543 1.98711 1.86489 2.51718 2.40503 2.28408 
2.15805 2.03138 1.90847 1.79288 2.52097 2.4195 2.30791 2.18928 2.06758 
1.94707 1.83164 1.72413 1.66533 1.76911 1.66946 1.88041 1.777 1.67254 
1.99634 1.89102 1.78222 1.67418 2.11299 2.00785 1.89674 1.78405 1.67418 
2.22608 2.12307 2.01191 1.89674 1.78222 1.67254 2.33166 2.23222 2.12307 
2.00785 1.89102 1.777 1.66946 2.42672 2.33166 2.22608 2.11299 1.99634 
1.88041 1.76911 1.66533 1.47626 1.47213 1.37249 1.46906 1.36459 1.26118 
1.46741 1.35938 1.25058 1.14526 1.46741 1.35755 1.24485 1.13374 1.0286 
1.46906 1.35938 1.24485 1.12969 1.01852 0.915514 1.47213 1.36459 1.25058 
1.13374 1.01852 0.909371 0.809937 1.47626 1.37249 1.26118 1.14526 1.0286 
0.915514 0.809937 0.714871 1.41746 1.30996 1.34871 1.19452 1.23313 1.2767 
1.07402 1.11021 1.15448 1.20431 0.952313 0.983547 1.02616 1.07784 1.13501 
0.833684 0.857515 0.895868 0.94706 1.00737 1.07221 0.722093 0.736561 0.768195 
0.816367 0.877585 0.946693 1.01847 0.620619 0.624416 0.647337 0.690152 0.749941 
0.821245 0.898002 0.975055 0.975055 0.898002 1.01847 0.821245 0.946693 1.07221 
0.749941 0.877585 1.00737 1.13501 0.690152 0.816367 0.94706 1.07784 1.20431 
0.647337 0.768195 0.895868 1.02616 1.15448 1.2767 0.624416 0.736561 0.857515 
0.983547 1.11021 1.23313 1.34871 0.620619 0.722093 0.833684 0.952313 1.07402 
1.19452 1.30996 1.41746 
Phi 1 1002 float
6.28319 3.14159 6.28319 3.14159 4.71239 4.71239 1.5708 1.5708 3.69517 
5.72961 2.58802 0.553574 6.28319 6.28319 6.28319 6.28319 3.14159 3.14159 
3.14159 3.14159 3.14159 6.1053 5.8988 5.67687 5.45995 5.26596 5.10322 
4.97131 4.86569 4.78095 0.177881 0.384387 0.606312 0.823235 1.01722 1.17997 
1.31187 1.4175 1.50223 6.18928 6.10703 6.03531 5.97283 5.91832 5.87061 
5.82869 5.79168 5.75886 0.0939024 0.176153 0.247873 0.310351 0.364864 0.412573 
0.454497 0.491504 0.524326 3.31947 3.52598 3.7479 3.96483 4.15881 4.32156 
4.45346 4.55909 4.64383 2.96371 2.75721 2.53528 2.31836 2.12437 1.96162 
1.82972 1.72409 1.63936 3.2355 3.31775 3.38947 3.45194 3.50646 3.55417 
3.59609 3.6331 3.66592 3.04769 2.96544 2.89372 2.83124 2.77673 2.72902 
2.6871 2.65009 2.61727 6.28319 6.28319 6.28319 6.28319 3.14159 3.14159 
3.14159 3.14159 3.14159 6.1053 5.8988 5.67687 5.45995 5.26596 5.10322 
4.97131 4.86569 4.78095 0.177881 0.384387 0.606312 0.823235 1.01722 1.17997 
1.31187 1.4175 1.50223 6.18928 6.10703 6.03531 5.97283 5.91832 5.87061 
5.82869 5.79168 5.75886 0.0939024 0.176153 0.247873 0.310351 0.364864 0.412573 
0.454497 0.491504 0.524326 3.31947 3.52598 3.7479 3.96483 4.15881 4.32156 
4.45346 4.55909 4.64383 2.96371 2.75721 2.53528 2.31836 2.12437 1.96162 
1.82972 1.72409 1.63936 3.2355 3.31775 3.38947 3.45194 3.50646 3.55417 
3.59609 3.6331 3.66592 3.04769 2.96544 2.89372 2.83124 2.77673 2.72902 
2.6871 2.65009 2.61727 4.71239 4.71239 4.71239 4.71239 4.71239 4.71239 
4.71239 4.71239 4.71239 4.60879 4.49914 4.3857 4.27128 4.15881 4.05096 
3.94976 3.85646 3.77161 4.81599 4.92564 5.03907 5.1535 5.26596 5.37381 
5.47502 5.56831 5.65317 4.60879 4.49914 4.3857 4.27128 4.15881 4.05096 
3.94976 3.85646 3.77161 4.81599 4.92564 5.03907 5.1535 5.26596 5.37381 
5.47502 5.56831 5.65317 1.5708 1.5708 1.5708 1.5708 1.5708 1.5708 
1.5708 1.5708 1.5708 1.6744 1.78405 1.89748 2.01191 2.12437 2.23222 
2.33343 2.42672 2.51157 1.4672 1.35755 1.24411 1.12969 1.01722 0.909371 
0.808166 0.714871 0.63002 1.6744 1.78405 1.89748 2.01191 2.12437 2.23222 
2.33343 2.42672 2.51157 1.4672 1.35755 1.24411 1.12969 1.01722 0.909371 
0.808166 0.714871 0.63002 3.60077 3.49669 3.38395 3.26458 3.14159 3.01861 
2.89924 2.78649 2.68241 5.82401 5.92808 6.04083 6.1602 6.28319 0.122983 
0.242354 0.355101 0.459179 6.05603 5.78856 5.97021 5.51259 5.60297 5.78856 
5.26596 5.26596 5.26596 5.26596 5.06749 5.0121 4.91556 4.71239 4.15881 
4.91556 4.83537 4.71239 4.50922 4.15881 3.63622 4.80045 4.71239 4.58941 
4.41268 4.15881 3.82181 3.45456 4.71239 4.62433 4.50922 4.35729 4.15881 
3.91219 3.63622 3.36875 6.01742 5.94343 5.82633 5.88092 5.76745 5.62798 
5.8278 5.71897 5.58911 5.43724 5.78235 5.67854 5.55757 5.41926 5.26596 
5.74316 5.64441 5.5315 5.40467 5.26596 5.11955 5.70914 5.61528 5.50962 
5.3926 5.26596 5.13292 4.99789 5.67937 5.59016 5.49102 5.38246 5.26596 
5.14407 5.02016 4.89798 5.56831 5.47502 5.47502 5.37381 5.37381 5.37381 
5.26596 5.26596 5.26596 5.26596 5.1535 5.1535 5.1535 5.1535 5.1535 
5.03907 5.03907 5.03907 5.03907 5.03907 5.03907 4.92564 4.92564 4.92564 
4.92564 4.92564 4.92564 4.92564 4.81599 4.81599 4.81599 4.81599 4.81599 
4.81599 4.81599 4.81599 4.60879 4.60879 4.49914 4.60879 4.49914 4.3857 
4.60879 4.49914 4.3857 4.27128 4.60879 4.49914 4.3857 4.27128 4.15881 
4.60879 4.49914 4.3857 4.27128 4.15881 4.05096 4.60879 4.49914 4.3857 
4.27128 4.15881 4.05096 3.94976 4.60879 4.49914 4.3857 4.27128 4.15881 
4.05096 3.94976 3.85646 4.5268 4.40462 4.42689 4.28071 4.29185 4.30523 
4.15881 4.15881 4.15881 4.15881 4.04232 4.03217 4.02011 4.00552 3.98753 
3.93376 3.91515 3.89328 3.86721 3.83566 3.7968 3.83461 3.8095 3.78037 
3.74624 3.70581 3.65733 3.59845 3.7454 3.71564 3.68161 3.64243 3.59698 
3.54386 3.48135 3.40735 3.56428 3.45246 3.52338 3.33203 3.40312 3.47739 
3.20576 3.27463 3.34802 3.42551 3.07742 3.14159 3.21128 3.28647 3.36688 
2.95116 3.00855 3.0719 3.14159 3.21784 3.3006 2.83072 2.88006 2.93517 
2.99672 3.06535 3.14159 3.22575 2.7189 2.7598 2.8058 2.85768 2.9163 
2.98259 3.05743 3.14159 3.56428 3.52338 3.45246 3.47739 3.40312 3.33203 
3.42551 3.34802 3.27463 3.20576 3.36688 3.28647 3.21128 3.14159 3.07742 
3.3006 3.21784 3.14159 3.0719 3.00855 2.95116 3.22575 3.14159 3.06535 
2.99672 2.93517 2.88006 2.83072 3.14159 3.05743 2.98259 2.9163 2.85768 
2.8058 2.7598 2.7189 4.5268 4.42689 4.40462 4.30523 4.29185 4.28071 
4.15881 4.15881 4.15881 4.15881 3.98753 4.00552 4.02011 4.03217 4.04232 
3.7968 3.83566 3.86721 3.89328 3.91515 3.93376 3.59845 3.65733 3.70581 
3.74624 3.78037 3.8095 3.83461 3.40735 3.48135 3.54386 3.59698 3.64243 
3.68161 3.71564 3.7454 4.71239 4.80045 4.62433 4.91556 4.71239 4.50922 
5.06749 4.83537 4.58941 4.35729 5.26596 5.0121 4.71239 4.41268 4.15881 
5.51259 5.26596 4.91556 4.50922 4.15881 3.91219 5.78856 5.60297 5.26596 
4.71239 4.15881 3.82181 3.63622 6.05603 5.97021 5.78856 5.26596 4.15881 
3.63622 3.45456 3.36875 0.227158 0.494626 0.312971 0.770593 0.680215 0.494626 
1.01722 1.01722 1.01722 1.01722 1.2157 1.27109 1.36763 1.5708 2.12437 
1.36763 1.44781 1.5708 1.77397 2.12437 2.64697 1.48273 1.5708 1.69378 
1.8705 2.12437 2.46138 2.82862 1.5708 1.65886 1.77397 1.9259 2.12437 
2.371 2.64697 2.91443 1.75639 1.87857 1.8563 2.00248 1.99133 1.97796 
2.12437 2.12437 2.12437 2.12437 2.24087 2.25101 2.26308 2.27767 2.29565 
2.34943 2.36803 2.38991 2.41597 2.44752 2.48639 2.44857 2.47368 2.50281 
2.53694 2.57738 2.62586 2.68474 2.53778 2.56754 2.60157 2.64076 2.68621 
2.73933 2.80184 2.87583 1.6744 1.6744 1.78405 1.6744 1.78405 1.89748 
1.6744 1.78405 1.89748 2.01191 1.6744 1.78405 1.89748 2.01191 2.12437 
1.6744 1.78405 1.89748 2.01191 2.12437 2.23222 1.6744 1.78405 1.89748 
2.01191 2.12437 2.23222 2.33343 1.6744 1.78405 1.89748 2.01191 2.12437 
2.23222 2.33343 2.42672 1.4672 1.35755 1.4672 1.24411 1.35755 1.4672 
1.12969 1.24411 1.35755 1.4672 1.01722 1.12969 1.24411 1.35755 1.4672 
0.909371 1.01722 1.12969 1.24411 1.35755 1.4672 0.808166 0.909371 1.01722 
1.12969 1.24411 1.35755 1.4672 0.714871 0.808166 0.909371 1.01722 1.12969 
1.24411 1.35755 1.4672 0.603812 0.57405 0.693022 0.540021 0.667908 0.792164 
0.500837 0.638778 0.773562 0.900726 0.455383 0.604649 0.751687 0.890581 1.01722 
0.402264 0.564217 0.725619 0.878514 1.01722 1.13912 0.339753 0.515737 0.694072 
0.863926 1.01722 1.15026 1.26302 0.265762 0.456853 0.655207 0.845941 1.01722 
1.16363 1.28529 1.38521 0.227158 0.312971 0.494626 0.494626 0.680215 0.770593 
1.01722 1.01722 1.01722 1.01722 2.12437 1.5708 1.36763 1.27109 1.2157 
2.64697 2.12437 1.77397 1.5708 1.44781 1.36763 2.82862 2.46138 2.12437 
1.8705 1.69378 1.5708 1.48273 2.91443 2.64697 2.371 2.12437 1.9259 
1.77397 1.65886 1.5708 1.75639 1.8563 1.87857 1.97796 1.99133 2.00248 
2.12437 2.12437 2.12437 2.12437 2.29565 2.27767 2.26308 2.25101 2.24087 
2.48639 2.44752 2.41597 2.38991 2.36803 2.34943 2.68474 2.62586 2.57738 
2.53694 2.50281 2.47368 2.44857 2.87583 2.80184 2.73933 2.68621 2.64076 
2.60157 2.56754 2.53778 5.86049 5.90139 5.97231 5.94739 6.02165 6.09275 
5.99927 6.07676 6.15015 6.21902 6.0579 6.13831 6.2135 0 0.0641696 
6.12418 6.20694 6.28319 0.069689 0.13304 0.190437 6.19903 0 0.0762451 
0.144876 0.206423 0.261531 0.310872 0 0.0841597 0.159004 0.225289 0.283913 
0.335793 0.381792 0.422692 5.86049 5.97231 5.90139 6.09275 6.02165 5.94739 
6.21902 6.15015 6.07676 5.99927 0.0641696 0 6.2135 6.13831 6.0579 
0.190437 0.13304 0.069689 6.28319 6.20694 6.12418 0.310872 0.261531 0.206423 
0.144876 0.0762451 6.28319 6.19903 0.422692 0.381792 0.335793 0.283913 0.225289 
0.159004 0.0841597 0 5.67937 5.70914 5.59016 5.74316 5.61528 5.49102 
5.78235 5.64441 5.50962 5.38246 5.8278 5.67854 5.5315 5.3926 5.26596 
5.88092 5.71897 5.55757 5.40467 5.26596 5.14407 5.94343 5.76745 5.58911 
5.41926 5.26596 5.13292 5.02016 6.01742 5.82633 5.62798 5.43724 5.26596 
5.11955 4.99789 4.89798 1.38521 1.28529 1.26302 1.16363 1.15026 1.13912 
1.01722 1.01722 1.01722 1.01722 0.845941 0.863926 0.878514 0.890581 0.900726 
0.655207 0.694072 0.725619 0.751687 0.773562 0.792164 0.456853 0.515737 0.564217 
0.604649 0.638778 0.667908 0.693022 0.265762 0.339753 0.402264 0.455383 0.500837 
0.540021 0.57405 0.603812 
