# vtk DataFile Version 4.0
vtk output
ASCII
DATASET POLYDATA
POINTS 1002 float
-89.5408 -99.5346 72.8872 -84.1043 -106.022 71.7977 -83.6622 -95.6968 72.4243 
-78.4852 -102.767 72.0697 -85.0489 -102.089 76.5109 -82.185 -100.147 76.7492 
-85.656 -101.48 68.0463 -81.8061 -99.3934 67.7952 -79.5746 -109.159 75.1817 
-87.5741 -94.3914 75.972 -79.5347 -108.067 68.4983 -88.719 -93.3419 69.6924 
-89.1208 -99.9698 72.7333 -88.5926 -100.538 72.5328 -88.19 -101.456 72.3876 
-87.9165 -102.416 72.3474 -87.2989 -102.992 72.2808 -86.302 -103.431 72.1201 
-85.5706 -104.132 72.0115 -85.2115 -104.94 71.9904 -84.7619 -105.574 71.9309 
-89.1261 -99.5216 73.2754 -88.5982 -99.5507 73.4835 -88.1284 -99.758 73.7436 
-87.845 -100.189 74.3258 -87.6198 -100.677 75.0042 -87.1962 -101.037 75.4217 
-86.5557 -101.277 75.6748 -85.9316 -101.508 75.9526 -85.4591 -101.788 76.247 
-89.5742 -99.7662 72.2477 -89.3791 -99.8403 71.5626 -89.007 -99.8419 71.0011 
-88.6184 -99.9968 70.5092 -88.2379 -100.38 69.9388 -87.7923 -100.758 69.2863 
-87.2924 -100.943 68.7617 -86.7285 -101.042 68.5229 -86.1309 -101.218 68.3717 
-89.6211 -98.928 73.235 -89.6794 -98.1968 73.476 -89.7738 -97.6146 73.8653 
-89.8116 -97.1156 74.5245 -89.7016 -96.3693 75.0155 -89.4207 -95.5307 75.0992 
-88.954 -95.0199 75.1546 -88.4163 -94.78 75.3841 -87.963 -94.57 75.6708 
-89.903 -99.1451 72.618 -90.1348 -98.4455 72.2987 -90.2323 -97.5544 71.9659 
-90.2156 -96.8346 71.6215 -90.0769 -96.1386 71.2545 -89.8869 -95.1105 70.7696 
-89.7769 -94.1867 70.1938 -89.6529 -93.7918 69.794 -89.2971 -93.6022 69.6779 
-84.2679 -105.888 72.3007 -84.3101 -105.586 72.6416 -84.2825 -105.127 73.0478 
-84.4178 -104.785 73.7474 -84.6523 -104.547 74.4957 -84.6806 -104.044 75.0006 
-84.6153 -103.355 75.3746 -84.7301 -102.838 75.7585 -84.9361 -102.473 76.1468 
-84.3426 -105.859 71.2342 -84.6322 -105.697 70.6135 -84.9241 -105.454 70.0922 
-84.9762 -104.918 69.7067 -84.836 -104.181 69.4258 -84.8863 -103.555 69.1528 
-85.1292 -103.027 68.8119 -85.3207 -102.474 68.5155 -85.4733 -101.946 68.3011 
-83.4957 -106.349 71.9983 -82.9424 -106.736 72.2371 -82.5652 -107.284 72.5623 
-82.2407 -107.892 72.914 -81.752 -108.308 73.2104 -81.1741 -108.525 73.4481 
-80.7443 -108.72 73.7094 -80.4199 -108.939 74.135 -80.0229 -109.122 74.7041 
-83.5546 -106.354 71.304 -83.0695 -106.747 70.8289 -82.659 -107.166 70.4682 
-82.2151 -107.639 70.0976 -81.7136 -108.13 69.6753 -81.2076 -108.398 69.3934 
-80.7171 -108.433 69.209 -80.2694 -108.449 68.9304 -79.8797 -108.381 68.6395 
-83.159 -96.1425 72.4172 -82.5538 -96.6999 72.4746 -82.0925 -97.5659 72.4145 
-81.6833 -98.5454 72.2165 -80.914 -99.2129 72.1838 -79.9797 -99.6498 72.3555 
-79.4324 -100.296 72.381 -79.1614 -101.188 72.2131 -78.8251 -102.049 72.0909 
-83.6804 -96.0856 72.9229 -83.5099 -96.3813 73.5189 -83.1362 -96.514 74.1681 
-82.8308 -96.7397 74.8097 -82.6861 -97.2042 75.2648 -82.5415 -97.7581 75.5827 
-82.4349 -98.345 76.0098 -82.4119 -98.9668 76.4176 -82.3409 -99.5683 76.6152 
-83.3537 -95.6472 72.0331 -83.0829 -95.7549 71.7308 -82.817 -96.0313 71.2211 
-82.4557 -96.3402 70.4248 -82.1485 -96.7807 69.7769 -82.0957 -97.4578 69.373 
-82.1343 -98.0712 68.8596 -82.0517 -98.4802 68.3156 -81.9037 -98.901 67.9881 
-84.0324 -95.3435 72.8463 -84.2609 -94.7829 73.3832 -84.453 -94.2471 73.8894 
-84.774 -93.8939 74.38 -85.2319 -93.6261 74.8832 -85.7417 -93.5392 75.2239 
-86.2819 -93.738 75.3781 -86.8192 -93.9762 75.5486 -87.2694 -94.1422 75.784 
-83.8966 -95.1763 72.2054 -84.2559 -94.6217 71.927 -84.779 -94.0086 71.5204 
-85.352 -93.4821 71.0787 -85.9688 -93.1328 70.6484 -86.6497 -92.647 70.1732 
-87.2331 -92.0518 69.809 -87.7072 -91.9676 69.6953 -88.2195 -92.5496 69.6937 
-78.8495 -102.737 72.4721 -79.2243 -102.573 72.8594 -79.5321 -102.291 73.303 
-79.8503 -102.019 73.8913 -80.2729 -101.785 74.4689 -80.7741 -101.527 74.9027 
-81.3114 -101.244 75.3204 -81.8081 -100.942 75.7816 -82.11 -100.577 76.253 
-78.4239 -102.335 71.6317 -78.5978 -101.951 71.1399 -78.8933 -101.64 70.6332 
-79.1096 -101.286 70.1027 -79.3519 -100.882 69.5787 -79.8138 -100.572 69.1485 
-80.387 -100.326 68.7891 -80.8989 -100.015 68.4174 -81.3476 -99.6764 68.0604 
-78.4946 -103.477 72.2835 -78.6395 -104.319 72.4123 -78.7133 -105.249 72.61 
-78.5753 -106.053 73.0589 -78.4225 -106.705 73.5364 -78.4613 -107.439 73.8256 
-78.6107 -108.225 74.1644 -78.8065 -108.809 74.6466 -79.1255 -109.104 75.0256 
-78.1767 -103.203 71.8194 -78.0059 -103.746 71.5395 -77.9592 -104.434 71.1009 
-77.9552 -105.258 70.474 -77.9045 -106.208 69.8749 -77.8596 -107.126 69.4358 
-78.0369 -107.687 69.1161 -78.4984 -107.861 68.9042 -79.0519 -107.937 68.7299 
-84.7749 -102.006 76.8847 -84.5223 -101.992 77.3263 -84.3752 -102.053 77.7829 
-84.0992 -101.898 78.0267 -83.5141 -101.408 78.022 -82.8842 -100.963 78.0209 
-82.4399 -100.732 77.9971 -82.1766 -100.509 77.71 -82.1075 -100.279 77.2196 
-84.5123 -102.653 76.5244 -83.8613 -103.296 76.5208 -83.2462 -104.007 76.5153 
-82.7511 -104.674 76.4722 -82.2926 -105.337 76.2775 -81.8011 -106.201 75.9327 
-81.2484 -107.26 75.6926 -80.6184 -108.237 75.6497 -80.0189 -108.876 75.5408 
-85.322 -101.411 76.6668 -85.5369 -100.561 76.7001 -85.9017 -99.7559 76.7589 
-86.5086 -99.1287 77.023 -87.0082 -98.3791 77.2241 -87.1429 -97.3328 77.1073 
-87.171 -96.2934 76.9197 -87.3205 -95.4804 76.7735 -87.4947 -94.8609 76.4657 
-81.9474 -100.998 76.6905 -81.6166 -101.838 76.6951 -81.3002 -102.685 76.5371 
-81.0487 -103.528 76.2896 -80.7663 -104.338 76.102 -80.3361 -105.261 75.7944 
-79.8182 -106.49 75.5186 -79.4615 -107.819 75.5774 -79.4149 -108.767 75.6079 
-82.2808 -99.2533 77.225 -82.5402 -98.3009 77.7291 -83.2064 -97.5855 77.9577 
-84.1118 -97.1068 77.8328 -84.9071 -96.4213 77.7479 -85.5522 -95.4489 77.9617 
-86.1244 -94.7321 78.059 -86.6399 -94.5108 77.5875 -87.1278 -94.4785 76.74 
-85.5314 -101.341 67.5295 -85.3526 -101.149 67.0376 -85.0953 -100.977 66.8474 
-84.6827 -100.71 66.8739 -84.0415 -100.161 66.7643 -83.385 -99.6387 66.6337 
-82.9379 -99.5325 66.8375 -82.5625 -99.6116 67.2412 -82.1454 -99.5494 67.5568 
-85.2639 -102.106 67.72 -84.8904 -102.791 67.4211 -84.2035 -103.432 67.395 
-83.2618 -104.088 67.5544 -82.3899 -104.912 67.649 -81.56 -105.969 67.5577 
-80.7556 -107.021 67.3901 -80.2037 -107.676 67.4849 -79.8731 -107.912 67.953 
-86.1703 -100.882 67.9347 -86.8465 -100.305 67.6966 -87.472 -99.5867 67.5225 
-87.8196 -98.5774 67.6283 -87.9032 -97.5197 68.1212 -87.9215 -96.7825 68.9279 
-88.0696 -96.2149 69.636 -88.3786 -95.4174 69.88 -88.6596 -94.3728 69.7925 
-81.4404 -100.044 67.6919 -81.1253 -100.759 67.6078 -80.7919 -101.557 67.6499 
-80.2415 -102.479 67.6642 -79.5926 -103.626 67.5616 -79.213 -104.837 67.584 
-79.1682 -105.821 67.8071 -79.279 -106.632 68.0295 -79.4219 -107.408 68.2177 
-82.341 -98.7691 67.6707 -82.8567 -97.9636 67.5157 -83.3578 -97.1998 67.5427 
-84.0229 -96.8515 67.984 -84.9567 -96.7692 68.7096 -85.9018 -96.4053 69.3304 
-86.6328 -95.6153 69.6578 -87.3049 -94.6589 69.7626 -88.0443 -93.8379 69.7491 
-79.5002 -109.299 74.3356 -79.3985 -109.536 73.5108 -79.1918 -110.109 72.9799 
-78.9621 -110.8 72.3937 -78.8842 -111.027 71.5131 -78.9365 -110.603 70.6579 
-78.9746 -109.918 70.0226 -79.0644 -109.251 69.5094 -79.2953 -108.615 69.0126 
-87.8197 -94.0565 75.2965 -87.98 -93.8482 74.671 -88.1559 -93.7446 73.8682 
-88.4374 -93.3487 72.9913 -88.6018 -92.7234 72.4342 -88.546 -92.434 71.9476 
-88.5811 -92.4536 71.0976 -88.8002 -92.4892 70.208 -88.9073 -92.7201 69.747 
-88.6672 -100.093 73.0842 -88.1549 -100.295 73.3347 -88.1702 -100.834 72.8172 
-87.8059 -100.681 73.8013 -87.7453 -101.149 73.185 -87.8225 -101.769 72.7062 
-87.6426 -101.216 74.5588 -87.5202 -101.63 73.882 -87.4273 -102.073 73.2264 
-87.4544 -102.61 72.7916 -87.3356 -101.652 75.1597 -87.3152 -102.159 74.6463 
-87.0912 -102.508 73.9164 -86.8952 -102.868 73.3209 -86.696 -103.211 72.794 
-86.6582 -101.842 75.4003 -86.7255 -102.406 75.0327 -86.5797 -102.824 74.4317 
-86.2626 -103.119 73.7759 -86.0477 -103.481 73.2241 -85.8591 -103.858 72.6495 
-85.8693 -101.938 75.5585 -85.8205 -102.401 75.1539 -85.7928 -102.907 74.6944 
-85.5883 -103.285 74.1331 -85.3579 -103.637 73.5366 -85.3549 -104.174 73.0081 
-85.3637 -104.669 72.5263 -85.3088 -102.146 75.8233 -85.096 -102.493 75.3686 
-85.0424 -103.023 74.957 -85.0433 -103.595 74.5364 -84.8741 -103.958 73.9489 
-84.7724 -104.367 73.2827 -84.8851 -104.953 72.8014 -84.9222 -105.389 72.429 
-89.146 -98.8769 73.4998 -89.1751 -98.2137 73.6922 -88.5872 -98.8789 73.6541 
-89.2614 -97.7632 74.2192 -88.6232 -98.2904 73.9854 -88.1418 -99.1251 74.0685 
-89.2833 -97.3138 74.9143 -88.7428 -97.9499 74.681 -88.2356 -98.6394 74.6541 
-87.8649 -99.6257 74.7983 -89.0993 -96.5785 75.2245 -88.7304 -97.5244 75.2511 
-88.3544 -98.3411 75.3489 -87.9332 -99.2195 75.4103 -87.5383 -100.137 75.3914 
-88.6908 -95.8862 75.311 -88.3796 -96.8433 75.4647 -88.1741 -97.8414 75.7344 
-87.8947 -98.8694 75.938 -87.4393 -99.7283 75.8651 -86.9862 -100.5 75.735 
-88.193 -95.5124 75.5941 -87.8547 -96.2939 75.7672 -87.6822 -97.1743 76.021 
-87.5919 -98.2945 76.2922 -87.2455 -99.3 76.3174 -86.7379 -100.025 76.1607 
-86.3258 -100.773 76.0576 -87.7922 -95.2165 76.021 -87.4844 -95.9273 76.2608 
-87.2889 -96.6982 76.4645 -87.2721 -97.7178 76.6923 -87.0631 -98.7814 76.746 
-86.5303 -99.5419 76.5722 -86.0497 -100.239 76.4384 -85.7608 -101.062 76.3812 
-87.1398 -94.8353 77.2484 -86.7737 -94.9061 77.8831 -87.112 -95.5734 77.3753 
-86.1952 -95.4709 78.1057 -86.7714 -96.0202 77.8163 -87.0595 -96.7842 77.4453 
-85.4306 -96.4451 78.072 -86.0364 -96.838 78.1672 -86.5856 -97.4993 78.0222 
-86.9179 -98.039 77.6866 -84.6759 -97.2303 78.0996 -85.249 -97.5348 78.3832 
-85.7606 -98.0176 78.5384 -86.2316 -98.5224 78.2521 -86.4836 -98.8608 77.6167 
-83.8174 -97.7263 78.1625 -84.5576 -97.9961 78.3213 -85.0846 -98.3334 78.5403 
-85.4555 -98.7848 78.4652 -85.7479 -99.213 77.8784 -85.8482 -99.4893 77.1945 
-82.9128 -98.3946 78.022 -83.639 -98.6406 78.13 -84.3439 -98.9208 78.1938 
-84.8111 -99.3317 78.2304 -85.1457 -99.8599 77.9927 -85.3138 -100.194 77.4764 
[...]
POINT_DATA 1002
FIELD FieldData 2
Theta 1 1002 float
2.58802 2.58802 0.553574 0.553574 2.12437 1.01722 2.12437 1.01722 1.5708 
1.5708 1.5708 1.5708 2.68241 2.78649 2.89924 3.01861 3.14159 3.01861 
2.89924 2.78649 2.68241 2.61035 2.61791 2.60515 2.56958 2.51327 2.44184 
2.36202 2.27983 2.1997 2.61035 2.61791 2.60515 2.56958 2.51327 2.44184 
2.36202 2.27983 2.1997 2.50947 2.41899 2.31794 2.20864 2.0944 1.97902 
1.86631 1.75944 1.66056 2.50947 2.41899 2.31794 2.20864 2.0944 1.97902 
1.86631 1.75944 1.66056 2.61035 2.61791 2.60515 2.56958 2.51327 2.44184 
2.36202 2.27983 2.1997 2.61035 2.61791 2.60515 2.56958 2.51327 2.44184 
2.36202 2.27983 2.1997 2.50947 2.41899 2.31794 2.20864 2.0944 1.97902 
1.86631 1.75944 1.66056 2.50947 2.41899 2.31794 2.20864 2.0944 1.97902 
1.86631 1.75944 1.66056 0.459179 0.355101 0.242354 0.122983 0 0.122983 
0.242354 0.355101 0.459179 0.531246 0.523681 0.536438 0.57201 0.628319 0.699757 
0.779574 0.86176 0.941896 0.531246 0.523681 0.536438 0.57201 0.628319 0.699757 
0.779574 0.86176 0.941896 0.632123 0.7226 0.823657 0.932948 1.0472 1.16257 
1.27528 1.38216 1.48103 0.632123 0.7226 0.823657 0.932948 1.0472 1.16257 
1.27528 1.38216 1.48103 0.531246 0.523681 0.536438 0.57201 0.628319 0.699757 
0.779574 0.86176 0.941896 0.531246 0.523681 0.536438 0.57201 0.628319 0.699757 
0.779574 0.86176 0.941896 0.632123 0.7226 0.823657 0.932948 1.0472 1.16257 
1.27528 1.38216 1.48103 0.632123 0.7226 0.823657 0.932948 1.0472 1.16257 
1.27528 1.38216 1.48103 2.02998 1.9259 1.81315 1.69378 1.5708 1.44781 
1.32844 1.2157 1.11162 2.0928 2.05283 2.00422 1.94767 1.88496 1.81867 
1.75177 1.68695 1.62623 2.0928 2.05283 2.00422 1.94767 1.88496 1.81867 
1.75177 1.68695 1.62623 1.0488 1.08876 1.13737 1.19392 1.25664 1.32292 
1.38982 1.45464 1.51537 1.0488 1.08876 1.13737 1.19392 1.25664 1.32292 
1.38982 1.45464 1.51537 2.02998 1.9259 1.81315 1.69378 1.5708 1.44781 
1.32844 1.2157 1.11162 2.0928 2.05283 2.00422 1.94767 1.88496 1.81867 
1.75177 1.68695 1.62623 2.0928 2.05283 2.00422 1.94767 1.88496 1.81867 
1.75177 1.68695 1.62623 1.0488 1.08876 1.13737 1.19392 1.25664 1.32292 
1.38982 1.45464 1.51537 1.0488 1.08876 1.13737 1.19392 1.25664 1.32292 
1.38982 1.45464 1.51537 1.5708 1.5708 1.5708 1.5708 1.5708 1.5708 
1.5708 1.5708 1.5708 1.5708 1.5708 1.5708 1.5708 1.5708 1.5708 
1.5708 1.5708 1.5708 2.70908 2.71362 2.81592 2.68886 2.81002 2.92597 
2.6349 2.76254 2.89233 3.01997 2.55881 2.68262 2.80854 2.92834 3.01997 
2.47007 2.58462 2.70048 2.80854 2.89233 2.92597 2.37702 2.48017 2.58462 
2.68262 2.76254 2.81002 2.81592 2.28567 2.37702 2.47007 2.55881 2.6349 
2.68886 2.71362 2.70908 2.52097 2.4195 2.51718 2.30791 2.40503 2.49426 
2.18928 2.28408 2.3734 2.45144 2.06758 2.15805 2.24572 2.32523 2.39165 
1.94707 2.03138 2.11543 2.19453 2.26401 2.32035 1.83164 1.90847 1.98711 
2.06376 2.13422 2.1949 2.24359 1.72413 1.79288 1.86489 1.93728 2.00658 
2.06938 2.12312 2.16654 1.5708 1.50988 1.63171 1.44492 1.5708 1.69667 
1.37826 1.5059 1.63569 1.76333 1.31281 1.43962 1.5708 1.70197 1.82878 
1.25155 1.37501 1.50478 1.63681 1.76659 1.89004 1.19686 1.31493 1.44074 
1.5708 1.70086 1.82666 1.94473 1.15011 1.26149 1.38136 1.50697 1.63462 
1.76024 1.88011 1.99148 1.99148 1.88011 1.94473 1.76024 1.82666 1.89004 
1.63462 1.70086 1.76659 1.82878 1.50697 1.5708 1.63681 1.70197 1.76333 
1.38136 1.44074 1.50478 1.5708 1.63569 1.69667 1.26149 1.31493 1.37501 
1.43962 1.5059 1.5708 1.63171 1.15011 1.19686 1.25155 1.31281 1.37826 
1.44492 1.50988 1.5708 2.16654 2.12312 2.24359 2.06938 2.1949 2.32035 
2.00658 2.13422 2.26401 2.39165 1.93728 2.06376 2.19453 2.32523 2.45144 
1.86489 1.98711 2.11543 2.24572 2.3734 2.49426 1.79288 1.90847 2.03138 
2.15805 2.28408 2.40503 2.51718 1.72413 1.83164 1.94707 2.06758 2.18928 
2.30791 2.4195 2.52097 1.66533 1.66946 1.76911 1.67254 1.777 1.88041 
1.67418 1.78222 1.89102 1.99634 1.67418 1.78405 1.89674 2.00785 2.11299 
1.67254 1.78222 1.89674 2.01191 2.12307 2.22608 1.66946 1.777 1.89102 
2.00785 2.12307 2.23222 2.33166 1.66533 1.76911 1.88041 1.99634 2.11299 
2.22608 2.33166 2.42672 1.47626 1.37249 1.47213 1.26118 1.36459 1.46906 
1.14526 1.25058 1.35938 1.46741 1.0286 1.13374 1.24485 1.35755 1.46741 
0.915514 1.01852 1.12969 1.24485 1.35938 1.46906 0.809937 0.909371 1.01852 
1.13374 1.25058 1.36459 1.47213 0.714871 0.809937 0.915514 1.0286 1.14526 
1.26118 1.37249 1.47626 0.975055 0.898002 1.01847 0.821245 0.946693 1.07221 
0.749941 0.877585 1.00737 1.13501 0.690152 0.816367 0.94706 1.07784 1.20431 
0.647337 0.768195 0.895868 1.02616 1.15448 1.2767 0.624416 0.736561 0.857515 
0.983547 1.11021 1.23313 1.34871 0.620619 0.722093 0.833684 0.952313 1.07402 
1.19452 1.30996 1.41746 0.855925 0.764569 0.764569 0.671524 0.661425 0.671524 
0.582786 0.556971 0.556971 0.582786 0.506696 0.458968 0.441109 0.458968 0.506696 
0.45273 0.379052 0.333054 0.333054 0.379052 0.45273 0.427969 0.331576 0.249267 
0.21325 0.249267 0.331576 0.427969 0.432512 0.325669 0.215619 0.121622 0.121622 
0.215619 0.325669 0.432512 0.432512 0.427969 0.325669 0.45273 0.331576 0.215619 
0.506696 0.379052 0.249267 0.121622 0.582786 0.458968 0.333054 0.21325 0.121622 
0.671524 0.556971 0.441109 0.333054 0.249267 0.215619 0.764569 0.661425 0.556971 
0.458968 0.379052 0.331576 0.325669 0.855925 0.764569 0.671524 0.582786 0.506696 
0.45273 0.427969 0.432512 0.975055 1.01847 0.898002 1.07221 0.946693 0.821245 
1.13501 1.00737 0.877585 0.749941 1.20431 1.07784 0.94706 0.816367 0.690152 
1.2767 1.15448 1.02616 0.895868 0.768195 0.647337 1.34871 1.23313 1.11021 
0.983547 0.857515 0.736561 0.624416 1.41746 1.30996 1.19452 1.07402 0.952313 
0.833684 0.722093 0.620619 1.15011 1.26149 1.19686 1.38136 1.31493 1.25155 
1.50697 1.44074 1.37501 1.31281 1.63462 1.5708 1.50478 1.43962 1.37826 
1.76024 1.70086 1.63681 1.5708 1.5059 1.44492 1.88011 1.82666 1.76659 
1.70197 1.63569 1.5708 1.50988 1.99148 1.94473 1.89004 1.82878 1.76333 
1.69667 1.63171 1.5708 1.15011 1.19686 1.26149 1.25155 1.31493 1.38136 
1.31281 1.37501 1.44074 1.50697 1.37826 1.43962 1.50478 1.5708 1.63462 
1.44492 1.5059 1.5708 1.63681 1.70086 1.76024 1.50988 1.5708 1.63569 
1.70197 1.76659 1.82666 1.88011 1.5708 1.63171 1.69667 1.76333 1.82878 
1.89004 1.94473 1.99148 1.72413 1.83164 1.79288 1.94707 1.90847 1.86489 
2.06758 2.03138 1.98711 1.93728 2.18928 2.15805 2.11543 2.06376 2.00658 
2.30791 2.28408 2.24572 2.19453 2.13422 2.06938 2.4195 2.40503 2.3734 
2.32523 2.26401 2.1949 2.12312 2.52097 2.51718 2.49426 2.45144 2.39165 
2.32035 2.24359 2.16654 2.70908 2.81592 2.71362 2.92597 2.81002 2.68886 
3.01997 2.89233 2.76254 2.6349 3.01997 2.92834 2.80854 2.68262 2.55881 
2.92597 2.89233 2.80854 2.70048 2.58462 2.47007 2.81592 2.81002 2.76254 
2.68262 2.58462 2.48017 2.37702 2.70908 2.71362 2.68886 2.6349 2.55881 
2.47007 2.37702 2.28567 2.16654 2.24359 2.12312 2.32035 2.1949 2.06938 
2.39165 2.26401 2.13422 2.00658 2.45144 2.32523 2.19453 2.06376 1.93728 
2.49426 2.3734 2.24572 2.11543 1.98711 1.86489 2.51718 2.40503 2.28408 
2.15805 2.03138 1.90847 1.79288 2.52097 2.4195 2.30791 2.18928 2.06758 
1.94707 1.83164 1.72413 1.66533 1.76911 1.66946 1.88041 1.777 1.67254 
1.99634 1.89102 1.78222 1.67418 2.11299 2.00785 1.89674 1.78405 1.67418 
2.22608 2.12307 2.01191 1.89674 1.78222 1.67254 2.33166 2.23222 2.12307 
2.00785 1.89102 1.777 1.66946 2.42672 2.33166 2.22608 2.11299 1.99634 
1.88041 1.76911 1.66533 1.47626 1.47213 1.37249 1.46906 1.36459 1.26118 
1.46741 1.35938 1.25058 1.14526 1.46741 1.35755 1.24485 1.13374 1.0286 
1.46906 1.35938 1.24485 1.12969 1.01852 0.915514 1.47213 1.36459 1.25058 
1.13374 1.01852 0.909371 0.809937 1.47626 1.37249 1.26118 1.14526 1.0286 
0.915514 0.809937 0.714871 1.41746 1.30996 1.34871 1.19452 1.23313 1.2767 
1.07402 1.11021 1.15448 1.20431 0.952313 0.983547 1.02616 1.07784 1.13501 
0.833684 0.857515 0.895868 0.94706 1.00737 1.07221 0.722093 0.736561 0.768195 
0.816367 0.877585 0.946693 1.01847 0.620619 0.624416 0.647337 0.690152 0.749941 
0.821245 0.898002 0.975055 0.975055 0.898002 1.01847 0.821245 0.946693 1.07221 
0.749941 0.877585 1.00737 1.13501 0.690152 0.816367 0.94706 1.07784 1.20431 
0.647337 0.768195 0.895868 1.02616 1.15448 1.2767 0.624416 0.736561 0.857515 
0.983547 1.11021 1.23313 1.34871 0.620619 0.722093 0.833684 0.952313 1.07402 
1.19452 1.30996 1.41746 
Phi 1 1002 float
6.28319 3.14159 6.28319 3.14159 4.71239 4.71239 1.5708 1.5708 3.69517 
5.72961 2.58802 0.553574 6.28319 6.28319 6.28319 6.28319 3.14159 3.14159 
3.14159 3.14159 3.14159 6.1053 5.8988 5.67687 5.45995 5.26596 5.10322 
4.97131 4.86569 4.78095 0.177881 0.384387 0.606312 0.823235 1.01722 1.17997 
1.31187 1.4175 1.50223 6.18928 6.10703 6.03531 5.97283 5.91832 5.87061 
5.82869 5.79168 5.75886 0.0939024 0.176153 0.247873 0.310351 0.364864 0.412573 
0.454497 0.491504 0.524326 3.31947 3.52598 3.7479 3.96483 4.15881 4.32156 
4.45346 4.55909 4.64383 2.96371 2.75721 2.53528 2.31836 2.12437 1.96162 
1.82972 1.72409 1.63936 3.2355 3.31775 3.38947 3.45194 3.50646 3.55417 
3.59609 3.6331 3.66592 3.04769 2.96544 2.89372 2.83124 2.77673 2.72902 
2.6871 2.65009 2.61727 6.28319 6.28319 6.28319 6.28319 3.14159 3.14159 
3.14159 3.14159 3.14159 6.1053 5.8988 5.67687 5.45995 5.26596 5.10322 
4.97131 4.86569 4.78095 0.177881 0.384387 0.606312 0.823235 1.01722 1.17997 
1.31187 1.4175 1.50223 6.18928 6.10703 6.03531 5.97283 5.91832 5.87061 
5.82869 5.79168 5.75886 0.0939024 0.176153 0.247873 0.310351 0.364864 0.412573 
0.454497 0.491504 0.524326 3.31947 3.52598 3.7479 3.96483 4.15881 4.32156 
4.45346 4.55909 4.64383 2.96371 2.75721 2.53528 2.31836 2.12437 1.96162 
1.82972 1.72409 1.63936 3.2355 3.31775 3.38947 3.45194 3.50646 3.55417 
3.59609 3.6331 3.66592 3.04769 2.96544 2.89372 2.83124 2.77673 2.72902 
2.6871 2.65009 2.61727 4.71239 4.71239 4.71239 4.71239 4.71239 4.71239 
4.71239 4.71239 4.71239 4.60879 4.49914 4.3857 4.27128 4.15881 4.05096 
3.94976 3.85646 3.77161 4.81599 4.92564 5.03907 5.1535 5.26596 5.37381 
5.47502 5.56831 5.65317 4.60879 4.49914 4.3857 4.27128 4.15881 4.05096 
3.94976 3.85646 3.77161 4.81599 4.92564 5.03907 5.1535 5.26596 5.37381 
5.47502 5.56831 5.65317 1.5708 1.5708 1.5708 1.5708 1.5708 1.5708 
1.5708 1.5708 1.5708 1.6744 1.78405 1.89748 2.01191 2.12437 2.23222 
2.33343 2.42672 2.51157 1.4672 1.35755 1.24411 1.12969 1.01722 0.909371 
0.808166 0.714871 0.63002 1.6744 1.78405 1.89748 2.01191 2.12437 2.23222 
2.33343 2.42672 2.51157 1.4672 1.35755 1.24411 1.12969 1.01722 0.909371 
0.808166 0.714871 0.63002 3.60077 3.49669 3.38395 3.26458 3.14159 3.01861 
2.89924 2.78649 2.68241 5.82401 5.92808 6.04083 6.1602 6.28319 0.122983 
0.242354 0.355101 0.459179 6.05603 5.78856 5.97021 5.51259 5.60297 5.78856 
5.26596 5.26596 5.26596 5.26596 5.06749 5.0121 4.91556 4.71239 4.15881 
4.91556 4.83537 4.71239 4.50922 4.15881 3.63622 4.80045 4.71239 4.58941 
4.41268 4.15881 3.82181 3.45456 4.71239 4.62433 4.50922 4.35729 4.15881 
3.91219 3.63622 3.36875 6.01742 5.94343 5.82633 5.88092 5.76745 5.62798 
5.8278 5.71897 5.58911 5.43724 5.78235 5.67854 5.55757 5.41926 5.26596 
5.74316 5.64441 5.5315 5.40467 5.26596 5.11955 5.70914 5.61528 5.50962 
5.3926 5.26596 5.13292 4.99789 5.67937 5.59016 5.49102 5.38246 5.26596 
5.14407 5.02016 4.89798 5.56831 5.47502 5.47502 5.37381 5.37381 5.37381 
5.26596 5.26596 5.26596 5.26596 5.1535 5.1535 5.1535 5.1535 5.1535 
5.03907 5.03907 5.03907 5.03907 5.03907 5.03907 4.92564 4.92564 4.92564 
4.92564 4.92564 4.92564 4.92564 4.81599 4.81599 4.81599 4.81599 4.81599 
4.81599 4.81599 4.81599 4.60879 4.60879 4.49914 4.60879 4.49914 4.3857 
4.60879 4.49914 4.3857 4.27128 4.60879 4.49914 4.3857 4.27128 4.15881 
4.60879 4.49914 4.3857 4.27128 4.15881 4.05096 4.60879 4.49914 4.3857 
4.27128 4.15881 4.05096 3.94976 4.60879 4.49914 4.3857 4.27128 4.15881 
4.05096 3.94976 3.85646 4.5268 4.40462 4.42689 4.28071 4.29185 4.30523 
4.15881 4.15881 4.15881 4.15881 4.04232 4.03217 4.02011 4.00552 3.98753 
3.93376 3.91515 3.89328 3.86721 3.83566 3.7968 3.83461 3.8095 3.78037 
3.74624 3.70581 3.65733 3.59845 3.7454 3.71564 3.68161 3.64243 3.59698 
3.54386 3.48135 3.40735 3.56428 3.45246 3.52338 3.33203 3.40312 3.47739 
3.20576 3.27463 3.34802 3.42551 3.07742 3.14159 3.21128 3.28647 3.36688 
2.95116 3.00855 3.0719 3.14159 3.21784 3.3006 2.83072 2.88006 2.93517 
2.99672 3.06535 3.14159 3.22575 2.7189 2.7598 2.8058 2.85768 2.9163 
2.98259 3.05743 3.14159 3.56428 3.52338 3.45246 3.47739 3.40312 3.33203 
3.42551 3.34802 3.27463 3.20576 3.36688 3.28647 3.21128 3.14159 3.07742 
3.3006 3.21784 3.14159 3.0719 3.00855 2.95116 3.22575 3.14159 3.06535 
2.99672 2.93517 2.88006 2.83072 3.14159 3.05743 2.98259 2.9163 2.85768 
2.8058 2.7598 2.7189 4.5268 4.42689 4.40462 4.30523 4.29185 4.28071 
4.15881 4.15881 4.15881 4.15881 3.98753 4.00552 4.02011 4.03217 4.04232 
3.7968 3.83566 3.86721 3.89328 3.91515 3.93376 3.59845 3.65733 3.70581 
3.74624 3.78037 3.8095 3.83461 3.40735 3.48135 3.54386 3.59698 3.64243 
3.68161 3.71564 3.7454 4.71239 4.80045 4.62433 4.91556 4.71239 4.50922 
5.06749 4.83537 4.58941 4.35729 5.26596 5.0121 4.71239 4.41268 4.15881 
5.51259 5.26596 4.91556 4.50922 4.15881 3.91219 5.78856 5.60297 5.26596 
4.71239 4.15881 3.82181 3.63622 6.05603 5.97021 5.78856 5.26596 4.15881 
3.63622 3.45456 3.36875 0.227158 0.494626 0.312971 0.770593 0.680215 0.494626 
1.01722 1.01722 1.01722 1.01722 1.2157 1.27109 1.36763 1.5708 2.12437 
1.36763 1.44781 1.5708 1.77397 2.12437 2.64697 1.48273 1.5708 1.69378 
1.8705 2.12437 2.46138 2.82862 1.5708 1.65886 1.77397 1.9259 2.12437 
2.371 2.64697 2.91443 1.75639 1.87857 1.8563 2.00248 1.99133 1.97796 
2.12437 2.12437 2.12437 2.12437 2.24087 2.25101 2.26308 2.27767 2.29565 
2.34943 2.36803 2.38991 2.41597 2.44752 2.48639 2.44857 2.47368 2.50281 
2.53694 2.57738 2.62586 2.68474 2.53778 2.56754 2.60157 2.64076 2.68621 
2.73933 2.80184 2.87583 1.6744 1.6744 1.78405 1.6744 1.78405 1.89748 
1.6744 1.78405 1.89748 2.01191 1.6744 1.78405 1.89748 2.01191 2.12437 
1.6744 1.78405 1.89748 2.01191 2.12437 2.23222 1.6744 1.78405 1.89748 
2.01191 2.12437 2.23222 2.33343 1.6744 1.78405 1.89748 2.01191 2.12437 
2.23222 2.33343 2.42672 1.4672 1.35755 1.4672 1.24411 1.35755 1.4672 
1.12969 1.24411 1.35755 1.4672 1.01722 1.12969 1.24411 1.35755 1.4672 
0.909371 1.01722 1.12969 1.24411 1.35755 1.4672 0.808166 0.909371 1.01722 
1.12969 1.24411 1.35755 1.4672 0.714871 0.808166 0.909371 1.01722 1.12969 
1.24411 1.35755 1.4672 0.603812 0.57405 0.693022 0.540021 0.667908 0.792164 
0.500837 0.638778 0.773562 0.900726 0.455383 0.604649 0.751687 0.890581 1.01722 
0.402264 0.564217 0.725619 0.878514 1.01722 1.13912 0.339753 0.515737 0.694072 
0.863926 1.01722 1.15026 1.26302 0.265762 0.456853 0.655207 0.845941 1.01722 
1.16363 1.28529 1.38521 0.227158 0.312971 0.494626 0.494626 0.680215 0.770593 
1.01722 1.01722 1.01722 1.01722 2.12437 1.5708 1.36763 1.27109 1.2157 
2.64697 2.12437 1.77397 1.5708 1.44781 1.36763 2.82862 2.46138 2.12437 
1.8705 1.69378 1.5708 1.48273 2.91443 2.64697 2.371 2.12437 1.9259 
1.77397 1.65886 1.5708 1.75639 1.8563 1.87857 1.97796 1.99133 2.00248 
2.12437 2.12437 2.12437 2.12437 2.29565 2.27767 2.26308 2.25101 2.24087 
2.48639 2.44752 2.41597 2.38991 2.36803 2.34943 2.68474 2.62586 2.57738 
2.53694 2.50281 2.47368 2.44857 2.87583 2.80184 2.73933 2.68621 2.64076 
2.60157 2.56754 2.53778 5.86049 5.90139 5.97231 5.94739 6.02165 6.09275 
5.99927 6.07676 6.15015 6.21902 6.0579 6.13831 6.2135 0 0.0641696 
6.12418 6.20694 6.28319 0.069689 0.13304 0.190437 6.19903 0 0.0762451 
0.144876 0.206423 0.261531 0.310872 0 0.0841597 0.159004 0.225289 0.283913 
0.335793 0.381792 0.422692 5.86049 5.97231 5.90139 6.09275 6.02165 5.94739 
6.21902 6.15015 6.07676 5.99927 0.0641696 0 6.2135 6.13831 6.0579 
0.190437 0.13304 0.069689 6.28319 6.20694 6.12418 0.310872 0.261531 0.206423 
0.144876 0.0762451 6.28319 6.19903 0.422692 0.381792 0.335793 0.283913 0.225289 
0.159004 0.0841597 0 5.67937 5.70914 5.59016 5.74316 5.61528 5.49102 
5.78235 5.64441 5.50962 5.38246 5.8278 5.67854 5.5315 5.3926 5.26596 
5.88092 5.71897 5.55757 5.40467 5.26596 5.14407 5.94343 5.76745 5.58911 
5.41926 5.26596 5.13292 5.02016 6.01742 5.82633 5.62798 5.43724 5.26596 
5.11955 4.99789 4.89798 1.38521 1.28529 1.26302 1.16363 1.15026 1.13912 
1.01722 1.01722 1.01722 1.01722 0.845941 0.863926 0.878514 0.890581 0.900726 
0.655207 0.694072 0.725619 0.751687 0.773562 0.792164 0.456853 0.515737 0.564217 
0.604649 0.638778 0.667908 0.693022 0.265762 0.339753 0.402264 0.455383 0.500837 
0.540021 0.57405 0.603812 
