# vtk DataFile Version 4.0
vtk output
ASCII
DATASET POLYDATA
POINTS 1002 float
-88.548 -97.8262 71.6932 -84.0377 -105.05 71.3557 -82.5579 -94.2474 70.8092 
-79.0141 -102.271 70.7767 -84.4939 -100.355 76.074 -81.8959 -98.8549 75.7295 
-86.1676 -101.31 66.6667 -81.6739 -98.7978 66.8425 -79.6122 -107.362 74.7562 
-86.7631 -93.4877 74.066 -79.2499 -108.124 67.2972 -87.7038 -92.0156 68.2952 
-88.3141 -98.593 71.7275 -87.8101 -99.1201 71.6175 -87.2726 -99.8179 71.5759 
-86.9873 -100.922 71.633 -86.7087 -101.871 71.5903 -85.952 -102.264 71.3932 
-84.9493 -102.619 71.1966 -84.353 -103.374 71.1408 -84.2019 -104.304 71.2299 
-88.3281 -98.0214 72.1145 -87.8325 -98.0454 72.3977 -87.2621 -98.1674 72.7582 
-87.0083 -98.6185 73.4705 -86.9631 -99.1725 74.3396 -86.5561 -99.4749 74.8872 
-85.8148 -99.5922 75.0668 -85.2522 -99.7895 75.249 -84.9043 -100.092 75.6333 
-88.5344 -98.0732 71.2546 -88.4546 -98.3437 70.7553 -88.4084 -98.7847 70.2149 
-88.3741 -99.367 69.6007 -88.2024 -99.8119 68.898 -87.8971 -100.106 68.1456 
-87.5761 -100.497 67.4607 -87.2048 -100.93 67.0085 -86.7119 -101.193 66.7974 
-88.5346 -97.0319 71.8053 -88.514 -96.261 71.8982 -88.5863 -95.7154 72.1101 
-88.587 -95.2272 72.4746 -88.4047 -94.591 72.8588 -88.2397 -94.0274 73.2067 
-88.0648 -93.6894 73.5796 -87.6885 -93.4996 73.8892 -87.2094 -93.4559 74.0198 
-88.6228 -96.9042 71.1796 -88.8359 -95.9877 70.6205 -89.4356 -95.6686 70.3595 
-90.0473 -95.565 70.1692 -90.1614 -94.6785 69.5875 -89.8791 -93.4294 69.0807 
-89.3856 -92.9418 69.1765 -88.7019 -92.9216 69.3033 -88.0679 -92.5781 68.9165 
-84.1014 -104.816 71.8153 -84.165 -104.485 72.3685 -84.1692 -103.99 72.948 
-84.2066 -103.477 73.4503 -84.3504 -103.047 73.9926 -84.5062 -102.6 74.6665 
-84.6105 -102.127 75.2505 -84.6436 -101.61 75.5964 -84.5813 -100.978 75.8276 
-84.2458 -104.94 70.89 -84.5168 -104.831 70.4297 -84.6843 -104.527 69.8709 
-84.7487 -103.953 69.2976 -84.8729 -103.302 68.9001 -85.1115 -102.79 68.528 
-85.4801 -102.48 67.9213 -85.9063 -102.239 67.2564 -86.1558 -101.862 66.8419 
-83.6907 -105.483 71.772 -83.2042 -105.843 72.1656 -82.6282 -106.112 72.3973 
-81.9911 -106.409 72.614 -81.4536 -106.839 73.0109 -81.2273 -107.298 73.4848 
-81.075 -107.689 73.9963 -80.6051 -107.918 74.5404 -79.9841 -107.806 74.8414 
-83.7063 -105.497 71.069 -83.1131 -105.82 70.612 -82.4604 -106.123 70.1418 
-82.0154 -106.595 69.7412 -81.7966 -107.319 69.2133 -81.5489 -107.99 68.5715 
-81.0237 -108.183 68.1448 -80.2961 -108.043 67.9237 -79.6614 -108.015 67.6443 
-82.2268 -94.8639 70.8397 -81.8746 -95.622 70.8636 -81.4604 -96.4344 70.8661 
-80.9839 -97.2431 70.883 -80.3878 -98.0413 70.9239 -79.7716 -98.8767 70.9322 
-79.4184 -99.7734 70.8713 -79.3401 -100.678 70.774 -79.2607 -101.524 70.7233 
-82.5278 -94.543 71.291 -82.4059 -94.8508 71.7626 -82.3143 -95.3191 72.2974 
-82.3424 -95.9294 72.9377 -82.263 -96.4237 73.5909 -82.0083 -96.81 74.2102 
-81.8382 -97.2699 74.7994 -81.8169 -97.78 75.258 -81.8405 -98.3021 75.534 
-82.3102 -94.2678 70.3091 -82.0754 -94.3823 69.7803 -81.9924 -94.7251 69.2968 
-82.0349 -95.2113 68.85 -82.0133 -95.7149 68.3631 -81.8806 -96.3061 67.8998 
-81.7715 -96.9762 67.5515 -81.7421 -97.6228 67.2715 -81.7236 -98.2383 67.03 
-82.9443 -93.9188 71.1305 -83.443 -93.6083 71.5654 -84.0048 -93.2891 72.016 
-84.4376 -92.9532 72.3533 -84.719 -92.6342 72.7511 -85.0604 -92.373 73.3212 
-85.5205 -92.3211 73.7154 -85.9826 -92.6224 73.7886 -86.396 -93.1097 73.8466 
-82.8885 -93.7905 70.4791 -83.5352 -93.5001 70.1587 -84.3522 -93.2402 69.8895 
-84.9603 -92.756 69.6177 -85.4225 -92.2986 69.35 -86.0815 -92.1661 69.1354 
-86.7858 -91.9442 68.798 -87.2422 -91.5254 68.326 -87.5031 -91.4899 68.1006 
-79.2238 -102.13 71.2575 -79.3425 -101.822 71.817 -79.3879 -101.342 72.4772 
-79.5261 -100.844 73.1362 -79.843 -100.483 73.6747 -80.296 -100.238 74.1702 
-80.8271 -99.9936 74.6497 -81.3075 -99.6622 75.016 -81.6385 -99.2486 75.3391 
-78.9438 -101.879 70.2866 -78.9263 -101.514 69.9193 -79.2154 -101.346 69.6276 
-79.6043 -101.164 69.1437 -79.5935 -100.59 68.396 -79.4627 -99.8054 67.7403 
-79.8524 -99.3311 67.4196 -80.5814 -99.1814 67.25 -81.1894 -99.0368 67.0408 
-78.7173 -102.846 71.223 -78.3521 -103.288 71.6964 -78.2852 -103.863 72.0088 
-78.5615 -104.808 72.1918 -78.7679 -105.708 72.4973 -78.8527 -106.135 72.9396 
-79.0854 -106.394 73.3564 -79.3238 -106.786 73.7905 -79.4253 -107.161 74.2989 
-78.6615 -102.811 70.554 -78.3365 -103.497 70.2926 -78.1275 -104.286 69.9731 
-78.0926 -105.128 69.554 -78.0709 -105.968 69.0292 -77.9016 -106.731 68.4817 
-77.8992 -107.497 67.9383 -78.2959 -108.167 67.4674 -78.814 -108.379 67.2484 
-84.1397 -100.173 76.475 -83.9462 -100.17 76.8997 -83.9977 -100.314 77.4717 
-83.8092 -100.157 78.0058 -83.1938 -99.6041 77.9954 -82.8091 -99.2809 77.4782 
-82.7874 -99.3302 76.9652 -82.5884 -99.2772 76.5673 -82.191 -99.0429 76.1456 
-84.0242 -100.93 76.2769 -83.6073 -101.567 76.3615 -83.2473 -102.228 76.2809 
-82.7017 -102.903 76.107 -82.0665 -103.727 75.9545 -81.7069 -104.73 75.8115 
-81.3805 -105.664 75.5983 -80.7394 -106.378 75.3442 -80.046 -106.931 75.0855 
-84.7719 -99.7076 76.1279 -85.0297 -99.0552 76.1971 -85.2697 -98.3304 76.2205 
-85.8036 -97.5965 76.2741 -86.6231 -96.7497 76.4019 -87.1405 -95.5749 76.3872 
-87.1531 -94.4725 76.0298 -87.0081 -93.9688 75.3907 -86.8847 -93.8078 74.672 
-81.7787 -99.6513 75.7175 -81.542 -100.396 75.8123 -81.1832 -101.053 75.875 
-80.7405 -101.817 75.8436 -80.2379 -102.85 75.8593 -79.8764 -103.99 75.7329 
-79.8015 -104.943 75.2389 -79.789 -105.72 74.7847 -79.6786 -106.533 74.7081 
-82.1494 -98.175 76.0405 -82.5003 -97.5351 76.2445 -82.9639 -96.9078 76.136 
-83.5602 -96.2525 75.8094 -84.1772 -95.4929 75.6755 -84.6654 -94.6267 75.8106 
-85.1739 -93.9801 75.7372 -85.7999 -93.7645 75.2142 -86.3569 -93.6987 74.5529 
-85.8346 -100.988 66.4419 -85.616 -100.716 66.1343 -85.3845 -100.476 65.9978 
-84.8153 -100.089 66.079 -83.9744 -99.5739 66.049 -83.3522 -99.2628 65.9765 
-82.9843 -99.2149 66.1846 -82.5291 -99.1435 66.4946 -82.0234 -98.9682 66.6792 
-85.5996 -101.789 66.6199 -84.9289 -102.347 66.6366 -84.223 -103.002 66.7438 
-83.3984 -103.658 66.91 -82.4686 -104.404 67.0261 -81.6677 -105.405 67.0721 
-80.9633 -106.372 67.1383 -80.2433 -107.033 67.2086 -79.6534 -107.573 67.2355 
-86.4284 -100.563 66.6619 -86.8007 -99.6929 66.6366 -87.3245 -98.7384 66.6196 
-87.7113 -97.71 66.8134 -87.8111 -96.6879 67.2368 -87.8502 -95.6938 67.7043 
-87.9231 -94.6661 68.0968 -87.9066 -93.6461 68.3092 -87.7999 -92.7397 68.3211 
-81.274 -99.4003 66.7311 -80.8635 -99.907 66.5749 -80.581 -100.675 66.5437 
-80.3495 -101.989 66.7013 -79.9208 -103.5 66.8398 -79.3996 -104.841 66.8208 
-79.1288 -106.073 66.752 -79.1175 -107.119 66.7741 -79.1732 -107.783 66.9581 
-82.235 -98.1444 66.7977 -82.8797 -97.4478 66.8376 -83.5878 -96.8469 67.0115 
-84.3162 -96.2322 67.2501 -85.0555 -95.4402 67.4346 -85.919 -94.4979 67.4799 
-86.8628 -93.468 67.4184 -87.4778 -92.5419 67.4524 -87.6249 -92.0467 67.7621 
-79.4805 -108.038 74.362 -79.3769 -108.594 73.7041 -79.2226 -109.031 72.9915 
-79.0736 -109.422 72.2106 -79.0158 -109.643 71.0955 -78.9947 -109.539 69.8954 
-78.9679 -109.265 69.017 -78.9968 -108.971 68.3346 -79.1047 -108.591 67.7244 
-86.9456 -92.8611 73.5798 -87.2396 -92.0985 73.1483 -87.6156 -91.6136 72.6216 
-87.8849 -91.4815 71.9289 -88.0408 -91.2962 71.1411 -88.3047 -90.9814 70.4015 
-88.5078 -90.9599 69.7696 -88.3144 -91.3101 69.2076 -87.917 -91.7032 68.7093 
-87.9384 -98.6443 72.0747 -87.3977 -98.7284 72.4246 -87.4518 -99.2982 72.0792 
-86.9801 -99.0801 72.9667 -87.0916 -99.6702 72.6312 -87.1609 -100.357 72.2284 
-86.8367 -99.5903 73.7061 -86.7053 -100.047 73.1445 -86.8676 -100.8 72.8137 
-86.9767 -101.538 72.3119 -86.5807 -99.9648 74.3775 -86.3074 -100.294 73.5994 
-86.2028 -100.858 73.1045 -86.4244 -101.688 72.7987 -86.3979 -102.201 72.1798 
-85.9214 -100.162 74.7788 -85.8497 -100.576 74.1542 -85.6558 -100.986 73.4682 
-85.6422 -101.616 73.09 -85.6712 -102.248 72.6635 -85.3828 -102.52 71.911 
-85.263 -100.361 75.025 -85.3195 -100.911 74.7146 -85.3522 -101.434 74.1676 
-85.2899 -101.939 73.5933 -85.1452 -102.427 73.1077 -84.884 -102.825 72.4479 
-84.5502 -103.088 71.6813 -84.8973 -100.666 75.3699 -84.9117 -101.246 75.1611 
-84.982 -101.827 74.8119 -85.0063 -102.384 74.2265 -84.8584 -102.82 73.6079 
-84.6125 -103.207 73.0052 -84.3868 -103.609 72.3059 -84.2312 -103.963 71.663 
-88.3127 -97.3128 72.3125 -88.3272 -96.6773 72.5358 -87.8209 -97.4178 72.6736 
-88.374 -96.2103 72.8695 -87.8939 -96.8873 73.0647 -87.284 -97.6017 73.15 
-88.2837 -95.6885 73.2795 -87.9561 -96.4664 73.5572 -87.358 -97.0877 73.6371 
-87.0321 -98.0687 73.936 -88.1156 -95.0575 73.6646 -87.9157 -96.0262 74.0875 
-87.4403 -96.6983 74.2206 -86.9882 -97.4747 74.336 -86.8187 -98.5418 74.6909 
-87.9658 -94.4894 74.0255 -87.8347 -95.4852 74.5818 -87.5685 -96.3871 74.9518 
-87.0862 -97.0682 74.9553 -86.6256 -97.8507 74.9682 -86.2547 -98.7777 75.0851 
-87.6923 -94.0455 74.3622 -87.6642 -94.8072 74.9747 -87.6341 -95.8686 75.5929 
-87.3269 -96.7935 75.7929 -86.6695 -97.4336 75.5852 -86.0446 -98.144 75.4008 
-85.6066 -98.9846 75.3136 -87.2979 -93.8209 74.5777 -87.3706 -94.2136 75.2386 
-87.4866 -95.0906 75.9121 -87.3868 -96.2841 76.2999 -86.7521 -97.1798 76.2048 
-85.9498 -97.8195 75.9274 -85.4543 -98.5455 75.7611 -85.1642 -99.3319 75.67 
-86.487 -93.9227 75.307 -85.8859 -94.0809 75.9403 -86.6166 -94.1546 76.0234 
-85.1567 -94.5621 76.1955 -85.8944 -94.6293 76.4029 -86.6377 -94.9224 76.3933 
-84.5369 -95.4249 76.0721 -84.9896 -95.4128 76.4943 -85.6472 -95.6148 76.5598 
-86.253 -96.1325 76.4351 -84.0369 -96.3822 76.0671 -84.3357 -96.3542 76.6123 
-84.6771 -96.3292 76.981 -85.1299 -96.6634 76.7927 -85.5164 -97.2207 76.4674 
-83.5473 -97.2031 76.3362 -83.9812 -97.3044 76.7848 -84.2014 -97.0709 77.4719 
-84.501 -97.1237 77.6939 -84.8111 -97.6841 77.2106 -85.0328 -98.17 76.6342 
-83.0518 -97.8623 76.52 -83.6184 -98.1234 76.7916 -83.8961 -97.9155 77.3918 
-84.1973 -97.7489 78.0931 -84.6259 -98.2322 78.1025 -84.8136 -98.8433 77.4334 
[...]
POINT_DATA 1002
FIELD FieldData 2
Theta 1 1002 float
2.58802 2.58802 0.553574 0.553574 2.12437 1.01722 2.12437 1.01722 1.5708 
1.5708 1.5708 1.5708 2.68241 2.78649 2.89924 3.01861 3.14159 3.01861 
2.89924 2.78649 2.68241 2.61035 2.61791 2.60515 2.56958 2.51327 2.44184 
2.36202 2.27983 2.1997 2.61035 2.61791 2.60515 2.56958 2.51327 2.44184 
2.36202 2.27983 2.1997 2.50947 2.41899 2.31794 2.20864 2.0944 1.97902 
1.86631 1.75944 1.66056 2.50947 2.41899 2.31794 2.20864 2.0944 1.97902 
1.86631 1.75944 1.66056 2.61035 2.61791 2.60515 2.56958 2.51327 2.44184 
2.36202 2.27983 2.1997 2.61035 2.61791 2.60515 2.56958 2.51327 2.44184 
2.36202 2.27983 2.1997 2.50947 2.41899 2.31794 2.20864 2.0944 1.97902 
1.86631 1.75944 1.66056 2.50947 2.41899 2.31794 2.20864 2.0944 1.97902 
1.86631 1.75944 1.66056 0.459179 0.355101 0.242354 0.122983 0 0.122983 
0.242354 0.355101 0.459179 0.531246 0.523681 0.536438 0.57201 0.628319 0.699757 
0.779574 0.86176 0.941896 0.531246 0.523681 0.536438 0.57201 0.628319 0.699757 
0.779574 0.86176 0.941896 0.632123 0.7226 0.823657 0.932948 1.0472 1.16257 
1.27528 1.38216 1.48103 0.632123 0.7226 0.823657 0.932948 1.0472 1.16257 
1.27528 1.38216 1.48103 0.531246 0.523681 0.536438 0.57201 0.628319 0.699757 
0.779574 0.86176 0.941896 0.531246 0.523681 0.536438 0.57201 0.628319 0.699757 
0.779574 0.86176 0.941896 0.632123 0.7226 0.823657 0.932948 1.0472 1.16257 
1.27528 1.38216 1.48103 0.632123 0.7226 0.823657 0.932948 1.0472 1.16257 
1.27528 1.38216 1.48103 2.02998 1.9259 1.81315 1.69378 1.5708 1.44781 
1.32844 1.2157 1.11162 2.0928 2.05283 2.00422 1.94767 1.88496 1.81867 
1.75177 1.68695 1.62623 2.0928 2.05283 2.00422 1.94767 1.88496 1.81867 
1.75177 1.68695 1.62623 1.0488 1.08876 1.13737 1.19392 1.25664 1.32292 
1.38982 1.45464 1.51537 1.0488 1.08876 1.13737 1.19392 1.25664 1.32292 
1.38982 1.45464 1.51537 2.02998 1.9259 1.81315 1.69378 1.5708 1.44781 
1.32844 1.2157 1.11162 2.0928 2.05283 2.00422 1.94767 1.88496 1.81867 
1.75177 1.68695 1.62623 2.0928 2.05283 2.00422 1.94767 1.88496 1.81867 
1.75177 1.68695 1.62623 1.0488 1.08876 1.13737 1.19392 1.25664 1.32292 
1.38982 1.45464 1.51537 1.0488 1.08876 1.13737 1.19392 1.25664 1.32292 
1.38982 1.45464 1.51537 1.5708 1.5708 1.5708 1.5708 1.5708 1.5708 
1.5708 1.5708 1.5708 1.5708 1.5708 1.5708 1.5708 1.5708 1.5708 
1.5708 1.5708 1.5708 2.70908 2.71362 2.81592 2.68886 2.81002 2.92597 
2.6349 2.76254 2.89233 3.01997 2.55881 2.68262 2.80854 2.92834 3.01997 
2.47007 2.58462 2.70048 2.80854 2.89233 2.92597 2.37702 2.48017 2.58462 
2.68262 2.76254 2.81002 2.81592 2.28567 2.37702 2.47007 2.55881 2.6349 
2.68886 2.71362 2.70908 2.52097 2.4195 2.51718 2.30791 2.40503 2.49426 
2.18928 2.28408 2.3734 2.45144 2.06758 2.15805 2.24572 2.32523 2.39165 
1.94707 2.03138 2.11543 2.19453 2.26401 2.32035 1.83164 1.90847 1.98711 
2.06376 2.13422 2.1949 2.24359 1.72413 1.79288 1.86489 1.93728 2.00658 
2.06938 2.12312 2.16654 1.5708 1.50988 1.63171 1.44492 1.5708 1.69667 
1.37826 1.5059 1.63569 1.76333 1.31281 1.43962 1.5708 1.70197 1.82878 
1.25155 1.37501 1.50478 1.63681 1.76659 1.89004 1.19686 1.31493 1.44074 
1.5708 1.70086 1.82666 1.94473 1.15011 1.26149 1.38136 1.50697 1.63462 
1.76024 1.88011 1.99148 1.99148 1.88011 1.94473 1.76024 1.82666 1.89004 
1.63462 1.70086 1.76659 1.82878 1.50697 1.5708 1.63681 1.70197 1.76333 
1.38136 1.44074 1.50478 1.5708 1.63569 1.69667 1.26149 1.31493 1.37501 
1.43962 1.5059 1.5708 1.63171 1.15011 1.19686 1.25155 1.31281 1.37826 
1.44492 1.50988 1.5708 2.16654 2.12312 2.24359 2.06938 2.1949 2.32035 
2.00658 2.13422 2.26401 2.39165 1.93728 2.06376 2.19453 2.32523 2.45144 
1.86489 1.98711 2.11543 2.24572 2.3734 2.49426 1.79288 1.90847 2.03138 
2.15805 2.28408 2.40503 2.51718 1.72413 1.83164 1.94707 2.06758 2.18928 
2.30791 2.4195 2.52097 1.66533 1.66946 1.76911 1.67254 1.777 1.88041 
1.67418 1.78222 1.89102 1.99634 1.67418 1.78405 1.89674 2.00785 2.11299 
1.67254 1.78222 1.89674 2.01191 2.12307 2.22608 1.66946 1.777 1.89102 
2.00785 2.12307 2.23222 2.33166 1.66533 1.76911 1.88041 1.99634 2.11299 
2.22608 2.33166 2.42672 1.47626 1.37249 1.47213 1.26118 1.36459 1.46906 
1.14526 1.25058 1.35938 1.46741 1.0286 1.13374 1.24485 1.35755 1.46741 
0.915514 1.01852 1.12969 1.24485 1.35938 1.46906 0.809937 0.909371 1.01852 
1.13374 1.25058 1.36459 1.47213 0.714871 0.809937 0.915514 1.0286 1.14526 
1.26118 1.37249 1.47626 0.975055 0.898002 1.01847 0.821245 0.946693 1.07221 
0.749941 0.877585 1.00737 1.13501 0.690152 0.816367 0.94706 1.07784 1.20431 
0.647337 0.768195 0.895868 1.02616 1.15448 1.2767 0.624416 0.736561 0.857515 
0.983547 1.11021 1.23313 1.34871 0.620619 0.722093 0.833684 0.952313 1.07402 
1.19452 1.30996 1.41746 0.855925 0.764569 0.764569 0.671524 0.661425 0.671524 
0.582786 0.556971 0.556971 0.582786 0.506696 0.458968 0.441109 0.458968 0.506696 
0.45273 0.379052 0.333054 0.333054 0.379052 0.45273 0.427969 0.331576 0.249267 
0.21325 0.249267 0.331576 0.427969 0.432512 0.325669 0.215619 0.121622 0.121622 
0.215619 0.325669 0.432512 0.432512 0.427969 0.325669 0.45273 0.331576 0.215619 
0.506696 0.379052 0.249267 0.121622 0.582786 0.458968 0.333054 0.21325 0.121622 
0.671524 0.556971 0.441109 0.333054 0.249267 0.215619 0.764569 0.661425 0.556971 
0.458968 0.379052 0.331576 0.325669 0.855925 0.764569 0.671524 0.582786 0.506696 
0.45273 0.427969 0.432512 0.975055 1.01847 0.898002 1.07221 0.946693 0.821245 
1.13501 1.00737 0.877585 0.749941 1.20431 1.07784 0.94706 0.816367 0.690152 
1.2767 1.15448 1.02616 0.895868 0.768195 0.647337 1.34871 1.23313 1.11021 
0.983547 0.857515 0.736561 0.624416 1.41746 1.30996 1.19452 1.07402 0.952313 
0.833684 0.722093 0.620619 1.15011 1.26149 1.19686 1.38136 1.31493 1.25155 
1.50697 1.44074 1.37501 1.31281 1.63462 1.5708 1.50478 1.43962 1.37826 
1.76024 1.70086 1.63681 1.5708 1.5059 1.44492 1.88011 1.82666 1.76659 
1.70197 1.63569 1.5708 1.50988 1.99148 1.94473 1.89004 1.82878 1.76333 
1.69667 1.63171 1.5708 1.15011 1.19686 1.26149 1.25155 1.31493 1.38136 
1.31281 1.37501 1.44074 1.50697 1.37826 1.43962 1.50478 1.5708 1.63462 
1.44492 1.5059 1.5708 1.63681 1.70086 1.76024 1.50988 1.5708 1.63569 
1.70197 1.76659 1.82666 1.88011 1.5708 1.63171 1.69667 1.76333 1.82878 
1.89004 1.94473 1.99148 1.72413 1.83164 1.79288 1.94707 1.90847 1.86489 
2.06758 2.03138 1.98711 1.93728 2.18928 2.15805 2.11543 2.06376 2.00658 
2.30791 2.28408 2.24572 2.19453 2.13422 2.06938 2.4195 2.40503 2.3734 
2.32523 2.26401 2.1949 2.12312 2.52097 2.51718 2.49426 2.45144 2.39165 
2.32035 2.24359 2.16654 2.70908 2.81592 2.71362 2.92597 2.81002 2.68886 
3.01997 2.89233 2.76254 2.6349 3.01997 2.92834 2.80854 2.68262 2.55881 
2.92597 2.89233 2.80854 2.70048 2.58462 2.47007 2.81592 2.81002 2.76254 
2.68262 2.58462 2.48017 2.37702 2.70908 2.71362 2.68886 2.6349 2.55881 
2.47007 2.37702 2.28567 2.16654 2.24359 2.12312 2.32035 2.1949 2.06938 
2.39165 2.26401 2.13422 2.00658 2.45144 2.32523 2.19453 2.06376 1.93728 
2.49426 2.3734 2.24572 2.11543 1.98711 1.86489 2.51718 2.40503 2.28408 
2.15805 2.03138 1.90847 1.79288 2.52097 2.4195 2.30791 2.18928 2.06758 
1.94707 1.83164 1.72413 1.66533 1.76911 1.66946 1.88041 1.777 1.67254 
1.99634 1.89102 1.78222 1.67418 2.11299 2.00785 1.89674 1.78405 1.67418 
2.22608 2.12307 2.01191 1.89674 1.78222 1.67254 2.33166 2.23222 2.12307 
2.00785 1.89102 1.777 1.66946 2.42672 2.33166 2.22608 2.11299 1.99634 
1.88041 1.76911 1.66533 1.47626 1.47213 1.37249 1.46906 1.36459 1.26118 
1.46741 1.35938 1.25058 1.14526 1.46741 1.35755 1.24485 1.13374 1.0286 
1.46906 1.35938 1.24485 1.12969 1.01852 0.915514 1.47213 1.36459 1.25058 
1.13374 1.01852 0.909371 0.809937 1.47626 1.37249 1.26118 1.14526 1.0286 
0.915514 0.809937 0.714871 1.41746 1.30996 1.34871 1.19452 1.23313 1.2767 
1.07402 1.11021 1.15448 1.20431 0.952313 0.983547 1.02616 1.07784 1.13501 
0.833684 0.857515 0.895868 0.94706 1.00737 1.07221 0.722093 0.736561 0.768195 
0.816367 0.877585 0.946693 1.01847 0.620619 0.624416 0.647337 0.690152 0.749941 
0.821245 0.898002 0.975055 0.975055 0.898002 1.01847 0.821245 0.946693 1.07221 
0.749941 0.877585 1.00737 1.13501 0.690152 0.816367 0.94706 1.07784 1.20431 
0.647337 0.768195 0.895868 1.02616 1.15448 1.2767 0.624416 0.736561 0.857515 
0.983547 1.11021 1.23313 1.34871 0.620619 0.722093 0.833684 0.952313 1.07402 
1.19452 1.30996 1.41746 
Phi 1 1002 float
6.28319 3.14159 6.28319 3.14159 4.71239 4.71239 1.5708 1.5708 3.69517 
5.72961 2.58802 0.553574 6.28319 6.28319 6.28319 6.28319 3.14159 3.14159 
3.14159 3.14159 3.14159 6.1053 5.8988 5.67687 5.45995 5.26596 5.10322 
4.97131 4.86569 4.78095 0.177881 0.384387 0.606312 0.823235 1.01722 1.17997 
1.31187 1.4175 1.50223 6.18928 6.10703 6.03531 5.97283 5.91832 5.87061 
5.82869 5.79168 5.75886 0.0939024 0.176153 0.247873 0.310351 0.364864 0.412573 
0.454497 0.491504 0.524326 3.31947 3.52598 3.7479 3.96483 4.15881 4.32156 
4.45346 4.55909 4.64383 2.96371 2.75721 2.53528 2.31836 2.12437 1.96162 
1.82972 1.72409 1.63936 3.2355 3.31775 3.38947 3.45194 3.50646 3.55417 
3.59609 3.6331 3.66592 3.04769 2.96544 2.89372 2.83124 2.77673 2.72902 
2.6871 2.65009 2.61727 6.28319 6.28319 6.28319 6.28319 3.14159 3.14159 
3.14159 3.14159 3.14159 6.1053 5.8988 5.67687 5.45995 5.26596 5.10322 
4.97131 4.86569 4.78095 0.177881 0.384387 0.606312 0.823235 1.01722 1.17997 
1.31187 1.4175 1.50223 6.18928 6.10703 6.03531 5.97283 5.91832 5.87061 
5.82869 5.79168 5.75886 0.0939024 0.176153 0.247873 0.310351 0.364864 0.412573 
0.454497 0.491504 0.524326 3.31947 3.52598 3.7479 3.96483 4.15881 4.32156 
4.45346 4.55909 4.64383 2.96371 2.75721 2.53528 2.31836 2.12437 1.96162 
1.82972 1.72409 1.63936 3.2355 3.31775 3.38947 3.45194 3.50646 3.55417 
3.59609 3.6331 3.66592 3.04769 2.96544 2.89372 2.83124 2.77673 2.72902 
2.6871 2.65009 2.61727 4.71239 4.71239 4.71239 4.71239 4.71239 4.71239 
4.71239 4.71239 4.71239 4.60879 4.49914 4.3857 4.27128 4.15881 4.05096 
3.94976 3.85646 3.77161 4.81599 4.92564 5.03907 5.1535 5.26596 5.37381 
5.47502 5.56831 5.65317 4.60879 4.49914 4.3857 4.27128 4.15881 4.05096 
3.94976 3.85646 3.77161 4.81599 4.92564 5.03907 5.1535 5.26596 5.37381 
5.47502 5.56831 5.65317 1.5708 1.5708 1.5708 1.5708 1.5708 1.5708 
1.5708 1.5708 1.5708 1.6744 1.78405 1.89748 2.01191 2.12437 2.23222 
2.33343 2.42672 2.51157 1.4672 1.35755 1.24411 1.12969 1.01722 0.909371 
0.808166 0.714871 0.63002 1.6744 1.78405 1.89748 2.01191 2.12437 2.23222 
2.33343 2.42672 2.51157 1.4672 1.35755 1.24411 1.12969 1.01722 0.909371 
0.808166 0.714871 0.63002 3.60077 3.49669 3.38395 3.26458 3.14159 3.01861 
2.89924 2.78649 2.68241 5.82401 5.92808 6.04083 6.1602 6.28319 0.122983 
0.242354 0.355101 0.459179 6.05603 5.78856 5.97021 5.51259 5.60297 5.78856 
5.26596 5.26596 5.26596 5.26596 5.06749 5.0121 4.91556 4.71239 4.15881 
4.91556 4.83537 4.71239 4.50922 4.15881 3.63622 4.80045 4.71239 4.58941 
4.41268 4.15881 3.82181 3.45456 4.71239 4.62433 4.50922 4.35729 4.15881 
3.91219 3.63622 3.36875 6.01742 5.94343 5.82633 5.88092 5.76745 5.62798 
5.8278 5.71897 5.58911 5.43724 5.78235 5.67854 5.55757 5.41926 5.26596 
5.74316 5.64441 5.5315 5.40467 5.26596 5.11955 5.70914 5.61528 5.50962 
5.3926 5.26596 5.13292 4.99789 5.67937 5.59016 5.49102 5.38246 5.26596 
5.14407 5.02016 4.89798 5.56831 5.47502 5.47502 5.37381 5.37381 5.37381 
5.26596 5.26596 5.26596 5.26596 5.1535 5.1535 5.1535 5.1535 5.1535 
5.03907 5.03907 5.03907 5.03907 5.03907 5.03907 4.92564 4.92564 4.92564 
4.92564 4.92564 4.92564 4.92564 4.81599 4.81599 4.81599 4.81599 4.81599 
4.81599 4.81599 4.81599 4.60879 4.60879 4.49914 4.60879 4.49914 4.3857 
4.60879 4.49914 4.3857 4.27128 4.60879 4.49914 4.3857 4.27128 4.15881 
4.60879 4.49914 4.3857 4.27128 4.15881 4.05096 4.60879 4.49914 4.3857 
4.27128 4.15881 4.05096 3.94976 4.60879 4.49914 4.3857 4.27128 4.15881 
4.05096 3.94976 3.85646 4.5268 4.40462 4.42689 4.28071 4.29185 4.30523 
4.15881 4.15881 4.15881 4.15881 4.04232 4.03217 4.02011 4.00552 3.98753 
3.93376 3.91515 3.89328 3.86721 3.83566 3.7968 3.83461 3.8095 3.78037 
3.74624 3.70581 3.65733 3.59845 3.7454 3.71564 3.68161 3.64243 3.59698 
3.54386 3.48135 3.40735 3.56428 3.45246 3.52338 3.33203 3.40312 3.47739 
3.20576 3.27463 3.34802 3.42551 3.07742 3.14159 3.21128 3.28647 3.36688 
2.95116 3.00855 3.0719 3.14159 3.21784 3.3006 2.83072 2.88006 2.93517 
2.99672 3.06535 3.14159 3.22575 2.7189 2.7598 2.8058 2.85768 2.9163 
2.98259 3.05743 3.14159 3.56428 3.52338 3.45246 3.47739 3.40312 3.33203 
3.42551 3.34802 3.27463 3.20576 3.36688 3.28647 3.21128 3.14159 3.07742 
3.3006 3.21784 3.14159 3.0719 3.00855 2.95116 3.22575 3.14159 3.06535 
2.99672 2.93517 2.88006 2.83072 3.14159 3.05743 2.98259 2.9163 2.85768 
2.8058 2.7598 2.7189 4.5268 4.42689 4.40462 4.30523 4.29185 4.28071 
4.15881 4.15881 4.15881 4.15881 3.98753 4.00552 4.02011 4.03217 4.04232 
3.7968 3.83566 3.86721 3.89328 3.91515 3.93376 3.59845 3.65733 3.70581 
3.74624 3.78037 3.8095 3.83461 3.40735 3.48135 3.54386 3.59698 3.64243 
3.68161 3.71564 3.7454 4.71239 4.80045 4.62433 4.91556 4.71239 4.50922 
5.06749 4.83537 4.58941 4.35729 5.26596 5.0121 4.71239 4.41268 4.15881 
5.51259 5.26596 4.91556 4.50922 4.15881 3.91219 5.78856 5.60297 5.26596 
4.71239 4.15881 3.82181 3.63622 6.05603 5.97021 5.78856 5.26596 4.15881 
3.63622 3.45456 3.36875 0.227158 0.494626 0.312971 0.770593 0.680215 0.494626 
1.01722 1.01722 1.01722 1.01722 1.2157 1.27109 1.36763 1.5708 2.12437 
1.36763 1.44781 1.5708 1.77397 2.12437 2.64697 1.48273 1.5708 1.69378 
1.8705 2.12437 2.46138 2.82862 1.5708 1.65886 1.77397 1.9259 2.12437 
2.371 2.64697 2.91443 1.75639 1.87857 1.8563 2.00248 1.99133 1.97796 
2.12437 2.12437 2.12437 2.12437 2.24087 2.25101 2.26308 2.27767 2.29565 
2.34943 2.36803 2.38991 2.41597 2.44752 2.48639 2.44857 2.47368 2.50281 
2.53694 2.57738 2.62586 2.68474 2.53778 2.56754 2.60157 2.64076 2.68621 
2.73933 2.80184 2.87583 1.6744 1.6744 1.78405 1.6744 1.78405 1.89748 
1.6744 1.78405 1.89748 2.01191 1.6744 1.78405 1.89748 2.01191 2.12437 
1.6744 1.78405 1.89748 2.01191 2.12437 2.23222 1.6744 1.78405 1.89748 
2.01191 2.12437 2.23222 2.33343 1.6744 1.78405 1.89748 2.01191 2.12437 
2.23222 2.33343 2.42672 1.4672 1.35755 1.4672 1.24411 1.35755 1.4672 
1.12969 1.24411 1.35755 1.4672 1.01722 1.12969 1.24411 1.35755 1.4672 
0.909371 1.01722 1.12969 1.24411 1.35755 1.4672 0.808166 0.909371 1.01722 
1.12969 1.24411 1.35755 1.4672 0.714871 0.808166 0.909371 1.01722 1.12969 
1.24411 1.35755 1.4672 0.603812 0.57405 0.693022 0.540021 0.667908 0.792164 
0.500837 0.638778 0.773562 0.900726 0.455383 0.604649 0.751687 0.890581 1.01722 
0.402264 0.564217 0.725619 0.878514 1.01722 1.13912 0.339753 0.515737 0.694072 
0.863926 1.01722 1.15026 1.26302 0.265762 0.456853 0.655207 0.845941 1.01722 
1.16363 1.28529 1.38521 0.227158 0.312971 0.494626 0.494626 0.680215 0.770593 
1.01722 1.01722 1.01722 1.01722 2.12437 1.5708 1.36763 1.27109 1.2157 
2.64697 2.12437 1.77397 1.5708 1.44781 1.36763 2.82862 2.46138 2.12437 
1.8705 1.69378 1.5708 1.48273 2.91443 2.64697 2.371 2.12437 1.9259 
1.77397 1.65886 1.5708 1.75639 1.8563 1.87857 1.97796 1.99133 2.00248 
2.12437 2.12437 2.12437 2.12437 2.29565 2.27767 2.26308 2.25101 2.24087 
2.48639 2.44752 2.41597 2.38991 2.36803 2.34943 2.68474 2.62586 2.57738 
2.53694 2.50281 2.47368 2.44857 2.87583 2.80184 2.73933 2.68621 2.64076 
2.60157 2.56754 2.53778 5.86049 5.90139 5.97231 5.94739 6.02165 6.09275 
5.99927 6.07676 6.15015 6.21902 6.0579 6.13831 6.2135 0 0.0641696 
6.12418 6.20694 6.28319 0.069689 0.13304 0.190437 6.19903 0 0.0762451 
0.144876 0.206423 0.261531 0.310872 0 0.0841597 0.159004 0.225289 0.283913 
0.335793 0.381792 0.422692 5.86049 5.97231 5.90139 6.09275 6.02165 5.94739 
6.21902 6.15015 6.07676 5.99927 0.0641696 0 6.2135 6.13831 6.0579 
0.190437 0.13304 0.069689 6.28319 6.20694 6.12418 0.310872 0.261531 0.206423 
0.144876 0.0762451 6.28319 6.19903 0.422692 0.381792 0.335793 0.283913 0.225289 
0.159004 0.0841597 0 5.67937 5.70914 5.59016 5.74316 5.61528 5.49102 
5.78235 5.64441 5.50962 5.38246 5.8278 5.67854 5.5315 5.3926 5.26596 
5.88092 5.71897 5.55757 5.40467 5.26596 5.14407 5.94343 5.76745 5.58911 
5.41926 5.26596 5.13292 5.02016 6.01742 5.82633 5.62798 5.43724 5.26596 
5.11955 4.99789 4.89798 1.38521 1.28529 1.26302 1.16363 1.15026 1.13912 
1.01722 1.01722 1.01722 1.01722 0.845941 0.863926 0.878514 0.890581 0.900726 
0.655207 0.694072 0.725619 0.751687 0.773562 0.792164 0.456853 0.515737 0.564217 
0.604649 0.638778 0.667908 0.693022 0.265762 0.339753 0.402264 0.455383 0.500837 
0.540021 0.57405 0.603812 
