# vtk DataFile Version 4.0
vtk output
ASCII
DATASET POLYDATA
POINTS 1002 float
-88.52 -92.9901 69.3739 -82.9001 -99.9926 69.427 -82.0386 -88.7081 69.2673 
-78.0595 -97.7094 69.0592 -84.3862 -95.9908 74.7248 -81.3001 -94.0171 74.3651 
-85.5557 -96.3931 63.9371 -80.5777 -93.6813 64.4558 -78.9405 -102.743 73.1337 
-87.0654 -87.5939 72.735 -78.4893 -102.381 66.205 -87.6886 -87.576 66.6254 
-88.0936 -93.7733 69.4903 -87.7171 -94.5998 69.5721 -87.2751 -95.4408 69.5591 
-86.6313 -96.1455 69.5735 -85.8534 -96.672 69.5949 -85.1965 -97.4131 69.5285 
-84.7564 -98.4328 69.5087 -84.2906 -99.2189 69.5658 -83.6146 -99.6303 69.5431 
-88.2177 -93.2187 69.8177 -87.8962 -93.5258 70.4288 -87.4654 -93.7505 70.985 
-86.8863 -93.8731 71.393 -86.2304 -94.0366 71.907 -85.6032 -94.2582 72.5297 
-85.0967 -94.5094 73.0481 -84.7903 -94.9214 73.587 -84.6176 -95.4927 74.2206 
-88.5237 -93.345 69.1014 -88.4193 -93.7508 68.7768 -88.1904 -94.1863 68.1542 
-87.9571 -94.7048 67.2396 -87.7875 -95.284 66.4444 -87.5255 -95.7469 65.8844 
-87.1115 -96.0016 65.2586 -86.6544 -96.155 64.607 -86.1477 -96.2939 64.1746 
-88.7789 -92.3276 69.6006 -89.0362 -91.7408 70.0005 -89.1672 -91.2742 70.3984 
-88.9919 -90.689 70.6581 -88.6673 -89.921 70.9371 -88.4618 -89.2963 71.3566 
-88.2392 -88.8176 71.8176 -87.864 -88.2668 72.2281 -87.4604 -87.792 72.5395 
-89.0801 -92.5057 69.1592 -89.6938 -92.2216 68.9498 -90.0623 -91.8869 68.534 
-90.0758 -91.0287 67.9463 -89.9186 -89.8739 67.578 -89.5911 -89.1239 67.5114 
-89.0009 -88.712 67.3699 -88.3993 -88.2253 67.0523 -88.0028 -87.7719 66.7803 
-83.0917 -99.8779 69.9877 -83.27 -99.6497 70.6114 -83.3524 -99.246 71.1586 
-83.3416 -98.7675 71.6049 -83.3121 -98.2558 72.0678 -83.3493 -97.6687 72.5445 
-83.5379 -97.1417 73.0424 -83.8689 -96.7775 73.649 -84.1958 -96.4354 74.2675 
-83.1124 -99.7957 68.9528 -83.3992 -99.6048 68.3467 -83.864 -99.4721 67.5969 
-84.3075 -99.2534 66.8253 -84.4654 -98.8106 66.1644 -84.4799 -98.2072 65.6104 
-84.5956 -97.5624 65.1383 -84.8421 -97.0176 64.7348 -85.1889 -96.6618 64.3375 
-82.3579 -100.404 69.6195 -81.9062 -100.918 69.9017 -81.7013 -101.543 70.3277 
-81.5541 -102.173 70.8118 -81.0676 -102.581 71.2464 -80.3731 -102.699 71.6072 
-79.8895 -102.719 71.9614 -79.5889 -102.805 72.3912 -79.2658 -102.874 72.8336 
-82.5057 -100.469 69.0449 -82.3515 -101.219 68.6579 -82.2209 -101.954 68.2184 
-81.8395 -102.383 67.7135 -81.2935 -102.633 67.1822 -80.7318 -102.827 66.8099 
-80.1023 -102.812 66.7437 -79.4539 -102.637 66.7336 -78.9118 -102.498 66.5091 
-81.788 -89.5432 69.1806 -81.4003 -90.4431 69.2086 -80.7153 -91.1783 69.3856 
-79.9667 -91.8277 69.4742 -79.4893 -92.6669 69.3706 -79.2234 -93.7768 69.2677 
-78.934 -94.9357 69.2442 -78.5916 -95.9394 69.2298 -78.2862 -96.8384 69.1769 
-82.0516 -89.103 69.6256 -82.1402 -89.6325 70.102 -82.1078 -90.1393 70.6943 
-81.9885 -90.7177 71.2628 -81.943 -91.414 71.7565 -81.867 -92.0177 72.309 
-81.6766 -92.5187 72.9476 -81.5068 -93.0503 73.5356 -81.3993 -93.5683 74.002 
-82.0354 -89.031 68.8358 -82.1433 -89.5869 68.2917 -82.0688 -90.0659 67.6661 
-81.6792 -90.361 67.0195 -81.2945 -90.8452 66.4211 -81.1067 -91.5397 65.8947 
-80.9155 -92.0391 65.3931 -80.688 -92.4398 64.9525 -80.5771 -93.0309 64.6563 
-82.3809 -88.2666 69.5282 -82.9745 -88.0783 69.767 -83.705 -88.0074 70.0888 
-84.3316 -87.762 70.4986 -84.7216 -87.3373 70.8994 -85.0363 -87.1125 71.3324 
-85.5191 -87.1828 71.8357 -86.1373 -87.2609 72.2823 -86.6856 -87.323 72.578 
-82.3705 -88.2116 69.0655 -82.9699 -87.945 68.686 -83.7568 -87.7475 68.2096 
-84.5195 -87.4231 67.8401 -85.0239 -86.9743 67.4981 -85.34 -86.5699 67.0554 
-85.9041 -86.415 66.7202 -86.7656 -86.5767 66.623 -87.4399 -86.983 66.6231 
-78.1635 -97.3238 69.6595 -78.4426 -97.0728 70.1984 -78.8139 -96.7785 70.7374 
-79.012 -96.2362 71.4508 -79.1504 -95.6698 72.1838 -79.6195 -95.3367 72.6444 
-80.265 -95.0838 72.9796 -80.6886 -94.7479 73.4275 -80.9621 -94.3758 73.9281 
-78.1397 -97.6 68.5367 -78.1755 -97.3168 68.0212 -78.165 -96.7648 67.5556 
-78.3427 -96.1725 67.0846 -78.6662 -95.6871 66.4921 -78.7582 -95.0764 65.779 
-78.7622 -94.3399 65.0894 -79.1423 -93.8434 64.611 -79.8575 -93.6964 64.4384 
-77.9515 -98.3222 69.2851 -77.9298 -98.984 69.5451 -77.9506 -99.6693 69.9149 
-77.9536 -100.354 70.4294 -77.9377 -100.981 70.9508 -78.0178 -101.565 71.3527 
-78.2446 -102.151 71.7618 -78.4832 -102.599 72.2842 -78.6787 -102.77 72.7892 
-77.8569 -98.5062 68.5779 -77.4742 -99.1036 68.2292 -76.9551 -99.4171 68.1606 
-76.5789 -99.9966 68.0164 -76.4442 -101.095 67.4665 -76.4575 -101.938 66.9786 
-76.7471 -102.163 66.8872 -77.3522 -102.277 66.7798 -77.9932 -102.43 66.4674 
-84.2027 -95.8727 75.1178 -83.9098 -95.6286 75.4467 -83.546 -95.2596 75.8612 
-83.1167 -94.8534 76.3608 -82.6475 -94.5636 76.6426 -82.228 -94.388 76.445 
-81.9166 -94.2219 75.9016 -81.6866 -94.0951 75.3185 -81.4854 -94.0474 74.8177 
-83.8387 -96.5578 74.7381 -82.9879 -96.909 74.5452 -82.1373 -97.4522 74.444 
-81.6369 -98.5263 74.6117 -81.4732 -99.8097 74.8504 -81.2434 -100.868 74.9459 
-80.6342 -101.644 74.8405 -79.8439 -102.136 74.4536 -79.2582 -102.425 73.8085 
-84.5996 -95.1284 74.7568 -84.8035 -94.2078 74.701 -85.3565 -93.511 74.8157 
-86.21 -92.8562 75.0875 -86.7346 -91.931 75.0475 -86.7162 -91.0452 74.4815 
-86.6789 -90.3891 73.7795 -86.8753 -89.5308 73.2946 -87.0568 -88.4369 73.0049 
-80.9754 -94.7372 74.4289 -80.6388 -95.5892 74.5374 -80.1992 -96.441 74.7134 
-79.756 -97.3432 74.7776 -79.5156 -98.5223 74.6762 -79.302 -99.7521 74.6484 
-78.9425 -100.663 74.6483 -78.7156 -101.401 74.3476 -78.78 -102.135 73.7545 
-81.7897 -93.3792 74.5241 -82.2818 -92.6649 74.5542 -82.7496 -91.919 74.4862 
-83.3349 -91.264 74.4483 -83.9569 -90.6483 74.3501 -84.4699 -89.9653 74.0156 
-85.0895 -89.2917 73.6056 -85.8853 -88.6527 73.3058 -86.5892 -88.0398 73.0448 
-85.3348 -96.193 63.571 -84.9563 -95.8108 63.2128 -84.4057 -95.3456 62.948 
-83.7853 -94.997 62.8132 -83.11 -94.6669 62.779 -82.3725 -94.2271 62.933 
-81.7667 -93.9705 63.392 -81.3698 -93.9991 63.9574 -80.9994 -93.9586 64.3166 
-84.6601 -96.648 64.0094 -83.8093 -97.1336 64.0682 -83.1279 -97.9823 64.0502 
-82.3885 -98.8951 64.0861 -81.5033 -99.6311 64.3836 -80.662 -100.329 64.7768 
-79.8985 -100.998 64.9598 -79.2509 -101.512 65.1427 -78.8144 -101.939 65.6189 
-86.1902 -95.9421 63.7323 -86.6014 -95.1404 63.7189 -86.8787 -94.1362 63.9188 
-87.1224 -93.2242 64.3267 -87.2337 -92.4184 65.0135 -87.2031 -91.645 65.8286 
-87.1716 -90.8478 66.3653 -87.2413 -89.8577 66.5169 -87.447 -88.6896 66.5434 
-80.1321 -94.2729 64.2214 -79.6661 -95.0162 64.0966 -79.3045 -96.0671 64.1669 
-78.9269 -97.2316 64.3075 -78.4367 -98.3708 64.4846 -78.1112 -99.642 64.6781 
-78.1096 -100.871 64.7855 -78.2287 -101.647 65.0084 -78.3431 -102.025 65.5572 
-81.1831 -93.1913 64.5518 -81.8266 -92.4336 64.4409 -82.7144 -91.5799 64.3179 
-83.6831 -90.9976 64.586 -84.4055 -90.6712 65.1802 -85.0609 -90.1993 65.6783 
-85.8746 -89.517 65.9843 -86.6337 -88.842 66.2205 -87.2055 -88.1959 66.4301 
-78.808 -103.397 72.5057 -78.5529 -104.254 72.0106 -78.3821 -105.12 71.3056 
-78.4156 -105.587 70.3085 -78.4219 -105.508 69.2776 -78.2852 -105.218 68.1845 
-78.1979 -104.826 67.222 -78.2527 -104.083 66.8284 -78.375 -103.122 66.6818 
-87.2204 -87.2149 72.217 -87.3715 -87.0944 71.4208 -87.6018 -86.8155 70.4644 
-87.7356 -86.2159 69.6369 -87.6488 -85.698 68.9336 -87.7219 -85.5085 68.1231 
-88.1047 -85.5392 67.4051 -88.3114 -85.8705 67.0331 -88.094 -86.6109 66.827 
-87.8422 -94.0184 69.9932 -87.4563 -94.2279 70.548 -87.3989 -94.7897 70.0789 
-86.8494 -94.3556 70.9419 -86.8378 -94.9187 70.521 -86.7461 -95.5363 70.0369 
-86.1401 -94.5004 71.3533 -86.1172 -95.0403 70.889 -86.0376 -95.5799 70.4038 
-85.9482 -96.1571 69.971 -85.5327 -94.7254 71.9904 -85.5157 -95.2535 71.4842 
-85.4217 -95.7398 70.9036 -85.2663 -96.2381 70.3348 -85.2348 -96.8446 69.944 
-85.0586 -94.9969 72.587 -85.0843 -95.5459 72.1592 -85.0609 -96.1221 71.6476 
-84.8504 -96.6414 70.9917 -84.7151 -97.2323 70.457 -84.7776 -97.9119 70.0418 
-84.6995 -95.4014 73.0965 -84.6365 -95.9033 72.6267 -84.6485 -96.5459 72.2141 
-84.5602 -97.2162 71.706 -84.388 -97.8036 71.1684 -84.3917 -98.4262 70.7239 
-84.4417 -98.9637 70.2013 -84.4568 -95.9573 73.7068 -84.2105 -96.3582 73.1026 
-84.0457 -96.8743 72.588 -84.0007 -97.5554 72.1467 -83.9592 -98.1793 71.6918 
-83.9549 -98.7212 71.2783 -83.989 -99.2343 70.8103 -83.8834 -99.5493 70.1854 
-88.4224 -92.6184 70.1163 -88.6541 -92.1005 70.5647 -88.0612 -93.0396 70.821 
-88.7382 -91.5972 71.0423 -88.2671 -92.6112 71.3373 -87.6364 -93.3497 71.4478 
-88.5592 -90.8793 71.4443 -88.2813 -92.0717 71.8182 -87.8054 -93.0112 71.9931 
-87.0736 -93.5266 71.9652 -88.3368 -90.1114 71.7728 -88.0226 -91.2992 72.1115 
-87.7057 -92.529 72.4212 -87.1938 -93.2691 72.6013 -86.3766 -93.7089 72.5819 
-88.1367 -89.5928 72.0762 -87.7129 -90.5998 72.3134 -87.4064 -91.8442 72.734 
-87.1513 -92.8965 73.1809 -86.4942 -93.4443 73.2865 -85.6606 -93.8724 73.1459 
-87.8041 -89.1673 72.4236 -87.4206 -90.1578 72.627 -87.1505 -91.2049 73.1206 
-87.1185 -92.3253 73.7738 -86.6798 -93.1199 74.0084 -85.7881 -93.5322 73.786 
-85.1062 -94.0829 73.5996 -87.4179 -88.731 72.771 -87.1355 -89.8191 73.0197 
-86.924 -90.7319 73.5335 -87.0261 -91.6587 74.2761 -86.8731 -92.6251 74.6864 
-86.0538 -93.2479 74.487 -85.1953 -93.7364 74.1887 -84.8005 -94.5336 74.1647 
-86.5347 -89.0537 73.3289 -85.8334 -89.6318 73.6833 -86.3778 -90.0136 73.7599 
-85.0823 -90.0481 74.2314 -85.736 -90.2412 74.314 -86.2646 -90.546 74.4089 
-84.426 -90.5053 74.8268 -85.0202 -90.4304 75.0238 -85.6232 -90.6157 75.0236 
-86.2355 -91.1715 75.0719 -83.7066 -91.1184 75.0327 -84.2606 -90.9644 75.4819 
-84.9025 -91.0529 75.5772 -85.4702 -91.539 75.4993 -85.9622 -92.2636 75.3929 
-82.9475 -91.8185 74.9855 -83.3397 -91.7591 75.5135 -84.0584 -91.8968 75.8319 
-84.7138 -92.2858 75.8478 -85.0984 -92.8424 75.6783 -85.3089 -93.2966 75.3349 
-82.4006 -92.5743 75.0283 -82.5415 -92.5601 75.5617 -83.0559 -92.745 76.0167 
-83.798 -93.0724 76.1909 -84.3122 -93.4859 76.0538 -84.5653 -93.8877 75.7052 
[...]
POINT_DATA 1002
FIELD FieldData 2
Theta 1 1002 float
2.58802 2.58802 0.553574 0.553574 2.12437 1.01722 2.12437 1.01722 1.5708 
1.5708 1.5708 1.5708 2.68241 2.78649 2.89924 3.01861 3.14159 3.01861 
2.89924 2.78649 2.68241 2.61035 2.61791 2.60515 2.56958 2.51327 2.44184 
2.36202 2.27983 2.1997 2.61035 2.61791 2.60515 2.56958 2.51327 2.44184 
2.36202 2.27983 2.1997 2.50947 2.41899 2.31794 2.20864 2.0944 1.97902 
1.86631 1.75944 1.66056 2.50947 2.41899 2.31794 2.20864 2.0944 1.97902 
1.86631 1.75944 1.66056 2.61035 2.61791 2.60515 2.56958 2.51327 2.44184 
2.36202 2.27983 2.1997 2.61035 2.61791 2.60515 2.56958 2.51327 2.44184 
2.36202 2.27983 2.1997 2.50947 2.41899 2.31794 2.20864 2.0944 1.97902 
1.86631 1.75944 1.66056 2.50947 2.41899 2.31794 2.20864 2.0944 1.97902 
1.86631 1.75944 1.66056 0.459179 0.355101 0.242354 0.122983 0 0.122983 
0.242354 0.355101 0.459179 0.531246 0.523681 0.536438 0.57201 0.628319 0.699757 
0.779574 0.86176 0.941896 0.531246 0.523681 0.536438 0.57201 0.628319 0.699757 
0.779574 0.86176 0.941896 0.632123 0.7226 0.823657 0.932948 1.0472 1.16257 
1.27528 1.38216 1.48103 0.632123 0.7226 0.823657 0.932948 1.0472 1.16257 
1.27528 1.38216 1.48103 0.531246 0.523681 0.536438 0.57201 0.628319 0.699757 
0.779574 0.86176 0.941896 0.531246 0.523681 0.536438 0.57201 0.628319 0.699757 
0.779574 0.86176 0.941896 0.632123 0.7226 0.823657 0.932948 1.0472 1.16257 
1.27528 1.38216 1.48103 0.632123 0.7226 0.823657 0.932948 1.0472 1.16257 
1.27528 1.38216 1.48103 2.02998 1.9259 1.81315 1.69378 1.5708 1.44781 
1.32844 1.2157 1.11162 2.0928 2.05283 2.00422 1.94767 1.88496 1.81867 
1.75177 1.68695 1.62623 2.0928 2.05283 2.00422 1.94767 1.88496 1.81867 
1.75177 1.68695 1.62623 1.0488 1.08876 1.13737 1.19392 1.25664 1.32292 
1.38982 1.45464 1.51537 1.0488 1.08876 1.13737 1.19392 1.25664 1.32292 
1.38982 1.45464 1.51537 2.02998 1.9259 1.81315 1.69378 1.5708 1.44781 
1.32844 1.2157 1.11162 2.0928 2.05283 2.00422 1.94767 1.88496 1.81867 
1.75177 1.68695 1.62623 2.0928 2.05283 2.00422 1.94767 1.88496 1.81867 
1.75177 1.68695 1.62623 1.0488 1.08876 1.13737 1.19392 1.25664 1.32292 
1.38982 1.45464 1.51537 1.0488 1.08876 1.13737 1.19392 1.25664 1.32292 
1.38982 1.45464 1.51537 1.5708 1.5708 1.5708 1.5708 1.5708 1.5708 
1.5708 1.5708 1.5708 1.5708 1.5708 1.5708 1.5708 1.5708 1.5708 
1.5708 1.5708 1.5708 2.70908 2.71362 2.81592 2.68886 2.81002 2.92597 
2.6349 2.76254 2.89233 3.01997 2.55881 2.68262 2.80854 2.92834 3.01997 
2.47007 2.58462 2.70048 2.80854 2.89233 2.92597 2.37702 2.48017 2.58462 
2.68262 2.76254 2.81002 2.81592 2.28567 2.37702 2.47007 2.55881 2.6349 
2.68886 2.71362 2.70908 2.52097 2.4195 2.51718 2.30791 2.40503 2.49426 
2.18928 2.28408 2.3734 2.45144 2.06758 2.15805 2.24572 2.32523 2.39165 
1.94707 2.03138 2.11543 2.19453 2.26401 2.32035 1.83164 1.90847 1.98711 
2.06376 2.13422 2.1949 2.24359 1.72413 1.79288 1.86489 1.93728 2.00658 
2.06938 2.12312 2.16654 1.5708 1.50988 1.63171 1.44492 1.5708 1.69667 
1.37826 1.5059 1.63569 1.76333 1.31281 1.43962 1.5708 1.70197 1.82878 
1.25155 1.37501 1.50478 1.63681 1.76659 1.89004 1.19686 1.31493 1.44074 
1.5708 1.70086 1.82666 1.94473 1.15011 1.26149 1.38136 1.50697 1.63462 
1.76024 1.88011 1.99148 1.99148 1.88011 1.94473 1.76024 1.82666 1.89004 
1.63462 1.70086 1.76659 1.82878 1.50697 1.5708 1.63681 1.70197 1.76333 
1.38136 1.44074 1.50478 1.5708 1.63569 1.69667 1.26149 1.31493 1.37501 
1.43962 1.5059 1.5708 1.63171 1.15011 1.19686 1.25155 1.31281 1.37826 
1.44492 1.50988 1.5708 2.16654 2.12312 2.24359 2.06938 2.1949 2.32035 
2.00658 2.13422 2.26401 2.39165 1.93728 2.06376 2.19453 2.32523 2.45144 
1.86489 1.98711 2.11543 2.24572 2.3734 2.49426 1.79288 1.90847 2.03138 
2.15805 2.28408 2.40503 2.51718 1.72413 1.83164 1.94707 2.06758 2.18928 
2.30791 2.4195 2.52097 1.66533 1.66946 1.76911 1.67254 1.777 1.88041 
1.67418 1.78222 1.89102 1.99634 1.67418 1.78405 1.89674 2.00785 2.11299 
1.67254 1.78222 1.89674 2.01191 2.12307 2.22608 1.66946 1.777 1.89102 
2.00785 2.12307 2.23222 2.33166 1.66533 1.76911 1.88041 1.99634 2.11299 
2.22608 2.33166 2.42672 1.47626 1.37249 1.47213 1.26118 1.36459 1.46906 
1.14526 1.25058 1.35938 1.46741 1.0286 1.13374 1.24485 1.35755 1.46741 
0.915514 1.01852 1.12969 1.24485 1.35938 1.46906 0.809937 0.909371 1.01852 
1.13374 1.25058 1.36459 1.47213 0.714871 0.809937 0.915514 1.0286 1.14526 
1.26118 1.37249 1.47626 0.975055 0.898002 1.01847 0.821245 0.946693 1.07221 
0.749941 0.877585 1.00737 1.13501 0.690152 0.816367 0.94706 1.07784 1.20431 
0.647337 0.768195 0.895868 1.02616 1.15448 1.2767 0.624416 0.736561 0.857515 
0.983547 1.11021 1.23313 1.34871 0.620619 0.722093 0.833684 0.952313 1.07402 
1.19452 1.30996 1.41746 0.855925 0.764569 0.764569 0.671524 0.661425 0.671524 
0.582786 0.556971 0.556971 0.582786 0.506696 0.458968 0.441109 0.458968 0.506696 
0.45273 0.379052 0.333054 0.333054 0.379052 0.45273 0.427969 0.331576 0.249267 
0.21325 0.249267 0.331576 0.427969 0.432512 0.325669 0.215619 0.121622 0.121622 
0.215619 0.325669 0.432512 0.432512 0.427969 0.325669 0.45273 0.331576 0.215619 
0.506696 0.379052 0.249267 0.121622 0.582786 0.458968 0.333054 0.21325 0.121622 
0.671524 0.556971 0.441109 0.333054 0.249267 0.215619 0.764569 0.661425 0.556971 
0.458968 0.379052 0.331576 0.325669 0.855925 0.764569 0.671524 0.582786 0.506696 
0.45273 0.427969 0.432512 0.975055 1.01847 0.898002 1.07221 0.946693 0.821245 
1.13501 1.00737 0.877585 0.749941 1.20431 1.07784 0.94706 0.816367 0.690152 
1.2767 1.15448 1.02616 0.895868 0.768195 0.647337 1.34871 1.23313 1.11021 
0.983547 0.857515 0.736561 0.624416 1.41746 1.30996 1.19452 1.07402 0.952313 
0.833684 0.722093 0.620619 1.15011 1.26149 1.19686 1.38136 1.31493 1.25155 
1.50697 1.44074 1.37501 1.31281 1.63462 1.5708 1.50478 1.43962 1.37826 
1.76024 1.70086 1.63681 1.5708 1.5059 1.44492 1.88011 1.82666 1.76659 
1.70197 1.63569 1.5708 1.50988 1.99148 1.94473 1.89004 1.82878 1.76333 
1.69667 1.63171 1.5708 1.15011 1.19686 1.26149 1.25155 1.31493 1.38136 
1.31281 1.37501 1.44074 1.50697 1.37826 1.43962 1.50478 1.5708 1.63462 
1.44492 1.5059 1.5708 1.63681 1.70086 1.76024 1.50988 1.5708 1.63569 
1.70197 1.76659 1.82666 1.88011 1.5708 1.63171 1.69667 1.76333 1.82878 
1.89004 1.94473 1.99148 1.72413 1.83164 1.79288 1.94707 1.90847 1.86489 
2.06758 2.03138 1.98711 1.93728 2.18928 2.15805 2.11543 2.06376 2.00658 
2.30791 2.28408 2.24572 2.19453 2.13422 2.06938 2.4195 2.40503 2.3734 
2.32523 2.26401 2.1949 2.12312 2.52097 2.51718 2.49426 2.45144 2.39165 
2.32035 2.24359 2.16654 2.70908 2.81592 2.71362 2.92597 2.81002 2.68886 
3.01997 2.89233 2.76254 2.6349 3.01997 2.92834 2.80854 2.68262 2.55881 
2.92597 2.89233 2.80854 2.70048 2.58462 2.47007 2.81592 2.81002 2.76254 
2.68262 2.58462 2.48017 2.37702 2.70908 2.71362 2.68886 2.6349 2.55881 
2.47007 2.37702 2.28567 2.16654 2.24359 2.12312 2.32035 2.1949 2.06938 
2.39165 2.26401 2.13422 2.00658 2.45144 2.32523 2.19453 2.06376 1.93728 
2.49426 2.3734 2.24572 2.11543 1.98711 1.86489 2.51718 2.40503 2.28408 
2.15805 2.03138 1.90847 1.79288 2.52097 2.4195 2.30791 2.18928 2.06758 
1.94707 1.83164 1.72413 1.66533 1.76911 1.66946 1.88041 1.777 1.67254 
1.99634 1.89102 1.78222 1.67418 2.11299 2.00785 1.89674 1.78405 1.67418 
2.22608 2.12307 2.01191 1.89674 1.78222 1.67254 2.33166 2.23222 2.12307 
2.00785 1.89102 1.777 1.66946 2.42672 2.33166 2.22608 2.11299 1.99634 
1.88041 1.76911 1.66533 1.47626 1.47213 1.37249 1.46906 1.36459 1.26118 
1.46741 1.35938 1.25058 1.14526 1.46741 1.35755 1.24485 1.13374 1.0286 
1.46906 1.35938 1.24485 1.12969 1.01852 0.915514 1.47213 1.36459 1.25058 
1.13374 1.01852 0.909371 0.809937 1.47626 1.37249 1.26118 1.14526 1.0286 
0.915514 0.809937 0.714871 1.41746 1.30996 1.34871 1.19452 1.23313 1.2767 
1.07402 1.11021 1.15448 1.20431 0.952313 0.983547 1.02616 1.07784 1.13501 
0.833684 0.857515 0.895868 0.94706 1.00737 1.07221 0.722093 0.736561 0.768195 
0.816367 0.877585 0.946693 1.01847 0.620619 0.624416 0.647337 0.690152 0.749941 
0.821245 0.898002 0.975055 0.975055 0.898002 1.01847 0.821245 0.946693 1.07221 
0.749941 0.877585 1.00737 1.13501 0.690152 0.816367 0.94706 1.07784 1.20431 
0.647337 0.768195 0.895868 1.02616 1.15448 1.2767 0.624416 0.736561 0.857515 
0.983547 1.11021 1.23313 1.34871 0.620619 0.722093 0.833684 0.952313 1.07402 
1.19452 1.30996 1.41746 
Phi 1 1002 float
6.28319 3.14159 6.28319 3.14159 4.71239 4.71239 1.5708 1.5708 3.69517 
5.72961 2.58802 0.553574 6.28319 6.28319 6.28319 6.28319 3.14159 3.14159 
3.14159 3.14159 3.14159 6.1053 5.8988 5.67687 5.45995 5.26596 5.10322 
4.97131 4.86569 4.78095 0.177881 0.384387 0.606312 0.823235 1.01722 1.17997 
1.31187 1.4175 1.50223 6.18928 6.10703 6.03531 5.97283 5.91832 5.87061 
5.82869 5.79168 5.75886 0.0939024 0.176153 0.247873 0.310351 0.364864 0.412573 
0.454497 0.491504 0.524326 3.31947 3.52598 3.7479 3.96483 4.15881 4.32156 
4.45346 4.55909 4.64383 2.96371 2.75721 2.53528 2.31836 2.12437 1.96162 
1.82972 1.72409 1.63936 3.2355 3.31775 3.38947 3.45194 3.50646 3.55417 
3.59609 3.6331 3.66592 3.04769 2.96544 2.89372 2.83124 2.77673 2.72902 
2.6871 2.65009 2.61727 6.28319 6.28319 6.28319 6.28319 3.14159 3.14159 
3.14159 3.14159 3.14159 6.1053 5.8988 5.67687 5.45995 5.26596 5.10322 
4.97131 4.86569 4.78095 0.177881 0.384387 0.606312 0.823235 1.01722 1.17997 
1.31187 1.4175 1.50223 6.18928 6.10703 6.03531 5.97283 5.91832 5.87061 
5.82869 5.79168 5.75886 0.0939024 0.176153 0.247873 0.310351 0.364864 0.412573 
0.454497 0.491504 0.524326 3.31947 3.52598 3.7479 3.96483 4.15881 4.32156 
4.45346 4.55909 4.64383 2.96371 2.75721 2.53528 2.31836 2.12437 1.96162 
1.82972 1.72409 1.63936 3.2355 3.31775 3.38947 3.45194 3.50646 3.55417 
3.59609 3.6331 3.66592 3.04769 2.96544 2.89372 2.83124 2.77673 2.72902 
2.6871 2.65009 2.61727 4.71239 4.71239 4.71239 4.71239 4.71239 4.71239 
4.71239 4.71239 4.71239 4.60879 4.49914 4.3857 4.27128 4.15881 4.05096 
3.94976 3.85646 3.77161 4.81599 4.92564 5.03907 5.1535 5.26596 5.37381 
5.47502 5.56831 5.65317 4.60879 4.49914 4.3857 4.27128 4.15881 4.05096 
3.94976 3.85646 3.77161 4.81599 4.92564 5.03907 5.1535 5.26596 5.37381 
5.47502 5.56831 5.65317 1.5708 1.5708 1.5708 1.5708 1.5708 1.5708 
1.5708 1.5708 1.5708 1.6744 1.78405 1.89748 2.01191 2.12437 2.23222 
2.33343 2.42672 2.51157 1.4672 1.35755 1.24411 1.12969 1.01722 0.909371 
0.808166 0.714871 0.63002 1.6744 1.78405 1.89748 2.01191 2.12437 2.23222 
2.33343 2.42672 2.51157 1.4672 1.35755 1.24411 1.12969 1.01722 0.909371 
0.808166 0.714871 0.63002 3.60077 3.49669 3.38395 3.26458 3.14159 3.01861 
2.89924 2.78649 2.68241 5.82401 5.92808 6.04083 6.1602 6.28319 0.122983 
0.242354 0.355101 0.459179 6.05603 5.78856 5.97021 5.51259 5.60297 5.78856 
5.26596 5.26596 5.26596 5.26596 5.06749 5.0121 4.91556 4.71239 4.15881 
4.91556 4.83537 4.71239 4.50922 4.15881 3.63622 4.80045 4.71239 4.58941 
4.41268 4.15881 3.82181 3.45456 4.71239 4.62433 4.50922 4.35729 4.15881 
3.91219 3.63622 3.36875 6.01742 5.94343 5.82633 5.88092 5.76745 5.62798 
5.8278 5.71897 5.58911 5.43724 5.78235 5.67854 5.55757 5.41926 5.26596 
5.74316 5.64441 5.5315 5.40467 5.26596 5.11955 5.70914 5.61528 5.50962 
5.3926 5.26596 5.13292 4.99789 5.67937 5.59016 5.49102 5.38246 5.26596 
5.14407 5.02016 4.89798 5.56831 5.47502 5.47502 5.37381 5.37381 5.37381 
5.26596 5.26596 5.26596 5.26596 5.1535 5.1535 5.1535 5.1535 5.1535 
5.03907 5.03907 5.03907 5.03907 5.03907 5.03907 4.92564 4.92564 4.92564 
4.92564 4.92564 4.92564 4.92564 4.81599 4.81599 4.81599 4.81599 4.81599 
4.81599 4.81599 4.81599 4.60879 4.60879 4.49914 4.60879 4.49914 4.3857 
4.60879 4.49914 4.3857 4.27128 4.60879 4.49914 4.3857 4.27128 4.15881 
4.60879 4.49914 4.3857 4.27128 4.15881 4.05096 4.60879 4.49914 4.3857 
4.27128 4.15881 4.05096 3.94976 4.60879 4.49914 4.3857 4.27128 4.15881 
4.05096 3.94976 3.85646 4.5268 4.40462 4.42689 4.28071 4.29185 4.30523 
4.15881 4.15881 4.15881 4.15881 4.04232 4.03217 4.02011 4.00552 3.98753 
3.93376 3.91515 3.89328 3.86721 3.83566 3.7968 3.83461 3.8095 3.78037 
3.74624 3.70581 3.65733 3.59845 3.7454 3.71564 3.68161 3.64243 3.59698 
3.54386 3.48135 3.40735 3.56428 3.45246 3.52338 3.33203 3.40312 3.47739 
3.20576 3.27463 3.34802 3.42551 3.07742 3.14159 3.21128 3.28647 3.36688 
2.95116 3.00855 3.0719 3.14159 3.21784 3.3006 2.83072 2.88006 2.93517 
2.99672 3.06535 3.14159 3.22575 2.7189 2.7598 2.8058 2.85768 2.9163 
2.98259 3.05743 3.14159 3.56428 3.52338 3.45246 3.47739 3.40312 3.33203 
3.42551 3.34802 3.27463 3.20576 3.36688 3.28647 3.21128 3.14159 3.07742 
3.3006 3.21784 3.14159 3.0719 3.00855 2.95116 3.22575 3.14159 3.06535 
2.99672 2.93517 2.88006 2.83072 3.14159 3.05743 2.98259 2.9163 2.85768 
2.8058 2.7598 2.7189 4.5268 4.42689 4.40462 4.30523 4.29185 4.28071 
4.15881 4.15881 4.15881 4.15881 3.98753 4.00552 4.02011 4.03217 4.04232 
3.7968 3.83566 3.86721 3.89328 3.91515 3.93376 3.59845 3.65733 3.70581 
3.74624 3.78037 3.8095 3.83461 3.40735 3.48135 3.54386 3.59698 3.64243 
3.68161 3.71564 3.7454 4.71239 4.80045 4.62433 4.91556 4.71239 4.50922 
5.06749 4.83537 4.58941 4.35729 5.26596 5.0121 4.71239 4.41268 4.15881 
5.51259 5.26596 4.91556 4.50922 4.15881 3.91219 5.78856 5.60297 5.26596 
4.71239 4.15881 3.82181 3.63622 6.05603 5.97021 5.78856 5.26596 4.15881 
3.63622 3.45456 3.36875 0.227158 0.494626 0.312971 0.770593 0.680215 0.494626 
1.01722 1.01722 1.01722 1.01722 1.2157 1.27109 1.36763 1.5708 2.12437 
1.36763 1.44781 1.5708 1.77397 2.12437 2.64697 1.48273 1.5708 1.69378 
1.8705 2.12437 2.46138 2.82862 1.5708 1.65886 1.77397 1.9259 2.12437 
2.371 2.64697 2.91443 1.75639 1.87857 1.8563 2.00248 1.99133 1.97796 
2.12437 2.12437 2.12437 2.12437 2.24087 2.25101 2.26308 2.27767 2.29565 
2.34943 2.36803 2.38991 2.41597 2.44752 2.48639 2.44857 2.47368 2.50281 
2.53694 2.57738 2.62586 2.68474 2.53778 2.56754 2.60157 2.64076 2.68621 
2.73933 2.80184 2.87583 1.6744 1.6744 1.78405 1.6744 1.78405 1.89748 
1.6744 1.78405 1.89748 2.01191 1.6744 1.78405 1.89748 2.01191 2.12437 
1.6744 1.78405 1.89748 2.01191 2.12437 2.23222 1.6744 1.78405 1.89748 
2.01191 2.12437 2.23222 2.33343 1.6744 1.78405 1.89748 2.01191 2.12437 
2.23222 2.33343 2.42672 1.4672 1.35755 1.4672 1.24411 1.35755 1.4672 
1.12969 1.24411 1.35755 1.4672 1.01722 1.12969 1.24411 1.35755 1.4672 
0.909371 1.01722 1.12969 1.24411 1.35755 1.4672 0.808166 0.909371 1.01722 
1.12969 1.24411 1.35755 1.4672 0.714871 0.808166 0.909371 1.01722 1.12969 
1.24411 1.35755 1.4672 0.603812 0.57405 0.693022 0.540021 0.667908 0.792164 
0.500837 0.638778 0.773562 0.900726 0.455383 0.604649 0.751687 0.890581 1.01722 
0.402264 0.564217 0.725619 0.878514 1.01722 1.13912 0.339753 0.515737 0.694072 
0.863926 1.01722 1.15026 1.26302 0.265762 0.456853 0.655207 0.845941 1.01722 
1.16363 1.28529 1.38521 0.227158 0.312971 0.494626 0.494626 0.680215 0.770593 
1.01722 1.01722 1.01722 1.01722 2.12437 1.5708 1.36763 1.27109 1.2157 
2.64697 2.12437 1.77397 1.5708 1.44781 1.36763 2.82862 2.46138 2.12437 
1.8705 1.69378 1.5708 1.48273 2.91443 2.64697 2.371 2.12437 1.9259 
1.77397 1.65886 1.5708 1.75639 1.8563 1.87857 1.97796 1.99133 2.00248 
2.12437 2.12437 2.12437 2.12437 2.29565 2.27767 2.26308 2.25101 2.24087 
2.48639 2.44752 2.41597 2.38991 2.36803 2.34943 2.68474 2.62586 2.57738 
2.53694 2.50281 2.47368 2.44857 2.87583 2.80184 2.73933 2.68621 2.64076 
2.60157 2.56754 2.53778 5.86049 5.90139 5.97231 5.94739 6.02165 6.09275 
5.99927 6.07676 6.15015 6.21902 6.0579 6.13831 6.2135 0 0.0641696 
6.12418 6.20694 6.28319 0.069689 0.13304 0.190437 6.19903 0 0.0762451 
0.144876 0.206423 0.261531 0.310872 0 0.0841597 0.159004 0.225289 0.283913 
0.335793 0.381792 0.422692 5.86049 5.97231 5.90139 6.09275 6.02165 5.94739 
6.21902 6.15015 6.07676 5.99927 0.0641696 0 6.2135 6.13831 6.0579 
0.190437 0.13304 0.069689 6.28319 6.20694 6.12418 0.310872 0.261531 0.206423 
0.144876 0.0762451 6.28319 6.19903 0.422692 0.381792 0.335793 0.283913 0.225289 
0.159004 0.0841597 0 5.67937 5.70914 5.59016 5.74316 5.61528 5.49102 
5.78235 5.64441 5.50962 5.38246 5.8278 5.67854 5.5315 5.3926 5.26596 
5.88092 5.71897 5.55757 5.40467 5.26596 5.14407 5.94343 5.76745 5.58911 
5.41926 5.26596 5.13292 5.02016 6.01742 5.82633 5.62798 5.43724 5.26596 
5.11955 4.99789 4.89798 1.38521 1.28529 1.26302 1.16363 1.15026 1.13912 
1.01722 1.01722 1.01722 1.01722 0.845941 0.863926 0.878514 0.890581 0.900726 
0.655207 0.694072 0.725619 0.751687 0.773562 0.792164 0.456853 0.515737 0.564217 
0.604649 0.638778 0.667908 0.693022 0.265762 0.339753 0.402264 0.455383 0.500837 
0.540021 0.57405 0.603812 
