# vtk DataFile Version 4.0
vtk output
ASCII
DATASET POLYDATA
POINTS 1002 float
-89.9816 -95.4622 71.3221 -84.7328 -102.135 69.6595 -83.6369 -91.3971 70.5585 
-79.2203 -98.9302 69.5207 -85.3727 -98.2687 75.2661 -82.1653 -96.4326 75.1627 
-86.9974 -97.7193 65.2506 -83.2074 -95.6975 65.1754 -79.6077 -104.748 72.5297 
-87.7117 -90.3313 74.8755 -80.2404 -103.552 65.886 -88.5687 -89.3178 68.0263 
-89.691 -96.1694 71.1264 -89.1042 -96.6271 70.7844 -88.4617 -97.157 70.5233 
-88.1043 -98.1352 70.4897 -87.8129 -99.2008 70.481 -87.1665 -99.8585 70.3277 
-86.3515 -100.355 70.1441 -85.7019 -100.973 69.9936 -85.1951 -101.597 69.8291 
-89.6973 -95.6331 71.6925 -89.1401 -95.7002 71.9119 -88.4756 -95.7737 72.0995 
-87.9775 -96.0336 72.5461 -87.6801 -96.4745 73.2452 -87.3262 -96.93 73.8337 
-86.7662 -97.2785 74.2111 -86.1553 -97.5333 74.5539 -85.6879 -97.8327 74.9175 
-89.9533 -95.7466 70.7363 -89.8821 -96.0948 70.0336 -89.9555 -96.5844 69.2842 
-90.0069 -97.072 68.4753 -89.6232 -97.3028 67.7645 -88.8558 -97.2923 67.3075 
-88.1589 -97.3046 66.8451 -87.7157 -97.4695 66.1911 -87.3789 -97.6579 65.592 
-89.9644 -94.6958 71.6201 -89.8613 -93.9354 71.8936 -89.8991 -93.4116 72.3622 
-90.0333 -92.9531 72.9587 -89.8373 -92.255 73.3291 -89.3016 -91.534 73.4776 
-88.8735 -91.0755 73.787 -88.5977 -90.7456 74.3042 -88.2241 -90.4635 74.7152 
-90.1108 -94.7158 71.0478 -90.2671 -93.8699 70.662 -90.5828 -93.1341 70.3012 
-90.7589 -92.4979 70.0728 -90.5106 -91.6966 69.8353 -90.1603 -90.7163 69.3935 
-89.9331 -89.9757 68.8842 -89.5715 -89.6747 68.5333 -89.0382 -89.534 68.291 
-84.6755 -101.851 70.0957 -84.6678 -101.56 70.6111 -84.7358 -101.245 71.2645 
-84.8575 -100.906 71.9916 -84.9643 -100.496 72.6525 -85.01 -99.935 73.1962 
-85.0335 -99.3395 73.6917 -85.1049 -98.8964 74.2296 -85.2335 -98.5799 74.7931 
-85.0462 -102.04 69.2837 -85.2445 -101.732 68.7478 -85.4249 -101.303 68.0748 
-85.7334 -100.975 67.4439 -86.0314 -100.584 66.9712 -86.1469 -99.8971 66.6111 
-86.22 -99.1808 66.3069 -86.419 -98.653 66.0028 -86.7123 -98.1858 65.6414 
-84.2135 -102.494 69.8127 -83.7651 -103.028 70.1579 -83.3737 -103.65 70.619 
-82.7477 -103.999 70.8546 -82.0029 -104.204 70.9478 -81.5891 -104.682 71.444 
-81.3362 -105.168 72.183 -80.839 -105.257 72.5135 -80.179 -105.056 72.4806 
-84.4896 -102.651 69.2549 -84.1374 -103.126 68.7469 -83.5312 -103.368 68.2481 
-82.7373 -103.44 67.9002 -82.0481 -103.612 67.5682 -81.6628 -103.882 67.1105 
-81.4563 -104.065 66.6613 -81.1273 -104.095 66.2928 -80.6369 -103.931 66.0049 
-83.0726 -91.7838 70.5053 -82.6776 -92.4717 70.3622 -82.3172 -93.3931 70.195 
-81.7452 -94.2229 70.1013 -81.1281 -95.0015 70.061 -80.6437 -95.838 69.9748 
-80.122 -96.5287 69.8223 -79.6225 -97.172 69.6721 -79.3502 -98.0175 69.5765 
-83.5333 -91.6978 70.9174 -83.5245 -92.1597 71.3109 -83.4055 -92.6332 71.9357 
-83.0282 -92.9233 72.7193 -82.6416 -93.1904 73.3813 -82.4823 -93.7365 73.8807 
-82.4296 -94.4721 74.3001 -82.3618 -95.1793 74.6193 -82.2776 -95.8325 74.8809 
-83.3715 -91.3556 70.0797 -83.0377 -91.3634 69.3566 -82.768 -91.5627 68.4791 
-82.7069 -92.0255 67.8484 -82.8594 -92.7626 67.5245 -83.033 -93.5968 67.0655 
-83.0646 -94.2059 66.4025 -83.0417 -94.6292 65.8608 -83.1024 -95.1359 65.4971 
-84.0872 -91.1135 70.8639 -84.4339 -90.639 71.3084 -84.7913 -90.2133 71.7965 
-85.2045 -90.0052 72.1843 -85.6037 -89.8578 72.6289 -85.9849 -89.7296 73.2306 
-86.36 -89.7535 73.7472 -86.77 -89.8902 74.1392 -87.2557 -90.07 74.5431 
-84.1864 -91.0566 70.235 -84.625 -90.452 69.8235 -84.7208 -89.4866 69.476 
-84.9067 -88.7455 69.1431 -85.6026 -88.5239 68.6422 -86.4486 -88.2609 68.0507 
-87.1109 -87.925 67.689 -87.671 -88.0915 67.7035 -88.1596 -88.7125 67.9048 
-79.3827 -98.8414 70.0186 -79.4669 -98.5733 70.673 -79.4213 -98.1194 71.5392 
-79.5465 -97.7629 72.296 -80.1006 -97.6562 72.7061 -80.741 -97.5368 73.0906 
-81.1317 -97.2373 73.6839 -81.4393 -96.9022 74.279 -81.808 -96.6429 74.7543 
-79.1755 -98.4412 68.9825 -79.2607 -98.0314 68.3401 -79.5201 -97.7202 67.734 
-79.8831 -97.3831 67.1334 -80.3037 -97.0351 66.5128 -80.8334 -96.7547 66.0709 
-81.442 -96.4715 65.8047 -82.0301 -96.1721 65.5369 -82.6074 -95.9236 65.3056 
-79.1349 -99.7094 69.7367 -78.8734 -100.322 69.9118 -78.5951 -100.985 70.136 
-78.6429 -102.002 70.3923 -78.8888 -103.028 70.5804 -78.872 -103.639 70.8905 
-78.6809 -104.094 71.5189 -78.7287 -104.565 72.1512 -79.0859 -104.804 72.4527 
-79.0401 -99.496 69.1471 -78.84 -100.099 68.6218 -78.5609 -100.758 68.0146 
-78.3316 -101.492 67.5549 -78.5094 -102.284 67.2823 -78.974 -102.922 67.0346 
-79.2439 -103.251 66.7296 -79.3879 -103.415 66.3834 -79.7312 -103.536 66.0732 
-85.2272 -98.3364 75.6796 -84.9243 -98.285 75.9998 -84.5642 -98.1259 76.2376 
-84.2412 -97.8807 76.391 -83.7364 -97.4795 76.4541 -83.0271 -97.061 76.4382 
-82.5373 -96.8813 76.2988 -82.3792 -96.8257 75.9964 -82.2902 -96.6646 75.589 
-85.022 -99.0606 75.3618 -84.5348 -99.8246 75.3008 -83.763 -100.264 74.9164 
-82.9187 -100.653 74.4854 -82.3525 -101.466 74.3498 -81.9417 -102.355 74.2054 
-81.3646 -102.875 73.7035 -80.6792 -103.356 73.1231 -80.0833 -104.06 72.7635 
-85.7356 -97.6431 75.4808 -86.2448 -97.0562 75.7848 -86.7495 -96.3509 76.0773 
-87.076 -95.3979 76.1968 -87.2797 -94.4293 76.1725 -87.4277 -93.5668 76.0341 
-87.5219 -92.6206 75.7753 -87.6314 -91.65 75.5144 -87.728 -90.8797 75.2547 
-81.7847 -97.1135 75.213 -81.4709 -97.9443 75.0638 -81.3264 -99.0677 74.6454 
-81.0918 -100.244 74.3254 -80.5806 -101.199 74.3513 -80.0182 -101.948 74.4304 
-79.6168 -102.548 74.1981 -79.4168 -103.158 73.6172 -79.4329 -103.944 72.9667 
-82.5411 -95.7624 75.4006 -82.9174 -94.9058 75.6971 -83.5204 -94.1902 75.8384 
-84.3366 -93.7109 75.7351 -85.0017 -92.9703 75.7921 -85.4596 -91.9338 76.1131 
-85.9752 -91.2244 76.1379 -86.582 -90.9054 75.7177 -87.1755 -90.6218 75.2417 
-86.8166 -97.3677 64.9178 -86.5594 -96.9703 64.6218 -86.4042 -96.6967 64.2522 
-86.1872 -96.4255 63.8765 -85.6026 -95.9538 63.7504 -84.9152 -95.5826 63.9417 
-84.4795 -95.62 64.2738 -84.126 -95.808 64.605 -83.671 -95.8319 64.9034 
-86.4094 -98.048 65.2424 -85.812 -98.6288 65.0736 -85.1265 -99.3716 64.8348 
-84.4133 -100.067 64.7317 -83.7748 -100.91 64.5864 -82.9771 -101.913 64.3784 
-82.0168 -102.538 64.5568 -81.2793 -102.751 65.1184 -80.7709 -103.041 65.6125 
-87.5397 -97.282 65.0248 -87.9409 -96.6759 65.0448 -87.9572 -95.7729 65.5145 
-87.8037 -94.887 66.2498 -87.9726 -94.1632 66.9311 -88.464 -93.1217 67.363 
-88.848 -91.7348 67.4969 -88.9212 -90.602 67.5617 -88.7853 -89.8878 67.7686 
-82.8093 -96.273 64.8578 -82.244 -96.6768 64.4878 -81.7307 -97.2952 64.2398 
-81.3162 -98.4151 64.1505 -80.8732 -99.5129 64.166 -80.6153 -100.2 64.4771 
-80.6766 -100.893 65.0803 -80.6683 -101.796 65.5587 -80.4275 -102.709 65.761 
-83.6981 -95.036 65.2457 -84.0877 -94.3057 65.2931 -84.5768 -93.7631 65.5042 
-85.302 -93.3544 65.9813 -86.0343 -92.7901 66.5334 -86.6527 -92.0163 66.9704 
-87.3134 -91.089 67.263 -87.9303 -90.157 67.4513 -88.3187 -89.5413 67.6695 
-79.4549 -105.421 72.1374 -79.2356 -105.794 71.5518 -78.9928 -106.124 70.7671 
-78.8594 -106.511 69.83 -78.9444 -106.542 68.7871 -79.2049 -106.209 67.808 
-79.4529 -105.882 67.0191 -79.6282 -105.382 66.4454 -79.8733 -104.502 66.1028 
-87.9501 -89.8937 74.3056 -88.1408 -89.4968 73.5494 -88.3147 -89.1477 72.7432 
-88.4594 -88.8015 72.0591 -88.5712 -88.454 71.3186 -88.7228 -88.2266 70.412 
-88.8141 -88.2647 69.6241 -88.7233 -88.5483 69.0361 -88.6005 -88.9251 68.498 
-89.2552 -96.2772 71.5039 -88.619 -96.3293 71.7465 -88.5685 -96.7425 71.2005 
-87.9898 -96.4701 71.9928 -88.0308 -96.9588 71.5493 -88.0075 -97.4633 70.9973 
-87.5115 -96.8107 72.5184 -87.5797 -97.3547 71.9689 -87.6636 -97.9475 71.4735 
-87.7017 -98.5494 70.9534 -87.1368 -97.2695 73.1833 -87.1637 -97.8373 72.6084 
-87.3411 -98.5034 72.0516 -87.3171 -99.0074 71.4517 -87.2242 -99.4351 70.8899 
-86.6936 -97.6617 73.6393 -86.7274 -98.2201 73.1863 -86.8746 -98.8718 72.6766 
-86.8411 -99.363 72.0003 -86.6188 -99.6777 71.3378 -86.4744 -100.025 70.7514 
-86.1149 -97.9026 73.9642 -86.1838 -98.4203 73.5183 -86.2628 -99.0069 73.0868 
-86.1809 -99.4973 72.4594 -85.9565 -99.8589 71.7544 -85.8175 -100.245 71.1402 
-85.784 -100.663 70.5651 -85.5797 -98.1494 74.3573 -85.5753 -98.5723 73.8311 
-85.5995 -99.1057 73.361 -85.518 -99.6353 72.8095 -85.3337 -100.065 72.1481 
-85.202 -100.473 71.4861 -85.1885 -100.915 70.8737 -85.2075 -101.304 70.321 
-89.5868 -94.8554 71.9314 -89.4678 -94.1356 72.227 -88.9918 -94.9581 72.1492 
-89.5399 -93.6998 72.792 -88.9238 -94.3441 72.5931 -88.4166 -95.1998 72.5423 
-89.504 -93.2576 73.3709 -88.9538 -93.9599 73.2418 -88.4291 -94.761 73.1914 
-88.1013 -95.6936 73.2579 -89.0807 -92.5803 73.6551 -88.8007 -93.5159 73.769 
-88.3945 -94.3928 73.824 -88.1159 -95.3764 73.9451 -87.8552 -96.249 74.0014 
-88.6281 -91.9508 73.9062 -88.4998 -92.9606 74.1667 -88.3076 -93.9603 74.4207 
-87.9936 -94.9671 74.5421 -87.76 -95.9363 74.6341 -87.3723 -96.6918 74.5325 
-88.3792 -91.5 74.4043 -88.2315 -92.4695 74.648 -88.1864 -93.5082 75.0634 
-87.9512 -94.4843 75.2575 -87.6206 -95.4735 75.2603 -87.2799 -96.3795 75.2062 
-86.7466 -97.0287 74.9356 -88.122 -91.1324 74.9371 -87.9525 -92.0375 75.1472 
-87.8944 -93.0687 75.5373 -87.8067 -94.003 75.8434 -87.5575 -94.9228 75.865 
-87.2407 -95.9302 75.792 -86.7822 -96.7551 75.6031 -86.1905 -97.317 75.2512 
-87.2282 -91.1756 75.6913 -86.7046 -91.4762 76.1486 -87.1913 -92.0013 75.9534 
-86.0755 -91.9675 76.4136 -86.6483 -92.4212 76.3126 -87.0338 -93.0366 76.0962 
-85.3511 -92.8741 76.3494 -85.8352 -93.1168 76.6613 -86.3178 -93.6203 76.5039 
-86.7957 -94.0447 76.2845 -84.673 -93.8031 76.2072 -84.9918 -93.9629 76.946 
-85.4435 -94.3586 77.2842 -85.9769 -94.7327 76.9674 -86.59 -95.0174 76.5199 
-84.0272 -94.439 76.1144 -84.4355 -94.593 76.8445 -84.8655 -94.8648 77.7118 
-85.3015 -95.2817 77.8395 -85.7956 -95.639 77.184 -86.37 -95.9846 76.5055 
-83.3747 -95.1393 75.9442 -83.8682 -95.221 76.3865 -84.4289 -95.2573 77.1515 
-84.9283 -95.5554 77.7094 -85.2178 -96.0184 77.4544 -85.5524 -96.4389 76.721 
[...]
POINT_DATA 1002
FIELD FieldData 2
Theta 1 1002 float
2.58802 2.58802 0.553574 0.553574 2.12437 1.01722 2.12437 1.01722 1.5708 
1.5708 1.5708 1.5708 2.68241 2.78649 2.89924 3.01861 3.14159 3.01861 
2.89924 2.78649 2.68241 2.61035 2.61791 2.60515 2.56958 2.51327 2.44184 
2.36202 2.27983 2.1997 2.61035 2.61791 2.60515 2.56958 2.51327 2.44184 
2.36202 2.27983 2.1997 2.50947 2.41899 2.31794 2.20864 2.0944 1.97902 
1.86631 1.75944 1.66056 2.50947 2.41899 2.31794 2.20864 2.0944 1.97902 
1.86631 1.75944 1.66056 2.61035 2.61791 2.60515 2.56958 2.51327 2.44184 
2.36202 2.27983 2.1997 2.61035 2.61791 2.60515 2.56958 2.51327 2.44184 
2.36202 2.27983 2.1997 2.50947 2.41899 2.31794 2.20864 2.0944 1.97902 
1.86631 1.75944 1.66056 2.50947 2.41899 2.31794 2.20864 2.0944 1.97902 
1.86631 1.75944 1.66056 0.459179 0.355101 0.242354 0.122983 0 0.122983 
0.242354 0.355101 0.459179 0.531246 0.523681 0.536438 0.57201 0.628319 0.699757 
0.779574 0.86176 0.941896 0.531246 0.523681 0.536438 0.57201 0.628319 0.699757 
0.779574 0.86176 0.941896 0.632123 0.7226 0.823657 0.932948 1.0472 1.16257 
1.27528 1.38216 1.48103 0.632123 0.7226 0.823657 0.932948 1.0472 1.16257 
1.27528 1.38216 1.48103 0.531246 0.523681 0.536438 0.57201 0.628319 0.699757 
0.779574 0.86176 0.941896 0.531246 0.523681 0.536438 0.57201 0.628319 0.699757 
0.779574 0.86176 0.941896 0.632123 0.7226 0.823657 0.932948 1.0472 1.16257 
1.27528 1.38216 1.48103 0.632123 0.7226 0.823657 0.932948 1.0472 1.16257 
1.27528 1.38216 1.48103 2.02998 1.9259 1.81315 1.69378 1.5708 1.44781 
1.32844 1.2157 1.11162 2.0928 2.05283 2.00422 1.94767 1.88496 1.81867 
1.75177 1.68695 1.62623 2.0928 2.05283 2.00422 1.94767 1.88496 1.81867 
1.75177 1.68695 1.62623 1.0488 1.08876 1.13737 1.19392 1.25664 1.32292 
1.38982 1.45464 1.51537 1.0488 1.08876 1.13737 1.19392 1.25664 1.32292 
1.38982 1.45464 1.51537 2.02998 1.9259 1.81315 1.69378 1.5708 1.44781 
1.32844 1.2157 1.11162 2.0928 2.05283 2.00422 1.94767 1.88496 1.81867 
1.75177 1.68695 1.62623 2.0928 2.05283 2.00422 1.94767 1.88496 1.81867 
1.75177 1.68695 1.62623 1.0488 1.08876 1.13737 1.19392 1.25664 1.32292 
1.38982 1.45464 1.51537 1.0488 1.08876 1.13737 1.19392 1.25664 1.32292 
1.38982 1.45464 1.51537 1.5708 1.5708 1.5708 1.5708 1.5708 1.5708 
1.5708 1.5708 1.5708 1.5708 1.5708 1.5708 1.5708 1.5708 1.5708 
1.5708 1.5708 1.5708 2.70908 2.71362 2.81592 2.68886 2.81002 2.92597 
2.6349 2.76254 2.89233 3.01997 2.55881 2.68262 2.80854 2.92834 3.01997 
2.47007 2.58462 2.70048 2.80854 2.89233 2.92597 2.37702 2.48017 2.58462 
2.68262 2.76254 2.81002 2.81592 2.28567 2.37702 2.47007 2.55881 2.6349 
2.68886 2.71362 2.70908 2.52097 2.4195 2.51718 2.30791 2.40503 2.49426 
2.18928 2.28408 2.3734 2.45144 2.06758 2.15805 2.24572 2.32523 2.39165 
1.94707 2.03138 2.11543 2.19453 2.26401 2.32035 1.83164 1.90847 1.98711 
2.06376 2.13422 2.1949 2.24359 1.72413 1.79288 1.86489 1.93728 2.00658 
2.06938 2.12312 2.16654 1.5708 1.50988 1.63171 1.44492 1.5708 1.69667 
1.37826 1.5059 1.63569 1.76333 1.31281 1.43962 1.5708 1.70197 1.82878 
1.25155 1.37501 1.50478 1.63681 1.76659 1.89004 1.19686 1.31493 1.44074 
1.5708 1.70086 1.82666 1.94473 1.15011 1.26149 1.38136 1.50697 1.63462 
1.76024 1.88011 1.99148 1.99148 1.88011 1.94473 1.76024 1.82666 1.89004 
1.63462 1.70086 1.76659 1.82878 1.50697 1.5708 1.63681 1.70197 1.76333 
1.38136 1.44074 1.50478 1.5708 1.63569 1.69667 1.26149 1.31493 1.37501 
1.43962 1.5059 1.5708 1.63171 1.15011 1.19686 1.25155 1.31281 1.37826 
1.44492 1.50988 1.5708 2.16654 2.12312 2.24359 2.06938 2.1949 2.32035 
2.00658 2.13422 2.26401 2.39165 1.93728 2.06376 2.19453 2.32523 2.45144 
1.86489 1.98711 2.11543 2.24572 2.3734 2.49426 1.79288 1.90847 2.03138 
2.15805 2.28408 2.40503 2.51718 1.72413 1.83164 1.94707 2.06758 2.18928 
2.30791 2.4195 2.52097 1.66533 1.66946 1.76911 1.67254 1.777 1.88041 
1.67418 1.78222 1.89102 1.99634 1.67418 1.78405 1.89674 2.00785 2.11299 
1.67254 1.78222 1.89674 2.01191 2.12307 2.22608 1.66946 1.777 1.89102 
2.00785 2.12307 2.23222 2.33166 1.66533 1.76911 1.88041 1.99634 2.11299 
2.22608 2.33166 2.42672 1.47626 1.37249 1.47213 1.26118 1.36459 1.46906 
1.14526 1.25058 1.35938 1.46741 1.0286 1.13374 1.24485 1.35755 1.46741 
0.915514 1.01852 1.12969 1.24485 1.35938 1.46906 0.809937 0.909371 1.01852 
1.13374 1.25058 1.36459 1.47213 0.714871 0.809937 0.915514 1.0286 1.14526 
1.26118 1.37249 1.47626 0.975055 0.898002 1.01847 0.821245 0.946693 1.07221 
0.749941 0.877585 1.00737 1.13501 0.690152 0.816367 0.94706 1.07784 1.20431 
0.647337 0.768195 0.895868 1.02616 1.15448 1.2767 0.624416 0.736561 0.857515 
0.983547 1.11021 1.23313 1.34871 0.620619 0.722093 0.833684 0.952313 1.07402 
1.19452 1.30996 1.41746 0.855925 0.764569 0.764569 0.671524 0.661425 0.671524 
0.582786 0.556971 0.556971 0.582786 0.506696 0.458968 0.441109 0.458968 0.506696 
0.45273 0.379052 0.333054 0.333054 0.379052 0.45273 0.427969 0.331576 0.249267 
0.21325 0.249267 0.331576 0.427969 0.432512 0.325669 0.215619 0.121622 0.121622 
0.215619 0.325669 0.432512 0.432512 0.427969 0.325669 0.45273 0.331576 0.215619 
0.506696 0.379052 0.249267 0.121622 0.582786 0.458968 0.333054 0.21325 0.121622 
0.671524 0.556971 0.441109 0.333054 0.249267 0.215619 0.764569 0.661425 0.556971 
0.458968 0.379052 0.331576 0.325669 0.855925 0.764569 0.671524 0.582786 0.506696 
0.45273 0.427969 0.432512 0.975055 1.01847 0.898002 1.07221 0.946693 0.821245 
1.13501 1.00737 0.877585 0.749941 1.20431 1.07784 0.94706 0.816367 0.690152 
1.2767 1.15448 1.02616 0.895868 0.768195 0.647337 1.34871 1.23313 1.11021 
0.983547 0.857515 0.736561 0.624416 1.41746 1.30996 1.19452 1.07402 0.952313 
0.833684 0.722093 0.620619 1.15011 1.26149 1.19686 1.38136 1.31493 1.25155 
1.50697 1.44074 1.37501 1.31281 1.63462 1.5708 1.50478 1.43962 1.37826 
1.76024 1.70086 1.63681 1.5708 1.5059 1.44492 1.88011 1.82666 1.76659 
1.70197 1.63569 1.5708 1.50988 1.99148 1.94473 1.89004 1.82878 1.76333 
1.69667 1.63171 1.5708 1.15011 1.19686 1.26149 1.25155 1.31493 1.38136 
1.31281 1.37501 1.44074 1.50697 1.37826 1.43962 1.50478 1.5708 1.63462 
1.44492 1.5059 1.5708 1.63681 1.70086 1.76024 1.50988 1.5708 1.63569 
1.70197 1.76659 1.82666 1.88011 1.5708 1.63171 1.69667 1.76333 1.82878 
1.89004 1.94473 1.99148 1.72413 1.83164 1.79288 1.94707 1.90847 1.86489 
2.06758 2.03138 1.98711 1.93728 2.18928 2.15805 2.11543 2.06376 2.00658 
2.30791 2.28408 2.24572 2.19453 2.13422 2.06938 2.4195 2.40503 2.3734 
2.32523 2.26401 2.1949 2.12312 2.52097 2.51718 2.49426 2.45144 2.39165 
2.32035 2.24359 2.16654 2.70908 2.81592 2.71362 2.92597 2.81002 2.68886 
3.01997 2.89233 2.76254 2.6349 3.01997 2.92834 2.80854 2.68262 2.55881 
2.92597 2.89233 2.80854 2.70048 2.58462 2.47007 2.81592 2.81002 2.76254 
2.68262 2.58462 2.48017 2.37702 2.70908 2.71362 2.68886 2.6349 2.55881 
2.47007 2.37702 2.28567 2.16654 2.24359 2.12312 2.32035 2.1949 2.06938 
2.39165 2.26401 2.13422 2.00658 2.45144 2.32523 2.19453 2.06376 1.93728 
2.49426 2.3734 2.24572 2.11543 1.98711 1.86489 2.51718 2.40503 2.28408 
2.15805 2.03138 1.90847 1.79288 2.52097 2.4195 2.30791 2.18928 2.06758 
1.94707 1.83164 1.72413 1.66533 1.76911 1.66946 1.88041 1.777 1.67254 
1.99634 1.89102 1.78222 1.67418 2.11299 2.00785 1.89674 1.78405 1.67418 
2.22608 2.12307 2.01191 1.89674 1.78222 1.67254 2.33166 2.23222 2.12307 
2.00785 1.89102 1.777 1.66946 2.42672 2.33166 2.22608 2.11299 1.99634 
1.88041 1.76911 1.66533 1.47626 1.47213 1.37249 1.46906 1.36459 1.26118 
1.46741 1.35938 1.25058 1.14526 1.46741 1.35755 1.24485 1.13374 1.0286 
1.46906 1.35938 1.24485 1.12969 1.01852 0.915514 1.47213 1.36459 1.25058 
1.13374 1.01852 0.909371 0.809937 1.47626 1.37249 1.26118 1.14526 1.0286 
0.915514 0.809937 0.714871 1.41746 1.30996 1.34871 1.19452 1.23313 1.2767 
1.07402 1.11021 1.15448 1.20431 0.952313 0.983547 1.02616 1.07784 1.13501 
0.833684 0.857515 0.895868 0.94706 1.00737 1.07221 0.722093 0.736561 0.768195 
0.816367 0.877585 0.946693 1.01847 0.620619 0.624416 0.647337 0.690152 0.749941 
0.821245 0.898002 0.975055 0.975055 0.898002 1.01847 0.821245 0.946693 1.07221 
0.749941 0.877585 1.00737 1.13501 0.690152 0.816367 0.94706 1.07784 1.20431 
0.647337 0.768195 0.895868 1.02616 1.15448 1.2767 0.624416 0.736561 0.857515 
0.983547 1.11021 1.23313 1.34871 0.620619 0.722093 0.833684 0.952313 1.07402 
1.19452 1.30996 1.41746 
Phi 1 1002 float
6.28319 3.14159 6.28319 3.14159 4.71239 4.71239 1.5708 1.5708 3.69517 
5.72961 2.58802 0.553574 6.28319 6.28319 6.28319 6.28319 3.14159 3.14159 
3.14159 3.14159 3.14159 6.1053 5.8988 5.67687 5.45995 5.26596 5.10322 
4.97131 4.86569 4.78095 0.177881 0.384387 0.606312 0.823235 1.01722 1.17997 
1.31187 1.4175 1.50223 6.18928 6.10703 6.03531 5.97283 5.91832 5.87061 
5.82869 5.79168 5.75886 0.0939024 0.176153 0.247873 0.310351 0.364864 0.412573 
0.454497 0.491504 0.524326 3.31947 3.52598 3.7479 3.96483 4.15881 4.32156 
4.45346 4.55909 4.64383 2.96371 2.75721 2.53528 2.31836 2.12437 1.96162 
1.82972 1.72409 1.63936 3.2355 3.31775 3.38947 3.45194 3.50646 3.55417 
3.59609 3.6331 3.66592 3.04769 2.96544 2.89372 2.83124 2.77673 2.72902 
2.6871 2.65009 2.61727 6.28319 6.28319 6.28319 6.28319 3.14159 3.14159 
3.14159 3.14159 3.14159 6.1053 5.8988 5.67687 5.45995 5.26596 5.10322 
4.97131 4.86569 4.78095 0.177881 0.384387 0.606312 0.823235 1.01722 1.17997 
1.31187 1.4175 1.50223 6.18928 6.10703 6.03531 5.97283 5.91832 5.87061 
5.82869 5.79168 5.75886 0.0939024 0.176153 0.247873 0.310351 0.364864 0.412573 
0.454497 0.491504 0.524326 3.31947 3.52598 3.7479 3.96483 4.15881 4.32156 
4.45346 4.55909 4.64383 2.96371 2.75721 2.53528 2.31836 2.12437 1.96162 
1.82972 1.72409 1.63936 3.2355 3.31775 3.38947 3.45194 3.50646 3.55417 
3.59609 3.6331 3.66592 3.04769 2.96544 2.89372 2.83124 2.77673 2.72902 
2.6871 2.65009 2.61727 4.71239 4.71239 4.71239 4.71239 4.71239 4.71239 
4.71239 4.71239 4.71239 4.60879 4.49914 4.3857 4.27128 4.15881 4.05096 
3.94976 3.85646 3.77161 4.81599 4.92564 5.03907 5.1535 5.26596 5.37381 
5.47502 5.56831 5.65317 4.60879 4.49914 4.3857 4.27128 4.15881 4.05096 
3.94976 3.85646 3.77161 4.81599 4.92564 5.03907 5.1535 5.26596 5.37381 
5.47502 5.56831 5.65317 1.5708 1.5708 1.5708 1.5708 1.5708 1.5708 
1.5708 1.5708 1.5708 1.6744 1.78405 1.89748 2.01191 2.12437 2.23222 
2.33343 2.42672 2.51157 1.4672 1.35755 1.24411 1.12969 1.01722 0.909371 
0.808166 0.714871 0.63002 1.6744 1.78405 1.89748 2.01191 2.12437 2.23222 
2.33343 2.42672 2.51157 1.4672 1.35755 1.24411 1.12969 1.01722 0.909371 
0.808166 0.714871 0.63002 3.60077 3.49669 3.38395 3.26458 3.14159 3.01861 
2.89924 2.78649 2.68241 5.82401 5.92808 6.04083 6.1602 6.28319 0.122983 
0.242354 0.355101 0.459179 6.05603 5.78856 5.97021 5.51259 5.60297 5.78856 
5.26596 5.26596 5.26596 5.26596 5.06749 5.0121 4.91556 4.71239 4.15881 
4.91556 4.83537 4.71239 4.50922 4.15881 3.63622 4.80045 4.71239 4.58941 
4.41268 4.15881 3.82181 3.45456 4.71239 4.62433 4.50922 4.35729 4.15881 
3.91219 3.63622 3.36875 6.01742 5.94343 5.82633 5.88092 5.76745 5.62798 
5.8278 5.71897 5.58911 5.43724 5.78235 5.67854 5.55757 5.41926 5.26596 
5.74316 5.64441 5.5315 5.40467 5.26596 5.11955 5.70914 5.61528 5.50962 
5.3926 5.26596 5.13292 4.99789 5.67937 5.59016 5.49102 5.38246 5.26596 
5.14407 5.02016 4.89798 5.56831 5.47502 5.47502 5.37381 5.37381 5.37381 
5.26596 5.26596 5.26596 5.26596 5.1535 5.1535 5.1535 5.1535 5.1535 
5.03907 5.03907 5.03907 5.03907 5.03907 5.03907 4.92564 4.92564 4.92564 
4.92564 4.92564 4.92564 4.92564 4.81599 4.81599 4.81599 4.81599 4.81599 
4.81599 4.81599 4.81599 4.60879 4.60879 4.49914 4.60879 4.49914 4.3857 
4.60879 4.49914 4.3857 4.27128 4.60879 4.49914 4.3857 4.27128 4.15881 
4.60879 4.49914 4.3857 4.27128 4.15881 4.05096 4.60879 4.49914 4.3857 
4.27128 4.15881 4.05096 3.94976 4.60879 4.49914 4.3857 4.27128 4.15881 
4.05096 3.94976 3.85646 4.5268 4.40462 4.42689 4.28071 4.29185 4.30523 
4.15881 4.15881 4.15881 4.15881 4.04232 4.03217 4.02011 4.00552 3.98753 
3.93376 3.91515 3.89328 3.86721 3.83566 3.7968 3.83461 3.8095 3.78037 
3.74624 3.70581 3.65733 3.59845 3.7454 3.71564 3.68161 3.64243 3.59698 
3.54386 3.48135 3.40735 3.56428 3.45246 3.52338 3.33203 3.40312 3.47739 
3.20576 3.27463 3.34802 3.42551 3.07742 3.14159 3.21128 3.28647 3.36688 
2.95116 3.00855 3.0719 3.14159 3.21784 3.3006 2.83072 2.88006 2.93517 
2.99672 3.06535 3.14159 3.22575 2.7189 2.7598 2.8058 2.85768 2.9163 
2.98259 3.05743 3.14159 3.56428 3.52338 3.45246 3.47739 3.40312 3.33203 
3.42551 3.34802 3.27463 3.20576 3.36688 3.28647 3.21128 3.14159 3.07742 
3.3006 3.21784 3.14159 3.0719 3.00855 2.95116 3.22575 3.14159 3.06535 
2.99672 2.93517 2.88006 2.83072 3.14159 3.05743 2.98259 2.9163 2.85768 
2.8058 2.7598 2.7189 4.5268 4.42689 4.40462 4.30523 4.29185 4.28071 
4.15881 4.15881 4.15881 4.15881 3.98753 4.00552 4.02011 4.03217 4.04232 
3.7968 3.83566 3.86721 3.89328 3.91515 3.93376 3.59845 3.65733 3.70581 
3.74624 3.78037 3.8095 3.83461 3.40735 3.48135 3.54386 3.59698 3.64243 
3.68161 3.71564 3.7454 4.71239 4.80045 4.62433 4.91556 4.71239 4.50922 
5.06749 4.83537 4.58941 4.35729 5.26596 5.0121 4.71239 4.41268 4.15881 
5.51259 5.26596 4.91556 4.50922 4.15881 3.91219 5.78856 5.60297 5.26596 
4.71239 4.15881 3.82181 3.63622 6.05603 5.97021 5.78856 5.26596 4.15881 
3.63622 3.45456 3.36875 0.227158 0.494626 0.312971 0.770593 0.680215 0.494626 
1.01722 1.01722 1.01722 1.01722 1.2157 1.27109 1.36763 1.5708 2.12437 
1.36763 1.44781 1.5708 1.77397 2.12437 2.64697 1.48273 1.5708 1.69378 
1.8705 2.12437 2.46138 2.82862 1.5708 1.65886 1.77397 1.9259 2.12437 
2.371 2.64697 2.91443 1.75639 1.87857 1.8563 2.00248 1.99133 1.97796 
2.12437 2.12437 2.12437 2.12437 2.24087 2.25101 2.26308 2.27767 2.29565 
2.34943 2.36803 2.38991 2.41597 2.44752 2.48639 2.44857 2.47368 2.50281 
2.53694 2.57738 2.62586 2.68474 2.53778 2.56754 2.60157 2.64076 2.68621 
2.73933 2.80184 2.87583 1.6744 1.6744 1.78405 1.6744 1.78405 1.89748 
1.6744 1.78405 1.89748 2.01191 1.6744 1.78405 1.89748 2.01191 2.12437 
1.6744 1.78405 1.89748 2.01191 2.12437 2.23222 1.6744 1.78405 1.89748 
2.01191 2.12437 2.23222 2.33343 1.6744 1.78405 1.89748 2.01191 2.12437 
2.23222 2.33343 2.42672 1.4672 1.35755 1.4672 1.24411 1.35755 1.4672 
1.12969 1.24411 1.35755 1.4672 1.01722 1.12969 1.24411 1.35755 1.4672 
0.909371 1.01722 1.12969 1.24411 1.35755 1.4672 0.808166 0.909371 1.01722 
1.12969 1.24411 1.35755 1.4672 0.714871 0.808166 0.909371 1.01722 1.12969 
1.24411 1.35755 1.4672 0.603812 0.57405 0.693022 0.540021 0.667908 0.792164 
0.500837 0.638778 0.773562 0.900726 0.455383 0.604649 0.751687 0.890581 1.01722 
0.402264 0.564217 0.725619 0.878514 1.01722 1.13912 0.339753 0.515737 0.694072 
0.863926 1.01722 1.15026 1.26302 0.265762 0.456853 0.655207 0.845941 1.01722 
1.16363 1.28529 1.38521 0.227158 0.312971 0.494626 0.494626 0.680215 0.770593 
1.01722 1.01722 1.01722 1.01722 2.12437 1.5708 1.36763 1.27109 1.2157 
2.64697 2.12437 1.77397 1.5708 1.44781 1.36763 2.82862 2.46138 2.12437 
1.8705 1.69378 1.5708 1.48273 2.91443 2.64697 2.371 2.12437 1.9259 
1.77397 1.65886 1.5708 1.75639 1.8563 1.87857 1.97796 1.99133 2.00248 
2.12437 2.12437 2.12437 2.12437 2.29565 2.27767 2.26308 2.25101 2.24087 
2.48639 2.44752 2.41597 2.38991 2.36803 2.34943 2.68474 2.62586 2.57738 
2.53694 2.50281 2.47368 2.44857 2.87583 2.80184 2.73933 2.68621 2.64076 
2.60157 2.56754 2.53778 5.86049 5.90139 5.97231 5.94739 6.02165 6.09275 
5.99927 6.07676 6.15015 6.21902 6.0579 6.13831 6.2135 0 0.0641696 
6.12418 6.20694 6.28319 0.069689 0.13304 0.190437 6.19903 0 0.0762451 
0.144876 0.206423 0.261531 0.310872 0 0.0841597 0.159004 0.225289 0.283913 
0.335793 0.381792 0.422692 5.86049 5.97231 5.90139 6.09275 6.02165 5.94739 
6.21902 6.15015 6.07676 5.99927 0.0641696 0 6.2135 6.13831 6.0579 
0.190437 0.13304 0.069689 6.28319 6.20694 6.12418 0.310872 0.261531 0.206423 
0.144876 0.0762451 6.28319 6.19903 0.422692 0.381792 0.335793 0.283913 0.225289 
0.159004 0.0841597 0 5.67937 5.70914 5.59016 5.74316 5.61528 5.49102 
5.78235 5.64441 5.50962 5.38246 5.8278 5.67854 5.5315 5.3926 5.26596 
5.88092 5.71897 5.55757 5.40467 5.26596 5.14407 5.94343 5.76745 5.58911 
5.41926 5.26596 5.13292 5.02016 6.01742 5.82633 5.62798 5.43724 5.26596 
5.11955 4.99789 4.89798 1.38521 1.28529 1.26302 1.16363 1.15026 1.13912 
1.01722 1.01722 1.01722 1.01722 0.845941 0.863926 0.878514 0.890581 0.900726 
0.655207 0.694072 0.725619 0.751687 0.773562 0.792164 0.456853 0.515737 0.564217 
0.604649 0.638778 0.667908 0.693022 0.265762 0.339753 0.402264 0.455383 0.500837 
0.540021 0.57405 0.603812 
