# vtk DataFile Version 4.0
vtk output
ASCII
DATASET POLYDATA
POINTS 1002 float
-88.0518 -96.1937 69.6139 -82.2711 -102.951 69.5675 -82.5141 -92.1089 69.2496 
-77.2313 -100.164 69.5703 -84.1833 -99.2303 75.1776 -81.4327 -97.0637 74.1858 
-85.4277 -99.6328 64.6475 -81.392 -97.3387 64.9726 -78.0534 -105.972 72.825 
-86.9574 -91.3056 72.7501 -78.0304 -106.048 66.7435 -87.6904 -91.2673 66.7613 
-87.5688 -96.8611 69.6578 -87.0882 -97.5278 69.6202 -86.5438 -98.1916 69.6267 
-85.9228 -98.9545 69.7543 -85.3696 -99.8606 69.862 -84.8884 -100.801 69.8466 
-84.2697 -101.553 69.7563 -83.4924 -102.018 69.6449 -82.7742 -102.401 69.5704 
-87.7345 -96.4245 70.0988 -87.4524 -96.7591 70.7517 -87.1362 -97.0478 71.3763 
-86.6092 -97.1345 71.883 -85.8999 -97.1279 72.3653 -85.2912 -97.2762 72.8545 
-84.9178 -97.668 73.4049 -84.6907 -98.2425 74.093 -84.4807 -98.8271 74.7591 
-88.0461 -96.4962 69.3292 -87.9373 -96.8945 68.9688 -87.8048 -97.3584 68.3715 
-87.756 -97.9532 67.6987 -87.6479 -98.5913 67.0981 -87.384 -99.0412 66.3595 
-87.0852 -99.2953 65.5119 -86.6866 -99.4704 64.9563 -86.0826 -99.5778 64.7623 
-88.3302 -95.6823 69.8074 -88.5701 -95.2222 70.1552 -88.6961 -94.7995 70.5957 
-88.6224 -94.3081 70.9451 -88.5007 -93.6289 71.3362 -88.525 -92.8649 71.9412 
-88.436 -92.2463 72.411 -87.9966 -91.8254 72.5264 -87.4318 -91.5224 72.5752 
-88.6178 -95.7299 69.3404 -89.2931 -95.4657 69.139 -89.8608 -95.2962 68.8965 
-90.0993 -94.7083 68.3621 -90.0841 -93.6414 67.7525 -89.8685 -92.7213 67.5437 
-89.3543 -92.1661 67.51 -88.707 -91.72 67.2221 -88.1603 -91.381 66.8709 
-82.3344 -102.645 70.0445 -82.5416 -102.42 70.6442 -82.8592 -102.216 71.3053 
-83.0793 -101.814 71.9031 -83.1482 -101.208 72.3917 -83.2291 -100.603 72.8261 
-83.4309 -100.128 73.3493 -83.7403 -99.8203 74.0429 -84.0361 -99.5785 74.7298 
-82.4978 -102.833 69.1039 -82.7563 -102.638 68.5969 -83.1689 -102.479 68.0226 
-83.7979 -102.468 67.3832 -84.2761 -102.256 66.8226 -84.3076 -101.544 66.4394 
-84.307 -100.768 66.0399 -84.6576 -100.33 65.4871 -85.1293 -100.036 64.9654 
-81.9345 -103.529 69.8734 -81.699 -104.303 70.2235 -81.4997 -105.057 70.6653 
-81.064 -105.479 71.1508 -80.3614 -105.638 71.5285 -79.8047 -105.886 71.8715 
-79.4484 -106.202 72.3367 -78.9703 -106.344 72.7432 -78.4166 -106.262 72.8777 
-82.0418 -103.639 69.3102 -81.798 -104.408 68.9498 -81.422 -105.054 68.4454 
-80.8714 -105.434 67.96 -80.2432 -105.679 67.5632 -79.6754 -106.105 67.0475 
-79.1656 -106.629 66.4738 -78.6825 -106.812 66.2535 -78.2969 -106.54 66.458 
-82.117 -92.7856 69.1727 -81.5999 -93.5599 69.0945 -81.0224 -94.3733 69.1466 
-80.4846 -95.2454 69.2737 -79.9062 -96.0975 69.3568 -79.3119 -96.9353 69.405 
-78.8692 -97.9624 69.3949 -78.4501 -99.0394 69.329 -77.863 -99.7756 69.3663 
-82.3308 -92.3299 69.7767 -82.2385 -92.7721 70.1903 -82.1342 -93.2773 70.6662 
-81.8312 -93.5628 71.3696 -81.5989 -93.9127 72.0714 -81.7419 -94.7121 72.4818 
-81.903 -95.5869 72.8104 -81.7721 -96.1601 73.3108 -81.5554 -96.5992 73.8301 
-82.4571 -92.3556 68.5684 -82.2759 -92.6223 67.8869 -82.0504 -93.0217 67.4325 
-81.9477 -93.6732 67.1202 -81.877 -94.3553 66.6705 -81.7292 -94.9052 66.1394 
-81.6026 -95.4945 65.7416 -81.5141 -96.1539 65.4396 -81.4312 -96.767 65.1699 
-82.8092 -91.6633 69.5786 -83.2729 -91.3499 69.7731 -83.874 -91.091 69.9935 
-84.4193 -90.8409 70.3923 -84.8105 -90.6894 70.887 -85.1883 -90.5847 71.4614 
-85.6945 -90.4593 72.1297 -86.2403 -90.5024 72.6219 -86.6649 -90.8283 72.766 
-82.8911 -91.6719 68.8132 -83.3754 -91.2364 68.2752 -83.9901 -90.7424 67.8509 
-84.6286 -90.2376 67.5601 -85.1477 -89.7777 67.1831 -85.6466 -89.4186 66.7757 
-86.3221 -89.4129 66.6082 -87.0163 -89.878 66.653 -87.459 -90.5726 66.7183 
-77.6028 -100.104 69.9492 -78.1272 -100 70.3776 -78.5311 -99.6734 70.9239 
-78.6905 -99.1308 71.5188 -79.0024 -98.6507 72.0192 -79.6535 -98.3309 72.4338 
-80.2293 -98.0011 72.866 -80.5965 -97.6383 73.3238 -80.9941 -97.3333 73.7666 
-77.4097 -100.091 69.0366 -77.6836 -99.9893 68.5718 -77.9392 -99.7083 68.0491 
-78.2673 -99.2932 67.3382 -78.7647 -98.8789 66.7164 -79.3139 -98.5125 66.3207 
-79.8694 -98.2178 65.8776 -80.4673 -97.9728 65.4257 -81.005 -97.6904 65.1671 
-76.9129 -100.544 70.0864 -76.8175 -101.274 70.4604 -76.8878 -102.274 70.5732 
-76.9035 -103.171 70.8085 -76.7467 -103.796 71.41 -76.7048 -104.395 71.9174 
-77.0296 -105.1 72.0756 -77.4632 -105.68 72.2157 -77.762 -105.95 72.5096 
-76.7694 -100.451 69.4207 -76.4914 -100.966 69.0227 -76.4258 -101.787 68.5043 
-76.5134 -102.79 68.1741 -76.5651 -103.809 67.8412 -76.5044 -104.681 67.2789 
-76.6525 -105.293 66.9379 -77.1574 -105.688 66.9966 -77.688 -105.944 67.0012 
-83.9291 -99.0605 75.4555 -83.5334 -98.7483 75.6776 -83.0922 -98.416 76.0254 
-82.7397 -98.1585 76.416 -82.3965 -97.8592 76.529 -81.9808 -97.4727 76.246 
-81.7132 -97.227 75.7176 -81.6659 -97.1871 75.1387 -81.6046 -97.1616 74.6273 
-83.6232 -99.6515 75.1343 -82.81 -99.9395 74.9295 -82.1216 -100.513 74.8307 
-81.7658 -101.511 74.8763 -81.4564 -102.521 74.7825 -80.929 -103.331 74.4138 
-80.1485 -104.101 73.9311 -79.2403 -104.836 73.5151 -78.5 -105.452 73.175 
-84.3871 -98.4558 75.1986 -84.6482 -97.538 75.1208 -85.2501 -96.8285 75.1567 
-86.0029 -96.1673 75.2045 -86.4991 -95.0991 75.0558 -86.728 -93.9456 74.7554 
-86.8363 -93.2489 74.2559 -86.877 -92.7315 73.5673 -86.9159 -92.0287 73.022 
-81.0722 -97.7303 74.1939 -80.591 -98.4045 74.3094 -79.9717 -99.0254 74.5713 
-79.5141 -99.822 74.6045 -79.3934 -101.025 74.2426 -79.2109 -102.268 73.8822 
-78.7603 -103.237 73.6354 -78.3358 -104.171 73.3141 -78.1101 -105.151 73.0078 
-81.8452 -96.4187 74.4125 -82.1409 -95.5882 74.5665 -82.4733 -94.7215 74.6663 
-83.0421 -94.0455 74.7749 -83.7135 -93.5222 74.6866 -84.3609 -93.0446 74.2198 
-85.0995 -92.614 73.6913 -85.8576 -92.1454 73.3574 -86.4715 -91.6484 73.0783 
-85.1543 -99.3353 64.3916 -84.9243 -99.0792 64.0348 -84.6838 -98.9023 63.6968 
-84.1449 -98.5921 63.607 -83.2956 -98.1161 63.6719 -82.5394 -97.7933 63.6907 
-82.0798 -97.7041 63.8335 -81.7994 -97.6255 64.2287 -81.5851 -97.4794 64.6653 
-84.7259 -100.032 64.5924 -84.1179 -100.647 64.5098 -83.4487 -101.499 64.4706 
-82.5213 -102.364 64.458 -81.5472 -103.029 64.5978 -80.7076 -103.5 65.0813 
-79.7916 -103.979 65.6793 -78.8791 -104.659 66.0981 -78.3035 -105.433 66.4153 
-85.9777 -99.0133 64.5535 -86.4677 -98.1703 64.5015 -86.8879 -97.3436 64.5165 
-87.1908 -96.6111 64.7352 -87.4278 -95.6601 65.1189 -87.6901 -94.6321 65.4868 
-87.7877 -93.9377 65.929 -87.6514 -93.3092 66.4529 -87.5764 -92.3706 66.7621 
-81.1437 -98.1563 64.9488 -80.6317 -98.8969 64.8057 -79.7853 -99.4594 64.5509 
-79.0502 -100.077 64.5357 -78.7568 -101.12 64.9534 -78.5624 -102.42 65.4422 
-78.235 -103.491 65.8322 -77.9978 -104.323 66.2765 -77.9601 -105.174 66.6425 
-81.7579 -96.5592 64.7651 -82.3139 -95.7972 64.5311 -83.0611 -95.1466 64.5355 
-83.8924 -94.518 64.8186 -84.8004 -93.9033 65.1127 -85.6145 -93.4926 65.4928 
-86.1194 -93.2505 66.1678 -86.5212 -92.8115 66.7475 -87.0764 -92.0464 66.8651 
-77.8566 -106.722 72.4616 -77.6346 -107.487 71.9884 -77.4122 -108.171 71.4357 
-77.2752 -108.625 70.7186 -77.2262 -108.755 69.7155 -77.2626 -108.528 68.6658 
-77.4583 -108.031 67.8655 -77.7445 -107.453 67.3109 -77.9411 -106.815 66.9568 
-87.2034 -90.9259 72.3211 -87.3164 -90.8237 71.5777 -87.4407 -90.6349 70.6465 
-87.7523 -90.0918 69.9125 -87.9829 -89.6027 69.3947 -87.941 -89.5493 68.7257 
-87.9858 -89.661 67.8074 -88.1663 -89.8051 67.0158 -88.0842 -90.3134 66.706 
-87.1905 -97.0002 70.0916 -86.8178 -97.2453 70.6845 -86.5739 -97.5406 70.0239 
-86.4596 -97.5382 71.3346 -86.142 -97.7883 70.6249 -85.9063 -98.2081 70.0509 
-85.9506 -97.7055 71.9529 -85.8339 -98.1848 71.3267 -85.4755 -98.5095 70.6337 
-85.2957 -99.0817 70.1697 -85.3006 -97.8078 72.4732 -85.3939 -98.4696 71.9891 
-85.2096 -98.9332 71.2956 -84.9027 -99.3866 70.6902 -84.8318 -100.09 70.2641 
-84.8044 -98.0977 72.9377 -84.8286 -98.7025 72.5173 -84.8133 -99.2996 71.9529 
-84.6671 -99.8401 71.3409 -84.492 -100.447 70.8278 -84.3728 -101.064 70.3104 
-84.5631 -98.6334 73.5314 -84.4167 -99.0767 72.9878 -84.3025 -99.617 72.4828 
-84.2881 -100.268 71.9849 -84.2587 -100.941 71.5006 -84.0361 -101.434 70.9413 
-83.7243 -101.746 70.272 -84.3681 -99.204 74.2171 -84.1273 -99.5178 73.527 
-83.8574 -99.909 72.9114 -83.7376 -100.49 72.4453 -83.7767 -101.209 72.0251 
-83.6791 -101.77 71.5164 -83.3201 -102.01 70.8515 -82.9631 -102.16 70.148 
-88.055 -96.0311 70.5161 -88.3413 -95.6108 71.0187 -87.8428 -96.454 71.3108 
-88.4127 -95.1032 71.4614 -88.1123 -95.9754 71.8147 -87.4432 -96.6644 71.8662 
-88.3028 -94.4961 71.8381 -88.0957 -95.3514 72.22 -87.6007 -96.15 72.314 
-86.744 -96.6805 72.3011 -88.3231 -93.8345 72.334 -87.9753 -94.7303 72.6352 
-87.5839 -95.638 72.8366 -86.964 -96.3809 72.9246 -86.0648 -96.8023 72.8859 
-88.3512 -93.1884 72.7836 -87.9221 -94.1424 73.0367 -87.4871 -95.1177 73.3464 
-87.168 -96.1254 73.7188 -86.5146 -96.7405 73.7633 -85.5738 -97.0787 73.5217 
-87.9945 -92.6353 72.9176 -87.6943 -93.5335 73.2707 -87.309 -94.4596 73.6746 
-87.1465 -95.5913 74.2476 -86.8438 -96.5377 74.5918 -85.9955 -96.9782 74.3947 
-85.1246 -97.4484 74.1252 -87.4098 -92.2486 72.9234 -87.2683 -93.0182 73.415 
-87.0594 -93.7467 73.9507 -86.9347 -94.7566 74.4875 -86.774 -95.939 74.9369 
-86.1565 -96.6878 74.9853 -85.2734 -97.1815 74.7751 -84.7185 -97.9459 74.7235 
-86.4615 -92.4484 73.4984 -85.8832 -92.8139 74.0309 -86.5213 -92.9737 74.2918 
-85.0277 -93.0625 74.5661 -85.9086 -93.1396 74.905 -86.4875 -93.3655 74.9811 
-84.1413 -93.4343 75.0526 -84.9101 -93.4494 75.2676 -85.7053 -93.6805 75.3633 
-86.192 -94.2657 75.2413 -83.4118 -94.0423 75.2778 -83.9692 -94.0942 75.51 
-84.6861 -94.3202 75.5885 -85.2795 -94.8433 75.5494 -85.6784 -95.5391 75.3696 
-82.739 -94.7668 75.2435 -83.1701 -94.8671 75.6557 -83.8222 -95.0759 75.8861 
-84.4381 -95.4967 75.9782 -84.7944 -96.0345 75.7998 -85.0247 -96.4912 75.4517 
-82.2287 -95.5875 75.1397 -82.4124 -95.6153 75.6689 -82.928 -95.7493 76.0759 
-83.6396 -96.0862 76.3316 -84.0951 -96.5299 76.273 -84.2711 -96.9293 75.8669 
[...]
POINT_DATA 1002
FIELD FieldData 2
Theta 1 1002 float
2.58802 2.58802 0.553574 0.553574 2.12437 1.01722 2.12437 1.01722 1.5708 
1.5708 1.5708 1.5708 2.68241 2.78649 2.89924 3.01861 3.14159 3.01861 
2.89924 2.78649 2.68241 2.61035 2.61791 2.60515 2.56958 2.51327 2.44184 
2.36202 2.27983 2.1997 2.61035 2.61791 2.60515 2.56958 2.51327 2.44184 
2.36202 2.27983 2.1997 2.50947 2.41899 2.31794 2.20864 2.0944 1.97902 
1.86631 1.75944 1.66056 2.50947 2.41899 2.31794 2.20864 2.0944 1.97902 
1.86631 1.75944 1.66056 2.61035 2.61791 2.60515 2.56958 2.51327 2.44184 
2.36202 2.27983 2.1997 2.61035 2.61791 2.60515 2.56958 2.51327 2.44184 
2.36202 2.27983 2.1997 2.50947 2.41899 2.31794 2.20864 2.0944 1.97902 
1.86631 1.75944 1.66056 2.50947 2.41899 2.31794 2.20864 2.0944 1.97902 
1.86631 1.75944 1.66056 0.459179 0.355101 0.242354 0.122983 0 0.122983 
0.242354 0.355101 0.459179 0.531246 0.523681 0.536438 0.57201 0.628319 0.699757 
0.779574 0.86176 0.941896 0.531246 0.523681 0.536438 0.57201 0.628319 0.699757 
0.779574 0.86176 0.941896 0.632123 0.7226 0.823657 0.932948 1.0472 1.16257 
1.27528 1.38216 1.48103 0.632123 0.7226 0.823657 0.932948 1.0472 1.16257 
1.27528 1.38216 1.48103 0.531246 0.523681 0.536438 0.57201 0.628319 0.699757 
0.779574 0.86176 0.941896 0.531246 0.523681 0.536438 0.57201 0.628319 0.699757 
0.779574 0.86176 0.941896 0.632123 0.7226 0.823657 0.932948 1.0472 1.16257 
1.27528 1.38216 1.48103 0.632123 0.7226 0.823657 0.932948 1.0472 1.16257 
1.27528 1.38216 1.48103 2.02998 1.9259 1.81315 1.69378 1.5708 1.44781 
1.32844 1.2157 1.11162 2.0928 2.05283 2.00422 1.94767 1.88496 1.81867 
1.75177 1.68695 1.62623 2.0928 2.05283 2.00422 1.94767 1.88496 1.81867 
1.75177 1.68695 1.62623 1.0488 1.08876 1.13737 1.19392 1.25664 1.32292 
1.38982 1.45464 1.51537 1.0488 1.08876 1.13737 1.19392 1.25664 1.32292 
1.38982 1.45464 1.51537 2.02998 1.9259 1.81315 1.69378 1.5708 1.44781 
1.32844 1.2157 1.11162 2.0928 2.05283 2.00422 1.94767 1.88496 1.81867 
1.75177 1.68695 1.62623 2.0928 2.05283 2.00422 1.94767 1.88496 1.81867 
1.75177 1.68695 1.62623 1.0488 1.08876 1.13737 1.19392 1.25664 1.32292 
1.38982 1.45464 1.51537 1.0488 1.08876 1.13737 1.19392 1.25664 1.32292 
1.38982 1.45464 1.51537 1.5708 1.5708 1.5708 1.5708 1.5708 1.5708 
1.5708 1.5708 1.5708 1.5708 1.5708 1.5708 1.5708 1.5708 1.5708 
1.5708 1.5708 1.5708 2.70908 2.71362 2.81592 2.68886 2.81002 2.92597 
2.6349 2.76254 2.89233 3.01997 2.55881 2.68262 2.80854 2.92834 3.01997 
2.47007 2.58462 2.70048 2.80854 2.89233 2.92597 2.37702 2.48017 2.58462 
2.68262 2.76254 2.81002 2.81592 2.28567 2.37702 2.47007 2.55881 2.6349 
2.68886 2.71362 2.70908 2.52097 2.4195 2.51718 2.30791 2.40503 2.49426 
2.18928 2.28408 2.3734 2.45144 2.06758 2.15805 2.24572 2.32523 2.39165 
1.94707 2.03138 2.11543 2.19453 2.26401 2.32035 1.83164 1.90847 1.98711 
2.06376 2.13422 2.1949 2.24359 1.72413 1.79288 1.86489 1.93728 2.00658 
2.06938 2.12312 2.16654 1.5708 1.50988 1.63171 1.44492 1.5708 1.69667 
1.37826 1.5059 1.63569 1.76333 1.31281 1.43962 1.5708 1.70197 1.82878 
1.25155 1.37501 1.50478 1.63681 1.76659 1.89004 1.19686 1.31493 1.44074 
1.5708 1.70086 1.82666 1.94473 1.15011 1.26149 1.38136 1.50697 1.63462 
1.76024 1.88011 1.99148 1.99148 1.88011 1.94473 1.76024 1.82666 1.89004 
1.63462 1.70086 1.76659 1.82878 1.50697 1.5708 1.63681 1.70197 1.76333 
1.38136 1.44074 1.50478 1.5708 1.63569 1.69667 1.26149 1.31493 1.37501 
1.43962 1.5059 1.5708 1.63171 1.15011 1.19686 1.25155 1.31281 1.37826 
1.44492 1.50988 1.5708 2.16654 2.12312 2.24359 2.06938 2.1949 2.32035 
2.00658 2.13422 2.26401 2.39165 1.93728 2.06376 2.19453 2.32523 2.45144 
1.86489 1.98711 2.11543 2.24572 2.3734 2.49426 1.79288 1.90847 2.03138 
2.15805 2.28408 2.40503 2.51718 1.72413 1.83164 1.94707 2.06758 2.18928 
2.30791 2.4195 2.52097 1.66533 1.66946 1.76911 1.67254 1.777 1.88041 
1.67418 1.78222 1.89102 1.99634 1.67418 1.78405 1.89674 2.00785 2.11299 
1.67254 1.78222 1.89674 2.01191 2.12307 2.22608 1.66946 1.777 1.89102 
2.00785 2.12307 2.23222 2.33166 1.66533 1.76911 1.88041 1.99634 2.11299 
2.22608 2.33166 2.42672 1.47626 1.37249 1.47213 1.26118 1.36459 1.46906 
1.14526 1.25058 1.35938 1.46741 1.0286 1.13374 1.24485 1.35755 1.46741 
0.915514 1.01852 1.12969 1.24485 1.35938 1.46906 0.809937 0.909371 1.01852 
1.13374 1.25058 1.36459 1.47213 0.714871 0.809937 0.915514 1.0286 1.14526 
1.26118 1.37249 1.47626 0.975055 0.898002 1.01847 0.821245 0.946693 1.07221 
0.749941 0.877585 1.00737 1.13501 0.690152 0.816367 0.94706 1.07784 1.20431 
0.647337 0.768195 0.895868 1.02616 1.15448 1.2767 0.624416 0.736561 0.857515 
0.983547 1.11021 1.23313 1.34871 0.620619 0.722093 0.833684 0.952313 1.07402 
1.19452 1.30996 1.41746 0.855925 0.764569 0.764569 0.671524 0.661425 0.671524 
0.582786 0.556971 0.556971 0.582786 0.506696 0.458968 0.441109 0.458968 0.506696 
0.45273 0.379052 0.333054 0.333054 0.379052 0.45273 0.427969 0.331576 0.249267 
0.21325 0.249267 0.331576 0.427969 0.432512 0.325669 0.215619 0.121622 0.121622 
0.215619 0.325669 0.432512 0.432512 0.427969 0.325669 0.45273 0.331576 0.215619 
0.506696 0.379052 0.249267 0.121622 0.582786 0.458968 0.333054 0.21325 0.121622 
0.671524 0.556971 0.441109 0.333054 0.249267 0.215619 0.764569 0.661425 0.556971 
0.458968 0.379052 0.331576 0.325669 0.855925 0.764569 0.671524 0.582786 0.506696 
0.45273 0.427969 0.432512 0.975055 1.01847 0.898002 1.07221 0.946693 0.821245 
1.13501 1.00737 0.877585 0.749941 1.20431 1.07784 0.94706 0.816367 0.690152 
1.2767 1.15448 1.02616 0.895868 0.768195 0.647337 1.34871 1.23313 1.11021 
0.983547 0.857515 0.736561 0.624416 1.41746 1.30996 1.19452 1.07402 0.952313 
0.833684 0.722093 0.620619 1.15011 1.26149 1.19686 1.38136 1.31493 1.25155 
1.50697 1.44074 1.37501 1.31281 1.63462 1.5708 1.50478 1.43962 1.37826 
1.76024 1.70086 1.63681 1.5708 1.5059 1.44492 1.88011 1.82666 1.76659 
1.70197 1.63569 1.5708 1.50988 1.99148 1.94473 1.89004 1.82878 1.76333 
1.69667 1.63171 1.5708 1.15011 1.19686 1.26149 1.25155 1.31493 1.38136 
1.31281 1.37501 1.44074 1.50697 1.37826 1.43962 1.50478 1.5708 1.63462 
1.44492 1.5059 1.5708 1.63681 1.70086 1.76024 1.50988 1.5708 1.63569 
1.70197 1.76659 1.82666 1.88011 1.5708 1.63171 1.69667 1.76333 1.82878 
1.89004 1.94473 1.99148 1.72413 1.83164 1.79288 1.94707 1.90847 1.86489 
2.06758 2.03138 1.98711 1.93728 2.18928 2.15805 2.11543 2.06376 2.00658 
2.30791 2.28408 2.24572 2.19453 2.13422 2.06938 2.4195 2.40503 2.3734 
2.32523 2.26401 2.1949 2.12312 2.52097 2.51718 2.49426 2.45144 2.39165 
2.32035 2.24359 2.16654 2.70908 2.81592 2.71362 2.92597 2.81002 2.68886 
3.01997 2.89233 2.76254 2.6349 3.01997 2.92834 2.80854 2.68262 2.55881 
2.92597 2.89233 2.80854 2.70048 2.58462 2.47007 2.81592 2.81002 2.76254 
2.68262 2.58462 2.48017 2.37702 2.70908 2.71362 2.68886 2.6349 2.55881 
2.47007 2.37702 2.28567 2.16654 2.24359 2.12312 2.32035 2.1949 2.06938 
2.39165 2.26401 2.13422 2.00658 2.45144 2.32523 2.19453 2.06376 1.93728 
2.49426 2.3734 2.24572 2.11543 1.98711 1.86489 2.51718 2.40503 2.28408 
2.15805 2.03138 1.90847 1.79288 2.52097 2.4195 2.30791 2.18928 2.06758 
1.94707 1.83164 1.72413 1.66533 1.76911 1.66946 1.88041 1.777 1.67254 
1.99634 1.89102 1.78222 1.67418 2.11299 2.00785 1.89674 1.78405 1.67418 
2.22608 2.12307 2.01191 1.89674 1.78222 1.67254 2.33166 2.23222 2.12307 
2.00785 1.89102 1.777 1.66946 2.42672 2.33166 2.22608 2.11299 1.99634 
1.88041 1.76911 1.66533 1.47626 1.47213 1.37249 1.46906 1.36459 1.26118 
1.46741 1.35938 1.25058 1.14526 1.46741 1.35755 1.24485 1.13374 1.0286 
1.46906 1.35938 1.24485 1.12969 1.01852 0.915514 1.47213 1.36459 1.25058 
1.13374 1.01852 0.909371 0.809937 1.47626 1.37249 1.26118 1.14526 1.0286 
0.915514 0.809937 0.714871 1.41746 1.30996 1.34871 1.19452 1.23313 1.2767 
1.07402 1.11021 1.15448 1.20431 0.952313 0.983547 1.02616 1.07784 1.13501 
0.833684 0.857515 0.895868 0.94706 1.00737 1.07221 0.722093 0.736561 0.768195 
0.816367 0.877585 0.946693 1.01847 0.620619 0.624416 0.647337 0.690152 0.749941 
0.821245 0.898002 0.975055 0.975055 0.898002 1.01847 0.821245 0.946693 1.07221 
0.749941 0.877585 1.00737 1.13501 0.690152 0.816367 0.94706 1.07784 1.20431 
0.647337 0.768195 0.895868 1.02616 1.15448 1.2767 0.624416 0.736561 0.857515 
0.983547 1.11021 1.23313 1.34871 0.620619 0.722093 0.833684 0.952313 1.07402 
1.19452 1.30996 1.41746 
Phi 1 1002 float
6.28319 3.14159 6.28319 3.14159 4.71239 4.71239 1.5708 1.5708 3.69517 
5.72961 2.58802 0.553574 6.28319 6.28319 6.28319 6.28319 3.14159 3.14159 
3.14159 3.14159 3.14159 6.1053 5.8988 5.67687 5.45995 5.26596 5.10322 
4.97131 4.86569 4.78095 0.177881 0.384387 0.606312 0.823235 1.01722 1.17997 
1.31187 1.4175 1.50223 6.18928 6.10703 6.03531 5.97283 5.91832 5.87061 
5.82869 5.79168 5.75886 0.0939024 0.176153 0.247873 0.310351 0.364864 0.412573 
0.454497 0.491504 0.524326 3.31947 3.52598 3.7479 3.96483 4.15881 4.32156 
4.45346 4.55909 4.64383 2.96371 2.75721 2.53528 2.31836 2.12437 1.96162 
1.82972 1.72409 1.63936 3.2355 3.31775 3.38947 3.45194 3.50646 3.55417 
3.59609 3.6331 3.66592 3.04769 2.96544 2.89372 2.83124 2.77673 2.72902 
2.6871 2.65009 2.61727 6.28319 6.28319 6.28319 6.28319 3.14159 3.14159 
3.14159 3.14159 3.14159 6.1053 5.8988 5.67687 5.45995 5.26596 5.10322 
4.97131 4.86569 4.78095 0.177881 0.384387 0.606312 0.823235 1.01722 1.17997 
1.31187 1.4175 1.50223 6.18928 6.10703 6.03531 5.97283 5.91832 5.87061 
5.82869 5.79168 5.75886 0.0939024 0.176153 0.247873 0.310351 0.364864 0.412573 
0.454497 0.491504 0.524326 3.31947 3.52598 3.7479 3.96483 4.15881 4.32156 
4.45346 4.55909 4.64383 2.96371 2.75721 2.53528 2.31836 2.12437 1.96162 
1.82972 1.72409 1.63936 3.2355 3.31775 3.38947 3.45194 3.50646 3.55417 
3.59609 3.6331 3.66592 3.04769 2.96544 2.89372 2.83124 2.77673 2.72902 
2.6871 2.65009 2.61727 4.71239 4.71239 4.71239 4.71239 4.71239 4.71239 
4.71239 4.71239 4.71239 4.60879 4.49914 4.3857 4.27128 4.15881 4.05096 
3.94976 3.85646 3.77161 4.81599 4.92564 5.03907 5.1535 5.26596 5.37381 
5.47502 5.56831 5.65317 4.60879 4.49914 4.3857 4.27128 4.15881 4.05096 
3.94976 3.85646 3.77161 4.81599 4.92564 5.03907 5.1535 5.26596 5.37381 
5.47502 5.56831 5.65317 1.5708 1.5708 1.5708 1.5708 1.5708 1.5708 
1.5708 1.5708 1.5708 1.6744 1.78405 1.89748 2.01191 2.12437 2.23222 
2.33343 2.42672 2.51157 1.4672 1.35755 1.24411 1.12969 1.01722 0.909371 
0.808166 0.714871 0.63002 1.6744 1.78405 1.89748 2.01191 2.12437 2.23222 
2.33343 2.42672 2.51157 1.4672 1.35755 1.24411 1.12969 1.01722 0.909371 
0.808166 0.714871 0.63002 3.60077 3.49669 3.38395 3.26458 3.14159 3.01861 
2.89924 2.78649 2.68241 5.82401 5.92808 6.04083 6.1602 6.28319 0.122983 
0.242354 0.355101 0.459179 6.05603 5.78856 5.97021 5.51259 5.60297 5.78856 
5.26596 5.26596 5.26596 5.26596 5.06749 5.0121 4.91556 4.71239 4.15881 
4.91556 4.83537 4.71239 4.50922 4.15881 3.63622 4.80045 4.71239 4.58941 
4.41268 4.15881 3.82181 3.45456 4.71239 4.62433 4.50922 4.35729 4.15881 
3.91219 3.63622 3.36875 6.01742 5.94343 5.82633 5.88092 5.76745 5.62798 
5.8278 5.71897 5.58911 5.43724 5.78235 5.67854 5.55757 5.41926 5.26596 
5.74316 5.64441 5.5315 5.40467 5.26596 5.11955 5.70914 5.61528 5.50962 
5.3926 5.26596 5.13292 4.99789 5.67937 5.59016 5.49102 5.38246 5.26596 
5.14407 5.02016 4.89798 5.56831 5.47502 5.47502 5.37381 5.37381 5.37381 
5.26596 5.26596 5.26596 5.26596 5.1535 5.1535 5.1535 5.1535 5.1535 
5.03907 5.03907 5.03907 5.03907 5.03907 5.03907 4.92564 4.92564 4.92564 
4.92564 4.92564 4.92564 4.92564 4.81599 4.81599 4.81599 4.81599 4.81599 
4.81599 4.81599 4.81599 4.60879 4.60879 4.49914 4.60879 4.49914 4.3857 
4.60879 4.49914 4.3857 4.27128 4.60879 4.49914 4.3857 4.27128 4.15881 
4.60879 4.49914 4.3857 4.27128 4.15881 4.05096 4.60879 4.49914 4.3857 
4.27128 4.15881 4.05096 3.94976 4.60879 4.49914 4.3857 4.27128 4.15881 
4.05096 3.94976 3.85646 4.5268 4.40462 4.42689 4.28071 4.29185 4.30523 
4.15881 4.15881 4.15881 4.15881 4.04232 4.03217 4.02011 4.00552 3.98753 
3.93376 3.91515 3.89328 3.86721 3.83566 3.7968 3.83461 3.8095 3.78037 
3.74624 3.70581 3.65733 3.59845 3.7454 3.71564 3.68161 3.64243 3.59698 
3.54386 3.48135 3.40735 3.56428 3.45246 3.52338 3.33203 3.40312 3.47739 
3.20576 3.27463 3.34802 3.42551 3.07742 3.14159 3.21128 3.28647 3.36688 
2.95116 3.00855 3.0719 3.14159 3.21784 3.3006 2.83072 2.88006 2.93517 
2.99672 3.06535 3.14159 3.22575 2.7189 2.7598 2.8058 2.85768 2.9163 
2.98259 3.05743 3.14159 3.56428 3.52338 3.45246 3.47739 3.40312 3.33203 
3.42551 3.34802 3.27463 3.20576 3.36688 3.28647 3.21128 3.14159 3.07742 
3.3006 3.21784 3.14159 3.0719 3.00855 2.95116 3.22575 3.14159 3.06535 
2.99672 2.93517 2.88006 2.83072 3.14159 3.05743 2.98259 2.9163 2.85768 
2.8058 2.7598 2.7189 4.5268 4.42689 4.40462 4.30523 4.29185 4.28071 
4.15881 4.15881 4.15881 4.15881 3.98753 4.00552 4.02011 4.03217 4.04232 
3.7968 3.83566 3.86721 3.89328 3.91515 3.93376 3.59845 3.65733 3.70581 
3.74624 3.78037 3.8095 3.83461 3.40735 3.48135 3.54386 3.59698 3.64243 
3.68161 3.71564 3.7454 4.71239 4.80045 4.62433 4.91556 4.71239 4.50922 
5.06749 4.83537 4.58941 4.35729 5.26596 5.0121 4.71239 4.41268 4.15881 
5.51259 5.26596 4.91556 4.50922 4.15881 3.91219 5.78856 5.60297 5.26596 
4.71239 4.15881 3.82181 3.63622 6.05603 5.97021 5.78856 5.26596 4.15881 
3.63622 3.45456 3.36875 0.227158 0.494626 0.312971 0.770593 0.680215 0.494626 
1.01722 1.01722 1.01722 1.01722 1.2157 1.27109 1.36763 1.5708 2.12437 
1.36763 1.44781 1.5708 1.77397 2.12437 2.64697 1.48273 1.5708 1.69378 
1.8705 2.12437 2.46138 2.82862 1.5708 1.65886 1.77397 1.9259 2.12437 
2.371 2.64697 2.91443 1.75639 1.87857 1.8563 2.00248 1.99133 1.97796 
2.12437 2.12437 2.12437 2.12437 2.24087 2.25101 2.26308 2.27767 2.29565 
2.34943 2.36803 2.38991 2.41597 2.44752 2.48639 2.44857 2.47368 2.50281 
2.53694 2.57738 2.62586 2.68474 2.53778 2.56754 2.60157 2.64076 2.68621 
2.73933 2.80184 2.87583 1.6744 1.6744 1.78405 1.6744 1.78405 1.89748 
1.6744 1.78405 1.89748 2.01191 1.6744 1.78405 1.89748 2.01191 2.12437 
1.6744 1.78405 1.89748 2.01191 2.12437 2.23222 1.6744 1.78405 1.89748 
2.01191 2.12437 2.23222 2.33343 1.6744 1.78405 1.89748 2.01191 2.12437 
2.23222 2.33343 2.42672 1.4672 1.35755 1.4672 1.24411 1.35755 1.4672 
1.12969 1.24411 1.35755 1.4672 1.01722 1.12969 1.24411 1.35755 1.4672 
0.909371 1.01722 1.12969 1.24411 1.35755 1.4672 0.808166 0.909371 1.01722 
1.12969 1.24411 1.35755 1.4672 0.714871 0.808166 0.909371 1.01722 1.12969 
1.24411 1.35755 1.4672 0.603812 0.57405 0.693022 0.540021 0.667908 0.792164 
0.500837 0.638778 0.773562 0.900726 0.455383 0.604649 0.751687 0.890581 1.01722 
0.402264 0.564217 0.725619 0.878514 1.01722 1.13912 0.339753 0.515737 0.694072 
0.863926 1.01722 1.15026 1.26302 0.265762 0.456853 0.655207 0.845941 1.01722 
1.16363 1.28529 1.38521 0.227158 0.312971 0.494626 0.494626 0.680215 0.770593 
1.01722 1.01722 1.01722 1.01722 2.12437 1.5708 1.36763 1.27109 1.2157 
2.64697 2.12437 1.77397 1.5708 1.44781 1.36763 2.82862 2.46138 2.12437 
1.8705 1.69378 1.5708 1.48273 2.91443 2.64697 2.371 2.12437 1.9259 
1.77397 1.65886 1.5708 1.75639 1.8563 1.87857 1.97796 1.99133 2.00248 
2.12437 2.12437 2.12437 2.12437 2.29565 2.27767 2.26308 2.25101 2.24087 
2.48639 2.44752 2.41597 2.38991 2.36803 2.34943 2.68474 2.62586 2.57738 
2.53694 2.50281 2.47368 2.44857 2.87583 2.80184 2.73933 2.68621 2.64076 
2.60157 2.56754 2.53778 5.86049 5.90139 5.97231 5.94739 6.02165 6.09275 
5.99927 6.07676 6.15015 6.21902 6.0579 6.13831 6.2135 0 0.0641696 
6.12418 6.20694 6.28319 0.069689 0.13304 0.190437 6.19903 0 0.0762451 
0.144876 0.206423 0.261531 0.310872 0 0.0841597 0.159004 0.225289 0.283913 
0.335793 0.381792 0.422692 5.86049 5.97231 5.90139 6.09275 6.02165 5.94739 
6.21902 6.15015 6.07676 5.99927 0.0641696 0 6.2135 6.13831 6.0579 
0.190437 0.13304 0.069689 6.28319 6.20694 6.12418 0.310872 0.261531 0.206423 
0.144876 0.0762451 6.28319 6.19903 0.422692 0.381792 0.335793 0.283913 0.225289 
0.159004 0.0841597 0 5.67937 5.70914 5.59016 5.74316 5.61528 5.49102 
5.78235 5.64441 5.50962 5.38246 5.8278 5.67854 5.5315 5.3926 5.26596 
5.88092 5.71897 5.55757 5.40467 5.26596 5.14407 5.94343 5.76745 5.58911 
5.41926 5.26596 5.13292 5.02016 6.01742 5.82633 5.62798 5.43724 5.26596 
5.11955 4.99789 4.89798 1.38521 1.28529 1.26302 1.16363 1.15026 1.13912 
1.01722 1.01722 1.01722 1.01722 0.845941 0.863926 0.878514 0.890581 0.900726 
0.655207 0.694072 0.725619 0.751687 0.773562 0.792164 0.456853 0.515737 0.564217 
0.604649 0.638778 0.667908 0.693022 0.265762 0.339753 0.402264 0.455383 0.500837 
0.540021 0.57405 0.603812 
