# vtk DataFile Version 4.0
vtk output
ASCII
DATASET POLYDATA
POINTS 1002 float
-87.2746 -96.3592 70.3105 -81.6652 -103.485 70.6456 -81.0803 -92.3983 69.8024 
-76.1827 -100.12 70.4322 -83.2869 -98.9387 75.581 -80.0464 -96.7463 75.1815 
-84.1309 -99.1678 65.5648 -79.8372 -97.1901 66.061 -77.6802 -105.435 74.2637 
-85.1033 -90.9479 72.8617 -77.1197 -106.271 67.3556 -86.0064 -91.6497 67.5882 
-87.0438 -97.0675 70.4073 -86.8021 -97.9089 70.4968 -86.2726 -98.6247 70.525 
-85.3759 -99.0783 70.4864 -84.5982 -99.7272 70.4781 -84.2437 -100.838 70.6116 
-83.8403 -101.788 70.7932 -83.0364 -102.26 70.8313 -82.1814 -102.735 70.7341 
-86.9716 -96.5824 70.8567 -86.8027 -96.8926 71.5171 -86.5673 -97.1431 72.1023 
-85.9416 -97.2759 72.5394 -85.1736 -97.4224 72.9935 -84.7877 -97.7318 73.6457 
-84.6449 -98.1992 74.4506 -84.33 -98.6297 75.1113 -83.8208 -98.8545 75.4359 
-87.4029 -96.6322 69.8977 -87.3273 -96.9794 69.3842 -87.1838 -97.3939 68.7266 
-87.2131 -97.907 68.0135 -87.1704 -98.3932 67.3306 -86.6214 -98.6258 66.7855 
-85.7616 -98.7045 66.4325 -85.0761 -98.861 66.1245 -84.6062 -99.0495 65.7958 
-87.2916 -95.8148 70.5452 -87.3248 -95.1445 70.9164 -87.4956 -94.358 71.4422 
-87.6482 -93.5848 71.9234 -87.5043 -92.7636 72.2179 -87.1809 -91.8749 72.4364 
-86.8201 -91.2654 72.5728 -86.2866 -91.0751 72.5763 -85.6383 -91.0279 72.6324 
-87.7445 -95.9372 70.0274 -88.2521 -95.588 69.8006 -88.4391 -95.0894 69.3883 
-88.2936 -94.3655 68.7505 -88.1478 -93.6245 68.266 -87.9465 -92.9162 68.0092 
-87.52 -92.2702 67.7445 -87.028 -91.8912 67.5695 -86.5415 -91.7506 67.5792 
-81.7767 -103.164 71.16 -81.984 -102.809 71.7014 -82.1898 -102.406 72.1859 
-82.3535 -101.95 72.6723 -82.448 -101.377 73.2035 -82.4809 -100.726 73.715 
-82.6305 -100.255 74.2574 -82.9491 -99.952 74.8393 -83.2147 -99.5272 75.2991 
-81.8112 -103.182 70.1845 -81.9812 -102.796 69.6636 -82.3119 -102.607 69.041 
-82.7841 -102.492 68.3408 -83.1196 -102.005 67.7764 -83.2229 -101.306 67.4081 
-83.3391 -100.777 66.9874 -83.6019 -100.256 66.465 -83.9021 -99.6502 65.9913 
-81.3617 -104.057 70.9053 -81.0194 -104.471 71.2352 -80.596 -104.848 71.6464 
-80.0831 -105.22 72.0721 -79.5423 -105.432 72.4572 -79.0841 -105.612 72.8917 
-78.7663 -105.885 73.4009 -78.5157 -105.975 73.8156 -78.1734 -105.761 74.0672 
-81.5651 -104.298 70.3675 -81.526 -105.102 70.1134 -81.1368 -105.551 69.7088 
-80.3408 -105.664 69.2058 -79.4819 -105.751 68.8975 -78.8044 -106.035 68.6418 
-78.358 -106.504 68.1061 -78.0282 -106.829 67.5641 -77.6186 -106.708 67.3647 
-80.683 -93.1115 69.8796 -80.0423 -93.6955 70.0419 -79.3454 -94.2818 70.2059 
-78.8525 -95.1909 70.2247 -78.5355 -96.3595 70.1342 -78.2134 -97.4498 70.1197 
-77.8049 -98.3728 70.1848 -77.2832 -99.12 70.2332 -76.695 -99.663 70.2998 
-81.1001 -92.735 70.3116 -81.1136 -93.1859 70.8776 -80.9592 -93.5776 71.4752 
-80.6473 -93.8174 72.2046 -80.4406 -94.1685 72.9622 -80.455 -94.8066 73.4418 
-80.5038 -95.4966 73.7399 -80.4318 -96.0274 74.1623 -80.2536 -96.416 74.6936 
-80.9607 -92.6495 69.3931 -80.868 -93.0113 69.0592 -80.6154 -93.4131 68.6441 
-80.2026 -93.7881 67.9438 -79.9516 -94.2105 67.2769 -79.9463 -94.8089 66.9963 
-79.925 -95.4965 66.7426 -79.8551 -96.1024 66.3105 -79.8475 -96.6368 66.051 
-81.3861 -91.8276 70.0622 -81.7999 -91.3255 70.3129 -82.256 -90.8924 70.6177 
-82.6219 -90.4447 71.1211 -83.0528 -90.0872 71.6454 -83.6964 -90.0034 71.948 
-84.2821 -90.1196 72.2144 -84.623 -90.3089 72.5584 -84.8634 -90.5852 72.7906 
-81.2622 -91.7614 69.506 -81.5096 -91.1443 69.1318 -81.9663 -90.6235 68.5414 
-82.625 -90.2726 67.9181 -83.3231 -90.0981 67.6104 -84.0309 -89.9937 67.5273 
-84.7525 -90.0087 67.4369 -85.327 -90.3463 67.4362 -85.7015 -90.9722 67.5501 
-76.5616 -100.059 70.8961 -76.8656 -99.8228 71.45 -77.1293 -99.5345 72.0375 
-77.6362 -99.3743 72.4956 -78.2798 -99.1421 72.8815 -78.6676 -98.6263 73.4072 
-78.9081 -98.014 74.0004 -79.2574 -97.4796 74.493 -79.6554 -97.0421 74.8837 
-76.1199 -99.7745 69.8859 -76.2514 -99.4962 69.3218 -76.6159 -99.4349 68.7187 
-76.8186 -99.1801 67.9874 -76.6721 -98.4273 67.2549 -76.8279 -97.8334 66.8678 
-77.6745 -97.8378 66.7638 -78.6361 -97.8864 66.5821 -79.2953 -97.5949 66.2952 
-75.9789 -100.602 70.8932 -75.8435 -101.194 71.3747 -75.8715 -102.013 71.8062 
-75.9829 -102.915 72.1825 -76.0296 -103.663 72.5596 -76.1137 -104.328 72.9965 
-76.3354 -104.892 73.4218 -76.6573 -105.17 73.7265 -77.1148 -105.284 73.9787 
-75.8016 -100.527 70.236 -75.7026 -101.256 69.9233 -75.7729 -102.238 69.4596 
-75.7692 -103.22 68.9879 -75.7048 -104.162 68.589 -75.737 -105.093 68.1633 
-75.8826 -105.768 67.7917 -76.1485 -106.071 67.6133 -76.5773 -106.201 67.5084 
-82.9529 -98.6526 75.911 -82.6459 -98.5468 76.6126 -82.4015 -98.4927 77.5994 
-82.1639 -98.1295 78.2118 -81.8888 -97.5403 77.9211 -81.5584 -97.2195 77.0787 
-81.1212 -97.1832 76.3551 -80.6277 -97.08 75.9193 -80.2461 -96.8773 75.5744 
-82.7465 -99.4061 75.5775 -82.1765 -100.021 75.6183 -81.6642 -100.919 75.8044 
-81.1529 -101.868 75.9688 -80.4519 -102.433 75.7008 -79.6122 -102.87 75.153 
-78.9259 -103.732 74.9634 -78.4614 -104.733 75.0572 -78.0683 -105.295 74.8513 
-83.5595 -98.2483 75.659 -83.8583 -97.5606 75.6852 -84.2809 -96.8194 75.7585 
-84.6998 -95.7579 75.7202 -84.9186 -94.5562 75.3326 -84.9414 -93.7079 74.7642 
-84.9016 -93.0699 74.2477 -84.9195 -92.3046 73.7461 -85.0112 -91.5467 73.2575 
-79.5919 -97.2763 75.4555 -79.2286 -98.069 75.6084 -79.0336 -99.1405 75.5843 
-78.9057 -100.286 75.3831 -78.6384 -101.331 75.0568 -78.071 -102.295 74.8836 
-77.397 -103.287 75.0369 -77.1067 -104.256 75.1498 -77.3204 -104.988 74.8502 
-80.6049 -96.3286 75.1348 -81.1785 -95.7635 75.1352 -81.6878 -94.9159 75.2417 
-82.0482 -93.9312 75.3288 -82.3658 -93.0274 75.2445 -82.9547 -92.2259 75.067 
-83.7459 -91.6122 74.8029 -84.3281 -91.3059 74.2531 -84.6876 -91.1537 73.4949 
-83.845 -99.0299 65.1908 -83.391 -98.9816 64.8098 -82.8449 -98.9053 64.5025 
-82.2727 -98.6145 64.3606 -81.6589 -98.1898 64.4357 -81.1093 -97.9111 64.7568 
-80.7582 -97.7793 65.2537 -80.4947 -97.5991 65.7048 -80.1758 -97.3661 65.9546 
-83.4422 -99.5535 65.7464 -82.7509 -100.198 65.956 -82.0472 -101.175 66.073 
-81.0996 -102.218 66.2135 -80.0632 -103.056 66.4697 -79.3869 -103.818 66.5928 
-78.925 -104.619 66.5327 -78.304 -105.303 66.642 -77.6279 -105.819 67.0015 
-84.6139 -98.7473 65.2442 -85.0136 -98.2244 65.028 -85.3342 -97.4721 65.0007 
-85.5786 -96.552 65.2177 -85.6981 -95.6255 65.6609 -85.7982 -94.8398 66.1335 
-85.9761 -94.1767 66.5126 -86.0687 -93.4485 66.9141 -86.0197 -92.5785 67.3353 
-79.3823 -98.0935 66.1787 -78.8915 -99.0448 65.9147 -78.5413 -99.713 65.3354 
-78.2825 -100.172 65.244 -77.7985 -101.086 65.8117 -77.1498 -102.671 66.1127 
-76.7703 -104.158 66.0631 -76.7504 -105.01 66.3859 -76.9008 -105.579 66.9879 
-80.5049 -96.5479 65.8449 -81.2699 -96.0789 65.6832 -81.9158 -95.591 65.584 
-82.3558 -94.9254 65.5852 -82.9322 -94.2944 65.7914 -83.7862 -93.7974 66.1617 
-84.5017 -93.2424 66.5491 -84.9473 -92.6426 66.9562 -85.423 -92.1201 67.3528 
-77.5607 -105.718 73.4617 -77.2628 -106.334 72.938 -76.9658 -107.321 72.6577 
-76.8219 -107.992 72.0558 -76.7205 -108.001 70.9963 -76.6817 -108 69.7419 
-76.8198 -108.177 68.536 -76.985 -107.917 67.7903 -77.0526 -107.122 67.55 
-85.4672 -90.3927 72.4141 -85.687 -89.8095 71.9225 -85.6977 -89.4593 71.1092 
-85.8703 -89.3256 70.2786 -86.4125 -89.0443 69.7387 -86.9408 -88.7179 68.9808 
-87.094 -88.9129 68.0209 -86.8742 -89.7088 67.5874 -86.4447 -90.7162 67.6244 
-86.7462 -97.2882 70.9361 -86.4069 -97.4791 71.4824 -86.3196 -97.9729 70.8882 
-85.9206 -97.6777 72.0677 -85.7974 -98.0708 71.3618 -85.5847 -98.5515 70.7943 
-85.2921 -97.9701 72.6839 -85.3569 -98.4597 72.121 -85.1347 -98.7843 71.3606 
-84.7664 -99.1551 70.8356 -84.8217 -98.3219 73.2683 -84.96 -98.9834 72.8977 
-84.8734 -99.3829 72.2407 -84.4717 -99.6145 71.5368 -84.2402 -100.141 71.0574 
-84.569 -98.7123 73.9173 -84.5295 -99.316 73.4611 -84.4327 -99.8332 72.94 
-84.1166 -100.142 72.2764 -83.8942 -100.608 71.7389 -83.9401 -101.322 71.3147 
-84.243 -99.1361 74.6158 -84.0175 -99.55 74.0116 -83.7825 -99.9794 73.4338 
-83.54 -100.422 72.8166 -83.3699 -100.914 72.2422 -83.4179 -101.575 71.8474 
-83.3916 -102.113 71.4173 -83.7502 -99.4296 75.0911 -83.463 -99.7916 74.5195 
-83.145 -100.093 73.8953 -82.9663 -100.578 73.3116 -82.8665 -101.158 72.7148 
-82.8237 -101.726 72.2205 -82.7681 -102.252 71.8243 -82.5285 -102.585 71.3222 
-87.033 -96.0483 71.2273 -87.1831 -95.334 71.7067 -86.9891 -96.4064 71.9874 
-87.297 -94.5047 72.1415 -87.041 -95.6645 72.3836 -86.6842 -96.6652 72.4942 
-87.1475 -93.7513 72.3254 -86.7201 -94.8202 72.5411 -86.4064 -95.948 72.7549 
-85.844 -96.7703 72.8414 -86.8104 -93.0021 72.4234 -86.244 -94.1044 72.5437 
-85.8652 -95.1831 72.9291 -85.5621 -96.177 73.2468 -85.115 -96.9461 73.4301 
-86.4575 -92.2927 72.6534 -85.9419 -93.4553 72.7702 -85.6093 -94.4989 73.196 
-85.4578 -95.5511 73.7441 -85.1976 -96.521 74.0961 -84.8755 -97.3388 74.2903 
-85.9908 -91.8967 72.8484 -85.6307 -92.9249 73.183 -85.5118 -93.8662 73.6514 
-85.5543 -94.8482 74.2283 -85.3983 -95.9915 74.7142 -84.9987 -96.9683 74.9534 
-84.6319 -97.7893 75.0621 -85.4413 -91.7357 72.985 -85.2168 -92.6027 73.4797 
-85.2012 -93.3974 74.0313 -85.3509 -94.1655 74.5927 -85.333 -95.2637 75.1258 
-84.9719 -96.4454 75.4199 -84.4895 -97.3209 75.4681 -84.1301 -98.0829 75.4737 
-84.7124 -91.7307 74.0326 -84.4034 -91.9093 74.7874 -84.7387 -92.5361 74.4686 
-83.6877 -92.2987 75.3079 -84.3752 -92.7905 75.1467 -84.6795 -93.3177 74.8764 
-82.8255 -92.9359 75.6678 -83.6157 -93.1924 75.8162 -84.2294 -93.6375 75.6292 
-84.533 -94.0494 75.4398 -82.3502 -93.8149 75.7927 -82.8867 -93.8334 76.2295 
-83.5994 -94.1134 76.3301 -84.0656 -94.5751 76.1416 -84.3447 -95.133 75.937 
-82.0903 -94.9262 75.603 -82.4273 -94.8381 76.091 -82.8901 -94.8695 76.5109 
-83.4528 -95.2816 76.5583 -83.8121 -95.8845 76.3391 -84.0244 -96.4028 76.0456 
-81.6324 -95.9276 75.4174 -81.9919 -95.941 75.8036 -82.2067 -95.8364 76.3983 
-82.5589 -96.0777 76.8675 -83.0379 -96.6887 76.8683 -83.3639 -97.1434 76.465 
[...]
POINT_DATA 1002
FIELD FieldData 2
Theta 1 1002 float
2.58802 2.58802 0.553574 0.553574 2.12437 1.01722 2.12437 1.01722 1.5708 
1.5708 1.5708 1.5708 2.68241 2.78649 2.89924 3.01861 3.14159 3.01861 
2.89924 2.78649 2.68241 2.61035 2.61791 2.60515 2.56958 2.51327 2.44184 
2.36202 2.27983 2.1997 2.61035 2.61791 2.60515 2.56958 2.51327 2.44184 
2.36202 2.27983 2.1997 2.50947 2.41899 2.31794 2.20864 2.0944 1.97902 
1.86631 1.75944 1.66056 2.50947 2.41899 2.31794 2.20864 2.0944 1.97902 
1.86631 1.75944 1.66056 2.61035 2.61791 2.60515 2.56958 2.51327 2.44184 
2.36202 2.27983 2.1997 2.61035 2.61791 2.60515 2.56958 2.51327 2.44184 
2.36202 2.27983 2.1997 2.50947 2.41899 2.31794 2.20864 2.0944 1.97902 
1.86631 1.75944 1.66056 2.50947 2.41899 2.31794 2.20864 2.0944 1.97902 
1.86631 1.75944 1.66056 0.459179 0.355101 0.242354 0.122983 0 0.122983 
0.242354 0.355101 0.459179 0.531246 0.523681 0.536438 0.57201 0.628319 0.699757 
0.779574 0.86176 0.941896 0.531246 0.523681 0.536438 0.57201 0.628319 0.699757 
0.779574 0.86176 0.941896 0.632123 0.7226 0.823657 0.932948 1.0472 1.16257 
1.27528 1.38216 1.48103 0.632123 0.7226 0.823657 0.932948 1.0472 1.16257 
1.27528 1.38216 1.48103 0.531246 0.523681 0.536438 0.57201 0.628319 0.699757 
0.779574 0.86176 0.941896 0.531246 0.523681 0.536438 0.57201 0.628319 0.699757 
0.779574 0.86176 0.941896 0.632123 0.7226 0.823657 0.932948 1.0472 1.16257 
1.27528 1.38216 1.48103 0.632123 0.7226 0.823657 0.932948 1.0472 1.16257 
1.27528 1.38216 1.48103 2.02998 1.9259 1.81315 1.69378 1.5708 1.44781 
1.32844 1.2157 1.11162 2.0928 2.05283 2.00422 1.94767 1.88496 1.81867 
1.75177 1.68695 1.62623 2.0928 2.05283 2.00422 1.94767 1.88496 1.81867 
1.75177 1.68695 1.62623 1.0488 1.08876 1.13737 1.19392 1.25664 1.32292 
1.38982 1.45464 1.51537 1.0488 1.08876 1.13737 1.19392 1.25664 1.32292 
1.38982 1.45464 1.51537 2.02998 1.9259 1.81315 1.69378 1.5708 1.44781 
1.32844 1.2157 1.11162 2.0928 2.05283 2.00422 1.94767 1.88496 1.81867 
1.75177 1.68695 1.62623 2.0928 2.05283 2.00422 1.94767 1.88496 1.81867 
1.75177 1.68695 1.62623 1.0488 1.08876 1.13737 1.19392 1.25664 1.32292 
1.38982 1.45464 1.51537 1.0488 1.08876 1.13737 1.19392 1.25664 1.32292 
1.38982 1.45464 1.51537 1.5708 1.5708 1.5708 1.5708 1.5708 1.5708 
1.5708 1.5708 1.5708 1.5708 1.5708 1.5708 1.5708 1.5708 1.5708 
1.5708 1.5708 1.5708 2.70908 2.71362 2.81592 2.68886 2.81002 2.92597 
2.6349 2.76254 2.89233 3.01997 2.55881 2.68262 2.80854 2.92834 3.01997 
2.47007 2.58462 2.70048 2.80854 2.89233 2.92597 2.37702 2.48017 2.58462 
2.68262 2.76254 2.81002 2.81592 2.28567 2.37702 2.47007 2.55881 2.6349 
2.68886 2.71362 2.70908 2.52097 2.4195 2.51718 2.30791 2.40503 2.49426 
2.18928 2.28408 2.3734 2.45144 2.06758 2.15805 2.24572 2.32523 2.39165 
1.94707 2.03138 2.11543 2.19453 2.26401 2.32035 1.83164 1.90847 1.98711 
2.06376 2.13422 2.1949 2.24359 1.72413 1.79288 1.86489 1.93728 2.00658 
2.06938 2.12312 2.16654 1.5708 1.50988 1.63171 1.44492 1.5708 1.69667 
1.37826 1.5059 1.63569 1.76333 1.31281 1.43962 1.5708 1.70197 1.82878 
1.25155 1.37501 1.50478 1.63681 1.76659 1.89004 1.19686 1.31493 1.44074 
1.5708 1.70086 1.82666 1.94473 1.15011 1.26149 1.38136 1.50697 1.63462 
1.76024 1.88011 1.99148 1.99148 1.88011 1.94473 1.76024 1.82666 1.89004 
1.63462 1.70086 1.76659 1.82878 1.50697 1.5708 1.63681 1.70197 1.76333 
1.38136 1.44074 1.50478 1.5708 1.63569 1.69667 1.26149 1.31493 1.37501 
1.43962 1.5059 1.5708 1.63171 1.15011 1.19686 1.25155 1.31281 1.37826 
1.44492 1.50988 1.5708 2.16654 2.12312 2.24359 2.06938 2.1949 2.32035 
2.00658 2.13422 2.26401 2.39165 1.93728 2.06376 2.19453 2.32523 2.45144 
1.86489 1.98711 2.11543 2.24572 2.3734 2.49426 1.79288 1.90847 2.03138 
2.15805 2.28408 2.40503 2.51718 1.72413 1.83164 1.94707 2.06758 2.18928 
2.30791 2.4195 2.52097 1.66533 1.66946 1.76911 1.67254 1.777 1.88041 
1.67418 1.78222 1.89102 1.99634 1.67418 1.78405 1.89674 2.00785 2.11299 
1.67254 1.78222 1.89674 2.01191 2.12307 2.22608 1.66946 1.777 1.89102 
2.00785 2.12307 2.23222 2.33166 1.66533 1.76911 1.88041 1.99634 2.11299 
2.22608 2.33166 2.42672 1.47626 1.37249 1.47213 1.26118 1.36459 1.46906 
1.14526 1.25058 1.35938 1.46741 1.0286 1.13374 1.24485 1.35755 1.46741 
0.915514 1.01852 1.12969 1.24485 1.35938 1.46906 0.809937 0.909371 1.01852 
1.13374 1.25058 1.36459 1.47213 0.714871 0.809937 0.915514 1.0286 1.14526 
1.26118 1.37249 1.47626 0.975055 0.898002 1.01847 0.821245 0.946693 1.07221 
0.749941 0.877585 1.00737 1.13501 0.690152 0.816367 0.94706 1.07784 1.20431 
0.647337 0.768195 0.895868 1.02616 1.15448 1.2767 0.624416 0.736561 0.857515 
0.983547 1.11021 1.23313 1.34871 0.620619 0.722093 0.833684 0.952313 1.07402 
1.19452 1.30996 1.41746 0.855925 0.764569 0.764569 0.671524 0.661425 0.671524 
0.582786 0.556971 0.556971 0.582786 0.506696 0.458968 0.441109 0.458968 0.506696 
0.45273 0.379052 0.333054 0.333054 0.379052 0.45273 0.427969 0.331576 0.249267 
0.21325 0.249267 0.331576 0.427969 0.432512 0.325669 0.215619 0.121622 0.121622 
0.215619 0.325669 0.432512 0.432512 0.427969 0.325669 0.45273 0.331576 0.215619 
0.506696 0.379052 0.249267 0.121622 0.582786 0.458968 0.333054 0.21325 0.121622 
0.671524 0.556971 0.441109 0.333054 0.249267 0.215619 0.764569 0.661425 0.556971 
0.458968 0.379052 0.331576 0.325669 0.855925 0.764569 0.671524 0.582786 0.506696 
0.45273 0.427969 0.432512 0.975055 1.01847 0.898002 1.07221 0.946693 0.821245 
1.13501 1.00737 0.877585 0.749941 1.20431 1.07784 0.94706 0.816367 0.690152 
1.2767 1.15448 1.02616 0.895868 0.768195 0.647337 1.34871 1.23313 1.11021 
0.983547 0.857515 0.736561 0.624416 1.41746 1.30996 1.19452 1.07402 0.952313 
0.833684 0.722093 0.620619 1.15011 1.26149 1.19686 1.38136 1.31493 1.25155 
1.50697 1.44074 1.37501 1.31281 1.63462 1.5708 1.50478 1.43962 1.37826 
1.76024 1.70086 1.63681 1.5708 1.5059 1.44492 1.88011 1.82666 1.76659 
1.70197 1.63569 1.5708 1.50988 1.99148 1.94473 1.89004 1.82878 1.76333 
1.69667 1.63171 1.5708 1.15011 1.19686 1.26149 1.25155 1.31493 1.38136 
1.31281 1.37501 1.44074 1.50697 1.37826 1.43962 1.50478 1.5708 1.63462 
1.44492 1.5059 1.5708 1.63681 1.70086 1.76024 1.50988 1.5708 1.63569 
1.70197 1.76659 1.82666 1.88011 1.5708 1.63171 1.69667 1.76333 1.82878 
1.89004 1.94473 1.99148 1.72413 1.83164 1.79288 1.94707 1.90847 1.86489 
2.06758 2.03138 1.98711 1.93728 2.18928 2.15805 2.11543 2.06376 2.00658 
2.30791 2.28408 2.24572 2.19453 2.13422 2.06938 2.4195 2.40503 2.3734 
2.32523 2.26401 2.1949 2.12312 2.52097 2.51718 2.49426 2.45144 2.39165 
2.32035 2.24359 2.16654 2.70908 2.81592 2.71362 2.92597 2.81002 2.68886 
3.01997 2.89233 2.76254 2.6349 3.01997 2.92834 2.80854 2.68262 2.55881 
2.92597 2.89233 2.80854 2.70048 2.58462 2.47007 2.81592 2.81002 2.76254 
2.68262 2.58462 2.48017 2.37702 2.70908 2.71362 2.68886 2.6349 2.55881 
2.47007 2.37702 2.28567 2.16654 2.24359 2.12312 2.32035 2.1949 2.06938 
2.39165 2.26401 2.13422 2.00658 2.45144 2.32523 2.19453 2.06376 1.93728 
2.49426 2.3734 2.24572 2.11543 1.98711 1.86489 2.51718 2.40503 2.28408 
2.15805 2.03138 1.90847 1.79288 2.52097 2.4195 2.30791 2.18928 2.06758 
1.94707 1.83164 1.72413 1.66533 1.76911 1.66946 1.88041 1.777 1.67254 
1.99634 1.89102 1.78222 1.67418 2.11299 2.00785 1.89674 1.78405 1.67418 
2.22608 2.12307 2.01191 1.89674 1.78222 1.67254 2.33166 2.23222 2.12307 
2.00785 1.89102 1.777 1.66946 2.42672 2.33166 2.22608 2.11299 1.99634 
1.88041 1.76911 1.66533 1.47626 1.47213 1.37249 1.46906 1.36459 1.26118 
1.46741 1.35938 1.25058 1.14526 1.46741 1.35755 1.24485 1.13374 1.0286 
1.46906 1.35938 1.24485 1.12969 1.01852 0.915514 1.47213 1.36459 1.25058 
1.13374 1.01852 0.909371 0.809937 1.47626 1.37249 1.26118 1.14526 1.0286 
0.915514 0.809937 0.714871 1.41746 1.30996 1.34871 1.19452 1.23313 1.2767 
1.07402 1.11021 1.15448 1.20431 0.952313 0.983547 1.02616 1.07784 1.13501 
0.833684 0.857515 0.895868 0.94706 1.00737 1.07221 0.722093 0.736561 0.768195 
0.816367 0.877585 0.946693 1.01847 0.620619 0.624416 0.647337 0.690152 0.749941 
0.821245 0.898002 0.975055 0.975055 0.898002 1.01847 0.821245 0.946693 1.07221 
0.749941 0.877585 1.00737 1.13501 0.690152 0.816367 0.94706 1.07784 1.20431 
0.647337 0.768195 0.895868 1.02616 1.15448 1.2767 0.624416 0.736561 0.857515 
0.983547 1.11021 1.23313 1.34871 0.620619 0.722093 0.833684 0.952313 1.07402 
1.19452 1.30996 1.41746 
Phi 1 1002 float
6.28319 3.14159 6.28319 3.14159 4.71239 4.71239 1.5708 1.5708 3.69517 
5.72961 2.58802 0.553574 6.28319 6.28319 6.28319 6.28319 3.14159 3.14159 
3.14159 3.14159 3.14159 6.1053 5.8988 5.67687 5.45995 5.26596 5.10322 
4.97131 4.86569 4.78095 0.177881 0.384387 0.606312 0.823235 1.01722 1.17997 
1.31187 1.4175 1.50223 6.18928 6.10703 6.03531 5.97283 5.91832 5.87061 
5.82869 5.79168 5.75886 0.0939024 0.176153 0.247873 0.310351 0.364864 0.412573 
0.454497 0.491504 0.524326 3.31947 3.52598 3.7479 3.96483 4.15881 4.32156 
4.45346 4.55909 4.64383 2.96371 2.75721 2.53528 2.31836 2.12437 1.96162 
1.82972 1.72409 1.63936 3.2355 3.31775 3.38947 3.45194 3.50646 3.55417 
3.59609 3.6331 3.66592 3.04769 2.96544 2.89372 2.83124 2.77673 2.72902 
2.6871 2.65009 2.61727 6.28319 6.28319 6.28319 6.28319 3.14159 3.14159 
3.14159 3.14159 3.14159 6.1053 5.8988 5.67687 5.45995 5.26596 5.10322 
4.97131 4.86569 4.78095 0.177881 0.384387 0.606312 0.823235 1.01722 1.17997 
1.31187 1.4175 1.50223 6.18928 6.10703 6.03531 5.97283 5.91832 5.87061 
5.82869 5.79168 5.75886 0.0939024 0.176153 0.247873 0.310351 0.364864 0.412573 
0.454497 0.491504 0.524326 3.31947 3.52598 3.7479 3.96483 4.15881 4.32156 
4.45346 4.55909 4.64383 2.96371 2.75721 2.53528 2.31836 2.12437 1.96162 
1.82972 1.72409 1.63936 3.2355 3.31775 3.38947 3.45194 3.50646 3.55417 
3.59609 3.6331 3.66592 3.04769 2.96544 2.89372 2.83124 2.77673 2.72902 
2.6871 2.65009 2.61727 4.71239 4.71239 4.71239 4.71239 4.71239 4.71239 
4.71239 4.71239 4.71239 4.60879 4.49914 4.3857 4.27128 4.15881 4.05096 
3.94976 3.85646 3.77161 4.81599 4.92564 5.03907 5.1535 5.26596 5.37381 
5.47502 5.56831 5.65317 4.60879 4.49914 4.3857 4.27128 4.15881 4.05096 
3.94976 3.85646 3.77161 4.81599 4.92564 5.03907 5.1535 5.26596 5.37381 
5.47502 5.56831 5.65317 1.5708 1.5708 1.5708 1.5708 1.5708 1.5708 
1.5708 1.5708 1.5708 1.6744 1.78405 1.89748 2.01191 2.12437 2.23222 
2.33343 2.42672 2.51157 1.4672 1.35755 1.24411 1.12969 1.01722 0.909371 
0.808166 0.714871 0.63002 1.6744 1.78405 1.89748 2.01191 2.12437 2.23222 
2.33343 2.42672 2.51157 1.4672 1.35755 1.24411 1.12969 1.01722 0.909371 
0.808166 0.714871 0.63002 3.60077 3.49669 3.38395 3.26458 3.14159 3.01861 
2.89924 2.78649 2.68241 5.82401 5.92808 6.04083 6.1602 6.28319 0.122983 
0.242354 0.355101 0.459179 6.05603 5.78856 5.97021 5.51259 5.60297 5.78856 
5.26596 5.26596 5.26596 5.26596 5.06749 5.0121 4.91556 4.71239 4.15881 
4.91556 4.83537 4.71239 4.50922 4.15881 3.63622 4.80045 4.71239 4.58941 
4.41268 4.15881 3.82181 3.45456 4.71239 4.62433 4.50922 4.35729 4.15881 
3.91219 3.63622 3.36875 6.01742 5.94343 5.82633 5.88092 5.76745 5.62798 
5.8278 5.71897 5.58911 5.43724 5.78235 5.67854 5.55757 5.41926 5.26596 
5.74316 5.64441 5.5315 5.40467 5.26596 5.11955 5.70914 5.61528 5.50962 
5.3926 5.26596 5.13292 4.99789 5.67937 5.59016 5.49102 5.38246 5.26596 
5.14407 5.02016 4.89798 5.56831 5.47502 5.47502 5.37381 5.37381 5.37381 
5.26596 5.26596 5.26596 5.26596 5.1535 5.1535 5.1535 5.1535 5.1535 
5.03907 5.03907 5.03907 5.03907 5.03907 5.03907 4.92564 4.92564 4.92564 
4.92564 4.92564 4.92564 4.92564 4.81599 4.81599 4.81599 4.81599 4.81599 
4.81599 4.81599 4.81599 4.60879 4.60879 4.49914 4.60879 4.49914 4.3857 
4.60879 4.49914 4.3857 4.27128 4.60879 4.49914 4.3857 4.27128 4.15881 
4.60879 4.49914 4.3857 4.27128 4.15881 4.05096 4.60879 4.49914 4.3857 
4.27128 4.15881 4.05096 3.94976 4.60879 4.49914 4.3857 4.27128 4.15881 
4.05096 3.94976 3.85646 4.5268 4.40462 4.42689 4.28071 4.29185 4.30523 
4.15881 4.15881 4.15881 4.15881 4.04232 4.03217 4.02011 4.00552 3.98753 
3.93376 3.91515 3.89328 3.86721 3.83566 3.7968 3.83461 3.8095 3.78037 
3.74624 3.70581 3.65733 3.59845 3.7454 3.71564 3.68161 3.64243 3.59698 
3.54386 3.48135 3.40735 3.56428 3.45246 3.52338 3.33203 3.40312 3.47739 
3.20576 3.27463 3.34802 3.42551 3.07742 3.14159 3.21128 3.28647 3.36688 
2.95116 3.00855 3.0719 3.14159 3.21784 3.3006 2.83072 2.88006 2.93517 
2.99672 3.06535 3.14159 3.22575 2.7189 2.7598 2.8058 2.85768 2.9163 
2.98259 3.05743 3.14159 3.56428 3.52338 3.45246 3.47739 3.40312 3.33203 
3.42551 3.34802 3.27463 3.20576 3.36688 3.28647 3.21128 3.14159 3.07742 
3.3006 3.21784 3.14159 3.0719 3.00855 2.95116 3.22575 3.14159 3.06535 
2.99672 2.93517 2.88006 2.83072 3.14159 3.05743 2.98259 2.9163 2.85768 
2.8058 2.7598 2.7189 4.5268 4.42689 4.40462 4.30523 4.29185 4.28071 
4.15881 4.15881 4.15881 4.15881 3.98753 4.00552 4.02011 4.03217 4.04232 
3.7968 3.83566 3.86721 3.89328 3.91515 3.93376 3.59845 3.65733 3.70581 
3.74624 3.78037 3.8095 3.83461 3.40735 3.48135 3.54386 3.59698 3.64243 
3.68161 3.71564 3.7454 4.71239 4.80045 4.62433 4.91556 4.71239 4.50922 
5.06749 4.83537 4.58941 4.35729 5.26596 5.0121 4.71239 4.41268 4.15881 
5.51259 5.26596 4.91556 4.50922 4.15881 3.91219 5.78856 5.60297 5.26596 
4.71239 4.15881 3.82181 3.63622 6.05603 5.97021 5.78856 5.26596 4.15881 
3.63622 3.45456 3.36875 0.227158 0.494626 0.312971 0.770593 0.680215 0.494626 
1.01722 1.01722 1.01722 1.01722 1.2157 1.27109 1.36763 1.5708 2.12437 
1.36763 1.44781 1.5708 1.77397 2.12437 2.64697 1.48273 1.5708 1.69378 
1.8705 2.12437 2.46138 2.82862 1.5708 1.65886 1.77397 1.9259 2.12437 
2.371 2.64697 2.91443 1.75639 1.87857 1.8563 2.00248 1.99133 1.97796 
2.12437 2.12437 2.12437 2.12437 2.24087 2.25101 2.26308 2.27767 2.29565 
2.34943 2.36803 2.38991 2.41597 2.44752 2.48639 2.44857 2.47368 2.50281 
2.53694 2.57738 2.62586 2.68474 2.53778 2.56754 2.60157 2.64076 2.68621 
2.73933 2.80184 2.87583 1.6744 1.6744 1.78405 1.6744 1.78405 1.89748 
1.6744 1.78405 1.89748 2.01191 1.6744 1.78405 1.89748 2.01191 2.12437 
1.6744 1.78405 1.89748 2.01191 2.12437 2.23222 1.6744 1.78405 1.89748 
2.01191 2.12437 2.23222 2.33343 1.6744 1.78405 1.89748 2.01191 2.12437 
2.23222 2.33343 2.42672 1.4672 1.35755 1.4672 1.24411 1.35755 1.4672 
1.12969 1.24411 1.35755 1.4672 1.01722 1.12969 1.24411 1.35755 1.4672 
0.909371 1.01722 1.12969 1.24411 1.35755 1.4672 0.808166 0.909371 1.01722 
1.12969 1.24411 1.35755 1.4672 0.714871 0.808166 0.909371 1.01722 1.12969 
1.24411 1.35755 1.4672 0.603812 0.57405 0.693022 0.540021 0.667908 0.792164 
0.500837 0.638778 0.773562 0.900726 0.455383 0.604649 0.751687 0.890581 1.01722 
0.402264 0.564217 0.725619 0.878514 1.01722 1.13912 0.339753 0.515737 0.694072 
0.863926 1.01722 1.15026 1.26302 0.265762 0.456853 0.655207 0.845941 1.01722 
1.16363 1.28529 1.38521 0.227158 0.312971 0.494626 0.494626 0.680215 0.770593 
1.01722 1.01722 1.01722 1.01722 2.12437 1.5708 1.36763 1.27109 1.2157 
2.64697 2.12437 1.77397 1.5708 1.44781 1.36763 2.82862 2.46138 2.12437 
1.8705 1.69378 1.5708 1.48273 2.91443 2.64697 2.371 2.12437 1.9259 
1.77397 1.65886 1.5708 1.75639 1.8563 1.87857 1.97796 1.99133 2.00248 
2.12437 2.12437 2.12437 2.12437 2.29565 2.27767 2.26308 2.25101 2.24087 
2.48639 2.44752 2.41597 2.38991 2.36803 2.34943 2.68474 2.62586 2.57738 
2.53694 2.50281 2.47368 2.44857 2.87583 2.80184 2.73933 2.68621 2.64076 
2.60157 2.56754 2.53778 5.86049 5.90139 5.97231 5.94739 6.02165 6.09275 
5.99927 6.07676 6.15015 6.21902 6.0579 6.13831 6.2135 0 0.0641696 
6.12418 6.20694 6.28319 0.069689 0.13304 0.190437 6.19903 0 0.0762451 
0.144876 0.206423 0.261531 0.310872 0 0.0841597 0.159004 0.225289 0.283913 
0.335793 0.381792 0.422692 5.86049 5.97231 5.90139 6.09275 6.02165 5.94739 
6.21902 6.15015 6.07676 5.99927 0.0641696 0 6.2135 6.13831 6.0579 
0.190437 0.13304 0.069689 6.28319 6.20694 6.12418 0.310872 0.261531 0.206423 
0.144876 0.0762451 6.28319 6.19903 0.422692 0.381792 0.335793 0.283913 0.225289 
0.159004 0.0841597 0 5.67937 5.70914 5.59016 5.74316 5.61528 5.49102 
5.78235 5.64441 5.50962 5.38246 5.8278 5.67854 5.5315 5.3926 5.26596 
5.88092 5.71897 5.55757 5.40467 5.26596 5.14407 5.94343 5.76745 5.58911 
5.41926 5.26596 5.13292 5.02016 6.01742 5.82633 5.62798 5.43724 5.26596 
5.11955 4.99789 4.89798 1.38521 1.28529 1.26302 1.16363 1.15026 1.13912 
1.01722 1.01722 1.01722 1.01722 0.845941 0.863926 0.878514 0.890581 0.900726 
0.655207 0.694072 0.725619 0.751687 0.773562 0.792164 0.456853 0.515737 0.564217 
0.604649 0.638778 0.667908 0.693022 0.265762 0.339753 0.402264 0.455383 0.500837 
0.540021 0.57405 0.603812 
