# vtk DataFile Version 4.0
vtk output
ASCII
DATASET POLYDATA
POINTS 1002 float
-88.131 -94.246 65.9669 -82.5013 -101.365 66.4635 -82.1345 -90.0956 65.1709 
-77.6333 -98.2801 65.863 -84.1279 -96.9358 71.6137 -80.946 -94.8063 71.2577 
-84.7322 -97.8422 61.0271 -80.6947 -95.4214 60.9883 -77.8497 -103.142 69.4478 
-86.6092 -89.2315 68.8525 -77.4295 -103.68 63.3865 -87.556 -88.4119 61.6428 
-87.9571 -95.1056 66.1221 -87.5665 -95.9563 66.1929 -86.9745 -96.7159 66.2461 
-86.3096 -97.372 66.3049 -85.6296 -98.034 66.3348 -84.9762 -98.7978 66.3323 
-84.3286 -99.545 66.3397 -83.6301 -100.151 66.3875 -82.9851 -100.723 66.4453 
-87.946 -94.5142 66.3852 -87.5219 -94.7129 66.8933 -87.0689 -94.9585 67.5728 
-86.8137 -95.3366 68.3177 -86.4621 -95.5983 68.9337 -85.7541 -95.6316 69.3791 
-85.0831 -95.7994 69.8399 -84.7484 -96.2593 70.4765 -84.5111 -96.7117 71.1504 
-88.0816 -94.5127 65.6166 -87.9429 -94.8898 65.0539 -87.8286 -95.3989 64.336 
-87.7234 -95.9619 63.691 -87.4156 -96.3715 63.1519 -86.8491 -96.5373 62.6301 
-86.2378 -96.6974 62.131 -85.7246 -97.0605 61.6625 -85.2493 -97.5042 61.2703 
-88.1758 -93.5904 66.0234 -88.2651 -93.0016 66.1866 -88.4184 -92.5513 66.57 
-88.394 -92.0887 67.0761 -88.1275 -91.4148 67.4894 -87.9106 -90.7025 67.8197 
-87.7326 -90.1915 68.1837 -87.4035 -89.8114 68.511 -87.0045 -89.4737 68.7166 
-88.2916 -93.512 65.4929 -88.7972 -92.859 64.9282 -89.6623 -92.4745 64.5073 
-90.1016 -92.1986 64.281 -89.6098 -91.6622 63.9845 -88.8043 -90.8669 63.5459 
-88.2787 -90.1357 63.1432 -87.993 -89.5459 62.7236 -87.7955 -88.962 62.1748 
-82.5255 -101.006 66.8678 -82.5066 -100.526 67.2838 -82.6889 -100.08 67.8061 
-83.1188 -99.7791 68.4861 -83.46 -99.4188 69.1567 -83.4838 -98.7569 69.5931 
-83.4093 -98.0149 69.9329 -83.522 -97.5237 70.4522 -83.8193 -97.2318 71.0871 
-82.6012 -101.164 65.9677 -82.7037 -100.895 65.3255 -83.0431 -100.683 64.6261 
-83.4935 -100.45 63.9896 -83.7007 -100.009 63.5241 -83.7823 -99.444 63.1349 
-84.0548 -99.0101 62.5739 -84.4134 -98.6994 61.8949 -84.6381 -98.3227 61.3613 
-82.0844 -101.827 66.6827 -81.5496 -102.193 66.8924 -81.0218 -102.522 67.2123 
-80.478 -102.84 67.6209 -79.7839 -102.995 67.9667 -79.2339 -103.099 68.3099 
-79.0143 -103.389 68.801 -78.7259 -103.632 69.2823 -78.2327 -103.526 69.4966 
-82.1672 -101.979 66.1636 -81.7821 -102.603 65.763 -81.2857 -103.104 65.2347 
-80.5639 -103.41 64.6822 -79.7525 -103.685 64.285 -79.1657 -104.099 63.9513 
-78.7408 -104.471 63.523 -78.26 -104.503 63.2256 -77.7884 -104.172 63.2515 
-81.7646 -90.8133 65.3056 -81.3235 -91.6245 65.4362 -80.94 -92.524 65.5111 
-80.4332 -93.3345 65.5724 -79.6387 -93.9817 65.6651 -79.0045 -94.7459 65.7099 
-78.7699 -95.7514 65.6801 -78.5155 -96.7581 65.6778 -78.0676 -97.5971 65.7516 
-81.9808 -90.3545 65.8189 -81.8108 -90.6772 66.4603 -81.7103 -91.1632 67.0966 
-81.637 -91.7167 67.8028 -81.5431 -92.2293 68.5492 -81.4885 -92.8219 69.2104 
-81.4532 -93.471 69.7899 -81.3304 -93.9832 70.3343 -81.1299 -94.3902 70.8228 
-82.0095 -90.2504 64.6081 -81.8109 -90.4703 64.0644 -81.6458 -90.896 63.5329 
-81.5427 -91.4899 62.9981 -81.4347 -92.1226 62.5318 -81.3439 -92.8337 62.1832 
-81.2547 -93.5739 61.8314 -81.0628 -94.1975 61.4193 -80.8288 -94.7771 61.106 
-82.3244 -89.5426 65.5009 -82.4674 -88.9462 65.959 -82.7612 -88.4802 66.4788 
-83.3518 -88.3309 66.906 -83.9895 -88.3781 67.2491 -84.4691 -88.3663 67.7209 
-85.03 -88.3105 68.2824 -85.7308 -88.4051 68.6392 -86.2886 -88.7408 68.7589 
-82.3575 -89.4842 64.6695 -82.6189 -88.9074 64.097 -83.1318 -88.4537 63.5637 
-83.9479 -88.1129 63.2529 -84.7566 -87.857 63.0516 -85.297 -87.5587 62.5571 
-85.8199 -87.1753 61.8 -86.5479 -87.0821 61.3087 -87.2098 -87.5722 61.3341 
-77.8391 -98.0081 66.3426 -78.0707 -97.6619 66.9925 -78.3686 -97.2515 67.5939 
-78.7109 -96.7835 68.1356 -78.9937 -96.2881 68.8699 -79.2584 -95.8441 69.6409 
-79.6666 -95.4936 70.1551 -80.1595 -95.2188 70.5468 -80.5821 -95.0002 70.9378 
-77.697 -98.1189 65.4242 -77.7948 -97.8572 64.9252 -77.8966 -97.462 64.2431 
-78.0327 -97.0642 63.4853 -78.258 -96.718 62.8761 -78.6013 -96.3422 62.3424 
-79.0693 -96.0259 61.7908 -79.6213 -95.8558 61.3905 -80.1798 -95.6893 61.1809 
-77.427 -98.7961 66.2272 -77.2605 -99.3878 66.626 -77.0063 -99.9767 67.0523 
-76.6996 -100.496 67.5369 -76.4964 -101.038 68.1231 -76.4753 -101.735 68.6595 
-76.6809 -102.471 68.9204 -77.0519 -102.981 69.0055 -77.4484 -103.173 69.1719 
-77.2415 -98.801 65.7173 -76.7489 -99.3351 65.4893 -76.2065 -99.9303 65.1031 
-75.8701 -100.648 64.6958 -75.8302 -101.524 64.3183 -75.8929 -102.401 63.8853 
-76.0804 -103.012 63.5817 -76.4937 -103.326 63.5611 -76.9854 -103.521 63.5708 
-83.9213 -96.729 72.0048 -83.5397 -96.4563 72.237 -83.0896 -96.2647 72.4995 
-82.6568 -96.0464 73.0215 -82.2413 -95.6055 73.535 -81.9283 -95.197 73.4605 
-81.7055 -95.0924 72.8339 -81.4222 -95.0762 72.1797 -81.127 -94.9568 71.6905 
-83.4382 -97.257 71.5795 -82.8281 -97.7715 71.5279 -82.3943 -98.5865 71.6467 
-81.8179 -99.3378 71.7233 -81.0293 -99.7764 71.418 -80.3512 -100.259 70.9327 
-79.7247 -101.006 70.6087 -78.9927 -101.791 70.3068 -78.3369 -102.493 69.8663 
-84.629 -96.4302 71.7722 -84.9376 -95.6591 71.76 -85.0875 -94.7234 71.5792 
-85.2929 -93.8224 71.2208 -85.6357 -92.8515 70.8234 -85.9903 -91.7667 70.5808 
-86.2594 -90.9477 70.3143 -86.4421 -90.4496 69.8125 -86.5573 -89.9023 69.2606 
-80.5532 -95.3509 71.5502 -80.0897 -95.8866 71.9145 -79.5521 -96.5023 72.1824 
-79.0545 -97.3479 72.2018 -78.7089 -98.3754 72.0473 -78.5675 -99.4184 71.6542 
-78.5172 -100.409 70.8799 -78.3182 -101.346 70.0565 -78.007 -102.261 69.5968 
-81.4362 -94.2617 71.2806 -81.94 -93.5026 71.3055 -82.3937 -92.6344 71.2784 
-82.8501 -91.8239 71.2472 -83.3986 -91.1103 71.2114 -84.007 -90.5829 70.8699 
-84.6553 -90.2737 70.1762 -85.3782 -89.959 69.5485 -86.0792 -89.5543 69.1669 
-84.3663 -97.634 60.7995 -84.007 -97.4252 60.5544 -83.7689 -97.3204 60.1946 
-83.3577 -97.108 59.9258 -82.5965 -96.6733 59.9749 -81.9488 -96.3346 60.1635 
-81.6504 -96.1897 60.3221 -81.3766 -95.9855 60.5354 -81.0087 -95.6848 60.7886 
-84.1402 -98.4508 61.0392 -83.4162 -99.0429 61.121 -82.5225 -99.5928 61.3091 
-81.6572 -100.27 61.4992 -80.9263 -101.14 61.5762 -80.1453 -101.948 61.6358 
-79.2448 -102.524 61.8599 -78.4283 -102.971 62.3226 -77.8435 -103.359 62.9121 
-85.2272 -97.1981 60.8241 -85.8759 -96.5888 60.5958 -86.4052 -95.803 60.5612 
-86.7255 -94.6752 60.7672 -87.1744 -93.4189 60.8977 -87.7068 -92.2827 60.9497 
-87.8589 -91.2883 61.236 -87.6958 -90.363 61.6066 -87.5809 -89.3981 61.7264 
-80.2964 -96.2859 61.088 -79.7867 -97.1043 61.0576 -79.1421 -97.8871 60.8913 
-78.5082 -98.7633 60.9337 -77.9808 -99.7929 61.2218 -77.5199 -100.862 61.3948 
-77.2308 -101.758 61.653 -77.2169 -102.419 62.3299 -77.3337 -103.018 63.0509 
-81.23 -94.6231 60.7603 -81.7794 -93.7768 60.5908 -82.4417 -93.0513 60.6402 
-83.2959 -92.4042 60.8369 -84.1971 -91.722 61.0582 -85.022 -91.0176 61.37 
-85.8568 -90.2282 61.6141 -86.6428 -89.3595 61.5536 -87.2049 -88.691 61.4412 
-77.5934 -104.067 69.2221 -77.369 -104.878 68.9124 -77.1393 -105.337 68.2647 
-76.9398 -105.544 67.2849 -76.7937 -105.794 66.1958 -76.6929 -105.959 65.0954 
-76.7251 -105.707 64.1472 -76.9389 -105.087 63.662 -77.2126 -104.352 63.5544 
-86.8461 -88.7477 68.342 -87.0666 -88.4513 67.6396 -87.3672 -88.174 66.8751 
-87.6669 -87.7486 66.1265 -87.8205 -87.4163 65.275 -87.9055 -87.3715 64.3411 
-87.9796 -87.439 63.4563 -87.9237 -87.5547 62.6344 -87.7401 -87.8625 61.979 
-87.6031 -95.3023 66.4849 -87.0697 -95.4588 66.9809 -87.0156 -96.0262 66.5584 
-86.6978 -95.7483 67.6965 -86.47 -96.1056 67.042 -86.3411 -96.6975 66.6558 
-86.3875 -96.0685 68.4124 -86.0548 -96.3178 67.6625 -85.7576 -96.7232 67.0728 
-85.7172 -97.4341 66.7384 -85.7515 -96.1602 68.9201 -85.4801 -96.5113 68.2613 
-85.1397 -96.8709 67.5663 -85.0857 -97.5486 67.1263 -85.1282 -98.2896 66.7744 
-85.0252 -96.2324 69.362 -84.8437 -96.6802 68.8136 -84.5713 -97.1472 68.2036 
-84.5022 -97.7982 67.6692 -84.5804 -98.5487 67.2413 -84.5145 -99.1306 66.8011 
-84.5714 -96.5672 69.9441 -84.4329 -96.9957 69.4151 -84.3101 -97.5815 68.9451 
-84.2363 -98.2386 68.4452 -84.1775 -98.8655 67.88 -84.0177 -99.3886 67.3351 
-83.8119 -99.806 66.8471 -84.2323 -96.9774 70.5859 -84.0348 -97.3267 69.9982 
-84.0133 -97.9355 69.5665 -84.0533 -98.671 69.1887 -83.917 -99.224 68.6107 
-83.5623 -99.5932 67.9189 -83.2408 -99.9725 67.3417 -83.0968 -100.383 66.8832 
-87.9436 -93.8785 66.606 -88.0137 -93.3202 66.9682 -87.5238 -94.0856 67.2883 
-88.1039 -92.8893 67.4523 -87.6126 -93.5427 67.7285 -87.116 -94.3652 68.003 
-87.9843 -92.3739 67.9407 -87.6814 -93.1365 68.2525 -87.2336 -93.8604 68.4534 
-86.8558 -94.7605 68.7188 -87.8201 -91.637 68.3624 -87.6432 -92.588 68.8666 
-87.3546 -93.4728 69.1629 -86.9322 -94.268 69.2953 -86.3872 -94.9966 69.3699 
-87.7747 -90.9319 68.7628 -87.6542 -91.7905 69.3914 -87.4068 -92.8651 69.879 
-87.0045 -93.8547 70.0614 -86.3514 -94.5228 69.9755 -85.6389 -95.1232 69.8615 
-87.5365 -90.4486 69.0952 -87.5153 -91.0816 69.7039 -87.2723 -92.0275 70.1749 
-86.8648 -93.2202 70.4324 -86.2637 -94.1122 70.4577 -85.5965 -94.7514 70.3778 
-85.109 -95.4979 70.3994 -87.0516 -90.1249 69.2451 -87.0207 -90.6675 69.8211 
-86.8163 -91.3477 70.2251 -86.4427 -92.4333 70.4256 -85.9563 -93.5338 70.6091 
-85.4764 -94.3549 70.8008 -85.1516 -95.1798 70.9773 -84.8962 -96.0462 71.1324 
-85.9615 -90.1864 69.6403 -85.3135 -90.3799 70.2888 -85.8159 -90.6137 70.3439 
-84.6655 -90.5177 71.1711 -85.3066 -90.7154 71.2002 -85.6859 -91.1697 70.9379 
-83.9259 -90.9646 71.7256 -84.7162 -91.0316 71.9512 -85.332 -91.4825 71.7856 
-85.5081 -92.1553 71.3028 -83.1608 -91.7615 71.7852 -83.7987 -91.7693 72.1217 
-84.7218 -92.0566 72.2142 -85.2362 -92.6293 72.1301 -85.2483 -93.2611 71.7484 
-82.5809 -92.6113 71.8036 -82.8807 -92.6261 72.1812 -83.6377 -92.7735 72.2885 
-84.5503 -93.2065 72.4222 -84.9643 -93.7769 72.5276 -85.0115 -94.2941 72.2053 
-82.1409 -93.4841 71.842 -82.3183 -93.4692 72.3927 -82.6576 -93.4829 72.6761 
-83.3912 -93.7962 72.6743 -84.157 -94.3742 72.7136 -84.5757 -94.9006 72.7049 
[...]
POINT_DATA 1002
FIELD FieldData 2
Theta 1 1002 float
2.58802 2.58802 0.553574 0.553574 2.12437 1.01722 2.12437 1.01722 1.5708 
1.5708 1.5708 1.5708 2.68241 2.78649 2.89924 3.01861 3.14159 3.01861 
2.89924 2.78649 2.68241 2.61035 2.61791 2.60515 2.56958 2.51327 2.44184 
2.36202 2.27983 2.1997 2.61035 2.61791 2.60515 2.56958 2.51327 2.44184 
2.36202 2.27983 2.1997 2.50947 2.41899 2.31794 2.20864 2.0944 1.97902 
1.86631 1.75944 1.66056 2.50947 2.41899 2.31794 2.20864 2.0944 1.97902 
1.86631 1.75944 1.66056 2.61035 2.61791 2.60515 2.56958 2.51327 2.44184 
2.36202 2.27983 2.1997 2.61035 2.61791 2.60515 2.56958 2.51327 2.44184 
2.36202 2.27983 2.1997 2.50947 2.41899 2.31794 2.20864 2.0944 1.97902 
1.86631 1.75944 1.66056 2.50947 2.41899 2.31794 2.20864 2.0944 1.97902 
1.86631 1.75944 1.66056 0.459179 0.355101 0.242354 0.122983 0 0.122983 
0.242354 0.355101 0.459179 0.531246 0.523681 0.536438 0.57201 0.628319 0.699757 
0.779574 0.86176 0.941896 0.531246 0.523681 0.536438 0.57201 0.628319 0.699757 
0.779574 0.86176 0.941896 0.632123 0.7226 0.823657 0.932948 1.0472 1.16257 
1.27528 1.38216 1.48103 0.632123 0.7226 0.823657 0.932948 1.0472 1.16257 
1.27528 1.38216 1.48103 0.531246 0.523681 0.536438 0.57201 0.628319 0.699757 
0.779574 0.86176 0.941896 0.531246 0.523681 0.536438 0.57201 0.628319 0.699757 
0.779574 0.86176 0.941896 0.632123 0.7226 0.823657 0.932948 1.0472 1.16257 
1.27528 1.38216 1.48103 0.632123 0.7226 0.823657 0.932948 1.0472 1.16257 
1.27528 1.38216 1.48103 2.02998 1.9259 1.81315 1.69378 1.5708 1.44781 
1.32844 1.2157 1.11162 2.0928 2.05283 2.00422 1.94767 1.88496 1.81867 
1.75177 1.68695 1.62623 2.0928 2.05283 2.00422 1.94767 1.88496 1.81867 
1.75177 1.68695 1.62623 1.0488 1.08876 1.13737 1.19392 1.25664 1.32292 
1.38982 1.45464 1.51537 1.0488 1.08876 1.13737 1.19392 1.25664 1.32292 
1.38982 1.45464 1.51537 2.02998 1.9259 1.81315 1.69378 1.5708 1.44781 
1.32844 1.2157 1.11162 2.0928 2.05283 2.00422 1.94767 1.88496 1.81867 
1.75177 1.68695 1.62623 2.0928 2.05283 2.00422 1.94767 1.88496 1.81867 
1.75177 1.68695 1.62623 1.0488 1.08876 1.13737 1.19392 1.25664 1.32292 
1.38982 1.45464 1.51537 1.0488 1.08876 1.13737 1.19392 1.25664 1.32292 
1.38982 1.45464 1.51537 1.5708 1.5708 1.5708 1.5708 1.5708 1.5708 
1.5708 1.5708 1.5708 1.5708 1.5708 1.5708 1.5708 1.5708 1.5708 
1.5708 1.5708 1.5708 2.70908 2.71362 2.81592 2.68886 2.81002 2.92597 
2.6349 2.76254 2.89233 3.01997 2.55881 2.68262 2.80854 2.92834 3.01997 
2.47007 2.58462 2.70048 2.80854 2.89233 2.92597 2.37702 2.48017 2.58462 
2.68262 2.76254 2.81002 2.81592 2.28567 2.37702 2.47007 2.55881 2.6349 
2.68886 2.71362 2.70908 2.52097 2.4195 2.51718 2.30791 2.40503 2.49426 
2.18928 2.28408 2.3734 2.45144 2.06758 2.15805 2.24572 2.32523 2.39165 
1.94707 2.03138 2.11543 2.19453 2.26401 2.32035 1.83164 1.90847 1.98711 
2.06376 2.13422 2.1949 2.24359 1.72413 1.79288 1.86489 1.93728 2.00658 
2.06938 2.12312 2.16654 1.5708 1.50988 1.63171 1.44492 1.5708 1.69667 
1.37826 1.5059 1.63569 1.76333 1.31281 1.43962 1.5708 1.70197 1.82878 
1.25155 1.37501 1.50478 1.63681 1.76659 1.89004 1.19686 1.31493 1.44074 
1.5708 1.70086 1.82666 1.94473 1.15011 1.26149 1.38136 1.50697 1.63462 
1.76024 1.88011 1.99148 1.99148 1.88011 1.94473 1.76024 1.82666 1.89004 
1.63462 1.70086 1.76659 1.82878 1.50697 1.5708 1.63681 1.70197 1.76333 
1.38136 1.44074 1.50478 1.5708 1.63569 1.69667 1.26149 1.31493 1.37501 
1.43962 1.5059 1.5708 1.63171 1.15011 1.19686 1.25155 1.31281 1.37826 
1.44492 1.50988 1.5708 2.16654 2.12312 2.24359 2.06938 2.1949 2.32035 
2.00658 2.13422 2.26401 2.39165 1.93728 2.06376 2.19453 2.32523 2.45144 
1.86489 1.98711 2.11543 2.24572 2.3734 2.49426 1.79288 1.90847 2.03138 
2.15805 2.28408 2.40503 2.51718 1.72413 1.83164 1.94707 2.06758 2.18928 
2.30791 2.4195 2.52097 1.66533 1.66946 1.76911 1.67254 1.777 1.88041 
1.67418 1.78222 1.89102 1.99634 1.67418 1.78405 1.89674 2.00785 2.11299 
1.67254 1.78222 1.89674 2.01191 2.12307 2.22608 1.66946 1.777 1.89102 
2.00785 2.12307 2.23222 2.33166 1.66533 1.76911 1.88041 1.99634 2.11299 
2.22608 2.33166 2.42672 1.47626 1.37249 1.47213 1.26118 1.36459 1.46906 
1.14526 1.25058 1.35938 1.46741 1.0286 1.13374 1.24485 1.35755 1.46741 
0.915514 1.01852 1.12969 1.24485 1.35938 1.46906 0.809937 0.909371 1.01852 
1.13374 1.25058 1.36459 1.47213 0.714871 0.809937 0.915514 1.0286 1.14526 
1.26118 1.37249 1.47626 0.975055 0.898002 1.01847 0.821245 0.946693 1.07221 
0.749941 0.877585 1.00737 1.13501 0.690152 0.816367 0.94706 1.07784 1.20431 
0.647337 0.768195 0.895868 1.02616 1.15448 1.2767 0.624416 0.736561 0.857515 
0.983547 1.11021 1.23313 1.34871 0.620619 0.722093 0.833684 0.952313 1.07402 
1.19452 1.30996 1.41746 0.855925 0.764569 0.764569 0.671524 0.661425 0.671524 
0.582786 0.556971 0.556971 0.582786 0.506696 0.458968 0.441109 0.458968 0.506696 
0.45273 0.379052 0.333054 0.333054 0.379052 0.45273 0.427969 0.331576 0.249267 
0.21325 0.249267 0.331576 0.427969 0.432512 0.325669 0.215619 0.121622 0.121622 
0.215619 0.325669 0.432512 0.432512 0.427969 0.325669 0.45273 0.331576 0.215619 
0.506696 0.379052 0.249267 0.121622 0.582786 0.458968 0.333054 0.21325 0.121622 
0.671524 0.556971 0.441109 0.333054 0.249267 0.215619 0.764569 0.661425 0.556971 
0.458968 0.379052 0.331576 0.325669 0.855925 0.764569 0.671524 0.582786 0.506696 
0.45273 0.427969 0.432512 0.975055 1.01847 0.898002 1.07221 0.946693 0.821245 
1.13501 1.00737 0.877585 0.749941 1.20431 1.07784 0.94706 0.816367 0.690152 
1.2767 1.15448 1.02616 0.895868 0.768195 0.647337 1.34871 1.23313 1.11021 
0.983547 0.857515 0.736561 0.624416 1.41746 1.30996 1.19452 1.07402 0.952313 
0.833684 0.722093 0.620619 1.15011 1.26149 1.19686 1.38136 1.31493 1.25155 
1.50697 1.44074 1.37501 1.31281 1.63462 1.5708 1.50478 1.43962 1.37826 
1.76024 1.70086 1.63681 1.5708 1.5059 1.44492 1.88011 1.82666 1.76659 
1.70197 1.63569 1.5708 1.50988 1.99148 1.94473 1.89004 1.82878 1.76333 
1.69667 1.63171 1.5708 1.15011 1.19686 1.26149 1.25155 1.31493 1.38136 
1.31281 1.37501 1.44074 1.50697 1.37826 1.43962 1.50478 1.5708 1.63462 
1.44492 1.5059 1.5708 1.63681 1.70086 1.76024 1.50988 1.5708 1.63569 
1.70197 1.76659 1.82666 1.88011 1.5708 1.63171 1.69667 1.76333 1.82878 
1.89004 1.94473 1.99148 1.72413 1.83164 1.79288 1.94707 1.90847 1.86489 
2.06758 2.03138 1.98711 1.93728 2.18928 2.15805 2.11543 2.06376 2.00658 
2.30791 2.28408 2.24572 2.19453 2.13422 2.06938 2.4195 2.40503 2.3734 
2.32523 2.26401 2.1949 2.12312 2.52097 2.51718 2.49426 2.45144 2.39165 
2.32035 2.24359 2.16654 2.70908 2.81592 2.71362 2.92597 2.81002 2.68886 
3.01997 2.89233 2.76254 2.6349 3.01997 2.92834 2.80854 2.68262 2.55881 
2.92597 2.89233 2.80854 2.70048 2.58462 2.47007 2.81592 2.81002 2.76254 
2.68262 2.58462 2.48017 2.37702 2.70908 2.71362 2.68886 2.6349 2.55881 
2.47007 2.37702 2.28567 2.16654 2.24359 2.12312 2.32035 2.1949 2.06938 
2.39165 2.26401 2.13422 2.00658 2.45144 2.32523 2.19453 2.06376 1.93728 
2.49426 2.3734 2.24572 2.11543 1.98711 1.86489 2.51718 2.40503 2.28408 
2.15805 2.03138 1.90847 1.79288 2.52097 2.4195 2.30791 2.18928 2.06758 
1.94707 1.83164 1.72413 1.66533 1.76911 1.66946 1.88041 1.777 1.67254 
1.99634 1.89102 1.78222 1.67418 2.11299 2.00785 1.89674 1.78405 1.67418 
2.22608 2.12307 2.01191 1.89674 1.78222 1.67254 2.33166 2.23222 2.12307 
2.00785 1.89102 1.777 1.66946 2.42672 2.33166 2.22608 2.11299 1.99634 
1.88041 1.76911 1.66533 1.47626 1.47213 1.37249 1.46906 1.36459 1.26118 
1.46741 1.35938 1.25058 1.14526 1.46741 1.35755 1.24485 1.13374 1.0286 
1.46906 1.35938 1.24485 1.12969 1.01852 0.915514 1.47213 1.36459 1.25058 
1.13374 1.01852 0.909371 0.809937 1.47626 1.37249 1.26118 1.14526 1.0286 
0.915514 0.809937 0.714871 1.41746 1.30996 1.34871 1.19452 1.23313 1.2767 
1.07402 1.11021 1.15448 1.20431 0.952313 0.983547 1.02616 1.07784 1.13501 
0.833684 0.857515 0.895868 0.94706 1.00737 1.07221 0.722093 0.736561 0.768195 
0.816367 0.877585 0.946693 1.01847 0.620619 0.624416 0.647337 0.690152 0.749941 
0.821245 0.898002 0.975055 0.975055 0.898002 1.01847 0.821245 0.946693 1.07221 
0.749941 0.877585 1.00737 1.13501 0.690152 0.816367 0.94706 1.07784 1.20431 
0.647337 0.768195 0.895868 1.02616 1.15448 1.2767 0.624416 0.736561 0.857515 
0.983547 1.11021 1.23313 1.34871 0.620619 0.722093 0.833684 0.952313 1.07402 
1.19452 1.30996 1.41746 
Phi 1 1002 float
6.28319 3.14159 6.28319 3.14159 4.71239 4.71239 1.5708 1.5708 3.69517 
5.72961 2.58802 0.553574 6.28319 6.28319 6.28319 6.28319 3.14159 3.14159 
3.14159 3.14159 3.14159 6.1053 5.8988 5.67687 5.45995 5.26596 5.10322 
4.97131 4.86569 4.78095 0.177881 0.384387 0.606312 0.823235 1.01722 1.17997 
1.31187 1.4175 1.50223 6.18928 6.10703 6.03531 5.97283 5.91832 5.87061 
5.82869 5.79168 5.75886 0.0939024 0.176153 0.247873 0.310351 0.364864 0.412573 
0.454497 0.491504 0.524326 3.31947 3.52598 3.7479 3.96483 4.15881 4.32156 
4.45346 4.55909 4.64383 2.96371 2.75721 2.53528 2.31836 2.12437 1.96162 
1.82972 1.72409 1.63936 3.2355 3.31775 3.38947 3.45194 3.50646 3.55417 
3.59609 3.6331 3.66592 3.04769 2.96544 2.89372 2.83124 2.77673 2.72902 
2.6871 2.65009 2.61727 6.28319 6.28319 6.28319 6.28319 3.14159 3.14159 
3.14159 3.14159 3.14159 6.1053 5.8988 5.67687 5.45995 5.26596 5.10322 
4.97131 4.86569 4.78095 0.177881 0.384387 0.606312 0.823235 1.01722 1.17997 
1.31187 1.4175 1.50223 6.18928 6.10703 6.03531 5.97283 5.91832 5.87061 
5.82869 5.79168 5.75886 0.0939024 0.176153 0.247873 0.310351 0.364864 0.412573 
0.454497 0.491504 0.524326 3.31947 3.52598 3.7479 3.96483 4.15881 4.32156 
4.45346 4.55909 4.64383 2.96371 2.75721 2.53528 2.31836 2.12437 1.96162 
1.82972 1.72409 1.63936 3.2355 3.31775 3.38947 3.45194 3.50646 3.55417 
3.59609 3.6331 3.66592 3.04769 2.96544 2.89372 2.83124 2.77673 2.72902 
2.6871 2.65009 2.61727 4.71239 4.71239 4.71239 4.71239 4.71239 4.71239 
4.71239 4.71239 4.71239 4.60879 4.49914 4.3857 4.27128 4.15881 4.05096 
3.94976 3.85646 3.77161 4.81599 4.92564 5.03907 5.1535 5.26596 5.37381 
5.47502 5.56831 5.65317 4.60879 4.49914 4.3857 4.27128 4.15881 4.05096 
3.94976 3.85646 3.77161 4.81599 4.92564 5.03907 5.1535 5.26596 5.37381 
5.47502 5.56831 5.65317 1.5708 1.5708 1.5708 1.5708 1.5708 1.5708 
1.5708 1.5708 1.5708 1.6744 1.78405 1.89748 2.01191 2.12437 2.23222 
2.33343 2.42672 2.51157 1.4672 1.35755 1.24411 1.12969 1.01722 0.909371 
0.808166 0.714871 0.63002 1.6744 1.78405 1.89748 2.01191 2.12437 2.23222 
2.33343 2.42672 2.51157 1.4672 1.35755 1.24411 1.12969 1.01722 0.909371 
0.808166 0.714871 0.63002 3.60077 3.49669 3.38395 3.26458 3.14159 3.01861 
2.89924 2.78649 2.68241 5.82401 5.92808 6.04083 6.1602 6.28319 0.122983 
0.242354 0.355101 0.459179 6.05603 5.78856 5.97021 5.51259 5.60297 5.78856 
5.26596 5.26596 5.26596 5.26596 5.06749 5.0121 4.91556 4.71239 4.15881 
4.91556 4.83537 4.71239 4.50922 4.15881 3.63622 4.80045 4.71239 4.58941 
4.41268 4.15881 3.82181 3.45456 4.71239 4.62433 4.50922 4.35729 4.15881 
3.91219 3.63622 3.36875 6.01742 5.94343 5.82633 5.88092 5.76745 5.62798 
5.8278 5.71897 5.58911 5.43724 5.78235 5.67854 5.55757 5.41926 5.26596 
5.74316 5.64441 5.5315 5.40467 5.26596 5.11955 5.70914 5.61528 5.50962 
5.3926 5.26596 5.13292 4.99789 5.67937 5.59016 5.49102 5.38246 5.26596 
5.14407 5.02016 4.89798 5.56831 5.47502 5.47502 5.37381 5.37381 5.37381 
5.26596 5.26596 5.26596 5.26596 5.1535 5.1535 5.1535 5.1535 5.1535 
5.03907 5.03907 5.03907 5.03907 5.03907 5.03907 4.92564 4.92564 4.92564 
4.92564 4.92564 4.92564 4.92564 4.81599 4.81599 4.81599 4.81599 4.81599 
4.81599 4.81599 4.81599 4.60879 4.60879 4.49914 4.60879 4.49914 4.3857 
4.60879 4.49914 4.3857 4.27128 4.60879 4.49914 4.3857 4.27128 4.15881 
4.60879 4.49914 4.3857 4.27128 4.15881 4.05096 4.60879 4.49914 4.3857 
4.27128 4.15881 4.05096 3.94976 4.60879 4.49914 4.3857 4.27128 4.15881 
4.05096 3.94976 3.85646 4.5268 4.40462 4.42689 4.28071 4.29185 4.30523 
4.15881 4.15881 4.15881 4.15881 4.04232 4.03217 4.02011 4.00552 3.98753 
3.93376 3.91515 3.89328 3.86721 3.83566 3.7968 3.83461 3.8095 3.78037 
3.74624 3.70581 3.65733 3.59845 3.7454 3.71564 3.68161 3.64243 3.59698 
3.54386 3.48135 3.40735 3.56428 3.45246 3.52338 3.33203 3.40312 3.47739 
3.20576 3.27463 3.34802 3.42551 3.07742 3.14159 3.21128 3.28647 3.36688 
2.95116 3.00855 3.0719 3.14159 3.21784 3.3006 2.83072 2.88006 2.93517 
2.99672 3.06535 3.14159 3.22575 2.7189 2.7598 2.8058 2.85768 2.9163 
2.98259 3.05743 3.14159 3.56428 3.52338 3.45246 3.47739 3.40312 3.33203 
3.42551 3.34802 3.27463 3.20576 3.36688 3.28647 3.21128 3.14159 3.07742 
3.3006 3.21784 3.14159 3.0719 3.00855 2.95116 3.22575 3.14159 3.06535 
2.99672 2.93517 2.88006 2.83072 3.14159 3.05743 2.98259 2.9163 2.85768 
2.8058 2.7598 2.7189 4.5268 4.42689 4.40462 4.30523 4.29185 4.28071 
4.15881 4.15881 4.15881 4.15881 3.98753 4.00552 4.02011 4.03217 4.04232 
3.7968 3.83566 3.86721 3.89328 3.91515 3.93376 3.59845 3.65733 3.70581 
3.74624 3.78037 3.8095 3.83461 3.40735 3.48135 3.54386 3.59698 3.64243 
3.68161 3.71564 3.7454 4.71239 4.80045 4.62433 4.91556 4.71239 4.50922 
5.06749 4.83537 4.58941 4.35729 5.26596 5.0121 4.71239 4.41268 4.15881 
5.51259 5.26596 4.91556 4.50922 4.15881 3.91219 5.78856 5.60297 5.26596 
4.71239 4.15881 3.82181 3.63622 6.05603 5.97021 5.78856 5.26596 4.15881 
3.63622 3.45456 3.36875 0.227158 0.494626 0.312971 0.770593 0.680215 0.494626 
1.01722 1.01722 1.01722 1.01722 1.2157 1.27109 1.36763 1.5708 2.12437 
1.36763 1.44781 1.5708 1.77397 2.12437 2.64697 1.48273 1.5708 1.69378 
1.8705 2.12437 2.46138 2.82862 1.5708 1.65886 1.77397 1.9259 2.12437 
2.371 2.64697 2.91443 1.75639 1.87857 1.8563 2.00248 1.99133 1.97796 
2.12437 2.12437 2.12437 2.12437 2.24087 2.25101 2.26308 2.27767 2.29565 
2.34943 2.36803 2.38991 2.41597 2.44752 2.48639 2.44857 2.47368 2.50281 
2.53694 2.57738 2.62586 2.68474 2.53778 2.56754 2.60157 2.64076 2.68621 
2.73933 2.80184 2.87583 1.6744 1.6744 1.78405 1.6744 1.78405 1.89748 
1.6744 1.78405 1.89748 2.01191 1.6744 1.78405 1.89748 2.01191 2.12437 
1.6744 1.78405 1.89748 2.01191 2.12437 2.23222 1.6744 1.78405 1.89748 
2.01191 2.12437 2.23222 2.33343 1.6744 1.78405 1.89748 2.01191 2.12437 
2.23222 2.33343 2.42672 1.4672 1.35755 1.4672 1.24411 1.35755 1.4672 
1.12969 1.24411 1.35755 1.4672 1.01722 1.12969 1.24411 1.35755 1.4672 
0.909371 1.01722 1.12969 1.24411 1.35755 1.4672 0.808166 0.909371 1.01722 
1.12969 1.24411 1.35755 1.4672 0.714871 0.808166 0.909371 1.01722 1.12969 
1.24411 1.35755 1.4672 0.603812 0.57405 0.693022 0.540021 0.667908 0.792164 
0.500837 0.638778 0.773562 0.900726 0.455383 0.604649 0.751687 0.890581 1.01722 
0.402264 0.564217 0.725619 0.878514 1.01722 1.13912 0.339753 0.515737 0.694072 
0.863926 1.01722 1.15026 1.26302 0.265762 0.456853 0.655207 0.845941 1.01722 
1.16363 1.28529 1.38521 0.227158 0.312971 0.494626 0.494626 0.680215 0.770593 
1.01722 1.01722 1.01722 1.01722 2.12437 1.5708 1.36763 1.27109 1.2157 
2.64697 2.12437 1.77397 1.5708 1.44781 1.36763 2.82862 2.46138 2.12437 
1.8705 1.69378 1.5708 1.48273 2.91443 2.64697 2.371 2.12437 1.9259 
1.77397 1.65886 1.5708 1.75639 1.8563 1.87857 1.97796 1.99133 2.00248 
2.12437 2.12437 2.12437 2.12437 2.29565 2.27767 2.26308 2.25101 2.24087 
2.48639 2.44752 2.41597 2.38991 2.36803 2.34943 2.68474 2.62586 2.57738 
2.53694 2.50281 2.47368 2.44857 2.87583 2.80184 2.73933 2.68621 2.64076 
2.60157 2.56754 2.53778 5.86049 5.90139 5.97231 5.94739 6.02165 6.09275 
5.99927 6.07676 6.15015 6.21902 6.0579 6.13831 6.2135 0 0.0641696 
6.12418 6.20694 6.28319 0.069689 0.13304 0.190437 6.19903 0 0.0762451 
0.144876 0.206423 0.261531 0.310872 0 0.0841597 0.159004 0.225289 0.283913 
0.335793 0.381792 0.422692 5.86049 5.97231 5.90139 6.09275 6.02165 5.94739 
6.21902 6.15015 6.07676 5.99927 0.0641696 0 6.2135 6.13831 6.0579 
0.190437 0.13304 0.069689 6.28319 6.20694 6.12418 0.310872 0.261531 0.206423 
0.144876 0.0762451 6.28319 6.19903 0.422692 0.381792 0.335793 0.283913 0.225289 
0.159004 0.0841597 0 5.67937 5.70914 5.59016 5.74316 5.61528 5.49102 
5.78235 5.64441 5.50962 5.38246 5.8278 5.67854 5.5315 5.3926 5.26596 
5.88092 5.71897 5.55757 5.40467 5.26596 5.14407 5.94343 5.76745 5.58911 
5.41926 5.26596 5.13292 5.02016 6.01742 5.82633 5.62798 5.43724 5.26596 
5.11955 4.99789 4.89798 1.38521 1.28529 1.26302 1.16363 1.15026 1.13912 
1.01722 1.01722 1.01722 1.01722 0.845941 0.863926 0.878514 0.890581 0.900726 
0.655207 0.694072 0.725619 0.751687 0.773562 0.792164 0.456853 0.515737 0.564217 
0.604649 0.638778 0.667908 0.693022 0.265762 0.339753 0.402264 0.455383 0.500837 
0.540021 0.57405 0.603812 
