# vtk DataFile Version 4.0
vtk output
ASCII
DATASET POLYDATA
POINTS 1002 float
-86.0287 -98.7765 72.7433 -81.2492 -105.235 72.7156 -80.093 -94.3834 71.5237 
-76.0732 -102.058 71.6231 -81.46 -100.635 77.2505 -79.361 -99.0775 76.2897 
-83.7954 -101.668 67.7768 -79.843 -99.3267 67.6326 -76.4175 -107.403 75.637 
-84.2505 -93.7531 75.6134 -76.8759 -106.879 68.7051 -86.2448 -94.2201 69.6715 
-85.5258 -99.1637 72.5945 -84.9659 -99.594 72.4749 -84.4453 -100.24 72.4862 
-84.0488 -101.121 72.65 -83.6186 -101.938 72.7884 -82.9419 -102.483 72.7871 
-82.2386 -103.043 72.7624 -81.828 -103.844 72.7767 -81.5906 -104.658 72.7662 
-85.4484 -98.6933 72.9852 -84.9417 -98.7167 73.291 -84.5434 -98.9528 73.8445 
-84.1796 -99.3494 74.5981 -83.858 -99.7303 75.2905 -83.4706 -99.9003 75.8342 
-82.827 -99.8575 76.2451 -82.128 -99.8878 76.5407 -81.6887 -100.189 76.8557 
-86.3 -99.1376 72.354 -86.4748 -99.4859 71.9286 -86.5004 -99.8229 71.4653 
-86.4123 -100.178 70.8627 -86.1112 -100.437 70.2309 -85.4999 -100.582 69.7292 
-84.8485 -100.807 69.1745 -84.4352 -101.143 68.5189 -84.1514 -101.449 68.027 
-86.1483 -98.2965 73.0447 -86.2366 -97.8187 73.3103 -86.14 -97.2675 73.516 
-85.8596 -96.5199 73.7126 -85.6395 -95.7316 73.9866 -85.49 -95.1495 74.3379 
-85.2158 -94.7117 74.6961 -84.8834 -94.3029 75.0315 -84.598 -93.9759 75.3442 
-86.6303 -98.465 72.6444 -87.0671 -97.8859 72.4847 -87.3651 -97.2141 72.2429 
-87.7044 -96.6825 71.8344 -87.9534 -96.1784 71.3274 -87.7897 -95.5535 70.9297 
-87.3785 -94.9316 70.5571 -87.0565 -94.4497 70.0863 -86.7393 -94.1978 69.7351 
-81.1774 -104.932 73.1795 -81.0521 -104.472 73.5801 -81.0726 -104.071 74.1041 
-81.3094 -103.811 74.8864 -81.5472 -103.41 75.5684 -81.5734 -102.757 75.8904 
-81.4635 -102.147 76.1903 -81.3948 -101.67 76.6258 -81.4072 -101.164 76.9921 
-81.483 -105.084 72.2255 -81.6266 -104.779 71.6923 -81.7414 -104.372 71.0902 
-81.8736 -103.896 70.4345 -82.0686 -103.391 69.8843 -82.515 -103.039 69.4031 
-83.1733 -102.903 68.7814 -83.6452 -102.716 68.1766 -83.7794 -102.266 67.8685 
-80.736 -105.51 72.9885 -80.1205 -105.725 73.2989 -79.4871 -105.94 73.5673 
-78.8913 -106.219 73.7538 -78.4126 -106.631 74.0267 -78.1351 -107.157 74.5372 
-77.922 -107.638 75.1179 -77.4961 -107.877 75.5172 -76.8907 -107.78 75.6698 
-80.8552 -105.553 72.3263 -80.2537 -105.752 71.8758 -79.6477 -105.961 71.4195 
-79.213 -106.325 70.9567 -78.9441 -106.886 70.4086 -78.7149 -107.404 69.8179 
-78.3886 -107.573 69.4189 -77.9256 -107.421 69.2434 -77.393 -107.16 69.0449 
-79.5456 -94.6828 71.4812 -79.156 -95.3493 71.4503 -78.8584 -96.317 71.4557 
-78.5037 -97.2918 71.5089 -78.0533 -98.2095 71.5152 -77.5338 -99.0158 71.4201 
-76.9979 -99.6266 71.3499 -76.5795 -100.316 71.4003 -76.3127 -101.22 71.5142 
-79.9231 -94.5376 72.0831 -80.0098 -94.9709 72.5791 -80.1349 -95.5437 72.9194 
-79.9872 -95.9958 73.3505 -79.6111 -96.2577 74.1053 -79.2693 -96.541 74.9045 
-79.1186 -97.0879 75.404 -79.1845 -97.8518 75.6901 -79.3261 -98.5622 75.971 
-80.0601 -94.5753 70.9541 -80.0922 -94.9909 70.5247 -80.1181 -95.544 70.274 
-80.1243 -96.1185 69.91 -80.1241 -96.7191 69.3944 -80.1213 -97.3601 68.998 
-80.1018 -97.9609 68.6572 -80.0354 -98.4827 68.244 -79.9358 -98.941 67.8864 
-80.5698 -94.2173 71.8779 -81.0544 -93.9106 72.1819 -81.5181 -93.5032 72.5415 
-82.0731 -93.3659 73.041 -82.5935 -93.4531 73.6074 -82.8366 -93.3021 74.2051 
-83.0319 -93.0211 74.8188 -83.4658 -93.0434 75.2986 -83.9537 -93.3602 75.5429 
-80.7639 -94.2819 71.2707 -81.553 -94.1105 71.0644 -82.1893 -93.743 70.7623 
-82.6632 -93.3014 70.3364 -83.2907 -92.9559 69.9991 -84.0579 -92.7818 69.871 
-84.6658 -92.8983 69.8259 -85.1833 -93.3016 69.7524 -85.7572 -93.7818 69.6787 
-76.1368 -101.652 72.0714 -76.3503 -101.238 72.5442 -76.566 -100.823 73.1555 
-76.7108 -100.447 73.8391 -77.078 -100.253 74.3574 -77.7049 -100.155 74.7427 
-78.2281 -99.9163 75.187 -78.6233 -99.6025 75.6066 -79.0362 -99.3451 75.9278 
-76.2564 -101.954 71.0405 -76.3371 -101.659 70.4163 -76.3303 -101.174 69.835 
-76.604 -100.797 69.3578 -77.2398 -100.675 69.0447 -77.8209 -100.515 68.7655 
-78.1983 -100.12 68.3183 -78.6066 -99.6926 67.8475 -79.1746 -99.4371 67.6256 
-75.8161 -102.532 71.9999 -75.6871 -103.075 72.2979 -75.7497 -103.733 72.5103 
-75.8726 -104.431 72.8094 -75.9779 -105.129 73.2939 -76.1122 -105.779 73.8091 
-76.1737 -106.298 74.3 -76.1021 -106.751 74.8408 -76.122 -107.166 75.3343 
-75.8535 -102.657 71.3508 -75.475 -103.09 70.9504 -75.0498 -103.575 70.4714 
-74.9111 -104.344 70.1024 -75.1769 -105.189 69.871 -75.5215 -105.794 69.5248 
-75.7034 -106.215 69.0315 -75.8941 -106.566 68.6981 -76.3003 -106.798 68.6468 
-81.3021 -100.56 77.6375 -81.0126 -100.413 78.0572 -80.7398 -100.256 78.5527 
-80.5261 -100.062 78.8336 -80.1919 -99.7591 78.6129 -79.7504 -99.4456 78.1776 
-79.4595 -99.2551 77.8173 -79.3995 -99.1726 77.3836 -79.4178 -99.1321 76.8175 
-81.234 -101.451 77.56 -80.8623 -102.183 77.7672 -80.2364 -102.668 77.6361 
-79.5444 -103.219 77.4085 -79.0047 -104.083 77.3881 -78.613 -104.839 77.2209 
-78.1636 -105.33 76.6302 -77.5301 -106.011 76.06 -76.8808 -106.859 75.8065 
-81.7749 -99.9661 77.361 -82.3662 -99.5456 77.664 -83.0644 -99.0846 77.9039 
-83.6473 -98.2032 77.9571 -84.0127 -97.1256 77.8559 -84.098 -96.3156 77.3863 
-84.0074 -95.7043 76.6024 -83.9898 -95.0178 76.028 -84.1104 -94.3058 75.806 
-79.0477 -99.6701 76.3907 -78.5656 -100.313 76.5453 -78.2243 -101.137 76.5754 
-78.0729 -102.037 76.4007 -77.7312 -102.824 76.3751 -77.192 -103.562 76.5757 
-76.808 -104.44 76.4612 -76.5791 -105.498 75.9993 -76.4168 -106.566 75.6983 
-79.5119 -98.3868 76.5769 -79.5976 -97.5449 76.8493 -79.9771 -96.8621 76.8655 
-80.6956 -96.4288 76.7372 -81.3876 -95.8902 76.6888 -81.9134 -95.15 76.5541 
-82.4232 -94.5356 76.2805 -83.0157 -94.1538 76.0859 -83.6698 -93.8998 75.9257 
-83.5327 -101.416 67.5917 -83.2497 -101.197 67.2417 -83.019 -100.983 66.8524 
-82.7658 -100.649 66.7495 -82.2561 -100.175 66.8037 -81.5401 -99.767 66.7368 
-80.9622 -99.5981 66.8073 -80.586 -99.5611 67.1566 -80.2269 -99.4784 67.4787 
-83.2746 -102.202 67.6416 -82.5093 -102.665 67.5571 -81.5907 -103.14 67.5819 
-80.8187 -103.77 67.6069 -80.2301 -104.537 67.5409 -79.5648 -105.312 67.5176 
-78.8006 -105.971 67.6471 -78.0793 -106.404 67.9383 -77.43 -106.648 68.34 
-84.1815 -100.956 67.7687 -84.7848 -100.394 67.6619 -85.2706 -99.9379 67.7022 
-85.3633 -99.1819 68.0989 -85.4989 -98.0832 68.5368 -85.9011 -97.1484 68.8091 
-86.1303 -96.5283 69.196 -86.1447 -95.8877 69.6252 -86.2063 -95.0769 69.7623 
-79.3446 -99.7673 67.38 -78.9487 -100.489 67.2596 -78.6252 -101.544 67.2971 
-78.2045 -102.518 67.3418 -77.7113 -103.26 67.3866 -77.2878 -104.226 67.4714 
-76.9391 -105.368 67.4954 -76.7197 -106.123 67.6217 -76.721 -106.496 68.0871 
-80.6065 -98.9653 67.8047 -81.2853 -98.3628 67.8075 -81.8094 -97.6578 67.7219 
-82.422 -97.1243 67.8309 -83.2101 -96.6321 68.1302 -83.8335 -96.1298 68.5606 
-84.2548 -95.8607 69.1975 -84.8293 -95.5828 69.7297 -85.582 -94.9581 69.8174 
-76.3007 -107.804 75.3169 -76.2036 -108.002 74.4973 -76.1023 -108.539 73.4372 
-76.0669 -109.267 72.7545 -76.0841 -109.358 72.1436 -76.1132 -108.965 70.9722 
-76.2461 -108.689 69.8393 -76.484 -108.25 69.375 -76.6987 -107.502 69.1464 
-84.586 -93.4915 75.0082 -84.7859 -93.283 74.1366 -84.9339 -92.9571 73.315 
-85.186 -92.5648 72.6879 -85.4727 -92.4406 72.1441 -85.7099 -92.6292 71.5477 
-86.0144 -92.7687 70.7815 -86.3437 -92.8861 70.0166 -86.4482 -93.3701 69.6368 
-84.9483 -99.132 72.8845 -84.5071 -99.3167 73.3192 -84.4983 -99.7724 72.8955 
-84.1291 -99.679 73.9548 -84.1031 -100.097 73.4668 -84.0836 -100.593 73.0798 
-83.731 -100.022 74.6546 -83.6137 -100.353 74.0303 -83.608 -100.852 73.6552 
-83.6452 -101.421 73.2795 -83.3083 -100.226 75.2996 -83.0956 -100.523 74.6132 
-82.9651 -100.943 74.046 -83.0113 -101.508 73.6846 -83.0538 -102.056 73.2735 
-82.7178 -100.273 75.8123 -82.6557 -100.729 75.3239 -82.5068 -101.177 74.6594 
-82.3551 -101.62 74.018 -82.3251 -102.085 73.552 -82.3129 -102.585 73.1674 
-82.026 -100.334 76.1439 -82.1678 -100.942 75.8763 -82.2938 -101.582 75.4859 
-82.1102 -102.066 74.7878 -81.793 -102.367 74.0129 -81.6622 -102.748 73.4914 
-81.7286 -103.313 73.1556 -81.5786 -100.65 76.4898 -81.6949 -101.229 76.2011 
-81.9597 -101.897 75.9627 -82.0162 -102.551 75.5885 -81.6988 -102.962 74.8759 
-81.3329 -103.2 74.0707 -81.2609 -103.615 73.5445 -81.4314 -104.196 73.1881 
-85.591 -98.3151 73.2783 -85.6939 -97.9763 73.6002 -85.098 -98.3864 73.6751 
-85.5897 -97.4672 73.9826 -85.1824 -98.0289 74.1563 -84.6362 -98.5708 74.3602 
-85.4044 -96.7367 74.3879 -85.0971 -97.4695 74.6514 -84.6143 -98.0637 74.8234 
-84.1988 -98.9191 75.0943 -85.3609 -96.0939 74.7372 -85.0227 -96.8764 75.0498 
-84.493 -97.4872 75.1894 -84.1042 -98.3606 75.4266 -83.9023 -99.3237 75.7394 
-85.239 -95.5953 75.0401 -84.9793 -96.4293 75.3702 -84.4315 -97.0566 75.6205 
-84.0073 -97.8545 75.8928 -83.8843 -98.8509 76.2523 -83.5586 -99.5256 76.3931 
-84.8688 -95.0589 75.3438 -84.7259 -95.9245 75.6838 -84.3908 -96.649 76.1318 
-84.0575 -97.4179 76.5917 -83.9189 -98.4051 76.9944 -83.6551 -99.1888 77.1431 
-82.9407 -99.5474 76.8911 -84.4652 -94.587 75.613 -84.3351 -95.3752 75.9284 
-84.2482 -96.1265 76.507 -84.1671 -96.8701 77.1618 -84.0309 -97.843 77.5953 
-83.7234 -98.8184 77.7561 -83.0822 -99.3627 77.568 -82.269 -99.669 77.1428 
-83.61 -94.6276 76.0083 -83.0614 -95.0169 76.2403 -83.6245 -95.372 76.3872 
-82.4042 -95.4153 76.6489 -83.071 -95.6823 76.8987 -83.714 -95.9124 77.2416 
-81.7392 -95.9594 76.9728 -82.2198 -96.0048 77.3936 -82.9236 -96.0986 77.8085 
-83.6378 -96.4663 77.9374 -81.1239 -96.5892 77.0671 -81.4971 -96.5979 77.5567 
-81.9011 -96.5286 78.0863 -82.5498 -96.7728 78.2051 -83.2437 -97.448 78.0429 
-80.3877 -97.0819 77.2623 -80.9076 -97.2718 77.6372 -81.2955 -97.2826 78.1132 
-81.6392 -97.4017 78.3927 -82.1519 -97.9285 78.2272 -82.7037 -98.6154 78.0057 
-79.7641 -97.6246 77.4355 -80.1715 -97.8015 77.8352 -80.7306 -97.963 78.1288 
-81.188 -98.1363 78.4925 -81.501 -98.5156 78.6279 -81.8103 -99.0289 78.3477 
[...]
POINT_DATA 1002
FIELD FieldData 2
Theta 1 1002 float
2.58802 2.58802 0.553574 0.553574 2.12437 1.01722 2.12437 1.01722 1.5708 
1.5708 1.5708 1.5708 2.68241 2.78649 2.89924 3.01861 3.14159 3.01861 
2.89924 2.78649 2.68241 2.61035 2.61791 2.60515 2.56958 2.51327 2.44184 
2.36202 2.27983 2.1997 2.61035 2.61791 2.60515 2.56958 2.51327 2.44184 
2.36202 2.27983 2.1997 2.50947 2.41899 2.31794 2.20864 2.0944 1.97902 
1.86631 1.75944 1.66056 2.50947 2.41899 2.31794 2.20864 2.0944 1.97902 
1.86631 1.75944 1.66056 2.61035 2.61791 2.60515 2.56958 2.51327 2.44184 
2.36202 2.27983 2.1997 2.61035 2.61791 2.60515 2.56958 2.51327 2.44184 
2.36202 2.27983 2.1997 2.50947 2.41899 2.31794 2.20864 2.0944 1.97902 
1.86631 1.75944 1.66056 2.50947 2.41899 2.31794 2.20864 2.0944 1.97902 
1.86631 1.75944 1.66056 0.459179 0.355101 0.242354 0.122983 0 0.122983 
0.242354 0.355101 0.459179 0.531246 0.523681 0.536438 0.57201 0.628319 0.699757 
0.779574 0.86176 0.941896 0.531246 0.523681 0.536438 0.57201 0.628319 0.699757 
0.779574 0.86176 0.941896 0.632123 0.7226 0.823657 0.932948 1.0472 1.16257 
1.27528 1.38216 1.48103 0.632123 0.7226 0.823657 0.932948 1.0472 1.16257 
1.27528 1.38216 1.48103 0.531246 0.523681 0.536438 0.57201 0.628319 0.699757 
0.779574 0.86176 0.941896 0.531246 0.523681 0.536438 0.57201 0.628319 0.699757 
0.779574 0.86176 0.941896 0.632123 0.7226 0.823657 0.932948 1.0472 1.16257 
1.27528 1.38216 1.48103 0.632123 0.7226 0.823657 0.932948 1.0472 1.16257 
1.27528 1.38216 1.48103 2.02998 1.9259 1.81315 1.69378 1.5708 1.44781 
1.32844 1.2157 1.11162 2.0928 2.05283 2.00422 1.94767 1.88496 1.81867 
1.75177 1.68695 1.62623 2.0928 2.05283 2.00422 1.94767 1.88496 1.81867 
1.75177 1.68695 1.62623 1.0488 1.08876 1.13737 1.19392 1.25664 1.32292 
1.38982 1.45464 1.51537 1.0488 1.08876 1.13737 1.19392 1.25664 1.32292 
1.38982 1.45464 1.51537 2.02998 1.9259 1.81315 1.69378 1.5708 1.44781 
1.32844 1.2157 1.11162 2.0928 2.05283 2.00422 1.94767 1.88496 1.81867 
1.75177 1.68695 1.62623 2.0928 2.05283 2.00422 1.94767 1.88496 1.81867 
1.75177 1.68695 1.62623 1.0488 1.08876 1.13737 1.19392 1.25664 1.32292 
1.38982 1.45464 1.51537 1.0488 1.08876 1.13737 1.19392 1.25664 1.32292 
1.38982 1.45464 1.51537 1.5708 1.5708 1.5708 1.5708 1.5708 1.5708 
1.5708 1.5708 1.5708 1.5708 1.5708 1.5708 1.5708 1.5708 1.5708 
1.5708 1.5708 1.5708 2.70908 2.71362 2.81592 2.68886 2.81002 2.92597 
2.6349 2.76254 2.89233 3.01997 2.55881 2.68262 2.80854 2.92834 3.01997 
2.47007 2.58462 2.70048 2.80854 2.89233 2.92597 2.37702 2.48017 2.58462 
2.68262 2.76254 2.81002 2.81592 2.28567 2.37702 2.47007 2.55881 2.6349 
2.68886 2.71362 2.70908 2.52097 2.4195 2.51718 2.30791 2.40503 2.49426 
2.18928 2.28408 2.3734 2.45144 2.06758 2.15805 2.24572 2.32523 2.39165 
1.94707 2.03138 2.11543 2.19453 2.26401 2.32035 1.83164 1.90847 1.98711 
2.06376 2.13422 2.1949 2.24359 1.72413 1.79288 1.86489 1.93728 2.00658 
2.06938 2.12312 2.16654 1.5708 1.50988 1.63171 1.44492 1.5708 1.69667 
1.37826 1.5059 1.63569 1.76333 1.31281 1.43962 1.5708 1.70197 1.82878 
1.25155 1.37501 1.50478 1.63681 1.76659 1.89004 1.19686 1.31493 1.44074 
1.5708 1.70086 1.82666 1.94473 1.15011 1.26149 1.38136 1.50697 1.63462 
1.76024 1.88011 1.99148 1.99148 1.88011 1.94473 1.76024 1.82666 1.89004 
1.63462 1.70086 1.76659 1.82878 1.50697 1.5708 1.63681 1.70197 1.76333 
1.38136 1.44074 1.50478 1.5708 1.63569 1.69667 1.26149 1.31493 1.37501 
1.43962 1.5059 1.5708 1.63171 1.15011 1.19686 1.25155 1.31281 1.37826 
1.44492 1.50988 1.5708 2.16654 2.12312 2.24359 2.06938 2.1949 2.32035 
2.00658 2.13422 2.26401 2.39165 1.93728 2.06376 2.19453 2.32523 2.45144 
1.86489 1.98711 2.11543 2.24572 2.3734 2.49426 1.79288 1.90847 2.03138 
2.15805 2.28408 2.40503 2.51718 1.72413 1.83164 1.94707 2.06758 2.18928 
2.30791 2.4195 2.52097 1.66533 1.66946 1.76911 1.67254 1.777 1.88041 
1.67418 1.78222 1.89102 1.99634 1.67418 1.78405 1.89674 2.00785 2.11299 
1.67254 1.78222 1.89674 2.01191 2.12307 2.22608 1.66946 1.777 1.89102 
2.00785 2.12307 2.23222 2.33166 1.66533 1.76911 1.88041 1.99634 2.11299 
2.22608 2.33166 2.42672 1.47626 1.37249 1.47213 1.26118 1.36459 1.46906 
1.14526 1.25058 1.35938 1.46741 1.0286 1.13374 1.24485 1.35755 1.46741 
0.915514 1.01852 1.12969 1.24485 1.35938 1.46906 0.809937 0.909371 1.01852 
1.13374 1.25058 1.36459 1.47213 0.714871 0.809937 0.915514 1.0286 1.14526 
1.26118 1.37249 1.47626 0.975055 0.898002 1.01847 0.821245 0.946693 1.07221 
0.749941 0.877585 1.00737 1.13501 0.690152 0.816367 0.94706 1.07784 1.20431 
0.647337 0.768195 0.895868 1.02616 1.15448 1.2767 0.624416 0.736561 0.857515 
0.983547 1.11021 1.23313 1.34871 0.620619 0.722093 0.833684 0.952313 1.07402 
1.19452 1.30996 1.41746 0.855925 0.764569 0.764569 0.671524 0.661425 0.671524 
0.582786 0.556971 0.556971 0.582786 0.506696 0.458968 0.441109 0.458968 0.506696 
0.45273 0.379052 0.333054 0.333054 0.379052 0.45273 0.427969 0.331576 0.249267 
0.21325 0.249267 0.331576 0.427969 0.432512 0.325669 0.215619 0.121622 0.121622 
0.215619 0.325669 0.432512 0.432512 0.427969 0.325669 0.45273 0.331576 0.215619 
0.506696 0.379052 0.249267 0.121622 0.582786 0.458968 0.333054 0.21325 0.121622 
0.671524 0.556971 0.441109 0.333054 0.249267 0.215619 0.764569 0.661425 0.556971 
0.458968 0.379052 0.331576 0.325669 0.855925 0.764569 0.671524 0.582786 0.506696 
0.45273 0.427969 0.432512 0.975055 1.01847 0.898002 1.07221 0.946693 0.821245 
1.13501 1.00737 0.877585 0.749941 1.20431 1.07784 0.94706 0.816367 0.690152 
1.2767 1.15448 1.02616 0.895868 0.768195 0.647337 1.34871 1.23313 1.11021 
0.983547 0.857515 0.736561 0.624416 1.41746 1.30996 1.19452 1.07402 0.952313 
0.833684 0.722093 0.620619 1.15011 1.26149 1.19686 1.38136 1.31493 1.25155 
1.50697 1.44074 1.37501 1.31281 1.63462 1.5708 1.50478 1.43962 1.37826 
1.76024 1.70086 1.63681 1.5708 1.5059 1.44492 1.88011 1.82666 1.76659 
1.70197 1.63569 1.5708 1.50988 1.99148 1.94473 1.89004 1.82878 1.76333 
1.69667 1.63171 1.5708 1.15011 1.19686 1.26149 1.25155 1.31493 1.38136 
1.31281 1.37501 1.44074 1.50697 1.37826 1.43962 1.50478 1.5708 1.63462 
1.44492 1.5059 1.5708 1.63681 1.70086 1.76024 1.50988 1.5708 1.63569 
1.70197 1.76659 1.82666 1.88011 1.5708 1.63171 1.69667 1.76333 1.82878 
1.89004 1.94473 1.99148 1.72413 1.83164 1.79288 1.94707 1.90847 1.86489 
2.06758 2.03138 1.98711 1.93728 2.18928 2.15805 2.11543 2.06376 2.00658 
2.30791 2.28408 2.24572 2.19453 2.13422 2.06938 2.4195 2.40503 2.3734 
2.32523 2.26401 2.1949 2.12312 2.52097 2.51718 2.49426 2.45144 2.39165 
2.32035 2.24359 2.16654 2.70908 2.81592 2.71362 2.92597 2.81002 2.68886 
3.01997 2.89233 2.76254 2.6349 3.01997 2.92834 2.80854 2.68262 2.55881 
2.92597 2.89233 2.80854 2.70048 2.58462 2.47007 2.81592 2.81002 2.76254 
2.68262 2.58462 2.48017 2.37702 2.70908 2.71362 2.68886 2.6349 2.55881 
2.47007 2.37702 2.28567 2.16654 2.24359 2.12312 2.32035 2.1949 2.06938 
2.39165 2.26401 2.13422 2.00658 2.45144 2.32523 2.19453 2.06376 1.93728 
2.49426 2.3734 2.24572 2.11543 1.98711 1.86489 2.51718 2.40503 2.28408 
2.15805 2.03138 1.90847 1.79288 2.52097 2.4195 2.30791 2.18928 2.06758 
1.94707 1.83164 1.72413 1.66533 1.76911 1.66946 1.88041 1.777 1.67254 
1.99634 1.89102 1.78222 1.67418 2.11299 2.00785 1.89674 1.78405 1.67418 
2.22608 2.12307 2.01191 1.89674 1.78222 1.67254 2.33166 2.23222 2.12307 
2.00785 1.89102 1.777 1.66946 2.42672 2.33166 2.22608 2.11299 1.99634 
1.88041 1.76911 1.66533 1.47626 1.47213 1.37249 1.46906 1.36459 1.26118 
1.46741 1.35938 1.25058 1.14526 1.46741 1.35755 1.24485 1.13374 1.0286 
1.46906 1.35938 1.24485 1.12969 1.01852 0.915514 1.47213 1.36459 1.25058 
1.13374 1.01852 0.909371 0.809937 1.47626 1.37249 1.26118 1.14526 1.0286 
0.915514 0.809937 0.714871 1.41746 1.30996 1.34871 1.19452 1.23313 1.2767 
1.07402 1.11021 1.15448 1.20431 0.952313 0.983547 1.02616 1.07784 1.13501 
0.833684 0.857515 0.895868 0.94706 1.00737 1.07221 0.722093 0.736561 0.768195 
0.816367 0.877585 0.946693 1.01847 0.620619 0.624416 0.647337 0.690152 0.749941 
0.821245 0.898002 0.975055 0.975055 0.898002 1.01847 0.821245 0.946693 1.07221 
0.749941 0.877585 1.00737 1.13501 0.690152 0.816367 0.94706 1.07784 1.20431 
0.647337 0.768195 0.895868 1.02616 1.15448 1.2767 0.624416 0.736561 0.857515 
0.983547 1.11021 1.23313 1.34871 0.620619 0.722093 0.833684 0.952313 1.07402 
1.19452 1.30996 1.41746 
Phi 1 1002 float
6.28319 3.14159 6.28319 3.14159 4.71239 4.71239 1.5708 1.5708 3.69517 
5.72961 2.58802 0.553574 6.28319 6.28319 6.28319 6.28319 3.14159 3.14159 
3.14159 3.14159 3.14159 6.1053 5.8988 5.67687 5.45995 5.26596 5.10322 
4.97131 4.86569 4.78095 0.177881 0.384387 0.606312 0.823235 1.01722 1.17997 
1.31187 1.4175 1.50223 6.18928 6.10703 6.03531 5.97283 5.91832 5.87061 
5.82869 5.79168 5.75886 0.0939024 0.176153 0.247873 0.310351 0.364864 0.412573 
0.454497 0.491504 0.524326 3.31947 3.52598 3.7479 3.96483 4.15881 4.32156 
4.45346 4.55909 4.64383 2.96371 2.75721 2.53528 2.31836 2.12437 1.96162 
1.82972 1.72409 1.63936 3.2355 3.31775 3.38947 3.45194 3.50646 3.55417 
3.59609 3.6331 3.66592 3.04769 2.96544 2.89372 2.83124 2.77673 2.72902 
2.6871 2.65009 2.61727 6.28319 6.28319 6.28319 6.28319 3.14159 3.14159 
3.14159 3.14159 3.14159 6.1053 5.8988 5.67687 5.45995 5.26596 5.10322 
4.97131 4.86569 4.78095 0.177881 0.384387 0.606312 0.823235 1.01722 1.17997 
1.31187 1.4175 1.50223 6.18928 6.10703 6.03531 5.97283 5.91832 5.87061 
5.82869 5.79168 5.75886 0.0939024 0.176153 0.247873 0.310351 0.364864 0.412573 
0.454497 0.491504 0.524326 3.31947 3.52598 3.7479 3.96483 4.15881 4.32156 
4.45346 4.55909 4.64383 2.96371 2.75721 2.53528 2.31836 2.12437 1.96162 
1.82972 1.72409 1.63936 3.2355 3.31775 3.38947 3.45194 3.50646 3.55417 
3.59609 3.6331 3.66592 3.04769 2.96544 2.89372 2.83124 2.77673 2.72902 
2.6871 2.65009 2.61727 4.71239 4.71239 4.71239 4.71239 4.71239 4.71239 
4.71239 4.71239 4.71239 4.60879 4.49914 4.3857 4.27128 4.15881 4.05096 
3.94976 3.85646 3.77161 4.81599 4.92564 5.03907 5.1535 5.26596 5.37381 
5.47502 5.56831 5.65317 4.60879 4.49914 4.3857 4.27128 4.15881 4.05096 
3.94976 3.85646 3.77161 4.81599 4.92564 5.03907 5.1535 5.26596 5.37381 
5.47502 5.56831 5.65317 1.5708 1.5708 1.5708 1.5708 1.5708 1.5708 
1.5708 1.5708 1.5708 1.6744 1.78405 1.89748 2.01191 2.12437 2.23222 
2.33343 2.42672 2.51157 1.4672 1.35755 1.24411 1.12969 1.01722 0.909371 
0.808166 0.714871 0.63002 1.6744 1.78405 1.89748 2.01191 2.12437 2.23222 
2.33343 2.42672 2.51157 1.4672 1.35755 1.24411 1.12969 1.01722 0.909371 
0.808166 0.714871 0.63002 3.60077 3.49669 3.38395 3.26458 3.14159 3.01861 
2.89924 2.78649 2.68241 5.82401 5.92808 6.04083 6.1602 6.28319 0.122983 
0.242354 0.355101 0.459179 6.05603 5.78856 5.97021 5.51259 5.60297 5.78856 
5.26596 5.26596 5.26596 5.26596 5.06749 5.0121 4.91556 4.71239 4.15881 
4.91556 4.83537 4.71239 4.50922 4.15881 3.63622 4.80045 4.71239 4.58941 
4.41268 4.15881 3.82181 3.45456 4.71239 4.62433 4.50922 4.35729 4.15881 
3.91219 3.63622 3.36875 6.01742 5.94343 5.82633 5.88092 5.76745 5.62798 
5.8278 5.71897 5.58911 5.43724 5.78235 5.67854 5.55757 5.41926 5.26596 
5.74316 5.64441 5.5315 5.40467 5.26596 5.11955 5.70914 5.61528 5.50962 
5.3926 5.26596 5.13292 4.99789 5.67937 5.59016 5.49102 5.38246 5.26596 
5.14407 5.02016 4.89798 5.56831 5.47502 5.47502 5.37381 5.37381 5.37381 
5.26596 5.26596 5.26596 5.26596 5.1535 5.1535 5.1535 5.1535 5.1535 
5.03907 5.03907 5.03907 5.03907 5.03907 5.03907 4.92564 4.92564 4.92564 
4.92564 4.92564 4.92564 4.92564 4.81599 4.81599 4.81599 4.81599 4.81599 
4.81599 4.81599 4.81599 4.60879 4.60879 4.49914 4.60879 4.49914 4.3857 
4.60879 4.49914 4.3857 4.27128 4.60879 4.49914 4.3857 4.27128 4.15881 
4.60879 4.49914 4.3857 4.27128 4.15881 4.05096 4.60879 4.49914 4.3857 
4.27128 4.15881 4.05096 3.94976 4.60879 4.49914 4.3857 4.27128 4.15881 
4.05096 3.94976 3.85646 4.5268 4.40462 4.42689 4.28071 4.29185 4.30523 
4.15881 4.15881 4.15881 4.15881 4.04232 4.03217 4.02011 4.00552 3.98753 
3.93376 3.91515 3.89328 3.86721 3.83566 3.7968 3.83461 3.8095 3.78037 
3.74624 3.70581 3.65733 3.59845 3.7454 3.71564 3.68161 3.64243 3.59698 
3.54386 3.48135 3.40735 3.56428 3.45246 3.52338 3.33203 3.40312 3.47739 
3.20576 3.27463 3.34802 3.42551 3.07742 3.14159 3.21128 3.28647 3.36688 
2.95116 3.00855 3.0719 3.14159 3.21784 3.3006 2.83072 2.88006 2.93517 
2.99672 3.06535 3.14159 3.22575 2.7189 2.7598 2.8058 2.85768 2.9163 
2.98259 3.05743 3.14159 3.56428 3.52338 3.45246 3.47739 3.40312 3.33203 
3.42551 3.34802 3.27463 3.20576 3.36688 3.28647 3.21128 3.14159 3.07742 
3.3006 3.21784 3.14159 3.0719 3.00855 2.95116 3.22575 3.14159 3.06535 
2.99672 2.93517 2.88006 2.83072 3.14159 3.05743 2.98259 2.9163 2.85768 
2.8058 2.7598 2.7189 4.5268 4.42689 4.40462 4.30523 4.29185 4.28071 
4.15881 4.15881 4.15881 4.15881 3.98753 4.00552 4.02011 4.03217 4.04232 
3.7968 3.83566 3.86721 3.89328 3.91515 3.93376 3.59845 3.65733 3.70581 
3.74624 3.78037 3.8095 3.83461 3.40735 3.48135 3.54386 3.59698 3.64243 
3.68161 3.71564 3.7454 4.71239 4.80045 4.62433 4.91556 4.71239 4.50922 
5.06749 4.83537 4.58941 4.35729 5.26596 5.0121 4.71239 4.41268 4.15881 
5.51259 5.26596 4.91556 4.50922 4.15881 3.91219 5.78856 5.60297 5.26596 
4.71239 4.15881 3.82181 3.63622 6.05603 5.97021 5.78856 5.26596 4.15881 
3.63622 3.45456 3.36875 0.227158 0.494626 0.312971 0.770593 0.680215 0.494626 
1.01722 1.01722 1.01722 1.01722 1.2157 1.27109 1.36763 1.5708 2.12437 
1.36763 1.44781 1.5708 1.77397 2.12437 2.64697 1.48273 1.5708 1.69378 
1.8705 2.12437 2.46138 2.82862 1.5708 1.65886 1.77397 1.9259 2.12437 
2.371 2.64697 2.91443 1.75639 1.87857 1.8563 2.00248 1.99133 1.97796 
2.12437 2.12437 2.12437 2.12437 2.24087 2.25101 2.26308 2.27767 2.29565 
2.34943 2.36803 2.38991 2.41597 2.44752 2.48639 2.44857 2.47368 2.50281 
2.53694 2.57738 2.62586 2.68474 2.53778 2.56754 2.60157 2.64076 2.68621 
2.73933 2.80184 2.87583 1.6744 1.6744 1.78405 1.6744 1.78405 1.89748 
1.6744 1.78405 1.89748 2.01191 1.6744 1.78405 1.89748 2.01191 2.12437 
1.6744 1.78405 1.89748 2.01191 2.12437 2.23222 1.6744 1.78405 1.89748 
2.01191 2.12437 2.23222 2.33343 1.6744 1.78405 1.89748 2.01191 2.12437 
2.23222 2.33343 2.42672 1.4672 1.35755 1.4672 1.24411 1.35755 1.4672 
1.12969 1.24411 1.35755 1.4672 1.01722 1.12969 1.24411 1.35755 1.4672 
0.909371 1.01722 1.12969 1.24411 1.35755 1.4672 0.808166 0.909371 1.01722 
1.12969 1.24411 1.35755 1.4672 0.714871 0.808166 0.909371 1.01722 1.12969 
1.24411 1.35755 1.4672 0.603812 0.57405 0.693022 0.540021 0.667908 0.792164 
0.500837 0.638778 0.773562 0.900726 0.455383 0.604649 0.751687 0.890581 1.01722 
0.402264 0.564217 0.725619 0.878514 1.01722 1.13912 0.339753 0.515737 0.694072 
0.863926 1.01722 1.15026 1.26302 0.265762 0.456853 0.655207 0.845941 1.01722 
1.16363 1.28529 1.38521 0.227158 0.312971 0.494626 0.494626 0.680215 0.770593 
1.01722 1.01722 1.01722 1.01722 2.12437 1.5708 1.36763 1.27109 1.2157 
2.64697 2.12437 1.77397 1.5708 1.44781 1.36763 2.82862 2.46138 2.12437 
1.8705 1.69378 1.5708 1.48273 2.91443 2.64697 2.371 2.12437 1.9259 
1.77397 1.65886 1.5708 1.75639 1.8563 1.87857 1.97796 1.99133 2.00248 
2.12437 2.12437 2.12437 2.12437 2.29565 2.27767 2.26308 2.25101 2.24087 
2.48639 2.44752 2.41597 2.38991 2.36803 2.34943 2.68474 2.62586 2.57738 
2.53694 2.50281 2.47368 2.44857 2.87583 2.80184 2.73933 2.68621 2.64076 
2.60157 2.56754 2.53778 5.86049 5.90139 5.97231 5.94739 6.02165 6.09275 
5.99927 6.07676 6.15015 6.21902 6.0579 6.13831 6.2135 0 0.0641696 
6.12418 6.20694 6.28319 0.069689 0.13304 0.190437 6.19903 0 0.0762451 
0.144876 0.206423 0.261531 0.310872 0 0.0841597 0.159004 0.225289 0.283913 
0.335793 0.381792 0.422692 5.86049 5.97231 5.90139 6.09275 6.02165 5.94739 
6.21902 6.15015 6.07676 5.99927 0.0641696 0 6.2135 6.13831 6.0579 
0.190437 0.13304 0.069689 6.28319 6.20694 6.12418 0.310872 0.261531 0.206423 
0.144876 0.0762451 6.28319 6.19903 0.422692 0.381792 0.335793 0.283913 0.225289 
0.159004 0.0841597 0 5.67937 5.70914 5.59016 5.74316 5.61528 5.49102 
5.78235 5.64441 5.50962 5.38246 5.8278 5.67854 5.5315 5.3926 5.26596 
5.88092 5.71897 5.55757 5.40467 5.26596 5.14407 5.94343 5.76745 5.58911 
5.41926 5.26596 5.13292 5.02016 6.01742 5.82633 5.62798 5.43724 5.26596 
5.11955 4.99789 4.89798 1.38521 1.28529 1.26302 1.16363 1.15026 1.13912 
1.01722 1.01722 1.01722 1.01722 0.845941 0.863926 0.878514 0.890581 0.900726 
0.655207 0.694072 0.725619 0.751687 0.773562 0.792164 0.456853 0.515737 0.564217 
0.604649 0.638778 0.667908 0.693022 0.265762 0.339753 0.402264 0.455383 0.500837 
0.540021 0.57405 0.603812 
