# vtk DataFile Version 4.0
vtk output
ASCII
DATASET POLYDATA
POINTS 1002 float
-116.843 -101.608 51.0865 -116.915 -101.052 50.8894 -117.517 -101.309 50.9293 
-117.439 -101.875 51.1693 -118.114 -101.571 51.0748 -116.737 -102.061 51.6082 
-118.009 -102.015 51.5388 -118.676 -101.813 51.4101 -117.262 -102.121 51.9699 
-116.709 -102.329 52.43 -118.546 -102.008 52.1951 -119.309 -101.991 51.8142 
-117.736 -101.971 52.6618 -117.148 -102.222 52.9887 -116.742 -102.594 53.1746 
-119.159 -101.963 52.8322 -120.061 -102.018 52.233 -118.237 -101.819 53.446 
-117.559 -102.048 53.6709 -117.117 -102.539 53.7402 -116.6 -102.769 54.0558 
-119.863 -102.001 53.3509 -120.722 -101.943 52.8541 -118.871 -101.908 53.9792 
-118.121 -102.066 54.2545 -117.558 -102.505 54.3535 -116.948 -102.728 54.7536 
-116.304 -102.731 55.3209 -120.52 -102.14 53.8722 -121.169 -101.899 53.5641 
-119.588 -102.175 54.3276 -118.792 -102.27 54.6719 -118.178 -102.562 54.9503 
-117.462 -102.714 55.4637 -116.717 -102.701 56.046 -116.164 -102.876 56.3384 
-121.055 -102.265 54.2882 -121.555 -101.908 54.0159 -120.277 -102.417 54.6554 
-119.448 -102.46 55.0566 -118.775 -102.63 55.4948 -118.08 -102.795 56.0492 
-117.306 -102.823 56.5913 -116.679 -102.975 56.8726 -116.216 -103.312 56.9464 
-121.48 -102.294 54.5998 -121.97 -101.958 54.3133 -120.853 -102.543 54.9849 
-120.098 -102.636 55.4551 -119.346 -102.741 55.9774 -118.646 -102.948 56.4882 
-117.913 -103.092 56.9309 -117.253 -103.198 57.2653 -116.752 -103.396 57.5178 
-116.281 -103.581 57.7809 -121.792 -102.277 55.0523 -122.326 -102.058 54.784 
-121.245 -102.549 55.4255 -120.644 -102.79 55.8977 -119.944 -102.963 56.4179 
-119.237 -103.16 56.8775 -118.521 -103.346 57.2495 -117.791 -103.424 57.6334 
-117.208 -103.466 58.0814 -116.767 -103.528 58.5479 -116.314 -103.547 58.9669 
-117.315 -100.706 50.7333 -117.949 -100.851 50.8984 -117.777 -100.503 50.3412 
-118.495 -100.518 50.5892 -118.457 -100.459 49.6768 -118.543 -101.04 51.1464 
-119.31 -100.464 49.9104 -119.21 -100.263 49.2423 -119.105 -100.613 50.9914 
-119.145 -101.381 51.4334 -119.957 -100.276 49.5457 -119.608 -99.5823 49.3902 
-119.813 -100.476 50.5561 -119.703 -100.989 51.4115 -119.933 -101.74 51.6525 
-120.026 -99.4865 49.8764 -119.764 -98.6294 49.7096 -120.126 -100.089 50.4497 
-120.225 -100.659 51.2856 -120.489 -101.367 51.7027 -120.739 -101.801 52.0413 
-120.061 -98.5139 50.2749 -120.141 -97.8831 49.7832 -120.058 -99.2246 50.7868 
-120.458 -100 51.2757 -120.94 -100.803 51.7276 -121.164 -101.338 52.1732 
-121.218 -101.604 52.8117 -120.45 -97.925 50.327 -120.573 -97.4443 49.7499 
-120.254 -98.5479 51.0513 -120.656 -99.3101 51.4153 -121.403 -100.119 51.6222 
-121.644 -100.724 52.1593 -121.521 -101.077 52.8974 -121.53 -101.452 53.5246 
-120.774 -97.5929 50.3552 -120.666 -97.1296 49.8888 -120.68 -98.2181 51.1688 
-120.968 -98.9864 51.6507 -121.814 -99.728 51.6262 -122.303 -100.269 51.9078 
-122.078 -100.61 52.7226 -121.898 -100.988 53.4461 -121.991 -101.495 53.8901 
-120.793 -97.2617 50.6386 -120.488 -96.8341 50.2707 -120.956 -97.8555 51.3666 
-121.209 -98.646 51.951 -121.931 -99.4339 51.9126 -122.686 -99.9914 51.8319 
-122.732 -100.32 52.4165 -122.443 -100.664 53.2499 -122.446 -101.175 53.8108 
-122.519 -101.701 54.2498 -120.565 -96.7856 51.0046 -120.981 -97.2659 51.5199 
-120.891 -96.8053 51.797 -121.383 -97.3241 52.2109 -121.337 -96.9539 52.3336 
-121.314 -97.9357 52.1374 -121.86 -97.3783 52.5694 -121.71 -96.9887 52.8899 
-121.824 -97.8842 52.4796 -121.815 -98.7314 52.3009 -122.363 -97.2361 53.1719 
-122.112 -96.7691 53.782 -122.433 -97.7117 52.724 -122.438 -98.4866 52.445 
-122.612 -99.4344 52.0926 -122.796 -97.0716 54.0744 -122.451 -96.7675 54.5426 
-122.968 -97.5703 53.4813 -122.986 -98.2152 52.9978 -123.011 -99.1235 52.6294 
-123.033 -99.929 52.384 -122.855 -97.2349 54.7947 -122.442 -97.1874 55.0596 
-123.076 -97.6303 54.4393 -123.148 -98.2357 54.0243 -123.101 -98.9602 53.6609 
-123.042 -99.7828 53.3705 -122.876 -100.379 53.2151 -122.696 -97.4854 55.6406 
-122.281 -97.5003 55.8877 -122.906 -97.7703 55.4158 -122.967 -98.4057 55.1274 
-122.942 -99.0864 54.8062 -122.917 -99.8128 54.5161 -122.962 -100.548 54.2118 
-122.842 -100.991 53.9393 -122.703 -97.5076 56.8149 -122.246 -97.4672 56.9631 
-122.959 -97.7941 56.6504 -122.998 -98.4895 56.3874 -122.938 -99.2543 55.999 
-122.899 -99.917 55.6356 -123.018 -100.685 55.3201 -123.152 -101.354 54.9195 
-122.976 -101.631 54.5039 -122.742 -97.4858 57.7895 -122.203 -97.4042 57.7731 
-123.115 -97.8013 57.7519 -123.225 -98.5297 57.5886 -123.154 -99.3753 57.2128 
-123.043 -99.983 56.7368 -123.037 -100.604 56.3652 -123.155 -101.378 56.0339 
-123.135 -101.902 55.5882 -122.808 -102.036 55.1141 -122.173 -102.216 55.654 
-122.566 -102.138 56.1034 -121.822 -102.215 56.5904 -122.802 -101.824 56.5364 
-122.048 -101.97 56.8971 -121.423 -102.145 57.3326 -122.845 -101.134 56.8565 
-122.172 -101.472 57.1143 -121.533 -101.799 57.4556 -121.064 -102.209 58.13 
-122.884 -100.482 57.1944 -122.268 -100.847 57.3943 -121.611 -101.329 57.6869 
-121.211 -101.948 58.3997 -120.769 -102.47 59.2544 -123.01 -100.069 57.6718 
-122.412 -100.486 57.8357 -121.762 -100.92 58.1316 -121.346 -101.587 58.8544 
-120.967 -102.241 59.7084 -120.499 -102.722 60.3403 -123.124 -99.4069 58.1066 
-122.511 -100.117 58.2566 -121.878 -100.597 58.5513 -121.507 -101.19 59.2702 
-121.074 -101.815 60.0884 -120.588 -102.357 60.7002 -120.22 -102.879 61.2038 
-123.109 -98.4899 58.3112 -122.52 -99.338 58.4842 -121.83 -99.9887 58.7671 
-121.513 -100.631 59.4545 -121.142 -101.301 60.2312 -120.572 -101.823 60.8816 
-120.227 -102.4 61.5108 -120.041 -103.021 62.1386 -122.835 -97.8617 58.3394 
-122.4 -98.5607 58.5717 -121.719 -99.2254 58.8725 -121.36 -99.873 59.53 
-121.103 -100.652 60.2733 -120.581 -101.28 60.9311 -120.195 -101.795 61.6846 
-120.117 -102.455 62.4816 -119.968 -103.066 63.0778 -122.309 -97.6268 58.2867 
-122.057 -98.1572 58.6034 -121.545 -98.7404 58.9607 -121.192 -99.2755 59.5832 
-120.993 -99.9765 60.3138 -120.596 -100.698 60.9719 -120.193 -101.21 61.7182 
-120.1 -101.75 62.5835 -120.073 -102.393 63.2884 -119.813 -102.905 63.6756 
-121.593 -102.398 55.971 -121.294 -102.459 56.9544 -121.067 -102.732 56.3918 
-120.879 -102.479 57.8481 -120.706 -102.864 57.4104 -120.452 -103.082 56.8733 
-120.41 -102.565 58.8455 -120.097 -102.817 58.3906 -119.998 -103.204 57.8427 
-119.768 -103.328 57.3131 -120.112 -102.803 59.9507 -119.594 -102.801 59.4638 
-119.409 -103.052 58.8824 -119.424 -103.396 58.2785 -119.099 -103.491 57.7108 
-119.959 -103.085 60.9495 -119.449 -103.048 60.5936 -119.066 -103.101 60.096 
-119.003 -103.34 59.5278 -118.805 -103.519 58.9008 -118.299 -103.543 58.2107 
-119.789 -103.326 61.9261 -119.352 -103.379 61.657 -118.92 -103.478 61.2561 
-118.668 -103.7 60.7596 -118.393 -103.725 60.2734 -117.937 -103.577 59.6478 
-117.516 -103.505 58.8406 -119.64 -103.47 62.8949 -119.167 -103.631 62.6152 
-118.742 -103.832 62.2039 -118.462 -104.234 61.6339 -118.142 -104.391 61.1358 
-117.669 -104.036 60.7753 -117.254 -103.621 60.2544 -117.006 -103.492 59.4507 
-119.49 -103.404 63.6034 -119.028 -103.756 63.3856 -118.619 -104.082 63.0138 
-118.38 -104.547 62.4009 -118.141 -104.927 61.6881 -117.705 -104.793 61.216 
-117.22 -104.226 60.9797 -116.886 -103.715 60.6209 -116.624 -103.518 59.9147 
-119.293 -102.936 63.9521 -118.968 -103.536 63.9482 -118.674 -102.986 64.1708 
-118.472 -103.878 64.307 -118.124 -103.226 64.4617 -118.612 -104.159 63.798 
-117.862 -104.336 64.6349 -117.424 -103.448 64.5759 -118.217 -104.762 64.2778 
-118.361 -104.713 63.3847 -116.878 -104.414 64.6034 -116.427 -103.348 64.4785 
-117.403 -105.054 64.5925 -117.907 -105.137 63.85 -118.152 -105.082 62.6083 
-115.878 -104.08 64.4078 -115.525 -103.081 64.4901 -116.268 -104.818 64.417 
-116.819 -105.022 64.063 -117.444 -105.097 62.9343 -117.749 -105.164 61.7519 
-115.256 -103.689 64.3593 -114.962 -102.866 64.4044 -115.529 -104.479 64.1083 
-115.721 -104.849 63.7777 -116.166 -104.944 63.0399 -116.837 -105.074 61.9283 
-117.198 -104.865 61.2424 -114.758 -103.28 64.1299 -114.5 -102.655 63.9357 
-115.121 -104.047 63.9077 -115.256 -104.718 63.4143 -115.251 -105.002 62.8334 
-115.676 -105.064 62.0328 -116.368 -104.857 61.3444 -116.757 -104.27 61.0476 
-114.16 -102.883 63.6098 -113.964 -102.423 63.4065 -114.55 -103.425 63.5468 
-114.911 -104.144 63.1442 -114.962 -104.71 62.6343 -115.053 -104.9 62.0528 
-115.546 -104.728 61.4622 -116.097 -104.227 61.1012 -116.416 -103.721 60.7105 
-113.571 -102.636 63.1335 -113.414 -102.211 63.1051 -113.871 -102.963 63.0542 
-114.289 -103.418 62.7961 -114.588 -103.949 62.4474 -114.774 -104.275 62.0228 
-115.1 -104.274 61.5034 -115.5 -103.974 61.0683 -115.791 -103.612 60.6558 
-116.04 -103.485 59.9414 -119.682 -102.339 63.7412 -119.004 -102.34 63.8966 
-119.321 -101.779 63.5258 -118.57 -101.836 63.7309 -118.886 -101.306 63.2872 
-118.324 -102.353 64.1462 -118.261 -101.304 63.7199 -118.579 -100.729 63.2124 
-117.992 -101.807 64.1675 -117.796 -102.444 64.4562 -118.132 -100.492 63.7549 
-118.385 -100.029 63.0725 -117.819 -101.107 64.247 -117.488 -101.685 64.5002 
-117.029 -102.432 64.5301 -117.926 -99.748 63.4804 -118.128 -99.5087 62.6765 
-117.64 -100.261 64.0698 -117.169 -100.892 64.405 -116.559 -101.5 64.5695 
-115.964 -102.265 64.559 -117.486 -99.4082 62.9399 -117.723 -99.1673 62.212 
-117.255 -99.7342 63.581 -116.789 -100.257 63.9943 -116.082 -100.768 64.3935 
-115.49 -101.357 64.6226 -115.154 -102.146 64.5473 -116.965 -99.1392 62.3824 
-117.296 -98.7632 61.8394 -116.739 -99.4323 63.0214 -116.382 -99.8289 63.4878 
-115.722 -100.236 63.941 -115.123 -100.633 64.3618 -114.858 -101.287 64.3504 
-114.705 -102.081 64.0947 -116.588 -98.7003 61.901 -117 -98.2713 61.5432 
-116.316 -99.01 62.4532 -116.032 -99.3403 62.9754 -115.481 -99.717 63.4046 
-114.87 -100.024 63.8445 -114.561 -100.459 63.9796 -114.441 -101.19 63.7103 
-114.239 -101.934 63.4761 -116.361 -98.1912 61.5398 -116.806 -97.7839 61.2928 
-116.054 -98.5231 61.9346 -115.793 -98.8335 62.3976 -115.321 -99.1976 62.7923 
[...]
CELL_DATA 2000
SCALARS Distance double
LOOKUP_TABLE default
162.019 162.64 162.344 162.385 163.276 162.967 162.971 162.684 162.737 
163.923 163.587 163.526 163.219 163.21 163.015 163.118 164.589 164.219 
164.099 163.742 163.673 163.448 163.534 163.4 163.499 165.261 164.887 
164.765 164.348 164.274 163.957 164.035 163.838 163.953 163.748 163.77 
165.888 165.571 165.504 165.072 165.014 164.633 164.709 164.429 164.539 
164.26 164.29 164.005 164.029 166.405 166.187 166.196 165.829 165.766 
165.383 165.41 165.117 165.208 164.911 164.942 164.601 164.63 164.343 
164.455 166.833 166.672 166.737 166.478 166.452 166.106 166.096 165.783 
165.852 165.571 165.623 165.292 165.319 164.998 165.092 164.836 164.973 
167.254 167.077 167.143 166.964 167.006 166.752 166.779 166.468 166.529 
166.225 166.298 165.977 166.003 165.676 165.72 165.457 165.56 165.332 
165.43 161.909 161.952 162.116 162.522 162.099 162.183 162.561 162.736 
163.162 162.402 162.418 162.741 162.801 163.222 163.409 163.858 162.556 
162.716 163.039 163.049 163.406 163.52 164.019 164.171 164.606 162.296 
162.661 162.997 163.216 163.537 163.717 164.181 164.369 164.851 164.936 
165.294 161.976 162.281 162.583 162.935 163.289 163.672 164.147 164.476 
164.935 165.122 165.463 165.55 165.835 161.924 162.066 162.358 162.57 
162.994 163.36 163.956 164.359 164.887 165.133 165.452 165.595 165.85 
166.002 166.273 161.93 162.08 162.407 162.543 163.02 163.259 163.938 
164.269 164.916 165.13 165.509 165.585 165.836 165.957 166.262 166.425 
166.719 161.809 162.039 162.408 162.626 163.109 163.368 163.996 164.327 
164.968 165.226 165.652 165.72 165.975 166.014 166.333 166.459 166.84 
166.936 167.227 161.831 162.223 162.168 162.515 162.771 162.659 163.023 
162.934 163.31 163.292 163.205 163.524 163.454 163.849 163.794 164.22 
163.763 163.69 163.993 163.914 164.263 164.268 164.729 164.737 165.154 
164.255 164.175 164.511 164.402 164.73 164.67 165.081 165.136 165.562 
165.572 165.813 164.684 164.64 164.952 164.902 165.212 165.149 165.475 
165.467 165.831 165.872 166.151 166.082 166.176 165.038 165.006 165.273 
165.262 165.556 165.554 165.848 165.831 166.139 166.147 166.488 166.451 
166.704 166.498 166.617 165.396 165.361 165.671 165.615 165.969 165.921 
166.285 166.214 166.552 166.494 166.886 166.872 167.281 167.15 167.402 
167.075 167.172 165.69 165.723 166.091 166.074 166.49 166.44 166.862 
166.755 167.099 166.968 167.3 167.276 167.673 167.692 167.993 167.834 
167.908 167.574 167.532 167.705 168.085 167.923 167.884 168.18 168.198 
168.094 167.942 167.806 167.891 168.097 167.998 167.978 167.77 167.75 
167.702 167.583 167.777 167.754 167.77 167.605 167.626 167.636 167.733 
167.893 167.466 167.617 167.688 167.631 167.554 167.511 167.605 167.709 
167.972 168.059 168.273 167.268 167.528 167.637 167.646 167.578 167.542 
167.63 167.735 167.977 168.11 168.302 168.378 168.507 166.852 167.209 
167.299 167.467 167.344 167.446 167.446 167.666 167.827 168.033 168.128 
168.263 168.35 168.518 168.696 166.368 166.713 166.782 167.01 166.882 
167.048 166.995 167.292 167.427 167.741 167.823 168.004 168.052 168.263 
168.476 168.742 169.006 165.889 166.198 166.256 166.494 166.425 166.584 
166.55 166.796 166.94 167.274 167.426 167.662 167.73 167.94 168.121 
168.446 168.735 169.029 169.196 167.501 167.687 167.523 167.342 167.73 
167.669 167.571 167.407 167.251 167.727 167.699 167.682 167.614 167.53 
167.331 167.112 167.878 167.743 167.666 167.632 167.569 167.535 167.396 
167.172 166.9 168.212 167.983 167.796 167.613 167.479 167.469 167.415 
167.376 167.206 166.954 166.655 168.535 168.345 168.193 167.873 167.703 
167.493 167.471 167.403 167.358 167.201 166.958 166.665 166.334 168.83 
168.68 168.632 168.335 168.207 167.896 167.866 167.651 167.641 167.416 
167.229 166.927 166.615 166.314 166.027 169.15 169.019 168.996 168.759 
168.65 168.396 168.36 168.14 168.131 167.847 167.685 167.292 167.002 
166.627 166.368 166.069 165.865 169.302 169.279 169.236 169.085 168.986 
168.789 168.766 168.592 168.614 168.373 168.261 167.858 167.591 167.128 
166.861 166.477 166.268 165.955 165.748 169.226 168.986 169.19 169.224 
168.836 169.03 169.208 169.197 169.11 168.684 168.981 169.292 169.324 
169.354 169.151 169.003 168.104 168.657 168.983 169.322 169.398 169.398 
169.241 169.05 168.835 167.258 167.857 168.115 168.688 168.732 169.102 
168.913 169.052 168.762 168.736 168.404 166.584 167.044 167.284 167.756 
167.799 168.201 168.03 168.371 168.121 168.374 168.062 168.119 167.709 
165.963 166.403 166.62 167.04 167.133 167.42 167.305 167.513 167.33 
167.597 167.417 167.63 167.338 167.361 166.975 165.231 165.682 165.802 
166.3 166.389 166.801 166.742 166.959 166.781 166.944 166.785 166.991 
166.8 166.934 166.633 166.652 166.329 164.539 164.912 164.958 165.397 
165.434 165.928 165.907 166.308 166.165 166.42 166.221 166.423 166.213 
166.383 166.11 166.226 165.919 166.003 165.735 169.074 168.519 168.798 
168.747 167.844 168.155 168.116 168.427 168.472 167.239 167.524 167.526 
167.806 167.84 168.194 168.262 166.65 166.958 166.986 167.269 167.265 
167.555 167.504 167.856 167.725 166.002 166.335 166.332 166.676 166.614 
166.919 166.746 167.04 166.812 167.145 166.926 165.327 165.65 165.603 
165.953 165.854 166.171 165.95 166.221 165.953 166.25 166.054 166.396 
166.269 164.63 164.942 164.865 165.203 165.098 165.398 165.187 165.422 
165.158 165.418 165.235 165.573 165.472 165.825 165.701 163.961 164.23 
164.126 164.449 164.345 164.655 164.467 164.698 164.431 164.656 164.437 
164.755 164.627 165.005 164.882 165.225 165.037 163.382 163.589 163.464 
163.732 163.634 163.924 163.771 164.004 163.759 163.955 163.709 163.965 
163.787 164.13 163.991 164.365 164.215 164.544 164.365 165.648 165.331 
165.662 165.961 165.053 165.34 165.647 165.937 166.163 164.927 165.134 
165.461 165.687 165.975 166.16 166.389 164.845 165.055 165.365 165.564 
165.881 166.066 166.373 166.511 166.816 164.599 164.906 165.193 165.442 
165.725 165.964 166.285 166.509 166.827 166.997 167.274 164.232 164.578 
164.896 165.205 165.495 165.766 166.078 166.357 166.692 166.937 167.223 
167.389 167.611 163.945 164.235 164.588 164.904 165.253 165.536 165.87 
166.142 166.493 166.763 167.109 167.323 167.644 167.765 168.065 163.732 
163.99 164.319 164.627 164.989 165.299 165.647 165.935 166.274 166.559 
166.902 167.181 167.538 167.786 168.161 168.319 168.663 163.471 163.745 
164.028 164.343 164.676 165.014 165.353 165.676 166.002 166.311 166.627 
166.932 167.237 167.563 167.885 168.234 168.556 168.826 169.065 165.336 
164.769 165.057 165.037 164.171 164.489 164.488 164.749 164.755 163.495 
163.872 163.913 164.212 164.235 164.517 164.607 162.74 163.149 163.211 
163.598 163.647 163.985 164.066 164.406 164.516 161.996 162.374 162.417 
162.845 162.929 163.345 163.432 163.816 163.887 164.247 164.27 161.307 
161.649 161.684 162.075 162.184 162.61 162.732 163.138 163.201 163.567 
163.57 163.913 163.896 160.629 160.971 161.023 161.393 161.501 161.9 
162.014 162.418 162.48 162.857 162.872 163.219 163.238 163.572 163.619 
159.999 160.317 160.389 160.753 160.858 161.236 161.309 161.688 161.719 
162.107 162.136 162.525 162.586 162.952 163.034 163.366 163.435 159.49 
159.75 159.826 160.146 160.239 160.588 160.636 160.98 160.995 161.356 
161.4 161.793 161.882 162.286 162.383 162.764 162.828 163.166 163.189 
159.259 158.965 159.272 159.578 158.517 158.911 159.235 159.595 159.935 
158.099 158.432 158.751 159.159 159.508 159.924 160.277 157.982 158.147 
158.434 158.704 159.077 159.472 159.89 160.278 160.653 157.97 158.144 
158.425 158.551 158.917 159.172 159.671 159.993 160.459 160.731 161.117 
157.808 158.081 158.423 158.593 158.939 159.137 159.61 159.888 160.372 
160.622 161.015 161.239 161.611 157.719 157.931 158.33 158.549 158.932 
159.151 159.568 159.829 160.231 160.497 160.822 161.091 161.418 161.714 
162.082 157.822 157.938 158.318 158.498 158.921 159.136 159.567 159.78 
160.142 160.333 160.611 160.835 161.131 161.445 161.814 162.156 162.52 
157.91 158.031 158.343 158.515 158.906 159.132 159.564 159.783 160.156 
160.303 160.596 160.713 161.021 161.214 161.597 161.882 162.279 162.576 
162.906 158.001 158.295 158.227 158.449 158.75 158.583 158.813 158.747 
159.033 159.412 159.124 159.3 159.155 159.449 159.393 159.698 160.22 
159.871 159.996 159.713 159.921 159.801 160.097 160.05 160.289 160.983 
160.689 160.834 160.49 160.622 160.335 160.562 160.443 160.717 160.611 
160.771 161.615 161.378 161.556 161.306 161.457 161.117 161.276 161.007 
161.287 161.116 161.367 161.128 161.26 162.305 161.997 162.148 161.945 
162.137 161.899 162.05 161.767 161.986 161.774 162.058 161.821 162.008 
161.685 161.829 163.132 162.755 162.864 162.565 162.739 162.514 162.691 
162.464 162.651 162.456 162.704 162.517 162.722 162.45 162.575 162.277 
162.441 163.926 163.598 163.707 163.35 163.483 163.171 163.335 163.079 
163.274 163.073 163.311 163.137 163.352 163.124 163.253 162.976 163.09 
162.853 163.021 157.786 157.6 157.818 158.1 157.637 157.769 158.14 
158.255 158.616 157.935 157.998 158.444 158.455 158.841 158.888 159.309 
158.241 158.35 158.795 158.827 159.188 159.191 159.579 159.65 160.102 
158.414 158.56 158.986 159.113 159.49 159.533 159.916 159.958 160.385 
160.457 160.869 158.646 158.698 159.138 159.28 159.764 159.846 160.304 
160.33 160.778 160.79 161.195 161.202 161.553 159.048 158.985 159.387 
159.488 160.031 160.164 160.674 160.732 161.169 161.188 161.594 161.588 
161.968 161.927 162.297 159.499 159.399 159.695 159.746 160.211 160.394 
160.884 161.032 161.426 161.505 161.878 161.947 162.356 162.383 162.789 
162.744 163.129 159.881 159.806 160.032 160.021 160.371 160.509 160.948 
161.14 161.543 161.681 162.056 162.173 162.593 162.706 163.129 163.185 
163.551 163.541 163.872 157.582 157.145 157.35 157.337 156.645 156.888 
156.847 157.091 157.223 156.111 156.393 156.376 156.586 156.654 157.046 
157.398 155.606 155.883 155.953 156.165 156.239 156.518 156.82 157.308 
157.737 155.368 155.476 155.618 155.818 156.013 156.222 156.533 156.852 
157.281 157.678 158.036 155.608 155.458 155.574 155.627 155.903 156.089 
156.473 156.709 157.152 157.405 157.813 158.048 158.374 156.063 155.836 
155.86 155.748 155.952 156.054 156.425 156.658 157.086 157.344 157.76 
157.975 158.348 158.511 158.847 156.323 156.214 156.193 156.065 156.181 
156.179 156.46 156.603 156.941 157.191 157.542 157.853 158.219 158.498 
158.844 159.029 159.331 156.347 156.357 156.402 156.346 156.494 156.457 
156.722 156.727 157.002 157.074 157.335 157.554 157.867 158.22 158.566 
158.91 159.213 159.448 159.691 156.357 156.645 156.498 156.533 157.194 
156.946 157.031 156.765 156.782 157.763 157.528 157.635 157.387 157.439 
157.101 157.078 158.25 157.998 158.023 157.896 157.962 157.754 157.708 
157.37 157.29 158.81 158.442 158.335 158.168 158.235 158.157 158.191 
157.95 157.841 157.519 157.493 159.479 159.038 158.882 158.548 158.601 
158.456 158.622 158.436 158.443 158.09 158.036 157.761 157.916 160.146 
159.731 159.611 159.203 159.233 158.965 159.156 158.959 159.071 158.742 
158.703 158.35 158.433 158.273 158.57 160.775 160.406 160.333 159.953 
159.963 159.65 159.769 159.542 159.646 159.372 159.345 159.004 159.009 
158.791 159.005 158.944 159.243 161.381 161.044 160.999 160.657 160.657 
160.343 160.395 160.134 160.196 159.935 159.933 159.616 159.604 159.338 
159.47 159.356 159.613 159.561 159.774 161.693 162.066 161.7 161.342 
162.478 162.107 161.768 161.37 161.027 162.913 162.551 162.226 161.815 
161.457 161.067 160.749 163.273 162.968 162.627 162.247 161.862 161.482 
161.138 160.795 160.503 163.517 163.269 162.943 162.605 162.229 161.865 
161.533 161.186 160.88 160.54 160.231 163.816 163.539 163.313 162.965 
162.668 162.27 161.976 161.603 161.328 160.952 160.639 160.258 159.947 
164.268 163.943 163.798 163.444 163.235 162.807 162.523 162.09 161.804 
161.415 161.134 160.734 160.456 160.051 159.841 164.76 164.436 164.264 
163.951 163.753 163.391 163.102 162.661 162.321 161.897 161.615 161.24 
161.013 160.629 160.446 160.063 159.95 165.2 164.889 164.66 164.359 
164.127 163.835 163.565 163.194 162.856 162.424 162.122 161.736 161.53 
161.181 161.007 160.657 160.497 160.174 160.051 160.123 160.594 160.343 
160.326 161.136 160.882 160.909 160.604 160.659 161.68 161.461 161.556 
161.257 161.328 161.035 161.186 162.26 162.026 162.171 161.92 162.038 
161.744 161.876 161.611 161.777 162.96 162.667 162.812 162.55 162.703 
162.441 162.608 162.337 162.509 162.214 162.355 163.65 163.384 163.532 
163.253 163.419 163.13 163.318 163.058 163.271 162.993 163.161 162.818 
162.938 164.227 164.02 164.213 163.991 164.219 163.926 164.131 163.813 
164.021 163.739 163.918 163.617 163.727 163.391 163.468 164.8 164.6 
164.844 164.665 164.971 164.748 165.021 164.698 164.912 164.554 164.722 
164.368 164.465 164.124 164.176 163.857 163.885 165.379 165.208 165.48 
165.316 165.639 165.474 165.774 165.544 165.781 165.471 165.656 165.265 
165.372 164.926 164.967 164.559 164.586 164.233 164.23 161.464 161.601 
161.365 160.943 161.595 161.422 160.965 160.722 160.168 161.579 161.339 
160.836 160.634 160.074 159.85 159.3 161.779 161.366 160.758 160.467 
159.945 159.753 159.305 159.076 158.637 162.009 161.597 160.894 160.468 
159.911 159.679 159.325 159.142 158.758 158.483 157.984 161.949 161.716 
161.063 160.653 160.052 159.736 159.348 159.17 158.797 158.568 158.027 
157.719 157.114 161.716 161.582 161.078 160.793 160.256 159.925 159.482 
159.221 158.806 158.56 158.042 157.738 157.166 156.851 156.396 161.563 
161.411 160.996 160.798 160.354 160.097 159.656 159.372 158.929 158.623 
158.16 157.824 157.368 157.013 156.648 156.346 156.164 161.513 161.332 
160.931 160.747 160.331 160.136 159.699 159.475 159.027 158.765 158.357 
158.057 157.715 157.361 157.076 156.717 156.534 156.283 156.253 161.252 
160.724 160.933 160.817 159.974 160.309 160.212 160.509 160.479 159.115 
159.471 159.411 159.817 159.825 160.19 160.205 158.411 158.665 158.598 
158.988 159.038 159.47 159.53 159.901 159.918 157.714 157.986 157.888 
158.245 158.296 158.698 158.77 159.169 159.217 159.595 159.646 156.833 
157.167 157.044 157.492 157.557 158.003 158.069 158.433 158.45 158.836 
158.903 159.337 159.454 156.141 156.314 156.173 156.569 156.65 157.191 
157.329 157.76 157.785 158.11 158.151 158.559 158.705 159.167 159.315 
155.981 155.908 155.781 155.873 155.9 156.282 156.462 156.968 157.106 
157.491 157.557 157.891 158.038 158.444 158.645 159.054 159.195 156.162 
156.01 155.932 155.776 155.713 155.745 155.813 156.148 156.33 156.781 
156.937 157.328 157.481 157.857 158.069 158.451 158.651 158.986 159.125 
161.485 161.095 161.444 161.845 160.794 161.102 161.507 161.9 162.391 
160.523 160.823 161.196 161.573 162.042 162.467 162.934 160.232 160.532 
160.881 161.245 161.681 162.101 162.563 162.97 163.401 159.995 160.257 
160.612 160.934 161.385 161.767 162.244 162.619 163.078 163.452 163.893 
159.859 160.09 160.465 160.724 161.187 161.525 162.027 162.364 162.822 
163.16 163.611 163.97 164.375 159.721 159.978 160.362 160.618 161.048 
161.358 161.831 162.162 162.589 162.912 163.319 163.68 164.094 164.43 
164.771 159.54 159.805 160.166 160.466 160.856 161.182 161.591 161.929 
162.318 162.646 163.017 163.367 163.76 164.126 164.494 164.803 165.105 
159.413 159.618 159.944 160.226 160.594 160.923 161.294 161.636 161.996 
162.339 162.705 163.055 163.435 163.79 164.15 164.488 164.789 165.098 
165.357 157.651 157.506 157.455 157.181 157.305 157.208 156.867 156.891 
156.611 157.358 157.067 156.62 156.516 156.201 156.273 156.024 157.594 
157.255 156.801 156.457 156.1 155.948 155.719 155.724 155.534 157.674 
157.459 157.088 156.768 156.428 156.105 155.86 155.626 155.475 155.379 
155.343 157.795 157.535 157.212 156.979 156.677 156.446 156.173 155.911 
155.707 155.505 155.499 155.433 155.609 158.216 157.827 157.527 157.171 
156.887 156.625 156.357 156.136 155.876 155.709 155.628 155.619 155.793 
155.848 156.075 158.693 158.338 158.07 157.648 157.375 156.97 156.725 
156.373 156.123 155.846 155.684 155.632 155.708 155.877 156.068 156.21 
156.308 159.024 158.765 158.531 158.191 157.929 157.536 157.3 156.894 
156.685 156.266 156.067 155.761 155.689 155.688 155.78 155.991 156.08 
156.254 156.259 
POINT_DATA 1002
SCALARS Distance double
LOOKUP_TABLE default
162.055 161.699 162.304 162.675 162.942 162.426 163.286 163.601 162.953 
162.834 163.875 164.294 163.419 163.26 163.263 164.49 164.986 163.936 
163.666 163.679 163.558 165.187 165.614 164.619 164.269 164.172 164.01 
163.745 165.914 166.137 165.412 165.012 164.846 164.602 164.263 164.081 
166.511 166.568 166.163 165.726 165.494 165.287 164.94 164.688 164.598 
166.937 166.996 166.762 166.431 166.131 165.932 165.652 165.366 165.223 
165.1 167.3 167.467 167.193 167.064 166.843 166.615 166.348 166.012 
165.783 165.675 165.518 161.724 162.322 161.81 162.416 162.073 162.945 
162.767 162.368 163.042 163.681 163.013 162.287 163.339 163.837 164.54 
162.683 161.919 163.298 163.976 164.731 165.284 162.241 161.769 162.827 
163.742 164.723 165.351 165.754 162.189 161.815 162.644 163.513 164.614 
165.324 165.681 166.115 162.238 161.738 162.796 163.62 164.681 165.454 
165.75 166.077 166.594 162.142 161.547 162.844 163.688 164.679 165.545 
165.959 166.217 166.707 167.219 161.804 162.559 162.307 163.11 162.896 
163.399 163.609 163.371 163.854 164.295 164.091 163.828 164.28 164.655 
165.238 164.608 164.328 164.836 165.075 165.515 165.935 164.984 164.739 
165.263 165.537 165.814 166.167 166.352 165.295 165.081 165.542 165.865 
166.144 166.462 166.836 166.927 165.71 165.4 166.01 166.358 166.635 
166.879 167.32 167.688 167.592 166.06 165.611 166.505 166.956 167.274 
167.391 167.632 168.07 168.224 167.912 167.737 168.123 167.793 168.249 
167.912 167.714 167.973 167.775 167.626 167.767 167.726 167.564 167.478 
167.808 168.105 167.735 167.604 167.494 167.845 168.267 168.449 167.576 
167.601 167.53 167.868 168.221 168.42 168.655 167.097 167.225 167.208 
167.603 168.012 168.151 168.481 168.954 166.538 166.711 166.712 167.068 
167.611 167.849 168.157 168.791 169.275 165.997 166.234 166.33 166.611 
167.144 167.526 167.816 168.392 169.021 169.291 167.533 167.683 167.497 
167.702 167.663 167.432 167.763 167.535 167.513 167.244 168.084 167.543 
167.361 167.373 167.005 168.504 167.993 167.577 167.477 167.227 166.644 
168.884 168.51 168.121 167.901 167.549 166.914 166.289 169.222 168.885 
168.559 168.401 168.094 167.414 166.68 166.139 169.34 169.149 168.924 
168.817 168.624 168.067 167.292 166.613 166.054 169.049 169.184 168.728 
169.181 168.6 169.259 169.162 168.293 169.535 169.27 168.518 167.504 
169.271 169.39 169.065 167.549 166.722 168.277 168.648 168.703 168.522 
166.862 166.17 167.442 167.678 167.766 167.898 167.768 166.179 165.542 
166.818 167.141 167.096 167.13 167.225 167.022 165.324 164.827 165.903 
166.445 166.641 166.606 166.62 166.557 166.322 164.585 164.203 164.964 
165.435 165.84 166.013 166.044 165.974 165.8 165.636 168.882 168.464 
168.21 167.793 167.529 168.09 167.251 166.938 167.536 167.894 166.686 
166.329 167.023 167.237 167.381 165.991 165.687 166.321 166.499 166.504 
166.552 165.272 165.022 165.548 165.693 165.661 165.695 165.915 164.532 
164.338 164.791 164.956 164.914 164.9 165.11 165.391 163.822 163.723 
164.024 164.221 164.226 164.155 164.256 164.515 164.742 163.221 163.202 
163.351 163.528 163.566 163.487 163.485 163.619 163.839 164.064 165.337 
165.654 165.003 165.363 164.793 165.925 165.248 164.743 165.773 166.228 
165.176 164.617 165.672 166.199 166.696 164.925 164.257 165.48 166.023 
166.634 167.152 164.553 163.889 165.213 165.795 166.416 167.028 167.491 
164.265 163.683 164.947 165.6 166.216 166.847 167.453 167.989 164.023 
163.489 164.669 165.351 165.991 166.615 167.244 167.917 168.577 165.06 
164.774 164.475 164.219 163.82 164.472 163.577 163.089 163.945 164.288 
162.783 162.347 163.274 163.723 164.189 161.991 161.651 162.478 163.038 
163.537 163.938 161.304 160.965 161.756 162.317 162.841 163.228 163.544 
160.645 160.279 161.12 161.628 162.097 162.504 162.887 163.285 160.028 
159.69 160.496 160.96 161.341 161.722 162.185 162.686 163.133 159.534 