# vtk DataFile Version 4.0
vtk output
ASCII
DATASET POLYDATA
POINTS 1002 float
-117.842 -99.1683 41.9991 -117.78 -98.9661 41.1891 -117.22 -98.9081 41.6244 
-117.315 -99.2118 42.4092 -116.686 -98.8836 42.0771 -117.888 -99.5139 42.7805 
-116.733 -99.3089 42.8091 -116.086 -99.0151 42.4328 -117.399 -99.6412 43.1928 
-117.875 -100.016 43.4971 -115.981 -99.5516 43.1584 -115.442 -99.2619 42.8271 
-116.752 -99.7384 43.6949 -117.375 -100.069 44.0618 -117.869 -100.415 44.3844 
-115.248 -99.7592 43.6225 -114.711 -99.4412 43.3357 -115.944 -99.8887 44.207 
-116.726 -100.023 44.7614 -117.346 -100.379 45.049 -117.937 -100.717 45.3366 
-114.63 -99.6887 44.2354 -113.846 -99.5536 43.7504 -115.273 -99.9464 44.7607 
-115.979 -100.116 45.339 -116.732 -100.375 45.6894 -117.388 -100.842 45.8514 
-117.995 -101.235 46.0538 -113.999 -99.6023 44.8197 -113.134 -99.7002 44.1467 
-114.711 -99.8631 45.3518 -115.236 -100.368 45.731 -115.945 -100.696 46.0576 
-116.755 -101.046 46.293 -117.419 -101.515 46.4883 -117.998 -101.86 46.7007 
-113.411 -99.7846 45.4157 -112.763 -99.7885 44.8319 -114.111 -99.9406 45.9309 
-114.506 -100.627 46.1097 -115 -101.257 46.2327 -115.909 -101.468 46.5653 
-116.797 -101.686 46.9656 -117.438 -102.018 47.2652 -118.029 -102.263 47.479 
-112.976 -100.018 46.1088 -112.546 -99.7343 45.6887 -113.614 -100.192 46.5448 
-114 -100.762 46.6574 -114.254 -101.57 46.5888 -114.982 -101.937 46.8129 
-116.04 -101.935 47.347 -116.875 -102.042 47.8344 -117.495 -102.276 48.1186 
-118.113 -102.473 48.2929 -112.698 -100.075 46.77 -112.354 -99.6268 46.3929 
-113.29 -100.357 47.1801 -113.766 -100.754 47.3578 -113.98 -101.432 47.2868 
-114.399 -102.009 47.3432 -115.282 -102.18 47.7349 -116.217 -102.201 48.245 
-116.94 -102.317 48.639 -117.576 -102.49 48.8936 -118.197 -102.638 49.0826 
-117.391 -98.6397 40.7968 -116.85 -98.5134 41.3052 -117.116 -98.0794 40.6639 
-116.579 -97.9604 41.1643 -116.823 -97.4142 40.5849 -116.303 -98.4652 41.7934 
-116.168 -97.3737 40.9908 -116.286 -96.8368 40.338 -115.986 -97.9187 41.6591 
-115.763 -98.5408 42.2476 -115.525 -96.8524 40.7051 -115.654 -96.2929 40.1109 
-115.491 -97.3557 41.5194 -115.449 -97.9076 42.2465 -115.115 -98.7214 42.7776 
-115.023 -96.2405 40.5968 -115.239 -95.532 40.1481 -114.961 -96.8415 41.4087 
-114.972 -97.3463 42.2278 -114.628 -98.1275 42.7506 -114.049 -99.0821 43.1206 
-114.829 -95.3819 40.7881 -115.063 -94.5928 40.3956 -114.708 -96.1873 41.4955 
-114.606 -96.8685 42.2366 -114.113 -97.6306 42.6398 -113.334 -98.6894 42.8175 
-112.957 -99.4942 43.2437 -114.771 -94.518 41.1521 -115.056 -93.8407 40.8106 
-114.548 -95.3241 41.6977 -114.347 -96.186 42.3047 -113.805 -97.0252 42.6359 
-112.976 -98.0103 42.736 -112.496 -98.9868 43.026 -112.531 -99.5617 43.7705 
-114.78 -93.9614 41.6352 -115.128 -93.421 41.3741 -114.354 -94.5622 41.9582 
-113.953 -95.3371 42.3511 -113.44 -96.2113 42.668 -112.795 -97.086 42.9055 
-112.458 -97.9296 43.2993 -112.495 -98.672 43.9588 -112.529 -99.276 44.7971 
-114.769 -93.6441 42.1427 -115.1 -93.1369 41.924 -114.233 -94.0923 42.3091 
-113.622 -94.6592 42.4815 -113.037 -95.4445 42.699 -112.508 -96.2854 43.0147 
-112.299 -96.9816 43.5635 -112.486 -97.5834 44.3216 -112.588 -98.2755 45.0738 
-112.426 -99.0247 45.7389 -114.709 -93.1448 42.4964 -114.252 -93.6315 42.6639 
-114.096 -93.0438 42.9392 -113.534 -93.5393 43.0925 -113.438 -92.9326 43.4084 
-113.585 -94.0989 42.7589 -112.861 -93.5101 43.6684 -112.968 -93.014 44.0873 
-112.946 -94.1797 43.2901 -112.921 -94.789 42.8974 -112.469 -93.6742 44.513 
-112.774 -93.3432 44.9475 -112.538 -94.3584 44.1405 -112.509 -95.0891 43.6199 
-112.368 -95.6851 43.1704 -112.368 -93.9965 45.4596 -112.704 -93.7137 45.9299 
-112.311 -94.542 45.148 -112.314 -95.2872 44.6676 -112.104 -95.9842 44.0118 
-112.054 -96.4543 43.6829 -112.371 -94.3428 46.4524 -112.599 -93.9616 47.0338 
-112.171 -94.7837 46.044 -112.039 -95.2811 45.6879 -111.905 -96.0082 45.033 
-111.884 -96.641 44.5317 -112.189 -97.0013 44.478 -112.4 -94.6797 47.4901 
-112.587 -94.2544 48.0149 -112.161 -95.1722 46.9407 -111.843 -95.4633 46.5993 
-111.662 -95.9385 46.1194 -111.693 -96.7583 45.4772 -111.997 -97.3091 45.2582 
-112.417 -97.6343 45.3114 -112.573 -95.1333 48.3288 -112.85 -94.7887 48.6089 
-112.317 -95.6565 47.8604 -111.961 -95.9742 47.5192 -111.673 -96.2184 47.2698 
-111.608 -96.926 46.7382 -111.752 -97.7637 46.1677 -112.05 -98.1601 45.998 
-112.316 -98.4639 45.9658 -112.917 -95.7103 48.8635 -113.291 -95.4437 48.9357 
-112.593 -96.1658 48.6089 -112.275 -96.5458 48.3433 -111.961 -96.7657 48.2476 
-111.725 -97.2435 48.0545 -111.657 -98.0744 47.4954 -111.777 -98.6869 46.9163 
-111.985 -98.935 46.6516 -112.169 -99.2177 46.5421 -112.418 -99.8558 47.1977 
-112.188 -99.5331 47.3388 -112.652 -100.083 48.1627 -111.943 -99.2911 47.6252 
-112.39 -99.7515 48.4641 -112.669 -100.515 49.2416 -111.679 -98.9631 48.1986 
-111.993 -99.4529 48.9546 -112.422 -100.102 49.6949 -112.48 -101.104 50.1397 
-111.657 -98.3154 48.8097 -111.631 -99.1098 49.5217 -112.029 -99.7277 50.2038 
-112.483 -100.529 50.6501 -112.779 -101.313 50.812 -111.978 -97.6341 49.033 
-111.792 -98.549 49.8178 -111.817 -99.3732 50.5957 -112.342 -100.066 51.1794 
-112.986 -100.654 51.4048 -113.537 -101.157 51.5771 -112.342 -97.2456 49.0082 
-112.288 -97.9268 49.8182 -112.145 -98.7514 50.7436 -112.32 -99.6049 51.564 
-112.909 -100.197 52.0028 -113.57 -100.667 52.2199 -114.034 -101.27 52.569 
-112.63 -96.9405 49.1125 -112.611 -97.488 49.8525 -112.565 -98.0388 50.7839 
-112.635 -98.8764 51.6685 -112.947 -99.7007 52.2809 -113.444 -100.269 52.6969 
-113.937 -100.885 53.1301 -114.289 -101.626 53.6068 -112.997 -96.532 49.2832 
-112.92 -97.1413 49.9685 -112.841 -97.5658 50.8469 -112.993 -98.1913 51.6261 
-113.331 -99.0667 52.1755 -113.649 -99.7823 52.7276 -113.948 -100.366 53.4008 
-114.305 -101.08 54.0178 -114.697 -101.783 54.452 -113.446 -96.1595 49.3308 
-113.409 -96.763 49.9927 -113.254 -97.2116 50.8512 -113.324 -97.7349 51.5936 
-113.733 -98.5098 52.0532 -114.121 -99.2587 52.5532 -114.27 -99.7926 53.3574 
-114.429 -100.375 54.1736 -114.785 -101.095 54.6949 -115.253 -101.723 54.9869 
-112.916 -100.291 47.6922 -113.004 -100.669 48.6793 -113.45 -100.683 48.0646 
-112.674 -101.366 49.5889 -113.282 -101.215 48.9605 -113.806 -101.156 48.1624 
-112.605 -101.873 50.2974 -113.03 -101.858 49.7693 -113.786 -101.576 49.088 
-114.175 -101.704 48.1914 -113.362 -101.736 51.0668 -113.513 -102.026 50.5987 
-114.116 -101.904 50.0502 -114.589 -101.901 49.2851 -114.844 -102.139 48.4084 
-114.091 -101.649 52.1143 -114.306 -101.914 51.6709 -114.801 -101.995 51.1466 
-115.163 -102.112 50.4141 -115.317 -102.348 49.5247 -115.664 -102.395 48.7612 
-114.345 -102.023 53.2527 -114.555 -102.213 52.8238 -115.091 -102.244 52.3177 
-115.573 -102.327 51.6245 -115.72 -102.574 50.6938 -115.942 -102.709 49.776 
-116.433 -102.544 49.1291 -114.712 -102.3 54.2282 -114.786 -102.601 53.825 
-115.179 -102.672 53.3107 -115.777 -102.626 52.7383 -116.146 -102.676 51.9699 
-116.353 -102.827 50.9958 -116.715 -102.826 50.125 -117.177 -102.646 49.4785 
-115.357 -102.245 54.9257 -115.457 -102.623 54.6539 -115.721 -102.841 54.1586 
-116.212 -102.873 53.6287 -116.685 -102.794 53.0852 -116.976 -102.792 52.3105 
-117.231 -102.856 51.3748 -117.549 -102.831 50.5285 -117.884 -102.729 49.7865 
-115.953 -101.968 55.376 -116.16 -102.401 55.4021 -116.628 -102.245 55.922 
-116.907 -102.684 55.9805 -117.217 -102.599 56.6456 -116.447 -102.742 55.1037 
-117.555 -103.129 56.474 -118.014 -102.92 57.0875 -117.301 -103.062 55.5665 
-116.848 -102.978 54.5483 -118.454 -103.518 56.5142 -119.067 -103.169 56.8957 
-117.898 -103.595 55.81 -117.643 -103.359 54.9347 -117.265 -103.033 54.0168 
-119.493 -103.869 56.178 -119.827 -103.368 56.36 -118.692 -104.173 55.7154 
-118.116 -104.037 55.0973 -117.929 -103.491 54.323 -117.598 -102.967 53.4036 
-120.137 -104.127 55.8138 -120.219 -103.307 55.8609 -119.635 -104.7 55.5312 
-118.903 -104.735 55.077 -118.465 -104.157 54.4215 -118.265 -103.363 53.5762 
-117.86 -102.911 52.5437 -120.593 -103.882 55.5031 -120.794 -102.888 55.4881 
-120.329 -104.721 55.3463 -119.876 -104.967 55.0188 -119.334 -104.472 54.4709 
-118.903 -103.642 53.6853 -118.548 -103.05 52.721 -118.088 -102.866 51.6133 
-121.302 -103.235 55.2036 -121.643 -102.43 55.2117 -120.951 -104.022 55.047 
-120.606 -104.427 54.7654 -120.206 -104.17 54.3658 -119.694 -103.507 53.744 
-119.175 -103.001 52.855 -118.745 -102.846 51.782 -118.327 -102.823 50.694 
-122.098 -102.73 54.87 -122.389 -102.187 54.9217 -121.681 -103.219 54.6381 
-121.22 -103.556 54.265 -120.822 -103.564 53.8742 -120.422 -103.244 53.426 
-119.91 -102.917 52.727 -119.401 -102.82 51.7554 -118.999 -102.837 50.7048 
-118.614 -102.784 49.7842 -115.523 -101.28 55.1626 -116.286 -101.616 55.5061 
-115.843 -100.82 55.2745 -116.758 -101.153 55.6491 -116.247 -100.388 55.3414 
-116.988 -101.906 56.1746 -117.261 -100.613 55.793 -116.626 -99.9941 55.1721 
-117.538 -101.294 56.4209 -117.634 -102.147 57.004 -117.529 -100.124 55.624 
-116.952 -99.4836 54.791 -117.944 -100.663 56.442 -118.076 -101.5 57.0192 
-118.436 -102.447 57.2453 -117.712 -99.5405 55.1657 -117.32 -98.6666 54.6083 
-118.106 -100.232 55.9332 -118.281 -101.04 56.4584 -118.543 -102.002 56.7485 
-119.204 -102.758 56.7472 -118.043 -98.7251 54.8021 -117.711 -97.7762 54.6186 
-118.381 -99.7145 55.1705 -118.567 -100.655 55.5635 -118.646 -101.586 55.8543 
-119.044 -102.282 56.0949 -119.713 -102.753 56.1008 -118.426 -97.9777 54.5246 
-118.101 -97.2293 54.3719 -118.767 -98.9858 54.5947 -119.067 -99.979 54.8427 
-119.194 -100.863 55.1938 -119.349 -101.532 55.4999 -119.798 -101.939 55.6544 
-120.358 -102.344 55.6194 -118.778 -97.5435 54.1014 -118.503 -97.0411 53.7751 
-119.096 -98.2987 54.2162 -119.483 -99.1216 54.4064 -119.83 -99.88 54.8124 
-120.086 -100.542 55.1911 -120.418 -101.021 55.3433 -120.873 -101.403 55.336 
-121.309 -101.887 55.2922 -119.076 -97.3161 53.5201 -118.831 -96.949 53.0847 
-119.397 -97.797 53.8388 -119.807 -98.3675 54.0879 -120.237 -98.9805 54.4191 
[...]
CELL_DATA 2000
SCALARS Distance double
LOOKUP_TABLE default
158.273 157.98 158.317 158.708 157.71 158.049 158.481 158.804 159.205 
157.45 157.773 158.2 158.568 158.997 159.311 159.695 157.194 157.509 
157.888 158.256 158.683 159.055 159.458 159.783 160.173 156.846 157.216 
157.59 157.947 158.358 158.727 159.158 159.517 159.951 160.282 160.712 
156.479 156.845 157.269 157.643 158.073 158.431 158.873 159.232 159.705 
160.064 160.544 160.861 161.302 156.324 156.58 157.035 157.358 157.819 
158.16 158.607 158.962 159.435 159.819 160.318 160.685 161.146 161.447 
161.845 156.35 156.541 156.995 157.233 157.701 157.963 158.405 158.708 
159.166 159.538 160.038 160.435 160.911 161.256 161.66 161.949 162.306 
156.38 156.583 157.038 157.259 157.726 157.929 158.351 158.565 158.991 
159.29 159.776 160.152 160.643 161.005 161.428 161.738 162.104 162.384 
162.724 157.948 157.355 157.635 157.624 156.75 157.046 157.024 157.322 
157.338 156.022 156.398 156.39 156.719 156.735 157.056 157.104 155.17 
155.596 155.61 156.028 156.073 156.45 156.504 156.837 156.868 154.366 
154.757 154.812 155.239 155.341 155.756 155.816 156.186 156.17 156.518 
156.475 153.687 154.033 154.155 154.543 154.716 155.087 155.153 155.467 
155.402 155.734 155.663 156.054 156.059 153.194 153.451 153.588 153.946 
154.129 154.51 154.566 154.839 154.725 154.975 154.904 155.259 155.339 
155.747 155.911 152.991 153.105 153.181 153.408 153.482 153.845 153.844 
154.183 154.046 154.315 154.239 154.577 154.714 155.12 155.355 155.737 
155.96 152.938 152.999 152.998 153.066 152.999 153.189 153.114 153.406 
153.31 153.611 153.578 153.936 154.097 154.537 154.808 155.22 155.448 
155.805 155.992 152.88 152.622 152.838 152.894 152.193 152.467 152.538 
152.751 152.788 151.899 152.051 152.173 152.386 152.472 152.662 152.798 
151.985 151.917 152.091 152.194 152.427 152.492 152.65 152.766 152.986 
152.376 152.172 152.323 152.31 152.618 152.632 152.849 152.803 152.981 
153.048 153.339 152.838 152.631 152.731 152.628 152.834 152.837 153.03 
153.028 153.192 153.192 153.469 153.548 153.949 153.313 153.119 153.25 
153.07 153.187 153.054 153.177 153.149 153.351 153.396 153.711 153.785 
154.196 154.281 154.701 153.926 153.679 153.884 153.65 153.813 153.53 
153.662 153.44 153.701 153.639 154.046 154.074 154.504 154.553 154.94 
155.004 155.339 154.692 154.391 154.611 154.351 154.571 154.267 154.45 
154.127 154.389 154.183 154.589 154.514 154.941 154.904 155.254 155.241 
155.546 155.581 155.877 156.194 155.877 156.229 156.688 155.628 155.947 
156.398 156.788 157.303 155.38 155.717 156.137 156.499 156.996 157.41 
157.89 155.103 155.466 155.887 156.22 156.673 157.087 157.607 157.997 
158.454 154.938 155.246 155.718 155.996 156.443 156.788 157.332 157.738 
158.286 158.612 159.092 154.959 155.185 155.668 155.893 156.346 156.62 
157.152 157.521 158.103 158.462 158.99 159.293 159.795 155.041 155.245 
155.678 155.875 156.28 156.527 157.005 157.357 157.912 158.288 158.815 
159.158 159.667 160.001 160.522 155.1 155.309 155.731 155.896 156.259 
156.447 156.874 157.185 157.731 158.105 158.649 158.983 159.481 159.822 
160.34 160.706 161.218 155.191 155.379 155.832 155.975 156.342 156.463 
156.856 157.08 157.618 157.958 158.548 158.865 159.368 159.65 160.117 
160.466 160.959 161.345 161.811 156.524 157.057 156.927 157.238 157.664 
157.517 157.823 157.675 157.941 158.206 158.086 158.35 158.234 158.474 
158.331 158.537 158.73 158.588 158.839 158.72 158.975 158.846 159.084 
158.918 159.158 159.372 159.169 159.469 159.281 159.618 159.43 159.758 
159.54 159.841 159.625 159.943 160.112 159.89 160.241 160.023 160.425 
160.208 160.596 160.334 160.658 160.383 160.69 160.466 160.79 160.87 
160.665 161.013 160.81 161.193 161.025 161.406 161.195 161.487 161.212 
161.457 161.209 161.476 161.28 161.556 161.592 161.427 161.772 161.563 
161.901 161.734 162.099 161.939 162.242 162.001 162.225 161.955 162.186 
161.954 162.205 162.002 162.241 162.21 162.119 162.495 162.313 162.655 
162.453 162.823 162.637 162.993 162.758 163.031 162.738 162.97 162.688 
162.925 162.674 162.898 162.668 162.871 162.648 163.46 163.049 162.987 
164.332 163.901 163.869 163.367 163.217 165.231 164.795 164.789 164.294 
164.181 163.606 163.416 166.11 165.697 165.665 165.192 165.088 164.572 
164.387 163.805 163.568 166.83 166.553 166.539 166.064 165.934 165.431 
165.253 164.724 164.465 163.891 163.589 167.182 167.16 167.297 166.953 
166.872 166.327 166.128 165.557 165.286 164.723 164.395 163.834 163.509 
167.242 167.375 167.635 167.58 167.604 167.24 167.006 166.438 166.06 
165.48 165.087 164.565 164.211 163.715 163.414 167.337 167.413 167.635 
167.724 167.759 167.695 167.445 167.12 166.637 166.144 165.628 165.151 
164.747 164.329 164.017 163.599 163.334 167.569 167.551 167.658 167.665 
167.61 167.614 167.363 167.257 166.826 166.53 166.026 165.617 165.195 
164.802 164.502 164.135 163.886 163.503 163.271 162.513 162.518 162.793 
163.339 162.559 162.839 163.435 163.66 164.212 162.589 162.911 163.525 
163.769 164.334 164.552 165.108 162.455 162.872 163.466 163.797 164.312 
164.605 165.148 165.433 165.969 162.162 162.621 163.178 163.606 164.066 
164.441 164.891 165.305 165.799 166.179 166.597 161.854 162.271 162.801 
163.248 163.723 164.114 164.509 164.912 165.306 165.779 166.138 166.576 
166.831 161.639 161.973 162.468 162.879 163.383 163.78 164.211 164.549 
164.907 165.262 165.586 165.99 166.263 166.666 166.884 161.541 161.793 
162.231 162.572 163.044 163.444 163.905 164.274 164.672 164.967 165.309 
165.575 165.896 166.181 166.493 166.793 167.074 161.484 161.701 162.077 
162.354 162.768 163.116 163.552 163.94 164.36 164.722 165.094 165.386 
165.72 165.965 166.298 166.542 166.876 167.109 167.39 155.453 156.052 
155.864 156.056 156.558 156.399 156.556 156.4 156.545 157.089 156.885 
157.048 156.877 157.06 156.883 157.074 157.808 157.533 157.732 157.452 
157.683 157.462 157.754 157.543 157.864 158.534 158.333 158.601 158.275 
158.489 158.178 158.479 158.276 158.653 158.452 158.796 159.117 159.001 
159.33 159.131 159.342 159.025 159.216 158.981 159.294 159.17 159.501 
159.328 159.583 159.748 159.565 159.874 159.755 160.025 159.81 159.987 
159.71 159.938 159.758 160.073 159.94 160.224 160.039 160.291 160.478 
160.23 160.469 160.296 160.587 160.435 160.716 160.483 160.763 160.496 
160.835 160.592 160.94 160.705 161.025 160.796 161.115 161.122 160.922 
161.124 160.919 161.183 161.024 161.361 161.205 161.588 161.38 161.786 
161.509 161.895 161.569 161.91 161.602 161.929 161.671 161.98 155.151 
155.026 155.33 155.82 155.039 155.27 155.746 155.992 156.383 155.05 
155.26 155.668 155.924 156.318 156.531 156.91 155.056 155.207 155.553 
155.804 156.203 156.461 156.864 157.1 157.553 155.257 155.27 155.597 
155.73 156.147 156.369 156.801 157.037 157.464 157.744 158.2 155.544 
155.539 155.847 155.892 156.308 156.431 156.881 157.029 157.451 157.649 
158.088 158.359 158.809 155.626 155.729 155.993 156.116 156.504 156.65 
157.09 157.198 157.614 157.719 158.176 158.346 158.861 159.053 159.545 
155.594 155.719 155.991 156.161 156.556 156.775 157.236 157.404 157.825 
157.927 158.365 158.509 159.032 159.214 159.743 159.882 160.334 155.719 
155.768 156.101 156.199 156.629 156.814 157.322 157.523 157.997 158.13 
158.551 158.683 159.135 159.341 159.816 160.037 160.458 160.617 160.962 
155.99 156.645 156.333 156.395 157.326 157.029 157.122 156.799 156.934 
158.019 157.724 157.87 157.564 157.727 157.419 157.621 158.846 158.491 
158.659 158.334 158.536 158.235 158.441 158.135 158.308 159.756 159.391 
159.563 159.187 159.385 159.06 159.281 158.963 159.12 158.772 158.881 
160.577 160.273 160.443 160.098 160.267 159.93 160.134 159.811 159.964 
159.592 159.671 159.309 159.431 161.278 161.017 161.169 160.898 161.049 
160.762 160.938 160.647 160.795 160.436 160.488 160.096 160.172 159.869 
160.05 161.907 161.661 161.79 161.559 161.713 161.474 161.634 161.385 
161.533 161.234 161.304 160.918 160.954 160.601 160.734 160.486 160.674 
162.463 162.239 162.351 162.148 162.317 162.114 162.282 162.042 162.174 
161.914 162.02 161.709 161.775 161.407 161.492 161.172 161.319 161.069 
161.198 162.766 163.146 162.858 162.667 163.541 163.264 163.147 162.838 
162.691 164.059 163.739 163.702 163.388 163.292 162.905 162.699 164.724 
164.359 164.331 163.995 163.894 163.506 163.259 162.839 162.554 165.4 
165.045 164.954 164.605 164.428 164.053 163.756 163.349 163.029 162.654 
162.379 166.053 165.687 165.541 165.163 164.916 164.529 164.215 163.817 
163.517 163.136 162.875 162.494 162.2 166.723 166.333 166.163 165.736 
165.478 165.035 164.738 164.306 164.03 163.639 163.391 163.008 162.716 
162.29 161.95 167.248 166.932 166.706 166.327 166.049 165.627 165.331 
164.885 164.585 164.163 163.869 163.488 163.17 162.782 162.434 162.028 
161.717 167.462 167.273 166.968 166.717 166.382 166.093 165.765 165.425 
165.088 164.695 164.338 163.935 163.567 163.184 162.82 162.458 162.128 
161.793 161.525 162.941 163.329 163.215 163.328 163.66 163.607 163.765 
163.6 163.695 163.902 163.891 164.13 164.058 164.198 164 164.166 
164.163 164.082 164.331 164.39 164.674 164.554 164.73 164.54 164.798 
164.561 164.353 164.518 164.576 164.965 165.004 165.266 165.112 165.301 
165.177 165.459 164.927 164.737 164.798 164.786 165.146 165.266 165.606 
165.567 165.734 165.622 165.845 165.806 166.113 164.987 164.976 164.994 
165.007 165.273 165.423 165.796 165.858 166.085 166 166.217 166.174 
166.519 166.497 166.827 164.787 164.927 165.026 165.105 165.341 165.496 
165.875 166.024 166.349 166.348 166.608 166.562 166.909 166.909 167.274 
167.213 167.426 164.579 164.768 165.03 165.147 165.443 165.557 165.909 
166.072 166.422 166.551 166.837 166.896 167.174 167.233 167.522 167.562 
167.747 167.671 167.682 162.736 162.427 162.76 163.079 161.991 162.385 
162.723 163.083 163.388 161.48 161.918 162.325 162.736 163.154 163.444 
163.729 160.902 161.378 161.825 162.334 162.896 163.304 163.774 163.908 
164.162 160.331 160.798 161.196 161.747 162.283 162.924 163.521 163.964 
164.373 164.438 164.646 159.779 160.249 160.618 161.098 161.501 162.135 
162.659 163.405 163.917 164.443 164.741 164.879 164.984 159.145 159.656 
160.033 160.525 160.904 161.401 161.83 162.454 162.941 163.658 164.052 
164.608 164.758 164.994 164.949 158.513 158.983 159.327 159.866 160.269 
160.815 161.257 161.775 162.2 162.742 163.097 163.691 163.898 164.409 
164.411 164.715 164.612 158.041 158.407 158.712 159.163 159.533 160.1 
160.549 161.159 161.574 162.097 162.367 162.825 162.982 163.463 163.543 
163.981 163.973 164.301 164.287 157.933 158.024 158.179 158.593 158.139 
158.307 158.737 158.868 159.359 158.238 158.433 158.897 159.033 159.509 
159.703 160.326 158.321 158.518 158.987 159.171 159.634 159.835 160.411 
160.707 161.346 158.411 158.586 159.025 159.228 159.685 159.907 160.41 
160.713 161.278 161.615 162.112 158.522 158.688 159.12 159.282 159.731 
159.932 160.424 160.68 161.205 161.5 161.982 162.259 162.67 158.6 
158.806 159.265 159.414 159.84 159.996 160.491 160.719 161.307 161.537 
162.085 162.236 162.666 162.824 163.217 158.572 158.837 159.297 159.519 
159.92 160.093 160.536 160.778 161.391 161.693 162.337 162.5 162.959 
162.974 163.294 163.378 163.697 158.488 158.751 159.175 159.456 159.848 
160.091 160.49 160.762 161.3 161.686 162.318 162.668 163.141 163.269 
163.519 163.529 163.741 163.825 164.087 158.598 158.995 158.928 159.241 
159.458 159.343 159.619 159.584 159.91 159.97 159.838 160.127 160.023 
160.368 160.29 160.627 160.488 160.374 160.717 160.602 160.988 160.858 
161.251 161.099 161.5 161.021 160.906 161.261 161.187 161.583 161.499 
161.878 161.761 162.158 162.049 162.482 161.592 161.46 161.79 161.707 
162.083 162.034 162.381 162.309 162.619 162.585 162.938 162.944 163.253 
162.142 162.033 162.36 162.249 162.613 162.53 162.9 162.8 163.113 
163.004 163.304 163.272 163.554 163.529 163.667 162.619 162.557 162.901 
162.812 163.156 163.067 163.424 163.339 163.704 163.578 163.931 163.766 
164.081 163.9 164.1 163.892 163.956 163.035 163.007 163.358 163.313 
163.631 163.562 163.84 163.79 164.091 164.089 164.461 164.429 164.801 
164.617 164.86 164.523 164.616 164.257 164.305 164.601 165 164.938 
165.177 165.339 165.386 165.672 165.525 165.673 165.237 165.532 165.812 
165.905 166.036 165.951 166.073 164.752 165.156 165.366 165.726 165.873 
166.089 166.241 166.309 166.497 164.339 164.628 164.84 165.174 165.424 
165.762 166.054 166.316 166.615 166.728 166.939 164.155 164.353 164.659 
164.857 165.238 165.472 165.887 166.131 166.514 166.736 167.046 167.138 
167.313 163.984 164.23 164.571 164.801 165.201 165.44 165.843 166.057 
166.379 166.591 166.873 167.106 167.362 167.477 167.627 163.703 164.011 
164.316 164.63 164.954 165.294 165.633 165.943 166.225 166.446 166.682 
166.896 167.158 167.39 167.613 167.734 167.814 163.368 163.686 163.971 
164.293 164.574 164.921 165.241 165.613 165.976 166.277 166.623 166.806 
167.114 167.252 167.496 167.625 167.731 167.799 167.744 152.816 152.853 
152.74 152.537 153.065 152.838 152.656 152.469 152.332 153.618 153.253 
153.144 152.774 152.694 152.44 152.54 154.373 153.972 153.974 153.513 
153.532 153.085 153.252 152.963 153.323 155.204 154.798 154.869 154.447 
154.566 154.113 154.321 153.908 154.244 153.949 154.351 156.06 155.667 
155.758 155.366 155.543 155.165 155.404 155.012 155.26 154.905 155.177 
154.918 155.214 156.816 156.502 156.621 156.27 156.471 156.137 156.398 
156.043 156.249 155.858 156.024 155.699 155.924 155.698 155.981 157.461 
157.218 157.392 157.109 157.323 157.035 157.286 156.982 157.188 156.809 
156.957 156.563 156.766 156.452 156.737 156.492 156.787 158.077 157.871 
158.102 157.867 158.1 157.839 158.056 157.79 157.98 157.681 157.846 
157.501 157.695 157.355 157.603 157.3 157.552 157.286 157.512 152.685 
152.427 152.498 152.309 152.256 152.282 152.206 152.163 152.034 152.456 
152.278 152.297 152.199 152.215 152.093 152.19 153.169 152.723 152.712 
152.463 152.534 152.384 152.538 152.466 152.749 154.151 153.594 153.489 
153.051 153.066 152.797 152.924 152.815 153.065 153.071 153.382 155.045 
154.55 154.421 153.917 153.892 153.478 153.598 153.313 153.532 153.393 
153.664 153.647 153.923 155.84 155.389 155.299 154.826 154.811 154.381 
154.529 154.16 154.407 154.065 154.304 154.043 154.277 154.174 154.429 
156.633 156.197 156.128 155.68 155.658 155.261 155.377 155.075 155.313 
155.014 155.233 154.865 155.027 154.7 154.89 154.722 154.956 157.355 
156.974 156.91 156.499 156.459 156.065 156.108 155.817 155.977 155.776 
155.964 155.719 155.843 155.518 155.631 155.33 155.502 155.296 155.5 
152.723 152.298 152.525 152.467 151.958 152.076 152.051 152.214 152.096 
152.104 151.931 151.935 151.937 151.971 151.966 151.911 152.702 152.332 
152.31 152.086 152.225 152.107 152.229 152.037 152.093 153.381 153.022 
152.932 152.59 152.652 152.51 152.736 152.572 152.698 152.411 152.507 
153.972 153.694 153.643 153.24 153.182 152.936 153.12 153.061 153.272 
153.073 153.108 152.829 152.905 154.497 154.291 154.388 154.018 154.004 
153.572 153.663 153.457 153.706 153.58 153.688 153.415 153.399 153.168 
153.295 154.97 154.803 154.972 154.763 154.868 154.479 154.515 154.132 
154.275 154.055 154.234 153.992 154.05 153.729 153.814 153.611 153.876 
155.43 155.24 155.355 155.255 155.4 155.223 155.263 154.944 154.943 
154.657 154.758 154.554 154.696 154.433 154.567 154.268 154.497 154.308 
154.658 162.432 161.856 162.157 162.128 161.183 161.514 161.471 161.783 
161.689 160.418 160.763 160.672 161.049 160.957 161.285 161.149 159.574 
159.932 159.792 160.186 160.085 160.479 160.351 160.693 160.548 158.68 
159.043 158.9 159.291 159.187 159.586 159.464 159.836 159.687 160.057 
159.945 157.858 158.163 158.019 158.393 158.292 158.694 158.566 158.937 
158.765 159.144 159.007 159.438 159.355 157.179 157.417 157.249 157.547 
157.422 157.792 157.654 158.026 157.833 158.201 158.031 158.457 158.358 
158.824 158.738 156.529 156.768 156.596 156.84 156.7 156.984 156.853 
157.153 156.978 157.287 157.114 157.49 157.39 157.832 157.778 158.218 
158.156 155.876 156.104 155.934 156.187 156.057 156.325 156.225 156.469 
156.331 156.541 156.375 156.639 156.533 156.908 156.877 157.306 157.298 
157.708 157.701 
POINT_DATA 1002
SCALARS Distance double
LOOKUP_TABLE default
158.641 158.258 157.922 158.388 157.633 159.097 158.128 157.369 158.927 
159.593 157.824 157.159 158.651 159.413 160.079 157.547 156.878 158.296 
159.104 159.859 160.582 157.224 156.436 158 158.782 159.59 160.405 
161.149 156.878 156.126 157.708 158.514 159.326 160.199 161.03 161.727 
156.74 156.109 157.491 158.26 159.049 159.932 160.825 161.584 162.227 
156.776 156.166 157.471 158.142 158.816 159.635 160.548 161.359 162.037 
162.657 156.808 156.167 157.532 158.176 158.738 159.42 160.275 161.108 
161.818 162.459 163.056 157.666 157.32 157.08 156.739 156.431 157.015 
156.026 155.611 156.406 156.786 155.152 154.747 155.654 156.16 156.568 
154.373 153.979 154.914 155.455 155.833 156.112 153.749 153.335 154.345 
154.892 155.115 155.262 155.616 153.271 152.979 153.748 154.296 154.511 
154.551 154.902 155.499 153.068 152.928 153.206 153.494 153.745 153.885 
154.281 154.961 155.606 153.004 152.884 152.925 152.868 152.982 153.206 
153.643 154.371 155.096 155.645 152.754 152.756 152.359 152.286 151.935 
152.573 151.934 151.831 152.3 152.546 151.989 152.138 152.352 152.633 
152.773 152.39 152.603 152.591 152.914 153.005 153.168 152.901 153.011 
152.904 153.009 153.17 153.404 153.836 153.445 153.484 153.406 153.252 
153.271 153.615 154.115 154.638 154.109 154.186 154.1 153.934 153.801 
154.034 154.492 154.906 155.279 154.879 155.01 154.846 154.769 154.649 
154.718 155.019 155.315 155.542 155.819 156.597 156.271 157.199 156.029 
156.895 157.816 155.809 156.575 157.521 158.336 155.575 156.279 157.167 
158.135 158.892 155.447 156.135 156.918 157.913 158.811 159.573 155.459 
156.099 156.808 157.732 158.663 159.496 160.317 155.509 156.068 156.676 
157.534 158.47 159.314 160.191 161.061 155.575 156.112 156.6 157.349 
158.313 159.165 159.964 160.867 161.728 155.685 156.239 156.678 157.292 
158.214 159.118 159.821 160.568 161.442 162.262 157.376 157.978 158.117 
158.467 158.608 158.7 158.963 159.088 159.233 159.319 159.652 159.795 
159.972 160.07 160.137 160.448 160.624 160.859 160.96 160.944 160.99 
161.233 161.36 161.595 161.767 161.735 161.694 161.744 161.988 162.095 
162.248 162.456 162.503 162.438 162.426 162.447 162.641 162.857 163.015 
163.208 163.317 163.274 163.201 163.15 163.1 163.04 163.465 163.875 
164.364 164.757 163.78 165.266 165.67 164.738 164.026 166.157 166.506 
165.574 164.955 164.181 166.998 166.988 166.464 165.766 165.038 164.177 
167.495 167.064 167.4 166.753 165.867 164.955 164.053 167.567 167.096 
167.846 167.569 166.697 165.619 164.688 163.894 167.58 167.337 167.76 
167.672 167.097 166.119 165.149 164.406 163.754 167.737 167.635 167.659 
167.413 167.006 166.377 165.585 164.853 164.249 163.658 162.237 163.102 
162.217 163.199 162.26 164.006 163.275 162.232 164.104 164.896 163.11 
162.024 164.014 164.818 165.732 162.731 161.731 163.694 164.491 165.365 
166.3 162.353 161.479 163.32 164.157 164.881 165.673 166.442 162.087 
161.351 162.965 163.865 164.611 165.233 165.855 166.493 161.942 161.332 
162.664 163.504 164.347 165.059 165.639 166.197 166.792 161.831 161.29 
162.458 163.181 163.971 164.762 165.462 166.062 166.637 167.2 155.665 
156.245 156.249 156.705 156.72 156.719 157.229 157.319 157.21 157.252 
158.053 158.052 157.916 157.924 158.087 158.894 158.657 158.857 158.695 
158.818 159.057 159.454 159.243 159.645 159.524 159.431 159.636 159.811 
160 160.003 160.169 160.262 160.176 160.209 160.375 160.487 160.689 
160.745 160.719 160.875 161.012 161.104 161.193 161.254 161.334 154.778 
155.547 154.754 155.511 154.854 156.181 155.416 154.881 156.081 156.694 
155.326 154.964 155.918 156.611 157.289 155.521 155.286 155.947 156.579 
157.213 157.892 155.811 155.536 156.21 156.769 157.297 157.844 158.529 
155.842 155.501 156.329 156.974 157.529 158.018 158.667 159.39 155.817 
155.467 156.315 157.024 157.71 158.237 158.843 159.587 160.255 156.02 
155.669 156.467 157.105 157.837 158.445 158.971 159.593 160.27 160.851 