# vtk DataFile Version 4.0
vtk output
ASCII
DATASET POLYDATA
POINTS 1002 float
-119.417 -100.515 43.5989 -119.453 -100.514 42.6891 -118.849 -100.474 42.9371 
-118.834 -100.425 43.9891 -118.253 -100.508 43.2355 -119.413 -100.51 44.5645 
-118.19 -100.478 44.3188 -117.548 -100.587 43.5778 -118.831 -100.501 44.9477 
-119.412 -100.944 45.1922 -117.344 -100.651 44.6089 -116.761 -100.548 44.0702 
-118.007 -100.79 45.1091 -118.75 -101.136 45.4216 -119.333 -101.624 45.6199 
-116.504 -100.736 45.0508 -116.074 -100.433 44.6539 -116.995 -101.2 45.2585 
-117.726 -101.599 45.4848 -118.542 -101.826 45.8987 -119.092 -101.933 46.4702 
-115.811 -100.789 45.5158 -115.407 -100.498 45.0658 -116.216 -101.342 45.6767 
-116.744 -101.915 45.7607 -117.543 -102.054 46.2444 -118.285 -101.956 47.0366 
-118.785 -102.022 47.7086 -115.036 -101.085 45.712 -114.696 -100.738 45.3111 
-115.553 -101.395 46.0947 -116.102 -101.85 46.3324 -116.772 -102.083 46.7955 
-117.531 -101.931 47.6469 -118.123 -101.95 48.3821 -118.611 -102.283 48.7622 
-114.313 -101.457 45.82 -114.191 -100.84 45.6598 -114.76 -101.701 46.2682 
-115.423 -101.833 46.8164 -116.14 -102.045 47.3828 -116.905 -102.039 48.1637 
-117.561 -101.968 48.9222 -118.07 -102.208 49.3373 -118.588 -102.559 49.573 
-113.966 -101.453 46.1978 -113.967 -100.644 46.1979 -114.176 -101.937 46.51 
-114.707 -102.034 47.1439 -115.425 -102.129 47.8256 -116.227 -102.281 48.5329 
-116.968 -102.31 49.2446 -117.529 -102.379 49.7414 -118.042 -102.572 50.0709 
-118.598 -102.723 50.4137 -113.89 -101.032 46.8366 -113.826 -100.305 46.7894 
-113.977 -101.705 47.0703 -114.273 -102.067 47.5996 -114.824 -102.224 48.2254 
-115.562 -102.42 48.8295 -116.335 -102.631 49.4478 -116.966 -102.768 49.9774 
-117.49 -102.848 50.4033 -118.038 -102.879 50.8555 -118.597 -102.881 51.3151 
-119.126 -100.249 42.0709 -118.46 -100.299 42.2476 -118.763 -99.8981 41.5128 
-117.976 -100.017 41.6847 -118.24 -99.7217 40.9664 -117.758 -100.456 42.5029 
-117.428 -99.7594 41.2589 -117.631 -99.4719 40.594 -117.215 -100.194 41.9868 
-116.988 -100.538 42.9062 -117.074 -99.2558 41.0996 -117.274 -98.6739 40.5411 
-116.849 -99.6998 41.7612 -116.519 -100.217 42.4572 -116.269 -100.409 43.4926 
-116.985 -98.3696 41.179 -117.171 -97.6464 40.5333 -116.733 -98.9186 41.8473 
-116.278 -99.5736 42.3201 -115.859 -100.118 42.9914 -115.639 -100.271 44.0704 
-116.832 -97.5388 41.235 -116.983 -96.9049 40.5005 -116.567 -98.1252 41.9806 
-116.054 -98.7959 42.3896 -115.468 -99.5965 42.7198 -115.162 -100.041 43.5054 
-114.986 -100.252 44.5543 -116.529 -96.9072 41.3602 -116.727 -96.3413 40.7818 
-116.217 -97.5356 41.9666 -115.729 -98.1712 42.3757 -115.096 -98.9652 42.651 
-114.666 -99.6255 43.1979 -114.56 -99.8706 44.1747 -114.437 -100.192 45.1102 
-116.3 -96.2805 41.7094 -116.599 -95.7831 41.3307 -115.889 -96.9295 42.0289 
-115.441 -97.5901 42.3111 -114.935 -98.2891 42.6877 -114.43 -99.0275 43.2146 
-114.187 -99.4343 44.0065 -114.168 -99.6016 44.9893 -114.1 -100.016 45.7574 
-116.153 -95.6738 42.056 -116.503 -95.2703 41.7658 -115.678 -96.2479 42.2362 
-115.221 -96.8987 42.4066 -114.865 -97.5315 42.8356 -114.47 -98.2508 43.4658 
-114.046 -98.8978 44.0872 -113.828 -99.2079 44.8312 -113.81 -99.4241 45.685 
-113.821 -99.8266 46.3492 -116.028 -95.0008 42.1386 -115.587 -95.4771 42.3798 
-115.34 -94.7838 42.4279 -114.995 -95.3958 42.7632 -114.812 -94.7104 43.0343 
-115.101 -96.1031 42.585 -114.661 -95.4381 43.5237 -114.577 -94.7522 44.0208 
-114.638 -96.0657 43.2118 -114.727 -96.7314 43.0107 -114.421 -95.5226 44.4822 
-114.335 -94.8932 44.9828 -114.309 -96.167 44.053 -114.253 -96.7119 43.8845 
-114.42 -97.4053 43.7429 -114.079 -95.7262 45.3481 -114.148 -95.2786 45.6971 
-113.934 -96.3236 44.8618 -113.703 -96.8714 44.5819 -113.76 -97.4554 44.5378 
-113.961 -98.2022 44.3662 -113.888 -96.1218 46.1677 -114.235 -95.801 46.3604 
-113.566 -96.5074 45.7841 -113.205 -96.9578 45.2893 -113.013 -97.5287 45.0154 
-113.162 -98.229 44.9159 -113.485 -98.8291 44.8453 -113.855 -96.4289 47.0668 
-114.331 -96.11 47.176 -113.297 -96.6662 46.8805 -112.843 -96.9019 46.4117 
-112.571 -97.3845 45.8379 -112.511 -98.1573 45.4696 -112.769 -98.8413 45.4068 
-113.298 -99.177 45.5615 -113.811 -96.5179 47.9767 -114.288 -96.225 48.0413 
-113.138 -96.7434 47.8979 -112.587 -96.9016 47.6019 -112.393 -97.2568 47.0551 
-112.35 -98.0173 46.4985 -112.392 -98.8609 46.2009 -112.766 -99.3106 46.2411 
-113.37 -99.4862 46.3905 -113.861 -96.6471 48.6964 -114.31 -96.4164 48.7245 
-113.233 -96.8974 48.6406 -112.653 -97.1278 48.4504 -112.437 -97.4493 48.0924 
-112.467 -98.079 47.6652 -112.45 -98.9201 47.2986 -112.558 -99.4996 47.1107 
-113 -99.6671 47.0935 -113.525 -99.8334 47.0351 -113.769 -100.328 47.4855 
-113.422 -99.9632 47.769 -113.752 -100.361 48.3906 -112.915 -99.9132 47.965 
-113.366 -100.168 48.6986 -113.741 -100.59 49.3884 -112.588 -99.7196 48.2102 
-112.815 -100.128 49.084 -113.288 -100.446 49.7473 -113.82 -100.893 50.2933 
-112.604 -99.1007 48.4879 -112.479 -99.7854 49.5271 -112.605 -100.173 50.3124 
-113.331 -100.593 50.6986 -114.131 -101.004 51.0866 -112.724 -98.4021 48.6831 
-112.66 -99.223 49.7047 -112.289 -99.6277 50.7762 -112.7 -100.074 51.2585 
-113.777 -100.614 51.4517 -114.558 -101.088 51.9195 -112.861 -97.9143 48.8568 
-113.12 -98.7901 49.5823 -112.752 -99.1916 50.7163 -112.617 -99.4874 51.5323 
-113.503 -100.107 51.8288 -114.456 -100.761 52.2279 -114.827 -101.363 52.9023 
-113.208 -97.5328 49.0468 -113.508 -98.3876 49.509 -113.466 -98.8878 50.4014 
-113.184 -99.0708 51.3821 -113.609 -99.5633 51.9731 -114.47 -100.294 52.4855 
-114.888 -100.956 53.2099 -114.98 -101.608 53.93 -113.734 -97.1763 49.166 
-113.834 -97.8975 49.5767 -113.882 -98.4195 50.2792 -113.758 -98.6185 51.2302 
-113.929 -99.0144 52.0052 -114.486 -99.7329 52.6587 -114.902 -100.39 53.4321 
-115.066 -100.993 54.1826 -115.276 -101.658 54.7434 -114.234 -96.8913 49.2029 
-114.208 -97.4596 49.6474 -114.126 -97.8765 50.3237 -114.037 -98.0486 51.2706 
-114.182 -98.3858 52.1239 -114.52 -99.1198 52.8244 -114.779 -99.838 53.6082 
-114.989 -100.361 54.3475 -115.327 -100.947 54.8568 -115.76 -101.626 55.2219 
-113.912 -100.965 47.7558 -113.929 -100.963 48.8874 -114.045 -101.631 48.2117 
-113.974 -101.207 49.9425 -114.091 -101.701 49.4144 -114.374 -102.115 48.7424 
-114.25 -101.434 50.8349 -114.257 -101.965 50.4566 -114.504 -102.332 49.8232 
-114.989 -102.436 49.2171 -114.7 -101.505 51.7343 -114.701 -102.158 51.4799 
-114.761 -102.685 50.9202 -115.164 -102.783 50.2195 -115.753 -102.74 49.7285 
-114.962 -101.732 52.7145 -115.142 -102.295 52.5119 -115.154 -102.951 52.1182 
-115.317 -103.205 51.4073 -115.86 -103.129 50.6977 -116.462 -103.026 50.2559 
-115.053 -102.088 53.7376 -115.351 -102.511 53.4483 -115.544 -103.026 53.1447 
-115.594 -103.41 52.6433 -115.98 -103.437 51.8736 -116.6 -103.345 51.1854 
-117.086 -103.178 50.7471 -115.339 -102.257 54.6642 -115.619 -102.643 54.3546 
-115.968 -102.955 53.9788 -116.113 -103.323 53.6487 -116.362 -103.518 53.1121 
-116.912 -103.49 52.3713 -117.386 -103.389 51.7602 -117.699 -103.171 51.3117 
-115.872 -102.243 55.306 -116.111 -102.625 55.1589 -116.504 -102.838 54.7833 
-116.779 -103.176 54.4593 -116.949 -103.562 54.1585 -117.327 -103.674 53.6042 
-117.772 -103.558 52.9403 -118.044 -103.369 52.4043 -118.283 -103.115 51.9029 
-116.403 -102.01 55.6424 -116.576 -102.511 55.7729 -116.925 -102.307 56.1924 
-117.168 -102.747 56.2453 -117.278 -102.488 56.9198 -116.945 -102.765 55.5829 
-117.656 -103.107 56.7524 -117.77 -102.695 57.5512 -117.645 -103.136 55.9642 
-117.366 -103.093 55.2277 -118.244 -103.541 57.2507 -118.498 -102.963 57.7686 
-118.129 -103.8 56.4355 -117.964 -103.811 55.6961 -117.542 -103.695 54.989 
-118.968 -103.751 57.5373 -119.32 -103.062 57.677 -118.616 -104.288 56.9638 
-118.281 -104.599 56.1781 -117.975 -104.552 55.4236 -117.696 -104.104 54.6136 
-119.726 -103.624 57.4564 -120.145 -102.923 57.5598 -119.306 -104.347 57.1352 
-118.847 -104.917 56.4578 -118.366 -105.128 55.5926 -118.128 -104.722 54.7981 
-118.043 -104.004 53.9603 -120.308 -103.351 57.1186 -120.751 -102.751 57.333 
-119.96 -104.152 56.8196 -119.73 -104.9 56.3391 -119.297 -105.255 55.5583 
-118.762 -105.028 54.735 -118.508 -104.338 54.0756 -118.362 -103.683 53.342 
-120.634 -103.092 56.6491 -121.041 -102.627 56.8081 -120.325 -103.811 56.356 
-120.314 -104.659 56.001 -120.264 -105.133 55.4707 -119.794 -105.018 54.7329 
-119.214 -104.495 54.0542 -118.875 -103.84 53.4969 -118.617 -103.35 52.7947 
-120.944 -102.86 56.0985 -121.26 -102.469 56.1111 -120.65 -103.396 55.9263 
-120.579 -104.127 55.6501 -120.644 -104.664 55.2943 -120.479 -104.688 54.7562 
-120.01 -104.376 54.0591 -119.543 -103.92 53.427 -119.218 -103.417 52.8533 
-118.924 -103.053 52.1385 -116.002 -101.164 55.3291 -116.69 -101.552 55.7474 
-116.204 -100.66 55.4908 -116.915 -100.932 55.957 -116.399 -100.118 55.6687 
-117.126 -101.769 56.5144 -117.063 -100.295 56.1196 -116.611 -99.607 55.5877 
-117.337 -100.993 56.8513 -117.462 -101.804 57.4834 -117.251 -99.8446 55.9519 
-116.913 -99.209 55.245 -117.537 -100.333 56.8966 -117.768 -101 57.694 
-118.048 -101.962 57.9356 -117.674 -99.5114 55.5555 -117.369 -98.8001 54.9258 
-117.893 -99.9227 56.5758 -118.135 -100.434 57.406 -118.402 -101.285 57.6878 
-118.812 -102.262 57.6991 -118.192 -99.0706 55.1179 -117.822 -98.2291 54.7058 
-118.449 -99.5785 56.016 -118.666 -99.992 56.9189 -118.855 -100.732 57.2209 
-119.153 -101.615 57.2998 -119.701 -102.365 57.5185 -118.565 -98.4493 54.7425 
-118.2 -97.5962 54.5155 -118.881 -99.2056 55.2714 -119.188 -99.632 56.1855 
-119.457 -100.144 56.8216 -119.671 -100.905 57.0572 -120.099 -101.661 57.3583 
-120.609 -102.285 57.5632 -118.937 -97.7416 54.5338 -118.628 -97.1193 54.2638 
-119.201 -98.6255 54.721 -119.512 -99.3014 55.2914 -119.934 -99.7005 56.1427 
-120.271 -100.183 56.7502 -120.555 -100.855 57.1241 -120.938 -101.592 57.3596 
-121.157 -102.216 57.2455 -119.417 -97.1693 54.3257 -119.099 -96.876 53.8373 
-119.655 -97.8279 54.5455 -119.89 -98.6368 54.7857 -120.275 -99.2313 55.3838 
[...]
CELL_DATA 2000
SCALARS Distance double
LOOKUP_TABLE default
160.785 160.411 160.73 161.023 160.057 160.374 160.67 160.999 161.358 
159.633 159.989 160.284 160.647 161.022 161.405 161.822 159.197 159.546 
159.85 160.231 160.603 161.031 161.451 161.859 162.206 158.839 159.152 
159.473 159.821 160.193 160.593 160.998 161.427 161.783 162.154 162.427 
158.527 158.825 159.147 159.481 159.852 160.216 160.612 160.993 161.367 
161.728 162.053 162.381 162.696 158.279 158.538 158.848 159.159 159.515 
159.874 160.276 160.65 161.06 161.396 161.77 162.066 162.421 162.724 
163.081 158.122 158.341 158.651 158.9 159.244 159.549 159.95 160.318 
160.773 161.142 161.58 161.873 162.252 162.504 162.861 163.136 163.479 
157.987 158.205 158.517 158.745 159.085 159.336 159.719 160.029 160.481 
160.858 161.343 161.697 162.121 162.383 162.738 162.964 163.304 163.544 
163.869 160.523 159.931 160.196 160.138 159.281 159.566 159.522 159.828 
159.783 158.61 158.902 158.837 159.172 159.147 159.451 159.368 157.913 
158.238 158.194 158.502 158.48 158.79 158.739 159.012 158.928 157.217 
157.575 157.606 157.9 157.878 158.151 158.106 158.384 158.327 158.598 
158.553 156.571 156.933 157.009 157.324 157.29 157.551 157.461 157.744 
157.677 157.983 157.943 158.243 158.23 156.021 156.332 156.401 156.716 
156.677 156.936 156.811 157.075 156.984 157.303 157.274 157.608 157.614 
157.936 157.974 155.613 155.829 155.852 156.113 156.071 156.319 156.226 
156.458 156.397 156.658 156.66 156.957 156.998 157.321 157.391 157.721 
157.808 155.296 155.447 155.395 155.585 155.508 155.734 155.68 155.923 
155.929 156.169 156.209 156.439 156.482 156.744 156.81 157.134 157.229 
157.573 157.668 155.067 154.589 154.938 155.115 154.182 154.47 154.695 
154.99 155.194 154.131 154.249 154.5 154.658 154.889 155.13 155.39 
154.284 154.337 154.564 154.609 154.805 154.927 155.199 155.422 155.716 
154.489 154.488 154.671 154.694 154.806 154.871 155.05 155.256 155.54 
155.777 156.03 154.899 154.746 154.865 154.791 154.826 154.819 154.86 
155.026 155.209 155.517 155.767 156.042 156.265 155.405 155.199 155.201 
155.019 154.951 154.832 154.779 154.814 154.914 155.144 155.398 155.713 
156.007 156.283 156.567 155.773 155.611 155.525 155.32 155.166 154.977 
154.899 154.819 154.942 155.001 155.303 155.47 155.849 156.07 156.445 
156.665 157.004 156.101 155.924 155.868 155.632 155.527 155.266 155.263 
155.085 155.307 155.244 155.63 155.629 156.051 156.104 156.507 156.627 
156.997 157.154 157.474 157.679 157.246 157.608 157.909 156.841 157.211 
157.565 157.901 158.274 156.48 156.866 157.26 157.589 157.973 158.321 
158.746 156.118 156.546 156.962 157.29 157.607 157.961 158.349 158.786 
159.244 155.791 156.216 156.711 157.03 157.305 157.555 157.852 158.292 
158.783 159.298 159.822 155.668 155.974 156.57 156.883 157.267 157.371 
157.611 157.842 158.342 158.843 159.506 159.97 160.531 155.825 155.969 
156.545 156.84 157.348 157.462 157.727 157.772 158.188 158.528 159.237 
159.715 160.369 160.721 161.208 156.108 156.169 156.617 156.849 157.323 
157.527 157.816 157.902 158.211 158.452 159.037 159.483 160.12 160.529 
161.002 161.328 161.735 156.344 156.407 156.756 156.905 157.265 157.451 
157.71 157.872 158.135 158.388 158.846 159.255 159.802 160.222 160.658 
161.028 161.403 161.784 162.195 157.999 158.235 158.254 158.554 158.594 
158.548 158.867 158.853 159.157 159.089 158.984 159.303 159.233 159.567 
159.504 159.816 159.652 159.537 159.883 159.754 160.104 159.987 160.335 
160.226 160.582 160.256 160.141 160.559 160.416 160.809 160.626 160.988 
160.814 161.187 161.063 161.447 160.906 160.779 161.234 161.129 161.58 
161.403 161.762 161.529 161.859 161.691 162.053 161.934 162.253 161.54 
161.429 161.852 161.783 162.237 162.14 162.494 162.293 162.564 162.363 
162.672 162.532 162.838 162.68 162.902 162.116 162.042 162.455 162.376 
162.799 162.73 163.101 162.963 163.255 163.058 163.356 163.172 163.483 
163.289 163.527 163.298 163.474 162.642 162.612 163.056 162.973 163.382 
163.286 163.682 163.566 163.944 163.77 164.125 163.909 164.232 163.991 
164.237 163.968 164.139 163.874 164.029 163.082 163.881 163.519 163.524 
164.572 164.282 164.312 163.916 163.856 165.254 164.974 165.086 164.715 
164.72 164.257 164.178 166.021 165.736 165.922 165.551 165.651 165.189 
165.173 164.624 164.505 166.724 166.52 166.729 166.416 166.523 166.128 
166.135 165.641 165.519 164.932 164.726 167.227 167.115 167.314 167.133 
167.223 166.926 166.889 166.493 166.33 165.851 165.592 165.055 164.778 
167.509 167.457 167.581 167.55 167.688 167.542 167.553 167.196 167.009 
166.539 166.242 165.774 165.456 164.997 164.698 167.549 167.557 167.561 
167.637 167.782 167.864 167.989 167.823 167.686 167.229 166.888 166.371 
166.016 165.569 165.252 164.84 164.551 167.442 167.479 167.444 167.519 
167.607 167.794 167.929 168.042 167.951 167.761 167.391 166.975 166.547 
166.106 165.755 165.349 165.053 164.667 164.41 162.892 162.813 163.155 
163.707 162.681 163.053 163.615 163.927 164.391 162.497 162.881 163.418 
163.779 164.262 164.562 165.024 162.32 162.676 163.194 163.551 164.043 
164.393 164.884 165.215 165.73 162.252 162.551 163.081 163.368 163.865 
164.183 164.673 165.025 165.53 165.905 166.401 162.198 162.516 163.056 
163.321 163.811 164.068 164.536 164.823 165.293 165.648 166.157 166.535 
166.971 162.033 162.394 162.91 163.252 163.725 164.018 164.466 164.726 
165.167 165.446 165.947 166.303 166.816 167.106 167.414 161.882 162.186 
162.657 163.019 163.48 163.843 164.295 164.624 165.059 165.342 165.783 
166.109 166.586 166.937 167.29 167.476 167.564 161.861 162.071 162.494 
162.775 163.213 163.556 164.011 164.387 164.832 165.175 165.553 165.878 
166.213 166.595 166.873 167.217 167.322 167.483 167.431 156.552 157.049 
156.85 156.991 157.521 157.349 157.429 157.27 157.395 157.805 157.716 
157.743 157.627 157.668 157.594 157.725 158.065 157.941 158.005 157.894 
157.972 157.862 158.02 157.957 158.205 158.651 158.353 158.479 158.255 
158.425 158.253 158.511 158.389 158.745 158.625 159.013 159.484 159.118 
159.252 158.911 159.081 158.82 159.096 158.958 159.35 159.259 159.667 
159.54 159.921 160.235 159.942 160.072 159.748 159.9 159.574 159.804 
159.586 159.955 159.856 160.256 160.158 160.495 160.385 160.702 160.864 
160.621 160.783 160.527 160.741 160.437 160.692 160.384 160.731 160.519 
160.939 160.775 161.15 160.968 161.297 161.141 161.471 161.473 161.242 
161.441 161.225 161.513 161.285 161.607 161.318 161.644 161.364 161.742 
161.528 161.927 161.713 162.082 161.847 162.207 161.987 162.33 156.383 
156.27 156.488 156.856 156.214 156.391 156.774 157.022 157.387 156.222 
156.364 156.735 156.968 157.361 157.532 157.755 156.271 156.381 156.741 
156.953 157.386 157.561 157.842 157.865 158.039 156.457 156.483 156.828 
156.976 157.456 157.653 158.063 158.077 158.335 158.274 158.597 156.785 
156.757 157.054 157.1 157.535 157.743 158.244 158.367 158.723 158.676 
159.003 158.986 159.405 157.097 157.096 157.351 157.337 157.65 157.802 
158.246 158.48 158.861 158.981 159.275 159.344 159.695 159.774 160.145 
157.372 157.382 157.644 157.614 157.866 157.915 158.261 158.439 158.785 
158.972 159.246 159.429 159.748 159.945 160.316 160.438 160.77 157.688 
157.671 157.953 157.917 158.185 158.164 158.479 158.528 158.861 158.94 
159.229 159.348 159.68 159.898 160.321 160.543 160.945 161.051 161.375 
157.98 158.512 158.244 158.235 159.106 158.803 158.81 158.51 158.496 
159.814 159.454 159.473 159.132 159.143 158.807 158.812 160.59 160.219 
160.23 159.844 159.862 159.502 159.514 159.159 159.16 161.275 160.976 
160.994 160.619 160.617 160.245 160.268 159.896 159.878 159.497 159.487 
161.826 161.589 161.626 161.33 161.317 160.978 160.99 160.65 160.666 
160.266 160.256 159.858 159.932 162.356 162.111 162.16 161.913 161.938 
161.638 161.647 161.337 161.374 161.043 161.089 160.701 160.789 160.417 
160.589 162.903 162.646 162.708 162.467 162.559 162.277 162.334 162.003 
162.045 161.726 161.803 161.497 161.616 161.295 161.444 161.109 161.243 
163.421 163.187 163.267 163.044 163.179 162.934 163.042 162.723 162.769 
162.421 162.478 162.179 162.297 162.04 162.18 161.904 161.998 161.672 
161.698 163.71 164.151 163.817 163.607 164.595 164.29 164.107 163.759 
163.552 164.999 164.723 164.549 164.238 164.021 163.683 163.417 165.494 
165.169 164.995 164.65 164.394 164.076 163.788 163.467 163.137 166.053 
165.723 165.542 165.137 164.841 164.442 164.139 163.802 163.509 163.165 
162.854 166.431 166.193 165.979 165.657 165.363 164.951 164.651 164.238 
163.984 163.592 163.336 162.943 162.686 166.675 166.461 166.24 165.995 
165.761 165.45 165.214 164.827 164.583 164.154 163.89 163.465 163.194 
162.809 162.56 166.99 166.753 166.612 166.313 166.155 165.847 165.684 
165.362 165.138 164.746 164.426 163.999 163.648 163.269 162.952 162.629 
162.343 167.305 167.144 167.11 166.815 166.684 166.322 166.13 165.8 
165.558 165.219 164.87 164.469 164.055 163.661 163.274 162.945 162.602 
162.323 162.005 163.896 164.291 164.162 164.311 164.67 164.555 164.706 
164.591 164.737 165.065 164.931 165.094 164.985 165.116 164.984 165.117 
165.598 165.361 165.524 165.392 165.546 165.38 165.494 165.364 165.569 
166.292 165.951 166.032 165.843 166.011 165.847 165.972 165.785 165.968 
165.883 166.137 166.813 166.556 166.457 166.275 166.342 166.268 166.416 
166.284 166.452 166.324 166.554 166.453 166.607 166.838 166.801 166.577 
166.491 166.428 166.461 166.617 166.647 166.864 166.802 167.024 166.905 
167.057 166.86 166.899 166.559 166.639 166.484 166.46 166.403 166.457 
166.646 166.773 167.077 167.14 167.413 167.36 167.52 167.336 167.359 
167.118 167.132 166.37 166.437 166.452 166.419 166.463 166.472 166.685 
166.805 167.125 167.271 167.559 167.639 167.805 167.738 167.732 167.537 
167.462 167.299 167.317 163.742 163.649 163.848 164.131 163.466 163.739 
164.053 164.246 164.522 163.16 163.517 163.936 164.199 164.546 164.676 
164.959 162.84 163.214 163.718 164.083 164.554 164.755 165.109 165.183 
165.527 162.565 162.93 163.426 163.839 164.327 164.677 165.066 165.297 
165.688 165.844 166.257 162.258 162.645 163.114 163.529 163.965 164.35 
164.687 165.053 165.425 165.829 166.286 166.558 166.851 161.895 162.288 
162.742 163.18 163.642 164.012 164.372 164.661 164.996 165.394 165.824 
166.312 166.635 166.902 166.902 161.521 161.891 162.295 162.753 163.236 
163.686 164.137 164.452 164.811 165.065 165.395 165.756 166.019 166.409 
166.449 166.674 166.53 161.147 161.496 161.843 162.273 162.695 163.2 
163.64 164.126 164.497 164.867 165.114 165.389 165.507 165.776 165.781 
166.064 166.006 166.247 166.21 161.025 161.058 161.267 161.737 161.065 
161.317 161.819 162.03 162.558 161.028 161.321 161.846 162.093 162.616 
162.87 163.446 161.005 161.301 161.885 162.137 162.644 162.876 163.424 
163.74 164.305 161.039 161.308 161.947 162.228 162.773 162.937 163.395 
163.651 164.183 164.521 164.96 161.123 161.35 161.952 162.28 162.862 
163.074 163.471 163.629 164.011 164.31 164.706 165.019 165.291 161.209 
161.418 161.928 162.233 162.757 163.057 163.448 163.649 163.945 164.149 
164.451 164.71 164.97 165.239 165.459 161.206 161.448 161.884 162.155 
162.571 162.868 163.241 163.521 163.863 164.086 164.412 164.573 164.865 
165.004 165.266 165.454 165.718 161.092 161.359 161.739 162.022 162.372 
162.65 162.998 163.292 163.692 163.983 164.403 164.608 164.977 165.072 
165.389 165.445 165.741 165.826 166.077 161.126 161.351 161.4 161.746 
161.687 161.656 161.994 162.034 162.377 162.156 162.067 162.389 162.346 
162.708 162.698 163.04 162.523 162.51 162.815 162.783 163.152 163.12 
163.517 163.447 163.804 162.737 162.782 163.084 163.13 163.493 163.547 
163.967 163.969 164.365 164.27 164.577 163.025 163.021 163.345 163.364 
163.719 163.802 164.198 164.309 164.701 164.755 165.083 164.999 165.193 
163.413 163.385 163.722 163.687 164.021 164.034 164.377 164.458 164.802 
164.934 165.284 165.379 165.65 165.547 165.648 163.786 163.776 164.102 
164.077 164.389 164.368 164.68 164.677 164.972 165.016 165.34 165.477 
165.831 165.91 166.123 165.964 166 164.147 164.13 164.448 164.431 
164.747 164.73 165.063 165.035 165.347 165.287 165.569 165.578 165.91 
166.026 166.319 166.337 166.435 166.257 166.249 166.391 166.547 166.511 
166.506 166.473 166.603 166.655 166.594 166.584 166.157 166.428 166.609 
166.707 166.801 166.74 166.832 165.903 166.16 166.423 166.602 166.764 
166.866 167.015 167.044 167.217 165.718 165.993 166.266 166.44 166.54 
166.685 166.78 167.009 167.215 167.395 167.591 165.418 165.762 166.046 
166.276 166.339 166.43 166.418 166.624 166.815 167.178 167.465 167.7 
167.833 165.071 165.41 165.725 166.017 166.204 166.296 166.367 166.398 
166.605 166.815 167.164 167.45 167.658 167.806 167.772 164.764 165.072 
165.402 165.716 166.046 166.242 166.54 166.574 166.912 166.912 167.274 
167.315 167.527 167.584 167.585 167.625 167.511 164.472 164.771 165.094 
165.418 165.783 166.097 166.51 166.759 167.212 167.333 167.702 167.643 
167.78 167.622 167.584 167.49 167.437 167.419 167.388 155.281 155.535 
155.354 155.247 155.914 155.644 155.561 155.346 155.329 156.468 156.122 
156.105 155.814 155.915 155.645 155.854 157.166 156.779 156.824 156.497 
156.708 156.417 156.718 156.425 156.776 158.001 157.612 157.758 157.357 
157.615 157.293 157.642 157.358 157.692 157.403 157.695 158.812 158.528 
158.81 158.428 158.704 158.292 158.58 158.253 158.545 158.269 158.503 
158.218 158.418 159.476 159.299 159.615 159.411 159.674 159.349 159.504 
159.147 159.299 159.025 159.214 158.968 159.154 158.888 159.105 160.09 
159.92 160.182 160.054 160.269 160.092 160.177 159.912 159.953 159.696 
159.83 159.622 159.833 159.61 159.839 159.6 159.861 160.696 160.527 
160.77 160.595 160.792 160.594 160.715 160.474 160.57 160.313 160.479 
160.253 160.505 160.293 160.561 160.329 160.575 160.346 160.587 155.092 
155.096 155.013 154.793 155.149 155.014 154.878 154.739 154.571 155.627 
155.238 155.118 154.892 154.82 154.637 154.67 156.549 155.972 155.865 
155.4 155.357 155.002 155.023 154.874 155.08 157.471 156.952 156.863 
156.353 156.318 155.786 155.734 155.326 155.401 155.304 155.509 158.19 
157.766 157.654 157.269 157.225 156.783 156.699 156.182 156.141 155.768 
155.892 155.731 155.889 158.919 158.475 158.368 157.971 157.914 157.553 
157.5 157.088 157.053 156.623 156.708 156.351 156.525 156.225 156.392 
159.727 159.28 159.226 158.758 158.712 158.266 158.24 157.836 157.862 
157.491 157.599 157.246 157.405 157.042 157.193 156.843 157.007 160.468 
160.094 160.066 159.645 159.598 159.133 159.086 158.638 158.66 158.287 
158.395 158.077 158.207 157.888 157.987 157.655 157.745 157.447 157.578 
154.946 154.58 154.655 154.427 154.33 154.285 154.006 154.074 153.947 
154.535 154.261 154.007 153.797 153.66 153.742 153.86 155.119 154.778 
154.665 154.168 154.001 153.703 153.756 153.831 154.049 155.561 155.395 
155.382 154.993 154.805 154.31 154.2 153.945 154.062 154.092 154.328 
155.782 155.675 155.62 155.492 155.316 155.017 154.833 154.511 154.523 
154.33 154.54 154.508 154.821 156.175 155.902 155.812 155.638 155.543 
155.348 155.262 155.045 155.091 154.892 155.071 154.912 155.172 155.115 
155.398 156.802 156.422 156.371 156.035 156.044 155.727 155.753 155.483 
155.584 155.41 155.579 155.439 155.602 155.494 155.666 155.628 155.797 
157.419 157.083 157.054 156.722 156.756 156.414 156.445 156.101 156.142 
155.896 155.999 155.858 155.971 155.855 155.957 155.876 156.012 155.971 
156.124 163.451 162.945 163.259 163.351 162.374 162.707 162.783 163.114 
163.138 161.786 162.089 162.119 162.48 162.493 162.82 162.79 161.202 
161.477 161.445 161.785 161.8 162.147 162.129 162.445 162.44 160.532 
160.846 160.788 161.112 161.107 161.455 161.451 161.778 161.757 162.104 
162.137 159.765 160.112 160.064 160.425 160.414 160.771 160.747 161.079 
161.029 161.38 161.37 161.78 161.821 159.055 159.355 159.31 159.672 
159.679 160.059 160.041 160.371 160.301 160.626 160.6 160.992 161.036 
161.455 161.499 158.472 158.712 158.664 158.963 158.968 159.322 159.315 
159.654 159.586 159.903 159.862 160.233 160.286 160.697 160.767 161.15 
161.177 157.935 158.159 158.1 158.365 158.342 158.645 158.609 158.924 
158.84 159.163 159.091 159.472 159.489 159.932 159.994 160.418 160.444 
160.82 160.816 
POINT_DATA 1002
SCALARS Distance double
LOOKUP_TABLE default
161.064 160.848 160.443 160.685 160.106 161.32 160.335 159.731 160.993 
161.762 159.905 159.266 160.614 161.46 162.245 159.47 158.856 160.176 
161.021 161.873 162.502 159.132 158.529 159.819 160.586 161.388 162.092 
162.69 158.816 158.237 159.494 160.245 161.008 161.707 162.364 163.037 
158.563 158.038 159.168 159.886 160.7 161.476 162.13 162.772 163.435 
158.421 157.909 158.97 159.596 160.371 161.252 162.015 162.612 163.201 
163.8 158.286 157.766 158.845 159.442 160.121 160.953 161.825 162.524 
163.08 163.631 164.176 160.279 159.866 159.648 159.186 159.011 159.515 
158.511 158.31 158.817 159.11 157.894 157.535 158.179 158.446 158.663 
157.297 156.819 157.628 157.829 158.045 158.276 156.683 156.213 157.048 
157.197 157.359 157.629 157.926 156.102 155.749 156.42 156.565 156.672 
156.923 157.271 157.648 155.638 155.455 155.819 155.974 156.141 156.379 
156.678 157.047 157.48 155.25 155.186 155.298 155.409 155.657 155.99 
156.261 156.508 156.877 157.331 154.768 154.797 154.202 154.413 153.932 
154.877 154.403 154.061 154.685 155.107 154.549 154.244 154.742 154.99 
155.503 154.673 154.551 154.794 154.885 155.277 155.841 155.017 155.131 
154.908 154.78 154.917 155.435 156.026 155.451 155.635 155.136 154.813 
154.747 155.08 155.679 156.316 155.75 155.937 155.377 154.986 154.902 
155.18 155.652 156.216 156.805 156.087 156.28 155.77 155.435 155.369 
155.653 156.058 156.445 156.862 157.325 157.946 157.553 158.228 157.219 
157.925 158.67 156.938 157.626 158.369 159.199 156.644 157.309 157.89 
158.791 159.741 156.352 157.14 157.47 158.197 159.361 160.363 156.2 
157.158 157.506 157.859 158.971 160.186 161.045 156.272 157.163 157.725 
157.953 158.754 159.988 160.935 161.645 156.468 157.114 157.693 158.032 
158.651 159.707 160.666 161.406 162.157 156.665 157.135 157.547 157.892 
158.482 159.406 160.295 161.015 161.789 162.64 158.532 158.885 159.186 
159.397 159.629 159.887 160.016 160.237 160.448 160.672 160.666 160.996 
161.195 161.324 161.564 161.31 161.725 162.021 162.071 162.185 162.412 
161.933 162.313 162.674 162.79 162.834 162.999 163.104 162.548 162.884 
163.202 163.427 163.551 163.686 163.766 163.713 163.131 163.488 163.773 
164.072 164.334 164.492 164.521 164.426 164.28 163.475 163.953 164.215 
164.678 164.825 164.307 165.418 165.518 165.162 164.69 166.273 166.274 
166.075 165.717 165.111 167.013 166.887 166.901 166.594 166.097 165.352 
167.445 167.349 167.484 167.285 166.789 166.105 165.322 167.577 167.6 
167.721 167.86 167.515 166.724 165.898 165.148 167.493 167.555 167.615 
168.013 168.096 167.45 166.491 165.662 164.948 167.389 167.383 167.449 
167.757 168.018 167.74 166.986 166.166 165.438 164.775 162.561 163.431 
162.448 163.28 162.315 164.135 163.051 162.126 163.924 164.729 162.853 
161.983 163.679 164.527 165.398 162.819 161.955 163.574 164.344 165.15 
166.043 162.777 161.862 163.573 164.288 164.976 165.753 166.677 162.545 
161.692 163.407 164.196 164.915 165.61 166.479 167.293 162.321 161.634 
163.106 163.929 164.761 165.502 166.239 167.04 167.537 162.26 161.691 
162.9 163.635 164.471 165.264 165.896 166.506 167.074 167.358 156.712 
157.174 157.262 157.613 157.69 157.503 157.849 157.878 157.768 157.736 
158.099 158.22 158.069 158.083 158.243 158.742 158.992 158.599 158.611 
158.842 159.152 159.623 159.839 159.393 159.253 159.424 159.785 160.064 
160.366 160.5 160.23 160.076 160.083 160.359 160.626 160.797 160.997 
161.095 160.987 161.006 160.994 161.116 161.342 161.483 161.611 156.157 
156.594 156.061 156.52 156.063 157.209 156.509 156.096 157.177 157.699 
156.538 156.18 157.176 157.807 158.022 156.73 156.462 157.216 157.978 
158.404 158.581 157.08 156.814 157.354 158.035 158.72 159.045 159.386 
157.394 157.084 157.58 158.017 158.686 159.179 159.603 160.098 157.668 
157.366 157.87 158.151 158.616 159.054 159.507 160.135 160.716 157.979 