# vtk DataFile Version 4.0
vtk output
ASCII
DATASET POLYDATA
POINTS 1002 float
-117.101 -103.516 48.6591 -117.225 -103.35 47.9091 -117.588 -103.654 48.1129 
-117.51 -103.934 48.8281 -118.063 -103.794 48.5938 -116.954 -103.992 49.2135 
-117.999 -104.25 49.1559 -118.664 -103.849 49.1978 -117.396 -104.5 49.3187 
-116.697 -104.604 49.6647 -118.616 -104.456 49.5889 -119.405 -104.162 49.4746 
-117.894 -104.845 49.6418 -117.153 -105.002 49.9293 -116.412 -104.975 50.406 
-119.388 -104.767 49.8747 -120.236 -104.704 49.4698 -118.531 -104.957 50.21 
-117.688 -105.23 50.4355 -116.877 -105.273 50.8643 -116.254 -105.263 51.3586 
-120.134 -105.112 50.1519 -120.887 -104.964 49.7973 -119.243 -105.12 50.7337 
-118.331 -105.363 51.0175 -117.421 -105.612 51.2598 -116.687 -105.678 51.7272 
-116.13 -105.776 52.1383 -120.628 -105.253 50.6998 -121.232 -104.9 50.5305 
-119.862 -105.441 51.1329 -118.974 -105.678 51.4024 -118.011 -105.999 51.511 
-117.156 -106.137 51.9292 -116.508 -106.177 52.4879 -115.897 -106.279 52.8467 
-120.958 -105.32 51.323 -121.486 -104.918 51.2158 -120.384 -105.778 51.4862 
-119.617 -106.116 51.6525 -118.624 -106.351 51.7995 -117.664 -106.463 52.2154 
-116.934 -106.478 52.8635 -116.297 -106.557 53.3377 -115.635 -106.714 53.5771 
-121.227 -105.403 51.8675 -121.734 -105.056 51.7559 -120.813 -106 51.8771 
-120.232 -106.447 51.9606 -119.256 -106.532 52.2669 -118.193 -106.536 52.7961 
-117.411 -106.655 53.3815 -116.789 -106.853 53.7812 -116.114 -107.087 53.968 
-115.442 -107.328 54.092 -121.361 -105.37 52.4618 -121.878 -105.114 52.3259 
-121.02 -105.983 52.4517 -120.615 -106.544 52.4874 -119.739 -106.592 52.8513 
-118.605 -106.45 53.4891 -117.793 -106.662 54.0164 -117.279 -107.121 54.2196 
-116.683 -107.502 54.2377 -115.964 -107.761 54.2779 -115.308 -107.98 54.387 
-117.613 -103.48 47.2082 -118.03 -103.625 47.5998 -118.056 -103.388 46.7465 
-118.504 -103.367 47.4137 -118.404 -102.91 46.8383 -118.603 -103.504 48.4174 
-118.871 -102.874 47.6352 -118.667 -102.191 47.3716 -119.139 -103.181 48.3126 
-119.306 -103.491 49.1093 -119.296 -102.291 47.9168 -119.085 -101.488 47.7932 
-119.632 -102.863 48.1598 -119.913 -103.228 48.8254 -120.12 -103.914 49.2667 
-119.949 -101.707 47.9565 -119.624 -100.911 47.8386 -120.307 -102.49 47.973 
-120.563 -102.974 48.4449 -120.746 -103.524 49.1255 -120.92 -104.368 49.4076 
-120.554 -101.129 47.9763 -120.056 -100.435 47.8491 -121.048 -101.984 48.0273 
-121.362 -102.675 48.2903 -121.422 -103.1 49.0318 -121.448 -103.718 49.6444 
-121.445 -104.442 49.9823 -120.957 -100.587 48.2012 -120.412 -100.024 48.0805 
-121.526 -101.35 48.3594 -121.988 -102.234 48.4943 -122.133 -102.817 48.9413 
-122.017 -103.225 49.6514 -121.912 -103.85 50.1865 -121.772 -104.478 50.6511 
-121.292 -100.152 48.4958 -120.779 -99.6702 48.3981 -121.849 -100.73 48.6399 
-122.348 -101.582 48.7281 -122.633 -102.407 48.9293 -122.595 -102.901 49.4573 
-122.429 -103.429 50.0731 -122.315 -104.163 50.5977 -122.108 -104.735 51.1644 
-121.554 -99.8465 48.7499 -121.088 -99.3646 48.6626 -122.139 -100.276 48.7887 
-122.687 -100.903 48.7988 -123.026 -101.738 48.9692 -123.074 -102.402 49.46 
-122.919 -102.926 50.0654 -122.786 -103.707 50.5533 -122.676 -104.544 51.0541 
-122.373 -104.988 51.6882 -121.521 -99.4454 49.0074 -122.104 -99.8954 49.0395 
-121.858 -99.5632 49.4754 -122.624 -99.9275 49.4647 -122.191 -99.6495 50.0917 
-122.851 -100.293 48.9606 -123.031 -99.9385 50.2191 -122.499 -99.7156 50.8027 
-123.471 -100.323 49.5181 -123.407 -100.949 49.0828 -123.151 -100.017 51.1317 
-122.638 -99.8665 51.5693 -123.692 -100.451 50.5428 -123.881 -101.062 50.0085 
-123.55 -101.735 49.6667 -123.043 -100.213 52.0278 -122.622 -100.135 52.4394 
-123.453 -100.688 51.4705 -123.814 -101.348 51.0211 -123.76 -101.838 50.7537 
-123.363 -102.34 50.4012 -122.944 -100.53 53.0086 -122.541 -100.474 53.3087 
-123.168 -100.936 52.3856 -123.404 -101.647 51.7048 -123.517 -102.148 51.4118 
-123.368 -102.495 51.262 -123.113 -103.095 50.8747 -122.776 -100.992 53.8581 
-122.301 -100.868 53.9585 -123.036 -101.292 53.5102 -123.133 -101.878 52.8062 
-123.157 -102.469 52.1539 -123.112 -102.898 51.8835 -123.079 -103.475 51.6418 
-122.988 -104.158 51.2693 -122.339 -101.517 54.3396 -121.85 -101.304 54.4013 
-122.755 -101.812 54.2911 -122.967 -102.252 54.0494 -123.006 -102.801 53.5403 
-122.98 -103.364 53.0292 -122.988 -103.963 52.6427 -122.987 -104.558 52.2405 
-122.792 -104.918 51.8809 -121.767 -101.969 54.6898 -121.359 -101.725 54.8156 
-122.227 -102.302 54.6372 -122.594 -102.723 54.6383 -122.812 -103.217 54.564 
-122.97 -103.808 54.3094 -123.078 -104.437 53.9077 -123.02 -104.905 53.4335 
-122.739 -105.092 52.971 -122.313 -105.1 52.6026 -121.554 -105.154 53.1172 
-122.013 -105.13 53.5169 -121.25 -105.359 53.8864 -122.637 -105.301 53.9397 
-121.804 -105.428 54.2439 -121.115 -105.918 54.4911 -123.082 -105.29 54.4125 
-122.521 -105.669 54.6316 -121.696 -106.04 54.8191 -120.951 -106.476 55.1841 
-123.019 -104.818 54.7964 -122.781 -105.533 55.0616 -122.16 -106.027 55.3547 
-121.412 -106.466 55.7595 -120.413 -106.564 56.2836 -122.636 -104.128 54.9318 
-122.379 -104.915 55.2797 -122.017 -105.568 55.8579 -121.613 -106.201 56.5195 
-120.837 -106.499 57.0324 -119.615 -106.44 57.458 -122.305 -103.525 54.9216 
-121.928 -104.24 55.3131 -121.564 -104.92 56.042 -121.409 -105.725 56.9426 
-121.109 -106.362 57.6288 -120.13 -106.481 58.0505 -118.962 -106.564 58.3369 
-121.994 -103.004 54.9706 -121.734 -103.669 55.4732 -121.398 -104.345 56.1939 
-121.155 -105.175 57.0229 -121.044 -106.028 57.7988 -120.524 -106.454 58.4281 
-119.483 -106.558 58.8533 -118.598 -106.908 59.0947 -121.585 -102.558 55.1051 
-121.506 -103.153 55.7335 -121.371 -103.812 56.4641 -121.069 -104.584 57.128 
-120.801 -105.406 57.8067 -120.525 -106.031 58.5931 -119.896 -106.351 59.2666 
-119.041 -106.691 59.6449 -118.408 -107.278 59.8308 -121.182 -102.241 55.2484 
-121.155 -102.751 55.8904 -121.161 -103.342 56.6173 -120.946 -104.045 57.2167 
-120.569 -104.746 57.8017 -120.29 -105.332 58.6115 -119.992 -105.789 59.4529 
-119.438 -106.242 59.9948 -118.767 -106.848 60.2541 -118.253 -107.541 60.4154 
-121.091 -105.601 53.2094 -120.826 -105.969 54.0163 -120.779 -106.311 53.2478 
-120.546 -106.414 54.7932 -120.284 -106.489 54.2718 -120.079 -106.594 53.5264 
-120.003 -106.563 55.7465 -119.566 -106.517 55.3364 -119.145 -106.451 54.7884 
-118.864 -106.404 54.1428 -119.198 -106.487 56.9266 -118.841 -106.541 56.4651 
-118.36 -106.524 55.9365 -118 -106.514 55.3061 -117.915 -106.584 54.6713 
-118.58 -106.721 57.91 -118.438 -106.974 57.4861 -118.171 -107.081 56.9744 
-117.759 -107.088 56.2653 -117.578 -107.197 55.4679 -117.52 -107.272 54.7666 
-118.328 -107.249 58.6563 -118.361 -107.726 58.1936 -118.327 -108.003 57.7289 
-117.952 -107.873 57.1835 -117.566 -107.739 56.3862 -117.357 -107.85 55.4075 
-117.084 -107.839 54.6418 -118.199 -107.72 59.4411 -118.256 -108.217 58.9194 
-118.275 -108.625 58.3195 -117.931 -108.584 57.8203 -117.425 -108.138 57.361 
-117.064 -107.908 56.5216 -116.747 -108.059 55.3978 -116.353 -108.089 54.6046 
-118.035 -108.033 60.1973 -117.984 -108.382 59.8038 -117.902 -108.664 59.1607 
-117.537 -108.834 58.4273 -117.004 -108.598 57.949 -116.594 -108.067 57.5138 
-116.285 -107.874 56.5863 -115.939 -108.111 55.4314 -115.591 -108.237 54.6864 
-117.896 -107.994 60.8272 -117.7 -108.428 60.6711 -117.473 -108.227 61.2054 
-117.151 -108.601 61.0531 -116.814 -108.277 61.4221 -117.486 -108.553 60.2752 
-116.251 -108.723 61.2897 -115.737 -108.236 61.5499 -116.675 -108.642 60.64 
-117.073 -108.676 59.4846 -115.087 -108.679 61.4298 -114.627 -107.988 61.5921 
-115.663 -108.802 60.8536 -116.102 -108.8 59.7251 -116.511 -108.851 58.586 
-114.302 -108.178 61.1543 -114.087 -107.481 61.1813 -114.743 -108.575 60.7826 
-115.245 -108.833 59.8198 -115.645 -108.948 58.68 -116.072 -108.579 58.0183 
-114.067 -107.461 60.3093 -113.763 -106.973 60.4543 -114.306 -107.884 60.1405 
-114.613 -108.317 59.607 -114.982 -108.677 58.6662 -115.349 -108.523 57.9058 
-115.774 -108.029 57.3825 -113.624 -106.984 59.5968 -113.1 -106.683 60.0207 
-113.938 -107.345 59.306 -114.112 -107.755 59.0729 -114.373 -108.106 58.5167 
-114.715 -108.202 57.7063 -115.058 -108.039 57.0011 -115.456 -107.974 56.2741 
-112.843 -106.778 59.3607 -112.399 -106.531 59.8299 -113.15 -107.161 58.8933 
-113.315 -107.628 58.6113 -113.593 -107.898 58.2789 -114.018 -107.948 57.5604 
-114.405 -108.021 56.6588 -114.743 -108.183 55.8862 -115.133 -108.308 55.2237 
-112.262 -106.598 59.1414 -112.036 -106.315 59.4594 -112.378 -107.031 58.7085 
-112.4 -107.614 58.3433 -112.629 -107.973 58.0277 -113.151 -107.968 57.435 
-113.681 -108.023 56.5026 -114.087 -108.322 55.6336 -114.466 -108.521 55.0588 
-114.876 -108.379 54.6732 -118.321 -107.149 60.7241 -117.838 -107.415 61.1519 
-118.25 -106.476 60.8423 -117.65 -106.526 61.3505 -117.971 -105.776 60.7867 
-117.32 -107.441 61.5195 -117.375 -105.821 61.2644 -117.705 -105.187 60.656 
-117.059 -106.463 61.6467 -116.522 -107.345 61.6187 -117.197 -105.273 60.9218 
-117.654 -104.448 60.5914 -116.731 -105.887 61.3042 -116.157 -106.402 61.5321 
-115.359 -107.216 61.612 -117.045 -104.369 60.7043 -117.586 -103.6 60.5311 
-116.36 -105.269 60.8247 -115.719 -105.835 61.0968 -115.069 -106.285 61.392 
-114.43 -106.967 61.5037 -116.732 -103.439 60.5887 -117.286 -103.079 60.2138 
-115.951 -104.184 60.7041 -115.261 -105.047 60.813 -114.782 -105.622 61.0085 
-114.326 -106.089 61.1805 -113.918 -106.641 61.032 -116.38 -103.036 60.1637 
-116.922 -102.867 59.5912 -115.649 -103.362 60.5559 -114.996 -104.053 60.713 
-114.553 -104.87 60.6835 -114.138 -105.437 60.7174 -113.615 -105.928 60.7805 
-113.218 -106.417 60.5509 -116.124 -102.888 59.44 -116.633 -102.633 58.9013 
-115.492 -103.071 59.9988 -114.926 -103.419 60.3655 -114.454 -104.092 60.3466 
-113.927 -104.759 60.2539 -113.273 -105.262 60.4191 -112.672 -105.815 60.5476 
-112.394 -106.301 60.32 -115.897 -102.622 58.7409 -116.368 -102.271 58.3647 
-115.337 -102.85 59.2609 -114.819 -103.033 59.7802 -114.318 -103.416 59.9912 
[...]
CELL_DATA 2000
SCALARS Distance double
LOOKUP_TABLE default
162.707 163.27 162.989 163.018 163.891 163.597 163.659 163.361 163.394 
164.611 164.261 164.332 164.024 164.059 163.726 163.704 165.472 165.044 
165.076 164.713 164.741 164.395 164.369 164.01 164 166.306 165.913 
165.889 165.48 165.469 165.093 165.075 164.697 164.689 164.351 164.415 
166.894 166.637 166.625 166.27 166.239 165.847 165.82 165.425 165.406 
165.048 165.082 164.787 164.848 167.326 167.138 167.215 166.959 166.996 
166.631 166.598 166.179 166.12 165.742 165.732 165.429 165.466 165.18 
165.207 167.741 167.566 167.697 167.535 167.663 167.38 167.351 166.934 
166.805 166.41 166.355 166.054 166.099 165.813 165.87 165.55 165.598 
168.076 167.932 168.026 167.966 168.123 167.982 167.951 167.604 167.38 
166.998 166.866 166.618 166.68 166.461 166.563 166.258 166.314 165.974 
166.025 162.68 162.825 162.901 163.209 162.901 163.035 163.352 163.45 
163.806 162.864 163.075 163.451 163.594 163.979 164.092 164.526 162.834 
163.055 163.504 163.69 164.132 164.277 164.76 164.896 165.409 162.888 
163.101 163.623 163.805 164.305 164.445 164.947 165.115 165.653 165.809 
166.265 162.944 163.19 163.776 163.996 164.571 164.698 165.198 165.306 
165.792 165.97 166.414 166.552 166.85 162.989 163.239 163.836 164.127 
164.754 164.979 165.503 165.596 166.002 166.09 166.478 166.623 166.959 
167.047 167.279 163.087 163.298 163.849 164.136 164.731 165.058 165.6 
165.821 166.2 166.288 166.597 166.699 167.058 167.173 167.501 167.52 
167.742 163.204 163.397 163.893 164.133 164.658 164.968 165.494 165.8 
166.216 166.396 166.683 166.797 167.117 167.277 167.665 167.774 168.068 
168.018 168.16 163.402 163.886 163.796 164.094 164.377 164.3 164.641 
164.525 164.848 164.878 164.816 165.21 165.112 165.472 165.325 165.661 
165.321 165.294 165.709 165.686 166.1 165.985 166.303 166.127 166.377 
165.709 165.68 166.035 166.09 166.508 166.541 166.858 166.735 166.906 
166.723 166.85 166.131 166.067 166.356 166.352 166.695 166.796 167.1 
167.129 167.276 167.175 167.284 167.142 167.295 166.503 166.491 166.797 
166.726 167.021 166.994 167.277 167.281 167.482 167.447 167.633 167.571 
167.819 167.685 167.894 166.669 166.773 167.109 167.145 167.465 167.413 
167.713 167.604 167.891 167.764 168.078 167.982 168.327 168.226 168.478 
168.279 168.344 166.697 166.841 167.159 167.324 167.661 167.767 168.095 
168.093 168.437 168.344 168.734 168.595 168.962 168.791 168.997 168.784 
168.77 168.529 168.395 168.38 168.796 168.54 168.474 169.242 169.055 
169.035 168.709 168.762 169.442 169.517 169.681 169.386 169.407 169.109 
169.224 169.227 169.569 169.845 169.883 169.915 169.735 169.757 169.545 
169.509 168.766 169.167 169.356 169.693 169.721 169.906 169.924 169.956 
169.924 169.689 169.448 168.287 168.614 168.691 169.032 169.058 169.411 
169.529 169.858 170.002 170.037 169.917 169.562 169.283 167.792 168.09 
168.166 168.439 168.529 168.807 169.003 169.372 169.673 169.975 170.084 
169.991 169.789 169.436 169.287 167.271 167.566 167.684 167.987 168.166 
168.434 168.646 168.937 169.193 169.56 169.765 169.987 169.952 169.846 
169.689 169.483 169.497 166.818 167.073 167.216 167.532 167.757 168.089 
168.302 168.591 168.742 169.054 169.192 169.536 169.613 169.807 169.758 
169.746 169.701 169.659 169.744 168.194 168.319 168.198 168.174 168.617 
168.409 168.428 168.313 168.321 169.026 168.766 168.664 168.534 168.436 
168.338 168.109 169.195 169.033 168.731 168.623 168.299 168.242 167.876 
167.84 167.458 169.049 168.976 168.622 168.539 168.166 168.035 167.664 
167.561 167.288 167.221 167.011 168.955 168.834 168.674 168.535 168.426 
168.14 167.98 167.636 167.544 167.299 167.289 167.068 166.985 169.14 
168.961 169.048 168.883 169.074 168.756 168.798 168.309 168.242 167.822 
167.795 167.508 167.439 167.137 166.935 169.493 169.333 169.508 169.404 
169.643 169.479 169.518 169.156 168.935 168.51 168.238 167.944 167.713 
167.497 167.228 166.968 166.653 169.817 169.728 169.859 169.8 169.899 
169.846 169.755 169.592 169.251 168.956 168.504 168.21 167.804 167.601 
167.264 167.108 166.802 166.607 166.319 169.967 170.087 170.056 170.038 
169.927 170.072 170.033 170.031 169.95 169.423 169.763 169.715 169.84 
169.654 169.766 169.623 168.63 169.117 169.137 169.395 169.192 169.325 
169.092 169.278 169.069 167.734 168.245 168.299 168.703 168.58 168.811 
168.583 168.731 168.48 168.632 168.362 166.877 167.34 167.35 167.797 
167.713 168.09 167.917 168.178 167.914 168.066 167.751 167.894 167.63 
166.056 166.476 166.457 166.869 166.795 167.192 167.063 167.411 167.189 
167.43 167.119 167.287 167.009 167.209 167.046 165.329 165.675 165.655 
166.018 165.969 166.335 166.255 166.587 166.431 166.685 166.461 166.654 
166.451 166.638 166.515 166.723 166.636 164.747 165.017 164.985 165.278 
165.237 165.566 165.521 165.845 165.744 165.999 165.842 166.05 165.929 
166.137 166.081 166.271 166.211 166.366 166.245 169.909 169.64 169.874 
169.963 169.075 169.43 169.499 169.797 169.776 168.438 168.787 168.823 
169.18 169.125 169.423 169.233 167.87 168.171 168.169 168.473 168.346 
168.642 168.407 168.7 168.402 167.251 167.553 167.452 167.767 167.565 
167.841 167.554 167.825 167.547 167.831 167.547 166.559 166.828 166.59 
166.911 166.654 166.992 166.726 167.012 166.758 167.022 166.792 167.033 
166.756 165.925 166.118 165.837 166.04 165.781 166.073 165.892 166.207 
166.02 166.285 166.056 166.299 166.04 166.256 165.958 165.348 165.522 
165.28 165.402 165.169 165.344 165.195 165.45 165.297 165.552 165.31 
165.549 165.276 165.524 165.271 165.489 165.241 164.759 164.957 164.742 
164.891 164.659 164.814 164.614 164.819 164.601 164.824 164.537 164.769 
164.481 164.749 164.536 164.81 164.643 164.856 164.674 166.646 166.582 
166.745 167.06 166.543 166.719 167.058 167.236 167.616 166.481 166.68 
167.026 167.229 167.594 167.804 168.158 166.376 166.601 166.929 167.156 
167.487 167.723 168.042 168.267 168.562 166.112 166.416 166.702 166.99 
167.3 167.57 167.882 168.118 168.417 168.637 168.955 165.692 166.049 
166.319 166.669 166.963 167.307 167.628 167.933 168.255 168.503 168.829 
169.061 169.375 165.325 165.641 165.961 166.282 166.602 166.934 167.252 
167.603 167.922 168.269 168.586 168.898 169.191 169.436 169.626 165.082 
165.36 165.714 165.999 166.353 166.635 166.964 167.249 167.547 167.869 
168.165 168.535 168.833 169.177 169.408 169.612 169.7 164.838 165.13 
165.442 165.749 166.057 166.376 166.685 166.991 167.288 167.559 167.839 
168.123 168.421 168.761 169.066 169.369 169.588 169.716 169.802 166.405 
165.97 166.228 166.306 165.423 165.747 165.821 166.122 166.222 164.781 
165.146 165.215 165.567 165.652 166.006 166.129 164.093 164.469 164.522 
164.904 164.984 165.38 165.516 165.91 166.038 163.367 163.747 163.784 
164.184 164.266 164.685 164.825 165.26 165.398 165.782 165.816 162.648 
163.007 163.04 163.437 163.526 163.956 164.084 164.533 164.646 165.076 
165.099 165.455 165.394 161.982 162.312 162.341 162.709 162.794 163.215 
163.334 163.773 163.86 164.284 164.302 164.687 164.652 165.003 164.985 
161.34 161.662 161.672 162.021 162.081 162.487 162.601 163.029 163.12 
163.513 163.539 163.903 163.901 164.263 164.284 164.655 164.719 160.719 
161.02 161.008 161.339 161.365 161.758 161.86 162.297 162.407 162.803 
162.841 163.183 163.184 163.536 163.566 163.952 164.02 164.416 164.488 
160.387 159.955 160.322 160.642 159.538 159.878 160.202 160.599 160.99 
159.26 159.505 159.834 160.191 160.63 161.033 161.509 159.187 159.324 
159.633 159.898 160.347 160.723 161.234 161.617 162.078 159.172 159.307 
159.59 159.778 160.179 160.483 160.952 161.327 161.764 162.132 162.5 
159.064 159.271 159.585 159.769 160.125 160.348 160.732 161.032 161.408 
161.765 162.125 162.491 162.833 158.909 159.156 159.528 159.75 160.095 
160.287 160.605 160.828 161.156 161.437 161.799 162.13 162.523 162.86 
163.241 158.768 159.024 159.413 159.67 160.001 160.204 160.474 160.683 
160.995 161.246 161.623 161.894 162.308 162.605 163.032 163.33 163.723 
158.645 158.886 159.259 159.531 159.853 160.066 160.311 160.515 160.823 
161.093 161.501 161.779 162.195 162.452 162.859 163.142 163.547 163.83 
164.199 158.72 159.1 159.025 159.324 159.614 159.456 159.694 159.636 
159.893 160.212 160.007 160.19 160.034 160.229 160.147 160.351 160.784 
160.594 160.764 160.565 160.748 160.567 160.79 160.656 160.923 161.315 
161.129 161.29 161.115 161.309 161.14 161.396 161.226 161.531 161.363 
161.669 161.971 161.705 161.864 161.635 161.813 161.661 161.91 161.813 
162.113 162.001 162.29 162.127 162.375 162.813 162.475 162.648 162.304 
162.451 162.189 162.408 162.281 162.587 162.517 162.821 162.708 162.962 
162.792 163.019 163.654 163.35 163.513 163.15 163.273 162.918 163.113 
162.865 163.189 163.039 163.4 163.253 163.559 163.382 163.645 163.452 
163.698 164.314 164.104 164.25 163.963 164.082 163.754 163.941 163.654 
163.963 163.745 164.097 163.901 164.2 164.005 164.263 164.08 164.327 
164.138 164.355 158.458 158.338 158.521 158.858 158.394 158.508 158.831 
158.998 159.396 158.42 158.567 158.83 158.98 159.309 159.558 159.98 
158.286 158.456 158.577 158.804 159.016 159.371 159.78 160.14 160.562 
158.199 158.238 158.23 158.398 158.568 158.959 159.435 159.901 160.437 
160.738 161.146 158.392 158.252 158.269 158.208 158.472 158.663 159.292 
159.673 160.382 160.68 161.208 161.373 161.808 158.803 158.606 158.749 
158.552 158.923 158.904 159.594 159.79 160.563 160.775 161.368 161.504 
161.987 162.126 162.628 159.256 159.105 159.333 159.173 159.549 159.496 
160.074 160.192 160.848 161.024 161.576 161.709 162.182 162.324 162.829 
162.993 163.482 159.666 159.572 159.817 159.728 160.05 160.03 160.467 
160.564 161.081 161.248 161.753 161.905 162.37 162.514 162.99 163.162 
163.63 163.786 164.168 158.234 157.923 158.044 158.085 157.652 157.748 
157.697 157.913 158.052 157.278 157.432 157.284 157.454 157.46 157.842 
158.037 156.781 157.002 156.903 157.032 156.938 157.196 157.36 157.819 
158.031 156.359 156.523 156.551 156.711 156.704 156.802 156.92 157.22 
157.56 157.913 158.128 156.286 156.253 156.284 156.418 156.531 156.658 
156.788 156.952 157.263 157.571 157.954 158.158 158.369 156.551 156.385 
156.37 156.301 156.382 156.478 156.627 156.809 157.058 157.347 157.724 
158.023 158.349 158.491 158.71 156.814 156.728 156.761 156.568 156.583 
156.466 156.576 156.641 156.885 157.119 157.48 157.797 158.169 158.422 
158.705 158.851 159.093 156.862 156.929 157.052 156.97 157.011 156.818 
156.892 156.767 156.997 157.05 157.416 157.613 158.004 158.244 158.575 
158.783 159.057 159.221 159.478 156.887 157.091 157.048 157.146 157.473 
157.312 157.398 157.275 157.224 158.05 157.777 157.833 157.615 157.607 
157.339 157.201 158.708 158.389 158.434 158.152 158.187 157.861 157.81 
157.418 157.338 159.433 159.05 159.084 158.788 158.848 158.53 158.529 
158.135 158.087 157.682 157.707 160.283 159.813 159.794 159.448 159.493 
159.189 159.178 158.836 158.766 158.41 158.383 158.084 158.184 161.108 
160.653 160.563 160.173 160.166 159.832 159.798 159.449 159.351 159.01 
158.952 158.68 158.736 158.54 158.69 161.73 161.372 161.242 160.889 
160.828 160.495 160.447 160.085 160.001 159.617 159.573 159.249 159.316 
159.075 159.222 159.033 159.192 162.193 161.903 161.782 161.48 161.401 
161.103 161.047 160.724 160.665 160.304 160.281 159.934 160.003 159.709 
159.845 159.598 159.744 159.525 159.646 162.407 162.694 162.365 162.031 
163.044 162.689 162.325 161.997 161.67 163.35 163.023 162.651 162.308 
161.95 161.639 161.315 163.679 163.335 162.994 162.638 162.274 161.928 
161.582 161.279 160.952 164.129 163.744 163.442 163.036 162.692 162.286 
161.934 161.575 161.262 160.94 160.63 164.565 164.218 163.919 163.528 
163.192 162.761 162.401 161.98 161.66 161.3 161.029 160.68 160.4 
164.909 164.599 164.289 163.955 163.624 163.252 162.901 162.481 162.128 
161.728 161.432 161.092 160.834 160.491 160.23 165.308 164.962 164.678 
164.315 164.006 163.648 163.334 162.959 162.615 162.205 161.855 161.483 
161.19 160.881 160.628 160.32 160.081 165.771 165.43 165.202 164.796 
164.513 164.087 163.78 163.385 163.069 162.675 162.328 161.919 161.582 
161.226 160.953 160.664 160.432 160.156 159.94 159.95 160.436 160.17 
160.131 160.972 160.687 160.687 160.397 160.404 161.64 161.303 161.365 
161.033 161.101 160.762 160.844 162.401 162.051 162.172 161.823 161.976 
161.586 161.716 161.313 161.453 163.138 162.817 162.936 162.64 162.846 
162.53 162.729 162.304 162.438 161.989 162.121 163.903 163.577 163.697 
163.377 163.551 163.315 163.548 163.277 163.435 163.02 163.1 162.65 
162.747 164.713 164.41 164.589 164.202 164.332 164.001 164.188 163.971 
164.161 163.896 163.984 163.603 163.656 163.25 163.349 165.412 165.207 
165.41 165.095 165.193 164.817 164.918 164.62 164.789 164.547 164.677 
164.378 164.435 164.094 164.165 163.826 163.935 165.93 165.8 165.959 
165.774 165.835 165.569 165.606 165.332 165.447 165.201 165.342 165.059 
165.138 164.813 164.868 164.561 164.639 164.351 164.429 162.735 162.582 
162.423 161.944 162.455 162.259 161.751 161.595 161.111 162.411 162.172 
161.649 161.424 160.899 160.741 160.256 162.393 162.162 161.659 161.385 
160.831 160.57 160.023 159.866 159.394 162.392 162.165 161.706 161.432 
160.882 160.555 159.947 159.676 159.136 159.01 158.59 162.48 162.229 
161.811 161.516 160.991 160.631 160.002 159.645 159.039 158.801 158.314 
158.228 157.846 162.572 162.362 161.97 161.671 161.153 160.767 160.14 
159.733 159.115 158.778 158.253 158.027 157.6 157.505 157.165 162.524 
162.404 162.03 161.806 161.29 160.936 160.31 159.898 159.303 158.926 
158.432 158.097 157.684 157.413 157.1 156.946 156.75 162.375 162.294 
161.939 161.794 161.321 161.041 160.458 160.081 159.526 159.159 158.725 
158.374 158.019 157.665 157.391 157.097 156.957 156.764 156.737 162.648 
161.872 162.265 162.251 161.057 161.47 161.467 161.856 161.858 160.211 
160.643 160.649 161.06 161.063 161.472 161.518 159.35 159.778 159.776 
160.215 160.218 160.655 160.698 161.151 161.244 158.567 158.944 158.926 
159.33 159.321 159.77 159.82 160.311 160.423 160.903 161.016 157.847 
158.207 158.204 158.547 158.53 158.901 158.947 159.418 159.558 160.072 
160.218 160.682 160.777 157.136 157.477 157.481 157.848 157.846 158.185 
158.223 158.614 158.764 159.238 159.428 159.895 160.028 160.447 160.539 
156.663 156.831 156.802 157.111 157.112 157.479 157.514 157.918 158.054 
158.509 158.722 159.168 159.35 159.743 159.874 160.251 160.379 156.618 
156.558 156.502 156.579 156.564 156.788 156.818 157.177 157.293 157.766 
157.976 158.477 158.695 159.121 159.287 159.647 159.792 160.146 160.294 
163.054 162.66 163.08 163.517 162.285 162.691 163.142 163.548 163.994 
161.977 162.358 162.828 163.206 163.66 164.043 164.488 161.713 162.08 
162.559 162.926 163.37 163.727 164.158 164.536 164.953 161.458 161.814 
162.27 162.648 163.068 163.423 163.805 164.183 164.595 164.987 165.383 
161.19 161.537 161.963 162.34 162.757 163.107 163.461 163.804 164.173 
164.586 165.009 165.415 165.804 160.938 161.258 161.669 162.027 162.454 
162.807 163.191 163.495 163.841 164.176 164.574 164.994 165.411 165.815 
166.154 160.763 161.034 161.435 161.75 162.165 162.511 162.921 163.248 
163.62 163.909 164.276 164.606 165.002 165.387 165.739 166.101 166.346 
160.657 160.894 161.275 161.546 161.931 162.235 162.622 162.962 163.347 
163.678 164.044 164.352 164.713 165.034 165.378 165.699 165.967 166.252 
166.431 158.337 158.434 158.243 158.018 158.572 158.352 158.106 157.963 
157.772 158.776 158.531 158.261 158.056 157.808 157.668 157.395 158.938 
158.75 158.473 158.229 157.906 157.69 157.346 157.192 156.855 158.948 
158.835 158.531 158.358 157.969 157.762 157.38 157.181 156.855 156.683 
156.445 159.004 158.83 158.501 158.315 157.878 157.706 157.303 157.185 
156.911 156.78 156.611 156.447 156.393 159.295 159.006 158.73 158.399 
158.005 157.67 157.269 157.074 156.817 156.772 156.645 156.614 156.566 
156.508 156.566 159.716 159.397 159.188 158.809 158.53 158.056 157.721 
157.268 157 156.743 156.607 156.553 156.496 156.539 156.538 156.623 
156.693 160.133 159.83 159.637 159.314 159.109 158.704 158.455 157.947 
157.684 157.191 157.009 156.682 156.607 156.474 156.462 156.482 156.508 
156.634 156.688 
POINT_DATA 1002
SCALARS Distance double
LOOKUP_TABLE default
162.695 162.457 162.97 163.302 163.54 163.057 163.949 164.186 163.726 
163.399 164.65 164.997 164.396 164.056 163.659 165.485 165.934 165.093 
164.734 164.318 164.025 166.32 166.663 165.863 165.453 165.041 164.71 
164.51 166.928 167.091 166.629 166.228 165.782 165.396 165.141 164.893 
167.397 167.493 167.322 167.039 166.528 166.051 165.751 165.507 165.223 
167.808 167.923 167.888 167.781 167.236 166.652 166.364 166.182 165.922 
165.65 168.068 168.238 168.203 168.277 167.798 167.108 166.839 166.837 
166.671 166.351 166.074 162.614 163.119 162.742 163.244 162.719 163.694 
163.264 162.612 163.847 164.397 163.29 162.601 163.961 164.587 165.296 
163.414 162.651 164.165 164.789 165.464 166.199 163.506 162.677 164.409 
165.141 165.665 166.248 166.796 163.535 162.755 164.467 165.387 165.983 
166.359 166.828 167.255 163.603 162.903 164.408 165.321 166.094 166.524 
166.91 167.438 167.813 163.686 163.024 164.39 165.178 165.986 166.57 
166.957 167.486 168.073 168.321 163.495 164.208 163.955 164.738 164.439 
164.977 165.273 164.923 165.62 165.821 165.687 165.353 166.168 166.515 
166.576 166.002 165.774 166.417 166.943 167.118 167.025 166.427 166.193 
166.64 167.031 167.328 167.383 167.445 166.852 166.463 167.112 167.315 
167.487 167.632 167.887 168.126 167.005 166.541 167.471 167.814 168.013 
168.176 168.428 168.669 168.639 166.977 166.575 167.496 168.018 168.453 
168.846 169.182 169.278 169.045 168.628 168.276 168.717 168.429 169.406 
168.983 168.874 169.869 169.77 169.47 169.329 169.656 170.011 169.966 
169.838 169.363 169.001 169.412 169.744 170.066 169.871 169.115 168.39 
168.684 169.081 169.766 170.178 169.704 169.034 167.863 168.246 168.658 
169.272 169.982 170.093 169.572 169.257 167.34 167.852 168.401 168.882 
169.428 169.888 169.876 169.621 169.614 166.903 167.406 168.014 168.493 
168.854 169.295 169.659 169.742 169.743 169.878 168.252 168.548 168.485 
168.877 168.57 168.253 168.896 168.424 167.907 167.471 168.672 168.301 
167.777 167.31 167.087 168.719 168.635 168.343 167.823 167.501 167.279 
169.132 169.297 169.29 168.763 168.142 167.744 167.297 169.611 169.784 
169.85 169.416 168.626 167.947 167.451 166.938 169.96 170.008 169.906 
169.51 168.829 168.058 167.408 166.936 166.533 170.063 170.147 170.054 
170.016 169.712 169.939 169.563 168.996 169.568 169.456 168.794 168.099 
169.056 168.954 168.87 167.842 167.26 168.261 168.424 168.372 168.199 
166.918 166.452 167.291 167.588 167.741 167.629 167.424 166.057 165.66 
166.398 166.698 166.906 166.921 166.809 166.796 165.31 165.019 165.598 
165.912 166.158 166.231 166.234 166.311 166.44 164.722 164.501 164.926 
165.188 165.466 165.611 165.688 165.867 166.065 166.128 169.788 169.774 
169.36 169.158 168.709 169.566 168.496 168.111 168.817 168.993 167.907 
167.593 168.106 168.117 168.113 167.161 167 167.289 167.301 167.246 
167.283 166.325 166.355 166.286 166.388 166.491 166.537 166.555 165.676 
165.746 165.511 165.546 165.742 165.828 165.804 165.762 165.146 165.153 
165.019 164.976 165.063 165.087 165.017 165.006 165.045 164.573 164.553 
164.509 164.449 164.417 164.323 164.204 164.224 164.379 164.504 166.461 
166.873 166.412 166.873 166.345 167.43 166.823 166.278 167.384 167.969 
166.704 166.149 167.261 167.818 168.341 166.398 165.791 167.007 167.633 
168.196 168.717 165.96 165.327 166.602 167.281 167.972 168.599 169.173 
165.639 165.011 166.286 166.919 167.558 168.237 168.924 169.477 165.429 
164.807 166.074 166.702 167.272 167.814 168.445 169.131 169.618 166.179 
166.045 165.686 165.51 165.073 165.91 164.855 164.416 165.281 165.765 
164.137 163.728 164.576 165.096 165.689 163.378 162.997 163.839 164.385 
164.996 165.509 162.649 162.3 163.094 163.646 164.221 164.723 165.066 
161.989 161.657 162.385 162.906 163.453 163.908 164.275 164.617 161.339 
161.025 161.689 162.17 162.729 163.18 163.529 163.899 164.338 160.697 
160.436 160.989 161.417 161.993 162.502 162.842 163.181 163.619 164.103 