# vtk DataFile Version 4.0
vtk output
ASCII
DATASET POLYDATA
POINTS 1002 float
-118.48 -103.634 49.798 -118.509 -103.418 49.0653 -118.1 -103.579 49.3196 
-117.999 -103.89 50.0218 -117.516 -103.685 49.6758 -118.471 -103.874 50.5629 
-117.333 -104.093 50.3415 -116.746 -103.726 50.1003 -117.959 -104.288 50.7126 
-118.502 -104.334 51.2338 -116.554 -104.219 50.7396 -116.028 -103.798 50.5322 
-117.255 -104.625 50.9646 -118.004 -104.828 51.3649 -118.53 -104.93 51.8599 
-115.907 -104.392 51.142 -115.444 -103.93 50.977 -116.46 -104.85 51.2992 
-117.252 -105.166 51.6167 -118.02 -105.304 52.1136 -118.525 -105.332 52.654 
-115.328 -104.579 51.5669 -114.816 -104.067 51.4225 -115.792 -105.012 51.7283 
-116.396 -105.329 52.0336 -117.208 -105.519 52.51 -117.95 -105.577 53.0678 
-118.483 -105.563 53.589 -114.645 -104.743 51.9599 -114.149 -104.308 51.7458 
-115.163 -105.057 52.2723 -115.713 -105.338 52.6699 -116.387 -105.615 53.0993 
-117.17 -105.769 53.5758 -117.886 -105.836 54.0751 -118.434 -105.858 54.5324 
-113.951 -105.061 52.1841 -113.539 -104.737 51.9123 -114.478 -105.161 52.698 
-115.108 -105.307 53.2985 -115.783 -105.652 53.7516 -116.497 -105.924 54.1083 
-117.249 -106.065 54.5385 -117.929 -106.176 55.0433 -118.409 -106.152 55.5208 
-113.326 -105.478 52.3368 -112.951 -105.152 52.0769 -113.839 -105.478 52.9102 
-114.467 -105.478 53.6282 -115.16 -105.783 54.1723 -115.886 -106.105 54.5159 
-116.647 -106.235 54.8944 -117.409 -106.38 55.4148 -118.017 -106.459 55.9936 
-118.356 -106.269 56.5086 -112.781 -105.687 52.6353 -112.423 -105.322 52.3841 
-113.307 -105.749 53.1619 -113.9 -105.741 53.8396 -114.483 -105.992 54.4081 
-115.134 -106.329 54.805 -115.918 -106.419 55.2073 -116.756 -106.462 55.7187 
-117.504 -106.606 56.2938 -118.006 -106.56 56.8586 -118.227 -106.218 57.3482 
-118.282 -103.223 48.4961 -117.817 -103.317 48.8376 -117.936 -103.005 47.8879 
-117.37 -103.032 48.3382 -117.439 -102.796 47.3827 -117.119 -103.367 49.2824 
-116.852 -102.718 47.9489 -116.971 -102.363 47.2359 -116.625 -103.123 48.8197 
-116.296 -103.447 49.7077 -116.444 -102.181 47.8255 -116.602 -101.66 47.3374 
-116.163 -102.808 48.434 -115.815 -103.32 49.1799 -115.56 -103.547 50.1284 
-116.029 -101.574 47.8207 -116.162 -101.066 47.3566 -115.731 -102.249 48.2724 
-115.301 -103.085 48.7284 -114.967 -103.475 49.54 -114.855 -103.594 50.6354 
-115.524 -101.18 47.772 -115.667 -100.647 47.3065 -115.21 -101.73 48.2343 
-114.702 -102.634 48.5229 -114.244 -103.414 48.9688 -114.089 -103.525 50.0384 
-114.148 -103.668 51.1555 -115.111 -100.776 47.763 -115.259 -100.125 47.3195 
-114.752 -101.365 48.225 -114.152 -102.149 48.5025 -113.556 -103.136 48.6535 
-113.307 -103.582 49.3819 -113.426 -103.542 50.654 -113.57 -103.926 51.5487 
-114.803 -100.183 47.8542 -114.938 -99.5299 47.4021 -114.432 -100.892 48.2642 
-113.785 -101.638 48.5422 -113.101 -102.548 48.6282 -112.751 -103.281 49.0105 
-112.828 -103.439 50.1128 -113.031 -103.604 51.2676 -113.055 -104.312 51.8247 
-114.513 -99.6224 48.0305 -114.681 -99.0831 47.5871 -114.123 -100.323 48.3562 
-113.463 -101.067 48.5708 -112.776 -101.827 48.7034 -112.42 -102.561 48.9737 
-112.47 -102.991 49.7931 -112.644 -103.211 50.9618 -112.658 -103.747 51.7725 
-112.517 -104.61 52.1038 -114.36 -99.0861 48.1974 -113.957 -99.6776 48.4808 
-113.931 -99.2297 48.7546 -113.222 -99.8189 48.7802 -113.375 -99.3774 49.1587 
-113.256 -100.39 48.5958 -112.499 -99.8083 49.1381 -112.76 -99.3496 49.7027 
-112.324 -100.41 48.7998 -112.474 -101.089 48.7256 -112.058 -99.6431 49.8992 
-112.316 -99.3149 50.5424 -111.783 -100.277 49.3502 -111.774 -101.027 49.1044 
-112.088 -101.761 49.0397 -111.987 -99.7436 50.9479 -112.211 -99.5974 51.4456 
-111.765 -100.261 50.3681 -111.661 -101.052 49.9384 -111.883 -101.725 49.7813 
-112.214 -102.339 49.7539 -112.05 -100.219 52.0173 -112.292 -100.072 52.337 
-111.842 -100.611 51.5952 -111.701 -101.305 51.1434 -111.846 -101.934 50.8596 
-112.176 -102.322 50.8108 -112.422 -102.742 50.8671 -112.055 -100.669 53.0358 
-112.387 -100.438 53.2298 -111.742 -101.064 52.7844 -111.467 -101.61 52.4611 
-111.474 -102.161 52.1241 -111.81 -102.539 51.9155 -112.144 -102.852 51.8541 
-112.374 -103.283 51.822 -112.089 -100.928 53.9139 -112.513 -100.71 53.9994 
-111.682 -101.332 53.7714 -111.276 -101.804 53.5654 -111.054 -102.24 53.2846 
-111.251 -102.665 52.9705 -111.648 -103.1 52.7115 -111.924 -103.584 52.5042 
-112.162 -104.128 52.2937 -112.255 -101.159 54.6076 -112.702 -101.006 54.6137 
-111.843 -101.503 54.5328 -111.436 -101.946 54.3723 -111.078 -102.342 54.1358 
-111.038 -102.754 53.838 -111.365 -103.271 53.5185 -111.678 -103.824 53.2103 
-111.827 -104.38 52.9022 -112.038 -104.919 52.6047 -112.247 -105.491 53.0486 
-111.965 -105.068 53.3585 -112.337 -105.413 54.1077 -111.894 -104.586 53.7194 
-112.142 -105.085 54.4993 -112.514 -105.409 55.3929 -111.757 -104.087 54.0614 
-112.059 -104.766 54.9018 -112.217 -105.232 55.8511 -112.59 -105.583 56.6595 
-111.402 -103.514 54.3704 -111.8 -104.341 55.2501 -111.958 -104.95 56.3111 
-112.169 -105.389 57.1498 -112.776 -105.605 57.7733 -111.236 -102.958 54.6601 
-111.499 -103.737 55.5103 -111.689 -104.416 56.6622 -111.904 -104.954 57.6088 
-112.42 -105.296 58.2323 -113.21 -105.384 58.7267 -111.497 -102.51 54.9215 
-111.602 -103.146 55.6925 -111.656 -103.728 56.8104 -111.827 -104.296 57.8857 
-112.214 -104.847 58.6301 -112.866 -105.116 59.1624 -113.631 -105.222 59.5566 
-111.889 -102.073 55.1184 -112.001 -102.688 55.8071 -111.989 -103.17 56.7717 
-111.986 -103.601 57.9013 -112.141 -104.23 58.8764 -112.506 -104.788 59.581 
-113.181 -105.019 60.0175 -113.953 -105.219 60.2855 -112.253 -101.667 55.2161 
-112.366 -102.288 55.8619 -112.409 -102.806 56.6519 -112.323 -103.105 57.7112 
-112.255 -103.524 58.8891 -112.331 -104.185 59.8499 -112.758 -104.668 60.4292 
-113.543 -104.926 60.7128 -114.297 -105.245 60.9571 -112.664 -101.419 55.2209 
-112.707 -101.947 55.8731 -112.759 -102.489 56.5695 -112.688 -102.811 57.4829 
-112.536 -102.998 58.6899 -112.469 -103.438 59.8327 -112.68 -104.035 60.5669 
-113.286 -104.456 60.9572 -114.058 -104.801 61.2469 -114.624 -105.227 61.6141 
-112.735 -105.718 53.5187 -112.896 -105.617 54.7385 -113.364 -105.801 54.1565 
-113.078 -105.671 56.0595 -113.505 -105.848 55.3759 -113.908 -106.028 54.7538 
-113.256 -105.777 57.2758 -113.672 -105.934 56.6584 -113.951 -106.217 55.8946 
-114.401 -106.417 55.2115 -113.573 -105.677 58.3227 -113.911 -105.973 57.8093 
-114.161 -106.28 57.1377 -114.485 -106.549 56.3603 -115.125 -106.584 55.6743 
-113.956 -105.522 59.2325 -114.171 -105.961 58.8246 -114.453 -106.353 58.2725 
-114.837 -106.558 57.6266 -115.351 -106.587 56.9183 -116.054 -106.531 56.2334 
-114.296 -105.526 60.0428 -114.449 -105.958 59.8128 -114.695 -106.384 59.4323 
-115.184 -106.559 58.8883 -115.708 -106.51 58.2551 -116.263 -106.506 57.5098 
-116.925 -106.594 56.8009 -114.613 -105.614 60.8252 -114.802 -105.976 60.7639 
-115.049 -106.319 60.6276 -115.523 -106.504 60.2459 -116.03 -106.431 59.6552 
-116.462 -106.363 58.8722 -116.998 -106.501 58.002 -117.584 -106.628 57.3226 
-114.847 -105.667 61.6369 -115.087 -105.999 61.6724 -115.462 -106.28 61.6475 
-115.982 -106.555 61.4226 -116.434 -106.626 60.977 -116.732 -106.455 60.2743 
-117.087 -106.365 59.3094 -117.556 -106.409 58.4024 -117.958 -106.368 57.8035 
-114.928 -105.493 62.3927 -115.113 -105.919 62.5508 -115.136 -105.69 63.2068 
-115.497 -106.075 63.3468 -115.687 -105.697 63.7249 -115.575 -106.234 62.5499 
-116.311 -106.156 63.7308 -116.702 -105.528 63.9957 -116.278 -106.617 63.0696 
-116.289 -106.693 62.3022 -117.34 -106.092 63.9073 -117.697 -105.336 64.2087 
-117.055 -107.007 63.2267 -117.019 -107.488 62.5467 -116.855 -107.163 61.9245 
-118.233 -105.907 64.0455 -118.494 -105.285 64.1792 -117.717 -106.823 63.4272 
-117.374 -107.817 62.6919 -117.325 -107.926 62.1541 -117.111 -107.116 61.4277 
-119.176 -105.882 64.0207 -119.374 -105.321 63.9012 -118.576 -106.335 63.6588 
-117.822 -107.065 62.9205 -117.579 -107.701 62.2626 -117.589 -107.42 61.5861 
-117.368 -106.673 60.5416 -120.161 -105.943 63.846 -120.184 -105.221 63.6091 
-119.779 -106.294 63.6916 -118.919 -106.427 62.9889 -118.274 -106.764 62.1646 
-118.137 -106.96 61.4461 -117.994 -106.627 60.5477 -117.724 -106.319 59.4441 
-120.727 -105.721 63.4429 -120.59 -104.928 63.1782 -120.691 -106.364 63.4281 
-120.159 -106.542 62.8352 -119.408 -106.466 61.926 -118.918 -106.464 61.1508 
-118.57 -106.323 60.4252 -118.204 -106.056 59.5491 -117.995 -106.076 58.6347 
-120.84 -105.225 62.6875 -120.714 -104.572 62.4524 -120.952 -105.988 62.7791 
-120.783 -106.521 62.4355 -120.295 -106.59 61.6879 -119.744 -106.425 60.9372 
-119.208 -106.209 60.3215 -118.654 -105.89 59.6474 -118.277 -105.699 58.8732 
-118.192 -105.871 58.0946 -114.678 -104.823 61.9371 -114.988 -105.04 62.702 
-114.736 -104.251 62.1421 -115.087 -104.349 62.8642 -114.718 -103.574 62.3434 
-115.33 -105.191 63.3021 -115.18 -103.548 63.0163 -114.791 -102.964 62.4649 
-115.684 -104.434 63.1932 -116.122 -105.134 63.5765 -115.449 -102.946 62.9411 
-115.223 -102.622 62.0841 -116.023 -103.619 63.1378 -116.635 -104.406 63.3127 
-117.138 -104.908 63.8817 -115.986 -102.675 62.2747 -115.793 -102.421 61.2811 
-116.399 -103.037 62.9102 -116.998 -103.648 63.2021 -117.502 -104.223 63.7014 
-117.943 -104.704 64.1449 -116.472 -102.415 61.4135 -116.124 -101.993 60.7177 
-116.858 -102.706 62.2406 -117.331 -103.055 62.9061 -117.861 -103.504 63.4851 
-118.319 -103.979 63.9003 -118.777 -104.601 63.95 -116.74 -101.877 60.9163 
-116.336 -101.352 60.5059 -117.24 -102.351 61.4868 -117.706 -102.695 62.1844 
-118.231 -102.983 62.9011 -118.862 -103.289 63.4602 -119.358 -103.778 63.6253 
-119.736 -104.497 63.5816 -116.976 -101.205 60.6675 -116.675 -100.82 60.256 
-117.495 -101.775 60.9926 -118.036 -102.338 61.3865 -118.505 -102.707 61.9692 
-119.153 -102.889 62.6739 -119.857 -103.135 63.1753 -120.227 -103.665 63.304 
-120.382 -104.343 63.2619 -117.273 -100.643 60.3825 -117.094 -100.513 59.8316 
[...]
CELL_DATA 2000
SCALARS Distance double
LOOKUP_TABLE default
163.837 163.678 163.909 164.185 163.381 163.706 164.043 164.291 164.627 
163.022 163.374 163.772 164.117 164.536 164.799 165.187 162.773 163.072 
163.475 163.824 164.28 164.647 165.09 165.368 165.731 162.585 162.881 
163.271 163.567 163.973 164.338 164.782 165.167 165.571 165.857 166.177 
162.36 162.674 163.056 163.357 163.725 164.046 164.458 164.83 165.268 
165.623 166.016 166.283 166.613 162.186 162.45 162.81 163.101 163.472 
163.794 164.224 164.566 165.028 165.358 165.81 166.113 166.536 166.769 
167.116 162.085 162.309 162.644 162.881 163.245 163.545 163.996 164.352 
164.835 165.169 165.618 165.93 166.382 166.685 167.107 167.304 167.586 
161.954 162.191 162.518 162.747 163.099 163.359 163.781 164.118 164.583 
164.944 165.368 165.709 166.119 166.481 166.913 167.237 167.574 167.726 
167.876 163.573 163.063 163.364 163.395 162.446 162.789 162.807 163.113 
163.07 161.788 162.132 162.147 162.48 162.448 162.733 162.692 161.122 
161.464 161.482 161.821 161.824 162.118 162.087 162.376 162.408 160.44 
160.788 160.795 161.147 161.155 161.492 161.461 161.762 161.742 162.099 
162.168 159.792 160.124 160.122 160.446 160.423 160.78 160.744 161.088 
161.028 161.381 161.397 161.827 161.93 159.191 159.52 159.542 159.813 
159.763 160.049 159.998 160.335 160.296 160.645 160.653 161.052 161.174 
161.622 161.788 158.603 158.941 158.997 159.27 159.214 159.436 159.336 
159.612 159.575 159.921 159.964 160.347 160.484 160.912 161.113 161.542 
161.717 158.104 158.39 158.456 158.725 158.664 158.879 158.729 158.963 
158.882 159.218 159.284 159.684 159.847 160.263 160.464 160.887 161.072 
161.474 161.605 157.953 157.845 157.993 158.211 157.654 157.786 157.851 
158.129 158.312 157.36 157.473 157.403 157.65 157.735 158.12 158.321 
157.181 157.181 157.108 157.218 157.301 157.571 157.827 158.192 158.518 
157.405 157.213 157.263 157.159 157.367 157.399 157.775 157.932 158.382 
158.603 159.033 157.982 157.691 157.833 157.597 157.88 157.754 158.18 
158.168 158.651 158.707 159.164 159.269 159.682 158.603 158.344 158.473 
158.253 158.458 158.321 158.621 158.606 158.976 159.034 159.405 159.479 
159.838 159.936 160.302 159.133 158.91 158.993 158.815 158.932 158.795 
158.94 158.903 159.134 159.223 159.527 159.653 159.966 160.077 160.402 
160.528 160.876 159.646 159.408 159.478 159.287 159.401 159.225 159.339 
159.192 159.369 159.348 159.666 159.756 160.129 160.214 160.55 160.627 
160.951 161.074 161.4 161.63 161.224 161.576 161.915 160.891 161.241 
161.64 161.963 162.388 160.514 160.94 161.417 161.768 162.219 162.517 
162.97 160.038 160.513 161.035 161.514 161.998 162.353 162.768 163.088 
163.517 159.718 160.069 160.573 161.065 161.584 162.04 162.466 162.84 
163.243 163.6 164.021 159.693 159.894 160.362 160.691 161.197 161.599 
162.069 162.48 162.923 163.312 163.749 164.102 164.519 159.758 159.935 
160.386 160.612 161.078 161.335 161.777 162.109 162.57 162.973 163.434 
163.821 164.244 164.59 164.994 159.819 159.984 160.422 160.647 161.098 
161.303 161.686 161.903 162.289 162.624 163.06 163.467 163.888 164.278 
164.68 165.051 165.467 159.968 160.07 160.485 160.672 161.118 161.319 
161.692 161.855 162.164 162.382 162.74 163.083 163.491 163.888 164.298 
164.7 165.124 165.521 165.941 161.97 162.249 162.25 162.562 162.701 
162.611 162.936 162.886 163.194 163.285 163.145 163.464 163.346 163.668 
163.567 163.893 163.863 163.748 164.071 163.927 164.225 164.085 164.395 
164.304 164.657 164.376 164.3 164.642 164.527 164.825 164.667 164.951 
164.819 165.142 165.072 165.422 164.862 164.799 165.153 165.071 165.41 
165.279 165.595 165.425 165.738 165.589 165.932 165.836 166.193 165.359 
165.297 165.67 165.589 165.964 165.867 166.233 166.091 166.41 166.227 
166.531 166.385 166.737 166.641 167 165.87 165.818 166.23 166.143 
166.552 166.455 166.867 166.742 167.084 166.894 167.144 166.965 167.231 
167.15 167.46 167.407 167.658 166.35 166.333 166.759 166.707 167.141 
167.073 167.544 167.436 167.859 167.633 167.903 167.605 167.794 167.6 
167.808 167.75 167.922 167.883 167.95 166.722 167.359 167.094 167.148 
167.96 167.729 167.861 167.545 167.59 168.633 168.391 168.636 168.337 
168.518 168.087 168.109 169.324 169.116 169.408 169.171 169.465 169.11 
169.216 168.647 168.505 169.893 169.76 169.975 169.831 170.048 169.92 
170.043 169.694 169.501 168.882 168.507 170.449 170.323 170.494 170.278 
170.285 170.198 170.208 170.181 170.013 169.682 169.236 168.68 168.265 
170.976 170.929 171.196 170.886 170.812 170.425 170.261 170.13 170.002 
169.912 169.577 169.231 168.778 168.368 168.105 171.127 171.316 171.646 
171.573 171.572 171.12 170.854 170.382 170.168 169.919 169.687 169.436 
169.038 168.726 168.387 168.177 168.052 170.811 171.168 171.42 171.709 
171.763 171.699 171.443 171.05 170.702 170.291 170.001 169.646 169.288 
168.932 168.552 168.32 168.11 168.052 167.989 166.544 166.388 166.723 
167.166 166.087 166.499 166.975 167.308 167.732 165.748 166.153 166.659 
167.069 167.558 167.888 168.358 165.564 165.862 166.365 166.757 167.306 
167.696 168.214 168.547 169.03 165.522 165.757 166.217 166.527 167.062 
167.448 167.984 168.36 168.827 169.164 169.592 165.388 165.687 166.111 
166.407 166.875 167.22 167.726 168.104 168.565 168.912 169.316 169.658 
170.085 165.093 165.452 165.88 166.239 166.679 167.019 167.477 167.84 
168.313 168.66 169.082 169.39 169.786 170.138 170.55 164.815 165.125 
165.542 165.937 166.392 166.774 167.202 167.564 168.003 168.389 168.834 
169.18 169.556 169.854 170.163 170.506 170.744 164.662 164.876 165.218 
165.574 166.004 166.428 166.847 167.238 167.609 168.011 168.398 168.836 
169.197 169.572 169.813 170.106 170.229 170.523 170.548 160.219 160.766 
160.559 160.723 161.264 161.109 161.284 161.104 161.313 161.688 161.586 
161.793 161.645 161.829 161.676 161.853 162.101 162.021 162.27 162.144 
162.334 162.166 162.309 162.149 162.297 162.502 162.444 162.736 162.643 
162.868 162.685 162.827 162.618 162.763 162.602 162.827 162.911 162.836 
163.149 163.107 163.385 163.239 163.408 163.179 163.334 163.128 163.365 
163.226 163.547 163.409 163.264 163.55 163.51 163.832 163.749 163.97 
163.774 163.943 163.733 163.978 163.817 164.144 164.014 164.368 163.947 
163.772 164.001 163.924 164.255 164.203 164.49 164.339 164.533 164.333 
164.567 164.422 164.757 164.64 165.013 164.871 165.226 164.402 164.266 
164.465 164.376 164.693 164.649 164.984 164.877 165.116 164.923 165.137 
164.98 165.294 165.216 165.605 165.519 165.891 165.741 166.059 160.05 
159.952 160.196 160.573 159.783 160.052 160.413 160.689 161.037 159.641 
159.87 160.212 160.486 160.835 161.11 161.439 159.578 159.781 160.133 
160.335 160.707 160.934 161.291 161.521 161.851 159.459 159.724 160.117 
160.322 160.712 160.895 161.28 161.449 161.786 161.958 162.266 159.295 
159.576 159.985 160.26 160.646 160.893 161.277 161.481 161.834 161.97 
162.281 162.405 162.715 159.252 159.447 159.828 160.086 160.464 160.748 
161.141 161.423 161.823 162.03 162.399 162.513 162.864 162.941 163.282 
159.344 159.455 159.795 159.974 160.356 160.589 161.024 161.292 161.758 
162.007 162.452 162.637 163.047 163.159 163.523 163.568 163.87 159.511 
159.569 159.876 159.992 160.368 160.554 161.022 161.259 161.77 162 
162.47 162.673 163.091 163.279 163.645 163.776 164.055 164.105 164.317 
159.737 160.252 160 160.082 160.895 160.567 160.634 160.401 160.571 
161.656 161.269 161.331 161.024 161.219 160.999 161.264 162.489 162.086 
162.147 161.779 161.961 161.708 161.998 161.774 162.042 163.306 162.942 
163.017 162.626 162.75 162.453 162.686 162.484 162.73 162.513 162.71 
164.037 163.73 163.824 163.474 163.563 163.23 163.377 163.13 163.318 
163.12 163.298 163.105 163.283 164.708 164.427 164.518 164.221 164.316 
164.007 164.135 163.838 163.987 163.714 163.86 163.642 163.811 163.644 
163.818 165.342 165.078 165.16 164.879 164.968 164.701 164.838 164.58 
164.731 164.435 164.537 164.235 164.331 164.125 164.257 164.116 164.223 
165.92 165.691 165.775 165.508 165.574 165.315 165.423 165.214 165.365 
165.14 165.231 164.925 164.941 164.649 164.69 164.504 164.582 164.441 
164.486 166.259 166.72 166.377 166.123 167.146 166.817 166.551 166.199 
165.918 167.566 167.238 166.986 166.627 166.356 165.998 165.763 168.02 
167.687 167.484 167.111 166.88 166.483 166.263 165.9 165.712 168.487 
168.161 167.999 167.655 167.476 167.074 166.853 166.439 166.201 165.836 
165.58 168.961 168.641 168.48 168.163 168.002 167.659 167.439 167.035 
166.731 166.312 165.968 165.601 165.268 169.421 169.139 169.015 168.675 
168.511 168.155 167.936 167.562 167.263 166.836 166.458 166.009 165.631 
165.257 164.971 169.831 169.611 169.575 169.26 169.129 168.72 168.483 
168.055 167.771 167.353 167.026 166.558 166.181 165.703 165.374 165.016 
164.813 170.255 170.04 170.039 169.794 169.69 169.341 169.089 168.64 
168.311 167.871 167.556 167.13 166.792 166.311 165.943 165.484 165.19 
164.876 164.691 166.412 166.823 166.716 166.905 167.283 167.172 167.374 
167.214 167.358 167.67 167.646 167.878 167.717 167.858 167.659 167.775 
167.879 167.988 168.324 168.238 168.407 168.188 168.298 168.085 168.209 
168.078 168.205 168.685 168.695 168.966 168.765 168.886 168.638 168.762 
168.546 168.683 168.391 168.477 168.994 169.076 169.441 169.322 169.481 
169.246 169.378 169.142 169.285 169.041 169.165 168.594 168.731 169.136 
169.314 169.658 169.704 169.904 169.799 169.968 169.782 169.93 169.669 
169.744 169.483 169.56 168.554 168.759 169.059 169.298 169.581 169.763 
170.004 170.099 170.359 170.332 170.523 170.307 170.325 170.022 169.993 
169.792 169.872 168.443 168.642 168.951 169.163 169.453 169.632 169.906 
170.096 170.433 170.601 170.871 170.819 170.829 170.551 170.441 170.186 
170.209 170.097 170.271 166.159 165.853 166.178 166.539 165.472 165.83 
166.182 166.566 166.962 165 165.389 165.701 166.136 166.51 166.952 
167.298 164.491 164.883 165.171 165.6 165.952 166.427 166.759 167.188 
167.45 164.026 164.407 164.727 165.099 165.479 165.904 166.316 166.696 
167.01 167.335 167.637 163.591 163.992 164.372 164.726 165.14 165.522 
166.031 166.401 166.869 167.099 167.452 167.665 168.021 163.131 163.563 
163.982 164.391 164.816 165.211 165.688 166.127 166.643 167.015 167.424 
167.632 167.914 168.09 168.323 162.66 163.083 163.496 163.964 164.413 
164.857 165.27 165.706 166.097 166.595 166.968 167.425 167.677 167.958 
168.07 168.258 168.323 162.255 162.613 162.981 163.441 163.902 164.406 
164.848 165.268 165.577 165.969 166.242 166.743 167.03 167.508 167.672 
167.953 167.978 168.16 168.192 162.188 162.343 162.433 162.868 162.585 
162.615 163.048 163.211 163.785 162.869 162.868 163.286 163.436 164.046 
164.231 164.789 163.129 163.137 163.538 163.688 164.306 164.512 165.064 
165.156 165.523 163.335 163.382 163.785 163.932 164.536 164.76 165.322 
165.42 165.758 165.77 166.096 163.485 163.587 164.015 164.165 164.719 
164.943 165.507 165.662 166.065 166.063 166.39 166.411 166.845 163.602 
163.742 164.196 164.367 164.853 165.055 165.531 165.758 166.203 166.354 
166.733 166.771 167.127 167.18 167.529 163.716 163.855 164.294 164.495 
164.942 165.129 165.506 165.705 166.084 166.354 166.757 166.984 167.299 
167.403 167.614 167.687 167.855 163.837 163.948 164.316 164.523 164.944 
165.162 165.536 165.692 166.024 166.216 166.59 166.861 167.2 167.41 
167.611 167.71 167.842 167.913 168.067 164.002 164.36 164.249 164.452 
164.803 164.641 164.861 164.783 165.068 165.36 165.147 165.369 165.246 
165.558 165.459 165.709 165.914 165.723 165.946 165.806 166.147 166.023 
166.307 166.092 166.251 166.377 166.24 166.464 166.361 166.703 166.63 
166.953 166.754 166.914 166.626 166.774 166.814 166.685 166.906 166.822 
167.12 167.103 167.413 167.336 167.503 167.281 167.359 167.14 167.296 
167.277 167.132 167.343 167.247 167.507 167.464 167.72 167.685 167.867 
167.762 167.857 167.677 167.756 167.594 167.699 167.668 167.548 167.711 
167.651 167.913 167.865 168.116 168.014 168.203 168.091 168.282 168.153 
168.314 168.098 168.181 167.944 167.987 167.885 167.816 167.899 167.913 
168.172 168.232 168.548 168.479 168.685 168.512 168.718 168.6 168.868 
168.711 168.876 168.562 168.586 168.248 168.257 168.51 168.915 168.83 
169.073 169.255 169.27 169.505 169.393 169.561 169.227 169.448 169.702 
169.743 169.884 169.814 169.98 169.047 169.288 169.551 169.743 169.926 
170.026 170.242 170.265 170.529 169.029 169.185 169.446 169.571 169.761 
169.924 170.17 170.389 170.689 170.805 170.978 168.858 169.134 169.387 
169.544 169.705 169.797 169.978 170.188 170.451 170.733 170.884 171.014 
170.917 168.36 168.731 168.934 169.315 169.512 169.745 169.921 170.062 
170.301 170.479 170.695 170.818 170.816 170.785 170.588 167.98 168.182 
168.322 168.704 168.969 169.396 169.699 169.991 170.299 170.468 170.799 
170.848 171.062 170.907 170.9 170.611 170.488 167.942 167.956 168.06 
168.225 168.508 168.87 169.27 169.673 170.045 170.379 170.745 170.997 
171.346 171.363 171.524 171.216 171.167 170.728 170.623 157.937 158.438 
158.058 157.863 159.062 158.647 158.491 158.086 157.99 159.705 159.304 
159.18 158.781 158.748 158.361 158.39 160.391 159.988 159.871 159.465 
159.419 159.101 159.177 158.854 158.95 161.123 160.74 160.69 160.225 
160.158 159.758 159.811 159.548 159.677 159.402 159.501 161.821 161.498 
161.566 161.142 161.174 160.656 160.722 160.277 160.445 160.108 160.277 
159.945 160.064 162.456 162.174 162.275 161.989 162.125 161.734 161.868 
161.375 161.546 161.062 161.261 160.814 160.972 160.555 160.691 163.042 
162.777 162.832 162.612 162.733 162.532 162.675 162.402 162.522 162.159 
162.258 161.845 161.922 161.496 161.567 161.178 161.289 163.559 163.328 
163.373 163.143 163.232 163.043 163.156 162.99 163.066 162.871 162.887 
162.637 162.611 162.31 162.286 161.968 161.997 161.706 161.808 157.691 
157.557 157.505 157.374 157.594 157.385 157.162 157.202 157.144 157.919 
157.493 157.11 156.988 156.868 156.983 156.978 158.506 157.939 157.438 
157.034 156.789 156.745 156.764 156.881 156.971 159.157 158.614 158.18 
157.57 157.258 156.881 156.867 156.795 156.968 157.026 157.244 159.755 
159.292 159.015 158.445 158.216 157.639 157.592 157.198 157.358 157.2 
157.472 157.459 157.745 160.376 159.931 159.728 159.276 159.149 158.659 
158.622 158.132 158.212 157.831 158.036 157.834 158.114 158.039 158.307 
161.021 160.595 160.409 159.987 159.875 159.489 159.451 159.073 159.091 
158.72 158.815 158.511 158.7 158.505 158.741 158.619 158.838 161.617 
161.247 161.099 160.687 160.568 160.178 160.122 159.781 159.78 159.468 
159.519 159.238 159.362 159.128 159.309 159.118 159.308 159.151 159.326 
157.726 157.48 157.647 157.726 157.287 157.452 157.576 157.683 157.67 
157.1 157.249 157.365 157.527 157.572 157.608 157.478 157.053 157.087 
157.164 157.293 157.381 157.497 157.477 157.422 157.305 157.3 157.165 
157.222 157.188 157.31 157.374 157.497 157.483 157.509 157.385 157.453 
157.764 157.534 157.569 157.392 157.507 157.459 157.678 157.651 157.831 
157.702 157.848 157.723 157.966 158.281 158.032 158.038 157.806 157.875 
157.753 157.978 157.95 158.22 158.127 158.334 158.183 158.405 158.313 
158.588 158.785 158.539 158.547 158.295 158.351 158.164 158.366 158.301 
158.601 158.547 158.796 158.675 158.887 158.767 159.006 158.919 159.157 
159.258 159.029 159.058 158.821 158.904 158.686 158.882 158.749 159.045 
158.962 159.228 159.117 159.327 159.217 159.445 159.353 159.591 159.482 
159.696 165.858 165.292 165.578 165.554 164.652 164.972 164.954 165.25 
165.191 163.949 164.283 164.239 164.59 164.536 164.842 164.734 163.206 
163.542 163.456 163.818 163.748 164.114 164.014 164.328 164.202 162.417 
162.77 162.669 163.018 162.93 163.297 163.197 163.548 163.422 163.763 
163.671 161.608 161.965 161.856 162.207 162.09 162.464 162.352 162.717 
162.578 162.933 162.82 163.217 163.172 160.845 161.17 161.046 161.375 
161.208 161.573 161.417 161.821 161.668 162.059 161.921 162.326 162.263 
162.712 162.699 160.178 160.443 160.308 160.585 160.399 160.693 160.502 
160.86 160.709 161.113 160.992 161.41 161.346 161.794 161.796 162.253 
162.262 159.633 159.823 159.673 159.893 159.719 159.947 159.77 160.031 
159.903 160.223 160.15 160.516 160.487 160.9 160.925 161.373 161.428 
161.861 161.901 
POINT_DATA 1002
SCALARS Distance double
LOOKUP_TABLE default
164.099 163.764 163.648 163.983 163.403 164.475 163.733 163.009 164.415 
164.992 163.381 162.677 164.205 164.989 165.581 163.158 162.486 163.888 
164.748 165.534 166.08 163.002 162.27 163.655 164.378 165.221 165.958 
166.493 162.752 162.058 163.414 164.106 164.892 165.693 166.4 166.948 
162.542 161.96 163.138 163.865 164.703 165.492 166.248 166.96 167.44 
162.425 161.871 162.965 163.635 164.49 165.313 166.051 166.847 167.515 
167.804 162.279 161.714 162.853 163.479 164.231 165.029 165.764 166.544 
167.349 167.86 167.965 163.31 163.136 162.745 162.487 162.108 162.8 
161.802 161.456 162.154 162.392 161.135 160.777 161.509 161.809 162.062 
160.453 160.093 160.799 161.159 161.416 161.75 159.828 159.458 160.087 
160.384 160.692 160.98 161.462 159.274 158.841 159.526 159.679 159.932 
160.265 160.717 161.346 158.708 158.261 159.011 159.106 159.227 159.567 
160.063 160.673 161.322 158.201 157.852 158.459 158.523 158.56 158.861 
159.425 160.054 160.666 161.229 157.807 157.973 157.758 157.628 157.577 
157.955 157.217 157.29 157.368 157.883 157.038 157.219 157.071 157.465 
158.135 157.385 157.612 157.369 157.662 158.198 158.815 158.076 158.259 
158.039 158.235 158.646 159.11 159.569 158.699 158.851 158.646 158.693 
158.939 159.347 159.76 160.186 159.18 159.369 159.102 159.05 159.08 
159.384 159.853 160.287 160.734 159.676 159.895 159.58 159.523 159.447 
159.582 160.033 160.502 160.862 161.259 161.918 161.551 162.277 161.31 
162.062 162.826 161.008 161.934 162.664 163.422 160.499 161.601 162.463 
163.18 163.951 160.127 161.096 162.058 162.88 163.671 164.443 160.11 
160.852 161.647 162.505 163.385 164.192 164.924 160.172 160.876 161.508 
162.177 163.031 163.888 164.654 165.406 160.202 160.894 161.526 162.027 
162.666 163.484 164.293 165.095 165.902 160.334 160.92 161.539 162.013 
162.455 163.1 163.89 164.713 165.565 166.356 162.554 163.003 163.251 
163.608 163.784 163.97 164.216 164.39 164.503 164.713 164.735 164.976 
165.112 165.241 165.475 165.221 165.503 165.752 165.923 166.053 166.272 
165.747 166.043 166.347 166.601 166.71 166.834 167.108 166.303 166.639 
166.976 167.281 167.373 167.353 167.51 167.765 166.794 167.18 167.605 
168.053 168.247 168.093 167.94 167.978 168.026 167.019 167.472 167.588 
168.129 168.164 167.985 168.88 168.857 168.899 168.671 169.613 169.504 
169.734 169.761 169.217 170.165 170.012 170.148 170.265 170.104 169.184 
170.794 170.542 170.523 170.185 170.176 169.761 168.764 171.451 170.937 
171.344 170.571 170.032 169.8 169.171 168.401 171.562 170.884 171.926 
171.447 170.547 169.927 169.338 168.607 168.155 171.061 170.488 171.64 
171.725 171.157 170.402 169.675 168.852 168.199 167.978 166.258 166.891 
166.017 166.589 165.658 167.445 166.213 165.376 167.176 168.056 165.998 
165.32 166.884 167.859 168.73 165.954 165.295 166.701 167.601 168.492 
169.26 165.813 165.056 166.567 167.359 168.22 168.985 169.703 165.489 
164.734 166.339 167.132 167.942 168.778 169.485 170.171 165.154 164.557 
165.985 166.853 167.621 168.447 169.277 169.907 170.412 164.918 164.513 
165.583 166.446 167.242 167.966 168.783 169.532 170.001 170.274 160.429 
160.915 160.955 161.459 161.378 161.479 161.922 161.765 161.999 162.01 
162.375 162.164 162.513 162.492 162.426 162.793 162.549 163.041 163.052 
162.939 162.927 163.167 163.016 163.488 163.626 163.547 163.519 163.652 
163.609 163.602 163.875 164.135 164.15 164.135 164.281 164.501 164.106 
164.136 164.289 164.602 164.734 164.717 164.851 165.14 165.4 159.826 
160.335 159.695 160.128 159.527 160.778 159.957 159.441 160.553 161.175 
159.946 159.346 160.496 161.075 161.625 159.881 159.15 160.525 161.117 
161.65 162.086 159.697 159.04 160.377 161.037 161.677 162.178 162.581 
159.604 159.112 160.185 160.832 161.556 162.236 162.783 163.229 159.65 
159.271 160.133 160.751 161.49 162.229 162.891 163.466 163.875 159.787 