# vtk DataFile Version 4.0
vtk output
ASCII
DATASET POLYDATA
POINTS 1002 float
-120.944 -103.405 46.1508 -121.042 -102.97 45.6788 -120.443 -102.884 45.7659 
-120.377 -103.546 46.1351 -119.893 -102.917 45.8591 -120.817 -103.935 46.5755 
-119.817 -103.753 46.1571 -119.264 -103.118 45.9579 -120.328 -104.329 46.4159 
-120.661 -104.443 47.01 -119.059 -103.971 46.2751 -118.446 -103.436 46.0911 
-119.696 -104.6 46.4195 -120.167 -104.869 46.8632 -120.49 -104.834 47.6153 
-118.097 -104.242 46.3909 -117.562 -103.772 46.1968 -118.782 -104.693 46.6261 
-119.359 -105.026 47.0115 -119.818 -105.063 47.7039 -120.222 -105.14 48.4254 
-117.153 -104.559 46.417 -116.765 -104.011 46.2576 -117.781 -104.794 46.8467 
-118.341 -104.986 47.3882 -118.851 -105.135 48.018 -119.392 -105.246 48.6816 
-119.886 -105.566 49.1303 -116.311 -104.753 46.5491 -116.087 -104.074 46.4562 
-116.834 -104.969 47.0596 -117.408 -104.958 47.8013 -117.904 -105.149 48.4113 
-118.486 -105.433 48.9121 -119.084 -105.76 49.3048 -119.606 -106.17 49.5717 
-115.649 -104.73 46.9481 -115.618 -103.983 46.8897 -115.937 -105.125 47.3672 
-116.516 -105.077 48.1516 -117.111 -105.183 48.774 -117.694 -105.63 49.1041 
-118.306 -106.066 49.4059 -118.859 -106.381 49.7491 -119.365 -106.589 50.1539 
-115.297 -104.573 47.5063 -115.371 -103.86 47.4604 -115.299 -105.184 47.7247 
-115.677 -105.352 48.3394 -116.312 -105.401 48.9795 -116.938 -105.793 49.297 
-117.544 -106.3 49.5606 -118.118 -106.565 50.0052 -118.634 -106.611 50.5652 
-119.127 -106.569 51.1601 -115.099 -104.408 48.0891 -115.138 -103.795 48.0474 
-114.982 -105.113 48.1134 -115.1 -105.568 48.4412 -115.564 -105.762 49.0087 
-116.147 -106.037 49.4387 -116.746 -106.424 49.7811 -117.38 -106.635 50.3283 
-117.959 -106.594 51.0351 -118.458 -106.457 51.7191 -118.928 -106.371 52.2997 
-120.818 -102.538 45.1943 -120.22 -102.424 45.2946 -120.758 -102.238 44.5493 
-120.015 -102.241 44.5684 -120.606 -102.006 43.7899 -119.576 -102.496 45.39 
-119.533 -102.063 43.8017 -120.077 -101.558 43.2939 -119.15 -102.375 44.6562 
-118.854 -102.749 45.5154 -118.965 -101.502 43.4992 -119.544 -100.886 43.3796 
-118.604 -102.078 44.0618 -118.46 -102.486 44.949 -118.096 -102.988 45.782 
-118.892 -100.708 43.7405 -119.342 -100.139 43.729 -118.413 -101.34 44.0291 
-118.178 -101.945 44.6646 -117.924 -102.441 45.4844 -117.347 -103.128 46.0657 
-119.015 -99.9321 44.0147 -119.1 -99.3272 43.8079 -118.643 -100.469 44.3545 
-118.119 -101.142 44.8105 -117.715 -101.806 45.3388 -117.21 -102.438 45.8996 
-116.582 -103.233 46.2508 -118.77 -99.2306 44.0732 -118.706 -98.5977 43.7067 
-118.624 -99.7127 44.5698 -118.081 -100.311 45.0613 -117.436 -101.117 45.3639 
-116.862 -101.891 45.6659 -116.318 -102.592 46.0889 -115.9 -103.301 46.4933 
-118.405 -98.6941 44.1774 -118.484 -98.0971 43.8374 -118.213 -99.1613 44.6345 
-117.8 -99.6553 45.1118 -117.227 -100.387 45.4105 -116.575 -101.254 45.5639 
-115.96 -102.075 45.8372 -115.587 -102.764 46.3164 -115.466 -103.325 46.9035 
-118.214 -98.2926 44.4601 -118.447 -97.7258 44.2337 -117.799 -98.7717 44.7285 
-117.332 -99.2331 45.0161 -116.938 -99.832 45.3115 -116.469 -100.543 45.5794 
-115.837 -101.352 45.8189 -115.329 -102.219 46.151 -115.171 -102.905 46.7218 
-115.195 -103.362 47.4436 -118.171 -97.7028 44.7474 -117.632 -98.2433 44.8498 
-117.444 -97.6294 45.0125 -116.641 -98.0609 44.9486 -116.467 -97.4874 45.1784 
-116.924 -98.7338 44.9122 -115.74 -97.8397 45.1251 -115.823 -97.414 45.7313 
-115.918 -98.6542 44.9263 -116.433 -99.3501 45.0705 -115.425 -97.9535 45.8291 
-115.627 -97.706 46.6866 -115.249 -98.6738 45.2493 -115.536 -99.4771 45.2234 
-116.144 -100.003 45.4691 -115.361 -98.5028 46.8795 -115.489 -98.3542 47.5676 
-115.083 -98.9588 46.0746 -114.925 -99.6077 45.7258 -115.296 -100.113 45.8709 
-115.719 -100.635 45.9448 -115.066 -99.0893 47.8663 -115.307 -99.0045 48.2208 
-114.917 -99.3285 47.1985 -114.729 -99.7758 46.5845 -114.778 -100.273 46.4649 
-115.066 -100.821 46.4916 -115.22 -101.546 46.301 -114.767 -99.5619 48.6444 
-115.184 -99.4893 48.8468 -114.54 -99.7091 48.288 -114.509 -100.061 47.7298 
-114.596 -100.614 47.3377 -114.745 -101.264 47.19 -114.838 -101.956 46.9811 
-114.935 -102.542 46.7612 -114.703 -100.061 49.2808 -115.046 -99.8772 49.54 
-114.369 -100.286 49.0684 -114.204 -100.637 48.7512 -114.256 -101.157 48.3542 
-114.376 -101.792 48.0485 -114.438 -102.428 47.815 -114.561 -102.908 47.6135 
-114.861 -103.169 47.5068 -114.709 -100.558 49.8923 -114.858 -100.233 50.2221 
-114.475 -100.942 49.6395 -114.159 -101.361 49.4339 -113.904 -101.777 49.1474 
-113.793 -102.201 48.7821 -113.76 -102.675 48.4947 -113.877 -103.111 48.3711 
-114.275 -103.379 48.3388 -114.79 -103.548 48.2558 -114.738 -104.111 48.6412 
-114.177 -103.834 48.8675 -114.106 -104.484 49.0617 -113.484 -103.58 48.8445 
-113.383 -104.214 49.175 -113.494 -104.794 49.441 -113.072 -103.194 48.7675 
-112.735 -103.862 49.0886 -112.818 -104.617 49.5373 -113.231 -104.947 50.0918 
-113.084 -102.754 48.9886 -112.513 -103.3 49.2522 -112.366 -104.234 49.7934 
-112.676 -104.891 50.4414 -113.352 -105.066 50.9779 -113.373 -102.469 49.4828 
-112.714 -102.808 49.8831 -112.28 -103.537 50.4935 -112.308 -104.513 51.1329 
-112.873 -105.035 51.5476 -113.655 -105.281 51.8875 -113.851 -102.24 49.8808 
-113.23 -102.627 50.4858 -112.565 -102.987 51.1962 -112.297 -103.79 51.8048 
-112.632 -104.616 52.1685 -113.335 -105.136 52.4463 -113.976 -105.49 52.9143 
-114.337 -101.847 50.0916 -113.898 -102.463 50.7211 -113.205 -102.805 51.4105 
-112.75 -103.282 51.9505 -112.857 -103.948 52.3718 -113.345 -104.632 52.8219 
-113.857 -105.215 53.381 -114.269 -105.645 54.0323 -114.599 -101.329 50.3235 
-114.385 -102.055 50.8571 -113.932 -102.604 51.4204 -113.509 -103.087 51.8541 
-113.448 -103.535 52.2932 -113.681 -104.024 52.939 -113.971 -104.677 53.6835 
-114.244 -105.327 54.3815 -114.543 -105.837 54.9906 -114.676 -100.847 50.6464 
-114.591 -101.541 51.0968 -114.44 -102.197 51.5676 -114.223 -102.817 51.9682 
-114.1 -103.318 52.4027 -114.1 -103.652 53.0931 -114.16 -104.105 53.918 
-114.29 -104.795 54.6327 -114.512 -105.48 55.2303 -114.78 -106.043 55.7522 
-114.707 -104.776 48.5966 -114.211 -105.063 49.093 -114.697 -105.437 48.6477 
-113.853 -105.139 49.7884 -114.429 -105.606 49.3712 -114.943 -105.911 49.0535 
-113.846 -105.165 50.648 -114.297 -105.649 50.3298 -114.774 -106.183 49.9048 
-115.393 -106.28 49.5872 -114.08 -105.389 51.5101 -114.404 -105.798 51.2628 
-114.716 -106.342 50.9219 -115.228 -106.602 50.4629 -115.958 -106.556 50.0727 
-114.313 -105.682 52.5751 -114.641 -106.028 52.3151 -114.925 -106.418 52.0488 
-115.352 -106.572 51.6467 -115.989 -106.579 51.1932 -116.702 -106.615 50.7603 
-114.512 -105.88 53.8404 -114.872 -106.173 53.6481 -115.27 -106.444 53.4421 
-115.732 -106.465 53.0942 -116.309 -106.369 52.6284 -116.906 -106.395 52.1611 
-117.444 -106.506 51.6409 -114.737 -106.117 54.9145 -115.083 -106.385 54.7926 
-115.552 -106.595 54.6745 -116.052 -106.603 54.4478 -116.557 -106.502 53.9941 
-117.076 -106.451 53.4667 -117.559 -106.405 52.9842 -118.001 -106.381 52.4183 
-114.948 -106.433 55.7254 -115.225 -106.782 55.5681 -115.657 -107.009 55.3849 
-116.168 -107.025 55.2187 -116.62 -106.974 54.893 -117.029 -106.983 54.3674 
-117.494 -106.856 53.8802 -117.993 -106.548 53.4845 -118.47 -106.339 52.9816 
-115.048 -106.502 56.5157 -115.223 -107.056 56.3987 -115.273 -106.958 57.286 
-115.445 -107.662 57.0477 -115.704 -107.34 57.7904 -115.521 -107.495 56.061 
-115.974 -108.096 57.5136 -116.615 -107.691 57.8545 -115.809 -108.078 56.5599 
-116.023 -107.609 55.7164 -117.003 -108.42 57.6463 -117.697 -108.017 57.7865 
-116.506 -108.408 57.0599 -116.483 -108.037 56.0976 -116.597 -107.52 55.4139 
-118.126 -108.603 57.6583 -118.568 -108.125 57.9744 -117.611 -108.606 57.3511 
-117.346 -108.258 56.6233 -117.206 -107.919 55.6675 -117.047 -107.557 54.9591 
-119.138 -108.529 57.8666 -119.384 -107.98 58.3345 -118.732 -108.664 57.4671 
-118.364 -108.361 57.0008 -118.091 -108.05 56.1314 -117.727 -107.917 55.1249 
-117.481 -107.524 54.4261 -120.086 -108.331 58.1374 -120.174 -107.728 58.4934 
-119.821 -108.617 57.6065 -119.348 -108.444 57.0916 -118.942 -108.064 56.4332 
-118.606 -107.889 55.4739 -118.248 -107.687 54.5995 -118.046 -107.119 54.0493 
-120.755 -108.051 58.1143 -120.756 -107.392 58.276 -120.714 -108.484 57.6605 
-120.361 -108.523 57.0347 -119.814 -108.211 56.3694 -119.425 -107.889 55.602 
-119.147 -107.646 54.8108 -118.856 -107.187 54.2322 -118.63 -106.616 53.7247 
-121.14 -107.603 57.7829 -121.218 -106.964 57.85 -121.168 -108.098 57.474 
-121.083 -108.334 56.8955 -120.698 -108.272 56.1742 -120.238 -108.02 55.4618 
-119.923 -107.712 54.8218 -119.65 -107.273 54.3191 -119.365 -106.727 53.8645 
-119.123 -106.38 53.2075 -114.812 -105.786 56.1494 -115.063 -106.138 56.989 
-114.831 -105.287 56.5115 -115.128 -105.582 57.2334 -114.938 -104.64 56.8289 
-115.394 -106.447 57.6596 -115.412 -105.039 57.2254 -115.283 -104.072 56.9996 
-115.703 -105.918 57.5337 -116.153 -106.747 57.8343 -116 -104.591 57.0595 
-115.841 -103.679 56.8797 -116.313 -105.547 57.1814 -116.76 -106.232 57.5289 
-117.275 -107.068 57.7888 -116.637 -104.042 56.8912 -116.412 -103.299 56.5711 
-117.043 -105.101 56.9735 -117.416 -105.822 57.3381 -117.788 -106.411 57.8307 
-118.178 -107.308 58.0228 -117.123 -103.334 56.8397 -116.907 -102.864 56.2758 
-117.525 -104.308 57.0169 -117.887 -105.262 57.2456 -118.149 -105.841 57.8085 
-118.465 -106.506 58.2832 -118.884 -107.343 58.4144 -117.595 -102.79 56.6975 
-117.375 -102.534 55.9564 -117.888 -103.422 57.1071 -118.176 -104.423 57.1668 
-118.457 -105.295 57.3918 -118.803 -105.911 57.945 -119.233 -106.545 58.4315 
-119.702 -107.193 58.6048 -118.122 -102.588 56.2293 -117.844 -102.322 55.5596 
-118.406 -102.907 56.8533 -118.638 -103.556 57.088 -118.918 -104.516 57.062 
-119.293 -105.368 57.3051 -119.704 -105.934 57.8694 -120.097 -106.401 58.3316 
-120.448 -106.904 58.4501 -118.608 -102.488 55.6184 -118.3 -102.072 55.1959 
-118.947 -102.758 56.2273 -119.245 -103.01 56.7868 -119.568 -103.593 57.0249 
[...]
CELL_DATA 2000
SCALARS Distance double
LOOKUP_TABLE default
164.306 163.922 164.306 164.691 163.611 163.987 164.44 164.759 165.097 
163.265 163.669 164.127 164.522 164.907 165.162 165.42 162.852 163.261 
163.657 164.12 164.483 164.876 165.124 165.413 165.632 162.43 162.81 
163.14 163.578 163.889 164.331 164.574 164.974 165.189 165.558 165.818 
162.02 162.373 162.67 163.057 163.335 163.729 163.984 164.387 164.664 
165.066 165.379 165.763 166.096 161.677 161.974 162.25 162.593 162.865 
163.22 163.498 163.868 164.206 164.6 164.988 165.365 165.737 166.085 
166.411 161.495 161.698 161.96 162.216 162.491 162.797 163.103 163.448 
163.814 164.202 164.62 165.013 165.402 165.749 166.058 166.373 166.618 
161.43 161.58 161.821 161.998 162.257 162.494 162.807 163.11 163.476 
163.835 164.236 164.633 165.02 165.396 165.705 166.019 166.251 166.534 
166.73 164.007 163.489 163.657 163.572 163.045 163.174 163.016 163.245 
163.219 162.401 162.642 162.441 162.686 162.597 162.9 162.888 161.589 
161.869 161.686 162.018 161.949 162.283 162.26 162.562 162.53 160.993 
161.162 161.038 161.282 161.289 161.624 161.665 161.968 161.938 162.198 
162.14 160.495 160.723 160.676 160.822 160.821 161.044 161.092 161.379 
161.363 161.62 161.536 161.796 161.732 159.82 160.199 160.23 160.481 
160.426 160.621 160.555 160.804 160.735 161.008 160.907 161.178 161.103 
161.398 161.388 159.228 159.553 159.632 159.932 159.877 160.122 159.999 
160.237 160.115 160.365 160.255 160.524 160.465 160.772 160.803 161.124 
161.211 158.931 159.113 159.165 159.36 159.286 159.504 159.394 159.645 
159.549 159.781 159.686 159.909 159.869 160.155 160.227 160.567 160.709 
161.032 161.166 158.857 158.546 158.82 158.945 157.853 158.263 158.353 
158.762 158.908 157.231 157.489 157.572 158.025 158.253 158.726 158.994 
157.231 157.135 157.209 157.388 157.687 158.098 158.485 158.907 159.212 
157.723 157.454 157.521 157.372 157.584 157.721 158.092 158.444 158.799 
159.145 159.386 158.215 157.99 158.017 157.817 157.9 157.817 158.056 
158.194 158.556 158.808 159.132 159.365 159.624 158.61 158.399 158.368 
158.21 158.265 158.155 158.36 158.345 158.72 158.794 159.213 159.299 
159.658 159.75 160.067 159.016 158.792 158.785 158.572 158.673 158.523 
158.766 158.713 159.077 159.1 159.492 159.532 159.878 159.917 160.231 
160.289 160.591 159.402 159.232 159.329 159.106 159.264 159.045 159.256 
159.126 159.361 159.365 159.583 159.687 159.882 160.033 160.249 160.408 
160.662 160.788 161.04 161.21 160.778 161.074 161.193 160.261 160.536 
160.59 160.951 161.055 159.818 159.982 159.947 160.28 160.418 160.831 
161.047 159.577 159.618 159.535 159.701 159.864 160.248 160.595 160.981 
161.35 159.545 159.543 159.531 159.483 159.618 159.833 160.242 160.62 
161.093 161.438 161.901 159.626 159.679 159.839 159.693 159.792 159.765 
160.081 160.342 160.833 161.206 161.718 162.067 162.566 159.69 159.84 
160.144 160.09 160.218 160.067 160.25 160.291 160.69 160.971 161.504 
161.877 162.419 162.759 163.256 159.677 159.879 160.219 160.333 160.537 
160.477 160.638 160.562 160.868 160.955 161.436 161.704 162.26 162.603 
163.129 163.443 163.911 159.631 159.809 160.113 160.32 160.595 160.698 
160.938 160.938 161.234 161.239 161.631 161.741 162.204 162.456 162.947 
163.278 163.745 164.065 164.493 161.45 161.492 161.613 161.833 161.423 
161.618 161.92 162.014 162.261 161.427 161.578 161.964 162.111 162.461 
162.517 162.826 161.703 161.712 162.136 162.236 162.688 162.766 163.158 
163.162 163.51 162.253 162.143 162.574 162.558 163.042 163.071 163.507 
163.516 163.889 163.879 164.247 162.924 162.777 163.211 163.119 163.593 
163.532 163.959 163.904 164.28 164.256 164.634 164.634 165.011 163.6 
163.46 163.893 163.791 164.269 164.163 164.593 164.449 164.821 164.706 
165.085 165.035 165.407 165.381 165.7 164.253 164.128 164.558 164.462 
164.947 164.856 165.308 165.151 165.521 165.336 165.686 165.55 165.888 
165.794 166.075 166.006 166.243 164.852 164.765 165.188 165.106 165.56 
165.497 165.932 165.834 166.186 166.031 166.33 166.171 166.453 166.306 
166.543 166.406 166.606 166.511 166.715 165.281 166.035 165.672 165.666 
166.763 166.434 166.467 166.062 166.039 167.559 167.192 167.235 166.838 
166.811 166.416 166.372 168.482 168.071 168.109 167.639 167.584 167.152 
167.087 166.701 166.613 169.337 169.001 169.058 168.576 168.505 167.983 
167.885 167.421 167.324 166.902 166.774 170.024 169.788 169.883 169.488 
169.418 168.917 168.774 168.264 168.114 167.639 167.483 167.04 166.878 
170.582 170.438 170.592 170.273 170.217 169.757 169.563 169.082 168.869 
168.412 168.204 167.751 167.54 167.11 166.922 170.867 170.891 171.082 
170.926 170.908 170.517 170.293 169.799 169.536 169.088 168.87 168.444 
168.22 167.769 167.538 167.12 166.941 170.839 170.987 171.141 171.212 
171.212 171.064 170.851 170.471 170.164 169.723 169.475 169.07 168.855 
168.43 168.186 167.745 167.528 167.142 167.011 165.16 165.076 165.385 
165.869 164.865 165.229 165.736 166.068 166.562 164.719 165.029 165.556 
165.899 166.451 166.782 167.35 164.757 164.982 165.552 165.817 166.415 
166.706 167.341 167.654 168.274 164.824 165.053 165.641 165.915 166.534 
166.769 167.367 167.648 168.26 168.573 169.116 164.796 165.047 165.569 
165.933 166.52 166.848 167.356 167.64 168.135 168.474 168.991 169.32 
169.777 164.777 164.983 165.424 165.758 166.268 166.666 167.133 167.495 
167.924 168.28 168.751 169.123 169.592 169.917 170.307 164.835 165.001 
165.423 165.64 166.088 166.382 166.846 167.198 167.673 168.036 168.515 
168.874 169.323 169.669 170.03 170.343 170.594 164.901 165.08 165.506 
165.683 166.099 166.287 166.723 166.987 167.485 167.819 168.313 168.646 
169.048 169.366 169.662 169.981 170.19 170.49 170.615 159.703 159.989 
159.924 160.156 160.469 160.304 160.531 160.449 160.682 160.996 160.832 
161.043 160.908 161.141 160.998 161.151 161.404 161.285 161.477 161.399 
161.634 161.511 161.701 161.484 161.567 161.937 161.712 161.927 161.811 
162.077 161.977 162.193 162.039 162.165 161.91 161.969 162.722 162.399 
162.655 162.408 162.712 162.497 162.719 162.515 162.645 162.45 162.545 
162.319 162.445 163.445 163.197 163.419 163.2 163.469 163.228 163.408 
163.114 163.194 162.93 163.032 162.843 163.029 162.857 163.107 163.982 
163.805 163.964 163.826 164.013 163.875 164.009 163.782 163.829 163.535 
163.615 163.376 163.595 163.437 163.75 163.593 163.9 164.511 164.315 
164.459 164.286 164.437 164.303 164.455 164.298 164.415 164.173 164.285 
164.021 164.23 164.043 164.369 164.234 164.577 164.401 164.674 159.558 
159.59 159.622 159.833 159.791 159.75 159.93 159.981 160.303 159.991 
160.007 160.233 160.198 160.487 160.542 160.871 160.03 160.172 160.498 
160.543 160.845 160.824 161.099 161.092 161.336 160.011 160.156 160.513 
160.713 161.079 161.166 161.447 161.401 161.631 161.573 161.866 160.195 
160.183 160.479 160.663 161.077 161.292 161.658 161.725 162.014 161.965 
162.276 162.235 162.628 160.623 160.477 160.725 160.738 161.168 161.323 
161.789 161.91 162.293 162.33 162.679 162.673 163.021 163.017 163.358 
161.106 160.956 161.202 161.116 161.535 161.575 162.081 162.141 162.57 
162.602 162.958 162.998 163.317 163.345 163.62 163.638 163.901 161.532 
161.43 161.689 161.61 161.988 161.999 162.464 162.506 162.909 162.912 
163.222 163.236 163.518 163.559 163.819 163.852 164.106 164.137 164.415 
161.841 162.472 162.105 162.055 163.233 162.808 162.762 162.376 162.388 
164.025 163.601 163.53 163.117 163.112 162.77 162.834 164.769 164.387 
164.319 163.887 163.82 163.458 163.471 163.189 163.222 165.476 165.126 
165.11 164.685 164.598 164.165 164.105 163.774 163.771 163.501 163.497 
166.168 165.838 165.853 165.475 165.412 164.96 164.861 164.44 164.395 
164.058 164.051 163.76 163.767 166.815 166.514 166.531 166.201 166.162 
165.752 165.65 165.212 165.139 164.743 164.724 164.37 164.367 164.055 
164.066 167.39 167.122 167.14 166.851 166.833 166.474 166.392 165.978 
165.899 165.498 165.471 165.093 165.09 164.719 164.719 164.378 164.384 
167.9 167.658 167.663 167.414 167.397 167.105 167.045 166.69 166.615 
166.237 166.196 165.831 165.827 165.464 165.471 165.097 165.103 164.731 
164.73 168.166 168.437 168.174 167.914 168.669 168.414 168.139 167.901 
167.633 168.925 168.656 168.371 168.109 167.837 167.599 167.303 169.198 
168.943 168.674 168.37 168.082 167.811 167.524 167.254 166.921 169.465 
169.219 168.966 168.675 168.367 168.077 167.777 167.496 167.178 166.873 
166.526 169.766 169.484 169.199 168.926 168.625 168.356 168.065 167.776 
167.466 167.15 166.817 166.498 166.164 170.063 169.775 169.459 169.165 
168.895 168.629 168.396 168.102 167.814 167.468 167.134 166.799 166.471 
166.155 165.826 170.292 170.046 169.772 169.472 169.235 168.953 168.747 
168.457 168.166 167.818 167.435 167.097 166.736 166.446 166.112 165.809 
165.46 170.515 170.296 170.096 169.818 169.593 169.311 169.062 168.78 
168.433 168.108 167.655 167.329 166.896 166.64 166.279 166.041 165.684 
165.406 165.049 168.396 168.864 168.657 168.69 169.33 169.138 169.186 
168.945 168.947 169.788 169.62 169.711 169.469 169.472 169.192 169.183 
170.216 170.107 170.274 170.046 170.049 169.718 169.635 169.381 169.378 
170.458 170.499 170.754 170.639 170.671 170.31 170.12 169.777 169.692 
169.547 169.613 170.436 170.618 170.923 171.018 171.115 170.884 170.655 
170.253 170.081 169.863 169.971 169.866 170 170.345 170.521 170.795 
171.015 171.152 171.158 170.994 170.724 170.528 170.288 170.372 170.272 
170.468 170.301 170.354 170.334 170.426 170.58 170.772 170.855 171.015 
170.927 170.902 170.746 170.643 170.646 170.614 170.739 170.692 170.737 
170.567 170.52 170.318 170.371 170.365 170.481 170.44 170.621 170.55 
170.696 170.597 170.674 170.615 170.69 170.693 170.774 170.775 170.785 
170.76 170.665 170.656 168.276 168.24 168.418 168.745 168.208 168.386 
168.712 168.892 169.204 168.102 168.328 168.641 168.847 169.171 169.347 
169.642 167.827 168.151 168.476 168.74 169.097 169.322 169.648 169.792 
170.047 167.376 167.797 168.151 168.505 168.892 169.22 169.626 169.828 
170.07 170.146 170.274 166.808 167.281 167.631 168.079 168.455 168.914 
169.354 169.738 170.027 170.158 170.185 170.225 170.228 166.218 166.683 
167.004 167.48 167.815 168.342 168.734 169.287 169.593 169.95 169.974 
170.078 169.983 170.092 170.124 165.669 166.103 166.417 166.854 167.165 
167.65 167.99 168.546 168.827 169.321 169.389 169.685 169.611 169.805 
169.828 170.038 170.166 165.157 165.571 165.885 166.296 166.598 167.03 
167.353 167.827 168.109 168.553 168.677 169.018 169.026 169.323 169.398 
169.709 169.881 170.127 170.242 164.986 164.956 165.215 165.699 164.951 
165.18 165.669 165.93 166.418 165.026 165.208 165.692 165.923 166.461 
166.695 167.198 165.107 165.315 165.806 166 166.558 166.787 167.324 
167.501 167.939 165.077 165.363 165.865 166.101 166.626 166.889 167.414 
167.62 167.996 168.138 168.432 165.004 165.299 165.786 166.067 166.522 
166.847 167.322 167.627 167.986 168.149 168.378 168.519 168.771 164.957 
165.234 165.693 165.949 166.339 166.632 167.039 167.405 167.798 168.073 
168.366 168.507 168.795 168.918 169.248 164.846 165.154 165.59 165.852 
166.2 166.431 166.768 167.083 167.481 167.83 168.212 168.473 168.83 
169.011 169.382 169.496 169.817 164.653 164.975 165.375 165.681 165.993 
166.249 166.532 166.82 167.183 167.53 167.926 168.26 168.622 168.931 
169.275 169.544 169.833 169.992 170.17 164.703 165 165.012 165.362 
165.281 165.252 165.503 165.6 165.924 165.593 165.519 165.719 165.731 
166.059 166.154 166.506 165.923 165.877 166.152 166.068 166.437 166.416 
166.851 166.846 167.236 166.201 166.232 166.609 166.576 166.978 166.923 
167.35 167.299 167.691 167.633 167.976 166.481 166.53 166.939 166.987 
167.397 167.421 167.798 167.782 168.094 168.054 168.342 168.323 168.634 
166.764 166.822 167.21 167.277 167.681 167.751 168.155 168.177 168.501 
168.434 168.683 168.632 168.929 168.95 169.282 166.937 167.045 167.384 
167.49 167.843 167.966 168.385 168.503 168.923 168.899 169.176 169.028 
169.248 169.2 169.499 169.559 169.841 167.022 167.145 167.446 167.576 
167.854 168.014 168.351 168.599 169.034 169.24 169.57 169.531 169.655 
169.52 169.644 169.671 169.891 170.002 170.172 170.249 169.959 170.145 
170.208 169.754 169.848 169.902 170.076 170.192 169.822 169.796 169.825 
169.837 169.921 170.102 170.279 169.727 169.855 169.846 169.842 169.839 
169.906 170.035 170.227 170.399 169.124 169.487 169.466 169.697 169.659 
169.805 169.851 170.014 170.147 170.34 170.48 168.418 168.757 168.8 
169.146 169.24 169.521 169.648 169.832 169.959 170.112 170.25 170.425 
170.564 167.964 168.192 168.335 168.603 168.868 169.159 169.481 169.689 
169.956 170.043 170.242 170.297 170.473 170.565 170.696 167.602 167.844 
168.042 168.305 168.622 168.916 169.295 169.569 169.926 170.106 170.409 
170.459 170.697 170.655 170.812 170.761 170.815 167.194 167.473 167.677 
168.004 168.297 168.652 168.966 169.314 169.607 169.946 170.255 170.538 
170.828 170.937 171.108 171.025 171.057 170.899 170.834 158.783 159.053 
158.79 158.723 159.695 159.252 159.205 158.939 159.145 160.517 160.095 
160.137 159.69 159.899 159.62 159.959 161.177 160.929 161.105 160.735 
160.938 160.549 160.793 160.481 160.736 161.848 161.606 161.825 161.572 
161.741 161.476 161.625 161.33 161.478 161.195 161.421 162.652 162.379 
162.543 162.232 162.301 162.062 162.168 161.995 162.151 161.929 162.123 
161.898 162.184 163.275 163.123 163.27 162.963 162.985 162.634 162.734 
162.507 162.77 162.587 162.877 162.635 162.908 162.682 162.976 163.713 
163.628 163.845 163.639 163.76 163.412 163.571 163.244 163.569 163.323 
163.698 163.435 163.733 163.447 163.711 163.465 163.738 164.223 164.097 
164.398 164.231 164.482 164.217 164.461 164.163 164.483 164.217 164.556 
164.283 164.545 164.258 164.48 164.219 164.465 164.231 164.493 158.64 
158.614 158.538 158.395 159.053 158.737 158.658 158.392 158.226 159.812 
159.381 159.333 158.926 158.844 158.41 158.332 160.527 160.125 160.033 
159.672 159.625 159.204 159.153 158.715 158.751 161.252 160.818 160.706 
160.323 160.258 159.922 159.899 159.55 159.555 159.194 159.267 162.08 
161.625 161.58 161.095 161.045 160.591 160.596 160.24 160.306 159.97 
160.033 159.691 159.807 162.861 162.463 162.451 162.023 162.003 161.511 
161.515 161.054 161.152 160.76 160.878 160.486 160.585 160.248 160.422 
163.591 163.204 163.163 162.809 162.792 162.415 162.418 162.01 162.075 
161.678 161.78 161.372 161.445 161.05 161.146 160.855 161.02 164.347 
163.938 163.885 163.498 163.484 163.133 163.165 162.827 162.895 162.55 
162.621 162.248 162.28 161.886 161.912 161.567 161.648 161.392 161.509 
158.683 158.338 158.524 158.424 158.013 158.122 158.029 158.146 157.858 
158.029 157.893 157.823 157.851 157.732 157.623 157.36 158.456 158.116 
158.058 157.902 157.939 157.743 157.643 157.369 157.336 159.008 158.64 
158.561 158.319 158.375 158.152 158.124 157.812 157.768 157.566 157.729 
159.59 159.215 159.126 158.84 158.84 158.618 158.587 158.317 158.261 
158.024 158.122 158.029 158.248 160.254 159.864 159.795 159.432 159.391 
159.086 159.047 158.771 158.765 158.524 158.641 158.476 158.69 158.554 
158.732 160.87 160.538 160.456 160.104 160.005 159.655 159.571 159.268 
159.282 159.054 159.2 159.027 159.225 159.052 159.194 159.009 159.111 
161.337 161.071 160.941 160.658 160.489 160.188 160.039 159.771 159.755 
159.568 159.698 159.557 159.708 159.548 159.614 159.433 159.451 159.314 
159.389 167.959 167.442 167.769 167.907 166.864 167.223 167.374 167.731 
167.886 166.19 166.586 166.715 167.145 167.295 167.679 167.775 165.463 
165.848 165.91 166.383 166.482 166.964 167.018 167.445 167.447 164.762 
165.106 165.107 165.526 165.573 166.056 166.079 166.559 166.539 167 
166.959 164.036 164.391 164.357 164.729 164.738 165.164 165.191 165.624 
165.612 166.047 166.015 166.465 166.409 163.236 163.615 163.556 163.943 
163.914 164.337 164.35 164.779 164.764 165.164 165.105 165.521 165.459 
165.898 165.833 162.465 162.804 162.737 163.11 163.07 163.487 163.482 
163.922 163.891 164.304 164.206 164.607 164.495 164.932 164.857 165.319 
165.27 161.833 162.09 162.022 162.33 162.301 162.669 162.674 163.071 
163.05 163.431 163.345 163.708 163.595 163.981 163.902 164.341 164.309 
164.776 164.761 
POINT_DATA 1002
SCALARS Distance double
LOOKUP_TABLE default
164.682 164.352 163.884 164.352 163.529 165.039 164.081 163.225 164.886 
165.367 163.702 162.87 164.6 165.235 165.66 163.212 162.474 164.058 
164.793 165.345 165.893 162.744 162.072 163.466 164.144 164.786 165.437 
166.126 162.305 161.684 162.962 163.578 164.232 164.975 165.726 166.438 
161.934 161.416 162.513 163.122 163.796 164.593 165.396 166.092 166.705 
161.745 161.327 162.203 162.759 163.43 164.218 165.051 165.76 166.323 
166.827 161.67 161.293 162.048 162.522 163.142 163.859 164.632 165.38 
165.978 166.453 166.912 163.785 163.304 163.379 162.841 162.918 162.904 
162.169 162.118 162.316 162.572 161.321 161.33 161.569 161.963 162.247 
160.837 160.812 160.958 161.34 161.694 161.874 160.521 160.153 160.673 
160.834 161.103 161.293 161.443 159.922 159.385 160.249 160.358 160.475 
160.63 160.801 161.067 159.351 158.949 159.624 159.76 159.88 159.993 
160.144 160.451 160.891 159.041 158.803 159.105 159.128 159.295 159.474 
159.593 159.872 160.36 160.879 158.728 158.691 158.221 157.878 157.461 
158.491 157.131 157.103 157.709 158.559 157.173 157.418 157.325 158.028 
158.869 157.774 157.98 157.62 157.81 158.438 159.093 158.219 158.447 
158.061 158.024 158.336 158.897 159.41 158.533 158.85 158.354 158.383 
158.677 159.15 159.594 159.971 158.994 159.205 158.83 158.836 159.08 
159.476 159.854 160.188 160.536 159.499 159.505 159.494 159.469 159.463 
159.543 159.734 160.059 160.502 160.95 161.389 160.883 161.309 160.225 
160.662 161.195 159.664 159.955 160.638 161.31 159.457 159.487 160.154 
160.996 161.747 159.631 159.507 159.862 160.713 161.574 162.384 159.946 
159.943 159.931 160.453 161.334 162.246 163.07 160.107 160.383 160.331 
160.49 161.127 162.051 162.962 163.737 160.039 160.512 160.718 160.866 
161.25 161.934 162.796 163.631 164.367 159.892 160.41 160.866 161.233 
161.604 162.04 162.64 163.407 164.197 164.917 161.781 161.766 162.215 
161.775 162.353 162.815 162.052 162.581 163.13 163.53 162.63 163.042 
163.504 163.888 164.251 163.319 163.687 164.051 164.322 164.631 165.021 
163.994 164.369 164.753 164.976 165.169 165.457 165.745 164.655 165.026 
165.447 165.725 165.865 166.026 166.182 166.3 165.274 165.636 166.02 
166.329 166.504 166.623 166.71 166.738 166.782 165.654 166.089 166.363 
166.851 167.076 166.463 167.651 167.95 167.203 166.768 168.613 168.883 
168.064 167.487 167.008 169.51 169.62 169.051 168.401 167.77 167.195 
170.235 170.218 169.904 169.299 168.622 167.953 167.303 170.863 170.666 
170.679 170.068 169.324 168.662 167.999 167.319 171.147 170.789 171.238 
170.807 170.006 169.278 168.672 167.99 167.306 171.025 170.703 171.252 
171.148 170.601 169.886 169.263 168.631 167.94 167.341 164.909 165.593 
164.728 165.368 164.5 166.248 165.218 164.441 166.083 167.023 165.288 
164.542 166.15 167.013 167.989 165.331 164.599 166.307 167.146 167.944 
168.848 165.213 164.576 166.163 167.092 167.831 168.632 169.495 165.16 
164.594 165.899 166.744 167.562 168.379 169.244 170.038 165.25 164.663 
165.86 166.506 167.29 168.167 169.001 169.726 170.327 165.329 164.712 
165.941 166.497 167.167 168.002 168.772 169.372 169.89 170.354 159.713 
160.167 160.089 160.656 160.664 160.772 161.179 161.147 161.296 161.356 
161.53 161.535 161.723 161.884 161.864 162.071 162.205 162.182 162.327 
162.37 162.263 162.923 163.039 162.972 162.984 162.849 162.718 162.656 
163.629 163.667 163.706 163.73 163.511 163.225 163.156 163.276 164.121 
164.16 164.143 164.192 164.106 163.872 163.75 163.881 164.096 159.459 
159.697 159.616 159.938 159.822 160.158 160.262 159.888 160.501 160.804 
160.366 159.838 160.867 161.17 161.327 160.265 159.93 160.908 161.463 
161.709 161.86 160.354 160.301 160.817 161.507 162.006 162.327 162.641 
160.778 160.791 161.043 161.645 162.218 162.658 163.052 163.37 161.302 
161.226 161.527 162.037 162.563 162.932 163.286 163.613 163.878 161.765 
161.606 162.003 162.435 162.921 163.244 163.491 163.778 164.067 164.374 