# vtk DataFile Version 4.0
vtk output
ASCII
DATASET POLYDATA
POINTS 1002 float
-119.111 -102.872 51.07 -119.141 -102.706 50.387 -118.592 -102.68 50.642 
-118.585 -102.854 51.4298 -118.024 -102.612 51.027 -118.989 -103.055 51.8535 
-117.926 -102.871 51.854 -117.379 -102.554 51.4541 -118.401 -103.093 52.2411 
-118.762 -103.278 52.7178 -117.084 -102.942 52.1915 -116.617 -102.576 51.7578 
-117.604 -103.226 52.5882 -118.053 -103.38 53.0458 -118.496 -103.613 53.5689 
-116.214 -103.019 52.3957 -115.846 -102.642 51.9849 -116.67 -103.368 52.837 
-117.175 -103.553 53.3182 -117.734 -103.726 53.8762 -118.248 -104.091 54.2845 
-115.514 -102.994 52.7048 -115.173 -102.626 52.3485 -115.847 -103.403 53.1285 
-116.269 -103.705 53.6301 -116.844 -103.916 54.1588 -117.471 -104.253 54.5678 
-117.948 -104.677 54.7949 -114.9 -102.874 53.1997 -114.564 -102.509 52.8096 
-115.178 -103.305 53.5928 -115.461 -103.781 54.0221 -115.91 -104.175 54.4626 
-116.492 -104.541 54.7547 -117.069 -104.923 54.9677 -117.543 -105.228 55.2339 
-114.268 -102.778 53.6549 -113.999 -102.359 53.2271 -114.532 -103.188 54.0716 
-114.726 -103.744 54.379 -115.038 -104.377 54.6829 -115.494 -104.876 54.9126 
-116.021 -105.211 55.1009 -116.609 -105.441 55.4513 -117.172 -105.592 55.8861 
-113.697 -102.724 53.9898 -113.505 -102.219 53.6109 -113.963 -103.132 54.4417 
-114.131 -103.623 54.7195 -114.338 -104.329 54.891 -114.714 -105.003 55.104 
-115.157 -105.399 55.362 -115.701 -105.609 55.773 -116.363 -105.75 56.3104 
-116.97 -105.823 56.748 -113.211 -102.668 54.2592 -113.067 -102.132 53.9598 
-113.51 -103.089 54.7311 -113.731 -103.493 55.1301 -113.871 -104.101 55.334 
-114.173 -104.819 55.5155 -114.608 -105.326 55.7995 -115.072 -105.631 56.2121 
-115.662 -105.885 56.738 -116.329 -106.039 57.2147 -116.888 -106.029 57.5233 
-118.734 -102.544 49.8507 -118.138 -102.467 50.1232 -118.299 -102.289 49.3756 
-117.801 -102.101 49.7643 -118.012 -101.782 49.1139 -117.638 -102.304 50.5769 
-117.643 -101.441 49.6874 -117.793 -100.998 49.0294 -117.475 -101.809 50.3801 
-117.104 -102.167 51.0645 -117.437 -100.579 49.6906 -117.551 -100.108 49.0353 
-117.369 -101.053 50.409 -116.993 -101.612 50.9102 -116.365 -102.177 51.3945 
-117.241 -99.7482 49.7002 -117.475 -99.2127 49.2115 -117.097 -100.233 50.3344 
-116.763 -100.868 50.8218 -116.129 -101.629 51.1979 -115.518 -102.254 51.6915 
-117.179 -98.8859 49.8669 -117.463 -98.282 49.4723 -116.882 -99.4573 50.2579 
-116.467 -100.092 50.6337 -115.864 -100.891 51.0557 -115.234 -101.684 51.5563 
-114.802 -102.21 52.1287 -116.899 -97.9434 49.9422 -117.157 -97.4152 49.5513 
-116.673 -98.5519 50.2999 -116.347 -99.268 50.6017 -115.816 -100.07 51.0131 
-115.193 -100.893 51.5698 -114.654 -101.564 52.1029 -114.264 -102.006 52.6181 
-116.355 -97.1927 49.7107 -116.69 -96.7732 49.4789 -116.215 -97.6786 50.1302 
-116.168 -98.3836 50.6379 -115.893 -99.2483 51.1435 -115.339 -100.081 51.6746 
-114.744 -100.774 52.2044 -114.236 -101.299 52.6617 -113.811 -101.749 53.1077 
-115.981 -96.7389 49.5094 -116.421 -96.3319 49.5208 -115.769 -97.1203 49.8157 
-115.831 -97.6885 50.49 -115.789 -98.5295 51.224 -115.33 -99.4106 51.7435 
-114.687 -100.108 52.1763 -114.18 -100.618 52.6798 -113.774 -101.064 53.1732 
-113.378 -101.575 53.5844 -116.087 -96.2107 49.7315 -115.673 -96.6378 49.7415 
-115.862 -95.9844 50.2886 -115.528 -96.5284 50.4796 -115.564 -95.7899 51.0325 
-115.56 -97.1177 50.2542 -115.228 -96.5658 51.3764 -115.181 -96.0183 51.5941 
-115.368 -97.2408 51.144 -115.562 -97.8708 51.1292 -114.726 -96.8514 52.0048 
-114.839 -96.5045 52.1608 -114.857 -97.4565 51.9128 -114.986 -98.175 51.7873 
-115.143 -98.8219 51.7427 -114.235 -97.0842 52.6467 -114.505 -96.7379 53.0242 
-114.23 -97.6476 52.4261 -114.187 -98.3826 52.1628 -114.1 -99.0921 51.9467 
-114.334 -99.6275 52.0149 -113.899 -97.2564 53.4966 -114.212 -96.9269 53.8912 
-113.803 -97.7966 53.1554 -113.657 -98.4432 52.7297 -113.281 -99.1381 52.2426 
-113.232 -99.731 52.1532 -113.726 -100.163 52.4745 -113.816 -97.6941 54.3087 
-114.067 -97.368 54.6419 -113.637 -98.1452 54.0259 -113.4 -98.5661 53.6751 
-112.958 -99.0365 53.1001 -112.648 -99.6445 52.7 -112.916 -100.178 52.8671 
-113.456 -100.59 53.1714 -113.887 -98.2299 55.0686 -113.994 -97.8079 55.4546 
-113.685 -98.6577 54.7553 -113.256 -98.8844 54.5242 -112.731 -99.0297 54.1321 
-112.414 -99.4782 53.6195 -112.506 -100.153 53.4687 -112.869 -100.69 53.6672 
-113.187 -101.11 53.7342 -113.907 -98.5728 55.8192 -113.934 -98.1012 56.2256 
-113.75 -99.026 55.422 -113.216 -99.2341 55.1714 -112.515 -99.2227 54.9577 
-112.14 -99.4365 54.577 -112.208 -100.105 54.2149 -112.439 -100.844 54.1348 
-112.637 -101.35 54.159 -112.824 -101.741 54.0739 -112.67 -102.457 54.3884 
-112.319 -102.134 54.45 -112.316 -102.742 54.9063 -112.138 -101.716 54.5941 
-111.874 -102.434 55.0288 -112.108 -102.901 55.7015 -112.034 -101.034 54.8189 
-111.695 -101.916 55.4002 -111.701 -102.517 56.0238 -112.177 -103.006 56.732 
-111.874 -100.17 55.1728 -111.679 -101.119 55.8797 -111.573 -101.917 56.529 
-111.948 -102.557 57.1661 -112.501 -103.158 57.7307 -111.92 -99.6172 55.5353 
-111.699 -100.333 56.2679 -111.684 -101.164 56.9097 -111.897 -101.989 57.5049 
-112.372 -102.763 58.1725 -112.792 -103.31 58.6549 -112.505 -99.5184 55.7358 
-111.976 -99.9138 56.4933 -111.925 -100.517 57.1614 -112.09 -101.303 57.7109 
-112.3 -102.248 58.4674 -112.566 -102.999 59.1937 -112.926 -103.367 59.5244 
-113.293 -99.4443 55.9108 -112.611 -99.747 56.6397 -112.263 -100.116 57.4342 
-112.354 -100.669 58.0555 -112.439 -101.52 58.7962 -112.434 -102.44 59.6531 
-112.655 -103.032 60.1122 -113.193 -103.336 60.1769 -113.748 -99.1274 56.2278 
-113.272 -99.5554 56.81 -112.729 -99.8861 57.6512 -112.562 -100.261 58.446 
-112.625 -100.876 59.1548 -112.566 -101.696 59.9597 -112.615 -102.42 60.5291 
-113.072 -102.915 60.6465 -113.742 -103.301 60.642 -113.882 -98.6838 56.598 
-113.715 -99.2827 56.9925 -113.302 -99.726 57.7066 -112.921 -100.044 58.6022 
-112.837 -100.493 59.3291 -112.855 -101.14 59.9734 -112.887 -101.785 60.5655 
-113.19 -102.334 60.8707 -113.771 -102.841 60.9746 -114.316 -103.328 61.151 
-112.951 -102.93 54.8231 -112.721 -103.136 55.5379 -113.315 -103.315 55.4318 
-112.535 -103.363 56.4181 -113.031 -103.618 56.2813 -113.49 -103.829 55.9168 
-112.556 -103.622 57.2679 -112.721 -104.065 57.0259 -113.161 -104.319 56.7843 
-113.695 -104.531 56.1881 -112.847 -103.725 58.0677 -112.776 -104.325 57.5563 
-112.994 -104.753 57.3172 -113.585 -104.908 57.0252 -114.172 -105.096 56.4316 
-113.18 -103.658 58.9576 -113.253 -104.183 58.3065 -113.342 -104.742 57.7941 
-113.722 -105.023 57.5301 -114.262 -105.217 57.2506 -114.7 -105.478 56.7737 
-113.503 -103.618 59.7668 -113.747 -104.015 59.3193 -113.906 -104.523 58.7949 
-114.099 -104.91 58.2784 -114.416 -105.254 57.8834 -114.822 -105.669 57.5734 
-115.235 -105.915 57.2149 -113.959 -103.664 60.384 -114.132 -104.064 60.1629 
-114.263 -104.541 59.9108 -114.403 -104.934 59.4804 -114.59 -105.284 58.8645 
-114.91 -105.797 58.2858 -115.382 -106.23 57.9262 -115.881 -106.263 57.6403 
-114.438 -103.75 61.0221 -114.484 -104.182 60.8737 -114.494 -104.678 60.7226 
-114.587 -105.12 60.501 -114.79 -105.39 60.0469 -115.072 -105.709 59.3201 
-115.489 -106.167 58.6275 -116.016 -106.415 58.2285 -116.501 -106.29 57.9457 
-114.714 -103.708 61.8629 -114.739 -104.18 61.8044 -114.786 -104.141 62.8508 
-114.861 -104.637 62.7882 -114.913 -104.543 63.7483 -114.727 -104.66 61.6114 
-115.226 -105.031 63.6471 -115.472 -104.842 64.2415 -115.057 -105.073 62.4711 
-114.809 -105.166 61.3425 -115.915 -105.276 64.0895 -116.334 -105.006 64.3447 
-115.684 -105.362 63.2434 -115.435 -105.475 62.0274 -115.086 -105.504 61.0278 
-116.719 -105.441 64.1369 -117.302 -105.183 64.3386 -116.361 -105.606 63.6439 
-116.182 -105.71 62.6591 -115.887 -105.656 61.5584 -115.436 -105.614 60.4699 
-117.666 -105.713 64.1404 -118.33 -105.47 64.3962 -117.078 -105.928 63.736 
-116.755 -106.109 63.0122 -116.557 -105.907 62.0184 -116.21 -105.62 60.8515 
-115.783 -105.81 59.6131 -118.685 -106.006 64.1968 -119.268 -105.702 64.3834 
-117.993 -106.214 63.8049 -117.413 -106.497 63.1338 -117.073 -106.432 62.2515 
-116.817 -105.89 61.176 -116.507 -105.701 59.9307 -116.229 -106.103 58.8731 
-119.559 -106.151 64.0763 -119.986 -105.767 64.1695 -118.933 -106.325 63.7579 
-118.249 -106.546 63.0918 -117.737 -106.712 62.2246 -117.436 -106.379 61.3321 
-117.177 -105.864 60.3015 -116.923 -105.851 59.2289 -116.719 -106.17 58.4553 
-120.212 -106.192 63.7217 -120.465 -105.729 63.7954 -119.759 -106.401 63.4549 
-119.123 -106.482 62.8464 -118.514 -106.586 62.0103 -118.14 -106.511 61.2712 
-117.899 -106.113 60.5832 -117.616 -105.795 59.6874 -117.34 -105.846 58.7607 
-117.121 -106.012 58.0716 -114.513 -103.05 61.5718 -114.763 -103.439 62.4562 
-114.668 -102.681 61.9795 -114.819 -102.986 62.9394 -114.775 -102.215 62.3995 
-114.784 -103.786 63.4623 -115.014 -102.45 63.2496 -114.866 -101.673 62.7672 
-115.018 -103.145 63.8204 -115.105 -104.02 64.1634 -115.368 -101.994 63.2977 
-115.118 -101.106 62.929 -115.552 -102.586 63.8921 -115.636 -103.186 64.3659 
-115.917 -104.188 64.4377 -115.903 -101.535 63.1602 -115.711 -100.645 62.8792 
-116.185 -102.334 63.6119 -116.337 -102.672 64.3 -116.567 -103.336 64.602 
-116.952 -104.4 64.5048 -116.597 -101.054 63.0123 -116.462 -100.431 62.6264 
-116.833 -101.982 63.2601 -117.009 -102.549 63.8352 -117.242 -102.902 64.4587 
-117.643 -103.703 64.6624 -118.042 -104.715 64.5649 -117.258 -100.759 62.7282 
-117.073 -100.369 62.1498 -117.492 -101.413 63.0803 -117.676 -102.161 63.4236 
-117.907 -102.721 63.9379 -118.292 -103.274 64.4184 -118.71 -104.085 64.6264 
-119.045 -104.995 64.5636 -117.797 -100.588 62.2463 -117.545 -100.205 61.6363 
-118.093 -100.96 62.8314 -118.329 -101.486 63.2743 -118.556 -102.233 63.5823 
-118.858 -102.944 63.9239 -119.199 -103.541 64.3015 -119.537 -104.267 64.4782 
-119.823 -105.102 64.3868 -118.266 -100.306 61.7867 -117.987 -99.8737 61.2741 
-118.604 -100.636 62.4034 -118.896 -100.934 63.0198 -119.121 -101.547 63.3961 
[...]
CELL_DATA 2000
SCALARS Distance double
LOOKUP_TABLE default
164.159 163.844 164.163 164.461 163.502 163.85 164.167 164.459 164.724 
163.086 163.469 163.782 164.132 164.394 164.694 164.966 162.628 163.006 
163.299 163.692 163.961 164.313 164.587 164.939 165.267 162.222 162.556 
162.838 163.203 163.493 163.858 164.156 164.533 164.884 165.266 165.615 
161.865 162.179 162.457 162.783 163.079 163.423 163.746 164.113 164.464 
164.859 165.211 165.586 165.88 161.509 161.826 162.099 162.416 162.688 
163.025 163.338 163.715 164.051 164.433 164.748 165.132 165.426 165.799 
166.066 161.18 161.481 161.769 162.071 162.335 162.635 162.922 163.288 
163.632 164.019 164.339 164.686 164.985 165.341 165.669 166.02 166.33 
160.9 161.175 161.485 161.778 162.075 162.331 162.614 162.905 163.257 
163.618 163.994 164.328 164.668 164.978 165.352 165.687 166.087 166.378 
166.696 163.876 163.279 163.559 163.522 162.679 162.954 162.92 163.209 
163.183 162.072 162.377 162.382 162.651 162.631 162.874 162.811 161.379 
161.742 161.792 162.126 162.132 162.368 162.285 162.485 162.382 160.735 
161.056 161.105 161.477 161.492 161.812 161.717 161.954 161.819 162.047 
161.96 160.209 160.479 160.493 160.798 160.779 161.1 161.016 161.313 
161.195 161.465 161.371 161.638 161.587 159.548 159.886 159.835 160.173 
160.126 160.428 160.377 160.644 160.604 160.859 160.823 161.066 161.018 
161.272 161.233 158.746 159.082 158.967 159.382 159.368 159.774 159.817 
160.119 160.158 160.376 160.394 160.586 160.562 160.751 160.701 160.929 
160.905 158.14 158.318 158.2 158.512 158.567 159.008 159.194 159.597 
159.724 159.983 159.984 160.176 160.121 160.315 160.252 160.449 160.406 
160.634 160.634 157.906 157.708 157.808 157.924 157.654 157.715 157.868 
157.977 158.308 157.666 157.733 157.992 158.065 158.415 158.549 158.995 
157.762 157.783 158.031 158.172 158.486 158.656 158.989 159.194 159.52 
157.902 157.866 157.981 158.126 158.327 158.546 158.705 158.978 159.146 
159.483 159.687 158.078 157.977 158.039 158.08 158.229 158.332 158.392 
158.546 158.598 158.924 159.115 159.541 159.782 158.445 158.253 158.38 
158.268 158.437 158.359 158.407 158.339 158.346 158.451 158.65 158.988 
159.331 159.7 159.976 158.964 158.767 158.953 158.758 158.894 158.685 
158.665 158.466 158.416 158.364 158.531 158.712 159.09 159.371 159.726 
159.961 160.195 159.426 159.307 159.495 159.338 159.397 159.149 159.013 
158.738 158.596 158.473 158.583 158.694 159.043 159.258 159.617 159.803 
160.058 160.214 160.426 160.536 160.151 160.418 160.605 159.766 160.045 
160.194 160.488 160.743 159.269 159.633 159.83 160.112 160.343 160.681 
161.068 158.777 159.114 159.394 159.745 160.021 160.337 160.736 161.129 
161.647 158.688 158.76 159.039 159.336 159.702 160.036 160.459 160.843 
161.399 161.81 162.339 159.106 158.924 159.119 159.163 159.542 159.784 
160.247 160.589 161.143 161.569 162.136 162.495 162.911 159.6 159.445 
159.579 159.437 159.704 159.765 160.195 160.435 160.958 161.324 161.874 
162.261 162.705 162.997 163.33 159.78 159.825 159.983 159.892 160.056 
160.01 160.32 160.443 160.891 161.166 161.659 162.001 162.44 162.758 
163.125 163.406 163.776 159.711 159.877 160.115 160.175 160.368 160.339 
160.571 160.598 160.95 161.12 161.556 161.819 162.241 162.52 162.908 
163.195 163.603 163.903 164.336 160.843 160.961 161.081 161.448 161.145 
161.247 161.659 161.74 162.075 161.485 161.5 161.931 161.988 162.356 
162.36 162.644 162.024 161.922 162.305 162.299 162.688 162.687 163.023 
162.975 163.298 162.638 162.486 162.775 162.697 163.043 163.04 163.417 
163.401 163.758 163.702 164.038 163.161 163.045 163.293 163.176 163.472 
163.418 163.78 163.781 164.163 164.156 164.504 164.442 164.738 163.605 
163.523 163.822 163.709 164.039 163.919 164.263 164.179 164.544 164.527 
164.922 164.906 165.274 165.168 165.473 164.104 164.009 164.375 164.271 
164.656 164.537 164.9 164.746 165.072 164.954 165.329 165.313 165.747 
165.723 166.1 165.956 166.235 164.685 164.579 164.961 164.852 165.228 
165.136 165.502 165.386 165.701 165.541 165.839 165.744 166.109 166.128 
166.507 166.503 166.776 166.652 166.822 165.142 165.884 165.497 165.421 
166.584 166.226 166.167 165.75 165.665 167.335 166.97 166.953 166.508 
166.428 166.003 165.932 168.095 167.759 167.79 167.349 167.288 166.812 
166.732 166.278 166.164 168.821 168.491 168.533 168.168 168.141 167.701 
167.601 167.108 166.948 166.458 166.293 169.655 169.247 169.274 168.89 
168.897 168.512 168.419 167.947 167.715 167.208 166.983 166.558 166.468 
170.523 170.125 170.127 169.684 169.664 169.26 169.18 168.724 168.468 
167.931 167.625 167.183 167.055 166.765 166.785 171.155 170.907 170.88 
170.498 170.372 169.981 169.831 169.435 169.196 168.686 168.356 167.833 
167.618 167.281 167.256 167.049 167.043 171.481 171.392 171.382 171.117 
170.933 170.57 170.314 169.966 169.713 169.34 169.055 168.582 168.306 
167.865 167.719 167.446 167.391 167.196 167.098 165.082 165.161 165.369 
165.817 165.132 165.388 165.829 166.049 166.475 165.043 165.323 165.75 
165.999 166.433 166.689 167.163 164.956 165.248 165.735 165.957 166.393 
166.619 167.119 167.407 167.915 164.97 165.218 165.802 166.028 166.517 
166.661 167.138 167.37 167.939 168.196 168.706 165.153 165.314 165.894 
166.134 166.682 166.839 167.307 167.463 168.02 168.265 168.883 169.066 
169.59 165.384 165.519 166.015 166.229 166.757 166.969 167.454 167.635 
168.153 168.384 168.986 169.24 169.815 169.982 170.444 165.501 165.681 
166.124 166.323 166.789 167.007 167.485 167.719 168.216 168.47 168.983 
169.268 169.767 170.059 170.495 170.713 171.04 165.506 165.725 166.156 
166.376 166.8 167.014 167.444 167.696 168.156 168.442 168.878 169.165 
169.55 169.866 170.227 170.563 170.873 171.131 171.335 159.753 160.128 
160.02 160.216 160.777 160.528 160.712 160.508 160.6 161.509 161.234 
161.368 161.095 161.152 160.862 160.862 162.118 161.875 161.923 161.691 
161.702 161.436 161.433 161.149 161.211 162.733 162.439 162.45 162.178 
162.198 161.954 162.016 161.76 161.868 161.603 161.777 163.44 163.121 
163.181 162.805 162.859 162.525 162.663 162.398 162.589 162.315 162.497 
162.224 162.424 164.061 163.833 163.946 163.613 163.657 163.279 163.364 
163.082 163.277 163.05 163.255 162.976 163.154 162.875 163.08 164.572 
164.405 164.55 164.319 164.362 164.034 164.028 163.736 163.85 163.673 
163.898 163.708 163.929 163.654 163.869 163.574 163.81 165.105 164.927 
165.104 164.894 164.994 164.694 164.718 164.382 164.473 164.234 164.469 
164.31 164.593 164.401 164.66 164.403 164.647 164.35 164.576 159.537 
159.506 159.602 159.925 159.784 159.74 160.028 160.118 160.569 160.119 
160.108 160.39 160.354 160.733 160.858 161.341 160.309 160.4 160.745 
160.746 161.069 161.092 161.504 161.628 162.039 160.479 160.564 160.944 
161.033 161.375 161.41 161.759 161.83 162.231 162.316 162.689 160.744 
160.769 161.114 161.204 161.56 161.642 161.976 162.059 162.433 162.534 
162.923 162.993 163.357 161.079 161.067 161.396 161.417 161.753 161.806 
162.124 162.212 162.567 162.705 163.097 163.214 163.566 163.637 163.949 
161.472 161.437 161.782 161.753 162.08 162.058 162.351 162.364 162.684 
162.798 163.191 163.352 163.725 163.822 164.119 164.174 164.453 161.883 
161.841 162.166 162.141 162.453 162.421 162.702 162.654 162.935 162.951 
163.306 163.432 163.826 163.958 164.285 164.35 164.63 164.678 164.976 
162.208 162.72 162.457 162.457 163.267 162.956 162.952 162.715 162.736 
163.993 163.566 163.53 163.226 163.262 163.008 163.006 164.859 164.378 
164.303 163.881 163.892 163.577 163.601 163.284 163.26 165.659 165.243 
165.157 164.699 164.659 164.275 164.3 163.942 163.947 163.582 163.613 
166.304 165.973 165.897 165.497 165.424 165.044 165.044 164.683 164.694 
164.316 164.339 164 164.087 166.853 166.571 166.506 166.163 166.084 
165.745 165.729 165.407 165.414 165.061 165.062 164.718 164.76 164.467 
164.534 167.336 167.095 167.055 166.748 166.679 166.359 166.337 166.046 
166.063 165.753 165.759 165.421 165.445 165.128 165.178 164.876 164.907 
167.757 167.555 167.547 167.288 167.242 166.939 166.904 166.622 166.638 
166.37 166.402 166.101 166.139 165.821 165.882 165.555 165.605 165.259 
165.279 167.987 168.309 168.035 167.797 168.636 168.361 168.098 167.809 
167.513 168.871 168.64 168.348 168.081 167.764 167.485 167.179 169.034 
168.827 168.539 168.29 167.985 167.726 167.445 167.178 166.919 169.318 
169.061 168.856 168.541 168.301 167.994 167.772 167.482 167.263 166.967 
166.717 169.823 169.508 169.406 169.011 168.831 168.437 168.254 167.897 
167.704 167.36 167.126 166.779 166.501 170.43 170.108 170.015 169.627 
169.432 169.031 168.821 168.439 168.215 167.838 167.583 167.215 166.934 
166.567 166.265 170.963 170.677 170.507 170.166 169.901 169.555 169.286 
168.954 168.67 168.314 167.993 167.639 167.32 166.983 166.66 166.309 
165.975 171.31 171.094 170.86 170.56 170.237 169.919 169.594 169.307 
168.976 168.672 168.288 167.965 167.582 167.29 166.938 166.645 166.287 
165.968 165.618 168.167 168.584 168.403 168.498 169.051 168.845 168.91 
168.743 168.829 169.447 169.277 169.291 169.129 169.191 169.058 169.094 
169.722 169.604 169.607 169.463 169.519 169.409 169.466 169.285 169.267 
169.893 169.834 169.888 169.779 169.916 169.8 169.92 169.696 169.679 
169.431 169.455 169.854 169.924 170.031 170.055 170.305 170.275 170.495 
170.256 170.224 169.872 169.825 169.656 169.834 169.596 169.773 169.928 
170.116 170.412 170.577 170.836 170.784 170.761 170.441 170.314 170.051 
170.178 170.131 170.441 169.39 169.544 169.801 170.008 170.329 170.545 
170.755 170.882 170.888 170.821 170.747 170.56 170.661 170.542 170.845 
170.79 171.066 169.407 169.501 169.863 170.009 170.373 170.486 170.636 
170.689 170.675 170.748 170.802 170.869 171.063 171.042 171.306 171.228 
171.458 171.35 171.465 168.029 167.872 168.117 168.436 167.54 167.886 
168.246 168.551 168.905 167.176 167.509 167.854 168.246 168.63 168.984 
169.3 167.037 167.274 167.634 167.88 168.195 168.553 168.896 169.289 
169.554 166.941 167.259 167.761 167.899 168.165 168.214 168.41 168.735 
169.074 169.5 169.727 166.519 167.034 167.619 168.028 168.37 168.369 
168.363 168.355 168.527 168.921 169.27 169.65 169.746 165.919 166.433 
166.891 167.562 167.951 168.35 168.335 168.349 168.275 168.461 168.73 
169.145 169.367 169.589 169.52 165.441 165.81 166.1 166.667 166.991 
167.604 167.724 168.057 167.991 168.195 168.325 168.673 168.933 169.211 
169.245 169.332 169.254 165.077 165.369 165.598 165.96 166.22 166.684 
166.903 167.331 167.443 167.771 167.92 168.27 168.517 168.83 168.958 
169.094 169.071 169.143 169.185 164.949 164.97 165.137 165.493 165.094 
165.226 165.617 165.717 166.082 165.306 165.427 165.847 165.905 166.239 
166.317 166.674 165.463 165.646 166.061 166.141 166.446 166.486 166.773 
166.883 167.225 165.388 165.695 166.085 166.267 166.552 166.65 166.934 
167.016 167.357 167.456 167.824 165.085 165.471 165.851 166.158 166.478 
166.69 167.019 167.165 167.527 167.637 168.008 168.097 168.439 164.738 
165.1 165.474 165.838 166.213 166.545 166.927 167.189 167.538 167.73 
168.04 168.209 168.483 168.625 168.831 164.494 164.781 165.138 165.469 
165.852 166.231 166.621 166.984 167.299 167.591 167.838 168.095 168.337 
168.555 168.749 168.883 168.987 164.366 164.587 164.921 165.186 165.541 
165.877 166.243 166.607 166.906 167.234 167.477 167.79 168.072 168.362 
168.649 168.818 169.017 169.053 169.179 164.441 164.717 164.702 164.961 
164.988 164.979 165.249 165.247 165.562 165.282 165.274 165.584 165.568 
165.889 165.886 166.231 165.611 165.599 165.934 165.927 166.257 166.235 
166.538 166.537 166.846 165.935 165.93 166.238 166.254 166.597 166.607 
166.931 166.883 167.173 167.137 167.44 166.201 166.227 166.519 166.535 
166.889 166.935 167.337 167.323 167.687 167.585 167.92 167.811 168.13 
166.409 166.463 166.795 166.826 167.21 167.258 167.701 167.735 168.146 
168.112 168.469 168.379 168.69 168.55 168.78 166.635 166.668 167.007 
167.079 167.479 167.579 168.016 168.09 168.461 168.483 168.793 168.813 
169.111 169.078 169.282 169.123 169.191 166.919 166.906 167.179 167.247 
167.597 167.757 168.164 168.324 168.666 168.73 168.992 169.033 169.333 
169.391 169.668 169.591 169.683 169.441 169.393 169.567 169.956 169.888 
170.09 169.987 170.183 170.455 170.43 170.567 169.62 169.996 170.301 
170.564 170.664 170.692 170.648 169.216 169.544 169.81 170.19 170.331 
170.542 170.485 170.563 170.537 168.854 169.142 169.323 169.663 169.845 
170.133 170.248 170.39 170.526 170.595 170.787 168.347 168.694 168.832 
169.174 169.343 169.674 169.898 170.183 170.504 170.706 171.069 171.082 
171.291 167.779 168.122 168.285 168.649 168.852 169.205 169.434 169.795 
170.105 170.528 170.919 171.259 171.533 171.552 171.588 167.373 167.623 
167.8 168.12 168.365 168.734 169.001 169.348 169.598 169.995 170.301 
170.802 171.104 171.495 171.621 171.694 171.642 167.145 167.326 167.474 
167.698 167.888 168.235 168.506 168.903 169.176 169.525 169.777 170.157 
170.44 170.886 171.123 171.466 171.541 171.644 171.574 158.265 158.853 
158.55 158.614 159.575 159.216 159.219 158.92 159.02 160.186 159.888 
159.861 159.551 159.608 159.376 159.606 160.748 160.469 160.542 160.232 
160.356 160.042 160.279 160.075 160.451 161.436 161.126 161.331 161.027 
161.309 160.948 161.271 160.915 161.308 161.048 161.472 162.155 161.883 
162.121 161.879 162.219 161.954 162.319 161.997 162.368 162.035 162.405 
162.101 162.437 162.804 162.585 162.832 162.641 162.969 162.79 163.138 
162.933 163.255 163.012 163.295 163.021 163.264 162.984 163.221 163.426 
163.226 163.501 163.327 163.679 163.513 163.896 163.701 164.044 163.804 
164.068 163.802 164.004 163.74 163.932 163.693 163.919 164.009 163.839 
164.104 163.966 164.313 164.2 164.61 164.471 164.863 164.631 164.924 
164.602 164.801 164.469 164.642 164.368 164.563 164.353 164.572 158.089 
158.364 158.125 157.969 158.782 158.433 158.221 157.996 157.9 159.463 
158.996 158.812 158.386 158.299 158.037 158.112 160.349 159.83 159.732 
159.182 159.107 158.65 158.762 158.485 158.738 161.301 160.776 160.701 
160.176 160.097 159.579 159.616 159.256 159.471 159.229 159.465 162.214 
161.709 161.605 161.123 161.04 160.54 160.488 160.083 160.184 159.932 
160.105 159.879 160.014 163.025 162.565 162.46 162.005 161.954 161.472 
161.423 160.94 160.967 160.616 160.765 160.506 160.662 160.395 160.538 
163.776 163.354 163.275 162.841 162.811 162.379 162.379 161.905 161.924 
161.469 161.586 161.233 161.426 161.115 161.299 160.99 161.174 164.468 
164.106 164.055 163.647 163.604 163.203 163.198 162.805 162.827 162.419 
162.487 162.108 162.256 161.926 162.1 161.784 161.939 161.638 161.794 
157.906 157.847 157.82 157.719 157.775 157.749 157.636 157.634 157.561 
157.925 157.725 157.565 157.502 157.394 157.455 157.48 158.514 158.074 
157.875 157.566 157.471 157.361 157.448 157.505 157.67 159.261 158.802 
158.634 158.148 158.072 157.704 157.837 157.691 157.938 157.859 157.988 
159.831 159.493 159.405 159.005 158.96 158.513 158.567 158.259 158.454 
158.279 158.406 158.193 158.209 160.345 160.019 159.975 159.698 159.699 
159.361 159.327 158.98 159.015 158.797 158.886 158.67 158.675 158.427 
158.489 160.966 160.589 160.527 160.239 160.244 159.982 159.944 159.628 
159.583 159.318 159.375 159.161 159.211 158.94 158.956 158.753 158.906 
161.602 161.239 161.15 160.815 160.779 160.497 160.474 160.184 160.163 
159.879 159.939 159.7 159.789 159.512 159.519 159.233 159.265 159.141 
159.318 167.776 167.352 167.589 167.597 166.866 167.123 167.097 167.332 
167.262 166.308 166.587 166.543 166.795 166.718 166.95 166.895 165.664 
165.982 165.919 166.2 166.15 166.416 166.386 166.633 166.677 164.891 
165.28 165.207 165.528 165.471 165.811 165.821 166.13 166.131 166.431 
166.473 164.048 164.465 164.426 164.779 164.691 165.061 165.041 165.461 
165.46 165.821 165.764 166.116 166.068 163.307 163.661 163.662 164.009 
163.938 164.267 164.187 164.592 164.561 165.008 164.96 165.354 165.278 
165.641 165.578 162.72 162.995 162.981 163.293 163.242 163.54 163.448 
163.767 163.696 164.085 164.049 164.476 164.447 164.855 164.831 165.19 
165.163 162.168 162.418 162.344 162.632 162.544 162.842 162.728 163.036 
162.943 163.284 163.236 163.612 163.595 164.003 164.007 164.426 164.432 
164.808 164.794 
POINT_DATA 1002
SCALARS Distance double
LOOKUP_TABLE default
164.464 164.173 163.84 164.186 163.508 164.734 163.858 163.143 164.458 
164.982 163.408 162.708 164.082 164.644 165.273 162.903 162.274 163.587 
164.216 164.901 165.627 162.491 161.904 163.121 163.772 164.483 165.271 
165.948 162.143 161.549 162.739 163.379 164.088 164.824 165.541 166.154 
161.787 161.193 162.369 162.958 163.678 164.389 165.032 165.705 166.34 
161.464 160.884 162.058 162.58 163.229 163.991 164.637 165.286 166.017 
166.634 161.179 160.639 161.812 162.356 162.908 163.636 164.356 165.011 
165.76 166.483 166.971 163.616 163.221 163 162.641 162.398 162.899 
162.093 161.726 162.413 162.582 161.41 161.002 161.875 162.109 162.164 
160.757 160.448 161.148 161.453 161.591 161.704 160.233 159.949 160.49 
160.7 160.896 161.101 161.309 159.476 159.221 159.796 160.094 160.338 
160.581 160.789 160.958 158.55 158.467 158.875 159.433 159.926 160.213 
160.391 160.508 160.637 157.938 158.016 158.112 158.716 159.434 159.813 
159.926 160.048 160.202 160.38 157.764 157.724 157.638 157.785 157.54 
158.096 157.877 157.582 158.315 158.836 157.892 157.814 158.326 158.819 
159.316 157.892 158.001 158.161 158.496 158.802 159.323 158.04 158.197 
158.188 158.341 158.344 158.649 159.375 158.524 158.617 158.577 158.549 
158.335 158.362 158.94 159.68 159.163 159.114 159.175 158.932 158.517 
158.399 158.836 159.494 160.004 159.647 159.519 159.677 159.341 158.767 
158.505 158.847 159.446 159.911 160.26 160.711 160.283 160.821 159.941 
160.36 161.049 159.515 160.035 160.636 161.521 158.982 159.687 160.343 
161.231 162.191 158.794 159.343 160.08 160.957 162.01 162.816 159.213 
159.354 159.931 160.733 161.741 162.659 163.258 159.782 159.745 160.013 
160.643 161.5 162.383 163.075 163.659 160.018 160.151 160.273 160.675 
161.357 162.121 162.817 163.484 164.185 159.969 160.359 160.595 160.847 
161.331 161.98 162.622 163.285 164.04 164.785 161.353 161.567 162.057 
161.885 162.343 162.669 162.36 162.671 163.052 163.35 162.908 163.059 
163.398 163.802 164.123 163.411 163.562 163.797 164.145 164.543 164.848 
163.9 164.157 164.399 164.595 164.893 165.329 165.647 164.467 164.757 
165.056 165.245 165.376 165.719 166.194 166.461 165.085 165.332 165.595 
165.857 166.003 166.139 166.472 166.854 167.013 165.559 165.849 166.247 
166.584 166.923 166.07 167.403 167.679 166.873 166.345 168.195 168.411 
167.772 167.22 166.632 168.867 169.185 168.538 168.113 167.472 166.74 
169.689 170.093 169.266 168.887 168.258 167.415 166.796 170.595 170.881 
170.099 169.627 169.028 168.121 167.341 167.029 171.245 171.34 170.8 
170.218 169.651 168.911 168.039 167.475 167.264 171.593 171.512 171.308 
170.693 170.031 169.459 168.797 168.083 167.598 167.311 164.903 165.647 
164.933 165.586 164.877 166.256 165.508 164.745 166.156 166.888 165.491 
164.634 166.208 166.816 167.654 165.53 164.748 166.385 166.959 167.641 
168.523 165.666 165.048 166.488 167.174 167.788 168.633 169.493 165.843 
165.261 166.536 167.247 167.943 168.73 169.594 170.36 165.94 165.304 
166.591 167.241 167.967 168.738 169.481 170.226 170.9 165.931 165.284 
166.597 167.213 167.881 168.62 169.277 169.892 170.565 171.154 159.771 
160.321 160.293 160.972 161.067 160.846 161.665 161.797 161.468 161.145 
162.166 162.394 161.941 161.698 161.457 162.758 163.05 162.428 162.226 
162.126 162.022 163.556 163.715 163.23 162.922 162.844 162.8 162.671 
164.229 164.24 164.055 163.688 163.482 163.508 163.459 163.332 164.748 
164.729 164.674 164.36 164.038 164.03 164.158 164.17 164.106 159.323 
159.713 159.485 160.024 159.846 160.348 160.455 160.057 160.692 161.16 
160.689 160.182 161.092 161.424 161.929 160.823 160.434 161.321 161.715 
162.139 162.625 161.051 160.747 161.468 161.892 162.323 162.838 163.306 
161.403 161.09 161.733 162.059 162.424 162.955 163.501 163.892 161.819 
161.508 162.125 162.383 162.613 163.017 163.603 164.074 164.392 162.199 