# vtk DataFile Version 4.0
vtk output
ASCII
DATASET POLYDATA
POINTS 1002 float
-117.579 -99.8719 46.581 -117.466 -99.6219 45.9603 -116.991 -99.5819 46.3749 
-117.092 -99.8821 47.021 -116.397 -99.7881 46.6946 -117.661 -100.246 47.1391 
-116.393 -100.072 47.4124 -115.704 -100.164 46.9225 -117.092 -100.245 47.6848 
-117.829 -100.443 47.9598 -115.628 -100.347 47.7396 -115.057 -100.447 47.1784 
-116.319 -100.404 48.1509 -117.182 -100.605 48.4062 -118.051 -100.704 48.7435 
-114.991 -100.662 48.0203 -114.401 -100.666 47.519 -115.577 -100.736 48.426 
-116.426 -101.035 48.5841 -117.407 -101.234 48.7986 -118.17 -101.293 49.1331 
-114.258 -101.174 48.158 -113.53 -101.026 47.8122 -114.946 -101.237 48.5195 
-115.716 -101.508 48.6855 -116.73 -101.804 48.8228 -117.607 -101.823 49.2083 
-118.213 -101.778 49.6536 -113.342 -101.735 48.1592 -112.752 -101.321 48.0509 
-114.192 -101.815 48.4881 -115.046 -101.822 48.9295 -115.985 -101.992 49.2744 
-116.99 -102.068 49.6632 -117.712 -102.023 50.1166 -118.314 -102.061 50.4766 
-112.716 -101.91 48.4124 -112.482 -101.261 48.4772 -113.408 -102.153 48.6478 
-114.376 -102.002 49.2966 -115.244 -101.97 49.9561 -116.176 -102.093 50.3965 
-117.097 -102.157 50.7232 -117.79 -102.285 50.9581 -118.454 -102.484 51.1271 
-112.538 -101.701 49.1486 -112.516 -100.994 49.1638 -112.878 -102.136 49.3291 
-113.783 -102.065 49.8834 -114.699 -102.006 50.5256 -115.423 -102.273 50.9155 
-116.3 -102.465 51.1543 -117.191 -102.522 51.3793 -117.904 -102.682 51.5656 
-118.559 -102.858 51.736 -112.495 -101.425 50.0785 -112.466 -100.793 49.906 
-112.585 -101.98 50.3199 -113.286 -102.071 50.6877 -114.323 -102.016 51.0587 
-115.035 -102.376 51.2623 -115.645 -102.819 51.4233 -116.524 -102.852 51.7366 
-117.391 -102.754 52.1208 -118.056 -102.813 52.4297 -118.625 -102.892 52.6568 
-116.896 -99.613 45.2968 -116.326 -99.6129 45.7226 -116.15 -99.7766 44.4422 
-115.629 -99.7192 44.9799 -115.598 -99.6423 43.9295 -115.749 -99.8616 46.0961 
-115.233 -99.4257 44.6446 -115.411 -98.9723 44.0213 -115.185 -99.7541 45.6296 
-115.136 -100.18 46.4144 -115.078 -98.7383 44.7601 -115.299 -98.1554 44.3335 
-114.834 -99.2248 45.5145 -114.593 -99.8253 46.1768 -114.478 -100.34 46.7356 
-114.832 -98.088 44.9474 -115.004 -97.5546 44.4792 -114.537 -98.598 45.5326 
-114.089 -99.2526 46.0849 -113.78 -99.9662 46.4672 -113.664 -100.491 47.1078 
-114.373 -97.5961 45.0043 -114.525 -97.1154 44.4607 -114.133 -98.0956 45.5233 
-113.64 -98.7677 45.9826 -113.111 -99.5834 46.2399 -112.867 -100.223 46.709 
-112.8 -100.72 47.517 -113.813 -97.1983 44.9548 -114.021 -96.7302 44.4432 
-113.587 -97.6458 45.4549 -113.196 -98.2684 45.942 -112.621 -99.1474 46.1911 
-112.195 -99.9349 46.4259 -112.15 -100.385 47.1657 -112.328 -100.76 48.0048 
-113.41 -96.8729 44.9629 -113.707 -96.3544 44.5833 -113.066 -97.2894 45.333 
-112.682 -97.7663 45.8391 -112.213 -98.5346 46.2773 -111.741 -99.4313 46.4749 
-111.554 -100.04 46.9515 -111.818 -100.313 47.8582 -112.267 -100.572 48.6354 
-113.267 -96.5257 45.1626 -113.597 -95.9466 44.8992 -112.805 -96.9852 45.3376 
-112.277 -97.3754 45.6843 -111.805 -97.9401 46.2163 -111.436 -98.7466 46.6126 
-111.179 -99.5211 46.9992 -111.221 -99.9941 47.7541 -111.668 -100.209 48.644 
-112.205 -100.423 49.328 -113.317 -95.8741 45.4599 -112.875 -96.4579 45.5589 
-112.864 -95.7664 45.8894 -112.35 -96.3018 45.9953 -112.386 -95.7489 46.2848 
-112.239 -96.9048 45.6869 -111.891 -96.2197 46.7029 -112.247 -95.9743 46.9484 
-111.642 -96.7367 46.3139 -111.574 -97.3549 46.1018 -111.778 -96.3712 47.6867 
-112.414 -96.3119 47.8627 -111.252 -96.6305 47.3029 -111.052 -97.2589 46.815 
-111.179 -98.0193 46.6348 -111.908 -96.6498 48.6324 -112.457 -96.4827 48.7891 
-111.221 -96.7517 48.3909 -110.887 -97.1839 47.8496 -110.946 -97.9978 47.365 
-111.038 -98.8455 47.1532 -111.995 -96.8447 49.5226 -112.316 -96.4697 49.7628 
-111.38 -97.0485 49.3787 -110.948 -97.2948 49.0531 -111.002 -97.9724 48.548 
-111.018 -98.8907 48.1607 -110.954 -99.5952 47.9159 -112.078 -96.9374 50.4753 
-112.295 -96.4637 50.7546 -111.597 -97.3345 50.3181 -111.059 -97.5544 50.2062 
-111.003 -98.0328 49.9265 -111.062 -98.9424 49.5175 -110.916 -99.737 49.1301 
-111.097 -100.07 48.8354 -112.259 -97.0222 51.341 -112.463 -96.5594 51.5691 
-111.912 -97.5463 51.139 -111.348 -97.8366 51.08 -111.03 -98.135 51.0322 
-111 -98.9054 50.7811 -110.878 -99.8244 50.3314 -110.98 -100.256 49.8879 
-111.583 -100.294 49.5786 -112.429 -97.1001 52.0854 -112.654 -96.7008 52.2214 
-112.204 -97.6642 51.8633 -111.803 -98.0765 51.7153 -111.363 -98.3045 51.7257 
-111.099 -98.8127 51.6965 -110.922 -99.6759 51.3745 -110.945 -100.296 50.8605 
-111.424 -100.439 50.4499 -112.084 -100.501 50.1864 -112.399 -101 50.7838 
-112.108 -100.631 51.0183 -112.448 -101.151 51.6785 -111.583 -100.442 51.313 
-112.379 -100.638 51.888 -112.861 -101.143 52.3782 -111.174 -100.169 51.8282 
-112.005 -100.346 52.2847 -112.9 -100.614 52.664 -113.426 -101.128 53.0217 
-111.169 -99.5321 52.3094 -111.557 -100.094 52.8737 -112.469 -100.425 53.1838 
-113.349 -100.78 53.4235 -113.808 -101.296 53.9365 -111.482 -98.8605 52.4185 
-111.541 -99.5821 53.2236 -111.946 -100.238 53.7639 -112.91 -100.646 53.9717 
-113.748 -101.014 54.3608 -114.158 -101.5 55.0315 -111.883 -98.4828 52.3724 
-111.925 -98.9909 53.2357 -111.991 -99.6744 54.0234 -112.585 -100.27 54.4495 
-113.579 -100.649 54.8198 -114.238 -101.088 55.4025 -114.565 -101.603 56.0224 
-112.18 -98.0839 52.5238 -112.205 -98.4351 53.3542 -112.346 -98.9274 54.1098 
-112.759 -99.5769 54.6064 -113.504 -100.08 55.0979 -114.175 -100.511 55.7464 
-114.518 -101.109 56.3819 -114.814 -101.663 56.8949 -112.365 -97.4979 52.7756 
-112.297 -97.8111 53.6332 -112.505 -98.1921 54.3265 -113.066 -98.8487 54.6554 
-113.694 -99.5258 55.0638 -114.117 -99.9669 55.8375 -114.338 -100.464 56.6458 
-114.57 -101.116 57.2508 -114.981 -101.624 57.6645 -112.6 -97.0068 52.8934 
-112.51 -97.2833 53.7427 -112.66 -97.6024 54.467 -113.257 -98.1935 54.7587 
-113.96 -98.9896 54.9943 -114.29 -99.5688 55.6926 -114.331 -99.9315 56.6236 
-114.447 -100.419 57.384 -114.79 -100.991 57.9104 -115.317 -101.417 58.2126 
-112.417 -101.649 51.1515 -112.635 -101.751 52.0293 -112.774 -102.046 51.4562 
-113.281 -101.667 52.626 -113.389 -101.985 52.1793 -113.844 -102.007 51.6292 
-113.891 -101.652 53.4629 -114.2 -101.875 52.8789 -114.621 -101.937 52.2799 
-114.877 -102.166 51.7112 -114.236 -101.834 54.6704 -114.671 -102.005 54.0882 
-115.183 -101.983 53.3701 -115.374 -102.237 52.6095 -115.4 -102.736 51.887 
-114.642 -101.957 55.7904 -114.967 -102.226 55.3943 -115.411 -102.302 54.7813 
-115.648 -102.347 54.0435 -115.783 -102.688 53.1702 -116.069 -102.98 52.3154 
-115.087 -101.975 56.6996 -115.429 -102.229 56.4498 -115.747 -102.528 55.9845 
-115.924 -102.688 55.3031 -116.162 -102.701 54.5652 -116.59 -102.741 53.7656 
-117.027 -102.781 52.8946 -115.39 -101.975 57.485 -115.855 -102.196 57.3053 
-116.215 -102.532 57.027 -116.376 -102.934 56.3909 -116.582 -103.056 55.5436 
-117.037 -102.847 54.889 -117.508 -102.635 54.2749 -117.812 -102.665 53.3885 
-115.703 -101.864 58.0729 -116.178 -102.217 57.8879 -116.581 -102.602 57.7569 
-116.802 -103.048 57.411 -116.981 -103.347 56.5682 -117.346 -103.289 55.6673 
-117.804 -102.939 55.1585 -118.138 -102.668 54.6274 -118.369 -102.717 53.6935 
-116.087 -101.445 58.469 -116.518 -101.983 58.3013 -117.072 -101.578 58.5899 
-117.508 -102.247 58.564 -118.139 -101.896 58.9786 -116.929 -102.575 58.1481 
-118.495 -102.486 59.321 -119.021 -102.157 59.7479 -117.778 -102.974 58.5329 
-117.189 -103.138 58.0632 -119.247 -102.498 60.0859 -119.576 -102.166 59.9725 
-118.67 -103.036 59.2068 -117.927 -103.445 58.3345 -117.366 -103.477 57.5997 
-119.866 -102.527 59.6352 -120.199 -102.08 59.1005 -119.528 -102.932 59.3854 
-118.895 -103.345 58.4994 -118.156 -103.562 57.5928 -117.659 -103.556 56.5901 
-120.705 -102.643 58.4305 -121.21 -101.955 58.1774 -120.365 -103.058 58.6437 
-119.959 -103.323 58.2584 -119.253 -103.512 57.4182 -118.525 -103.574 56.5125 
-118.08 -103.367 55.7486 -121.678 -102.477 57.8621 -122.208 -101.702 57.9265 
-121.173 -103.047 57.9682 -120.818 -103.39 57.8568 -120.351 -103.595 57.1947 
-119.622 -103.602 56.3685 -118.911 -103.357 55.7713 -118.454 -102.961 55.2962 
-122.414 -102.096 57.7373 -122.762 -101.443 57.749 -121.903 -102.667 57.7091 
-121.444 -103.116 57.5613 -121.073 -103.49 56.9913 -120.581 -103.585 56.212 
-119.884 -103.292 55.6625 -119.21 -102.903 55.2432 -118.733 -102.71 54.6006 
-122.817 -101.863 57.2501 -122.947 -101.306 57.1471 -122.52 -102.358 57.232 
-122.087 -102.745 57.0569 -121.61 -103.123 56.5808 -121.166 -103.346 55.9381 
-120.655 -103.164 55.4456 -120.027 -102.796 55.0312 -119.447 -102.659 54.3949 
-119.006 -102.775 53.5219 -115.524 -100.892 58.3668 -116.404 -100.958 58.516 
-115.972 -100.416 58.1754 -116.818 -100.557 58.2581 -116.515 -100.1 57.7467 
-117.418 -101.216 58.5534 -117.244 -100.14 57.9578 -116.953 -99.7682 57.3573 
-117.737 -100.829 58.2677 -118.487 -101.661 58.8134 -117.644 -99.6154 57.7294 
-117.277 -99.1917 57.115 -118.084 -100.145 58.0931 -118.795 -101.161 58.3188 
-119.343 -101.898 59.2099 -118.024 -99.0755 57.3666 -117.629 -98.3506 57.0343 
-118.459 -99.4938 57.8673 -119.127 -100.268 58.0214 -119.698 -101.206 58.4126 
-119.943 -101.699 59.0843 -118.446 -98.3986 57.0579 -118.044 -97.5308 57.0207 
-118.874 -99.0714 57.3496 -119.458 -99.6257 57.6826 -120.053 -100.315 57.9776 
-120.431 -100.878 58.3833 -120.785 -101.346 58.4914 -118.875 -97.6782 56.9119 
-118.416 -97.1091 56.748 -119.364 -98.3982 57.0292 -119.875 -99.0874 57.2397 
-120.374 -99.7096 57.5465 -120.814 -100.188 57.915 -121.316 -100.564 58.1612 
-121.869 -101.087 58.1081 -119.182 -97.2894 56.5355 -118.691 -97.0274 56.1386 
-119.74 -97.6691 56.8461 -120.271 -98.2663 57.0176 -120.689 -99.0334 57.1099 
-121.022 -99.7217 57.242 -121.469 -100.153 57.4905 -122.097 -100.489 57.7575 
-122.601 -100.937 57.8592 -119.38 -97.1404 55.8883 -118.918 -96.9233 55.4908 
-119.897 -97.3205 56.3299 -120.402 -97.6699 56.6382 -120.811 -98.33 56.7076 
[...]
CELL_DATA 2000
SCALARS Distance double
LOOKUP_TABLE default
159.789 159.561 159.854 160.228 159.331 159.618 159.978 160.294 160.681 
159.098 159.365 159.684 160.011 160.41 160.764 161.196 158.89 159.139 
159.449 159.727 160.146 160.503 161.002 161.341 161.795 158.657 158.949 
159.299 159.55 159.967 160.285 160.825 161.184 161.695 161.966 162.359 
158.358 158.695 159.086 159.399 159.8 160.119 160.601 160.988 161.509 
161.855 162.267 162.5 162.848 158.142 158.413 158.805 159.142 159.558 
159.905 160.336 160.714 161.19 161.597 162.045 162.369 162.739 162.985 
163.362 158.119 158.283 158.65 158.9 159.334 159.656 160.123 160.456 
160.929 161.284 161.763 162.117 162.551 162.848 163.238 163.506 163.889 
158.191 158.321 158.667 158.83 159.244 159.499 159.994 160.296 160.802 
161.101 161.59 161.897 162.365 162.665 163.087 163.362 163.739 163.999 
164.329 159.446 158.798 159.145 159.194 158.144 158.482 158.559 158.924 
159.004 157.569 157.867 157.95 158.304 158.418 158.754 158.815 157.054 
157.332 157.385 157.705 157.781 158.14 158.2 158.539 158.573 156.527 
156.817 156.837 157.128 157.123 157.455 157.449 157.834 157.843 158.242 
158.267 155.927 156.249 156.249 156.547 156.5 156.785 156.717 157.049 
157.022 157.43 157.46 157.897 157.95 155.29 155.608 155.585 155.904 
155.85 156.147 156.068 156.353 156.296 156.633 156.665 157.083 157.198 
157.628 157.765 154.781 155.016 154.986 155.237 155.167 155.461 155.397 
155.706 155.655 155.96 155.971 156.338 156.472 156.914 157.13 157.55 
157.763 154.472 154.624 154.608 154.734 154.635 154.817 154.735 155.021 
155.005 155.329 155.363 155.699 155.823 156.228 156.463 156.922 157.187 
157.607 157.832 154.362 154.173 154.357 154.45 153.886 154.079 154.144 
154.331 154.39 153.828 153.825 153.853 153.978 154.021 154.245 154.409 
154.214 153.951 153.884 153.788 153.814 153.922 154.112 154.375 154.685 
154.745 154.445 154.304 154.006 153.979 153.883 154.102 154.223 154.588 
154.786 155.14 155.107 154.928 154.849 154.526 154.475 154.225 154.444 
154.416 154.838 154.887 155.283 155.336 155.684 155.413 155.289 155.355 
155.095 155.092 154.795 154.968 154.867 155.287 155.286 155.698 155.645 
155.983 155.967 156.341 155.816 155.683 155.857 155.653 155.732 155.43 
155.54 155.375 155.705 155.719 156.109 156.09 156.387 156.333 156.655 
156.678 157.065 156.249 156.124 156.322 156.188 156.339 156.086 156.178 
155.933 156.145 156.082 156.416 156.43 156.718 156.696 156.966 156.98 
157.323 157.385 157.733 158.053 157.67 158.053 158.434 157.299 157.66 
158.08 158.472 158.904 157.022 157.332 157.745 158.133 158.625 159.004 
159.477 156.754 157.071 157.473 157.837 158.343 158.744 159.276 159.63 
160.126 156.555 156.83 157.263 157.59 158.081 158.471 159.025 159.43 
159.984 160.327 160.846 156.58 156.745 157.187 157.43 157.899 158.224 
158.75 159.162 159.749 160.167 160.732 161.069 161.571 156.665 156.815 
157.166 157.373 157.769 158.051 158.524 158.898 159.459 159.898 160.469 
160.885 161.379 161.728 162.154 156.603 156.796 157.045 157.265 157.567 
157.863 158.299 158.677 159.227 159.635 160.175 160.57 161.023 161.416 
161.808 162.197 162.561 156.52 156.676 156.918 157.095 157.377 157.629 
158.063 158.437 159.02 159.433 159.988 160.323 160.736 161.042 161.393 
161.766 162.129 162.535 162.885 158.334 158.736 158.635 158.837 159.213 
159.084 159.325 159.18 159.424 159.783 159.62 159.9 159.735 160.029 
159.864 160.18 160.44 160.25 160.573 160.385 160.719 160.528 160.867 
160.683 161.003 161.167 160.961 161.328 161.131 161.493 161.27 161.593 
161.381 161.69 161.496 161.784 161.891 161.709 162.09 161.916 162.302 
162.077 162.373 162.113 162.38 162.17 162.458 162.267 162.541 162.504 
162.398 162.779 162.654 163.054 162.876 163.186 162.909 163.144 162.876 
163.15 162.942 163.226 163.016 163.262 162.958 162.943 163.344 163.287 
163.704 163.596 163.958 163.726 163.982 163.679 163.928 163.667 163.94 
163.706 163.939 163.705 163.906 163.298 163.345 163.773 163.788 164.228 
164.202 164.613 164.476 164.772 164.51 164.73 164.452 164.673 164.421 
164.616 164.368 164.526 164.299 164.462 163.615 164.346 164.023 164.135 
165.299 164.856 164.975 164.578 164.656 166.385 165.906 165.989 165.502 
165.552 165.104 165.086 167.167 166.9 166.932 166.5 166.447 165.987 
165.886 165.433 165.255 167.453 167.429 167.503 167.274 167.177 166.782 
166.582 166.146 165.906 165.468 165.205 167.672 167.637 167.821 167.712 
167.736 167.43 167.256 166.803 166.535 166.075 165.808 165.376 165.122 
168.075 167.963 168.151 168.045 168.158 167.959 167.899 167.503 167.266 
166.752 166.454 165.971 165.692 165.275 165.02 168.383 168.342 168.439 
168.36 168.399 168.303 168.258 168.054 167.852 167.46 167.116 166.623 
166.257 165.808 165.503 165.132 164.886 168.389 168.485 168.552 168.546 
168.521 168.453 168.348 168.249 168.048 167.856 167.518 167.17 166.746 
166.325 165.952 165.579 165.316 164.995 164.797 163.408 163.332 163.604 
164.135 163.316 163.556 164.104 164.412 165.067 163.302 163.535 164.034 
164.364 165.048 165.444 166.155 163.187 163.469 163.9 164.231 164.849 
165.336 166.044 166.467 166.965 162.965 163.304 163.734 164.049 164.568 
165.037 165.673 166.192 166.664 167.012 167.239 162.734 163.079 163.558 
163.875 164.366 164.744 165.304 165.763 166.24 166.621 166.918 167.188 
167.436 162.586 162.886 163.378 163.706 164.208 164.552 165.063 165.436 
165.901 166.245 166.62 166.911 167.267 167.522 167.87 162.495 162.757 
163.2 163.521 163.987 164.347 164.802 165.175 165.579 165.931 166.277 
166.622 166.973 167.327 167.677 167.965 168.21 162.38 162.636 163.009 
163.31 163.693 164.05 164.424 164.818 165.148 165.536 165.802 166.191 
166.448 166.886 167.161 167.598 167.802 168.126 168.203 156.632 157.054 
156.885 157.015 157.609 157.393 157.524 157.315 157.501 158.194 158.008 
158.236 157.968 158.182 157.924 158.234 158.797 158.614 158.9 158.708 
158.978 158.72 159.041 158.813 159.225 159.488 159.244 159.458 159.298 
159.533 159.405 159.693 159.585 159.949 159.816 160.167 160.212 159.946 
160.085 159.842 159.99 159.842 160.08 160.059 160.401 160.399 160.709 
160.609 160.843 160.863 160.64 160.795 160.507 160.647 160.374 160.62 
160.474 160.874 160.822 161.213 161.103 161.366 161.207 161.45 161.449 
161.267 161.471 161.221 161.417 161.131 161.425 161.187 161.631 161.463 
161.931 161.733 162.071 161.816 162.079 161.873 162.178 162.004 161.851 
162.087 161.888 162.125 161.904 162.213 162.021 162.428 162.276 162.696 
162.519 162.842 162.592 162.833 162.575 162.835 162.644 162.944 156.476 
156.509 156.621 156.946 156.652 156.734 157.021 157.122 157.446 156.6 
156.804 157.038 157.174 157.42 157.592 157.941 156.283 156.568 156.798 
157.064 157.337 157.558 157.916 158.127 158.563 156.19 156.292 156.538 
156.758 157.129 157.441 157.931 158.184 158.684 158.851 159.33 156.495 
156.448 156.71 156.698 157.064 157.275 157.836 158.18 158.753 159.004 
159.476 159.635 160.058 156.713 156.79 157.073 157.04 157.335 157.371 
157.827 158.081 158.635 158.964 159.433 159.693 160.085 160.291 160.668 
156.7 156.873 157.171 157.296 157.579 157.651 158.005 158.144 158.613 
158.851 159.33 159.584 160.005 160.246 160.645 160.861 161.238 156.784 
156.871 157.183 157.31 157.624 157.768 158.125 158.29 158.733 158.917 
159.404 159.58 160.041 160.212 160.645 160.837 161.248 161.433 161.796 
157.055 157.691 157.369 157.409 158.376 158.038 158.024 157.717 157.804 
159.02 158.73 158.751 158.383 158.429 158.158 158.333 159.656 159.396 
159.506 159.151 159.228 158.874 159.056 158.787 159.021 160.382 160.095 
160.271 159.942 160.067 159.708 159.885 159.587 159.837 159.541 159.739 
161.212 160.896 161.094 160.756 160.889 160.529 160.66 160.376 160.593 
160.353 160.557 160.24 160.366 161.976 161.718 161.908 161.6 161.721 
161.349 161.425 161.097 161.252 161.033 161.244 161.008 161.154 160.83 
160.938 162.526 162.365 162.527 162.328 162.446 162.147 162.206 161.856 
161.956 161.68 161.869 161.651 161.836 161.575 161.702 161.39 161.508 
162.957 162.82 162.965 162.833 162.964 162.776 162.858 162.586 162.664 
162.383 162.521 162.283 162.455 162.225 162.369 162.108 162.222 161.935 
162.039 163.27 163.815 163.433 163.266 164.413 164.015 163.802 163.434 
163.265 164.933 164.604 164.408 164.004 163.779 163.407 163.189 165.401 
165.11 164.982 164.609 164.372 163.946 163.681 163.296 163.042 165.931 
165.613 165.506 165.166 164.953 164.533 164.236 163.81 163.539 163.156 
162.916 166.462 166.145 165.98 165.658 165.434 165.069 164.765 164.353 
164.047 163.659 163.409 163.049 162.826 166.948 166.638 166.437 166.096 
165.843 165.502 165.224 164.853 164.556 164.163 163.894 163.528 163.296 
162.953 162.727 167.474 167.147 166.986 166.586 166.345 165.942 165.702 
165.325 165.088 164.691 164.437 164.033 163.789 163.417 163.183 162.836 
162.592 167.997 167.71 167.592 167.195 166.968 166.518 166.273 165.86 
165.646 165.252 165.019 164.602 164.337 163.927 163.658 163.286 163.019 
162.673 162.407 163.395 163.817 163.73 163.986 164.22 164.188 164.476 
164.361 164.588 164.529 164.563 164.886 164.832 165.035 164.906 165.06 
164.842 164.863 165.226 165.215 165.467 165.341 165.478 165.326 165.491 
165.223 165.208 165.573 165.57 165.906 165.814 166.026 165.816 165.985 
165.812 166.04 165.493 165.534 165.824 165.878 166.211 166.242 166.522 
166.397 166.568 166.366 166.549 166.396 166.603 165.487 165.623 165.81 
165.97 166.234 166.421 166.716 166.786 166.973 166.88 167.006 166.877 
167.038 166.916 167.085 165.326 165.468 165.594 165.799 166.036 166.31 
166.64 166.859 167.134 167.178 167.363 167.284 167.457 167.339 167.524 
167.392 167.582 165.252 165.313 165.439 165.578 165.835 166.087 166.467 
166.745 167.121 167.291 167.599 167.627 167.888 167.797 168.01 167.856 
168.04 167.898 168.078 163.133 162.801 163.138 163.487 162.348 162.741 
163.064 163.473 163.836 161.787 162.223 162.539 162.987 163.337 163.776 
164.127 161.187 161.634 161.963 162.432 162.799 163.256 163.632 164.062 
164.443 160.563 161.02 161.345 161.841 162.231 162.719 163.11 163.565 
163.976 164.424 164.838 159.928 160.378 160.68 161.191 161.589 162.133 
162.539 163.028 163.415 163.908 164.337 164.819 165.164 159.352 159.763 
160.049 160.515 160.896 161.459 161.903 162.439 162.834 163.321 163.726 
164.248 164.638 165.072 165.265 158.866 159.239 159.532 159.931 160.273 
160.772 161.203 161.771 162.214 162.74 163.163 163.661 164.081 164.536 
164.83 165.124 165.203 158.444 158.793 159.108 159.474 159.812 160.213 
160.586 161.077 161.502 162.071 162.531 163.097 163.554 164.04 164.405 
164.739 164.931 165.1 165.162 158.317 158.412 158.574 159.014 158.63 
158.762 159.256 159.346 159.777 158.894 159.06 159.626 159.689 160.125 
160.123 160.531 159.087 159.32 159.96 160.099 160.553 160.515 160.865 
160.882 161.362 159.266 159.472 160.091 160.346 160.834 160.902 161.228 
161.228 161.683 161.799 162.4 159.534 159.642 160.118 160.363 160.824 
161.041 161.413 161.532 161.995 162.145 162.778 162.917 163.504 159.771 
159.863 160.206 160.354 160.741 160.967 161.411 161.64 162.172 162.408 
163.05 163.27 163.865 163.96 164.375 159.86 160.001 160.316 160.429 
160.793 160.957 161.455 161.684 162.289 162.548 163.191 163.457 164.033 
164.221 164.613 164.671 164.892 159.889 160.042 160.387 160.52 160.909 
161.069 161.585 161.807 162.411 162.664 163.256 163.524 164.054 164.297 
164.697 164.824 165.046 165.055 165.156 160.039 160.479 160.355 160.55 
160.973 160.837 161.078 160.914 161.141 161.512 161.372 161.673 161.514 
161.821 161.611 161.895 162.079 161.941 162.264 162.136 162.475 162.319 
162.647 162.434 162.727 162.607 162.498 162.83 162.733 163.071 162.942 
163.241 163.103 163.397 163.235 163.511 163.111 163.011 163.365 163.293 
163.657 163.532 163.809 163.648 163.92 163.806 164.118 163.985 164.261 
163.663 163.549 163.913 163.83 164.198 164.098 164.387 164.224 164.486 
164.343 164.671 164.56 164.866 164.7 164.893 164.199 164.116 164.461 
164.373 164.694 164.603 164.883 164.768 165.041 164.923 165.241 165.133 
165.419 165.264 165.402 165.197 165.222 164.604 164.582 164.886 164.847 
165.118 165.052 165.312 165.234 165.528 165.451 165.774 165.683 165.936 
165.78 165.852 165.63 165.562 165.359 165.283 165.324 165.628 165.466 
165.52 166.029 165.872 165.957 165.767 165.943 166.267 166.287 166.475 
166.301 166.482 166.313 166.586 166.201 166.441 166.759 166.774 166.976 
166.859 167.089 166.985 167.243 165.928 166.277 166.664 166.906 167.153 
167.209 167.415 167.412 167.675 167.61 167.797 165.634 165.955 166.309 
166.668 166.953 167.196 167.406 167.568 167.855 167.965 168.234 168.131 
168.194 165.395 165.652 165.932 166.268 166.57 166.896 167.153 167.42 
167.705 167.978 168.296 168.442 168.575 168.43 168.337 165.156 165.396 
165.635 165.915 166.231 166.55 166.9 167.176 167.498 167.759 168.066 
168.329 168.528 168.628 168.611 168.465 168.323 164.882 165.131 165.368 
165.632 165.954 166.272 166.691 166.999 167.402 167.624 167.932 168.113 
168.328 168.48 168.568 168.6 168.559 168.428 168.324 154.347 154.699 
154.418 154.258 155.245 154.89 154.789 154.439 154.363 155.883 155.52 
155.451 155.075 155.024 154.663 154.643 156.485 156.165 156.12 155.769 
155.729 155.36 155.316 154.96 154.936 157.04 156.761 156.78 156.459 
156.487 156.108 156.107 155.685 155.675 155.283 155.344 157.591 157.339 
157.432 157.151 157.257 156.914 156.991 156.564 156.605 156.139 156.217 
155.814 155.999 158.204 157.949 158.101 157.835 157.957 157.659 157.725 
157.4 157.436 157.068 157.108 156.723 156.831 156.51 156.712 158.88 
158.625 158.819 158.55 158.68 158.352 158.373 158.044 158.049 157.766 
157.802 157.513 157.573 157.276 157.392 157.149 157.331 159.519 159.3 
159.487 159.262 159.405 159.092 159.129 158.738 158.768 158.408 158.521 
158.199 158.338 158.002 158.128 157.814 157.966 157.726 157.915 154.151 
153.995 153.958 153.78 154.038 153.85 153.639 153.607 153.517 154.306 
154 153.729 153.556 153.47 153.462 153.545 154.622 154.308 154.024 
153.75 153.608 153.5 153.588 153.641 153.885 155.041 154.666 154.424 
154.096 153.944 153.729 153.782 153.749 154.002 154.084 154.399 155.733 
155.246 155.062 154.616 154.519 154.175 154.236 154.058 154.303 154.28 
154.612 154.649 154.951 156.525 156.057 155.931 155.424 155.37 154.911 
154.987 154.655 154.873 154.698 155.01 154.947 155.256 155.223 155.477 
157.197 156.828 156.742 156.312 156.259 155.824 155.871 155.493 155.643 
155.355 155.585 155.415 155.699 155.603 155.871 155.778 156.003 157.79 
157.467 157.4 157.044 156.973 156.618 156.62 156.308 156.402 156.115 
156.257 156.015 156.227 156.081 156.36 156.246 156.501 156.351 156.557 
154.182 153.817 154.026 154.023 153.539 153.666 153.665 153.813 153.77 
153.595 153.533 153.551 153.555 153.607 153.674 153.793 153.986 153.792 
153.876 153.696 153.845 153.753 154.024 153.997 154.295 154.495 154.281 
154.391 154.179 154.353 154.199 154.489 154.406 154.713 154.629 154.849 
154.997 154.791 154.864 154.677 154.777 154.665 154.865 154.843 155.061 
155.014 155.124 155.043 155.12 155.488 155.281 155.355 155.144 155.195 
155.015 155.121 155.083 155.281 155.28 155.403 155.294 155.329 155.235 
155.347 155.982 155.769 155.884 155.678 155.775 155.503 155.559 155.356 
155.533 155.496 155.752 155.66 155.803 155.581 155.682 155.543 155.741 
156.49 156.262 156.386 156.221 156.376 156.137 156.179 155.873 155.931 
155.793 156.043 156.04 156.312 156.167 156.303 156.041 156.165 156.005 
156.205 162.87 162.411 162.617 162.544 161.826 162.1 161.993 162.231 
162.095 161.044 161.4 161.29 161.61 161.464 161.712 161.529 160.214 
160.561 160.467 160.841 160.727 161.031 160.852 161.103 160.914 159.488 
159.758 159.645 160.006 159.912 160.259 160.079 160.368 160.156 160.451 
160.268 158.867 159.074 158.879 159.179 159.033 159.405 159.197 159.524 
159.249 159.592 159.38 159.761 159.605 158.262 158.462 158.194 158.403 
158.15 158.48 158.25 158.595 158.299 158.625 158.371 158.783 158.654 
159.095 159.006 157.599 157.832 157.56 157.721 157.393 157.613 157.362 
157.67 157.443 157.727 157.5 157.817 157.705 158.13 158.111 158.547 
158.519 156.94 157.162 156.929 157.094 156.78 156.918 156.644 156.868 
156.693 156.961 156.811 157.067 156.969 157.29 157.296 157.693 157.725 
158.117 158.114 
POINT_DATA 1002
SCALARS Distance double
LOOKUP_TABLE default
160.151 159.735 159.482 159.93 159.271 160.604 159.655 159.07 160.35 
161.09 159.371 158.856 160.028 160.854 161.646 159.194 158.623 159.783 
160.629 161.525 162.214 159.033 158.316 159.673 160.445 161.401 162.16 
162.704 158.737 158.022 159.491 160.238 161.121 162.007 162.636 163.204 
158.482 157.922 159.198 159.986 160.787 161.665 162.465 163.115 163.769 
158.448 157.987 159.021 159.787 160.599 161.403 162.223 162.965 163.634 
164.267 158.531 158.055 159.024 159.691 160.506 161.302 162.065 162.809 
163.487 164.097 164.625 159.124 158.83 158.442 158.178 157.813 158.673 
157.612 157.283 158.063 158.521 157.102 156.779 157.444 157.837 158.241 
156.57 156.231 156.841 157.087 157.425 157.863 155.946 155.603 156.232 
156.429 156.637 157.005 157.513 155.276 154.991 155.535 155.783 155.995 
156.259 156.732 157.35 154.783 154.569 154.899 155.067 155.341 155.629 
156.025 156.66 157.38 154.521 154.327 154.522 154.485 154.656 155.019 
155.443 156.002 156.728 157.456 154.241 154.309 153.97 153.96 153.729 
154.164 153.788 153.968 153.814 154.088 154.1 154.577 153.765 153.867 
154.382 154.66 155.001 154.155 154.018 154.423 154.96 155.124 155.198 
154.764 154.506 154.811 155.282 155.608 155.545 155.498 155.397 155.115 
155.285 155.769 156.047 156.295 156.008 155.943 156.019 155.78 155.725 
156.106 156.456 156.66 157.012 156.422 156.382 156.538 156.46 156.294 
156.416 156.73 156.972 157.268 157.689 158.417 158.053 158.834 157.659 
158.53 159.347 157.367 158.212 159.136 159.947 157.12 157.933 158.885 
159.807 160.625 156.955 157.717 158.595 159.597 160.548 161.367 156.987 
157.621 158.361 159.295 160.356 161.292 162.055 156.999 157.513 158.174 
159.038 160.044 161.007 161.839 162.569 156.852 157.286 157.904 158.82 
159.823 160.66 161.404 162.183 162.931 156.756 157.149 157.699 158.586 
159.656 160.487 161.063 161.712 162.492 163.232 158.959 159.459 159.559 
160.055 160.186 160.343 160.75 160.916 161.058 161.2 161.509 161.728 
161.839 161.885 161.986 162.251 162.513 162.666 162.617 162.64 162.75 
162.887 163.199 163.45 163.444 163.374 163.439 163.492 163.373 163.774 
164.139 164.285 164.219 164.192 164.191 164.138 163.73 164.218 164.694 
165.006 165.028 164.945 164.882 164.776 164.666 163.882 164.457 164.701 
165.41 165.788 165.058 166.522 166.845 166.038 165.56 167.333 167.324 
166.942 166.364 165.734 167.63 167.407 167.549 167.043 166.341 165.644 
167.877 167.735 167.961 167.701 167.027 166.241 165.541 168.278 168.215 
168.298 168.216 167.783 166.989 166.132 165.404 168.536 168.4 168.503 
168.396 168.166 167.611 166.75 165.889 165.218 168.522 168.248 168.599 
168.462 168.189 167.792 167.151 166.338 165.63 165.103 163.109 163.823 
163.065 163.779 163.105 164.711 163.722 163.078 164.601 165.833 163.609 
162.875 164.371 165.574 166.725 163.428 162.592 164.167 165.167 166.279 
166.988 163.217 162.395 164.031 164.9 165.845 166.597 167.17 163.047 
162.318 163.871 164.725 165.564 166.296 166.969 167.663 162.908 162.259 
163.646 164.446 165.238 165.935 166.602 167.35 168.018 162.742 162.141 
163.377 164.057 164.771 165.435 166.036 166.708 167.427 167.963 156.759 
157.142 157.264 157.775 157.789 157.656 158.461 158.332 158.474 158.419 
159.051 159.011 159.191 159.27 159.434 159.672 159.783 159.653 159.758 
160.053 160.36 160.385 160.47 160.202 160.116 160.368 160.785 160.983 
161.066 161.053 160.936 160.805 160.94 161.314 161.541 161.576 161.683 
161.612 161.663 161.655 161.818 162.137 162.343 162.33 162.331 156.289 
156.817 156.423 156.963 156.57 157.285 156.879 156.352 157.274 157.704 
156.475 156.024 157.041 157.698 158.346 156.38 156.169 156.761 157.587 
158.509 159.198 156.799 156.519 156.954 157.479 158.445 159.306 159.923 
157.053 156.569 157.37 157.682 158.32 159.142 159.851 160.481 156.996 
156.535 157.466 157.905 158.431 159.09 159.759 160.406 161.049 157.083 
156.735 157.47 157.936 158.536 159.232 159.891 160.474 161.058 161.638 