# vtk DataFile Version 4.0
vtk output
ASCII
DATASET POLYDATA
POINTS 1002 float
-117.913 -100.562 45.3366 -118.019 -100.276 44.7128 -117.574 -100.195 44.912 
-117.375 -100.533 45.5199 -117.05 -100.118 45.1781 -117.666 -101.085 45.7298 
-116.864 -100.464 45.837 -116.422 -100.107 45.5232 -117.109 -101.053 46.0289 
-117.417 -101.629 46.1771 -116.252 -100.474 46.2493 -115.697 -100.211 45.8828 
-116.682 -100.924 46.5288 -116.972 -101.445 46.7424 -117.375 -101.863 47.0571 
-115.435 -100.573 46.6263 -114.944 -100.307 46.2091 -116.064 -100.893 47.0368 
-116.554 -101.244 47.3502 -116.924 -101.646 47.6425 -117.413 -102.025 48.0556 
-114.634 -100.584 46.9784 -114.229 -100.322 46.515 -115.189 -100.943 47.4136 
-115.813 -101.28 47.7614 -116.261 -101.639 48.0275 -116.7 -102.092 48.3751 
-117.272 -102.398 48.8507 -113.986 -100.567 47.3747 -113.55 -100.37 46.8645 
-114.407 -100.96 47.7525 -114.923 -101.44 48.0389 -115.416 -101.843 48.2991 
-115.848 -102.298 48.6215 -116.412 -102.631 49.1382 -117.048 -102.68 49.6922 
-113.377 -100.666 47.793 -112.975 -100.418 47.318 -113.754 -101.041 48.1127 
-114.153 -101.574 48.3367 -114.637 -102.014 48.6431 -115.125 -102.379 49.0097 
-115.663 -102.732 49.4897 -116.293 -102.846 50.0751 -116.891 -102.825 50.5327 
-112.864 -100.733 48.2255 -112.601 -100.332 47.8513 -113.151 -101.166 48.4982 
-113.461 -101.667 48.6996 -113.913 -102.095 49.0408 -114.476 -102.354 49.4813 
-115.044 -102.617 49.9034 -115.624 -102.889 50.3774 -116.2 -103.019 50.8301 
-116.728 -103.11 51.1376 -112.539 -100.642 48.6951 -112.373 -100.155 48.3825 
-112.716 -101.171 48.9536 -112.913 -101.67 49.1638 -113.26 -102.095 49.4809 
-113.807 -102.374 49.9151 -114.408 -102.561 50.3011 -114.959 -102.847 50.6546 
-115.485 -103.178 51.0384 -116.011 -103.367 51.3836 -116.535 -103.438 51.681 
-117.796 -100.015 44.12 -117.288 -99.9377 44.3605 -117.514 -99.6824 43.637 
-116.795 -99.6834 43.8585 -117.174 -99.2237 43.3514 -116.601 -99.9139 44.6633 
-116.293 -99.2597 43.5386 -116.928 -98.6015 43.2503 -115.967 -99.7287 44.1147 
-115.891 -99.9386 45.0451 -116.074 -98.556 43.4725 -116.752 -97.8676 43.2765 
-115.557 -99.2557 43.7686 -115.414 -99.6498 44.6031 -115.266 -99.9628 45.507 
-115.895 -97.743 43.5219 -116.312 -97.2054 43.2342 -115.481 -98.4754 43.7713 
-115.208 -99.0264 44.4461 -114.931 -99.4652 45.2989 -114.553 -99.9716 45.8847 
-115.445 -97.071 43.4768 -115.675 -96.64 43.0608 -115.297 -97.7131 43.9095 
-115.063 -98.3545 44.5035 -114.589 -98.8446 45.2201 -114.056 -99.457 45.6633 
-113.702 -100.05 46.0921 -115.07 -96.4947 43.4402 -115.289 -95.9893 42.9834 
-114.964 -97.0669 44.0211 -114.76 -97.7899 44.5487 -114.188 -98.4203 45.0306 
-113.517 -98.9818 45.3982 -113.119 -99.6299 45.7425 -112.988 -100.131 46.414 
-114.994 -95.8661 43.5812 -115.178 -95.2349 43.1393 -114.815 -96.4237 44.1944 
-114.493 -97.0843 44.6566 -113.84 -97.8842 44.8526 -113.119 -98.5671 45.0688 
-112.736 -99.1337 45.4987 -112.62 -99.6588 46.1663 -112.588 -100.042 47.0193 
-114.946 -95.2154 43.8551 -115.066 -94.5444 43.4582 -114.776 -95.8252 44.4288 
-114.386 -96.3364 44.8816 -113.663 -97.0179 44.954 -112.884 -97.8477 44.954 
-112.505 -98.5312 45.361 -112.46 -99.0586 46.1198 -112.426 -99.4984 46.9413 
-112.374 -99.8397 47.7068 -114.771 -94.3676 44.0667 -114.661 -95.1431 44.5451 
-114.439 -94.3818 44.7402 -114.238 -95.2717 45.197 -114.14 -94.613 45.4042 
-114.371 -95.7456 45.0594 -113.746 -95.4261 45.7725 -113.704 -94.7524 46.0785 
-113.773 -95.8062 45.5298 -113.709 -96.1925 45.255 -113.136 -95.2529 46.3817 
-113.054 -94.5952 46.8012 -113.2 -95.8584 45.9697 -113.031 -96.2183 45.5734 
-112.844 -96.8893 45.1758 -112.545 -95.0422 47.0853 -112.656 -94.6813 47.4901 
-112.682 -95.7891 46.6042 -112.619 -96.3929 46.1117 -112.352 -96.9359 45.7004 
-112.315 -97.7411 45.4347 -112.331 -95.4334 47.7729 -112.748 -95.3579 48.0728 
-112.252 -95.9384 47.4182 -112.298 -96.5885 46.9633 -112.132 -97.142 46.5374 
-112.052 -97.7605 46.3202 -112.256 -98.4486 46.2295 -112.395 -96.1227 48.4381 
-112.887 -96.064 48.6894 -112.033 -96.3981 48.2197 -111.933 -96.8042 47.9406 
-111.856 -97.2881 47.5293 -111.771 -97.9124 47.2268 -111.957 -98.5249 47.1762 
-112.259 -99.0218 47.1187 -112.366 -96.4913 49.2374 -112.784 -96.3835 49.4603 
-111.937 -96.7488 49.0374 -111.641 -97.0149 48.8626 -111.498 -97.3333 48.5567 
-111.41 -97.977 48.1393 -111.506 -98.7233 47.9245 -111.848 -99.1679 47.9211 
-112.176 -99.462 47.8569 -112.212 -96.6128 50.1425 -112.604 -96.5228 50.2737 
-111.839 -96.8957 49.961 -111.491 -97.2022 49.7759 -111.232 -97.4427 49.5406 
-111.101 -97.9536 49.1491 -111.127 -98.7809 48.7559 -111.385 -99.3726 48.599 
-111.791 -99.5866 48.5807 -112.135 -99.7996 48.5074 -112.248 -100.297 49.103 
-111.925 -99.9664 49.2488 -112.08 -100.532 49.8881 -111.499 -99.7946 49.3299 
-111.711 -100.206 50.0721 -111.9 -100.826 50.689 -111.113 -99.4986 49.4582 
-111.313 -99.975 50.2443 -111.578 -100.487 50.9441 -111.799 -101.126 51.5329 
-110.912 -98.7863 49.7929 -110.996 -99.5668 50.5466 -111.246 -100.188 51.2927 
-111.549 -100.77 51.9606 -111.799 -101.384 52.5904 -110.943 -98.0671 50.2234 
-110.871 -98.9193 50.95 -110.978 -99.7579 51.7298 -111.192 -100.422 52.4817 
-111.558 -100.948 53.1209 -111.957 -101.51 53.645 -111.197 -97.7104 50.5421 
-111.068 -98.4276 51.2589 -111.049 -99.2396 52.0085 -111.01 -99.9678 52.8675 
-111.196 -100.474 53.5917 -111.784 -100.925 53.9903 -112.433 -101.449 54.2403 
-111.534 -97.3914 50.773 -111.442 -98.0855 51.4805 -111.49 -98.8163 52.0895 
-111.378 -99.4795 52.8881 -111.205 -99.9666 53.8069 -111.571 -100.348 54.3225 
-112.407 -100.841 54.4098 -113.119 -101.345 54.5269 -111.853 -96.9893 50.9517 
-111.715 -97.6252 51.686 -111.837 -98.3406 52.2274 -111.932 -99.0011 52.8057 
-111.727 -99.5265 53.6882 -111.692 -99.8806 54.5053 -112.309 -100.318 54.7861 
-113.136 -100.901 54.7976 -113.668 -101.376 54.9998 -112.233 -96.764 51.0244 
-111.986 -97.2222 51.7778 -111.977 -97.7988 52.4145 -112.162 -98.4176 52.9402 
-112.229 -99.0618 53.5713 -112.137 -99.5409 54.373 -112.373 -99.9079 54.9982 
-113.022 -100.449 55.2624 -113.611 -101.065 55.4433 -113.939 -101.511 55.7727 
-112.402 -100.886 49.4318 -112.229 -101.174 50.2567 -112.529 -101.482 49.7038 
-112.049 -101.485 51.0863 -112.366 -101.774 50.5735 -112.74 -101.973 49.9935 
-111.925 -101.804 52.0306 -112.203 -102.11 51.4557 -112.663 -102.279 50.9001 
-113.194 -102.372 50.3722 -111.977 -102.057 53.196 -112.124 -102.431 52.5227 
-112.64 -102.578 51.8485 -113.261 -102.647 51.2749 -113.821 -102.632 50.7515 
-112.39 -102.087 54.1339 -112.41 -102.576 53.69 -112.837 -102.71 52.9881 
-113.492 -102.734 52.3384 -113.974 -102.852 51.7013 -114.407 -102.887 51.094 
-113.097 -101.88 54.5869 -113.105 -102.449 54.4993 -113.401 -102.719 54.0365 
-113.934 -102.695 53.4791 -114.324 -102.861 52.8945 -114.538 -103.192 52.1427 
-114.915 -103.298 51.4584 -113.729 -101.7 54.9982 -113.829 -102.176 55.0412 
-114.082 -102.656 54.8206 -114.434 -102.812 54.4103 -114.732 -102.891 53.9873 
-114.875 -103.259 53.3678 -115.039 -103.611 52.5394 -115.446 -103.613 51.8278 
-114.088 -101.733 55.6964 -114.305 -102.039 55.6917 -114.605 -102.537 55.5826 
-114.864 -102.942 55.2946 -115.068 -103.091 54.9248 -115.276 -103.268 54.447 
-115.439 -103.549 53.7555 -115.646 -103.698 52.9353 -116.036 -103.63 52.2045 
-114.186 -101.807 56.6274 -114.498 -102.061 56.5396 -114.599 -102.109 57.4254 
-115.115 -102.454 57.2505 -115.292 -102.361 57.9307 -114.921 -102.419 56.4347 
-115.891 -102.752 57.6776 -116.142 -102.533 58.2389 -115.65 -102.792 57.0873 
-115.271 -102.878 56.2789 -116.702 -103.089 57.9763 -117.062 -102.879 58.486 
-116.433 -103.101 57.536 -115.998 -103.138 56.9933 -115.465 -103.21 55.9945 
-117.547 -103.8 58.2804 -118.043 -103.533 58.572 -117.151 -103.758 57.8621 
-116.778 -103.639 57.4315 -116.265 -103.547 56.6254 -115.722 -103.4 55.4897 
-118.403 -104.53 58.5062 -118.945 -104.064 58.4987 -117.774 -104.612 58.1833 
-117.28 -104.581 57.5639 -116.973 -104.335 56.82 -116.586 -103.803 55.8983 
-116.018 -103.493 54.8328 -119.204 -104.783 58.5082 -119.649 -104.153 58.3962 
-118.524 -104.96 58.3365 -117.717 -105.108 57.5759 -117.238 -105.155 56.6671 
-117.102 -104.46 56.0059 -116.792 -103.612 55.2179 -116.195 -103.483 54.0897 
-119.903 -104.755 58.2407 -120.165 -104.001 58.239 -119.461 -104.996 58.0574 
-118.66 -105.023 57.3687 -117.808 -105.23 56.4302 -117.414 -104.93 55.8897 
-117.285 -103.932 55.4811 -116.937 -103.353 54.5289 -116.422 -103.485 53.2455 
-120.414 -104.683 57.8141 -120.505 -103.832 57.9502 -120.25 -105.124 57.4714 
-119.776 -105.063 56.8707 -118.955 -104.991 56.1459 -118.214 -104.88 55.703 
-117.847 -104.239 55.4889 -117.594 -103.539 54.8317 -117.211 -103.407 53.6113 
-116.811 -103.52 52.436 -113.902 -101.33 56.427 -114.136 -101.587 57.2935 
-113.879 -100.854 56.9481 -114.21 -101.049 57.6519 -114.093 -100.276 57.0893 
-114.65 -101.808 57.928 -114.6 -100.498 57.5585 -114.601 -99.932 56.9581 
-114.961 -101.307 57.9408 -115.532 -101.989 58.2519 -115.253 -100.122 57.3032 
-115.153 -99.6941 56.7593 -115.587 -100.889 57.5489 -116.08 -101.625 58.0104 
-116.561 -102.166 58.5068 -115.906 -99.6929 57.0923 -115.63 -99.3043 56.4773 
-116.286 -100.419 57.3233 -116.75 -101.341 57.5216 -117.169 -101.915 58.1962 
-117.599 -102.525 58.6504 -116.486 -99.2828 56.7661 -116.155 -98.9188 56.1262 
-116.853 -99.8049 57.2996 -117.269 -100.769 57.4241 -117.693 -101.626 57.7434 
-118.158 -102.167 58.3439 -118.629 -103.008 58.5423 -117.027 -99.0595 56.3015 
-116.692 -98.6103 55.8236 -117.332 -99.4553 56.9667 -117.68 -100.102 57.3941 
-118.112 -100.988 57.586 -118.645 -101.696 58.0177 -119.188 -102.344 58.3916 
-119.523 -103.248 58.4127 -117.468 -98.764 55.8908 -117.124 -98.2242 55.5736 
-117.739 -99.3086 56.3474 -118.045 -99.8083 56.8749 -118.492 -100.367 57.2759 
-119.065 -101.042 57.7319 -119.663 -101.716 58.2435 -120.051 -102.395 58.423 
-120.146 -103.182 58.3444 -117.808 -98.27 55.588 -117.473 -97.7939 55.2915 
-118.054 -98.9416 55.8364 -118.305 -99.6198 56.1646 -118.709 -100.083 56.5943 
[...]
CELL_DATA 2000
SCALARS Distance double
LOOKUP_TABLE default
160.177 159.832 160.149 160.434 159.483 159.803 160.092 160.406 160.707 
159.135 159.466 159.795 160.102 160.42 160.711 161.043 158.746 159.1 
159.442 159.807 160.147 160.453 160.77 161.069 161.424 158.322 158.675 
158.985 159.398 159.748 160.133 160.434 160.765 161.079 161.439 161.799 
157.946 158.261 158.56 158.93 159.284 159.689 160.02 160.38 160.688 
161.055 161.41 161.794 162.132 157.664 157.941 158.256 158.559 158.907 
159.262 159.628 159.982 160.325 160.671 161.037 161.409 161.777 162.116 
162.413 157.464 157.713 158.032 158.297 158.62 158.927 159.282 159.628 
159.985 160.329 160.681 161.043 161.409 161.771 162.096 162.399 162.668 
157.325 157.547 157.864 158.1 158.405 158.661 158.984 159.297 159.653 
159.995 160.34 160.682 161.022 161.386 161.726 162.074 162.371 162.661 
162.917 159.923 159.403 159.642 159.579 158.798 159.066 158.986 159.261 
159.194 158.155 158.403 158.284 158.598 158.542 158.863 158.822 157.559 
157.759 157.608 157.885 157.851 158.194 158.203 158.51 158.47 156.911 
157.153 157.014 157.268 157.245 157.551 157.586 157.896 157.878 158.145 
158.068 156.121 156.444 156.363 156.689 156.704 157.006 157.002 157.277 
157.204 157.495 157.399 157.704 157.643 155.383 155.689 155.691 156.042 
156.123 156.459 156.442 156.684 156.526 156.772 156.633 156.969 156.928 
157.297 157.321 154.845 155.104 155.19 155.47 155.565 155.867 155.842 
156.081 155.895 156.099 155.944 156.232 156.235 156.594 156.68 157.038 
157.132 154.42 154.683 154.826 155.073 155.143 155.355 155.269 155.454 
155.251 155.453 155.316 155.603 155.65 155.993 156.137 156.464 156.597 
156.906 157.016 154.229 154.144 154.354 154.687 154.152 154.305 154.597 
154.769 154.978 154.145 154.295 154.462 154.611 154.676 154.872 154.951 
153.891 154.127 154.22 154.405 154.374 154.497 154.46 154.719 154.833 
153.647 153.769 153.903 154.118 154.201 154.272 154.263 154.329 154.459 
154.705 154.985 153.957 153.742 153.895 153.934 154.181 154.232 154.373 
154.332 154.501 154.562 154.907 155.084 155.462 154.645 154.287 154.344 
154.166 154.371 154.345 154.541 154.517 154.693 154.717 155.029 155.158 
155.552 155.679 156.011 155.162 154.907 154.857 154.651 154.699 154.596 
154.697 154.667 154.807 154.857 155.115 155.262 155.614 155.775 156.093 
156.202 156.46 155.439 155.265 155.198 155.043 155.038 154.899 154.928 
154.829 154.926 154.934 155.169 155.3 155.635 155.802 156.119 156.249 
156.51 156.613 156.859 157.069 156.7 157.012 157.297 156.314 156.634 
156.901 157.252 157.579 155.865 156.226 156.508 156.863 157.199 157.564 
157.935 155.394 155.754 156.077 156.47 156.843 157.216 157.624 157.977 
158.397 155.123 155.355 155.695 156.057 156.486 156.878 157.314 157.687 
158.12 158.477 158.914 155.145 155.243 155.595 155.814 156.279 156.588 
157.051 157.386 157.793 158.156 158.568 158.969 159.404 155.26 155.338 
155.694 155.852 156.321 156.527 156.999 157.214 157.603 157.849 158.223 
158.58 159.031 159.454 159.914 155.361 155.428 155.736 155.924 156.352 
156.59 157.043 157.245 157.627 157.771 158.11 158.318 158.76 159.117 
159.652 160.026 160.5 155.553 155.542 155.791 155.918 156.276 156.521 
156.93 157.212 157.604 157.816 158.153 158.303 158.683 158.932 159.448 
159.811 160.346 160.66 161.086 157.361 157.623 157.631 157.911 157.925 
157.924 158.212 158.19 158.449 158.271 158.246 158.544 158.511 158.773 
158.733 159.012 158.711 158.628 158.923 158.864 159.157 159.099 159.399 
159.352 159.68 159.254 159.131 159.422 159.296 159.608 159.527 159.869 
159.799 160.13 160.058 160.376 159.806 159.712 160.047 159.88 160.196 
160.049 160.412 160.313 160.668 160.554 160.855 160.749 161.052 160.313 
160.255 160.651 160.538 160.895 160.721 161.077 160.916 161.285 161.135 
161.456 161.289 161.579 161.448 161.758 160.828 160.753 161.151 161.107 
161.526 161.427 161.804 161.628 161.97 161.788 162.115 161.933 162.22 
162.034 162.302 162.157 162.422 161.366 161.268 161.634 161.591 162.037 
162.016 162.446 162.333 162.666 162.479 162.775 162.594 162.872 162.681 
162.907 162.716 162.918 162.77 162.975 161.763 162.493 162.096 162.065 
163.326 162.917 162.942 162.487 162.501 164.162 163.79 163.865 163.426 
163.439 162.969 162.935 165.042 164.648 164.751 164.341 164.367 163.904 
163.823 163.324 163.168 166.113 165.638 165.768 165.276 165.345 164.846 
164.795 164.234 164.053 163.486 163.281 167.178 166.771 166.886 166.358 
166.375 165.853 165.812 165.252 165.067 164.429 164.158 163.577 163.35 
167.904 167.701 167.769 167.361 167.214 166.755 166.57 166.149 165.905 
165.383 165.01 164.423 164.063 163.571 163.32 168.277 168.242 168.333 
168.062 167.853 167.413 167.084 166.7 166.402 166.028 165.651 165.154 
164.721 164.217 163.887 163.482 163.272 168.419 168.5 168.663 168.531 
168.409 168.002 167.666 167.189 166.868 166.465 166.162 165.722 165.357 
164.851 164.519 164.058 163.837 163.456 163.307 161.719 161.725 161.957 
162.398 161.577 161.882 162.374 162.658 163.163 161.524 161.744 162.26 
162.585 163.159 163.453 163.988 161.662 161.79 162.287 162.537 163.169 
163.465 164.083 164.312 164.881 161.762 161.936 162.418 162.64 163.268 
163.547 164.205 164.446 165.062 165.269 165.906 161.785 161.995 162.482 
162.731 163.312 163.626 164.254 164.555 165.152 165.419 166.028 166.307 
166.922 161.852 162.047 162.533 162.759 163.281 163.586 164.158 164.512 
165.096 165.435 166.011 166.335 166.887 167.194 167.653 161.879 162.107 
162.559 162.789 163.25 163.517 164.014 164.351 164.91 165.301 165.894 
166.264 166.787 167.085 167.477 167.738 168.024 161.789 162.051 162.449 
162.728 163.132 163.423 163.84 164.163 164.624 165.033 165.57 166.039 
166.545 166.923 167.258 167.514 167.718 167.967 168.139 155.792 156.337 
156.014 156.024 157.01 156.648 156.615 156.314 156.439 157.642 157.339 
157.297 156.936 156.968 156.771 157.017 158.198 157.949 157.962 157.613 
157.616 157.332 157.524 157.406 157.71 158.767 158.519 158.591 158.282 
158.357 158.039 158.234 158.003 158.293 158.119 158.349 159.37 159.116 
159.216 158.938 159.099 158.827 159.089 158.813 159.09 158.801 159.023 
158.746 158.929 160.017 159.755 159.896 159.61 159.815 159.582 159.904 
159.684 159.971 159.654 159.837 159.496 159.698 159.409 159.679 160.714 
160.46 160.661 160.358 160.57 160.313 160.616 160.44 160.729 160.48 
160.627 160.301 160.459 160.197 160.479 160.251 160.555 161.376 161.177 
161.418 161.155 161.36 161.079 161.307 161.102 161.347 161.149 161.29 
161.016 161.122 160.891 161.126 160.976 161.27 161.077 161.294 155.816 
155.991 156.035 156.333 156.044 156.168 156.47 156.591 156.957 156.054 
156.193 156.504 156.658 156.995 157.174 157.53 156.196 156.269 156.611 
156.706 157.025 157.161 157.505 157.696 158.056 156.49 156.492 156.837 
156.882 157.217 157.265 157.604 157.709 158.105 158.261 158.651 156.872 
156.824 157.124 157.136 157.47 157.507 157.865 157.915 158.312 158.397 
158.809 158.906 159.276 157.23 157.197 157.479 157.454 157.769 157.774 
158.142 158.197 158.606 158.671 159.065 159.118 159.479 159.541 159.896 
157.466 157.497 157.801 157.816 158.145 158.123 158.474 158.488 158.893 
158.957 159.359 159.402 159.751 159.776 160.118 160.178 160.552 157.663 
157.699 158.026 158.097 158.463 158.495 158.845 158.845 159.202 159.236 
159.613 159.672 160.027 160.062 160.391 160.422 160.766 160.836 161.197 
157.926 158.589 158.237 158.3 159.366 158.962 158.972 158.662 158.753 
160.081 159.718 159.699 159.356 159.409 159.116 159.175 160.752 160.408 
160.42 160.073 160.106 159.784 159.826 159.51 159.536 161.511 161.128 
161.168 160.804 160.838 160.486 160.494 160.156 160.166 159.863 159.905 
162.296 161.918 161.924 161.558 161.573 161.218 161.201 160.83 160.81 
160.484 160.528 160.252 160.314 162.977 162.651 162.614 162.265 162.237 
161.912 161.897 161.542 161.522 161.16 161.2 160.893 160.977 160.674 
160.715 163.556 163.279 163.241 162.902 162.834 162.518 162.496 162.201 
162.207 161.882 161.914 161.594 161.663 161.354 161.406 161.071 161.09 
164.063 163.83 163.8 163.489 163.386 163.07 163.007 162.749 162.765 
162.518 162.559 162.28 162.322 162.026 162.062 161.752 161.779 161.453 
161.489 164.333 164.52 164.321 164.022 164.51 164.381 164.071 163.912 
163.587 164.561 164.373 164.12 163.947 163.698 163.497 163.233 164.906 
164.604 164.45 164.155 164 163.717 163.533 163.25 163.041 165.466 
165.114 165.004 164.643 164.504 164.157 163.99 163.649 163.442 163.116 
162.881 166.149 165.759 165.643 165.24 165.051 164.676 164.466 164.126 
163.889 163.546 163.272 162.935 162.655 166.901 166.496 166.412 165.95 
165.76 165.264 165.015 164.591 164.346 163.983 163.701 163.334 163.019 
162.678 162.381 167.556 167.212 167.147 166.752 166.606 166.076 165.792 
165.226 164.917 164.461 164.173 163.776 163.457 163.067 162.744 162.4 
162.108 168.017 167.748 167.621 167.364 167.205 166.841 166.516 165.996 
165.555 165.042 164.647 164.234 163.888 163.508 163.168 162.795 162.479 
162.137 161.844 164.508 164.903 164.765 164.789 165.304 165.191 165.25 
164.986 164.847 165.536 165.529 165.605 165.438 165.315 164.987 164.839 
165.519 165.606 165.653 165.66 165.561 165.383 165.225 165.009 165.033 
165.533 165.563 165.623 165.626 165.573 165.502 165.393 165.294 165.331 
165.287 165.511 165.819 165.757 165.934 165.769 165.804 165.604 165.59 
165.45 165.57 165.551 165.855 165.86 166.205 166.15 166.146 166.359 
166.21 166.266 166.025 166.048 165.813 165.967 165.865 166.232 166.242 
166.679 166.637 166.986 166.163 166.309 166.359 166.413 166.336 166.339 
166.303 166.254 166.339 166.287 166.578 166.625 167.082 167.127 167.534 
167.436 167.695 165.823 166.05 165.928 166.09 165.881 166.073 165.989 
166.217 166.271 166.443 166.617 166.804 167.178 167.409 167.856 167.936 
168.233 168.089 168.22 164.312 164.05 164.338 164.672 163.817 164.094 
164.437 164.727 165.07 163.525 163.87 164.23 164.52 164.868 165.127 
165.368 163.045 163.49 163.86 164.257 164.62 164.941 165.199 165.367 
165.448 162.515 162.955 163.292 163.752 164.127 164.598 164.925 165.205 
165.304 165.378 165.419 162.025 162.447 162.767 163.171 163.516 164.012 
164.41 164.853 165.028 165.199 165.191 165.337 165.514 161.511 161.948 
162.292 162.689 162.999 163.422 163.799 164.292 164.562 164.855 164.85 
165.015 165.095 165.448 165.757 161.056 161.441 161.802 162.215 162.533 
162.92 163.227 163.683 163.988 164.374 164.464 164.647 164.66 164.943 
165.177 165.639 165.886 160.735 161.043 161.395 161.769 162.12 162.47 
162.751 163.121 163.403 163.814 164.023 164.288 164.345 164.535 164.658 
165.018 165.238 165.644 165.695 160.67 160.779 160.929 161.346 160.848 
161.064 161.534 161.666 162.066 160.798 161.088 161.583 161.813 162.211 
162.331 162.666 160.719 160.995 161.472 161.771 162.194 162.404 162.748 
162.889 163.256 160.729 160.951 161.405 161.651 162.084 162.329 162.726 
162.934 163.321 163.502 163.858 160.706 160.965 161.406 161.624 162.008 
162.224 162.606 162.863 163.267 163.517 163.862 164.023 164.246 160.563 
160.869 161.291 161.568 161.903 162.126 162.43 162.695 163.061 163.376 
163.731 163.967 164.222 164.339 164.562 160.432 160.696 161.103 161.391 
161.739 161.974 162.274 162.507 162.862 163.151 163.523 163.788 164.077 
164.275 164.533 164.703 165.019 160.377 160.587 160.972 161.224 161.601 
161.829 162.18 162.391 162.783 163.021 163.426 163.638 163.938 164.112 
164.339 164.562 164.818 165.104 165.374 160.465 160.753 160.757 161.054 
161.032 161.051 161.384 161.384 161.68 161.351 161.344 161.688 161.709 
162.05 162.02 162.293 161.75 161.703 162.022 162.013 162.374 162.39 
162.747 162.679 162.959 162.163 162.129 162.436 162.376 162.689 162.696 
163.082 163.116 163.465 163.375 163.604 162.479 162.504 162.833 162.799 
163.096 163.046 163.395 163.423 163.792 163.799 164.027 163.922 164.043 
162.721 162.772 163.12 163.156 163.512 163.485 163.86 163.819 164.205 
164.149 164.403 164.274 164.379 164.254 164.376 162.971 163.011 163.372 
163.43 163.815 163.859 164.254 164.281 164.693 164.657 164.951 164.752 
164.847 164.604 164.697 164.595 164.813 163.224 163.271 163.639 163.7 
164.051 164.107 164.395 164.498 164.807 164.975 165.272 165.283 165.365 
165.128 165.094 164.906 165.036 165.045 165.319 165.553 165.181 165.424 
165.572 165.22 165.177 165.231 165.383 165.53 165.489 165.378 165.36 
165.257 165.339 165.461 165.729 165.307 165.441 165.337 165.367 165.342 
165.418 165.623 165.812 166.126 164.794 164.998 164.843 165.049 165.015 
165.278 165.477 165.745 166.088 166.28 166.599 164.508 164.598 164.578 
164.62 164.745 164.935 165.344 165.622 166.163 166.361 166.875 166.922 
167.313 164.312 164.481 164.657 164.665 164.944 164.982 165.524 165.696 
166.399 166.588 167.263 167.353 167.893 167.807 168.119 163.923 164.244 
164.488 164.733 165.035 165.238 165.682 165.93 166.487 166.783 167.359 
167.65 168.157 168.31 168.61 168.505 168.539 163.466 163.796 164.018 
164.389 164.669 165.07 165.425 165.834 166.206 166.611 166.97 167.421 
167.796 168.241 168.518 168.734 168.758 168.668 168.493 154.276 154.756 
154.451 154.403 155.428 155.061 155.085 154.733 154.86 156.273 155.886 
156.012 155.578 155.739 155.373 155.671 157.089 156.774 156.896 156.521 
156.66 156.312 156.574 156.299 156.651 157.74 157.512 157.589 157.287 
157.336 157.083 157.283 157.122 157.429 157.232 157.499 158.331 158.115 
158.226 157.928 157.975 157.684 157.858 157.71 158.034 157.914 158.195 
157.976 158.198 158.935 158.715 158.875 158.602 158.74 158.41 158.614 
158.353 158.686 158.516 158.848 158.648 158.902 158.672 158.944 159.509 
159.308 159.483 159.27 159.482 159.225 159.466 159.185 159.47 159.232 
159.543 159.329 159.601 159.374 159.627 159.427 159.696 160.033 159.858 
160.046 159.872 160.124 159.947 160.223 159.999 160.245 159.998 160.249 
160.032 160.305 160.087 160.341 160.107 160.329 160.118 160.31 154.018 
154.2 153.99 153.913 154.666 154.335 154.392 154.18 154.366 155.442 
154.95 154.984 154.757 155.024 154.845 155.08 156.406 155.825 155.713 
155.365 155.476 155.362 155.514 155.411 155.487 157.259 156.748 156.565 
156.111 156.043 155.757 155.751 155.623 155.65 155.617 155.73 157.99 
157.529 157.38 156.928 156.865 156.434 156.41 156.014 156.045 155.809 
155.997 155.951 156.246 158.805 158.325 158.233 157.75 157.722 157.29 
157.328 156.88 156.941 156.503 156.668 156.398 156.685 156.578 156.842 
159.599 159.191 159.139 158.661 158.598 158.142 158.131 157.75 157.786 
157.426 157.505 157.185 157.339 157.108 157.278 157.118 157.238 160.189 
159.9 159.857 159.504 159.434 159.006 158.934 158.516 158.488 158.14 
158.166 157.891 157.978 157.746 157.857 157.62 157.705 157.484 157.566 
153.966 153.747 153.772 153.824 154.061 153.709 153.583 153.674 153.84 
154.739 154.199 153.868 153.605 153.638 153.782 153.943 155.289 154.872 
154.501 154.037 153.882 153.746 153.819 153.872 153.838 155.705 155.393 
155.17 154.695 154.472 154.122 154.087 153.92 153.893 153.757 153.689 
156.259 155.938 155.862 155.406 155.225 154.767 154.668 154.338 154.335 
154.057 154.104 153.871 154.044 156.8 156.549 156.505 156.139 155.988 
155.531 155.378 154.973 154.934 154.626 154.725 154.481 154.701 154.497 
154.769 157.147 156.985 156.937 156.708 156.586 156.232 156.061 155.663 
155.56 155.235 155.286 155.084 155.274 155.135 155.342 155.179 155.31 
157.449 157.276 157.256 157.08 157.023 156.758 156.64 156.296 156.195 
155.856 155.855 155.61 155.735 155.601 155.771 155.65 155.747 155.57 
155.595 164.038 163.541 163.789 163.775 162.983 163.27 163.246 163.504 
163.502 162.28 162.64 162.573 162.891 162.812 163.164 163.135 161.455 
161.845 161.734 162.101 161.952 162.344 162.25 162.689 162.635 160.708 
161.028 160.925 161.242 161.121 161.464 161.386 161.78 161.753 162.169 
162.138 160.077 160.36 160.271 160.517 160.428 160.715 160.704 161.032 
161.044 161.371 161.349 161.701 161.656 159.362 159.711 159.604 159.882 
159.722 160.021 159.952 160.347 160.352 160.72 160.67 160.972 160.882 
161.214 161.147 158.552 158.921 158.813 159.147 158.954 159.251 159.074 
159.475 159.412 159.894 159.853 160.261 160.181 160.501 160.437 160.751 
160.73 157.866 158.14 158.061 158.364 158.245 158.501 158.346 158.622 
158.529 158.918 158.903 159.356 159.359 159.777 159.78 160.121 160.128 
160.423 160.442 
POINT_DATA 1002
SCALARS Distance double
LOOKUP_TABLE default
160.468 160.193 159.872 160.109 159.517 160.725 159.784 159.15 160.385 
161.012 159.464 158.792 160.138 160.736 161.381 159.045 158.402 159.82 
160.485 161.09 161.802 158.578 157.986 159.332 160.095 160.722 161.425 
162.171 158.22 157.633 158.882 159.64 160.325 161.018 161.787 162.441 
157.973 157.387 158.575 159.265 159.981 160.671 161.423 162.123 162.677 
157.781 157.226 158.342 158.942 159.639 160.337 161.037 161.767 162.399 
162.928 157.636 157.113 158.177 158.698 159.312 160.01 160.674 161.355 
162.057 162.657 163.167 159.703 159.35 159.158 158.692 158.545 158.917 
157.973 157.95 158.187 158.524 157.355 157.373 157.496 157.872 158.217 
156.733 156.628 156.954 157.287 157.602 157.816 155.974 155.762 156.383 
156.778 156.943 157.069 157.313 155.331 155.055 155.77 156.218 156.332 
156.305 156.527 156.946 154.927 154.553 155.312 155.616 155.694 155.662 
155.867 156.311 156.783 154.57 154.137 154.981 155.139 155.054 155.007 
155.281 155.803 156.3 156.709 153.983 154.511 153.939 154.467 154.052 
154.815 154.369 154.016 154.551 154.663 153.997 153.66 154.295 154.277 
154.442 153.65 153.633 154.064 154.245 154.268 154.668 153.945 154.294 
154.091 154.389 154.486 154.751 155.304 154.623 155.021 154.464 154.558 
154.679 154.917 155.42 155.932 155.08 155.385 154.868 154.767 154.767 
154.978 155.451 155.974 156.374 155.333 155.601 155.182 155.065 154.955 
155.058 155.474 155.983 156.401 156.757 157.336 156.943 157.612 156.558 
157.202 157.925 156.138 156.83 157.565 158.315 155.652 156.445 157.255 
158.053 158.824 155.359 156.078 156.937 157.754 158.555 159.364 155.418 
156.009 156.751 157.468 158.16 158.99 159.858 155.534 156.132 156.823 
157.425 157.919 158.59 159.515 160.37 155.57 156.107 156.817 157.489 
157.969 158.444 159.246 160.195 160.934 155.726 156.08 156.642 157.332 
157.993 158.498 159.107 159.991 160.851 161.473 157.921 158.24 158.474 
158.575 158.819 159.026 158.996 159.2 159.453 159.719 159.576 159.695 
159.93 160.226 160.445 160.196 160.372 160.523 160.785 160.993 161.128 
160.711 161.046 161.269 161.442 161.63 161.747 161.862 161.18 161.563 
161.968 162.175 162.294 162.423 162.493 162.554 161.69 162.032 162.517 
162.855 162.968 163.066 163.129 163.103 163.101 162.126 162.473 162.882 
163.397 163.701 162.956 164.275 164.512 163.925 163.435 165.157 165.459 
164.823 164.353 163.682 166.298 166.583 165.848 165.364 164.669 163.811 
167.431 167.522 166.929 166.349 165.725 164.808 163.857 168.152 168.039 
167.725 166.989 166.373 165.618 164.605 163.73 168.536 168.257 168.31 
167.527 166.74 166.094 165.241 164.317 163.616 168.708 168.295 168.748 
168.171 167.303 166.563 165.832 164.998 164.245 163.654 161.56 162.187 
161.43 162.03 161.271 162.907 161.93 161.371 162.819 163.751 162.069 
161.545 162.863 163.826 164.674 162.195 161.547 162.99 163.953 164.838 
165.677 162.244 161.564 163.009 163.937 164.873 165.744 166.663 162.334 
161.657 163.023 163.813 164.727 165.688 166.6 167.399 162.331 161.649 
163.012 163.716 164.513 165.491 166.505 167.257 167.777 162.174 161.545 
162.841 163.544 164.262 165.097 166.122 167.008 167.509 167.867 156.05 
156.269 156.693 156.984 157.355 156.595 157.679 157.893 157.23 157.079 
158.277 158.424 157.932 157.687 157.807 158.858 159.02 158.639 158.5 
158.515 158.558 159.473 159.619 159.317 159.343 159.426 159.331 159.181 
160.176 160.259 160.04 160.088 160.283 160.206 159.975 159.94 160.948 
160.937 160.86 160.812 160.95 160.954 160.724 160.678 160.822 155.8 
156.257 155.917 156.331 155.887 156.824 156.364 155.911 156.82 157.344 
156.533 156.143 156.936 157.321 157.852 156.801 156.528 157.178 157.538 
157.955 158.509 157.144 156.944 157.43 157.805 158.254 158.728 159.192 
157.505 157.242 157.79 158.089 158.533 159.034 159.435 159.813 157.744 
157.412 158.153 158.492 158.842 159.306 159.74 160.08 160.463 157.942 