# vtk DataFile Version 4.0
vtk output
ASCII
DATASET POLYDATA
POINTS 1002 float
-118.539 -98.9561 45.9579 -118.614 -98.3106 45.6357 -118.025 -98.5402 45.703 
-117.826 -99.1626 46.1197 -117.392 -98.7441 45.843 -118.456 -99.4824 46.4837 
-117.171 -99.2725 46.3942 -116.777 -98.8667 46.1088 -117.675 -99.5897 46.7708 
-118.336 -99.731 47.2417 -116.625 -99.1658 46.9196 -116.094 -98.9167 46.4707 
-117.026 -99.6129 47.2137 -117.564 -99.8346 47.6348 -118.148 -99.8118 48.2685 
-116.002 -99.0316 47.5335 -115.295 -99.0292 46.8413 -116.451 -99.5251 47.8508 
-116.909 -100.011 48.1102 -117.492 -100.049 48.7265 -117.98 -99.984 49.4924 
-115.268 -99.2191 47.9686 -114.601 -99.1907 47.3556 -115.777 -99.5843 48.3716 
-116.227 -100.16 48.6072 -116.861 -100.368 49.1468 -117.449 -100.333 49.8938 
-117.876 -100.481 50.4269 -114.607 -99.5266 48.4007 -114.125 -99.2498 48.0624 
-115.113 -99.8261 48.7582 -115.522 -100.252 49.0729 -116.105 -100.519 49.6197 
-116.778 -100.627 50.2944 -117.281 -100.863 50.7177 -117.777 -101.235 50.8783 
-114.003 -99.6228 48.9289 -113.656 -99.2408 48.6482 -114.543 -99.8804 49.3224 
-114.979 -100.193 49.723 -115.396 -100.501 50.2524 -115.986 -100.764 50.8563 
-116.539 -101.14 51.1801 -117.053 -101.557 51.2474 -117.71 -101.85 51.3372 
-113.385 -99.6166 49.3551 -113.129 -99.2374 49.0047 -113.95 -99.8007 49.8987 
-114.522 -100.075 50.4501 -114.896 -100.519 50.9289 -115.337 -100.911 51.4108 
-115.894 -101.306 51.7226 -116.405 -101.752 51.79 -116.991 -102.028 51.8795 
-117.694 -102.088 52.128 -112.882 -99.6181 49.7069 -112.727 -99.1846 49.3636 
-113.352 -99.8425 50.265 -113.994 -100.144 50.8913 -114.47 -100.723 51.3592 
-114.868 -101.213 51.7218 -115.434 -101.436 52.0484 -116.003 -101.72 52.2425 
-116.492 -102.048 52.4083 -117.059 -102.151 52.719 -117.676 -102.064 53.1226 
-118.348 -97.8977 45.3278 -117.795 -98.0408 45.4274 -118.034 -97.6541 44.8129 
-117.482 -97.5617 45.0808 -117.603 -97.5149 44.147 -117.148 -98.1714 45.6405 
-116.997 -97.1648 44.6237 -117.096 -97.2178 43.6316 -116.782 -97.501 45.4987 
-116.363 -98.4395 45.8259 -116.415 -96.8635 44.1227 -116.566 -96.5824 43.4262 
-116.325 -96.9249 45.2589 -115.869 -97.8787 45.6506 -115.402 -98.8542 45.88 
-115.822 -96.5217 43.6906 -116.073 -95.7284 43.405 -115.846 -96.6629 44.7489 
-115.506 -97.2352 45.4908 -114.818 -98.468 45.559 -114.519 -99.0931 46.1722 
-115.318 -95.9013 43.4818 -115.766 -94.8755 43.4798 -115.286 -96.4772 44.1338 
-115.169 -96.7896 45.0999 -114.579 -97.6568 45.5585 -114.11 -98.5737 46.0406 
-114.082 -98.9516 47.0612 -115.043 -95.0067 43.5247 -115.619 -94.0964 43.5507 
-114.796 -95.8781 43.8667 -114.697 -96.4029 44.6868 -114.379 -96.9353 45.5082 
-114.051 -97.6798 46.2449 -113.971 -98.2498 47.1772 -113.876 -98.7195 48.0449 
-114.93 -94.1057 43.6251 -115.405 -93.3601 43.5093 -114.624 -94.9642 43.9959 
-114.402 -95.7404 44.6685 -114.124 -96.3681 45.4716 -113.935 -96.9901 46.3173 
-113.931 -97.537 47.2535 -113.821 -98.0288 48.0697 -113.47 -98.6443 48.5842 
-114.806 -93.3674 43.7175 -115.079 -92.6782 43.4689 -114.651 -94.1674 44.2274 
-114.437 -94.996 44.9022 -114.058 -95.7494 45.5975 -113.758 -96.4333 46.3211 
-113.689 -97.0196 47.1287 -113.598 -97.4792 47.8931 -113.303 -97.9876 48.4558 
-112.949 -98.6173 48.8897 -114.685 -92.5219 43.8124 -114.65 -93.3606 44.3424 
-114.609 -92.6395 44.6244 -114.541 -93.612 45.2203 -114.576 -93.0397 45.5433 
-114.563 -94.2644 45.0243 -114.083 -93.8992 45.9503 -114.316 -93.5207 46.2674 
-114.106 -94.4685 45.7038 -114.142 -95.0787 45.6588 -113.467 -94.0383 46.677 
-114.004 -93.9226 47.0527 -113.211 -94.5016 46.2621 -113.395 -95.143 46.1819 
-113.617 -95.8053 46.2986 -113.229 -94.2648 47.7023 -113.796 -94.2747 48.0503 
-112.651 -94.5378 47.1744 -112.592 -95.1533 46.8418 -112.958 -95.8469 46.9072 
-113.349 -96.499 47.0372 -113.277 -94.7817 48.6956 -113.644 -94.6619 48.9932 
-112.735 -94.933 48.2709 -112.377 -95.3816 47.8106 -112.431 -96.0019 47.6289 
-112.728 -96.5824 47.6518 -113.157 -97.0715 47.7391 -113.311 -95.3849 49.46 
-113.609 -95.0848 49.7939 -112.88 -95.4915 49.142 -112.447 -95.7037 48.7464 
-112.197 -96.2261 48.4022 -112.175 -96.7717 48.2527 -112.414 -97.1658 48.2448 
-112.873 -97.5448 48.336 -113.32 -95.8021 50.2439 -113.679 -95.4524 50.5586 
-112.849 -95.8766 50.0013 -112.355 -95.8496 49.7259 -111.972 -96.2141 49.3314 
-111.817 -96.8754 49.0007 -111.937 -97.3259 48.9042 -112.275 -97.635 48.9252 
-112.655 -98.0888 48.9202 -113.309 -95.9907 51.1013 -113.717 -95.7017 51.2987 
-112.8 -96.0757 50.9623 -112.264 -95.9732 50.8392 -111.802 -96.142 50.5484 
-111.578 -96.8123 50.0991 -111.713 -97.4603 49.814 -112.074 -97.7888 49.7783 
-112.386 -98.1534 49.7157 -112.562 -98.6967 49.526 -112.558 -99.4005 50.0681 
-112.483 -98.9084 50.3738 -112.472 -99.6312 50.8984 -112.357 -98.415 50.6396 
-112.344 -99.2193 51.2412 -112.351 -99.9017 51.7358 -111.988 -98.0975 50.748 
-112.123 -98.8566 51.5231 -112.04 -99.6469 52.0989 -112.349 -100.12 52.7297 
-111.598 -97.6407 50.9722 -111.787 -98.5078 51.8123 -111.764 -99.3476 52.5427 
-111.899 -100.012 53.2521 -112.611 -100.267 53.8807 -111.575 -96.885 51.43 
-111.653 -97.9214 52.2366 -111.695 -98.8096 53.0533 -111.698 -99.6001 53.8835 
-112.129 -100.165 54.5061 -113.052 -100.375 54.8263 -111.915 -96.3547 51.7681 
-111.843 -97.2585 52.5474 -111.874 -98.1392 53.3449 -111.878 -98.8353 54.2704 
-112.067 -99.5925 54.964 -112.712 -100.142 55.2917 -113.656 -100.408 55.5348 
-112.398 -96.2507 51.8525 -112.185 -96.8255 52.6072 -112.12 -97.588 53.3209 
-112.146 -98.1358 54.2333 -112.366 -98.7818 55 -112.832 -99.5578 55.4055 
-113.547 -100.084 55.7819 -114.294 -100.439 56.35 -112.923 -96.1964 51.8901 
-112.619 -96.5417 52.6325 -112.457 -97.1326 53.2919 -112.393 -97.6262 54.1226 
-112.609 -98.1051 54.9236 -113.119 -98.8615 55.3755 -113.692 -99.5847 55.8153 
-114.236 -100.072 56.5281 -114.651 -100.53 57.3566 -113.427 -96.0135 51.9711 
-113.123 -96.2918 52.7043 -112.954 -96.7386 53.3692 -112.837 -97.212 54.1192 
-112.859 -97.6049 54.9552 -113.248 -98.2143 55.5276 -113.796 -98.9949 55.956 
-114.214 -99.5932 56.65 -114.502 -100.05 57.538 -114.685 -100.57 58.3386 
-112.768 -99.8461 50.4708 -112.735 -100.149 51.295 -113.31 -100.237 51.0337 
-112.818 -100.342 52.2279 -113.335 -100.74 51.7955 -113.931 -100.891 51.5447 
-113.145 -100.325 53.334 -113.545 -100.822 52.7802 -113.941 -101.441 52.2248 
-114.416 -101.533 51.8923 -113.597 -100.398 54.3133 -113.929 -100.677 53.8242 
-114.13 -101.293 53.2236 -114.519 -101.673 52.5924 -115.02 -101.616 52.2348 
-114.059 -100.592 55.1378 -114.316 -100.858 54.6839 -114.404 -101.258 54.2331 
-114.701 -101.463 53.6361 -115.258 -101.457 53.0078 -115.726 -101.565 52.5791 
-114.528 -100.738 56.1775 -114.664 -101.106 55.8017 -114.699 -101.58 55.3347 
-114.895 -101.797 54.8082 -115.369 -101.613 54.1557 -115.899 -101.57 53.474 
-116.251 -101.847 52.9116 -114.813 -100.941 57.3953 -114.875 -101.305 57.2554 
-114.922 -101.737 56.8461 -115.133 -102.135 56.2371 -115.499 -102.131 55.5691 
-115.931 -101.9 54.8313 -116.364 -101.917 54.0629 -116.726 -102.09 53.3689 
-114.824 -101.158 58.4731 -114.887 -101.626 58.5203 -114.971 -101.935 58.3038 
-115.263 -102.201 57.7219 -115.693 -102.316 57.0144 -116.089 -102.159 56.3485 
-116.487 -102.003 55.5897 -116.909 -102.013 54.7411 -117.297 -102.052 53.9164 
-114.719 -100.916 59.2804 -114.834 -101.689 59.4299 -114.92 -101.196 60.067 
-115.144 -102.079 60.2061 -115.479 -101.361 60.6803 -114.968 -102.236 59.4112 
-115.902 -102.24 60.8286 -116.265 -101.551 61.0432 -115.487 -102.691 59.9987 
-115.275 -102.46 58.9712 -116.773 -102.295 61.2678 -117.101 -101.788 61.088 
-116.359 -102.847 60.4935 -115.935 -102.847 59.2756 -115.789 -102.452 58.2089 
-117.61 -102.327 61.3425 -118.07 -101.853 60.9406 -117.221 -102.754 60.9534 
-116.753 -102.975 59.6293 -116.475 -102.614 58.4617 -116.327 -102.247 57.5594 
-118.676 -102.335 61.0498 -119.174 -101.75 60.7643 -118.188 -102.624 60.9903 
-117.662 -102.872 59.9697 -117.293 -102.774 58.7084 -117.11 -102.279 57.901 
-116.819 -102.022 56.9541 -119.864 -102.375 60.716 -120.117 -101.686 60.5832 
-119.403 -102.665 60.6148 -118.754 -102.753 59.8782 -118.199 -102.826 58.7601 
-117.936 -102.543 57.9627 -117.675 -102.089 57.2541 -117.267 -101.944 56.1074 
-120.661 -102.34 60.4486 -120.629 -101.6 60.2657 -120.438 -102.788 60.2638 
-119.826 -102.823 59.5673 -119.07 -102.762 58.5802 -118.581 -102.649 57.7973 
-118.308 -102.296 57.1907 -117.991 -101.964 56.31 -117.632 -101.922 55.1106 
-120.855 -102.026 59.9493 -120.74 -101.32 59.66 -120.866 -102.642 59.8628 
-120.519 -102.894 59.2737 -119.828 -102.794 58.3994 -119.179 -102.577 57.6291 
-118.765 -102.308 56.9977 -118.466 -102.013 56.2217 -118.217 -101.864 55.2058 
-117.98 -101.925 54.1087 -114.572 -100.116 58.7476 -114.731 -100.299 59.602 
-114.644 -99.6876 58.9056 -115.07 -99.8512 59.5602 -115.052 -99.4681 58.6559 
-115.162 -100.473 60.2391 -115.716 -99.6985 59.1548 -115.593 -99.2174 58.267 
-115.719 -100.077 60.0398 -115.843 -100.718 60.6202 -116.286 -99.401 58.7582 
-115.978 -98.6803 58.0723 -116.424 -99.852 59.6584 -116.462 -100.343 60.2818 
-116.678 -101.062 60.6781 -116.645 -98.8386 58.4633 -116.329 -98.0866 57.8984 
-116.918 -99.3897 59.2689 -117.129 -99.851 59.9522 -117.394 -100.49 60.3284 
-117.711 -101.221 60.6285 -117.054 -98.2676 58.1022 -116.816 -97.6191 57.5529 
-117.272 -98.8445 58.7572 -117.533 -99.2823 59.4629 -117.999 -99.7881 60.0598 
-118.5 -100.391 60.4745 -118.827 -101.054 60.6711 -117.491 -97.6687 57.7488 
-117.276 -97.2014 57.1219 -117.7 -98.2271 58.301 -117.895 -98.7661 58.8442 
-118.271 -99.3286 59.4485 -118.863 -99.8311 60.1171 -119.366 -100.272 60.5325 
-119.724 -100.903 60.5937 -117.78 -97.0918 57.373 -117.587 -96.8328 56.6414 
-118.066 -97.4835 58.0025 -118.381 -98.0104 58.4984 -118.66 -98.7402 58.8648 
-118.979 -99.5073 59.2987 -119.397 -99.9795 59.8274 -119.852 -100.338 60.1413 
-120.28 -100.917 60.2315 -117.988 -96.6791 56.8587 -117.821 -96.5002 56.1528 
-118.298 -96.9246 57.5476 -118.767 -97.2587 58.1788 -119.194 -97.8322 58.5815 
[...]
CELL_DATA 2000
SCALARS Distance double
LOOKUP_TABLE default
159.73 159.423 159.758 160.131 159.113 159.431 159.763 160.128 160.478 
158.789 159.117 159.439 159.767 160.099 160.445 160.752 158.416 158.774 
159.122 159.459 159.819 160.132 160.484 160.759 161.076 158.103 158.426 
158.81 159.147 159.542 159.878 160.281 160.575 160.952 161.178 161.533 
157.938 158.197 158.593 158.883 159.271 159.592 159.992 160.345 160.746 
161.059 161.424 161.671 162.038 157.781 158.043 158.403 158.694 159.057 
159.343 159.705 160.031 160.433 160.794 161.189 161.505 161.863 162.148 
162.52 157.532 157.813 158.129 158.457 158.833 159.142 159.527 159.803 
160.215 160.518 160.959 161.269 161.672 161.951 162.316 162.601 162.956 
157.29 157.536 157.847 158.159 158.575 158.921 159.391 159.688 160.142 
160.393 160.83 161.094 161.509 161.778 162.147 162.408 162.745 163.01 
163.313 159.407 158.868 159.131 159.119 158.289 158.563 158.53 158.823 
158.808 157.615 157.916 157.838 158.178 158.155 158.493 158.47 156.851 
157.187 157.09 157.441 157.408 157.783 157.762 158.111 158.072 156.017 
156.4 156.363 156.716 156.7 157.041 157.02 157.367 157.342 157.698 
157.719 155.206 155.576 155.603 156.007 156.035 156.374 156.346 156.652 
156.643 156.987 157.056 157.432 157.558 154.529 154.816 154.818 155.235 
155.299 155.695 155.698 156.012 156.035 156.361 156.495 156.847 157.021 
157.354 157.473 153.935 154.18 154.152 154.503 154.604 154.982 155.071 
155.392 155.486 155.815 156.002 156.357 156.556 156.867 156.972 157.243 
157.27 153.336 153.602 153.646 153.951 154.132 154.434 154.609 154.869 
155.015 155.311 155.503 155.866 156.043 156.379 156.443 156.724 156.721 
156.996 157.012 153.017 153.022 153.131 153.494 153.375 153.341 153.696 
153.74 154.073 153.658 153.628 153.817 153.919 154.161 154.271 154.506 
153.795 153.699 153.627 153.774 153.882 154.167 154.38 154.608 154.857 
154.092 153.824 153.631 153.529 153.56 153.765 154.044 154.373 154.725 
154.982 155.332 154.573 154.258 154.156 153.798 153.83 153.694 153.988 
154.132 154.542 154.806 155.191 155.46 155.809 155.086 154.828 154.827 
154.471 154.464 154.182 154.331 154.273 154.556 154.681 154.981 155.226 
155.53 155.844 156.142 155.591 155.371 155.371 155.085 154.977 154.713 
154.662 154.563 154.68 154.731 154.949 155.074 155.347 155.557 155.876 
156.147 156.445 156.032 155.843 155.802 155.55 155.395 155.109 154.971 
154.789 154.841 154.831 155.079 155.145 155.478 155.555 155.919 156.03 
156.382 156.527 156.819 157.012 156.665 157.003 157.322 156.282 156.675 
157.05 157.358 157.681 155.846 156.285 156.706 157.077 157.417 157.712 
158.064 155.395 155.829 156.28 156.717 157.121 157.449 157.828 158.148 
158.609 155.11 155.417 155.898 156.327 156.821 157.178 157.615 157.937 
158.413 158.766 159.289 155.19 155.278 155.737 156.05 156.593 156.936 
157.406 157.729 158.196 158.559 159.069 159.447 159.972 155.564 155.498 
155.848 156 156.476 156.755 157.198 157.506 157.943 158.31 158.814 
159.211 159.753 160.137 160.692 155.965 155.882 156.118 156.15 156.505 
156.679 157.063 157.303 157.707 158.039 158.549 158.957 159.528 159.928 
160.493 160.873 161.407 156.239 156.213 156.406 156.394 156.677 156.756 
157.112 157.246 157.628 157.849 158.333 158.701 159.283 159.702 160.258 
160.65 161.137 161.514 161.935 157.3 157.596 157.564 157.866 157.974 
157.925 158.264 158.237 158.634 158.407 158.348 158.762 158.727 159.192 
159.126 159.537 158.976 158.858 159.291 159.255 159.749 159.721 160.152 
160.034 160.342 159.66 159.504 159.893 159.799 160.22 160.207 160.594 
160.568 160.86 160.753 160.99 160.364 160.209 160.59 160.43 160.79 
160.674 160.999 160.932 161.208 161.163 161.425 161.359 161.614 161.103 
160.94 161.352 161.157 161.534 161.328 161.673 161.459 161.752 161.568 
161.855 161.758 162.064 161.987 162.25 161.822 161.699 162.12 161.934 
162.31 162.105 162.478 162.253 162.581 162.294 162.562 162.307 162.595 
162.449 162.741 162.62 162.854 162.349 162.344 162.762 162.661 163.01 
162.845 163.175 163.014 163.334 163.127 163.369 163.091 163.299 163.058 
163.302 163.132 163.365 163.209 163.403 162.673 163.291 163.069 163.163 
163.976 163.741 163.887 163.532 163.48 164.766 164.511 164.704 164.315 
164.275 163.796 163.657 165.55 165.331 165.551 165.179 165.124 164.61 
164.418 163.944 163.782 166.233 166.059 166.268 165.979 165.916 165.433 
165.17 164.669 164.435 164.022 163.816 166.889 166.709 166.899 166.632 
166.589 166.162 165.915 165.405 165.142 164.673 164.457 164.013 163.774 
167.544 167.391 167.612 167.301 167.263 166.819 166.597 166.12 165.881 
165.413 165.193 164.706 164.468 163.98 163.75 167.949 167.977 168.238 
168.025 167.97 167.52 167.22 166.742 166.437 166.053 165.789 165.397 
165.102 164.66 164.373 163.951 163.736 167.838 168.117 168.336 168.428 
168.367 168.123 167.761 167.31 166.881 166.487 166.14 165.826 165.488 
165.156 164.822 164.481 164.225 163.903 163.726 162.433 162.226 162.541 
163.003 162.179 162.387 162.831 163.132 163.655 162.302 162.463 162.911 
163.07 163.556 163.84 164.416 162.318 162.591 163.083 163.241 163.684 
163.84 164.343 164.635 165.204 162.156 162.514 163.022 163.318 163.752 
163.959 164.398 164.625 165.139 165.426 165.945 162.021 162.333 162.812 
163.144 163.564 163.876 164.307 164.622 165.118 165.408 165.901 166.151 
166.62 161.922 162.197 162.619 162.921 163.31 163.62 164.037 164.413 
164.917 165.308 165.787 166.091 166.498 166.777 167.2 161.754 162.027 
162.377 162.693 163.063 163.377 163.776 164.126 164.587 165.003 165.447 
165.84 166.18 166.534 166.845 167.231 167.547 161.542 161.791 162.087 
162.399 162.765 163.112 163.521 163.871 164.276 164.643 164.998 165.387 
165.663 166.063 166.294 166.722 166.934 167.373 167.495 156.404 156.764 
156.599 156.627 157.209 157.021 157.101 156.873 156.935 157.678 157.51 
157.653 157.433 157.548 157.279 157.377 158.115 157.984 158.171 158.008 
158.177 157.938 158.045 157.753 157.87 158.615 158.458 158.691 158.535 
158.753 158.557 158.714 158.441 158.585 158.305 158.547 159.299 159.065 
159.339 159.123 159.382 159.168 159.397 159.139 159.361 159.079 159.371 
159.118 159.486 160.095 159.834 160.096 159.836 160.085 159.847 160.109 
159.874 160.154 159.899 160.208 159.961 160.31 160.088 160.44 160.788 
160.598 160.835 160.595 160.812 160.562 160.811 160.596 160.904 160.698 
161.01 160.776 161.06 160.842 161.133 160.954 161.259 161.261 161.174 
161.418 161.269 161.5 161.283 161.528 161.306 161.622 161.435 161.774 
161.554 161.808 161.548 161.758 161.561 161.821 161.699 161.997 156.264 
156.002 156.307 156.612 155.68 156.005 156.395 156.697 157.037 155.57 
155.747 156.137 156.46 156.885 157.159 157.499 155.733 155.767 156.088 
156.282 156.724 157.004 157.396 157.616 157.926 155.901 155.965 156.262 
156.351 156.737 156.916 157.306 157.507 157.834 158.032 158.379 155.948 
156.082 156.428 156.543 156.912 157.017 157.366 157.476 157.799 157.956 
158.337 158.561 159.032 156.065 156.162 156.559 156.69 157.103 157.209 
157.568 157.62 157.94 158.009 158.407 158.578 159.094 159.323 159.852 
156.342 156.38 156.797 156.879 157.312 157.405 157.79 157.847 158.181 
158.223 158.598 158.713 159.195 159.405 159.92 160.137 160.571 156.681 
156.706 157.117 157.17 157.577 157.638 158.003 158.063 158.396 158.457 
158.795 158.894 159.286 159.471 159.906 160.144 160.536 160.745 161.05 
156.999 157.642 157.355 157.447 158.335 158.019 158.092 157.808 157.884 
159.086 158.736 158.778 158.45 158.494 158.212 158.271 159.838 159.5 
159.551 159.179 159.209 158.852 158.894 158.594 158.659 160.544 160.23 
160.308 159.968 160.022 159.636 159.665 159.28 159.319 158.998 159.072 
161.297 160.948 161.023 160.696 160.769 160.435 160.466 160.083 160.071 
159.693 159.725 159.425 159.54 162.091 161.742 161.81 161.439 161.489 
161.144 161.178 160.834 160.826 160.447 160.443 160.1 160.195 159.935 
160.115 162.742 162.488 162.563 162.235 162.261 161.885 161.882 161.52 
161.525 161.176 161.202 160.849 160.925 160.615 160.765 160.525 160.708 
163.214 163.036 163.11 162.891 162.92 162.618 162.584 162.223 162.187 
161.852 161.892 161.592 161.686 161.372 161.477 161.18 161.301 161.069 
161.202 163.501 163.934 163.588 163.375 164.353 163.995 163.704 163.43 
163.193 164.593 164.324 163.989 163.728 163.458 163.197 162.889 164.688 
164.486 164.212 163.984 163.721 163.456 163.151 162.844 162.503 164.923 
164.662 164.483 164.234 164.041 163.756 163.494 163.153 162.858 162.514 
162.239 165.382 165.065 164.927 164.605 164.453 164.138 163.943 163.585 
163.351 162.964 162.731 162.349 162.096 165.915 165.615 165.504 165.132 
164.96 164.602 164.438 164.094 163.915 163.53 163.298 162.886 162.605 
162.197 161.891 166.496 166.189 166.113 165.727 165.535 165.139 164.953 
164.608 164.44 164.091 163.846 163.438 163.099 162.678 162.326 161.947 
161.654 167.152 166.808 166.712 166.324 166.118 165.715 165.492 165.125 
164.908 164.567 164.291 163.919 163.554 163.142 162.761 162.366 162.058 
161.725 161.504 163.656 164.098 163.983 164.174 164.47 164.446 164.731 
164.574 164.693 164.701 164.717 165.009 165.047 165.217 165.02 164.949 
165.068 164.92 165.033 165.106 165.27 165.344 165.322 165.125 164.97 
165.557 165.35 165.268 165.098 165.132 165.231 165.373 165.391 165.383 
165.159 165.138 165.608 165.681 165.613 165.407 165.352 165.247 165.513 
165.54 165.81 165.635 165.701 165.429 165.53 165.178 165.458 165.553 
165.635 165.715 165.639 165.945 165.924 166.318 166.176 166.285 165.985 
165.98 165.797 165.949 164.856 165.021 165.232 165.484 165.783 165.932 
166.253 166.343 166.629 166.626 166.651 166.452 166.308 166.136 166.196 
166.193 166.465 164.868 164.865 165.067 165.27 165.641 165.902 166.185 
166.387 166.477 166.629 166.535 166.561 166.382 166.329 166.36 166.401 
166.732 166.801 167.176 163.445 163.213 163.495 163.821 162.919 163.252 
163.582 163.871 164.172 162.51 162.918 163.307 163.639 163.954 164.199 
164.481 162.035 162.46 162.867 163.305 163.67 163.988 164.309 164.558 
164.925 161.588 161.983 162.337 162.795 163.161 163.597 163.902 164.296 
164.651 165.032 165.381 161.124 161.533 161.859 162.27 162.617 163.05 
163.365 163.781 164.07 164.546 164.839 165.293 165.395 160.617 161.043 
161.381 161.789 162.15 162.568 162.972 163.336 163.685 164.004 164.295 
164.654 164.821 165.109 165.041 160.183 160.561 160.908 161.302 161.683 
162.123 162.595 163.026 163.468 163.763 164.086 164.3 164.551 164.712 
164.826 164.866 164.839 159.857 160.185 160.532 160.877 161.255 161.666 
162.125 162.614 163.052 163.475 163.75 164.066 164.275 164.546 164.754 
164.872 164.973 164.9 164.921 159.803 159.967 160.088 160.49 160.144 
160.271 160.699 160.796 161.216 160.266 160.414 160.826 160.984 161.438 
161.573 162.071 160.262 160.451 160.802 161.029 161.475 161.727 162.221 
162.431 162.924 160.092 160.351 160.703 160.965 161.431 161.715 162.179 
162.434 162.844 163.125 163.528 159.826 160.123 160.559 160.88 161.471 
161.76 162.296 162.431 162.779 162.938 163.332 163.642 164.073 159.659 
159.901 160.377 160.738 161.41 161.822 162.473 162.657 163.019 163.007 
163.34 163.507 164.035 164.291 164.7 159.691 159.847 160.303 160.591 
161.189 161.648 162.264 162.677 163.053 163.21 163.446 163.588 164.018 
164.297 164.757 164.904 165.059 159.818 159.951 160.388 160.583 161.073 
161.391 161.863 162.278 162.617 162.979 163.191 163.501 163.796 164.17 
164.545 164.853 165.033 165.092 165.027 160.004 160.473 160.374 160.624 
160.853 160.845 161.147 161.025 161.279 161.086 161.154 161.48 161.481 
161.71 161.629 161.895 161.325 161.342 161.656 161.727 161.984 161.966 
162.156 162.167 162.473 161.748 161.642 161.922 161.919 162.248 162.242 
162.501 162.434 162.697 162.725 163.082 162.314 162.163 162.445 162.311 
162.649 162.588 162.947 162.866 163.172 163.071 163.415 163.398 163.802 
162.866 162.77 163.118 162.944 163.25 163.089 163.4 163.319 163.615 
163.549 163.819 163.786 164.122 164.154 164.523 163.3 163.29 163.68 
163.603 163.913 163.733 163.946 163.774 163.959 163.881 164.064 164.068 
164.279 164.365 164.617 164.743 164.945 163.602 163.642 163.993 164.04 
164.36 164.31 164.515 164.331 164.43 164.229 164.329 164.242 164.41 
164.444 164.646 164.733 164.873 164.96 164.983 164.921 164.966 164.991 
165.141 164.851 165.031 165.301 165.385 165.683 164.62 164.859 165.127 
165.389 165.647 165.857 166.098 164.576 164.698 164.937 165.127 165.298 
165.557 165.693 166.025 166.202 164.765 164.812 165.13 165.133 165.354 
165.33 165.458 165.563 165.729 166.037 166.218 164.828 164.98 165.306 
165.409 165.726 165.668 165.902 165.716 165.935 165.843 166.088 166.155 
166.294 164.586 164.85 165.051 165.355 165.625 165.892 166.18 166.248 
166.524 166.396 166.694 166.477 166.727 166.477 166.597 164.205 164.479 
164.627 164.936 165.156 165.541 165.837 166.209 166.53 166.777 167.136 
167.18 167.526 167.29 167.507 167.065 167.159 163.849 164.103 164.301 
164.552 164.818 165.114 165.45 165.788 166.141 166.51 166.904 167.283 
167.711 167.91 168.205 168.038 168.108 167.673 167.621 153.378 154.069 
153.778 153.868 154.642 154.427 154.537 154.269 154.302 155.245 154.968 
155.034 154.819 154.846 154.596 154.631 156.073 155.67 155.707 155.348 
155.375 155.088 155.168 154.961 155.177 156.982 156.587 156.657 156.18 
156.2 155.754 155.859 155.561 155.831 155.655 156.01 157.757 157.46 
157.572 157.165 157.216 156.729 156.84 156.416 156.69 156.403 156.773 
156.555 156.907 158.385 158.153 158.278 157.994 158.129 157.758 157.961 
157.531 157.832 157.415 157.77 157.415 157.759 157.468 157.789 158.928 
158.718 158.832 158.623 158.804 158.594 158.891 158.63 158.988 158.621 
158.951 158.518 158.809 158.406 158.685 158.36 158.639 159.457 159.24 
159.34 159.142 159.304 159.175 159.455 159.382 159.721 159.589 159.87 
159.6 159.806 159.449 159.639 159.278 159.48 159.165 159.366 153.002 
153.448 152.981 152.625 153.919 153.466 153.062 152.688 152.598 154.371 
153.953 153.629 153.191 153.051 152.834 153.012 155.027 154.55 154.38 
153.876 153.771 153.384 153.479 153.325 153.543 155.865 155.36 155.258 
154.755 154.716 154.235 154.273 153.904 154.036 153.829 154.005 156.724 
156.228 156.093 155.628 155.569 155.16 155.189 154.783 154.855 154.477 
154.619 154.353 154.577 157.602 157.099 156.974 156.464 156.363 155.933 
155.942 155.607 155.708 155.361 155.489 155.125 155.307 155.025 155.268 
158.451 157.986 157.903 157.395 157.311 156.79 156.76 156.343 156.446 
156.145 156.318 156.008 156.161 155.824 155.984 155.71 155.906 159.167 
158.778 158.686 158.276 158.201 157.744 157.688 157.226 157.257 156.894 
157.043 156.767 156.929 156.632 156.744 156.433 156.556 156.303 156.477 
152.768 152.425 152.548 152.688 152.498 152.388 152.521 152.699 153.066 
152.97 152.691 152.75 152.69 152.999 153.198 153.536 153.456 153.196 
153.11 152.943 153.055 153.172 153.515 153.681 153.898 153.863 153.6 
153.426 153.196 153.125 153.151 153.421 153.669 154.028 154.092 154.257 
154.433 154.067 153.947 153.569 153.499 153.285 153.517 153.627 154.061 
154.215 154.491 154.469 154.621 155.129 154.742 154.7 154.271 154.298 
153.904 154.137 153.965 154.371 154.358 154.659 154.638 154.802 154.806 
155.017 155.765 155.43 155.4 155.057 155.109 154.779 154.969 154.721 
154.999 154.821 155.018 154.869 154.993 154.946 155.161 155.227 155.515 
156.351 156.037 156.002 155.7 155.725 155.477 155.603 155.425 155.588 
155.41 155.49 155.276 155.323 155.189 155.371 155.389 155.695 155.756 
156.02 163.176 162.683 162.939 162.926 162.035 162.373 162.334 162.63 
162.585 161.251 161.64 161.619 161.975 161.919 162.232 162.158 160.476 
160.834 160.818 161.213 161.206 161.556 161.501 161.79 161.716 159.747 
160.071 160 160.389 160.378 160.799 160.772 161.123 161.035 161.339 
161.263 158.993 159.316 159.195 159.555 159.474 159.908 159.849 160.291 
160.171 160.564 160.425 160.82 160.737 158.227 158.534 158.399 158.736 
158.618 158.996 158.895 159.314 159.195 159.61 159.464 159.886 159.789 
160.244 160.206 157.512 157.78 157.643 157.955 157.849 158.175 158.06 
158.403 158.292 158.665 158.577 158.961 158.914 159.32 159.33 159.761 
159.794 156.869 157.095 156.955 157.236 157.148 157.449 157.342 157.627 
157.49 157.812 157.728 158.12 158.111 158.521 158.555 158.957 159.014 
159.419 159.481 
POINT_DATA 1002
SCALARS Distance double
LOOKUP_TABLE default
160.11 159.678 159.404 159.76 159.105 160.524 159.428 158.807 160.102 
160.809 159.117 158.445 159.772 160.425 161.024 158.762 158.042 159.488 
160.199 160.831 161.377 158.477 157.793 159.193 159.947 160.698 161.33 
161.895 158.322 157.7 158.982 159.638 160.391 161.151 161.792 162.429 
158.11 157.536 158.779 159.411 160.067 160.843 161.575 162.224 162.906 
157.796 157.266 158.484 159.238 159.933 160.646 161.389 162.054 162.673 
163.292 157.548 157.058 158.199 159.044 159.894 160.6 161.247 161.891 
162.498 163.066 163.582 159.142 158.849 158.615 158.227 158.025 158.515 
157.496 157.326 157.793 158.158 156.741 156.487 157.034 157.4 157.731 
155.973 155.593 156.375 156.691 156.973 157.324 155.162 154.865 155.675 
156.057 156.294 156.665 157.182 154.422 154.303 154.87 155.354 155.687 
156.125 156.698 157.184 153.817 153.686 154.219 154.724 155.139 155.634 
156.249 156.722 157.01 153.303 153.02 153.819 154.36 154.746 155.162 
155.716 156.166 156.441 156.714 152.73 153.361 152.977 153.687 153.462 
154.042 153.738 153.775 154.028 154.414 153.587 154.025 153.558 154.061 
154.665 153.863 154.391 153.446 153.68 154.393 155.119 154.521 154.809 
154.087 153.96 154.326 154.907 155.547 155.155 155.294 154.807 154.5 
154.534 154.811 155.225 155.819 155.666 155.814 155.294 154.833 154.657 
154.851 155.187 155.629 156.183 156.05 156.233 155.691 155.202 154.88 
154.99 155.398 155.849 156.28 156.685 157.294 157.03 157.643 156.717 
157.404 157.998 156.291 157.112 157.737 158.46 155.801 156.751 157.501 
158.249 159.12 155.465 156.43 157.286 158.062 158.93 159.818 155.491 
156.257 157.093 157.843 158.685 159.594 160.506 155.801 156.253 156.918 
157.585 158.404 159.353 160.313 161.256 156.157 156.397 156.866 157.407 
158.13 159.114 160.118 161.05 161.916 156.434 156.629 157.005 157.467 
158.011 158.859 159.876 160.782 161.579 162.313 157.851 158.282 158.661 
158.765 159.24 159.676 159.35 159.761 160.248 160.534 160.042 160.287 
160.615 160.921 161.125 160.768 160.961 161.121 161.261 161.445 161.706 
161.546 161.741 161.902 161.997 161.999 162.123 162.363 162.297 162.517 
162.675 162.861 162.888 162.801 162.863 163.001 162.821 163.171 163.345 
163.509 163.635 163.587 163.513 163.534 163.562 162.888 163.5 163.487 
164.239 164.203 163.925 165.094 165.003 164.781 164.12 165.897 165.751 
165.665 164.93 164.204 166.53 166.418 166.377 165.708 164.875 164.227 
167.179 167.072 166.99 166.404 165.636 164.918 164.226 167.923 167.638 
167.736 167.067 166.324 165.686 164.976 164.205 168.372 167.838 168.419 
167.759 166.839 166.15 165.531 164.801 164.115 168.143 167.533 168.493 
168.191 167.334 166.473 165.797 165.139 164.528 164.034 162.101 162.634 
161.946 162.583 162.009 163.275 162.798 162.099 163.352 164.043 162.878 
161.977 163.574 164.126 164.86 162.687 161.806 163.503 164.179 164.89 
165.667 162.506 161.751 163.243 163.946 164.798 165.668 166.371 162.335 
161.68 163.016 163.672 164.495 165.46 166.234 166.89 162.067 161.517 
162.729 163.446 164.212 165.055 165.827 166.48 167.166 161.791 161.319 
162.403 163.164 163.955 164.662 165.279 165.884 166.521 167.115 156.545 
156.818 156.931 157.315 157.383 157.172 157.834 157.817 157.813 157.662 
158.302 158.226 158.379 158.34 158.133 158.847 158.774 158.927 158.954 
158.851 158.771 159.574 159.55 159.597 159.624 159.616 159.617 159.725 
160.378 160.359 160.338 160.321 160.383 160.466 160.544 160.663 161.058 
160.949 161.07 161.028 161.084 161.246 161.318 161.319 161.418 156.015 
156.361 155.632 156.024 155.386 156.799 155.831 155.497 156.559 157.297 
155.976 155.729 156.459 157.157 157.735 156.194 155.781 156.62 157.133 
157.63 158.137 156.275 155.791 156.817 157.3 157.668 158.102 158.773 
156.423 155.983 156.98 157.513 157.894 158.26 158.862 159.649 156.734 
156.31 157.235 157.723 158.136 158.516 159.018 159.706 160.405 157.075 