# vtk DataFile Version 4.0
vtk output
ASCII
DATASET POLYDATA
POINTS 1002 float
-116.948 -99.691 45.993 -117.034 -99.2939 45.3882 -116.6 -99.2695 45.6851 
-116.54 -99.5572 46.4414 -115.92 -99.3097 46.025 -116.887 -99.9139 46.7676 
-115.886 -99.4843 46.8895 -115.118 -99.4496 46.3387 -116.444 -99.6991 47.3526 
-116.776 -100.113 47.6374 -115.081 -99.5766 47.2598 -114.344 -99.612 46.6988 
-115.772 -99.6588 47.7949 -116.234 -100.026 48.1901 -116.629 -100.388 48.6282 
-114.232 -99.6864 47.751 -113.543 -99.6581 47.2052 -114.951 -99.7821 48.1989 
-115.559 -100.115 48.5868 -116.046 -100.442 49.1167 -116.569 -100.553 49.8429 
-113.386 -99.7277 48.3217 -112.813 -99.6589 47.7499 -114.099 -99.8519 48.7871 
-114.838 -100.181 49.1244 -115.45 -100.484 49.661 -116.038 -100.586 50.4305 
-116.628 -100.718 51.0593 -112.703 -99.9079 48.6957 -112.308 -99.7583 48.2523 
-113.323 -99.9901 49.2469 -114.157 -100.188 49.7464 -114.888 -100.422 50.3373 
-115.48 -100.563 51.1111 -116.097 -100.791 51.6904 -116.656 -101.224 51.8715 
-112.189 -100.173 49.018 -111.89 -99.8434 48.7743 -112.666 -100.32 49.4789 
-113.481 -100.368 50.1336 -114.341 -100.423 50.8835 -114.937 -100.573 51.6558 
-115.455 -100.901 52.1969 -116.027 -101.384 52.3578 -116.551 -101.827 52.4014 
-111.754 -100.214 49.5091 -111.493 -99.7353 49.3271 -112.112 -100.524 49.869 
-112.797 -100.592 50.522 -113.71 -100.523 51.3579 -114.407 -100.636 52.1028 
-114.849 -101.068 52.5444 -115.317 -101.576 52.6883 -115.875 -101.924 52.8112 
-116.435 -102.07 53.1338 -111.456 -99.9887 50.0916 -111.233 -99.4608 49.8929 
-111.732 -100.418 50.4614 -112.26 -100.603 51.11 -113.103 -100.544 51.9644 
-113.886 -100.602 52.694 -114.354 -101.089 53.041 -114.723 -101.716 53.106 
-115.218 -102.033 53.2275 -115.832 -102.049 53.6228 -116.452 -101.988 54.1949 
-116.903 -98.7401 45.0913 -116.23 -98.8045 45.3503 -116.615 -98.1759 44.8838 
-115.772 -98.3489 45.0875 -116.074 -97.837 44.5614 -115.36 -99.0247 45.6031 
-115.306 -98.0331 44.7841 -115.378 -97.6429 44.0715 -114.929 -98.6283 45.3512 
-114.532 -99.2808 45.8733 -114.823 -97.6429 44.5045 -114.825 -97.152 43.7941 
-114.612 -98.1501 45.2334 -114.075 -98.8634 45.6383 -113.704 -99.4468 46.206 
-114.374 -96.9622 44.431 -114.583 -96.3492 43.9361 -114.165 -97.5696 45.1313 
-113.593 -98.3526 45.5247 -113.032 -99.0688 45.8636 -112.851 -99.4719 46.6821 
-114.109 -96.2603 44.5371 -114.467 -95.6382 44.2053 -113.677 -96.9376 44.9912 
-113.075 -97.8473 45.3476 -112.469 -98.6493 45.6606 -112.236 -99.1022 46.3547 
-112.284 -99.4201 47.358 -113.939 -95.6925 44.7056 -114.224 -95.0529 44.3617 
-113.375 -96.3374 44.9642 -112.708 -97.2164 45.2028 -112.193 -98.0798 45.5872 
-111.964 -98.5541 46.3137 -111.929 -98.9024 47.2586 -111.925 -99.3725 48.1147 
-113.639 -95.0699 44.8551 -113.843 -94.4276 44.4536 -113.143 -95.7071 45.1228 
-112.474 -96.4529 45.2952 -112.014 -97.25 45.6665 -111.885 -97.7863 46.4292 
-111.813 -98.1679 47.3543 -111.648 -98.698 48.1486 -111.519 -99.2807 48.7806 
-113.223 -94.3916 44.9586 -113.481 -93.8347 44.599 -112.824 -95.0351 45.2968 
-112.269 -95.7327 45.5245 -111.797 -96.4397 45.8369 -111.654 -97.0019 46.5159 
-111.68 -97.4324 47.4291 -111.546 -97.9511 48.2247 -111.297 -98.5535 48.8423 
-111.181 -99.0691 49.3843 -112.972 -93.6462 45.0098 -112.552 -94.2329 45.3358 
-112.403 -93.5782 45.5001 -111.977 -94.2519 45.8243 -111.917 -93.6061 46.1791 
-112.139 -94.9826 45.6766 -111.697 -94.3591 46.5639 -111.634 -93.6863 47.0235 
-111.751 -95.1071 46.2151 -111.714 -95.7587 45.9973 -111.604 -94.4759 47.5161 
-111.561 -93.9424 47.8692 -111.626 -95.2269 47.0887 -111.435 -95.8949 46.7134 
-111.395 -96.4036 46.5571 -111.435 -94.7189 48.5271 -111.521 -94.3258 48.8 
-111.335 -95.2856 48.2207 -111.137 -95.9601 47.8088 -111.091 -96.491 47.5315 
-111.365 -96.9006 47.471 -111.147 -95.0374 49.6072 -111.337 -94.5933 49.9443 
-110.803 -95.4478 49.2832 -110.524 -95.9445 48.9554 -110.673 -96.5121 48.7194 
-111.106 -96.9769 48.5679 -111.417 -97.4045 48.4032 -110.931 -95.3276 50.6811 
-111.129 -94.8178 51.0107 -110.474 -95.7077 50.2033 -109.954 -96.0262 49.7356 
-110.041 -96.4652 49.6048 -110.714 -96.9661 49.6788 -111.187 -97.4388 49.5027 
-111.249 -97.9596 49.1309 -110.906 -95.6525 51.5067 -111.103 -95.1519 51.7243 
-110.498 -95.9893 51.0943 -109.867 -96.2108 50.493 -109.558 -96.5538 50.1572 
-110.002 -97.007 50.3809 -110.689 -97.4317 50.5606 -110.985 -97.8937 50.2242 
-111.031 -98.4661 49.7217 -111.012 -95.9575 52.0606 -111.253 -95.4733 52.2087 
-110.603 -96.2491 51.9002 -110.014 -96.3989 51.5433 -109.49 -96.711 51.0605 
-109.419 -97.2212 50.9487 -109.873 -97.641 51.2182 -110.444 -97.9478 51.2045 
-110.802 -98.355 50.7379 -111.014 -98.9011 50.2293 -111.227 -99.4902 50.6246 
-110.96 -98.9694 51.0281 -111.255 -99.5866 51.4918 -110.502 -98.5478 51.5173 
-110.876 -99.1674 51.8264 -111.259 -99.7174 52.5018 -109.882 -98.28 51.7858 
-110.315 -98.825 52.0805 -110.864 -99.337 52.6458 -111.321 -99.8015 53.6344 
-109.418 -97.9415 51.7663 -109.86 -98.4643 52.1851 -110.545 -98.8843 52.6325 
-111.041 -99.4253 53.6517 -111.553 -99.9198 54.8079 -109.353 -97.3305 51.9598 
-109.708 -97.8797 52.5261 -110.451 -98.2606 52.7803 -110.914 -98.88 53.6359 
-111.262 -99.61 54.9521 -111.871 -100.077 55.9087 -109.625 -96.7619 52.4289 
-109.649 -97.2106 53.1976 -110.348 -97.6168 53.3985 -110.907 -98.2133 53.9 
-110.982 -99.1271 55.1796 -111.388 -99.7715 56.2908 -112.14 -100.113 56.7969 
-110.166 -96.5305 52.6341 -109.783 -96.8102 53.5264 -110.124 -97.2192 53.9943 
-110.878 -97.7694 54.3348 -111.031 -98.588 55.3728 -110.998 -99.3608 56.6063 
-111.6 -99.7316 57.2303 -112.433 -100.085 57.4499 -110.821 -96.3651 52.5594 
-110.412 -96.6088 53.3243 -110.302 -96.9581 54.0603 -110.863 -97.4953 54.5979 
-111.345 -98.1658 55.4071 -111.263 -98.8849 56.5336 -111.387 -99.3651 57.3626 
-112.082 -99.6667 57.7531 -112.839 -100.15 58.0112 -111.309 -95.9766 52.5911 
-111.209 -96.3073 53.1422 -111.022 -96.6273 53.8725 -111.138 -97.0948 54.6438 
-111.545 -97.6572 55.4576 -111.735 -98.2913 56.3378 -111.753 -98.8905 57.1054 
-112.084 -99.3 57.6834 -112.707 -99.6894 58.1566 -113.274 -100.24 58.5605 
-111.469 -100.027 50.9725 -111.582 -100.074 52.0806 -111.852 -100.4 51.6204 
-111.728 -100.126 53.3377 -112.175 -100.363 52.9587 -112.59 -100.483 52.5223 
-111.895 -100.218 54.5741 -112.456 -100.461 54.198 -113.029 -100.492 53.8226 
-113.449 -100.5 53.342 -112.122 -100.422 55.6556 -112.462 -100.789 55.2591 
-113.107 -100.876 54.7675 -113.655 -100.802 54.3216 -113.992 -100.932 53.7296 
-112.39 -100.62 56.5261 -112.38 -101.23 56.2223 -112.757 -101.515 55.6663 
-113.473 -101.404 55.0613 -113.987 -101.444 54.4982 -114.328 -101.68 53.7817 
-112.697 -100.706 57.2132 -112.572 -101.492 57.0398 -112.628 -102 56.6566 
-113.268 -101.953 56.0083 -113.988 -101.825 55.4046 -114.435 -101.969 54.748 
-114.793 -102.098 53.9248 -113.079 -100.777 57.8633 -113.071 -101.501 57.7523 
-113.101 -102.03 57.5636 -113.574 -102.132 57.0825 -114.258 -102.012 56.5149 
-114.756 -101.993 56.0019 -115.106 -102.037 55.288 -115.452 -102.044 54.3965 
-113.472 -100.858 58.5405 -113.6 -101.435 58.4896 -113.791 -101.799 58.4186 
-114.231 -101.957 58.1303 -114.772 -102.041 57.6338 -115.179 -102.083 57.1786 
-115.52 -102.024 56.6908 -115.87 -101.919 55.947 -116.179 -101.904 55.0443 
-113.751 -100.617 59.1646 -113.927 -101.249 59.2292 -114.154 -100.835 59.7857 
-114.377 -101.455 59.9855 -114.66 -100.925 60.3638 -114.205 -101.624 59.2934 
-114.931 -101.775 60.6347 -115.435 -101.047 60.7927 -114.798 -101.924 60.1592 
-114.692 -101.813 59.2305 -115.775 -102.217 60.8839 -116.42 -101.188 60.8724 
-115.368 -102.74 60.7032 -115.335 -102.424 60.0142 -115.213 -102.078 58.8346 
-116.888 -102.345 60.7889 -117.407 -101.321 60.7122 -116.246 -103.354 60.721 
-115.848 -103.413 60.3632 -115.721 -102.799 59.4511 -115.546 -102.319 58.2715 
-117.988 -102.196 60.7793 -118.3 -101.452 60.6017 -117.444 -103.127 60.6849 
-116.779 -103.575 60.3605 -116.286 -103.258 59.7043 -116.06 -102.724 58.7362 
-115.874 -102.281 57.7475 -118.925 -102.069 60.827 -119.11 -101.438 60.5042 
-118.582 -102.699 60.8056 -117.993 -103.074 60.3838 -117.3 -102.997 59.7075 
-116.817 -102.741 58.847 -116.597 -102.431 58.0005 -116.328 -102.066 57.1153 
-119.723 -101.909 60.6273 -119.813 -101.251 60.2834 -119.491 -102.5 60.667 
-119.04 -102.824 60.2511 -118.379 -102.791 59.55 -117.734 -102.647 58.7149 
-117.356 -102.515 57.9118 -117.107 -102.218 57.2044 -116.702 -101.92 56.2747 
-120.351 -101.677 60.1976 -120.337 -101.058 59.9414 -120.183 -102.301 60.1754 
-119.795 -102.732 59.7768 -119.21 -102.834 59.167 -118.531 -102.726 58.475 
-117.983 -102.593 57.7248 -117.661 -102.365 57.0508 -117.353 -102.051 56.3409 
-116.912 -101.908 55.3358 -113.415 -99.8455 58.7842 -113.89 -100.036 59.4225 
-113.594 -99.3413 58.8243 -114.081 -99.3841 59.4734 -113.8 -98.8624 58.7237 
-114.374 -100.115 59.9914 -114.391 -98.9627 59.2959 -114.126 -98.4677 58.5313 
-114.735 -99.4784 60.0113 -115.098 -100.169 60.4816 -114.865 -98.6958 58.8963 
-114.587 -98.011 58.2712 -115.212 -99.1981 59.7307 -115.625 -99.6779 60.4038 
-116.022 -100.279 60.7808 -115.393 -98.258 58.4428 -115.039 -97.4565 58.0187 
-115.762 -98.9305 59.1373 -116.138 -99.4303 59.9457 -116.504 -99.8814 60.5177 
-116.93 -100.477 60.7109 -115.862 -97.671 58.1489 -115.474 -96.9511 57.7641 
-116.284 -98.4246 58.5657 -116.69 -98.9987 59.2288 -116.999 -99.4966 59.9679 
-117.341 -100.072 60.3817 -117.804 -100.748 60.4712 -116.315 -97.0984 57.8971 
-115.96 -96.5666 57.3722 -116.718 -97.8182 58.242 -117.19 -98.4593 58.6307 
-117.585 -98.9542 59.295 -117.89 -99.5237 59.9516 -118.244 -100.21 60.2044 
-118.667 -100.869 60.2802 -116.733 -96.6309 57.4343 -116.406 -96.2957 56.8249 
-117.097 -97.174 57.9301 -117.553 -97.8668 58.2515 -118.007 -98.4893 58.6434 
-118.37 -99.0131 59.2775 -118.702 -99.5776 59.8006 -119.048 -100.18 59.9648 
-119.417 -100.741 60.0736 -117.057 -96.3354 56.7956 -116.738 -96.089 56.275 
-117.427 -96.6313 57.4018 -117.87 -97.1534 57.8918 -118.289 -97.8805 58.1656 
[...]
CELL_DATA 2000
SCALARS Distance double
LOOKUP_TABLE default
159.088 158.797 159.123 159.43 158.408 158.784 159.121 159.441 159.73 
158.017 158.381 158.726 159.089 159.414 159.735 160.05 157.636 157.993 
158.323 158.692 159.052 159.41 159.772 160.09 160.447 157.248 157.592 
157.925 158.299 158.686 159.07 159.485 159.828 160.229 160.53 160.928 
156.994 157.251 157.594 157.924 158.351 158.739 159.206 159.568 160.007 
160.325 160.756 161.057 161.489 156.886 157.084 157.413 157.667 158.097 
158.451 158.954 159.322 159.788 160.112 160.544 160.869 161.303 161.621 
162.02 156.756 156.98 157.29 157.525 157.914 158.232 158.72 159.088 
159.573 159.906 160.339 160.653 161.063 161.388 161.766 162.08 162.403 
156.58 156.822 157.141 157.385 157.756 158.05 158.51 158.862 159.355 
159.697 160.15 160.458 160.867 161.158 161.521 161.804 162.126 162.411 
162.712 158.794 158.196 158.494 158.461 157.526 157.839 157.777 158.101 
158.061 156.83 157.168 157.127 157.424 157.393 157.704 157.688 156.087 
156.479 156.508 156.818 156.774 157.052 157.01 157.334 157.306 155.356 
155.735 155.787 156.167 156.114 156.41 156.282 156.604 156.54 156.917 
156.902 154.796 155.067 155.067 155.408 155.365 155.69 155.557 155.853 
155.766 156.13 156.173 156.567 156.656 154.34 154.576 154.526 154.746 
154.667 154.945 154.883 155.17 155.146 155.446 155.528 155.891 156.05 
156.421 156.562 153.777 154.083 154.026 154.233 154.09 154.305 154.233 
154.534 154.575 154.9 155.003 155.331 155.47 155.827 155.965 156.328 
156.428 153.138 153.454 153.41 153.676 153.544 153.751 153.647 153.914 
153.951 154.312 154.446 154.812 154.947 155.278 155.389 155.719 155.815 
156.16 156.247 152.819 152.431 152.744 153.02 152.193 152.392 152.632 
152.947 153.205 152.209 152.287 152.557 152.704 152.968 153.154 153.388 
152.462 152.446 152.767 152.8 153.068 153.089 153.306 153.419 153.714 
152.864 152.781 153.038 153.039 153.263 153.258 153.436 153.463 153.732 
153.87 154.241 153.273 153.171 153.28 153.23 153.309 153.34 153.487 
153.588 153.871 153.988 154.346 154.461 154.8 153.642 153.538 153.589 
153.432 153.365 153.292 153.356 153.52 153.854 154.104 154.502 154.627 
154.925 154.984 155.241 154.046 153.926 154.026 153.791 153.7 153.43 
153.383 153.382 153.667 153.975 154.433 154.709 155.025 155.116 155.317 
155.383 155.626 154.493 154.368 154.494 154.272 154.218 153.88 153.788 
153.56 153.715 153.823 154.24 154.541 154.932 155.139 155.377 155.465 
155.683 155.779 156.054 156.285 155.912 156.239 156.575 155.541 155.857 
156.163 156.555 156.944 155.053 155.423 155.673 156.097 156.472 156.927 
157.365 154.45 154.872 155.149 155.579 155.955 156.424 156.895 157.381 
157.908 154.026 154.345 154.725 155.107 155.528 155.947 156.443 156.922 
157.504 158.004 158.592 154.059 154.143 154.524 154.787 155.242 155.602 
156.108 156.53 157.108 157.602 158.205 158.695 159.219 154.422 154.357 
154.611 154.694 155.084 155.37 155.904 156.283 156.871 157.274 157.848 
158.285 158.795 159.24 159.685 154.738 154.72 154.909 154.866 155.149 
155.284 155.803 156.137 156.783 157.138 157.715 158.022 158.501 158.838 
159.29 159.693 160.16 154.807 154.927 155.167 155.167 155.418 155.443 
155.865 156.09 156.688 157.046 157.618 157.931 158.377 158.639 159.053 
159.367 159.837 160.227 160.72 156.603 156.911 156.893 157.19 157.327 
157.275 157.6 157.533 157.855 157.809 157.755 158.155 158.053 158.424 
158.293 158.654 158.377 158.295 158.762 158.676 159.112 158.962 159.332 
159.155 159.504 159.043 158.925 159.37 159.289 159.732 159.64 160.006 
159.849 160.156 159.989 160.292 159.656 159.583 159.978 159.884 160.261 
160.19 160.531 160.44 160.734 160.609 160.889 160.74 161.007 160.14 
160.132 160.548 160.467 160.826 160.714 161.047 160.936 161.258 161.148 
161.456 161.323 161.585 161.419 161.641 160.635 160.622 161.1 161.034 
161.445 161.317 161.688 161.53 161.895 161.734 162.089 161.92 162.213 
162.01 162.226 162.023 162.224 161.185 161.167 161.667 161.613 162.056 
161.954 162.363 162.224 162.623 162.452 162.827 162.625 162.943 162.7 
162.939 162.668 162.866 162.625 162.827 161.632 162.377 162.072 162.125 
163.036 162.794 162.909 162.544 162.529 163.775 163.513 163.726 163.363 
163.419 162.949 162.885 164.618 164.362 164.683 164.308 164.46 163.933 
163.902 163.323 163.2 165.4 165.222 165.607 165.324 165.524 165.035 
164.978 164.371 164.191 163.598 163.396 166.089 165.961 166.335 166.158 
166.334 165.983 165.85 165.334 165.047 164.51 164.238 163.717 163.466 
166.69 166.612 166.956 166.806 166.939 166.643 166.465 166.023 165.68 
165.219 164.92 164.475 164.213 163.724 163.441 167.101 167.121 167.445 
167.358 167.469 167.199 167.02 166.582 166.236 165.776 165.479 165.084 
164.853 164.427 164.147 163.65 163.346 167.3 167.407 167.693 167.712 
167.794 167.639 167.462 167.113 166.764 166.325 165.978 165.592 165.324 
164.98 164.704 164.297 163.975 163.521 163.243 161.44 161.306 161.645 
162.142 161.105 161.451 161.933 162.285 162.761 160.982 161.272 161.774 
162.089 162.61 162.931 163.467 160.949 161.22 161.769 162.032 162.603 
162.865 163.423 163.704 164.269 160.881 161.195 161.763 162.066 162.641 
162.914 163.453 163.699 164.205 164.493 165.021 160.775 161.1 161.655 
162.004 162.555 162.889 163.396 163.686 164.153 164.425 164.9 165.208 
165.715 160.703 160.993 161.52 161.858 162.39 162.738 163.241 163.564 
164.041 164.34 164.806 165.095 165.557 165.869 166.321 160.636 160.901 
161.361 161.69 162.181 162.543 163.033 163.382 163.852 164.187 164.639 
164.96 165.368 165.676 166.046 166.378 166.727 160.544 160.786 161.166 
161.476 161.907 162.283 162.737 163.125 163.547 163.924 164.312 164.691 
165.043 165.399 165.7 166.038 166.319 166.675 166.942 154.855 155.107 
155.111 155.302 155.405 155.397 155.668 155.57 155.684 155.86 155.768 
156.111 156.019 156.254 156.018 156.174 156.556 156.349 156.702 156.556 
156.83 156.621 156.82 156.609 156.899 157.33 157.098 157.406 157.217 
157.442 157.201 157.334 157.162 157.422 157.369 157.73 158.033 157.809 
158.06 157.89 158.104 157.845 157.944 157.674 157.88 157.799 158.18 
158.164 158.496 158.756 158.487 158.699 158.497 158.743 158.521 158.717 
158.399 158.621 158.372 158.755 158.644 159.058 158.927 159.221 159.514 
159.238 159.448 159.178 159.431 159.199 159.486 159.227 159.516 159.228 
159.57 159.347 159.751 159.574 159.94 159.719 160.02 160.168 159.969 
160.195 159.95 160.193 159.944 160.237 160.01 160.33 160.095 160.4 
160.163 160.476 160.287 160.627 160.457 160.791 160.575 160.884 154.564 
154.289 154.543 154.83 154.331 154.431 154.726 154.871 155.155 154.544 
154.622 154.972 154.975 155.25 155.285 155.626 154.679 154.812 155.227 
155.308 155.648 155.586 155.887 155.893 156.334 154.873 154.939 155.327 
155.482 155.893 155.977 156.317 156.289 156.649 156.688 157.143 155.16 
155.191 155.515 155.586 155.953 156.105 156.488 156.615 156.97 157.031 
157.405 157.478 157.889 155.322 155.436 155.765 155.812 156.123 156.193 
156.548 156.691 157.07 157.222 157.593 157.715 158.104 158.205 158.618 
155.453 155.565 155.947 156.033 156.381 156.424 156.783 156.837 157.22 
157.31 157.696 157.827 158.23 158.385 158.808 158.94 159.353 155.754 
155.775 156.171 156.231 156.628 156.693 157.105 157.152 157.561 157.575 
157.952 157.983 158.373 158.489 158.92 159.084 159.501 159.638 159.998 
156.11 156.74 156.442 156.483 157.374 157.072 157.133 156.842 156.927 
158.135 157.764 157.854 157.525 157.646 157.339 157.452 159.028 158.611 
158.683 158.298 158.416 158.093 158.224 157.89 157.952 159.858 159.495 
159.539 159.144 159.196 158.852 158.947 158.642 158.697 158.34 158.327 
160.554 160.255 160.328 159.975 160.016 159.632 159.685 159.343 159.41 
159.069 159.089 158.703 158.719 161.198 160.924 161.042 160.745 160.847 
160.472 160.53 160.126 160.2 159.825 159.909 159.514 159.574 159.165 
159.25 161.808 161.56 161.682 161.438 161.56 161.267 161.322 160.961 
160.997 160.639 160.72 160.365 160.443 160.048 160.109 159.721 159.808 
162.358 162.144 162.248 162.033 162.117 161.888 161.912 161.64 161.636 
161.354 161.4 161.124 161.194 160.868 160.897 160.534 160.558 160.22 
160.273 162.684 163.158 162.805 162.583 163.603 163.256 162.978 162.658 
162.407 163.91 163.627 163.304 163.001 162.699 162.424 162.159 164.093 
163.877 163.624 163.334 163.073 162.741 162.478 162.171 161.92 164.407 
164.147 164.046 163.739 163.601 163.226 163.025 162.609 162.371 161.989 
161.751 165.043 164.67 164.638 164.274 164.165 163.799 163.617 163.219 
162.963 162.531 162.241 161.844 161.563 165.818 165.41 165.311 164.912 
164.713 164.33 164.074 163.727 163.436 163.071 162.718 162.32 161.947 
161.588 161.248 166.448 166.086 165.877 165.509 165.239 164.842 164.526 
164.14 163.827 163.47 163.124 162.737 162.331 161.939 161.551 161.22 
160.893 166.869 166.556 166.273 165.955 165.662 165.314 164.996 164.605 
164.272 163.881 163.543 163.143 162.76 162.334 161.935 161.544 161.206 
160.886 160.604 162.837 163.244 163.127 163.327 163.715 163.565 163.791 
163.67 163.848 164.189 164.058 164.313 164.197 164.434 164.206 164.243 
164.498 164.483 164.792 164.753 165.05 164.847 164.875 164.499 164.381 
164.597 164.68 164.998 165.124 165.444 165.408 165.423 165.093 164.877 
164.541 164.514 164.59 164.692 164.893 165.116 165.353 165.554 165.574 
165.479 165.254 164.983 164.919 164.786 165.053 164.446 164.595 164.669 
164.864 164.961 165.227 165.267 165.413 165.34 165.277 165.321 165.235 
165.563 165.514 165.913 164.137 164.349 164.419 164.59 164.635 164.812 
164.868 165.058 165.169 165.306 165.555 165.633 166.063 166.079 166.526 
166.408 166.675 163.845 164.03 164.155 164.333 164.423 164.554 164.634 
164.771 164.953 165.161 165.521 165.778 166.271 166.478 166.947 166.979 
167.263 167.077 167.163 162.618 162.43 162.692 163.028 162.149 162.488 
162.881 163.159 163.525 161.692 162.11 162.541 162.974 163.417 163.691 
164.012 161.218 161.596 161.973 162.5 162.982 163.466 163.815 164.087 
164.279 160.839 161.167 161.477 161.906 162.312 162.861 163.235 163.704 
163.926 164.229 164.366 160.351 160.771 161.086 161.464 161.773 162.193 
162.496 162.989 163.281 163.748 163.984 164.299 164.428 159.661 160.181 
160.514 160.999 161.282 161.679 161.877 162.274 162.512 163.026 163.337 
163.828 164.029 164.315 164.327 158.98 159.461 159.792 160.325 160.641 
161.113 161.312 161.679 161.832 162.268 162.526 163.081 163.323 163.78 
163.82 164.082 163.99 158.501 158.865 159.191 159.637 159.991 160.462 
160.757 161.136 161.329 161.658 161.862 162.294 162.541 163.015 163.156 
163.506 163.504 163.727 163.69 158.427 158.584 158.683 159.083 158.676 
158.829 159.22 159.375 159.836 158.605 158.833 159.247 159.481 159.953 
160.153 160.603 158.597 158.741 159.159 159.437 159.972 160.253 160.735 
160.885 161.231 158.881 158.867 159.254 159.401 159.96 160.252 160.821 
161.023 161.404 161.462 161.764 159.207 159.226 159.613 159.654 160.185 
160.343 160.943 161.129 161.595 161.669 161.985 162.022 162.367 159.266 
159.439 159.865 160.019 160.554 160.679 161.236 161.342 161.842 161.91 
162.297 162.299 162.605 162.636 162.952 159.186 159.399 159.829 160.122 
160.669 160.947 161.463 161.628 162.068 162.177 162.601 162.654 162.997 
162.946 163.177 163.151 163.354 159.18 159.337 159.719 159.999 160.492 
160.87 161.349 161.665 162.025 162.263 162.618 162.847 163.214 163.311 
163.533 163.449 163.548 163.478 163.592 159.319 159.671 159.595 159.838 
159.996 159.948 160.221 160.187 160.562 160.343 160.295 160.594 160.568 
160.931 160.959 161.368 160.747 160.683 160.998 160.956 161.282 161.283 
161.631 161.688 162.029 161.217 161.12 161.434 161.376 161.688 161.636 
161.922 161.917 162.254 162.309 162.66 161.781 161.639 161.947 161.841 
162.175 162.08 162.371 162.265 162.568 162.564 162.964 163.006 163.331 
162.324 162.217 162.523 162.396 162.753 162.639 162.996 162.822 163.1 
162.951 163.258 163.275 163.582 163.596 163.701 162.709 162.69 162.987 
162.927 163.269 163.223 163.631 163.518 163.819 163.573 163.734 163.567 
163.725 163.723 163.807 163.771 163.701 163.017 163.022 163.314 163.298 
163.594 163.624 164.011 164.064 164.41 164.277 164.381 164.083 164.064 
163.873 163.886 163.822 163.81 163.725 163.685 163.804 163.876 163.909 
164.076 163.976 163.978 164.123 164.187 164.357 164.263 164.162 164.32 
164.279 164.451 164.464 164.61 164.683 164.585 164.778 164.613 164.794 
164.673 164.868 164.792 164.997 164.724 164.893 165.11 165.093 165.278 
165.144 165.358 165.203 165.483 165.353 165.668 164.284 164.651 164.875 
165.165 165.398 165.528 165.773 165.736 166.027 165.928 166.299 166.169 
166.515 163.86 164.163 164.426 164.771 165.095 165.432 165.792 166.003 
166.348 166.408 166.773 166.763 167.13 167.012 167.237 163.611 163.862 
164.187 164.448 164.828 165.13 165.557 165.882 166.312 166.566 166.958 
167.105 167.447 167.483 167.69 167.562 167.557 163.338 163.641 163.999 
164.295 164.677 164.949 165.32 165.626 166.016 166.377 166.778 167.105 
167.44 167.636 167.814 167.832 167.795 167.647 167.439 153.071 153.648 
153.258 153.116 154.25 153.865 153.669 153.31 153.304 154.778 154.469 
154.383 153.969 153.919 153.613 153.805 155.336 155.03 155.07 154.732 
154.769 154.369 154.477 154.218 154.5 156.063 155.692 155.757 155.442 
155.549 155.213 155.307 154.97 155.141 154.93 155.22 156.897 156.523 
156.639 156.245 156.369 155.989 156.097 155.751 155.903 155.63 155.881 
155.682 155.992 157.673 157.381 157.596 157.228 157.408 156.943 157.056 
156.589 156.749 156.408 156.692 156.438 156.757 156.51 156.795 158.316 
158.106 158.334 158.116 158.336 157.996 158.104 157.628 157.706 157.294 
157.519 157.259 157.575 157.328 157.583 157.297 157.492 158.856 158.676 
158.849 158.717 158.922 158.759 158.871 158.556 158.546 158.173 158.237 
157.996 158.221 158.061 158.288 158.057 158.2 157.92 158.048 152.789 
152.914 152.774 152.712 153.206 153.01 153.032 152.873 152.888 153.763 
153.474 153.545 153.299 153.272 153.019 152.873 154.45 154.127 154.179 
153.887 153.815 153.446 153.2 152.88 152.708 155.146 154.806 154.809 
154.505 154.408 154.01 153.776 153.335 153.194 152.887 152.997 155.879 
155.496 155.483 155.135 155.06 154.637 154.48 154.017 153.977 153.595 
153.769 153.478 153.746 156.628 156.231 156.211 155.846 155.824 155.386 
155.299 154.815 154.816 154.441 154.635 154.345 154.584 154.276 154.455 
157.298 156.936 156.888 156.56 156.558 156.187 156.142 155.691 155.657 
155.265 155.382 155.127 155.333 155.08 155.229 154.912 155.033 157.875 
157.554 157.499 157.195 157.185 156.877 156.849 156.485 156.432 156.055 
156.072 155.79 155.923 155.721 155.881 155.643 155.768 155.475 155.614 
152.647 152.569 152.489 152.348 152.732 152.574 152.4 152.253 152.137 
152.737 152.727 152.616 152.447 152.273 152.11 152.088 152.614 152.649 
152.688 152.665 152.597 152.374 152.268 152.145 152.282 152.891 152.687 
152.807 152.774 152.909 152.755 152.747 152.483 152.534 152.456 152.72 
153.572 153.197 153.271 153.085 153.287 153.144 153.272 153.028 153.078 
152.848 152.981 152.931 153.176 154.234 153.881 153.888 153.653 153.801 
153.62 153.747 153.542 153.595 153.376 153.406 153.241 153.332 153.318 
153.518 154.818 154.476 154.472 154.237 154.367 154.166 154.255 154.018 
154.041 153.824 153.846 153.647 153.667 153.518 153.623 153.638 153.882 
155.431 155.077 155.078 154.815 154.947 154.733 154.831 154.555 154.566 
154.289 154.337 154.11 154.184 153.94 154.01 153.842 154.022 154.047 
154.335 162.323 161.777 162.078 162.111 161.165 161.496 161.528 161.843 
161.823 160.5 160.838 160.845 161.205 161.19 161.493 161.401 159.774 
160.118 160.04 160.43 160.389 160.789 160.738 161.046 160.96 158.921 
159.304 159.146 159.538 159.406 159.868 159.816 160.287 160.245 160.61 
160.541 158.018 158.386 158.212 158.589 158.407 158.832 158.718 159.241 
159.202 159.737 159.672 160.111 159.989 157.269 157.541 157.379 157.682 
157.514 157.863 157.725 158.156 158.084 158.608 158.562 159.092 158.989 
159.447 159.29 156.659 156.886 156.736 156.955 156.793 157.05 156.92 
157.247 157.174 157.58 157.555 158.013 157.98 158.426 158.339 158.745 
158.636 156.036 156.288 156.159 156.38 156.227 156.422 156.277 156.519 
156.446 156.773 156.776 157.152 157.172 157.542 157.527 157.878 157.84 
158.191 158.172 
POINT_DATA 1002
SCALARS Distance double
LOOKUP_TABLE default
159.408 159.052 158.804 159.157 158.431 159.726 158.767 158.028 159.442 
160.024 158.351 157.676 159.061 159.742 160.384 157.955 157.279 158.667 
159.43 160.145 160.814 157.547 156.92 158.277 159.117 159.91 160.635 
161.337 157.287 156.776 157.951 158.826 159.679 160.434 161.202 161.929 
157.189 156.693 157.764 158.578 159.462 160.226 160.974 161.734 162.398 
157.06 156.515 157.623 158.356 159.227 160.032 160.76 161.456 162.11 
162.703 156.891 156.336 157.475 158.172 159.006 159.834 160.584 161.259 
161.847 162.422 163.012 158.529 158.15 157.91 157.457 157.213 157.725 
156.835 156.444 157.092 157.363 156.16 155.657 156.53 156.702 156.966 
155.389 155.023 155.813 156.001 156.144 156.51 154.791 154.576 155.025 
155.258 155.416 155.739 156.273 154.364 154.082 154.424 154.556 154.837 
155.185 155.663 156.217 153.804 153.445 153.911 153.937 154.21 154.68 
155.146 155.604 156.076 153.113 152.858 153.314 153.408 153.597 154.048 
154.612 155.085 155.478 155.891 152.488 152.634 152.173 152.37 152.037 
152.894 152.454 152.136 152.849 153.161 152.75 152.502 153.098 153.259 
153.5 153.093 153 153.273 153.42 153.632 154.066 153.424 153.397 
153.326 153.33 153.715 154.268 154.706 153.796 153.734 153.548 153.223 
153.517 154.332 154.909 155.161 154.251 154.157 154.031 153.522 153.407 
154.078 154.89 155.28 155.511 154.699 154.623 154.534 154.09 153.753 
153.985 154.658 155.249 155.606 155.935 156.584 156.198 156.945 155.769 
156.524 157.363 155.253 155.998 156.894 157.838 154.708 155.486 156.381 
157.412 158.475 154.343 155.127 155.973 156.975 158.127 159.177 154.337 
154.894 155.708 156.644 157.708 158.783 159.699 154.645 154.852 155.507 
156.497 157.474 158.366 159.239 160.118 154.982 155.102 155.494 156.408 
157.444 158.229 158.91 159.722 160.642 155.101 155.42 155.733 156.37 
157.288 158.123 158.779 159.471 160.317 161.199 157.206 157.676 157.921 
158.228 158.565 158.788 158.821 159.239 159.535 159.675 159.48 159.81 
160.149 160.337 160.458 160.094 160.363 160.612 160.836 161.032 161.18 
160.604 160.947 161.17 161.361 161.578 161.76 161.818 161.146 161.552 
161.836 162.06 162.265 162.426 162.456 162.406 161.713 162.142 162.476 
162.778 163.033 163.185 163.219 163.146 163.049 161.984 162.521 162.626 
163.237 163.246 162.97 164.058 164.021 163.883 163.404 165.01 164.827 
164.983 164.514 163.79 165.832 165.544 165.98 165.61 164.812 163.972 
166.51 166.214 166.664 166.358 165.582 164.748 163.995 167.112 166.744 
167.245 166.908 166.132 165.329 164.685 163.961 167.509 167.052 167.717 
167.446 166.709 165.87 165.241 164.636 163.846 167.662 167.188 167.911 
167.756 167.188 166.398 165.667 165.066 164.411 163.67 161.136 161.817 
160.966 161.57 160.781 162.413 161.466 160.7 162.285 163.134 161.493 
160.655 162.347 163.177 163.96 161.438 160.55 162.358 163.22 163.962 
164.694 161.312 160.465 162.217 163.091 163.878 164.619 165.389 161.203 
160.443 162.046 162.907 163.725 164.522 165.279 166.005 161.059 160.408 
161.821 162.677 163.515 164.316 165.079 165.747 166.387 160.892 160.332 
161.548 162.352 163.184 163.942 164.679 165.372 165.981 166.588 154.844 
155.389 155.089 155.714 155.413 155.902 156.179 155.99 156.442 156.42 
156.88 156.8 157.047 157.002 157.04 157.615 157.577 157.726 157.555 
157.446 157.781 158.237 158.286 158.33 158.256 158.024 158.171 158.588 
158.939 159.043 158.923 158.977 158.92 158.92 159.174 159.413 159.734 
159.765 159.673 159.696 159.786 159.844 159.946 160.134 160.272 154.228 
154.558 154.082 154.655 154.258 154.966 154.954 154.421 155.307 155.478 
155.063 154.555 155.666 155.975 156.212 155.201 154.867 155.72 156.294 
156.683 157.052 155.508 155.106 155.837 156.303 156.87 157.359 157.806 
155.695 155.165 156.093 156.44 156.903 157.44 157.982 158.525 155.836 
155.36 156.311 156.742 157.169 157.589 158.06 158.648 159.252 156.13 
155.773 156.548 157.027 157.547 157.968 158.301 158.76 159.352 159.899 