# vtk DataFile Version 4.0
vtk output
ASCII
DATASET POLYDATA
POINTS 1002 float
-117.447 -102.41 47.7613 -117.553 -102.246 47.0367 -117.244 -101.868 47.341 
-117.02 -102.144 48.1131 -116.667 -101.63 47.747 -117.259 -102.577 48.6486 
-116.291 -101.977 48.5714 -115.783 -101.701 48.1151 -116.726 -102.215 49.1288 
-117.154 -102.289 49.6572 -115.364 -102.11 48.886 -114.966 -101.978 48.376 
-115.922 -101.978 49.6272 -116.59 -101.928 50.2283 -117.195 -101.895 50.7134 
-114.697 -102.449 49.0822 -114.392 -102.245 48.7036 -115.059 -102.16 49.9042 
-115.784 -101.937 50.6637 -116.577 -102.052 51.1971 -117.093 -102.291 51.6307 
-114.25 -102.609 49.5263 -113.741 -102.318 49.2138 -114.531 -102.525 50.2196 
-115.013 -102.362 50.9737 -115.792 -102.529 51.5277 -116.36 -102.806 52.0552 
-116.72 -103.049 52.5014 -113.606 -102.477 50.1846 -113.043 -102.162 49.8313 
-114.042 -102.648 50.7727 -114.462 -102.732 51.44 -115.117 -102.964 51.9624 
-115.681 -103.218 52.4935 -116.025 -103.301 53.11 -116.458 -103.405 53.5669 
-112.904 -102.338 50.8446 -112.623 -101.931 50.5885 -113.254 -102.691 51.2818 
-113.729 -102.919 51.8808 -114.45 -103.137 52.5052 -115.089 -103.414 53.0712 
-115.485 -103.585 53.654 -115.968 -103.685 54.1786 -116.546 -103.835 54.5492 
-112.414 -102.275 51.5739 -112.342 -101.775 51.4353 -112.529 -102.79 51.8082 
-112.842 -103.132 52.2182 -113.581 -103.278 52.8773 -114.388 -103.505 53.5863 
-114.863 -103.89 54.1085 -115.395 -104.24 54.486 -116.166 -104.481 54.8204 
-116.75 -104.566 55.1737 -111.994 -102.176 52.2765 -111.877 -101.733 52.0874 
-112.111 -102.697 52.5043 -112.271 -103.154 52.7771 -112.815 -103.381 53.2605 
-113.689 -103.568 53.9438 -114.273 -104.017 54.4675 -114.666 -104.599 54.7082 
-115.423 -105.01 54.9095 -116.31 -105.154 55.2369 -116.8 -105.04 55.6854 
-117.431 -101.881 46.7014 -117.054 -101.324 47.1187 -117.267 -101.18 46.6706 
-116.754 -100.694 47.0744 -116.998 -100.274 46.6283 -116.325 -101.125 47.5086 
-116.243 -100.247 46.7728 -116.413 -99.7355 46.1839 -115.859 -100.695 47.3105 
-115.388 -101.235 47.8557 -115.418 -100.041 46.1556 -115.623 -99.4525 45.6376 
-115.19 -100.515 46.853 -114.935 -100.771 47.6759 -114.634 -101.413 48.2693 
-114.759 -99.4507 45.8872 -115.204 -98.718 45.5374 -114.462 -100.18 46.4246 
-114.398 -100.461 47.3472 -114.241 -100.798 48.2554 -113.914 -101.658 48.7224 
-114.718 -98.4214 46.1184 -115.179 -97.7743 45.7241 -114.216 -99.2392 46.5042 
-113.987 -99.8614 47.1341 -113.852 -100.28 48.023 -113.43 -101.041 48.6792 
-113.076 -101.832 49.1394 -114.714 -97.689 46.2636 -114.963 -97.192 45.7961 
-114.301 -98.2694 46.7311 -113.885 -98.9213 47.2204 -113.564 -99.5704 47.8288 
-113.11 -100.392 48.4482 -112.677 -101.246 49.0289 -112.582 -101.708 49.7517 
-114.241 -97.2768 46.1522 -114.461 -96.7595 45.7602 -113.98 -97.7158 46.6478 
-113.692 -98.1796 47.2448 -113.354 -98.8184 47.8337 -112.884 -99.6733 48.3361 
-112.494 -100.551 48.9387 -112.426 -101.124 49.7889 -112.459 -101.436 50.6913 
-113.693 -96.7772 46.0799 -114.057 -96.2031 45.8049 -113.343 -97.2431 46.4414 
-113.158 -97.6412 47.0496 -113.063 -98.2083 47.8105 -112.744 -99.0397 48.4001 
-112.329 -99.9031 48.9443 -112.251 -100.52 49.8218 -112.335 -100.917 50.8366 
-112.183 -101.307 51.5875 -113.658 -96.0069 46.1948 -113.099 -96.556 46.3893 
-113.411 -95.9464 46.8001 -112.739 -96.3924 46.9074 -113.13 -95.9564 47.5582 
-112.673 -96.9927 46.7674 -112.497 -96.3884 47.6978 -112.654 -95.8844 48.3721 
-112.393 -96.8506 47.4186 -112.658 -97.5184 47.5849 -112.17 -96.521 48.736 
-112.26 -95.904 49.1998 -112.25 -96.9878 48.4398 -112.475 -97.5776 48.4343 
-112.652 -98.3628 48.4662 -111.905 -96.7056 49.81 -112.193 -96.1752 50.066 
-111.919 -97.2746 49.6087 -112.16 -97.8195 49.4838 -112.276 -98.5739 49.2935 
-112.249 -99.3275 49.0835 -111.764 -96.8056 50.7815 -112.139 -96.469 51.0334 
-111.598 -97.4624 50.6069 -111.673 -98.1315 50.4975 -111.745 -98.7804 50.264 
-111.772 -99.4725 50.0137 -111.969 -100.039 49.917 -111.545 -96.8797 51.7691 
-111.903 -96.6982 52.0528 -111.382 -97.524 51.5087 -111.396 -98.4187 51.3963 
-111.375 -99.1006 51.2829 -111.338 -99.6211 51.0853 -111.56 -100.108 51.0283 
-112.005 -100.517 51.0284 -111.341 -97.1362 52.76 -111.733 -96.9908 52.9549 
-111.156 -97.6694 52.5036 -111.192 -98.6118 52.3367 -111.194 -99.4181 52.2828 
-111.042 -99.8734 52.1232 -111.006 -100.291 51.9161 -111.317 -100.705 51.8653 
-111.808 -101.015 51.8177 -111.366 -97.5312 53.5813 -111.769 -97.3134 53.674 
-111.065 -97.9678 53.4313 -110.941 -98.738 53.2702 -110.862 -99.5171 53.197 
-110.654 -99.994 53.0684 -110.392 -100.423 52.696 -110.365 -100.953 52.3175 
-110.746 -101.334 52.203 -111.355 -101.53 52.205 -111.312 -101.96 52.6178 
-110.508 -101.838 52.5148 -110.922 -102.037 53.2152 -109.778 -101.64 52.5105 
-109.989 -101.981 53.1174 -110.802 -102.118 54.0429 -109.532 -101.087 52.9366 
-109.284 -101.725 53.3844 -109.999 -102.055 54.2309 -110.762 -102.466 54.9997 
-109.758 -100.4 53.5513 -109.158 -101.048 53.9836 -109.532 -101.684 54.6729 
-110.364 -102.169 55.3964 -110.883 -102.839 55.9539 -110.166 -99.9175 53.8696 
-109.49 -100.33 54.3819 -109.559 -101.014 54.9816 -110.271 -101.618 55.6591 
-110.908 -102.215 56.2864 -111.327 -102.909 56.9014 -110.576 -99.414 53.9626 
-110.083 -99.8208 54.5119 -109.937 -100.354 55.085 -110.36 -100.998 55.7513 
-110.965 -101.59 56.4365 -111.418 -102.259 57.1531 -111.824 -102.825 57.7877 
-110.951 -98.7538 54.0871 -110.771 -99.3376 54.6673 -110.584 -99.8151 55.2861 
-110.612 -100.375 56.0011 -110.94 -100.999 56.7068 -111.409 -101.707 57.4259 
-111.809 -102.352 58.1029 -112.211 -102.725 58.5671 -111.311 -98.1803 54.2108 
-111.309 -98.8176 54.8351 -111.243 -99.3592 55.5248 -111.109 -99.8596 56.3005 
-111.09 -100.393 57.0382 -111.394 -101.076 57.7367 -111.858 -101.806 58.419 
-112.241 -102.299 58.9293 -112.642 -102.566 59.2383 -111.665 -97.7714 54.2914 
-111.616 -98.2991 54.9527 -111.582 -98.8663 55.68 -111.545 -99.4291 56.4393 
-111.498 -99.9162 57.1412 -111.592 -100.428 57.8295 -111.944 -101.073 58.5612 
-112.373 -101.663 59.1574 -112.741 -102.06 59.5112 -113.141 -102.387 59.7779 
-111.688 -102.289 53.0542 -111.558 -102.249 53.8917 -111.974 -102.731 53.465 
-111.373 -102.512 54.6805 -111.922 -102.721 54.3961 -112.303 -103.164 53.8355 
-111.126 -103.158 55.4889 -111.725 -103.141 55.1373 -112.469 -103.222 54.8078 
-113.101 -103.472 54.348 -111.341 -103.494 56.5358 -111.744 -103.633 56.0584 
-112.657 -103.476 55.6654 -113.526 -103.592 55.2793 -113.934 -103.906 54.8491 
-111.978 -103.319 57.5794 -112.318 -103.612 57.2402 -113.042 -103.58 56.7794 
-113.901 -103.653 56.2366 -114.236 -104.105 55.6257 -114.282 -104.561 55.0752 
-112.514 -103.061 58.3546 -112.99 -103.356 58.1536 -113.519 -103.568 57.8766 
-114.093 -103.803 57.3833 -114.419 -104.178 56.6667 -114.452 -104.685 55.8662 
-114.765 -105.084 55.2294 -112.931 -102.898 59.0376 -113.461 -103.209 58.8317 
-113.911 -103.579 58.653 -114.162 -104.096 58.3469 -114.38 -104.537 57.8041 
-114.593 -104.719 57.0695 -114.99 -104.963 56.2383 -115.684 -105.261 55.5673 
-113.391 -102.808 59.7332 -113.861 -103.182 59.6057 -114.275 -103.557 59.4385 
-114.363 -104.128 59.1876 -114.382 -104.813 58.7496 -114.645 -105.049 58.1861 
-115.141 -104.878 57.5164 -115.809 -104.938 56.7294 -116.445 -105.161 56.0623 
-113.748 -102.589 60.3463 -114.105 -103.116 60.4715 -114.251 -102.91 61.1773 
-114.573 -103.499 61.3876 -114.519 -103.1 62.1476 -114.531 -103.533 60.4308 
-114.82 -103.821 62.2234 -114.954 -103.117 62.8994 -114.851 -103.947 61.3554 
-114.688 -103.925 60.2504 -115.471 -104.127 62.8014 -116.003 -103.188 63.2142 
-115.15 -104.485 62.198 -114.939 -104.339 61.1875 -114.624 -104.572 59.8478 
-116.615 -104.26 63.0524 -117.187 -103.303 63.1596 -115.952 -104.961 62.8089 
-115.48 -104.877 62.0783 -115.148 -104.879 60.6217 -114.829 -105.162 59.2027 
-117.545 -104.091 62.8796 -117.899 -103.356 62.8232 -116.96 -104.88 62.8584 
-116.378 -105.126 62.4673 -115.996 -105.084 61.2162 -115.677 -105.172 59.6735 
-115.369 -105.079 58.5336 -118.158 -103.989 62.3902 -118.38 -103.396 62.2982 
-117.802 -104.584 62.3471 -117.32 -104.92 62.0744 -116.878 -105.015 61.2095 
-116.524 -105.038 59.9274 -116.204 -104.896 58.8258 -115.984 -104.766 57.8365 
-118.81 -104.043 61.8824 -118.97 -103.343 61.7911 -118.632 -104.632 61.7717 
-118.298 -104.903 61.43 -117.77 -104.913 60.7936 -117.224 -104.837 59.9181 
-116.779 -104.664 59.0405 -116.532 -104.561 58.1451 -116.501 -104.795 57.0874 
-119.463 -103.896 61.5033 -119.583 -103.097 61.4214 -119.396 -104.656 61.3908 
-119.216 -105.07 61.0295 -118.693 -105.021 60.4906 -117.948 -104.717 59.8892 
-117.282 -104.379 59.255 -116.834 -104.213 58.4901 -116.7 -104.418 57.5171 
-116.794 -104.831 56.4942 -113.339 -101.938 60.0158 -113.876 -102.163 60.5682 
-113.384 -101.348 60.2498 -113.936 -101.613 60.7646 -113.307 -100.706 60.6448 
-114.294 -102.432 61.4707 -114.062 -101.001 61.0612 -113.506 -100.184 60.9423 
-114.477 -101.904 61.604 -114.625 -102.47 62.517 -114.445 -100.403 61.237 
-114.135 -99.8166 60.7484 -114.853 -101.366 61.599 -115.052 -102.043 62.4009 
-115.361 -102.417 63.134 -114.927 -99.8784 61.0623 -114.767 -99.3214 60.3837 
-115.269 -100.725 61.4782 -115.626 -101.664 61.8839 -115.991 -102.186 62.6266 
-116.59 -102.581 63.1625 -115.259 -99.3833 60.6611 -115.105 -98.6075 60.2441 
-115.547 -100.158 61.1378 -116.045 -100.992 61.4374 -116.569 -101.833 61.8273 
-117.083 -102.402 62.4895 -117.589 -102.823 62.9001 -115.51 -98.9382 60.1558 
-115.31 -98.1229 59.9865 -115.803 -99.7693 60.4937 -116.325 -100.36 60.9911 
-116.952 -101.011 61.3778 -117.43 -101.851 61.7833 -117.808 -102.495 62.2497 
-118.137 -102.913 62.4405 -115.795 -98.7061 59.5461 -115.56 -98.1245 59.3316 
-116.16 -99.3936 59.7955 -116.685 -99.8888 60.3592 -117.292 -100.254 61.0096 
-117.739 -100.912 61.384 -118.021 -101.762 61.6095 -118.34 -102.375 61.8113 
-118.68 -102.819 61.8744 -116.108 -98.6628 58.9118 -115.879 -98.2951 58.5574 
-116.523 -99.0383 59.2524 -117.083 -99.3831 59.7737 -117.67 -99.6901 60.4667 
[...]
CELL_DATA 2000
SCALARS Distance double
LOOKUP_TABLE default
161.698 161.302 161.654 161.934 160.828 161.217 161.491 161.856 162.073 
160.396 160.731 160.974 161.346 161.575 161.937 162.144 160.172 160.392 
160.607 160.855 161.1 161.449 161.783 162.116 162.457 160.011 160.252 
160.499 160.634 160.885 161.104 161.525 161.854 162.319 162.589 162.968 
159.679 160.027 160.328 160.56 160.835 161.025 161.439 161.719 162.217 
162.488 162.873 163.084 163.394 159.351 159.655 159.969 160.294 160.596 
160.905 161.288 161.632 162.097 162.402 162.801 163.002 163.35 163.532 
163.923 159.223 159.411 159.701 159.955 160.256 160.571 160.943 161.351 
161.813 162.216 162.645 162.926 163.327 163.55 164.026 164.217 164.695 
159.124 159.308 159.566 159.77 160.054 160.286 160.636 160.977 161.455 
161.883 162.376 162.735 163.155 163.465 163.921 164.258 164.747 164.993 
165.354 161.481 160.973 161.176 161.041 160.319 160.598 160.441 160.681 
160.553 159.519 159.887 159.766 160.041 159.902 160.174 160.114 158.618 
159.043 158.975 159.33 159.214 159.511 159.464 159.795 159.856 157.743 
158.13 158.078 158.498 158.458 158.818 158.79 159.138 159.187 159.573 
159.649 157.094 157.356 157.32 157.655 157.677 158.06 158.093 158.463 
158.488 158.864 158.896 159.295 159.31 156.606 156.832 156.82 157.045 
157.057 157.354 157.398 157.755 157.79 158.153 158.181 158.548 158.599 
158.963 159.027 156.015 156.318 156.271 156.548 156.499 156.784 156.781 
157.099 157.129 157.463 157.528 157.882 158.013 158.363 158.525 158.826 
158.962 155.349 155.649 155.544 155.864 155.767 156.125 156.123 156.494 
156.563 156.88 156.977 157.291 157.473 157.841 158.079 158.413 158.586 
158.833 158.909 155.041 154.771 154.939 155.142 154.7 154.699 154.733 
155.008 155.313 154.685 154.661 154.654 154.727 155.009 155.32 155.772 
154.691 154.692 154.829 154.815 155.132 155.252 155.736 155.944 156.365 
154.905 154.831 155.075 155.072 155.417 155.49 155.915 156.04 156.419 
156.535 156.831 155.28 155.141 155.323 155.331 155.645 155.734 156.075 
156.184 156.493 156.603 156.903 157.014 157.342 155.605 155.455 155.545 
155.551 155.865 155.951 156.313 156.349 156.645 156.681 156.998 157.11 
157.492 157.614 157.983 155.943 155.744 155.817 155.768 156.107 156.197 
156.633 156.663 156.964 156.91 157.143 157.195 157.503 157.688 158.023 
158.196 158.464 156.4 156.159 156.257 156.114 156.41 156.451 156.845 
156.936 157.181 157.179 157.249 157.267 157.359 157.543 157.734 158.029 
158.25 158.512 158.71 158.757 158.198 158.508 158.627 157.646 157.89 
157.954 158.381 158.678 157.298 157.394 157.427 157.744 158.076 158.583 
159.076 157.221 157.177 157.169 157.323 157.647 158.083 158.654 159.14 
159.708 157.224 157.193 157.143 157.162 157.41 157.74 158.31 158.788 
159.403 159.836 160.389 157.051 157.185 157.217 157.205 157.384 157.569 
158.069 158.479 159.094 159.539 160.113 160.529 161.045 156.766 157.013 
157.257 157.327 157.565 157.633 158.044 158.295 158.852 159.24 159.827 
160.255 160.806 161.18 161.628 156.63 156.843 157.237 157.404 157.764 
157.855 158.232 158.354 158.797 159.044 159.577 159.972 160.556 160.963 
161.458 161.75 162.122 156.696 156.828 157.203 157.398 157.773 157.972 
158.341 158.51 158.875 159.041 159.453 159.742 160.263 160.683 161.202 
161.57 161.959 162.219 162.547 159.051 159.056 159.231 159.561 159.184 
159.315 159.734 159.804 160.093 159.541 159.553 159.98 160.029 160.39 
160.383 160.694 160.104 160.001 160.382 160.348 160.766 160.758 161.185 
161.127 161.546 160.789 160.632 161.01 160.863 161.302 161.24 161.767 
161.721 162.21 162.094 162.494 161.447 161.331 161.747 161.583 162.019 
161.887 162.409 162.352 162.846 162.75 163.108 162.968 163.269 161.969 
161.923 162.346 162.286 162.727 162.625 163.091 163.007 163.438 163.334 
163.637 163.507 163.792 163.694 164.036 162.419 162.388 162.808 162.812 
163.278 163.253 163.702 163.641 164.035 163.916 164.188 164.014 164.263 
164.172 164.546 164.508 164.882 162.879 162.848 163.302 163.293 163.788 
163.769 164.211 164.169 164.547 164.474 164.767 164.6 164.814 164.651 
164.94 164.926 165.285 165.28 165.507 163.273 164.127 163.731 163.791 
164.932 164.633 164.736 164.289 164.295 165.578 165.381 165.535 165.188 
165.164 164.718 164.654 166.356 166.09 166.331 165.972 165.98 165.518 
165.413 164.996 164.932 167.264 166.993 167.296 166.9 166.968 166.406 
166.295 165.763 165.671 165.258 165.167 167.847 167.764 167.998 167.801 
167.854 167.417 167.256 166.696 166.512 166.018 165.863 165.424 165.239 
168.098 168.118 168.288 168.251 168.271 168.069 167.876 167.5 167.207 
166.779 166.503 166.08 165.85 165.448 165.312 168.32 168.335 168.582 
168.516 168.619 168.41 168.282 167.95 167.65 167.284 166.93 166.577 
166.27 165.966 165.813 165.561 165.549 168.511 168.578 168.897 168.886 
169.089 168.888 168.829 168.431 168.127 167.679 167.273 166.89 166.501 
166.235 165.988 165.87 165.798 165.729 165.693 163.115 162.981 163.334 
163.888 162.721 163.144 163.728 164.12 164.657 162.536 162.907 163.543 
163.941 164.495 164.819 165.291 162.547 162.811 163.447 163.808 164.417 
164.706 165.207 165.468 166.02 162.58 162.831 163.37 163.723 164.335 
164.669 165.229 165.478 166.039 166.321 166.928 162.428 162.744 163.189 
163.565 164.099 164.516 165.088 165.466 166.031 166.355 166.89 167.181 
167.601 162.172 162.497 162.926 163.302 163.79 164.211 164.743 165.202 
165.743 166.193 166.669 167.042 167.386 167.653 167.88 162.016 162.269 
162.702 163.034 163.527 163.907 164.419 164.833 165.325 165.775 166.207 
166.65 166.973 167.336 167.56 167.836 168.039 162.001 162.183 162.585 
162.851 163.32 163.664 164.162 164.537 164.997 165.371 165.758 166.143 
166.468 166.854 167.124 167.467 167.697 167.992 168.206 156.886 157.232 
157.132 157.317 157.583 157.441 157.595 157.571 157.833 158.15 157.872 
157.984 157.849 158.122 158.13 158.44 158.956 158.617 158.757 158.402 
158.64 158.495 158.853 158.79 159.056 159.721 159.499 159.749 159.346 
159.541 159.189 159.488 159.297 159.602 159.424 159.655 160.262 160.179 
160.492 160.284 160.487 160.147 160.332 160.025 160.255 160.023 160.281 
160.09 160.409 160.69 160.616 160.888 160.847 161.094 160.943 161.095 
160.824 160.932 160.669 160.846 160.69 161.001 160.911 161.284 161.151 
161.009 161.215 161.168 161.442 161.409 161.634 161.473 161.57 161.3 
161.391 161.2 161.447 161.405 161.762 161.732 162.038 161.659 161.476 
161.651 161.532 161.801 161.756 162.059 161.97 162.175 161.937 162.059 
161.783 161.996 161.851 162.205 162.159 162.513 162.422 162.671 156.731 
156.696 156.843 157.098 156.688 156.825 157.1 157.225 157.501 156.695 
156.842 157.16 157.28 157.594 157.69 158.05 156.642 156.844 157.205 
157.373 157.688 157.79 158.102 158.266 158.707 156.537 156.741 157.101 
157.362 157.709 157.866 158.121 158.255 158.594 158.881 159.353 156.655 
156.704 157.032 157.225 157.63 157.852 158.206 158.317 158.645 158.789 
159.226 159.503 159.954 157.066 156.997 157.325 157.311 157.714 157.84 
158.324 158.468 158.927 158.993 159.441 159.531 159.992 160.139 160.521 
157.472 157.453 157.796 157.736 158.103 158.094 158.563 158.666 159.192 
159.308 159.78 159.846 160.264 160.321 160.698 160.752 161.063 157.757 
157.786 158.126 158.155 158.523 158.53 158.944 158.985 159.453 159.556 
160.007 160.114 160.495 160.579 160.915 160.978 161.284 161.315 161.586 
158.029 158.645 158.328 158.397 159.412 159.017 159.06 158.758 158.855 
160.178 159.792 159.814 159.477 159.576 159.257 159.339 160.931 160.538 
160.553 160.214 160.306 160.005 160.107 159.76 159.833 161.779 161.348 
161.362 160.958 161.041 160.727 160.855 160.536 160.614 160.258 160.329 
162.598 162.22 162.244 161.815 161.861 161.489 161.619 161.299 161.405 
161.039 161.078 160.724 160.784 163.296 162.976 163.01 162.656 162.681 
162.315 162.397 162.073 162.187 161.839 161.879 161.484 161.496 161.149 
161.198 163.967 163.635 163.646 163.342 163.381 163.075 163.14 162.83 
162.915 162.597 162.642 162.273 162.26 161.878 161.879 161.545 161.569 
164.579 164.268 164.227 163.937 163.968 163.716 163.801 163.531 163.6 
163.294 163.319 162.986 162.965 162.609 162.576 162.228 162.213 161.888 
161.874 164.84 165.097 164.808 164.506 165.449 165.106 164.834 164.522 
164.275 165.85 165.505 165.234 164.905 164.692 164.373 164.15 166.173 
165.892 165.634 165.32 165.089 164.789 164.555 164.235 163.954 166.548 
166.249 166.054 165.721 165.467 165.149 164.87 164.575 164.261 163.96 
163.631 167.094 166.741 166.579 166.192 165.933 165.541 165.23 164.876 
164.544 164.223 163.88 163.589 163.257 167.609 167.298 167.085 166.719 
166.421 166.022 165.691 165.29 164.95 164.558 164.204 163.846 163.499 
163.201 162.876 167.946 167.699 167.433 167.13 166.788 166.445 166.093 
165.738 165.398 165.011 164.641 164.226 163.838 163.469 163.112 162.818 
162.502 168.181 167.952 167.682 167.41 167.083 166.764 166.419 166.091 
165.754 165.416 165.046 164.658 164.234 163.828 163.412 163.065 162.706 
162.437 162.134 165.081 165.409 165.294 165.342 165.732 165.641 165.823 
165.638 165.736 166.274 166.099 166.393 166.209 166.397 166.109 166.167 
166.846 166.707 166.948 166.81 166.982 166.754 166.75 166.451 166.414 
167.062 167.099 167.19 167.178 167.2 167.143 167.062 166.897 166.801 
166.617 166.675 167.121 167.192 167.27 167.231 167.154 167.136 167.074 
167.058 167.064 166.972 167.093 166.98 167.206 167.32 167.363 167.56 
167.397 167.342 167.139 167.14 167.094 167.295 167.281 167.544 167.449 
167.702 167.572 167.771 167.416 167.577 167.812 167.753 167.728 167.48 
167.451 167.315 167.549 167.575 167.915 167.897 168.146 168.046 168.214 
168.068 168.153 167.196 167.478 167.639 167.812 167.785 167.759 167.674 
167.614 167.72 167.791 168.056 168.153 168.381 168.391 168.552 168.474 
168.582 168.406 168.429 164.982 164.811 165.055 165.268 164.469 164.804 
165.049 165.27 165.502 164.061 164.436 164.761 165.039 165.349 165.592 
165.998 163.592 164.015 164.369 164.739 165.137 165.468 165.921 166.208 
166.623 163.018 163.492 163.809 164.262 164.627 165.131 165.573 166.03 
166.371 166.677 166.862 162.426 162.899 163.225 163.661 163.976 164.489 
164.888 165.467 165.781 166.227 166.352 166.681 166.81 161.852 162.321 
162.701 163.133 163.504 163.911 164.317 164.78 165.154 165.576 165.773 
166.103 166.255 166.633 166.902 161.278 161.731 162.111 162.612 163.044 
163.504 163.922 164.327 164.697 165.061 165.331 165.621 165.811 166.115 
166.357 166.766 167.024 160.817 161.177 161.513 161.994 162.411 162.96 
163.354 163.856 164.144 164.581 164.805 165.192 165.384 165.713 165.895 
166.235 166.421 166.802 166.912 160.755 160.964 161.001 161.4 161.251 
161.257 161.607 161.712 162.242 161.465 161.538 161.867 161.93 162.364 
162.571 163.133 161.592 161.723 162.119 162.19 162.564 162.675 163.126 
163.378 163.887 161.767 161.863 162.328 162.453 162.927 162.967 163.377 
163.425 163.874 164.084 164.565 161.986 162.036 162.406 162.602 163.141 
163.341 163.828 163.824 164.189 164.191 164.619 164.784 165.216 162.09 
162.162 162.362 162.556 162.961 163.35 163.845 164.123 164.434 164.503 
164.759 164.873 165.236 165.414 165.763 162.036 162.158 162.326 162.457 
162.756 163.065 163.501 163.893 164.22 164.484 164.675 164.88 165.139 
165.38 165.713 165.918 166.236 161.932 162.085 162.334 162.453 162.783 
162.954 163.373 163.61 163.975 164.194 164.455 164.672 164.957 165.218 
165.56 165.813 166.134 166.352 166.647 161.966 162.235 162.222 162.438 
162.404 162.488 162.79 162.753 162.98 162.442 162.566 162.913 163.054 
163.387 163.35 163.572 162.693 162.65 162.935 163.075 163.463 163.635 
163.936 163.909 164.076 163.208 163.065 163.315 163.229 163.565 163.658 
164.048 164.153 164.41 164.358 164.518 163.664 163.594 163.916 163.781 
164.075 163.945 164.286 164.296 164.684 164.692 164.984 164.862 165.083 
164.143 164.022 164.352 164.317 164.633 164.525 164.771 164.662 164.993 
165.005 165.399 165.369 165.658 165.495 165.71 164.823 164.566 164.752 
164.66 164.918 164.926 165.17 165.122 165.367 165.347 165.687 165.727 
166.041 166.002 166.202 166.073 166.244 165.437 165.203 165.215 165.021 
165.112 165.1 165.34 165.402 165.696 165.71 166.013 166.011 166.286 
166.276 166.472 166.437 166.608 166.544 166.73 167.058 166.851 167.114 
167.413 166.66 166.867 167.104 167.387 167.585 166.554 166.732 166.967 
167.133 167.355 167.525 167.64 166.369 166.635 166.932 167.086 167.305 
167.409 167.6 167.662 167.802 165.979 166.348 166.634 166.951 167.142 
167.342 167.5 167.655 167.857 167.942 168.125 165.501 165.845 166.053 
166.471 166.668 167.022 167.218 167.496 167.775 167.982 168.268 168.326 
168.484 165.264 165.413 165.586 165.881 166.142 166.511 166.863 167.216 
167.689 167.97 168.453 168.544 168.828 168.71 168.767 165.413 165.371 
165.532 165.597 165.872 166.122 166.561 166.933 167.51 167.913 168.513 
168.771 169.15 169.115 169.18 168.95 168.842 165.65 165.615 165.726 
165.685 165.876 165.997 166.376 166.689 167.198 167.647 168.17 168.633 
168.988 169.247 169.288 169.256 169.068 168.884 168.647 155.348 155.995 
155.627 155.594 156.585 156.276 156.249 155.935 156.008 157.153 156.871 
156.907 156.595 156.655 156.382 156.504 157.859 157.531 157.663 157.323 
157.404 157.049 157.119 156.846 156.983 158.692 158.32 158.453 158.124 
158.23 157.851 157.886 157.509 157.611 157.358 157.597 159.599 159.197 
159.292 158.92 159.024 158.662 158.725 158.327 158.433 158.094 158.362 
158.118 158.459 160.495 160.143 160.312 159.863 159.996 159.53 159.652 
159.209 159.38 159.002 159.297 158.996 159.349 159.056 159.333 161.195 
160.996 161.255 160.922 161.101 160.624 160.737 160.231 160.393 159.984 
160.261 159.952 160.258 159.956 160.17 159.84 159.969 161.65 161.567 
161.8 161.687 161.855 161.602 161.662 161.274 161.33 160.954 161.121 
160.836 161.049 160.78 160.909 160.6 160.649 160.348 160.416 155.006 
155.222 154.913 154.621 155.685 155.24 154.858 154.548 154.359 156.252 
155.808 155.444 154.94 154.637 154.366 154.359 156.788 156.4 156.128 
155.616 155.307 154.831 154.74 154.539 154.72 157.436 157.002 156.835 
156.35 156.138 155.607 155.512 155.121 155.264 155.066 155.3 158.255 
157.754 157.626 157.142 157.033 156.515 156.468 155.997 156.119 155.778 
156.002 155.722 155.909 159.06 158.579 158.406 157.956 157.865 157.427 
157.398 156.958 157.023 156.656 156.835 156.521 156.701 156.368 156.523 
159.707 159.305 159.114 158.697 158.593 158.212 158.188 157.813 157.825 
157.476 157.571 157.296 157.45 157.167 157.29 156.978 157.112 160.232 
159.902 159.773 159.388 159.306 158.928 158.92 158.561 158.579 158.218 
158.269 157.97 158.103 157.857 157.993 157.708 157.794 157.51 157.622 
154.851 154.575 154.713 154.735 154.396 154.54 154.72 154.777 154.815 
154.413 154.458 154.667 154.785 154.873 154.845 154.755 154.727 154.6 
154.724 154.747 154.777 154.784 154.649 154.648 154.577 155.193 154.966 
155.009 154.895 154.891 154.75 154.631 154.522 154.511 154.567 154.755 
155.683 155.389 155.36 155.207 155.261 155.059 155.05 154.763 154.841 
154.698 154.987 154.988 155.277 156.273 155.892 155.802 155.564 155.63 
155.48 155.585 155.357 155.469 155.24 155.488 155.379 155.667 155.564 
155.717 156.922 156.539 156.45 156.095 156.095 155.868 155.962 155.829 
155.954 155.822 155.973 155.868 156.061 155.97 156.111 155.962 156.05 
157.488 157.186 157.141 156.789 156.733 156.394 156.384 156.179 156.283 
156.191 156.346 156.26 156.407 156.312 156.446 156.336 156.449 156.311 
156.446 164.674 164.025 164.422 164.486 163.286 163.682 163.717 164.124 
164.114 162.557 162.924 162.905 163.302 163.298 163.703 163.682 161.755 
162.155 162.118 162.502 162.466 162.865 162.836 163.248 163.203 160.927 
161.321 161.289 161.686 161.632 162.028 161.942 162.35 162.258 162.698 
162.612 160.18 160.538 160.497 160.855 160.785 161.166 161.06 161.441 
161.298 161.707 161.604 162.068 162.001 159.407 159.79 159.733 160.082 
159.965 160.31 160.183 160.553 160.422 160.786 160.672 161.081 161.032 
161.488 161.444 158.614 158.98 158.922 159.292 159.158 159.482 159.31 
159.667 159.544 159.929 159.83 160.209 160.147 160.561 160.537 160.964 
160.918 157.962 158.23 158.174 158.5 158.404 158.693 158.527 158.82 
158.695 159.061 158.996 159.381 159.323 159.711 159.686 160.098 160.103 
160.497 160.497 
POINT_DATA 1002
SCALARS Distance double
LOOKUP_TABLE default
161.981 161.744 161.371 161.61 160.925 162.213 161.118 160.443 161.747 
162.261 160.633 160.112 161.174 161.806 162.369 160.432 159.971 160.759 
161.37 162.175 162.83 160.353 159.712 160.712 161.186 162.019 162.764 
163.314 160.017 159.31 160.617 161.178 161.953 162.682 163.176 163.695 
159.641 159.104 160.251 160.921 161.766 162.574 163.151 163.726 164.349 
159.49 159.077 159.974 160.544 161.367 162.308 163.056 163.775 164.578 
165.159 159.36 158.935 159.849 160.341 161.023 161.977 162.843 163.567 
164.423 165.242 165.663 161.329 160.828 160.763 160.204 159.99 160.291 
159.467 159.101 159.627 159.789 158.562 158.193 158.898 159.119 159.486 
157.637 157.401 158.037 158.44 158.812 159.265 157.032 156.851 157.292 
157.704 158.137 158.516 158.909 156.616 156.354 156.815 157.067 157.426 
157.808 158.22 158.67 155.984 155.709 156.213 156.472 156.805 157.159 
157.621 158.2 158.706 155.254 155.084 155.396 155.692 156.207 156.68 
157.096 157.704 158.336 158.717 154.787 154.777 154.751 154.57 154.782 
154.853 154.633 154.644 154.759 155.417 154.801 154.63 155.056 155.583 
156.21 155.064 155.025 155.363 155.835 156.33 156.719 155.337 155.48 
155.57 156.006 156.388 156.763 157.23 155.551 155.788 155.749 156.28 
156.656 156.893 157.339 157.911 155.895 156.149 156.008 156.566 157.056 
157.183 157.354 157.818 158.343 156.435 156.617 156.442 156.781 157.19 
157.302 157.266 157.459 157.929 158.479 158.859 158.188 158.835 157.554 
158.12 159.081 157.171 157.559 158.549 159.6 157.097 157.242 158.142 
159.273 160.251 157.183 157.15 157.84 158.95 159.987 160.931 157.184 
157.285 157.718 158.65 159.682 160.671 161.533 157.075 157.514 157.898 
158.519 159.388 160.413 161.337 162.015 157.014 157.624 158.155 158.646 
159.228 160.117 161.14 161.898 162.454 157.038 157.558 158.139 158.731 
159.25 159.882 160.792 161.674 162.305 162.882 159.474 159.637 160.091 
159.943 160.36 160.719 160.461 160.743 161.197 161.641 161.186 161.386 
161.781 162.326 162.664 161.878 162.179 162.497 162.951 163.262 163.398 
162.359 162.802 163.203 163.576 163.79 163.861 164.118 162.789 163.276 
163.756 164.146 164.385 164.392 164.538 164.983 163.302 163.814 164.275 
164.604 164.893 165.025 165.027 165.259 165.617 163.636 164.257 164.489 
165.155 165.153 164.796 165.836 165.746 165.614 165.084 166.691 166.633 
166.468 165.858 165.3 167.656 167.504 167.543 166.895 166.134 165.583 
168.132 167.907 168.206 167.812 167.063 166.342 165.667 168.315 168.073 
168.418 168.191 167.628 166.935 166.233 165.653 168.618 168.269 168.815 
168.625 168.034 167.293 166.564 166.014 165.774 168.849 168.416 169.227 
169.226 168.637 167.713 166.813 166.128 165.824 165.799 162.826 163.541 
162.577 163.314 162.273 164.331 163.134 162.201 164.181 164.975 163.099 
162.342 164.109 164.963 165.684 163.051 162.348 163.961 164.936 165.788 
166.648 162.834 162.102 163.684 164.652 165.677 166.63 167.394 162.555 
161.859 163.39 164.299 165.278 166.275 167.105 167.661 162.393 161.797 
163.158 164.035 164.924 165.775 166.572 167.243 167.776 162.359 161.847 
163.004 163.798 164.653 165.416 166.085 166.748 167.383 167.934 157.004 
157.355 157.338 157.631 157.782 157.802 158.207 158.465 158.116 158.451 
159.18 159.225 158.885 158.92 159.188 160.092 159.847 159.975 159.764 
159.783 159.835 160.6 160.341 160.785 160.702 160.53 160.453 160.555 
160.907 160.824 161.158 161.342 161.243 161.025 161.063 161.387 161.297 
161.335 161.441 161.727 161.836 161.636 161.514 161.765 162.135 156.573 
156.954 156.562 156.962 156.543 157.385 157.025 156.518 157.497 157.904 
156.992 156.418 157.6 157.971 158.432 156.815 156.38 157.497 158.031 
158.363 158.987 156.919 156.669 157.366 158.03 158.558 159.017 159.675 
157.407 157.125 157.651 158.127 158.817 159.407 159.902 160.401 157.829 
157.465 158.153 158.506 159.056 159.703 160.231 160.661 161.034 158.065 