# vtk DataFile Version 4.0
vtk output
ASCII
DATASET POLYDATA
POINTS 1002 float
-120.423 -103.765 52.9275 -120.688 -103.432 52.4812 -120.191 -103.609 52.3407 
-120.002 -104.105 52.7281 -119.729 -103.87 52.2626 -120.195 -104.26 53.3868 
-119.533 -104.523 52.5656 -119.046 -104.107 52.3156 -119.765 -104.698 53.1574 
-119.973 -104.796 53.8283 -118.625 -104.754 52.5995 -118.057 -104.219 52.476 
-119.064 -105.019 53.0363 -119.31 -105.059 53.7794 -119.665 -105.235 54.3256 
-117.436 -104.801 52.8072 -117.075 -104.343 52.6391 -117.958 -105.073 53.159 
-118.354 -105.117 53.8859 -118.724 -105.237 54.5726 -119.228 -105.513 55.04 
-116.443 -105.01 52.9584 -116.211 -104.695 52.6131 -116.922 -105.151 53.4156 
-117.438 -105.214 54.0436 -117.814 -105.325 54.7635 -118.266 -105.516 55.3673 
-118.775 -105.692 55.9071 -115.646 -105.437 52.9195 -115.377 -105.138 52.4629 
-116.098 -105.463 53.5973 -116.708 -105.492 54.2316 -117.172 -105.673 54.789 
-117.532 -105.832 55.4127 -117.986 -105.887 56.0877 -118.443 -105.957 56.6715 
-115.032 -105.703 53.0175 -114.762 -105.318 52.6411 -115.343 -105.773 53.6955 
-115.836 -105.733 54.4564 -116.396 -105.907 54.9981 -116.842 -106.152 55.4389 
-117.279 -106.218 56.0546 -117.756 -106.216 56.7579 -118.21 -106.29 57.3331 
-114.66 -105.618 53.5491 -114.42 -105.169 53.2785 -114.813 -105.86 53.9632 
-115.017 -105.874 54.6448 -115.425 -105.98 55.3781 -115.944 -106.271 55.8427 
-116.467 -106.421 56.2094 -116.982 -106.392 56.7821 -117.487 -106.413 57.4691 
-117.971 -106.496 58.0771 -114.298 -105.38 54.2301 -114.12 -104.923 53.9809 
-114.399 -105.798 54.4161 -114.486 -106.005 54.8376 -114.727 -106.164 55.6213 
-115.151 -106.537 56.3174 -115.666 -106.808 56.6274 -116.189 -106.665 56.94 
-116.688 -106.443 57.5534 -117.195 -106.449 58.2768 -117.703 -106.577 58.8862 
-120.631 -103.283 51.9376 -120.064 -103.406 51.8289 -120.531 -103.055 51.3632 
-119.838 -103.136 51.2719 -120.269 -102.47 50.9624 -119.402 -103.532 51.8603 
-119.51 -102.576 50.8852 -119.882 -101.563 50.8819 -118.993 -103.228 51.2653 
-118.556 -103.636 51.9778 -119.203 -101.722 50.8392 -119.574 -100.833 50.6521 
-118.643 -102.752 50.8151 -118.122 -103.298 51.3489 -117.687 -103.696 52.1815 
-118.958 -100.908 50.6213 -119.302 -100.454 49.8349 -118.433 -101.884 50.8351 
-117.84 -102.804 50.978 -117.428 -103.264 51.7346 -116.902 -103.841 52.4101 
-118.624 -100.375 49.9447 -118.901 -100.139 49.0456 -118.237 -100.936 50.7869 
-117.657 -101.923 51.0609 -117.174 -102.709 51.4962 -116.675 -103.307 52.1748 
-115.962 -104.209 52.389 -118.216 -100.075 49.4388 -118.474 -99.752 48.9244 
-117.934 -100.392 50.4055 -117.434 -101.101 51.0178 -116.885 -102.045 51.3132 
-116.342 -102.794 51.8612 -115.622 -103.617 52.2261 -114.995 -104.601 52.2853 
-117.872 -99.7633 49.3942 -118.135 -99.2752 49.1719 -117.615 -100.155 50.1058 
-117.152 -100.666 50.7917 -116.562 -101.503 51.0592 -116.007 -102.353 51.4158 
-115.35 -103.102 51.9338 -114.688 -103.96 52.2188 -114.393 -104.723 52.583 
-117.571 -99.2408 49.4852 -117.837 -98.7015 49.3524 -117.331 -99.775 49.9855 
-116.916 -100.296 50.6342 -116.304 -100.999 50.972 -115.719 -101.84 51.1867 
-115.191 -102.588 51.6624 -114.617 -103.336 52.1446 -114.2 -104.087 52.5721 
-114.101 -104.609 53.2265 -117.351 -98.398 49.5366 -117.086 -98.9692 49.8327 
-116.91 -98.1814 50.0035 -116.588 -98.7523 50.4174 -116.568 -98.279 50.8694 
-116.773 -99.5798 50.4345 -116.157 -98.8537 51.2355 -116.237 -98.6488 51.7951 
-116.202 -99.4023 50.9714 -116.236 -100.252 50.976 -115.673 -99.1912 51.9847 
-115.737 -98.9221 52.4224 -115.633 -99.4881 51.5378 -115.58 -100.164 51.3679 
-115.561 -101.081 51.2606 -115.074 -99.4034 52.6595 -115.166 -99.0199 52.9955 
-114.976 -99.7512 52.1272 -114.915 -100.243 51.7774 -114.907 -101.018 51.7382 
-115.016 -101.907 51.6672 -114.624 -99.5614 53.501 -114.781 -99.2718 53.7609 
-114.468 -100.001 53.0221 -114.364 -100.52 52.4454 -114.37 -101.097 52.2873 
-114.483 -101.863 52.3349 -114.575 -102.695 52.2291 -114.399 -99.9411 54.3227 
-114.597 -99.7621 54.5325 -114.269 -100.353 54.0657 -114.173 -100.919 53.5483 
-114.096 -101.432 53.1403 -114.118 -102.016 53.0543 -114.172 -102.793 52.9412 
-114.162 -103.531 52.728 -114.207 -100.427 54.9569 -114.474 -100.251 55.2251 
-114.061 -100.797 54.8093 -114.031 -101.335 54.5448 -113.938 -101.819 54.1772 
-113.817 -102.302 53.9257 -113.799 -102.971 53.7178 -113.834 -103.657 53.4928 
-113.912 -104.177 53.3472 -113.987 -100.801 55.5843 -114.327 -100.598 55.9255 
-113.716 -101.132 55.3732 -113.621 -101.604 55.1701 -113.52 -102.041 54.897 
-113.336 -102.449 54.6662 -113.284 -103.034 54.459 -113.392 -103.697 54.2205 
-113.556 -104.19 54.0976 -113.8 -104.548 54.0824 -113.742 -105.035 54.6324 
-113.365 -104.667 54.6496 -113.086 -105.366 54.949 -113.102 -104.244 54.6605 
-112.819 -104.889 55.0314 -112.491 -105.736 55.3288 -112.824 -103.641 54.8226 
-112.637 -104.22 55.2431 -112.454 -105.022 55.7045 -112.306 -105.757 56.1841 
-112.569 -102.958 54.9904 -112.203 -103.49 55.4293 -112.271 -104.152 56.1122 
-112.311 -104.911 56.7327 -112.422 -105.439 57.1206 -112.654 -102.453 55.1562 
-111.897 -102.918 55.5106 -111.769 -103.528 56.2306 -112.008 -104.17 57.0652 
-112.217 -104.766 57.5533 -112.504 -105.225 57.8179 -112.953 -102.074 55.5053 
-112.19 -102.499 55.875 -111.718 -103.117 56.4398 -111.692 -103.77 57.1965 
-111.887 -104.317 57.8163 -112.122 -104.838 58.2261 -112.44 -105.303 58.6651 
-113.178 -101.652 55.8804 -112.647 -102.101 56.4617 -112.217 -102.662 57.0433 
-111.895 -103.324 57.6129 -111.768 -103.921 58.1453 -111.858 -104.486 58.6342 
-112.068 -105.029 59.1646 -112.395 -105.44 59.695 -113.479 -101.271 56.1437 
-112.991 -101.744 56.8226 -112.644 -102.262 57.4885 -112.3 -102.799 58.0582 
-111.918 -103.306 58.5735 -111.753 -103.889 59.0803 -111.884 -104.556 59.6118 
-112.162 -105.101 60.1239 -112.554 -105.431 60.497 -113.906 -101.005 56.4358 
-113.41 -101.465 57.0188 -112.992 -101.992 57.5955 -112.646 -102.481 58.1442 
-112.216 -102.819 58.7401 -111.834 -103.184 59.3729 -111.805 -103.801 59.9444 
-112.094 -104.503 60.4146 -112.48 -105.015 60.7678 -112.908 -105.316 60.9987 
-113.777 -105.607 54.78 -113.025 -106.045 55.1122 -113.872 -106.086 54.98 
-112.534 -106.3 55.7557 -113.337 -106.462 55.6431 -114.167 -106.38 55.648 
-112.586 -106.062 56.704 -113.129 -106.533 56.548 -113.966 -106.9 56.5672 
-114.606 -106.896 56.5458 -112.876 -105.669 57.4723 -113.271 -106.21 57.282 
-113.835 -107.079 57.2277 -114.49 -107.762 57.1634 -115.061 -107.496 56.9955 
-112.975 -105.566 58.2883 -113.472 -105.887 57.9475 -113.805 -106.655 57.6734 
-114.255 -107.771 57.4427 -114.904 -108.076 57.3164 -115.548 -107.357 57.1908 
-112.901 -105.671 59.3757 -113.517 -105.836 58.981 -113.911 -106.142 58.5342 
-114.203 -106.869 58.0838 -114.757 -107.463 57.8333 -115.435 -107.234 57.8162 
-116.051 -106.682 57.7568 -112.956 -105.697 60.3009 -113.56 -105.891 60.0323 
-114.076 -106.022 59.691 -114.411 -106.255 59.2442 -114.865 -106.577 58.8631 
-115.463 -106.623 58.7674 -116.003 -106.425 58.7734 -116.558 -106.362 58.6026 
-113.236 -105.599 60.882 -113.78 -105.854 60.7343 -114.318 -106.091 60.603 
-114.673 -106.326 60.3789 -115.055 -106.543 60.0066 -115.591 -106.602 59.7398 
-116.088 -106.505 59.691 -116.545 -106.466 59.6029 -117.104 -106.534 59.31 
-113.494 -105.406 61.4303 -113.96 -105.694 61.3409 -114.085 -105.601 62.1161 
-114.671 -105.903 62.0734 -114.61 -105.885 62.9785 -114.55 -106.018 61.3032 
-115.237 -106.204 62.8513 -115.172 -106.125 63.5846 -115.167 -106.35 62.1119 
-114.927 -106.467 61.3152 -115.786 -106.515 63.2581 -115.855 -106.296 63.8559 
-115.561 -106.8 62.7838 -115.302 -107.088 62.098 -115.161 -106.982 61.0913 
-116.472 -106.847 63.5662 -116.591 -106.523 64.1702 -116.073 -107.237 63.0994 
-115.619 -107.644 62.5989 -115.495 -107.788 61.6547 -115.609 -107.274 60.6253 
-117.203 -107.194 64.1036 -117.338 -106.772 64.5168 -116.873 -107.602 63.5153 
-116.32 -107.885 62.9134 -115.977 -108.117 61.9942 -116.057 -107.996 60.9743 
-116.181 -107.227 60.3102 -117.849 -107.378 64.4413 -118.092 -106.818 64.5983 
-117.66 -107.829 64.0171 -117.313 -107.962 63.3685 -116.872 -107.975 62.3766 
-116.685 -108.117 61.2244 -116.731 -107.862 60.5318 -116.696 -107.077 60.1905 
-118.471 -107.26 64.344 -118.814 -106.605 64.4688 -118.297 -107.817 64.1218 
-118.193 -108.006 63.692 -117.93 -107.898 62.8199 -117.589 -107.961 61.5895 
-117.418 -108.035 60.679 -117.361 -107.612 60.3426 -117.25 -106.945 60.0071 
-119.171 -106.957 64.1637 -119.487 -106.31 64.3633 -118.969 -107.591 63.9543 
-118.94 -107.961 63.6816 -118.886 -107.994 63.0527 -118.602 -107.996 61.9556 
-118.229 -108.03 60.9304 -118.016 -107.754 60.4569 -117.934 -107.209 60.196 
-117.836 -106.778 59.6634 -113.101 -105.003 61.297 -113.645 -105.174 61.8904 
-113.405 -104.594 61.5812 -113.872 -104.826 62.3376 -113.702 -104.107 61.8957 
-114.066 -105.457 62.7925 -114.038 -104.272 62.755 -113.906 -103.578 62.2905 
-114.133 -105.073 63.3288 -114.472 -105.737 63.7073 -114.128 -103.58 63.1899 
-114.172 -103.049 62.6425 -114.233 -104.343 63.6776 -114.489 -105.219 64.1722 
-115.077 -105.883 64.2256 -114.426 -102.992 63.4085 -114.639 -102.575 62.711 
-114.463 -103.551 63.9022 -114.728 -104.348 64.3332 -115.151 -105.272 64.5675 
-115.841 -105.989 64.4104 -115.026 -102.617 63.1519 -115.17 -102.168 62.5136 
-115.028 -103.067 63.7839 -115.293 -103.581 64.2887 -115.586 -104.354 64.5648 
-116.014 -105.343 64.5623 -116.703 -106.162 64.5116 -115.716 -102.278 62.7243 
-115.699 -101.791 62.2874 -115.773 -102.784 63.3091 -116.04 -103.21 63.983 
-116.32 -103.598 64.4474 -116.572 -104.344 64.4996 -117.082 -105.394 64.4568 
-117.7 -106.244 64.5654 -116.381 -101.816 62.5396 -116.264 -101.42 62.147 
-116.458 -102.331 62.9457 -116.647 -102.907 63.5225 -116.932 -103.262 64.1819 
-117.21 -103.554 64.5049 -117.652 -104.305 64.4704 -118.247 -105.322 64.4817 
-118.658 -106.093 64.5587 -116.92 -101.303 62.5522 -116.751 -101.058 62.042 
-117.008 -101.7 62.8883 -117.095 -102.347 63.1901 -117.301 -102.972 63.7108 
[...]
CELL_DATA 2000
SCALARS Distance double
LOOKUP_TABLE default
166.341 166.128 166.342 166.587 165.913 166.184 166.458 166.648 166.901 
165.446 165.869 166.14 166.458 166.645 166.898 167.111 164.813 165.261 
165.489 165.944 166.093 166.475 166.605 166.987 167.198 164.319 164.65 
164.867 165.258 165.477 165.858 166.05 166.414 166.638 167.04 167.294 
163.969 164.244 164.486 164.777 165.078 165.388 165.705 165.987 166.289 
166.575 166.879 167.196 167.474 163.69 163.951 164.211 164.47 164.743 
165.06 165.376 165.712 166.015 166.31 166.589 166.872 167.155 167.441 
167.717 163.514 163.742 164.012 164.219 164.429 164.693 164.941 165.307 
165.599 165.972 166.231 166.554 166.787 167.105 167.353 167.68 167.938 
163.365 163.591 163.845 164.037 164.221 164.405 164.633 164.905 165.263 
165.592 165.963 166.231 166.494 166.728 166.936 167.243 167.475 167.843 
168.09 166.188 165.831 165.965 165.904 165.308 165.541 165.42 165.649 
165.602 164.561 164.915 164.796 165.068 164.939 165.243 165.131 163.771 
164.137 164.077 164.382 164.248 164.531 164.413 164.708 164.574 163.047 
163.386 163.345 163.67 163.582 163.854 163.766 164.041 163.977 164.215 
164.122 162.319 162.651 162.59 162.945 162.887 163.199 163.138 163.433 
163.386 163.655 163.576 163.805 163.726 161.671 161.938 161.894 162.214 
162.187 162.504 162.465 162.787 162.739 163.043 162.943 163.207 163.097 
163.387 163.369 161.169 161.379 161.374 161.621 161.625 161.871 161.839 
162.116 162.077 162.379 162.302 162.562 162.456 162.727 162.712 163.064 
163.157 160.672 160.902 160.892 161.154 161.16 161.384 161.333 161.543 
161.486 161.744 161.709 161.965 161.922 162.152 162.159 162.448 162.557 
162.915 163.046 160.339 159.938 160.261 160.584 159.758 159.916 160.214 
160.558 160.873 159.882 159.842 159.995 160.208 160.49 160.811 161.047 
160.013 159.973 159.972 160.035 160.18 160.423 160.647 160.952 161.181 
159.937 159.983 159.94 159.97 159.984 160.132 160.297 160.57 160.831 
161.137 161.408 159.945 159.921 159.96 159.932 159.972 159.993 160.146 
160.303 160.598 160.854 161.18 161.427 161.685 160.251 160.1 160.236 
160.12 160.3 160.179 160.402 160.348 160.669 160.763 161.143 161.304 
161.623 161.756 162 160.671 160.488 160.607 160.505 160.733 160.644 
160.884 160.764 161.011 160.971 161.288 161.367 161.694 161.79 162.066 
162.143 162.412 161.036 160.862 160.883 160.812 160.943 160.966 161.109 
161.116 161.201 161.216 161.351 161.463 161.691 161.844 162.088 162.215 
162.461 162.581 162.857 163.019 162.582 162.864 162.97 162.172 162.42 
162.502 162.77 162.874 161.73 161.967 162.018 162.306 162.44 162.74 
162.939 161.318 161.469 161.425 161.737 161.864 162.28 162.522 162.881 
163.126 161.145 161.128 160.989 161.135 161.213 161.63 161.918 162.395 
162.68 163.052 163.289 161.12 161.072 160.971 160.905 160.977 161.139 
161.467 161.83 162.21 162.584 162.888 163.222 163.518 161.037 161.071 
161.096 161.045 161.176 161.173 161.482 161.614 161.996 162.229 162.589 
162.874 163.227 163.537 163.902 161.023 161.046 161.171 161.188 161.379 
161.418 161.672 161.738 161.987 162.112 162.374 162.618 162.955 163.278 
163.657 163.971 164.327 161.197 161.164 161.333 161.318 161.525 161.569 
161.799 161.863 162.03 162.088 162.22 162.381 162.625 162.955 163.325 
163.703 164.076 164.387 164.708 163.328 163.28 163.483 163.774 163.178 
163.384 163.723 163.909 164.164 163.238 163.343 163.728 163.901 164.295 
164.371 164.656 163.432 163.486 163.882 164.018 164.566 164.669 165.155 
165.065 165.401 163.623 163.691 164.068 164.205 164.768 164.992 165.637 
165.696 166.123 165.917 166.151 163.875 163.912 164.289 164.377 164.823 
165.077 165.655 165.99 166.458 166.532 166.69 166.516 166.592 164.253 
164.244 164.64 164.648 165.013 165.1 165.492 165.792 166.201 166.531 
166.728 166.813 166.83 166.782 166.893 164.655 164.65 165.051 165.05 
165.429 165.384 165.709 165.728 166.077 166.249 166.564 166.713 166.887 
166.918 167.083 167.104 167.379 165.017 165.024 165.42 165.453 165.882 
165.86 166.247 166.14 166.512 166.429 166.831 166.795 167.158 167.101 
167.415 167.365 167.705 167.697 168.04 165.339 166.044 165.699 165.774 
166.885 166.495 166.589 166.212 166.288 167.713 167.365 167.482 167.096 
167.181 166.749 166.73 168.433 168.147 168.278 167.961 168.068 167.674 
167.682 167.17 167.057 169.176 168.877 169.03 168.715 168.833 168.504 
168.559 168.131 168.063 167.501 167.357 170.002 169.702 169.91 169.537 
169.639 169.25 169.278 168.917 168.894 168.467 168.344 167.795 167.632 
170.688 170.501 170.733 170.442 170.537 170.107 170.045 169.606 169.533 
169.183 169.126 168.713 168.572 168.039 167.878 171.091 171.027 171.222 
171.115 171.231 170.944 170.873 170.404 170.25 169.819 169.753 169.41 
169.353 168.928 168.792 168.275 168.152 171.354 171.314 171.49 171.463 
171.634 171.51 171.551 171.201 171.081 170.6 170.469 170.053 169.973 
169.616 169.504 169.105 168.959 168.522 168.418 165.233 165.308 165.48 
165.931 165.364 165.574 166.056 166.24 166.743 165.329 165.587 166.066 
166.325 166.824 167.058 167.549 165.241 165.478 165.887 166.216 166.695 
167.044 167.541 167.811 168.261 165.228 165.379 165.709 165.979 166.42 
166.807 167.322 167.707 168.205 168.488 168.959 165.289 165.4 165.726 
165.885 166.317 166.582 167.089 167.442 167.971 168.348 168.88 169.207 
169.725 165.356 165.478 165.843 165.98 166.441 166.618 167.109 167.314 
167.791 168.095 168.638 169.045 169.618 169.97 170.434 165.448 165.568 
165.937 166.09 166.534 166.748 167.224 167.407 167.813 167.992 168.447 
168.788 169.373 169.795 170.314 170.601 170.92 165.537 165.666 165.989 
166.139 166.495 166.736 167.159 167.432 167.825 168.023 168.389 168.634 
169.125 169.521 170.059 170.43 170.805 171.008 171.219 161.373 161.631 
161.53 161.523 161.782 161.77 161.844 161.699 161.715 161.986 161.956 
162.139 162.039 162.111 161.931 161.971 162.413 162.286 162.528 162.412 
162.575 162.374 162.396 162.173 162.168 162.929 162.781 163.002 162.877 
163.084 162.898 162.946 162.644 162.558 162.305 162.3 163.393 163.256 
163.444 163.338 163.53 163.401 163.49 163.22 163.14 162.779 162.727 
162.501 162.666 163.913 163.717 163.903 163.766 163.969 163.838 163.978 
163.759 163.777 163.427 163.42 163.081 163.247 163.057 163.386 164.553 
164.297 164.467 164.268 164.479 164.316 164.497 164.29 164.401 164.108 
164.205 163.867 164.052 163.77 164.067 163.872 164.184 165.188 164.95 
165.08 164.854 165.01 164.833 164.99 164.816 164.944 164.735 164.882 
164.645 164.854 164.598 164.85 164.6 164.848 164.626 164.839 161.32 
161.208 161.372 161.526 161.03 161.193 161.315 161.485 161.602 161.04 
161.087 161.222 161.288 161.414 161.559 161.769 161.239 161.232 161.434 
161.378 161.544 161.514 161.751 161.861 162.206 161.37 161.422 161.671 
161.691 161.913 161.823 162.024 161.982 162.283 162.397 162.753 161.489 
161.504 161.749 161.865 162.168 162.197 162.407 162.324 162.535 162.537 
162.843 162.945 163.259 161.828 161.714 161.946 161.967 162.322 162.408 
162.729 162.7 162.937 162.856 163.139 163.124 163.46 163.492 163.822 
162.308 162.16 162.38 162.28 162.59 162.612 162.986 163.019 163.352 
163.3 163.597 163.517 163.835 163.793 164.134 164.131 164.479 162.725 
162.635 162.837 162.73 162.955 162.915 163.223 163.273 163.63 163.677 
163.988 163.96 164.21 164.165 164.425 164.436 164.742 164.788 165.101 
162.985 163.421 163.178 163.121 163.949 163.648 163.595 163.31 163.251 
164.643 164.265 164.223 163.853 163.806 163.489 163.501 165.406 165.016 
164.987 164.572 164.53 164.133 164.147 163.831 163.91 166.101 165.747 
165.693 165.323 165.281 164.903 164.892 164.532 164.558 164.252 164.284 
166.717 166.394 166.312 165.964 165.909 165.595 165.591 165.265 165.221 
164.875 164.807 164.522 164.476 167.289 166.999 166.956 166.592 166.531 
166.196 166.209 165.918 165.891 165.52 165.381 165.014 164.92 164.667 
164.66 167.822 167.569 167.585 167.262 167.215 166.848 166.823 166.519 
166.519 166.182 166.067 165.637 165.506 165.156 165.169 164.926 164.997 
168.308 168.079 168.1 167.858 167.834 167.514 167.44 167.116 167.067 
166.773 166.693 166.323 166.188 165.8 165.765 165.483 165.564 165.32 
165.378 168.556 168.79 168.562 168.334 169.01 168.784 168.566 168.345 
168.087 169.332 169.048 168.832 168.576 168.309 168.042 167.715 169.795 
169.444 169.221 168.893 168.615 168.287 167.946 167.641 167.316 170.301 
169.925 169.664 169.312 169.028 168.659 168.3 167.915 167.537 167.243 
166.914 170.762 170.386 170.052 169.707 169.396 169.07 168.711 168.31 
167.864 167.476 167.064 166.796 166.439 171.126 170.791 170.408 170.045 
169.67 169.366 169.005 168.676 168.22 167.809 167.33 166.973 166.61 
166.344 166.057 171.317 171.087 170.72 170.376 169.934 169.591 169.171 
168.888 168.472 168.132 167.67 167.278 166.889 166.577 166.321 166.066 
165.854 171.328 171.208 170.897 170.639 170.177 169.817 169.303 169 
168.577 168.332 167.946 167.623 167.228 166.886 166.575 166.322 166.091 
165.878 165.646 168.801 169.296 169.057 169.04 169.709 169.555 169.546 
169.269 169.245 169.998 169.946 170.034 169.787 169.748 169.482 169.531 
170.337 170.289 170.485 170.282 170.273 169.986 170.009 169.82 169.972 
170.731 170.707 170.973 170.799 170.837 170.514 170.493 170.274 170.433 
170.319 170.519 170.981 171.064 171.396 171.328 171.447 171.129 171.069 
170.755 170.86 170.756 171.023 170.899 171.057 171.116 171.257 171.644 
171.7 171.907 171.721 171.673 171.338 171.344 171.179 171.436 171.383 
171.616 171.414 171.454 171.249 171.399 171.783 171.888 172.091 172.054 
172.006 171.811 171.729 171.597 171.762 171.765 172.015 171.919 171.968 
171.706 171.608 171.309 171.498 171.815 171.951 172.062 172.097 171.986 
171.932 171.786 171.779 171.861 171.976 172.213 172.249 172.321 172.136 
171.995 171.729 171.559 168.704 168.636 168.858 169.194 168.43 168.713 
169.01 169.269 169.524 168.203 168.461 168.711 168.977 169.185 169.473 
169.709 168.118 168.313 168.637 168.777 169.036 169.178 169.445 169.689 
170.026 168.089 168.311 168.766 168.898 169.297 169.294 169.612 169.621 
169.942 170.103 170.438 167.942 168.239 168.7 169.006 169.477 169.636 
169.957 169.936 170.12 170.116 170.284 170.444 170.654 167.721 168.023 
168.405 168.786 169.228 169.613 169.959 170.144 170.251 170.248 170.228 
170.267 170.313 170.539 170.726 167.512 167.799 168.149 168.453 168.836 
169.231 169.631 169.975 170.206 170.297 170.285 170.218 170.156 170.211 
170.298 170.587 170.827 167.275 167.596 167.954 168.219 168.523 168.836 
169.179 169.58 169.918 170.201 170.337 170.331 170.259 170.15 170.108 
170.201 170.339 170.676 170.91 167.234 167.324 167.53 167.929 167.277 
167.538 167.945 168.13 168.459 167.317 167.487 167.851 168.047 168.394 
168.621 169.028 167.512 167.616 167.916 167.981 168.263 168.48 168.941 
169.263 169.752 167.499 167.744 168.023 168.091 168.254 168.362 168.722 
169.085 169.615 169.96 170.263 167.206 167.548 167.843 168.072 168.21 
168.323 168.508 168.799 169.208 169.66 169.984 170.241 170.244 166.968 
167.236 167.557 167.822 168.051 168.209 168.377 168.562 168.847 169.202 
169.521 169.85 169.959 170.096 170.068 166.814 167.047 167.376 167.618 
167.93 168.098 168.36 168.48 168.79 168.972 169.332 169.526 169.779 
169.883 170.027 170.076 170.254 166.616 166.861 167.167 167.449 167.777 
168.016 168.321 168.498 168.85 169.022 169.441 169.57 169.919 169.936 
170.18 170.167 170.426 170.463 170.782 166.602 166.808 166.823 167.143 
167.097 167.065 167.35 167.412 167.763 167.399 167.382 167.645 167.645 
167.987 168.042 168.361 167.612 167.689 168.009 167.982 168.297 168.302 
168.682 168.685 168.997 167.7 167.861 168.242 168.314 168.619 168.629 
168.998 169.046 169.468 169.416 169.687 167.799 167.927 168.313 168.468 
168.814 168.894 169.218 169.313 169.719 169.826 170.161 170.073 170.178 
168.018 168.067 168.436 168.555 168.977 169.081 169.446 169.503 169.833 
169.955 170.277 170.375 170.538 170.427 170.413 168.266 168.309 168.649 
168.727 169.15 169.282 169.709 169.768 170.066 170.074 170.309 170.391 
170.614 170.663 170.786 170.647 170.672 168.453 168.534 168.843 168.914 
169.246 169.404 169.789 169.962 170.257 170.301 170.452 170.453 170.625 
170.705 170.941 170.974 171.152 170.989 171.062 171.392 171.421 171.588 
171.823 171.103 171.404 171.587 171.84 171.943 170.737 170.978 171.103 
171.411 171.488 171.768 171.775 170.575 170.687 170.797 170.972 171.092 
171.301 171.397 171.591 171.656 170.372 170.538 170.648 170.795 171.009 
171.132 171.395 171.451 171.704 171.715 171.927 169.906 170.195 170.303 
170.589 170.873 171.146 171.55 171.676 172.037 172.01 172.287 172.193 
172.364 169.413 169.689 169.83 170.155 170.454 170.885 171.331 171.722 
172.095 172.285 172.468 172.498 172.529 172.489 172.41 169.053 169.292 
169.478 169.741 170.007 170.395 170.759 171.263 171.588 172.029 172.157 
172.406 172.324 172.416 172.213 172.247 172.016 168.664 168.956 169.147 
169.43 169.642 169.956 170.175 170.589 170.803 171.298 171.445 171.863 
171.849 172.06 171.885 171.945 171.722 171.758 171.566 160.738 161.244 
161.043 161.192 161.783 161.566 161.755 161.582 161.792 162.457 162.188 
162.405 162.19 162.407 162.182 162.327 163.144 162.885 163.108 162.899 
163.123 162.846 162.965 162.671 162.798 163.818 163.53 163.721 163.558 
163.83 163.604 163.748 163.385 163.489 163.196 163.437 164.642 164.265 
164.429 164.172 164.481 164.301 164.556 164.229 164.347 163.97 164.168 
163.928 164.241 165.457 165.143 165.316 164.978 165.26 165.019 165.359 
165.076 165.281 164.879 165.046 164.712 164.992 164.76 165.06 166.002 
165.86 166.052 165.821 166.054 165.83 166.168 165.938 166.234 165.86 
166.047 165.634 165.881 165.573 165.897 165.615 165.897 166.351 166.299 
166.517 166.412 166.63 166.503 166.81 166.7 167.047 166.811 167.032 
166.641 166.823 166.475 166.76 166.489 166.793 166.483 166.719 160.455 
160.937 160.505 160.212 161.532 161.067 160.724 160.301 160.104 162.062 
161.657 161.307 160.839 160.543 160.232 160.169 162.574 162.181 161.903 
161.434 161.151 160.727 160.622 160.375 160.412 163.276 162.81 162.633 
162.118 161.927 161.429 161.373 160.99 161.07 160.739 160.803 164.097 
163.623 163.499 162.974 162.839 162.306 162.279 161.845 161.952 161.56 
161.643 161.217 161.268 164.865 164.422 164.295 163.845 163.729 163.247 
163.195 162.759 162.821 162.448 162.512 162.099 162.098 161.693 161.756 
165.641 165.164 165.014 164.588 164.492 164.083 164.033 163.627 163.637 
163.266 163.295 162.914 162.888 162.485 162.473 162.149 162.243 166.447 
165.955 165.789 165.325 165.227 164.821 164.78 164.402 164.391 164.032 
164.031 163.666 163.63 163.233 163.179 162.822 162.841 162.587 162.687 
160.168 159.906 159.912 159.76 159.912 159.803 159.712 159.663 159.682 
160.084 159.954 159.959 159.826 159.885 159.79 159.905 160.247 160.125 
160.089 160.054 160.046 160.01 160.016 160.006 160.024 160.487 160.257 
160.084 160.038 159.909 159.952 159.814 159.913 159.821 159.941 159.884 
160.944 160.576 160.389 160.126 160.009 159.838 159.71 159.643 159.568 
159.646 159.677 159.794 159.871 161.518 161.131 161.017 160.642 160.616 
160.247 160.233 159.868 159.876 159.643 159.779 159.735 159.967 159.986 
160.21 162.065 161.733 161.628 161.298 161.249 160.942 160.944 160.605 
160.621 160.257 160.345 160.1 160.326 160.237 160.515 160.469 160.693 
162.534 162.256 162.121 161.825 161.68 161.433 161.357 161.175 161.173 
160.959 160.973 160.723 160.797 160.646 160.832 160.79 161.004 160.952 
161.105 168.373 167.843 168.166 168.275 167.31 167.612 167.689 168.03 
168.108 166.77 167.073 167.135 167.45 167.529 167.845 167.909 166.145 
166.492 166.545 166.886 166.952 167.279 167.347 167.661 167.76 165.404 
165.79 165.814 166.223 166.279 166.667 166.725 167.078 167.159 167.529 
167.665 164.635 165.006 165.015 165.438 165.503 165.935 165.999 166.4 
166.472 166.877 166.996 167.414 167.542 163.96 164.267 164.293 164.67 
164.764 165.174 165.265 165.657 165.726 166.139 166.241 166.693 166.815 
167.246 167.344 163.422 163.66 163.676 164.001 164.101 164.486 164.596 
164.964 165.027 165.396 165.458 165.89 165.975 166.448 166.532 166.997 
167.087 162.967 163.162 163.135 163.412 163.474 163.838 163.939 164.311 
164.367 164.714 164.737 165.111 165.142 165.573 165.617 166.103 166.177 
166.696 166.8 
POINT_DATA 1002
SCALARS Distance double
LOOKUP_TABLE default
166.543 166.387 166.095 166.389 165.901 166.832 166.263 165.576 166.724 
167.148 165.771 164.992 166.387 166.824 167.362 165.023 164.425 165.676 
166.217 166.776 167.458 164.503 164.029 165.076 165.682 166.252 166.889 
167.536 164.203 163.677 164.754 165.406 166.028 166.587 167.164 167.724 
163.975 163.419 164.456 165.022 165.702 166.315 166.867 167.435 167.993 
163.833 163.291 164.229 164.604 165.198 165.899 166.481 167.014 167.612 
168.21 163.652 163.154 164.051 164.383 164.913 165.679 166.313 166.69 
167.104 167.709 168.354 166.084 165.718 165.693 165.215 165.019 165.33 
164.512 164.154 164.662 164.825 163.747 163.411 163.975 164.107 164.307 
163.001 162.731 163.29 163.481 163.711 163.913 162.222 162.006 162.547 
162.826 163.107 163.341 163.475 161.587 161.421 161.874 162.142 162.428 
162.683 162.808 163.01 161.131 160.956 161.404 161.599 161.779 162.027 
162.197 162.366 162.762 160.619 160.442 160.927 161.15 161.253 161.428 
161.674 161.896 162.218 162.693 159.958 160.207 159.649 159.894 159.732 
160.543 159.903 160.014 160.19 160.741 160.002 160.025 160.013 160.34 
160.863 159.923 159.863 159.895 160.045 160.51 161.123 159.978 159.997 
159.981 160.041 160.355 160.932 161.487 160.328 160.428 160.405 160.518 
160.65 161.005 161.496 161.888 160.708 160.879 160.785 161.011 161.126 
161.261 161.602 161.987 162.325 161 161.23 160.943 161.103 161.214 
161.265 161.529 161.945 162.333 162.726 163.179 162.688 163.043 162.239 
162.581 163 161.717 162.099 162.643 163.177 161.162 161.396 162.1 
162.827 163.376 160.958 160.849 161.397 162.261 162.955 163.538 161.046 
160.911 161.172 161.835 162.535 163.174 163.844 161.066 161.18 161.439 
161.837 162.318 162.914 163.594 164.27 161.129 161.321 161.639 161.942 
162.184 162.623 163.328 164.051 164.663 161.364 161.507 161.749 162.011 
162.14 162.337 162.916 163.73 164.447 165.014 163.619 163.493 164.058 
163.538 164.154 164.674 163.744 164.365 165.181 165.611 163.956 164.507 
165.432 166.298 166.461 164.244 164.669 165.294 166.239 166.836 166.774 
164.647 165.032 165.338 165.846 166.519 166.832 166.885 165.034 165.472 
165.785 166.004 166.385 166.792 167.041 167.325 165.374 165.853 166.323 
166.634 166.899 167.209 167.473 167.732 168.059 165.629 166.096 166.408 
166.983 167.266 166.69 167.847 168.027 167.617 167.236 168.569 168.702 
168.418 168.171 167.64 169.361 169.466 169.16 168.923 168.585 167.964 
170.279 170.263 170.09 169.669 169.245 168.854 168.214 170.963 170.839 
170.957 170.563 169.906 169.451 169.073 168.43 171.28 171.156 171.425 
171.313 170.744 170.103 169.707 169.281 168.664 171.507 171.4 171.684 
171.794 171.547 170.954 170.352 169.863 169.37 168.844 165.057 165.755 
165.111 165.857 165.125 166.557 165.78 165.082 166.563 167.353 165.574 
165.068 166.307 167.217 168.053 165.497 165.122 166.057 166.898 167.852 
168.71 165.582 165.164 166.101 166.793 167.578 168.484 169.446 165.689 
165.215 166.26 166.963 167.572 168.224 169.208 170.201 165.8 165.33 
166.321 167.022 167.688 168.182 168.935 169.977 170.765 165.869 165.412 
166.298 166.867 167.588 168.199 168.787 169.654 170.549 171.104 161.526 
161.701 161.669 161.941 161.737 161.892 162.192 162.031 162.287 162.155 
162.636 162.574 162.758 162.681 162.353 163.134 163.082 163.238 163.257 
162.9 162.423 163.555 163.544 163.645 163.708 163.506 163.015 162.744 
164.054 164.141 164.101 164.163 164.065 163.761 163.485 163.513 164.695 
164.824 164.651 164.686 164.643 164.498 164.356 164.314 164.375 161.207 
161.386 161.033 161.161 160.899 161.401 161.202 161.021 161.304 161.54 
161.474 161.223 161.629 161.7 162.015 161.571 161.319 161.971 162.142 
162.232 162.604 161.624 161.527 162.054 162.481 162.6 162.775 163.151 
161.991 161.967 162.226 162.689 163.02 163.194 163.448 163.782 162.523 
162.435 162.625 162.921 163.35 163.688 163.911 164.149 164.472 162.947 