# vtk DataFile Version 4.0
vtk output
ASCII
DATASET POLYDATA
POINTS 1002 float
-117.63 -100.564 49.0356 -117.728 -100.407 48.3538 -117.17 -100.383 48.5683 
-116.967 -100.511 49.4005 -116.593 -100.211 48.9939 -117.476 -100.706 49.8873 
-116.284 -100.351 49.9208 -115.896 -100.09 49.4423 -116.713 -100.7 50.2993 
-117.292 -101.122 50.4974 -115.53 -100.374 50.2368 -115.058 -100.167 49.766 
-116.012 -100.687 50.6766 -116.527 -101.193 50.7913 -117.185 -101.733 50.886 
-114.617 -100.634 50.3218 -114.095 -100.323 50.0685 -115.261 -100.957 50.714 
-115.842 -101.328 50.9958 -116.448 -101.777 51.2135 -117.103 -102.027 51.7435 
-113.583 -100.964 50.3836 -113.088 -100.698 50.1393 -114.337 -101.346 50.6744 
-115.038 -101.665 51.0938 -115.677 -101.905 51.5882 -116.369 -102.056 52.2771 
-116.947 -102.03 53.0524 -112.698 -101.466 50.2695 -112.32 -101.365 49.854 
-113.431 -101.604 50.7845 -114.191 -101.854 51.3735 -114.82 -102.029 52.0399 
-115.551 -102.126 52.8153 -116.279 -102.154 53.5543 -116.833 -102.215 54.0561 
-112.19 -101.945 50.1833 -111.982 -101.75 49.8159 -112.746 -101.85 50.9381 
-113.494 -101.845 51.8054 -114.125 -101.962 52.549 -114.771 -102.105 53.2759 
-115.518 -102.253 53.9524 -116.197 -102.385 54.4052 -116.818 -102.629 54.6702 
-111.955 -101.948 50.586 -111.867 -101.528 50.3501 -112.24 -101.991 51.3006 
-112.818 -101.929 52.2691 -113.483 -101.981 53.0274 -114.129 -102.127 53.6132 
-114.789 -102.368 54.2175 -115.405 -102.611 54.6982 -116.045 -102.807 55.0018 
-116.765 -103.057 55.2488 -111.735 -101.587 51.2948 -111.697 -101.08 51.0568 
-111.817 -101.887 51.8908 -112.135 -102.044 52.7642 -112.698 -102.198 53.479 
-113.383 -102.36 53.9378 -114.087 -102.585 54.431 -114.671 -102.891 54.9437 
-115.18 -103.125 55.3091 -115.835 -103.257 55.5864 -116.608 -103.376 55.8594 
-117.482 -100.143 47.9457 -116.955 -100.071 48.165 -117.236 -99.8254 47.4907 
-116.634 -99.7604 47.6731 -116.862 -99.5928 46.7563 -116.34 -99.9236 48.5502 
-116.083 -99.5539 46.9214 -116.366 -99.3599 46.0188 -115.873 -99.6981 48.0011 
-115.555 -99.9106 48.9402 -115.546 -99.2419 46.3291 -115.966 -98.8592 45.8263 
-115.264 -99.4864 47.2834 -115.071 -99.7557 48.332 -114.698 -99.9784 49.3464 
-115.304 -98.5701 46.2922 -115.676 -98.0197 45.9814 -114.93 -99.0418 46.8623 
-114.594 -99.491 47.6504 -114.289 -99.777 48.7111 -113.74 -100.079 49.7103 
-115.089 -97.6842 46.366 -115.338 -97.1275 45.9726 -114.865 -98.2889 46.9178 
-114.374 -98.9671 47.4054 -113.824 -99.4719 48.0323 -113.328 -99.8397 48.973 
-112.751 -100.515 49.6551 -114.711 -96.9646 46.2617 -115.046 -96.4906 45.9392 
-114.604 -97.4874 46.941 -114.257 -98.1912 47.5596 -113.535 -98.9336 47.8677 
-112.87 -99.4708 48.3233 -112.415 -100.108 49.0183 -112.103 -101.026 49.4963 
-114.434 -96.5051 46.2981 -114.908 -96.0517 46.1166 -114.201 -96.9119 46.8482 
-113.984 -97.4006 47.5618 -113.434 -98.1292 47.9806 -112.695 -98.8824 48.195 
-112.151 -99.5033 48.6634 -111.901 -100.238 49.3187 -111.856 -101.029 49.8546 
-114.349 -96.0617 46.5457 -114.806 -95.5658 46.3525 -113.984 -96.4996 46.9308 
-113.682 -96.8363 47.4565 -113.275 -97.3106 47.9138 -112.702 -98.0766 48.233 
-112.12 -98.843 48.6218 -111.736 -99.4564 49.2451 -111.64 -100.076 49.9493 
-111.698 -100.666 50.5376 -114.388 -95.2548 46.6907 -114.017 -95.843 47.079 
-113.994 -94.9245 47.1861 -113.588 -95.5832 47.6453 -113.555 -94.7521 47.8195 
-113.582 -96.3295 47.47 -112.951 -95.3515 48.1211 -113.006 -94.7053 48.4723 
-112.936 -96.1119 47.8799 -113.058 -96.6689 47.7841 -112.337 -95.1378 48.5776 
-112.44 -94.6069 49.1521 -112.199 -95.9018 48.2372 -112.243 -96.538 48.1 
-112.533 -97.2221 48.152 -111.972 -95.0386 49.3461 -111.995 -94.5485 50.0296 
-111.848 -95.7845 48.8481 -111.654 -96.4779 48.644 -111.778 -97.2153 48.6203 
-112.044 -98.0862 48.6481 -111.739 -95.2387 50.4966 -111.799 -94.7636 51.0094 
-111.75 -95.8991 49.9443 -111.535 -96.4907 49.5302 -111.33 -97.1835 49.2956 
-111.419 -98.0986 49.2149 -111.597 -98.8677 49.2454 -111.7 -95.6648 51.5598 
-111.908 -95.1961 51.8463 -111.595 -96.2249 51.1863 -111.431 -96.6264 50.7004 
-111.17 -97.0965 50.1936 -111.03 -97.9985 49.8295 -111.122 -98.8907 49.8085 
-111.367 -99.4645 49.97 -111.922 -96.0647 52.3285 -112.124 -95.6147 52.5904 
-111.642 -96.5549 52.0925 -111.309 -96.8729 51.764 -111.034 -97.136 51.3134 
-110.896 -97.8514 50.8052 -110.891 -98.8633 50.4944 -111.067 -99.5443 50.5699 
-111.398 -100.016 50.7006 -112.091 -96.3237 53.0723 -112.194 -95.9171 53.3739 
-111.854 -96.7591 52.8247 -111.437 -97.1077 52.5792 -111.038 -97.3661 52.3268 
-110.889 -97.8622 52.032 -110.909 -98.7612 51.6443 -110.969 -99.6012 51.3673 
-111.153 -100.084 51.3365 -111.45 -100.509 51.296 -111.422 -101.086 51.8139 
-111.182 -100.66 51.9718 -111.06 -101.269 52.6619 -111.041 -100.24 52.1597 
-110.931 -100.862 52.8896 -110.877 -101.528 53.7886 -111.042 -99.5992 52.5341 
-111.015 -100.27 53.3296 -110.866 -101.024 54.2416 -110.949 -101.684 55.2752 
-110.999 -98.7533 52.9433 -111.108 -99.5233 53.8273 -111.031 -100.31 54.74 
-110.913 -101.181 55.8332 -111.066 -101.712 56.7149 -110.962 -98.0497 53.1511 
-111.003 -98.8144 54.1239 -111.039 -99.5599 55.1001 -110.986 -100.472 56.1877 
-110.975 -101.235 57.1311 -111.269 -101.58 57.6363 -111.214 -97.5851 53.3153 
-110.993 -98.1982 54.3278 -110.9 -98.8564 55.3982 -110.936 -99.6515 56.4698 
-111.012 -100.489 57.4005 -111.248 -101.009 57.9242 -111.722 -101.33 58.2193 
-111.625 -97.1843 53.5731 -111.232 -97.6435 54.6194 -110.965 -98.2027 55.7119 
-110.963 -98.8912 56.7048 -111.07 -99.6741 57.6172 -111.295 -100.293 58.2418 
-111.709 -100.723 58.587 -112.161 -101.187 58.9378 -111.892 -96.7723 53.8288 
-111.465 -97.1733 54.8695 -111.154 -97.6517 55.9313 -111.195 -98.2895 56.7671 
-111.316 -99.0322 57.5648 -111.399 -99.664 58.3707 -111.661 -100.123 58.9619 
-112.033 -100.622 59.3968 -112.345 -101.204 59.7988 -112.022 -96.3756 54.0604 
-111.65 -96.7799 54.9768 -111.339 -97.195 55.9778 -111.407 -97.7459 56.759 
-111.629 -98.4485 57.4032 -111.652 -99.1072 58.213 -111.692 -99.5755 59.0501 
-111.934 -100.014 59.6797 -112.208 -100.593 60.1411 -112.468 -101.196 60.4749 
-111.41 -101.58 52.3094 -111.125 -101.804 53.3594 -111.535 -101.991 53.0841 
-111.177 -102.004 54.5668 -111.473 -102.232 54.1155 -111.932 -102.329 53.831 
-111.413 -101.999 55.9798 -111.771 -102.259 55.1856 -112.014 -102.529 54.6812 
-112.551 -102.587 54.3113 -111.587 -101.938 57.2093 -112.069 -102.192 56.4613 
-112.352 -102.466 55.7275 -112.649 -102.744 55.2104 -113.319 -102.795 54.7759 
-111.905 -101.846 58.0139 -112.278 -102.265 57.6389 -112.661 -102.504 57.0282 
-112.985 -102.69 56.3942 -113.459 -102.967 55.8189 -114.067 -103.087 55.3159 
-112.358 -101.717 58.7212 -112.622 -102.235 58.5295 -112.963 -102.601 58.1807 
-113.389 -102.71 57.6017 -113.853 -102.884 56.9096 -114.233 -103.258 56.2484 
-114.616 -103.387 55.7163 -112.614 -101.676 59.5646 -112.956 -102.054 59.3121 
-113.318 -102.423 59.0343 -113.745 -102.698 58.5965 -114.247 -102.836 57.9332 
-114.586 -103.13 57.1762 -114.766 -103.5 56.5137 -115.16 -103.529 56.005 
-112.73 -101.685 60.333 -113.163 -101.935 60.0519 -113.64 -102.137 59.7353 
-114.054 -102.529 59.401 -114.465 -102.914 58.9261 -114.821 -103.131 58.2523 
-115.025 -103.378 57.498 -115.318 -103.589 56.8325 -115.908 -103.553 56.3086 
-112.946 -101.416 60.8562 -113.345 -101.829 60.7219 -113.857 -101.481 61.1134 
-114.329 -101.886 61.0706 -114.862 -101.504 61.5288 -113.904 -101.977 60.4502 
-115.141 -102.059 61.6893 -115.385 -101.609 62.2542 -114.768 -102.18 60.9685 
-114.373 -102.294 60.177 -115.523 -102.308 62.4906 -115.76 -101.729 62.9583 
-115.319 -102.568 61.7144 -114.998 -102.791 60.8019 -114.668 -102.946 59.8808 
-116.211 -102.444 62.9987 -116.723 -101.772 63.2555 -115.838 -102.781 62.323 
-115.511 -103.159 61.4083 -115.154 -103.474 60.4832 -114.936 -103.374 59.4106 
-117.374 -102.454 63.0345 -117.842 -101.734 63.1141 -116.834 -102.801 62.5382 
-116.361 -103.102 61.7 -115.901 -103.512 60.8822 -115.486 -103.619 59.9428 
-115.238 -103.44 58.6875 -118.23 -102.349 62.7151 -118.418 -101.624 62.6456 
-117.848 -102.799 62.4619 -117.407 -103.061 61.7733 -117.005 -103.355 60.9812 
-116.524 -103.539 60.1782 -116.035 -103.518 59.0725 -115.65 -103.518 57.8236 
-118.679 -102.164 62.1797 -118.72 -101.491 62.0205 -118.495 -102.695 62.1528 
-118.165 -103.078 61.6907 -117.893 -103.399 60.9302 -117.597 -103.565 60.1157 
-117.131 -103.541 59.1495 -116.659 -103.525 58.0421 -116.264 -103.578 57.0556 
-119.175 -102.01 61.6244 -119.195 -101.391 61.4634 -119.069 -102.515 61.6909 
-118.763 -102.912 61.3891 -118.445 -103.289 60.7167 -118.204 -103.539 59.9227 
-117.855 -103.529 59.0474 -117.46 -103.454 58.0804 -117.189 -103.496 57.1887 
-116.935 -103.52 56.4579 -112.591 -100.665 60.6921 -113.283 -100.791 60.9596 
-112.914 -99.9743 60.6737 -113.726 -100.045 60.9292 -113.245 -99.339 60.6424 
-114.318 -100.794 61.2548 -113.986 -99.4553 60.9953 -113.491 -98.7605 60.7266 
-114.655 -100.06 61.3963 -115.164 -100.774 61.8473 -114.203 -98.8921 61.054 
-113.878 -98.1242 60.7249 -114.802 -99.5754 61.4891 -115.306 -100.052 62.1133 
-115.541 -100.789 62.6264 -114.728 -98.23 60.8599 -114.465 -97.6012 60.5073 
-115.177 -99.1504 61.2353 -115.567 -99.6841 62.0085 -115.834 -100.01 62.7636 
-116.192 -100.791 63.1543 -115.375 -97.6944 60.5493 -114.986 -97.2828 60.1781 
-115.839 -98.5783 60.7812 -116.153 -99.4268 61.4295 -116.396 -99.6894 62.3958 
-116.825 -99.9686 63.0475 -117.384 -100.799 63.2339 -115.853 -97.2852 60.2903 
-115.389 -96.9759 59.7811 -116.364 -97.9188 60.5508 -116.712 -98.8453 60.9049 
-116.979 -99.4733 61.6427 -117.425 -99.6585 62.4676 -117.938 -100.042 62.929 
-118.256 -100.83 62.9196 -116.254 -96.887 59.9532 -115.827 -96.6526 59.2945 
-116.698 -97.272 60.4414 -117.045 -97.9687 60.7265 -117.349 -98.8183 61.0269 
-117.787 -99.4025 61.5603 -118.273 -99.7284 62.185 -118.526 -100.173 62.4771 
-118.588 -100.826 62.3195 -116.678 -96.6085 59.4211 -116.303 -96.4322 58.7555 
-117.025 -96.8156 60.096 -117.339 -97.2004 60.5629 -117.666 -97.8948 60.7307 
[...]
CELL_DATA 2000
SCALARS Distance double
LOOKUP_TABLE default
161.069 160.684 161.011 161.286 160.261 160.602 160.865 161.222 161.539 
159.82 160.168 160.447 160.805 161.128 161.506 161.894 159.348 159.719 
160.03 160.411 160.763 161.123 161.509 161.903 162.313 158.86 159.229 
159.564 159.995 160.392 160.779 161.168 161.539 161.951 162.332 162.698 
158.523 158.791 159.131 159.535 159.97 160.395 160.797 161.182 161.583 
161.981 162.386 162.723 163.059 158.425 158.58 158.897 159.179 159.609 
159.996 160.423 160.799 161.193 161.592 162.011 162.408 162.788 163.102 
163.451 158.393 158.54 158.808 159.01 159.375 159.692 160.118 160.461 
160.866 161.222 161.646 162.036 162.448 162.803 163.159 163.493 163.86 
158.262 158.457 158.686 158.89 159.186 159.47 159.858 160.188 160.594 
160.928 161.352 161.713 162.148 162.492 162.864 163.175 163.51 163.861 
164.208 160.837 160.356 160.562 160.466 159.784 160.044 159.953 160.169 
160.047 159.084 159.393 159.298 159.598 159.497 159.729 159.596 158.372 
158.651 158.533 158.872 158.81 159.134 159.047 159.276 159.13 157.722 
157.977 157.865 158.143 158.095 158.424 158.394 158.693 158.583 158.791 
158.642 156.998 157.319 157.269 157.56 157.528 157.785 157.726 158.006 
157.91 158.189 158.076 158.32 158.27 156.276 156.574 156.564 156.939 
156.961 157.258 157.167 157.378 157.216 157.468 157.367 157.696 157.71 
158.04 158.138 155.806 155.96 155.93 156.237 156.28 156.629 156.584 
156.825 156.659 156.839 156.71 156.986 157.02 157.416 157.566 157.958 
158.098 155.512 155.608 155.556 155.724 155.726 155.974 155.94 156.201 
156.101 156.318 156.219 156.431 156.432 156.746 156.879 157.303 157.474 
157.877 157.978 155.279 154.961 155.216 155.396 154.67 154.93 155.146 
155.357 155.518 154.364 154.599 154.733 155.02 155.129 155.415 155.588 
154.058 154.226 154.251 154.524 154.595 154.913 155.073 155.462 155.714 
153.919 153.968 154.034 154.15 154.268 154.441 154.651 154.965 155.296 
155.656 155.944 154.105 154.023 154.232 154.194 154.407 154.366 154.579 
154.691 155.032 155.323 155.69 155.951 156.227 154.609 154.429 154.698 
154.583 154.816 154.678 154.814 154.755 154.98 155.145 155.506 155.761 
156.115 156.32 156.658 155.255 155.05 155.291 155.12 155.298 155.11 
155.178 155.02 155.159 155.178 155.513 155.677 156.09 156.272 156.669 
156.85 157.242 155.818 155.666 155.862 155.693 155.82 155.596 155.646 
155.417 155.552 155.452 155.797 155.839 156.284 156.37 156.779 156.896 
157.267 157.432 157.765 157.926 157.49 157.816 158.034 157.092 157.431 
157.713 157.99 158.304 156.696 157.095 157.462 157.742 158.098 158.384 
158.831 156.245 156.699 157.148 157.513 157.908 158.214 158.667 158.999 
159.476 155.928 156.276 156.736 157.154 157.577 157.966 158.408 158.803 
159.263 159.604 159.983 155.944 156.091 156.479 156.776 157.186 157.569 
158 158.449 158.907 159.326 159.705 160.021 160.342 156.111 156.185 
156.479 156.625 156.97 157.234 157.648 158.031 158.503 158.93 159.358 
159.715 160.067 160.379 160.748 156.169 156.291 156.517 156.631 156.889 
157.082 157.459 157.761 158.235 158.594 159.055 159.393 159.786 160.103 
160.482 160.816 161.21 156.115 156.27 156.476 156.601 156.807 156.98 
157.307 157.592 158.042 158.382 158.831 159.145 159.524 159.827 160.183 
160.521 160.889 161.245 161.596 158.221 158.319 158.395 158.666 158.601 
158.572 158.882 158.899 159.216 159.147 158.997 159.321 159.235 159.586 
159.55 159.908 159.781 159.62 159.921 159.772 160.09 159.99 160.336 
160.291 160.647 160.28 160.207 160.509 160.385 160.671 160.526 160.834 
160.745 161.115 161.062 161.432 160.68 160.656 161.032 160.959 161.304 
161.141 161.45 161.288 161.661 161.576 161.99 161.899 162.253 161.121 
161.089 161.522 161.489 161.911 161.799 162.144 161.959 162.3 162.164 
162.556 162.466 162.812 162.689 162.956 161.583 161.562 161.971 161.964 
162.37 162.35 162.714 162.62 162.937 162.803 163.118 163.008 163.304 
163.197 163.442 163.324 163.566 161.966 161.988 162.359 162.363 162.716 
162.73 163.093 163.097 163.451 163.385 163.684 163.551 163.794 163.657 
163.883 163.775 164.029 163.939 164.229 162.279 162.957 162.643 162.701 
163.783 163.399 163.431 163.046 163.057 164.605 164.27 164.318 163.862 
163.847 163.426 163.448 165.277 165.042 165.156 164.767 164.775 164.311 
164.314 163.871 163.87 165.998 165.732 165.886 165.545 165.582 165.203 
165.201 164.776 164.714 164.251 164.131 166.779 166.529 166.675 166.296 
166.304 165.932 165.919 165.568 165.48 165.05 164.848 164.391 164.187 
167.208 167.18 167.316 167.061 167.036 166.658 166.62 166.254 166.197 
165.774 165.589 165.092 164.858 164.41 164.244 167.231 167.375 167.549 
167.518 167.524 167.298 167.244 166.944 166.891 166.51 166.358 165.861 
165.637 165.131 164.962 164.523 164.417 167.239 167.361 167.61 167.653 
167.728 167.63 167.565 167.405 167.295 167.082 166.875 166.533 166.239 
165.84 165.617 165.244 165.126 164.738 164.64 162.081 161.918 162.245 
162.758 161.738 162.083 162.649 162.996 163.579 161.58 161.921 162.49 
162.872 163.469 163.829 164.367 161.435 161.764 162.33 162.715 163.283 
163.656 164.164 164.516 164.989 161.367 161.634 162.209 162.576 163.175 
163.497 163.986 164.281 164.768 165.123 165.677 161.397 161.611 162.164 
162.495 163.142 163.453 163.993 164.203 164.685 164.955 165.536 165.902 
166.472 161.4 161.635 162.134 162.45 163.04 163.401 163.956 164.236 
164.711 164.95 165.45 165.766 166.258 166.599 166.933 161.34 161.594 
162.045 162.35 162.823 163.196 163.668 164.066 164.512 164.877 165.301 
165.635 165.999 166.306 166.54 166.827 166.957 161.305 161.53 161.946 
162.207 162.602 162.913 163.303 163.683 164.089 164.52 164.922 165.338 
165.666 165.992 166.189 166.429 166.552 166.794 166.945 156.169 156.446 
156.375 156.528 156.927 156.733 156.859 156.726 156.88 157.582 157.325 
157.448 157.176 157.318 157.156 157.409 158.237 158.014 158.151 157.842 
157.941 157.688 157.923 157.805 158.154 158.821 158.647 158.819 158.546 
158.615 158.32 158.463 158.318 158.625 158.578 158.914 159.339 159.207 
159.433 159.219 159.339 159.008 159.091 158.84 159.062 158.99 159.311 
159.282 159.578 159.793 159.686 159.937 159.816 160.015 159.751 159.848 
159.518 159.669 159.463 159.749 159.668 159.993 159.932 160.234 160.29 
160.138 160.377 160.284 160.515 160.366 160.498 160.244 160.362 160.118 
160.344 160.181 160.491 160.385 160.714 160.625 160.942 160.889 160.683 
160.91 160.756 160.992 160.844 161.014 160.818 160.957 160.756 160.967 
160.801 161.085 160.938 161.25 161.132 161.455 161.353 161.652 155.936 
155.69 155.94 156.245 155.559 155.748 156.075 156.322 156.717 155.577 
155.693 155.998 156.191 156.593 156.872 157.34 155.715 155.777 156.08 
156.186 156.557 156.77 157.231 157.521 157.986 155.976 155.973 156.285 
156.33 156.69 156.811 157.246 157.453 157.924 158.168 158.592 156.371 
156.299 156.59 156.58 156.94 157.005 157.432 157.552 158.01 158.176 
158.608 158.781 159.142 156.816 156.726 157.011 156.948 157.316 157.319 
157.735 157.782 158.191 158.298 158.699 158.843 159.2 159.325 159.63 
157.215 157.156 157.458 157.404 157.783 157.758 158.157 158.13 158.46 
158.473 158.793 158.913 159.268 159.411 159.748 159.841 160.156 157.562 
157.527 157.825 157.815 158.173 158.195 158.568 158.556 158.839 158.77 
159.003 159.014 159.341 159.475 159.87 160 160.37 160.433 160.772 
157.852 158.417 158.111 158.119 159.06 158.698 158.682 158.409 158.473 
159.774 159.368 159.313 158.988 159.045 158.803 158.876 160.522 160.115 
160.067 159.671 159.698 159.396 159.457 159.179 159.155 161.273 160.884 
160.872 160.462 160.484 160.116 160.164 159.806 159.772 159.398 159.316 
162.01 161.647 161.638 161.252 161.269 160.911 160.968 160.589 160.585 
160.126 160.066 159.63 159.643 162.635 162.342 162.327 161.986 161.983 
161.653 161.703 161.377 161.413 161 160.981 160.506 160.522 160.096 
160.188 163.124 162.888 162.88 162.611 162.612 162.325 162.36 162.069 
162.104 161.774 161.775 161.394 161.404 161.006 161.056 160.664 160.716 
163.616 163.362 163.366 163.12 163.142 162.904 162.953 162.696 162.731 
162.43 162.426 162.101 162.098 161.782 161.806 161.478 161.496 161.127 
161.12 163.938 164.357 163.98 163.66 164.724 164.389 164.058 163.707 
163.435 164.965 164.72 164.446 164.12 163.851 163.517 163.274 165.227 
164.979 164.79 164.502 164.28 163.954 163.701 163.354 163.068 165.722 
165.372 165.21 164.876 164.687 164.378 164.144 163.792 163.472 163.095 
162.754 166.33 165.96 165.75 165.35 165.101 164.772 164.538 164.219 
163.902 163.506 163.121 162.746 162.415 166.73 166.469 166.205 165.856 
165.524 165.169 164.863 164.563 164.238 163.896 163.491 163.112 162.737 
162.415 162.122 166.864 166.69 166.418 166.194 165.885 165.564 165.22 
164.874 164.511 164.175 163.772 163.429 163.033 162.719 162.392 162.117 
161.818 166.941 166.76 166.522 166.355 166.145 165.9 165.618 165.259 
164.891 164.488 164.088 163.707 163.327 162.995 162.66 162.37 162.051 
161.775 161.445 164.21 164.764 164.561 164.668 165.198 165.095 165.227 
165.002 165.027 165.537 165.493 165.694 165.531 165.549 165.27 165.213 
165.987 165.903 166.22 166.054 166.14 165.798 165.696 165.39 165.391 
166.482 166.407 166.756 166.652 166.809 166.462 166.324 165.9 165.832 
165.628 165.815 166.755 166.758 166.953 167.025 167.143 167.031 166.865 
166.506 166.317 166.067 166.2 166.151 166.429 166.863 166.854 166.873 
166.969 166.978 167.081 166.954 166.852 166.66 166.485 166.553 166.518 
166.805 166.764 166.926 167.026 166.949 166.924 166.856 166.804 166.83 
166.777 166.798 166.751 166.716 166.839 166.852 167.171 167.159 167.38 
167.189 167.166 167.233 167.163 167.161 166.998 166.918 166.791 166.757 
166.716 166.764 166.778 166.959 167.056 167.394 167.496 167.776 167.673 
167.699 167.384 167.264 164.02 163.864 164.149 164.541 163.669 163.967 
164.353 164.643 164.969 163.422 163.737 164.128 164.446 164.779 165.012 
165.284 163.083 163.423 163.794 164.184 164.576 164.853 165.151 165.349 
165.686 162.709 163.044 163.377 163.787 164.212 164.611 165.003 165.267 
165.622 165.843 166.22 162.375 162.708 163.065 163.399 163.787 164.19 
164.62 165.034 165.461 165.786 166.162 166.375 166.634 162.014 162.398 
162.813 163.146 163.507 163.813 164.168 164.572 165.007 165.483 165.906 
166.26 166.531 166.693 166.822 161.596 162.006 162.433 162.855 163.247 
163.564 163.863 164.16 164.514 164.958 165.394 165.867 166.188 166.498 
166.659 166.822 166.94 161.22 161.576 161.971 162.418 162.851 163.257 
163.599 163.887 164.187 164.517 164.901 165.335 165.682 166.062 166.253 
166.54 166.681 166.919 167.074 161.166 161.33 161.442 161.892 161.485 
161.628 162.106 162.258 162.771 161.594 161.763 162.264 162.463 162.984 
163.139 163.561 161.787 161.885 162.339 162.55 163.067 163.302 163.758 
163.863 164.2 162.064 162.118 162.464 162.588 163.04 163.308 163.828 
164.044 164.478 164.529 164.9 162.122 162.308 162.603 162.705 163.067 
163.277 163.8 164.084 164.593 164.772 165.161 165.237 165.585 161.855 
162.189 162.527 162.754 163.098 163.309 163.759 164.041 164.515 164.785 
165.149 165.346 165.637 165.799 166.087 161.53 161.863 162.242 162.572 
162.944 163.243 163.623 163.928 164.3 164.605 164.927 165.201 165.506 
165.743 166.073 166.254 166.561 161.333 161.592 161.96 162.278 162.656 
162.993 163.345 163.676 163.992 164.31 164.617 164.929 165.287 165.59 
166.011 166.256 166.655 166.779 167.055 161.373 161.618 161.648 161.977 
161.91 161.925 162.273 162.295 162.656 162.309 162.292 162.68 162.647 
163.003 162.991 163.343 162.723 162.728 163.152 163.122 163.491 163.405 
163.72 163.669 163.987 163.019 163.062 163.435 163.521 163.899 163.899 
164.207 164.114 164.404 164.328 164.639 163.325 163.31 163.605 163.687 
164.044 164.17 164.519 164.556 164.881 164.822 165.17 165.064 165.4 
163.78 163.698 164.026 163.948 164.308 164.321 164.706 164.777 165.153 
165.22 165.625 165.634 166.039 165.911 166.22 164.266 164.228 164.626 
164.507 164.867 164.746 165.103 165.05 165.393 165.425 165.79 165.923 
166.342 166.449 166.798 166.697 166.888 164.62 164.679 165.059 165.044 
165.312 165.255 165.493 165.462 165.72 165.704 165.957 166.01 166.316 
166.514 166.855 167.032 167.243 167.2 167.244 167.34 167.299 167.353 
167.243 166.914 167.147 167.098 167.14 166.978 166.478 166.735 166.842 
166.971 166.953 166.918 166.824 166.219 166.434 166.68 166.83 166.984 
166.977 166.992 166.874 166.856 165.937 166.183 166.385 166.668 166.859 
167.024 167.096 167.071 167.099 167.003 167.092 165.623 165.809 165.842 
166.173 166.295 166.698 166.812 167.044 167.122 167.202 167.379 167.365 
167.57 165.47 165.542 165.525 165.639 165.743 166.068 166.326 166.667 
166.898 167.121 167.373 167.55 167.819 167.852 167.956 165.299 165.442 
165.508 165.518 165.665 165.775 166.151 166.376 166.783 166.964 167.276 
167.461 167.722 167.903 167.995 168.014 167.861 164.891 165.191 165.329 
165.502 165.672 165.824 166.167 166.383 166.797 166.972 167.264 167.387 
167.578 167.729 167.813 167.898 167.77 167.713 167.431 155.607 155.93 
155.827 155.934 156.386 156.194 156.336 156.18 156.248 157.111 156.797 
156.947 156.679 156.798 156.523 156.6 157.877 157.587 157.752 157.427 
157.575 157.215 157.34 157 157.191 158.543 158.303 158.471 158.211 
158.36 158.05 158.201 157.851 158.053 157.733 158.001 159.235 158.973 
159.149 158.887 159.043 158.776 158.944 158.679 158.909 158.632 158.903 
158.593 158.849 159.924 159.684 159.911 159.638 159.88 159.547 159.764 
159.429 159.673 159.418 159.712 159.474 159.736 159.422 159.627 160.501 
160.33 160.602 160.423 160.777 160.508 160.815 160.405 160.62 160.224 
160.459 160.202 160.457 160.229 160.415 160.127 160.27 160.992 160.863 
161.142 161.052 161.433 161.337 161.692 161.44 161.626 161.217 161.325 
160.964 161.136 160.886 161.066 160.822 160.944 160.679 160.79 155.395 
155.714 155.394 155.031 155.985 155.697 155.324 154.978 154.655 156.313 
155.973 155.623 155.262 154.924 154.664 154.583 156.939 156.46 156.197 
155.699 155.408 154.994 154.897 154.746 154.889 157.758 157.237 157.07 
156.508 156.311 155.708 155.611 155.214 155.371 155.197 155.41 158.553 
158.053 157.877 157.414 157.277 156.735 156.634 156.113 156.213 155.869 
156.11 155.825 156.004 159.324 158.822 158.6 158.154 158.02 157.606 
157.529 157.099 157.131 156.767 156.931 156.619 156.777 156.448 156.569 
160.03 159.584 159.386 158.904 158.768 158.33 158.285 157.898 157.937 
157.6 157.708 157.404 157.509 157.195 157.261 156.964 157.054 160.605 
160.254 160.12 159.698 159.577 159.129 159.076 158.671 158.715 158.369 
158.472 158.149 158.24 157.904 157.953 157.624 157.675 157.402 157.496 
155.159 154.734 154.861 154.726 154.429 154.453 154.327 154.472 154.448 
154.527 154.382 154.356 154.277 154.314 154.339 154.327 154.866 154.667 
154.704 154.538 154.613 154.469 154.481 154.314 154.183 155.218 154.983 
154.88 154.799 154.787 154.767 154.75 154.608 154.44 154.182 154.009 
155.696 155.325 155.062 154.851 154.691 154.708 154.668 154.73 154.632 
154.484 154.293 154.075 154.068 156.307 155.878 155.647 155.202 155.015 
154.715 154.669 154.605 154.66 154.624 154.608 154.425 154.421 154.281 
154.498 156.868 156.516 156.386 155.946 155.823 155.338 155.275 154.906 
154.977 154.794 154.924 154.774 154.868 154.698 154.865 154.804 155.121 
157.338 157.058 156.97 156.65 156.556 156.169 156.075 155.666 155.639 
155.319 155.397 155.185 155.303 155.137 155.277 155.175 155.399 155.405 
155.691 163.662 163.154 163.438 163.512 162.654 162.937 162.98 163.271 
163.325 162.017 162.368 162.406 162.735 162.79 163.09 163.119 161.262 
161.642 161.658 162.07 162.145 162.536 162.586 162.869 162.833 160.536 
160.887 160.868 161.259 161.3 161.774 161.835 162.256 162.217 162.51 
162.426 159.836 160.191 160.188 160.515 160.503 160.898 160.91 161.374 
161.337 161.759 161.662 162.036 161.986 159.11 159.481 159.496 159.848 
159.83 160.158 160.116 160.474 160.417 160.816 160.752 161.176 161.14 
161.577 161.582 158.414 158.746 158.731 159.111 159.094 159.461 159.408 
159.735 159.649 159.974 159.912 160.291 160.293 160.719 160.752 161.179 
161.201 157.817 158.073 158.025 158.351 158.33 158.693 158.652 159 
158.91 159.233 159.141 159.495 159.475 159.893 159.942 160.375 160.432 
160.831 160.87 
POINT_DATA 1002
SCALARS Distance double
LOOKUP_TABLE default
161.341 161.11 160.755 160.94 160.359 161.577 160.508 159.918 161.151 
161.891 160.078 159.464 160.757 161.477 162.315 159.615 158.968 160.4 
161.135 161.917 162.709 159.105 158.51 159.973 160.804 161.566 162.372 
163.017 158.761 158.3 159.528 160.411 161.179 162.008 162.782 163.378 
158.681 158.295 159.25 160.051 160.81 161.593 162.436 163.148 163.828 
158.645 158.241 159.1 159.778 160.526 161.265 162.081 162.827 163.503 
164.25 158.487 158.061 158.928 159.535 160.262 160.996 161.796 162.569 
163.196 163.833 164.543 160.647 160.285 160.136 159.713 159.505 159.864 
158.963 158.785 159.22 159.407 158.205 158.127 158.434 158.777 158.959 
157.601 157.44 157.791 158.063 158.344 158.45 156.916 156.639 157.291 
157.504 157.613 157.777 158.004 156.166 156.024 156.612 156.982 157.018 
157.018 157.31 157.819 155.691 155.706 155.935 156.295 156.477 156.483 
156.63 157.121 157.759 155.429 155.403 155.548 155.695 155.833 155.995 
156.179 156.487 157.032 157.633 155.007 155.213 154.666 154.912 154.434 
155.313 154.453 154.207 154.836 155.239 154.019 153.95 154.283 154.666 
155.316 153.937 153.873 154.149 154.374 154.915 155.658 154.262 154.183 
154.498 154.577 154.787 155.397 156.017 154.844 154.802 154.991 154.963 
154.905 155.252 155.872 156.458 155.504 155.461 155.527 155.377 155.196 
155.379 155.91 156.488 157.062 156.034 155.961 156.049 155.885 155.678 
155.783 156.232 156.713 157.138 157.602 158.117 157.73 158.258 157.427 
157.985 158.671 157.147 157.816 158.497 159.327 156.722 157.579 158.332 
159.177 159.927 156.326 157.163 157.99 158.905 159.711 160.311 156.271 
156.842 157.557 158.456 159.364 160.041 160.676 156.402 156.767 157.306 
158.084 158.973 159.74 160.42 161.15 156.425 156.728 157.176 157.896 
158.726 159.468 160.15 160.877 161.603 156.353 156.654 157.041 157.706 
158.526 159.241 159.865 160.536 161.255 161.933 158.584 158.875 159.188 
159.445 159.643 159.928 160.091 160.23 160.398 160.684 160.604 160.835 
160.95 161.155 161.507 161.052 161.44 161.64 161.761 162.067 162.396 
161.539 161.977 162.318 162.476 162.665 162.937 163.104 161.997 162.377 
162.758 163.068 163.268 163.423 163.552 163.672 162.365 162.716 163.056 
163.466 163.821 163.964 163.997 164.103 164.314 162.541 163.023 163.307 
163.869 164.174 163.401 164.769 164.873 164.317 163.823 165.487 165.473 
165.215 164.794 164.325 166.239 166.282 165.933 165.6 165.21 164.608 
167.069 166.989 166.718 166.263 165.897 165.334 164.602 167.485 167.152 
167.397 166.994 166.605 166.092 165.342 164.634 167.49 167.053 167.673 
167.505 167.234 166.836 166.15 165.42 164.835 167.543 167.124 167.798 
167.714 167.477 167.177 166.615 165.952 165.479 165.066 161.769 162.426 
161.56 162.264 161.39 163.257 162.11 161.24 163.096 164.056 161.941 
161.125 162.939 163.816 164.622 161.837 161.141 162.849 163.736 164.406 
165.278 161.856 161.195 162.802 163.776 164.468 165.184 166.147 161.854 
161.151 162.693 163.626 164.466 165.201 165.967 166.661 161.778 161.091 
162.504 163.272 164.107 164.965 165.738 166.292 166.669 161.721 161.105 
162.339 162.965 163.673 164.49 165.313 165.948 166.328 166.661 156.195 
156.578 156.568 157.055 157.159 156.947 157.762 157.827 157.528 157.481 
158.454 158.43 158.24 158.058 158.231 159.059 158.976 158.945 158.663 
158.668 158.978 159.588 159.455 159.654 159.418 159.192 159.328 159.629 
160.015 159.911 160.208 160.183 159.945 159.872 160.048 160.304 160.488 
160.471 160.63 160.708 160.606 160.538 160.624 160.802 161.036 155.653 
155.975 155.444 155.828 155.407 156.424 155.846 155.481 156.321 157.034 
156.004 155.66 156.393 156.957 157.702 156.258 156.013 156.596 157.083 
157.7 158.373 156.627 156.473 156.888 157.339 157.875 158.456 158.996 
157.078 156.898 157.331 157.731 158.135 158.565 159.078 159.526 157.492 
157.256 157.805 158.215 158.527 158.72 159.097 159.632 160.087 157.835 
157.597 158.15 158.565 158.927 159.064 159.228 159.698 160.281 160.743 