# vtk DataFile Version 4.0
vtk output
ASCII
DATASET POLYDATA
POINTS 1002 float
-117.331 -102.075 46.1538 -117.324 -101.862 45.4412 -116.793 -101.855 45.7106 
-116.748 -101.997 46.5399 -116.168 -101.865 45.9964 -117.334 -102.017 47.2107 
-116.08 -101.954 46.9294 -115.384 -101.937 46.261 -116.741 -101.964 47.6363 
-117.343 -102.055 48.1999 -115.29 -102.029 47.2919 -114.547 -102.047 46.6042 
-116.104 -102.019 48.0206 -116.807 -102.131 48.6057 -117.365 -102.45 48.9685 
-114.516 -102.164 47.7242 -114.036 -101.944 47.2236 -115.348 -102.204 48.3284 
-116.212 -102.327 48.9373 -116.841 -102.586 49.4492 -117.309 -102.961 49.7839 
-114.099 -102.099 48.3636 -113.983 -101.465 48.1165 -114.601 -102.41 48.7124 
-115.458 -102.563 49.2169 -116.236 -102.768 49.8541 -116.742 -103.043 50.3872 
-117.175 -103.307 50.786 -114.012 -101.738 49.159 -113.955 -100.941 48.9938 
-114.179 -102.421 49.3446 -114.732 -102.752 49.6979 -115.541 -102.923 50.2821 
-116.211 -103.104 50.9254 -116.696 -103.323 51.443 -117.134 -103.554 51.8745 
-113.832 -101.406 49.8683 -113.675 -100.766 49.6361 -113.959 -102.192 50.0698 
-114.293 -102.739 50.3935 -114.932 -103.008 50.8797 -115.664 -103.173 51.473 
-116.281 -103.334 52.0592 -116.783 -103.575 52.5302 -117.19 -103.892 52.8322 
-113.457 -101.364 50.3656 -113.319 -100.87 50.0921 -113.579 -102.019 50.6263 
-113.919 -102.556 50.9864 -114.519 -102.894 51.4536 -115.171 -103.185 51.992 
-115.747 -103.454 52.5893 -116.278 -103.713 53.1167 -116.768 -104.018 53.419 
-117.183 -104.338 53.4879 -113.086 -101.474 50.7473 -113.029 -100.967 50.4949 
-113.085 -102.068 51.0364 -113.368 -102.505 51.4082 -114.065 -102.718 51.8642 
-114.803 -102.995 52.3909 -115.284 -103.463 52.9948 -115.648 -103.938 53.5617 
-116.087 -104.302 53.9 -116.597 -104.557 53.9858 -117.099 -104.728 53.9482 
-117 -101.385 45.2212 -116.427 -101.47 45.4184 -116.613 -100.906 45.0041 
-116.015 -101.007 45.213 -116.128 -100.605 44.4631 -115.73 -101.598 45.6132 
-115.633 -100.494 44.8746 -115.709 -100.244 43.8331 -115.333 -101.1 45.459 
-114.857 -101.758 45.7781 -115.418 -99.8569 44.4812 -115.572 -99.5307 43.6807 
-115.11 -100.335 45.3208 -114.532 -101.154 45.6213 -114.119 -101.753 46.1376 
-115.295 -99.1436 44.2845 -115.543 -98.6107 43.838 -114.996 -99.554 45.036 
-114.453 -100.211 45.5799 -114.017 -100.944 46.0435 -113.924 -101.306 46.9694 
-115.038 -98.4001 44.2371 -115.303 -97.7564 43.7689 -114.776 -98.941 44.8086 
-114.356 -99.446 45.4449 -113.995 -100.036 46.12 -113.907 -100.468 46.9643 
-113.949 -100.67 48.0164 -114.699 -97.6294 44.2129 -114.975 -97.0625 43.6264 
-114.506 -98.2753 44.8241 -114.171 -98.8867 45.402 -113.772 -99.451 46.1278 
-113.597 -99.913 46.9478 -113.624 -100.18 47.8407 -113.678 -100.392 48.809 
-114.52 -96.9613 44.3107 -114.856 -96.532 43.8018 -114.371 -97.5202 44.9727 
-114.105 -98.1867 45.5395 -113.556 -98.886 46.1243 -113.08 -99.4965 46.7857 
-112.981 -99.9318 47.4909 -113.111 -100.214 48.3891 -113.265 -100.479 49.355 
-114.547 -96.4785 44.5866 -114.938 -96.1141 44.2391 -114.369 -96.9187 45.1545 
-114.142 -97.4535 45.7068 -113.537 -98.1269 46.1764 -112.793 -98.8389 46.6399 
-112.465 -99.4391 47.1637 -112.566 -99.9069 47.9469 -112.783 -100.267 48.978 
-112.965 -100.58 49.8871 -114.764 -95.9463 44.8515 -114.476 -96.3963 45.2752 
-114.632 -95.8611 45.5068 -114.366 -96.3903 46.019 -114.549 -95.852 46.3342 
-114.228 -96.8388 45.8098 -114.125 -96.4097 46.8621 -114.415 -95.8747 47.2516 
-113.797 -96.8092 46.5052 -113.645 -97.3416 46.2714 -113.836 -96.4852 47.6047 
-114.148 -96.0011 47.9497 -113.273 -96.8289 47.2371 -112.921 -97.2801 46.8698 
-112.791 -98.0029 46.65 -113.594 -96.6451 48.3144 -113.871 -96.2632 48.6563 
-113.036 -96.9075 48.006 -112.605 -97.2943 47.6632 -112.435 -97.8955 47.3132 
-112.335 -98.6809 47.1069 -113.364 -96.7263 49.4515 -113.732 -96.4697 49.7412 
-112.873 -96.8943 49.1364 -112.593 -97.2653 48.8373 -112.638 -97.8603 48.5286 
-112.576 -98.5243 48.1678 -112.413 -99.2847 47.9034 -113.222 -96.7442 50.7403 
-113.748 -96.5825 50.825 -112.609 -96.8175 50.5326 -112.27 -97.1107 50.2375 
-112.455 -97.8028 49.9901 -112.694 -98.53 49.7493 -112.611 -99.1811 49.363 
-112.545 -99.836 49.0229 -113.314 -96.9625 51.543 -113.87 -96.7888 51.5082 
-112.62 -97.04 51.5033 -112.049 -97.1868 51.291 -111.943 -97.7714 51.0131 
-112.138 -98.6219 50.8711 -112.255 -99.2828 50.7124 -112.361 -99.8019 50.3555 
-112.62 -100.279 50.0145 -113.565 -97.3736 51.9585 -114.005 -97.112 51.9824 
-113.004 -97.5799 51.9447 -112.411 -97.6954 51.831 -112.016 -98.0082 51.558 
-111.862 -98.7142 51.3307 -111.796 -99.4409 51.2809 -111.909 -99.8976 51.1812 
-112.289 -100.272 50.9119 -112.721 -100.664 50.6437 -112.802 -101.298 51.0844 
-112.525 -100.85 51.304 -112.535 -101.669 51.9037 -112.104 -100.427 51.5429 
-112.4 -101.115 52.2164 -112.41 -101.963 53.0292 -111.846 -100.072 51.6702 
-112.221 -100.643 52.4738 -112.423 -101.385 53.4595 -112.578 -102.034 54.0904 
-111.966 -99.525 51.7023 -112.21 -100.137 52.6162 -112.414 -100.82 53.8003 
-112.572 -101.536 54.5492 -112.998 -101.98 54.8573 -112.258 -98.8373 51.8588 
-112.371 -99.4476 52.7277 -112.379 -100.061 53.9923 -112.554 -100.879 54.888 
-112.943 -101.593 55.2829 -113.496 -102.042 55.6803 -112.632 -98.4464 52.1257 
-112.671 -98.9623 52.8649 -112.426 -99.3402 54.0311 -112.531 -99.9945 54.9987 
-113.037 -100.88 55.5283 -113.513 -101.638 56.0236 -113.954 -102.15 56.67 
-113.119 -98.289 52.2901 -113.181 -98.8067 52.9352 -112.891 -99.0803 53.9274 
-112.771 -99.4379 54.8887 -113.231 -100.076 55.5533 -113.731 -100.889 56.151 
-114.028 -101.614 56.8771 -114.364 -102.098 57.5655 -113.562 -98.0139 52.3744 
-113.649 -98.5553 52.9838 -113.589 -98.933 53.7999 -113.448 -99.3072 54.6726 
-113.608 -99.7153 55.4563 -113.958 -100.226 56.1787 -114.179 -100.897 56.966 
-114.384 -101.511 57.7414 -114.684 -101.941 58.3221 -113.899 -97.6326 52.4903 
-113.888 -98.1085 53.1313 -113.978 -98.5233 53.8359 -114.068 -99.0408 54.5468 
-114.132 -99.558 55.3236 -114.215 -99.9155 56.1586 -114.297 -100.336 57.0232 
-114.411 -100.896 57.8781 -114.615 -101.398 58.5633 -114.855 -101.811 58.9873 
-112.714 -101.998 51.4097 -112.437 -102.446 52.3867 -112.742 -102.576 51.8123 
-112.572 -102.565 53.4987 -112.771 -102.846 52.8434 -113.366 -102.747 52.2621 
-113.13 -102.365 54.3906 -113.319 -102.746 53.9024 -113.753 -102.813 53.3357 
-114.352 -102.798 52.7941 -113.722 -102.28 55.2708 -113.984 -102.591 54.8918 
-114.293 -102.828 54.5195 -114.702 -102.968 53.9974 -115.015 -103.239 53.4427 
-114.134 -102.461 56.3978 -114.389 -102.743 56.0019 -114.663 -103.013 55.6408 
-115.005 -103.249 55.2208 -115.202 -103.631 54.6312 -115.3 -103.972 54.0454 
-114.502 -102.544 57.4476 -114.694 -102.94 57.1103 -114.954 -103.255 56.63 
-115.366 -103.467 56.1317 -115.616 -103.847 55.563 -115.51 -104.389 54.9266 
-115.585 -104.572 54.371 -114.848 -102.419 58.2373 -115.036 -102.895 57.9883 
-115.307 -103.286 57.5065 -115.787 -103.489 56.8902 -116.205 -103.738 56.2649 
-116.1 -104.314 55.6104 -115.838 -104.846 54.9701 -116.051 -104.871 54.4418 
-115.044 -102.301 58.8906 -115.276 -102.796 58.6971 -115.602 -103.206 58.3127 
-116.104 -103.431 57.7269 -116.606 -103.59 57.0847 -116.681 -104.005 56.4371 
-116.381 -104.63 55.7312 -116.307 -105.002 55.0409 -116.656 -104.951 54.4538 
-115.061 -102.063 59.4913 -115.319 -102.673 59.3794 -115.435 -102.449 59.876 
-115.844 -103.125 59.8228 -116.231 -102.785 60.2364 -115.713 -103.168 59.1397 
-116.737 -103.373 60.2157 -117.172 -102.902 60.6205 -116.442 -103.514 59.5382 
-116.267 -103.443 58.6697 -117.543 -103.538 60.526 -117.863 -103.041 60.8448 
-117.287 -103.773 59.8676 -117.007 -103.738 59.0302 -116.797 -103.612 58.0645 
-118.196 -104.01 60.7323 -118.717 -103.374 60.8426 -117.861 -104.262 60.2406 
-117.543 -104.236 59.4261 -117.197 -104.107 58.4904 -116.974 -103.947 57.4491 
-119.237 -104.466 60.8758 -119.904 -103.579 60.8056 -118.518 -104.884 60.6561 
-117.973 -104.841 59.9096 -117.504 -104.77 58.8838 -117.133 -104.622 57.8564 
-116.823 -104.494 56.7339 -120.351 -104.434 60.8664 -120.701 -103.516 60.6684 
-119.577 -105.065 60.8141 -118.747 -105.106 60.2133 -118.102 -105.062 59.1195 
-117.63 -105.093 58.0624 -117.236 -104.972 57.0254 -116.784 -104.921 55.8954 
-120.847 -104.178 60.479 -120.848 -103.434 60.1792 -120.462 -104.874 60.4821 
-119.754 -105.064 60.011 -118.992 -104.969 59.0413 -118.398 -105.031 58.0256 
-117.978 -105.079 57.129 -117.548 -105.018 56.0729 -117.056 -105.01 55.0603 
-120.855 -104.013 59.6924 -120.806 -103.429 59.3561 -120.778 -104.676 59.7434 
-120.466 -105.051 59.388 -119.885 -105.009 58.6318 -119.198 -104.904 57.7775 
-118.661 -104.929 57.0136 -118.268 -104.959 56.0985 -117.843 -104.965 55.0581 
-117.412 -104.923 54.3069 -114.827 -101.401 59.3895 -115.083 -101.566 59.8225 
-114.926 -100.861 59.686 -115.364 -100.865 60.0131 -115.309 -100.265 59.7846 
-115.707 -101.848 60.0525 -115.964 -100.199 60.092 -115.927 -99.8471 59.6269 
-116.277 -101.112 60.0798 -116.747 -102.16 60.3115 -116.679 -99.8713 59.919 
-116.53 -99.725 59.077 -116.941 -100.598 60.0179 -117.341 -101.636 60.1272 
-117.627 -102.368 60.6276 -117.256 -99.8664 59.2301 -117.032 -99.656 58.2545 
-117.433 -100.397 59.6743 -117.729 -101.384 59.7222 -118.03 -102.083 60.1955 
-118.313 -102.533 60.7302 -117.709 -99.8454 58.3251 -117.549 -99.3365 57.6421 
-117.768 -100.313 58.9547 -117.93 -101.136 59.1696 -118.284 -101.924 59.5144 
-118.755 -102.252 60.203 -119.348 -102.7 60.6507 -118.141 -99.5486 57.7129 
-118.043 -98.8392 57.332 -118.145 -100.139 58.2246 -118.22 -100.778 58.602 
-118.542 -101.539 58.9073 -119.05 -102.059 59.4785 -119.674 -102.333 60.1212 
-120.304 -102.801 60.5069 -118.502 -99.0998 57.2843 -118.38 -98.4552 56.9722 
-118.59 -99.7672 57.6762 -118.705 -100.372 58.0838 -118.957 -100.994 58.4262 
-119.321 -101.644 58.8007 -119.729 -102.143 59.2948 -120.194 -102.484 59.7807 
-120.621 -102.885 60.1009 -118.747 -98.7608 56.758 -118.588 -98.2759 56.4416 
-118.958 -99.3356 57.1324 -119.205 -99.916 57.5467 -119.46 -100.455 57.9345 
[...]
CELL_DATA 2000
SCALARS Distance double
LOOKUP_TABLE default
160.892 160.546 160.885 161.192 160.145 160.512 160.828 161.17 161.487 
159.717 160.095 160.455 160.823 161.199 161.521 161.904 159.377 159.7 
160.094 160.471 160.917 161.277 161.715 162.02 162.432 159.22 159.455 
159.836 160.151 160.609 160.997 161.481 161.838 162.262 162.551 162.918 
159.149 159.364 159.737 159.974 160.397 160.717 161.208 161.584 162.051 
162.372 162.762 163.019 163.373 159.044 159.28 159.655 159.898 160.303 
160.566 161.026 161.348 161.841 162.168 162.615 162.888 163.291 163.519 
163.902 158.946 159.157 159.502 159.764 160.145 160.441 160.866 161.189 
161.657 161.988 162.455 162.755 163.188 163.451 163.855 164.077 164.434 
158.902 159.073 159.37 159.588 159.919 160.212 160.605 160.963 161.412 
161.784 162.249 162.589 163.028 163.327 163.727 163.991 164.338 164.558 
164.843 160.579 159.97 160.279 160.252 159.309 159.652 159.641 159.933 
159.861 158.611 158.973 158.979 159.304 159.238 159.503 159.41 157.957 
158.284 158.297 158.63 158.574 158.858 158.77 159.057 159.041 157.379 
157.668 157.659 157.961 157.907 158.187 158.123 158.422 158.439 158.771 
158.872 156.73 157.065 157.038 157.343 157.289 157.55 157.515 157.806 
157.863 158.197 158.317 158.66 158.793 156.006 156.356 156.368 156.716 
156.718 156.985 156.976 157.244 157.306 157.634 157.745 158.095 158.209 
158.565 158.685 155.474 155.701 155.775 156.093 156.191 156.468 156.491 
156.732 156.733 157.039 157.085 157.464 157.556 157.952 158.084 158.462 
158.61 155.261 155.339 155.428 155.637 155.781 156.017 156.057 156.254 
156.182 156.42 156.378 156.737 156.817 157.257 157.432 157.862 158.059 
158.428 158.594 155.217 155.243 155.261 155.393 155.36 155.35 155.482 
155.507 155.686 155.51 155.482 155.512 155.522 155.568 155.706 155.842 
155.625 155.594 155.511 155.458 155.347 155.447 155.466 155.722 155.866 
155.763 155.692 155.615 155.466 155.342 155.276 155.304 155.394 155.57 
155.786 156.06 156.023 155.877 155.815 155.624 155.565 155.432 155.587 
155.525 155.825 155.78 156.125 156.19 156.587 156.393 156.184 156.07 
155.847 155.747 155.656 155.834 155.898 156.28 156.27 156.625 156.526 
156.881 156.878 157.283 156.835 156.587 156.484 156.176 156.047 155.841 
155.931 156.015 156.365 156.567 156.904 156.973 157.225 157.232 157.533 
157.587 157.933 157.32 157.076 157.078 156.735 156.702 156.322 156.384 
156.199 156.476 156.558 156.901 157.046 157.292 157.402 157.639 157.763 
158.06 158.176 158.468 158.707 158.294 158.65 158.953 157.837 158.196 
158.54 158.941 159.337 157.465 157.773 158.143 158.551 159.037 159.421 
159.863 157.139 157.456 157.845 158.224 158.748 159.153 159.654 159.98 
160.396 156.864 157.184 157.61 157.953 158.415 158.832 159.322 159.739 
160.192 160.523 160.973 156.874 157.078 157.574 157.787 158.172 158.458 
158.865 159.313 159.812 160.275 160.787 161.154 161.665 157.164 157.274 
157.808 157.905 158.297 158.352 158.702 158.929 159.445 159.88 160.479 
160.924 161.463 161.838 162.311 157.445 157.563 158.032 158.166 158.578 
158.612 158.974 159.009 159.483 159.692 160.282 160.634 161.189 161.574 
162.041 162.404 162.794 157.607 157.729 158.086 158.27 158.636 158.809 
159.184 159.314 159.744 159.878 160.354 160.55 161.021 161.309 161.752 
162.099 162.493 162.825 163.145 158.975 159.251 159.215 159.44 159.645 
159.548 159.779 159.706 159.966 160.151 160.018 160.269 160.127 160.394 
160.307 160.652 160.683 160.555 160.857 160.704 161.013 160.845 161.199 
161.093 161.496 161.297 161.134 161.496 161.346 161.729 161.549 161.929 
161.747 162.144 161.999 162.38 162.025 161.838 162.229 162.05 162.465 
162.293 162.707 162.523 162.916 162.72 163.076 162.881 163.19 162.682 
162.568 162.956 162.804 163.188 163.028 163.422 163.273 163.661 163.489 
163.813 163.598 163.857 163.644 163.882 163.149 163.129 163.5 163.441 
163.79 163.688 164.032 163.926 164.277 164.161 164.451 164.276 164.472 
164.269 164.443 164.269 164.461 163.471 163.506 163.865 163.88 164.228 
164.197 164.527 164.463 164.781 164.701 164.966 164.832 165 164.815 
164.945 164.776 164.932 164.791 164.953 163.723 164.295 164.056 164.163 
165.075 164.737 164.862 164.528 164.577 165.968 165.609 165.725 165.316 
165.343 164.939 164.919 166.734 166.464 166.579 166.2 166.197 165.75 
165.679 165.253 165.178 167.493 167.214 167.392 167.028 167.041 166.59 
166.476 166.013 165.865 165.457 165.324 168.431 168.11 168.351 167.912 
167.934 167.426 167.288 166.788 166.59 166.129 165.92 165.523 165.333 
169.16 169.034 169.262 168.9 168.839 168.311 168.069 167.554 167.31 
166.846 166.612 166.146 165.905 165.488 165.284 169.298 169.465 169.664 
169.586 169.474 169.088 168.723 168.232 167.88 167.474 167.219 166.821 
166.561 166.109 165.856 165.447 165.265 169.026 169.32 169.505 169.681 
169.642 169.512 169.188 168.785 168.363 167.948 167.63 167.307 167.043 
166.695 166.408 166.02 165.774 165.426 165.256 163.546 163.394 163.65 
164.065 163.267 163.485 163.914 164.239 164.807 163.302 163.424 163.859 
164.131 164.755 165.106 165.733 163.476 163.561 163.999 164.176 164.795 
165.103 165.742 166.021 166.526 163.587 163.746 164.167 164.335 164.865 
165.149 165.729 166.014 166.497 166.731 167.218 163.576 163.801 164.191 
164.398 164.807 165.106 165.598 165.936 166.411 166.688 167.178 167.474 
168.07 163.516 163.755 164.127 164.338 164.681 164.943 165.369 165.724 
166.213 166.562 167.045 167.385 167.899 168.287 168.774 163.406 163.654 
164.012 164.245 164.589 164.813 165.202 165.496 165.956 166.318 166.767 
167.146 167.539 167.952 168.285 168.72 168.938 163.252 163.493 163.827 
164.097 164.46 164.718 165.094 165.354 165.743 166.051 166.421 166.776 
167.08 167.465 167.697 168.105 168.265 168.664 168.73 157.786 158.163 
158.038 158.216 158.582 158.419 158.559 158.481 158.717 159.077 158.869 
158.993 158.845 159.086 159.036 159.33 159.663 159.42 159.574 159.354 
159.602 159.482 159.841 159.739 160.022 160.318 160.047 160.22 159.99 
160.242 160.073 160.413 160.3 160.621 160.445 160.643 161.035 160.728 
160.867 160.631 160.868 160.71 161.019 160.89 161.182 161.025 161.239 
161.033 161.216 161.783 161.47 161.594 161.298 161.508 161.315 161.628 
161.49 161.796 161.617 161.851 161.631 161.842 161.634 161.882 162.444 
162.208 162.377 162.076 162.288 162.016 162.321 162.126 162.444 162.252 
162.487 162.265 162.46 162.257 162.486 162.319 162.583 162.942 162.811 
163.034 162.835 163.069 162.823 163.091 162.86 163.13 162.909 163.095 
162.865 162.987 162.803 162.961 162.846 163.061 162.964 163.194 157.612 
157.518 157.709 158.008 157.449 157.628 157.94 158.129 158.446 157.446 
157.593 157.903 158.071 158.41 158.596 158.939 157.536 157.653 157.997 
158.102 158.46 158.6 158.988 159.141 159.523 157.718 157.801 158.194 
158.274 158.675 158.756 159.178 159.269 159.695 159.796 160.207 158.021 
158.044 158.429 158.496 158.908 159.006 159.435 159.525 159.954 160.032 
160.464 160.538 160.957 158.39 158.383 158.729 158.752 159.13 159.218 
159.632 159.751 160.165 160.277 160.691 160.8 161.218 161.301 161.691 
158.723 158.726 159.052 159.062 159.424 159.468 159.879 159.955 160.37 
160.46 160.861 160.979 161.379 161.509 161.881 161.98 162.307 159.029 
159.024 159.34 159.364 159.732 159.781 160.201 160.255 160.668 160.707 
161.089 161.153 161.531 161.639 161.998 162.109 162.413 162.511 162.779 
159.313 159.902 159.595 159.626 160.613 160.251 160.288 159.97 160.052 
161.364 160.997 161.03 160.682 160.766 160.454 160.554 162.129 161.754 
161.773 161.416 161.468 161.166 161.256 160.957 161.017 162.941 162.545 
162.562 162.165 162.189 161.849 161.914 161.624 161.689 161.382 161.415 
163.701 163.349 163.361 162.969 162.98 162.596 162.641 162.3 162.375 
162.054 162.114 161.782 161.835 164.303 164.031 164.036 163.717 163.71 
163.365 163.378 163.04 163.092 162.768 162.831 162.498 162.543 162.211 
162.266 164.809 164.569 164.583 164.321 164.315 164.022 164.003 163.705 
163.708 163.434 163.466 163.188 163.207 162.895 162.9 162.602 162.637 
165.309 165.062 165.079 164.84 164.853 164.59 164.569 164.275 164.238 
163.969 163.971 163.742 163.763 163.506 163.5 163.206 163.205 162.935 
162.978 165.593 165.945 165.624 165.357 166.34 165.994 165.717 165.402 
165.138 166.657 166.36 166.042 165.745 165.445 165.153 164.848 166.762 
166.568 166.232 166.003 165.684 165.423 165.096 164.813 164.496 166.846 
166.643 166.389 166.172 165.918 165.66 165.376 165.072 164.771 164.478 
164.222 167.168 166.873 166.714 166.433 166.27 165.972 165.765 165.427 
165.177 164.824 164.571 164.262 164.032 167.62 167.318 167.171 166.862 
166.702 166.392 166.203 165.874 165.653 165.294 165.04 164.67 164.394 
164.066 163.791 168.035 167.768 167.608 167.313 167.119 166.817 166.601 
166.297 166.065 165.75 165.489 165.138 164.828 164.454 164.125 163.791 
163.5 168.47 168.189 168.05 167.737 167.543 167.221 166.99 166.673 
166.408 166.104 165.809 165.509 165.182 164.851 164.505 164.153 163.837 
163.518 163.266 165.848 166.339 166.127 166.194 166.703 166.571 166.651 
166.485 166.583 166.933 166.85 166.951 166.883 167.036 166.901 166.955 
167.244 167.103 167.211 167.143 167.356 167.317 167.439 167.212 167.108 
167.562 167.467 167.579 167.465 167.696 167.657 167.868 167.69 167.638 
167.284 167.141 167.543 167.647 167.763 167.791 168.014 168.034 168.287 
168.161 168.186 167.841 167.717 167.372 167.372 167.308 167.473 167.597 
167.784 168.015 168.217 168.468 168.518 168.546 168.339 168.195 167.917 
167.871 167.67 167.768 167.209 167.29 167.436 167.577 167.807 168.059 
168.287 168.494 168.482 168.483 168.272 168.19 168.078 168.036 168.102 
168.035 168.154 167.209 167.285 167.435 167.504 167.672 167.834 167.983 
168.185 168.142 168.232 168.012 168.051 167.94 168.05 168.162 168.256 
168.443 168.408 168.571 165.702 165.524 165.834 166.192 165.114 165.547 
165.953 166.288 166.567 164.6 165.042 165.431 165.909 166.263 166.585 
166.805 164.114 164.521 164.859 165.327 165.708 166.166 166.505 166.823 
167.092 163.563 164.006 164.343 164.79 165.16 165.609 165.983 166.421 
166.773 167.127 167.374 162.985 163.42 163.775 164.256 164.649 165.107 
165.454 165.881 166.189 166.643 166.901 167.277 167.362 162.519 162.896 
163.244 163.688 164.101 164.582 164.949 165.363 165.616 166.016 166.238 
166.668 166.826 167.142 167.158 162.072 162.459 162.798 163.207 163.61 
164.06 164.46 164.869 165.158 165.491 165.715 166.062 166.284 166.617 
166.766 166.99 167.058 161.586 161.986 162.321 162.747 163.128 163.582 
163.977 164.405 164.736 165.079 165.344 165.646 165.898 166.188 166.388 
166.632 166.746 166.947 167.022 161.451 161.559 161.709 162.179 161.677 
161.82 162.257 162.466 162.989 161.647 161.858 162.246 162.502 163.026 
163.303 163.837 161.509 161.751 162.118 162.401 162.895 163.263 163.84 
164.136 164.607 161.425 161.645 162.034 162.265 162.735 163.081 163.687 
164.078 164.649 164.882 165.276 161.345 161.602 162.035 162.248 162.71 
162.965 163.539 163.914 164.547 164.891 165.388 165.54 165.86 161.194 
161.498 161.963 162.244 162.708 162.961 163.453 163.776 164.328 164.724 
165.222 165.541 165.883 166.05 166.288 161.08 161.35 161.815 162.124 
162.58 162.882 163.315 163.633 164.07 164.442 164.849 165.232 165.553 
165.884 166.136 166.373 166.587 161.061 161.273 161.695 161.967 162.382 
162.685 163.078 163.405 163.793 164.14 164.505 164.842 165.152 165.479 
165.771 166.096 166.386 166.639 166.873 161.189 161.504 161.494 161.788 
161.794 161.79 162.097 162.106 162.428 162.197 162.122 162.432 162.412 
162.746 162.754 163.1 162.717 162.598 162.903 162.812 163.149 163.103 
163.47 163.459 163.826 163.191 163.11 163.4 163.313 163.62 163.547 
163.903 163.871 164.248 164.213 164.545 163.623 163.541 163.815 163.756 
164.028 163.98 164.293 164.29 164.662 164.653 164.982 164.91 165.18 
164.133 163.999 164.269 164.167 164.444 164.364 164.652 164.629 164.977 
165.014 165.373 165.351 165.636 165.537 165.8 164.656 164.529 164.798 
164.672 164.981 164.856 165.162 165.039 165.324 165.285 165.607 165.658 
165.991 165.991 166.281 166.189 166.449 165.064 165.002 165.26 165.183 
165.501 165.424 165.764 165.627 165.865 165.686 165.863 165.823 166.094 
166.212 166.543 166.612 166.878 166.806 166.977 167.208 167.147 167.307 
167.458 166.756 167.094 167.294 167.498 167.643 166.252 166.581 166.779 
167.153 167.356 167.642 167.821 166.116 166.235 166.456 166.67 166.925 
167.237 167.441 167.739 167.859 166.265 166.339 166.65 166.649 166.955 
167.017 167.297 167.41 167.557 167.708 167.771 166.187 166.449 166.795 
166.922 167.237 167.272 167.609 167.573 167.838 167.71 167.861 167.771 
167.901 165.862 166.208 166.522 166.847 167.129 167.393 167.713 167.893 
168.243 168.224 168.483 168.247 168.42 168.163 168.314 165.567 165.851 
166.146 166.471 166.763 167.096 167.391 167.744 168.095 168.414 168.764 
168.852 169.071 168.874 168.971 168.667 168.702 165.329 165.573 165.847 
166.136 166.451 166.754 167.059 167.363 167.671 168.051 168.424 168.819 
169.161 169.325 169.482 169.325 169.309 168.99 168.892 155.331 155.52 
155.456 155.655 156.058 155.799 155.978 155.897 156.154 156.805 156.482 
156.671 156.426 156.692 156.5 156.73 157.445 157.205 157.411 157.199 
157.465 157.204 157.413 157.13 157.337 158.011 157.788 158.001 157.864 
158.136 157.95 158.13 157.854 158.011 157.777 158.056 158.675 158.402 
158.637 158.459 158.762 158.577 158.798 158.537 158.723 158.473 158.755 
158.573 158.921 159.38 159.108 159.347 159.149 159.476 159.267 159.548 
159.263 159.532 159.253 159.606 159.359 159.72 159.466 159.741 160.043 
159.796 160.009 159.832 160.144 159.986 160.288 160.058 160.344 160.102 
160.461 160.244 160.596 160.319 160.549 160.226 160.395 160.669 160.441 
160.64 160.455 160.74 160.606 160.908 160.749 161.01 160.835 161.115 
160.983 161.273 161.103 161.296 161.019 161.139 160.839 161 155.345 
155.709 155.524 155.515 156.136 155.934 155.957 155.724 155.636 156.559 
156.312 156.268 156.115 156.055 155.81 155.711 157.127 156.749 156.612 
156.378 156.308 156.138 156.071 155.89 155.919 157.933 157.444 157.328 
156.875 156.797 156.464 156.463 156.24 156.321 156.182 156.36 158.802 
158.331 158.269 157.755 157.686 157.181 157.202 156.817 156.986 156.713 
156.954 156.74 156.988 159.538 159.143 159.056 158.654 158.574 158.119 
158.089 157.677 157.823 157.517 157.793 157.503 157.768 157.467 157.706 
160.176 159.803 159.701 159.349 159.281 158.908 158.858 158.493 158.553 
158.295 158.513 158.317 158.564 158.305 158.495 158.197 158.381 160.837 
160.457 160.399 160.016 159.994 159.611 159.607 159.226 159.262 158.954 
159.094 158.911 159.125 158.973 159.15 158.93 159.05 158.799 158.925 
155.243 155.286 155.193 155.149 155.303 155.161 154.993 155.074 155.178 
155.423 155.188 154.944 154.891 154.935 155.14 155.351 155.796 155.478 
155.295 154.996 154.932 154.924 155.088 155.309 155.501 156.31 156.008 
155.957 155.563 155.434 155.103 155.07 155.063 155.218 155.433 155.629 
156.857 156.559 156.545 156.245 156.141 155.724 155.55 155.226 155.234 
155.232 155.484 155.665 155.944 157.508 157.137 157.084 156.79 156.732 
156.383 156.254 155.837 155.795 155.516 155.732 155.702 156.069 156.131 
156.418 158.199 157.817 157.752 157.391 157.354 156.99 156.947 156.56 
156.578 156.23 156.402 156.183 156.49 156.406 156.715 156.666 156.889 
158.777 158.469 158.419 158.085 158.053 157.684 157.66 157.287 157.323 
157.001 157.131 156.882 157.08 156.907 157.13 157.022 157.232 157.148 
157.338 165.36 164.817 165.121 165.153 164.291 164.565 164.542 164.826 
164.765 163.678 163.997 163.952 164.222 164.141 164.398 164.305 162.896 
163.282 163.217 163.568 163.476 163.777 163.67 163.941 163.829 162.065 
162.436 162.333 162.729 162.62 163.016 162.89 163.243 163.091 163.406 
163.248 161.289 161.614 161.472 161.82 161.682 162.086 161.962 162.371 
162.221 162.589 162.433 162.777 162.656 160.542 160.852 160.693 160.988 
160.806 161.152 161.011 161.417 161.292 161.688 161.562 161.94 161.855 
162.227 162.179 159.851 160.129 160 160.254 160.068 160.324 160.138 
160.479 160.342 160.749 160.635 161.053 160.967 161.391 161.339 161.754 
161.708 159.265 159.496 159.407 159.633 159.496 159.677 159.482 159.686 
159.512 159.827 159.717 160.119 160.045 160.476 160.421 160.86 160.816 
161.249 161.213 
POINT_DATA 1002
SCALARS Distance double
LOOKUP_TABLE default
161.223 160.883 160.57 160.863 160.206 161.493 160.468 159.764 161.156 
161.813 160.054 159.334 160.846 161.596 162.305 159.715 159.085 160.514 
161.392 162.16 162.832 159.568 159.008 160.228 161.087 161.965 162.663 
163.261 159.518 158.923 160.127 160.838 161.7 162.49 163.134 163.727 
159.399 158.811 160.05 160.734 161.508 162.317 163.041 163.699 164.283 
159.262 158.766 159.846 160.54 161.325 162.141 162.908 163.616 164.252 
164.769 159.19 158.749 159.658 160.253 161.024 161.889 162.718 163.459 
164.108 164.655 165.105 160.286 159.98 159.644 159.332 158.951 159.613 
158.637 158.246 158.968 159.134 157.971 157.656 158.285 158.472 158.706 
157.379 157.102 157.63 157.807 158.091 158.524 156.714 156.376 157.022 
157.216 157.522 157.98 158.451 155.979 155.665 156.414 156.719 156.996 
157.402 157.856 158.323 155.461 155.299 155.888 156.273 156.484 156.721 
157.135 157.678 158.252 155.26 155.224 155.565 155.891 156.009 156.057 
156.357 156.961 157.658 158.268 155.168 155.355 155.208 155.488 155.384 
155.603 155.574 155.574 155.476 155.626 155.634 155.669 155.327 155.242 
155.534 155.774 155.846 155.438 155.262 155.409 155.768 156.012 156.212 
155.663 155.598 155.905 156.164 156.445 156.332 156.639 155.869 155.713 
156.196 156.744 156.971 157.231 156.793 157.075 156.33 155.943 156.14 
156.763 157.209 157.497 157.873 157.361 157.525 157.082 156.693 156.517 
156.774 157.167 157.502 157.92 158.387 158.986 158.577 159.296 158.09 
158.952 159.763 157.726 158.613 159.549 160.279 157.477 158.333 159.301 
160.115 160.796 157.304 158.052 158.864 159.804 160.659 161.464 157.413 
158.007 158.46 159.272 160.362 161.34 162.193 157.717 158.295 158.592 
159.057 160.006 161.069 161.982 162.76 157.89 158.489 158.952 159.38 
160.014 160.827 161.673 162.47 163.153 157.935 158.433 158.988 159.611 
160.241 160.809 161.428 162.157 162.854 163.429 159.472 159.879 159.989 
160.414 160.516 160.68 160.974 161.184 161.343 161.577 161.632 161.882 
162.123 162.324 162.533 162.419 162.638 162.876 163.122 163.304 163.394 
163.093 163.357 163.57 163.82 164.042 164.096 164.081 163.535 163.875 
164.139 164.389 164.623 164.691 164.629 164.62 163.83 164.231 164.578 
164.864 165.093 165.183 165.127 165.08 165.099 163.91 164.428 164.549 
165.234 165.442 164.925 166.152 166.312 165.79 165.316 166.929 166.963 
166.659 166.144 165.58 167.751 167.766 167.496 166.968 166.317 165.699 
168.814 168.715 168.489 167.816 167.082 166.372 165.69 169.575 169.192 
169.399 168.629 167.765 167.086 166.378 165.648 169.631 169.072 169.786 
169.238 168.304 167.573 167.001 166.304 165.616 169.259 168.75 169.628 
169.514 168.815 167.972 167.349 166.782 166.141 165.565 163.301 163.738 
163.145 163.573 163.084 164.432 163.617 163.207 164.39 165.446 163.86 
163.361 164.522 165.476 166.306 164.017 163.382 164.624 165.451 166.26 
166.927 164.005 163.342 164.553 165.245 166.098 166.878 167.73 163.919 
163.288 164.458 165.032 165.831 166.711 167.549 168.418 163.758 163.174 
164.359 164.95 165.626 166.412 167.179 167.889 168.55 163.548 163.034 
164.175 164.846 165.489 166.115 166.737 167.326 167.876 168.37 157.899 
158.281 158.311 158.667 158.768 158.73 159.175 159.29 159.139 159.391 
159.796 159.905 159.752 159.918 160.215 160.443 160.607 160.423 160.552 
160.769 160.879 161.133 161.365 161.027 161.154 161.351 161.428 161.412 
161.914 162.072 161.736 161.764 161.967 162.073 162.053 162.064 162.64 
162.62 162.579 162.55 162.649 162.719 162.671 162.656 162.739 157.414 
157.816 157.326 157.743 157.278 158.261 157.758 157.304 158.211 158.76 
157.898 157.408 158.338 158.832 159.374 158.098 157.65 158.589 159.099 
159.603 160.11 158.385 158.03 158.804 159.333 159.875 160.384 160.9 
158.734 158.407 159.069 159.518 160.048 160.573 161.117 161.639 159.037 
158.725 159.385 159.819 160.302 160.761 161.25 161.773 162.231 159.313 