# vtk DataFile Version 4.0
vtk output
ASCII
DATASET POLYDATA
POINTS 1002 float
-116.585 -101.724 47.8893 -116.657 -101.493 47.3198 -116.138 -101.444 47.5606 
-115.96 -101.73 48.1045 -115.428 -101.486 47.7661 -116.456 -101.859 48.63 
-115.211 -101.821 48.3057 -114.725 -101.532 48.0525 -115.756 -102.01 48.8269 
-116.241 -102.215 49.3716 -114.486 -101.947 48.604 -114.079 -101.614 48.3892 
-115.016 -102.194 49.0823 -115.548 -102.496 49.6183 -116.046 -102.719 50.1023 
-113.701 -102.187 48.9011 -113.324 -101.776 48.6631 -114.259 -102.379 49.4242 
-114.84 -102.63 49.995 -115.401 -102.871 50.4604 -115.932 -102.924 50.9753 
-112.903 -102.38 49.2257 -112.665 -101.794 49.0578 -113.468 -102.637 49.7475 
-114.128 -102.699 50.4242 -114.721 -102.833 50.9903 -115.28 -102.983 51.5042 
-115.767 -103.09 52.0285 -112.492 -102.216 49.8574 -112.422 -101.576 49.7463 
-112.869 -102.705 50.2416 -113.521 -102.836 50.8596 -114.14 -102.841 51.5434 
-114.657 -103.123 52.1946 -115.129 -103.537 52.7113 -115.555 -103.707 53.0646 
-112.394 -101.897 50.6522 -112.331 -101.354 50.4871 -112.55 -102.476 50.9696 
-113.008 -102.876 51.4295 -113.63 -102.964 52.0163 -114.185 -103.246 52.7541 
-114.662 -103.992 53.3822 -115.085 -104.495 53.6683 -115.494 -104.305 53.8429 
-112.139 -101.754 51.227 -112.033 -101.255 51.0228 -112.223 -102.276 51.5585 
-112.477 -102.806 51.9884 -112.987 -103.107 52.4368 -113.623 -103.284 53.0321 
-114.267 -103.911 53.739 -114.813 -104.721 54.1525 -115.219 -104.851 54.247 
-115.595 -104.287 54.4404 -111.676 -101.751 51.5887 -111.597 -101.223 51.3921 
-111.789 -102.212 51.907 -112.011 -102.685 52.3747 -112.396 -103.137 52.8398 
-112.94 -103.363 53.2632 -113.675 -103.591 53.8315 -114.469 -104.137 54.4222 
-115.037 -104.558 54.714 -115.373 -104.39 54.8384 -115.688 -103.885 55.1346 
-116.478 -101.007 47.0956 -115.846 -101.017 47.3029 -116.23 -100.56 46.7958 
-115.467 -100.628 46.9547 -115.785 -100.401 46.2064 -115.087 -101.067 47.5561 
-114.982 -100.447 46.3489 -115.24 -100.233 45.5938 -114.727 -100.637 47.2183 
-114.447 -101.05 47.9144 -114.566 -100.171 45.8051 -114.896 -99.6015 45.3947 
-114.288 -100.392 46.5714 -114.129 -100.577 47.5416 -113.838 -101.071 48.2561 
-114.356 -99.504 45.6806 -114.739 -98.7479 45.434 -113.824 -100.112 46.0022 
-113.567 -100.384 46.827 -113.486 -100.604 47.8861 -113.121 -101.146 48.5816 
-114.161 -98.7386 45.708 -114.511 -98.108 45.3276 -113.465 -99.5143 45.823 
-112.914 -100.161 46.2467 -112.878 -100.414 47.2821 -112.859 -100.626 48.3727 
-112.594 -101.097 49.1056 -113.866 -98.1315 45.5801 -114.265 -97.5957 45.1672 
-113.218 -98.7896 45.7623 -112.583 -99.5382 46.0606 -112.391 -100.065 46.8527 
-112.473 -100.271 47.9937 -112.429 -100.529 49.0229 -112.35 -100.944 49.8155 
-113.617 -97.5315 45.4408 -114.169 -97.0332 45.1661 -113.015 -98.1052 45.6609 
-112.572 -98.7396 46.0766 -112.37 -99.3482 46.8065 -112.272 -99.7607 47.7436 
-112.149 -100.048 48.754 -112.082 -100.391 49.7057 -112.096 -100.802 50.4706 
-113.499 -96.8819 45.4595 -114.171 -96.4895 45.2996 -112.843 -97.3935 45.6529 
-112.549 -97.9781 46.155 -112.519 -98.5783 46.9755 -112.323 -99.1101 47.7953 
-111.951 -99.5384 48.5548 -111.744 -99.9049 49.425 -111.753 -100.266 50.2966 
-111.743 -100.701 50.9495 -113.714 -96.2083 45.5826 -112.908 -96.5702 45.7396 
-113.191 -96.0219 45.9802 -112.507 -96.3583 46.2935 -112.91 -96.0202 46.6245 
-112.442 -97.1076 46.1668 -112.407 -96.3625 47.1131 -112.783 -96.1299 47.563 
-112.319 -96.966 46.9991 -112.478 -97.7871 47.0388 -112.248 -96.5149 48.1412 
-112.471 -96.26 48.7035 -112.164 -97.0282 47.8492 -112.239 -97.7475 47.9183 
-112.352 -98.4559 47.9446 -111.93 -96.7404 49.2763 -112.194 -96.4997 49.7196 
-111.783 -97.1415 48.7314 -111.63 -97.7293 48.4845 -111.625 -98.4168 48.5397 
-111.783 -99.0217 48.5631 -111.816 -97.0139 50.3241 -112.251 -96.8092 50.5178 
-111.494 -97.25 49.8622 -111.154 -97.5954 49.2603 -110.932 -98.2483 48.9764 
-111.073 -98.9772 49.0659 -111.409 -99.4981 49.2508 -111.888 -97.212 51.2822 
-112.357 -96.992 51.3899 -111.447 -97.3954 51.0916 -111.073 -97.5418 50.5972 
-110.822 -98.0263 50.013 -110.876 -98.852 49.786 -111.155 -99.4969 49.9283 
-111.446 -99.8853 50.1543 -111.931 -97.31 52.2233 -112.314 -97.0646 52.3888 
-111.504 -97.5646 52.1101 -111.155 -97.7228 51.9155 -110.956 -98.0445 51.5112 
-110.967 -98.7785 51.0574 -111.151 -99.5179 50.8397 -111.323 -99.9413 50.8689 
-111.482 -100.287 50.9458 -111.99 -97.4174 53.0871 -112.277 -97.1684 53.2863 
-111.656 -97.7442 52.8885 -111.34 -98.0248 52.7603 -111.104 -98.3031 52.6584 
-110.98 -98.8399 52.4165 -111.015 -99.5528 52.0401 -111.123 -100.08 51.745 
-111.198 -100.442 51.5988 -111.332 -100.834 51.4973 -111.216 -101.583 51.9217 
-111.013 -101.211 52.1814 -111.038 -101.911 52.7781 -110.933 -100.766 52.4945 
-110.914 -101.572 53.258 -111.174 -102.07 53.9792 -110.874 -100.237 52.8689 
-110.876 -101 53.7302 -111.076 -101.74 54.5347 -111.365 -102.137 55.1578 
-110.88 -99.5795 53.2467 -110.873 -100.248 54.0972 -111.096 -101.034 54.922 
-111.296 -101.738 55.5682 -111.558 -102.199 56.1394 -111.082 -98.9771 53.4055 
-111.02 -99.5711 54.2474 -111.158 -100.223 55.0831 -111.397 -101.007 55.775 
-111.616 -101.668 56.4271 -112.004 -102.137 57.128 -111.394 -98.5862 53.376 
-111.367 -99.1213 54.1902 -111.315 -99.6335 55.116 -111.469 -100.3 55.8875 
-111.732 -101.021 56.6082 -112.069 -101.603 57.4092 -112.497 -102.008 58.0791 
-111.693 -98.2356 53.468 -111.736 -98.7433 54.221 -111.619 -99.1917 55.1819 
-111.589 -99.7153 56.0438 -111.778 -100.375 56.8122 -112.05 -101.062 57.6605 
-112.385 -101.63 58.3921 -112.758 -102 58.8132 -111.961 -97.83 53.7225 
-112.006 -98.3026 54.4556 -111.937 -98.7498 55.3547 -111.864 -99.2176 56.1769 
-111.946 -99.7494 56.9425 -112.071 -100.372 57.8732 -112.251 -101.072 58.7104 
-112.573 -101.663 59.1746 -112.977 -102.035 59.3949 -112.202 -97.4876 53.9497 
-112.207 -97.8818 54.6765 -112.162 -98.3028 55.527 -112.146 -98.7997 56.2564 
-112.257 -99.3255 56.8712 -112.297 -99.7779 57.7961 -112.263 -100.302 58.8547 
-112.44 -100.967 59.4893 -112.854 -101.559 59.7332 -113.325 -101.965 59.9087 
-111.337 -102.075 52.2102 -111.371 -102.203 53.2237 -111.647 -102.42 52.6788 
-111.655 -102.215 54.5184 -111.932 -102.411 53.847 -112.079 -102.854 53.2769 
-111.796 -102.42 55.7272 -112.204 -102.546 55.2072 -112.382 -102.949 54.5077 
-112.488 -103.329 53.7528 -112.033 -102.628 56.8233 -112.235 -102.958 56.4473 
-112.47 -103.245 55.8568 -112.659 -103.481 54.9378 -113.058 -103.509 54.1491 
-112.565 -102.487 57.8322 -112.557 -103.044 57.5038 -112.594 -103.457 57.0553 
-112.849 -103.587 56.2794 -113.363 -103.475 55.349 -113.986 -103.581 54.7286 
-112.981 -102.285 58.5856 -113.125 -102.735 58.3146 -113.176 -103.236 57.9922 
-113.36 -103.51 57.4826 -113.834 -103.415 56.7429 -114.406 -103.319 55.9731 
-114.829 -103.788 55.289 -113.223 -102.296 59.1758 -113.519 -102.61 58.9567 
-113.795 -103.032 58.7578 -114.029 -103.433 58.4348 -114.333 -103.601 57.8991 
-114.699 -103.449 57.2668 -115.016 -103.422 56.4936 -115.239 -103.87 55.5883 
-113.552 -102.344 59.7743 -113.836 -102.726 59.6118 -114.165 -103.157 59.5114 
-114.428 -103.593 59.3274 -114.605 -103.99 58.8105 -114.773 -104.116 58.164 
-114.975 -103.86 57.5607 -115.225 -103.641 56.7601 -115.485 -103.729 55.8315 
-113.899 -102.116 60.3781 -114.163 -102.647 60.3113 -114.468 -102.341 60.8701 
-114.743 -103.046 60.7951 -114.991 -102.615 61.1928 -114.441 -103.254 60.2369 
-115.234 -103.476 61.0821 -115.666 -102.91 61.405 -114.902 -103.835 60.8063 
-114.633 -103.817 60.2221 -115.91 -103.959 61.3592 -116.593 -103.309 61.6363 
-115.315 -104.365 61.1764 -114.885 -104.447 60.7546 -114.694 -104.318 59.8125 
-116.88 -104.437 61.596 -117.524 -103.753 61.6143 -116.103 -104.834 61.4315 
-115.393 -104.893 60.945 -114.918 -104.935 59.9342 -114.766 -104.747 58.9007 
-117.84 -104.642 61.4691 -118.3 -103.985 61.2706 -117.149 -105.036 61.4495 
-116.387 -105.07 60.932 -115.704 -105.148 59.8456 -115.184 -105.232 58.7782 
-114.957 -104.723 58.1501 -118.668 -104.595 61.1425 -119.009 -103.977 61.0153 
-118.098 -104.953 61.1294 -117.379 -104.983 60.7103 -116.717 -104.995 59.7679 
-116.117 -105.181 58.7564 -115.567 -104.99 58.1236 -115.265 -104.223 57.5746 
-119.398 -104.559 60.8885 -119.611 -103.894 60.9007 -118.976 -104.958 60.6871 
-118.301 -104.997 60.2537 -117.557 -104.892 59.5343 -116.962 -104.944 58.7318 
-116.441 -104.922 58.154 -115.95 -104.393 57.6218 -115.633 -103.766 56.7965 
-119.895 -104.503 60.5571 -119.964 -103.77 60.5917 -119.684 -105.046 60.2311 
-119.215 -105.215 59.7151 -118.479 -105.084 59.1109 -117.718 -104.933 58.4934 
-117.141 -104.839 58.0158 -116.688 -104.48 57.6241 -116.284 -103.853 56.9758 
-115.952 -103.555 56.026 -113.44 -101.513 60.1941 -114.046 -101.691 60.6223 
-113.585 -100.92 60.2895 -114.262 -101.25 60.615 -113.941 -100.379 60.2737 
-114.606 -101.962 61.0764 -114.763 -100.811 60.5272 -114.585 -100.029 60.2221 
-114.95 -101.678 60.9782 -115.276 -102.215 61.3964 -115.413 -100.346 60.455 
-115.195 -99.9055 59.8938 -115.574 -101.296 60.7111 -115.845 -101.984 61.2134 
-116.239 -102.422 61.6196 -115.901 -100.017 60.146 -115.617 -99.8838 59.2241 
-116.165 -100.668 60.5195 -116.496 -101.618 60.7667 -116.887 -102.162 61.3436 
-117.237 -102.754 61.6775 -116.362 -99.8751 59.5316 -116.072 -99.6725 58.6334 
-116.69 -100.098 60.3142 -117.07 -100.88 60.5831 -117.43 -101.766 60.8877 
-117.716 -102.387 61.2893 -118.004 -103.138 61.3581 -116.848 -99.6803 58.8683 
-116.531 -99.2019 58.2879 -117.222 -99.8578 59.7767 -117.633 -100.209 60.4352 
-117.951 -101.023 60.7032 -118.126 -101.877 60.8936 -118.346 -102.58 60.9707 
-118.686 -103.294 60.9655 -117.172 -99.3005 58.3151 -116.874 -98.6927 57.9867 
-117.513 -99.7466 58.9536 -117.911 -100.027 59.7073 -118.269 -100.498 60.2198 
-118.466 -101.254 60.4733 -118.651 -101.992 60.5891 -118.985 -102.61 60.6698 
-119.351 -103.234 60.8163 -117.424 -98.832 57.9001 -117.192 -98.2991 57.6532 
-117.628 -99.462 58.2313 -117.869 -100.001 58.6913 -118.191 -100.427 59.1851 
[...]
CELL_DATA 2000
SCALARS Distance double
LOOKUP_TABLE default
160.683 160.303 160.643 160.912 159.893 160.235 160.529 160.867 161.163 
159.545 159.849 160.162 160.499 160.854 161.179 161.527 159.22 159.526 
159.835 160.166 160.536 160.886 161.261 161.577 161.898 158.878 159.19 
159.518 159.857 160.223 160.571 160.938 161.278 161.614 161.918 162.214 
158.668 158.899 159.263 159.57 159.982 160.295 160.684 160.979 161.38 
161.674 162.101 162.338 162.721 158.638 158.792 159.142 159.382 159.808 
160.101 160.521 160.791 161.236 161.529 162.092 162.37 162.919 163.034 
163.404 158.584 158.765 159.049 159.271 159.627 159.924 160.317 160.622 
161.025 161.369 161.905 162.335 162.946 163.253 163.659 163.696 163.856 
158.411 158.632 158.873 159.109 159.401 159.696 160.058 160.382 160.746 
161.084 161.499 161.976 162.507 163.046 163.47 163.776 163.912 163.955 
163.959 160.429 159.896 160.133 160.047 159.309 159.559 159.466 159.716 
159.63 158.673 158.942 158.836 159.109 159.049 159.319 159.277 158.003 
158.293 158.192 158.466 158.406 158.715 158.698 158.989 158.951 157.354 
157.646 157.554 157.81 157.715 158.037 158.02 158.372 158.357 158.645 
158.602 156.739 157.027 156.917 157.153 157.001 157.306 157.27 157.662 
157.699 158.043 158.059 158.331 158.377 156.149 156.414 156.286 156.502 
156.325 156.589 156.549 156.925 157.017 157.399 157.494 157.81 157.906 
158.201 158.337 155.629 155.824 155.675 155.873 155.737 155.973 155.99 
156.303 156.443 156.781 156.912 157.242 157.351 157.698 157.829 158.173 
158.292 155.229 155.324 155.125 155.282 155.187 155.445 155.554 155.864 
156.053 156.32 156.437 156.691 156.769 157.1 157.213 157.596 157.713 
158.065 158.135 154.989 154.54 154.742 154.783 154.323 154.349 154.411 
154.643 154.891 154.464 154.317 154.408 154.476 154.84 155.022 155.428 
154.718 154.561 154.627 154.621 154.95 155.101 155.515 155.66 155.976 
154.966 154.817 154.837 154.804 154.944 155.095 155.327 155.596 155.82 
156.055 156.249 155.359 155.136 155.139 154.989 154.98 154.967 155.021 
155.23 155.42 155.741 155.991 156.264 156.53 155.841 155.601 155.593 
155.354 155.316 155.092 155.11 155.052 155.305 155.464 155.88 156.085 
156.479 156.651 157.004 156.246 156.053 156.048 155.827 155.828 155.556 
155.621 155.399 155.681 155.646 156.125 156.2 156.65 156.723 157.075 
157.184 157.511 156.606 156.434 156.474 156.281 156.349 156.118 156.238 
156.013 156.26 156.151 156.538 156.548 156.933 156.96 157.248 157.29 
157.548 157.66 157.933 158.102 157.768 158.049 158.348 157.508 157.769 
158.124 158.423 158.842 157.242 157.528 157.885 158.22 158.687 159.011 
159.449 156.927 157.246 157.589 157.941 158.392 158.804 159.266 159.588 
159.981 156.694 156.974 157.342 157.638 158.046 158.448 158.922 159.328 
159.756 160.086 160.515 156.636 156.846 157.251 157.467 157.853 158.137 
158.583 158.966 159.443 159.827 160.298 160.656 161.125 156.684 156.851 
157.258 157.448 157.832 158.021 158.41 158.688 159.148 159.52 160.022 
160.417 160.906 161.257 161.667 156.756 156.898 157.273 157.466 157.845 
158.022 158.376 158.575 158.973 159.268 159.733 160.115 160.596 160.993 
161.421 161.744 162.085 156.841 156.952 157.279 157.459 157.81 158.004 
158.348 158.543 158.915 159.145 159.554 159.846 160.263 160.631 161.035 
161.428 161.793 162.127 162.452 158.386 158.611 158.595 158.861 159.078 
158.921 159.16 159.115 159.419 159.682 159.479 159.712 159.549 159.858 
159.772 160.116 160.259 160.098 160.384 160.201 160.523 160.343 160.657 
160.515 160.822 160.86 160.708 161.06 160.896 161.241 161.052 161.324 
161.109 161.344 161.199 161.538 161.475 161.35 161.713 161.574 161.905 
161.736 161.991 161.769 161.966 161.757 162.062 161.99 162.481 161.964 
161.904 162.229 162.162 162.479 162.361 162.641 162.44 162.681 162.429 
162.698 162.54 162.94 162.953 163.402 162.367 162.323 162.643 162.609 
162.973 162.91 163.279 163.129 163.461 163.215 163.487 163.222 163.469 
163.345 163.611 163.655 163.858 162.781 162.738 163.106 163.055 163.492 
163.444 163.904 163.801 164.195 164.006 164.289 164.016 164.18 163.897 
164.001 163.839 163.938 163.913 163.97 163.131 163.859 163.514 163.533 
164.59 164.297 164.403 163.984 163.993 165.287 165.027 165.212 164.881 
164.946 164.478 164.436 166.145 165.798 165.99 165.665 165.747 165.36 
165.292 164.837 164.697 167.127 166.765 166.942 166.515 166.54 166.097 
165.974 165.557 165.37 164.966 164.747 167.868 167.671 167.829 167.462 
167.399 166.904 166.686 166.2 165.964 165.552 165.306 164.904 164.61 
168.332 168.25 168.386 168.161 168.033 167.638 167.327 166.871 166.573 
166.152 165.885 165.451 165.117 164.677 164.352 168.708 168.66 168.815 
168.621 168.513 168.149 167.821 167.395 167.056 166.691 166.423 166.038 
165.703 165.216 164.822 164.397 164.145 168.905 168.969 169.143 169.036 
168.99 168.659 168.383 167.908 167.553 167.126 166.842 166.503 166.214 
165.798 165.403 164.913 164.556 164.213 164.063 162.984 162.85 163.181 
163.672 162.701 163.038 163.586 163.89 164.369 162.758 162.981 163.569 
163.836 164.366 164.595 165.075 162.956 163.117 163.666 163.895 164.471 
164.674 165.205 165.377 165.937 163.056 163.252 163.711 163.964 164.514 
164.793 165.353 165.562 166.101 166.303 166.874 163.069 163.281 163.709 
163.943 164.446 164.764 165.328 165.639 166.145 166.398 166.86 167.134 
167.584 163.031 163.275 163.722 163.943 164.42 164.688 165.219 165.542 
166.03 166.323 166.713 166.998 167.37 167.683 168.048 162.881 163.178 
163.6 163.899 164.321 164.621 165.051 165.381 165.793 166.12 166.467 
166.768 167.092 167.41 167.761 168.086 168.418 162.698 162.973 163.336 
163.666 164.017 164.374 164.699 165.077 165.387 165.773 166.071 166.438 
166.731 167.084 167.388 167.746 168.04 168.386 168.612 156.997 157.4 
157.25 157.422 157.903 157.689 157.825 157.707 157.917 158.488 158.224 
158.309 158.124 158.312 158.223 158.46 159.107 158.83 158.909 158.652 
158.835 158.68 158.963 158.833 159.092 159.776 159.483 159.597 159.3 
159.494 159.286 159.6 159.432 159.721 159.512 159.743 160.51 160.21 
160.354 160.034 160.23 159.988 160.288 160.108 160.371 160.152 160.329 
160.129 160.357 161.212 160.961 161.138 160.832 161.037 160.756 161.037 
160.811 161.044 160.785 160.903 160.667 160.841 160.732 161.042 161.811 
161.627 161.853 161.615 161.852 161.581 161.854 161.591 161.829 161.508 
161.621 161.276 161.415 161.217 161.521 161.456 161.813 162.34 162.199 
162.465 162.303 162.571 162.358 162.611 162.379 162.612 162.325 162.473 
162.09 162.214 161.884 162.148 161.983 162.348 162.243 162.548 156.861 
156.87 156.974 157.259 156.981 157.031 157.31 157.436 157.79 157.112 
157.167 157.439 157.533 157.891 158.023 158.4 157.176 157.281 157.575 
157.678 158.017 158.137 158.5 158.631 158.997 157.252 157.344 157.675 
157.802 158.167 158.28 158.631 158.732 159.098 159.231 159.634 157.484 
157.496 157.822 157.909 158.31 158.441 158.849 158.927 159.312 159.382 
159.807 159.926 160.367 157.811 157.801 158.107 158.116 158.486 158.593 
159.039 159.164 159.594 159.664 160.077 160.15 160.574 160.673 161.067 
158.077 158.117 158.435 158.435 158.767 158.81 159.212 159.334 159.761 
159.895 160.292 160.405 160.786 160.883 161.242 161.328 161.656 158.281 
158.348 158.684 158.731 159.071 159.107 159.476 159.538 159.917 160.018 
160.385 160.525 160.896 161.044 161.403 161.504 161.822 161.888 162.184 
158.518 159.077 158.826 158.925 159.78 159.441 159.528 159.262 159.361 
160.552 160.182 160.241 159.925 160.03 159.732 159.811 161.251 160.918 
160.946 160.639 160.727 160.435 160.504 160.179 160.223 161.915 161.59 
161.629 161.318 161.398 161.114 161.18 160.862 160.877 160.563 160.624 
162.596 162.285 162.369 162.038 162.128 161.799 161.864 161.528 161.556 
161.222 161.283 160.999 161.13 163.17 162.94 163.04 162.78 162.867 
162.546 162.564 162.211 162.217 161.898 161.977 161.696 161.837 161.554 
161.679 163.625 163.446 163.54 163.364 163.436 163.199 163.171 162.857 
162.798 162.511 162.565 162.351 162.495 162.262 162.369 162.068 162.11 
164.074 163.896 163.996 163.819 163.882 163.675 163.649 163.382 163.319 
163.049 163.078 162.882 163.017 162.845 162.955 162.712 162.739 162.438 
162.445 164.37 164.804 164.503 164.308 165.151 164.905 164.683 164.387 
164.138 165.427 165.194 164.953 164.688 164.39 164.135 163.853 165.779 
165.491 165.263 164.958 164.704 164.4 164.14 163.847 163.58 166.212 
165.914 165.745 165.382 165.211 164.839 164.674 164.278 164.062 163.656 
163.426 166.665 166.391 166.299 165.952 165.811 165.434 165.276 164.888 
164.668 164.238 163.97 163.564 163.352 167.222 166.908 166.857 166.523 
166.368 166.004 165.762 165.41 165.112 164.758 164.421 164.064 163.765 
163.46 163.235 167.885 167.525 167.434 167.079 166.89 166.514 166.223 
165.835 165.501 165.13 164.796 164.442 164.131 163.811 163.54 163.269 
163.016 168.46 168.135 167.942 167.601 167.341 166.985 166.68 166.294 
165.978 165.572 165.279 164.873 164.604 164.216 163.954 163.598 163.331 
163.02 162.75 164.5 164.841 164.742 164.912 165.288 165.095 165.205 
165.121 165.259 165.925 165.639 165.688 165.447 165.551 165.446 165.571 
166.567 166.352 166.425 166.047 166.063 165.808 165.935 165.803 165.946 
166.967 166.914 167.018 166.744 166.666 166.363 166.383 166.21 166.341 
166.209 166.34 167.168 167.181 167.209 167.099 166.956 166.797 166.739 
166.628 166.716 166.601 166.716 166.587 166.734 167.175 167.253 167.192 
167.135 166.977 166.908 166.898 166.889 167.039 166.977 167.13 166.983 
167.147 167.026 167.271 166.883 167.084 167.035 167.066 166.965 166.933 
166.997 167.032 167.258 167.275 167.481 167.398 167.586 167.482 167.758 
167.668 167.978 166.439 166.687 166.715 166.862 166.862 166.935 167.033 
167.128 167.32 167.416 167.581 167.629 167.797 167.838 168.116 168.141 
168.471 168.397 168.629 164.305 164.212 164.389 164.684 164.15 164.33 
164.64 164.816 165.167 163.965 164.229 164.528 164.759 165.099 165.33 
165.737 163.578 163.946 164.238 164.557 164.836 165.147 165.468 165.827 
166.229 163.053 163.477 163.78 164.173 164.46 164.805 165.068 165.421 
165.752 166.202 166.593 162.509 162.933 163.242 163.666 164.013 164.415 
164.77 165.079 165.416 165.737 166.146 166.552 166.913 161.999 162.413 
162.735 163.141 163.498 163.946 164.386 164.807 165.222 165.52 165.873 
166.177 166.513 166.842 167.019 161.524 161.926 162.281 162.676 163.026 
163.441 163.835 164.331 164.747 165.216 165.516 165.874 166.054 166.389 
166.483 166.785 166.74 161.138 161.489 161.864 162.255 162.631 163.007 
163.337 163.75 164.062 164.563 164.83 165.314 165.451 165.833 165.858 
166.174 166.129 166.393 166.289 161.088 161.273 161.378 161.803 161.379 
161.562 162.006 162.142 162.58 161.289 161.591 162.075 162.307 162.741 
162.878 163.259 161.188 161.486 162.029 162.316 162.77 162.963 163.311 
163.47 163.861 161.237 161.479 162.06 162.312 162.806 162.976 163.33 
163.472 163.836 164.065 164.533 161.213 161.512 162.045 162.352 162.828 
163.03 163.392 163.523 163.89 164.061 164.496 164.739 165.173 161.021 
161.351 161.787 162.183 162.584 162.923 163.25 163.518 163.888 164.129 
164.549 164.744 165.109 165.295 165.598 160.881 161.124 161.499 161.833 
162.195 162.551 162.867 163.227 163.596 163.989 164.428 164.747 165.088 
165.255 165.472 165.628 165.843 160.858 161.03 161.371 161.597 161.951 
162.216 162.561 162.855 163.226 163.606 164.043 164.471 164.855 165.154 
165.37 165.521 165.664 165.829 166.011 160.952 161.207 161.207 161.454 
161.463 161.462 161.751 161.742 162.013 161.81 161.762 162.075 162.065 
162.39 162.348 162.63 162.179 162.141 162.447 162.428 162.783 162.755 
163.074 162.991 163.293 162.493 162.478 162.792 162.799 163.131 163.132 
163.444 163.413 163.714 163.677 164.047 162.903 162.798 163.111 163.12 
163.457 163.46 163.745 163.727 164.013 164.031 164.389 164.442 164.822 
163.434 163.245 163.473 163.444 163.794 163.798 164.113 164.058 164.349 
164.322 164.681 164.729 165.094 165.134 165.383 163.822 163.692 163.815 
163.785 164.088 164.126 164.469 164.453 164.762 164.713 165.057 165.051 
165.4 165.394 165.632 165.581 165.711 163.986 163.949 164.069 164.065 
164.332 164.384 164.709 164.756 165.052 165.074 165.373 165.404 165.705 
165.707 165.921 165.852 165.979 165.889 166.022 166.254 166.177 166.318 
166.532 166.135 166.264 166.461 166.588 166.771 165.949 166.164 166.357 
166.524 166.738 166.858 167.048 165.609 165.884 166.07 166.327 166.531 
166.774 167 167.154 167.332 165.275 165.534 165.74 166.002 166.243 
166.515 166.777 167.019 167.247 167.406 167.559 164.967 165.237 165.501 
165.746 166.086 166.322 166.718 166.902 167.268 167.371 167.668 167.697 
167.887 164.623 164.934 165.267 165.565 165.962 166.239 166.715 166.959 
167.46 167.586 168.031 168.011 168.358 168.206 168.394 164.301 164.589 
164.951 165.319 165.744 166.089 166.513 166.862 167.321 167.675 168.138 
168.369 168.746 168.756 168.982 168.772 168.824 164.093 164.287 164.6 
164.976 165.422 165.821 166.218 166.565 166.899 167.306 167.675 168.153 
168.505 168.868 169.077 169.181 169.2 169.053 168.932 155.359 155.662 
155.486 155.466 156.108 155.815 155.723 155.551 155.592 156.683 156.316 
156.205 155.905 155.946 155.805 156.01 157.339 156.955 156.896 156.512 
156.575 156.309 156.521 156.363 156.618 158.085 157.712 157.77 157.338 
157.461 157.082 157.308 157.013 157.278 157.04 157.32 158.838 158.539 
158.728 158.332 158.522 158.084 158.317 157.921 158.218 157.871 158.213 
157.901 158.286 159.475 159.273 159.509 159.263 159.485 159.14 159.325 
158.941 159.192 158.866 159.228 158.922 159.312 158.987 159.349 160.02 
159.849 160.055 159.917 160.144 159.957 160.124 159.837 159.995 159.735 
160.023 159.842 160.192 159.966 160.239 159.945 160.148 160.534 160.362 
160.537 160.401 160.642 160.524 160.764 160.552 160.726 160.456 160.676 
160.503 160.818 160.687 160.946 160.723 160.868 160.587 160.702 155.241 
155.369 155.271 155.126 155.526 155.388 155.275 155.112 154.881 155.941 
155.67 155.587 155.33 155.154 154.868 154.67 156.506 156.182 156.102 
155.778 155.661 155.294 155.193 154.854 154.908 157.157 156.766 156.696 
156.357 156.28 155.909 155.864 155.515 155.622 155.354 155.616 158.072 
157.523 157.458 157.022 156.995 156.592 156.582 156.225 156.33 156.077 
156.298 156.105 156.352 159.111 158.535 158.432 157.903 157.865 157.393 
157.389 156.982 157.062 156.767 156.948 156.733 156.929 156.74 156.927 
159.926 159.485 159.349 158.871 158.775 158.297 158.242 157.806 157.825 
157.488 157.613 157.368 157.539 157.315 157.476 157.277 157.467 160.506 
160.168 160.048 159.67 159.565 159.148 159.069 158.64 158.612 158.232 
158.289 158.007 158.141 157.918 158.07 157.852 158.009 157.824 158.019 
155.037 154.966 154.906 154.656 154.732 154.802 154.694 154.608 154.467 
154.48 154.529 154.563 154.658 154.719 154.613 154.617 154.688 154.444 
154.481 154.552 154.809 154.882 155.014 154.855 154.86 155.429 154.947 
154.894 154.673 154.915 154.981 155.263 155.224 155.261 155.056 155.063 
156.217 155.784 155.698 155.291 155.379 155.225 155.504 155.477 155.653 
155.477 155.512 155.303 155.428 156.827 156.506 156.469 156.095 156.104 
155.795 155.952 155.814 156.05 155.916 156.057 155.829 155.937 155.746 
155.916 157.395 157.105 157.128 156.813 156.835 156.5 156.557 156.317 
156.479 156.349 156.526 156.367 156.469 156.267 156.353 156.193 156.31 
157.965 157.698 157.743 157.463 157.491 157.178 157.18 156.894 156.954 
156.778 156.909 156.786 156.884 156.725 156.767 156.597 156.651 156.525 
156.632 164.045 163.615 163.856 163.94 163.152 163.419 163.493 163.773 
163.864 162.554 162.88 162.901 163.247 163.293 163.631 163.653 161.875 
162.204 162.159 162.529 162.507 162.924 162.909 163.3 163.243 161.221 
161.521 161.437 161.746 161.667 162.057 162.024 162.457 162.41 162.806 
162.715 160.492 160.829 160.703 161.01 160.877 161.225 161.161 161.569 
161.524 161.931 161.855 162.244 162.158 159.68 160.023 159.854 160.197 
160.007 160.379 160.254 160.688 160.613 161.04 160.946 161.354 161.267 
161.682 161.62 158.953 159.218 159.045 159.339 159.143 159.468 159.303 
159.717 159.62 160.082 159.998 160.435 160.358 160.783 160.742 161.164 
161.142 158.372 158.556 158.389 158.613 158.452 158.688 158.529 158.819 
158.714 159.101 159.056 159.492 159.476 159.906 159.917 160.328 160.355 
160.746 160.777 
POINT_DATA 1002
SCALARS Distance double
LOOKUP_TABLE default
160.968 160.707 160.373 160.587 159.951 161.181 160.168 159.562 160.833 
161.475 159.82 159.254 160.499 161.232 161.876 159.505 158.904 160.182 
160.929 161.624 162.195 159.163 158.569 159.887 160.602 161.284 161.936 
162.515 158.964 158.472 159.662 160.398 161.054 161.804 162.565 163.087 
158.942 158.5 159.521 160.244 160.924 161.731 162.743 163.452 163.675 
158.855 158.398 159.353 160.007 160.701 161.452 162.532 163.564 163.962 
163.931 158.645 158.19 159.121 159.73 160.439 161.101 161.946 163.042 
163.803 163.973 163.973 160.208 159.819 159.661 159.199 159.069 159.38 
158.559 158.393 158.75 159.017 157.928 157.69 158.09 158.38 158.698 
157.321 157.053 157.414 157.643 158.04 158.334 156.707 156.458 156.726 
156.864 157.305 157.755 158.09 156.077 155.914 156.074 156.178 156.608 
157.14 157.588 158.041 155.482 155.494 155.468 155.67 156.125 156.598 
157.001 157.467 157.979 154.997 155.198 154.896 155.198 155.797 156.239 
156.477 156.832 157.342 157.819 154.773 154.456 154.393 154.198 154.38 
154.579 154.375 154.64 154.652 155.291 154.67 154.848 154.838 155.362 
155.894 154.936 155.117 154.908 155.088 155.533 156.034 155.358 155.605 
155.126 154.908 155.07 155.658 156.283 155.842 156.076 155.58 155.244 
155.181 155.666 156.316 156.839 156.244 156.42 156.06 155.847 155.774 
156.093 156.618 157.016 157.372 156.641 156.758 156.539 156.447 156.42 
156.588 156.936 157.248 157.482 157.791 158.325 158.031 158.691 157.796 
158.548 159.288 157.544 158.317 159.198 159.864 157.26 157.964 158.897 
159.704 160.375 157.077 157.692 158.485 159.384 160.18 160.991 157.042 
157.634 158.236 159.029 159.917 160.799 161.588 157.066 157.668 158.196 
158.802 159.616 160.536 161.386 162.027 157.09 157.665 158.204 158.731 
159.389 160.196 161.059 161.819 162.411 157.127 157.623 158.146 158.697 
159.318 159.956 160.64 161.408 162.152 162.795 158.817 159.257 159.407 
159.896 159.987 160.182 160.537 160.722 160.864 160.927 161.214 161.431 
161.572 161.539 161.569 161.848 162.078 162.207 162.197 162.164 162.455 
162.278 162.563 162.799 162.919 162.93 163.003 163.363 162.665 162.987 
163.371 163.67 163.797 163.735 163.672 163.802 163.139 163.515 163.976 
164.365 164.552 164.519 164.287 164.047 163.967 163.458 163.947 164.173 
164.773 164.824 164.49 165.486 165.553 165.379 164.969 166.355 166.529 
166.13 165.731 165.177 167.411 167.443 167.06 166.43 165.764 165.172 
168.159 168.003 167.917 167.222 166.408 165.723 165.024 168.59 168.403 
168.409 167.776 166.986 166.329 165.606 164.722 168.989 168.735 168.867 
168.264 167.424 166.759 166.181 165.322 164.423 169.185 168.797 169.256 
168.849 168.04 167.197 166.569 165.893 164.994 164.251 162.698 163.386 
162.467 163.261 162.376 164.11 163.308 162.592 164.138 164.85 163.452 
162.824 164.24 165.036 165.73 163.481 162.865 164.2 165.103 165.922 
166.652 163.497 162.845 164.149 164.99 165.894 166.621 167.307 163.485 
162.762 164.185 164.927 165.743 166.454 167.065 167.739 163.288 162.592 
164.028 164.751 165.475 166.164 166.784 167.426 168.117 163.039 162.465 
163.682 164.342 165.005 165.683 166.368 167.042 167.697 168.307 157.109 
157.517 157.575 157.976 158.159 157.984 158.539 158.768 158.414 158.539 
159.184 159.37 159.005 159.088 159.263 159.897 160.062 159.712 159.767 
159.946 159.956 160.674 160.796 160.493 160.485 160.614 160.556 160.477 
161.412 161.428 161.329 161.29 161.335 161.186 160.968 161.08 162.041 
161.963 162.106 162.124 162.149 162.005 161.675 161.602 161.88 156.719 
157.095 156.799 157.2 156.947 157.638 157.357 157.033 157.764 158.273 
157.455 157.043 157.917 158.375 158.853 157.535 157.181 158.036 158.551 
158.97 159.472 157.774 157.499 158.158 158.738 159.262 159.706 160.245 
158.132 157.803 158.418 158.884 159.496 160.027 160.501 160.979 158.418 
158.013 158.756 159.129 159.624 160.164 160.687 161.17 161.577 158.613 