# vtk DataFile Version 4.0
vtk output
ASCII
DATASET POLYDATA
POINTS 1002 float
-117.507 -102.668 47.4271 -117.443 -102.569 46.6391 -118.058 -102.594 46.9246 
-118.105 -102.716 47.7532 -118.672 -102.581 47.328 -117.459 -102.845 48.2293 
-118.656 -102.914 47.982 -119.34 -102.77 47.5913 -118.001 -103.112 48.3721 
-117.327 -103.153 48.8895 -119.293 -103.312 48.0767 -120.047 -103.123 47.7487 
-118.602 -103.424 48.4753 -117.864 -103.483 49.0533 -117.226 -103.377 49.7187 
-120.03 -103.576 48.3349 -120.687 -103.171 48.1629 -119.309 -103.56 48.7933 
-118.569 -103.506 49.5308 -117.819 -103.533 50.2405 -117.232 -103.52 50.8011 
-120.7 -103.447 48.9394 -121.163 -102.892 48.7721 -119.994 -103.481 49.4373 
-119.258 -103.319 50.2825 -118.529 -103.46 50.984 -117.878 -103.685 51.3796 
-117.303 -103.834 51.6934 -121.159 -103.197 49.6378 -121.438 -102.664 49.3213 
-120.616 -103.471 50.1583 -119.892 -103.461 50.9286 -119.182 -103.655 51.4944 
-118.513 -103.992 51.7477 -117.936 -104.155 52.0239 -117.342 -104.311 52.3185 
-121.389 -102.947 50.2987 -121.584 -102.471 49.9187 -121.115 -103.497 50.7729 
-120.578 -103.907 51.347 -119.931 -104.261 51.6994 -119.206 -104.584 51.839 
-118.474 -104.677 52.1894 -117.883 -104.664 52.6648 -117.311 -104.785 52.9272 
-121.503 -102.631 50.9273 -121.758 -102.23 50.5911 -121.339 -103.247 51.3222 
-121.016 -103.955 51.7458 -120.57 -104.576 51.9702 -119.994 -104.981 52.0488 
-119.159 -105.133 52.4299 -118.337 -105.129 53.0474 -117.761 -105.113 53.4361 
-117.258 -105.122 53.5601 -121.669 -102.426 51.43 -122.049 -102.106 51.1522 
-121.373 -102.879 51.789 -121.023 -103.488 52.1974 -120.667 -104.187 52.4491 
-120.36 -104.758 52.5369 -119.804 -105.101 52.8674 -118.941 -105.325 53.4948 
-118.176 -105.445 53.952 -117.666 -105.391 54.1059 -117.222 -105.212 54.2243 
-117.683 -102.446 46.1373 -118.362 -102.513 46.3975 -117.936 -102.116 45.862 
-118.828 -102.247 46.0528 -118.408 -101.484 45.8332 -119.219 -102.496 46.7729 
-119.458 -101.727 45.8754 -119.012 -100.874 45.707 -119.945 -102.342 46.2157 
-120.086 -102.635 47.0033 -119.932 -101.154 45.6755 -119.479 -100.513 45.2946 
-120.488 -101.936 45.9267 -120.729 -102.398 46.4606 -120.687 -102.702 47.3816 
-120.227 -100.534 45.4967 -119.854 -99.9881 45.0634 -120.712 -101.198 45.9713 
-120.983 -101.836 46.4308 -121.01 -102.114 47.1965 -121.08 -102.428 48.0727 
-120.536 -99.7868 45.6031 -120.214 -99.1401 45.3282 -120.994 -100.323 46.0438 
-121.286 -100.959 46.5964 -121.313 -101.452 47.241 -121.381 -101.78 47.9366 
-121.473 -102.228 48.6053 -120.746 -99.145 45.934 -120.438 -98.3799 45.6828 
-121.293 -99.7222 46.0932 -121.818 -100.23 46.4045 -121.989 -100.791 47.0258 
-122.015 -101.343 47.6688 -122.012 -101.864 48.2566 -121.82 -102.25 49.021 
-120.825 -98.6642 46.2039 -120.561 -97.8626 45.8086 -121.355 -99.3749 46.3369 
-122.074 -99.8881 46.3064 -122.533 -100.316 46.6704 -122.668 -100.854 47.382 
-122.701 -101.522 48.0181 -122.502 -102.004 48.7473 -122.08 -102.15 49.7027 
-120.937 -98.1886 46.3789 -120.697 -97.466 45.8946 -121.337 -98.9205 46.7169 
-121.988 -99.5412 46.7001 -122.584 -99.9825 46.7979 -122.844 -100.347 47.4 
-122.96 -100.916 48.1318 -123.001 -101.569 48.801 -122.762 -101.89 49.6258 
-122.354 -101.952 50.4927 -121.012 -97.5383 46.4749 -121.313 -98.1664 46.9864 
-121.317 -97.6304 47.2479 -121.692 -98.048 47.5601 -121.651 -97.6471 47.8319 
-121.775 -98.8096 47.2432 -122.153 -97.9464 47.8832 -122.246 -97.4096 48.2326 
-122.218 -98.6561 47.6928 -122.388 -99.4477 47.3053 -122.783 -97.88 48.3897 
-122.926 -97.115 48.9234 -122.79 -98.6518 48.0853 -122.813 -99.3378 47.9832 
-122.791 -99.8851 47.7205 -123.129 -97.9422 49.4271 -123.13 -97.247 49.9045 
-123.28 -98.6713 48.8997 -123.382 -99.2495 48.6385 -123.099 -99.7433 48.6445 
-122.914 -100.284 48.4775 -122.965 -98.2254 50.5314 -122.994 -97.6503 50.8816 
-123.213 -98.7189 50.0852 -123.683 -99.1058 49.5729 -123.613 -99.6392 49.3643 
-123.174 -100.291 49.3963 -123.062 -100.967 49.1877 -122.858 -98.4773 51.4908 
-123.009 -97.8351 51.8945 -122.934 -98.9494 51.1454 -123.519 -99.1632 50.7375 
-123.923 -99.6445 50.301 -123.663 -100.443 50.1416 -123.322 -101.102 50.1269 
-123.135 -101.553 49.9193 -123.005 -98.5502 52.4829 -123.085 -97.8625 52.8946 
-122.983 -99.2022 52.1101 -123.382 -99.4893 51.8369 -123.89 -99.8104 51.4767 
-123.929 -100.543 51.0892 -123.64 -101.251 50.9156 -123.346 -101.595 50.8457 
-122.926 -101.77 50.6887 -123.047 -98.6231 53.3866 -122.953 -98.0176 53.6553 
-123.149 -99.3319 53.0723 -123.444 -99.7583 52.8347 -123.763 -99.9845 52.5591 
-123.789 -100.455 52.1264 -123.616 -101.132 51.7316 -123.45 -101.623 51.5331 
-123.146 -101.851 51.4204 -122.608 -101.97 51.2904 -122.132 -102.376 51.7338 
-122.727 -102.3 51.8703 -122.139 -102.744 52.4324 -123.163 -102.047 52.0398 
-122.757 -102.636 52.6705 -121.966 -102.848 53.4604 -123.235 -101.538 52.2409 
-123.052 -102.191 52.9297 -122.632 -102.704 53.7914 -121.683 -102.736 54.5021 
-123.249 -100.883 52.5821 -122.939 -101.54 53.1762 -122.949 -102.381 54.0866 
-122.407 -102.721 54.854 -121.418 -102.857 55.2662 -123.505 -100.326 53.1069 
-122.971 -100.886 53.5919 -122.926 -101.921 54.4108 -122.907 -102.695 55.304 
-122.149 -102.909 55.7812 -121.238 -103.203 56.0695 -123.65 -100.046 53.5608 
-123.369 -100.368 54.1601 -123.064 -101.23 54.8906 -123.06 -102.28 55.8161 
-122.719 -102.81 56.4411 -121.847 -103.072 56.7059 -121.048 -103.449 56.9842 
-123.394 -99.7975 53.7951 -123.486 -100.07 54.5152 -123.318 -100.539 55.2752 
-123.114 -101.401 56.1602 -122.842 -102.172 56.8674 -122.207 -102.694 57.1759 
-121.364 -103.172 57.3857 -120.688 -103.61 57.7313 -123.022 -99.2705 53.9572 
-123.078 -99.7687 54.5862 -123.112 -100.125 55.3166 -122.989 -100.632 56.1483 
-122.712 -101.283 56.8794 -122.203 -101.953 57.2691 -121.448 -102.659 57.4877 
-120.735 -103.285 57.8618 -120.285 -103.764 58.3987 -122.768 -98.6368 54.1096 
-122.613 -99.2899 54.5843 -122.573 -99.7868 55.193 -122.529 -100.2 55.9351 
-122.386 -100.655 56.6658 -122.07 -101.201 57.181 -121.458 -101.912 57.4869 
-120.734 -102.673 57.8644 -120.265 -103.3 58.4717 -120.097 -103.81 59.154 
-121.604 -102.667 52.092 -121.331 -102.825 52.9926 -121.008 -102.948 52.5909 
-121.007 -102.799 54.0889 -120.525 -102.944 53.595 -120.471 -103.438 53.0238 
-120.874 -102.97 54.9436 -120.44 -103.206 54.5563 -120.124 -103.543 53.9293 
-120.211 -104.126 53.1957 -120.859 -103.462 55.6536 -120.73 -103.865 55.3295 
-120.375 -104.134 54.7962 -120.007 -104.314 54.0873 -119.977 -104.694 53.4401 
-120.765 -103.824 56.5825 -120.793 -104.382 56.2287 -120.658 -104.76 55.7921 
-120.073 -104.746 55.1456 -119.615 -104.789 54.5307 -119.356 -105.118 54.0253 
-120.499 -103.953 57.5224 -120.473 -104.514 57.2105 -120.449 -105.038 56.8953 
-119.999 -105.054 56.4331 -119.355 -104.87 55.7695 -118.925 -105.087 55.1102 
-118.556 -105.444 54.5235 -120.158 -104.101 58.3478 -120.05 -104.567 58.082 
-120.003 -105.168 57.7838 -119.756 -105.395 57.5364 -119.192 -105.072 57.0799 
-118.65 -104.918 56.2858 -118.264 -105.24 55.4177 -117.934 -105.494 54.6984 
-119.983 -104.271 59.2011 -119.779 -104.693 58.9729 -119.628 -105.211 58.5805 
-119.491 -105.654 58.2721 -119.1 -105.57 58.0077 -118.51 -105.12 57.4499 
-118.03 -104.968 56.5461 -117.716 -105.15 55.616 -117.468 -105.261 54.8577 
-120.091 -104.093 60.0448 -119.822 -104.681 59.9819 -119.967 -104.348 60.7096 
-119.431 -104.94 60.4788 -119.288 -104.444 60.8717 -119.439 -105.097 59.5869 
-118.61 -104.974 60.5704 -118.203 -104.364 60.7407 -118.88 -105.203 60.0067 
-119.189 -105.498 59.0756 -117.638 -105.027 60.6277 -117.199 -104.23 60.751 
-118.053 -105.266 60.2732 -118.506 -105.493 59.4861 -118.907 -105.8 58.6612 
-116.643 -105.087 60.871 -116.19 -104.056 60.9028 -117.098 -105.605 60.6074 
-117.533 -105.663 59.8621 -117.977 -105.821 58.9157 -118.318 -105.637 58.2217 
-115.556 -104.84 60.9308 -115.162 -103.827 60.872 -116.036 -105.698 60.7878 
-116.475 -105.927 60.1508 -116.875 -105.935 59.0871 -117.297 -105.725 58.2549 
-117.702 -105.198 57.5286 -114.825 -104.374 60.5345 -114.586 -103.598 60.4795 
-115.17 -105.218 60.4446 -115.564 -105.664 60.0375 -115.98 -105.79 59.1117 
-116.422 -105.718 58.2175 -116.893 -105.277 57.5679 -117.353 -104.961 56.6507 
-114.605 -103.942 59.8364 -114.395 -103.372 59.8146 -114.836 -104.595 59.7249 
-115.048 -105.066 59.5028 -115.337 -105.313 58.8997 -115.772 -105.459 58.0852 
-116.253 -105.267 57.5195 -116.718 -104.906 56.8307 -117.14 -104.935 55.7757 
-114.357 -103.593 59.1192 -114.086 -103.147 59.1303 -114.651 -104.086 58.9831 
-114.815 -104.533 58.8474 -114.884 -104.872 58.5471 -115.109 -105.168 57.8934 
-115.536 -105.233 57.2661 -116.007 -104.959 56.7592 -116.459 -104.793 55.9446 
-116.875 -104.977 54.9486 -120.104 -103.305 59.4945 -120.174 -103.434 60.3781 
-120.033 -102.613 59.6388 -119.918 -102.672 60.2918 -119.74 -102.14 59.435 
-119.881 -103.549 60.8795 -119.315 -102.267 59.8241 -119.285 -101.883 59.0663 
-119.295 -102.761 60.6178 -118.879 -103.568 60.9007 -118.777 -101.877 59.4634 
-118.928 -101.296 58.9268 -118.581 -102.335 60.1424 -118.205 -102.847 60.6355 
-117.714 -103.474 60.7452 -118.487 -100.995 59.443 -118.69 -100.499 58.8343 
-118.206 -101.662 59.9174 -117.732 -102.389 60.2109 -117.258 -102.891 60.4458 
-116.767 -103.345 60.687 -118.154 -100.282 59.1968 -118.375 -100.076 58.3752 
-117.931 -100.668 59.8476 -117.448 -101.506 60.017 -116.885 -102.335 60.0384 
-116.34 -102.8 60.3157 -115.708 -103.219 60.7102 -117.683 -100.104 58.5171 
-117.961 -99.792 57.8162 -117.461 -100.246 59.3264 -117.019 -100.627 59.824 
-116.394 -101.303 59.9577 -115.806 -102.003 60.0727 -115.245 -102.592 60.3464 
-114.781 -103.108 60.574 -117.268 -99.8206 57.9157 -117.573 -99.2623 57.5138 
-116.972 -100.169 58.5063 -116.53 -100.397 59.145 -115.91 -100.597 59.7097 
-115.291 -100.951 60.0596 -114.804 -101.637 60.1512 -114.494 -102.407 60.1476 
-114.377 -102.976 60.0795 -117.006 -99.2772 57.551 -117.29 -98.7164 57.3042 
-116.637 -99.7598 57.9081 -116.147 -100.161 58.36 -115.594 -100.39 58.965 
[...]
CELL_DATA 2000
SCALARS Distance double
LOOKUP_TABLE default
162.046 162.596 162.344 162.379 163.203 162.91 162.961 162.683 162.7 
163.935 163.578 163.623 163.299 163.333 163.012 163.017 164.658 164.341 
164.356 163.994 164.004 163.667 163.679 163.35 163.384 165.174 164.998 
165.02 164.694 164.647 164.319 164.331 164.027 164.089 163.773 163.864 
165.493 165.438 165.562 165.319 165.326 164.98 165.03 164.709 164.822 
164.505 164.617 164.291 164.393 165.692 165.71 165.948 165.855 166.034 
165.748 165.904 165.532 165.696 165.306 165.423 165.051 165.138 164.807 
164.887 165.834 165.862 166.103 166.172 166.436 166.392 166.607 166.405 
166.561 166.223 166.297 165.886 165.921 165.545 165.6 165.272 165.317 
166.046 165.998 166.16 166.237 166.427 166.558 166.707 166.799 166.891 
166.853 166.873 166.654 166.627 166.304 166.299 165.97 165.98 165.654 
165.633 161.919 161.875 162.105 162.486 161.846 162.102 162.578 162.731 
163.136 161.862 162.135 162.723 162.909 163.385 163.458 163.883 161.851 
162.151 162.752 163.051 163.555 163.703 164.068 164.175 164.543 161.743 
162.059 162.565 162.958 163.426 163.724 164.007 164.204 164.449 164.682 
164.971 161.578 161.882 162.322 162.689 163.139 163.483 163.802 164.029 
164.258 164.482 164.754 165.011 165.268 161.404 161.707 162.163 162.475 
162.956 163.254 163.687 163.892 164.251 164.391 164.745 164.884 165.193 
165.321 165.527 161.224 161.541 162.031 162.351 162.865 163.159 163.641 
163.871 164.3 164.476 164.895 165.023 165.382 165.412 165.629 165.616 
165.753 161.072 161.375 161.867 162.206 162.718 163.057 163.528 163.817 
164.204 164.456 164.823 165.085 165.449 165.617 165.864 165.845 165.971 
165.892 166.021 161.182 161.646 161.58 161.962 162.083 162.021 162.371 
162.377 162.794 162.492 162.416 162.745 162.762 163.191 163.217 163.611 
163.004 162.875 163.243 163.189 163.641 163.626 164.017 163.977 164.28 
163.56 163.448 163.842 163.767 164.213 164.141 164.491 164.382 164.646 
164.584 164.873 164.007 163.951 164.281 164.284 164.668 164.672 164.993 
164.884 165.116 164.986 165.276 165.226 165.539 164.42 164.345 164.615 
164.607 164.951 165.009 165.391 165.371 165.69 165.544 165.842 165.704 
166.001 165.886 166.043 164.849 164.767 165.054 164.976 165.343 165.326 
165.767 165.775 166.187 166.122 166.436 166.302 166.526 166.363 166.458 
166.252 166.199 165.179 165.171 165.496 165.461 165.845 165.805 166.199 
166.178 166.501 166.502 166.724 166.724 166.868 166.805 166.856 166.672 
166.612 166.345 166.247 166.405 166.792 166.683 166.844 167.025 167.02 
167.213 167.146 167.238 166.962 167.067 167.229 167.379 167.566 167.492 
167.447 166.779 166.872 166.939 167.191 167.485 167.711 167.866 167.677 
167.574 166.678 166.734 166.773 166.885 167.209 167.557 168.01 168.094 
168.191 167.861 167.811 166.557 166.713 166.862 166.867 167.13 167.36 
167.902 168.204 168.554 168.458 168.433 168.116 168.096 166.243 166.559 
166.811 166.957 167.159 167.327 167.689 168.034 168.387 168.606 168.635 
168.559 168.413 168.267 168.215 165.8 166.162 166.393 166.726 166.887 
167.173 167.343 167.69 167.869 168.221 168.236 168.43 168.263 168.321 
168.167 168.207 168.186 165.383 165.68 165.835 166.186 166.313 166.681 
166.781 167.156 167.234 167.6 167.606 167.89 167.782 167.961 167.822 
167.97 167.93 168.107 168.212 166.284 166.669 166.387 166.311 166.965 
166.697 166.482 166.378 166.417 167.106 166.878 166.565 166.437 166.359 
166.444 166.602 167.266 167.027 166.831 166.596 166.52 166.411 166.537 
166.644 166.839 167.6 167.341 167.39 167.117 167.221 166.858 166.933 
166.72 166.871 166.884 166.955 167.977 167.786 167.939 167.801 168.035 
167.727 167.733 167.3 167.227 167.009 167.015 166.948 166.839 168.184 
168.116 168.223 168.236 168.446 168.383 168.356 168.013 167.724 167.37 
167.165 167.027 166.913 166.792 166.574 168.271 168.261 168.345 168.375 
168.538 168.595 168.644 168.468 168.199 167.798 167.435 167.157 166.938 
166.832 166.639 166.502 166.237 168.428 168.409 168.546 168.493 168.624 
168.638 168.753 168.702 168.599 168.272 167.913 167.477 167.122 166.862 
166.617 166.5 166.256 166.13 165.852 168.641 169.041 168.851 168.776 
169.042 169.111 169.008 168.862 168.763 168.463 168.837 168.795 168.898 
168.792 168.803 168.778 167.709 168.169 168.265 168.517 168.472 168.644 
168.617 168.741 168.612 167.009 167.512 167.757 168.049 168.066 168.237 
168.175 168.383 168.223 168.328 167.955 166.174 166.777 167.07 167.546 
167.596 167.824 167.661 167.842 167.612 167.785 167.431 167.496 167.099 
165.344 165.881 166.122 166.707 166.774 167.187 166.994 167.241 166.958 
167.149 166.84 166.949 166.619 166.704 166.482 164.719 165.115 165.289 
165.759 165.832 166.261 166.135 166.455 166.23 166.486 166.255 166.417 
166.156 166.249 166.033 166.181 166.071 164.132 164.502 164.611 165.003 
165.057 165.416 165.345 165.636 165.482 165.756 165.596 165.838 165.635 
165.791 165.561 165.709 165.55 165.764 165.672 168.507 168.229 168.592 
168.916 167.675 168.151 168.452 168.855 168.911 167.002 167.456 167.617 
168.137 168.147 168.519 168.276 166.329 166.724 166.776 167.216 167.169 
167.581 167.371 167.694 167.42 165.631 166.005 166.026 166.403 166.35 
166.677 166.517 166.799 166.571 166.87 166.655 164.937 165.275 165.249 
165.627 165.553 165.9 165.741 166.031 165.803 166.061 165.8 166.095 
165.846 164.273 164.58 164.51 164.841 164.718 165.053 164.833 165.175 
164.899 165.236 164.945 165.25 164.983 165.284 165.076 163.59 163.904 
163.826 164.125 163.986 164.248 163.999 164.25 163.939 164.246 163.967 
164.328 164.116 164.466 164.313 164.621 164.495 162.939 163.228 163.152 
163.437 163.293 163.544 163.318 163.513 163.229 163.405 163.14 163.395 
163.227 163.587 163.495 163.87 163.775 164.091 163.945 165.221 165.049 
165.285 165.602 164.866 165.109 165.417 165.674 166.034 164.639 164.923 
165.247 165.498 165.83 166.108 166.488 164.344 164.662 165.01 165.311 
165.639 165.907 166.249 166.551 166.922 164.101 164.379 164.74 165.053 
165.413 165.699 166.036 166.319 166.663 166.965 167.283 163.912 164.185 
164.55 164.827 165.196 165.47 165.822 166.103 166.448 166.725 167.014 
167.271 167.486 163.6 163.961 164.331 164.647 164.989 165.262 165.583 
165.87 166.203 166.5 166.787 167.024 167.215 167.421 167.578 163.202 
163.587 163.968 164.351 164.685 165.008 165.299 165.601 165.912 166.228 
166.538 166.8 167.044 167.222 167.427 167.577 167.781 162.921 163.225 
163.604 163.963 164.317 164.658 164.969 165.288 165.612 165.934 166.277 
166.566 166.896 167.111 167.435 167.573 167.89 167.949 168.202 164.944 
164.42 164.728 164.769 163.732 164.129 164.187 164.519 164.557 162.964 
163.383 163.466 163.873 163.936 164.287 164.312 162.24 162.628 162.709 
163.128 163.235 163.635 163.697 164.023 164.032 161.52 161.921 161.981 
162.382 162.474 162.908 163.019 163.409 163.465 163.763 163.796 160.755 
161.185 161.252 161.647 161.675 162.102 162.183 162.666 162.771 163.18 
163.223 163.541 163.572 160.046 160.438 160.523 160.907 160.919 161.293 
161.319 161.783 161.895 162.4 162.477 162.89 162.873 163.237 163.216 
159.449 159.779 159.845 160.196 160.229 160.569 160.608 160.984 161.096 
161.544 161.664 162.092 162.108 162.476 162.437 162.813 162.812 158.889 
159.197 159.234 159.551 159.593 159.92 159.998 160.345 160.471 160.845 
160.974 161.345 161.417 161.752 161.781 162.098 162.148 162.486 162.572 
158.571 158.221 158.571 158.926 157.976 158.272 158.643 158.947 159.297 
157.791 158.073 158.445 158.72 159.094 159.366 159.74 157.538 157.855 
158.229 158.538 158.917 159.197 159.586 159.855 160.239 157.302 157.583 
157.976 158.306 158.693 158.996 159.353 159.663 160.038 160.343 160.704 
157.191 157.399 157.784 158.079 158.484 158.769 159.11 159.392 159.755 
160.09 160.483 160.791 161.133 157.126 157.308 157.635 157.903 158.288 
158.575 158.932 159.183 159.571 159.86 160.335 160.623 161.051 161.253 
161.566 157.099 157.236 157.52 157.738 158.093 158.375 158.762 159.032 
159.449 159.737 160.25 160.559 161.068 161.272 161.632 161.725 161.989 
157.213 157.263 157.543 157.663 158.019 158.231 158.663 158.911 159.356 
159.623 160.089 160.428 160.906 161.237 161.617 161.808 162.069 162.157 
162.403 157.437 157.949 157.693 157.748 158.563 158.266 158.339 158.077 
158.228 159.198 158.911 159.029 158.754 158.933 158.669 158.892 159.78 
159.514 159.625 159.426 159.636 159.419 159.627 159.365 159.58 160.371 
160.07 160.127 159.948 160.152 160.039 160.244 160.049 160.202 159.996 
160.237 161.057 160.701 160.743 160.47 160.667 160.528 160.772 160.601 
160.741 160.537 160.73 160.635 160.965 161.846 161.469 161.55 161.18 
161.361 161.122 161.409 161.199 161.408 161.121 161.295 161.107 161.413 
161.366 161.686 162.69 162.332 162.458 162.052 162.177 161.856 162.081 
161.873 162.131 161.876 162.082 161.788 162.044 161.858 162.161 162.037 
162.228 163.491 163.188 163.326 162.955 163.028 162.657 162.764 162.509 
162.718 162.547 162.794 162.584 162.824 162.579 162.823 162.591 162.776 
162.538 162.625 157.367 157.434 157.556 157.882 157.359 157.577 157.915 
158.097 158.461 156.988 157.358 157.72 158.059 158.484 158.704 159.092 
156.534 156.917 157.379 157.813 158.357 158.689 159.175 159.358 159.73 
156.493 156.66 157.272 157.608 158.285 158.599 159.183 159.427 159.903 
160.022 160.374 157.011 156.942 157.589 157.751 158.48 158.678 159.287 
159.478 160.011 160.192 160.642 160.705 161.058 157.728 157.595 158.12 
158.182 158.822 158.957 159.524 159.656 160.176 160.34 160.836 160.957 
161.367 161.405 161.781 158.315 158.229 158.632 158.656 159.16 159.263 
159.764 159.889 160.382 160.537 161.03 161.165 161.592 161.673 162.067 
162.137 162.56 158.744 158.705 159.058 159.07 159.494 159.559 160.011 
160.113 160.584 160.728 161.208 161.355 161.787 161.889 162.292 162.389 
162.827 162.928 163.361 157.056 156.566 156.916 157.105 156.055 156.418 
156.659 156.995 157.105 155.592 155.938 156.245 156.602 156.771 156.939 
156.823 155.164 155.493 155.807 156.213 156.459 156.66 156.551 156.547 
156.329 154.766 155.054 155.323 155.747 156.017 156.323 156.324 156.35 
156.162 156.145 156.183 154.528 154.693 154.958 155.299 155.599 155.892 
156.023 156.148 156.17 156.157 156.278 156.321 156.7 154.581 154.575 
154.847 155.064 155.456 155.649 155.889 155.97 156.166 156.241 156.54 
156.59 156.972 157.04 157.484 154.889 154.758 154.968 155.063 155.478 
155.653 155.992 156.035 156.272 156.322 156.669 156.812 157.212 157.322 
157.662 157.758 158.087 155.297 155.136 155.274 155.237 155.545 155.69 
156.053 156.18 156.454 156.504 156.793 156.908 157.261 157.421 157.715 
157.845 158.085 158.23 158.497 155.566 156.064 155.717 155.585 156.659 
156.271 156.112 155.773 155.769 157.29 156.903 156.734 156.331 156.274 
156.05 156.189 157.953 157.574 157.46 157.008 156.921 156.589 156.684 
156.508 156.646 158.668 158.285 158.222 157.776 157.694 157.291 157.343 
157.068 157.203 156.957 157.055 159.386 159.011 158.935 158.528 158.437 
158.049 158.052 157.749 157.836 157.564 157.637 157.372 157.463 160.068 
159.696 159.598 159.212 159.115 158.747 158.721 158.415 158.456 158.18 
158.203 157.932 157.957 157.753 157.844 160.751 160.367 160.272 159.875 
159.796 159.423 159.403 159.071 159.095 158.787 158.805 158.498 158.506 
158.237 158.296 158.107 158.217 161.413 161.052 160.967 160.57 160.503 
160.125 160.114 159.765 159.777 159.439 159.453 159.126 159.156 158.843 
158.912 158.633 158.748 158.52 158.654 161.732 162.058 161.709 161.304 
162.373 162.036 161.654 161.273 160.867 162.695 162.364 162.029 161.657 
161.285 160.876 160.5 163.076 162.72 162.43 162.07 161.738 161.325 
160.937 160.52 160.146 163.546 163.148 162.858 162.495 162.19 161.793 
161.401 160.958 160.544 160.148 159.793 164.067 163.647 163.318 162.927 
162.614 162.24 161.88 161.439 161.029 160.578 160.217 159.828 159.518 
164.572 164.166 163.82 163.392 163.057 162.67 162.355 161.94 161.576 
161.107 160.748 160.31 160.002 159.6 159.306 165.001 164.642 164.302 
163.887 163.541 163.139 162.848 162.451 162.134 161.674 161.3 160.843 
160.503 160.101 159.8 159.407 159.127 165.311 165.016 164.676 164.321 
163.967 163.602 163.308 162.955 162.672 162.248 161.876 161.389 161.001 
160.573 160.257 159.886 159.609 159.242 158.997 159.064 159.669 159.369 
159.402 160.308 159.997 160.055 159.76 159.839 161.07 160.693 160.788 
160.461 160.583 160.256 160.362 161.972 161.553 161.668 161.28 161.437 
161.067 161.199 160.821 160.942 162.775 162.446 162.547 162.188 162.322 
161.96 162.091 161.7 161.803 161.423 161.545 163.391 163.141 163.232 
162.966 163.078 162.793 162.926 162.585 162.693 162.302 162.393 162.017 
162.112 164.022 163.74 163.853 163.594 163.748 163.498 163.686 163.399 
163.578 163.213 163.35 162.922 163.022 162.589 162.666 164.714 164.413 
164.545 164.266 164.471 164.212 164.45 164.175 164.398 164.088 164.281 
163.908 164.047 163.589 163.674 163.184 163.248 165.342 165.085 165.2 
164.961 165.163 164.952 165.194 164.951 165.15 164.872 165.043 164.761 
164.91 164.568 164.645 164.209 164.228 163.758 163.77 160.607 160.754 
160.439 159.98 160.947 160.613 160.122 159.803 159.305 161.148 160.819 
160.309 159.946 159.393 159.071 158.523 161.309 161.018 160.529 160.149 
159.565 159.173 158.601 158.272 157.728 161.346 161.12 160.655 160.355 
159.782 159.373 158.764 158.384 157.817 157.489 156.93 161.301 161.085 
160.606 160.402 159.862 159.543 158.912 158.543 157.945 157.6 157.031 
156.689 156.152 161.328 161.057 160.579 160.344 159.851 159.572 158.991 
158.649 158.085 157.75 157.268 156.895 156.452 156.051 155.705 161.442 
161.152 160.711 160.41 159.972 159.648 159.166 158.788 158.315 157.953 
157.586 157.236 156.926 156.515 156.236 155.826 155.646 161.531 161.285 
160.866 160.582 160.168 159.859 159.448 159.081 158.675 158.288 157.948 
157.608 157.329 156.997 156.714 156.363 156.101 155.793 155.605 160.416 
159.763 160.032 159.949 159.077 159.359 159.242 159.563 159.514 158.266 
158.587 158.434 158.808 158.758 159.143 159.143 157.44 157.727 157.515 
157.901 157.828 158.311 158.359 158.805 158.866 156.649 156.921 156.717 
157.024 156.941 157.359 157.426 157.943 158.072 158.549 158.659 155.856 
156.112 155.954 156.287 156.266 156.612 156.698 157.094 157.252 157.713 
157.884 158.353 158.503 155.371 155.421 155.233 155.51 155.495 155.918 
156.02 156.454 156.597 156.999 157.161 157.585 157.777 158.226 158.416 
155.343 155.189 154.966 154.96 154.855 155.111 155.155 155.64 155.785 
156.307 156.453 156.905 157.062 157.51 157.718 158.175 158.385 155.387 
155.271 155.08 154.929 154.779 154.71 154.663 154.851 154.98 155.429 
155.648 156.15 156.335 156.795 156.986 157.461 157.693 158.161 158.375 
160.779 160.353 160.799 161.268 159.923 160.376 160.896 161.343 161.783 
159.509 159.919 160.419 160.944 161.472 161.865 162.242 159.215 159.52 
159.929 160.419 160.988 161.516 162.005 162.338 162.718 159.053 159.292 
159.666 159.998 160.538 161.038 161.629 162.068 162.522 162.839 163.237 
158.924 159.168 159.569 159.828 160.336 160.714 161.32 161.735 162.256 
162.603 163.025 163.342 163.721 158.821 159.053 159.443 159.715 160.188 
160.55 161.112 161.504 162.018 162.354 162.784 163.107 163.519 163.817 
164.178 158.787 158.982 159.345 159.574 159.995 160.337 160.848 161.261 
161.747 162.112 162.515 162.851 163.256 163.601 164 164.28 164.604 
158.78 158.967 159.327 159.51 159.897 160.153 160.618 160.971 161.442 
161.806 162.201 162.546 162.921 163.294 163.687 164.048 164.384 164.661 
164.913 156.971 156.833 156.755 156.489 156.851 156.695 156.385 156.257 
155.97 156.906 156.748 156.464 156.257 155.919 155.758 155.497 157.003 
156.816 156.576 156.382 156.082 155.825 155.493 155.325 155.091 157.221 
156.967 156.719 156.515 156.261 156.021 155.713 155.441 155.138 154.956 
154.741 157.433 157.18 156.861 156.654 156.358 156.169 155.874 155.658 
155.379 155.131 154.891 154.683 154.543 157.589 157.328 156.939 156.726 
156.351 156.19 155.827 155.7 155.399 155.294 155.091 154.935 154.807 
154.623 154.614 157.848 157.511 157.127 156.816 156.441 156.19 155.814 
155.613 155.249 155.162 154.934 154.968 154.893 154.887 154.892 154.804 
154.902 158.24 157.868 157.535 157.131 156.814 156.436 156.149 155.778 
155.464 155.136 154.871 154.757 154.678 154.78 154.834 154.952 155.048 
155.087 155.235 
POINT_DATA 1002
SCALARS Distance double
LOOKUP_TABLE default
162.09 161.754 162.296 162.646 162.848 162.402 163.235 163.527 163.002 
162.697 163.973 164.306 163.661 163.339 163.016 164.747 164.921 164.35 
164.003 163.696 163.441 165.329 165.272 164.986 164.608 164.387 164.185 
163.967 165.714 165.494 165.646 165.35 165.135 164.945 164.722 164.491 
165.924 165.659 166.209 166.25 166.114 165.84 165.485 165.207 164.962 
166.003 165.841 166.384 166.718 166.852 166.717 166.335 165.943 165.65 
165.34 166.152 166.148 166.326 166.574 166.829 166.992 166.912 166.637 
166.318 165.974 165.587 161.707 162.315 161.605 162.389 161.544 163.033 
162.474 161.57 163.308 163.816 162.41 161.574 163.372 163.985 164.405 
162.194 161.462 163.093 163.815 164.224 164.721 161.992 161.281 162.783 
163.544 164.05 164.502 165.04 161.849 161.084 162.651 163.437 164.082 
164.623 165.11 165.429 161.691 160.897 162.554 163.391 164.094 164.724 
165.338 165.698 165.76 161.536 160.784 162.373 163.228 163.966 164.551 
165.193 165.816 166.079 166.077 161.228 161.977 161.733 162.354 162.163 
162.783 162.731 162.583 163.15 163.641 163.31 163.121 163.688 164.087 
164.325 163.914 163.647 164.304 164.649 164.737 164.877 164.295 164.083 
164.637 165.064 165.269 165.344 165.609 164.661 164.518 164.891 165.328 
165.783 166.021 166.162 166.235 165.124 164.907 165.378 165.759 166.216 
166.564 166.724 166.695 166.445 165.486 165.145 165.881 166.278 166.562 
166.727 166.884 166.997 166.878 166.516 166.552 166.982 166.999 167.2 
167.457 167.261 167.007 167.483 167.761 167.321 166.728 167.084 167.89 
167.95 167.453 166.748 166.846 167.699 168.443 168.181 167.8 166.832 
167.009 167.539 168.471 168.751 168.37 168.12 166.57 167.032 167.437 
168.095 168.597 168.557 168.313 168.214 166.035 166.576 167.052 167.54 
167.973 168.138 168.096 168.094 168.251 165.521 165.949 166.415 166.876 
167.288 167.56 167.65 167.721 167.978 168.408 166.457 166.638 166.354 
166.738 166.321 166.405 167.024 166.731 166.51 166.699 167.549 167.597 
167.335 166.954 166.962 168.013 168.258 168.251 167.613 167.114 166.972 
168.219 168.44 168.641 168.177 167.386 166.999 166.771 168.35 168.469 
168.706 168.588 167.834 167.089 166.729 166.42 168.627 168.663 168.741 
168.813 168.395 167.509 166.771 166.353 165.998 168.89 169.039 169.195 
169.1 168.834 168.887 168.578 167.977 168.709 168.782 167.953 167.197 
168.264 168.444 168.628 167.387 166.443 167.931 168.004 168.079 167.962 
166.503 165.577 167.321 167.539 167.444 167.316 167.018 165.563 164.893 
166.298 166.704 166.742 166.69 166.515 166.326 164.888 164.378 165.417 
165.78 165.922 166.03 166.047 165.908 165.866 164.24 163.777 164.704 
165.051 165.206 165.32 165.44 165.421 165.356 165.432 168.223 168.664 
167.802 167.988 167.234 168.706 167.147 166.624 167.718 168.019 166.4 
165.964 166.783 167.008 167.088 165.651 165.279 166.027 166.242 166.301 
166.325 164.895 164.637 165.203 165.432 165.551 165.556 165.518 164.21 
163.973 164.427 164.524 164.544 164.603 164.675 164.757 163.53 163.269 
163.74 163.794 163.682 163.592 163.707 163.967 164.215 162.886 162.663 
163.041 163.098 163.064 162.943 162.888 163.088 163.43 163.681 164.999 
165.336 164.813 165.179 164.608 165.737 164.984 164.325 165.579 166.174 
164.677 164.03 165.371 165.969 166.605 164.431 163.842 165.113 165.757 
166.384 167.003 164.284 163.61 164.937 165.54 166.17 166.791 167.25 
163.989 163.202 164.721 165.311 165.9 166.541 167.032 167.365 163.573 
162.833 164.344 164.993 165.593 166.244 166.83 167.271 167.648 164.689 
164.496 164.077 163.815 163.307 164.251 163.029 162.558 163.555 164.003 
162.298 161.864 162.803 163.348 163.743 161.603 161.093 162.045 162.574 
163.137 163.517 160.861 160.312 161.294 161.687 162.289 162.889 163.265 
160.143 159.683 160.566 160.898 161.373 162.026 162.52 162.837 159.514 
159.15 159.88 160.244 160.682 161.234 161.733 162.073 162.403 158.929 