# vtk DataFile Version 4.0
vtk output
ASCII
DATASET POLYDATA
POINTS 1002 float
-117.845 -100.401 49.3463 -117.861 -100.068 48.7475 -117.288 -100.161 48.8939 
-117.191 -100.499 49.5657 -116.594 -100.198 49.1593 -117.807 -100.788 49.9659 
-116.489 -100.639 49.8242 -115.821 -100.335 49.4502 -117.131 -100.905 50.2341 
-117.785 -101.23 50.6188 -115.713 -100.895 50.0318 -115.019 -100.602 49.6688 
-116.472 -101.107 50.5013 -117.127 -101.36 50.9147 -117.774 -101.745 51.241 
-114.878 -101.105 50.2585 -114.276 -100.774 49.9586 -115.674 -101.381 50.7369 
-116.44 -101.617 51.2029 -117.063 -101.916 51.5623 -117.716 -102.213 51.9568 
-114.127 -101.198 50.6536 -113.606 -100.874 50.3882 -114.789 -101.573 51.0414 
-115.573 -101.933 51.4984 -116.28 -102.206 51.8894 -116.95 -102.379 52.3812 
-117.645 -102.509 52.9372 -113.417 -101.454 51.0351 -112.892 -101.123 50.7378 
-114.027 -101.765 51.4046 -114.725 -102.146 51.846 -115.454 -102.444 52.2797 
-116.197 -102.544 52.8227 -116.935 -102.632 53.4278 -117.589 -102.792 53.8886 
-112.675 -101.827 51.2904 -112.226 -101.377 50.9985 -113.335 -102.04 51.7289 
-114.05 -102.245 52.2285 -114.731 -102.522 52.7236 -115.476 -102.642 53.3021 
-116.274 -102.73 53.8835 -116.952 -102.957 54.2989 -117.503 -103.171 54.6147 
-112.125 -101.951 51.7005 -111.847 -101.405 51.4206 -112.721 -102.176 52.172 
-113.471 -102.237 52.7118 -114.114 -102.48 53.2074 -114.744 -102.764 53.7459 
-115.537 -102.917 54.2857 -116.319 -103.114 54.6767 -116.919 -103.337 55.0157 
-117.429 -103.439 55.4391 -111.873 -101.809 52.3852 -111.721 -101.286 52.0603 
-112.312 -102.105 52.8387 -112.987 -102.181 53.3315 -113.606 -102.402 53.7551 
-114.103 -102.86 54.1717 -114.742 -103.213 54.6204 -115.571 -103.357 55.025 
-116.338 -103.435 55.4383 -116.932 -103.488 55.9505 -117.437 -103.513 56.4889 
-117.556 -99.9056 48.1048 -116.9 -99.9544 48.268 -117.194 -99.833 47.355 
-116.392 -99.8557 47.5538 -116.682 -99.6909 46.756 -116.114 -99.9136 48.6344 
-115.788 -99.7675 46.9314 -116.084 -99.2624 46.4424 -115.567 -99.8084 47.9944 
-115.297 -100.037 49.0246 -115.266 -99.3547 46.6032 -115.615 -98.5416 46.3094 
-115.028 -99.747 47.3999 -114.765 -99.9406 48.433 -114.483 -100.334 49.2829 
-114.971 -98.5218 46.6127 -115.333 -97.7334 46.2631 -114.649 -99.2532 47.2136 
-114.254 -99.821 47.8705 -113.895 -100.244 48.6181 -113.715 -100.538 49.5559 
-114.813 -97.7035 46.7166 -115.102 -97.0279 46.2629 -114.468 -98.4151 47.3723 
-113.93 -99.2773 47.7863 -113.358 -100.09 47.9862 -113.069 -100.458 48.7971 
-112.999 -100.643 49.9712 -114.64 -97.174 46.7444 -114.867 -96.4771 46.2866 
-114.29 -97.7961 47.3835 -113.713 -98.5387 47.9379 -113.037 -99.5424 47.9425 
-112.559 -100.26 48.2185 -112.399 -100.45 49.3516 -112.332 -100.744 50.4251 
-114.429 -96.7193 46.8319 -114.651 -96.0098 46.3688 -114.023 -97.3686 47.2741 
-113.385 -97.9431 47.836 -112.724 -98.7386 48.141 -112.227 -99.6411 48.2595 
-111.967 -100.117 48.9903 -111.907 -100.321 50.11 -111.881 -100.778 50.8795 
-114.218 -96.1809 47.0516 -114.446 -95.561 46.5308 -113.781 -96.8243 47.3751 
-113.069 -97.3723 47.7051 -112.369 -97.9543 48.1217 -111.921 -98.7462 48.4421 
-111.653 -99.4929 48.9392 -111.562 -99.9131 49.8529 -111.637 -100.248 50.7522 
-111.705 -100.749 51.411 -114.103 -95.4676 47.1578 -113.754 -96.056 47.6164 
-113.763 -95.4923 47.8387 -113.248 -96.0166 48.1835 -113.454 -95.729 48.5572 
-113.076 -96.6384 47.8311 -112.756 -96.1595 48.821 -113.07 -95.9248 49.3828 
-112.445 -96.5528 48.3605 -112.259 -97.1943 48.083 -112.25 -96.2739 49.6443 
-112.613 -95.9232 50.217 -111.987 -96.6428 49.1092 -111.804 -97.1512 48.6437 
-111.737 -97.8633 48.4715 -111.853 -96.3353 50.5322 -112.293 -96.0148 50.9349 
-111.59 -96.7114 50.1214 -111.57 -97.2277 49.5421 -111.482 -97.8953 49.0527 
-111.451 -98.702 48.9441 -111.716 -96.5478 51.3579 -112.161 -96.2866 51.7003 
-111.333 -96.8325 51.113 -111.258 -97.2789 50.7146 -111.232 -97.965 50.0355 
-111.141 -98.7696 49.6306 -111.259 -99.4457 49.7039 -111.761 -96.8344 52.2377 
-112.14 -96.5473 52.6025 -111.369 -97.1567 51.9259 -111.108 -97.4891 51.7288 
-110.955 -97.9981 51.3009 -110.851 -98.8016 50.7092 -110.986 -99.5391 50.5117 
-111.333 -99.9479 50.6601 -111.891 -97.0819 53.1884 -112.208 -96.7874 53.4645 
-111.599 -97.521 52.7838 -111.338 -97.9201 52.5089 -111.068 -98.2163 52.3611 
-110.819 -98.7685 52.0265 -110.845 -99.5667 51.6438 -111.196 -100.115 51.531 
-111.541 -100.401 51.5241 -112.049 -97.3263 54.0559 -112.302 -97.043 54.1919 
-111.832 -97.7931 53.751 -111.658 -98.3074 53.4 -111.448 -98.6087 53.2381 
-111.131 -98.9028 53.1563 -110.91 -99.5473 52.9173 -111.047 -100.24 52.655 
-111.39 -100.626 52.4972 -111.623 -100.905 52.3159 -111.673 -101.497 53.0515 
-111.459 -101.209 53.3417 -111.558 -101.762 54.0411 -111.154 -100.94 53.566 
-111.223 -101.544 54.2861 -111.489 -102.059 54.7663 -110.935 -100.429 53.8193 
-110.949 -101.197 54.5628 -111.25 -101.723 55.0647 -111.703 -102.163 55.5532 
-111.056 -99.689 54.096 -110.877 -100.558 54.9518 -111.097 -101.198 55.5282 
-111.658 -101.658 56.0381 -112.129 -102.108 56.6815 -111.398 -99.1863 54.2234 
-111.065 -99.8438 55.2857 -111 -100.51 56.0655 -111.502 -101.084 56.6149 
-112.023 -101.678 57.2069 -112.49 -102.137 57.7435 -111.672 -98.909 54.2964 
-111.388 -99.401 55.3939 -111.13 -99.9062 56.3658 -111.373 -100.501 57.0648 
-111.797 -101.234 57.6906 -112.185 -101.877 58.2374 -112.858 -102.151 58.5617 
-111.857 -98.4512 54.5097 -111.725 -99.0329 55.4225 -111.538 -99.5189 56.3484 
-111.625 -100.021 57.1783 -111.856 -100.708 57.9718 -112.034 -101.489 58.6846 
-112.533 -101.946 59.127 -113.395 -102.087 59.4008 -112.047 -97.8865 54.7408 
-112.023 -98.5054 55.4953 -111.99 -99.1053 56.2729 -112.072 -99.6268 57.097 
-112.205 -100.146 58.0141 -112.244 -100.85 58.9041 -112.489 -101.534 59.5338 
-113.183 -101.894 59.8952 -113.941 -102.128 60.2557 -112.238 -97.4599 54.8611 
-112.227 -97.9588 55.5841 -112.284 -98.5496 56.3114 -112.385 -99.147 57.0916 
-112.451 -99.6095 58.0113 -112.464 -100.092 58.9438 -112.629 -100.787 59.6556 
-113.149 -101.442 60.1074 -113.83 -101.868 60.4872 -114.298 -102.245 60.9797 
-111.92 -101.923 53.4857 -111.911 -102.179 54.4037 -112.449 -102.172 53.9164 
-111.921 -102.491 55.1206 -112.485 -102.51 54.7453 -113.096 -102.393 54.2916 
-112.2 -102.522 56.1545 -112.593 -102.766 55.643 -113.183 -102.817 55.1579 
-113.641 -102.852 54.6517 -112.72 -102.399 57.3301 -113.028 -102.643 56.8467 
-113.51 -102.893 56.2554 -113.874 -103.21 55.613 -114.184 -103.378 55.0428 
-113.278 -102.342 58.167 -113.619 -102.549 57.8289 -113.997 -102.767 57.4021 
-114.334 -103.138 56.7823 -114.552 -103.534 56.0779 -114.946 -103.597 55.4751 
-113.815 -102.294 59.0048 -114.122 -102.621 58.6544 -114.374 -102.927 58.3368 
-114.702 -103.168 57.9388 -115.024 -103.407 57.3957 -115.368 -103.546 56.7249 
-115.839 -103.53 56.0348 -114.225 -102.383 60.0836 -114.446 -102.762 59.808 
-114.664 -103.147 59.4274 -115.015 -103.395 59.0084 -115.442 -103.509 58.6348 
-115.841 -103.492 58.1844 -116.236 -103.433 57.5076 -116.609 -103.452 56.7012 
-114.417 -102.633 61.1016 -114.543 -103.034 61.0565 -114.842 -103.315 60.7021 
-115.378 -103.45 60.1139 -115.914 -103.615 59.5978 -116.273 -103.755 59.224 
-116.586 -103.688 58.7475 -116.917 -103.551 58.0655 -117.193 -103.513 57.2779 
-114.507 -102.577 61.8399 -114.522 -103.153 62.0728 -114.703 -102.781 62.7783 
-114.872 -103.378 62.8385 -115.325 -102.73 63.4644 -114.795 -103.498 61.9162 
-115.779 -103.232 63.1627 -116.293 -102.654 63.6837 -115.522 -103.544 62.2911 
-115.532 -103.472 61.2641 -116.853 -103.14 63.1386 -117.198 -102.745 63.5793 
-116.525 -103.472 62.3204 -116.459 -103.487 61.4261 -116.333 -103.516 60.4975 
-117.749 -103.194 62.9214 -118.036 -102.824 63.4521 -117.36 -103.603 62.2512 
-117.055 -103.844 61.5975 -116.921 -103.942 60.7548 -116.68 -103.968 59.9292 
-118.475 -103.135 62.6152 -118.825 -102.788 63.2945 -118.085 -103.616 61.9294 
-117.574 -104.201 61.6416 -117.135 -104.668 61.0478 -116.94 -104.77 60.0518 
-116.827 -104.31 59.3753 -118.992 -103.022 62.2897 -119.368 -102.71 62.8431 
-118.678 -103.479 61.4941 -118.354 -104.164 61.2237 -117.85 -104.889 61.0296 
-117.373 -105.327 60.0854 -117.206 -105.023 59.1817 -117.146 -104.166 58.7521 
-119.427 -102.936 61.9056 -119.73 -102.575 62.104 -119.149 -103.432 61.2965 
-119.021 -104.118 60.8263 -118.825 -104.732 60.7085 -118.342 -105.141 60.1368 
-117.884 -105.15 59.1544 -117.683 -104.56 58.5879 -117.502 -103.84 58.1434 
-119.943 -102.782 61.4361 -120.101 -102.352 61.3551 -119.727 -103.339 61.2226 
-119.573 -104.087 60.7799 -119.461 -104.647 60.4961 -119.134 -104.771 60.206 
-118.618 -104.685 59.5015 -118.253 -104.422 58.7492 -118.044 -103.965 58.1913 
-117.773 -103.616 57.458 -114.372 -101.93 61.2285 -114.61 -102.024 62.1389 
-114.414 -101.334 61.449 -114.688 -101.278 62.4057 -114.435 -100.662 61.6672 
-114.98 -102.016 63.0865 -114.796 -100.668 62.5011 -114.609 -100.17 61.6406 
-115.228 -101.328 63.1674 -115.763 -102.054 63.6092 -115.187 -100.275 62.1478 
-115.025 -99.8365 61.2084 -115.541 -100.847 62.9338 -116.107 -101.594 63.304 
-116.645 -102.237 63.585 -115.808 -100.004 61.3873 -115.502 -99.4742 60.6542 
-116.116 -100.405 62.3721 -116.556 -101.023 62.8832 -116.989 -101.733 63.107 
-117.477 -102.349 63.4838 -116.313 -99.6765 60.6856 -115.917 -98.9594 60.298 
-116.667 -100.112 61.5393 -117.109 -100.437 62.412 -117.563 -100.893 62.8145 
-117.995 -101.575 63.185 -118.479 -102.316 63.5648 -116.705 -99.0342 60.3808 
-116.342 -98.3452 60.078 -117.015 -99.7257 60.8254 -117.43 -100.199 61.6022 
-118.035 -100.39 62.4097 -118.647 -100.708 62.9447 -119.11 -101.477 63.325 
-119.352 -102.283 63.3672 -117.134 -98.2523 60.254 -116.772 -97.8389 59.776 
-117.427 -98.9287 60.5335 -117.702 -99.7504 60.8289 -118.196 -100.249 61.5113 
-118.929 -100.366 62.3405 -119.541 -100.721 62.8383 -119.791 -101.505 62.9113 
-119.783 -102.207 62.6143 -117.506 -97.7449 59.9193 -117.108 -97.55 59.3194 
-117.888 -98.1693 60.309 -118.139 -98.9425 60.4019 -118.394 -99.7391 60.6419 
[...]
CELL_DATA 2000
SCALARS Distance double
LOOKUP_TABLE default
161.136 160.783 161.145 161.509 160.409 160.784 161.169 161.531 161.933 
160.056 160.431 160.856 161.218 161.633 161.986 162.418 159.699 160.075 
160.504 160.91 161.355 161.716 162.136 162.486 162.912 159.378 159.715 
160.117 160.531 160.999 161.418 161.855 162.213 162.617 162.967 163.375 
159.132 159.431 159.825 160.174 160.641 161.051 161.523 161.908 162.324 
162.676 163.084 163.433 163.833 158.909 159.209 159.612 159.929 160.372 
160.734 161.2 161.578 162.016 162.377 162.803 163.16 163.585 163.909 
164.285 158.738 159.008 159.418 159.723 160.149 160.481 160.917 161.274 
161.71 162.075 162.517 162.885 163.333 163.676 164.079 164.364 164.702 
158.7 158.897 159.307 159.56 159.987 160.272 160.699 161.012 161.451 
161.793 162.25 162.61 163.07 163.425 163.849 164.161 164.524 164.782 
165.105 160.839 160.291 160.535 160.469 159.689 159.945 159.828 160.108 
160.047 158.987 159.293 159.17 159.449 159.37 159.688 159.674 158.203 
158.56 158.5 158.804 158.743 159.032 159.012 159.337 159.343 157.444 
157.797 157.8 158.146 158.126 158.419 158.374 158.679 158.668 159.008 
159.027 156.805 157.116 157.157 157.488 157.511 157.803 157.746 158.024 
157.969 158.308 158.319 158.699 158.751 156.288 156.569 156.641 156.919 
156.948 157.21 157.159 157.404 157.327 157.614 157.602 157.968 158.023 
158.427 158.508 155.843 156.117 156.193 156.436 156.402 156.636 156.533 
156.794 156.703 156.992 156.966 157.289 157.344 157.712 157.82 158.213 
158.345 155.438 155.701 155.757 155.976 155.87 156.052 155.862 156.108 
155.988 156.321 156.307 156.663 156.728 157.085 157.22 157.587 157.769 
158.134 158.331 155.272 155.142 155.314 155.536 155.108 155.151 155.219 
155.432 155.547 155.165 155.103 155.008 155.081 155.076 155.329 155.461 
155.165 155.101 154.959 154.929 154.887 154.96 155.074 155.323 155.603 
155.176 155.08 154.987 154.931 154.955 154.941 155.075 155.135 155.407 
155.626 155.996 155.404 155.213 155.171 155.041 155.114 155.084 155.25 
155.255 155.484 155.576 155.917 156.118 156.494 155.827 155.588 155.604 
155.378 155.469 155.335 155.508 155.453 155.674 155.7 156.024 156.148 
156.551 156.696 157.065 156.325 156.091 156.184 155.935 156.089 155.849 
156.046 155.839 156.07 155.96 156.301 156.338 156.784 156.873 157.294 
157.341 157.678 156.831 156.628 156.778 156.568 156.79 156.56 156.801 
156.527 156.755 156.505 156.809 156.713 157.145 157.179 157.623 157.649 
158.001 157.983 158.27 158.6 158.352 158.663 159.021 158.012 158.389 
158.743 159.064 159.411 157.589 158.012 158.405 158.76 159.117 159.448 
159.834 157.288 157.637 158.072 158.417 158.812 159.157 159.588 159.934 
160.405 157.244 157.474 157.898 158.147 158.533 158.852 159.301 159.691 
160.201 160.569 161.062 157.286 157.501 157.897 158.064 158.4 158.619 
159.037 159.398 159.926 160.339 160.855 161.21 161.663 157.238 157.493 
157.891 158.08 158.413 158.566 158.96 159.211 159.736 160.09 160.642 
160.994 161.485 161.798 162.261 157.157 157.395 157.787 158.027 158.398 
158.595 158.995 159.207 159.69 159.969 160.491 160.811 161.318 161.64 
162.136 162.443 162.943 157.135 157.311 157.659 157.897 158.272 158.533 
158.938 159.203 159.621 159.896 160.305 160.621 161.051 161.428 161.906 
162.293 162.788 163.131 163.594 158.857 159.295 159.195 159.449 159.718 
159.645 159.925 159.828 160.114 160.158 160.078 160.402 160.321 160.629 
160.519 160.819 160.725 160.578 160.922 160.824 161.19 161.075 161.405 
161.259 161.579 161.388 161.216 161.556 161.408 161.801 161.68 162.067 
161.907 162.245 162.063 162.392 162.004 161.878 162.235 162.085 162.466 
162.329 162.728 162.587 162.943 162.761 163.076 162.889 163.206 162.614 
162.493 162.894 162.762 163.158 163.011 163.405 163.258 163.629 163.456 
163.775 163.577 163.872 163.688 163.975 163.308 163.162 163.594 163.448 
163.872 163.714 164.124 163.961 164.365 164.18 164.541 164.309 164.61 
164.37 164.637 164.427 164.665 163.963 163.865 164.289 164.164 164.576 
164.429 164.824 164.677 165.084 164.935 165.327 165.118 165.435 165.158 
165.407 165.127 165.341 165.09 165.273 164.381 165.061 164.756 164.762 
165.707 165.435 165.497 165.129 165.067 166.381 166.096 166.162 165.835 
165.811 165.411 165.315 167.058 166.777 166.827 166.497 166.491 166.132 
166.094 165.676 165.593 167.66 167.41 167.457 167.156 167.157 166.822 
166.82 166.451 166.421 165.981 165.864 168.131 167.916 167.9 167.691 
167.699 167.466 167.487 167.174 167.152 166.768 166.658 166.194 165.974 
168.401 168.25 168.135 168 168.012 167.92 168.018 167.818 167.817 
167.464 167.333 166.91 166.68 166.207 165.917 168.461 168.401 168.307 
168.192 168.245 168.2 168.397 168.307 168.375 168.086 167.926 167.525 
167.262 166.838 166.541 166.092 165.797 168.414 168.44 168.487 168.415 
168.548 168.493 168.719 168.668 168.755 168.552 168.351 168.014 167.682 
167.331 167.011 166.644 166.339 165.941 165.668 164.241 164.086 164.412 
164.857 163.794 164.172 164.648 165.007 165.484 163.538 163.878 164.387 
164.778 165.338 165.684 166.193 163.417 163.694 164.211 164.564 165.157 
165.54 166.106 166.413 166.882 163.357 163.631 164.146 164.449 165.012 
165.368 165.906 166.262 166.756 167.07 167.495 163.242 163.562 164.073 
164.383 164.903 165.229 165.722 166.042 166.528 166.886 167.409 167.705 
168.084 163.068 163.404 163.881 164.232 164.713 165.074 165.56 165.882 
166.364 166.689 167.234 167.595 168.079 168.272 168.47 162.912 163.209 
163.639 163.976 164.41 164.796 165.265 165.666 166.145 166.521 166.996 
167.383 167.808 168.142 168.359 168.493 168.485 162.791 163.05 163.447 
163.738 164.133 164.468 164.872 165.282 165.707 166.168 166.564 167.016 
167.318 167.723 167.877 168.179 168.18 168.352 168.303 157.254 157.533 
157.491 157.721 157.855 157.773 158.021 158.011 158.325 158.414 158.201 
158.479 158.381 158.739 158.693 159.045 159.185 158.903 159.182 158.971 
159.31 159.177 159.517 159.43 159.741 159.848 159.644 159.868 159.688 
159.945 159.779 160.015 159.885 160.13 160.072 160.361 160.376 160.191 
160.352 160.233 160.45 160.343 160.555 160.394 160.598 160.464 160.764 
160.72 161.093 161.021 160.75 160.918 160.705 160.961 160.825 161.149 
160.987 161.293 161.066 161.409 161.241 161.687 161.584 162.021 161.756 
161.48 161.701 161.411 161.712 161.475 161.867 161.676 162.073 161.852 
162.218 162.001 162.418 162.273 162.732 162.583 162.964 162.398 162.205 
162.46 162.232 162.544 162.314 162.677 162.467 162.827 162.624 162.939 
162.753 163.075 162.956 163.335 163.256 163.629 163.485 163.772 157.056 
156.939 157.125 157.365 156.888 157.062 157.334 157.451 157.701 156.897 
157.061 157.401 157.5 157.787 157.871 158.237 156.949 157.087 157.449 
157.599 157.955 158.043 158.42 158.529 158.989 157.022 157.12 157.426 
157.617 158.03 158.217 158.637 158.751 159.161 159.289 159.689 157.165 
157.208 157.5 157.621 158.067 158.285 158.785 158.951 159.364 159.461 
159.826 159.927 160.27 157.424 157.437 157.795 157.816 158.263 158.393 
158.922 159.096 159.556 159.658 160.032 160.102 160.475 160.542 160.919 
157.725 157.759 158.15 158.173 158.568 158.637 159.073 159.228 159.669 
159.823 160.212 160.318 160.693 160.779 161.164 161.237 161.615 157.995 
158.046 158.403 158.473 158.806 158.879 159.202 159.327 159.686 159.873 
160.254 160.439 160.807 160.955 161.308 161.432 161.774 161.885 162.218 
158.257 158.807 158.552 158.646 159.513 159.16 159.207 158.949 159.039 
160.32 159.931 159.941 159.57 159.601 159.328 159.418 161.077 160.729 
160.751 160.352 160.344 159.964 160.007 159.734 159.875 161.803 161.462 
161.491 161.129 161.139 160.753 160.783 160.417 160.527 160.259 160.45 
162.519 162.191 162.209 161.85 161.884 161.535 161.605 161.239 161.325 
160.979 161.118 160.856 161.028 163.125 162.861 162.892 162.568 162.613 
162.288 162.391 162.057 162.145 161.78 161.846 161.53 161.643 161.402 
161.534 163.668 163.423 163.48 163.213 163.281 163.006 163.116 162.826 
162.914 162.566 162.596 162.241 162.299 162.016 162.135 161.894 162.011 
164.251 163.983 164.044 163.785 163.867 163.63 163.745 163.506 163.593 
163.29 163.315 162.969 163.013 162.698 162.811 162.531 162.661 162.383 
162.479 164.612 165.071 164.692 164.392 165.468 165.13 164.834 164.475 
164.21 165.774 165.484 165.221 164.91 164.669 164.328 164.101 166.111 
165.801 165.583 165.293 165.095 164.782 164.546 164.206 163.937 166.594 
166.236 166.058 165.715 165.531 165.201 164.952 164.61 164.305 163.972 
163.653 167.083 166.769 166.603 166.249 166.035 165.661 165.378 165 
164.692 164.339 164.05 163.697 163.403 167.453 167.21 167.054 166.761 
166.553 166.182 165.891 165.462 165.152 164.76 164.514 164.156 163.917 
163.517 163.24 167.799 167.566 167.463 167.195 167.068 166.72 166.506 
166.048 165.752 165.285 165.016 164.636 164.401 164.039 163.759 163.36 
163.061 168.156 167.955 167.93 167.67 167.619 167.285 167.139 166.708 
166.435 165.938 165.606 165.151 164.843 164.472 164.167 163.816 163.49 
163.135 162.832 164.848 165.292 165.165 165.308 165.604 165.549 165.731 
165.617 165.719 165.938 165.835 166.055 166.006 166.187 166.014 166.053 
166.472 166.251 166.442 166.349 166.595 166.483 166.595 166.339 166.37 
166.946 166.784 166.893 166.772 166.988 166.905 167.071 166.874 166.928 
166.68 166.779 167.084 167.086 167.171 167.141 167.343 167.312 167.513 
167.356 167.429 167.199 167.271 167.098 167.227 167.129 167.157 167.306 
167.317 167.574 167.629 167.921 167.836 167.949 167.7 167.736 167.538 
167.641 167.503 167.603 167.339 167.33 167.539 167.487 167.712 167.787 
168.089 168.168 168.327 168.192 168.192 167.985 168.046 167.901 168.014 
167.854 167.937 167.555 167.603 167.788 167.733 167.795 167.826 167.943 
168.131 168.249 168.365 168.365 168.327 168.353 168.279 168.392 168.272 
168.355 168.181 168.244 164.626 164.426 164.732 165.082 164.175 164.52 
164.898 165.155 165.42 163.826 164.219 164.613 164.948 165.267 165.483 
165.77 163.366 163.796 164.168 164.592 164.966 165.305 165.686 165.934 
166.323 162.864 163.303 163.692 164.128 164.534 164.948 165.381 165.78 
166.226 166.521 166.832 162.37 162.815 163.26 163.699 164.149 164.548 
164.972 165.391 165.809 166.245 166.551 166.843 166.955 161.851 162.319 
162.756 163.253 163.723 164.181 164.605 164.997 165.347 165.739 165.995 
166.371 166.506 166.798 166.899 161.274 161.754 162.136 162.67 163.111 
163.668 164.125 164.604 164.977 165.327 165.556 165.832 165.957 166.255 
166.404 166.755 166.994 160.716 161.155 161.505 162.005 162.419 162.991 
163.473 164.05 164.509 164.957 165.26 165.508 165.634 165.806 165.919 
166.218 166.462 166.887 167.183 160.569 160.669 160.834 161.33 160.845 
160.966 161.456 161.655 162.243 161.044 161.15 161.638 161.822 162.44 
162.662 163.32 161.239 161.344 161.802 161.989 162.601 162.868 163.561 
163.791 164.403 161.346 161.51 161.95 162.136 162.703 162.981 163.663 
163.976 164.598 164.796 165.204 161.274 161.533 162.019 162.272 162.839 
163.084 163.706 164.007 164.604 164.882 165.277 165.402 165.583 161.16 
161.418 161.943 162.285 162.888 163.189 163.746 164.018 164.534 164.818 
165.221 165.403 165.621 165.677 165.84 161.175 161.36 161.857 162.181 
162.757 163.121 163.616 163.939 164.366 164.688 165.097 165.346 165.667 
165.761 166.029 166.053 166.375 161.264 161.419 161.862 162.115 162.615 
162.933 163.367 163.686 164.059 164.416 164.837 165.196 165.617 165.839 
166.201 166.297 166.668 166.723 167.105 161.421 161.842 161.764 162.05 
162.296 162.228 162.557 162.457 162.77 162.796 162.727 163.085 162.983 
163.272 163.159 163.439 163.289 163.241 163.613 163.526 163.814 163.662 
163.895 163.785 164.088 163.737 163.706 164.066 164.021 164.318 164.197 
164.443 164.293 164.607 164.512 164.905 164.174 164.136 164.482 164.442 
164.738 164.658 164.911 164.816 165.134 165.075 165.48 165.405 165.758 
164.597 164.561 164.913 164.871 165.19 165.095 165.331 165.226 165.469 
165.471 165.822 165.89 166.254 166.197 166.418 164.99 164.962 165.315 
165.301 165.662 165.592 165.851 165.685 165.83 165.718 165.922 166.024 
166.372 166.534 166.858 166.799 166.953 165.383 165.347 165.685 165.68 
166.041 166.036 166.339 166.224 166.359 166.132 166.185 166.088 166.299 
166.482 166.861 167.076 167.378 167.314 167.411 167.673 167.57 167.768 
167.835 166.978 167.384 167.478 167.73 167.747 166.446 166.746 166.9 
167.227 167.357 167.625 167.791 166.441 166.491 166.729 166.839 167.065 
167.257 167.516 167.782 168.051 166.66 166.689 166.942 166.933 167.169 
167.191 167.453 167.585 167.885 168.085 168.283 166.624 166.81 167.006 
167.11 167.292 167.359 167.605 167.675 167.992 168.07 168.354 168.367 
168.475 166.342 166.622 166.826 167.023 167.209 167.373 167.668 167.83 
168.224 168.316 168.657 168.618 168.785 168.629 168.62 166.021 166.318 
166.602 166.83 167.102 167.284 167.649 167.868 168.326 168.52 168.864 
168.91 169.011 168.926 168.853 168.703 168.559 165.729 166.029 166.367 
166.644 166.983 167.213 167.592 167.846 168.273 168.534 168.815 168.952 
168.943 168.957 168.787 168.77 168.601 168.541 168.401 155.272 155.677 
155.369 155.223 156.19 155.853 155.756 155.435 155.43 156.815 156.481 
156.513 156.126 156.173 155.799 155.908 157.503 157.185 157.303 156.965 
157.073 156.668 156.775 156.39 156.586 158.29 157.943 158.064 157.743 
157.845 157.513 157.608 157.274 157.46 157.156 157.435 159.136 158.795 
158.948 158.564 158.674 158.276 158.374 158.038 158.244 157.999 158.301 
158.039 158.294 159.853 159.606 159.791 159.474 159.638 159.222 159.365 
158.914 159.123 158.789 159.104 158.861 159.129 158.824 158.965 160.403 
160.22 160.364 160.182 160.351 160.125 160.312 159.968 160.147 159.753 
159.971 159.657 159.885 159.6 159.739 159.41 159.512 160.912 160.719 
160.827 160.654 160.802 160.681 160.895 160.752 160.944 160.683 160.814 
160.497 160.621 160.323 160.44 160.141 160.248 159.948 160.104 155.002 
154.979 154.854 154.65 155.19 154.95 154.77 154.595 154.477 155.627 
155.277 155.11 154.842 154.707 154.517 154.532 156.295 155.818 155.642 
155.284 155.16 154.851 154.8 154.671 154.872 157.163 156.594 156.419 
155.945 155.858 155.431 155.391 155.068 155.214 155.147 155.491 158 
157.473 157.289 156.804 156.739 156.268 156.254 155.802 155.913 155.646 
155.951 155.863 156.186 158.653 158.217 158.018 157.616 157.559 157.167 
157.156 156.714 156.746 156.396 156.601 156.422 156.713 156.564 156.779 
159.253 158.839 158.681 158.296 158.267 157.931 157.953 157.57 157.557 
157.175 157.255 157.031 157.252 157.112 157.323 157.138 157.297 159.929 
159.514 159.436 159.018 159.026 158.66 158.727 158.356 158.382 157.967 
158 157.67 157.829 157.635 157.847 157.674 157.838 157.645 157.8 
155.004 154.634 154.839 154.936 154.458 154.56 154.726 154.896 155.059 
154.585 154.551 154.777 154.85 155.128 155.167 155.279 155.01 154.862 
155.111 155.059 155.314 155.309 155.436 155.367 155.318 155.591 155.385 
155.579 155.453 155.558 155.471 155.451 155.42 155.352 155.318 155.261 
156.142 155.919 156 155.866 155.875 155.693 155.53 155.375 155.245 
155.251 155.279 155.323 155.428 156.632 156.373 156.356 156.206 156.239 
156.042 155.95 155.619 155.49 155.269 155.349 155.353 155.582 155.614 
155.828 157.15 156.844 156.793 156.563 156.614 156.439 156.494 156.2 
156.179 155.798 155.866 155.637 155.89 155.831 156.116 156.081 156.313 
157.699 157.398 157.372 157.072 157.089 156.861 156.923 156.731 156.787 
156.528 156.593 156.311 156.477 156.284 156.531 156.421 156.655 156.583 
156.798 164.259 163.647 163.971 164.032 163.084 163.362 163.368 163.714 
163.764 162.476 162.777 162.749 163.062 163.083 163.439 163.457 161.74 
162.085 162.039 162.402 162.411 162.78 162.79 163.111 163.05 160.988 
161.31 161.223 161.607 161.598 162.04 162.045 162.427 162.336 162.637 
162.515 160.243 160.563 160.443 160.781 160.713 161.146 161.125 161.582 
161.487 161.859 161.7 162.053 161.958 159.443 159.784 159.654 159.993 
159.857 160.239 160.141 160.593 160.496 160.932 160.789 161.184 161.067 
161.487 161.431 158.71 158.993 158.852 159.172 158.996 159.342 159.167 
159.584 159.461 159.921 159.809 160.24 160.122 160.553 160.472 160.929 
160.869 158.138 158.335 158.19 158.424 158.245 158.497 158.292 158.616 
158.483 158.911 158.844 159.281 159.191 159.6 159.502 159.943 159.886 
160.354 160.32 
POINT_DATA 1002
SCALARS Distance double
LOOKUP_TABLE default
161.491 161.116 160.801 161.145 160.403 161.892 160.805 160.02 161.559 
162.351 160.471 159.678 161.293 162.05 162.856 160.076 159.345 160.966 
161.808 162.553 163.33 159.724 159.066 160.552 161.48 162.279 163.021 
163.776 159.503 158.828 160.248 161.123 161.966 162.73 163.505 164.22 
159.298 158.603 160.038 160.832 161.647 162.436 163.246 164.004 164.632 
159.123 158.49 159.836 160.576 161.344 162.142 162.975 163.78 164.455 
165.021 159.079 158.534 159.722 160.405 161.118 161.894 162.714 163.521 
164.248 164.872 165.426 160.601 160.204 160.071 159.561 159.435 159.72 
158.885 158.642 159.067 159.327 158.153 157.815 158.462 158.704 159.008 
157.423 157.095 157.824 158.092 158.327 158.672 156.831 156.491 157.218 
157.493 157.654 157.928 158.359 156.386 155.987 156.708 156.921 157.066 
157.263 157.618 158.094 155.978 155.566 156.217 156.282 156.398 156.647 
156.989 157.426 157.942 155.559 155.189 155.735 155.659 155.646 155.921 
156.355 156.843 157.394 157.971 155.069 155.315 155.044 155.097 155.186 
155.248 155.027 155.286 154.902 155.081 154.992 155.221 154.862 154.901 
155.244 155.03 155.279 154.942 155.063 155.263 155.714 155.332 155.602 
155.155 155.249 155.44 155.752 156.286 155.832 156.047 155.649 155.605 
155.674 155.912 156.409 156.96 156.396 156.534 156.324 156.295 156.24 
156.299 156.694 157.251 157.672 156.954 157.006 156.985 157.062 157.047 
156.98 157.149 157.595 158.027 158.307 158.96 158.725 159.379 158.417 
159.09 159.765 158.026 158.774 159.488 160.249 157.738 158.454 159.21 
160.066 160.901 157.706 158.251 158.896 159.798 160.742 161.544 157.751 
158.237 158.713 159.502 160.478 161.346 162.099 157.669 158.254 158.75 
159.418 160.291 161.159 161.95 162.734 157.534 158.161 158.782 159.455 
160.198 160.985 161.811 162.647 163.449 157.447 157.998 158.658 159.375 
160.036 160.682 161.488 162.42 163.296 164.036 159.547 160.011 160.218 
160.46 160.736 160.935 161.028 161.279 161.556 161.726 161.721 161.919 
162.206 162.44 162.569 162.369 162.615 162.864 163.116 163.275 163.385 
163.011 163.303 163.556 163.794 163.979 164.074 164.158 163.742 164.03 
164.284 164.533 164.768 164.877 164.881 164.877 164.404 164.723 164.975 
165.216 165.506 165.71 165.718 165.626 165.523 164.705 165.16 165.319 
165.828 165.977 165.504 166.485 166.683 166.174 165.756 167.164 167.328 
166.835 166.468 166.06 167.74 167.913 167.47 167.166 166.826 166.377 
168.097 168.384 167.866 167.764 167.532 167.101 166.495 168.271 168.551 
168.038 168.134 168.16 167.762 167.136 166.409 168.384 168.452 168.269 
168.43 168.628 168.34 167.679 166.972 166.243 168.484 168.306 168.593 
168.782 168.946 168.69 168.026 167.343 166.718 166.058 163.984 164.547 
163.728 164.243 163.412 165.156 163.981 163.222 164.937 165.92 163.881 
163.148 164.773 165.763 166.636 163.866 163.057 164.694 165.569 166.388 
167.245 163.763 162.907 164.592 165.426 166.171 167.026 167.957 163.541 
162.758 164.341 165.206 166.049 166.873 167.804 168.476 163.33 162.65 
164.046 164.844 165.745 166.642 167.474 168.148 168.455 163.171 162.552 
163.839 164.514 165.26 166.118 166.934 167.548 167.936 168.151 157.309 
157.717 157.575 158.028 157.963 158.32 158.614 158.665 158.797 159.103 
159.43 159.46 159.502 159.633 159.815 160.042 160.042 160.132 160.203 
160.21 160.368 160.49 160.597 160.526 160.695 160.77 160.816 161.11 
161.164 161.303 161.102 161.257 161.496 161.614 161.798 162.154 161.973 
161.992 161.966 162.068 162.277 162.447 162.591 162.867 163.176 156.855 
157.213 156.752 157.223 156.691 157.568 157.27 156.731 157.713 158.083 
157.262 156.856 157.816 158.337 158.842 157.242 156.969 157.775 158.5 
159.077 159.568 157.414 157.114 157.846 158.58 159.276 159.74 160.173 
157.784 157.374 158.189 158.754 159.432 159.961 160.396 160.857 158.12 
157.681 158.548 158.969 159.498 160.079 160.6 161.086 161.551 158.339 