# vtk DataFile Version 4.0
vtk output
ASCII
DATASET POLYDATA
POINTS 1002 float
-117.004 -99.7263 45.9765 -117.084 -99.6279 45.075 -116.412 -99.6419 45.4502 
-116.225 -99.6633 46.5408 -115.576 -99.6467 45.9808 -116.813 -99.7603 47.0402 
-115.439 -99.7225 47.0292 -114.926 -99.846 46.3472 -116.078 -99.7198 47.5665 
-116.724 -99.8528 48.0433 -114.94 -100.049 47.2224 -114.508 -100.192 46.5103 
-115.488 -99.877 47.9299 -116.153 -99.9445 48.477 -116.771 -100.062 49.0647 
-114.55 -100.417 47.3649 -113.927 -100.506 46.7301 -115.097 -100.208 48.2234 
-115.724 -100.216 48.9077 -116.312 -100.331 49.5302 -116.849 -100.447 50.0858 
-113.94 -100.58 47.7729 -113.133 -100.68 47.1519 -114.625 -100.393 48.7263 
-115.276 -100.53 49.4401 -115.877 -100.751 49.9717 -116.434 -100.858 50.4951 
-117.037 -101.052 50.8268 -113.281 -100.556 48.3918 -112.545 -100.627 47.7512 
-114.028 -100.36 49.4143 -114.672 -100.629 50.078 -115.279 -101.163 50.3332 
-115.923 -101.361 50.7259 -116.65 -101.472 51.1322 -117.3 -101.666 51.4493 
-112.811 -100.467 49.0261 -112.263 -100.405 48.4216 -113.505 -100.356 50.0244 
-114.102 -100.615 50.6958 -114.598 -101.327 50.7508 -115.222 -101.777 50.9129 
-116.052 -101.844 51.3896 -116.857 -101.951 51.8246 -117.387 -102.008 52.3114 
-112.43 -100.407 49.5878 -112.042 -100.199 49.0316 -113.028 -100.479 50.4589 
-113.635 -100.726 51.1588 -114.071 -101.335 51.297 -114.545 -101.888 51.3579 
-115.309 -102.053 51.7974 -116.175 -102.08 52.3244 -116.849 -102.125 52.7907 
-117.293 -102.071 53.3462 -112.068 -100.376 50.0995 -111.781 -100.07 49.5578 
-112.537 -100.603 50.8257 -113.137 -100.904 51.4765 -113.64 -101.383 51.7921 
-114.046 -101.83 51.9731 -114.649 -102.033 52.3868 -115.455 -102.084 52.9371 
-116.165 -102.096 53.4124 -116.71 -102.066 53.8722 -117.2 -102.02 54.3571 
-116.657 -99.4708 44.5234 -115.923 -99.4988 44.8547 -116.141 -99.1615 44.1583 
-115.439 -99.1556 44.5135 -115.704 -98.6516 44.037 -115.133 -99.5408 45.3411 
-115.088 -98.5929 44.4982 -115.303 -98.0088 44.0392 -114.764 -99.1696 44.9934 
-114.553 -99.7061 45.7575 -114.704 -97.973 44.5339 -114.753 -97.416 43.9474 
-114.434 -98.6448 44.9368 -114.094 -99.2861 45.4834 -113.951 -99.9562 46.1336 
-114.152 -97.4498 44.3517 -114.154 -96.985 43.7112 -113.988 -98.1576 44.8538 
-113.539 -98.9327 45.2891 -113.16 -99.5888 45.9554 -113.058 -100.268 46.5414 
-113.613 -97.0627 44.0688 -113.675 -96.6208 43.5044 -113.462 -97.6535 44.7107 
-113.014 -98.6013 45.0629 -112.482 -99.4196 45.5672 -112.23 -99.9653 46.3844 
-112.295 -100.444 47.04 -113.162 -96.7377 43.9044 -113.254 -96.1601 43.4466 
-112.987 -97.1797 44.6408 -112.568 -97.9707 45.0818 -112.079 -99.0178 45.2723 
-111.824 -99.671 45.9874 -111.839 -100.007 46.9887 -112.017 -100.285 47.7063 
-112.728 -96.295 43.911 -112.856 -95.5703 43.515 -112.57 -96.8013 44.6012 
-112.198 -97.3199 45.2042 -111.767 -98.1957 45.4215 -111.596 -99.0312 45.8422 
-111.674 -99.4475 46.8483 -111.807 -99.7077 47.7938 -111.929 -99.9794 48.3906 
-112.373 -95.6883 44.0804 -112.561 -94.9689 43.6962 -112.233 -96.3474 44.6283 
-111.947 -96.8725 45.198 -111.554 -97.5027 45.6316 -111.343 -98.2389 46.0923 
-111.403 -98.7777 46.9027 -111.552 -99.1126 47.8327 -111.66 -99.429 48.4611 
-111.724 -99.763 48.9283 -112.236 -94.8446 44.2782 -112.07 -95.5688 44.746 
-112.089 -94.8566 45.0913 -111.876 -95.5681 45.4916 -112.012 -95.0632 45.9162 
-111.859 -96.2899 45.1855 -111.593 -95.7449 46.34 -111.739 -95.3083 46.7256 
-111.531 -96.3724 45.8876 -111.517 -96.9852 45.6777 -111.137 -95.9808 47.2927 
-111.334 -95.4973 47.5922 -111.078 -96.5199 46.9149 -111.164 -97.158 46.5689 
-111.206 -97.6635 46.3596 -110.811 -96.2417 48.1049 -111.099 -95.786 48.4579 
-110.551 -96.5838 47.8193 -110.643 -97.1535 47.5975 -110.848 -97.7506 47.4381 
-111.074 -98.2161 47.2043 -110.679 -96.5432 48.9146 -110.975 -96.1438 49.3457 
-110.187 -96.6732 48.4642 -109.974 -97.0304 48.1956 -110.184 -97.7185 48.1654 
-110.573 -98.2596 48.1614 -111.087 -98.6461 48.0195 -110.483 -96.7137 49.9998 
-110.824 -96.3447 50.25 -109.933 -96.8198 49.5378 -109.458 -97.0765 49.0318 
-109.443 -97.7801 48.7683 -109.845 -98.4373 48.7263 -110.487 -98.7533 48.6875 
-111.181 -99.0251 48.5947 -110.306 -96.7015 51.029 -110.786 -96.3886 51.0105 
-109.742 -96.8687 50.8759 -109.272 -97.1816 50.4598 -109.13 -97.917 49.9816 
-109.376 -98.6477 49.631 -109.932 -98.9481 49.3622 -110.66 -99.0936 49.1566 
-111.31 -99.3801 49.0333 -110.374 -96.6712 51.7102 -110.943 -96.4141 51.6085 
-109.782 -96.8642 51.767 -109.415 -97.1871 51.5949 -109.356 -97.8779 51.214 
-109.49 -98.6465 50.7986 -109.8 -99.0112 50.3937 -110.34 -99.1273 50.0114 
-110.958 -99.3708 49.7523 -111.441 -99.7381 49.6251 -111.702 -100.192 50.4508 
-111.393 -99.8331 50.5604 -111.811 -100.293 51.5255 -110.954 -99.414 50.7427 
-111.591 -99.9161 51.6944 -112.109 -100.358 52.6089 -110.443 -99.1244 51.0224 
-111.177 -99.5136 51.8438 -111.905 -100.031 52.8181 -112.319 -100.503 53.7174 
-110.142 -98.9131 51.3278 -110.755 -99.187 51.987 -111.409 -99.7359 52.9743 
-112.026 -100.226 54.0213 -112.306 -100.753 54.9795 -110.031 -98.4142 51.6122 
-110.657 -98.8147 52.1143 -111.009 -99.3996 53.1507 -111.469 -100 54.324 
-112.004 -100.429 55.3205 -112.392 -100.892 56.1469 -109.863 -97.6836 51.9389 
-110.618 -98.2461 52.3001 -110.993 -98.9062 53.3194 -111.131 -99.6264 54.6363 
-111.565 -100.142 55.6344 -112.192 -100.481 56.3788 -112.757 -100.801 56.9237 
-109.834 -97.1595 52.2208 -110.399 -97.6734 52.615 -110.978 -98.3177 53.5054 
-111.16 -99.03 54.8028 -111.339 -99.663 55.8692 -111.889 -100.09 56.6084 
-112.585 -100.366 57.1362 -113.184 -100.629 57.497 -110.232 -96.8818 52.3055 
-110.408 -97.2613 52.9039 -110.868 -97.7795 53.7472 -111.231 -98.3633 54.8506 
-111.372 -98.9736 55.9007 -111.676 -99.5279 56.7638 -112.29 -99.9303 57.4016 
-112.964 -100.212 57.7789 -113.52 -100.513 58.1171 -110.856 -96.6365 52.2558 
-110.82 -96.9243 53.0204 -110.972 -97.3052 53.926 -111.272 -97.7485 54.8931 
-111.47 -98.2533 55.831 -111.621 -98.8195 56.7621 -112.031 -99.3551 57.5634 
-112.673 -99.7702 58.0311 -113.301 -100.106 58.3244 -113.797 -100.449 58.7561 
-112.041 -100.538 51.1137 -112.175 -100.685 52.1476 -112.533 -100.9 51.7342 
-112.359 -100.876 53.1938 -112.561 -101.237 52.6095 -113.088 -101.396 52.1661 
-112.375 -101.219 54.4489 -112.503 -101.668 53.6979 -112.962 -101.854 53.0203 
-113.558 -101.829 52.5161 -112.438 -101.46 55.8141 -112.499 -102.011 55.1156 
-112.867 -102.193 54.252 -113.502 -102.058 53.5776 -114.117 -101.971 53.0191 
-112.841 -101.349 56.8013 -112.898 -101.913 56.4348 -113.158 -102.152 55.724 
-113.702 -102.051 54.9338 -114.342 -101.952 54.2787 -114.913 -102.002 53.6403 
-113.366 -101.118 57.4201 -113.501 -101.642 57.3287 -113.75 -101.917 57.0215 
-114.205 -101.91 56.4315 -114.745 -101.895 55.7193 -115.217 -101.961 54.9878 
-115.659 -102.034 54.2054 -113.757 -100.994 58.1083 -113.924 -101.57 58.1443 
-114.146 -101.976 58.0922 -114.569 -102.053 57.7848 -115.092 -102.013 57.2228 
-115.496 -101.998 56.4963 -115.814 -101.969 55.6338 -116.22 -101.984 54.7088 
-114.037 -100.913 58.9289 -114.195 -101.534 59.0901 -114.33 -102.137 59.1272 
-114.641 -102.424 58.9169 -115.157 -102.38 58.4776 -115.623 -102.201 57.9003 
-115.947 -101.995 57.1345 -116.314 -101.884 56.1551 -116.778 -101.936 55.1607 
-114.191 -100.638 59.6027 -114.402 -101.17 59.9285 -114.503 -100.731 60.5081 
-114.747 -101.27 60.682 -114.831 -100.677 61.0734 -114.533 -101.876 60.0586 
-115.249 -101.301 60.9833 -115.463 -100.631 61.4042 -114.998 -102.029 60.5544 
-114.721 -102.498 59.8937 -116.079 -101.444 61.356 -116.428 -100.644 61.778 
-115.761 -102.187 60.7757 -115.392 -102.632 60.2465 -115.157 -102.689 59.4837 
-117.002 -101.438 61.6935 -117.296 -100.56 61.7059 -116.688 -102.337 61.1805 
-116.306 -102.705 60.5842 -115.887 -102.653 59.8882 -115.676 -102.462 58.9906 
-117.721 -101.121 61.285 -117.884 -100.4 60.9851 -117.504 -102.072 61.1839 
-117.173 -102.613 60.8199 -116.68 -102.497 60.2576 -116.268 -102.247 59.4137 
-116.077 -102.095 58.3613 -118.378 -100.811 60.5843 -118.416 -100.243 60.3078 
-118.301 -101.609 60.6211 -118.049 -102.264 60.4463 -117.508 -102.31 60.1541 
-116.972 -102.068 59.5298 -116.709 -101.942 58.5496 -116.532 -101.883 57.3902 
-119.062 -100.57 60.2343 -118.937 -100.012 59.9326 -119.156 -101.321 60.2489 
-119.057 -102.004 59.9492 -118.53 -102.173 59.6151 -117.839 -102.008 59.1723 
-117.502 -101.977 58.3465 -117.372 -101.991 57.3001 -117.098 -101.929 56.2279 
-119.57 -100.241 59.9415 -119.324 -99.7056 59.5291 -119.782 -101.012 60.0705 
-119.831 -101.783 59.7435 -119.456 -102.074 59.2304 -118.716 -101.913 58.7499 
-118.205 -101.901 58.0272 -118.094 -102.096 57.0412 -117.918 -102.116 56.1089 
-117.535 -102.016 55.2482 -113.795 -100.151 58.9672 -114.184 -100.293 59.8143 
-113.833 -99.7206 59.0447 -114.196 -99.8002 59.925 -113.901 -99.0517 59.0926 
-114.453 -100.315 60.7273 -114.257 -99.0434 59.9903 -113.939 -98.2949 59.1554 
-114.478 -99.7767 60.7858 -114.867 -100.202 61.2508 -114.361 -98.2398 59.9271 
-114.025 -97.7258 59.0616 -114.66 -99.0096 60.5961 -115.092 -99.6912 61.0272 
-115.742 -100.099 61.4655 -114.594 -97.653 59.5809 -114.294 -97.2855 58.7135 
-114.958 -98.236 60.2051 -115.454 -99.0323 60.465 -116.11 -99.6227 60.9001 
-116.791 -100.037 61.5206 -114.965 -97.1891 58.9811 -114.643 -96.796 58.2435 
-115.356 -97.6746 59.6447 -115.85 -98.3214 60.0054 -116.447 -98.973 60.2968 
-117.058 -99.4787 60.8058 -117.546 -99.9495 61.1152 -115.302 -96.7463 58.3151 
-114.931 -96.3738 57.7016 -115.754 -97.2461 58.9087 -116.255 -97.7441 59.5113 
-116.805 -98.1805 60.0197 -117.332 -98.6535 60.4056 -117.75 -99.2677 60.5526 
-118.074 -99.8463 60.4317 -115.562 -96.3936 57.6635 -115.205 -96.1331 57.0463 
-116.046 -96.8117 58.1918 -116.573 -97.2633 58.7836 -117.125 -97.5612 59.4735 
-117.665 -97.8287 60.0255 -118.044 -98.3936 60.2005 -118.274 -99.1494 60.0401 
-118.539 -99.6986 59.8808 -115.817 -96.1187 57.0136 -115.502 -95.9569 56.3726 
-116.275 -96.3599 57.5976 -116.789 -96.7305 58.1075 -117.289 -97.0847 58.6429 
[...]
CELL_DATA 2000
SCALARS Distance double
LOOKUP_TABLE default
159.167 158.743 159.106 159.38 158.383 158.677 158.968 159.31 159.617 
158.258 158.435 158.732 158.972 159.334 159.638 160.027 158.193 158.388 
158.702 158.87 159.262 159.486 159.941 160.176 160.612 157.959 158.263 
158.605 158.848 159.255 159.5 159.978 160.194 160.661 160.842 161.3 
157.658 157.981 158.355 158.675 159.095 159.431 159.914 160.215 160.676 
160.905 161.361 161.573 162.048 157.456 157.726 158.129 158.435 158.881 
159.221 159.698 160.055 160.513 160.832 161.269 161.568 162.029 162.296 
162.707 157.332 157.57 157.978 158.267 158.74 159.047 159.521 159.832 
160.273 160.598 161.029 161.38 161.819 162.168 162.565 162.837 163.128 
157.227 157.454 157.844 158.13 158.601 158.921 159.398 159.689 160.105 
160.378 160.777 161.103 161.528 161.892 162.277 162.6 162.892 163.147 
163.379 158.893 158.276 158.563 158.475 157.608 157.914 157.859 158.134 
158.108 156.95 157.265 157.235 157.523 157.542 157.852 157.951 156.234 
156.612 156.617 156.925 156.922 157.252 157.33 157.719 157.832 155.451 
155.867 155.921 156.294 156.284 156.606 156.595 156.99 157.052 157.504 
157.561 154.744 155.112 155.177 155.57 155.603 155.944 155.915 156.244 
156.255 156.667 156.749 157.19 157.265 154.137 154.47 154.526 154.866 
154.899 155.243 155.25 155.581 155.612 155.957 156.068 156.448 156.597 
156.972 157.095 153.524 153.877 153.953 154.269 154.282 154.571 154.566 
154.9 154.965 155.346 155.495 155.872 156.056 156.401 156.558 156.877 
157 152.936 153.271 153.387 153.715 153.77 154.02 154.022 154.278 
154.352 154.705 154.887 155.296 155.502 155.884 156.04 156.369 156.478 
156.789 156.894 152.707 152.669 152.812 153.156 152.846 152.849 153.099 
153.263 153.549 153.069 153.033 153.184 153.248 153.474 153.611 153.834 
153.2 153.186 153.297 153.332 153.546 153.625 153.864 153.936 154.199 
153.382 153.311 153.373 153.372 153.53 153.669 153.924 154.04 154.305 
154.391 154.726 153.729 153.58 153.547 153.411 153.386 153.505 153.691 
153.972 154.245 154.463 154.767 154.945 155.312 154.073 153.938 153.851 
153.609 153.443 153.355 153.443 153.659 153.98 154.285 154.629 154.894 
155.244 155.484 155.83 154.326 154.211 154.131 153.906 153.767 153.545 
153.633 153.618 153.994 154.139 154.564 154.748 155.124 155.355 155.717 
155.953 156.271 154.601 154.446 154.39 154.19 154.143 153.946 154.103 
154.013 154.409 154.405 154.837 154.851 155.219 155.308 155.679 155.859 
156.228 156.405 156.717 156.961 156.504 156.926 157.332 155.984 156.439 
156.911 157.382 157.882 155.554 155.947 156.423 156.932 157.511 157.991 
158.507 155.256 155.604 156.038 156.464 157.033 157.571 158.161 158.617 
159.105 154.903 155.317 155.77 156.143 156.649 157.114 157.712 158.221 
158.771 159.198 159.666 154.51 154.913 155.406 155.849 156.367 156.795 
157.359 157.812 158.38 158.83 159.336 159.744 160.184 154.375 154.584 
155.03 155.45 156.019 156.494 157.067 157.504 158.035 158.458 158.96 
159.388 159.848 160.235 160.628 154.552 154.583 154.94 155.178 155.722 
156.143 156.736 157.184 157.689 158.102 158.555 158.99 159.448 159.877 
160.291 160.655 161.02 154.807 154.813 155.117 155.213 155.658 155.929 
156.46 156.846 157.326 157.72 158.129 158.551 158.98 159.442 159.875 
160.295 160.677 161.038 161.398 157.294 157.692 157.618 157.941 158.23 
158.09 158.41 158.335 158.709 158.833 158.664 158.955 158.841 159.207 
159.149 159.518 159.443 159.28 159.566 159.409 159.736 159.648 159.996 
159.923 160.219 160.039 159.909 160.233 160.052 160.35 160.191 160.493 
160.387 160.682 160.587 160.872 160.565 160.499 160.863 160.728 161.03 
160.833 161.1 160.92 161.217 161.085 161.411 161.293 161.623 160.999 
160.987 161.383 161.324 161.68 161.52 161.823 161.6 161.916 161.713 
162.056 161.885 162.204 162.06 162.35 161.405 161.412 161.856 161.839 
162.277 162.177 162.564 162.37 162.726 162.496 162.823 162.587 162.843 
162.631 162.841 162.704 162.923 161.808 161.833 162.318 162.333 162.825 
162.786 163.222 163.1 163.465 163.285 163.575 163.344 163.531 163.266 
163.396 163.183 163.351 163.227 163.428 162.169 162.863 162.6 162.723 
163.393 163.254 163.441 163.173 163.259 163.867 163.742 163.994 163.832 
163.983 163.678 163.679 164.589 164.349 164.659 164.429 164.646 164.361 
164.405 164.028 163.935 165.297 165.148 165.48 165.23 165.447 165.092 
165.11 164.707 164.587 164.192 164.012 165.547 165.636 165.927 165.919 
166.092 165.869 165.788 165.383 165.139 164.746 164.494 164.155 163.904 
165.584 165.715 166.013 166.135 166.343 166.306 166.231 165.936 165.622 
165.23 164.919 164.576 164.325 163.992 163.749 165.7 165.806 166.191 
166.267 166.592 166.545 166.593 166.315 166.062 165.664 165.38 165.027 
164.843 164.484 164.305 163.902 163.718 165.735 165.93 166.348 166.503 
166.871 166.885 166.987 166.743 166.502 166.099 165.78 165.459 165.289 
165.027 164.896 164.534 164.345 163.932 163.766 161.96 161.808 162.147 
162.619 161.538 161.946 162.418 162.751 163.135 161.155 161.615 162.105 
162.501 162.903 163.204 163.588 160.765 161.2 161.691 162.136 162.591 
162.962 163.407 163.731 164.251 160.486 160.842 161.305 161.719 162.202 
162.629 163.131 163.537 164.067 164.456 164.944 160.267 160.59 161.033 
161.391 161.874 162.271 162.781 163.214 163.724 164.17 164.6 164.985 
165.249 160.024 160.35 160.784 161.144 161.626 161.997 162.488 162.875 
163.342 163.758 164.156 164.553 164.822 165.133 165.3 159.796 160.093 
160.506 160.871 161.334 161.729 162.186 162.574 162.989 163.369 163.729 
164.1 164.378 164.703 164.896 165.181 165.359 159.621 159.875 160.242 
160.575 160.989 161.382 161.787 162.197 162.556 162.961 163.27 163.658 
163.907 164.257 164.434 164.748 164.886 165.211 165.358 154.997 155.392 
155.25 155.364 155.758 155.652 155.821 155.675 155.874 156.199 156.034 
156.214 156.107 156.343 156.256 156.572 156.852 156.584 156.736 156.531 
156.756 156.675 156.989 156.974 157.343 157.53 157.309 157.465 157.161 
157.317 157.116 157.391 157.345 157.711 157.724 158.117 158.005 157.922 
158.14 157.905 158.027 157.744 157.939 157.786 158.139 158.111 158.547 
158.541 158.982 158.383 158.335 158.608 158.496 158.681 158.447 158.62 
158.395 158.706 158.604 159.055 159.027 159.506 159.468 159.899 158.82 
158.729 159.002 158.93 159.194 159.057 159.294 159.09 159.383 159.225 
159.645 159.578 160.06 160.016 160.456 160.377 160.735 159.286 159.178 
159.434 159.349 159.643 159.56 159.859 159.73 160.034 159.891 160.266 
160.179 160.633 160.582 161.027 160.946 161.319 161.187 161.489 154.846 
154.632 154.898 155.19 154.377 154.647 154.964 155.242 155.549 154.176 
154.395 154.702 155.001 155.369 155.639 156.013 154.046 154.196 154.458 
154.744 155.16 155.486 155.947 156.204 156.659 154.065 154.117 154.365 
154.555 155.003 155.321 155.836 156.136 156.59 156.856 157.271 154.217 
154.241 154.524 154.596 155.05 155.266 155.792 156.044 156.462 156.709 
157.059 157.354 157.697 154.275 154.404 154.713 154.808 155.212 155.381 
155.857 156.052 156.438 156.598 156.911 157.125 157.476 157.752 158.109 
154.191 154.396 154.714 154.901 155.254 155.47 155.88 156.098 156.463 
156.609 156.912 157.054 157.413 157.62 158.031 158.243 158.609 154.166 
154.323 154.657 154.842 155.207 155.432 155.844 156.077 156.457 156.625 
156.933 157.073 157.406 157.603 158.003 158.223 158.607 158.781 159.1 
154.347 154.872 154.656 154.809 155.545 155.254 155.401 155.173 155.385 
156.285 155.98 156.162 155.874 156.085 155.825 156.059 157.037 156.723 
156.9 156.644 156.851 156.581 156.752 156.489 156.654 157.872 157.5 
157.628 157.342 157.523 157.289 157.425 157.158 157.238 156.997 157.107 
158.747 158.375 158.477 158.103 158.247 157.953 158.112 157.818 157.903 
157.591 157.683 157.44 157.599 159.477 159.205 159.314 158.959 159.058 
158.72 158.876 158.561 158.689 158.326 158.417 158.086 158.246 158.002 
158.21 160.048 159.856 159.996 159.727 159.81 159.497 159.594 159.311 
159.432 159.125 159.206 158.86 158.964 158.68 158.859 158.633 158.81 
160.578 160.401 160.572 160.36 160.478 160.197 160.266 159.975 160.053 
159.793 159.876 159.596 159.672 159.385 159.505 159.263 159.413 159.187 
159.303 160.937 161.456 161.112 160.925 161.925 161.612 161.437 161.093 
160.858 162.391 162.072 161.927 161.604 161.38 160.978 160.666 162.94 
162.573 162.423 162.096 161.896 161.502 161.176 160.741 160.42 163.494 
163.132 162.926 162.583 162.36 162 161.689 161.259 160.912 160.507 
160.224 163.92 163.62 163.376 163.044 162.774 162.433 162.14 161.757 
161.437 161.022 160.72 160.328 160.056 164.271 163.995 163.787 163.468 
163.228 162.866 162.605 162.22 161.951 161.552 161.278 160.862 160.583 
160.17 159.906 164.692 164.384 164.237 163.917 163.755 163.386 163.18 
162.761 162.524 162.099 161.849 161.428 161.152 160.723 160.434 160.03 
159.779 165.174 164.852 164.71 164.404 164.265 163.937 163.756 163.369 
163.132 162.706 162.439 162.007 161.715 161.281 160.96 160.542 160.238 
159.879 159.629 161.062 161.441 161.386 161.605 161.703 161.764 162.036 
161.932 162.095 161.754 161.948 162.362 162.389 162.619 162.429 162.578 
161.81 161.962 162.478 162.684 163.085 162.993 163.171 162.946 163.125 
162.093 162.102 162.595 162.819 163.344 163.404 163.645 163.503 163.651 
163.497 163.674 162.469 162.452 162.911 163.044 163.58 163.654 163.933 
163.863 164 163.929 164.095 163.994 164.113 162.783 162.819 163.286 
163.395 163.892 163.943 164.236 164.151 164.305 164.224 164.419 164.362 
164.532 164.385 164.468 163.068 163.123 163.543 163.671 164.08 164.194 
164.476 164.467 164.641 164.565 164.765 164.701 164.924 164.813 164.97 
164.772 164.884 163.291 163.359 163.649 163.778 164.044 164.218 164.447 
164.59 164.775 164.834 165.009 165.016 165.23 165.201 165.427 165.307 
165.491 165.266 165.396 160.768 160.418 160.771 161.119 160.08 160.412 
160.722 161.076 161.337 159.769 160.091 160.402 160.701 160.96 161.242 
161.413 159.394 159.773 160.145 160.452 160.857 161.065 161.376 161.442 
161.631 158.907 159.357 159.77 160.179 160.715 161.086 161.666 161.747 
162.057 161.875 162.045 158.404 158.86 159.277 159.737 160.225 160.794 
161.445 161.946 162.397 162.427 162.478 162.278 162.343 157.97 158.395 
158.829 159.254 159.665 160.176 160.665 161.365 161.828 162.359 162.443 
162.53 162.394 162.405 162.496 157.594 157.994 158.445 158.854 159.279 
159.665 160.048 160.537 160.925 161.516 161.749 162.143 162.122 162.284 
162.299 162.499 162.732 157.252 157.626 158.055 158.473 158.914 159.31 
159.703 160.055 160.401 160.783 161.088 161.463 161.654 161.917 162.048 
162.267 162.486 162.75 163.019 157.203 157.355 157.506 157.984 157.522 
157.657 158.151 158.328 158.839 157.803 157.862 158.341 158.496 159.037 
159.203 159.67 158.162 158.192 158.631 158.721 159.234 159.396 159.899 
160.007 160.386 158.383 158.498 158.921 159.024 159.474 159.594 160.059 
160.203 160.61 160.685 161.005 158.472 158.623 159.069 159.252 159.707 
159.827 160.225 160.337 160.726 160.855 161.198 161.273 161.547 158.681 
158.739 159.182 159.36 159.874 160.038 160.466 160.534 160.893 160.973 
161.348 161.444 161.77 161.798 162.036 159.032 159.029 159.416 159.511 
160.002 160.187 160.682 160.798 161.189 161.217 161.575 161.627 161.995 
162.042 162.348 162.313 162.545 159.29 159.349 159.668 159.738 160.12 
160.289 160.75 160.958 161.387 161.502 161.839 161.884 162.195 162.255 
162.558 162.604 162.86 162.835 163.045 159.43 159.686 159.674 159.853 
159.935 159.933 160.182 160.114 160.311 160.301 160.23 160.496 160.45 
160.713 160.642 160.913 160.811 160.649 160.864 160.78 161.038 161.017 
161.326 161.293 161.559 161.472 161.214 161.369 161.18 161.375 161.316 
161.607 161.638 161.938 161.892 162.057 162.228 161.926 162.039 161.74 
161.87 161.694 161.947 161.919 162.233 162.222 162.443 162.324 162.417 
162.87 162.639 162.681 162.382 162.416 162.202 162.409 162.33 162.647 
162.579 162.822 162.698 162.835 162.673 162.755 163.295 163.168 163.171 
162.916 162.844 162.643 162.765 162.745 163.062 163.043 163.284 163.13 
163.236 163.065 163.152 163.003 163.062 163.607 163.543 163.625 163.381 
163.306 163.024 163.056 162.997 163.289 163.374 163.656 163.584 163.652 
163.458 163.475 163.34 163.402 163.273 163.28 163.439 163.553 163.582 
163.725 163.624 163.64 163.789 163.845 164.035 163.84 163.794 163.947 
163.925 164.134 164.187 164.424 163.891 164.007 164.183 164.168 164.357 
164.345 164.586 164.612 164.819 163.542 163.863 164.085 164.289 164.464 
164.546 164.727 164.779 164.978 164.992 165.123 163.332 163.527 163.842 
164.08 164.345 164.526 164.758 164.876 165.127 165.178 165.399 165.33 
165.429 163.618 163.612 164.026 164.061 164.442 164.49 164.864 164.952 
165.4 165.457 165.878 165.77 166.007 165.735 165.761 163.932 163.999 
164.411 164.443 164.819 164.783 165.138 165.171 165.676 165.817 166.38 
166.385 166.717 166.448 166.474 166.06 165.909 163.862 164.104 164.421 
164.66 164.947 165.073 165.286 165.385 165.711 165.968 166.44 166.712 
167.018 167.019 166.974 166.699 166.441 166.065 165.777 152.835 153.408 
153.055 153.024 154.048 153.673 153.592 153.297 153.316 154.693 154.33 
154.279 153.917 153.881 153.576 153.569 155.407 155.017 155.012 154.638 
154.635 154.241 154.238 153.871 153.928 156.215 155.804 155.822 155.421 
155.463 155.051 155.077 154.658 154.733 154.369 154.532 156.988 156.63 
156.683 156.286 156.355 155.933 155.979 155.536 155.58 155.196 155.312 
155.012 155.159 157.678 157.373 157.441 157.108 157.182 156.826 156.889 
156.464 156.481 156.04 156.081 155.737 155.841 155.563 155.665 158.347 
158.054 158.092 157.783 157.81 157.542 157.61 157.313 157.349 156.941 
156.936 156.516 156.567 156.236 156.348 156.055 156.175 158.964 158.704 
158.714 158.394 158.364 158.089 158.138 157.928 158.021 157.739 157.765 
157.369 157.377 156.995 157.081 156.767 156.907 156.608 156.754 152.547 
152.806 152.548 152.383 153.152 152.914 152.799 152.526 152.425 153.341 
153.184 153.07 152.923 152.798 152.573 152.473 153.603 153.318 153.09 
152.998 152.821 152.767 152.607 152.538 152.514 154.215 153.727 153.417 
153.064 152.825 152.673 152.515 152.502 152.455 152.536 152.613 154.887 
154.422 154.134 153.617 153.371 152.932 152.803 152.538 152.534 152.464 
152.539 152.607 152.697 155.4 155.026 154.768 154.342 154.117 153.664 
153.534 153.113 153.099 152.785 152.856 152.679 152.779 152.729 152.857 
155.918 155.533 155.312 154.921 154.731 154.353 154.223 153.858 153.796 
153.458 153.475 153.187 153.272 153.041 153.183 153.049 153.263 156.52 
156.118 155.953 155.532 155.403 154.993 154.906 154.515 154.455 154.101 
154.093 153.805 153.881 153.637 153.778 153.555 153.743 153.585 153.82 
152.459 152.237 152.314 152.42 152.223 152.179 152.255 152.42 152.666 
152.303 152.201 152.217 152.316 152.561 152.746 152.963 152.494 152.348 
152.316 152.288 152.423 152.597 152.779 152.959 153.079 152.732 152.635 
152.641 152.468 152.46 152.444 152.507 152.669 152.784 153.014 153.206 
152.832 152.861 152.969 152.847 152.837 152.623 152.604 152.505 152.592 
152.71 152.963 153.229 153.555 152.94 152.948 153.139 153.132 153.255 
153.083 153.127 152.862 152.948 152.777 153.004 153.072 153.431 153.648 
153.958 153.305 153.175 153.396 153.353 153.576 153.485 153.617 153.432 
153.534 153.315 153.469 153.327 153.581 153.617 153.932 154.056 154.286 
153.833 153.64 153.842 153.728 153.956 153.847 153.978 153.839 153.903 
153.783 153.875 153.779 153.93 153.873 154.101 154.123 154.385 154.423 
154.618 160.464 159.918 160.157 160.108 159.34 159.589 159.502 159.783 
159.761 158.617 158.938 158.796 159.111 159.04 159.409 159.406 157.762 
158.134 157.975 158.316 158.164 158.572 158.522 158.987 158.97 156.92 
157.273 157.152 157.482 157.325 157.667 157.563 158.01 157.985 158.481 
158.455 156.139 156.461 156.346 156.684 156.57 156.882 156.782 157.122 
157.086 157.502 157.504 157.961 157.957 155.4 155.69 155.535 155.869 
155.726 156.089 155.973 156.354 156.297 156.689 156.676 157.075 157.079 
157.504 157.526 154.733 154.97 154.796 155.071 154.883 155.204 155.038 
155.443 155.353 155.825 155.792 156.251 156.229 156.658 156.661 157.103 
157.147 154.167 154.337 154.147 154.37 154.188 154.427 154.261 154.551 
154.46 154.856 154.843 155.308 155.31 155.773 155.78 156.239 156.282 
156.748 156.821 
POINT_DATA 1002
SCALARS Distance double
LOOKUP_TABLE default
159.465 159.207 158.831 159.022 158.379 159.656 158.633 158.14 159.252 
159.945 158.534 158.103 159.032 159.719 160.417 158.527 157.949 159.046 
159.709 160.395 161.025 158.315 157.616 158.975 159.747 160.48 161.109 
161.766 158.016 157.343 158.739 159.574 160.422 161.128 161.845 162.532 
157.82 157.206 158.554 159.353 160.17 160.948 161.731 162.51 163.08 
157.686 157.106 158.429 159.238 159.974 160.677 161.463 162.264 162.922 
163.384 157.571 157.004 158.276 159.099 159.858 160.484 161.172 161.952 
162.618 163.137 163.617 158.642 158.217 157.971 157.554 157.3 157.808 
156.943 156.607 157.208 157.611 156.286 155.81 156.624 156.937 157.444 
155.506 155.038 155.972 156.258 156.592 157.121 154.792 154.403 155.234 
155.605 155.885 156.291 156.836 154.214 153.793 154.573 154.892 155.256 
155.697 156.218 156.737 153.624 153.155 154.022 154.252 154.556 155.085 
155.703 156.248 156.69 153.036 152.618 153.502 153.788 154.027 154.476 
155.102 155.702 156.172 156.573 152.47 152.933 152.607 153.01 152.922 
153.357 153.168 153.119 153.378 153.689 153.274 153.208 153.453 153.81 
154.095 153.454 153.488 153.392 153.747 154.22 154.603 153.801 153.901 
153.389 153.377 153.95 154.567 155.133 154.114 154.208 153.64 153.302 
153.652 154.339 154.982 155.617 154.315 154.456 153.969 153.696 153.904 
154.428 154.925 155.467 156.07 154.569 154.781 154.289 154.174 154.441 
154.884 155.202 155.533 156.041 156.574 157.307 156.897 157.794 156.381 
157.456 158.399 155.929 156.959 158.119 159.006 155.683 156.504 157.637 
158.729 159.582 155.384 156.243 157.203 158.3 159.285 160.132 154.916 
155.92 156.94 157.936 158.907 159.817 160.602 154.662 155.513 156.624 
157.641 158.532 159.442 160.286 160.996 154.798 155.36 156.294 157.292 
158.136 158.998 159.904 160.684 161.38 155.072 155.482 156.134 156.954 
157.734 158.52 159.424 160.298 161.05 161.764 157.978 158.5 158.753 
159.094 159.271 159.597 159.742 159.863 160.077 160.315 160.405 160.555 
160.634 160.769 160.963 160.96 161.225 161.311 161.359 161.526 161.748 
161.4 161.789 162.026 162.135 162.26 162.385 162.482 161.841 162.328 
162.717 162.951 163.095 163.118 163.03 163.015 162.281 162.833 163.315 
163.634 163.81 163.822 163.654 163.508 163.532 162.463 163.057 163.07 
163.636 163.475 163.632 164.116 164.012 164.231 164.088 164.921 164.835 
164.941 164.766 164.362 165.689 165.369 165.83 165.571 164.994 164.407 
165.852 165.422 166.241 166.207 165.586 164.84 164.237 165.874 165.458 
166.316 166.473 166.015 165.265 164.654 164.087 166.088 165.555 166.613 
166.849 166.46 165.713 165.164 164.716 164.116 166.148 165.504 166.809 
167.193 166.92 166.127 165.504 165.203 164.773 164.149 161.655 162.323 
161.445 162.07 161.101 162.861 161.675 160.69 162.572 163.276 161.237 
160.371 162.162 163.04 163.907 160.92 160.168 161.759 162.686 163.667 
164.628 160.684 159.95 161.496 162.368 163.291 164.216 164.959 160.417 
159.707 161.254 162.129 162.968 163.768 164.487 165.021 160.157 159.525 
160.944 161.804 162.627 163.374 164.046 164.603 165.064 159.945 159.395 
160.626 161.399 162.161 162.882 163.555 164.122 164.579 165.015 155.139 
155.539 155.497 155.92 155.858 156.006 156.327 156.415 156.397 156.629 
157.011 157.131 156.872 157 157.341 157.786 157.675 157.601 157.48 
157.695 158.099 158.307 158.034 158.329 158.153 158.185 158.54 159.005 
158.666 158.451 158.853 158.862 158.847 159.087 159.537 159.976 159.07 
158.94 159.271 159.459 159.564 159.74 160.109 160.536 160.858 154.619 
154.935 154.344 154.663 154.126 155.294 154.398 154.005 155.046 155.767 
154.188 153.948 154.789 155.645 156.431 154.217 154.033 154.691 155.532 
156.333 157.008 154.474 154.145 154.881 155.578 156.269 156.788 157.381 
154.596 154.085 155.071 155.685 156.309 156.74 157.207 157.842 154.509 
153.979 155.038 155.656 156.301 156.78 157.218 157.814 158.438 154.481 