# vtk DataFile Version 4.0
vtk output
ASCII
DATASET POLYDATA
POINTS 1002 float
-117.812 -105.739 50.6402 -117.634 -105.617 50.0085 -118.33 -105.682 50.131 
-118.578 -105.825 50.7946 -119.095 -105.742 50.2731 -117.983 -105.933 51.2881 
-119.346 -105.986 50.9344 -119.769 -106.02 50.3372 -118.745 -106.036 51.5241 
-118.133 -106.243 52.0088 -119.975 -106.29 51.0706 -120.359 -106.448 50.3721 
-119.468 -106.225 51.7845 -118.871 -106.343 52.3516 -118.342 -106.486 52.8842 
-120.606 -106.513 51.3562 -121.102 -106.638 50.6421 -120.117 -106.477 52.0605 
-119.594 -106.58 52.6592 -119.104 -106.634 53.2182 -118.588 -106.692 53.7503 
-121.415 -106.617 51.7798 -121.965 -106.583 51.1554 -120.824 -106.732 52.312 
-120.281 -106.974 52.7769 -119.818 -107.008 53.3873 -119.32 -106.944 54.0219 
-118.677 -107.146 54.4234 -122.241 -106.93 51.9938 -122.687 -106.662 51.5041 
-121.587 -107.156 52.4034 -120.921 -107.464 52.7225 -120.404 -107.536 53.333 
-119.911 -107.358 54.1678 -119.267 -107.449 54.7132 -118.555 -107.792 54.9772 
-122.932 -107.429 51.8929 -123.251 -106.923 51.5726 -122.324 -107.709 52.3152 
-121.55 -107.89 52.7333 -120.901 -107.942 53.3615 -120.388 -107.776 54.2688 
-119.774 -107.797 54.9459 -119.042 -108.117 55.2415 -118.408 -108.327 55.5367 
-123.487 -107.712 51.8802 -123.713 -107.069 51.7197 -123.015 -108.036 52.3108 
-122.285 -108.063 52.9411 -121.52 -108.036 53.6983 -120.911 -108.002 54.5486 
-120.333 -108.096 55.19 -119.617 -108.422 55.4859 -118.909 -108.667 55.7551 
-118.391 -108.629 56.1926 -123.838 -107.592 52.2491 -124.017 -106.94 52.1567 
-123.53 -107.987 52.6334 -123.013 -108.026 53.316 -122.309 -107.981 54.1412 
-121.597 -108.076 54.9347 -120.984 -108.295 55.4944 -120.316 -108.614 55.7856 
-119.56 -108.871 56.074 -118.93 -108.877 56.5208 -118.494 -108.728 57.002 
-117.883 -105.45 49.4726 -118.61 -105.448 49.6212 -118.192 -105.097 48.9856 
-118.973 -105.107 49.1389 -118.586 -104.777 48.4709 -119.379 -105.507 49.8208 
-119.435 -104.942 48.5736 -118.964 -104.546 47.9726 -119.763 -105.249 49.3889 
-120.062 -105.914 49.8609 -119.83 -104.782 48.1041 -119.225 -103.986 47.8551 
-120.247 -105.148 48.8348 -120.53 -105.727 49.3997 -120.799 -106.451 49.7781 
-120.129 -104.139 48.0646 -119.523 -103.118 48.0641 -120.654 -104.883 48.4093 
-121.094 -105.49 48.9144 -121.448 -106.224 49.2816 -121.707 -106.586 50.0277 
-120.501 -103.324 48.168 -119.982 -102.519 48.0504 -120.996 -104.229 48.3401 
-121.519 -105.049 48.6917 -122.071 -105.842 48.9923 -122.377 -106.301 49.5965 
-122.508 -106.376 50.6435 -120.867 -102.823 48.0959 -120.389 -102.209 47.8172 
-121.361 -103.594 48.3655 -121.843 -104.431 48.7516 -122.48 -105.335 48.9865 
-122.973 -105.966 49.3484 -123.053 -106.086 50.2319 -123.082 -106.277 51.1255 
-121.049 -102.417 48.0858 -120.579 -101.813 47.7665 -121.642 -103.117 48.4037 
-122.178 -103.83 48.8332 -122.787 -104.655 49.0833 -123.447 -105.485 49.201 
-123.684 -105.854 49.8056 -123.568 -105.935 50.7668 -123.577 -106.351 51.4162 
-121.152 -101.878 48.2507 -120.683 -101.306 47.9382 -121.818 -102.574 48.5404 
-122.467 -103.255 48.893 -123.057 -103.919 49.1524 -123.745 -104.711 49.196 
-124.221 -105.397 49.4996 -124.179 -105.681 50.3738 -123.994 -105.887 51.2957 
-123.985 -106.362 51.8292 -121.191 -101.126 48.3359 -121.86 -101.745 48.6146 
-122.035 -101.006 48.6132 -122.717 -101.678 48.8596 -122.833 -101.008 48.9219 
-122.591 -102.503 48.8932 -123.251 -101.782 49.2514 -123.162 -101.19 49.6051 
-123.253 -102.507 49.1719 -123.199 -103.201 49.1805 -123.42 -102.031 50.1334 
-123.21 -101.559 50.6103 -123.591 -102.649 49.8022 -123.732 -103.216 49.5985 
-123.823 -103.868 49.3686 -123.612 -102.344 51.1963 -123.313 -102.02 51.5595 
-123.896 -102.799 50.8508 -124.071 -103.304 50.5344 -124.286 -103.852 50.0921 
-124.432 -104.634 49.6221 -123.881 -102.656 52.1085 -123.502 -102.387 52.4192 
-124.337 -102.915 51.8084 -124.512 -103.344 51.5445 -124.511 -103.877 51.2462 
-124.623 -104.543 50.7501 -124.59 -105.239 50.3595 -124.16 -102.874 53.0309 
-123.767 -102.576 53.3026 -124.739 -103.053 52.7095 -125.12 -103.37 52.3341 
-125.011 -103.892 52.1195 -124.751 -104.496 51.963 -124.621 -105.094 51.6601 
-124.398 -105.561 51.3912 -124.421 -103 53.9314 -124.017 -102.682 54.1082 
-124.993 -103.214 53.693 -125.604 -103.463 53.2647 -125.816 -103.929 52.8608 
-125.464 -104.508 52.7515 -124.953 -105.022 52.7183 -124.586 -105.459 52.4957 
-124.288 -105.891 52.1473 -124.514 -103.118 54.6202 -124.101 -102.798 54.763 
-125.006 -103.394 54.4639 -125.644 -103.634 54.1811 -126.218 -104.022 53.7746 
-126.28 -104.583 53.485 -125.744 -105.071 53.3971 -125.048 -105.408 53.2903 
-124.546 -105.787 52.997 -124.243 -106.334 52.5642 -124.04 -106.981 52.847 
-124.255 -106.29 53.2685 -123.897 -106.863 53.7528 -124.716 -105.781 53.6183 
-124.16 -106.227 54.0287 -123.779 -106.845 54.7289 -125.482 -105.543 53.8728 
-124.764 -105.894 54.2697 -124.103 -106.334 54.9075 -123.77 -107.025 55.7733 
-126.198 -105.251 54.1087 -125.488 -105.781 54.6246 -124.64 -106.124 55.1912 
-124.054 -106.605 56.0161 -123.692 -107.319 56.9508 -126.313 -104.686 54.3618 
-125.803 -105.405 54.9965 -125.041 -105.934 55.6287 -124.391 -106.341 56.3582 
-123.866 -106.965 57.2684 -123.545 -107.688 58.1981 -125.798 -104.141 54.6133 
-125.511 -104.768 55.1553 -125.031 -105.408 55.8892 -124.579 -105.936 56.6853 
-124.089 -106.522 57.5597 -123.684 -107.284 58.5334 -123.512 -107.936 59.3798 
-125.15 -103.813 54.836 -124.985 -104.288 55.2216 -124.735 -104.803 55.9074 
-124.513 -105.355 56.8094 -124.197 -105.933 57.7437 -123.843 -106.617 58.7498 
-123.627 -107.328 59.6798 -123.433 -107.848 60.3061 -124.664 -103.507 55.0489 
-124.579 -103.932 55.4416 -124.442 -104.345 56.0526 -124.31 -104.822 56.9168 
-124.072 -105.38 57.8365 -123.812 -105.951 58.8149 -123.647 -106.548 59.7843 
-123.445 -107.119 60.4804 -123.062 -107.576 60.8825 -124.263 -103.134 55.2678 
-124.271 -103.509 55.7839 -124.223 -103.885 56.4204 -124.133 -104.319 57.1977 
-123.877 -104.881 57.9763 -123.59 -105.449 58.7902 -123.471 -105.937 59.6964 
-123.339 -106.419 60.453 -122.989 -106.911 60.917 -122.509 -107.372 61.2542 
-123.819 -107.551 53.1459 -123.701 -107.452 54.2817 -123.552 -107.865 53.7346 
-123.631 -107.574 55.3975 -123.514 -107.943 54.9182 -123.091 -107.989 54.4923 
-123.562 -107.781 56.545 -123.395 -108.241 56.0026 -123.037 -108.358 55.5299 
-122.381 -108.198 55.2383 -123.438 -107.98 57.8204 -123.224 -108.356 57.2292 
-122.831 -108.699 56.562 -122.296 -108.718 56.0962 -121.65 -108.505 55.8054 
-123.378 -108.236 59.0807 -123.113 -108.414 58.583 -122.643 -108.676 57.9015 
-122.099 -108.876 57.2057 -121.558 -108.861 56.6497 -120.954 -108.756 56.19 
-123.276 -108.317 60.1176 -122.955 -108.554 59.7613 -122.437 -108.69 59.2499 
-121.855 -108.763 58.6351 -121.312 -108.745 57.9914 -120.757 -108.787 57.3202 
-120.149 -108.896 56.6378 -122.891 -108.128 60.8419 -122.557 -108.543 60.6594 
-122.055 -108.788 60.324 -121.512 -108.842 59.8757 -120.989 -108.698 59.3881 
-120.449 -108.582 58.8338 -119.912 -108.7 58.0865 -119.4 -108.881 57.2274 
-122.337 -107.907 61.3637 -122.053 -108.405 61.38 -121.634 -108.78 61.2271 
-121.183 -108.981 60.8825 -120.734 -108.964 60.4334 -120.217 -108.775 59.9985 
-119.705 -108.631 59.4754 -119.282 -108.671 58.6787 -118.886 -108.762 57.7509 
-121.912 -107.599 61.8022 -121.743 -108.164 62.0416 -121.564 -107.866 62.6188 
-121.435 -108.464 62.9144 -121.308 -108.034 63.4062 -121.454 -108.663 62.1229 
-121.05 -108.613 63.5706 -120.648 -108.015 63.7838 -121.108 -108.934 62.9102 
-121.063 -109.009 61.9246 -120.119 -108.537 63.7667 -119.594 -107.868 63.8446 
-120.485 -109.073 63.3517 -120.613 -109.281 62.5235 -120.631 -109.221 61.4363 
-118.947 -108.36 63.7392 -118.541 -107.699 63.8283 -119.363 -109.032 63.3901 
-119.733 -109.5 62.7679 -119.977 -109.575 61.8228 -120.085 -109.249 60.8489 
-117.936 -108.192 63.6576 -117.589 -107.551 63.6855 -118.302 -108.845 63.3156 
-118.628 -109.458 62.7435 -118.965 -109.736 61.9955 -119.286 -109.537 61.1125 
-119.505 -109.014 60.3375 -117.073 -108.039 63.4639 -116.81 -107.408 63.371 
-117.464 -108.593 63.276 -117.841 -109.143 62.709 -118.092 -109.45 62.0587 
-118.399 -109.394 61.3076 -118.791 -109.084 60.4913 -119.083 -108.744 59.691 
-116.368 -107.889 63.1329 -116.281 -107.243 62.9666 -116.607 -108.383 63.1761 
-117.08 -108.826 62.7221 -117.49 -109.06 62.0441 -117.711 -108.996 61.3846 
-118.024 -108.871 60.5536 -118.439 -108.751 59.6534 -118.727 -108.675 58.7571 
-115.844 -107.714 62.6999 -115.867 -107.05 62.5433 -115.824 -108.225 62.8766 
-116.119 -108.637 62.6146 -116.69 -108.87 61.9205 -117.09 -108.813 61.2196 
-117.28 -108.738 60.454 -117.598 -108.78 59.5114 -118.021 -108.747 58.6318 
-118.321 -108.684 57.8281 -122.252 -106.963 61.3652 -121.709 -107.19 61.9965 
-122.015 -106.55 61.4705 -121.503 -106.698 62.1404 -121.772 -106.097 61.5632 
-121.391 -107.363 62.82 -121.249 -106.16 62.1961 -121.452 -105.641 61.5319 
-121.068 -106.771 62.819 -120.937 -107.419 63.4246 -120.944 -105.646 62.0884 
-121.105 -105.203 61.3148 -120.691 -106.182 62.7115 -120.384 -106.792 63.2082 
-120.064 -107.362 63.6349 -120.625 -105.131 61.7846 -120.845 -104.636 61.0806 
-120.362 -105.596 62.533 -119.942 -106.149 63.0446 -119.506 -106.688 63.4157 
-119.068 -107.185 63.7258 -120.302 -104.515 61.4487 -120.621 -103.912 60.982 
-120.004 -105.023 62.1436 -119.615 -105.491 62.8268 -119.136 -105.938 63.2936 
-118.635 -106.373 63.6176 -118.092 -106.935 63.7594 -119.964 -103.851 61.2231 
-120.279 -103.298 60.8558 -119.6 -104.464 61.6675 -119.213 -104.98 62.269 
-118.781 -105.355 62.8841 -118.259 -105.621 63.4122 -117.663 -106.029 63.6938 
-117.154 -106.713 63.6034 -119.575 -103.309 60.9778 -119.796 -102.942 60.5267 
-119.225 -103.891 61.3207 -118.794 -104.512 61.6749 -118.369 -105.002 62.1233 
-117.891 -105.268 62.7307 -117.29 -105.421 63.3555 -116.763 -105.823 63.5539 
-116.475 -106.537 63.2767 -119.13 -102.913 60.6111 -119.299 -102.708 60.0904 
-118.845 -103.348 61.0144 -118.422 -103.923 61.3141 -117.974 -104.494 61.5667 
[...]
CELL_DATA 2000
SCALARS Distance double
LOOKUP_TABLE default
165.135 165.749 165.481 165.57 166.413 166.135 166.241 165.944 166.051 
167.1 166.818 166.937 166.638 166.746 166.457 166.599 167.804 167.506 
167.625 167.338 167.472 167.179 167.328 167.037 167.191 168.552 168.233 
168.356 168.046 168.212 167.925 168.104 167.8 167.956 167.638 167.774 
169.307 169.021 169.178 168.831 168.988 168.679 168.854 168.567 168.706 
168.399 168.503 168.196 168.299 169.988 169.79 170.004 169.678 169.79 
169.447 169.549 169.266 169.367 169.096 169.174 168.889 168.961 168.678 
168.753 170.531 170.436 170.687 170.452 170.538 170.202 170.222 169.913 
169.975 169.713 169.806 169.538 169.624 169.332 169.402 169.106 169.167 
170.874 170.879 171.119 171.021 171.12 170.871 170.88 170.567 170.616 
170.333 170.452 170.186 170.309 170.014 170.093 169.773 169.823 169.513 
169.567 164.973 164.859 165.13 165.559 164.752 165.013 165.465 165.74 
166.208 164.741 164.976 165.446 165.675 166.176 166.434 166.921 164.684 
165.005 165.523 165.73 166.238 166.456 166.995 167.202 167.68 164.461 
164.888 165.473 165.787 166.318 166.561 167.119 167.334 167.858 167.997 
168.44 164.288 164.661 165.275 165.661 166.247 166.589 167.188 167.474 
168.018 168.187 168.607 168.722 169.12 164.263 164.555 165.143 165.489 
166.101 166.473 167.124 167.496 168.102 168.338 168.746 168.847 169.162 
169.321 169.706 164.195 164.505 165.054 165.4 165.998 166.352 166.987 
167.387 168.038 168.381 168.859 168.989 169.265 169.338 169.638 169.847 
170.223 164.022 164.354 164.888 165.277 165.873 166.248 166.83 167.215 
167.813 168.236 168.778 169.059 169.391 169.468 169.697 169.794 170.089 
170.309 170.611 164.086 164.603 164.53 164.999 165.26 165.141 165.609 
165.541 166.026 165.862 165.778 166.21 166.16 166.62 166.554 166.983 
166.413 166.333 166.753 166.714 167.158 167.114 167.551 167.486 167.931 
167.031 166.916 167.359 167.276 167.734 167.655 168.099 168.039 168.502 
168.459 168.883 167.677 167.57 168.027 167.931 168.389 168.275 168.684 
168.587 168.996 168.971 169.356 169.311 169.538 168.288 168.208 168.675 
168.6 169.07 168.955 169.349 169.193 169.528 169.428 169.745 169.697 
169.915 169.801 169.883 168.834 168.794 169.262 169.223 169.719 169.641 
170.096 169.92 170.278 170.041 170.318 170.121 170.332 170.174 170.306 
170.13 170.239 169.234 169.264 169.686 169.724 170.176 170.21 170.681 
170.645 171.059 170.867 171.136 170.824 170.961 170.667 170.753 170.551 
170.655 170.52 170.672 170.917 170.844 170.953 171.102 170.966 170.953 
171.058 171.097 171.25 171.315 171.234 171.366 171.203 171.304 171.312 
171.568 171.606 171.647 171.857 171.658 171.712 171.521 171.682 171.722 
172.046 171.489 171.767 171.975 172.025 172.044 171.931 171.966 171.909 
172.121 172.22 172.561 171.006 171.4 171.524 171.821 171.819 171.993 
171.987 172.074 172.177 172.281 172.546 172.728 173.08 170.456 170.815 
170.897 171.212 171.226 171.536 171.593 171.87 171.98 172.199 172.392 
172.634 172.929 173.192 173.451 169.966 170.284 170.393 170.647 170.714 
170.978 171.108 171.412 171.582 171.872 172.049 172.35 172.575 172.911 
173.117 173.393 173.45 169.509 169.819 169.964 170.221 170.339 170.578 
170.741 171.006 171.191 171.463 171.627 171.924 172.104 172.455 172.627 
172.952 173.002 173.224 173.146 171.048 171.245 171.228 171.294 171.42 
171.41 171.534 171.434 171.358 171.763 171.676 171.861 171.727 171.716 
171.447 171.217 172.229 172.1 172.287 172.135 172.171 171.886 171.704 
171.305 171.016 172.73 172.571 172.706 172.551 172.571 172.343 172.193 
171.839 171.572 171.148 170.867 173.266 173.082 173.173 172.956 172.922 
172.691 172.532 172.262 172.006 171.67 171.373 170.994 170.702 173.622 
173.549 173.589 173.397 173.289 173.031 172.815 172.545 172.258 171.989 
171.668 171.388 171.065 170.757 170.443 173.569 173.684 173.662 173.641 
173.476 173.317 173.052 172.808 172.487 172.206 171.862 171.594 171.269 
171.019 170.713 170.445 170.144 173.25 173.447 173.44 173.54 173.427 
173.384 173.181 173.008 172.751 172.474 172.173 171.843 171.54 171.235 
170.965 170.693 170.43 170.151 169.883 173.093 173.13 173.17 173.32 
173.366 173.33 173.41 173.36 173.366 173.346 173.516 173.596 173.527 
173.436 173.326 173.183 172.763 173.22 173.349 173.556 173.468 173.417 
173.192 173.067 172.807 171.908 172.438 172.572 173.026 173.018 173.252 
173.058 173.047 172.721 172.605 172.248 171.087 171.573 171.695 172.165 
172.201 172.599 172.488 172.712 172.42 172.44 172.038 171.963 171.586 
170.322 170.778 170.918 171.349 171.411 171.794 171.721 172.017 171.78 
171.959 171.604 171.664 171.284 171.282 170.966 169.637 170.046 170.181 
170.596 170.672 171.056 171.011 171.293 171.074 171.264 170.947 171.108 
170.787 170.903 170.601 170.667 170.404 169.036 169.4 169.492 169.865 
169.902 170.295 170.264 170.596 170.415 170.61 170.305 170.451 170.16 
170.335 170.085 170.235 169.985 170.088 169.847 172.879 172.511 172.742 
172.916 172.112 172.373 172.555 172.867 173.117 171.638 171.939 172.063 
172.418 172.589 172.976 173.056 171.079 171.414 171.488 171.836 171.887 
172.285 172.273 172.657 172.49 170.461 170.811 170.864 171.206 171.191 
171.524 171.439 171.789 171.63 171.947 171.69 169.803 170.148 170.157 
170.523 170.487 170.813 170.691 170.984 170.798 171.094 170.861 171.141 
170.873 169.129 169.453 169.407 169.767 169.706 170.061 169.935 170.239 
170.023 170.29 170.018 170.295 170.024 170.322 170.08 168.452 168.759 
168.688 169.012 168.928 169.262 169.141 169.459 169.268 169.528 169.255 
169.479 169.195 169.462 169.244 169.563 169.396 167.78 168.074 167.991 
168.298 168.193 168.499 168.36 168.668 168.5 168.782 168.561 168.774 
168.508 168.705 168.481 168.753 168.611 168.935 168.813 169.316 169.181 
169.431 169.769 169.072 169.307 169.672 169.884 170.197 168.972 169.212 
169.594 169.818 170.18 170.347 170.652 168.802 169.078 169.444 169.719 
170.088 170.325 170.653 170.812 171.086 168.592 168.871 169.22 169.517 
169.874 170.171 170.506 170.751 171.04 171.216 171.485 168.423 168.682 
169.043 169.302 169.66 169.935 170.289 170.563 170.902 171.134 171.459 
171.634 171.957 168.257 168.534 168.917 169.168 169.527 169.761 170.111 
170.363 170.729 170.994 171.365 171.598 171.944 172.128 172.447 168.036 
168.344 168.725 169.021 169.38 169.636 169.968 170.209 170.554 170.822 
171.185 171.463 171.787 172.036 172.298 172.525 172.755 167.793 168.098 
168.464 168.783 169.14 169.441 169.78 170.051 170.387 170.649 170.992 
171.26 171.571 171.821 172.061 172.29 172.479 172.717 172.886 168.943 
168.298 168.689 168.811 167.617 168.024 168.158 168.554 168.688 166.912 
167.326 167.446 167.87 168.018 168.44 168.583 166.179 166.607 166.721 
167.145 167.289 167.738 167.902 168.325 168.437 165.414 165.866 166.007 
166.433 166.581 167.013 167.181 167.621 167.759 168.153 168.238 164.632 
165.097 165.259 165.716 165.875 166.313 166.467 166.902 167.04 167.457 
167.561 167.948 168.043 163.875 164.324 164.475 164.945 165.094 165.566 
165.706 166.168 166.301 166.737 166.852 167.259 167.36 167.757 167.86 
163.174 163.584 163.716 164.159 164.291 164.756 164.897 165.375 165.534 
165.998 166.154 166.571 166.693 167.075 167.172 167.56 167.649 162.547 
162.902 163.014 163.418 163.549 163.98 164.135 164.587 164.778 165.248 
165.457 165.899 166.065 166.442 166.542 166.89 166.965 167.337 167.419 
162.262 161.984 162.296 162.693 161.81 162.054 162.454 162.782 163.234 
161.713 161.926 162.309 162.595 163.063 163.375 163.846 161.551 161.809 
162.174 162.462 162.915 163.231 163.722 164.024 164.505 161.418 161.659 
162.074 162.331 162.776 163.072 163.564 163.898 164.415 164.72 165.202 
161.503 161.655 162.141 162.32 162.79 162.988 163.467 163.747 164.277 
164.611 165.123 165.409 165.83 161.701 161.819 162.263 162.434 162.887 
163.064 163.526 163.731 164.233 164.5 165.002 165.291 165.714 165.966 
166.301 161.851 161.97 162.312 162.487 162.866 163.095 163.539 163.793 
164.281 164.517 164.978 165.196 165.593 165.821 166.164 166.392 166.708 
161.98 162.084 162.411 162.52 162.867 163.037 163.463 163.736 164.237 
164.529 164.985 165.199 165.561 165.737 166.071 166.27 166.614 166.823 
167.163 162.18 162.759 162.535 162.663 163.419 163.199 163.337 163.025 
163.12 164.048 163.865 164.052 163.745 163.82 163.507 163.679 164.715 
164.488 164.656 164.402 164.479 164.203 164.348 164.138 164.423 165.436 
165.163 165.25 164.97 165.01 164.771 164.893 164.745 164.998 164.885 
165.156 166.099 165.84 165.928 165.611 165.662 165.341 165.459 165.249 
165.492 165.389 165.658 165.537 165.728 166.783 166.492 166.648 166.343 
166.502 166.138 166.314 165.956 166.204 165.95 166.246 166.057 166.298 
166.09 166.256 167.582 167.238 167.4 167.1 167.322 167.029 167.276 
166.925 167.17 166.807 167.077 166.77 167.037 166.753 166.955 166.667 
166.826 168.376 168.048 168.161 167.857 168.034 167.799 168.049 167.819 
168.065 167.766 167.981 167.655 167.867 167.556 167.743 167.427 167.57 
167.257 167.384 161.949 161.691 162.025 162.48 161.455 161.753 162.18 
162.572 163.073 161.39 161.588 161.974 162.268 162.737 163.149 163.679 
161.503 161.636 162.067 162.207 162.661 162.898 163.467 163.837 164.433 
161.717 161.822 162.341 162.453 162.972 163.039 163.599 163.791 164.444 
164.716 165.271 162.026 162.08 162.613 162.77 163.365 163.455 164.002 
164.079 164.663 164.835 165.398 165.562 165.986 162.395 162.411 162.889 
163.038 163.628 163.798 164.355 164.47 165 165.115 165.644 165.754 
166.22 166.288 166.692 162.739 162.766 163.204 163.312 163.848 164.016 
164.566 164.735 165.28 165.43 165.974 166.072 166.579 166.617 167.084 
167.091 167.525 163.033 163.084 163.519 163.613 164.114 164.241 164.763 
164.919 165.466 165.657 166.224 166.391 166.914 167.004 167.471 167.513 
167.947 167.953 168.337 161.626 161.161 161.376 161.365 160.729 160.931 
160.89 161.109 161.137 160.176 160.459 160.425 160.654 160.661 160.925 
161.045 159.502 159.841 159.85 160.151 160.191 160.472 160.592 160.902 
161.114 158.909 159.213 159.297 159.595 159.712 160.006 160.198 160.503 
160.754 161.055 161.339 158.436 158.716 158.912 159.188 159.386 159.611 
159.842 160.135 160.468 160.782 161.124 161.38 161.704 158.067 158.286 
158.542 158.887 159.198 159.42 159.636 159.833 160.13 160.472 160.873 
161.211 161.56 161.797 162.102 158.031 158.032 158.24 158.532 158.932 
159.253 159.554 159.715 159.933 160.151 160.501 160.88 161.274 161.616 
161.915 162.165 162.431 158.431 158.216 158.351 158.375 158.731 158.997 
159.407 159.643 159.926 160.056 160.33 160.556 160.928 161.266 161.613 
161.92 162.184 162.446 162.704 158.79 159.366 158.93 158.706 159.913 
159.535 159.318 158.925 158.927 160.43 160.093 159.942 159.546 159.508 
159.283 159.497 161.063 160.692 160.62 160.207 160.185 159.883 160.042 
159.882 160.076 161.779 161.402 161.367 160.955 160.952 160.595 160.717 
160.466 160.629 160.399 160.523 162.461 162.107 162.075 161.711 161.713 
161.366 161.444 161.153 161.272 161 161.109 160.862 161.041 163.137 
162.773 162.736 162.391 162.4 162.085 162.141 161.847 161.923 161.64 
161.723 161.465 161.601 161.424 161.657 163.831 163.462 163.424 163.062 
163.076 162.758 162.824 162.522 162.59 162.285 162.354 162.075 162.188 
161.971 162.15 162.013 162.233 164.489 164.148 164.119 163.764 163.782 
163.455 163.534 163.22 163.304 162.975 163.052 162.736 162.849 162.58 
162.742 162.529 162.724 162.566 162.774 164.827 165.247 164.85 164.483 
165.749 165.318 164.978 164.539 164.193 166.316 165.872 165.564 165.1 
164.771 164.302 163.969 166.885 166.448 166.134 165.694 165.36 164.901 
164.544 164.082 163.729 167.458 167.016 166.681 166.237 165.891 165.455 
165.1 164.649 164.283 163.825 163.477 168.021 167.601 167.293 166.814 
166.477 165.998 165.673 165.212 164.892 164.415 164.083 163.602 163.291 
168.504 168.151 167.899 167.46 167.154 166.65 166.329 165.831 165.534 
165.056 164.756 164.261 163.947 163.458 163.179 168.919 168.609 168.393 
168.036 167.772 167.329 167.002 166.507 166.169 165.694 165.385 164.925 
164.621 164.139 163.841 163.371 163.13 169.327 169.025 168.825 168.503 
168.272 167.898 167.597 167.144 166.79 166.31 165.98 165.53 165.249 
164.8 164.531 164.055 163.802 163.347 163.15 163.322 163.995 163.712 
163.859 164.721 164.439 164.611 164.314 164.476 165.422 165.163 165.362 
165.092 165.277 164.958 165.117 166.141 165.864 166.086 165.842 166.077 
165.782 165.976 165.631 165.823 166.942 166.623 166.843 166.582 166.849 
166.587 166.827 166.51 166.726 166.384 166.594 167.742 167.441 167.641 
167.362 167.616 167.365 167.62 167.344 167.559 167.257 167.455 167.133 
167.288 168.423 168.193 168.384 168.133 168.358 168.121 168.383 168.133 
168.363 168.066 168.247 167.938 168.093 167.764 167.858 168.994 168.823 
169.034 168.825 169.037 168.822 169.081 168.879 169.161 168.895 169.105 
168.755 168.903 168.55 168.666 168.303 168.351 169.505 169.372 169.611 
169.446 169.668 169.47 169.711 169.538 169.84 169.665 169.934 169.64 
169.789 169.401 169.483 169.101 169.148 168.761 168.742 163.584 163.734 
163.456 163.028 163.743 163.524 163.067 162.85 162.372 163.683 163.43 
162.926 162.783 162.335 162.141 161.632 163.812 163.407 162.84 162.612 
162.198 162.064 161.637 161.398 160.83 164.079 163.633 163.038 162.65 
162.205 161.981 161.586 161.376 160.825 160.517 159.839 164.232 163.891 
163.342 162.935 162.443 162.101 161.648 161.357 160.813 160.492 159.874 
159.529 159.007 164.314 164.028 163.562 163.216 162.747 162.379 161.904 
161.514 160.997 160.587 160.111 159.719 159.392 159.024 158.871 164.45 
164.166 163.752 163.434 163.01 162.668 162.241 161.843 161.396 160.94 
160.564 160.145 159.947 159.585 159.496 159.149 159.081 164.576 164.324 
163.92 163.632 163.219 162.915 162.521 162.188 161.8 161.405 161.045 
160.66 160.416 160.121 159.956 159.693 159.481 159.216 158.962 163.364 
162.796 163.004 162.881 162.13 162.377 162.195 162.492 162.424 161.357 
161.624 161.412 161.737 161.644 162.035 162.069 160.509 160.803 160.563 
160.905 160.829 161.243 161.321 161.756 161.916 159.51 159.868 159.621 
160.023 159.956 160.42 160.535 161.021 161.216 161.676 161.885 158.703 
158.897 158.705 159.071 159.058 159.54 159.693 160.224 160.457 160.963 
161.186 161.648 161.848 158.592 158.442 158.336 158.405 158.493 158.779 
159.006 159.438 159.741 160.23 160.535 160.985 161.236 161.638 161.858 
158.834 158.624 158.556 158.419 158.537 158.541 158.756 158.935 159.215 
159.589 159.938 160.395 160.729 161.12 161.383 161.719 161.949 158.762 
158.769 158.692 158.691 158.769 158.752 158.854 158.854 158.954 159.136 
159.372 159.8 160.155 160.628 160.936 161.3 161.524 161.836 162.038 
163.666 163.234 163.659 164.153 162.854 163.275 163.803 164.256 164.825 
162.528 162.924 163.479 163.937 164.52 164.956 165.474 162.365 162.664 
163.198 163.617 164.217 164.662 165.201 165.578 166.046 162.349 162.59 
163.097 163.406 163.988 164.379 164.959 165.336 165.84 166.174 166.656 
162.315 162.579 163.092 163.37 163.918 164.227 164.799 165.14 165.683 
166.007 166.501 166.817 167.299 162.274 162.521 163.023 163.33 163.862 
164.173 164.708 165.025 165.561 165.878 166.381 166.68 167.145 167.449 
167.907 162.317 162.503 162.964 163.237 163.749 164.067 164.584 164.914 
165.426 165.756 166.246 166.555 167.004 167.296 167.722 168.029 168.45 
162.392 162.558 162.986 163.206 163.685 163.956 164.454 164.764 165.258 
165.589 166.057 166.385 166.811 167.121 167.513 167.822 168.199 168.52 
168.874 161.67 161.554 161.477 161.217 161.333 161.305 161.031 161.02 
160.762 161.074 161.022 160.715 160.752 160.495 160.515 160.199 161.048 
160.855 160.565 160.477 160.243 160.223 159.933 159.889 159.526 161.267 
161.004 160.747 160.502 160.245 160.074 159.787 159.665 159.315 159.221 
158.893 161.433 161.245 160.957 160.723 160.34 160.108 159.71 159.559 
159.213 159.091 158.766 158.663 158.398 161.512 161.347 161.037 160.835 
160.367 160.106 159.585 159.42 159.083 159.027 158.827 158.689 158.47 
158.283 158.102 161.688 161.459 161.191 160.934 160.532 160.167 159.658 
159.336 159.015 158.927 158.878 158.835 158.793 158.567 158.445 158.168 
158.132 161.961 161.699 161.462 161.184 160.881 160.486 160.069 159.606 
159.264 158.995 158.921 158.893 158.927 158.871 158.815 158.616 158.572 
158.365 158.479 
POINT_DATA 1002
SCALARS Distance double
LOOKUP_TABLE default
165.208 164.812 165.385 165.853 166.01 165.65 166.544 166.687 166.328 
166.177 167.226 167.389 167.042 166.869 166.753 167.903 168.121 167.748 
167.627 167.49 167.331 168.676 168.86 168.49 168.4 168.285 168.094 
167.898 169.529 169.533 169.329 169.147 169.016 168.819 168.598 168.402 
170.307 170.123 170.176 169.867 169.634 169.453 169.25 169.035 168.823 
170.879 170.592 170.875 170.564 170.238 170.054 169.912 169.711 169.46 
169.219 171.168 170.863 171.311 171.176 170.903 170.709 170.594 170.421 
170.149 169.861 169.623 164.722 165.283 164.573 165.183 164.501 165.929 
165.244 164.481 165.913 166.687 165.291 164.281 166.034 166.768 167.53 
165.091 164.013 166.037 166.883 167.707 168.34 164.881 163.969 165.855 
166.849 167.832 168.517 168.967 164.815 164.005 165.732 166.715 167.809 
168.666 169.058 169.464 164.694 163.885 165.652 166.609 167.638 168.668 
169.245 169.495 169.955 164.485 163.698 165.485 166.483 167.399 168.404 
169.264 169.665 169.932 170.381 164.076 165.028 164.705 165.689 165.385 
166.111 166.261 165.94 166.681 167.069 166.798 166.501 167.202 167.592 
167.991 167.45 167.145 167.831 168.172 168.533 168.983 168.116 167.771 
168.515 168.824 169.058 169.399 169.687 168.738 168.356 169.171 169.527 
169.698 169.829 170.009 170.053 169.289 168.857 169.761 170.225 170.538 
170.598 170.529 170.462 170.405 169.647 169.198 170.123 170.645 171.172 
171.467 171.345 171.011 170.789 170.774 171.115 170.972 171.219 171.101 
171.102 171.431 171.59 171.409 171.404 171.87 172.007 171.976 171.753 
171.893 172.38 171.828 172.093 172.066 172.083 172.39 172.917 171.201 
171.544 171.821 172.077 172.373 172.879 173.446 170.6 170.892 171.244 
171.715 172.15 172.655 173.255 173.654 170.129 170.451 170.801 171.279 
171.754 172.246 172.826 173.273 173.424 169.682 170.083 170.484 170.939 
171.357 171.773 172.296 172.759 172.975 173.039 171.403 171.61 171.59 
171.99 171.984 171.576 172.441 172.432 172.099 171.439 172.896 172.783 
172.5 171.982 171.297 173.436 173.191 172.794 172.305 171.732 171.091 
173.768 173.567 173.112 172.54 171.931 171.344 170.762 173.631 173.59 
173.274 172.773 172.15 171.51 170.956 170.425 173.287 173.403 173.29 
172.98 172.5 171.871 171.243 170.7 170.168 172.953 173.27 173.167 
173.555 173.377 173.408 173.617 173.045 173.619 173.282 172.998 172.247 
173.434 173.354 172.942 172.07 171.41 172.649 172.972 172.849 172.374 
171.241 170.611 171.776 172.178 172.316 172.097 171.646 170.483 169.872 
171.03 171.428 171.559 171.465 171.25 170.957 169.785 169.257 170.276 
170.712 170.895 170.768 170.609 170.504 170.345 169.158 168.696 169.533 
169.899 170.183 170.168 169.978 169.893 169.859 169.753 172.645 172.628 
172.261 172.231 171.844 172.808 171.742 171.328 172.216 172.745 171.173 
170.738 171.551 171.894 172.18 170.524 170.123 170.895 171.129 171.295 
171.415 169.798 169.488 170.151 170.416 170.53 170.571 170.599 169.073 
168.827 169.352 169.617 169.772 169.769 169.715 169.758 168.379 168.15 
168.612 168.82 168.988 169.044 168.954 168.916 169.061 167.692 167.5 
167.902 168.066 168.196 168.317 168.326 168.244 168.283 168.489 169.067 
169.544 168.932 169.447 168.839 170.026 169.353 168.724 169.982 170.534 
169.158 168.525 169.823 170.46 170.965 168.932 168.319 169.571 170.231 
170.829 171.328 168.795 168.155 169.404 170.006 170.632 171.247 171.805 
168.653 167.965 169.305 169.875 170.453 171.105 171.744 172.286 168.415 
167.73 169.107 169.729 170.301 170.91 171.541 172.078 172.532 168.565 
168.436 167.894 167.744 167.213 168.295 167.022 166.5 167.573 168.188 
166.3 165.736 166.841 167.455 168.064 165.564 164.942 166.158 166.744 
167.345 167.869 164.787 164.166 165.428 166.039 166.619 167.158 167.656 
164.018 163.443 164.621 165.233 165.848 166.436 166.964 167.461 163.293 
162.788 163.839 164.415 165.044 165.712 166.316 166.802 167.254 162.627 