# vtk DataFile Version 4.0
vtk output
ASCII
DATASET POLYDATA
POINTS 1002 float
-118.143 -103.557 51.213 -118.363 -103.477 50.507 -117.759 -103.268 50.7207 
-117.549 -103.485 51.3951 -117.232 -103.087 50.9607 -117.994 -103.812 51.8223 
-117.017 -103.373 51.6484 -116.581 -102.979 51.2899 -117.427 -103.828 52.0379 
-117.897 -104.296 52.2764 -116.298 -103.324 51.9674 -115.766 -102.988 51.6829 
-116.793 -103.824 52.2872 -117.274 -104.347 52.5794 -117.715 -104.828 52.8221 
-115.445 -103.53 52.2043 -114.997 -103.193 51.9385 -115.924 -104.038 52.426 
-116.432 -104.534 52.778 -116.931 -104.937 53.1509 -117.424 -105.218 53.5709 
-114.626 -103.923 52.2943 -114.247 -103.55 52.0222 -115.031 -104.444 52.5014 
-115.455 -104.925 52.85 -115.949 -105.205 53.3478 -116.531 -105.355 53.8717 
-117.15 -105.515 54.3524 -113.723 -104.282 52.3833 -113.393 -103.888 52.1238 
-114.152 -104.689 52.7304 -114.565 -105.093 53.1569 -115.01 -105.37 53.6306 
-115.597 -105.51 54.1419 -116.284 -105.642 54.6549 -116.95 -105.891 55.0406 
-112.753 -104.571 52.5122 -112.515 -104.119 52.2698 -113.19 -104.835 53.0118 
-113.67 -105.01 53.6562 -114.143 -105.211 54.1727 -114.745 -105.498 54.5161 
-115.457 -105.784 54.9059 -116.137 -106.027 55.3228 -116.768 -106.29 55.6399 
-111.902 -104.779 52.6306 -111.735 -104.252 52.387 -112.318 -105.051 53.1518 
-112.837 -105.118 53.8962 -113.316 -105.178 54.5592 -113.883 -105.468 54.8931 
-114.634 -105.926 55.1238 -115.363 -106.241 55.5055 -115.97 -106.376 55.9263 
-116.562 -106.487 56.2995 -111.295 -104.847 52.8424 -111.179 -104.295 52.5734 
-111.667 -105.19 53.3039 -112.205 -105.333 53.9429 -112.7 -105.411 54.6175 
-113.144 -105.647 55.0734 -113.774 -106.1 55.3148 -114.572 -106.464 55.6551 
-115.264 -106.528 56.1735 -115.815 -106.471 56.6942 -116.359 -106.478 57.157 
-118.198 -103.177 50.0561 -117.608 -102.88 50.3053 -117.98 -102.683 49.7741 
-117.263 -102.544 49.904 -117.588 -102.265 49.3613 -116.93 -102.775 50.5367 
-116.628 -102.369 49.2929 -117.072 -101.919 48.7682 -116.304 -102.669 49.9922 
-116.054 -102.812 50.8318 -116.024 -101.947 48.8062 -116.636 -101.299 48.5477 
-115.578 -102.492 49.3682 -115.371 -102.777 50.1797 -115.233 -102.871 51.1759 
-115.716 -101.066 48.9109 -116.285 -100.44 48.8093 -115.248 -101.744 49.194 
-114.948 -102.383 49.7134 -114.778 -102.742 50.531 -114.582 -103.019 51.4439 
-115.433 -100.175 49.1109 -115.846 -99.6262 48.951 -115.176 -100.723 49.3835 
-114.885 -101.47 49.7902 -114.541 -102.22 50.2929 -114.241 -102.734 51.0024 
-113.879 -103.239 51.7012 -114.962 -99.4916 48.9137 -115.332 -98.888 48.7945 
-114.89 -99.9944 49.2748 -114.748 -100.602 49.8837 -114.341 -101.423 50.4341 
-113.947 -102.157 50.9483 -113.605 -102.726 51.5651 -113.1 -103.386 52.024 
-114.499 -98.8602 48.6877 -114.91 -98.2362 48.6625 -114.455 -99.4622 49.0364 
-114.433 -100.033 49.7539 -114.085 -100.733 50.4632 -113.667 -101.487 50.9926 
-113.384 -102.076 51.569 -112.956 -102.676 52.0595 -112.307 -103.467 52.2529 
-114.236 -98.2606 48.7734 -114.66 -97.7403 48.7344 -114.151 -98.8908 49.1332 
-114.165 -99.5224 49.8289 -113.898 -100.166 50.505 -113.469 -100.875 50.9583 
-113.174 -101.496 51.4641 -112.83 -102.016 52.0215 -112.23 -102.698 52.29 
-111.584 -103.549 52.3554 -114.258 -97.585 49.0528 -114.025 -98.1134 49.3757 
-114.055 -97.4196 49.7225 -113.856 -98.0077 50.2299 -113.779 -97.3641 50.4668 
-113.995 -98.8013 50.04 -113.358 -98.0195 50.8173 -113.19 -97.4654 51.1415 
-113.614 -98.7588 50.8377 -113.794 -99.5035 50.7065 -112.679 -98.1039 51.3332 
-112.598 -97.5942 52.0243 -112.914 -98.7954 51.1582 -113.156 -99.5053 51.1903 
-113.333 -100.225 51.0473 -112.328 -98.2556 52.299 -112.412 -97.8544 53.0381 
-112.358 -98.8858 51.7008 -112.416 -99.5459 51.4863 -112.617 -100.261 51.4018 
-112.914 -100.949 51.3706 -112.249 -98.6993 53.296 -112.498 -98.4794 53.7181 
-112.063 -99.1061 52.7152 -111.847 -99.599 52.1948 -111.798 -100.24 51.895 
-112.1 -100.967 51.8104 -112.524 -101.543 51.9071 -112.159 -99.3803 53.8805 
-112.55 -99.2085 54.1643 -111.75 -99.5398 53.5366 -111.397 -99.7423 53.0679 
-111.181 -100.185 52.6023 -111.263 -100.913 52.3143 -111.605 -101.625 52.2402 
-111.967 -102.173 52.2791 -112.057 -99.877 54.4429 -112.454 -99.6172 54.7997 
-111.535 -99.9949 54.1463 -111.131 -100.059 53.8274 -110.963 -100.341 53.4351 
-110.97 -100.968 53.0557 -111.079 -101.737 52.7577 -111.224 -102.42 52.5442 
-111.381 -103.008 52.4178 -111.925 -100.042 55.264 -112.235 -99.7141 55.6349 
-111.491 -100.268 54.9407 -111.147 -100.44 54.6831 -111.03 -100.785 54.4212 
-111.041 -101.366 54.1216 -111.072 -102.007 53.7801 -111.067 -102.63 53.3719 
-111.011 -103.252 52.9702 -111.014 -103.83 52.6958 -110.95 -104.584 53.2041 
-110.933 -104.057 53.5587 -111.015 -104.651 54.2681 -111.004 -103.422 54.0719 
-111.008 -104.004 54.7804 -111.093 -104.597 55.3728 -110.939 -102.904 54.5954 
-110.713 -103.355 55.2508 -110.83 -103.825 55.7368 -111.006 -104.613 56.2499 
-110.858 -102.523 54.9898 -110.168 -103.087 55.5982 -109.994 -103.222 55.943 
-110.576 -103.807 56.4641 -111 -104.684 57.1148 -110.972 -101.959 55.2843 
-110.152 -102.931 55.9291 -109.312 -103.113 56.2157 -109.75 -103.309 56.7037 
-110.746 -104.023 57.436 -111.292 -104.689 57.9454 -111.118 -101.238 55.5234 
-110.71 -102.317 56.2753 -109.769 -102.916 56.6842 -109.504 -103.114 57.1633 
-110.33 -103.632 57.8543 -111.217 -104.268 58.3221 -111.712 -104.687 58.5509 
-111.242 -100.71 55.7252 -111.075 -101.513 56.5043 -110.675 -102.306 57.0522 
-110.249 -102.733 57.6088 -110.376 -103.204 58.2976 -110.991 -103.858 58.7357 
-111.612 -104.371 58.9156 -112.035 -104.786 59.2045 -111.497 -100.347 55.9758 
-111.202 -100.911 56.6716 -111.105 -101.686 57.1992 -111.057 -102.291 57.7464 
-110.947 -102.725 58.4886 -110.996 -103.26 59.0918 -111.391 -103.838 59.3592 
-111.898 -104.387 59.6149 -112.253 -104.943 60.0363 -111.815 -99.9798 56.2841 
-111.428 -100.427 56.8935 -111.288 -101.131 57.3651 -111.423 -101.866 57.8242 
-111.487 -102.403 58.4911 -111.327 -102.817 59.2456 -111.352 -103.248 59.7652 
-111.749 -103.779 60.0708 -112.194 -104.428 60.3886 -112.484 -105.059 60.7429 
-111.156 -105.056 53.6147 -111.196 -105.118 54.6915 -111.6 -105.351 54.1139 
-111.15 -105.212 55.7808 -111.544 -105.467 55.142 -112.152 -105.545 54.6901 
-111.045 -105.366 56.7636 -111.368 -105.681 56.2624 -112.033 -105.782 55.6607 
-112.611 -105.816 55.2351 -111.22 -105.338 57.6135 -111.361 -105.887 57.2349 
-111.906 -106.087 56.7344 -112.512 -106.21 56.1041 -113.075 -106.256 55.5941 
-111.7 -105.153 58.2737 -111.76 -105.843 57.9508 -112.072 -106.315 57.5832 
-112.537 -106.451 57.071 -113.106 -106.558 56.4515 -113.824 -106.605 55.9564 
-112.142 -105.142 58.9903 -112.263 -105.709 58.7134 -112.476 -106.305 58.3856 
-112.806 -106.509 58.0025 -113.35 -106.478 57.5326 -114.053 -106.546 57.0363 
-114.706 -106.61 56.5728 -112.391 -105.338 59.8979 -112.585 -105.746 59.6769 
-112.833 -106.216 59.3951 -113.154 -106.478 59.0794 -113.725 -106.423 58.7049 
-114.462 -106.353 58.3105 -115.016 -106.408 57.8607 -115.389 -106.464 57.2852 
-112.599 -105.503 60.6948 -112.848 -105.846 60.5296 -113.188 -106.193 60.3027 
-113.526 -106.499 60.0936 -114.029 -106.614 59.7963 -114.767 -106.587 59.4047 
-115.353 -106.534 59.0366 -115.623 -106.47 58.5612 -115.897 -106.438 57.8758 
-112.879 -105.401 61.2163 -113.134 -105.762 61.1563 -113.52 -105.578 61.6381 
-114.027 -105.882 61.5236 -114.263 -105.703 62.2556 -113.612 -106.087 60.9474 
-114.835 -106.164 62.065 -114.759 -105.936 62.8835 -114.614 -106.403 61.3242 
-114.041 -106.518 60.7893 -115.217 -106.632 62.607 -115.257 -106.139 63.0884 
-115.184 -107.012 61.9341 -114.82 -107.122 61.2533 -114.347 -106.927 60.6231 
-115.777 -106.934 62.8824 -116.178 -106.219 63.1151 -115.445 -107.537 62.5995 
-115.111 -107.791 61.8272 -114.887 -107.646 60.8995 -114.864 -107.148 60.182 
-116.689 -107.02 63.0511 -117.075 -106.308 63.3227 -116.216 -107.696 62.9791 
-115.687 -108.053 62.3608 -115.313 -108.1 61.0897 -115.335 -107.816 60.1709 
-115.485 -107.147 59.7158 -117.347 -106.965 63.1527 -117.62 -106.359 63.4905 
-117.118 -107.628 62.9637 -116.867 -108.071 62.5381 -116.438 -108.172 61.3649 
-116.027 -108.057 60.2081 -115.899 -107.613 59.7681 -115.841 -106.919 59.3991 
-117.859 -106.733 63.111 -118.19 -106.267 63.4411 -117.63 -107.309 62.7129 
-117.665 -107.9 62.302 -117.661 -108.168 61.5321 -117.23 -108.036 60.5453 
-116.659 -107.662 59.9715 -116.325 -107.12 59.6146 -116.119 -106.631 58.8945 
-118.601 -106.459 63.0066 -118.929 -106.101 63.2629 -118.175 -106.844 62.5217 
-117.981 -107.385 62.0085 -118.106 -107.865 61.4788 -118.04 -107.91 60.8395 
-117.547 -107.535 60.2851 -117.059 -107.053 59.8328 -116.796 -106.684 59.1265 
-116.59 -106.507 58.1256 -112.667 -104.717 61.0289 -113.173 -105.076 61.418 
-112.953 -104.245 61.2235 -113.544 -104.567 61.6433 -113.211 -103.655 61.4785 
-113.807 -105.319 62.0179 -113.79 -103.843 62.0588 -113.4 -103.041 61.7789 
-114.127 -104.853 62.4359 -114.361 -105.52 62.885 -113.951 -103.16 62.4153 
-113.744 -102.64 61.8208 -114.34 -104.087 62.81 -114.584 -105.095 63.2537 
-114.796 -105.649 63.4174 -114.353 -102.8 62.3235 -114.304 -102.367 61.5876 
-114.589 -103.348 62.9066 -114.891 -104.307 63.3007 -115.147 -105.124 63.602 
-115.599 -105.601 63.4661 -114.948 -102.501 61.976 -114.789 -101.877 61.4243 
-115.107 -102.914 62.6736 -115.32 -103.503 63.1987 -115.628 -104.327 63.5915 
-116.123 -104.979 63.7752 -116.696 -105.579 63.5858 -115.431 -101.997 61.7309 
-115.163 -101.262 61.3803 -115.684 -102.57 62.3019 -115.876 -102.982 62.9604 
-116.132 -103.545 63.4887 -116.599 -104.242 63.8368 -117.133 -104.952 63.9211 
-117.475 -105.705 63.7552 -115.862 -101.45 61.5769 -115.64 -100.822 61.262 
-116.133 -102.125 61.9419 -116.39 -102.632 62.4916 -116.657 -103.028 63.1223 
-117.07 -103.521 63.5812 -117.55 -104.195 63.7773 -117.868 -105.013 63.7872 
-118.036 -105.771 63.6776 -116.368 -100.986 61.4109 -116.194 -100.559 61.024 
-116.585 -101.582 61.6822 -116.858 -102.209 61.9877 -117.17 -102.69 62.502 
[...]
CELL_DATA 2000
SCALARS Distance double
LOOKUP_TABLE default
164.002 163.559 163.901 164.185 163.154 163.501 163.815 164.157 164.502 
162.714 163.088 163.42 163.8 164.164 164.523 164.883 162.321 162.658 
162.995 163.384 163.756 164.155 164.514 164.883 165.207 162.019 162.315 
162.648 162.991 163.357 163.734 164.085 164.466 164.78 165.152 165.455 
161.686 162 162.296 162.648 162.975 163.342 163.655 164.022 164.319 
164.696 165.009 165.395 165.734 161.282 161.609 161.86 162.233 162.514 
162.904 163.17 163.554 163.831 164.228 164.56 164.963 165.328 165.713 
166.071 160.865 161.182 161.433 161.783 162.07 162.428 162.701 163.052 
163.336 163.729 164.101 164.533 164.944 165.335 165.693 166.044 166.349 
160.526 160.803 161.089 161.402 161.734 162.052 162.379 162.669 162.984 
163.299 163.686 164.094 164.55 164.968 165.359 165.693 165.979 166.285 
166.535 163.817 163.325 163.491 163.335 162.725 162.954 162.8 163.015 
162.893 161.997 162.288 162.129 162.413 162.277 162.542 162.43 161.204 
161.5 161.324 161.663 161.54 161.87 161.782 162.076 162.023 160.463 
160.715 160.541 160.854 160.782 161.13 161.112 161.434 161.431 161.726 
161.727 159.733 159.997 159.849 160.141 160.117 160.445 160.491 160.81 
160.851 161.15 161.167 161.449 161.428 158.906 159.229 159.11 159.465 
159.47 159.83 159.887 160.22 160.263 160.575 160.596 160.889 160.868 
161.126 161.056 158.099 158.397 158.33 158.719 158.792 159.187 159.272 
159.612 159.658 159.976 160.008 160.315 160.311 160.571 160.5 160.728 
160.636 157.515 157.703 157.704 158.033 158.208 158.578 158.744 159.044 
159.118 159.392 159.443 159.741 159.766 160.028 159.968 160.18 160.08 
160.308 160.26 157.264 157.136 157.254 157.507 157.151 157.249 157.554 
157.692 158.065 157.05 157.224 157.511 157.743 158.088 158.272 158.581 
156.895 157.033 157.244 157.549 157.849 158.157 158.418 158.659 158.895 
157.052 156.979 157.154 157.281 157.535 157.798 158.06 158.372 158.636 
158.919 159.193 157.584 157.339 157.48 157.368 157.523 157.563 157.736 
157.97 158.229 158.584 158.887 159.213 159.488 158.209 157.935 157.959 
157.749 157.74 157.626 157.633 157.702 157.855 158.148 158.433 158.817 
159.092 159.437 159.655 158.701 158.478 158.402 158.157 158.053 157.846 
157.819 157.72 157.877 157.943 158.265 158.462 158.798 159.045 159.307 
159.572 159.785 158.997 158.853 158.78 158.551 158.484 158.23 158.31 
158.105 158.392 158.263 158.68 158.615 159.026 159.012 159.343 159.391 
159.662 159.79 160.037 160.207 159.909 160.207 160.558 159.675 159.971 
160.333 160.621 160.978 159.447 159.765 160.05 160.322 160.557 160.924 
161.222 159.201 159.558 159.786 159.96 159.966 160.291 160.497 161.061 
161.443 158.945 159.338 159.672 159.764 159.679 159.707 159.787 160.252 
160.769 161.396 161.921 158.748 159.096 159.559 159.743 159.834 159.678 
159.714 159.796 160.331 160.839 161.569 162.023 162.517 158.747 158.931 
159.35 159.63 159.932 159.952 160.092 160.01 160.401 160.64 161.324 
161.744 162.319 162.637 163.038 158.923 158.958 159.226 159.435 159.781 
159.998 160.305 160.379 160.701 160.805 161.264 161.544 162.037 162.392 
162.816 163.145 163.547 159.095 159.094 159.249 159.347 159.626 159.852 
160.24 160.476 160.868 161.019 161.372 161.513 161.871 162.115 162.515 
162.861 163.294 163.65 164.063 160.507 160.83 160.78 161.086 161.25 
161.167 161.434 161.404 161.74 161.598 161.572 161.837 161.782 162.092 
162.081 162.402 161.918 161.912 162.225 162.175 162.485 162.457 162.786 
162.742 163.034 162.33 162.281 162.635 162.586 162.933 162.882 163.238 
163.171 163.503 163.411 163.747 162.809 162.726 163.08 163.038 163.438 
163.382 163.751 163.658 164 163.913 164.281 164.208 164.602 163.332 
163.223 163.585 163.525 163.961 163.915 164.301 164.193 164.512 164.412 
164.774 164.73 165.121 165.067 165.405 163.894 163.786 164.171 164.079 
164.513 164.454 164.864 164.756 165.103 164.966 165.346 165.254 165.658 
165.569 165.887 165.777 166.017 164.419 164.355 164.741 164.666 165.078 
165.016 165.44 165.347 165.751 165.615 166.044 165.912 166.346 166.185 
166.505 166.296 166.507 166.337 166.549 164.802 165.489 165.149 165.152 
166.268 165.889 165.933 165.536 165.536 167.088 166.742 166.855 166.425 
166.473 165.981 165.946 167.761 167.543 167.749 167.407 167.507 167.003 
166.969 166.403 166.302 168.397 168.202 168.478 168.243 168.368 167.974 
167.916 167.414 167.3 166.754 166.632 169.123 168.903 169.204 168.975 
169.126 168.755 168.66 168.216 168.073 167.66 167.549 167.068 166.914 
169.68 169.55 169.792 169.666 169.864 169.554 169.508 168.986 168.806 
168.337 168.21 167.835 167.669 167.229 166.982 170.006 169.922 170.027 
170.026 170.19 170.154 170.218 169.882 169.719 169.164 168.942 168.456 
168.256 167.844 167.584 167.162 166.896 170.328 170.193 170.197 170.114 
170.144 170.221 170.297 170.331 170.244 169.968 169.661 169.189 168.858 
168.411 168.137 167.722 167.48 167.076 166.899 164.692 164.709 164.935 
165.385 164.671 164.953 165.471 165.677 166.16 164.546 164.881 165.459 
165.767 166.307 166.493 166.947 164.439 164.729 165.29 165.685 166.277 
166.59 167.032 167.201 167.56 164.489 164.676 165.152 165.476 166.041 
166.446 166.945 167.218 167.581 167.754 168.15 164.556 164.757 165.19 
165.399 165.876 166.193 166.72 167.067 167.547 167.789 168.236 168.424 
168.89 164.48 164.758 165.216 165.447 165.883 166.103 166.572 166.871 
167.397 167.727 168.243 168.51 168.968 169.16 169.522 164.411 164.66 
165.132 165.409 165.856 166.099 166.521 166.773 167.237 167.562 168.059 
168.41 168.855 169.146 169.492 169.676 169.918 164.468 164.64 165.067 
165.309 165.747 166.016 166.442 166.703 167.132 167.413 167.854 168.175 
168.588 168.917 169.266 169.55 169.835 170.018 170.241 159.186 159.41 
159.294 159.358 159.884 159.628 159.71 159.555 159.726 160.572 160.225 
160.269 160.009 160.19 160.061 160.349 161.203 160.909 160.876 160.581 
160.674 160.542 160.828 160.764 161.046 161.705 161.483 161.459 161.145 
161.122 160.945 161.158 161.173 161.478 161.416 161.59 162.212 162.002 
162.101 161.78 161.783 161.439 161.574 161.47 161.806 161.799 162.054 
161.908 162.047 162.787 162.557 162.738 162.492 162.645 162.257 162.394 
162.056 162.36 162.214 162.574 162.421 162.662 162.434 162.658 163.429 
163.161 163.334 163.141 163.393 163.143 163.348 162.988 163.205 162.915 
163.238 163.043 163.363 163.135 163.408 163.159 163.448 164.086 163.815 
163.969 163.755 164.017 163.847 164.108 163.859 164.039 163.745 163.959 
163.741 164.038 163.855 164.152 163.934 164.208 163.972 164.23 159.138 
159.114 159.18 159.344 159.193 159.213 159.429 159.493 159.815 159.388 
159.395 159.656 159.669 160.029 160.111 160.526 159.519 159.619 159.919 
159.949 160.284 160.352 160.731 160.824 161.163 159.56 159.72 160.063 
160.162 160.483 160.576 160.905 160.993 161.286 161.363 161.625 159.723 
159.814 160.179 160.267 160.608 160.725 161.099 161.187 161.521 161.533 
161.816 161.832 162.121 160.065 160.075 160.434 160.446 160.795 160.869 
161.297 161.411 161.842 161.865 162.211 162.151 162.466 162.421 162.742 
160.448 160.437 160.771 160.759 161.098 161.121 161.529 161.631 162.069 
162.167 162.53 162.551 162.86 162.835 163.149 163.101 163.414 160.807 
160.784 161.088 161.087 161.409 161.433 161.794 161.867 162.245 162.346 
162.673 162.76 163.043 163.121 163.419 163.472 163.776 163.766 164.052 
161.118 161.715 161.386 161.379 162.41 162.019 161.977 161.666 161.697 
163.146 162.731 162.636 162.272 162.269 162.005 162.077 163.879 163.47 
163.332 162.914 162.842 162.56 162.621 162.403 162.497 164.58 164.208 
164.089 163.623 163.513 163.15 163.209 162.961 163.064 162.819 162.894 
165.208 164.903 164.857 164.415 164.328 163.893 163.961 163.639 163.78 
163.452 163.516 163.204 163.266 165.778 165.514 165.542 165.189 165.158 
164.739 164.776 164.434 164.565 164.233 164.295 163.905 163.928 163.602 
163.676 166.352 166.087 166.155 165.874 165.918 165.555 165.567 165.207 
165.262 164.963 165.006 164.67 164.66 164.308 164.337 164.032 164.079 
166.909 166.652 166.719 166.488 166.59 166.302 166.339 165.967 165.959 
165.613 165.626 165.318 165.319 164.997 164.998 164.69 164.711 164.404 
164.387 167.185 167.5 167.235 167.025 167.855 167.59 167.448 167.15 
166.946 168.312 167.999 167.85 167.566 167.359 167.038 166.72 168.818 
168.487 168.241 167.918 167.636 167.362 167.027 166.706 166.318 169.204 
168.953 168.677 168.297 167.934 167.597 167.276 166.98 166.642 166.301 
165.955 169.475 169.277 169.088 168.739 168.401 167.975 167.667 167.304 
167.038 166.672 166.347 165.972 165.644 169.824 169.567 169.404 169.124 
168.847 168.473 168.153 167.773 167.483 167.111 166.774 166.377 166.001 
165.644 165.319 170.203 169.928 169.677 169.41 169.114 168.831 168.485 
168.181 167.816 167.498 167.103 166.75 166.327 165.975 165.599 165.301 
165 170.362 170.194 169.89 169.648 169.309 169.041 168.67 168.397 
167.994 167.717 167.296 166.999 166.573 166.254 165.854 165.551 165.202 
164.949 164.642 167.422 167.862 167.661 167.69 168.278 168.098 168.114 
167.907 167.983 168.712 168.539 168.591 168.347 168.399 168.242 168.428 
169.174 169.003 169.07 168.832 168.868 168.68 168.834 168.739 168.955 
169.565 169.436 169.453 169.258 169.26 169.11 169.207 169.119 169.263 
169.193 169.308 169.811 169.765 169.766 169.583 169.544 169.416 169.498 
169.44 169.551 169.462 169.544 169.46 169.554 169.877 169.961 170.054 
169.905 169.845 169.667 169.711 169.669 169.835 169.776 169.93 169.788 
169.962 169.812 169.99 169.784 169.973 170.146 170.143 170.077 169.929 
169.845 169.805 169.925 169.996 170.234 170.227 170.471 170.348 170.56 
170.352 170.462 169.672 169.838 169.96 170.079 169.973 169.974 169.782 
169.802 169.788 169.951 170.15 170.362 170.603 170.718 170.869 170.834 
170.85 170.685 170.594 167.298 167.122 167.412 167.736 166.716 167.127 
167.478 167.796 168.102 166.314 166.702 167.092 167.457 167.805 168.131 
168.481 166.108 166.419 166.88 167.166 167.551 167.826 168.218 168.547 
168.948 165.903 166.248 166.713 167.033 167.425 167.657 168.005 168.291 
168.708 169.037 169.391 165.528 165.931 166.304 166.74 167.1 167.465 
167.791 168.099 168.463 168.787 169.133 169.409 169.628 165.097 165.48 
165.808 166.229 166.584 167.019 167.428 167.835 168.269 168.589 168.909 
169.129 169.28 169.503 169.602 164.7 165.058 165.411 165.778 166.17 
166.555 167.026 167.463 167.997 168.396 168.768 168.962 169.04 169.138 
169.133 169.374 169.461 164.31 164.668 165.028 165.413 165.818 166.208 
166.647 167.08 167.555 168.034 168.413 168.749 168.84 168.938 168.866 
168.964 169.012 169.269 169.425 164.186 164.222 164.437 164.92 164.269 
164.485 165.014 165.234 165.748 164.371 164.555 165.088 165.33 165.899 
166.096 166.606 164.514 164.681 165.207 165.43 165.999 166.226 166.77 
166.953 167.47 164.621 164.792 165.283 165.532 166.085 166.329 166.839 
167.053 167.541 167.775 168.24 164.716 164.852 165.227 165.489 165.985 
166.333 166.844 167.106 167.537 167.759 168.144 168.391 168.656 164.791 
164.92 165.19 165.362 165.733 166.094 166.622 167.024 167.523 167.773 
168.149 168.297 168.548 168.66 168.772 164.699 164.917 165.178 165.322 
165.615 165.853 166.334 166.741 167.329 167.71 168.205 168.394 168.727 
168.733 168.926 168.854 168.997 164.431 164.724 165.019 165.255 165.57 
165.785 166.213 166.523 167.071 167.47 168.02 168.374 168.819 168.983 
169.271 169.209 169.379 169.239 169.411 164.366 164.534 164.615 164.976 
164.842 164.847 165.234 165.282 165.639 165.224 165.204 165.597 165.622 
166.06 166.03 166.388 165.555 165.571 165.942 165.988 166.429 166.476 
166.897 166.84 167.213 165.82 165.865 166.209 166.269 166.647 166.761 
167.175 167.264 167.675 167.682 168.089 166.117 166.144 166.48 166.5 
166.819 166.905 167.292 167.448 167.909 168.046 168.527 168.562 168.938 
166.461 166.486 166.834 166.802 167.076 167.073 167.41 167.542 168.012 
168.224 168.748 168.913 169.335 169.324 169.492 166.731 166.816 167.184 
167.177 167.424 167.355 167.593 167.65 168.023 168.253 168.687 168.97 
169.33 169.53 169.703 169.677 169.625 166.89 167.022 167.398 167.475 
167.721 167.677 167.831 167.815 168.051 168.201 168.491 168.747 168.963 
169.264 169.402 169.641 169.676 169.686 169.611 169.721 169.598 169.718 
169.791 169.2 169.363 169.299 169.607 169.671 168.846 168.945 168.875 
169.067 169.154 169.45 169.56 168.575 168.713 168.812 168.875 169.075 
169.163 169.41 169.512 169.719 168.236 168.47 168.701 168.904 169.212 
169.319 169.608 169.611 169.863 169.869 170.137 168.009 168.178 168.384 
168.673 168.98 169.315 169.592 169.778 169.937 170.018 170.214 170.326 
170.58 167.901 168.036 168.192 168.372 168.634 168.953 169.283 169.588 
169.777 169.94 170.032 170.226 170.413 170.656 170.829 167.6 167.857 
168.016 168.216 168.463 168.7 169.094 169.358 169.721 169.835 169.98 
170.015 170.104 170.309 170.46 170.738 170.794 167.107 167.442 167.637 
167.954 168.212 168.52 168.892 169.229 169.667 169.894 170.164 170.136 
170.183 170.115 170.153 170.293 170.366 170.59 170.554 157.668 158.27 
158.027 158.231 159.085 158.747 158.92 158.646 158.841 159.925 159.6 
159.745 159.402 159.557 159.27 159.493 160.683 160.41 160.569 160.229 
160.35 160.021 160.215 159.974 160.257 161.429 161.161 161.355 161.036 
161.171 160.824 160.987 160.707 160.952 160.743 160.995 162.202 161.931 
162.143 161.836 162.012 161.665 161.841 161.51 161.73 161.452 161.683 
161.436 161.647 162.94 162.707 162.948 162.655 162.865 162.529 162.73 
162.388 162.6 162.273 162.486 162.175 162.382 162.102 162.331 163.58 
163.423 163.718 163.475 163.71 163.393 163.585 163.258 163.444 163.128 
163.304 162.99 163.165 162.868 163.07 162.814 163.054 164.085 164.014 
164.335 164.196 164.433 164.19 164.344 164.056 164.198 163.913 164.058 
163.765 163.911 163.625 163.798 163.54 163.749 163.52 163.743 157.505 
158.024 157.657 157.512 158.582 158.18 157.957 157.656 157.552 159.236 
158.754 158.486 158.091 157.912 157.674 157.665 160.052 159.512 159.274 
158.73 158.552 158.129 158.113 157.888 158.038 160.813 160.355 160.186 
159.645 159.514 158.965 158.963 158.535 158.691 158.419 158.621 161.453 
161.06 160.939 160.522 160.444 159.977 159.964 159.499 159.586 159.206 
159.362 159.049 159.18 162.153 161.73 161.644 161.246 161.212 160.827 
160.826 160.43 160.454 160.075 160.146 159.812 159.909 159.591 159.692 
162.91 162.49 162.433 162.009 161.988 161.589 161.599 161.221 161.249 
160.878 160.929 160.575 160.656 160.324 160.42 160.107 160.226 163.61 
163.242 163.198 162.808 162.772 162.375 162.357 161.98 161.998 161.645 
161.704 161.359 161.445 161.096 161.186 160.843 160.933 160.629 160.74 
157.247 157.26 157.147 157.046 157.381 157.233 157.106 157.032 157.023 
157.596 157.434 157.394 157.213 157.162 157.046 157 157.956 157.738 
157.776 157.594 157.604 157.353 157.257 157.021 156.933 158.408 158.125 
158.065 157.935 157.964 157.815 157.756 157.45 157.315 157.035 157.069 
158.873 158.528 158.292 158.112 158.029 158.011 158.014 157.909 157.85 
157.563 157.557 157.345 157.572 159.406 158.998 158.726 158.365 158.199 
158.042 158.085 158.075 158.198 158.079 158.159 157.925 158.088 157.947 
158.234 160.005 159.601 159.425 158.959 158.835 158.436 158.495 158.301 
158.537 158.445 158.662 158.495 158.634 158.46 158.636 158.55 158.748 
160.562 160.23 160.139 159.738 159.676 159.239 159.275 158.93 159.123 
158.924 159.16 158.99 159.119 158.929 158.996 158.877 158.975 158.933 
159.029 166.961 166.363 166.714 166.76 165.748 166.067 166.067 166.41 
166.36 165.164 165.441 165.4 165.708 165.655 165.965 165.933 164.553 
164.832 164.766 165.057 165.031 165.321 165.313 165.615 165.685 163.877 
164.179 164.084 164.392 164.372 164.719 164.756 165.059 165.101 165.424 
165.501 163.168 163.489 163.393 163.687 163.625 164.003 164.034 164.439 
164.462 164.82 164.819 165.178 165.176 162.438 162.781 162.728 163.019 
162.947 163.26 163.235 163.632 163.63 164.055 164.026 164.434 164.399 
164.783 164.753 161.724 162.057 162.029 162.358 162.311 162.608 162.547 
162.862 162.815 163.187 163.161 163.576 163.563 163.978 163.966 164.356 
164.343 161.091 161.368 161.321 161.65 161.605 161.936 161.867 162.18 
162.103 162.424 162.378 162.743 162.741 163.145 163.158 163.563 163.567 
163.957 163.956 
POINT_DATA 1002
SCALARS Distance double
LOOKUP_TABLE default
164.241 164.131 163.633 163.828 163.217 164.485 163.458 162.788 164.159 
164.862 163.018 162.339 163.785 164.548 165.241 162.62 162.006 163.35 
164.135 164.861 165.521 162.322 161.731 163.004 163.719 164.404 165.077 
165.769 161.948 161.382 162.619 163.303 163.944 164.61 165.342 166.093 
161.5 160.965 162.135 162.79 163.417 164.132 164.938 165.705 166.417 
161.083 160.549 161.716 162.362 162.951 163.641 164.53 165.364 166.012 
166.619 160.778 160.253 161.408 162.081 162.696 163.306 164.112 165.01 
165.703 166.224 166.762 163.687 163.154 163.136 162.574 162.467 162.674 
161.823 161.701 161.993 162.165 160.978 160.933 161.173 161.455 161.727 
160.235 160.223 160.413 160.762 161.121 161.446 159.536 159.443 159.777 
160.164 160.549 160.885 161.172 158.71 158.566 159.083 159.55 159.948 
160.294 160.61 160.824 157.915 157.817 158.365 158.928 159.341 159.687 
160.043 160.282 160.397 157.379 157.351 157.821 158.441 158.865 159.149 
159.495 159.762 159.863 159.981 157.063 157.322 157.024 157.404 157.027 
157.936 157.242 156.883 157.89 158.44 156.975 156.828 157.516 158.142 
158.673 157.137 157.194 157.354 157.738 158.302 158.936 157.689 157.871 
157.617 157.601 157.872 158.516 159.21 158.247 158.512 157.943 157.664 
157.636 158.06 158.727 159.341 158.676 158.915 158.283 157.933 157.861 
158.136 158.602 159.068 159.513 158.969 159.11 158.696 158.475 158.522 
158.796 159.11 159.368 159.595 159.879 160.489 160.254 160.931 160.066 
160.681 161.323 159.865 160.222 160.771 161.575 159.7 159.796 159.883 
160.837 161.917 159.521 159.8 159.443 160.038 161.433 162.412 159.248 
159.912 159.792 159.908 161.048 162.226 162.912 159.071 159.734 160.154 
160.331 160.965 161.958 162.773 163.43 159.108 159.502 160.109 160.654 
161.119 161.71 162.444 163.231 163.979 159.208 159.433 159.945 160.665 
161.287 161.712 162.191 162.91 163.741 164.468 161.072 161.499 161.733 
161.898 162.115 162.43 162.265 162.515 162.828 163.102 162.663 162.98 
163.306 163.583 163.825 163.104 163.473 163.861 164.087 164.332 164.687 
163.653 163.999 164.411 164.632 164.819 165.173 165.505 164.275 164.587 
164.955 165.229 165.45 165.772 166.031 166.126 164.811 165.138 165.508 
165.858 166.167 166.515 166.754 166.732 166.663 165.128 165.508 165.832 
166.327 166.645 165.963 167.256 167.364 166.984 166.472 168.012 167.908 
167.982 167.555 166.881 168.686 168.598 168.737 168.387 167.806 167.215 
169.426 169.346 169.502 169.141 168.454 167.959 167.474 169.88 169.815 
170.07 170.021 169.366 168.599 168.073 167.461 170.072 170.133 170.129 
170.374 170.262 169.53 168.697 167.998 167.293 170.376 170.475 170.143 
170.161 170.358 170.113 169.339 168.538 167.875 167.273 164.481 165.197 
164.45 165.212 164.35 166.004 165.081 164.208 166.085 166.832 164.899 
164.21 165.892 166.856 167.409 164.918 164.341 165.639 166.591 167.39 
167.946 165.014 164.313 165.64 166.349 167.22 168.034 168.729 164.947 
164.179 165.688 166.322 167.045 167.929 168.768 169.407 164.855 164.199 
165.593 166.288 166.953 167.715 168.535 169.263 169.807 164.865 164.34 
165.481 166.168 166.871 167.573 168.276 168.955 169.583 170.116 159.243 
159.433 159.555 159.898 160.201 159.801 160.578 160.937 160.33 160.438 
161.215 161.459 160.836 160.858 161.189 161.777 161.88 161.387 161.143 
161.475 161.774 162.351 162.406 162.177 161.787 161.794 162.15 162.24 
162.915 163.043 162.95 162.808 162.589 162.698 162.874 162.873 163.528 
163.719 163.559 163.671 163.567 163.459 163.557 163.657 163.694 159.065 
159.235 159.043 159.362 159.176 159.691 159.65 159.34 159.956 160.442 
159.868 159.35 160.241 160.658 161.094 159.943 159.387 160.379 160.83 
161.229 161.538 160.114 159.668 160.481 160.967 161.503 161.833 162.08 
160.444 160.085 160.744 161.16 161.765 162.261 162.541 162.78 160.782 
160.477 161.09 161.46 161.969 162.475 162.855 163.186 163.483 161.093 
160.851 161.39 161.748 162.173 162.595 162.95 163.325 163.748 164.098 