# vtk DataFile Version 4.0
vtk output
ASCII
DATASET POLYDATA
POINTS 1002 float
-118.034 -102.075 46.3689 -118.059 -102.052 45.4868 -117.382 -102.02 45.7578 
-117.326 -101.983 46.705 -116.694 -101.93 46.1402 -118.063 -101.919 47.514 
-116.556 -101.968 47.0545 -115.951 -101.906 46.5082 -117.307 -101.907 47.8149 
-117.959 -102.078 48.4832 -115.71 -102.101 47.3975 -115.187 -101.88 46.9449 
-116.448 -102.07 48.0604 -117.195 -102.184 48.7432 -117.745 -102.59 49.2 
-114.862 -102.182 47.8453 -114.564 -101.677 47.6066 -115.531 -102.331 48.3543 
-116.319 -102.398 48.9933 -117.004 -102.639 49.5726 -117.58 -102.902 50.0548 
-114.2 -102.037 48.4292 -114.128 -101.362 48.3564 -114.676 -102.437 48.7846 
-115.423 -102.6 49.3445 -116.102 -102.797 49.9319 -116.788 -102.932 50.5136 
-117.438 -103.037 51.1014 -113.726 -101.766 49.0476 -113.667 -101.114 48.9559 
-114.001 -102.336 49.3267 -114.616 -102.63 49.8248 -115.226 -102.935 50.3293 
-115.838 -103.171 50.8552 -116.63 -103.207 51.4409 -117.288 -103.416 52.011 
-113.203 -101.528 49.6061 -113.052 -100.976 49.4163 -113.401 -102.185 49.8774 
-113.879 -102.567 50.3448 -114.467 -102.888 50.7984 -115.008 -103.302 51.2153 
-115.755 -103.448 51.7444 -116.626 -103.482 52.3174 -117.217 -103.808 52.8067 
-112.609 -101.373 50.1112 -112.455 -100.887 49.8926 -112.771 -102.056 50.3444 
-113.161 -102.516 50.7702 -113.76 -102.765 51.256 -114.334 -103.185 51.6626 
-114.988 -103.514 52.1396 -115.88 -103.509 52.7295 -116.705 -103.578 53.2759 
-117.205 -103.915 53.6722 -112.145 -101.253 50.6305 -112.063 -100.792 50.435 
-112.238 -101.914 50.7828 -112.554 -102.421 51.1148 -113.146 -102.633 51.6331 
-113.765 -102.961 52.1361 -114.336 -103.416 52.6065 -115.116 -103.541 53.1607 
-116.049 -103.466 53.7498 -116.76 -103.607 54.2222 -117.17 -103.932 54.5063 
-117.81 -101.687 45.1411 -117.119 -101.656 45.45 -117.684 -101.017 45.1325 
-116.941 -100.982 45.4233 -117.502 -100.262 45.1208 -116.371 -101.599 45.7955 
-116.631 -100.273 45.3445 -117.086 -99.6705 44.824 -116.012 -101.057 45.5934 
-115.553 -101.575 46.0865 -116.167 -99.7426 45.0202 -116.502 -99.2999 44.3363 
-115.552 -100.522 45.3626 -115.1 -101.112 45.7539 -114.881 -101.386 46.6316 
-115.734 -99.2761 44.5767 -115.948 -98.9097 43.8994 -115.193 -99.9512 45.1158 
-114.666 -100.599 45.5419 -114.553 -100.835 46.4175 -114.462 -101.009 47.5385 
-115.441 -98.62 44.3233 -115.588 -98.2198 43.7173 -115.042 -99.1531 45.0055 
-114.447 -99.8418 45.5469 -114.187 -100.247 46.3057 -114.197 -100.454 47.3972 
-114.022 -100.751 48.336 -115.331 -97.7919 44.4328 -115.469 -97.2917 43.8108 
-115.006 -98.2528 45.1271 -114.418 -98.8841 45.7278 -113.971 -99.4552 46.3724 
-113.803 -99.8921 47.1918 -113.619 -100.352 48.0426 -113.342 -100.705 48.7849 
-115.345 -96.9956 44.6965 -115.455 -96.363 43.9847 -115.024 -97.5158 45.3453 
-114.414 -98.0812 45.8622 -113.909 -98.6383 46.4811 -113.625 -99.1398 47.1749 
-113.243 -99.797 47.76 -112.826 -100.412 48.3892 -112.596 -100.694 49.1648 
-115.33 -96.303 44.857 -115.394 -95.5593 44.1145 -115.026 -96.9439 45.466 
-114.344 -97.5002 45.8393 -113.769 -98.0016 46.3823 -113.569 -98.424 47.2017 
-113.208 -99.0054 47.8082 -112.55 -99.8049 48.1941 -112.131 -100.384 48.8258 
-112.072 -100.604 49.6903 -115.24 -95.4018 44.6935 -115.058 -96.2161 45.3744 
-115.009 -95.4402 45.2873 -114.44 -96.1429 45.7855 -114.615 -95.5594 45.9613 
-114.361 -96.8457 45.7467 -113.634 -95.9982 46.3768 -114.159 -95.7142 46.8058 
-113.367 -96.5782 46.0735 -113.51 -97.3395 46.1095 -113.172 -96.0351 47.1597 
-113.924 -96.0392 47.6279 -112.636 -96.3112 46.7581 -112.771 -97.0422 46.6939 
-113.276 -97.797 46.9875 -113.136 -96.3805 47.9744 -113.847 -96.479 48.3644 
-112.507 -96.4212 47.6132 -112.443 -96.9839 47.5175 -112.869 -97.7188 47.7618 
-113.187 -98.3282 47.9313 -112.972 -96.6965 48.9797 -113.609 -96.7363 49.2491 
-112.377 -96.6833 48.6496 -112.139 -97.1349 48.402 -112.292 -97.8835 48.4294 
-112.48 -98.4822 48.5272 -112.497 -99.0977 48.3791 -112.63 -96.8361 50.0786 
-113.283 -96.7815 50.2304 -111.96 -96.8313 49.869 -111.543 -97.1156 49.5362 
-111.493 -97.8545 49.2138 -111.603 -98.61 49.0654 -111.695 -99.2261 48.9648 
-111.826 -99.8691 48.8333 -112.484 -96.9679 50.9588 -113.076 -96.812 51.0964 
-111.798 -97.0729 50.8396 -111.223 -97.2035 50.6432 -110.989 -97.694 50.2866 
-111.047 -98.4964 49.9172 -111.223 -99.223 49.7374 -111.448 -99.8123 49.6992 
-111.722 -100.295 49.6891 -112.475 -97.0954 51.7146 -112.931 -96.8714 51.8808 
-111.967 -97.3932 51.544 -111.462 -97.6145 51.415 -111.101 -97.9001 51.2692 
-110.943 -98.5014 51.0119 -110.993 -99.2271 50.757 -111.241 -99.7823 50.6682 
-111.554 -100.185 50.6641 -111.819 -100.512 50.5909 -111.838 -100.945 51.1598 
-111.592 -100.59 51.4358 -111.515 -101.165 51.8816 -111.167 -100.282 51.5832 
-111.014 -100.757 52.2042 -111.128 -101.355 52.6629 -110.713 -99.9499 51.6971 
-110.247 -100.428 52.4409 -110.377 -100.88 52.9448 -110.976 -101.482 53.51 
-110.661 -99.4151 51.9072 -109.816 -100.062 52.7386 -109.582 -100.408 53.2357 
-110.441 -100.898 53.7052 -111.288 -101.539 54.3581 -111.062 -98.7753 52.0656 
-110.319 -99.5328 52.9841 -109.567 -99.9364 53.6008 -110.093 -100.304 53.9886 
-111.184 -100.893 54.5614 -111.804 -101.484 55.2189 -111.512 -98.3216 52.0831 
-111.233 -98.9967 52.9628 -110.527 -99.4676 53.756 -110.399 -99.8637 54.3067 
-111.105 -100.351 54.9016 -111.771 -100.892 55.5534 -112.214 -101.398 56.0196 
-111.835 -97.9324 52.1884 -111.725 -98.4895 52.9768 -111.449 -98.9847 53.7476 
-111.191 -99.4776 54.4423 -111.281 -99.968 55.2256 -111.642 -100.402 55.9752 
-112.103 -100.867 56.4108 -112.677 -101.397 56.6252 -112.134 -97.4315 52.4473 
-111.867 -97.849 53.2774 -111.767 -98.3649 53.9735 -111.784 -98.9639 54.5569 
-111.738 -99.5178 55.3496 -111.743 -99.9316 56.2226 -112.069 -100.32 56.7463 
-112.691 -100.853 56.9368 -113.358 -101.456 57.1316 -112.494 -97.0211 52.6716 
-112.086 -97.2428 53.5921 -111.922 -97.6899 54.3286 -112.084 -98.3623 54.7793 
-112.229 -98.9852 55.3576 -112.179 -99.417 56.1649 -112.307 -99.7917 56.7867 
-112.836 -100.265 57.1056 -113.512 -100.872 57.3599 -114.044 -101.491 57.722 
-111.855 -101.558 51.2915 -111.642 -101.781 52.0984 -112.043 -102.158 51.503 
-111.499 -101.899 53.1065 -112.041 -102.184 52.5107 -112.582 -102.432 51.9864 
-111.509 -102.015 54.1255 -112.058 -102.224 53.687 -112.746 -102.394 53.1335 
-113.285 -102.679 52.6136 -111.83 -102.028 55.0076 -112.185 -102.343 54.6941 
-112.873 -102.54 54.2621 -113.443 -102.868 53.75 -113.853 -103.215 53.17 
-112.363 -101.895 55.7861 -112.674 -102.303 55.5044 -113.21 -102.639 55.1489 
-113.69 -103.027 54.7505 -114.046 -103.393 54.2505 -114.518 -103.545 53.6905 
-112.914 -101.837 56.4468 -113.302 -102.202 56.2485 -113.789 -102.587 55.963 
-114.198 -102.99 55.6482 -114.532 -103.316 55.2644 -114.961 -103.483 54.7716 
-115.506 -103.484 54.2686 -113.511 -101.903 57.0589 -113.82 -102.212 56.9764 
-114.248 -102.587 56.7857 -114.655 -103.038 56.5627 -115.075 -103.303 56.33 
-115.566 -103.417 55.895 -116.02 -103.506 55.331 -116.405 -103.541 54.7948 
-114.114 -101.975 57.7571 -114.28 -102.261 57.7654 -114.58 -102.592 57.6037 
-114.909 -103.168 57.3616 -115.296 -103.598 57.2599 -115.845 -103.671 57.0258 
-116.354 -103.74 56.4004 -116.661 -103.853 55.698 -116.904 -103.872 55.1082 
-114.548 -101.835 58.5255 -114.635 -102.266 58.6431 -114.81 -102.186 59.4305 
-115.026 -102.592 59.5259 -115.055 -102.583 60.1827 -114.87 -102.518 58.557 
-115.474 -103.022 60.1236 -115.606 -102.901 60.7208 -115.452 -102.94 59.1374 
-115.182 -103.071 58.1478 -116.155 -103.371 60.3728 -116.573 -103.025 60.916 
-116.047 -103.506 59.3946 -115.777 -103.724 58.4741 -115.431 -103.845 57.8826 
-117.082 -103.534 60.3274 -117.724 -103.116 60.6948 -116.661 -103.926 59.5665 
-116.3 -104.277 58.7715 -115.892 -104.444 58.2973 -115.803 -104.164 57.848 
-118.108 -103.698 60.2423 -118.788 -103.283 60.4654 -117.394 -104.163 59.8407 
-116.879 -104.559 59.2742 -116.412 -104.768 58.6593 -116.19 -104.644 58.0668 
-116.335 -104.202 57.3247 -119.153 -103.942 60.3077 -119.686 -103.429 60.4336 
-118.349 -104.426 60.1171 -117.703 -104.764 59.7552 -117.253 -104.943 58.9841 
-116.834 -104.981 57.9621 -116.67 -104.781 57.082 -116.734 -104.335 56.3812 
-120.089 -104.148 60.2529 -120.335 -103.513 60.2441 -119.47 -104.693 60.1318 
-118.75 -104.984 59.8202 -118.245 -105.076 59.08 -117.813 -105.136 57.8882 
-117.364 -105.091 56.7597 -117.102 -104.794 56.0757 -117.014 -104.32 55.6281 
-120.662 -104.194 59.82 -120.672 -103.527 59.7073 -120.391 -104.789 59.7578 
-119.814 -105.094 59.4465 -119.175 -105.114 58.817 -118.666 -105.09 57.8464 
-118.237 -105.045 56.7634 -117.845 -104.83 55.9485 -117.54 -104.505 55.4596 
-117.334 -104.198 55.0364 -114.33 -101.063 58.1385 -114.682 -101.346 59.0473 
-114.468 -100.542 58.5915 -114.721 -100.632 59.5728 -114.557 -100.09 58.955 
-114.869 -101.65 59.8575 -114.913 -100.058 59.8792 -114.862 -99.7941 58.9675 
-115.125 -100.749 60.2304 -115.299 -101.984 60.443 -115.45 -99.8954 59.6289 
-115.409 -99.5492 58.5689 -115.697 -100.108 60.4119 -115.976 -101.006 60.6192 
-116.176 -102.241 60.8924 -116.201 -99.8116 58.99 -116.028 -99.202 58.1859 
-116.443 -100.012 60.1203 -116.754 -100.415 60.6499 -116.979 -101.451 60.7965 
-117.288 -102.483 60.941 -116.943 -99.441 58.5169 -116.668 -98.7441 58.0859 
-117.19 -99.8942 59.4951 -117.38 -100.263 60.3023 -117.535 -101.03 60.4618 
-117.834 -102.039 60.5599 -118.349 -102.771 60.634 -117.539 -98.9769 58.2089 
-117.274 -98.3117 57.9588 -117.786 -99.5711 58.8133 -117.916 -100.051 59.6119 
-117.984 -100.703 59.9579 -118.206 -101.605 60.0651 -118.703 -102.388 60.3309 
-119.283 -102.909 60.4862 -117.961 -98.6368 57.7944 -117.752 -98.012 57.5756 
-118.165 -99.3264 58.1107 -118.317 -99.8709 58.7385 -118.482 -100.335 59.3436 
-118.776 -100.953 59.706 -119.179 -101.688 60.0553 -119.615 -102.322 60.3391 
-120.022 -102.883 60.3782 -118.325 -98.3437 57.3539 -118.142 -97.827 57.0828 
-118.498 -99.0575 57.5503 -118.652 -99.7216 57.947 -118.899 -100.125 58.6145 
[...]
CELL_DATA 2000
SCALARS Distance double
LOOKUP_TABLE default
161.485 161.033 161.408 161.719 160.582 160.947 161.252 161.648 161.994 
160.146 160.503 160.808 161.191 161.556 161.962 162.347 159.732 160.075 
160.391 160.767 161.133 161.539 161.942 162.344 162.718 159.381 159.678 
159.982 160.353 160.725 161.129 161.522 161.929 162.308 162.695 163.038 
159.077 159.345 159.62 159.96 160.326 160.72 161.113 161.511 161.885 
162.274 162.641 163.018 163.394 158.733 159.021 159.279 159.61 159.949 
160.325 160.704 161.097 161.476 161.866 162.246 162.633 163.038 163.422 
163.832 158.375 158.657 158.916 159.25 159.571 159.94 160.291 160.68 
161.056 161.459 161.855 162.253 162.663 163.061 163.475 163.862 164.235 
158.129 158.347 158.607 158.894 159.209 159.552 159.899 160.269 160.65 
161.048 161.465 161.869 162.288 162.683 163.096 163.49 163.879 164.237 
164.555 161.234 160.725 160.921 160.796 160.165 160.394 160.26 160.467 
160.339 159.48 159.774 159.624 159.881 159.734 159.986 159.871 158.71 
159.038 158.894 159.186 159.032 159.322 159.22 159.517 159.45 157.945 
158.276 158.167 158.458 158.325 158.607 158.534 158.856 158.855 159.151 
159.137 157.209 157.544 157.478 157.77 157.669 157.933 157.867 158.186 
158.223 158.57 158.615 158.886 158.862 156.56 156.877 156.874 157.14 
157.081 157.317 157.254 157.54 157.556 157.921 157.979 158.326 158.315 
158.58 158.507 156.034 156.34 156.422 156.64 156.614 156.788 156.734 
156.963 156.968 157.275 157.31 157.65 157.647 157.965 157.909 158.187 
158.13 155.558 155.895 156.05 156.271 156.241 156.366 156.263 156.457 
156.457 156.738 156.779 157.044 157.029 157.292 157.261 157.559 157.555 
157.848 157.876 155.375 155.334 155.547 155.885 155.209 155.394 155.569 
155.845 155.981 155.038 155.094 155.01 155.299 155.352 155.757 155.915 
155.108 154.904 154.652 154.703 154.741 155.101 155.422 155.831 156.179 
155.492 155.115 154.849 154.591 154.647 154.747 155.196 155.512 156.004 
156.262 156.58 155.855 155.536 155.254 154.944 154.904 154.866 155.201 
155.432 155.856 156.112 156.373 156.583 156.767 156.039 155.815 155.504 
155.262 155.064 155.016 155.107 155.33 155.579 155.874 156.068 156.312 
156.479 156.725 156.955 156.21 155.999 155.769 155.499 155.3 155.108 
155.101 155.148 155.359 155.567 155.845 156.051 156.334 156.518 156.825 
157.016 157.319 156.429 156.242 156.146 155.884 155.825 155.511 155.563 
155.345 155.589 155.555 155.928 156.009 156.405 156.523 156.902 157.02 
157.349 157.457 157.721 157.893 157.567 157.847 158.053 157.137 157.472 
157.633 157.933 158.121 156.649 157.001 157.098 157.394 157.487 157.913 
158.202 156.245 156.57 156.687 156.864 156.868 157.195 157.481 158.062 
158.571 156.026 156.309 156.596 156.65 156.694 156.737 156.993 157.41 
158.034 158.614 159.225 156.021 156.24 156.686 156.759 156.968 156.849 
157.087 157.189 157.781 158.209 158.901 159.338 159.85 156.159 156.303 
156.719 156.884 157.193 157.204 157.462 157.464 157.913 158.128 158.722 
159.067 159.582 159.928 160.369 156.321 156.394 156.656 156.837 157.111 
157.301 157.592 157.742 158.104 158.272 158.701 158.936 159.37 159.671 
160.121 160.473 160.971 156.506 156.494 156.641 156.73 156.946 157.145 
157.473 157.73 158.126 158.35 158.722 158.906 159.263 159.493 159.921 
160.248 160.771 161.143 161.682 158.131 158.304 158.335 158.594 158.473 
158.536 158.829 158.856 159.183 158.696 158.759 159.13 159.137 159.482 
159.502 159.875 159.102 159.087 159.515 159.495 159.893 159.873 160.279 
160.261 160.666 159.665 159.585 160 159.946 160.388 160.356 160.821 
160.765 161.201 161.12 161.521 160.225 160.152 160.559 160.487 160.952 
160.908 161.408 161.354 161.806 161.709 162.096 161.989 162.352 160.764 
160.698 161.145 161.079 161.575 161.52 162.035 161.967 162.43 162.323 
162.717 162.587 162.95 162.821 163.17 161.395 161.291 161.768 161.688 
162.194 162.148 162.674 162.616 163.107 162.989 163.425 163.261 163.656 
163.474 163.828 163.651 163.967 162.098 161.982 162.438 162.328 162.783 
162.73 163.227 163.217 163.727 163.675 164.137 164.006 164.404 164.219 
164.544 164.335 164.594 164.402 164.632 162.618 163.43 163.025 162.961 
164.165 163.817 163.796 163.344 163.277 164.918 164.576 164.616 164.184 
164.156 163.7 163.704 165.711 165.359 165.427 165.026 165.046 164.607 
164.643 164.195 164.228 166.489 166.137 166.181 165.823 165.854 165.477 
165.508 165.112 165.137 164.701 164.661 167.268 166.904 166.94 166.569 
166.609 166.252 166.262 165.894 165.863 165.501 165.441 165.037 164.911 
168.064 167.726 167.816 167.395 167.462 167.047 167.075 166.647 166.571 
166.155 166.035 165.683 165.552 165.183 165.002 168.704 168.521 168.693 
168.326 168.388 167.946 167.933 167.478 167.363 166.884 166.685 166.252 
166.061 165.713 165.534 165.191 164.992 168.965 169.018 169.234 169.093 
169.128 168.79 168.654 168.24 168.013 167.592 167.318 166.89 166.614 
166.219 165.992 165.655 165.469 165.149 164.98 162.525 162.524 162.801 
163.299 162.4 162.698 163.172 163.495 163.974 162.349 162.561 162.983 
163.296 163.814 164.169 164.702 162.455 162.6 163.036 163.207 163.739 
164.032 164.664 164.979 165.546 162.599 162.776 163.3 163.414 163.951 
164.103 164.724 164.99 165.637 165.879 166.395 162.721 162.933 163.504 
163.694 164.222 164.364 164.869 165.075 165.648 165.943 166.514 166.724 
167.182 162.823 163.037 163.556 163.81 164.295 164.517 164.923 165.133 
165.571 165.879 166.414 166.753 167.262 167.48 167.905 162.859 163.075 
163.51 163.775 164.203 164.467 164.85 165.084 165.48 165.758 166.251 
166.599 167.11 167.434 167.851 168.104 168.446 162.844 163.046 163.431 
163.678 164.078 164.338 164.732 164.98 165.402 165.669 166.156 166.461 
166.937 167.238 167.603 167.892 168.154 168.456 168.661 156.693 157.037 
156.802 156.762 157.526 157.21 157.148 156.935 157.03 158.126 157.78 
157.781 157.466 157.588 157.364 157.608 158.785 158.428 158.493 158.191 
158.372 158.084 158.326 158.073 158.334 159.537 159.136 159.18 158.892 
159.081 158.862 159.085 158.836 159.016 158.766 158.93 160.376 159.949 
159.965 159.597 159.734 159.505 159.729 159.527 159.703 159.441 159.567 
159.307 159.456 161.193 160.817 160.87 160.445 160.545 160.203 160.425 
160.18 160.438 160.163 160.368 160.035 160.232 159.913 160.148 161.901 
161.618 161.736 161.364 161.473 161.08 161.267 160.955 161.231 160.959 
161.228 160.911 161.157 160.811 161.084 160.74 161.035 162.489 162.286 
162.454 162.187 162.339 161.997 162.164 161.828 162.049 161.765 161.993 
161.727 161.938 161.683 161.934 161.681 161.972 161.671 161.946 156.756 
157.044 156.971 157.142 157.32 157.28 157.475 157.41 157.621 157.488 
157.509 157.718 157.724 157.96 157.923 158.173 157.632 157.655 157.891 
157.932 158.229 158.252 158.561 158.52 158.828 157.839 157.847 158.129 
158.149 158.504 158.543 158.938 158.934 159.302 159.238 159.595 158.022 
158.063 158.366 158.424 158.792 158.852 159.247 159.293 159.675 159.689 
160.051 160.022 160.391 158.197 158.226 158.524 158.622 158.994 159.106 
159.463 159.545 159.878 159.961 160.311 160.387 160.748 160.78 161.141 
158.513 158.464 158.773 158.803 159.195 159.287 159.672 159.737 160.068 
160.128 160.489 160.588 160.987 161.07 161.44 161.479 161.814 158.946 
158.867 159.187 159.141 159.53 159.554 159.974 160 160.374 160.377 
160.756 160.808 161.241 161.32 161.725 161.762 162.093 162.105 162.395 
159.283 159.866 159.572 159.554 160.43 160.159 160.195 159.883 159.905 
161.074 160.757 160.833 160.542 160.621 160.296 160.341 161.883 161.498 
161.584 161.236 161.339 161.016 161.08 160.73 160.737 162.716 162.352 
162.435 162.052 162.12 161.755 161.808 161.457 161.484 161.115 161.13 
163.458 163.14 163.213 162.872 162.908 162.539 162.55 162.185 162.221 
161.872 161.934 161.562 161.62 164.175 163.861 163.923 163.592 163.622 
163.278 163.288 162.929 162.96 162.617 162.697 162.363 162.434 162.063 
162.089 164.831 164.563 164.62 164.293 164.301 163.96 163.968 163.639 
163.683 163.362 163.44 163.117 163.179 162.829 162.827 162.457 162.424 
165.328 165.143 165.199 164.945 164.936 164.62 164.591 164.28 164.304 
164.036 164.114 163.839 163.895 163.558 163.54 163.159 163.098 162.734 
162.693 165.582 165.921 165.658 165.461 166.329 166.011 165.789 165.502 
165.232 166.829 166.455 166.206 165.858 165.563 165.224 164.9 167.341 
166.948 166.663 166.294 165.967 165.584 165.243 164.897 164.612 167.749 
167.385 167.029 166.7 166.362 165.998 165.65 165.278 164.996 164.676 
164.446 167.954 167.68 167.3 167.013 166.708 166.386 166.076 165.704 
165.409 165.073 164.822 164.514 164.238 168.023 167.821 167.534 167.287 
167.058 166.766 166.508 166.139 165.816 165.458 165.135 164.834 164.498 
164.209 163.848 168.2 167.967 167.782 167.552 167.374 167.128 166.874 
166.546 166.164 165.803 165.389 165.079 164.685 164.405 164.011 163.743 
163.375 168.544 168.267 168.082 167.831 167.614 167.388 167.076 166.808 
166.364 166.049 165.574 165.275 164.856 164.577 164.193 163.908 163.546 
163.281 162.964 165.716 166.127 165.973 166.101 166.614 166.459 166.607 
166.404 166.542 166.946 166.906 167.083 166.939 167.079 166.885 167.046 
167.148 167.142 167.331 167.311 167.486 167.397 167.598 167.44 167.617 
167.498 167.398 167.59 167.529 167.746 167.724 168.015 167.979 168.258 
168.054 168.142 167.797 167.77 167.96 167.88 168.085 168.013 168.284 
168.309 168.615 168.6 168.719 168.465 168.345 167.711 167.857 167.983 
168.114 168.262 168.314 168.441 168.483 168.598 168.704 168.738 168.767 
168.632 168.463 168.274 167.482 167.606 167.621 167.851 167.925 168.205 
168.282 168.466 168.442 168.531 168.439 168.539 168.454 168.517 168.453 
168.378 168.36 167.404 167.419 167.355 167.432 167.412 167.673 167.793 
168.121 168.241 168.377 168.365 168.337 168.338 168.355 168.488 168.523 
168.697 168.609 168.727 165.531 165.299 165.579 165.918 165.005 165.337 
165.715 166.016 166.379 164.634 165.024 165.436 165.794 166.162 166.447 
166.721 164.151 164.594 165.015 165.467 165.876 166.213 166.507 166.729 
166.96 163.642 164.068 164.455 164.96 165.405 165.869 166.248 166.548 
166.846 167.035 167.323 163.232 163.605 163.977 164.401 164.815 165.315 
165.752 166.22 166.608 166.934 167.236 167.436 167.638 162.89 163.252 
163.655 164.007 164.386 164.77 165.165 165.648 166.079 166.571 166.918 
167.257 167.422 167.603 167.616 162.576 162.92 163.316 163.69 164.066 
164.41 164.756 165.127 165.516 165.985 166.372 166.813 167.034 167.304 
167.346 167.478 167.448 162.339 162.616 162.937 163.294 163.63 164.029 
164.37 164.753 165.103 165.495 165.852 166.26 166.523 166.856 166.962 
167.181 167.21 167.345 167.365 162.339 162.429 162.538 162.859 162.419 
162.565 162.869 163.054 163.469 162.406 162.541 162.857 163.038 163.489 
163.735 164.237 162.494 162.595 162.948 163.075 163.561 163.794 164.377 
164.575 165.057 162.573 162.729 163.106 163.223 163.678 163.889 164.458 
164.713 165.236 165.382 165.784 162.452 162.735 163.109 163.323 163.699 
163.936 164.383 164.694 165.154 165.44 165.824 166.022 166.353 162.182 
162.52 162.892 163.198 163.541 163.827 164.19 164.508 164.886 165.222 
165.571 165.888 166.206 166.473 166.749 161.944 162.245 162.619 162.928 
163.277 163.584 163.946 164.265 164.634 164.937 165.26 165.559 165.876 
166.206 166.527 166.803 167.046 161.788 162.046 162.408 162.681 163.017 
163.305 163.659 163.994 164.386 164.706 165.032 165.283 165.553 165.846 
166.176 166.527 166.852 167.094 167.279 161.831 162.085 162.121 162.44 
162.358 162.378 162.69 162.717 163.021 162.696 162.675 162.969 162.965 
163.275 163.305 163.656 163.061 163.036 163.329 163.284 163.608 163.603 
164.001 164.024 164.418 163.387 163.387 163.701 163.669 164.006 163.991 
164.391 164.406 164.794 164.784 165.077 163.763 163.736 164.082 164.046 
164.4 164.392 164.771 164.786 165.12 165.114 165.367 165.34 165.565 
164.218 164.178 164.555 164.485 164.851 164.801 165.164 165.143 165.448 
165.411 165.656 165.619 165.894 165.867 166.185 164.606 164.62 165.004 
164.979 165.348 165.289 165.635 165.561 165.843 165.752 165.986 165.927 
166.226 166.23 166.597 166.579 166.895 164.874 164.928 165.28 165.342 
165.701 165.732 166.07 166.033 166.292 166.177 166.353 166.253 166.462 
166.493 166.789 166.888 167.15 167.174 167.316 167.386 167.229 167.324 
167.278 166.914 167.092 167.073 167.164 167.22 166.666 166.822 166.949 
167.022 167.183 167.291 167.602 166.64 166.744 167.04 167.09 167.458 
167.48 167.893 167.909 168.219 166.621 166.792 167.132 167.275 167.721 
167.854 168.333 168.352 168.623 168.476 168.485 166.374 166.665 166.932 
167.227 167.543 167.893 168.274 168.581 168.84 168.864 168.844 168.612 
168.493 165.948 166.283 166.484 166.842 167.051 167.457 167.705 168.172 
168.443 168.804 168.958 168.974 168.965 168.716 168.694 165.499 165.808 
165.989 166.33 166.546 166.91 167.158 167.548 167.843 168.271 168.601 
168.927 169.161 169.183 169.248 169.008 168.977 165.112 165.386 165.574 
165.868 166.1 166.437 166.725 167.082 167.399 167.771 168.11 168.512 
168.829 169.151 169.314 169.388 169.343 169.171 169.009 155.312 155.873 
155.489 155.421 156.513 156.132 156.14 155.813 156.022 157.258 156.878 
156.968 156.611 156.824 156.562 156.893 158.05 157.698 157.852 157.501 
157.709 157.388 157.631 157.398 157.68 158.851 158.522 158.718 158.4 
158.625 158.284 158.455 158.123 158.293 158.083 158.348 159.647 159.346 
159.571 159.273 159.54 159.21 159.42 159.006 159.161 158.781 159.042 
158.819 159.223 160.338 160.114 160.361 160.119 160.423 160.143 160.437 
160.044 160.285 159.815 160.116 159.722 160.164 159.886 160.363 160.901 
160.743 161.004 160.846 161.173 160.993 161.331 161.056 161.341 160.962 
161.249 160.872 161.241 160.927 161.328 161.042 161.368 161.418 161.28 
161.549 161.431 161.763 161.664 162.015 161.863 162.138 161.891 162.09 
161.826 162.04 161.833 162.076 161.885 162.092 161.861 162 154.933 
155.082 154.77 154.505 155.755 155.208 154.97 154.579 154.583 156.672 
156.074 155.832 155.275 155.218 154.916 155.193 157.512 157.009 156.764 
156.184 155.998 155.588 155.69 155.596 155.955 158.252 157.819 157.653 
157.1 156.887 156.364 156.334 156.069 156.294 156.275 156.582 159.12 
158.621 158.542 158.007 157.871 157.304 157.275 156.827 156.997 156.73 
156.995 156.867 157.118 160.179 159.6 159.508 158.949 158.841 158.298 
158.267 157.811 157.934 157.568 157.761 157.455 157.659 157.45 157.673 
161.135 160.625 160.465 159.928 159.777 159.249 159.163 158.724 158.764 
158.43 158.537 158.233 158.353 158.084 158.256 158.054 158.266 161.781 
161.409 161.217 160.784 160.607 160.138 160.017 159.569 159.545 159.178 
159.234 158.926 159.012 158.741 158.876 158.66 158.852 158.66 158.846 
154.956 154.439 154.728 154.933 154.448 154.379 154.541 154.806 155.021 
155.117 154.706 154.734 154.638 154.882 154.999 155.132 155.994 155.558 
155.487 155.074 155.108 155.013 155.22 155.222 155.333 156.623 156.355 
156.281 155.849 155.653 155.326 155.354 155.344 155.581 155.568 155.72 
157.08 156.871 156.844 156.523 156.323 155.886 155.757 155.552 155.758 
155.796 156.08 156.017 156.108 157.581 157.321 157.32 157.053 156.988 
156.58 156.487 156.101 156.229 156.09 156.393 156.344 156.508 156.335 
156.306 158.138 157.835 157.803 157.548 157.546 157.253 157.241 156.882 
156.943 156.675 156.87 156.726 156.885 156.715 156.719 156.482 156.426 
158.685 158.371 158.278 158.012 157.98 157.768 157.78 157.546 157.564 
157.319 157.379 157.197 157.282 157.114 157.13 156.904 156.858 156.616 
156.588 165.281 164.768 165.032 165.002 164.117 164.442 164.402 164.699 
164.663 163.393 163.738 163.703 164.043 164.005 164.328 164.279 162.626 
162.984 162.921 163.295 163.259 163.628 163.58 163.907 163.821 161.799 
162.177 162.089 162.474 162.41 162.82 162.776 163.166 163.087 163.414 
163.319 161.007 161.347 161.272 161.635 161.558 161.947 161.886 162.305 
162.242 162.634 162.547 162.905 162.856 160.355 160.616 160.523 160.839 
160.751 161.107 161.025 161.415 161.351 161.759 161.698 162.094 162.051 
162.455 162.47 159.787 160.005 159.853 160.109 159.968 160.293 160.181 
160.556 160.474 160.878 160.833 161.244 161.237 161.647 161.688 162.106 
162.182 159.219 159.429 159.248 159.454 159.274 159.532 159.404 159.728 
159.643 160.014 159.972 160.386 160.407 160.846 160.924 161.356 161.472 
161.88 161.997 
POINT_DATA 1002
SCALARS Distance double
LOOKUP_TABLE default
161.794 161.548 161.114 161.32 160.668 162.047 160.856 160.223 161.581 
162.356 160.432 159.785 161.138 161.95 162.737 160.009 159.405 160.733 
161.53 162.348 163.072 159.62 159.119 160.32 161.125 161.912 162.665 
163.378 159.299 158.816 159.942 160.717 161.499 162.246 163.014 163.793 
158.949 158.434 159.591 160.317 161.078 161.854 162.641 163.461 164.241 
158.589 158.103 159.211 159.912 160.646 161.446 162.267 163.082 163.885 
164.579 158.349 157.937 158.884 159.534 160.25 161.055 161.896 162.703 
163.505 164.25 164.837 161.042 160.607 160.528 160.047 159.92 160.128 
159.356 159.165 159.47 159.606 158.595 158.371 158.735 158.892 159.161 
157.863 157.602 158.046 158.195 158.515 158.889 157.169 156.858 157.404 
157.561 157.848 158.307 158.651 156.604 156.221 156.85 156.99 157.214 
157.61 158.023 158.274 156.196 155.686 156.468 156.525 156.688 157.004 
157.319 157.6 157.854 155.804 155.184 156.151 156.106 156.16 156.523 
156.81 156.96 157.223 157.589 155.139 155.7 155.163 155.322 155.143 
155.686 154.818 155.155 154.892 155.48 154.74 155.432 154.401 154.933 
155.856 155.175 155.872 154.635 154.909 155.748 156.409 155.564 156.133 
155.024 155.056 155.641 156.18 156.533 155.751 156.236 155.201 154.973 
155.296 155.802 156.224 156.683 156.012 156.385 155.547 155.154 155.178 
155.604 156.13 156.649 157.146 156.331 156.574 156.096 155.832 155.706 
155.886 156.296 156.793 157.267 157.637 158.107 157.798 158.254 157.353 
157.75 158.361 156.861 157.083 157.629 158.617 156.556 156.65 156.874 
157.94 159.157 156.488 156.748 156.688 157.418 158.745 159.775 156.528 
157.046 157.114 157.462 158.465 159.494 160.282 156.549 157.081 157.455 
157.819 158.459 159.244 160.009 160.815 156.537 156.884 157.37 157.954 
158.54 159.107 159.761 160.595 161.505 156.616 156.772 157.183 157.868 
158.557 159.071 159.613 160.389 161.329 162.214 158.551 158.805 159.133 
159.112 159.475 159.841 159.534 159.901 160.306 160.694 160.064 160.404 
160.862 161.297 161.613 160.618 160.995 161.459 161.904 162.217 162.459 
161.194 161.625 162.108 162.539 162.848 163.088 163.304 161.865 162.245 
162.712 163.202 163.582 163.849 164.033 164.147 162.576 162.873 163.232 
163.737 164.241 164.59 164.776 164.825 164.81 163.065 163.435 163.79 
164.227 164.479 163.725 165.021 165.255 164.601 164.143 165.802 166.077 
165.459 165.08 164.707 166.533 166.858 166.21 165.895 165.549 165.154 
167.322 167.625 166.966 166.652 166.24 165.801 165.368 168.23 168.337 
167.896 167.525 167.05 166.425 165.882 165.408 168.997 168.78 168.853 
168.417 167.86 167.181 166.453 165.851 165.342 169.278 168.838 169.43 
169.102 168.445 167.737 167.038 166.354 165.772 165.294 162.296 163.043 
162.233 162.82 162.149 163.654 162.715 162.186 163.415 164.374 162.902 
162.279 163.491 164.311 165.308 163.15 162.369 163.852 164.509 165.352 
166.253 163.282 162.512 164.083 164.733 165.366 166.226 167.063 163.318 
162.639 164.067 164.735 165.303 166.046 166.97 167.753 163.269 162.668 
163.942 164.601 165.214 165.926 166.783 167.578 168.222 163.201 162.665 
163.823 164.472 165.126 165.868 166.675 167.356 167.876 168.366 156.891 
156.901 157.32 157.41 157.851 157.136 158.081 158.447 157.854 157.775 
158.759 159.15 158.639 158.625 158.577 159.5 159.963 159.281 159.324 
159.306 159.165 160.386 160.78 160.011 159.912 159.952 159.852 159.685 
161.288 161.513 160.94 160.687 160.677 160.686 160.568 160.443 162.056 
162.135 161.867 161.613 161.502 161.516 161.481 161.422 161.388 156.806 
157.217 157.11 157.516 157.338 157.695 157.677 157.452 157.963 158.226 
157.84 157.606 158.158 158.569 158.891 158.098 157.816 158.451 158.904 
159.343 159.676 158.278 157.973 158.724 159.203 159.636 160.049 160.431 
158.429 158.189 158.867 159.391 159.798 160.202 160.684 161.131 158.777 
158.575 159.115 159.603 160.024 160.386 160.881 161.396 161.795 159.251 