# vtk DataFile Version 4.0
vtk output
ASCII
DATASET POLYDATA
POINTS 1002 float
-118.69 -102.294 47.6169 -118.809 -101.947 47.0629 -118.112 -102.044 47.2655 
-117.981 -102.308 47.9466 -117.358 -102.034 47.5904 -118.531 -102.659 48.2167 
-117.287 -102.17 48.4029 -116.595 -102.034 47.9385 -117.859 -102.592 48.6468 
-118.406 -102.808 49.0779 -116.559 -102.224 48.7941 -115.868 -102.272 48.2134 
-117.202 -102.476 49.1712 -117.765 -102.741 49.6071 -118.311 -102.709 50.3424 
-115.747 -102.616 49.0272 -115.204 -102.605 48.4712 -116.395 -102.605 49.6476 
-117.031 -102.781 50.1869 -117.616 -102.821 50.859 -118.143 -102.853 51.5003 
-114.935 -102.873 49.329 -114.534 -102.699 48.8447 -115.493 -102.787 50.1051 
-116.116 -102.859 50.8226 -116.748 -103.034 51.3889 -117.36 -103.136 51.898 
-117.905 -103.297 52.3158 -114.159 -102.788 49.9074 -113.783 -102.632 49.3235 
-114.678 -102.765 50.6973 -115.264 -102.833 51.4655 -115.812 -103.106 51.9902 
-116.434 -103.373 52.337 -117.132 -103.525 52.7211 -117.723 -103.592 53.202 
-113.452 -102.685 50.5614 -113.101 -102.584 49.8051 -113.918 -102.801 51.3271 
-114.529 -103.036 51.9183 -115.061 -103.314 52.3837 -115.542 -103.546 52.7546 
-116.256 -103.743 53.0933 -117.046 -103.84 53.5396 -117.643 -103.846 54.0287 
-112.958 -102.639 51.0508 -112.646 -102.487 50.281 -113.264 -102.961 51.7566 
-113.751 -103.539 52.1099 -114.364 -103.99 52.37 -114.864 -104.041 52.838 
-115.445 -104.035 53.3226 -116.278 -104.176 53.7106 -117.057 -104.274 54.1066 
-117.624 -104.31 54.4627 -112.679 -102.543 51.4264 -112.354 -102.319 50.7817 
-112.864 -103.01 52.0285 -113.067 -103.86 52.2688 -113.553 -104.65 52.3245 
-114.208 -104.779 52.7015 -114.837 -104.52 53.333 -115.572 -104.496 53.8093 
-116.399 -104.663 54.1328 -117.089 -104.747 54.4639 -117.631 -104.776 54.7747 
-118.45 -101.65 46.6481 -117.681 -101.815 46.788 -118.049 -101.167 46.3731 
-117.248 -101.416 46.4553 -117.691 -100.465 46.2622 -116.814 -101.953 46.9935 
-116.945 -100.657 46.3938 -117.371 -99.7636 46.0961 -116.33 -101.65 46.5723 
-115.973 -102.048 47.2784 -116.69 -99.8035 46.3373 -117.001 -99.2237 45.7889 
-116.052 -100.862 46.5299 -115.52 -101.668 46.9073 -115.342 -102.118 47.7198 
-116.313 -99.1731 46.1133 -116.605 -98.6759 45.5802 -115.798 -100.022 46.5138 
-115.288 -100.906 46.8804 -115.049 -101.489 47.5848 -114.852 -102.133 48.2697 
-115.91 -98.6153 45.9288 -116.251 -98.0376 45.5584 -115.415 -99.4014 46.3385 
-114.973 -100.275 46.8024 -114.79 -100.854 47.5317 -114.579 -101.421 48.2777 
-114.172 -102.175 48.71 -115.603 -98.0371 45.8563 -115.891 -97.4631 45.5532 
-115.099 -98.7775 46.2234 -114.569 -99.673 46.701 -114.331 -100.4 47.3644 
-114.147 -100.951 48.1366 -113.73 -101.647 48.625 -113.308 -102.308 49.0064 
-115.309 -97.5287 45.814 -115.505 -96.9653 45.4973 -114.91 -98.1786 46.2334 
-114.353 -98.9633 46.7668 -113.954 -99.7622 47.342 -113.675 -100.478 47.9568 
-113.244 -101.198 48.4841 -112.798 -101.898 48.8421 -112.605 -102.348 49.3781 
-114.993 -97.0352 45.8259 -115.172 -96.4446 45.4714 -114.7 -97.6699 46.3153 
-114.267 -98.3648 46.91 -113.848 -99.0772 47.4796 -113.463 -99.8136 47.9559 
-112.965 -100.599 48.4033 -112.446 -101.34 48.8163 -112.161 -101.898 49.2624 
-112.173 -102.2 49.9273 -114.806 -96.2695 45.8045 -114.532 -96.9472 46.3305 
-114.481 -96.1768 46.4332 -114.08 -96.904 47.0126 -114.196 -96.2781 47.1708 
-114.174 -97.693 46.9495 -113.582 -96.8939 47.6151 -113.791 -96.4948 47.8911 
-113.632 -97.6766 47.553 -113.801 -98.4353 47.5494 -112.898 -96.8831 48.2491 
-113.176 -96.6619 48.7562 -112.884 -97.5368 48.0448 -113.161 -98.4256 48.0385 
-113.389 -99.1494 48.0283 -112.344 -97.066 49.1026 -112.686 -96.8656 49.7302 
-112.126 -97.4781 48.6877 -112.218 -98.303 48.5219 -112.571 -99.2058 48.4618 
-112.82 -99.9393 48.4268 -112.301 -97.5709 49.9821 -112.557 -97.2246 50.5826 
-112.02 -97.8687 49.4593 -111.69 -98.3649 49.136 -111.692 -99.2113 48.9284 
-111.995 -100.049 48.8669 -112.229 -100.74 48.8689 -112.454 -98.0999 50.7848 
-112.607 -97.6445 51.2971 -112.333 -98.4926 50.2543 -111.901 -98.7751 49.8685 
-111.431 -99.3187 49.5418 -111.404 -100.103 49.3692 -111.631 -100.786 49.4179 
-111.853 -101.375 49.4005 -112.518 -98.4367 51.5515 -112.729 -98.0402 51.9244 
-112.391 -98.8881 51.1312 -112.032 -99.1854 50.8217 -111.462 -99.5175 50.5122 
-111.148 -100.147 50.1785 -111.217 -100.821 50.0965 -111.442 -101.34 50.1519 
-111.763 -101.803 50.0553 -112.644 -98.6792 52.2334 -112.943 -98.3988 52.4726 
-112.332 -99.0667 51.9741 -111.864 -99.3924 51.8273 -111.294 -99.6461 51.6995 
-110.942 -100.114 51.3719 -110.922 -100.798 51.0448 -111.096 -101.367 50.9662 
-111.437 -101.747 50.937 -111.909 -102.057 50.8259 -112.32 -102.334 51.6498 
-111.8 -102.122 51.7089 -112.241 -102.57 52.5108 -111.272 -101.865 51.7761 
-111.734 -102.334 52.5699 -112.122 -102.982 53.388 -110.985 -101.391 51.8566 
-111.36 -101.953 52.5988 -111.774 -102.566 53.4392 -112.096 -103.24 54.2573 
-110.869 -100.655 52.1557 -111.293 -101.262 52.765 -111.677 -101.988 53.5107 
-111.875 -102.683 54.4237 -112.31 -103.136 55.0387 -110.886 -100.013 52.5705 
-111.228 -100.468 53.1687 -111.74 -101.232 53.7904 -111.815 -102.156 54.7361 
-112.007 -102.747 55.5161 -112.712 -102.932 55.8088 -111.291 -99.7117 52.7204 
-111.233 -99.9944 53.5028 -111.627 -100.515 54.2151 -111.75 -101.5 55.1656 
-111.772 -102.417 56.0756 -112.318 -102.777 56.5042 -113.134 -102.853 56.6674 
-111.99 -99.4811 52.6953 -111.689 -99.7995 53.5721 -111.64 -100.08 54.5264 
-111.634 -100.736 55.5621 -111.618 -101.754 56.4977 -112.016 -102.435 57.0437 
-112.8 -102.631 57.2849 -113.487 -102.746 57.5189 -112.588 -99.143 52.7784 
-112.366 -99.5456 53.5885 -112.028 -99.8041 54.6661 -111.761 -100.132 55.8131 
-111.671 -100.893 56.7485 -111.878 -101.751 57.364 -112.465 -102.186 57.7369 
-113.192 -102.351 57.989 -113.761 -102.555 58.2223 -112.985 -98.8388 52.9468 
-112.873 -99.2192 53.6715 -112.482 -99.486 54.7262 -112.062 -99.6947 55.9083 
-111.93 -100.176 56.861 -112.011 -100.99 57.536 -112.235 -101.654 58.0947 
-112.726 -101.956 58.4911 -113.387 -102.155 58.6645 -113.981 -102.42 58.7586 
-112.608 -102.77 52.2314 -112.439 -103.294 53.0542 -112.649 -103.651 52.605 
-112.297 -103.814 53.9799 -112.411 -104.355 53.3972 -112.782 -104.744 52.6796 
-112.514 -103.793 54.7464 -112.507 -104.537 54.3642 -112.69 -105.097 53.6041 
-113.387 -105.23 52.8792 -113.096 -103.298 55.2848 -113.179 -103.97 54.9906 
-113.146 -104.663 54.6103 -113.551 -105.064 53.9442 -114.254 -104.979 53.4448 
-113.583 -102.999 56.0501 -113.915 -103.343 55.5423 -113.946 -103.954 55.2681 
-114.056 -104.581 54.9244 -114.534 -104.884 54.4073 -115.083 -104.792 54.007 
-113.805 -103.008 57.1177 -114.19 -103.255 56.5853 -114.444 -103.675 56.1252 
-114.503 -104.309 55.8218 -114.776 -104.829 55.4225 -115.334 -105.007 54.8594 
-115.896 -104.923 54.3806 -113.999 -102.964 58.0512 -114.26 -103.375 57.7731 
-114.574 -103.808 57.3362 -114.715 -104.339 56.9383 -114.865 -104.824 56.5895 
-115.39 -105.057 56.0448 -116.09 -105.105 55.3267 -116.66 -105.025 54.743 
-114.271 -102.823 58.6588 -114.466 -103.331 58.6068 -114.708 -103.898 58.3981 
-114.886 -104.446 58.0517 -115.001 -104.847 57.706 -115.431 -105.004 57.2699 
-116.183 -105.025 56.603 -116.851 -105.056 55.8071 -117.297 -105.015 55.1445 
-114.476 -102.61 59.1433 -114.755 -103.064 59.1592 -115.015 -102.861 59.7091 
-115.264 -103.399 59.8239 -115.505 -103.088 60.4908 -114.951 -103.696 59.1886 
-115.759 -103.761 60.5373 -116.032 -103.246 61.0867 -115.427 -104.153 59.8729 
-115.123 -104.392 59.0381 -116.401 -104.077 60.972 -116.794 -103.407 61.2753 
-115.956 -104.557 60.5681 -115.58 -104.805 59.7538 -115.265 -104.874 58.7199 
-117.337 -104.333 61.2256 -117.845 -103.569 61.4314 -116.78 -104.79 61.0949 
-116.316 -104.987 60.4552 -115.993 -105.057 59.3011 -115.676 -105.019 58.2536 
-118.494 -104.408 61.5102 -119.007 -103.57 61.6367 -117.921 -104.89 61.4371 
-117.404 -104.996 60.928 -117.079 -105.064 59.7114 -116.816 -105.058 58.5377 
-116.473 -104.98 57.6439 -119.574 -104.191 61.5441 -119.938 -103.39 61.5452 
-119.136 -104.832 61.4799 -118.639 -105.012 61.0419 -118.177 -105.012 59.9254 
-117.878 -105.042 58.7066 -117.59 -104.987 57.8342 -117.205 -104.965 56.9048 
-120.296 -103.841 61.1854 -120.511 -103.185 61.1491 -120.085 -104.597 61.1329 
-119.805 -105.046 60.8102 -119.269 -105.063 59.9605 -118.695 -104.958 58.8922 
-118.352 -104.93 58.0134 -118.051 -104.963 57.1146 -117.662 -105.02 56.0593 
-120.769 -103.554 60.7257 -120.962 -103.034 60.7273 -120.644 -104.27 60.6331 
-120.621 -104.93 60.4023 -120.342 -105.174 59.8417 -119.678 -105.013 59.0126 
-119.104 -104.865 58.1532 -118.795 -104.946 57.2133 -118.451 -105.055 56.1776 
-118.013 -104.991 55.3171 -113.786 -102.196 59.2434 -114.42 -102.397 59.6025 
-113.55 -101.922 59.8229 -114.36 -102.014 60.1199 -113.582 -101.365 60.1912 
-115.053 -102.592 60.2261 -114.513 -101.305 60.3998 -113.969 -100.621 60.1525 
-115.092 -102.121 60.6793 -115.58 -102.685 61.032 -114.893 -100.561 60.3763 
-114.494 -100.102 59.9157 -115.327 -101.452 60.7808 -115.732 -102.222 61.2695 
-116.223 -102.693 61.4784 -115.411 -100.095 60.2293 -115.087 -99.868 59.6101 
-115.834 -100.792 60.6279 -116.231 -101.713 61.0064 -116.641 -102.237 61.4409 
-117.214 -102.715 61.5474 -116.037 -99.8567 59.8466 -115.732 -99.6783 59.0893 
-116.471 -100.252 60.4084 -116.979 -101.072 60.6427 -117.408 -101.785 60.9449 
-117.86 -102.174 61.404 -118.454 -102.763 61.6334 -116.643 -99.7345 59.1114 
-116.275 -99.4168 58.4651 -117.045 -99.9353 59.9011 -117.566 -100.392 60.4076 
-118.11 -101.107 60.5875 -118.561 -101.69 60.9002 -119.052 -102.18 61.3666 
-119.574 -102.785 61.6068 -117.12 -99.5459 58.3924 -116.692 -99.0208 58.0565 
-117.509 -99.8109 59.0881 -117.939 -99.9767 59.9203 -118.494 -100.37 60.4355 
-119.031 -101.006 60.6152 -119.468 -101.685 60.8383 -119.908 -102.288 61.1453 
-120.293 -102.774 61.2745 -117.511 -99.1124 58.0382 -117.082 -98.5045 57.9039 
-117.913 -99.5734 58.4156 -118.299 -99.7783 59.1406 -118.806 -99.9143 59.9528 
[...]
CELL_DATA 2000
SCALARS Distance double
LOOKUP_TABLE default
162.443 162.026 162.404 162.726 161.574 161.965 162.306 162.689 163.007 
161.204 161.541 161.902 162.276 162.63 162.979 163.281 160.957 161.232 
161.572 161.904 162.274 162.626 162.969 163.275 163.583 160.686 160.974 
161.247 161.569 161.892 162.264 162.618 162.97 163.3 163.606 163.926 
160.299 160.623 160.861 161.196 161.487 161.859 162.199 162.585 162.927 
163.29 163.624 163.955 164.274 159.915 160.218 160.493 160.813 161.164 
161.502 161.886 162.211 162.563 162.894 163.251 163.617 163.988 164.315 
164.643 159.642 159.902 160.226 160.514 160.93 161.259 161.727 162.015 
162.405 162.628 162.971 163.263 163.671 164.03 164.44 164.727 165.061 
159.467 159.705 160.053 160.313 160.729 161.057 161.545 161.885 162.319 
162.55 162.877 163.075 163.441 163.747 164.191 164.525 164.917 165.167 
165.48 162.158 161.547 161.831 161.738 160.86 161.189 161.115 161.38 
161.277 160.141 160.489 160.437 160.734 160.64 160.917 160.877 159.426 
159.768 159.719 160.04 159.959 160.261 160.235 160.574 160.626 158.722 
159.049 158.992 159.321 159.266 159.582 159.576 159.926 159.999 160.36 
160.403 158.041 158.344 158.279 158.6 158.573 158.91 158.942 159.292 
159.369 159.726 159.775 160.091 160.051 157.414 157.692 157.629 157.913 
157.884 158.222 158.271 158.654 158.73 159.095 159.12 159.442 159.402 
159.694 159.641 156.825 157.104 157.079 157.326 157.304 157.578 157.618 
157.973 158.052 158.428 158.449 158.776 158.729 159.032 158.993 159.309 
159.323 156.255 156.544 156.573 156.828 156.856 157.085 157.139 157.398 
157.481 157.781 157.828 158.121 158.099 158.38 158.353 158.662 158.692 
159.036 159.118 155.971 155.76 156.002 156.314 155.698 155.833 156.122 
156.361 156.648 155.68 155.745 155.935 156.177 156.48 156.712 156.974 
155.571 155.6 155.612 155.882 156.141 156.498 156.795 157.039 157.287 
155.565 155.465 155.375 155.493 155.653 156.031 156.348 156.754 157.029 
157.317 157.559 155.913 155.672 155.692 155.495 155.613 155.653 155.938 
156.253 156.603 156.972 157.256 157.554 157.801 156.454 156.225 156.4 
156.108 156.251 155.954 156.127 156.07 156.392 156.609 156.978 157.256 
157.559 157.806 158.077 156.977 156.8 156.989 156.818 156.948 156.673 
156.709 156.46 156.603 156.592 156.918 157.087 157.441 157.635 157.948 
158.143 158.448 157.496 157.302 157.427 157.29 157.365 157.194 157.155 
156.945 156.943 156.851 157.052 157.13 157.46 157.602 157.94 158.092 
158.425 158.587 158.911 159.157 158.677 159.084 159.452 158.185 158.59 
158.96 159.415 159.856 157.716 158.103 158.466 158.918 159.366 159.848 
160.311 157.307 157.64 158.013 158.451 158.92 159.383 159.859 160.306 
160.73 157.136 157.299 157.638 158.018 158.524 158.987 159.518 159.927 
160.39 160.747 161.15 157.298 157.281 157.539 157.733 158.196 158.606 
159.17 159.618 160.135 160.498 160.949 161.244 161.659 157.565 157.537 
157.774 157.794 158.155 158.363 158.846 159.242 159.763 160.208 160.684 
161.062 161.485 161.787 162.169 157.724 157.788 158.074 158.088 158.385 
158.433 158.775 158.98 159.415 159.801 160.281 160.719 161.151 161.539 
161.904 162.232 162.548 157.834 157.938 158.264 158.336 158.601 158.636 
158.861 158.952 159.261 159.518 159.958 160.334 160.783 161.162 161.534 
161.888 162.205 162.537 162.826 159.504 159.834 159.814 160.125 160.276 
160.218 160.553 160.481 160.824 160.758 160.716 161.076 160.972 161.321 
161.245 161.638 161.149 161.172 161.555 161.502 161.826 161.749 162.106 
162.071 162.412 161.492 161.508 161.881 161.905 162.221 162.195 162.502 
162.489 162.808 162.765 162.999 161.946 161.873 162.208 162.199 162.533 
162.53 162.855 162.853 163.199 163.167 163.471 163.347 163.591 162.461 
162.366 162.685 162.601 162.951 162.892 163.264 163.23 163.625 163.596 
163.976 163.883 164.205 164.038 164.332 162.871 162.846 163.186 163.12 
163.492 163.407 163.797 163.713 164.106 164.051 164.44 164.393 164.746 
164.651 164.952 164.8 165.051 163.169 163.203 163.573 163.581 163.982 
163.957 164.359 164.284 164.644 164.55 164.894 164.838 165.188 165.143 
165.456 165.36 165.603 165.446 165.625 163.456 164.122 163.817 163.9 
164.889 164.55 164.647 164.303 164.376 165.647 165.348 165.476 165.114 
165.195 164.8 164.808 166.374 166.117 166.308 165.966 166.048 165.639 
165.615 165.179 165.09 167.204 166.917 167.178 166.825 166.932 166.497 
166.459 165.986 165.877 165.417 165.314 168.117 167.834 168.124 167.755 
167.871 167.402 167.362 166.854 166.758 166.253 166.155 165.676 165.605 
168.796 168.661 168.931 168.676 168.778 168.342 168.246 167.735 167.593 
167.123 167.007 166.544 166.428 165.968 165.864 169.068 169.1 169.331 
169.296 169.438 169.174 169.071 168.579 168.327 167.851 167.653 167.279 
167.12 166.733 166.555 166.147 165.983 169.138 169.199 169.389 169.489 
169.695 169.677 169.703 169.361 169.114 168.572 168.283 167.84 167.668 
167.323 167.165 166.784 166.581 166.187 165.987 163.283 163.206 163.481 
163.96 163.071 163.407 163.943 164.22 164.722 162.864 163.237 163.803 
164.172 164.705 164.977 165.443 162.716 163.026 163.59 163.993 164.571 
164.913 165.391 165.649 166.109 162.766 162.955 163.496 163.821 164.445 
164.792 165.34 165.596 166.076 166.331 166.882 162.922 163.069 163.569 
163.807 164.423 164.737 165.346 165.602 166.125 166.343 166.897 167.182 
167.786 163.002 163.2 163.66 163.881 164.418 164.722 165.303 165.613 
166.141 166.398 166.916 167.197 167.749 168.053 168.518 162.962 163.22 
163.666 163.907 164.36 164.65 165.145 165.493 165.988 166.327 166.794 
167.127 167.595 167.936 168.337 168.615 168.862 162.867 163.143 163.588 
163.852 164.268 164.535 164.967 165.288 165.755 166.107 166.554 166.903 
167.308 167.667 168.019 168.349 168.598 168.833 168.978 158.034 158.499 
158.335 158.461 158.923 158.768 158.839 158.695 158.763 159.353 159.187 
159.215 159.021 159.028 158.913 158.976 159.814 159.67 159.74 159.451 
159.42 159.19 159.276 159.176 159.37 160.211 160.151 160.334 160.067 
160.062 159.704 159.786 159.587 159.869 159.752 160.082 160.579 160.54 
160.814 160.668 160.755 160.416 160.468 160.196 160.454 160.326 160.68 
160.553 160.878 161.068 160.953 161.255 161.154 161.352 161.098 161.169 
160.877 161.048 160.897 161.201 161.111 161.402 161.296 161.574 161.709 
161.518 161.816 161.668 161.928 161.712 161.844 161.554 161.673 161.459 
161.694 161.587 161.872 161.777 162.048 161.951 162.228 162.4 162.196 
162.481 162.293 162.555 162.338 162.506 162.227 162.34 162.076 162.263 
162.096 162.387 162.271 162.582 162.455 162.743 162.614 162.879 157.832 
157.731 157.958 158.323 157.69 157.873 158.218 158.441 158.771 157.705 
157.837 158.132 158.33 158.646 158.864 159.182 157.792 157.871 158.16 
158.29 158.603 158.762 159.061 159.263 159.578 157.966 158.003 158.307 
158.385 158.732 158.82 159.128 159.21 159.479 159.645 159.941 158.155 
158.21 158.501 158.56 158.891 158.984 159.329 159.384 159.668 159.682 
159.946 160.04 160.348 158.236 158.362 158.665 158.749 159.043 159.125 
159.454 159.564 159.914 159.963 160.266 160.236 160.527 160.546 160.891 
158.263 158.398 158.741 158.883 159.222 159.298 159.615 159.688 160.05 
160.165 160.541 160.592 160.903 160.868 161.171 161.175 161.543 158.423 
158.467 158.813 158.952 159.354 159.482 159.848 159.905 160.246 160.317 
160.693 160.802 161.156 161.206 161.5 161.5 161.812 161.851 162.222 
158.706 159.321 158.99 159.053 160.046 159.657 159.693 159.42 159.582 
160.83 160.422 160.436 160.097 160.221 159.979 160.117 161.63 161.235 
161.245 160.855 160.921 160.626 160.74 160.473 160.545 162.409 162.044 
162.072 161.669 161.692 161.334 161.413 161.114 161.198 160.897 160.973 
163.15 162.804 162.833 162.467 162.485 162.113 162.175 161.832 161.923 
161.589 161.667 161.352 161.427 163.869 163.521 163.531 163.189 163.224 
162.887 162.969 162.627 162.731 162.369 162.442 162.074 162.116 161.783 
161.806 164.546 164.215 164.216 163.881 163.936 163.622 163.737 163.421 
163.541 163.193 163.266 162.877 162.901 162.508 162.519 162.15 162.156 
165.099 164.832 164.826 164.542 164.599 164.329 164.451 164.173 164.287 
163.971 164.034 163.678 163.696 163.309 163.315 162.919 162.937 162.544 
162.57 165.333 165.572 165.335 165.096 165.943 165.626 165.445 165.152 
164.94 166.585 166.131 165.942 165.572 165.399 165.06 164.84 167.331 
166.859 166.605 166.141 165.9 165.528 165.295 164.947 164.671 167.889 
167.516 167.232 166.793 166.472 166.042 165.746 165.371 165.073 164.721 
164.399 168.286 167.945 167.646 167.306 167.004 166.608 166.292 165.859 
165.529 165.118 164.778 164.412 164.065 168.646 168.298 167.958 167.647 
167.372 167.069 166.783 166.401 166.04 165.6 165.211 164.8 164.431 
164.063 163.7 168.898 168.624 168.289 167.971 167.675 167.387 167.096 
166.796 166.417 166.043 165.597 165.205 164.791 164.428 164.055 163.696 
163.329 169.003 168.834 168.574 168.303 167.997 167.686 167.349 167.046 
166.656 166.327 165.873 165.517 165.078 164.745 164.367 164.041 163.677 
163.325 162.959 165.542 165.931 165.75 165.778 166.382 166.183 166.241 
166.016 166.127 166.887 166.699 166.802 166.542 166.673 166.482 166.752 
167.345 167.223 167.357 167.124 167.228 167.037 167.278 167.184 167.489 
167.719 167.649 167.782 167.612 167.661 167.511 167.678 167.637 167.934 
167.88 168.096 168.041 167.983 168.062 167.932 167.944 167.843 168.011 
167.998 168.361 168.339 168.677 168.487 168.622 168.215 168.214 168.221 
168.129 168.12 168.066 168.298 168.345 168.828 168.858 169.336 169.178 
169.411 169.045 169.057 168.138 168.233 168.232 168.221 168.241 168.233 
168.487 168.607 169.099 169.273 169.749 169.782 169.995 169.782 169.725 
169.366 169.229 167.922 168.061 168.132 168.207 168.318 168.363 168.597 
168.73 169.082 169.331 169.653 169.896 170.018 170.084 169.967 169.821 
169.598 169.366 169.204 165.426 165.201 165.488 165.784 164.798 165.166 
165.508 165.839 166.185 164.432 164.76 165.115 165.495 165.896 166.254 
166.639 164.126 164.448 164.793 165.131 165.526 165.911 166.31 166.679 
167.049 163.672 164.088 164.413 164.796 165.144 165.536 165.884 166.272 
166.619 167.025 167.393 163.118 163.551 163.855 164.302 164.638 165.097 
165.437 165.832 166.134 166.532 166.914 167.367 167.753 162.677 163.034 
163.34 163.729 164.091 164.553 164.976 165.399 165.75 166.089 166.442 
166.868 167.302 167.734 168.024 162.339 162.662 162.994 163.316 163.697 
164.084 164.544 164.974 165.397 165.749 166.093 166.446 166.832 167.262 
167.596 167.926 168.021 162.015 162.34 162.69 163.022 163.406 163.759 
164.167 164.565 164.943 165.346 165.666 166.061 166.39 166.809 167.127 
167.484 167.635 167.842 167.819 161.94 162.055 162.209 162.634 162.133 
162.329 162.803 162.954 163.394 162.151 162.379 162.881 163.109 163.587 
163.721 164.14 162.254 162.427 162.963 163.189 163.686 163.857 164.262 
164.412 164.817 162.54 162.651 163.257 163.396 163.953 164.018 164.416 
164.49 164.893 165.07 165.516 162.8 162.978 163.614 163.783 164.39 
164.422 164.846 164.776 165.174 165.216 165.724 165.847 166.326 162.84 
163.12 163.684 164 164.56 164.781 165.213 165.247 165.62 165.617 
166.085 166.15 166.636 166.689 167.072 162.753 163.037 163.494 163.86 
164.328 164.712 165.132 165.412 165.774 165.947 166.326 166.467 166.839 
166.943 167.218 167.294 167.5 162.675 162.908 163.293 163.594 164.003 
164.372 164.784 165.161 165.532 165.865 166.201 166.488 166.78 166.99 
167.185 167.31 167.429 167.543 167.655 162.759 163.059 163.053 163.354 
163.345 163.36 163.683 163.683 164.031 163.598 163.634 163.98 164.015 
164.379 164.395 164.78 163.884 163.893 164.24 164.292 164.663 164.715 
165.084 165.132 165.508 164.24 164.22 164.568 164.579 164.933 164.965 
165.307 165.374 165.735 165.821 166.181 164.586 164.58 164.931 164.939 
165.284 165.268 165.583 165.59 165.945 166.023 166.404 166.476 166.788 
164.924 164.907 165.25 165.279 165.635 165.631 165.937 165.905 166.249 
166.281 166.685 166.73 167.05 167.036 167.223 165.325 165.271 165.629 
165.625 166.023 166.003 166.318 166.256 166.549 166.574 166.967 167.046 
167.386 167.346 167.505 167.397 167.478 165.751 165.702 166.097 166.078 
166.542 166.491 166.842 166.689 166.89 166.812 167.095 167.225 167.587 
167.67 167.862 167.738 167.777 167.625 167.689 167.843 167.966 167.968 
168.118 168.079 168.143 168.316 168.289 168.414 167.77 168.069 168.238 
168.419 168.573 168.594 168.733 167.273 167.586 167.739 168.091 168.259 
168.559 168.739 168.891 169.108 167.2 167.3 167.542 167.669 167.913 
168.152 168.417 168.704 168.98 169.231 169.527 167.309 167.466 167.847 
167.823 168.151 168.115 168.481 168.544 168.909 169.057 169.376 169.595 
169.843 167.035 167.451 167.857 168.096 168.382 168.461 168.774 168.83 
169.213 169.228 169.521 169.521 169.686 169.79 169.848 166.509 166.983 
167.333 167.791 168.001 168.353 168.522 168.863 169.163 169.457 169.731 
169.78 169.836 169.742 169.675 169.677 169.573 166.079 166.442 166.743 
167.161 167.378 167.761 167.892 168.301 168.52 169.041 169.345 169.742 
169.853 169.897 169.765 169.636 169.466 169.401 169.264 156.17 156.786 
156.421 156.361 157.424 157.076 157.05 156.701 156.758 158.083 157.744 
157.733 157.388 157.404 157.123 157.229 158.778 158.442 158.458 158.089 
158.056 157.717 157.718 157.511 157.618 159.488 159.166 159.262 158.89 
158.933 158.469 158.456 158.045 158.132 157.912 158.146 160.202 159.89 
160.054 159.747 159.953 159.51 159.634 159.043 159.172 158.672 158.965 
158.658 159.046 160.941 160.63 160.809 160.544 160.814 160.53 160.763 
160.309 160.462 159.915 160.143 159.693 160.042 159.702 160.055 161.667 
161.389 161.581 161.312 161.553 161.32 161.533 161.26 161.378 161.033 
161.148 160.803 161.005 160.693 160.938 160.64 160.872 162.3 162.092 
162.312 162.079 162.322 162.066 162.263 161.963 162.062 161.75 161.83 
161.572 161.719 161.496 161.682 161.436 161.613 161.347 161.52 155.806 
155.978 155.674 155.333 156.415 155.975 155.604 155.266 155.027 156.997 
156.549 156.21 155.705 155.432 155.092 155.024 157.506 157.167 156.946 
156.437 156.167 155.666 155.555 155.254 155.377 158.039 157.694 157.597 
157.188 157.011 156.499 156.363 155.92 155.982 155.741 155.995 158.846 
158.352 158.263 157.853 157.784 157.351 157.281 156.806 156.819 156.438 
156.617 156.416 156.702 159.805 159.252 159.097 158.603 158.535 158.126 
158.128 157.717 157.746 157.324 157.436 157.11 157.328 157.121 157.36 
160.646 160.164 159.992 159.479 159.369 158.92 158.92 158.538 158.583 
158.202 158.277 157.933 158.091 157.812 158 157.754 157.909 161.33 
160.932 160.792 160.335 160.218 159.766 159.742 159.345 159.386 159.006 
159.056 158.708 158.82 158.546 158.708 158.441 158.559 158.274 158.363 
155.685 155.219 155.44 155.483 154.922 155.047 155.149 155.365 155.506 
154.912 154.874 155.002 155.152 155.411 155.55 155.675 155.265 155.03 
155.105 155.115 155.42 155.567 155.821 155.792 155.767 155.916 155.55 
155.564 155.355 155.578 155.633 155.958 156 156.084 155.88 155.784 
156.644 156.279 156.299 155.951 156.069 155.905 156.183 156.181 156.378 
156.238 156.205 155.954 155.976 157.269 156.972 157.013 156.705 156.788 
156.5 156.671 156.518 156.733 156.595 156.669 156.419 156.427 156.236 
156.401 157.765 157.519 157.552 157.342 157.438 157.192 157.293 157.059 
157.189 157.016 157.129 156.92 156.972 156.729 156.835 156.698 156.928 
158.196 157.964 157.986 157.821 157.935 157.763 157.857 157.632 157.686 
157.476 157.544 157.37 157.452 157.263 157.369 157.184 157.362 157.243 
157.487 165.142 164.578 164.907 164.904 163.885 164.263 164.261 164.573 
164.502 163.116 163.503 163.483 163.864 163.82 164.147 164.114 162.334 
162.695 162.628 163.029 162.987 163.398 163.376 163.766 163.762 161.573 
161.911 161.829 162.185 162.134 162.536 162.498 162.928 162.892 163.336 
163.285 160.811 161.159 161.089 161.42 161.371 161.729 161.688 162.054 
161.981 162.388 162.335 162.787 162.742 160.049 160.406 160.339 160.674 
160.591 160.957 160.905 161.278 161.198 161.534 161.454 161.847 161.846 
162.288 162.307 159.327 159.666 159.611 159.927 159.807 160.136 160.036 
160.439 160.371 160.757 160.668 161.028 160.996 161.42 161.47 161.915 
161.962 158.689 158.979 158.938 159.231 159.12 159.381 159.242 159.569 
159.494 159.894 159.836 160.224 160.17 160.582 160.605 161.069 161.139 
161.588 161.639 
POINT_DATA 1002
SCALARS Distance double
LOOKUP_TABLE default
162.766 162.475 162.089 162.358 161.632 163.055 161.906 161.185 162.655 
163.313 161.534 160.895 162.267 162.969 163.565 161.27 160.709 161.914 
162.645 163.295 163.892 160.947 160.404 161.526 162.237 162.974 163.634 
164.255 160.52 159.975 161.119 161.818 162.545 163.264 163.977 164.593 
160.16 159.612 160.803 161.571 162.271 162.876 163.613 164.377 164.962 
159.938 159.379 160.583 161.406 162.206 162.739 163.3 164.102 164.842 
165.381 159.8 159.224 160.421 161.184 162.047 162.707 163.185 163.84 
164.632 165.279 165.781 161.91 161.495 161.238 160.836 160.508 161.015 
160.124 159.792 160.353 160.553 159.39 159.099 159.645 159.879 160.275 
158.659 158.41 158.93 159.224 159.627 160.098 157.965 157.75 158.214 
158.577 159.025 159.455 159.773 157.362 157.13 157.562 157.878 158.36 
158.807 159.098 159.336 156.82 156.525 157.055 157.297 157.682 158.117 
158.425 158.664 158.98 156.288 155.952 156.61 156.904 157.217 157.546 
157.823 158.051 158.344 158.752 155.674 156.045 155.564 155.892 155.639 
156.43 155.707 155.696 156.209 156.803 155.399 155.62 155.732 156.484 
157.098 155.379 155.699 155.35 155.88 156.68 157.309 155.94 156.101 
155.759 155.733 156.202 156.928 157.532 156.636 156.628 156.624 156.371 
156.277 156.7 157.309 157.836 157.139 157.165 157.194 157.026 156.733 
156.803 157.254 157.76 158.251 157.603 157.72 157.538 157.363 157.079 
157.02 157.335 157.794 158.266 158.759 159.487 159.008 159.862 158.496 
159.377 160.33 158.02 158.883 159.839 160.766 157.568 158.451 159.428 
160.313 161.111 157.311 158.037 159.086 160.043 160.817 161.523 157.455 
157.854 158.698 159.729 160.638 161.392 162.063 157.794 158.074 158.54 
159.304 160.259 161.156 161.907 162.538 158.033 158.397 158.687 159.101 
159.843 160.743 161.555 162.251 162.857 158.18 158.58 158.828 159.072 
159.614 160.419 161.189 161.86 162.505 163.117 160.155 160.639 160.867 
161.179 161.412 161.686 161.572 161.916 162.151 162.483 161.843 162.228 
162.52 162.837 163.108 162.254 162.529 162.844 163.204 163.558 163.75 
162.783 163.021 163.305 163.644 164.029 164.343 164.525 163.218 163.559 
163.897 164.192 164.483 164.81 165.088 165.244 163.534 163.969 164.418 
164.765 164.977 165.223 165.532 165.75 165.817 163.717 164.199 164.451 
165.001 165.216 164.741 165.827 165.898 165.602 165.243 166.627 166.597 
166.471 166.073 165.531 167.529 167.487 167.378 166.948 166.356 165.744 
168.486 168.378 168.357 167.879 167.26 166.66 166.062 169.123 168.89 
169.186 168.791 168.07 167.451 166.913 166.311 169.288 169.028 169.583 
169.546 168.879 168.036 167.474 166.975 166.381 169.283 169.105 169.598 
169.905 169.661 168.804 168.011 167.522 166.999 166.364 163.016 163.711 
162.892 163.62 162.704 164.498 163.391 162.499 164.4 165.217 163.19 
162.461 164.189 165.125 165.834 163.215 162.622 164.083 165.064 165.831 
166.564 163.371 162.773 164.122 165.065 165.911 166.634 167.495 163.459 
162.774 164.151 164.981 165.864 166.65 167.464 168.288 163.427 162.685 
164.113 164.818 165.636 166.466 167.267 168.055 168.669 163.319 162.598 
164.018 164.675 165.41 166.22 166.977 167.68 168.323 168.802 158.203 
158.624 158.672 159.011 159.088 158.884 159.465 159.51 159.171 159.031 
160.038 159.895 159.719 159.371 159.427 160.521 160.22 160.444 160.025 
159.965 160.215 160.882 160.635 161.041 160.782 160.599 160.801 161.026 
161.344 161.226 161.542 161.474 161.253 161.294 161.508 161.673 161.986 
161.917 162.119 162.123 161.937 161.831 161.959 162.151 162.321 157.575 
158.097 157.521 158.001 157.547 158.556 157.963 157.606 158.434 158.951 
158.044 157.727 158.474 158.902 159.331 158.241 157.932 158.637 159.085 
159.398 159.711 158.458 158.076 158.805 159.232 159.671 159.94 160.192 
158.552 158.082 158.987 159.34 159.791 160.282 160.579 160.814 158.561 
158.146 159.112 159.57 159.935 160.425 160.918 161.215 161.487 158.694 