# vtk DataFile Version 4.0
vtk output
ASCII
DATASET POLYDATA
POINTS 1002 float
-116.417 -102.63 51.7689 -116.499 -102.225 51.2621 -115.757 -102.398 51.4188 
-115.755 -102.672 52.0692 -115.248 -102.378 51.8006 -116.53 -102.71 52.6473 
-115.303 -102.513 52.6064 -114.891 -102.181 52.4096 -115.895 -102.707 53.0646 
-116.698 -102.794 53.7033 -114.825 -102.302 53.3001 -114.263 -102.025 53.0277 
-115.335 -102.651 53.6182 -115.991 -102.909 54.1263 -116.725 -103.107 54.6182 
-114.077 -102.223 53.8904 -113.425 -101.998 53.4888 -114.678 -102.627 54.2038 
-115.292 -103.023 54.5803 -115.961 -103.281 55.006 -116.654 -103.459 55.4025 
-113.297 -102.261 54.3111 -112.752 -101.998 53.9192 -113.895 -102.661 54.6551 
-114.56 -103.071 55.0299 -115.217 -103.371 55.426 -115.842 -103.631 55.7919 
-116.56 -103.82 56.2088 -112.561 -102.394 54.6792 -112.139 -102.031 54.4016 
-113.089 -102.79 54.9908 -113.755 -103.135 55.4142 -114.48 -103.366 55.8985 
-115.049 -103.721 56.235 -115.609 -104.141 56.5056 -116.348 -104.389 56.8338 
-111.777 -102.547 55.0459 -111.497 -102.074 54.905 -112.256 -102.975 55.3098 
-112.879 -103.319 55.7486 -113.652 -103.478 56.3343 -114.341 -103.756 56.7557 
-114.789 -104.33 56.8833 -115.329 -104.825 56.986 -116.068 -105.042 57.1934 
-111.188 -102.511 55.5262 -111.04 -102.004 55.4742 -111.602 -102.97 55.746 
-112.141 -103.405 56.137 -112.783 -103.682 56.6719 -113.572 -103.915 57.1663 
-114.193 -104.409 57.3458 -114.602 -105.003 57.3232 -115.172 -105.362 57.4082 
-115.898 -105.494 57.652 -110.888 -102.288 56.1537 -110.783 -101.836 56.0729 
-111.256 -102.716 56.3766 -111.741 -103.207 56.6977 -112.161 -103.697 57.0359 
-112.736 -104.105 57.3942 -113.504 -104.557 57.6578 -114.084 -105.071 57.7354 
-114.536 -105.448 57.8201 -115.166 -105.627 58.0709 -115.875 -105.706 58.418 
-116.207 -101.617 51.0598 -115.446 -101.815 51.2302 -115.916 -100.827 50.9576 
-115.192 -101.052 51.1479 -115.62 -100.184 50.8205 -114.965 -101.872 51.6158 
-114.996 -100.323 51.1193 -115.399 -99.6655 50.6453 -114.683 -101.175 51.5276 
-114.484 -101.803 52.1623 -114.897 -99.5428 51.192 -115.279 -98.8581 50.5546 
-114.473 -100.314 51.6427 -114.041 -101.198 52.0285 -113.642 -101.783 52.6447 
-114.839 -98.6251 51.306 -115.188 -97.8228 50.6377 -114.411 -99.3882 51.9079 
-113.818 -100.318 52.2027 -113.139 -101.268 52.4349 -112.8 -101.773 53.054 
-114.742 -97.8039 51.4524 -115.116 -97.0642 50.9436 -114.336 -98.5892 52.0257 
-113.759 -99.4603 52.4021 -112.938 -100.47 52.5149 -112.368 -101.238 52.8307 
-112.247 -101.647 53.6036 -114.637 -97.2232 51.7612 -115.074 -96.6511 51.408 
-114.129 -97.8785 52.0769 -113.517 -98.6811 52.332 -112.746 -99.6515 52.5276 
-112.113 -100.47 52.8198 -111.897 -100.996 53.476 -111.77 -101.509 54.2944 
-114.563 -96.7947 52.1683 -114.99 -96.2925 51.8457 -113.933 -97.2318 52.2959 
-113.141 -97.8032 52.278 -112.38 -98.7342 52.4047 -111.87 -99.6784 52.806 
-111.693 -100.256 53.4872 -111.596 -100.764 54.3264 -111.33 -101.426 55.0129 
-114.465 -96.4116 52.5122 -114.797 -95.8625 52.1611 -113.85 -96.7795 52.6162 
-112.948 -97.0779 52.4569 -112.109 -97.7623 52.4368 -111.685 -98.8188 52.8406 
-111.59 -99.6303 53.5409 -111.51 -100.112 54.3682 -111.285 -100.682 55.137 
-110.988 -101.341 55.6784 -114.361 -95.7893 52.6922 -113.936 -96.3517 52.948 
-113.817 -95.7133 53.2606 -113.234 -96.2471 53.309 -113.138 -95.5409 53.7665 
-113.118 -96.6506 52.8378 -112.51 -96.0963 53.684 -112.524 -95.418 54.158 
-112.406 -96.6207 53.1474 -112.177 -97.0156 52.699 -112.034 -96.1206 54.2436 
-112.218 -95.6687 54.7069 -111.946 -96.7262 53.7881 -111.809 -97.2523 53.3886 
-111.671 -97.9338 53.0463 -111.8 -96.4768 55.1483 -112.067 -96.1408 55.6762 
-111.676 -97.0021 54.7132 -111.631 -97.6152 54.412 -111.601 -98.316 54.0898 
-111.571 -99.0281 53.7555 -111.566 -96.9021 56.2571 -111.837 -96.4755 56.7512 
-111.409 -97.4118 55.7295 -111.268 -97.9323 55.3466 -111.167 -98.5856 55.0107 
-111.222 -99.2441 54.6964 -111.38 -99.7045 54.503 -111.369 -97.3008 57.1495 
-111.713 -96.8583 57.4651 -111.155 -97.8495 56.6774 -110.907 -98.2695 56.1761 
-110.497 -98.7047 55.6736 -110.287 -99.2945 55.29 -110.58 -99.8083 55.2115 
-111.035 -100.206 55.2529 -111.428 -97.8661 57.6519 -111.87 -97.5229 57.8279 
-111.063 -98.3403 57.3943 -110.737 -98.7089 57.0189 -110.205 -98.9337 56.4765 
-109.63 -99.2998 55.9068 -109.634 -99.8412 55.6925 -110.221 -100.349 55.8353 
-110.762 -100.827 55.8928 -111.671 -98.5005 57.9856 -112.135 -98.2426 58.1269 
-111.18 -98.843 57.8836 -110.729 -99.1717 57.7374 -110.208 -99.3348 57.4108 
-109.593 -99.4802 56.8685 -109.302 -99.8827 56.3979 -109.627 -100.452 56.3061 
-110.21 -100.967 56.4105 -110.602 -101.413 56.3476 -110.581 -101.967 56.7092 
-110.276 -101.677 56.881 -110.26 -102.275 57.3927 -109.895 -101.291 56.9194 
-109.832 -102.181 57.4784 -109.81 -102.85 58.0546 -109.516 -100.693 57.0615 
-109.621 -101.79 57.7289 -109.405 -102.834 58.3124 -109.675 -103.321 58.7848 
-109.407 -100.099 57.4872 -109.506 -101.043 58.2721 -109.404 -102.289 58.9693 
-109.405 -103.201 59.389 -110.142 -103.423 59.6526 -109.753 -99.845 57.9688 
-109.532 -100.454 58.744 -109.463 -101.401 59.607 -109.464 -102.522 60.1481 
-109.929 -103.207 60.3043 -110.854 -103.486 60.5096 -110.354 -99.7411 58.2454 
-109.974 -100.251 58.8926 -109.733 -100.852 59.6992 -109.687 -101.676 60.4122 
-109.987 -102.549 60.732 -110.696 -103.18 60.9334 -111.455 -103.697 61.3203 
-110.941 -99.4678 58.3474 -110.637 -99.9819 58.96 -110.395 -100.574 59.6106 
-110.294 -101.225 60.228 -110.427 -101.891 60.7118 -110.851 -102.569 61.1403 
-111.413 -103.224 61.6603 -111.928 -103.838 62.1304 -111.487 -99.1345 58.3924 
-111.175 -99.5367 59.0675 -110.953 -100.066 59.7758 -110.969 -100.838 60.2684 
-111.144 -101.54 60.6368 -111.361 -102.093 61.1662 -111.594 -102.665 61.887 
-111.911 -103.29 62.5009 -112.356 -103.86 62.7939 -112.007 -98.8864 58.4751 
-111.646 -99.204 59.138 -111.276 -99.49 59.981 -111.259 -100.162 60.5883 
-111.589 -101.052 60.852 -111.895 -101.756 61.221 -111.962 -102.282 61.9599 
-112.002 -102.815 62.7185 -112.292 -103.378 63.1232 -112.817 -103.884 63.2186 
-110.837 -102.364 56.9916 -110.652 -102.677 57.8281 -111.359 -102.82 57.339 
-110.445 -103.164 58.4615 -111.328 -103.163 58.1238 -111.805 -103.433 57.5546 
-110.683 -103.429 59.1225 -111.357 -103.593 58.6872 -111.76 -103.907 58.1584 
-112.093 -104.123 57.6668 -111.256 -103.597 60.0478 -111.652 -103.934 59.5171 
-111.808 -104.485 58.8625 -112.014 -104.809 58.2262 -112.675 -104.77 57.86 
-111.702 -103.994 61.034 -111.927 -104.371 60.6303 -111.981 -104.959 59.9965 
-112.076 -105.411 59.1742 -112.629 -105.467 58.4866 -113.455 -105.274 58.0769 
-112.065 -104.331 61.873 -112.174 -104.779 61.5573 -112.261 -105.235 61.0991 
-112.402 -105.593 60.374 -112.783 -105.731 59.5133 -113.43 -105.683 58.8244 
-114.065 -105.557 58.3105 -112.535 -104.367 62.5191 -112.654 -104.851 62.1981 
-112.792 -105.265 61.8484 -113.032 -105.533 61.3506 -113.327 -105.654 60.6169 
-113.692 -105.718 59.8605 -114.18 -105.727 59.2591 -114.697 -105.688 58.6785 
-113.085 -104.314 62.9928 -113.285 -104.742 62.7246 -113.453 -105.176 62.463 
-113.705 -105.544 62.142 -113.996 -105.747 61.5921 -114.229 -105.835 60.8731 
-114.53 -105.871 60.2647 -114.987 -105.838 59.7496 -115.467 -105.778 59.1162 
-113.557 -104.223 63.488 -113.837 -104.642 63.3455 -114.232 -104.64 64.0896 
-114.428 -105.13 64.0625 -114.603 -105.089 65.0255 -114.02 -105.086 63.1924 
-114.853 -105.645 64.8809 -115.016 -105.419 65.7171 -114.562 -105.639 63.9511 
-114.186 -105.598 63.0128 -115.592 -105.943 65.2822 -115.917 -105.634 65.8707 
-115.142 -106.041 64.573 -114.697 -106.146 63.6834 -114.423 -106.035 62.6098 
-116.648 -106.168 65.3888 -117.009 -105.837 65.8989 -116.165 -106.154 64.8162 
-115.436 -106.294 64.09 -114.944 -106.494 63.0139 -114.683 -106.238 61.8581 
-117.515 -106.447 65.5314 -117.959 -105.913 66.0043 -117.206 -106.544 64.9542 
-116.643 -106.392 64.2946 -115.86 -106.529 63.2441 -115.354 -106.595 62.044 
-114.995 -106.24 61.0937 -118.244 -106.49 65.5683 -118.851 -105.807 65.9598 
-117.848 -107.11 65.0098 -117.629 -107.112 64.4652 -117.086 -106.777 63.5466 
-116.36 -106.613 62.2852 -115.861 -106.433 61.2987 -115.448 -106.101 60.5744 
-119 -106.266 65.3414 -119.57 -105.71 65.6494 -118.415 -107.158 64.8153 
-118.149 -107.709 64.4013 -117.902 -107.394 63.8223 -117.319 -106.726 62.7176 
-116.715 -106.319 61.5875 -116.316 -106.109 60.8009 -115.926 -105.923 60.0261 
-119.563 -106.047 64.8881 -119.913 -105.688 65.117 -119.05 -106.753 64.4049 
-118.644 -107.48 64.0185 -118.361 -107.524 63.7061 -117.923 -106.847 62.9832 
-117.355 -106.18 61.9061 -116.93 -105.924 60.9655 -116.631 -105.874 60.152 
-116.288 -105.809 59.2665 -112.974 -103.635 63.5099 -113.788 -103.992 63.8788 
-113.242 -103.279 63.7363 -114.082 -103.576 64.2193 -113.645 -102.781 63.8958 
-114.386 -104.364 64.7093 -114.455 -103.092 64.3701 -114.093 -102.301 63.9523 
-114.608 -103.847 65.1337 -114.67 -104.641 65.737 -114.877 -102.739 64.285 
-114.539 -101.91 63.9018 -115.059 -103.378 65.1031 -115.059 -103.964 65.9864 
-115.284 -104.787 66.2245 -115.341 -102.364 64.1321 -115.029 -101.437 63.8169 
-115.666 -103.084 64.7693 -115.884 -103.492 65.6485 -116.054 -104.05 66.1756 
-116.453 -104.983 66.1618 -115.87 -101.783 63.9856 -115.554 -100.875 63.6945 
-116.228 -102.652 64.4373 -116.646 -103.239 65.1025 -116.977 -103.683 65.6638 
-117.246 -104.39 65.9507 -117.619 -105.246 66.087 -116.431 -101.146 63.7572 
-116.038 -100.413 63.4445 -116.764 -101.991 64.1074 -117.095 -102.814 64.5793 
-117.462 -103.497 65.0513 -117.781 -104.141 65.4005 -118.163 -104.826 65.7562 
-118.609 -105.383 66.0472 -116.921 -100.601 63.4554 -116.436 -100.111 63.0574 
-117.311 -101.285 63.7846 -117.517 -102.159 64.0971 -117.726 -103.061 64.4522 
-118.022 -103.821 64.814 -118.413 -104.481 65.1828 -118.962 -105.042 65.5884 
-119.44 -105.417 65.8277 -117.28 -100.176 63.1198 -116.781 -99.9017 62.6137 
-117.748 -100.657 63.5262 -117.976 -101.439 63.7662 -118.096 -102.398 63.9439 
[...]
CELL_DATA 2000
SCALARS Distance double
LOOKUP_TABLE default
162.244 161.92 162.246 162.624 161.692 161.963 162.32 162.655 163.08 
161.437 161.738 162.072 162.383 162.794 163.154 163.603 161.044 161.416 
161.769 162.124 162.525 162.884 163.316 163.675 164.087 160.656 161.009 
161.388 161.776 162.194 162.588 163.007 163.376 163.767 164.119 164.507 
160.363 160.671 161.036 161.4 161.815 162.221 162.645 163.037 163.423 
163.784 164.159 164.53 164.924 160.091 160.38 160.709 161.058 161.448 
161.841 162.269 162.668 163.087 163.451 163.838 164.185 164.568 164.937 
165.311 159.865 160.101 160.411 160.731 161.121 161.49 161.917 162.304 
162.753 163.138 163.576 163.912 164.3 164.609 164.976 165.308 165.657 
159.741 159.913 160.218 160.48 160.89 161.211 161.643 161.98 162.411 
162.797 163.262 163.656 164.084 164.393 164.746 165.02 165.369 165.673 
166.025 161.908 161.23 161.568 161.578 160.539 160.88 160.942 161.301 
161.372 159.941 160.232 160.29 160.658 160.756 161.11 161.128 159.38 
159.675 159.694 160.018 160.071 160.441 160.443 160.776 160.713 158.758 
159.101 159.147 159.445 159.458 159.76 159.73 160.043 159.984 160.32 
160.298 158.216 158.508 158.61 158.906 158.939 159.194 159.136 159.37 
159.291 159.591 159.591 159.962 160.012 157.922 158.082 158.133 158.37 
158.353 158.627 158.524 158.779 158.648 158.925 158.898 159.264 159.344 
159.723 159.785 157.772 157.866 157.807 157.914 157.732 157.934 157.731 
158.047 157.918 158.264 158.249 158.606 158.716 159.088 159.22 159.539 
159.609 157.564 157.697 157.606 157.621 157.324 157.327 157.017 157.218 
157.146 157.529 157.657 158.031 158.213 158.541 158.722 159.03 159.165 
159.426 159.508 157.403 157.168 157.382 157.452 156.796 157.059 157.035 
157.213 157.071 156.367 156.609 156.584 156.746 156.583 156.729 156.673 
156.237 156.276 156.363 156.429 156.466 156.457 156.542 156.612 156.884 
156.573 156.395 156.539 156.468 156.698 156.63 156.91 156.831 157.184 
157.167 157.557 157.05 156.852 156.963 156.828 157.025 156.966 157.207 
157.22 157.495 157.538 157.822 157.858 158.139 157.467 157.297 157.409 
157.273 157.39 157.277 157.324 157.314 157.361 157.529 157.671 157.92 
158.142 158.325 158.58 158.008 157.764 157.907 157.723 157.85 157.653 
157.633 157.417 157.303 157.258 157.298 157.543 157.812 158.162 158.497 
158.732 159.009 158.697 158.397 158.514 158.268 158.385 158.151 158.161 
157.839 157.717 157.397 157.378 157.324 157.612 157.856 158.309 158.601 
158.973 159.146 159.384 159.543 159.156 159.488 159.715 158.56 159.036 
159.332 159.68 159.962 157.926 158.42 158.871 159.307 159.689 159.996 
160.36 157.682 157.942 158.457 158.891 159.433 159.794 160.246 160.504 
160.959 157.982 157.966 158.383 158.614 159.159 159.544 160.077 160.418 
160.895 161.178 161.704 158.434 158.378 158.695 158.716 159.134 159.346 
159.844 160.19 160.691 161.055 161.57 161.936 162.511 158.706 158.745 
159.04 159.047 159.398 159.463 159.905 160.074 160.575 160.846 161.389 
161.748 162.329 162.726 163.292 158.879 158.953 159.239 159.287 159.589 
159.692 160.108 160.255 160.755 160.906 161.448 161.659 162.234 162.544 
163.107 163.459 163.948 159.087 159.151 159.431 159.444 159.664 159.761 
160.098 160.342 160.827 161.093 161.614 161.818 162.325 162.529 163.021 
163.288 163.752 164.06 164.481 159.771 160.001 160.002 160.277 160.295 
160.3 160.661 160.636 160.988 160.684 160.654 161.074 161.076 161.467 
161.403 161.737 161.264 161.133 161.561 161.532 161.952 161.886 162.21 
162.125 162.462 162.055 161.835 162.269 162.126 162.574 162.43 162.783 
162.629 162.986 162.904 163.318 162.923 162.699 163.144 162.934 163.381 
163.163 163.532 163.296 163.646 163.491 163.901 163.811 164.183 163.699 
163.544 163.965 163.788 164.185 163.987 164.322 164.084 164.372 164.171 
164.495 164.381 164.707 164.6 164.854 164.318 164.235 164.621 164.505 
164.864 164.72 165.048 164.848 165.119 164.881 165.139 164.953 165.241 
165.108 165.382 165.236 165.476 164.84 164.788 165.175 165.09 165.461 
165.35 165.727 165.569 165.912 165.662 165.939 165.654 165.931 165.703 
166.011 165.822 166.111 165.911 166.155 165.276 166.149 165.681 165.632 
167.09 166.609 166.54 166.03 165.944 167.946 167.541 167.509 166.989 
166.9 166.364 166.258 168.748 168.381 168.392 167.926 167.843 167.337 
167.22 166.676 166.488 169.611 169.231 169.261 168.788 168.674 168.196 
168.05 167.58 167.37 166.822 166.522 170.425 170.099 170.17 169.711 
169.618 169.053 168.864 168.339 168.129 167.629 167.352 166.793 166.487 
171.028 170.799 170.895 170.591 170.621 170.106 169.951 169.273 169.005 
168.387 168.128 167.593 167.333 166.785 166.537 171.41 171.255 171.288 
171.157 171.242 171.009 170.932 170.388 170.02 169.315 168.894 168.326 
168.031 167.572 167.327 166.84 166.603 171.552 171.488 171.426 171.381 
171.385 171.377 171.303 171.091 170.684 170.157 169.544 168.986 168.517 
168.129 167.845 167.501 167.249 166.838 166.592 165.175 165.265 165.502 
166.07 165.315 165.596 166.206 166.444 167.004 165.339 165.634 166.233 
166.523 167.073 167.315 167.807 165.379 165.662 166.253 166.528 167.055 
167.309 167.798 168.054 168.56 165.41 165.701 166.312 166.58 167.14 
167.34 167.844 168.048 168.598 168.854 169.421 165.392 165.702 166.305 
166.624 167.227 167.476 168.015 168.183 168.718 168.929 169.521 169.757 
170.272 165.343 165.65 166.209 166.555 167.123 167.477 168.013 168.302 
168.785 169.033 169.551 169.828 170.357 170.564 170.946 165.279 165.575 
166.091 166.418 166.918 167.279 167.763 168.143 168.592 168.946 169.383 
169.74 170.22 170.56 170.984 171.162 171.4 165.201 165.48 165.956 
166.271 166.725 167.046 167.474 167.83 168.258 168.64 169.051 169.44 
169.851 170.274 170.681 171.051 171.325 171.496 171.57 159.339 159.817 
159.627 159.654 160.285 160.08 160.068 159.833 159.829 160.88 160.622 
160.66 160.312 160.303 160.056 160.228 161.589 161.333 161.487 161.072 
161.102 160.682 160.853 160.647 161.001 162.247 162.052 162.268 161.96 
162.039 161.596 161.701 161.379 161.703 161.532 161.879 162.84 162.651 
162.838 162.651 162.77 162.467 162.535 162.213 162.421 162.234 162.563 
162.379 162.621 163.46 163.228 163.389 163.188 163.355 163.124 163.258 
162.973 163.139 162.909 163.176 163.016 163.281 163.069 163.265 164.112 
163.868 164.056 163.808 164.03 163.777 164.007 163.719 163.943 163.648 
163.9 163.657 163.93 163.714 163.955 163.719 163.939 164.761 164.543 
164.781 164.538 164.803 164.543 164.824 164.542 164.818 164.507 164.777 
164.464 164.743 164.452 164.729 164.449 164.704 164.431 164.665 159.114 
158.921 159.23 159.645 158.895 159.084 159.503 159.755 160.134 159.086 
159.173 159.541 159.683 160.068 160.267 160.676 159.154 159.347 159.725 
159.833 160.189 160.283 160.668 160.863 161.323 159.063 159.307 159.748 
159.973 160.361 160.469 160.811 160.916 161.329 161.542 162.003 159.268 
159.32 159.788 159.972 160.436 160.599 160.967 161.071 161.449 161.602 
162.061 162.249 162.682 159.798 159.715 160.157 160.179 160.672 160.744 
161.174 161.235 161.634 161.744 162.215 162.379 162.855 162.97 163.36 
160.272 160.237 160.629 160.631 161.084 161.103 161.533 161.532 161.938 
161.979 162.452 162.577 163.08 163.194 163.611 163.661 164.006 160.596 
160.609 160.958 161.013 161.407 161.476 161.86 161.898 162.266 162.306 
162.733 162.837 163.319 163.436 163.859 163.92 164.256 164.292 164.616 
160.87 161.434 161.165 161.24 162.079 161.77 161.837 161.576 161.689 
162.842 162.476 162.544 162.214 162.302 162.037 162.139 163.712 163.314 
163.412 163.007 163.081 162.706 162.79 162.489 162.577 164.561 164.194 
164.314 163.929 164.022 163.578 163.635 163.223 163.323 162.978 163.094 
165.347 165.003 165.111 164.789 164.892 164.509 164.543 164.113 164.164 
163.786 163.907 163.559 163.681 166.093 165.766 165.853 165.542 165.628 
165.3 165.327 164.953 164.962 164.603 164.673 164.355 164.449 164.122 
164.184 166.738 166.467 166.542 166.256 166.321 166.004 166.03 165.681 
165.697 165.352 165.408 165.088 165.165 164.844 164.888 164.555 164.566 
167.285 167.052 167.122 166.883 166.941 166.665 166.689 166.371 166.391 
166.067 166.127 165.813 165.894 165.566 165.622 165.265 165.29 164.925 
164.939 167.623 168.097 167.712 167.443 168.508 168.159 167.85 167.518 
167.255 168.751 168.499 168.2 167.898 167.612 167.3 167.009 168.928 
168.719 168.493 168.226 167.956 167.643 167.352 167.031 166.731 169.228 
168.983 168.851 168.57 168.362 168.014 167.734 167.385 167.107 166.775 
166.495 169.717 169.414 169.35 169.032 168.9 168.51 168.257 167.828 
167.547 167.175 166.915 166.567 166.28 170.383 170.028 169.984 169.61 
169.497 169.105 168.878 168.421 168.107 167.661 167.368 166.994 166.704 
166.338 166.009 171.067 170.752 170.689 170.276 170.085 169.679 169.414 
169.005 168.657 168.217 167.851 167.448 167.122 166.753 166.409 166.031 
165.669 171.493 171.337 171.243 170.91 170.621 170.208 169.844 169.456 
169.073 168.684 168.279 167.887 167.51 167.147 166.791 166.422 166.042 
165.667 165.302 167.847 168.42 168.231 168.392 168.928 168.845 169.059 
168.795 168.848 169.153 169.255 169.54 169.427 169.465 169.15 169.062 
169.203 169.347 169.666 169.758 169.881 169.702 169.592 169.267 169.166 
169.345 169.379 169.627 169.771 170.005 170.024 170.045 169.792 169.684 
169.382 169.39 169.44 169.48 169.573 169.685 169.874 170.05 170.204 
170.179 170.145 169.902 169.863 169.652 169.793 169.177 169.376 169.369 
169.526 169.584 169.821 169.98 170.188 170.258 170.24 170.205 170.07 
170.161 170.095 170.374 168.638 168.938 168.984 169.217 169.285 169.496 
169.649 169.897 170.077 170.231 170.315 170.307 170.395 170.384 170.627 
170.683 171.007 168.154 168.426 168.613 168.87 169.083 169.266 169.471 
169.643 169.881 170.068 170.289 170.383 170.54 170.561 170.75 170.828 
171.085 171.208 171.424 167.625 167.392 167.703 168.115 167.028 167.395 
167.736 168.144 168.532 166.466 166.918 167.213 167.663 167.987 168.447 
168.741 165.78 166.27 166.576 167.066 167.393 167.864 168.187 168.604 
168.872 165.116 165.586 165.913 166.413 166.775 167.266 167.63 168.081 
168.443 168.817 169.113 164.474 164.944 165.28 165.779 166.155 166.652 
166.996 167.484 167.833 168.341 168.697 169.095 169.286 163.835 164.306 
164.66 165.163 165.563 166.057 166.39 166.833 167.112 167.625 167.964 
168.527 168.768 169.129 169.084 163.251 163.699 164.064 164.553 164.967 
165.474 165.85 166.273 166.555 166.952 167.271 167.77 168.08 168.515 
168.554 168.762 168.555 162.7 163.139 163.485 163.962 164.343 164.859 
165.244 165.728 166.052 166.456 166.767 167.185 167.514 167.91 168.051 
168.26 168.124 168.211 168.02 162.479 162.379 162.705 163.272 162.345 
162.622 163.216 163.54 164.133 162.435 162.632 163.188 163.495 164.123 
164.438 165.032 162.487 162.707 163.221 163.504 164.124 164.437 165.065 
165.346 165.882 162.374 162.662 163.185 163.523 164.152 164.47 165.097 
165.38 165.966 166.187 166.669 162.278 162.524 163.064 163.437 164.114 
164.491 165.115 165.403 165.953 166.233 166.756 166.971 167.398 162.337 
162.507 163.012 163.323 163.995 164.413 165.055 165.38 165.848 166.133 
166.559 166.903 167.287 167.567 167.824 162.432 162.601 163.049 163.29 
163.858 164.252 164.864 165.249 165.693 165.967 166.284 166.591 166.891 
167.243 167.442 167.743 167.834 162.454 162.656 163.065 163.289 163.742 
164.069 164.58 164.981 165.427 165.754 166.076 166.331 166.613 166.865 
167.099 167.324 167.459 167.667 167.768 162.57 162.959 162.907 163.2 
163.428 163.339 163.649 163.562 163.88 163.949 163.849 164.153 164.042 
164.35 164.274 164.647 164.424 164.358 164.657 164.552 164.828 164.736 
165.066 165.052 165.432 164.871 164.821 165.148 165.05 165.34 165.222 
165.542 165.478 165.849 165.817 166.134 165.319 165.288 165.654 165.564 
165.886 165.76 166.103 166.003 166.403 166.313 166.657 166.51 166.734 
165.694 165.715 166.085 166.055 166.376 166.297 166.619 166.551 166.937 
166.889 167.252 167.109 167.307 167.079 167.192 166.009 166.044 166.4 
166.421 166.747 166.732 167.04 167.005 167.331 167.33 167.677 167.647 
167.868 167.671 167.711 167.461 167.503 166.358 166.358 166.704 166.712 
167.066 167.08 167.447 167.422 167.749 167.693 167.996 167.981 168.252 
168.169 168.278 168.017 168 167.736 167.792 168.043 168.295 168.283 
168.58 168.567 168.601 168.883 168.875 169.12 168.523 168.729 168.995 
169.115 169.338 169.352 169.52 168.332 168.587 168.879 169.08 169.321 
169.459 169.667 169.714 169.904 168.166 168.446 168.802 168.98 169.232 
169.371 169.627 169.786 170.064 170.136 170.335 167.833 168.224 168.584 
168.883 169.106 169.278 169.482 169.692 170.018 170.232 170.52 170.551 
170.663 167.377 167.777 168.072 168.488 168.7 169.021 169.215 169.505 
169.849 170.152 170.536 170.69 170.898 170.84 170.907 167.013 167.333 
167.606 167.945 168.191 168.531 168.836 169.201 169.676 170.035 170.544 
170.742 171.051 171.053 171.183 171.096 171.197 166.701 167.011 167.312 
167.588 167.869 168.133 168.496 168.86 169.438 169.891 170.523 170.818 
171.191 171.226 171.345 171.301 171.385 171.368 171.473 157.493 157.736 
157.59 157.55 157.848 157.757 157.73 157.67 157.691 158.084 157.875 
157.801 157.747 157.765 157.77 157.791 158.648 158.265 158.144 157.888 
157.913 157.844 157.974 157.916 158.039 159.356 158.967 158.888 158.448 
158.486 158.208 158.487 158.322 158.652 158.427 158.727 159.981 159.691 
159.737 159.323 159.427 159.031 159.377 159.112 159.578 159.284 159.636 
159.305 159.623 160.615 160.348 160.51 160.19 160.389 160.04 160.385 
160.118 160.567 160.293 160.607 160.245 160.437 160.147 160.409 161.335 
161.061 161.268 160.984 161.205 160.931 161.22 161.023 161.38 161.192 
161.446 161.136 161.25 160.914 161.081 160.867 161.158 162.033 161.799 
161.996 161.739 161.912 161.662 161.859 161.691 161.96 161.846 162.085 
161.874 162.002 161.689 161.835 161.563 161.831 161.64 161.962 157.232 
157.33 157.109 156.809 157.585 157.344 157.1 156.787 156.61 157.76 
157.634 157.539 157.247 157.121 156.797 156.818 157.953 157.799 157.836 
157.703 157.737 157.447 157.462 157.157 157.277 158.554 158.167 158.223 
158.046 158.247 158.072 158.205 157.885 157.956 157.654 157.821 159.472 
158.98 159.02 158.65 158.864 158.638 158.879 158.62 158.747 158.402 
158.525 158.245 158.492 160.334 159.92 159.975 159.567 159.703 159.37 
159.564 159.298 159.479 159.186 159.334 159.017 159.216 158.97 159.247 
161.104 160.737 160.795 160.446 160.529 160.194 160.304 160.007 160.168 
159.906 160.104 159.825 160.022 159.729 159.934 159.696 159.915 161.882 
161.505 161.537 161.193 161.25 160.934 161.021 160.725 160.864 160.604 
160.805 160.567 160.777 160.511 160.677 160.392 160.535 160.295 160.45 
157.172 156.694 156.934 156.952 156.446 156.508 156.517 156.721 156.674 
156.652 156.467 156.435 156.423 156.396 156.443 156.324 157.122 156.835 
156.788 156.573 156.535 156.37 156.311 156.217 156.222 157.663 157.341 
157.274 157.008 156.973 156.715 156.713 156.474 156.561 156.403 156.597 
158.349 157.945 157.844 157.496 157.431 157.174 157.228 157.026 157.179 
156.954 157.119 156.921 157.095 159.123 158.703 158.595 158.14 158.007 
157.646 157.678 157.518 157.731 157.595 157.75 157.5 157.559 157.353 
157.478 159.791 159.449 159.355 158.921 158.748 158.289 158.222 157.973 
158.167 158.086 158.297 158.097 158.139 157.851 157.918 157.751 157.985 
160.327 160.049 159.981 159.63 159.481 159.033 158.903 158.551 158.659 
158.526 158.776 158.629 158.746 158.455 158.518 158.268 158.483 158.367 
158.69 167.28 166.729 167.038 167.072 166.081 166.446 166.475 166.791 
166.744 165.322 165.729 165.744 166.125 166.059 166.362 166.192 164.502 
164.92 164.9 165.318 165.222 165.582 165.399 165.706 165.489 163.617 
164.04 163.968 164.411 164.285 164.678 164.486 164.847 164.656 164.991 
164.812 162.745 163.122 163.013 163.436 163.304 163.711 163.527 163.908 
163.73 164.118 163.962 164.32 164.154 162.003 162.303 162.2 162.533 
162.422 162.771 162.623 162.972 162.8 163.177 163.012 163.41 163.245 
163.63 163.479 161.364 161.623 161.538 161.815 161.722 161.996 161.863 
162.141 161.969 162.279 162.098 162.455 162.289 162.681 162.547 162.959 
162.867 160.786 161.011 160.914 161.182 161.088 161.351 161.206 161.444 
161.253 161.5 161.312 161.601 161.448 161.779 161.668 162.043 161.968 
162.38 162.326 
POINT_DATA 1002
SCALARS Distance double
LOOKUP_TABLE default
162.604 162.249 161.878 162.256 161.626 163.015 162.008 161.444 162.697 
163.529 161.763 161.104 162.447 163.239 164.044 161.382 160.649 162.162 
162.968 163.743 164.475 160.999 160.321 161.785 162.635 163.418 164.142 
164.906 160.694 160.076 161.417 162.243 163.059 163.795 164.542 165.327 
160.371 159.828 161.064 161.864 162.702 163.502 164.219 164.943 165.665 
160.105 159.663 160.758 161.542 162.346 163.211 164.016 164.667 165.319 
165.99 159.974 159.586 160.577 161.335 162.054 162.834 163.742 164.496 
165.076 165.712 166.373 161.597 161.232 160.864 160.547 160.208 161.048 
159.943 159.673 160.382 160.839 159.41 159.058 159.731 160.102 160.388 
158.837 158.381 159.196 159.449 159.641 159.925 158.309 157.962 158.686 
158.937 159.024 159.21 159.64 157.977 157.829 158.117 158.258 158.379 
158.543 158.942 159.452 157.795 157.693 157.651 157.429 157.507 157.87 
158.336 158.872 159.339 157.604 157.395 157.42 156.903 156.721 157.213 
157.889 158.416 158.881 159.277 157.211 157.332 156.963 156.885 156.542 
156.89 156.402 156.161 156.466 156.395 156.269 156.284 156.421 156.512 
156.721 156.634 156.804 156.717 156.959 157.262 157.571 157.12 157.227 
157.136 157.224 157.442 157.782 158.115 157.546 157.631 157.564 157.472 
157.279 157.367 157.866 158.447 158.116 158.279 158.06 157.926 157.502 
157.13 157.398 158.175 158.871 158.798 159.015 158.63 158.467 158.09 
157.56 157.444 157.995 158.759 159.29 159.753 159.421 159.971 158.928 
159.649 160.267 158.34 159.346 160.074 160.739 158.043 158.991 159.965 
160.701 161.438 158.297 158.811 159.678 160.589 161.397 162.278 158.747 
159.041 159.551 160.305 161.179 162.134 163.121 159.02 159.355 159.798 
160.366 161.056 161.932 162.922 163.835 159.209 159.489 159.926 160.602 
161.298 161.991 162.779 163.62 164.391 159.448 159.636 159.868 160.5 
161.379 162.166 162.819 163.467 164.171 164.881 160.281 160.65 161.052 
161.046 161.527 161.824 161.616 162.022 162.308 162.5 162.451 162.741 
162.961 163.081 163.379 163.37 163.612 163.791 163.846 164.014 164.311 
164.143 164.382 164.56 164.618 164.654 164.819 164.993 164.727 164.993 
165.217 165.366 165.374 165.39 165.515 165.64 165.247 165.551 165.84 
166.124 166.246 166.198 166.206 166.314 166.382 165.7 166.098 166.65 
167.079 167.542 166.443 168.003 168.296 167.446 166.81 168.846 169.102 
168.329 167.755 167.096 169.747 169.984 169.19 168.504 167.891 167.123 
170.568 170.723 170.197 169.467 168.623 167.875 167.058 171.109 171.255 
171.01 170.656 169.731 168.664 167.848 167.093 171.404 171.574 171.355 
171.361 170.779 169.552 168.468 167.777 167.113 171.488 171.596 171.387 
171.416 171.133 170.142 168.939 168.144 167.614 167.022 164.944 165.862 
164.991 165.935 165.019 166.821 165.949 165.051 166.815 167.585 165.988 
165.098 166.822 167.528 168.283 166.018 165.114 166.929 167.671 168.336 
169.178 165.973 165.089 166.925 167.829 168.546 169.275 170.11 165.889 
165.051 166.768 167.679 168.531 169.28 170.1 170.861 165.787 165 
166.598 167.39 168.22 169.027 169.842 170.72 171.372 165.655 164.948 
166.428 167.15 167.882 168.675 169.451 170.262 171.061 171.542 159.554 
159.88 160.02 160.342 160.496 159.985 161.031 161.114 160.61 160.317 
161.856 161.8 161.577 161.119 161.125 162.502 162.44 162.449 162.092 
161.893 162.092 163.012 163.07 163.003 162.86 162.654 162.717 162.88 
163.603 163.708 163.552 163.511 163.405 163.358 163.454 163.51 164.294 
164.335 164.271 164.269 164.243 164.182 164.16 164.177 164.179 158.776 
159.361 158.628 159.264 158.794 159.886 159.461 159.003 159.901 160.419 
159.578 158.883 160.138 160.531 161.056 159.462 158.846 160.205 160.74 
161.162 161.771 159.652 159.308 160.251 160.852 161.312 161.874 162.539 
160.187 159.899 160.634 161.131 161.542 162.049 162.724 163.302 160.627 
160.29 161.074 161.545 161.925 162.348 162.96 163.558 163.975 160.91 
160.588 161.339 161.81 162.227 162.648 163.205 163.793 164.228 164.567 