# vtk DataFile Version 4.0
vtk output
ASCII
DATASET POLYDATA
POINTS 1002 float
-115.3 -101.216 49.2859 -115.44 -100.522 49.1177 -114.8 -100.727 49.1663 
-114.63 -101.463 49.3807 -114.274 -100.818 49.4134 -115.214 -101.877 49.605 
-114.163 -101.475 49.7865 -113.808 -100.778 49.8603 -114.59 -101.963 49.9198 
-115.289 -102.067 50.4124 -113.734 -101.359 50.3498 -113.227 -100.835 50.2578 
-114.152 -101.839 50.4933 -114.754 -102.002 50.945 -115.461 -102.053 51.4798 
-113.073 -101.414 50.7797 -112.535 -101.006 50.5737 -113.614 -101.755 51.053 
-114.209 -101.959 51.5139 -114.931 -102.138 52.0082 -115.499 -102.395 52.3559 
-112.279 -101.58 51.1585 -111.958 -101.037 51.0549 -112.812 -101.909 51.474 
-113.431 -102.039 51.9909 -114.147 -102.276 52.4862 -114.85 -102.606 52.8342 
-115.343 -102.746 53.2302 -111.658 -101.609 51.6757 -111.554 -100.955 51.6747 
-111.99 -102.184 51.866 -112.561 -102.345 52.358 -113.206 -102.408 52.8989 
-113.93 -102.7 53.2808 -114.634 -102.861 53.6971 -115.229 -102.834 54.287 
-111.258 -101.524 52.272 -111.131 -100.965 52.2256 -111.396 -102.34 52.2963 
-111.806 -102.851 52.5633 -112.411 -102.833 53.0679 -113.101 -102.832 53.5575 
-113.877 -102.943 54.019 -114.63 -102.985 54.5755 -115.299 -103.258 55.1258 
-110.929 -101.446 52.8615 -110.638 -101.058 52.6994 -111.057 -102.243 52.8284 
-111.257 -103.119 52.8076 -111.74 -103.419 53.0694 -112.454 -103.276 53.5792 
-113.299 -103.186 54.1518 -114.132 -103.176 54.7131 -114.842 -103.406 55.2129 
-115.435 -104.069 55.5699 -110.602 -101.429 53.4113 -110.219 -101.133 53.1741 
-110.842 -102.012 53.4406 -110.97 -102.891 53.3301 -111.235 -103.536 53.3755 
-111.812 -103.627 53.7436 -112.682 -103.511 54.3053 -113.643 -103.424 54.8743 
-114.442 -103.451 55.353 -115.031 -103.844 55.7041 -115.496 -104.557 55.9285 
-115.158 -100.121 48.8615 -114.558 -100.191 49.013 -114.825 -99.7474 48.5168 
-114.204 -99.7046 48.7402 -114.416 -99.184 48.2284 -113.978 -100.18 49.3341 
-113.797 -99.1104 48.5127 -114.087 -98.2998 48.1771 -113.533 -99.6957 49.0746 
-113.351 -100.238 49.6963 -113.545 -98.2567 48.5281 -113.901 -97.3286 48.2656 
-113.161 -99.1807 48.865 -112.839 -99.8835 49.3515 -112.676 -100.449 49.9693 
-113.364 -97.3626 48.6084 -113.59 -96.6744 48.1438 -112.953 -98.3751 48.8939 
-112.485 -99.3483 49.1724 -112.208 -100.008 49.6931 -112.115 -100.52 50.4091 
-113.04 -96.8202 48.5181 -113.078 -96.3946 47.7749 -112.688 -97.5466 48.9507 
-112.185 -98.5132 49.209 -111.846 -99.2883 49.6581 -111.783 -99.854 50.3821 
-111.743 -100.417 51.1071 -112.634 -96.5352 48.4009 -112.651 -96.1201 47.5487 
-112.294 -97.0401 48.9291 -111.817 -97.8086 49.2137 -111.525 -98.5715 49.6931 
-111.466 -99.1685 50.4315 -111.442 -99.8288 51.1429 -111.308 -100.477 51.7123 
-112.257 -96.1077 48.4156 -112.42 -95.6156 47.6739 -111.861 -96.6299 48.9226 
-111.422 -97.3096 49.2046 -111.25 -98.062 49.6986 -111.239 -98.6754 50.4657 
-111.105 -99.3372 51.1291 -110.848 -100.113 51.6082 -110.663 -100.699 52.116 
-111.925 -95.5194 48.5036 -112.25 -95.0374 47.9866 -111.483 -96.0957 48.9286 
-111.084 -96.7601 49.2595 -110.989 -97.5063 49.7957 -111.049 -98.1902 50.5711 
-110.878 -98.8504 51.1953 -110.464 -99.6389 51.5523 -110.126 -100.37 51.9416 
-110.069 -100.835 52.5301 -111.794 -94.8398 48.5277 -111.348 -95.414 48.8938 
-111.36 -94.9124 49.0638 -111.027 -95.517 49.5487 -111.106 -95.0827 50.0713 
-110.96 -96.0676 49.3154 -110.878 -95.5811 50.7595 -110.638 -94.9678 51.3327 
-110.871 -96.1235 50.2428 -110.824 -96.7678 49.9496 -110.332 -95.5194 51.7201 
-109.92 -94.8443 51.9692 -110.694 -96.2144 51.3443 -110.732 -96.7981 51.0205 
-110.827 -97.5086 50.7735 -109.631 -95.7208 51.9999 -109.608 -95.2694 52.1946 
-109.965 -96.4254 51.8175 -110.151 -97.0384 51.6586 -110.302 -97.6136 51.5592 
-110.606 -98.2767 51.3953 -109.318 -96.1662 52.584 -109.658 -95.905 52.9231 
-109.238 -96.6656 52.2676 -109.277 -97.3434 51.9822 -109.437 -97.9781 51.8669 
-109.796 -98.5382 51.8358 -110.151 -99.1229 51.6929 -109.185 -96.4622 53.7295 
-109.602 -96.261 53.9805 -108.904 -96.7698 53.3387 -108.755 -97.3882 52.8475 
-108.862 -98.2206 52.4695 -109.252 -98.8677 52.3362 -109.578 -99.3694 52.2168 
-109.771 -99.9257 52.0238 -109.164 -96.7232 54.6203 -109.618 -96.5558 54.6936 
-108.874 -96.9786 54.3315 -108.665 -97.4765 53.8752 -108.656 -98.2797 53.4465 
-109.05 -99.0087 53.2307 -109.484 -99.4714 53.0992 -109.581 -99.968 52.8513 
-109.672 -100.51 52.6114 -109.458 -97.1928 54.9993 -109.937 -97.0368 55.0053 
-109.152 -97.4714 54.821 -108.91 -97.9265 54.4989 -108.694 -98.5642 54.1997 
-108.822 -99.1581 54.0753 -109.31 -99.5361 54.0417 -109.621 -99.9347 53.867 
-109.653 -100.485 53.5568 -109.814 -100.932 53.3097 -110.152 -101.38 53.8569 
-109.795 -101.168 54.104 -109.995 -101.742 54.4834 -109.603 -100.694 54.4291 
-109.568 -101.575 54.8064 -109.643 -102.143 55.0856 -109.351 -100.138 54.7201 
-109.231 -101.109 55.18 -109.163 -101.997 55.4933 -109.378 -102.41 55.8605 
-108.902 -99.781 54.8076 -108.873 -100.521 55.4755 -108.863 -101.512 55.9396 
-109.036 -102.185 56.355 -109.581 -102.427 56.8005 -108.731 -99.4699 54.7837 
-108.697 -100.063 55.6229 -108.73 -100.803 56.3168 -108.915 -101.651 56.8366 
-109.405 -102.105 57.3121 -110.185 -102.264 57.6396 -109.048 -98.968 54.8562 
-109.019 -99.6319 55.6986 -108.933 -100.087 56.5964 -108.98 -100.843 57.2164 
-109.325 -101.561 57.7378 -110.036 -101.929 58.0957 -110.822 -102.154 58.2818 
-109.421 -98.4081 55.0352 -109.523 -99.13 55.7286 -109.393 -99.4897 56.6966 
-109.303 -100.036 57.4132 -109.456 -100.819 57.969 -109.986 -101.405 58.4097 
-110.715 -101.808 58.6432 -111.304 -102.2 58.9193 -109.71 -97.9834 55.1901 
-109.885 -98.6838 55.7086 -109.797 -99.0659 56.5884 -109.704 -99.4814 57.3628 
-109.822 -100.161 57.9553 -110.203 -100.784 58.494 -110.794 -101.253 58.8487 
-111.314 -101.742 59.1674 -111.657 -102.255 59.6707 -110.1 -97.7168 55.2469 
-110.234 -98.3595 55.6776 -110.158 -98.7685 56.4307 -110.067 -99.1234 57.2189 
-110.188 -99.6663 57.8526 -110.502 -100.23 58.4518 -110.971 -100.669 58.9408 
-111.439 -101.127 59.3113 -111.731 -101.673 59.7968 -111.95 -102.213 60.3953 
-110.501 -101.753 54.0211 -110.29 -102.111 54.6227 -110.748 -102.35 54.0324 
-110.011 -102.444 55.3736 -110.636 -102.586 54.8454 -110.947 -103.078 54.0876 
-109.99 -102.657 56.3182 -110.591 -102.834 55.8982 -111.002 -103.096 55.2837 
-111.299 -103.496 54.3947 -110.427 -102.594 57.1997 -110.8 -102.984 56.8286 
-111.155 -103.234 56.4558 -111.452 -103.406 55.7578 -111.996 -103.582 54.8688 
-111.064 -102.398 57.9178 -111.315 -102.79 57.5286 -111.539 -103.252 57.1924 
-111.752 -103.488 56.7811 -112.249 -103.568 56.0961 -113.027 -103.578 55.3509 
-111.546 -102.441 58.7001 -111.865 -102.633 58.3755 -112.147 -103.013 57.9991 
-112.34 -103.433 57.6145 -112.676 -103.584 57.1242 -113.347 -103.549 56.4556 
-114.037 -103.508 55.7941 -111.842 -102.659 59.6377 -112.213 -102.863 59.4484 
-112.636 -103.032 59.1556 -112.962 -103.327 58.8071 -113.255 -103.524 58.3394 
-113.716 -103.447 57.6732 -114.294 -103.396 56.8727 -114.749 -103.601 56.1564 
-112.117 -102.744 60.5102 -112.476 -103.142 60.4229 -112.921 -103.37 60.1979 
-113.304 -103.538 59.9593 -113.651 -103.653 59.6139 -114.062 -103.523 58.9942 
-114.513 -103.287 58.126 -114.911 -103.445 57.1866 -115.229 -104.043 56.4038 
-112.383 -102.473 61.0811 -112.741 -103.05 61.1445 -113.08 -102.751 61.511 
-113.582 -103.387 61.5108 -113.822 -103.089 61.9158 -113.197 -103.552 60.9552 
-114.285 -103.873 62.0135 -114.223 -103.39 62.621 -113.994 -104.063 61.2988 
-113.557 -103.913 60.7062 -114.621 -104.349 62.727 -114.516 -103.429 63.1759 
-114.645 -104.744 61.8412 -114.244 -104.608 61.0216 -113.869 -104.112 60.4604 
-114.992 -104.333 63.0128 -115.389 -103.21 63.2116 -115.015 -105.076 62.4042 
-114.929 -105.226 61.404 -114.58 -104.778 60.6008 -114.31 -104.015 59.9758 
-115.847 -103.85 62.8888 -116.679 -103.026 63.1697 -115.31 -104.506 62.5288 
-115.275 -104.966 61.7968 -115.246 -105.02 60.7357 -115.031 -104.364 59.9181 
-114.78 -103.574 59.1593 -116.898 -103.516 62.7431 -117.551 -103.007 63.0347 
-115.986 -103.731 62.3543 -115.494 -103.948 61.9187 -115.509 -104.333 61.0098 
-115.531 -104.229 59.9018 -115.363 -103.653 59.025 -115.131 -103.364 58.146 
-117.645 -103.466 62.3461 -117.846 -102.978 62.4125 -116.992 -103.539 61.9993 
-116.25 -103.404 61.6443 -115.903 -103.551 61.0221 -115.867 -103.666 59.9589 
-115.791 -103.498 58.8861 -115.614 -103.584 57.9813 -115.425 -103.936 57.1319 
-118.115 -103.346 61.6547 -118.073 -102.805 61.5517 -117.851 -103.56 61.4463 
-117.298 -103.454 61.1005 -116.792 -103.425 60.6061 -116.527 -103.442 59.7635 
-116.34 -103.338 58.7223 -116.118 -103.64 57.7758 -115.912 -104.418 56.9811 
-115.727 -104.851 56.3619 -112.074 -101.772 60.6227 -112.518 -102.047 61.188 
-112.129 -101.27 60.8297 -112.664 -101.56 61.2222 -112.12 -100.672 61.1542 
-113.236 -102.383 61.543 -112.862 -100.906 61.3743 -112.251 -100.04 61.4382 
-113.491 -101.915 61.5349 -113.898 -102.668 62.0916 -113.138 -100.213 61.4893 
-112.625 -99.5244 61.3865 -113.856 -101.252 61.6025 -114.204 -102.122 62.1391 
-114.246 -102.65 62.8393 -113.468 -99.6409 61.3623 -113.079 -98.982 61.1654 
-114.169 -100.544 61.5616 -114.682 -101.542 61.9948 -114.703 -102.01 62.6355 
-114.876 -102.389 63.1362 -113.893 -99.065 61.1587 -113.523 -98.3456 61.0149 
-114.463 -99.8221 61.3954 -115.074 -100.855 61.7088 -115.305 -101.663 62.0856 
-115.555 -101.885 62.6256 -116.185 -102.274 63.1156 -114.421 -98.5435 60.9303 
-114.037 -97.9261 60.759 -114.886 -99.1255 61.2169 -115.449 -99.9141 61.5424 
-115.798 -101.009 61.6807 -116.066 -101.744 61.922 -116.689 -101.982 62.5636 
-117.33 -102.379 63.1023 -114.943 -98.2043 60.5838 -114.591 -97.7899 60.3076 
-115.329 -98.6576 60.9154 -115.832 -99.1419 61.3444 -116.254 -99.9445 61.5855 
-116.485 -101.015 61.59 -116.853 -101.75 61.8266 -117.363 -102.064 62.357 
-117.695 -102.443 62.635 -115.371 -97.9252 60.1979 -115.058 -97.7028 59.8145 
-115.678 -98.3182 60.5159 -116.097 -98.7828 60.8834 -116.577 -99.2396 61.2781 
[...]
CELL_DATA 2000
SCALARS Distance double
LOOKUP_TABLE default
159.784 159.499 159.814 160.199 159.279 159.569 159.937 160.252 160.641 
159.055 159.362 159.732 160.017 160.389 160.697 161.085 158.778 159.111 
159.48 159.794 160.155 160.465 160.871 161.183 161.592 158.495 158.807 
159.159 159.498 159.843 160.186 160.574 160.95 161.379 161.708 162.064 
158.288 158.535 158.872 159.184 159.541 159.861 160.212 160.583 160.979 
161.399 161.768 162.104 162.4 158.16 158.359 158.684 158.951 159.346 
159.624 159.991 160.259 160.62 160.969 161.362 161.741 162.107 162.431 
162.828 158.052 158.248 158.569 158.805 159.203 159.478 159.872 160.107 
160.459 160.703 161.104 161.413 161.854 162.169 162.625 162.961 163.488 
157.963 158.159 158.491 158.705 159.074 159.336 159.714 159.976 160.316 
160.564 160.938 161.234 161.685 161.997 162.453 162.766 163.227 163.613 
164.088 159.478 158.923 159.187 159.178 158.272 158.595 158.567 158.885 
158.917 157.515 157.892 157.874 158.225 158.232 158.605 158.66 156.774 
157.143 157.175 157.528 157.548 157.9 157.948 158.335 158.395 156.095 
156.45 156.504 156.859 156.9 157.236 157.269 157.629 157.702 158.083 
158.153 155.455 155.809 155.855 156.195 156.214 156.564 156.571 156.941 
157.008 157.41 157.537 157.899 157.995 154.885 155.222 155.286 155.565 
155.549 155.858 155.873 156.235 156.331 156.734 156.911 157.311 157.474 
157.795 157.889 154.378 154.693 154.751 155.005 154.959 155.224 155.268 
155.608 155.784 156.145 156.36 156.723 156.903 157.254 157.361 157.675 
157.75 153.912 154.177 154.181 154.438 154.381 154.647 154.713 155.07 
155.31 155.685 155.923 156.237 156.375 156.678 156.756 157.088 157.161 
157.509 157.615 153.69 153.443 153.644 153.87 153.505 153.505 153.674 
153.837 154.09 153.697 153.709 153.885 153.85 154.103 154.18 154.537 
153.538 153.783 154.054 154.144 154.389 154.383 154.717 154.794 155.21 
153.358 153.528 153.847 154.128 154.392 154.563 154.784 154.945 155.264 
155.453 155.791 153.706 153.557 153.767 153.887 154.138 154.363 154.567 
154.818 155.068 155.353 155.648 155.897 156.167 154.273 154.027 154.076 
153.965 154.116 154.17 154.43 154.603 154.956 155.171 155.535 155.728 
156.035 156.226 156.51 154.755 154.522 154.541 154.342 154.448 154.335 
154.605 154.646 155.099 155.236 155.715 155.8 156.166 156.209 156.516 
156.627 156.945 155.324 155.033 155.129 154.87 155.047 154.825 155.099 
154.992 155.405 155.469 155.954 156.062 156.462 156.481 156.786 156.778 
157.088 157.144 157.466 157.749 157.424 157.763 158.11 157.124 157.452 
157.806 158.125 158.41 156.757 157.113 157.423 157.787 158.086 158.389 
158.646 156.263 156.666 156.939 157.339 157.661 158.043 158.364 158.664 
159.004 155.826 156.201 156.543 156.878 157.232 157.614 158.024 158.392 
158.804 159.116 159.547 155.614 155.929 156.403 156.643 157.032 157.286 
157.705 158.06 158.526 158.902 159.367 159.7 160.15 155.554 155.847 
156.384 156.625 157.031 157.199 157.553 157.806 158.244 158.61 159.102 
159.484 159.962 160.295 160.742 155.584 155.833 156.36 156.618 157.026 
157.198 157.507 157.696 158.086 158.383 158.877 159.231 159.734 160.085 
160.551 160.875 161.309 155.741 155.906 156.409 156.614 157.027 157.181 
157.494 157.649 158.016 158.265 158.737 159.052 159.541 159.87 160.325 
160.656 161.074 161.403 161.798 158.048 158.388 158.34 158.587 158.669 
158.662 158.913 158.886 159.159 158.921 158.924 159.218 159.215 159.511 
159.483 159.775 159.318 159.253 159.625 159.588 159.943 159.871 160.166 
160.099 160.377 159.871 159.754 160.153 160.09 160.495 160.386 160.688 
160.541 160.826 160.729 161.041 160.462 160.336 160.692 160.627 161.02 
160.951 161.271 161.117 161.397 161.253 161.606 161.491 161.839 161.072 
160.938 161.289 161.169 161.557 161.472 161.853 161.72 162.043 161.874 
162.216 162.092 162.458 162.32 162.622 161.679 161.575 161.987 161.834 
162.262 162.105 162.554 162.387 162.789 162.579 162.905 162.711 163.016 
162.887 163.188 163.061 163.353 162.198 162.174 162.639 162.556 163.02 
162.879 163.333 163.165 163.583 163.375 163.691 163.432 163.647 163.425 
163.645 163.538 163.837 163.78 164.128 162.583 163.377 163.031 163.111 
164.246 163.895 164.02 163.582 163.573 165.103 164.818 164.983 164.537 
164.542 164.017 163.917 165.755 165.649 165.93 165.55 165.572 165.01 
164.89 164.321 164.155 166.177 166.176 166.536 166.396 166.486 166.042 
165.883 165.292 165.056 164.488 164.232 166.672 166.533 166.698 166.701 
166.747 166.671 166.508 166.164 165.827 165.31 164.931 164.421 164.096 
167.264 167.024 166.907 166.719 166.538 166.562 166.385 166.407 166.082 
165.847 165.383 164.985 164.589 164.209 163.981 167.545 167.475 167.326 
166.998 166.689 166.417 166.197 166.141 165.93 165.849 165.486 165.256 
164.914 164.645 164.497 164.213 164.176 167.443 167.575 167.577 167.397 
167.162 166.782 166.542 166.229 166.073 165.83 165.612 165.349 165.144 
164.94 164.938 164.764 164.87 164.566 164.576 162.384 162.238 162.578 
163.122 162.024 162.404 162.978 163.356 163.962 161.804 162.185 162.805 
163.217 163.838 164.205 164.774 161.649 161.986 162.626 163.063 163.718 
164.081 164.57 164.896 165.332 161.534 161.84 162.427 162.877 163.569 
163.973 164.454 164.687 165.023 165.34 165.765 161.412 161.706 162.228 
162.643 163.307 163.784 164.341 164.607 164.959 165.14 165.597 165.904 
166.455 161.361 161.607 162.108 162.435 163.018 163.474 164.062 164.452 
164.891 165.131 165.577 165.862 166.434 166.72 167.177 161.422 161.611 
162.081 162.332 162.835 163.195 163.726 164.137 164.609 164.972 165.387 
165.752 166.173 166.571 166.908 167.228 167.384 161.497 161.666 162.054 
162.28 162.705 163.009 163.465 163.822 164.252 164.627 165.011 165.408 
165.726 166.126 166.317 166.7 166.77 167.134 167.163 156.053 156.705 
156.477 156.668 157.162 157.05 157.2 157.046 157.201 157.481 157.414 
157.617 157.516 157.675 157.513 157.653 158.041 157.835 158.135 157.985 
158.248 158.04 158.23 158.005 158.213 158.788 158.525 158.806 158.621 
158.915 158.692 158.897 158.644 158.856 158.65 158.925 159.334 159.152 
159.304 159.22 159.454 159.334 159.494 159.28 159.426 159.255 159.511 
159.386 159.688 159.796 159.57 159.647 159.562 159.788 159.764 159.981 
159.831 159.972 159.781 160.01 159.911 160.238 160.14 160.448 160.44 
160.115 160.207 159.965 160.205 160.113 160.431 160.323 160.553 160.352 
160.569 160.418 160.74 160.659 161.006 160.893 161.188 161.129 160.841 
160.966 160.657 160.863 160.653 160.957 160.827 161.11 160.945 161.178 
161.004 161.293 161.18 161.53 161.436 161.764 161.629 161.91 155.82 
155.775 156.033 156.495 155.753 156.005 156.445 156.676 156.998 155.735 
155.976 156.422 156.639 156.95 157.078 157.309 155.866 156.013 156.486 
156.655 157.023 157.101 157.376 157.456 157.834 156.216 156.262 156.739 
156.816 157.242 157.28 157.644 157.663 158.086 158.177 158.646 156.561 
156.634 157.068 157.127 157.538 157.575 157.963 157.994 158.412 158.486 
158.922 158.992 159.315 156.731 156.869 157.247 157.373 157.741 157.846 
158.203 158.283 158.629 158.728 159.088 159.208 159.532 159.569 159.814 
156.863 156.976 157.329 157.462 157.818 157.97 158.338 158.466 158.786 
158.869 159.153 159.273 159.595 159.733 160.063 160.106 160.413 157.097 
157.145 157.496 157.567 157.927 158.045 158.446 158.586 158.958 159.029 
159.312 159.353 159.654 159.776 160.153 160.301 160.668 160.736 161.05 
157.39 157.975 157.707 157.764 158.574 158.298 158.358 158.093 158.185 
159.198 158.908 158.995 158.721 158.84 158.569 158.712 159.866 159.549 
159.623 159.359 159.487 159.242 159.38 159.12 159.225 160.555 160.219 
160.238 159.959 160.039 159.831 159.954 159.747 159.825 159.563 159.579 
161.199 160.888 160.898 160.583 160.634 160.369 160.488 160.282 160.409 
160.16 160.213 159.894 159.929 161.754 161.497 161.563 161.273 161.371 
161.046 161.18 160.888 161.068 160.796 160.938 160.604 160.686 160.329 
160.431 162.293 162.052 162.169 161.937 162.09 161.813 161.956 161.648 
161.806 161.518 161.669 161.361 161.45 161.11 161.183 160.861 160.95 
162.88 162.633 162.764 162.541 162.7 162.48 162.611 162.364 162.47 
162.22 162.323 162.06 162.119 161.817 161.839 161.546 161.586 161.312 
161.344 163.249 163.776 163.395 163.157 164.263 163.924 163.696 163.31 
163.074 164.657 164.374 164.153 163.815 163.552 163.198 162.955 165.043 
164.741 164.533 164.229 163.97 163.632 163.363 163.039 162.802 165.604 
165.197 164.999 164.637 164.405 164.043 163.781 163.439 163.198 162.885 
162.656 166.182 165.795 165.57 165.182 164.942 164.527 164.262 163.878 
163.63 163.292 163.038 162.715 162.441 166.443 166.204 165.938 165.691 
165.445 165.084 164.785 164.378 164.098 163.735 163.454 163.095 162.774 
162.443 162.143 166.58 166.348 166.113 165.942 165.768 165.518 165.249 
164.877 164.557 164.185 163.876 163.507 163.159 162.784 162.448 162.138 
161.875 166.937 166.619 166.48 166.206 166.112 165.846 165.65 165.303 
164.982 164.608 164.261 163.9 163.533 163.16 162.788 162.45 162.142 
161.876 161.619 163.426 163.774 163.714 163.918 164.017 163.998 164.213 
164.193 164.39 164.332 164.248 164.483 164.467 164.718 164.662 164.819 
164.846 164.687 164.927 164.807 165.087 165.015 165.236 165.097 165.237 
165.277 165.242 165.455 165.298 165.464 165.373 165.593 165.528 165.756 
165.605 165.818 165.262 165.483 165.665 165.671 165.684 165.633 165.76 
165.81 166.148 166.159 166.503 166.313 166.486 164.923 165.249 165.425 
165.62 165.653 165.711 165.846 165.946 166.382 166.534 167.056 167.014 
167.252 166.915 166.849 164.714 164.92 165.117 165.298 165.443 165.603 
165.881 166.066 166.554 166.77 167.316 167.45 167.753 167.598 167.538 
167.127 166.952 164.833 164.894 165.127 165.145 165.307 165.424 165.735 
166.031 166.483 166.82 167.192 167.472 167.661 167.809 167.789 167.673 
167.529 167.22 167.166 163.179 162.925 163.228 163.535 162.58 162.923 
163.245 163.553 163.81 162.147 162.512 162.846 163.234 163.577 163.845 
164.135 161.71 162.066 162.404 162.818 163.229 163.599 163.951 164.22 
164.575 161.261 161.641 161.983 162.39 162.792 163.216 163.579 163.943 
164.238 164.6 164.907 160.748 161.169 161.499 161.934 162.293 162.744 
163.097 163.508 163.771 164.136 164.333 164.741 164.89 160.24 160.648 
160.967 161.397 161.722 162.182 162.545 163.009 163.348 163.699 163.887 
164.156 164.24 164.566 164.612 159.789 160.173 160.503 160.888 161.208 
161.611 161.964 162.438 162.847 163.292 163.571 163.814 163.864 164.021 
164.037 164.302 164.408 159.339 159.727 160.057 160.448 160.784 161.157 
161.501 161.905 162.289 162.757 163.092 163.46 163.563 163.724 163.689 
163.845 163.935 164.233 164.479 159.172 159.126 159.395 159.891 159.143 
159.367 159.911 160.167 160.668 159.343 159.467 160.034 160.254 160.841 
160.999 161.458 159.659 159.749 160.305 160.466 161.081 161.235 161.738 
161.803 162.229 159.908 160.054 160.58 160.741 161.299 161.478 161.959 
162.064 162.444 162.545 162.939 160.041 160.241 160.726 160.919 161.407 
161.626 162.108 162.262 162.637 162.714 163.015 163.14 163.396 160.079 
160.31 160.755 160.971 161.415 161.658 162.198 162.429 162.948 163.002 
163.325 163.261 163.444 163.454 163.586 160.043 160.289 160.719 160.954 
161.384 161.629 162.172 162.497 163.142 163.361 163.807 163.717 163.881 
163.672 163.792 163.695 163.889 159.986 160.222 160.66 160.911 161.356 
161.594 162.078 162.411 163 163.405 163.894 164.077 164.261 164.155 
164.239 164.084 164.298 164.199 164.492 160.1 160.538 160.47 160.794 
160.986 160.935 161.282 161.208 161.52 161.401 161.357 161.711 161.686 
162.024 161.931 162.252 161.863 161.77 162.1 162.085 162.448 162.412 
162.765 162.698 163.113 162.314 162.228 162.528 162.492 162.865 162.836 
163.172 163.137 163.492 163.535 163.911 162.677 162.631 162.926 162.908 
163.282 163.275 163.597 163.524 163.757 163.76 164.025 164.133 164.301 
163.193 163.073 163.42 163.319 163.673 163.653 163.981 163.932 164.145 
164.043 164.255 164.233 164.463 164.423 164.466 163.951 163.789 164.227 
163.978 164.289 164.084 164.335 164.252 164.481 164.423 164.669 164.602 
164.907 164.79 165 164.717 164.703 164.582 164.571 165.041 164.859 
165.117 164.795 164.894 164.639 164.759 164.685 164.907 164.949 165.244 
165.269 165.512 165.36 165.404 165.031 164.918 165.107 165.56 165.375 
165.335 165.666 165.67 165.586 165.436 165.389 165.404 165.584 165.553 
165.551 165.542 165.53 165.759 165.076 165.278 165.358 165.453 165.523 
165.614 165.895 166.051 166.48 164.994 165.09 165.302 165.368 165.537 
165.597 165.807 166.013 166.363 166.673 167.048 165.232 165.212 165.471 
165.466 165.709 165.715 165.891 165.923 166.108 166.342 166.662 167.059 
167.392 165.51 165.527 165.679 165.644 165.761 165.832 166.005 166.059 
166.209 166.227 166.467 166.669 167.047 167.374 167.623 165.418 165.63 
165.645 165.678 165.553 165.67 165.71 165.974 166.142 166.323 166.511 
166.637 166.934 167.141 167.431 167.585 167.608 164.904 165.269 165.245 
165.409 165.207 165.318 165.253 165.528 165.682 166.033 166.207 166.502 
166.683 166.987 167.227 167.463 167.577 167.568 167.435 153.828 154.156 
153.872 153.733 154.656 154.244 154.019 153.792 153.845 155.358 154.897 
154.796 154.33 154.415 154.157 154.437 156.088 155.704 155.77 155.323 
155.503 155.061 155.35 154.985 155.258 156.769 156.438 156.517 156.232 
156.411 156.13 156.35 156.013 156.19 155.801 155.937 157.537 157.161 
157.2 156.886 156.997 156.807 156.992 156.817 156.962 156.673 156.755 
156.41 156.542 158.347 157.99 158.066 157.651 157.747 157.407 157.613 
157.388 157.628 157.377 157.529 157.196 157.324 157.015 157.223 159.03 
158.778 158.93 158.575 158.72 158.308 158.518 158.163 158.431 158.12 
158.321 157.981 158.111 157.786 157.962 157.708 157.959 159.597 159.414 
159.623 159.391 159.601 159.286 159.495 159.14 159.353 158.999 159.159 
158.792 158.886 158.546 158.679 158.42 158.644 158.437 158.697 153.632 
153.712 153.655 153.62 153.919 153.844 154 153.831 153.805 154.339 
154.133 154.279 154.221 154.273 154.025 153.894 154.917 154.547 154.414 
154.353 154.34 154.318 154.215 154.039 153.984 155.576 155.098 154.785 
154.471 154.315 154.245 154.233 154.225 154.307 154.242 154.455 156.29 
155.796 155.579 155.045 154.909 154.493 154.57 154.38 154.665 154.6 
154.948 154.869 155.174 157.044 156.585 156.491 155.979 155.947 155.411 
155.521 155.095 155.409 155.169 155.57 155.415 155.728 155.566 155.776 
157.817 157.387 157.331 156.894 156.893 156.458 156.543 156.141 156.351 
156.044 156.347 156.113 156.383 156.154 156.344 156.127 156.303 158.574 
158.172 158.13 157.719 157.716 157.327 157.388 157.039 157.179 156.893 
157.107 156.868 157.089 156.839 157.017 156.751 156.917 156.685 156.877 
153.548 153.442 153.393 153.333 153.51 153.359 153.265 153.287 153.396 
153.606 153.442 153.34 153.314 153.405 153.465 153.561 153.832 153.598 
153.567 153.472 153.576 153.536 153.523 153.488 153.379 154.39 154.024 
154.044 153.819 153.954 153.806 153.812 153.569 153.41 153.254 153.243 
155.088 154.718 154.704 154.395 154.466 154.25 154.297 154.007 153.939 
153.585 153.622 153.436 153.699 155.664 155.369 155.336 155.041 155.037 
154.771 154.773 154.515 154.507 154.221 154.282 154.037 154.241 154.09 
154.343 156.196 155.909 155.92 155.642 155.68 155.371 155.373 155.042 
155.031 154.755 154.818 154.632 154.783 154.637 154.81 154.667 154.831 
156.774 156.475 156.516 156.248 156.35 156.06 156.134 155.756 155.766 
155.372 155.426 155.148 155.311 155.132 155.333 155.156 155.346 155.163 
155.378 162.845 162.279 162.584 162.615 161.777 162.061 162.12 162.369 
162.335 161.241 161.562 161.629 161.902 161.879 162.062 161.942 160.563 
160.937 160.945 161.316 161.261 161.55 161.404 161.612 161.461 159.82 
160.18 160.117 160.507 160.399 160.782 160.628 160.961 160.791 161.083 
160.952 159.128 159.432 159.352 159.677 159.561 159.892 159.755 160.108 
159.981 160.33 160.202 160.532 160.421 158.498 158.762 158.674 158.96 
158.85 159.126 158.982 159.279 159.151 159.499 159.387 159.74 159.626 
159.976 159.895 157.883 158.13 158.005 158.285 158.154 158.433 158.256 
158.529 158.338 158.662 158.51 158.886 158.76 159.147 159.056 159.454 
159.415 157.269 157.493 157.333 157.598 157.447 157.723 157.543 157.797 
157.582 157.85 157.661 157.996 157.863 158.251 158.165 158.584 158.546 
158.979 158.965 
POINT_DATA 1002
SCALARS Distance double
LOOKUP_TABLE default
160.146 159.76 159.445 159.852 159.202 160.598 159.653 158.983 160.306 
161.021 159.45 158.731 160.095 160.767 161.47 159.153 158.45 159.838 
160.534 161.316 161.991 158.82 158.216 159.504 160.189 161.003 161.819 
162.384 158.569 158.08 159.23 159.891 160.559 161.377 162.11 162.707 
158.43 157.971 159.055 159.754 160.329 160.972 161.737 162.477 163.302 
158.345 157.842 158.932 159.625 160.238 160.811 161.532 162.295 163.104 
164.057 158.291 157.757 158.839 159.453 160.065 160.644 161.361 162.164 
162.9 163.678 164.528 159.229 158.888 158.651 158.247 157.918 158.565 
157.513 157.114 157.863 158.267 156.804 156.405 157.21 157.572 158.006 
156.143 155.738 156.566 156.928 157.309 157.793 155.546 155.082 155.877 
156.201 156.587 157.129 157.689 155.04 154.533 155.273 155.499 155.92 
156.488 157.117 157.617 154.508 154.093 154.705 154.902 155.406 156.028 
156.564 157.03 157.439 153.933 153.711 154.104 154.335 154.903 155.623 
156.119 156.442 156.797 157.248 153.428 153.574 153.328 153.615 153.573 
153.834 153.941 153.58 154.102 154.374 153.83 153.204 154.393 154.675 
155.105 153.55 153.32 154.163 154.623 155.056 155.632 153.802 153.996 
153.95 154.305 154.777 155.372 155.942 154.285 154.541 154.144 154.259 
154.729 155.365 155.87 156.294 154.743 154.983 154.598 154.604 154.954 
155.615 156.166 156.464 156.792 155.374 155.615 155.271 155.274 155.42 
155.84 156.407 156.815 157.081 157.393 158.098 157.8 158.433 157.477 
158.143 158.654 157.05 157.743 158.373 158.912 156.544 157.226 158.014 
158.708 159.393 156.22 156.867 157.604 158.456 159.249 160.001 156.148 
156.843 157.39 158.123 159.002 159.851 160.599 156.119 156.886 157.366 
157.906 158.706 159.599 160.438 161.189 156.109 156.851 157.342 157.816 
158.538 159.387 160.218 160.998 161.74 156.236 156.881 157.35 157.791 
158.443 159.23 160.007 160.751 161.472 162.182 158.633 158.92 159.188 
159.199 159.538 159.81 159.649 160.028 160.266 160.424 160.22 160.592 
160.865 160.937 161.12 160.788 161.07 161.398 161.55 161.706 161.995 
161.428 161.651 161.951 162.213 162.368 162.577 162.803 162.109 162.423 
162.714 162.999 163.158 163.192 163.282 163.482 162.672 163.136 163.502 
163.783 163.969 163.948 163.804 163.852 164.18 162.896 163.526 163.708 
164.45 164.58 164.083 165.423 165.307 165.077 164.465 166.218 165.742 
166.151 165.489 164.715 166.569 166.221 166.822 166.488 165.673 164.781 
166.811 166.985 166.714 166.706 166.332 165.477 164.536 167.278 167.53 
166.634 166.267 166.183 165.732 164.942 164.289 167.62 167.486 167.082 
166.352 165.974 165.635 165.094 164.706 164.499 167.621 167.223 167.491 
166.914 166.363 165.885 165.32 165.021 165.09 165.022 162.075 162.763 
161.878 162.573 161.622 163.598 162.361 161.429 163.48 164.436 162.169 
161.351 163.348 164.327 164.947 161.999 161.252 163.115 164.246 164.79 
165.332 161.868 161.118 162.816 163.991 164.787 165.3 166.161 161.836 
161.129 162.622 163.617 164.58 165.306 166.126 167.017 161.869 161.268 
162.539 163.345 164.217 165.031 165.824 166.57 167.137 161.861 161.364 
162.432 163.144 163.905 164.634 165.369 165.986 166.396 166.78 156.308 
156.887 156.921 157.343 157.223 157.372 157.677 157.546 157.834 157.819 
158.283 158.294 158.445 158.467 158.407 158.999 159.072 159.135 159.166 
159.06 159.102 159.387 159.546 159.527 159.702 159.615 159.606 159.827 
159.78 160.065 159.775 160.066 160.177 160.125 160.3 160.587 160.501 
160.754 160.342 160.501 160.729 160.755 160.829 161.091 161.34 155.537 
156.256 155.532 156.228 155.499 156.853 156.202 155.506 156.838 157.161 
156.331 155.762 156.927 157.306 157.663 156.696 156.192 157.192 157.608 
158.02 158.575 157.013 156.478 157.494 157.928 158.355 158.864 159.33 
157.115 156.601 157.613 158.116 158.568 158.967 159.433 159.834 157.214 
156.775 157.66 158.181 158.717 159.075 159.419 159.933 160.422 157.446 