# vtk DataFile Version 4.0
vtk output
ASCII
DATASET POLYDATA
POINTS 1002 float
-117.132 -105.025 46.684 -117.047 -104.692 46.1873 -116.501 -104.689 46.4727 
-116.551 -104.953 47.0486 -115.877 -104.738 46.6901 -117.18 -105.189 47.3922 
-115.788 -105.006 47.3053 -115.136 -104.895 46.8941 -116.502 -105.163 47.7545 
-117.128 -105.524 48.0732 -114.92 -105.154 47.6258 -114.242 -105.028 47.2293 
-115.624 -105.324 47.9873 -116.344 -105.674 48.333 -116.947 -106.109 48.6297 
-114.12 -105.179 48.1121 -113.399 -104.998 47.631 -114.795 -105.548 48.3144 
-115.515 -105.897 48.5755 -116.152 -106.249 48.9488 -116.732 -106.524 49.3281 
-113.478 -105.152 48.552 -112.793 -105.07 47.9767 -114.133 -105.624 48.7808 
-114.858 -106.059 48.9912 -115.52 -106.288 49.4355 -116.047 -106.586 49.8174 
-116.665 -106.877 50.1323 -112.851 -105.453 48.7818 -112.22 -105.427 48.253 
-113.491 -105.711 49.1959 -114.218 -106.099 49.539 -114.975 -106.313 50.026 
-115.533 -106.641 50.3952 -116.072 -107.126 50.5606 -116.761 -107.466 50.8058 
-112.173 -105.91 48.9081 -111.625 -105.689 48.5195 -112.803 -106.032 49.4485 
-113.477 -106.241 50.0088 -114.253 -106.465 50.5141 -114.932 -106.842 50.8182 
-115.489 -107.401 50.9351 -116.144 -107.79 51.1397 -116.837 -107.955 51.4757 
-111.663 -106.033 49.2128 -111.268 -105.614 48.9659 -112.213 -106.3 49.6893 
-112.772 -106.575 50.2924 -113.424 -106.866 50.7776 -114.168 -107.215 51.0246 
-114.838 -107.683 51.1902 -115.486 -108.021 51.4844 -116.168 -108.119 51.8798 
-116.781 -108.202 52.1979 -111.405 -105.866 49.8373 -111.131 -105.446 49.6748 
-111.845 -106.264 50.1494 -112.238 -106.804 50.5696 -112.667 -107.361 50.9167 
-113.367 -107.682 51.1454 -114.198 -107.885 51.4502 -114.918 -108.097 51.912 
-115.539 -108.217 52.3582 -116.117 -108.301 52.651 -116.644 -108.461 52.8105 
-116.598 -104.22 45.9883 -115.973 -104.243 46.2425 -116.053 -103.778 45.7499 
-115.379 -103.726 46.0222 -115.438 -103.457 45.3587 -115.369 -104.329 46.4219 
-114.759 -103.355 45.6277 -114.846 -103.091 44.9122 -114.796 -103.778 46.2433 
-114.573 -104.593 46.5677 -114.244 -103.048 45.2231 -114.434 -102.376 44.8182 
-114.173 -103.365 45.9942 -113.848 -104.136 46.3681 -113.473 -104.874 46.7328 
-113.943 -102.426 45.2514 -114.238 -101.402 45.1379 -113.631 -103.031 45.7509 
-113.121 -103.632 46.238 -112.644 -104.526 46.4061 -112.591 -104.981 46.9828 
-113.738 -101.53 45.5715 -114.102 -100.582 45.387 -113.184 -102.441 45.6867 
-112.56 -103.045 46.0458 -112.14 -103.796 46.3876 -112.034 -104.618 46.7238 
-112.13 -105.081 47.4513 -113.45 -100.734 45.732 -113.886 -100.032 45.4002 
-112.74 -101.647 45.7488 -112.066 -102.385 45.8278 -111.853 -102.95 46.3538 
-111.863 -103.728 46.9285 -111.774 -104.544 47.4249 -111.65 -105.185 47.983 
-113.107 -100.145 45.7663 -113.639 -99.5955 45.4597 -112.36 -100.912 45.8781 
-111.7 -101.747 45.8709 -111.519 -102.364 46.2995 -111.567 -102.948 47.0755 
-111.462 -103.675 47.6486 -111.298 -104.414 48.0354 -111.221 -105.094 48.455 
-112.856 -99.7005 45.8866 -113.477 -99.2293 45.6961 -112.148 -100.333 46.067 
-111.628 -101.171 46.2029 -111.396 -101.955 46.5517 -111.122 -102.566 47.1853 
-110.782 -103.129 47.7339 -110.776 -103.677 48.0974 -111.005 -104.273 48.5194 
-111.107 -104.926 49.072 -112.995 -99.2377 46.0942 -112.22 -99.7253 46.2414 
-112.428 -99.2834 46.509 -111.792 -99.8164 46.7207 -111.879 -99.2519 47.0705 
-111.753 -100.485 46.5115 -111.542 -99.9214 47.4136 -111.501 -99.2445 47.8472 
-111.757 -100.731 47.2282 -111.623 -101.426 46.9666 -111.271 -100.128 48.1824 
-111.453 -99.5948 48.587 -111.481 -100.948 48.0049 -111.406 -101.695 47.8808 
-111.059 -102.233 47.5191 -111.2 -100.511 48.8237 -111.681 -100.201 49.1812 
-110.905 -101.104 48.6258 -110.516 -101.798 48.5317 -110.004 -102.432 48.2587 
-110.068 -102.86 47.8985 -111.46 -100.881 49.5019 -111.856 -100.639 49.9225 
-110.898 -101.257 49.2126 -110.148 -101.817 49.0366 -109.388 -102.469 48.7893 
-109.251 -103.026 48.4108 -109.934 -103.344 48.1669 -111.683 -101.183 50.3915 
-111.874 -100.947 50.837 -111.334 -101.466 49.9937 -110.744 -101.943 49.6832 
-110.081 -102.542 49.4665 -109.817 -103.107 49.2149 -110.162 -103.497 48.9093 
-110.685 -103.795 48.6835 -111.756 -101.581 51.2774 -111.943 -101.366 51.6194 
-111.537 -101.808 50.9097 -111.216 -102.212 50.5125 -110.807 -102.73 50.2321 
-110.549 -103.216 50.1563 -110.68 -103.67 50.0684 -110.981 -104.05 49.8048 
-111.106 -104.426 49.435 -111.845 -102.033 51.9903 -112.129 -101.833 52.1953 
-111.528 -102.215 51.7744 -111.219 -102.54 51.4412 -110.885 -102.964 51.0387 
-110.486 -103.324 50.84 -110.256 -103.763 50.8847 -110.417 -104.335 50.8703 
-110.751 -104.789 50.6007 -110.98 -105.107 50.1427 -111.054 -105.642 50.5804 
-110.518 -105.502 51.0135 -111.015 -105.872 51.324 -109.829 -105.203 51.2573 
-110.214 -105.792 51.4486 -111.248 -106.125 51.8155 -109.445 -104.52 51.2777 
-109.503 -105.379 51.4082 -110.652 -105.925 51.8142 -111.517 -106.423 52.6186 
-109.783 -103.839 51.2767 -109.606 -104.627 51.4889 -110.375 -105.49 51.9672 
-111.174 -106.133 52.9599 -111.466 -106.771 53.9507 -110.446 -103.5 51.5444 
-110.365 -104.108 51.9077 -110.744 -104.991 52.4385 -111.04 -105.829 53.4753 
-111.226 -106.46 54.5083 -111.587 -107.042 55.0723 -110.867 -103.166 52.0718 
-110.826 -103.782 52.6162 -111.107 -104.599 53.098 -111.144 -105.494 53.9377 
-111.124 -106.147 54.9468 -111.56 -106.656 55.5136 -112.115 -107.175 55.7978 
-111.188 -102.751 52.4876 -110.935 -103.281 53.2598 -111.044 -104.018 53.7994 
-111.191 -104.955 54.3108 -111.204 -105.704 55.1351 -111.547 -106.19 55.8788 
-112.101 -106.706 56.2993 -112.402 -107.278 56.7005 -111.638 -102.504 52.6301 
-111.271 -102.869 53.5064 -111.095 -103.374 54.2693 -111.277 -104.214 54.7124 
-111.47 -105.087 55.2723 -111.624 -105.664 56.1022 -111.931 -106.141 56.8102 
-112.207 -106.757 57.3121 -112.391 -107.374 57.7185 -112.088 -102.345 52.6954 
-111.82 -102.696 53.4818 -111.52 -103.045 54.3587 -111.578 -103.657 54.961 
-111.855 -104.466 55.4462 -111.903 -105.134 56.207 -111.85 -105.612 57.0687 
-111.988 -106.147 57.7164 -112.263 -106.795 58.1378 -112.639 -107.373 58.3693 
-111.506 -105.982 50.7664 -111.636 -106.294 51.544 -111.876 -106.617 51.0044 
-111.731 -106.774 52.2579 -111.793 -107.256 51.7294 -112.059 -107.548 51.1864 
-111.659 -107.204 53.3775 -111.718 -107.769 52.6724 -111.941 -108.162 51.8995 
-112.567 -108.089 51.3695 -111.693 -107.458 54.6254 -111.871 -107.898 53.982 
-112.221 -108.157 53.152 -112.848 -108.143 52.3982 -113.575 -108.027 51.8449 
-112.136 -107.568 55.5012 -112.319 -107.895 55.1021 -112.774 -108.011 54.4737 
-113.419 -107.874 53.836 -114.059 -107.825 53.2531 -114.533 -107.991 52.5679 
-112.53 -107.649 56.3849 -112.771 -107.914 56.0518 -113.224 -108.109 55.4848 
-113.78 -108.107 54.846 -114.336 -108.002 54.3921 -114.806 -108.069 53.852 
-115.166 -108.206 53.0837 -112.629 -107.762 57.4305 -113.019 -107.965 57.1026 
-113.521 -108.185 56.5622 -113.957 -108.45 55.7726 -114.344 -108.55 55.0842 
-114.803 -108.547 54.5592 -115.259 -108.545 53.9346 -115.673 -108.455 53.2464 
-112.881 -107.813 58.1831 -113.327 -108.032 57.9077 -113.86 -108.202 57.5223 
-114.238 -108.517 56.899 -114.498 -108.774 56.1254 -114.884 -108.813 55.3913 
-115.362 -108.824 54.6498 -115.785 -108.816 53.9089 -116.196 -108.667 53.301 
-113.44 -107.571 58.5869 -113.812 -107.968 58.3873 -114.436 -107.692 58.793 
-114.851 -108.114 58.6054 -115.15 -107.914 59.3646 -114.306 -108.198 58.1193 
-115.498 -108.389 59.2046 -115.695 -108.275 60.0039 -115.125 -108.487 58.3678 
-114.646 -108.507 57.788 -116.082 -108.653 59.7005 -116.544 -108.499 60.0542 
-115.653 -108.867 58.7888 -115.254 -108.974 58.0492 -114.86 -108.843 57.2992 
-117.068 -108.69 59.6064 -117.678 -108.429 59.8346 -116.5 -109.051 58.9239 
-116.049 -109.394 58.1908 -115.709 -109.135 57.6868 -115.277 -108.83 56.6704 
-118.176 -108.596 59.4371 -118.746 -108.25 59.8641 -117.646 -108.992 58.8185 
-117.173 -109.505 58.1289 -116.815 -109.337 57.8057 -116.404 -108.735 57.207 
-115.814 -108.694 55.8351 -118.981 -108.482 59.3391 -119.453 -108.089 59.7051 
-118.529 -108.856 58.8209 -118.082 -109.354 58.1572 -117.652 -109.396 57.6931 
-117.283 -108.773 57.3309 -116.786 -108.525 56.2531 -116.189 -108.803 54.8061 
-119.454 -108.33 58.8718 -119.788 -107.932 59.0484 -119.106 -108.67 58.5895 
-118.714 -109.076 58.1208 -118.211 -109.289 57.5008 -117.761 -108.93 56.9817 
-117.402 -108.58 56.2311 -116.957 -108.758 54.9901 -116.5 -108.902 53.8971 
-119.853 -108.189 58.1567 -120.05 -107.781 58.2855 -119.645 -108.495 57.9715 
-119.377 -108.783 57.6836 -118.935 -109.041 57.1383 -118.413 -108.993 56.4586 
-118.019 -108.738 55.7826 -117.676 -108.757 54.9015 -117.267 -108.913 53.9294 
-116.9 -108.783 53.245 -112.981 -106.928 58.5424 -113.937 -107.073 58.7402 
-113.556 -106.419 58.4292 -114.393 -106.488 58.8306 -114.091 -105.965 58.2721 
-114.667 -107.188 59.2445 -114.667 -105.971 58.9416 -114.424 -105.554 58.2428 
-114.754 -106.517 59.6726 -115.129 -107.468 59.983 -114.978 -105.62 58.8716 
-114.748 -105.151 58.103 -115.058 -105.885 59.8202 -115.333 -106.665 60.2289 
-115.938 -107.826 60.1936 -115.505 -105.403 58.4035 -115.224 -104.696 57.8265 
-115.759 -105.631 59.4246 -116.081 -105.888 60.0581 -116.581 -106.829 60.0277 
-117.17 -107.918 59.9312 -116.078 -104.993 57.9328 -115.743 -104.045 57.7809 
-116.469 -105.58 58.6361 -116.923 -105.696 59.5091 -117.384 -105.987 59.8753 
-117.901 -106.854 59.9536 -118.416 -107.758 60.0323 -116.549 -104.238 57.8155 
-116.197 -103.344 57.8438 -116.947 -105.12 58.0251 -117.422 -105.62 58.7309 
-117.873 -105.803 59.4706 -118.372 -106.163 59.9299 -118.977 -106.883 60.2171 
-119.393 -107.615 60.1743 -116.92 -103.522 57.7251 -116.577 -102.94 57.5565 
-117.297 -104.303 57.7658 -117.737 -105.055 58.0884 -118.149 -105.591 58.7168 
-118.563 -105.959 59.3132 -119.155 -106.386 59.7579 -119.715 -106.953 59.9342 
-119.893 -107.514 59.6512 -117.227 -103.145 57.3429 -116.9 -102.855 56.907 
-117.598 -103.627 57.5626 -118.02 -104.29 57.7174 -118.415 -105.006 58.0122 
[...]
CELL_DATA 2000
SCALARS Distance double
LOOKUP_TABLE default
162.722 162.383 162.742 163.097 161.999 162.361 162.703 163.08 163.438 
161.586 161.953 162.266 162.654 163.028 163.435 163.828 161.137 161.527 
161.875 162.247 162.64 163.033 163.451 163.838 164.21 160.769 161.116 
161.536 161.906 162.356 162.718 163.158 163.498 163.895 164.219 164.592 
160.591 160.854 161.277 161.613 162.089 162.462 162.933 163.267 163.691 
163.979 164.402 164.691 165.147 160.465 160.723 161.11 161.402 161.842 
162.194 162.668 163.033 163.49 163.814 164.261 164.561 165.027 165.324 
165.775 160.297 160.565 160.952 161.239 161.663 161.975 162.436 162.777 
163.252 163.601 164.069 164.406 164.858 165.179 165.589 165.888 166.234 
160.216 160.419 160.815 161.081 161.52 161.816 162.279 162.586 163.053 
163.377 163.847 164.191 164.648 164.978 165.377 165.667 165.995 166.263 
166.544 162.358 161.642 162.011 162.017 160.871 161.25 161.269 161.667 
161.67 160.095 160.461 160.461 160.89 160.937 161.319 161.281 159.348 
159.71 159.711 160.095 160.118 160.531 160.502 160.87 160.785 158.662 
159.023 159.06 159.386 159.342 159.69 159.62 160.019 159.967 160.365 
160.37 158.046 158.387 158.41 158.722 158.604 158.898 158.773 159.148 
159.154 159.574 159.677 160.075 160.211 157.475 157.773 157.709 158.005 
157.817 158.103 157.963 158.339 158.409 158.849 159.027 159.435 159.593 
159.971 160.093 156.96 157.181 157.049 157.279 157.094 157.335 157.254 
157.596 157.722 158.159 158.352 158.78 158.907 159.313 159.407 159.809 
159.914 156.579 156.69 156.548 156.686 156.596 156.773 156.834 157.074 
157.244 157.55 157.684 158.05 158.125 158.554 158.666 159.113 159.285 
159.684 159.864 156.411 156.138 156.268 156.294 155.936 156.035 156.13 
156.26 156.423 155.874 155.951 156.251 156.331 156.658 156.62 156.855 
156.057 156.028 156.401 156.547 156.94 156.971 157.158 157.079 157.228 
156.57 156.355 156.55 156.625 156.84 157.008 157.007 157.125 157.066 
157.247 157.398 157.235 156.939 156.983 156.809 156.864 156.821 156.778 
156.797 156.757 156.908 157.081 157.389 157.751 157.822 157.57 157.631 
157.339 157.417 157.116 157.228 156.934 157.154 156.958 157.373 157.344 
157.87 157.969 158.455 158.373 158.142 158.253 157.994 158.117 157.832 
158.005 157.702 157.981 157.727 158.172 158.014 158.548 158.434 158.907 
158.83 159.213 158.959 158.72 158.82 158.584 158.681 158.473 158.583 
158.4 158.504 158.387 158.552 158.59 158.877 158.993 159.308 159.337 
159.601 159.555 159.807 160.107 159.865 160.118 160.417 159.447 159.739 
159.925 160.349 160.737 158.906 159.161 159.237 159.709 160.114 160.718 
161.278 158.629 158.696 158.8 159.085 159.583 160.14 160.852 161.386 
161.987 158.726 158.686 158.942 158.988 159.583 159.892 160.696 161.099 
161.781 162.135 162.66 158.873 158.912 159.244 159.314 159.872 160.095 
160.794 161.087 161.7 161.992 162.517 162.83 163.332 158.971 159.054 
159.345 159.496 159.91 160.215 160.738 161.095 161.582 161.896 162.356 
162.685 163.181 163.514 163.974 159.135 159.19 159.459 159.532 159.841 
160.067 160.508 160.874 161.366 161.718 162.172 162.496 162.946 163.302 
163.738 164.077 164.45 159.318 159.393 159.691 159.703 159.982 160.048 
160.45 160.683 161.224 161.541 162.051 162.33 162.735 163.027 163.4 
163.755 164.126 164.481 164.835 160.339 160.722 160.655 160.928 161.182 
161.099 161.425 161.321 161.648 161.757 161.641 162.004 161.87 162.204 
162.085 162.42 162.376 162.254 162.599 162.465 162.778 162.651 162.972 
162.86 163.184 162.996 162.861 163.202 163.063 163.374 163.225 163.534 
163.41 163.748 163.635 163.973 163.659 163.494 163.848 163.692 164.041 
163.862 164.193 164.015 164.373 164.23 164.601 164.456 164.788 164.285 
164.152 164.49 164.351 164.713 164.56 164.91 164.722 165.067 164.897 
165.259 165.106 165.425 165.251 165.51 164.777 164.715 165.049 164.957 
165.318 165.213 165.567 165.418 165.724 165.562 165.859 165.727 166.007 
165.858 166.076 165.902 166.097 165.199 165.172 165.547 165.487 165.871 
165.794 166.167 166.044 166.345 166.174 166.421 166.27 166.514 166.384 
166.597 166.438 166.613 166.445 166.625 165.58 166.373 165.975 165.97 
167.218 166.812 166.813 166.368 166.33 168.047 167.657 167.658 167.22 
167.164 166.718 166.631 168.818 168.457 168.431 168.023 167.959 167.538 
167.432 166.971 166.807 169.506 169.173 169.148 168.768 168.745 168.344 
168.288 167.797 167.615 167.085 166.871 170.151 169.829 169.823 169.476 
169.504 169.153 169.158 168.694 168.522 167.934 167.655 167.122 166.917 
170.624 170.405 170.363 170.103 170.096 169.843 169.803 169.469 169.248 
168.765 168.41 167.889 167.588 167.15 166.961 170.729 170.691 170.604 
170.496 170.42 170.28 170.149 169.925 169.628 169.286 168.89 168.498 
168.161 167.773 167.532 167.158 166.969 170.622 170.665 170.628 170.605 
170.548 170.472 170.348 170.165 169.892 169.58 169.228 168.881 168.596 
168.268 168.059 167.71 167.516 167.149 166.972 165.454 165.489 165.727 
166.251 165.494 165.75 166.262 166.525 167.053 165.453 165.713 166.146 
166.44 166.952 167.303 167.859 165.4 165.653 166.054 166.288 166.739 
167.11 167.72 168.117 168.667 165.376 165.636 166.125 166.29 166.741 
166.956 167.529 167.921 168.572 168.92 169.404 165.328 165.63 166.198 
166.432 166.951 167.094 167.596 167.816 168.426 168.789 169.408 169.674 
170.099 165.212 165.539 166.072 166.429 166.964 167.252 167.722 167.924 
168.407 168.689 169.286 169.641 170.172 170.363 170.635 165.079 165.371 
165.819 166.192 166.671 167.086 167.544 167.892 168.296 168.609 169.062 
169.456 169.933 170.294 170.572 170.722 170.749 164.984 165.221 165.603 
165.908 166.324 166.713 167.149 167.565 167.953 168.336 168.682 169.095 
169.44 169.884 170.122 170.451 170.489 170.638 170.574 159.508 159.927 
159.803 159.911 160.329 160.205 160.342 160.172 160.231 160.85 160.642 
160.813 160.637 160.796 160.561 160.714 161.576 161.27 161.435 161.186 
161.4 161.186 161.435 161.197 161.474 162.296 162.026 162.15 161.865 
162.003 161.788 162.009 161.87 162.143 161.984 162.244 162.836 162.649 
162.761 162.532 162.614 162.371 162.492 162.346 162.555 162.491 162.716 
162.627 162.839 163.361 163.155 163.305 163.098 163.248 162.993 163.145 
162.887 163.102 162.917 163.179 163.043 163.298 163.183 163.451 163.988 
163.749 163.953 163.715 163.953 163.694 163.947 163.653 163.944 163.651 
163.986 163.7 164.028 163.763 164.079 163.883 164.201 164.608 164.407 
164.641 164.427 164.705 164.469 164.766 164.503 164.811 164.545 164.875 
164.609 164.934 164.64 164.94 164.645 164.938 164.691 164.969 159.256 
159.013 159.328 159.704 158.951 159.175 159.601 159.815 160.162 159.09 
159.239 159.696 159.833 160.216 160.331 160.706 159.209 159.375 159.798 
159.97 160.35 160.459 160.833 160.965 161.415 159.238 159.397 159.736 
159.971 160.33 160.537 160.897 161.084 161.512 161.71 162.141 159.317 
159.408 159.709 159.878 160.248 160.463 160.861 161.087 161.528 161.765 
162.204 162.381 162.723 159.483 159.539 159.87 159.949 160.355 160.484 
160.938 161.099 161.573 161.776 162.253 162.443 162.842 162.944 163.262 
159.702 159.754 160.113 160.172 160.586 160.69 161.159 161.278 161.744 
161.879 162.342 162.513 162.953 163.091 163.462 163.531 163.869 159.969 
160.009 160.366 160.418 160.801 160.909 161.357 161.502 161.952 162.075 
162.487 162.62 163.032 163.194 163.589 163.719 164.066 164.147 164.467 
160.255 160.831 160.575 160.645 161.466 161.177 161.252 160.975 161.079 
162.182 161.868 161.972 161.645 161.767 161.478 161.647 162.932 162.623 
162.761 162.424 162.558 162.228 162.386 162.094 162.253 163.711 163.397 
163.551 163.224 163.348 163.019 163.133 162.83 162.947 162.661 162.773 
164.51 164.2 164.357 164.022 164.124 163.778 163.849 163.534 163.616 
163.332 163.434 163.16 163.287 165.214 164.962 165.102 164.807 164.891 
164.544 164.594 164.245 164.323 164.009 164.129 163.839 163.982 163.704 
163.843 165.804 165.591 165.708 165.472 165.548 165.262 165.317 164.997 
165.089 164.764 164.901 164.581 164.727 164.419 164.548 164.251 164.344 
166.366 166.155 166.274 166.04 166.117 165.861 165.929 165.672 165.781 
165.518 165.661 165.368 165.497 165.176 165.27 164.95 165.017 164.707 
164.75 166.735 167.288 166.896 166.646 167.765 167.418 167.131 166.751 
166.456 168.058 167.791 167.498 167.185 166.879 166.53 166.259 168.315 
168.038 167.79 167.516 167.281 166.956 166.721 166.373 166.152 168.774 
168.411 168.246 167.902 167.747 167.399 167.217 166.863 166.666 166.303 
166.075 169.357 168.987 168.856 168.477 168.324 167.937 167.743 167.37 
167.155 166.805 166.564 166.197 165.912 169.842 169.547 169.388 169.067 
168.874 168.51 168.268 167.888 167.626 167.266 166.989 166.637 166.327 
165.969 165.648 170.192 169.967 169.835 169.551 169.375 169.02 168.777 
168.39 168.112 167.729 167.423 167.043 166.7 166.336 165.991 165.66 
165.349 170.459 170.308 170.274 170.025 169.911 169.546 169.313 168.899 
168.613 168.213 167.899 167.492 167.13 166.718 166.348 165.985 165.656 
165.35 165.061 166.878 167.243 167.183 167.432 167.596 167.531 167.798 
167.759 167.962 167.988 167.889 168.181 168.154 168.445 168.291 168.361 
168.419 168.307 168.617 168.589 168.969 168.851 168.998 168.661 168.635 
168.826 168.74 169.001 168.99 169.319 169.326 169.495 169.285 169.247 
168.933 168.977 169.145 169.114 169.283 169.256 169.378 169.453 169.511 
169.547 169.524 169.434 169.481 169.337 169.505 169.283 169.346 169.461 
169.429 169.392 169.369 169.293 169.36 169.398 169.525 169.732 169.778 
170.02 169.89 170.037 169.2 169.35 169.442 169.491 169.441 169.375 
169.266 169.207 169.28 169.403 169.784 169.986 170.401 170.39 170.565 
170.343 170.372 168.978 169.156 169.223 169.36 169.359 169.391 169.33 
169.271 169.311 169.379 169.733 170.014 170.505 170.691 170.923 170.809 
170.774 170.559 170.53 166.603 166.354 166.652 166.987 166.068 166.404 
166.779 167.064 167.385 165.623 166.034 166.402 166.811 167.194 167.483 
167.793 165.03 165.493 165.789 166.286 166.671 167.17 167.549 167.882 
168.189 164.337 164.86 165.165 165.63 165.963 166.507 166.92 167.463 
167.84 168.232 168.549 163.581 164.151 164.549 165.04 165.398 165.856 
166.25 166.77 167.19 167.717 168.093 168.532 168.84 162.929 163.449 
163.889 164.419 164.834 165.324 165.726 166.194 166.591 167.067 167.446 
167.945 168.29 168.745 168.988 162.427 162.89 163.328 163.807 164.218 
164.715 165.129 165.65 166.067 166.54 166.896 167.326 167.645 168.11 
168.393 168.815 168.96 161.929 162.403 162.842 163.304 163.696 164.132 
164.515 165.015 165.469 166 166.418 166.841 167.138 167.513 167.772 
168.187 168.394 168.746 168.808 161.759 161.82 162.096 162.705 161.971 
162.197 162.822 163.053 163.582 162.282 162.418 163.016 163.193 163.748 
163.907 164.404 162.653 162.773 163.333 163.441 164.006 164.137 164.713 
164.822 165.387 162.848 163.065 163.595 163.743 164.282 164.438 165.059 
165.203 165.806 165.881 166.381 162.825 163.12 163.645 163.903 164.433 
164.665 165.253 165.491 166.063 166.234 166.672 166.745 167.079 162.757 
163.036 163.575 163.888 164.459 164.747 165.296 165.57 166.06 166.315 
166.703 166.89 167.204 167.321 167.639 162.769 162.991 163.506 163.811 
164.376 164.712 165.232 165.529 165.947 166.205 166.561 166.805 167.15 
167.362 167.711 167.871 168.211 162.843 163.025 163.466 163.726 164.188 
164.534 164.981 165.343 165.725 166.032 166.367 166.637 166.986 167.255 
167.615 167.858 168.172 168.365 168.61 163.019 163.4 163.341 163.606 
163.755 163.7 163.956 163.921 164.243 164.169 164.093 164.342 164.26 
164.552 164.57 164.962 164.56 164.53 164.824 164.713 164.994 164.916 
165.291 165.319 165.72 164.928 164.905 165.258 165.208 165.534 165.432 
165.782 165.719 166.113 166.086 166.425 165.469 165.349 165.711 165.643 
166.007 165.948 166.287 166.223 166.561 166.514 166.851 166.789 167.08 
166.091 165.962 166.3 166.169 166.513 166.419 166.755 166.682 166.982 
166.925 167.216 167.188 167.486 167.44 167.706 166.542 166.512 166.831 
166.747 167.055 166.951 167.281 167.179 167.502 167.379 167.653 167.547 
167.81 167.776 168.041 168.018 168.241 166.839 166.867 167.19 167.184 
167.489 167.443 167.767 167.709 168.066 167.961 168.266 168.082 168.301 
168.134 168.336 168.277 168.487 168.474 168.65 168.852 168.688 168.876 
169.07 168.612 168.754 168.976 169.104 169.255 168.679 168.789 169.035 
169.081 169.218 169.266 169.309 168.69 168.884 169.131 169.172 169.244 
169.245 169.289 169.305 169.367 168.473 168.792 169.065 169.21 169.274 
169.267 169.311 169.331 169.543 169.562 169.86 168.133 168.482 168.803 
169.066 169.251 169.314 169.431 169.435 169.715 169.802 170.239 170.277 
170.642 167.806 168.126 168.44 168.767 169.038 169.258 169.465 169.575 
169.832 169.968 170.33 170.513 170.817 170.908 171.004 167.47 167.781 
168.047 168.386 168.629 168.953 169.162 169.453 169.678 169.947 170.195 
170.441 170.623 170.817 170.847 170.944 170.827 167.102 167.409 167.647 
167.973 168.191 168.508 168.703 169.032 169.272 169.627 169.895 170.194 
170.374 170.557 170.607 170.703 170.668 170.695 170.612 156.65 157 
156.801 156.824 157.465 157.211 157.26 157.072 157.204 157.991 157.708 
157.798 157.604 157.794 157.582 157.705 158.622 158.292 158.412 158.202 
158.44 158.226 158.321 158.012 157.964 159.401 159.035 159.162 158.869 
159.064 158.845 158.943 158.633 158.565 158.205 158.199 160.232 159.901 
160.064 159.691 159.787 159.453 159.505 159.214 159.227 158.889 158.932 
158.603 158.8 161.002 160.73 160.939 160.604 160.712 160.267 160.303 
159.875 159.967 159.611 159.761 159.421 159.608 159.316 159.573 161.724 
161.463 161.66 161.408 161.596 161.233 161.377 160.891 161.055 160.561 
160.77 160.327 160.531 160.152 160.364 160.078 160.342 162.424 162.159 
162.323 162.085 162.298 162.06 162.308 161.987 162.231 161.785 161.99 
161.47 161.642 161.147 161.34 160.937 161.19 160.882 161.174 156.545 
156.659 156.532 156.468 156.985 156.689 156.495 156.401 156.334 157.463 
157.123 156.877 156.546 156.347 156.229 156.191 157.738 157.546 157.407 
157.079 156.891 156.49 156.393 156.212 156.344 158.003 157.784 157.772 
157.588 157.565 157.196 157.126 156.724 156.833 156.634 156.94 158.632 
158.239 158.253 158.004 158.09 157.836 157.866 157.525 157.609 157.319 
157.562 157.382 157.695 159.439 159.014 159.019 158.65 158.725 158.413 
158.5 158.207 158.33 158.073 158.282 158.061 158.307 158.121 158.377 
160.22 159.822 159.848 159.471 159.544 159.167 159.265 158.91 159.065 
158.778 159.004 158.764 159 158.764 158.988 158.787 159.037 161.02 
160.606 160.632 160.272 160.361 160.01 160.126 159.758 159.907 159.569 
159.771 159.491 159.707 159.454 159.658 159.427 159.645 159.457 159.699 
156.43 156.464 156.413 156.264 156.452 156.515 156.474 156.274 156.049 
156.34 156.495 156.627 156.542 156.345 156.052 155.862 156.411 156.428 
156.64 156.682 156.682 156.429 156.238 155.964 156.005 156.916 156.677 
156.833 156.778 156.945 156.807 156.82 156.504 156.55 156.325 156.592 
157.639 157.302 157.4 157.17 157.367 157.197 157.373 157.134 157.25 
156.981 157.157 156.993 157.267 158.314 158.002 158.091 157.827 158.004 
157.774 157.963 157.732 157.856 157.613 157.691 157.505 157.636 157.562 
157.782 158.968 158.654 158.731 158.481 158.625 158.414 158.563 158.342 
158.44 158.186 158.226 157.975 158.033 157.88 158.05 158.026 158.296 
159.622 159.31 159.35 159.084 159.165 158.957 159.052 158.869 158.964 
158.756 158.842 158.567 158.65 158.367 158.519 158.355 158.625 158.591 
158.907 166.296 165.729 166.01 166.019 165.11 165.412 165.396 165.722 
165.721 164.37 164.718 164.662 165.039 165.02 165.376 165.311 163.555 
163.905 163.8 164.21 164.144 164.577 164.49 164.868 164.716 162.771 
163.08 162.933 163.303 163.177 163.608 163.465 163.915 163.727 164.15 
163.941 162.025 162.305 162.125 162.444 162.284 162.647 162.481 162.868 
162.672 163.081 162.873 163.309 163.134 161.326 161.57 161.371 161.646 
161.474 161.793 161.648 161.972 161.816 162.127 161.959 162.294 162.154 
162.557 162.484 160.695 160.901 160.696 160.922 160.739 161.016 160.875 
161.188 161.056 161.36 161.216 161.504 161.366 161.68 161.59 161.991 
161.973 160.104 160.288 160.072 160.275 160.079 160.317 160.148 160.429 
160.266 160.581 160.423 160.754 160.607 160.93 160.801 161.146 161.066 
161.492 161.472 
POINT_DATA 1002
SCALARS Distance double
LOOKUP_TABLE default
163.102 162.688 162.377 162.746 162.026 163.444 162.312 161.66 163.05 
163.819 161.887 161.212 162.6 163.436 164.229 161.483 160.718 162.256 
163.066 163.852 164.551 161.147 160.443 161.98 162.833 163.578 164.255 
164.972 160.974 160.359 161.713 162.576 163.391 164.106 164.847 165.624 
160.839 160.197 161.52 162.295 163.135 163.946 164.732 165.504 166.198 
160.659 160.036 161.36 162.111 162.902 163.721 164.542 165.302 165.962 
166.542 160.563 160.049 161.224 161.979 162.747 163.51 164.311 165.091 
165.739 166.286 166.806 162.009 161.649 161.269 160.832 160.514 161.325 
160.04 159.731 160.513 160.973 159.361 158.952 159.734 160.108 160.427 
158.755 158.28 159.064 159.231 159.524 159.951 158.127 157.733 158.349 
158.4 158.69 159.249 159.832 157.46 157.233 157.541 157.561 157.929 
158.609 159.225 159.724 156.851 156.797 156.838 156.903 157.299 157.939 
158.508 158.991 159.508 156.424 156.517 156.373 156.579 157.022 157.412 
157.704 158.166 158.841 159.507 156.292 156.089 156.036 155.983 155.792 
156.319 156.08 155.753 156.693 156.965 156.253 156.168 156.871 157.259 
157.252 156.645 156.898 156.755 156.899 156.868 157.081 157.275 157.532 
157.03 156.81 156.627 156.778 157.385 157.904 158.03 157.714 157.509 
157.366 157.471 157.87 158.357 158.492 158.596 158.365 158.273 158.233 
158.344 158.702 159.075 159.291 159.072 159.21 158.897 158.783 158.694 
158.587 158.727 159.205 159.646 159.868 160.406 160.082 160.764 159.492 
160.203 161.246 158.788 159.433 160.706 161.883 158.575 159.036 160.281 
161.569 162.51 158.899 159.354 160.361 161.448 162.329 163.142 159.145 
159.691 160.571 161.454 162.202 163.021 163.832 159.236 159.656 160.384 
161.261 162.033 162.834 163.689 164.402 159.437 159.706 160.163 160.977 
161.862 162.622 163.383 164.143 164.808 159.671 159.968 160.276 160.911 
161.785 162.507 163.077 163.741 164.494 165.203 160.998 161.536 161.743 
162.143 162.333 162.536 162.737 162.92 163.084 163.298 163.337 163.534 
163.672 163.85 164.098 164.003 164.207 164.384 164.527 164.746 164.962 
164.622 164.845 165.09 165.256 165.42 165.612 165.703 165.121 165.405 
165.704 165.908 166.009 166.15 166.26 166.267 165.587 165.935 166.274 
166.523 166.606 166.651 166.743 166.79 166.783 165.951 166.39 166.779 
167.268 167.609 166.781 168.095 168.438 167.612 167.098 168.837 169.179 
168.363 167.904 167.294 169.503 169.837 169.107 168.766 168.195 167.358 
170.147 170.471 169.82 169.587 169.123 168.251 167.359 170.598 170.805 
170.344 170.126 169.699 168.923 168.06 167.35 170.67 170.713 170.546 
170.373 169.951 169.236 168.514 167.912 167.336 170.615 170.54 170.601 
170.499 170.173 169.554 168.895 168.381 167.885 167.329 165.209 166.023 
165.235 165.992 165.256 166.773 165.891 165.213 166.556 167.529 165.857 
165.132 166.417 167.246 168.385 165.92 165.078 166.599 167.208 168.136 
169.197 165.895 165.013 166.781 167.475 168.107 169.038 169.991 165.709 
164.915 166.612 167.502 168.19 168.924 169.897 170.629 165.491 164.83 
166.256 167.145 167.986 168.713 169.549 170.356 170.732 165.341 164.781 
165.977 166.739 167.564 168.31 169.023 169.748 170.265 170.47 159.643 
160.096 160.042 160.478 160.466 160.453 160.982 161.102 160.981 160.955 
161.728 161.898 161.597 161.624 161.727 162.453 162.537 162.27 162.144 
162.261 162.442 162.958 163.015 162.873 162.7 162.634 162.773 162.935 
163.494 163.574 163.465 163.407 163.329 163.344 163.422 163.537 164.179 
164.212 164.186 164.209 164.225 164.28 164.334 164.33 164.37 158.914 
159.427 158.699 159.4 158.754 159.977 159.565 158.953 160.123 160.55 
159.607 159.069 160.223 160.706 161.245 159.517 159.131 160.085 160.682 
161.303 161.99 159.578 159.242 160.035 160.624 161.278 162.005 162.619 
159.798 159.409 160.236 160.796 161.396 162.047 162.708 163.2 160.056 
159.644 160.485 161.039 161.643 162.195 162.786 163.366 163.821 160.329 
159.934 160.713 161.206 161.826 162.388 162.88 163.43 163.97 164.409 