# vtk DataFile Version 4.0
vtk output
ASCII
DATASET POLYDATA
POINTS 1002 float
-119.045 -101.595 48.1854 -119.458 -101.165 47.7971 -118.612 -101.328 47.7966 
-118.261 -101.873 48.1617 -117.807 -101.593 47.803 -118.62 -102.023 48.6925 
-117.545 -102.146 48.2584 -116.999 -101.749 48.01 -117.941 -102.272 48.7819 
-118.311 -102.36 49.3937 -116.687 -102.298 48.5171 -116.057 -101.904 48.2282 
-117.243 -102.459 49.0337 -117.66 -102.543 49.6388 -118.076 -102.762 50.2066 
-115.682 -102.487 48.7149 -115.112 -102.26 48.2845 -116.337 -102.601 49.334 
-116.879 -102.721 49.9426 -117.347 -102.956 50.5089 -117.777 -103.217 51.0941 
-114.819 -102.735 48.9049 -114.339 -102.629 48.3722 -115.397 -102.729 49.6582 
-115.955 -102.871 50.3039 -116.48 -103.135 50.8324 -116.954 -103.342 51.4616 
-117.39 -103.467 52.11 -114.118 -102.854 49.2672 -113.669 -102.716 48.6678 
-114.604 -102.806 50.1121 -115.066 -102.928 50.8319 -115.605 -103.266 51.3089 
-116.116 -103.502 51.8289 -116.536 -103.558 52.5022 -117.025 -103.677 53.0307 
-113.434 -102.784 49.7752 -113.073 -102.535 49.1864 -113.87 -102.872 50.5733 
-114.245 -103.026 51.3094 -114.758 -103.403 51.805 -115.39 -103.795 52.1597 
-115.833 -103.918 52.6713 -116.219 -103.936 53.259 -116.798 -104.131 53.6131 
-112.828 -102.632 50.3287 -112.618 -102.303 49.8246 -113.194 -102.908 50.9554 
-113.512 -103.233 51.5573 -113.89 -103.675 52.0365 -114.572 -104.169 52.3251 
-115.244 -104.46 52.6198 -115.648 -104.459 53.1627 -116.084 -104.463 53.7203 
-116.719 -104.647 54.0356 -112.35 -102.517 50.7899 -112.264 -102.16 50.3823 
-112.642 -102.874 51.2706 -112.94 -103.346 51.7462 -113.141 -103.941 52.1688 
-113.589 -104.517 52.4526 -114.387 -104.888 52.6314 -115.087 -104.938 53.0183 
-115.563 -104.823 53.6661 -116.084 -104.822 54.2353 -116.708 -104.96 54.5781 
-119.212 -100.843 47.4444 -118.289 -100.993 47.4337 -118.793 -100.656 46.9168 
-117.869 -100.752 46.9477 -118.338 -100.529 46.2123 -117.411 -101.125 47.5737 
-117.461 -100.546 46.3132 -117.933 -100.171 45.6392 -116.995 -100.738 47.2211 
-116.56 -101.167 47.8822 -117.021 -100.147 45.7868 -117.5 -99.5252 45.4522 
-116.543 -100.54 46.5491 -116.186 -100.743 47.5304 -115.659 -101.386 48.0617 
-116.6 -99.4916 45.6351 -117.062 -98.8237 45.4203 -116.009 -100.255 45.921 
-115.726 -100.568 46.8098 -115.41 -100.918 47.7942 -114.79 -101.836 48.1236 
-116.363 -98.6981 45.694 -116.668 -98.1318 45.2381 -115.696 -99.5886 45.8529 
-115.216 -100.238 46.2766 -115.076 -100.478 47.386 -114.632 -101.158 48.1485 
-114.005 -102.171 48.2585 -116.14 -97.8988 45.6479 -116.246 -97.4311 45.0281 
-115.67 -98.6715 46.1031 -115.013 -99.5247 46.3115 -114.713 -99.9463 47.0615 
-114.435 -100.391 48.0938 -113.841 -101.333 48.4348 -113.322 -102.182 48.5452 
-115.754 -97.2371 45.5276 -115.842 -96.8203 45.0408 -115.529 -97.8555 46.1631 
-114.996 -98.6993 46.5084 -114.525 -99.3599 46.9179 -114.191 -99.7864 47.7939 
-113.695 -100.482 48.4756 -113.175 -101.371 48.6816 -112.833 -101.987 49.0623 
-115.386 -96.7506 45.5307 -115.604 -96.342 45.2751 -115.201 -97.2698 46.0521 
-114.841 -98.0043 46.5232 -114.403 -98.7735 46.8919 -113.999 -99.3261 47.4956 
-113.51 -99.8597 48.2386 -113.039 -100.583 48.7267 -112.745 -101.284 49.1192 
-112.509 -101.791 49.7075 -115.292 -96.1794 45.6494 -114.991 -96.6534 45.9268 
-114.98 -96.0174 46.0737 -114.584 -96.5352 46.3739 -114.645 -95.8702 46.5994 
-114.654 -97.265 46.3806 -114.159 -96.4468 46.9861 -114.348 -95.9463 47.3131 
-114.113 -97.2124 46.8725 -114.245 -98.051 46.8782 -113.693 -96.5591 47.7445 
-114.074 -96.2829 48.206 -113.539 -97.1604 47.5538 -113.647 -97.9975 47.5258 
-113.834 -98.7745 47.4442 -113.177 -96.7424 48.5886 -113.672 -96.5779 49.1811 
-112.887 -97.1667 48.1838 -112.978 -97.8782 48.1785 -113.17 -98.6756 48.1732 
-113.32 -99.3452 48.1035 -112.687 -96.8545 49.5644 -113.171 -96.7667 50.1199 
-112.309 -97.1505 48.9213 -112.33 -97.7809 48.6753 -112.528 -98.5762 48.7476 
-112.646 -99.3306 48.7333 -112.808 -99.9832 48.7035 -112.362 -97.0837 50.5799 
-112.758 -97 50.9936 -112.004 -97.2643 49.9967 -111.924 -97.7969 49.5273 
-112.063 -98.6148 49.3888 -112.167 -99.4006 49.3723 -112.308 -100.064 49.3246 
-112.549 -100.684 49.2534 -112.19 -97.4036 51.5427 -112.457 -97.1863 51.9021 
-111.936 -97.6196 51.1255 -111.794 -98.0301 50.7203 -111.784 -98.7498 50.4177 
-111.79 -99.5274 50.2053 -111.878 -100.161 50.0638 -112.128 -100.737 49.9781 
-112.37 -101.297 49.8662 -112.037 -97.5858 52.5098 -112.207 -97.2227 52.8648 
-111.883 -97.9598 52.1313 -111.737 -98.352 51.7852 -111.608 -98.8858 51.46 
-111.47 -99.5317 51.1185 -111.411 -100.144 50.8188 -111.57 -100.739 50.6409 
-111.852 -101.329 50.5472 -112.079 -101.812 50.4639 -111.883 -102.348 50.9843 
-111.571 -102.027 51.0009 -111.506 -102.574 51.5103 -111.284 -101.468 51.0855 
-111.128 -102.247 51.6024 -111.28 -102.759 52.3332 -111.084 -100.733 51.2595 
-110.938 -101.617 51.8394 -110.982 -102.447 52.6716 -111.265 -102.865 53.5554 
-111.082 -100.034 51.5466 -110.93 -100.784 52.122 -110.964 -101.867 53.0754 
-111.049 -102.568 54.0365 -111.427 -102.842 54.6863 -111.237 -99.4404 51.9605 
-110.975 -100.001 52.4741 -111.002 -101.04 53.4123 -111.034 -102.056 54.4593 
-111.186 -102.477 55.1155 -111.71 -102.756 55.4937 -111.425 -98.9452 52.4144 
-111.036 -99.4123 52.9888 -110.914 -100.169 53.8218 -110.965 -101.247 54.8495 
-111.06 -101.948 55.5625 -111.452 -102.299 55.9362 -112.027 -102.772 56.2737 
-111.615 -98.5159 52.8341 -111.228 -99.0243 53.5213 -110.956 -99.5631 54.2776 
-110.919 -100.382 55.189 -110.965 -101.228 55.9894 -111.242 -101.765 56.4654 
-111.799 -102.268 56.7807 -112.327 -102.846 57.0766 -111.787 -98.0327 53.2388 
-111.532 -98.6365 53.9356 -111.324 -99.2569 54.5652 -111.234 -99.8508 55.2701 
-111.145 -100.526 56.1001 -111.159 -101.169 56.8175 -111.548 -101.726 57.2567 
-112.134 -102.317 57.5075 -112.648 -102.826 57.6902 -111.932 -97.5122 53.6114 
-111.798 -98.1062 54.2554 -111.779 -98.9162 54.7217 -111.791 -99.5805 55.1834 
-111.666 -100.04 55.9068 -111.434 -100.54 56.7942 -111.486 -101.113 57.4679 
-111.951 -101.713 57.8017 -112.517 -102.294 57.9638 -113.016 -102.713 58.1102 
-112.065 -102.719 51.4007 -111.826 -102.948 52.0497 -112.411 -103.176 51.8981 
-111.71 -103.139 53.058 -112.189 -103.525 52.7102 -112.604 -103.886 52.4021 
-111.836 -103.217 54.2112 -112.169 -103.764 53.7492 -112.329 -104.367 53.2838 
-112.74 -104.653 52.7836 -112.147 -103.174 55.1162 -112.53 -103.709 54.6767 
-112.532 -104.416 54.2171 -112.603 -104.981 53.6338 -113.343 -105.11 52.9918 
-112.388 -103.189 55.916 -112.876 -103.532 55.4795 -113.112 -104.038 55.0348 
-113.047 -104.696 54.5971 -113.395 -105.113 53.9585 -114.285 -105.165 53.2984 
-112.577 -103.269 56.766 -112.983 -103.504 56.3528 -113.452 -103.767 55.8717 
-113.633 -104.315 55.5069 -113.77 -104.834 55.1304 -114.334 -105.026 54.513 
-115.057 -105.009 53.9258 -112.899 -103.218 57.4852 -113.245 -103.467 57.1836 
-113.698 -103.712 56.7652 -114.011 -104.21 56.3809 -114.144 -104.768 56.1224 
-114.493 -104.983 55.7593 -115.117 -104.96 55.181 -115.676 -104.925 54.6185 
-113.317 -103.041 58.0106 -113.728 -103.297 57.847 -114.158 -103.624 57.6002 
-114.405 -104.153 57.3108 -114.468 -104.738 57.0545 -114.692 -105.038 56.777 
-115.239 -105.03 56.3392 -115.843 -104.989 55.741 -116.312 -105.002 55.1139 
-113.596 -102.78 58.5305 -114.036 -103.049 58.4889 -114.177 -102.857 59.1989 
-114.61 -103.289 59.2337 -114.619 -103.1 60.0469 -114.522 -103.437 58.4108 
-114.8 -103.943 60.1553 -114.993 -103.552 60.8333 -114.819 -104.048 59.2858 
-114.756 -104.048 58.3174 -115.036 -104.707 60.9111 -115.512 -104.005 61.3528 
-114.711 -105 60.2498 -114.761 -104.777 59.3515 -114.742 -104.64 58.1818 
-115.75 -105.016 61.2314 -116.192 -104.158 61.5314 -115.197 -105.636 60.8048 
-114.942 -105.493 60.2472 -115.008 -105.008 59.2446 -114.933 -104.945 57.9097 
-116.682 -104.797 61.2845 -117.012 -104.019 61.5286 -116.347 -105.547 60.8891 
-116.016 -105.805 60.5231 -115.875 -105.341 59.9591 -115.772 -104.963 58.8033 
-115.519 -105.01 57.4452 -117.668 -104.52 61.4455 -117.999 -103.817 61.5823 
-117.452 -105.17 61.0234 -117.246 -105.64 60.5105 -116.994 -105.543 60.0923 
-116.759 -105.102 59.3694 -116.49 -104.961 58.1125 -116.163 -105.021 56.8092 
-118.729 -104.359 61.675 -118.964 -103.604 61.6415 -118.473 -105.005 61.3639 
-118.207 -105.423 60.7413 -117.825 -105.475 60.1116 -117.412 -105.162 59.5253 
-117.129 -104.929 58.5726 -116.918 -104.991 57.2597 -116.65 -105.066 56.0454 
-119.6 -104.108 61.6491 -119.655 -103.334 61.4965 -119.405 -104.863 61.4927 
-119.112 -105.316 60.9817 -118.662 -105.367 60.2535 -118.091 -105.119 59.5203 
-117.65 -104.861 58.6939 -117.45 -104.871 57.5565 -117.317 -105.046 56.2943 
-117.07 -105.103 55.27 -113.152 -102.343 58.3777 -113.712 -102.479 58.941 
-113.426 -101.823 58.6292 -113.908 -102.016 59.3604 -113.736 -101.186 58.8613 
-114.192 -102.598 59.7598 -114.07 -101.377 59.699 -113.945 -100.595 59.0605 
-114.257 -102.177 60.1915 -114.649 -102.751 60.5551 -114.243 -100.655 59.9326 
-114.189 -100.069 59.238 -114.401 -101.532 60.389 -114.743 -102.288 60.7391 
-115.205 -102.997 61.1386 -114.599 -99.9356 60.063 -114.556 -99.5316 59.3178 
-114.79 -100.694 60.4703 -115.072 -101.616 60.6857 -115.455 -102.378 61.1144 
-115.863 -103.238 61.5177 -115.033 -99.3911 59.9183 -114.91 -99.0836 59.1221 
-115.324 -99.8885 60.4665 -115.668 -100.77 60.6499 -115.975 -101.634 60.9566 
-116.314 -102.416 61.4361 -116.657 -103.287 61.6227 -115.483 -99.0953 59.4308 
-115.29 -98.7157 58.7328 -115.805 -99.384 60.1862 -116.187 -100.026 60.5851 
-116.551 -100.916 60.7875 -116.927 -101.667 61.1623 -117.29 -102.404 61.4679 
-117.619 -103.173 61.5382 -116.038 -98.8099 58.9019 -115.789 -98.2632 58.4426 
-116.353 -99.1126 59.6529 -116.646 -99.5179 60.2947 -116.942 -100.305 60.551 
-117.362 -101.123 60.75 -117.822 -101.758 61.0535 -118.197 -102.382 61.276 
-118.557 -103.012 61.4538 -116.591 -98.3933 58.5608 -116.303 -97.7729 58.2995 
-116.941 -98.8397 59.1126 -117.196 -99.1846 59.7797 -117.359 -99.7558 60.1789 
[...]
CELL_DATA 2000
SCALARS Distance double
LOOKUP_TABLE default
162.529 162.083 162.421 162.655 161.697 162.041 162.311 162.588 162.823 
161.235 161.645 161.954 162.275 162.524 162.795 163.073 160.738 161.145 
161.468 161.867 162.145 162.48 162.758 163.08 163.397 160.363 160.686 
160.991 161.367 161.674 162.053 162.353 162.723 163.027 163.38 163.664 
160.053 160.353 160.629 160.945 161.242 161.595 161.928 162.306 162.636 
162.987 163.264 163.588 163.841 159.693 160.015 160.291 160.606 160.884 
161.204 161.544 161.915 162.314 162.657 162.992 163.249 163.517 163.786 
164.087 159.359 159.648 159.939 160.26 160.561 160.869 161.199 161.553 
161.98 162.37 162.795 163.074 163.382 163.569 163.855 164.105 164.456 
159.126 159.353 159.632 159.93 160.258 160.568 160.905 161.227 161.614 
162.013 162.451 162.842 163.2 163.461 163.725 163.933 164.228 164.502 
164.846 162.342 161.807 161.987 161.836 161.212 161.413 161.239 161.482 
161.384 160.578 160.807 160.622 160.852 160.714 161.003 160.905 159.854 
160.138 159.964 160.219 160.069 160.335 160.231 160.512 160.435 159.09 
159.389 159.223 159.514 159.387 159.688 159.616 159.895 159.848 160.109 
160.088 158.363 158.665 158.532 158.792 158.674 158.978 158.942 159.28 
159.274 159.564 159.54 159.804 159.78 157.616 157.969 157.92 158.181 
158.085 158.319 158.274 158.593 158.617 158.96 158.95 159.239 159.185 
159.462 159.413 156.885 157.237 157.258 157.588 157.559 157.795 157.741 
157.987 157.99 158.301 158.311 158.617 158.584 158.862 158.826 159.101 
159.092 156.338 156.583 156.616 156.939 156.971 157.261 157.25 157.494 
157.482 157.732 157.725 157.994 157.981 158.265 158.275 158.558 158.596 
158.855 158.895 156.131 155.911 156.108 156.348 155.703 155.882 156.088 
156.358 156.658 155.597 155.681 155.854 156.083 156.363 156.668 156.97 
155.69 155.621 155.699 155.847 156.097 156.385 156.698 156.978 157.246 
155.847 155.7 155.593 155.661 155.805 156.093 156.382 156.7 156.961 
157.227 157.456 155.935 155.771 155.534 155.503 155.524 155.758 156.024 
156.359 156.64 156.924 157.166 157.432 157.689 156.073 155.873 155.683 
155.508 155.517 155.564 155.859 156.084 156.456 156.676 156.996 157.201 
157.517 157.738 158.04 156.31 156.123 156.069 155.829 155.905 155.768 
156.069 156.114 156.516 156.633 156.985 157.127 157.463 157.647 157.979 
158.151 158.423 156.538 156.425 156.474 156.305 156.421 156.26 156.483 
156.429 156.709 156.752 157 157.116 157.366 157.571 157.863 158.087 
158.355 158.519 158.731 158.838 158.442 158.713 158.853 157.937 158.25 
158.389 158.722 158.954 157.428 157.707 157.875 158.244 158.555 158.932 
159.309 157.084 157.262 157.426 157.76 158.171 158.597 159.067 159.403 
159.815 156.892 157.019 157.149 157.378 157.778 158.236 158.79 159.196 
159.606 159.89 160.247 156.771 156.9 157.044 157.167 157.451 157.833 
158.36 158.859 159.309 159.651 159.968 160.281 160.67 156.719 156.847 
157.06 157.129 157.357 157.557 157.983 158.405 158.888 159.294 159.654 
159.986 160.366 160.737 161.186 156.697 156.826 157.085 157.192 157.473 
157.571 157.945 158.157 158.613 158.923 159.334 159.659 160.047 160.421 
160.865 161.259 161.679 156.672 156.781 157.029 157.204 157.554 157.717 
158.117 158.247 158.645 158.798 159.167 159.392 159.755 160.085 160.498 
160.904 161.331 161.711 162.069 159.086 159.158 159.266 159.586 159.314 
159.387 159.768 159.858 160.233 159.667 159.65 160.065 160.11 160.529 
160.561 160.923 160.154 160.101 160.523 160.505 160.935 160.915 161.291 
161.268 161.636 160.617 160.599 161.036 161.014 161.431 161.37 161.718 
161.66 162.022 162.022 162.438 161.072 161.052 161.484 161.486 161.883 
161.85 162.171 162.099 162.419 162.399 162.791 162.829 163.2 161.575 
161.527 161.911 161.888 162.251 162.244 162.587 162.548 162.88 162.822 
163.18 163.168 163.528 163.521 163.786 162.042 162.011 162.366 162.314 
162.666 162.626 163.015 162.984 163.385 163.32 163.688 163.607 163.951 
163.884 164.186 164.094 164.328 162.416 162.421 162.787 162.763 163.153 
163.107 163.534 163.482 163.91 163.843 164.221 164.131 164.464 164.366 
164.678 164.565 164.845 164.7 164.943 162.724 163.376 163.075 163.133 
164.132 163.8 163.907 163.541 163.585 164.953 164.617 164.769 164.392 
164.475 164.035 164.03 165.811 165.489 165.655 165.272 165.341 164.922 
164.898 164.446 164.378 166.566 166.338 166.54 166.179 166.243 165.788 
165.738 165.267 165.173 164.736 164.646 167.113 166.992 167.238 167.014 
167.155 166.744 166.736 166.184 166.093 165.551 165.459 164.991 164.899 
167.659 167.519 167.798 167.638 167.85 167.592 167.645 167.2 167.088 
166.531 166.377 165.846 165.719 165.24 165.117 168.284 168.146 168.474 
168.266 168.493 168.237 168.278 167.945 167.767 167.355 167.079 166.658 
166.427 166.018 165.842 165.42 165.26 168.712 168.726 169.068 168.955 
169.157 168.904 168.89 168.52 168.286 167.866 167.531 167.157 166.876 
166.567 166.375 166.058 165.894 165.518 165.347 162.583 162.567 162.794 
163.236 162.519 162.792 163.266 163.483 163.955 162.384 162.705 163.192 
163.48 163.949 164.206 164.719 162.226 162.523 162.983 163.331 163.802 
164.131 164.636 164.966 165.523 162.134 162.365 162.784 163.104 163.586 
163.936 164.443 164.814 165.364 165.742 166.259 162.062 162.276 162.669 
162.945 163.437 163.757 164.285 164.621 165.166 165.538 166.066 166.408 
166.837 161.985 162.205 162.606 162.855 163.336 163.642 164.177 164.5 
165.04 165.37 165.896 166.221 166.692 166.966 167.382 161.955 162.169 
162.612 162.828 163.293 163.552 164.05 164.37 164.888 165.236 165.737 
166.068 166.525 166.824 167.243 167.527 167.942 161.96 162.177 162.647 
162.867 163.322 163.532 163.963 164.222 164.676 165.022 165.492 165.86 
166.281 166.614 166.975 167.305 167.649 168.003 168.331 156.727 156.968 
156.89 157.082 157.451 157.252 157.497 157.405 157.702 158.176 157.881 
158.13 157.945 158.278 158.127 158.378 158.922 158.649 158.829 158.605 
158.845 158.703 158.927 158.754 158.89 159.472 159.304 159.426 159.223 
159.336 159.181 159.315 159.203 159.321 159.181 159.304 159.88 159.763 
159.926 159.758 159.885 159.666 159.784 159.588 159.728 159.573 159.742 
159.613 159.838 160.334 160.184 160.413 160.273 160.514 160.294 160.492 
160.201 160.386 160.109 160.334 160.122 160.407 160.252 160.582 160.899 
160.702 160.939 160.8 161.088 160.942 161.196 160.966 161.168 160.879 
161.106 160.838 161.135 160.916 161.256 161.078 161.419 161.525 161.307 
161.519 161.348 161.599 161.477 161.72 161.585 161.784 161.597 161.808 
161.606 161.885 161.683 161.996 161.789 162.088 161.897 162.166 156.663 
156.79 156.757 156.899 157.049 156.982 157.123 157.074 157.342 157.276 
157.281 157.473 157.382 157.604 157.613 158.017 157.388 157.491 157.766 
157.744 157.959 157.91 158.226 158.324 158.755 157.465 157.592 157.952 
158.024 158.312 158.269 158.525 158.531 158.864 158.99 159.325 157.627 
157.701 158.09 158.214 158.604 158.629 158.912 158.851 159.106 159.113 
159.395 159.481 159.746 157.909 157.913 158.274 158.377 158.803 158.905 
159.258 159.239 159.492 159.42 159.674 159.643 159.918 159.935 160.22 
158.277 158.234 158.57 158.605 159.013 159.108 159.495 159.542 159.843 
159.811 160.086 160.021 160.309 160.237 160.528 160.494 160.805 158.701 
158.63 158.955 158.938 159.316 159.356 159.732 159.776 160.099 160.119 
160.427 160.425 160.73 160.679 160.953 160.874 161.146 161.112 161.424 
159.055 159.682 159.338 159.308 160.309 159.971 159.952 159.633 159.658 
160.975 160.609 160.593 160.275 160.295 159.997 160.031 161.767 161.342 
161.322 160.939 160.941 160.615 160.628 160.341 160.366 162.588 162.18 
162.168 161.735 161.709 161.297 161.289 160.946 160.976 160.683 160.724 
163.279 162.943 162.93 162.563 162.522 162.101 162.053 161.653 161.659 
161.327 161.369 161.06 161.068 163.883 163.565 163.529 163.229 163.188 
162.849 162.781 162.406 162.355 162.008 161.993 161.687 161.664 161.355 
161.292 164.46 164.146 164.097 163.797 163.768 163.459 163.411 163.073 
163.009 162.665 162.605 162.28 162.231 161.922 161.869 161.548 161.481 
164.934 164.677 164.628 164.362 164.352 164.058 164.039 163.702 163.654 
163.299 163.244 162.895 162.862 162.523 162.513 162.168 162.159 161.793 
161.77 165.12 165.323 165.092 164.859 165.575 165.324 165.115 164.879 
164.639 165.816 165.572 165.357 165.15 164.941 164.665 164.36 166.088 
165.824 165.623 165.399 165.205 164.953 164.654 164.336 163.968 166.521 
166.198 166.05 165.739 165.545 165.235 164.94 164.61 164.239 163.914 
163.547 167.033 166.71 166.571 166.235 166.017 165.639 165.309 164.92 
164.554 164.203 163.857 163.525 163.189 167.478 167.18 166.987 166.701 
166.446 166.099 165.725 165.314 164.913 164.543 164.218 163.883 163.57 
163.208 162.871 167.9 167.574 167.32 167.031 166.748 166.449 166.074 
165.698 165.259 164.886 164.521 164.222 163.917 163.6 163.251 162.884 
162.517 168.294 167.962 167.645 167.33 167.005 166.711 166.348 166.01 
165.574 165.2 164.772 164.465 164.11 163.86 163.503 163.211 162.81 
162.482 162.102 165.365 165.834 165.583 165.568 166.334 166.119 166.166 
165.865 165.871 166.683 166.62 166.785 166.545 166.574 166.2 166.147 
166.857 166.888 167.094 167.054 167.105 166.865 166.75 166.406 166.338 
167.136 167.062 167.166 167.167 167.163 167.142 167.029 166.878 166.786 
166.59 166.663 167.568 167.394 167.35 167.196 167.094 167.061 167.036 
167.026 167.086 166.997 167.138 167 167.181 167.845 167.736 167.594 
167.382 167.234 167.101 167.196 167.166 167.439 167.37 167.646 167.503 
167.723 167.539 167.689 167.84 167.837 167.676 167.542 167.411 167.315 
167.478 167.492 167.848 167.827 168.122 168.01 168.215 168.071 168.243 
168.045 168.161 167.678 167.732 167.62 167.567 167.482 167.46 167.602 
167.716 168.003 168.122 168.311 168.332 168.442 168.437 168.605 168.556 
168.732 168.535 168.607 165.351 165.42 165.536 165.801 165.267 165.529 
165.811 165.966 166.213 164.883 165.249 165.572 165.871 166.104 166.291 
166.475 164.525 164.849 165.209 165.566 165.883 166.122 166.29 166.455 
166.633 164.288 164.574 164.961 165.273 165.695 165.948 166.211 166.314 
166.493 166.646 166.945 163.976 164.329 164.714 165.062 165.517 165.839 
166.216 166.335 166.522 166.577 166.843 167.058 167.423 163.572 163.947 
164.285 164.699 165.103 165.573 166.004 166.325 166.547 166.625 166.753 
166.917 167.209 167.501 167.754 163.227 163.546 163.837 164.201 164.52 
165.008 165.415 165.941 166.247 166.532 166.612 166.756 166.877 167.167 
167.4 167.696 167.789 162.925 163.222 163.502 163.797 164.076 164.436 
164.783 165.275 165.64 166.087 166.278 166.517 166.59 166.805 166.959 
167.263 167.412 167.642 167.639 162.827 162.905 163.059 163.437 163.15 
163.23 163.651 163.705 164.048 163.477 163.564 164.007 164.014 164.369 
164.35 164.726 163.503 163.785 164.226 164.36 164.711 164.714 165.042 
165.073 165.497 163.207 163.597 164.022 164.368 164.733 164.942 165.264 
165.361 165.7 165.804 166.139 163.08 163.315 163.711 164.027 164.414 
164.774 165.187 165.468 165.851 165.985 166.28 166.33 166.541 163.216 
163.341 163.701 163.835 164.19 164.453 164.923 165.297 165.804 166.077 
166.436 166.505 166.716 166.703 166.905 163.223 163.441 163.771 163.905 
164.204 164.355 164.753 165.059 165.569 165.941 166.355 166.577 166.79 
166.861 167.01 167.068 167.27 162.978 163.287 163.593 163.859 164.136 
164.347 164.655 164.91 165.302 165.655 166.03 166.359 166.577 166.786 
166.896 167.05 167.172 167.335 167.473 162.905 162.982 163.124 163.503 
163.114 163.205 163.58 163.735 164.102 163.364 163.377 163.725 163.836 
164.242 164.353 164.694 163.7 163.673 163.969 164.007 164.379 164.502 
164.898 164.979 165.331 163.979 163.998 164.254 164.251 164.546 164.635 
165.02 165.16 165.544 165.634 165.98 164.181 164.244 164.529 164.52 
164.778 164.807 165.167 165.291 165.693 165.807 166.137 166.22 166.489 
164.451 164.49 164.849 164.825 165.101 165.062 165.379 165.454 165.855 
165.97 166.307 166.36 166.599 166.644 166.842 164.829 164.842 165.253 
165.221 165.534 165.437 165.689 165.669 165.987 166.098 166.432 166.526 
166.763 166.783 166.968 166.981 167.157 165.207 165.235 165.647 165.652 
165.999 165.914 166.155 166.026 166.237 166.218 166.482 166.585 166.837 
166.922 167.1 167.125 167.275 167.294 167.446 167.546 167.38 167.498 
167.519 167.223 167.353 167.422 167.47 167.486 166.958 167.167 167.283 
167.408 167.518 167.548 167.686 166.676 166.9 167.09 167.265 167.43 
167.558 167.738 167.836 168.04 166.582 166.758 167.117 167.225 167.508 
167.539 167.724 167.797 167.978 168.123 168.275 166.547 166.764 167.205 
167.383 167.783 167.801 168.047 167.94 168.117 168.083 168.289 168.336 
168.481 166.333 166.64 166.958 167.306 167.62 167.92 168.167 168.276 
168.475 168.422 168.669 168.57 168.827 168.69 168.82 165.954 166.293 
166.494 166.852 167.017 167.438 167.615 168.044 168.265 168.586 168.856 
168.99 169.243 169.178 169.308 169.086 169.048 165.52 165.856 166.058 
166.358 166.509 166.812 166.986 167.369 167.634 168.101 168.418 168.852 
169.089 169.346 169.401 169.428 169.298 169.14 168.897 156.375 156.887 
156.622 156.781 157.624 157.247 157.36 157.159 157.461 158.442 158.055 
158.153 157.835 158.074 157.902 158.21 159.239 158.892 159.033 158.681 
158.887 158.598 158.859 158.643 158.909 160.014 159.697 159.855 159.538 
159.767 159.469 159.745 159.424 159.684 159.385 159.657 160.75 160.47 
160.597 160.299 160.499 160.284 160.615 160.374 160.669 160.3 160.521 
160.177 160.431 161.432 161.199 161.351 161.028 161.166 160.934 161.252 
161.148 161.518 161.281 161.475 161.085 161.218 160.908 161.127 162.068 
161.894 162.133 161.823 161.963 161.628 161.874 161.729 162.14 162.033 
162.317 161.997 162.083 161.695 161.819 161.561 161.786 162.613 162.519 
162.82 162.608 162.787 162.452 162.621 162.377 162.728 162.635 163.02 
162.808 162.983 162.578 162.658 162.288 162.455 162.212 162.431 156.206 
156.64 156.312 156.167 157.325 156.881 156.691 156.304 156.094 158.052 
157.607 157.361 156.888 156.601 156.193 155.97 158.727 158.303 158.066 
157.569 157.245 156.749 156.511 156.14 156.084 159.451 158.997 158.816 
158.309 158.055 157.488 157.282 156.8 156.778 156.433 156.546 160.229 
159.768 159.603 159.104 158.91 158.367 158.214 157.695 157.678 157.243 
157.335 156.983 157.119 160.971 160.55 160.396 159.909 159.698 159.198 
159.033 158.591 158.557 158.163 158.214 157.822 157.896 157.545 157.658 
161.662 161.28 161.168 160.704 160.509 159.99 159.797 159.341 159.277 
158.935 158.985 158.658 158.723 158.354 158.421 158.077 158.186 162.296 
161.953 161.859 161.455 161.304 160.821 160.651 160.147 160.053 159.64 
159.679 159.366 159.467 159.15 159.229 158.87 158.939 158.6 158.694 
156.041 155.928 155.908 155.802 155.786 155.758 155.581 155.645 155.576 
155.65 155.566 155.336 155.379 155.317 155.45 155.492 155.794 155.53 
155.284 155.174 155.134 155.234 155.414 155.541 155.714 156.279 155.877 
155.649 155.32 155.27 155.194 155.446 155.567 155.895 155.916 156.039 
156.874 156.472 156.29 155.87 155.79 155.519 155.692 155.694 156.024 
156.104 156.297 156.211 156.183 157.435 157.076 156.945 156.56 156.477 
156.126 156.178 156.015 156.22 156.226 156.409 156.399 156.432 156.301 
156.253 157.964 157.631 157.519 157.191 157.113 156.783 156.769 156.515 
156.616 156.484 156.635 156.553 156.64 156.529 156.537 156.393 156.399 
158.467 158.151 158.031 157.732 157.652 157.361 157.331 157.069 157.129 
156.93 157.063 156.899 157.011 156.833 156.867 156.682 156.673 156.534 
156.558 165.072 164.59 164.945 165.107 163.991 164.385 164.532 164.9 
164.949 163.341 163.735 163.856 164.259 164.314 164.637 164.587 162.613 
163.03 163.102 163.533 163.585 163.963 163.941 164.244 164.215 161.795 
162.233 162.267 162.719 162.731 163.165 163.133 163.532 163.505 163.885 
163.91 161.015 161.409 161.442 161.862 161.857 162.274 162.224 162.65 
162.61 163.065 163.074 163.538 163.564 160.344 160.683 160.712 161.077 
161.069 161.429 161.381 161.76 161.734 162.157 162.178 162.639 162.692 
163.152 163.189 159.704 160.028 160.03 160.375 160.345 160.674 160.598 
160.945 160.905 161.314 161.347 161.788 161.864 162.306 162.395 162.817 
162.88 159.061 159.366 159.338 159.678 159.638 159.96 159.868 160.176 
160.088 160.469 160.473 160.942 161.026 161.507 161.615 162.06 162.152 
162.55 162.6 
POINT_DATA 1002
SCALARS Distance double
LOOKUP_TABLE default
162.754 162.674 162.159 162.351 161.742 162.861 162.032 161.317 162.552 
163.057 161.588 160.801 162.243 162.777 163.386 161.047 160.367 161.773 
162.421 163.077 163.729 160.647 160.078 161.283 161.968 162.671 163.335 
163.928 160.336 159.748 160.909 161.537 162.282 162.957 163.503 164.094 
159.964 159.369 160.576 161.17 161.927 162.734 163.288 163.761 164.407 
159.613 159.098 160.243 160.865 161.565 162.45 163.201 163.659 164.148 
164.814 159.349 158.932 159.935 160.597 161.254 162.026 162.878 163.524 
163.993 164.544 165.181 162.193 161.61 161.619 161.013 161.005 161.096 
160.405 160.324 160.449 160.598 159.686 159.554 159.803 159.958 160.14 
158.928 158.79 159.056 159.305 159.587 159.821 158.279 158.022 158.393 
158.575 158.949 159.286 159.515 157.608 157.22 157.875 157.991 158.258 
158.646 158.919 159.124 156.883 156.551 157.284 157.521 157.713 158.001 
158.289 158.545 158.812 156.315 156.15 156.65 156.98 157.25 157.484 
157.693 157.962 158.319 158.658 155.929 156.08 155.725 155.841 155.545 
156.345 155.659 155.588 156.064 156.682 155.619 155.867 155.821 156.41 
157.005 155.617 156.059 155.546 156.052 156.686 157.192 155.639 156.11 
155.348 155.679 156.341 156.894 157.412 155.872 156.238 155.54 155.666 
156.233 156.796 157.3 157.841 156.26 156.435 156.077 156.1 156.446 
156.871 157.289 157.803 158.295 156.584 156.599 156.581 156.607 156.743 
156.941 157.189 157.621 158.165 158.606 158.976 158.558 159.026 158.027 
158.583 159.255 157.475 158.125 158.959 159.715 157.124 157.681 158.709 
159.537 160.193 156.994 157.333 158.322 159.343 159.94 160.61 156.965 
157.176 157.848 158.915 159.671 160.294 161.108 156.971 157.247 157.651 
158.454 159.298 159.995 160.809 161.643 156.928 157.359 157.816 158.368 
159.019 159.686 160.461 161.327 162.068 156.834 157.327 157.977 158.558 
159.01 159.473 160.108 160.925 161.74 162.4 159.474 159.663 160.168 
160.034 160.5 160.92 160.555 160.981 161.325 161.631 161.049 161.506 
161.806 162.025 162.41 161.499 161.905 162.24 162.468 162.764 163.2 
161.975 162.261 162.587 162.937 163.235 163.543 163.843 162.416 162.707 
163.03 163.43 163.788 164.043 164.268 164.449 162.779 163.167 163.584 
163.988 164.313 164.563 164.788 164.98 165.107 162.993 163.452 163.684 
164.266 164.448 164.005 165.139 165.275 164.905 164.518 166.054 166.106 
165.775 165.346 164.833 166.857 166.737 166.71 166.243 165.624 165.063 
167.384 167.219 167.477 167.278 166.687 165.969 165.349 167.956 167.803 
168.056 168.021 167.636 166.941 166.224 165.585 168.68 168.37 168.787 
168.637 168.179 167.488 166.81 166.248 165.695 169.128 168.639 169.398 
169.289 168.746 167.933 167.174 166.646 166.234 165.754 162.357 163.032 
162.313 163.031 162.216 163.735 162.87 162.068 163.675 164.437 162.631 
161.98 163.449 164.282 165.189 162.487 161.937 163.234 164.077 164.971 
165.934 162.407 161.842 163.115 163.962 164.818 165.711 166.555 162.367 
161.747 163.045 163.85 164.722 165.581 166.398 167.125 162.395 161.723 
163.074 163.76 164.54 165.405 166.226 166.951 167.654 162.415 161.743 
163.132 163.762 164.367 165.121 165.95 166.667 167.309 167.985 156.75 
157.086 157.07 157.601 157.682 157.804 158.359 158.487 158.432 158.6 
159.103 159.176 159.026 159.079 159.103 159.634 159.608 159.543 159.441 
159.429 159.432 160.048 159.986 160.098 160.017 159.898 159.861 159.935 
160.519 160.498 160.675 160.771 160.691 160.57 160.572 160.715 161.089 
161.111 161.208 161.383 161.437 161.377 161.373 161.461 161.594 156.643 
156.88 156.85 157.219 157.081 157.274 157.546 157.203 157.657 157.883 
157.724 157.239 158.03 158.194 158.604 157.813 157.343 158.321 158.587 
158.797 159.192 157.947 157.591 158.51 158.981 159.172 159.351 159.645 
158.202 157.934 158.673 159.226 159.568 159.74 159.935 160.178 158.568 
158.331 158.942 159.425 159.834 160.129 160.392 160.602 160.807 158.992 
158.781 159.305 159.703 160.069 160.397 160.757 161.045 161.213 161.419 