# vtk DataFile Version 4.0
vtk output
ASCII
DATASET POLYDATA
POINTS 1002 float
-118.027 -100.504 54.6729 -117.785 -100.215 54.0517 -117.348 -100.208 54.339 
-117.549 -100.493 55.1114 -116.896 -100.207 54.7817 -118.262 -100.766 55.4033 
-117.033 -100.54 55.55 -116.38 -100.356 55.1372 -117.765 -100.753 55.8523 
-118.349 -101.156 55.8731 -116.434 -100.71 55.8128 -115.802 -100.549 55.4585 
-117.189 -100.81 56.216 -117.851 -101.095 56.3498 -118.271 -101.564 56.3815 
-115.795 -100.817 56.164 -115.269 -100.583 55.9973 -116.48 -101.023 56.4844 
-117.237 -101.24 56.7712 -117.789 -101.551 56.9629 -118.208 -101.949 57.2663 
-115.226 -100.85 56.7046 -114.752 -100.618 56.5737 -115.741 -101.264 56.8647 
-116.422 -101.698 57.1173 -117.127 -101.929 57.3769 -117.67 -102.144 57.6801 
-118.209 -102.499 57.9594 -114.561 -101.143 57.0573 -114.071 -100.898 56.8842 
-115.076 -101.56 57.2183 -115.602 -102.137 57.4144 -116.239 -102.475 57.653 
-116.898 -102.584 57.9291 -117.488 -102.776 58.1786 -118.11 -103.067 58.2941 
-113.668 -101.691 57.1465 -113.281 -101.297 57.0198 -114.294 -102.031 57.3856 
-114.921 -102.443 57.6457 -115.456 -102.751 57.9088 -116.056 -102.923 58.2449 
-116.689 -103.127 58.5897 -117.282 -103.29 58.774 -117.911 -103.373 58.8503 
-112.843 -102.11 57.2311 -112.624 -101.564 57.1874 -113.441 -102.445 57.5185 
-114.241 -102.667 57.9199 -114.898 -102.845 58.2634 -115.446 -103.081 58.6464 
-116.06 -103.496 59.1198 -116.647 -103.784 59.4499 -117.176 -103.694 59.5467 
-117.753 -103.503 59.6277 -112.337 -102.229 57.4629 -112.192 -101.641 57.4688 
-112.834 -102.578 57.7361 -113.623 -102.722 58.2437 -114.39 -102.852 58.7152 
-114.991 -103.165 59.0971 -115.584 -103.791 59.5274 -116.2 -104.399 59.9014 
-116.72 -104.432 60.0558 -117.181 -103.986 60.1089 -117.682 -103.584 60.2654 
-117.346 -99.7607 53.7985 -116.931 -99.7791 54.0411 -117.001 -99.2416 53.5709 
-116.532 -99.3758 53.726 -116.597 -98.9453 53.0623 -116.453 -99.8245 54.4279 
-116.013 -99.1535 53.2085 -116.061 -98.7125 52.4771 -115.972 -99.4467 54.0922 
-115.879 -100.002 54.799 -115.557 -98.7564 52.8658 -115.656 -98.0388 52.4128 
-115.487 -99.1197 53.7797 -115.385 -99.5429 54.5817 -115.292 -100.187 55.2529 
-115.434 -97.8926 53.114 -115.55 -97.0506 52.8178 -115.231 -98.5847 53.7853 
-115.015 -99.0908 54.4915 -114.83 -99.6957 55.1002 -114.766 -100.271 55.8495 
-115.462 -96.9915 53.5824 -115.532 -96.2688 53.2279 -115.138 -97.794 54.0544 
-114.78 -98.5649 54.5571 -114.487 -99.2055 55.0075 -114.29 -99.8246 55.6371 
-114.216 -100.366 56.3862 -115.361 -96.3794 53.9259 -115.418 -95.722 53.5852 
-114.963 -97.0592 54.2381 -114.514 -97.8748 54.598 -114.236 -98.6356 55.0315 
-113.985 -99.2634 55.5798 -113.789 -99.8782 56.2456 -113.598 -100.549 56.7742 
-115.133 -95.8786 54.2572 -115.213 -95.2059 53.9484 -114.728 -96.5026 54.4462 
-114.248 -97.1724 54.6491 -114.043 -97.9019 55.1065 -113.883 -98.5925 55.7394 
-113.594 -99.245 56.3387 -113.323 -99.9417 56.8138 -112.995 -100.747 57.0786 
-114.836 -95.3649 54.5763 -114.947 -94.7166 54.2376 -114.479 -96.0267 54.7833 
-114.035 -96.6356 54.8995 -113.876 -97.2197 55.2634 -113.844 -97.8675 55.93 
-113.549 -98.5954 56.5269 -113.16 -99.3213 56.9177 -112.841 -100.064 57.1989 
-112.487 -100.88 57.3643 -114.543 -94.6741 54.6816 -114.249 -95.3613 55.0091 
-113.962 -94.6974 55.0739 -113.477 -95.3878 55.2713 -113.255 -94.6887 55.4042 
-113.81 -96.0817 55.1771 -112.687 -95.3132 55.4794 -112.602 -94.6076 55.9546 
-113.113 -96.1225 55.4467 -113.589 -96.6835 55.4227 -112.281 -95.2752 56.1046 
-112.358 -94.772 56.8815 -112.576 -96.1038 55.7842 -113.144 -96.7393 55.931 
-113.64 -97.236 56.0295 -112.446 -95.6743 57.1438 -112.61 -95.3999 57.719 
-112.476 -96.2968 56.5596 -112.697 -96.8824 56.4364 -113.089 -97.3754 56.6032 
-113.418 -97.9691 56.6577 -112.684 -96.354 58.0806 -112.93 -96.1234 58.2709 
-112.532 -96.805 57.6388 -112.377 -97.2176 57.1781 -112.366 -97.6159 56.9744 
-112.602 -98.2074 56.9598 -112.917 -98.8201 56.9837 -112.638 -96.7915 58.8664 
-113.018 -96.574 58.9156 -112.317 -97.1969 58.6742 -112.018 -97.5604 58.1899 
-111.836 -97.863 57.6207 -111.911 -98.4105 57.2504 -112.204 -99.0814 57.1881 
-112.558 -99.6061 57.2517 -112.563 -96.9693 59.63 -112.993 -96.8163 59.7085 
-112.157 -97.3452 59.5235 -111.78 -97.7666 59.2094 -111.57 -98.102 58.6594 
-111.63 -98.6048 58.0693 -111.818 -99.302 57.7188 -112.041 -99.9029 57.6343 
-112.279 -100.393 57.5572 -112.611 -97.1235 60.308 -112.99 -97.0052 60.423 
-112.322 -97.5181 60.1393 -112.015 -98.0268 59.9287 -111.708 -98.4292 59.6451 
-111.627 -98.8959 59.2068 -111.72 -99.5696 58.7145 -111.78 -100.211 58.3636 
-111.852 -100.713 58.097 -111.999 -101.189 57.7802 -111.982 -101.987 57.8856 
-111.758 -101.565 58.3378 -112.014 -102.18 58.6364 -111.66 -101.113 58.8276 
-111.764 -101.811 59.1871 -112.156 -102.291 59.6743 -111.694 -100.576 59.2965 
-111.711 -101.34 59.7145 -112.001 -101.884 60.1839 -112.333 -102.376 60.6785 
-111.725 -99.8698 59.8088 -111.74 -100.695 60.2397 -112.024 -101.299 60.5832 
-112.385 -101.873 61.0535 -112.676 -102.387 61.4214 -111.859 -99.2441 60.1932 
-111.818 -99.9738 60.7377 -111.947 -100.592 61.0783 -112.427 -101.31 61.3897 
-112.79 -101.955 61.7863 -113.189 -102.349 62.0963 -112.224 -98.8364 60.3177 
-112.204 -99.5196 60.8985 -112.014 -99.993 61.5142 -112.262 -100.74 61.9179 
-112.755 -101.605 62.2258 -113.183 -102.095 62.5504 -113.737 -102.369 62.8439 
-112.475 -98.2893 60.4833 -112.571 -99.1035 60.9539 -112.388 -99.5944 61.6663 
-112.371 -100.173 62.3136 -112.712 -101.104 62.7193 -113.157 -101.781 63.0006 
-113.714 -102.093 63.2587 -114.318 -102.428 63.5157 -112.529 -97.6084 60.8075 
-112.509 -98.317 61.3454 -112.472 -98.9473 61.992 -112.63 -99.5248 62.547 
-113.002 -100.374 62.9433 -113.329 -101.178 63.3003 -113.752 -101.611 63.5938 
-114.363 -101.99 63.835 -114.864 -102.469 64.0896 -112.743 -97.2206 61.0371 
-112.486 -97.5696 61.7649 -112.336 -98.0637 62.5178 -112.608 -98.6961 62.9395 
-113.254 -99.5601 63.0474 -113.703 -100.45 63.3212 -113.914 -101.021 63.7848 
-114.326 -101.446 64.1437 -114.864 -101.982 64.4099 -115.205 -102.5 64.6776 
-112.355 -102.437 58.0361 -112.547 -102.503 58.9675 -113.036 -102.63 58.5038 
-112.645 -102.645 60.0285 -113.236 -102.681 59.4485 -113.822 -102.746 59.0888 
-112.828 -102.776 60.8783 -113.378 -102.877 60.2775 -113.983 -102.904 59.8925 
-114.51 -103.082 59.5459 -113.384 -102.684 61.5684 -113.872 -102.886 60.9516 
-114.342 -103.01 60.5348 -114.687 -103.427 60.249 -115.128 -103.834 59.9002 
-114.023 -102.588 62.3718 -114.579 -102.716 61.7342 -115.01 -102.812 61.2064 
-115.075 -103.37 60.8214 -115.277 -104.319 60.4306 -115.769 -104.747 60.1496 
-114.493 -102.702 63.2023 -114.965 -102.783 62.6566 -115.5 -102.726 62.0515 
-115.577 -103.008 61.5159 -115.512 -103.987 60.9034 -115.87 -104.962 60.4089 
-116.381 -105.052 60.2417 -114.907 -102.853 63.9023 -115.144 -103.028 63.5189 
-115.659 -102.978 62.9629 -115.984 -102.95 62.4004 -115.946 -103.372 61.746 
-116.082 -104.209 60.9804 -116.523 -104.743 60.4882 -116.906 -104.546 60.3307 
-115.255 -102.89 64.5414 -115.392 -103.168 64.289 -115.813 -103.289 63.8638 
-116.28 -103.272 63.3525 -116.442 -103.262 62.8108 -116.514 -103.48 62.1336 
-116.797 -103.865 61.3959 -117.133 -104.037 60.8766 -117.387 -103.856 60.584 
-115.412 -102.743 65.255 -115.604 -103.092 65.089 -115.7 -102.912 65.7907 
-116.212 -103.423 65.6141 -116.373 -103.207 66.0799 -116.008 -103.454 64.8292 
-117.028 -104.019 65.9403 -117.276 -103.61 66.1056 -116.765 -104.071 65.4107 
-116.513 -103.737 64.4163 -117.62 -104.325 65.9396 -117.901 -103.705 66.0191 
-117.256 -104.758 65.7005 -116.973 -104.499 64.9135 -116.777 -103.765 63.8669 
-117.907 -103.927 65.6149 -118.241 -103.47 65.8683 -117.538 -104.729 65.4208 
-117.174 -105.102 64.8968 -117.035 -104.441 64.1749 -116.903 -103.575 63.2947 
-118.316 -103.483 65.2299 -118.78 -103.327 65.7458 -118.09 -104.168 64.8681 
-117.872 -105.101 64.4496 -117.615 -105.036 64.0637 -117.452 -104.018 63.6498 
-117.197 -103.447 62.6745 -119.089 -103.46 65.1664 -119.65 -103.311 65.8266 
-118.875 -103.896 64.6283 -118.96 -104.816 64.2131 -118.812 -105.223 63.9344 
-118.368 -104.461 63.7829 -117.924 -103.547 63.1846 -117.512 -103.467 61.9665 
-119.981 -103.458 65.3705 -120.476 -103.173 65.9801 -119.63 -103.818 64.7855 
-119.663 -104.491 64.3598 -119.678 -104.917 64.0614 -119.222 -104.433 63.8379 
-118.575 -103.598 63.401 -118.089 -103.267 62.4544 -117.716 -103.47 61.34 
-120.601 -103.174 65.4153 -120.942 -102.86 65.8857 -120.225 -103.482 64.9191 
-120.021 -103.955 64.5225 -119.895 -104.274 64.1903 -119.502 -103.931 63.8112 
-118.914 -103.289 63.3087 -118.498 -103.071 62.5923 -118.254 -103.233 61.6975 
-117.989 -103.429 60.8635 -115.189 -102.263 65.1686 -115.343 -102.52 65.8143 
-115.055 -101.997 65.6847 -115.307 -102.19 66.2951 -115.027 -101.486 66.0499 
-115.674 -102.621 66.301 -115.498 -101.552 66.5127 -115.216 -100.631 66.1839 
-115.839 -102.188 66.7134 -116.484 -102.781 66.4416 -115.848 -100.707 66.4751 
-115.54 -99.8696 66.1389 -116.207 -101.537 66.8459 -116.757 -102.238 66.8162 
-117.47 -103.046 66.3861 -116.278 -100.064 66.3413 -116.016 -99.5294 65.9082 
-116.613 -100.791 66.6931 -117.105 -101.565 66.894 -117.722 -102.412 66.7649 
-118.163 -103.178 66.3724 -116.826 -99.6234 66.1388 -116.606 -99.2548 65.5403 
-117.084 -100.106 66.4981 -117.487 -100.764 66.6745 -118.049 -101.622 66.815 
-118.537 -102.545 66.7693 -118.742 -103.154 66.3601 -117.314 -99.1499 65.8071 
-117.074 -98.7798 65.2014 -117.586 -99.517 66.2751 -117.954 -99.967 66.5247 
-118.476 -100.698 66.7021 -119.001 -101.652 66.8506 -119.354 -102.516 66.7553 
-119.537 -103.058 66.3503 -117.608 -98.7074 65.3675 -117.345 -98.2659 64.9434 
-117.948 -99.113 65.8245 -118.383 -99.419 66.2948 -118.927 -99.8895 66.6776 
-119.46 -100.693 66.8385 -119.854 -101.565 66.8127 -120.155 -102.3 66.6839 
-120.381 -102.854 66.4135 -117.834 -98.3545 64.9203 -117.557 -97.8294 64.7047 
-118.207 -98.8593 65.2207 -118.683 -99.1663 65.7267 -119.246 -99.4148 66.3533 
[...]
CELL_DATA 2000
SCALARS Distance double
LOOKUP_TABLE default
162.935 162.734 163.053 163.504 162.559 162.863 163.302 163.624 164.036 
162.368 162.669 163.076 163.405 163.804 164.112 164.458 162.16 162.44 
162.815 163.15 163.558 163.883 164.262 164.529 164.893 161.989 162.228 
162.58 162.886 163.324 163.662 164.103 164.378 164.77 165.018 165.426 
161.82 162.06 162.406 162.685 163.121 163.454 163.912 164.223 164.612 
164.884 165.236 165.531 165.895 161.584 161.855 162.201 162.511 162.933 
163.264 163.68 163.995 164.361 164.666 165.016 165.313 165.647 165.934 
166.235 161.327 161.591 161.926 162.265 162.692 163.05 163.463 163.762 
164.134 164.418 164.855 165.148 165.606 165.808 166.152 166.292 166.546 
161.135 161.355 161.681 161.988 162.415 162.781 163.227 163.551 163.968 
164.252 164.758 165.077 165.675 165.911 166.37 166.409 166.653 166.651 
166.832 162.524 161.864 162.229 162.322 161.225 161.583 161.666 162.04 
162.149 160.545 160.931 160.997 161.374 161.466 161.867 161.976 159.836 
160.236 160.325 160.701 160.784 161.172 161.292 161.697 161.808 159.234 
159.588 159.749 160.086 160.206 160.528 160.638 161.015 161.162 161.55 
161.663 158.812 159.104 159.293 159.584 159.726 160.011 160.099 160.404 
160.513 160.894 161.035 161.415 161.501 158.489 158.755 158.89 159.137 
159.204 159.502 159.57 159.882 159.954 160.28 160.395 160.77 160.889 
161.24 161.287 158.162 158.43 158.518 158.713 158.688 158.933 158.983 
159.322 159.45 159.769 159.893 160.193 160.321 160.641 160.733 161.028 
161.06 157.783 158.062 158.145 158.333 158.296 158.456 158.492 158.775 
158.967 159.304 159.493 159.763 159.88 160.137 160.231 160.505 160.57 
160.83 160.876 157.599 157.361 157.648 157.915 156.99 157.317 157.57 
157.882 158.075 156.57 156.856 157.115 157.503 157.809 158.069 158.325 
156.518 156.539 156.814 157.105 157.555 157.871 158.29 158.483 158.843 
157.134 156.837 157.134 157.09 157.553 157.727 158.202 158.45 158.85 
159.049 159.363 158.016 157.674 157.929 157.686 157.986 157.897 158.188 
158.32 158.63 158.912 159.212 159.463 159.71 158.668 158.442 158.564 
158.392 158.493 158.331 158.38 158.327 158.47 158.642 158.93 159.217 
159.529 159.77 160.034 159.111 158.919 158.947 158.818 158.857 158.704 
158.712 158.551 158.66 158.632 158.936 159.062 159.446 159.625 159.958 
160.126 160.386 159.505 159.299 159.337 159.178 159.302 159.11 159.241 
158.996 159.191 159.016 159.359 159.306 159.708 159.722 160.067 160.124 
160.399 160.494 160.723 160.899 160.616 160.887 161.2 160.374 160.648 
160.988 161.27 161.675 160.135 160.455 160.838 161.098 161.502 161.798 
162.229 159.854 160.228 160.653 160.942 161.327 161.627 162.058 162.365 
162.777 159.682 160.002 160.458 160.735 161.093 161.395 161.824 162.186 
162.648 162.932 163.346 159.701 159.946 160.44 160.632 160.987 161.171 
161.58 161.93 162.469 162.825 163.306 163.543 163.979 159.687 159.955 
160.431 160.672 161.034 161.158 161.509 161.747 162.289 162.66 163.217 
163.508 163.96 164.194 164.645 159.606 159.832 160.189 160.521 160.844 
161.117 161.419 161.687 162.15 162.514 163.067 163.398 163.853 164.123 
164.55 164.837 165.285 159.695 159.757 160.002 160.208 160.473 160.777 
161.081 161.45 161.89 162.323 162.858 163.238 163.688 163.971 164.364 
164.671 165.108 165.433 165.839 161.158 161.484 161.429 161.732 161.972 
161.852 162.165 162.1 162.477 162.516 162.383 162.685 162.588 162.947 
162.901 163.285 163.045 162.919 163.214 163.113 163.459 163.39 163.779 
163.721 164.079 163.606 163.46 163.78 163.659 164.014 163.914 164.326 
164.26 164.719 164.596 164.99 164.251 164.075 164.425 164.275 164.631 
164.49 164.852 164.788 165.263 165.26 165.773 165.625 165.991 164.942 
164.762 165.106 164.945 165.273 165.11 165.373 165.257 165.578 165.649 
166.113 166.24 166.625 166.523 166.666 165.595 165.445 165.758 165.599 
165.894 165.73 165.967 165.775 165.973 165.893 166.193 166.342 166.683 
166.839 166.982 166.911 166.86 166.132 166.036 166.326 166.198 166.491 
166.345 166.636 166.422 166.642 166.385 166.584 166.47 166.726 166.789 
166.984 167.022 167.051 166.959 166.934 166.464 166.998 166.729 166.687 
167.695 167.367 167.424 167.013 166.944 168.591 168.245 168.425 167.932 
167.911 167.334 167.172 169.235 169.087 169.265 168.948 168.902 168.358 
168.101 167.492 167.176 169.342 169.381 169.429 169.46 169.383 169.141 
168.831 168.335 167.925 167.375 167.039 169.388 169.291 169.27 169.368 
169.451 169.436 169.345 168.982 168.666 168.105 167.751 167.235 167.035 
169.845 169.493 169.488 169.362 169.653 169.645 169.91 169.626 169.526 
168.929 168.585 167.968 167.661 167.243 167.13 170.472 170.103 170.068 
169.805 170.045 170.02 170.344 170.242 170.178 169.746 169.293 168.729 
168.256 167.804 167.513 167.256 167.139 170.786 170.615 170.483 170.306 
170.308 170.311 170.39 170.448 170.228 170.06 169.457 169.123 168.522 
168.219 167.86 167.605 167.421 167.212 167.098 166.402 166.407 166.585 
166.915 166.315 166.567 166.916 167.087 167.498 166.085 166.436 166.852 
167.081 167.49 167.736 168.28 165.795 166.173 166.672 167 167.468 
167.729 168.235 168.539 168.998 165.676 165.948 166.454 166.8 167.317 
167.658 168.173 168.488 168.945 169.15 169.347 165.735 165.926 166.367 
166.623 167.087 167.436 167.951 168.348 168.859 169.14 169.473 169.474 
169.566 165.717 165.949 166.327 166.554 166.936 167.213 167.682 168.071 
168.624 169.015 169.489 169.666 169.947 169.846 170.02 165.54 165.821 
166.173 166.447 166.814 167.076 167.517 167.845 168.382 168.771 169.28 
169.606 169.983 170.147 170.41 170.384 170.578 165.328 165.599 165.954 
166.249 166.639 166.93 167.364 167.688 168.175 168.541 168.989 169.339 
169.679 169.997 170.27 170.52 170.719 170.804 170.869 159.935 160.446 
160.152 160.157 161.066 160.739 160.681 160.393 160.503 161.61 161.4 
161.429 161.036 161.059 160.813 161.087 161.98 161.898 162.097 161.838 
161.931 161.545 161.767 161.555 161.99 162.465 162.294 162.565 162.45 
162.703 162.443 162.685 162.394 162.774 162.583 163.019 163.251 162.931 
163.159 162.964 163.268 163.123 163.424 163.246 163.566 163.385 163.719 
163.545 163.835 164.044 163.769 163.963 163.674 163.905 163.696 163.97 
163.844 164.146 164.046 164.342 164.196 164.454 164.267 164.513 164.594 
164.459 164.682 164.461 164.656 164.389 164.58 164.37 164.623 164.525 
164.847 164.765 165.083 164.919 165.212 164.993 165.28 165.001 164.929 
165.197 165.085 165.325 165.117 165.295 165.025 165.216 165.023 165.331 
165.253 165.629 165.542 165.877 165.712 165.99 165.778 166.011 159.906 
159.96 160.103 160.426 159.844 160.075 160.416 160.624 160.971 159.761 
159.938 160.286 160.533 160.889 161.119 161.423 159.83 159.935 160.304 
160.478 160.905 161.069 161.407 161.531 161.8 159.852 159.986 160.309 
160.523 160.995 161.202 161.638 161.679 161.999 161.996 162.347 159.874 
159.966 160.203 160.413 160.811 161.178 161.666 161.919 162.292 162.332 
162.678 162.697 163.135 160.093 160.093 160.352 160.37 160.706 160.937 
161.421 161.783 162.225 162.482 162.822 162.978 163.34 163.478 163.871 
160.364 160.396 160.725 160.68 161.026 161.033 161.49 161.647 162.134 
162.351 162.744 162.958 163.302 163.527 163.864 164.07 164.378 160.536 
160.629 160.958 161.023 161.355 161.403 161.798 161.878 162.32 162.419 
162.819 162.928 163.28 163.439 163.783 163.983 164.306 164.495 164.783 
160.734 161.18 160.995 161.126 161.788 161.477 161.563 161.398 161.562 
162.607 162.196 162.232 161.911 162.07 161.886 162.074 163.385 163.053 
163.111 162.701 162.786 162.477 162.674 162.456 162.622 163.912 163.721 
163.842 163.563 163.645 163.278 163.392 163.098 163.261 163.002 163.1 
164.382 164.182 164.328 164.18 164.356 164.101 164.204 163.863 163.962 
163.654 163.749 163.454 163.524 164.949 164.694 164.826 164.66 164.893 
164.738 164.917 164.639 164.714 164.378 164.445 164.123 164.196 163.893 
163.992 165.504 165.267 165.373 165.188 165.398 165.27 165.491 165.293 
165.396 165.095 165.148 164.833 164.913 164.597 164.688 164.386 164.5 
165.985 165.775 165.851 165.686 165.86 165.758 165.984 165.844 165.986 
165.736 165.801 165.514 165.606 165.32 165.428 165.111 165.197 164.888 
164.982 166.261 166.647 166.328 166.128 167.105 166.765 166.593 166.276 
166.173 167.58 167.273 167.164 166.824 166.746 166.412 166.325 168.092 
167.797 167.753 167.427 167.348 167.006 166.871 166.524 166.324 168.752 
168.412 168.387 168.024 167.907 167.558 167.368 167.024 166.775 166.424 
166.151 169.47 169.146 169.109 168.691 168.516 168.096 167.869 167.491 
167.253 166.882 166.632 166.253 165.996 170.075 169.826 169.779 169.386 
169.182 168.73 168.492 168.05 167.829 167.409 167.185 166.778 166.525 
166.122 165.84 170.552 170.366 170.315 169.977 169.763 169.361 169.128 
168.711 168.473 168.033 167.758 167.33 167.026 166.628 166.301 165.916 
165.59 170.844 170.758 170.699 170.442 170.213 169.873 169.613 169.27 
168.987 168.607 168.244 167.836 167.443 167.062 166.691 166.329 165.982 
165.628 165.329 166.458 166.882 166.744 166.866 167.206 167.163 167.337 
167.178 167.3 167.457 167.45 167.689 167.618 167.746 167.586 167.699 
167.853 167.748 167.99 167.938 168.122 168 168.091 167.949 168.125 
168.259 168.164 168.329 168.259 168.495 168.41 168.587 168.39 168.543 
168.42 168.727 168.318 168.395 168.493 168.522 168.786 168.828 169.173 
169.018 169.204 168.927 169.123 169.046 169.396 168.14 168.295 168.42 
168.543 168.834 169.048 169.55 169.633 169.929 169.656 169.682 169.426 
169.579 169.625 169.949 167.979 168.13 168.299 168.436 168.714 168.989 
169.502 169.848 170.254 170.252 170.21 169.913 169.787 169.709 169.889 
170.082 170.394 167.77 167.968 168.128 168.308 168.511 168.78 169.14 
169.585 169.977 170.299 170.34 170.252 170.008 169.84 169.801 169.929 
170.184 170.456 170.699 166.282 166.029 166.342 166.657 165.626 166.016 
166.341 166.668 166.936 165.203 165.592 165.946 166.305 166.589 166.893 
167.17 164.863 165.205 165.56 165.913 166.231 166.549 166.885 167.202 
167.594 164.514 164.86 165.161 165.519 165.83 166.189 166.54 166.918 
167.343 167.702 168.056 164.012 164.421 164.67 165.064 165.354 165.762 
166.103 166.522 166.878 167.321 167.623 167.999 168.126 163.404 163.843 
164.097 164.515 164.817 165.261 165.637 166.07 166.395 166.783 167.002 
167.399 167.533 167.884 167.922 162.852 163.258 163.555 163.955 164.273 
164.717 165.118 165.593 165.97 166.338 166.567 166.843 166.996 167.289 
167.419 167.7 167.768 162.414 162.779 163.101 163.47 163.786 164.189 
164.548 165.033 165.424 165.886 166.188 166.5 166.692 166.913 167.065 
167.278 167.373 167.581 167.594 162.285 162.257 162.522 162.973 162.157 
162.476 162.989 163.221 163.663 162.118 162.408 162.971 163.232 163.728 
163.927 164.408 162.191 162.44 163.024 163.266 163.806 164.007 164.526 
164.729 165.26 162.253 162.522 163.126 163.379 163.953 164.138 164.664 
164.851 165.387 165.594 166.059 162.327 162.579 163.216 163.495 164.11 
164.315 164.824 164.987 165.466 165.679 166.142 166.315 166.635 162.522 
162.709 163.347 163.603 164.236 164.465 164.97 165.124 165.514 165.694 
166.075 166.31 166.638 166.789 166.998 162.767 162.93 163.506 163.736 
164.326 164.571 165.088 165.26 165.639 165.741 166.025 166.18 166.435 
166.658 166.862 167.05 167.212 162.966 163.128 163.628 163.843 164.353 
164.606 165.107 165.344 165.786 165.91 166.217 166.231 166.42 166.47 
166.625 166.794 166.955 167.185 167.358 163.216 163.785 163.615 163.864 
164.303 164.173 164.41 164.271 164.545 164.712 164.634 164.87 164.777 
165.054 164.96 165.27 165.143 165.033 165.279 165.194 165.492 165.445 
165.805 165.723 166.002 165.717 165.559 165.811 165.641 165.919 165.854 
166.245 166.242 166.568 166.41 166.501 166.246 166.172 166.461 166.258 
166.463 166.294 166.604 166.619 166.966 166.918 166.998 166.74 166.644 
166.572 166.622 166.983 166.895 167.089 166.86 167.032 166.944 167.234 
167.24 167.364 167.17 167.033 166.766 166.696 166.799 166.882 167.303 
167.353 167.661 167.485 167.622 167.398 167.582 167.505 167.668 167.521 
167.449 167.155 167.046 166.854 166.944 167.004 167.076 167.485 167.629 
168.045 168.026 168.244 168.016 168.122 167.912 168.024 167.857 167.859 
167.598 167.517 167.259 167.307 167.185 167.369 167.643 167.596 167.748 
168.034 167.719 167.75 168.017 168.15 168.446 167.993 167.935 168.099 
168.15 168.45 168.614 169.039 168.249 168.217 168.356 168.296 168.524 
168.627 169.054 169.303 169.796 168.449 168.464 168.65 168.574 168.732 
168.742 169.055 169.265 169.661 169.943 170.166 168.528 168.627 168.735 
168.742 168.75 168.816 168.955 169.185 169.442 169.709 169.848 170.023 
169.953 168.257 168.523 168.506 168.618 168.449 168.574 168.57 168.885 
169.126 169.454 169.659 169.787 169.834 169.825 169.841 167.685 168.042 
168.05 168.248 168.128 168.217 168.265 168.493 168.89 169.208 169.645 
169.768 169.994 169.932 170.086 170.004 170.22 167.192 167.464 167.579 
167.809 167.905 168.026 168.284 168.433 169.006 169.235 169.855 169.947 
170.263 170.187 170.312 170.273 170.446 170.475 170.682 157.561 157.885 
157.564 157.304 158.187 157.852 157.517 157.289 157.209 158.557 158.199 
157.906 157.561 157.45 157.326 157.518 159.093 158.708 158.605 158.162 
158.148 157.782 157.974 157.834 158.174 159.788 159.399 159.463 159.053 
159.192 158.729 158.905 158.516 158.786 158.584 158.904 160.513 160.156 
160.226 159.922 160.097 159.776 159.92 159.511 159.615 159.279 159.488 
159.314 159.611 161.181 160.854 160.859 160.588 160.688 160.5 160.628 
160.368 160.397 160.053 160.125 159.895 160.144 160.033 160.354 161.84 
161.515 161.521 161.193 161.24 161.006 161.141 160.95 161.064 160.771 
160.848 160.546 160.757 160.585 160.925 160.804 161.12 162.533 162.214 
162.286 161.918 161.992 161.642 161.79 161.524 161.735 161.467 161.654 
161.328 161.544 161.275 161.599 161.42 161.758 161.579 161.841 157.27 
157.112 157.081 156.895 157.175 157.064 156.948 156.81 156.697 157.551 
157.326 157.262 156.996 156.809 156.648 156.614 158.133 157.826 157.751 
157.412 157.167 156.83 156.657 156.601 156.76 158.79 158.429 158.324 
157.952 157.753 157.307 157.114 156.802 156.919 156.933 157.323 159.511 
159.101 159.009 158.593 158.515 158.046 157.998 157.512 157.638 157.358 
157.74 157.691 158.125 160.278 159.859 159.809 159.369 159.379 158.941 
159.036 158.562 158.731 158.294 158.585 158.312 158.685 158.547 158.894 
161.019 160.628 160.597 160.197 160.233 159.854 159.983 159.603 159.777 
159.379 159.584 159.228 159.483 159.214 159.492 159.311 159.599 161.701 
161.338 161.299 160.948 160.98 160.664 160.772 160.47 160.602 160.288 
160.43 160.123 160.303 160.018 160.221 159.964 160.177 159.992 160.23 
157.294 156.881 157.092 157.11 156.696 156.795 156.835 156.939 156.864 
156.732 156.765 156.902 156.873 156.86 156.747 156.588 156.969 156.928 
157.155 157.096 157.184 156.977 156.877 156.6 156.562 157.461 157.28 
157.454 157.369 157.49 157.365 157.374 157.093 157.089 156.835 157.088 
158.137 157.843 157.902 157.694 157.772 157.653 157.771 157.617 157.735 
157.488 157.695 157.549 157.937 158.854 158.52 158.555 158.232 158.314 
158.063 158.256 158.084 158.331 158.136 158.371 158.178 158.461 158.366 
158.67 159.561 159.234 159.297 158.952 159.059 158.744 158.948 158.712 
158.968 158.76 158.98 158.787 159.007 158.874 159.113 159.004 159.194 
160.204 159.929 159.997 159.692 159.756 159.468 159.585 159.38 159.556 
159.38 159.521 159.33 159.465 159.336 159.537 159.448 159.639 159.495 
159.619 165.988 165.476 165.749 165.73 164.92 165.209 165.161 165.408 
165.316 164.36 164.643 164.625 164.854 164.74 164.955 164.876 163.842 
164.09 164.079 164.331 164.242 164.422 164.307 164.545 164.531 163.269 
163.535 163.432 163.728 163.621 163.883 163.732 163.976 163.895 164.212 
164.198 162.53 162.86 162.695 163.001 162.82 163.144 162.964 163.291 
163.141 163.501 163.417 163.797 163.704 161.746 162.076 161.952 162.241 
162.046 162.32 162.126 162.446 162.293 162.661 162.537 162.933 162.814 
163.206 163.074 161.09 161.344 161.243 161.521 161.364 161.6 161.411 
161.662 161.522 161.832 161.724 162.061 161.94 162.297 162.183 162.569 
162.492 160.569 160.74 160.586 160.835 160.682 160.935 160.758 160.998 
160.85 161.122 161.017 161.308 161.195 161.49 161.382 161.718 161.666 
162.054 162.049 
POINT_DATA 1002
SCALARS Distance double
LOOKUP_TABLE default
163.381 162.824 162.601 163.178 162.425 163.954 162.986 162.268 163.742 
164.413 162.753 162.084 163.489 164.182 164.779 162.485 161.911 163.208 
163.978 164.627 165.273 162.29 161.767 162.965 163.801 164.532 165.154 
165.851 162.126 161.569 162.802 163.598 164.339 164.966 165.588 166.247 
161.873 161.312 162.606 163.392 164.05 164.695 165.387 165.969 166.49 
161.59 161.08 162.317 163.154 163.844 164.509 165.363 166.07 166.418 
166.733 161.396 160.928 162.056 162.873 163.655 164.405 165.361 166.302 
166.74 166.803 166.961 162.147 161.94 161.507 161.303 160.867 161.755 
160.623 160.147 161.067 161.579 159.939 159.422 160.415 160.871 161.429 
159.404 158.877 159.905 160.299 160.746 161.312 159.032 158.527 159.446 
159.831 160.169 160.626 161.168 158.705 158.235 158.935 159.233 159.648 
160.045 160.516 160.982 158.351 157.9 158.5 158.632 159.087 159.615 
160.021 160.427 160.79 157.937 157.513 158.149 158.239 158.606 159.21 
159.655 159.966 160.301 160.62 157.347 157.661 157.078 157.213 156.68 
157.838 156.676 156.357 157.458 158.13 156.584 156.614 157.183 158.025 
158.715 157.315 157.475 157.504 157.973 158.611 159.225 158.235 158.339 
158.24 158.216 158.378 158.902 159.509 158.755 158.91 158.704 158.539 
158.389 158.645 159.243 159.838 159.093 159.332 158.996 158.872 158.728 
158.864 159.299 159.797 160.24 159.474 159.712 159.447 159.463 159.39 
159.458 159.758 160.07 160.336 160.622 161.149 160.891 161.562 160.718 
161.357 162.106 160.578 161.219 161.932 162.651 160.35 161.032 161.731 
162.512 163.17 160.2 160.825 161.424 162.317 163.116 163.752 160.25 
160.873 161.265 162.05 163.041 163.762 164.424 160.152 160.893 161.337 
161.927 162.89 163.722 164.396 165.116 159.898 160.518 161.123 161.798 
162.727 163.583 164.254 165 165.738 159.9 160.209 160.694 161.429 
162.444 163.404 164.077 164.76 165.563 166.218 161.743 162.251 162.502 
162.794 163.012 163.329 163.315 163.535 163.829 164.18 163.896 164.129 
164.378 164.772 165.205 164.578 164.802 164.964 165.214 165.803 166.31 
165.286 165.455 165.564 165.593 165.93 166.608 166.958 165.932 166.056 
166.171 166.168 166.159 166.491 166.952 167.038 166.44 166.608 166.81 
166.929 166.831 166.763 166.926 167.078 167.037 166.734 167.015 167.244 
167.841 168.001 167.415 168.894 168.88 168.54 167.779 169.489 169.336 
169.412 168.755 167.77 169.319 169.37 169.48 169.259 168.481 167.525 
169.185 169.611 169.307 169.57 169.207 168.311 167.419 169.685 170.24 
169.596 170.06 170.103 169.269 168.177 167.388 170.385 170.794 170.135 
170.407 170.565 169.868 168.743 167.849 167.303 170.666 170.897 170.399 
170.392 170.373 169.747 168.758 168.067 167.666 167.296 166.253 166.769 
166.2 166.732 166.014 167.249 166.562 165.68 167.262 167.96 166.279 
165.428 167.175 167.967 168.78 166.138 165.464 166.946 167.832 168.72 
169.335 166.176 165.567 166.787 167.531 168.492 169.368 169.718 166.106 
165.479 166.699 167.323 168.193 169.188 169.914 170.21 165.878 165.265 
166.536 167.208 168.02 168.934 169.719 170.318 170.703 165.654 165.064 
166.333 167.048 167.837 168.67 169.366 169.955 170.54 170.917 160.194 
160.363 160.783 161.072 161.343 160.609 161.787 161.699 161.43 161.139 
162.208 162.034 162.296 162.067 162.096 162.64 162.72 162.847 162.968 
163.02 163.208 163.433 163.602 163.405 163.555 163.752 163.927 164.024 
164.272 164.26 164.184 164.128 164.227 164.462 164.638 164.701 164.847 
164.675 164.928 164.856 164.756 164.886 165.195 165.418 165.518 159.813 
160.303 159.765 160.159 159.61 160.787 160.047 159.627 160.654 161.228 
160.131 159.733 160.734 161.328 161.668 160.093 159.731 160.705 161.545 
162.043 162.288 160.074 159.819 160.442 161.286 162.168 162.665 163.082 
160.388 160.072 160.594 161.083 161.895 162.614 163.187 163.751 160.729 
160.292 161.06 161.424 161.965 162.545 163.075 163.643 164.199 160.865 
160.452 161.28 161.727 162.245 162.749 163.165 163.6 164.108 164.611 