# vtk DataFile Version 4.0
vtk output
ASCII
DATASET POLYDATA
POINTS 1002 float
-114.954 -102.485 52.5645 -115.129 -102.174 52.1205 -114.675 -102.022 52.471 
-114.562 -102.337 52.9408 -114.335 -101.756 52.9382 -114.95 -102.703 53.1864 
-114.251 -102.045 53.4494 -113.949 -101.518 53.3748 -114.544 -102.556 53.6122 
-115.022 -102.75 54.1238 -113.814 -101.806 53.9675 -113.416 -101.366 53.7831 
-114.118 -102.307 54.157 -114.468 -102.678 54.5531 -115.004 -102.792 55.1765 
-113.181 -101.768 54.403 -112.824 -101.289 54.2187 -113.552 -102.185 54.6598 
-113.89 -102.566 55.0138 -114.396 -102.773 55.5893 -114.951 -102.913 56.1327 
-112.42 -101.885 54.7112 -112.212 -101.303 54.62 -112.821 -102.282 54.9825 
-113.263 -102.554 55.3771 -113.796 -102.743 55.9726 -114.412 -102.859 56.6223 
-114.868 -103.099 57.0164 -111.714 -101.914 55.0653 -111.645 -101.294 55.0607 
-112.041 -102.363 55.2623 -112.551 -102.596 55.6688 -113.124 -102.783 56.2587 
-113.711 -102.972 56.9311 -114.201 -103.217 57.4031 -114.573 -103.601 57.6053 
-111.291 -101.709 55.6886 -111.241 -101.162 55.6471 -111.502 -102.194 55.8132 
-111.918 -102.502 56.1403 -112.43 -102.769 56.614 -112.93 -103.148 57.1099 
-113.318 -103.61 57.4656 -113.68 -104.051 57.6501 -114.138 -104.406 57.8007 
-111.023 -101.459 56.3894 -110.896 -101.028 56.2137 -111.212 -101.921 56.535 
-111.519 -102.318 56.7945 -111.895 -102.677 57.1433 -112.316 -103.133 57.4399 
-112.652 -103.78 57.5989 -112.875 -104.466 57.6571 -113.252 -104.889 57.7865 
-113.847 -105.006 58.072 -110.618 -101.392 56.8405 -110.463 -101.013 56.5754 
-110.824 -101.812 57.0347 -111.134 -102.23 57.2941 -111.474 -102.643 57.6201 
-111.865 -103.056 57.8709 -112.295 -103.585 57.999 -112.535 -104.336 58.0434 
-112.696 -105.009 58.1146 -113.125 -105.247 58.3531 -113.78 -105.143 58.7461 
-115.063 -101.779 51.864 -114.62 -101.494 52.3439 -114.981 -101.256 51.6777 
-114.567 -100.904 52.2419 -114.817 -100.606 51.6575 -114.209 -101.236 52.8314 
-114.422 -100.304 52.1613 -114.582 -99.968 51.681 -114.061 -100.711 52.6781 
-113.669 -101.085 53.1906 -114.136 -99.7245 52.0565 -114.356 -99.3275 51.6361 
-113.769 -100.171 52.4796 -113.348 -100.612 52.9935 -113.078 -100.905 53.6182 
-113.841 -99.041 52.0563 -114.199 -98.5154 51.6991 -113.34 -99.5938 52.3101 
-112.889 -100.132 52.7318 -112.737 -100.424 53.4718 -112.604 -100.722 54.1742 
-113.612 -98.2818 52.1759 -114.038 -97.75 51.8116 -113.038 -98.9184 52.3341 
-112.44 -99.6254 52.4747 -112.275 -100.034 53.1479 -112.353 -100.234 54.0745 
-112.109 -100.682 54.6755 -113.297 -97.6799 52.0926 -113.785 -97.2435 51.7408 
-112.834 -98.2154 52.3882 -112.255 -98.9554 52.4575 -111.892 -99.5493 52.8604 
-111.928 -99.8271 53.8069 -111.878 -100.17 54.6386 -111.551 -100.695 55.1503 
-112.93 -97.1768 51.8252 -113.516 -96.7742 51.6252 -112.53 -97.5756 52.2306 
-112.148 -98.1851 52.5555 -111.769 -98.8461 52.9313 -111.605 -99.2814 53.7184 
-111.512 -99.6845 54.5682 -111.284 -100.208 55.1274 -111.049 -100.675 55.637 
-112.752 -96.6453 51.7347 -113.366 -96.23 51.6963 -112.293 -96.9887 52.0706 
-111.976 -97.4758 52.576 -111.708 -98.1303 53.1258 -111.52 -98.6839 53.8656 
-111.327 -99.1613 54.6412 -111.002 -99.7503 55.1121 -110.704 -100.296 55.4808 
-110.563 -100.674 56.0187 -113.027 -96.0617 51.9437 -112.448 -96.4266 52.1091 
-112.894 -96.1245 52.4954 -112.262 -96.3988 52.873 -112.677 -96.2976 53.3457 
-111.971 -96.8032 52.5782 -111.978 -96.4911 53.8475 -112.308 -96.3724 54.2704 
-111.696 -96.8126 53.4114 -111.631 -97.4235 53.2012 -111.733 -96.6918 54.7327 
-112.131 -96.5882 55.0507 -111.363 -96.9256 54.3128 -111.302 -97.4965 53.9957 
-111.445 -98.1253 53.945 -111.659 -97.1275 55.4877 -112.093 -97.0194 55.8056 
-111.024 -97.1001 55.1664 -110.794 -97.4601 54.7783 -111.056 -98.132 54.6708 
-111.27 -98.6933 54.7341 -111.48 -97.496 56.2739 -111.837 -97.2471 56.6681 
-110.726 -97.3702 56.009 -110.142 -97.3304 55.6406 -110.27 -97.896 55.2891 
-110.658 -98.7142 55.2024 -110.837 -99.3246 55.1893 -111.176 -97.5972 57.0521 
-111.514 -97.3105 57.4486 -110.563 -97.6481 56.7463 -109.828 -97.4785 56.4634 
-109.53 -97.698 56.0336 -109.737 -98.5394 55.6122 -110.031 -99.4353 55.4165 
-110.324 -99.9861 55.4129 -111.05 -97.7603 57.6992 -111.419 -97.5403 58.0317 
-110.626 -97.9735 57.3298 -110.073 -98.0006 57.0383 -109.549 -98.0355 56.7292 
-109.303 -98.5166 56.2783 -109.356 -99.3573 55.8662 -109.636 -100.063 55.7379 
-110.087 -100.449 55.8619 -111.137 -98.0817 58.2573 -111.491 -97.8647 58.5373 
-110.816 -98.3621 57.8803 -110.473 -98.5924 57.532 -110.043 -98.7047 57.2886 
-109.605 -98.896 57.0259 -109.346 -99.3778 56.67 -109.362 -100.013 56.3936 
-109.623 -100.522 56.3539 -110.036 -100.821 56.4763 -110.045 -101.358 56.9819 
-109.712 -101.14 56.9858 -109.616 -101.856 57.3789 -109.559 -100.709 57.102 
-109.517 -101.567 57.6838 -109.388 -102.315 58.1258 -109.54 -100.117 57.365 
-109.596 -100.966 58.1648 -109.394 -101.921 58.7861 -109.425 -102.557 59.3187 
-109.651 -99.6199 57.6525 -109.594 -100.276 58.5768 -109.396 -101.161 59.414 
-109.334 -102.042 59.9925 -109.735 -102.576 60.3485 -109.974 -99.3653 57.832 
-109.661 -99.8211 58.7451 -109.365 -100.394 59.6801 -109.353 -101.223 60.3185 
-109.729 -101.975 60.6835 -110.359 -102.477 60.867 -110.406 -99.1999 57.9673 
-110.041 -99.5845 58.7592 -109.652 -99.9322 59.6652 -109.676 -100.538 60.3058 
-110.063 -101.284 60.7066 -110.528 -101.955 61.0644 -110.971 -102.465 61.4072 
-110.768 -98.9351 58.2257 -110.548 -99.3423 58.8225 -110.224 -99.6582 59.6193 
-110.201 -100.131 60.3085 -110.537 -100.76 60.7612 -110.859 -101.454 61.2072 
-111.023 -102.12 61.764 -111.234 -102.632 62.295 -111.07 -98.5923 58.5947 
-110.969 -99.0194 59.0371 -110.773 -99.3858 59.6507 -110.646 -99.8189 60.39 
-110.767 -100.307 61.0506 -110.997 -100.889 61.5628 -111.094 -101.616 62.0919 
-111.144 -102.306 62.6762 -111.368 -102.797 63.1665 -111.374 -98.2699 58.9287 
-111.293 -98.6673 59.336 -111.208 -99.0915 59.7902 -111.068 -99.5514 60.4365 
-110.931 -99.9194 61.2738 -110.943 -100.259 62.0181 -111.072 -100.85 62.5191 
-111.194 -101.641 62.9275 -111.362 -102.33 63.344 -111.674 -102.811 63.6982 
-110.162 -101.813 57.2037 -109.729 -102.319 57.6261 -110.461 -102.224 57.4716 
-109.642 -102.677 58.5387 -110.186 -102.644 58.068 -110.908 -102.634 57.8715 
-109.934 -102.847 59.7314 -110.28 -102.914 59.0626 -110.804 -103 58.5676 
-111.385 -103.046 58.2302 -110.481 -102.866 60.5236 -110.721 -103.058 60.0411 
-111.047 -103.202 59.4704 -111.508 -103.325 58.9318 -111.974 -103.411 58.4716 
-111.115 -102.798 61.0692 -111.339 -103.066 60.7303 -111.574 -103.284 60.361 
-111.883 -103.483 59.8463 -112.24 -103.664 59.2924 -112.445 -103.976 58.6798 
-111.51 -102.864 61.9338 -111.843 -103.091 61.5526 -112.093 -103.366 61.2812 
-112.271 -103.691 60.8806 -112.44 -103.99 60.3069 -112.552 -104.316 59.6656 
-112.575 -104.746 58.863 -111.664 -103.072 62.9496 -112.051 -103.312 62.5953 
-112.324 -103.625 62.3311 -112.446 -104.029 62.0069 -112.5 -104.418 61.3833 
-112.549 -104.689 60.6882 -112.637 -104.937 59.9652 -112.804 -105.189 59.0961 
-111.894 -103.199 63.6687 -112.208 -103.551 63.4444 -112.418 -103.955 63.222 
-112.49 -104.399 63.0262 -112.564 -104.778 62.5076 -112.686 -104.977 61.7038 
-112.856 -105.019 60.9824 -113.1 -105.059 60.2716 -113.411 -105.136 59.4539 
-112.265 -103.034 64.0506 -112.529 -103.498 64.0096 -113.007 -103.29 64.3853 
-113.364 -103.753 64.2519 -113.829 -103.506 64.8025 -112.743 -103.993 63.8101 
-114.349 -103.853 64.5125 -114.599 -103.598 65.2076 -113.548 -104.262 64.0452 
-112.773 -104.524 63.6945 -115.129 -103.986 64.8522 -115.135 -103.806 65.4917 
-114.567 -104.326 64.3086 -113.569 -104.76 64.0052 -112.84 -104.936 63.4785 
-115.445 -104.547 65.3449 -115.617 -104.385 65.8112 -115.216 -104.65 64.7489 
-114.578 -104.852 64.2756 -113.783 -105.039 63.7289 -113.112 -105.093 62.7779 
-115.795 -105.307 65.8911 -116.338 -104.978 66.1442 -115.456 -105.362 65.327 
-115.103 -105.3 64.5798 -114.687 -105.195 63.8251 -114.141 -105.081 62.9202 
-113.423 -105.041 61.9002 -116.478 -105.632 66.0204 -117.047 -105.14 66.0884 
-115.984 -105.829 65.6274 -115.486 -105.797 64.8031 -115.041 -105.668 63.7946 
-114.771 -105.377 62.8826 -114.359 -105.033 62.0431 -113.691 -104.933 61.1847 
-117.067 -105.493 65.5324 -117.441 -105.001 65.5464 -116.713 -105.78 65.2995 
-116.247 -105.846 64.6636 -115.555 -105.892 63.6582 -115.014 -105.827 62.7014 
-114.791 -105.406 62.0095 -114.494 -104.948 61.3342 -113.961 -104.9 60.45 
-117.388 -105.298 64.8169 -117.664 -104.885 64.8632 -117.168 -105.589 64.6203 
-116.94 -105.695 64.1609 -116.41 -105.771 63.3668 -115.659 -105.879 62.5026 
-115.145 -105.716 61.878 -114.921 -105.231 61.3467 -114.663 -104.893 60.5978 
-114.242 -104.953 59.6427 -111.941 -102.415 63.7849 -112.577 -102.677 64.1303 
-112.327 -101.922 63.8004 -112.954 -102.307 64.1875 -112.699 -101.54 63.874 
-113.25 -103.025 64.6622 -113.435 -102.022 64.23 -113.112 -101.345 63.8634 
-113.574 -102.75 64.8864 -113.908 -103.292 65.3468 -114.043 -101.841 64.0399 
-113.669 -101.171 63.6219 -114.182 -102.486 64.8292 -114.163 -102.985 65.6522 
-114.537 -103.346 65.8048 -114.555 -101.593 63.7137 -114.22 -100.828 63.4102 
-114.828 -102.326 64.364 -114.805 -102.703 65.4018 -114.864 -102.95 66.021 
-115.264 -103.52 65.9355 -114.891 -101.021 63.6839 -114.658 -100.324 63.4227 
-115.198 -102.009 63.9393 -115.422 -102.604 64.7047 -115.601 -102.676 65.687 
-115.938 -103.077 66.0724 -116.249 -104.019 66.085 -115.299 -100.267 63.839 
-115.077 -99.8755 63.3717 -115.568 -101.229 63.935 -115.861 -102.279 64.1336 
-116.204 -102.637 64.9508 -116.657 -102.807 65.7687 -117.055 -103.507 66.0897 
-117.157 -104.434 66.1773 -115.792 -99.7849 63.6812 -115.47 -99.6762 63.0016 
-116.115 -100.379 63.973 -116.35 -101.505 63.9203 -116.572 -102.39 64.2321 
-116.919 -102.746 65.0071 -117.336 -103.183 65.6095 -117.599 -103.865 65.8581 
-117.594 -104.51 65.8395 -116.168 -99.6986 63.1427 -115.778 -99.6729 62.4337 
-116.572 -99.9474 63.6555 -116.793 -100.742 63.7425 -116.859 -101.785 63.7666 
[...]
CELL_DATA 2000
SCALARS Distance double
LOOKUP_TABLE default
161.484 161.215 161.473 161.758 160.959 161.227 161.517 161.791 162.115 
160.659 160.96 161.251 161.541 161.846 162.147 162.478 160.334 160.646 
160.947 161.252 161.546 161.851 162.175 162.5 162.841 160.016 160.314 
160.609 160.929 161.224 161.536 161.858 162.192 162.558 162.881 163.223 
159.72 159.985 160.242 160.566 160.856 161.192 161.514 161.868 162.238 
162.595 162.953 163.258 163.565 159.514 159.715 159.958 160.22 160.515 
160.826 161.157 161.508 161.879 162.254 162.613 162.956 163.259 163.563 
163.845 159.385 159.559 159.815 160.014 160.323 160.562 160.91 161.194 
161.57 161.904 162.283 162.617 162.947 163.246 163.539 163.833 164.123 
159.229 159.43 159.675 159.887 160.181 160.419 160.76 161.011 161.373 
161.648 162.033 162.334 162.71 162.989 163.32 163.571 163.875 164.133 
164.421 161.287 160.875 161.048 160.988 160.403 160.616 160.553 160.752 
160.712 159.873 160.125 160.078 160.294 160.224 160.442 160.388 159.297 
159.571 159.507 159.762 159.663 159.908 159.821 160.082 160.041 158.695 
158.969 158.856 159.119 158.983 159.272 159.191 159.495 159.475 159.76 
159.754 158.115 158.361 158.237 158.459 158.294 158.555 158.488 158.835 
158.88 159.216 159.259 159.511 159.509 157.552 157.771 157.643 157.863 
157.712 157.921 157.84 158.147 158.217 158.604 158.707 159.026 159.058 
159.288 159.299 156.986 157.171 156.993 157.246 157.129 157.374 157.313 
157.571 157.626 157.966 158.098 158.452 158.532 158.819 158.847 159.097 
159.139 156.513 156.616 156.417 156.61 156.527 156.793 156.813 157.087 
157.19 157.471 157.627 157.913 158.03 158.294 158.34 158.605 158.639 
158.923 158.969 156.285 156.163 156.151 156.179 156.318 156.152 156.08 
156.119 156.274 156.491 156.327 156.207 156.126 156.223 156.332 156.605 
156.701 156.507 156.401 156.265 156.329 156.368 156.64 156.768 157.078 
157.121 156.843 156.701 156.453 156.395 156.406 156.624 156.819 157.144 
157.275 157.542 157.502 157.296 157.071 156.752 156.456 156.346 156.348 
156.615 156.892 157.227 157.483 157.668 157.869 157.663 157.553 157.347 
157.07 156.703 156.408 156.2 156.25 156.403 156.779 157.059 157.429 
157.641 157.897 158.103 157.872 157.708 157.623 157.372 157.196 156.804 
156.647 156.338 156.409 156.424 156.71 156.969 157.279 157.582 157.86 
158.125 158.396 158.266 158.04 158.05 157.797 157.814 157.465 157.476 
157.05 157.126 156.794 157.02 156.92 157.261 157.361 157.725 157.921 
158.26 158.469 158.758 158.896 158.452 158.799 159.028 158.005 158.393 
158.747 159.036 159.347 157.641 158.021 158.487 158.825 159.247 159.48 
159.867 157.495 157.776 158.251 158.582 159.018 159.344 159.735 160.025 
160.433 157.633 157.777 158.191 158.385 158.729 159.032 159.391 159.769 
160.174 160.549 160.981 157.914 157.995 158.356 158.408 158.678 158.805 
159.152 159.435 159.909 160.269 160.782 161.12 161.595 158.154 158.243 
158.572 158.604 158.86 158.881 159.223 159.367 159.878 160.137 160.71 
160.996 161.522 161.783 162.24 158.335 158.421 158.733 158.796 159.065 
159.097 159.413 159.518 159.956 160.173 160.67 160.949 161.422 161.709 
162.138 162.407 162.805 158.515 158.573 158.862 158.936 159.218 159.285 
159.591 159.687 160.037 160.201 160.566 160.818 161.187 161.511 161.886 
162.225 162.595 162.906 163.262 159.193 159.299 159.367 159.648 159.548 
159.507 159.789 159.862 160.184 160.053 159.867 160.111 160.074 160.439 
160.476 160.814 160.707 160.485 160.723 160.536 160.872 160.812 161.19 
161.155 161.463 161.319 161.16 161.447 161.232 161.528 161.355 161.705 
161.6 161.942 161.841 162.135 161.905 161.768 162.097 161.935 162.251 
162.059 162.389 162.208 162.556 162.396 162.717 162.558 162.831 162.528 
162.381 162.729 162.582 162.949 162.781 163.143 162.943 163.282 163.075 
163.381 163.183 163.437 163.243 163.453 163.118 163.007 163.372 163.24 
163.634 163.49 163.88 163.701 164.027 163.808 164.057 163.837 164.041 
163.838 164.012 163.82 163.991 163.605 163.561 163.944 163.866 164.256 
164.156 164.538 164.406 164.724 164.525 164.741 164.493 164.651 164.419 
164.571 164.367 164.524 164.34 164.512 163.971 164.711 164.348 164.365 
165.534 165.136 165.148 164.74 164.71 166.344 165.972 165.968 165.542 
165.498 165.073 165 167.041 166.746 166.773 166.367 166.313 165.869 
165.778 165.334 165.189 167.765 167.448 167.545 167.166 167.146 166.699 
166.596 166.118 165.929 165.444 165.195 168.672 168.276 168.379 167.965 
167.945 167.505 167.38 166.917 166.694 166.184 165.873 165.369 165.073 
169.429 169.152 169.181 168.803 168.695 168.251 168.025 167.594 167.32 
166.883 166.551 166.052 165.704 165.228 164.959 169.652 169.622 169.577 
169.412 169.23 168.89 168.555 168.134 167.769 167.385 167.051 166.654 
166.31 165.858 165.545 165.12 164.889 169.526 169.6 169.54 169.547 
169.385 169.233 168.918 168.58 168.182 167.792 167.441 167.083 166.771 
166.394 166.085 165.687 165.425 165.052 164.858 163.834 163.818 164.066 
164.567 163.838 164.078 164.627 164.868 165.411 163.963 164.166 164.746 
164.966 165.537 165.74 166.236 164.154 164.353 164.957 165.146 165.694 
165.865 166.327 166.494 166.898 164.27 164.517 165.115 165.355 165.882 
166.033 166.439 166.562 166.96 167.128 167.589 164.257 164.529 165.063 
165.402 165.935 166.175 166.595 166.709 167.132 167.26 167.803 167.964 
168.536 164.219 164.447 164.907 165.251 165.788 166.133 166.623 166.844 
167.307 167.481 168.037 168.231 168.801 168.945 169.358 164.22 164.406 
164.826 165.098 165.603 165.949 166.455 166.784 167.235 167.537 167.994 
168.32 168.763 169.05 169.346 169.51 169.61 164.225 164.409 164.804 
165.035 165.468 165.764 166.195 166.54 166.921 167.288 167.621 168.025 
168.32 168.733 168.937 169.264 169.333 169.515 169.483 158.716 159.063 
158.933 159.02 159.412 159.268 159.384 159.267 159.391 159.948 159.7 
159.878 159.707 159.905 159.706 159.84 160.704 160.361 160.55 160.315 
160.561 160.323 160.471 160.187 160.288 161.496 161.146 161.255 161.002 
161.2 160.995 161.117 160.832 160.857 160.597 160.711 162.226 161.904 
161.963 161.665 161.78 161.57 161.681 161.434 161.448 161.155 161.214 
161.029 161.252 162.863 162.606 162.705 162.383 162.48 162.176 162.296 
162.012 162.102 161.785 161.878 161.6 161.812 161.649 161.958 163.389 
163.207 163.352 163.107 163.237 162.933 163.067 162.734 162.875 162.527 
162.679 162.347 162.553 162.296 162.578 162.402 162.7 163.875 163.713 
163.873 163.695 163.854 163.642 163.816 163.546 163.728 163.391 163.57 
163.206 163.4 163.079 163.313 163.069 163.334 163.14 163.392 158.617 
158.68 158.772 159.001 158.815 158.886 159.126 159.15 159.356 158.974 
159.044 159.31 159.322 159.543 159.553 159.857 159.16 159.212 159.485 
159.514 159.758 159.776 160.103 160.174 160.607 159.381 159.411 159.686 
159.708 159.961 159.982 160.305 160.408 160.853 160.981 161.429 159.588 
159.623 159.921 159.956 160.253 160.236 160.54 160.588 161.005 161.168 
161.631 161.764 162.153 159.781 159.812 160.121 160.195 160.558 160.582 
160.919 160.893 161.265 161.329 161.773 161.912 162.319 162.427 162.756 
160.027 160.029 160.336 160.396 160.774 160.862 161.245 161.279 161.644 
161.656 162.051 162.104 162.496 162.572 162.904 162.981 163.271 160.316 
160.313 160.625 160.645 160.996 161.064 161.432 161.525 161.89 161.977 
162.346 162.408 162.76 162.794 163.104 163.138 163.426 163.482 163.762 
160.572 161.114 160.867 160.923 161.713 161.446 161.516 161.239 161.292 
162.347 162.052 162.096 161.826 161.86 161.603 161.674 163.009 162.68 
162.679 162.39 162.412 162.153 162.221 162 162.124 163.669 163.337 
163.317 162.988 163.009 162.723 162.812 162.57 162.719 162.494 162.63 
164.27 163.984 163.976 163.64 163.641 163.34 163.421 163.18 163.327 
163.108 163.248 162.995 163.062 164.793 164.563 164.586 164.284 164.263 
163.956 163.994 163.76 163.883 163.691 163.819 163.594 163.657 163.378 
163.385 165.282 165.079 165.145 164.881 164.88 164.564 164.571 164.308 
164.411 164.219 164.362 164.153 164.243 163.972 163.998 163.69 163.697 
165.779 165.585 165.688 165.451 165.486 165.179 165.174 164.883 164.953 
164.744 164.887 164.696 164.817 164.573 164.634 164.331 164.352 164.024 
164.035 166.102 166.599 166.248 166.028 166.993 166.705 166.434 166.108 
165.803 167.12 166.954 166.642 166.41 166.077 165.796 165.475 167.158 
167.009 166.765 166.563 166.301 166.046 165.792 165.501 165.271 167.488 
167.209 167.129 166.834 166.71 166.379 166.208 165.876 165.698 165.384 
165.208 168.128 167.756 167.721 167.373 167.297 166.929 166.757 166.367 
166.148 165.812 165.613 165.324 165.123 168.745 168.416 168.275 167.953 
167.792 167.485 167.262 166.903 166.61 166.246 165.986 165.69 165.471 
165.194 164.95 169.14 168.912 168.739 168.431 168.219 167.903 167.673 
167.34 167.062 166.691 166.405 166.063 165.818 165.522 165.266 164.97 
164.675 169.378 169.238 169.16 168.889 168.734 168.373 168.163 167.78 
167.533 167.148 166.869 166.496 166.203 165.866 165.562 165.257 164.933 
164.646 164.333 166.246 166.602 166.518 166.725 166.91 166.847 167.059 
167.02 167.183 167.186 167.138 167.39 167.374 167.589 167.436 167.412 
167.468 167.437 167.773 167.774 168.067 167.898 167.883 167.551 167.408 
167.662 167.692 168.034 168.145 168.468 168.388 168.352 168.016 167.814 
167.537 167.567 167.706 167.782 167.991 168.213 168.431 168.574 168.483 
168.341 168.088 167.896 167.92 167.867 168.161 167.716 167.779 167.897 
168.033 168.102 168.278 168.156 168.219 168.024 168.035 168.113 168.19 
168.535 168.558 168.855 167.723 167.82 167.998 168.012 168.053 168.006 
167.894 167.868 167.808 167.902 168.114 168.315 168.716 168.859 169.16 
169.133 169.25 167.599 167.809 168.082 168.173 168.29 168.155 168.056 
167.841 167.804 167.797 168.07 168.294 168.726 168.946 169.236 169.307 
169.395 169.366 169.395 166.032 165.909 166.137 166.434 165.692 166.017 
166.367 166.556 166.788 165.255 165.687 166.082 166.437 166.725 166.886 
167.056 164.774 165.181 165.538 166.006 166.381 166.745 166.997 167.147 
167.308 164.274 164.695 165.003 165.438 165.812 166.287 166.677 167.023 
167.267 167.402 167.532 163.574 164.09 164.411 164.902 165.243 165.718 
166.099 166.583 166.932 167.27 167.441 167.568 167.622 162.912 163.35 
163.678 164.221 164.587 165.116 165.439 165.947 166.253 166.754 166.988 
167.338 167.414 167.572 167.592 162.583 162.842 163.13 163.527 163.884 
164.4 164.743 165.253 165.522 166.014 166.253 166.727 166.891 167.229 
167.271 167.477 167.504 162.384 162.62 162.857 163.108 163.368 163.747 
164.071 164.552 164.869 165.329 165.593 166.025 166.257 166.65 166.789 
167.072 167.098 167.323 167.332 162.279 162.201 162.451 162.793 162.088 
162.347 162.731 162.928 163.251 162.077 162.261 162.637 162.847 163.233 
163.441 163.882 162.117 162.276 162.642 162.819 163.267 163.47 163.988 
164.191 164.697 162.093 162.283 162.68 162.881 163.379 163.588 164.153 
164.349 164.879 165.024 165.459 162.058 162.247 162.669 162.912 163.429 
163.696 164.235 164.484 164.985 165.185 165.607 165.738 166.104 162.019 
162.218 162.611 162.874 163.346 163.658 164.115 164.426 164.839 165.15 
165.548 165.806 166.153 166.32 166.613 161.893 162.126 162.467 162.754 
163.15 163.48 163.849 164.171 164.491 164.848 165.205 165.594 165.945 
166.245 166.502 166.702 166.904 161.723 161.95 162.258 162.542 162.895 
163.217 163.551 163.853 164.137 164.452 164.773 165.17 165.526 165.913 
166.179 166.468 166.655 166.891 167.094 161.745 162.018 161.993 162.28 
162.391 162.326 162.607 162.585 162.917 162.783 162.728 163.014 162.958 
163.259 163.24 163.552 163.141 163.105 163.396 163.359 163.646 163.602 
163.879 163.849 164.131 163.489 163.447 163.707 163.691 163.976 163.968 
164.261 164.217 164.508 164.453 164.779 163.839 163.798 164.045 163.994 
164.267 164.265 164.592 164.597 164.922 164.878 165.197 165.153 165.504 
164.164 164.156 164.451 164.38 164.663 164.601 164.94 164.934 165.293 
165.277 165.58 165.543 165.822 165.826 166.115 164.448 164.477 164.815 
164.796 165.106 165.043 165.374 165.334 165.703 165.669 165.997 165.925 
166.195 166.13 166.394 166.376 166.627 164.713 164.751 165.08 165.116 
165.424 165.433 165.739 165.743 166.078 166.078 166.418 166.371 166.69 
166.587 166.897 166.77 167.061 166.936 167.167 167.519 167.524 167.751 
168.103 167.378 167.714 168.122 168.285 168.38 167.08 167.458 167.802 
168.13 168.228 168.315 168.126 166.725 167.068 167.298 167.655 167.765 
168.009 167.96 167.989 167.883 166.367 166.673 166.878 167.16 167.322 
167.57 167.744 167.89 168.079 168.043 168.238 166.011 166.303 166.545 
166.813 167.068 167.295 167.615 167.816 168.206 168.324 168.68 168.631 
168.894 165.668 165.949 166.197 166.501 166.81 167.109 167.473 167.752 
168.153 168.407 168.767 168.923 169.152 169.173 169.295 165.328 165.608 
165.851 166.16 166.468 166.814 167.164 167.523 167.884 168.236 168.573 
168.851 169.079 169.225 169.325 169.374 169.404 164.978 165.263 165.517 
165.824 166.131 166.466 166.796 167.147 167.48 167.857 168.208 168.572 
168.884 169.113 169.299 169.365 169.446 169.435 169.456 156.72 157.187 
157.024 157.161 157.652 157.472 157.547 157.399 157.414 158.143 157.899 
157.888 157.716 157.715 157.56 157.574 158.723 158.416 158.397 158.113 
158.152 157.925 158.063 157.866 158.12 159.327 159.027 159.058 158.736 
158.852 158.552 158.798 158.535 158.869 158.65 159.025 159.92 159.648 
159.734 159.444 159.625 159.355 159.644 159.387 159.687 159.432 159.682 
159.494 159.734 160.509 160.276 160.43 160.16 160.376 160.131 160.43 
160.213 160.488 160.218 160.37 160.088 160.218 160.052 160.275 161.025 
160.871 161.08 160.872 161.089 160.863 161.119 160.931 161.196 160.969 
161.135 160.805 160.927 160.622 160.861 160.68 161.025 161.438 161.349 
161.577 161.462 161.671 161.505 161.694 161.533 161.743 161.594 161.778 
161.546 161.688 161.399 161.615 161.382 161.708 161.532 161.853 156.559 
156.933 156.635 156.443 157.2 156.958 156.685 156.468 156.381 157.404 
157.176 156.988 156.739 156.63 156.488 156.607 157.953 157.529 157.446 
157.132 157.172 156.919 157.067 156.898 157.125 158.88 158.338 158.256 
157.787 157.888 157.586 157.824 157.559 157.757 157.492 157.665 159.664 
159.279 159.2 158.718 158.706 158.345 158.527 158.308 158.52 158.234 
158.349 158.045 158.222 160.251 159.958 159.951 159.577 159.51 159.121 
159.155 158.923 159.112 158.928 159.09 158.796 158.93 158.66 158.907 
160.973 160.604 160.642 160.282 160.266 159.868 159.854 159.531 159.663 
159.477 159.695 159.492 159.658 159.389 159.562 159.349 159.586 161.747 
161.375 161.372 161.009 161.013 160.63 160.639 160.261 160.352 160.077 
160.279 160.083 160.276 160.053 160.189 159.966 160.121 159.953 160.136 
156.321 156.336 156.29 156.265 156.424 156.404 156.536 156.443 156.507 
156.694 156.618 156.853 156.791 156.903 156.712 156.687 157.121 156.982 
157.203 157.15 157.268 157.083 157 156.795 156.794 157.576 157.399 
157.566 157.509 157.637 157.448 157.336 157.073 157.018 156.943 157.127 
158.131 157.864 158.008 157.887 158.06 157.866 157.814 157.473 157.36 
157.168 157.285 157.319 157.518 158.836 158.497 158.614 158.392 158.565 
158.353 158.383 158.038 157.935 157.599 157.609 157.488 157.637 157.633 
157.727 159.511 159.202 159.249 158.999 159.088 158.876 158.913 158.632 
158.581 158.23 158.208 157.924 158.017 157.851 157.979 157.859 157.959 
160.049 159.791 159.772 159.538 159.544 159.344 159.356 159.138 159.128 
158.852 158.855 158.561 158.629 158.368 158.484 158.261 158.386 158.204 
158.343 165.745 165.24 165.509 165.568 164.74 164.984 164.974 165.289 
165.306 164.228 164.468 164.396 164.658 164.605 164.937 164.891 163.661 
163.935 163.852 164.074 163.966 164.236 164.183 164.506 164.462 163.005 
163.326 163.261 163.514 163.383 163.613 163.517 163.817 163.763 164.084 
163.975 162.281 162.61 162.525 162.856 162.725 162.999 162.853 163.141 
163.032 163.354 163.204 163.504 163.285 161.584 161.857 161.719 162.059 
161.931 162.266 162.109 162.422 162.272 162.594 162.442 162.73 162.542 
162.798 162.649 160.979 161.182 161.02 161.284 161.162 161.469 161.328 
161.634 161.468 161.793 161.65 161.977 161.852 162.13 162.047 162.31 
162.314 160.462 160.622 160.463 160.658 160.539 160.779 160.651 160.894 
160.714 160.982 160.822 161.164 161.072 161.433 161.382 161.718 161.712 
162.045 162.078 
POINT_DATA 1002
SCALARS Distance double
LOOKUP_TABLE default
161.729 161.514 161.21 161.481 160.955 162.065 161.245 160.677 161.827 
162.454 160.959 160.342 161.551 162.162 162.819 160.637 160.024 161.246 
161.842 162.521 163.183 160.284 159.74 160.906 161.52 162.214 162.941 
163.546 159.932 159.49 160.511 161.151 161.871 162.631 163.29 163.861 
159.724 159.329 160.22 160.816 161.504 162.263 162.948 163.541 164.135 
159.625 159.203 160.099 160.653 161.262 161.945 162.643 163.252 163.826 
164.409 159.462 159.022 159.938 160.508 161.119 161.739 162.415 163.072 
163.636 164.166 164.688 161.137 160.799 160.691 160.358 160.162 160.505 
159.855 159.604 160.021 160.147 159.256 159.03 159.412 159.558 159.759 
158.621 158.435 158.692 158.847 159.169 159.498 158.027 157.885 158.064 
158.128 158.491 158.982 159.297 157.403 157.369 157.501 157.573 157.822 
158.339 158.801 159.078 156.742 156.85 156.836 157.05 157.319 157.74 
158.217 158.578 158.885 156.258 156.432 156.252 156.495 156.895 157.357 
157.785 158.089 158.353 158.681 156.167 156.029 156.293 156.135 156.529 
156.077 156.32 156.627 156.168 156.428 156.574 156.904 156.31 156.511 
156.984 157.053 157.406 156.476 156.4 156.964 157.485 157.432 157.67 
156.73 156.165 156.482 157.232 157.734 157.559 157.763 157.051 156.331 
156.105 156.624 157.321 157.87 157.805 158.049 157.507 157.032 156.578 
156.545 156.963 157.556 158.155 158.267 158.483 158.079 157.857 157.539 
157.26 157.255 157.567 158.054 158.571 159.096 158.731 159.259 158.395 
159.118 159.665 158.103 158.966 159.659 160.279 157.971 158.681 159.411 
160.14 160.883 158.101 158.504 159.006 159.758 160.624 161.438 158.346 
158.623 158.908 159.543 160.426 161.298 162.049 158.526 158.846 159.113 
159.65 160.442 161.264 162.003 162.669 158.659 159.016 159.335 159.792 
160.427 161.141 161.861 162.55 163.197 158.795 159.134 159.505 159.935 
160.384 160.887 161.534 162.266 162.97 163.619 159.544 159.72 160.105 
160.218 160.397 160.814 160.961 160.993 161.226 161.531 161.638 161.744 
161.847 162.045 162.253 162.23 162.425 162.586 162.733 162.891 163.008 
162.866 163.091 163.333 163.51 163.603 163.652 163.652 163.487 163.765 
164.047 164.262 164.311 164.259 164.212 164.173 163.999 164.346 164.657 
164.91 165.003 164.91 164.785 164.717 164.683 164.296 164.749 165.089 
165.569 165.945 165.126 166.403 166.685 165.932 165.435 167.15 167.29 
166.768 166.242 165.657 167.903 168.102 167.581 167.09 166.457 165.675 
168.825 169.09 168.41 167.844 167.207 166.421 165.525 169.542 169.654 
169.176 168.5 167.732 167.023 166.212 165.375 169.672 169.63 169.518 
168.997 168.172 167.403 166.73 165.989 165.27 169.498 169.452 169.453 
169.188 168.573 167.803 167.118 166.465 165.802 165.205 163.587 164.317 
163.55 164.367 163.597 165.198 164.536 163.755 165.336 166.078 164.769 
163.938 165.567 166.182 166.72 164.844 164.027 165.732 166.35 166.785 
167.376 164.715 164.029 165.63 166.443 166.992 167.62 168.416 164.6 
164.028 165.408 166.328 167.098 167.832 168.659 169.33 164.592 164.041 
165.288 166.114 166.926 167.681 168.469 169.163 169.547 164.597 164.038 
165.226 165.893 166.58 167.257 167.924 168.567 169.082 169.369 158.872 
159.133 159.186 159.486 159.565 159.534 160.049 160.23 160.101 160.081 
160.806 161.076 160.795 160.789 160.546 161.556 161.858 161.405 161.401 
161.163 160.862 162.3 162.52 162.034 161.903 161.74 161.441 161.339 
163 163.069 162.816 162.592 162.393 162.174 162.02 162.077 163.551 
163.548 163.506 163.392 163.218 163.016 162.847 162.792 162.864 158.497 
158.948 158.596 159.114 158.737 159.318 159.283 158.905 159.536 159.778 
159.448 159.128 159.724 160.017 160.515 159.657 159.36 159.955 160.208 
160.692 161.353 159.852 159.552 160.256 160.549 160.865 161.458 162.081 
160.034 159.759 160.478 160.942 161.267 161.664 162.198 162.68 160.297 
160.026 160.677 161.168 161.628 162.038 162.452 162.838 163.196 160.616 