# vtk DataFile Version 4.0
vtk output
ASCII
DATASET POLYDATA
POINTS 1002 float
-119.487 -104.138 49.1339 -119.476 -103.621 48.7416 -118.923 -103.858 48.7119 
-118.793 -104.373 49.1844 -118.088 -104.048 48.8383 -119.37 -104.754 49.5131 
-117.875 -104.547 49.3515 -117.151 -104.096 49.0994 -118.586 -104.897 49.688 
-119.15 -105.045 50.2535 -116.989 -104.7 49.5247 -116.393 -104.171 49.2933 
-117.724 -104.989 49.9487 -118.349 -105.005 50.6288 -118.943 -104.962 51.4559 
-116.209 -104.938 49.6584 -115.664 -104.455 49.3925 -116.921 -105.09 50.2866 
-117.546 -104.985 51.0977 -118.112 -104.971 51.8684 -118.781 -105.196 52.4191 
-115.325 -105.123 49.9458 -114.805 -104.712 49.6307 -116.052 -105.117 50.7625 
-116.765 -104.941 51.7044 -117.324 -105.085 52.3175 -117.933 -105.462 52.6769 
-118.606 -105.75 53.0088 -114.511 -105.06 50.4848 -114.11 -104.7 50.0974 
-115.129 -105.02 51.3453 -115.901 -104.82 52.3065 -116.597 -105.104 52.8024 
-117.215 -105.676 53.0237 -117.842 -105.906 53.4233 -118.45 -105.828 54.0672 
-113.971 -104.918 51.0747 -113.639 -104.614 50.6372 -114.433 -104.99 51.8566 
-115.064 -104.9 52.6955 -115.803 -105.133 53.1472 -116.541 -105.68 53.4353 
-117.198 -105.884 53.9867 -117.794 -105.698 54.7559 -118.401 -105.604 55.5079 
-113.444 -104.947 51.5162 -113.12 -104.668 51.1093 -113.862 -105.146 52.1719 
-114.361 -105.262 52.8851 -114.978 -105.425 53.3556 -115.746 -105.704 53.8092 
-116.509 -105.806 54.5632 -117.136 -105.623 55.3956 -117.75 -105.544 56.0447 
-118.419 -105.768 56.5086 -112.819 -105.092 51.8315 -112.549 -104.782 51.503 
-113.21 -105.363 52.3529 -113.693 -105.599 52.9996 -114.244 -105.746 53.5713 
-114.945 -105.799 54.1793 -115.75 -105.787 55.0375 -116.44 -105.707 55.8888 
-117.034 -105.697 56.4277 -117.702 -105.907 56.7446 -118.395 -106.23 57.0083 
-119.129 -103.421 48.1795 -118.494 -103.692 48.1377 -118.743 -103.333 47.5118 
-118.073 -103.569 47.512 -118.363 -103.215 46.853 -117.625 -103.789 48.359 
-117.734 -103.241 47.0306 -118.067 -102.937 46.3612 -117.31 -103.498 47.8561 
-116.785 -103.645 48.7778 -117.382 -102.738 46.737 -117.772 -102.479 46.1423 
-117.001 -103.05 47.4366 -116.552 -103.276 48.3374 -116.079 -103.634 49.0953 
-116.801 -102.363 46.4616 -117.241 -101.955 45.9819 -116.411 -102.641 47.0633 
-116.064 -103.007 47.7725 -115.67 -103.339 48.6728 -115.216 -103.933 49.28 
-116.058 -102.134 46.0749 -116.573 -101.459 45.7077 -115.635 -102.458 46.6836 
-115.322 -102.769 47.2918 -114.994 -103.177 48.0584 -114.624 -103.6 48.9376 
-114.307 -104.177 49.5469 -115.511 -101.761 45.7819 -116.122 -100.957 45.5812 
-115.018 -102.252 46.324 -114.718 -102.462 47.0065 -114.434 -102.797 47.6773 
-114.07 -103.263 48.4559 -113.813 -103.727 49.2713 -113.704 -104.209 49.9633 
-115.262 -101.177 45.824 -115.915 -100.437 45.747 -114.624 -101.79 46.1143 
-114.222 -102.066 46.6996 -114.012 -102.283 47.4578 -113.727 -102.746 48.1783 
-113.439 -103.288 48.8972 -113.31 -103.773 49.6926 -113.233 -104.244 50.4537 
-115.121 -100.585 46.0882 -115.738 -99.9633 45.9797 -114.355 -101.187 46.1612 
-113.716 -101.605 46.3954 -113.424 -101.888 47.0451 -113.279 -102.307 47.8995 
-113.08 -102.872 48.619 -112.919 -103.387 49.345 -112.811 -103.863 50.1875 
-112.68 -104.348 50.9382 -115.18 -99.9265 46.2866 -114.403 -100.49 46.4181 
-114.593 -99.9428 46.6725 -113.677 -100.375 46.7247 -114.077 -99.9178 47.1235 
-113.494 -100.998 46.3591 -113.236 -100.195 47.1883 -113.621 -99.8112 47.6591 
-112.846 -100.816 46.6776 -112.885 -101.455 46.595 -112.94 -100.05 47.9588 
-113.202 -99.8311 48.3664 -112.634 -100.581 47.4563 -112.401 -101.386 47.1552 
-112.677 -101.968 47.4265 -112.545 -100.161 48.9082 -113.034 -100.12 49.2479 
-112.338 -100.38 48.5468 -112.206 -101.166 48.1591 -112.196 -102.085 48.0841 
-112.575 -102.58 48.3532 -112.382 -100.491 49.8722 -113.112 -100.457 50.1782 
-111.9 -100.475 49.6102 -111.862 -100.938 49.2819 -111.92 -101.942 48.9871 
-112.062 -102.75 48.9609 -112.457 -103.121 49.1354 -112.518 -100.782 50.8643 
-113.033 -100.598 51.1591 -111.94 -100.871 50.6428 -111.675 -101.112 50.4335 
-111.708 -101.842 50.1299 -111.767 -102.704 49.8879 -111.946 -103.242 49.8874 
-112.344 -103.573 50.0365 -112.541 -100.919 51.9366 -112.72 -100.579 52.2437 
-112.283 -101.286 51.6804 -111.922 -101.594 51.564 -111.647 -102.057 51.4144 
-111.542 -102.702 51.1227 -111.596 -103.248 50.9069 -111.832 -103.674 50.8889 
-112.221 -104.059 50.9327 -112.425 -100.978 52.9978 -112.501 -100.571 53.2919 
-112.432 -101.532 52.6653 -112.194 -101.986 52.5175 -111.688 -102.334 52.507 
-111.292 -102.755 52.34 -111.283 -103.212 52.0151 -111.523 -103.653 51.7868 
-111.805 -104.127 51.682 -112.13 -104.541 51.5883 -112.219 -105.037 52.0805 
-111.936 -104.678 52.2636 -112.094 -105.161 52.8897 -111.724 -104.145 52.4841 
-111.962 -104.681 53.2356 -112.116 -105.192 54.1103 -111.354 -103.617 52.7417 
-111.742 -104.128 53.5697 -111.969 -104.731 54.5688 -112.139 -105.265 55.5183 
-110.989 -103.151 53.1052 -111.27 -103.616 53.9 -111.727 -104.279 54.8761 
-111.941 -104.916 55.8728 -112.311 -105.313 56.7203 -111.152 -102.735 53.3847 
-111.001 -103.087 54.251 -111.467 -103.735 55.1462 -111.853 -104.48 56.0591 
-112.162 -104.983 56.9709 -112.733 -105.195 57.7748 -111.813 -102.437 53.3896 
-111.37 -102.661 54.3845 -111.5 -103.062 55.3993 -111.9 -103.757 56.2813 
-112.117 -104.41 57.2141 -112.483 -104.828 58.175 -113.106 -105.034 58.83 
-112.337 -102.084 53.4096 -112.031 -102.406 54.3151 -111.859 -102.593 55.4362 
-112.045 -102.99 56.463 -112.191 -103.587 57.4222 -112.267 -104.19 58.5196 
-112.658 -104.665 59.3531 -113.328 -104.972 59.7021 -112.45 -101.504 53.6925 
-112.472 -102.035 54.3897 -112.334 -102.335 55.3533 -112.277 -102.555 56.4615 
-112.382 -102.953 57.4552 -112.405 -103.499 58.5229 -112.486 -104.064 59.546 
-112.941 -104.56 60.1028 -113.637 -104.942 60.3311 -112.468 -100.922 54.04 
-112.679 -101.493 54.635 -112.785 -102.008 55.3435 -112.679 -102.311 56.3446 
-112.667 -102.617 57.3664 -112.794 -103.073 58.2996 -112.853 -103.543 59.27 
-113.019 -103.977 60.0657 -113.494 -104.428 60.5393 -114.078 -104.858 60.9055 
-112.494 -105.395 52.4823 -112.377 -105.556 53.4502 -112.947 -105.699 53.0845 
-112.453 -105.587 54.8335 -112.93 -105.792 54.1855 -113.55 -105.855 53.8017 
-112.627 -105.59 56.2871 -113.132 -105.732 55.6627 -113.696 -105.742 55.0779 
-114.27 -105.795 54.5986 -112.96 -105.502 57.4939 -113.328 -105.765 57.102 
-113.907 -105.742 56.5702 -114.506 -105.643 56.03 -115.091 -105.717 55.5286 
-113.411 -105.315 58.502 -113.556 -105.777 58.2456 -113.916 -106.108 57.8355 
-114.57 -106.01 57.2599 -115.236 -105.861 56.7539 -115.838 -105.808 56.3453 
-113.781 -105.213 59.365 -113.945 -105.657 59.1567 -114.05 -106.306 58.8794 
-114.495 -106.567 58.2812 -115.193 -106.407 57.6014 -115.857 -106.236 57.1282 
-116.451 -106.002 56.7931 -114.068 -105.234 60.1231 -114.352 -105.566 59.9912 
-114.468 -106.16 59.8578 -114.711 -106.638 59.4048 -115.241 -106.647 58.6623 
-115.902 -106.55 57.961 -116.528 -106.487 57.4307 -117.125 -106.244 57.044 
-114.364 -105.254 60.8851 -114.63 -105.565 60.8576 -114.834 -105.99 60.8147 
-115.081 -106.43 60.5445 -115.498 -106.533 59.9539 -116.091 -106.459 59.2295 
-116.721 -106.534 58.5059 -117.307 -106.601 57.8281 -117.876 -106.474 57.317 
-114.6 -105.029 61.6791 -114.777 -105.454 61.765 -114.909 -105.136 62.5888 
-115.138 -105.575 62.6023 -115.302 -105.09 63.2067 -114.995 -105.829 61.7629 
-115.873 -105.594 63.0702 -116.172 -104.995 63.4717 -115.521 -106.029 62.4866 
-115.303 -106.246 61.6138 -116.968 -105.622 63.3612 -117.264 -105.036 63.6451 
-116.457 -106.127 62.9906 -115.978 -106.419 62.2595 -115.737 -106.466 61.188 
-117.872 -105.704 63.5824 -118.256 -105.101 63.7612 -117.443 -106.121 63.4126 
-116.904 -106.473 62.7875 -116.54 -106.562 61.6994 -116.344 -106.42 60.5102 
-118.732 -105.744 63.6043 -119.323 -105.008 63.7967 -118.266 -106.115 63.5181 
-117.876 -106.386 63.046 -117.506 -106.644 61.9272 -117.264 -106.555 60.8033 
-117.034 -106.422 59.7248 -119.77 -105.675 63.4758 -120.239 -104.831 63.6275 
-119.281 -106.207 63.3115 -118.924 -106.407 62.9209 -118.544 -106.582 61.8891 
-118.149 -106.592 60.7442 -117.882 -106.451 59.8823 -117.631 -106.523 58.875 
-120.464 -105.472 63.0825 -120.608 -104.68 63.0188 -120.219 -106.186 62.9712 
-119.936 -106.543 62.6316 -119.501 -106.577 61.8118 -118.9 -106.402 60.7268 
-118.462 -106.213 59.8543 -118.312 -106.336 59.0193 -118.166 -106.583 58.0657 
-120.71 -105.172 62.371 -120.704 -104.544 62.1346 -120.693 -105.88 62.4318 
-120.558 -106.417 62.2178 -120.166 -106.548 61.6503 -119.506 -106.254 60.8274 
-118.905 -105.889 59.9766 -118.713 -105.956 59.1208 -118.771 -106.377 58.2304 
-118.693 -106.543 57.495 -114.256 -104.391 61.22 -114.705 -104.52 62.1293 
-114.424 -103.777 61.463 -114.732 -103.823 62.4357 -114.451 -103.151 61.6721 
-114.93 -104.567 63.0216 -114.817 -103.118 62.5341 -114.589 -102.678 61.7082 
-115.011 -103.831 63.1948 -115.38 -104.456 63.5294 -115.261 -102.695 62.2787 
-115.114 -102.497 61.287 -115.445 -103.137 63.071 -115.707 -103.765 63.5922 
-116.374 -104.36 63.7507 -115.913 -102.671 61.5303 -115.71 -102.376 60.5601 
-116.182 -102.786 62.607 -116.449 -103.173 63.3609 -116.868 -103.751 63.7442 
-117.596 -104.382 63.8559 -116.39 -102.569 60.6462 -116.069 -101.847 60.1415 
-116.762 -102.781 61.7345 -117.187 -102.852 62.8202 -117.573 -103.252 63.351 
-118.129 -103.751 63.6715 -118.834 -104.309 63.8845 -116.793 -101.941 60.2286 
-116.437 -101.034 60.1471 -117.15 -102.592 60.8085 -117.617 -102.741 61.9205 
-118.077 -102.953 62.6802 -118.565 -103.344 63.0424 -119.285 -103.662 63.5239 
-119.942 -104.134 63.8098 -117.32 -101.154 60.1586 -116.991 -100.502 60.0306 
-117.598 -101.979 60.2906 -117.961 -102.472 60.9539 -118.401 -102.748 61.7892 
-118.807 -103.124 62.2633 -119.375 -103.399 62.7142 -120.076 -103.605 63.2193 
-120.506 -104.055 63.32 -117.836 -100.729 59.8606 -117.538 -100.403 59.4728 
-118.054 -101.362 59.9872 -118.31 -101.981 60.2531 -118.699 -102.414 60.8494 
[...]
CELL_DATA 2000
SCALARS Distance double
LOOKUP_TABLE default
164.557 164.211 164.594 164.968 163.71 164.169 164.551 164.967 165.3 
163.218 163.655 164.065 164.502 164.84 165.222 165.499 162.851 163.229 
163.649 164.048 164.399 164.754 165.039 165.402 165.729 162.486 162.867 
163.239 163.642 163.983 164.342 164.646 164.988 165.344 165.723 166.123 
162.097 162.456 162.774 163.176 163.491 163.896 164.235 164.626 165.027 
165.403 165.815 166.157 166.503 161.811 162.094 162.415 162.735 163.062 
163.416 163.789 164.202 164.655 165.087 165.52 165.871 166.197 166.488 
166.781 161.609 161.857 162.184 162.459 162.815 163.098 163.477 163.814 
164.264 164.691 165.151 165.548 165.887 166.186 166.469 166.774 167.128 
161.402 161.646 161.948 162.237 162.593 162.895 163.262 163.562 163.952 
164.317 164.757 165.164 165.554 165.882 166.188 166.476 166.819 167.166 
167.569 164.227 163.677 163.947 163.893 163.134 163.389 163.299 163.533 
163.392 162.581 162.826 162.729 162.948 162.78 162.991 162.871 161.999 
162.234 162.105 162.356 162.208 162.414 162.272 162.519 162.486 161.313 
161.583 161.378 161.665 161.506 161.798 161.664 161.932 161.848 162.156 
162.139 160.505 160.821 160.609 160.895 160.708 161.032 160.905 161.245 
161.146 161.481 161.426 161.776 161.764 159.75 160.029 159.882 160.145 
159.985 160.26 160.144 160.464 160.388 160.73 160.69 161.051 161.07 
161.432 161.482 159.202 159.386 159.253 159.47 159.315 159.566 159.444 
159.746 159.687 160.009 160.001 160.341 160.397 160.765 160.862 161.216 
161.298 158.806 158.931 158.754 158.892 158.668 158.875 158.701 159.019 
158.965 159.332 159.353 159.701 159.766 160.122 160.231 160.602 160.708 
161.049 161.116 158.574 158.201 158.406 158.461 157.848 157.977 157.906 
158.185 158.254 157.588 157.628 157.479 157.629 157.657 158.003 158.243 
157.462 157.428 157.335 157.347 157.398 157.558 157.837 158.175 158.579 
157.575 157.407 157.336 157.298 157.38 157.468 157.748 157.957 158.373 
158.657 159.064 158.004 157.675 157.52 157.349 157.39 157.46 157.738 
157.939 158.325 158.55 158.94 159.17 159.524 158.502 158.191 158.051 
157.708 157.733 157.586 157.885 157.968 158.386 158.542 158.919 159.092 
159.445 159.648 159.998 158.806 158.652 158.677 158.387 158.494 158.182 
158.447 158.297 158.678 158.683 159.04 159.12 159.448 159.601 159.949 
160.144 160.483 159.008 158.942 159.121 159.01 159.217 158.991 159.164 
158.933 159.117 159.012 159.239 159.262 159.532 159.638 159.958 160.116 
160.446 160.618 160.909 161.072 160.655 160.989 161.254 160.205 160.572 
160.895 161.243 161.596 159.753 160.105 160.452 160.874 161.285 161.66 
162.079 159.422 159.665 159.955 160.389 160.853 161.327 161.8 162.178 
162.625 159.361 159.44 159.655 159.928 160.391 160.882 161.445 161.889 
162.378 162.737 163.197 159.517 159.53 159.734 159.781 160.157 160.494 
161.075 161.533 162.064 162.465 162.929 163.302 163.747 159.587 159.714 
159.964 159.971 160.245 160.384 160.847 161.2 161.704 162.109 162.547 
162.966 163.397 163.804 164.209 159.416 159.674 159.981 160.143 160.414 
160.508 160.842 161.041 161.472 161.782 162.214 162.575 162.996 163.399 
163.822 164.224 164.624 159.22 159.448 159.799 160.073 160.443 160.621 
160.95 161.076 161.446 161.642 162.086 162.348 162.796 163.083 163.51 
163.845 164.272 164.649 165.068 161.376 161.561 161.6 161.928 161.903 
161.857 162.19 162.222 162.598 162.404 162.291 162.615 162.561 162.933 
162.939 163.301 162.974 162.851 163.194 163.072 163.417 163.334 163.688 
163.65 164.002 163.551 163.439 163.812 163.69 164.048 163.898 164.236 
164.11 164.477 164.407 164.796 164.101 164.01 164.377 164.29 164.678 
164.557 164.912 164.742 165.094 164.956 165.334 165.245 165.596 164.583 
164.532 164.894 164.83 165.231 165.165 165.552 165.419 165.749 165.594 
165.923 165.802 166.117 166.001 166.265 165.026 165 165.394 165.339 
165.755 165.711 166.123 166.03 166.349 166.2 166.482 166.36 166.666 
166.544 166.83 166.667 166.933 165.483 165.465 165.886 165.841 166.259 
166.227 166.642 166.582 166.908 166.768 167.025 166.889 167.187 167.086 
167.406 167.272 167.569 167.392 167.681 165.885 166.584 166.275 166.294 
167.158 166.935 166.998 166.666 166.676 167.758 167.534 167.69 167.377 
167.434 167.065 167.063 168.544 168.269 168.509 168.155 168.251 167.843 
167.825 167.414 167.319 169.334 169.095 169.332 169.021 169.112 168.697 
168.648 168.185 168.057 167.602 167.449 170.032 169.813 169.994 169.751 
169.827 169.499 169.439 169.005 168.864 168.38 168.228 167.751 167.627 
170.631 170.465 170.641 170.389 170.486 170.167 170.128 169.729 169.557 
169.126 168.928 168.515 168.366 167.954 167.835 170.839 170.903 171.095 
170.999 171.113 170.852 170.797 170.393 170.122 169.685 169.347 169.022 
168.804 168.561 168.444 168.13 167.998 170.617 170.865 171.059 171.225 
171.336 171.32 171.223 170.961 170.585 170.151 169.652 169.286 168.961 
168.804 168.722 168.605 168.562 168.27 168.13 165.721 165.616 165.944 
166.418 165.357 165.757 166.231 166.563 166.953 165.084 165.444 165.903 
166.291 166.707 167.037 167.466 165.037 165.251 165.713 166.005 166.476 
166.791 167.283 167.628 168.195 165.146 165.319 165.789 165.969 166.477 
166.692 167.231 167.507 168.101 168.444 169.032 165.076 165.378 165.85 
166.087 166.58 166.79 167.3 167.526 168.072 168.372 168.959 169.275 
169.796 164.836 165.2 165.685 166.033 166.51 166.819 167.277 167.549 
167.997 168.295 168.798 169.162 169.68 169.996 170.398 164.72 164.99 
165.472 165.804 166.274 166.631 167.075 167.412 167.81 168.124 168.522 
168.899 169.327 169.744 170.084 170.421 170.59 164.77 164.953 165.373 
165.622 166.034 166.354 166.769 167.132 167.524 167.866 168.21 168.552 
168.877 169.275 169.541 169.933 170.053 170.373 170.374 159.307 159.794 
159.608 159.872 160.421 160.187 160.415 160.286 160.583 160.938 160.78 
161.015 160.883 161.153 160.983 161.171 161.412 161.258 161.536 161.45 
161.738 161.573 161.758 161.528 161.676 162.018 161.79 162.068 161.968 
162.28 162.136 162.351 162.139 162.333 162.1 162.314 162.626 162.397 
162.607 162.505 162.796 162.671 162.885 162.71 162.933 162.769 163.023 
162.801 163.021 163.151 162.925 163.075 162.986 163.275 163.187 163.414 
163.238 163.433 163.304 163.565 163.449 163.682 163.476 163.677 163.73 
163.455 163.596 163.443 163.76 163.682 163.995 163.816 164.009 163.803 
164.022 163.913 164.187 164.072 164.322 164.134 164.394 164.38 164.099 
164.256 164.029 164.339 164.224 164.598 164.447 164.693 164.434 164.605 
164.399 164.663 164.56 164.894 164.772 165.095 164.905 165.203 159.179 
159.392 159.381 159.695 159.714 159.711 160.023 160.018 160.35 159.832 
159.959 160.311 160.377 160.656 160.636 160.864 159.882 159.984 160.306 
160.505 160.831 160.916 161.123 161.091 161.32 160.11 160.106 160.345 
160.443 160.776 160.965 161.302 161.375 161.655 161.632 161.952 160.296 
160.372 160.654 160.632 160.909 160.956 161.32 161.478 161.882 161.986 
162.339 162.328 162.623 160.264 160.465 160.862 160.974 161.308 161.265 
161.54 161.55 161.909 162.084 162.491 162.642 162.959 162.95 163.179 
160.247 160.407 160.823 161.076 161.529 161.648 161.957 161.893 162.132 
162.139 162.478 162.656 163.034 163.186 163.48 163.481 163.729 160.417 
160.467 160.838 161.034 161.517 161.758 162.185 162.265 162.536 162.467 
162.709 162.714 163.048 163.19 163.551 163.689 164 164.038 164.321 
160.678 161.325 161.002 161.112 162.132 161.756 161.854 161.533 161.743 
162.938 162.596 162.685 162.32 162.453 162.197 162.399 163.634 163.348 
163.433 163.113 163.19 162.896 163.02 162.779 162.836 164.297 163.997 
164.067 163.788 163.856 163.578 163.658 163.394 163.429 163.113 163.055 
165.049 164.692 164.756 164.431 164.513 164.216 164.287 164.006 164.029 
163.716 163.67 163.325 163.313 165.822 165.475 165.539 165.177 165.249 
164.909 164.974 164.648 164.662 164.324 164.289 163.948 163.947 163.657 
163.753 166.478 166.202 166.24 165.923 165.939 165.626 165.658 165.346 
165.361 165.003 164.978 164.602 164.61 164.296 164.39 164.137 164.246 
167.006 166.782 166.789 166.522 166.484 166.216 166.211 165.965 165.995 
165.703 165.701 165.333 165.323 164.976 165.04 164.769 164.871 164.601 
164.638 167.296 167.65 167.339 167.056 168.016 167.683 167.357 167.04 
166.735 168.374 168.057 167.75 167.382 167.066 166.736 166.479 168.737 
168.425 168.177 167.819 167.528 167.143 166.873 166.539 166.3 169.191 
168.833 168.587 168.244 167.964 167.607 167.304 166.954 166.662 166.342 
166.034 169.604 169.283 168.979 168.641 168.33 167.997 167.669 167.332 
166.988 166.668 166.327 166.013 165.67 169.767 169.571 169.259 168.987 
168.676 168.357 168.047 167.691 167.349 166.983 166.636 166.301 165.988 
165.67 165.388 169.854 169.687 169.475 169.243 169.005 168.711 168.449 
168.105 167.799 167.4 167.055 166.658 166.342 166.007 165.741 165.44 
165.194 170.14 169.914 169.827 169.556 169.389 169.071 168.825 168.497 
168.207 167.854 167.515 167.116 166.762 166.385 166.072 165.764 165.477 
165.209 164.922 167.471 167.848 167.737 167.873 168.196 168.111 168.291 
168.164 168.274 168.555 168.444 168.654 168.586 168.75 168.564 168.624 
169.017 168.825 169.044 168.983 169.218 169.052 169.134 168.891 168.953 
169.464 169.282 169.467 169.42 169.702 169.56 169.671 169.41 169.485 
169.271 169.413 169.595 169.577 169.715 169.787 170.071 170.033 170.156 
169.936 170.002 169.811 169.974 169.79 169.889 169.423 169.536 169.686 
169.883 170.187 170.303 170.481 170.372 170.464 170.314 170.488 170.339 
170.43 170.164 170.074 169.251 169.371 169.592 169.795 170.135 170.331 
170.608 170.642 170.845 170.776 171.006 170.869 170.976 170.686 170.565 
170.22 170.08 169.201 169.307 169.58 169.746 170.088 170.274 170.588 
170.726 171.018 171.103 171.396 171.369 171.501 171.245 171.12 170.729 
170.56 170.256 170.257 167.272 167.075 167.337 167.647 166.946 167.194 
167.566 167.756 168.042 166.842 167.126 167.566 167.757 168.113 168.208 
168.471 166.565 166.974 167.417 167.724 168.129 168.326 168.686 168.737 
169.011 166.052 166.58 167.014 167.442 167.805 168.185 168.624 168.928 
169.324 169.357 169.544 165.407 165.981 166.481 166.987 167.373 167.763 
168.163 168.644 169.15 169.527 169.783 169.768 169.706 164.777 165.305 
165.837 166.44 166.977 167.405 167.796 168.164 168.581 169.087 169.426 
169.745 169.698 169.674 169.45 164.325 164.722 165.182 165.77 166.364 
166.97 167.459 167.857 168.15 168.506 168.731 169.145 169.194 169.428 
169.248 169.294 169.148 164.098 164.375 164.758 165.169 165.654 166.262 
166.787 167.378 167.711 168.084 168.189 168.479 168.505 168.807 168.77 
168.977 168.9 169.024 169.022 164.15 164.419 164.454 164.785 164.491 
164.651 164.977 165.076 165.535 164.39 164.627 165.02 165.209 165.687 
165.913 166.557 164.441 164.592 165.115 165.306 165.894 166.086 166.716 
166.961 167.524 164.698 164.794 165.373 165.543 166.196 166.357 166.919 
167.087 167.514 167.706 167.998 164.811 165.021 165.537 165.792 166.352 
166.586 167.012 167.184 167.446 167.608 167.8 167.997 168.215 164.683 
164.981 165.443 165.789 166.27 166.577 166.958 167.157 167.421 167.538 
167.763 167.863 168.102 168.256 168.51 164.578 164.82 165.28 165.607 
166.122 166.44 166.926 167.137 167.564 167.649 168.019 168.016 168.314 
168.3 168.537 168.592 168.774 164.63 164.789 165.235 165.485 166.012 
166.322 166.876 167.163 167.686 167.877 168.304 168.36 168.629 168.586 
168.732 168.697 168.815 168.837 168.96 164.819 165.284 165.173 165.43 
165.645 165.628 165.93 165.844 166.176 165.861 165.928 166.262 166.281 
166.648 166.63 167.02 166.128 166.163 166.52 166.552 166.912 166.989 
167.421 167.471 167.851 166.514 166.513 166.903 166.876 167.215 167.218 
167.598 167.724 168.142 168.22 168.482 166.832 166.878 167.254 167.281 
167.642 167.603 167.922 167.913 168.234 168.337 168.603 168.67 168.761 
167.108 167.144 167.48 167.544 167.901 167.971 168.326 168.315 168.584 
168.511 168.688 168.677 168.786 168.803 168.817 167.519 167.491 167.85 
167.803 168.112 168.146 168.505 168.616 168.967 168.946 169.134 168.949 
169.032 168.88 168.952 168.872 168.905 167.98 167.968 168.349 168.259 
168.519 168.419 168.681 168.733 169.102 169.226 169.54 169.469 169.599 
169.347 169.411 169.168 169.235 169.052 169.084 169.254 169.498 169.484 
169.705 169.745 169.765 170.039 169.992 170.21 169.916 169.997 170.261 
170.283 170.497 170.47 170.662 169.782 170.028 170.252 170.404 170.614 
170.685 170.921 170.924 171.142 169.319 169.685 169.898 170.219 170.424 
170.667 170.915 171.098 171.383 171.424 171.592 168.933 169.202 169.403 
169.732 169.907 170.278 170.466 170.859 171.095 171.436 171.595 171.711 
171.647 168.807 168.959 169.091 169.266 169.34 169.652 169.792 170.235 
170.465 170.931 171.127 171.45 171.418 171.499 171.228 168.664 168.862 
168.936 169.014 168.97 169.122 169.229 169.587 169.929 170.365 170.745 
171.041 171.208 171.262 171.14 171.025 170.747 168.317 168.62 168.725 
168.843 168.798 168.848 168.929 169.158 169.556 169.97 170.5 170.84 
171.186 171.259 171.311 171.138 170.997 170.722 170.535 158.899 159.303 
159.125 159.239 159.843 159.58 159.7 159.536 159.694 160.635 160.252 
160.333 160.044 160.185 159.999 160.097 161.494 161.133 161.219 160.803 
160.892 160.564 160.701 160.42 160.523 162.169 161.934 162.09 161.736 
161.838 161.41 161.543 161.161 161.344 160.986 161.18 162.701 162.524 
162.738 162.539 162.746 162.4 162.538 162.109 162.255 161.871 162.049 
161.715 161.901 163.219 163.03 163.232 163.117 163.391 163.218 163.389 
163.056 163.125 162.753 162.861 162.539 162.692 162.387 162.538 163.74 
163.538 163.702 163.585 163.842 163.762 163.948 163.747 163.773 163.484 
163.534 163.282 163.453 163.184 163.37 163.029 163.179 164.273 164.057 
164.203 164.05 164.29 164.198 164.422 164.251 164.317 164.04 164.067 
163.85 164.022 163.877 164.109 163.871 164.022 163.67 163.765 158.666 
158.987 158.641 158.257 159.471 159.062 158.639 158.181 157.737 159.857 
159.535 159.214 158.727 158.308 157.777 157.51 160.196 159.853 159.608 
159.291 159.102 158.606 158.443 157.878 157.911 160.836 160.314 160.047 
159.683 159.635 159.369 159.421 158.99 159.036 158.521 158.687 161.628 
161.098 160.846 160.316 160.205 159.888 159.961 159.76 159.812 159.519 
159.541 159.224 159.344 162.278 161.855 161.651 161.171 160.994 160.557 
160.492 160.214 160.192 159.992 159.93 159.773 159.772 159.66 159.734 
162.884 162.475 162.289 161.889 161.722 161.305 161.191 160.815 160.769 
160.424 160.367 160.073 160.054 159.91 159.985 159.921 160.001 163.48 
163.091 162.922 162.529 162.402 161.995 161.915 161.528 161.545 161.162 
161.195 160.744 160.738 160.342 160.407 160.194 160.327 160.198 160.306 
158.469 158.068 158.255 158.155 157.565 157.82 157.895 158.044 157.961 
157.309 157.404 157.622 157.859 157.987 157.94 157.788 157.613 157.379 
157.576 157.725 157.996 158.021 157.957 157.77 157.604 158.354 157.89 
157.92 157.839 158.094 158.102 158.121 157.95 157.836 157.676 157.703 
159.118 158.665 158.567 158.286 158.424 158.313 158.398 158.197 158.175 
157.984 158.109 157.987 158.188 159.626 159.326 159.221 158.915 158.973 
158.764 158.887 158.632 158.685 158.428 158.57 158.443 158.663 158.53 
158.658 159.921 159.732 159.67 159.458 159.51 159.33 159.465 159.23 
159.302 159.011 159.095 158.911 159.067 158.946 159.016 158.861 158.859 
160.209 160.021 160.009 159.846 159.941 159.817 159.97 159.797 159.862 
159.601 159.626 159.41 159.514 159.354 159.426 159.209 159.177 158.982 
158.995 166.99 166.44 166.729 166.748 165.786 166.128 166.134 166.466 
166.545 165.041 165.432 165.464 165.825 165.874 166.262 166.38 164.272 
164.659 164.703 165.118 165.153 165.549 165.581 166.024 166.077 163.531 
163.869 163.845 164.292 164.313 164.759 164.735 165.161 165.123 165.596 
165.556 162.785 163.092 162.984 163.398 163.404 163.871 163.862 164.28 
164.219 164.636 164.573 165.02 164.943 161.985 162.295 162.151 162.533 
162.536 162.992 163.026 163.429 163.381 163.753 163.697 164.099 164.049 
164.444 164.38 161.203 161.486 161.326 161.68 161.649 162.123 162.172 
162.619 162.569 162.927 162.83 163.227 163.19 163.609 163.586 163.963 
163.962 160.59 160.791 160.636 160.887 160.79 161.198 161.211 161.711 
161.69 162.1 161.987 162.359 162.303 162.737 162.756 163.186 163.226 
163.625 163.711 
POINT_DATA 1002
SCALARS Distance double
LOOKUP_TABLE default
164.942 164.494 164.235 164.606 163.793 165.358 164.109 163.231 164.939 
165.605 163.627 162.797 164.461 165.122 165.772 163.265 162.491 164.057 
164.683 165.314 166.104 162.847 162.122 163.606 164.29 164.969 165.751 
166.514 162.401 161.769 163.076 163.794 164.622 165.49 166.205 166.791 
162.115 161.551 162.73 163.382 164.193 165.151 165.919 166.47 167.085 
161.905 161.371 162.532 163.183 163.869 164.73 165.575 166.172 166.768 
167.534 161.664 161.172 162.277 162.972 163.634 164.353 165.189 165.902 
166.492 167.198 167.975 163.953 163.653 163.425 163.091 162.887 163.156 
162.501 162.358 162.598 162.588 161.845 161.794 161.97 162.057 162.173 
161.111 161.035 161.18 161.37 161.568 161.807 160.32 160.161 160.397 
160.548 160.8 161.071 161.402 159.607 159.483 159.72 159.838 160.047 
160.319 160.682 161.127 159.07 159.054 159.084 159.142 159.354 159.662 
160.023 160.487 160.972 158.671 158.695 158.522 158.399 158.562 158.981 
159.419 159.858 160.349 160.805 158.357 158.19 158.057 157.687 157.803 
157.843 157.395 157.569 157.359 157.769 157.323 157.496 157.29 157.547 
158.196 157.403 157.829 157.283 157.571 158.129 158.795 157.796 158.388 
157.363 157.528 158.119 158.729 159.298 158.39 158.732 157.968 157.869 
158.262 158.78 159.251 159.789 158.838 158.85 158.806 158.71 158.765 
159.011 159.331 159.764 160.297 159.141 159.036 159.387 159.46 159.325 
159.264 159.445 159.822 160.29 160.753 161.292 160.923 161.548 160.504 
161.259 161.984 159.992 160.861 161.738 162.519 159.559 160.316 161.385 
162.28 163.079 159.498 159.909 160.948 162.003 162.853 163.66 159.768 
159.937 160.628 161.65 162.54 163.396 164.186 159.916 160.21 160.59 
161.325 162.14 162.964 163.832 164.611 159.722 160.307 160.728 161.21 
161.882 162.622 163.403 164.231 165.031 159.484 160.192 160.832 161.294 
161.836 162.541 163.226 163.902 164.685 165.49 161.843 162.181 162.547 
162.711 162.956 163.299 163.325 163.55 163.749 164.02 163.914 164.198 
164.399 164.565 164.849 164.457 164.761 165.075 165.263 165.455 165.701 
164.953 165.273 165.66 165.921 166.063 166.251 166.402 165.436 165.793 
166.201 166.51 166.618 166.768 166.979 167.109 165.928 166.296 166.689 
167.039 167.178 167.283 167.513 167.729 167.87 166.239 166.659 166.855 
167.292 167.327 167.044 167.982 167.964 167.796 167.463 168.861 168.807 
168.686 168.271 167.744 169.617 169.577 169.517 169.135 168.541 167.888 
170.245 170.275 170.12 169.845 169.341 168.713 168.086 170.876 170.743 
170.804 170.537 170.006 169.327 168.748 168.266 171.092 170.685 171.319 
171.218 170.64 169.724 168.992 168.673 168.397 170.821 170.347 171.265 
171.424 171.027 170.09 169.142 168.75 168.746 168.545 165.434 166.159 
165.255 165.857 164.961 166.676 165.515 164.776 166.339 167.107 165.464 
164.871 166.162 166.928 167.815 165.624 164.944 166.282 166.988 167.778 
168.713 165.569 164.717 166.358 167.101 167.814 168.626 169.539 165.314 
164.479 166.174 167 167.732 168.447 169.324 170.178 165.179 164.503 
165.926 166.723 167.505 168.194 168.926 169.731 170.344 165.178 164.629 
165.762 166.416 167.169 167.899 168.537 169.168 169.725 170.091 159.402 
159.94 160.042 160.581 160.64 160.727 161.121 161.053 161.343 161.391 
161.6 161.585 161.888 161.985 161.9 162.188 162.284 162.416 162.537 
162.534 162.567 162.721 162.875 162.912 163.06 163.061 163.207 163.297 
163.181 163.399 163.325 163.588 163.596 163.645 163.844 163.905 163.786 
164.009 163.823 164.135 164.264 164.17 164.252 164.467 164.597 159.1 
159.643 159.434 160.06 159.649 160.37 160.171 159.677 160.703 160.9 
160.107 159.863 160.643 161.149 161.324 160.349 160.119 160.583 161.104 
161.654 161.99 160.648 160.122 160.965 161.182 161.677 162.316 162.713 
160.627 160.043 161.312 161.65 161.793 162.26 162.9 163.265 160.551 
160.147 161.291 161.985 162.241 162.365 162.81 163.394 163.783 160.703 
160.401 161.262 162.001 162.571 162.798 162.969 163.366 163.892 164.326 