# vtk DataFile Version 4.0
vtk output
ASCII
DATASET POLYDATA
POINTS 1002 float
-121.064 -102.268 48.9057 -121.057 -102.035 48.065 -120.509 -102.073 48.3637 
-120.422 -102.307 49.2821 -119.828 -102.076 48.7994 -121.053 -102.528 49.8317 
-119.709 -102.377 49.6428 -119.079 -102.286 49.1383 -120.41 -102.586 50.2132 
-121.02 -102.722 50.7685 -118.952 -102.552 49.9729 -118.274 -102.565 49.4786 
-119.704 -102.691 50.5486 -120.409 -102.925 51.1039 -120.985 -103.036 51.606 
-118.155 -102.683 50.4688 -117.505 -102.586 50.0511 -118.915 -102.8 50.9534 
-119.668 -103.103 51.4591 -120.333 -103.341 51.93 -120.937 -103.427 52.4773 
-117.373 -102.789 51.0401 -116.89 -102.471 50.7197 -118.075 -102.987 51.4379 
-118.828 -103.198 51.8957 -119.545 -103.441 52.3687 -120.211 -103.539 52.9221 
-120.811 -103.554 53.6358 -116.638 -102.99 51.4774 -116.342 -102.485 51.294 
-117.228 -103.334 51.817 -117.995 -103.408 52.3484 -118.729 -103.459 52.9252 
-119.42 -103.504 53.5348 -120.069 -103.498 54.2433 -120.617 -103.517 54.9463 
-115.985 -103.159 51.9528 -115.792 -102.584 51.8661 -116.437 -103.584 52.2118 
-117.196 -103.59 52.8145 -117.984 -103.513 53.5473 -118.658 -103.552 54.2351 
-119.296 -103.512 54.9495 -119.931 -103.479 55.6543 -120.492 -103.536 56.2054 
-115.503 -103.184 52.6302 -115.34 -102.654 52.5272 -115.826 -103.598 52.8639 
-116.462 -103.573 53.4306 -117.272 -103.417 54.1921 -118.007 -103.537 54.9067 
-118.619 -103.618 55.609 -119.227 -103.481 56.348 -119.89 -103.442 57.0038 
-120.492 -103.536 57.4817 -115.169 -103.1 53.3736 -115.011 -102.675 53.2101 
-115.406 -103.484 53.6591 -115.859 -103.547 54.1713 -116.552 -103.378 54.8299 
-117.354 -103.404 55.4846 -118.084 -103.575 56.168 -118.681 -103.513 56.9311 
-119.286 -103.355 57.673 -119.949 -103.397 58.2808 -120.519 -103.538 58.7157 
-120.785 -101.994 47.3673 -120.195 -101.87 47.8014 -120.455 -101.856 46.8603 
-119.817 -101.531 47.4713 -119.903 -101.362 46.7534 -119.478 -101.823 48.3526 
-119.305 -100.975 47.434 -119.219 -100.603 46.8125 -119.134 -101.403 48.1214 
-118.659 -102.117 48.7131 -118.802 -100.362 47.4782 -118.679 -99.8479 46.7378 
-118.8 -100.831 48.1429 -118.325 -101.639 48.5207 -117.767 -102.379 49.0734 
-118.434 -99.7415 47.4625 -118.351 -99.0817 46.7299 -118.48 -100.308 48.2086 
-118.06 -100.96 48.5898 -117.398 -101.815 48.8947 -117.039 -102.281 49.715 
-118.148 -98.9931 47.4956 -118.128 -98.3285 46.9297 -118.066 -99.7711 48.1038 
-117.657 -100.38 48.5918 -117.028 -101.114 48.8914 -116.663 -101.819 49.487 
-116.548 -102.124 50.4728 -117.886 -98.2521 47.6164 -117.9 -97.7599 47.0858 
-117.629 -99.0684 48.0033 -117.108 -99.8475 48.3939 -116.507 -100.52 48.7989 
-116.17 -101.327 49.3036 -116.124 -101.876 50.1653 -116.03 -102.137 51.1484 
-117.582 -97.6965 47.7241 -117.588 -97.3374 47.1185 -117.321 -98.341 48.1082 
-116.781 -99.2197 48.3776 -116.167 -99.9928 48.742 -115.743 -100.781 49.1948 
-115.598 -101.553 49.8621 -115.559 -101.961 50.8498 -115.464 -102.224 51.822 
-117.196 -97.2957 47.7727 -117.222 -96.9353 47.1954 -117.047 -97.7684 48.249 
-116.705 -98.5572 48.5961 -116.217 -99.4297 48.9487 -115.721 -100.193 49.3398 
-115.349 -100.974 49.8177 -115.144 -101.631 50.6198 -115.065 -102.004 51.6694 
-115.039 -102.307 52.5736 -116.798 -96.8191 47.6671 -116.676 -97.2378 48.1224 
-116.24 -96.7832 47.9635 -116.077 -97.2528 48.3593 -115.635 -96.7401 48.2216 
-116.55 -97.8227 48.621 -115.555 -97.285 48.8508 -115.339 -96.6948 48.9796 
-116.032 -97.9167 49.0593 -116.32 -98.6911 49.1553 -115.458 -97.5309 49.9772 
-115.533 -96.9484 50.3106 -115.53 -98.0993 49.839 -115.813 -98.7934 49.8258 
-115.893 -99.5418 49.651 -115.707 -98.1278 51.353 -115.623 -97.4656 51.6156 
-115.392 -98.6116 50.9937 -115.209 -99.0007 50.6613 -115.351 -99.5588 50.4285 
-115.385 -100.279 50.1067 -115.669 -98.5636 52.4473 -115.285 -97.7894 52.592 
-115.524 -99.1736 52.1677 -115.033 -99.4403 51.7165 -114.87 -99.6979 51.4075 
-114.971 -100.285 51.168 -114.998 -101.049 50.8234 -115.341 -98.5888 53.3177 
-115.088 -97.9345 53.3928 -115.362 -99.2438 53.2076 -115.049 -99.7025 52.8965 
-114.781 -100.002 52.6205 -114.763 -100.448 52.5238 -114.767 -101.113 52.2761 
-114.806 -101.696 51.8894 -115.188 -98.6476 54.1158 -115.267 -98.2007 54.1502 
-114.967 -99.1133 54.1177 -114.67 -99.6292 53.992 -114.489 -100.142 53.7703 
-114.487 -100.653 53.7127 -114.532 -101.246 53.6583 -114.579 -101.795 53.3204 
-114.744 -102.127 52.8842 -115.18 -98.9091 54.8539 -115.428 -98.546 54.9094 
-114.706 -99.2237 54.8457 -114.162 -99.6174 54.8129 -113.811 -100.122 54.6436 
-113.723 -100.655 54.485 -113.815 -101.239 54.4587 -114.031 -101.828 54.3224 
-114.347 -102.239 53.959 -114.697 -102.469 53.552 -114.748 -102.851 53.9853 
-114.248 -102.619 54.3209 -114.325 -102.885 54.8299 -113.6 -102.337 54.6642 
-113.541 -102.703 55.11 -113.96 -102.82 55.7314 -113.014 -101.797 54.8943 
-112.655 -102.429 55.3868 -113.11 -102.788 55.9937 -114.086 -102.738 56.586 
-112.774 -101.098 54.9851 -112.133 -101.74 55.5767 -112.405 -102.538 56.2596 
-113.475 -102.791 56.8233 -114.571 -102.687 57.4628 -112.939 -100.549 55.1384 
-112.302 -100.947 55.7317 -112.34 -101.702 56.4614 -113.143 -102.442 57.0471 
-114.162 -102.614 57.6991 -114.854 -102.74 58.6399 -113.4 -100.123 55.3499 
-112.926 -100.491 55.9325 -112.896 -100.898 56.6598 -113.309 -101.612 57.2699 
-113.971 -102.177 57.92 -114.528 -102.463 58.9244 -115.011 -102.81 59.8867 
-114.064 -99.7188 55.4528 -113.621 -100.151 56.0755 -113.54 -100.477 56.8648 
-113.666 -100.964 57.5936 -113.969 -101.606 58.2248 -114.37 -102.089 59.1462 
-114.804 -102.432 60.1092 -115.461 -102.713 60.6429 -114.739 -99.3812 55.5252 
-114.258 -99.7509 56.1828 -114.033 -100.068 56.9974 -113.935 -100.491 57.9064 
-113.961 -101.09 58.6448 -114.27 -101.683 59.3951 -114.737 -102.112 60.2307 
-115.333 -102.376 60.762 -116.133 -102.531 60.9843 -115.193 -99.0443 55.6537 
-114.763 -99.3758 56.3687 -114.468 -99.6336 57.115 -114.263 -99.9924 58.0209 
-114.074 -100.501 58.9131 -114.214 -101.078 59.6287 -114.716 -101.612 60.2872 
-115.308 -102.016 60.8218 -115.966 -102.267 61.1231 -116.69 -102.443 61.3861 
-114.954 -103.198 54.307 -114.694 -103.127 55.3302 -115.28 -103.473 54.8105 
-114.657 -102.978 56.2897 -115.185 -103.464 55.9175 -115.805 -103.548 55.4061 
-114.986 -102.847 57.2087 -115.334 -103.391 56.907 -115.824 -103.694 56.5 
-116.579 -103.494 56.0066 -115.273 -102.931 58.3676 -115.645 -103.261 58.0317 
-116.068 -103.587 57.6617 -116.75 -103.565 57.2343 -117.513 -103.479 56.7256 
-115.416 -103.174 59.6846 -115.904 -103.383 59.3404 -116.437 -103.431 58.9664 
-117.096 -103.41 58.6448 -117.802 -103.398 58.2184 -118.317 -103.456 57.6006 
-115.855 -103.154 60.5928 -116.34 -103.546 60.4371 -116.873 -103.649 60.1214 
-117.466 -103.618 59.8175 -118.083 -103.624 59.5636 -118.581 -103.538 59.1022 
-118.933 -103.391 58.4164 -116.577 -102.865 61.0236 -117.014 -103.391 61.1364 
-117.372 -103.887 61.0649 -117.743 -104.183 60.6997 -118.213 -104.347 60.3284 
-118.72 -104.245 60.0361 -119.17 -103.815 59.6321 -119.566 -103.448 59.0425 
-117.156 -102.684 61.4588 -117.549 -103.167 61.7083 -117.739 -103.901 61.9164 
-117.863 -104.565 61.6846 -118.176 -104.935 61.0687 -118.708 -104.982 60.5135 
-119.282 -104.622 60.2019 -119.775 -104.027 59.9578 -120.185 -103.625 59.4995 
-117.302 -102.61 62.1213 -117.709 -102.986 62.3285 -117.679 -102.864 63.0784 
-117.98 -103.403 63.2281 -118.076 -102.932 63.7189 -117.905 -103.694 62.6418 
-118.526 -103.522 63.6245 -118.86 -102.777 64.0077 -118.135 -104.254 63.3454 
-117.916 -104.592 62.7283 -119.545 -103.414 63.8231 -119.849 -102.794 64.3641 
-118.949 -104.351 63.594 -118.336 -104.994 63.2824 -118.115 -105.134 62.2393 
-120.418 -103.5 64.1135 -120.662 -102.973 64.5439 -120.053 -104.242 63.7837 
-119.461 -104.877 63.6283 -118.922 -105.13 62.7413 -118.712 -105.214 61.3614 
-121.082 -103.54 64.096 -121.429 -102.902 64.2604 -120.816 -104.217 63.8056 
-120.612 -104.773 63.7119 -120.228 -104.959 63.0987 -119.749 -105.028 61.722 
-119.441 -105.039 60.6427 -122.009 -103.296 63.8876 -122.289 -102.678 63.9029 
-121.642 -103.996 63.6 -121.501 -104.701 63.3735 -121.377 -105.076 62.9596 
-120.897 -105.049 61.922 -120.34 -104.901 60.8756 -120.008 -104.585 60.3588 
-122.964 -103.075 63.7697 -122.988 -102.572 63.6202 -122.663 -103.652 63.5627 
-122.402 -104.392 63.1244 -122.296 -105.063 62.5914 -121.881 -105.228 61.8239 
-121.154 -104.91 61.0392 -120.648 -104.465 60.5734 -120.421 -104.022 60.1719 
-123.506 -102.951 63.4795 -123.375 -102.48 63.1878 -123.349 -103.41 63.4856 
-123.056 -103.995 63.0954 -122.914 -104.689 62.4617 -122.667 -105.085 61.745 
-121.988 -104.862 61.1041 -121.277 -104.318 60.6753 -120.931 -103.897 60.2597 
-120.764 -103.671 59.591 -116.68 -102.241 61.7583 -117.197 -102.368 62.6438 
-116.7 -101.749 62.1014 -117.193 -101.724 62.9805 -116.794 -101.013 62.2306 
-117.608 -102.447 63.5212 -117.348 -100.856 62.9846 -116.989 -100.465 62.13 
-117.719 -101.682 63.639 -118.162 -102.359 63.9968 -117.638 -100.329 62.7512 
-117.359 -100.245 61.7376 -118.031 -100.876 63.4814 -118.419 -101.727 63.9776 
-119.05 -102.309 64.332 -118.077 -100.228 62.1602 -117.852 -100.024 61.0652 
-118.454 -100.465 63.1511 -118.872 -101.108 63.7388 -119.38 -101.853 64.2348 
-120.083 -102.426 64.6141 -118.581 -100.1 61.3049 -118.25 -99.6034 60.5682 
-118.947 -100.361 62.3904 -119.39 -100.656 63.2821 -119.886 -101.174 63.811 
-120.475 -101.8 64.2104 -121.019 -102.39 64.4104 -118.985 -99.6569 60.7668 
-118.523 -99.026 60.4629 -119.435 -100.129 61.4359 -119.849 -100.386 62.4024 
-120.328 -100.595 63.2209 -120.913 -100.988 63.6393 -121.418 -101.564 63.831 
-121.827 -102.163 63.9206 -119.284 -99.0003 60.603 -118.82 -98.4398 60.3289 
-119.803 -99.5816 60.8908 -120.194 -100.043 61.4535 -120.561 -100.307 62.3119 
-121.147 -100.517 63.0363 -121.723 -100.884 63.3557 -122.083 -101.434 63.4593 
-122.48 -102.043 63.5445 -119.565 -98.4011 60.3454 -119.176 -98.0082 59.8718 
-120.057 -98.9019 60.664 -120.439 -99.4705 60.9092 -120.692 -99.9738 61.3651 
[...]
CELL_DATA 2000
SCALARS Distance double
LOOKUP_TABLE default
164.494 164.165 164.515 164.886 163.816 164.16 164.547 164.923 165.302 
163.497 163.82 164.197 164.58 165.01 165.357 165.73 163.159 163.491 
163.844 164.226 164.664 165.065 165.493 165.811 166.184 162.829 163.15 
163.512 163.874 164.29 164.698 165.128 165.522 165.895 166.238 166.576 
162.572 162.855 163.23 163.567 163.981 164.342 164.752 165.131 165.509 
165.879 166.216 166.57 166.879 162.386 162.631 162.98 163.297 163.696 
164.043 164.443 164.792 165.181 165.52 165.884 166.21 166.557 166.873 
167.197 162.279 162.476 162.803 163.063 163.42 163.736 164.111 164.471 
164.879 165.24 165.638 165.943 166.297 166.585 166.94 167.236 167.586 
162.242 162.402 162.715 162.918 163.245 163.487 163.826 164.134 164.535 
164.92 165.364 165.721 166.101 166.372 166.709 166.989 167.362 167.663 
168.028 164.22 163.748 163.951 163.874 163.15 163.427 163.326 163.571 
163.518 162.343 162.743 162.697 163.003 162.965 163.235 163.21 161.487 
161.939 162.013 162.371 162.377 162.665 162.631 162.907 162.862 160.736 
161.181 161.371 161.751 161.803 162.071 162.011 162.283 162.227 162.531 
162.507 160.089 160.504 160.711 161.132 161.186 161.478 161.361 161.626 
161.559 161.888 161.909 162.226 162.265 159.54 159.892 160.027 160.43 
160.442 160.777 160.623 160.916 160.826 161.204 161.276 161.652 161.739 
162.035 162.098 159.048 159.356 159.434 159.753 159.758 160.044 159.954 
160.199 160.145 160.48 160.585 161.004 161.15 161.509 161.598 161.891 
161.982 158.553 158.849 158.917 159.193 159.242 159.488 159.528 159.708 
159.751 159.943 160.06 160.368 160.55 160.913 161.07 161.396 161.529 
161.822 161.959 158.309 158.011 158.33 158.642 157.648 157.993 158.346 
158.677 159.001 157.443 157.673 158.095 158.423 158.857 159.104 159.386 
157.82 157.742 158.164 158.287 158.759 159.001 159.362 159.5 159.685 
158.651 158.451 158.828 158.62 158.933 158.95 159.268 159.439 159.672 
159.78 159.964 159.206 159.242 159.627 159.414 159.56 159.288 159.431 
159.395 159.658 159.764 160.031 160.123 160.401 159.389 159.553 159.936 
159.974 160.108 159.908 159.951 159.746 159.977 159.925 160.287 160.286 
160.618 160.64 160.945 159.706 159.71 160.003 160.065 160.194 160.199 
160.239 160.191 160.344 160.335 160.648 160.653 160.977 160.943 161.215 
161.196 161.452 160.216 160.09 160.244 160.152 160.186 160.165 160.158 
160.227 160.271 160.436 160.582 160.803 161.008 161.178 161.375 161.447 
161.641 161.667 161.88 162.08 161.786 162.011 162.153 161.408 161.625 
161.662 161.965 162.099 160.906 161.109 161.034 161.371 161.503 161.928 
162.23 160.415 160.534 160.373 160.671 160.842 161.336 161.768 162.237 
162.725 160.144 160.143 160.014 160.125 160.321 160.74 161.291 161.825 
162.415 162.846 163.368 160.114 160.056 160.073 160.031 160.27 160.447 
160.999 161.424 162.073 162.53 163.077 163.484 163.982 160.248 160.183 
160.31 160.258 160.539 160.593 161.058 161.287 161.868 162.229 162.797 
163.188 163.696 164.083 164.558 160.447 160.417 160.573 160.531 160.774 
160.835 161.193 161.362 161.798 162.074 162.578 162.94 163.464 163.829 
164.308 164.65 165.085 160.541 160.618 160.788 160.773 160.945 160.988 
161.255 161.399 161.725 161.955 162.348 162.695 163.177 163.584 164.067 
164.426 164.852 165.169 165.575 162.303 162.438 162.52 162.771 162.481 
162.633 162.978 163.034 163.304 162.664 162.743 163.185 163.267 163.624 
163.604 163.885 163.132 163.078 163.542 163.569 164.015 163.987 164.33 
164.247 164.59 163.771 163.656 164.092 164.032 164.491 164.446 164.85 
164.761 165.138 165.049 165.438 164.426 164.331 164.792 164.667 165.112 
164.996 165.437 165.336 165.767 165.658 166.046 165.915 166.221 165.01 
164.979 165.506 165.414 165.903 165.726 166.195 166.023 166.518 166.364 
166.792 166.584 166.871 166.64 166.856 165.507 165.522 166.083 166.097 
166.658 166.555 167.045 166.862 167.343 167.172 167.62 167.395 167.697 
167.382 167.589 167.295 167.521 165.979 165.994 166.543 166.615 167.207 
167.235 167.741 167.652 168.056 167.929 168.296 168.158 168.45 168.214 
168.408 168.098 168.283 168 168.206 166.407 167.229 166.871 166.991 
167.934 167.686 167.854 167.518 167.661 168.509 168.333 168.569 168.338 
168.504 168.163 168.215 169.216 168.962 169.25 169.033 169.247 168.95 
168.989 168.595 168.524 170.003 169.74 170.007 169.772 170.026 169.718 
169.765 169.335 169.232 168.816 168.715 170.544 170.409 170.603 170.465 
170.718 170.514 170.616 170.175 170.04 169.528 169.377 168.98 168.854 
170.933 170.844 171.032 170.927 171.17 171.1 171.301 171.022 170.926 
170.385 170.132 169.636 169.444 169.058 168.848 171.325 171.27 171.511 
171.362 171.581 171.495 171.741 171.619 171.627 171.215 170.898 170.356 
170.018 169.601 169.358 168.99 168.735 171.524 171.616 171.852 171.802 
171.925 171.853 171.987 171.961 171.998 171.787 171.496 171.02 170.556 
170.096 169.745 169.423 169.173 168.852 168.607 166.242 166.182 166.5 
167.023 165.928 166.349 166.879 167.236 167.69 165.601 166.009 166.537 
166.987 167.469 167.815 168.235 165.45 165.726 166.222 166.625 167.176 
167.57 168.095 168.414 168.942 165.442 165.662 166.14 166.424 166.995 
167.343 167.951 168.308 168.919 169.234 169.772 165.369 165.648 166.138 
166.41 166.945 167.245 167.807 168.163 168.738 169.136 169.651 169.971 
170.339 165.197 165.527 166.02 166.35 166.843 167.165 167.642 167.984 
168.454 168.853 169.295 169.695 170.051 170.374 170.668 164.993 165.327 
165.795 166.156 166.605 166.96 167.371 167.73 168.143 168.526 168.932 
169.302 169.646 169.995 170.306 170.657 170.977 164.793 165.103 165.532 
165.888 166.295 166.649 166.997 167.363 167.723 168.144 168.548 168.953 
169.303 169.626 169.901 170.234 170.511 170.904 171.16 160.591 160.744 
160.773 160.893 160.936 160.93 161.1 161.033 161.1 161.231 161.176 
161.392 161.322 161.472 161.318 161.429 161.446 161.416 161.612 161.642 
161.865 161.766 161.899 161.716 161.868 161.652 161.541 161.661 161.761 
162.054 162.128 162.346 162.216 162.365 162.2 162.45 162.21 161.883 
161.996 161.885 162.259 162.329 162.748 162.691 162.958 162.761 163.041 
162.894 163.274 163.042 162.66 162.849 162.512 162.918 162.777 163.324 
163.226 163.644 163.432 163.743 163.548 163.926 163.798 164.184 163.791 
163.534 163.792 163.489 163.858 163.624 164.099 163.94 164.351 164.153 
164.444 164.246 164.571 164.446 164.821 164.687 164.996 164.386 164.232 
164.527 164.345 164.68 164.496 164.855 164.691 164.999 164.817 165.048 
164.873 165.149 165.045 165.416 165.316 165.662 165.477 165.738 160.268 
159.702 160.159 160.452 159.311 159.654 160.05 160.391 160.689 159.329 
159.471 159.894 160.129 160.536 160.755 161.057 159.472 159.593 159.976 
160.135 160.568 160.734 161.096 161.201 161.404 159.443 159.652 160.019 
160.223 160.614 160.8 161.164 161.294 161.555 161.561 161.713 159.291 
159.533 159.903 160.181 160.567 160.797 161.137 161.317 161.622 161.73 
161.993 161.97 162.236 159.133 159.348 159.687 160 160.419 160.709 
161.07 161.268 161.584 161.758 162.097 162.223 162.56 162.595 162.952 
159.135 159.243 159.576 159.805 160.251 160.552 160.979 161.208 161.545 
161.723 162.073 162.273 162.656 162.816 163.172 163.272 163.619 159.415 
159.399 159.763 159.832 160.285 160.476 160.957 161.16 161.549 161.706 
162.057 162.246 162.644 162.854 163.24 163.397 163.732 163.854 164.18 
159.774 160.432 160.109 160.113 161.018 160.75 160.817 160.503 160.606 
161.678 161.359 161.497 161.222 161.369 161.067 161.227 162.506 162.106 
162.213 161.923 162.102 161.822 161.95 161.657 161.776 163.301 162.933 
162.98 162.66 162.802 162.533 162.661 162.358 162.439 162.151 162.275 
164.031 163.687 163.757 163.419 163.528 163.23 163.36 163.059 163.168 
162.851 162.985 162.697 162.877 164.823 164.458 164.566 164.209 164.329 
163.986 164.107 163.778 163.9 163.591 163.738 163.449 163.616 163.332 
163.484 165.578 165.251 165.33 165.009 165.118 164.795 164.905 164.561 
164.657 164.325 164.446 164.168 164.316 164.053 164.176 163.891 163.983 
166.178 165.917 165.951 165.69 165.761 165.511 165.624 165.343 165.453 
165.111 165.208 164.875 164.999 164.719 164.849 164.57 164.665 164.362 
164.438 166.475 166.823 166.519 166.255 167.154 166.873 166.629 166.315 
166.082 167.527 167.247 167.085 166.749 166.565 166.213 166.006 168.07 
167.726 167.651 167.291 167.183 166.794 166.626 166.19 165.919 168.768 
168.375 168.288 167.908 167.802 167.437 167.276 166.854 166.562 166.062 
165.693 169.419 169.066 168.93 168.545 168.352 167.989 167.754 167.406 
167.088 166.666 166.267 165.793 165.433 169.95 169.637 169.506 169.152 
168.937 168.522 168.208 167.804 167.453 167.086 166.723 166.327 165.97 
165.55 165.247 170.476 170.135 169.986 169.67 169.484 169.105 168.796 
168.314 167.926 167.469 167.132 166.754 166.46 166.073 165.765 165.359 
165.056 171.004 170.645 170.408 170.09 169.861 169.571 169.288 168.894 
168.503 168.018 167.641 167.213 166.928 166.553 166.268 165.866 165.536 
165.132 164.817 166.694 167.187 166.984 167.068 167.756 167.527 167.585 
167.33 167.366 168.27 168.12 168.15 167.845 167.79 167.566 167.634 
168.521 168.573 168.689 168.416 168.306 167.986 168 167.872 168.109 
168.612 168.772 169.06 168.925 168.878 168.532 168.503 168.291 168.535 
168.48 168.834 168.77 168.904 169.227 169.223 169.232 169.022 168.974 
168.802 169.01 168.955 169.31 169.243 169.531 168.798 168.987 169.176 
169.282 169.264 169.219 169.2 169.166 169.401 169.418 169.783 169.729 
170.02 169.889 170.09 168.494 168.766 168.856 169.076 169.098 169.18 
169.288 169.354 169.722 169.803 170.25 170.213 170.533 170.394 170.632 
170.461 170.662 168.143 168.345 168.451 168.69 168.844 169.031 169.304 
169.479 169.948 170.126 170.613 170.655 170.957 170.872 171.092 170.991 
171.227 171.069 171.243 166.528 166.342 166.614 166.984 166.019 166.356 
166.716 167.072 167.505 165.574 165.955 166.276 166.7 167.117 167.566 
167.967 165.064 165.48 165.805 166.22 166.614 167.087 167.445 167.876 
168.127 164.463 164.955 165.342 165.776 166.224 166.647 167.033 167.358 
167.566 167.904 168.138 163.806 164.334 164.76 165.277 165.763 166.276 
166.765 167.099 167.379 167.521 167.738 168.018 168.357 163.303 163.744 
164.168 164.656 165.083 165.672 166.169 166.749 167.163 167.458 167.696 
167.834 168.083 168.327 168.55 162.997 163.354 163.761 164.134 164.485 
164.946 165.35 165.984 166.448 167.048 167.374 167.727 167.884 168.103 
168.185 168.388 168.363 162.715 163.065 163.429 163.768 164.073 164.417 
164.747 165.219 165.649 166.244 166.624 167.155 167.333 167.711 167.739 
167.994 167.953 168.119 168.047 162.654 162.744 162.91 163.335 162.911 
162.987 163.378 163.561 163.959 163.279 163.216 163.544 163.631 164.079 
164.226 164.67 163.687 163.619 163.897 163.885 164.341 164.449 164.98 
165.055 165.562 163.88 163.924 164.177 164.217 164.603 164.739 165.234 
165.367 165.811 165.931 166.398 163.932 164.003 164.248 164.377 164.735 
164.921 165.328 165.504 165.828 166.002 166.321 166.597 167.002 164.085 
164.078 164.352 164.451 164.905 165.061 165.528 165.61 165.934 165.977 
166.262 166.433 166.801 167.094 167.454 164.346 164.318 164.651 164.692 
165.242 165.356 165.948 165.964 166.381 166.271 166.606 166.555 166.95 
167.026 167.396 167.531 167.774 164.563 164.609 164.989 165.059 165.598 
165.739 166.322 166.416 166.84 166.789 167.094 167.021 167.375 167.355 
167.693 167.659 167.857 167.838 167.945 164.737 165.199 165.072 165.277 
165.607 165.542 165.827 165.691 165.94 165.989 165.921 166.206 166.178 
166.491 166.389 166.629 166.478 166.365 166.67 166.58 166.898 166.837 
167.09 166.984 167.1 166.94 166.896 167.286 167.172 167.505 167.32 
167.515 167.346 167.466 167.327 167.371 167.214 167.269 167.643 167.704 
168.025 167.939 168.034 167.795 167.799 167.639 167.746 167.617 167.693 
167.464 167.475 167.726 167.84 168.075 168.199 168.264 168.184 168.078 
167.931 167.955 167.928 168.07 167.963 167.984 167.845 167.762 167.944 
167.897 168.06 168.124 168.254 168.27 168.254 168.142 168.127 168.086 
168.195 168.206 168.246 168.13 168.039 168.295 168.189 168.38 168.218 
168.374 168.263 168.465 168.392 168.533 168.38 168.429 168.287 168.37 
168.318 168.37 168.288 168.215 168.082 168.008 168.092 168.255 168.206 
168.363 168.47 168.428 168.581 168.565 168.808 168.554 168.602 168.8 
168.821 169.111 169.112 169.421 168.655 168.697 168.9 168.954 169.238 
169.374 169.791 169.837 170.189 168.822 168.895 169.152 169.114 169.332 
169.402 169.784 170.036 170.483 170.59 170.836 168.814 169.03 169.42 
169.469 169.758 169.66 169.957 170.01 170.424 170.644 170.971 171.056 
171.135 168.713 168.951 169.377 169.63 170.068 170.147 170.525 170.433 
170.791 170.729 171.085 171.107 171.345 171.287 171.329 168.697 168.874 
169.229 169.493 169.94 170.262 170.771 170.955 171.372 171.301 171.586 
171.432 171.679 171.569 171.738 171.557 171.554 168.629 168.841 169.14 
169.35 169.706 170.031 170.53 170.948 171.45 171.691 171.948 171.914 
171.99 171.909 171.977 171.917 171.914 171.734 171.58 158.362 158.866 
158.475 158.17 159.367 159.001 158.764 158.324 158.101 159.918 159.549 
159.427 159.009 158.894 158.426 158.441 160.59 160.188 160.166 159.774 
159.783 159.321 159.367 158.954 159.163 161.418 160.967 160.97 160.57 
160.608 160.213 160.245 159.861 159.982 159.697 159.914 162.393 161.92 
161.937 161.438 161.423 160.993 161.003 160.651 160.726 160.441 160.586 
160.344 160.485 163.283 162.926 162.997 162.482 162.456 161.896 161.92 
161.457 161.599 161.22 161.389 161.04 161.176 160.864 160.985 163.866 
163.678 163.756 163.434 163.422 162.96 162.99 162.509 162.672 162.225 
162.41 161.953 162.065 161.637 161.742 161.403 161.557 164.274 164.123 
164.149 163.971 163.936 163.709 163.712 163.455 163.551 163.249 163.34 
162.948 162.956 162.529 162.548 162.189 162.309 162.018 162.197 158.008 
157.764 157.715 157.434 157.671 157.488 157.191 157.186 157.072 158.048 
157.604 157.298 157.068 156.983 156.991 157.066 158.854 158.252 157.942 
157.432 157.28 157.06 157.148 157.146 157.3 159.665 159.138 158.819 
158.225 157.952 157.517 157.46 157.31 157.423 157.414 157.536 160.239 
159.847 159.535 159.033 158.706 158.22 158.069 157.744 157.768 157.596 
157.669 157.617 157.724 160.74 160.372 160.126 159.68 159.41 158.939 
158.824 158.441 158.512 158.164 158.249 157.927 158.017 157.866 158.044 
161.335 160.936 160.777 160.335 160.175 159.696 159.627 159.226 159.335 
159.002 159.155 158.75 158.856 158.446 158.612 158.36 158.604 161.984 
161.584 161.457 161.05 160.961 160.529 160.487 160.065 160.109 159.779 
159.895 159.604 159.715 159.373 159.499 159.148 159.343 159.051 159.269 
157.995 157.488 157.756 157.751 157.15 157.318 157.323 157.488 157.403 
157.068 157.071 157.003 157.086 156.975 157.126 157.141 157.214 157.062 
156.85 156.788 156.632 156.736 156.796 157.051 157.431 157.491 157.284 
157.039 156.757 156.576 156.513 156.661 156.84 157.265 157.601 158.191 
157.786 157.635 157.572 157.184 157.079 156.754 156.975 156.946 157.394 
157.534 157.971 158.292 158.716 158.104 157.989 158.125 157.859 157.906 
157.514 157.723 157.51 157.913 157.826 158.111 158.116 158.345 158.624 
158.95 158.546 158.362 158.517 158.395 158.544 158.32 158.487 158.281 
158.561 158.406 158.601 158.392 158.483 158.431 158.708 158.948 159.383 
159.103 158.826 158.874 158.749 158.9 158.817 158.993 158.886 159.094 
158.975 159.144 158.925 158.989 158.755 158.935 158.94 159.364 159.567 
160.015 166.204 165.588 165.954 166.007 164.787 165.226 165.274 165.688 
165.687 163.973 164.364 164.345 164.816 164.825 165.282 165.233 163.286 
163.614 163.541 163.881 163.815 164.288 164.269 164.758 164.682 162.495 
162.907 162.856 163.162 163.022 163.334 163.246 163.707 163.659 164.146 
164.036 161.596 162.013 161.948 162.378 162.248 162.586 162.431 162.779 
162.687 163.106 163.014 163.458 163.358 160.917 161.177 161.06 161.414 
161.293 161.696 161.569 161.967 161.87 162.242 162.156 162.509 162.436 
162.842 162.848 160.371 160.589 160.457 160.669 160.535 160.804 160.703 
161.064 161.013 161.421 161.382 161.744 161.692 162.031 162.04 162.452 
162.549 159.711 159.985 159.835 160.089 159.949 160.182 160.075 160.327 
160.258 160.583 160.55 160.941 160.921 161.31 161.307 161.699 161.759 
162.198 162.296 
POINT_DATA 1002
SCALARS Distance double
LOOKUP_TABLE default
164.854 164.459 164.17 164.522 163.804 165.282 164.155 163.491 164.965 
165.661 163.816 163.186 164.621 165.445 166.086 163.475 162.82 164.243 
165.13 165.903 166.563 163.157 162.513 163.907 164.721 165.535 166.249 
166.917 162.895 162.31 163.638 164.399 165.138 165.856 166.545 167.179 
162.688 162.162 163.358 164.093 164.84 165.568 166.232 166.897 167.517 
162.579 162.097 163.144 163.761 164.484 165.316 166.034 166.628 167.298 
167.947 162.532 162.099 163.034 163.561 164.161 164.962 165.815 166.457 
167.043 167.749 168.391 164.033 163.651 163.561 163.069 162.821 163.26 
162.341 161.868 162.682 162.955 161.608 160.985 162.091 162.359 162.582 
160.952 160.271 161.554 161.766 161.91 162.192 160.292 159.704 160.89 
161.114 161.205 161.563 161.974 159.682 159.235 160.109 160.327 160.431 
160.845 161.421 161.823 159.152 158.757 159.469 159.696 159.84 160.164 
160.748 161.284 161.689 158.638 158.266 158.961 159.299 159.59 159.826 
160.194 160.709 161.219 161.681 158.024 158.327 157.682 157.97 157.291 
158.743 157.759 157.281 158.558 159.272 158.189 157.993 158.547 159.175 
159.641 159.172 158.791 159.127 159.129 159.504 159.875 159.766 159.063 
159.945 159.612 159.555 159.916 160.304 159.832 159.275 160.213 160.169 
160.073 160.306 160.643 160.912 160.025 159.819 160.153 160.217 160.332 
160.629 161.013 161.278 161.46 160.428 160.402 160.281 160.126 160.133 
160.349 160.77 161.245 161.604 161.861 162.28 161.894 162.286 161.377 
161.717 162.295 160.705 161.021 161.772 162.625 160.129 160.288 161.217 
162.315 163.236 159.954 159.961 160.715 161.943 162.988 163.882 160.085 
160.182 160.668 161.617 162.66 163.584 164.482 160.338 160.508 160.929 
161.577 162.411 163.321 164.184 165.01 160.634 160.748 161.069 161.583 
162.236 163.089 163.984 164.756 165.49 160.794 160.939 161.15 161.547 
162.048 162.761 163.681 164.538 165.262 165.973 162.75 162.865 163.319 
163.072 163.62 163.934 163.537 164.017 164.41 164.647 164.196 164.544 
164.914 165.23 165.54 164.917 165.263 165.532 165.868 166.208 166.393 
165.538 166.062 166.384 166.671 167.018 167.153 167.071 166.02 166.691 
167.22 167.53 167.827 168.016 167.925 167.773 166.473 167.136 167.796 
168.207 168.431 168.633 168.702 168.597 168.48 166.774 167.366 167.549 
168.145 168.109 168.052 168.747 168.672 168.817 168.644 169.468 169.51 
169.537 169.389 168.937 170.242 170.258 170.313 170.229 169.68 169.083 
170.727 170.65 170.841 171.002 170.619 169.824 169.228 171.158 170.992 
171.213 171.458 171.447 170.716 169.858 169.246 171.66 171.322 171.715 
171.815 171.953 171.484 170.496 169.701 169.127 171.866 171.385 172.03 
172.03 172.117 171.925 171.08 170.092 169.443 168.951 165.979 166.748 
165.82 166.479 165.486 167.412 166.063 165.254 167.07 167.926 165.862 
165.235 166.743 167.716 168.644 165.89 165.203 166.67 167.572 168.565 
169.548 165.854 165.051 166.671 167.495 168.355 169.296 170.109 165.679 
164.861 166.527 167.332 168.102 168.908 169.682 170.363 165.441 164.676 
166.264 167.024 167.759 168.57 169.318 169.94 170.617 165.194 164.51 
165.96 166.661 167.307 168.103 168.972 169.62 170.145 170.772 160.578 
160.949 160.706 161.138 160.966 161.214 161.424 161.303 161.614 161.591 
161.524 161.513 161.888 162.094 162.012 161.589 161.857 161.872 162.403 
162.542 162.542 162.206 162.57 162.194 162.713 163.131 163.201 163.38 
163.204 163.353 163.137 163.426 163.835 163.966 164.064 164.334 164.046 
163.975 164.127 164.312 164.56 164.657 164.708 164.942 165.188 159.826 
160.073 159.209 159.681 159.043 160.397 159.691 159.255 160.31 160.904 
159.835 159.328 160.406 160.989 161.399 159.794 159.209 160.431 161.008 
161.496 161.773 159.597 159.067 160.318 160.955 161.449 161.924 162.283 
159.38 158.954 160.084 160.855 161.403 161.903 162.464 162.935 159.397 
159.056 159.952 160.717 161.367 161.866 162.453 163.051 163.53 159.746 
159.444 160.147 160.758 161.396 161.887 162.42 163.059 163.611 164.057 