# vtk DataFile Version 4.0
vtk output
ASCII
DATASET POLYDATA
POINTS 1002 float
-117.253 -104.07 53.458 -117.232 -103.69 53.1414 -117.837 -103.835 53.191 
-117.896 -104.24 53.5588 -118.362 -104.16 53.1558 -117.266 -104.5 53.8433 
-118.439 -104.594 53.5894 -118.779 -104.741 52.9688 -117.931 -104.672 54.0305 
-117.345 -104.824 54.3607 -118.856 -105.099 53.5482 -119.352 -105.218 52.9405 
-118.434 -105.013 54.133 -117.924 -105.046 54.5788 -117.434 -105.074 55.0458 
-119.43 -105.393 53.7326 -120.133 -105.234 53.3658 -118.848 -105.388 54.2425 
-118.307 -105.443 54.6985 -117.817 -105.49 55.1967 -117.394 -105.486 55.7273 
-120.2 -105.449 54.1537 -120.741 -105.088 53.9859 -119.523 -105.631 54.507 
-118.826 -105.794 54.894 -118.158 -105.992 55.2749 -117.658 -106.044 55.7463 
-117.225 -105.994 56.2274 -120.845 -105.516 54.5917 -121.148 -105.113 54.5067 
-120.363 -105.846 54.8032 -119.697 -106.071 55.1564 -118.887 -106.298 55.4999 
-118.14 -106.445 55.8414 -117.58 -106.416 56.2901 -117.073 -106.354 56.7671 
-121.278 -105.492 55.1036 -121.616 -105.154 54.9676 -120.931 -105.897 55.2347 
-120.478 -106.237 55.4769 -119.789 -106.445 55.8254 -118.951 -106.549 56.194 
-118.213 -106.554 56.635 -117.594 -106.527 57.1496 -117.037 -106.531 57.5973 
-121.628 -105.319 55.6654 -122.091 -105.085 55.4162 -121.191 -105.672 55.8922 
-120.84 -106.101 56.084 -120.38 -106.425 56.3143 -119.655 -106.542 56.6682 
-118.884 -106.519 57.174 -118.222 -106.496 57.7579 -117.609 -106.527 58.2622 
-117.078 -106.555 58.6059 -121.973 -105.205 56.1051 -122.438 -105.015 55.8369 
-121.43 -105.468 56.4648 -121.032 -105.857 56.7899 -120.727 -106.272 56.9924 
-120.168 -106.516 57.2191 -119.391 -106.526 57.6727 -118.722 -106.451 58.3018 
-118.153 -106.447 58.8834 -117.584 -106.493 59.2913 -117.104 -106.506 59.5545 
-117.528 -103.455 52.8816 -118.139 -103.65 52.919 -117.822 -103.211 52.631 
-118.474 -103.427 52.6599 -118.247 -102.874 52.2543 -118.612 -104.124 52.7449 
-118.988 -102.984 52.3307 -118.792 -102.455 51.7669 -119.022 -103.901 52.4852 
-119.158 -104.769 52.4796 -119.482 -102.45 52.0153 -119.122 -102.067 51.6393 
-119.63 -103.314 52.3631 -119.802 -104.411 52.3586 -120.026 -105.032 52.6293 
-119.638 -102.079 52.0504 -119.081 -101.682 52.0831 -120.122 -102.699 52.2738 
-120.454 -103.732 52.4478 -120.68 -104.483 52.7025 -120.747 -104.79 53.3042 
-119.66 -101.71 52.3403 -119.025 -101.176 52.51 -120.423 -102.247 52.2909 
-120.915 -103.103 52.468 -121.053 -103.87 52.855 -121.041 -104.256 53.4247 
-121.053 -104.635 54.0101 -119.933 -101.143 52.4377 -119.302 -100.585 52.5114 
-120.736 -101.695 52.4081 -121.277 -102.474 52.5469 -121.344 -103.299 52.9563 
-121.271 -103.821 53.5303 -121.332 -104.259 54.0402 -121.5 -104.77 54.4849 
-120.39 -100.535 52.3851 -119.812 -100.026 52.3683 -121.033 -101.054 52.5495 
-121.477 -101.744 52.8018 -121.568 -102.601 53.1703 -121.62 -103.323 53.6538 
-121.845 -103.886 54.0639 -122.068 -104.443 54.4158 -122.158 -104.871 54.8759 
-120.728 -100.063 52.4816 -120.253 -99.5632 52.3853 -121.168 -100.559 52.7715 
-121.477 -101.126 53.1233 -121.608 -101.879 53.4561 -121.824 -102.694 53.8203 
-122.276 -103.388 54.1377 -122.639 -103.995 54.4004 -122.703 -104.505 54.8016 
-122.602 -104.826 55.3347 -120.711 -99.5402 52.6924 -121.054 -100.092 53.0106 
-120.842 -99.6608 53.2911 -121.254 -100.13 53.5987 -121.159 -99.6799 53.8408 
-121.372 -100.597 53.3742 -121.951 -99.9218 53.9013 -121.967 -99.4812 54.2522 
-121.805 -100.552 53.7606 -121.64 -101.196 53.6526 -122.794 -99.7513 54.2544 
-122.584 -99.5262 54.7895 -122.718 -100.398 53.9758 -122.32 -101.246 53.9426 
-121.959 -102.014 53.9327 -122.934 -100.121 55.0112 -122.621 -100.025 55.5165 
-123.153 -100.554 54.5575 -123.095 -101.36 54.332 -122.736 -102.196 54.2772 
-122.485 -102.847 54.234 -122.803 -100.673 55.9317 -122.615 -100.443 56.3006 
-122.946 -101.019 55.4682 -123.184 -101.605 55.0454 -123.207 -102.351 54.7765 
-123.045 -102.991 54.6299 -122.936 -103.522 54.5055 -122.964 -100.939 56.7443 
-122.701 -100.611 57.0161 -123.019 -101.338 56.367 -123.186 -101.798 55.8939 
-123.41 -102.4 55.483 -123.304 -103.031 55.2672 -123.106 -103.576 55.124 
-122.999 -104.082 54.9401 -123.017 -101.168 57.3601 -122.568 -100.894 57.5527 
-123.276 -101.557 57.1282 -123.471 -101.959 56.7812 -123.77 -102.446 56.3504 
-123.779 -103.052 56.0819 -123.355 -103.624 55.9989 -123.021 -104.108 55.8241 
-122.876 -104.524 55.5369 -122.752 -101.533 57.8237 -122.27 -101.34 57.9571 
-123.187 -101.855 57.7097 -123.512 -102.214 57.5599 -123.862 -102.607 57.2494 
-124.106 -103.132 56.897 -123.874 -103.718 56.7529 -123.366 -104.21 56.6645 
-123.024 -104.584 56.3798 -122.787 -104.847 56.0361 -122.516 -105.173 56.3675 
-122.978 -105.059 56.6078 -122.651 -105.473 56.9258 -123.335 -104.799 56.9571 
-123.189 -105.332 57.1763 -122.674 -105.719 57.6846 -123.656 -104.364 57.1663 
-123.429 -104.97 57.4462 -123.113 -105.522 58.0093 -122.42 -105.757 58.679 
-123.854 -103.785 57.3076 -123.361 -104.394 57.6232 -123.152 -105.108 58.2777 
-122.882 -105.674 59.1388 -122.082 -105.749 59.6676 -123.754 -103.205 57.664 
-123.223 -103.75 57.9646 -122.943 -104.47 58.5625 -123.056 -105.344 59.5015 
-122.728 -105.809 60.1558 -121.81 -105.876 60.4764 -123.493 -102.759 58.0471 
-123.215 -103.225 58.4619 -122.958 -103.824 59.0014 -123.019 -104.692 59.8278 
-122.958 -105.433 60.4835 -122.274 -105.787 60.7892 -121.436 -106.112 61.1224 
-123.19 -102.379 58.2029 -123.183 -102.78 58.77 -123.158 -103.281 59.3757 
-123.063 -104.015 60.0708 -122.806 -104.712 60.639 -122.216 -105.224 60.9279 
-121.448 -105.727 61.2444 -120.956 -106.347 61.7192 -122.773 -102.028 58.2638 
-122.899 -102.343 58.891 -123.07 -102.732 59.5775 -123.014 -103.405 60.1887 
-122.595 -104.049 60.6468 -121.957 -104.526 60.9452 -121.301 -105.107 61.3031 
-120.816 -105.817 61.8469 -120.597 -106.488 62.3886 -122.304 -101.796 58.353 
-122.461 -102.038 58.969 -122.659 -102.271 59.6817 -122.658 -102.838 60.255 
-122.306 -103.515 60.6294 -121.741 -103.993 60.9311 -121.225 -104.535 61.3539 
-120.866 -105.277 61.9752 -120.62 -105.973 62.6151 -120.445 -106.514 63.0772 
-121.974 -105.418 56.7029 -122.037 -105.749 57.3655 -121.42 -105.723 57.1886 
-121.944 -105.869 58.1626 -121.522 -106.014 57.8622 -121.108 -106.118 57.5671 
-121.512 -105.704 59.0621 -121.336 -105.985 58.5469 -121.19 -106.334 58.2179 
-120.716 -106.479 57.7954 -121.1 -105.722 60.0339 -120.771 -105.814 59.5065 
-120.81 -106.247 59.0734 -120.53 -106.566 58.6767 -119.906 -106.589 58.1891 
-121.024 -106.207 60.9624 -120.529 -106.178 60.6765 -120.261 -106.274 60.3422 
-120.039 -106.463 59.9358 -119.576 -106.534 59.3954 -119.083 -106.483 58.838 
-121.004 -106.801 61.6777 -120.802 -107.031 61.5245 -120.274 -106.954 61.3343 
-119.719 -106.734 61.1114 -119.297 -106.575 60.6638 -118.896 -106.48 60.0453 
-118.51 -106.426 59.4698 -120.775 -107.083 62.3104 -120.926 -107.612 62.0778 
-120.572 -107.778 61.7567 -119.793 -107.511 61.5451 -119.186 -107.133 61.3596 
-118.812 -106.851 60.9568 -118.388 -106.624 60.4363 -117.95 -106.492 59.9143 
-120.464 -107.07 62.9944 -120.637 -107.677 62.7623 -120.527 -108.082 62.3298 
-119.867 -108.074 61.8667 -119.133 -107.817 61.5934 -118.694 -107.55 61.3845 
-118.271 -107.212 61.0675 -117.765 -106.814 60.6878 -117.374 -106.557 60.21 
-120.263 -106.777 63.6333 -120.207 -107.388 63.5734 -119.952 -107.055 64.0353 
-119.812 -107.686 64.115 -119.494 -107.234 64.3514 -120.19 -107.944 63.3649 
-119.274 -107.74 64.4458 -118.826 -106.971 64.7845 -119.564 -108.075 64.0206 
-119.782 -108.171 62.874 -118.454 -107.389 64.5668 -118.014 -106.492 65.3223 
-118.809 -107.995 64.2835 -118.952 -108.072 63.5255 -119.042 -108.08 62.2727 
-117.492 -107.113 64.6949 -117.354 -106.413 65.4526 -117.786 -107.843 64.2251 
-118.066 -107.96 63.7957 -118.254 -107.95 62.7752 -118.471 -107.972 61.8055 
-116.769 -107.132 64.7062 -116.836 -106.517 64.971 -116.754 -107.85 64.3502 
-116.976 -108.051 63.881 -117.325 -107.933 62.9966 -117.665 -107.99 62.026 
-117.996 -107.804 61.4464 -116.194 -106.949 64.4755 -116.16 -106.29 64.4549 
-116.074 -107.701 64.4754 -116.046 -108.133 64.0892 -116.289 -108.126 63.0967 
-116.68 -108.055 62.0672 -117.071 -107.857 61.5053 -117.441 -107.346 61.1502 
-115.541 -106.477 64.2236 -115.383 -105.885 64.2532 -115.598 -107.165 64.2775 
-115.566 -107.75 64.0653 -115.621 -108.047 63.1813 -115.89 -108.088 62.0952 
-116.29 -107.832 61.5225 -116.691 -107.3 61.2467 -117.05 -106.806 60.8121 
-114.938 -106.051 64.0081 -114.774 -105.607 64.1143 -115.151 -106.559 63.8935 
-115.313 -107.049 63.6758 -115.39 -107.432 63.059 -115.52 -107.666 62.1706 
-115.829 -107.595 61.5842 -116.235 -107.166 61.3043 -116.588 -106.711 60.8794 
-116.859 -106.514 60.2363 -120.547 -106.174 63.4772 -120.308 -106.342 63.9371 
-120.611 -105.751 63.7576 -120.23 -105.772 64.1017 -120.342 -105.206 63.8057 
-119.848 -106.522 64.1938 -119.854 -105.137 64.1064 -119.931 -104.626 63.6857 
-119.587 -105.859 64.3903 -119.171 -106.565 64.6439 -119.459 -104.597 63.9894 
-119.682 -104.099 63.5745 -119.204 -105.251 64.4822 -118.789 -105.983 65.0771 
-118.378 -106.289 65.5266 -119.172 -104.117 63.8685 -119.387 -103.615 63.4224 
-118.904 -104.706 64.3401 -118.521 -105.533 65.0205 -118.088 -106.062 65.8849 
-117.73 -106.12 66.1236 -118.815 -103.552 63.7166 -118.942 -103.143 63.1206 
-118.61 -104.056 64.1866 -118.308 -104.82 64.5817 -117.935 -105.69 65.2324 
-117.584 -106.108 65.8586 -117.255 -106.215 65.6772 -118.465 -102.95 63.4415 
-118.613 -102.685 62.7931 -118.263 -103.349 64.0176 -117.985 -103.925 64.3347 
-117.653 -104.701 64.5382 -117.303 -105.442 64.9054 -116.965 -105.849 65.1047 
-116.6 -106.049 64.8279 -118.208 -102.492 63.0638 -118.41 -102.292 62.5111 
-117.957 -102.786 63.6516 -117.631 -103.249 64.08 -117.255 -103.784 64.2824 
-116.85 -104.327 64.4379 -116.446 -104.855 64.606 -116.083 -105.282 64.6001 
-115.731 -105.6 64.425 -117.906 -102.228 62.6265 -118.134 -101.992 62.195 
-117.639 -102.447 63.152 -117.299 -102.804 63.6136 -116.891 -103.257 63.9439 
[...]
CELL_DATA 2000
SCALARS Distance double
LOOKUP_TABLE default
164.583 165.148 164.899 164.974 165.743 165.492 165.591 165.322 165.401 
166.376 166.098 166.197 165.941 166.021 165.75 165.828 167.059 166.747 
166.802 166.53 166.597 166.344 166.414 166.17 166.264 167.712 167.437 
167.497 167.174 167.24 166.935 167.011 166.744 166.833 166.597 166.679 
168.264 168.071 168.226 167.927 168.046 167.682 167.78 167.415 167.494 
167.18 167.247 166.981 167.024 168.745 168.596 168.785 168.609 168.767 
168.503 168.604 168.244 168.283 167.898 167.92 167.582 167.618 167.326 
167.371 169.17 169.027 169.133 169.04 169.169 169.072 169.17 168.965 
168.966 168.643 168.596 168.257 168.251 167.95 167.988 167.702 167.755 
169.539 169.39 169.426 169.313 169.406 169.355 169.491 169.403 169.456 
169.224 169.165 168.859 168.806 168.537 168.546 168.299 168.327 168.069 
168.097 164.458 164.447 164.64 165.015 164.436 164.643 165.033 165.211 
165.596 164.416 164.635 165.058 165.249 165.672 165.841 166.266 164.37 
164.599 165.04 165.279 165.773 165.975 166.465 166.587 167.009 164.278 
164.525 164.962 165.247 165.79 166.076 166.605 166.792 167.195 167.29 
167.615 164.123 164.407 164.868 165.175 165.737 166.066 166.592 166.845 
167.196 167.36 167.619 167.779 168.069 163.957 164.255 164.763 165.092 
165.66 165.998 166.505 166.77 167.115 167.288 167.56 167.727 168.056 
168.238 168.582 163.88 164.143 164.662 164.984 165.518 165.866 166.332 
166.634 167.007 167.223 167.581 167.745 168.158 168.302 168.715 168.813 
169.119 163.887 164.117 164.597 164.878 165.34 165.658 166.061 166.387 
166.772 167.09 167.524 167.799 168.261 168.457 168.868 168.983 169.289 
169.327 169.528 164.042 164.443 164.41 164.735 164.823 164.791 165.117 
165.094 165.417 165.325 165.211 165.534 165.472 165.786 165.754 166.08 
165.956 165.783 166.12 165.985 166.345 166.208 166.559 166.462 166.829 
166.552 166.402 166.72 166.61 167.013 166.883 167.281 167.094 167.489 
167.32 167.698 167.087 166.958 167.23 167.142 167.502 167.484 167.881 
167.808 168.157 168.024 168.366 168.208 168.497 167.573 167.489 167.773 
167.643 167.957 167.905 168.296 168.291 168.631 168.57 168.831 168.759 
169.003 168.898 169.075 167.92 167.934 168.274 168.198 168.528 168.417 
168.819 168.75 169.166 169.053 169.343 169.182 169.393 169.285 169.468 
169.362 169.461 168.129 168.208 168.567 168.62 168.971 168.956 169.321 
169.296 169.697 169.637 169.963 169.782 169.981 169.752 169.91 169.732 
169.85 169.685 169.713 169.876 170.101 170.099 170.292 170.25 170.324 
170.604 170.575 170.756 170.332 170.444 170.7 170.786 170.998 170.997 
171.07 170.264 170.434 170.544 170.698 170.853 171.066 171.27 171.274 
171.265 169.992 170.233 170.264 170.405 170.467 170.76 171.094 171.39 
171.647 171.518 171.46 169.629 169.898 170.003 170.128 170.213 170.411 
170.766 171.154 171.575 171.771 171.826 171.644 171.515 169.236 169.529 
169.7 169.905 170.082 170.264 170.572 170.876 171.209 171.519 171.565 
171.676 171.469 171.489 171.405 168.782 169.1 169.263 169.57 169.77 
170.076 170.325 170.639 170.807 171.074 171.017 171.198 171.001 171.161 
171.062 171.285 171.379 168.337 168.631 168.793 169.107 169.292 169.648 
169.848 170.219 170.317 170.592 170.495 170.653 170.511 170.678 170.696 
170.921 171.096 171.331 171.537 169.762 170.137 169.83 169.642 170.589 
170.251 170.039 169.737 169.614 170.88 170.64 170.448 170.184 170.063 
169.795 169.723 170.938 170.758 170.533 170.463 170.387 170.25 170.149 
169.889 169.712 171.044 170.775 170.46 170.399 170.347 170.405 170.351 
170.231 169.979 169.719 169.404 171.327 171.04 170.825 170.514 170.467 
170.361 170.373 170.304 170.112 169.906 169.569 169.327 169.034 171.573 
171.47 171.559 171.201 171.224 170.801 170.779 170.457 170.333 170.057 
169.807 169.525 169.263 169.014 168.796 171.685 171.759 172.056 171.958 
172.069 171.693 171.56 171.069 170.856 170.442 170.238 169.879 169.651 
169.318 169.085 168.812 168.591 171.772 171.873 172.173 172.282 172.433 
172.319 172.144 171.762 171.417 171.003 170.738 170.387 170.157 169.78 
169.499 169.137 168.862 168.589 168.354 171.905 172.096 172.09 172.257 
172.139 172.239 172.395 172.419 172.486 171.883 172.175 172.324 172.444 
172.386 172.405 172.177 171.266 171.703 171.85 172.179 172.061 172.148 
171.816 171.827 171.45 170.637 170.979 171.07 171.503 171.438 171.666 
171.344 171.407 171.067 171.099 170.802 170.169 170.408 170.432 170.751 
170.728 170.981 170.743 170.878 170.576 170.702 170.453 170.52 170.227 
169.548 169.893 169.905 170.205 170.174 170.377 170.174 170.287 169.998 
170.153 169.898 170.071 169.78 169.867 169.516 168.716 169.15 169.184 
169.592 169.567 169.848 169.657 169.78 169.489 169.594 169.341 169.49 
169.235 169.351 169.042 169.12 168.827 167.963 168.332 168.375 168.792 
168.792 169.157 169.014 169.233 168.97 169.104 168.86 168.992 168.78 
168.874 168.628 168.68 168.433 168.502 168.302 171.799 171.723 171.837 
171.949 171.403 171.644 171.679 171.87 171.916 170.79 171.145 171.176 
171.469 171.454 171.711 171.641 170.166 170.483 170.541 170.879 170.927 
171.209 171.162 171.337 171.142 169.622 169.908 169.946 170.262 170.365 
170.693 170.78 170.967 170.885 170.885 170.667 168.981 169.326 169.33 
169.664 169.696 170.083 170.173 170.543 170.553 170.709 170.523 170.482 
170.213 168.296 168.634 168.629 168.981 168.942 169.323 169.278 169.742 
169.679 170.121 169.915 170.162 169.794 169.886 169.497 167.724 167.985 
167.96 168.266 168.213 168.537 168.426 168.785 168.619 169.049 168.812 
169.237 168.886 169.197 168.777 168.986 168.602 167.219 167.445 167.376 
167.629 167.55 167.828 167.713 167.987 167.807 168.079 167.839 168.142 
167.866 168.186 167.89 168.171 167.881 168.103 167.848 168.18 168.152 
168.319 168.638 168.093 168.297 168.612 168.786 169.126 167.924 168.178 
168.498 168.728 169.042 169.266 169.632 167.792 167.992 168.301 168.554 
168.862 169.12 169.428 169.716 170.029 167.76 167.91 168.203 168.395 
168.73 168.944 169.243 169.469 169.714 169.986 170.177 167.663 167.862 
168.164 168.356 168.72 168.902 169.244 169.371 169.635 169.752 169.968 
170.121 170.296 167.489 167.718 168.028 168.275 168.651 168.904 169.284 
169.442 169.749 169.815 170.116 170.152 170.45 170.441 170.675 167.348 
167.555 167.851 168.095 168.456 168.766 169.165 169.43 169.757 169.918 
170.237 170.369 170.745 170.79 171.097 170.99 171.187 167.219 167.427 
167.705 167.922 168.251 168.542 168.935 169.249 169.591 169.834 170.122 
170.364 170.715 170.964 171.298 171.386 171.57 171.478 171.593 167.878 
167.412 167.704 167.84 166.925 167.228 167.328 167.648 167.756 166.335 
166.692 166.752 167.085 167.159 167.509 167.593 165.625 166.032 166.107 
166.471 166.561 166.917 167.055 167.381 167.514 164.907 165.308 165.425 
165.816 165.968 166.35 166.543 166.894 167.075 167.368 167.497 164.218 
164.616 164.744 165.151 165.319 165.744 165.928 166.346 166.485 166.863 
166.95 167.29 167.354 163.521 163.925 164.052 164.473 164.614 165.052 
165.191 165.642 165.736 166.162 166.208 166.618 166.679 167.074 167.154 
162.867 163.238 163.372 163.782 163.922 164.332 164.46 164.88 165.005 
165.411 165.505 165.877 165.97 166.363 166.496 166.892 167.019 162.3 
162.623 162.762 163.139 163.308 163.68 163.824 164.193 164.35 164.741 
164.902 165.26 165.377 165.715 165.835 166.223 166.37 166.77 166.891 
162.027 161.768 162.096 162.508 161.557 161.888 162.363 162.656 163.078 
161.433 161.731 162.234 162.534 162.969 163.22 163.594 161.446 161.656 
162.119 162.399 162.808 163.077 163.448 163.714 164.101 161.614 161.719 
162.118 162.308 162.668 162.889 163.228 163.518 163.925 164.243 164.653 
161.818 161.892 162.241 162.362 162.711 162.828 163.129 163.308 163.671 
163.999 164.43 164.767 165.132 161.917 162.025 162.318 162.46 162.808 
162.939 163.266 163.34 163.653 163.805 164.195 164.492 164.91 165.213 
165.578 161.951 162.063 162.315 162.462 162.772 162.976 163.344 163.503 
163.85 163.925 164.271 164.388 164.799 165.023 165.463 165.715 166.118 
162.028 162.108 162.365 162.46 162.754 162.919 163.291 163.511 163.908 
164.086 164.449 164.558 164.923 165.047 165.464 165.656 166.087 166.299 
166.671 162.183 162.562 162.427 162.528 162.996 162.866 163.028 162.826 
162.957 163.426 163.35 163.632 163.439 163.609 163.329 163.498 163.803 
163.762 164.106 164.05 164.278 164.029 164.144 163.893 164.083 164.297 
164.14 164.439 164.445 164.717 164.605 164.701 164.488 164.613 164.459 
164.647 165.105 164.754 164.989 164.831 165.136 165.016 165.191 164.988 
165.123 164.961 165.178 165.018 165.185 166.054 165.658 165.842 165.524 
165.805 165.575 165.846 165.582 165.795 165.539 165.791 165.592 165.835 
165.588 165.743 166.845 166.551 166.695 166.382 166.581 166.322 166.587 
166.342 166.603 166.321 166.569 166.295 166.538 166.277 166.471 166.183 
166.336 167.456 167.247 167.416 167.159 167.342 167.078 167.306 167.075 
167.333 167.107 167.341 167.085 167.277 167.003 167.162 166.891 167.026 
166.759 166.883 162.034 161.939 162.13 162.415 161.855 162.057 162.342 
162.51 162.787 161.748 161.971 162.29 162.46 162.727 162.887 163.171 
161.715 161.878 162.226 162.416 162.765 162.907 163.213 163.318 163.614 
161.904 161.948 162.27 162.384 162.789 162.98 163.416 163.508 163.862 
163.863 164.21 162.164 162.206 162.51 162.531 162.904 163.048 163.548 
163.726 164.187 164.23 164.618 164.595 165.034 162.294 162.404 162.733 
162.798 163.168 163.253 163.719 163.871 164.348 164.487 164.909 164.996 
165.428 165.489 165.955 162.409 162.499 162.845 162.969 163.377 163.511 
163.958 164.081 164.5 164.616 165.012 165.166 165.597 165.773 166.22 
166.343 166.735 162.637 162.666 163.002 163.092 163.496 163.658 164.1 
164.266 164.659 164.77 165.122 165.248 165.658 165.854 166.312 166.503 
166.904 167.015 167.333 161.745 161.171 161.509 161.607 160.549 160.886 
160.989 161.372 161.502 160.016 160.287 160.37 160.734 160.867 161.252 
161.382 159.572 159.787 159.823 160.135 160.214 160.582 160.709 161.124 
161.327 159.159 159.331 159.32 159.598 159.631 159.935 160.001 160.407 
160.647 161.152 161.495 158.776 158.891 158.855 159.113 159.213 159.454 
159.541 159.785 159.999 160.455 160.865 161.401 161.768 158.488 158.511 
158.438 158.667 158.874 159.162 159.416 159.555 159.788 159.989 160.375 
160.796 161.229 161.667 161.952 158.424 158.318 158.215 158.312 158.526 
158.859 159.251 159.521 159.84 159.969 160.291 160.497 160.901 161.213 
161.566 161.868 162.12 158.612 158.422 158.355 158.255 158.419 158.593 
158.986 159.31 159.694 159.953 160.259 160.467 160.791 161.019 161.351 
161.587 161.878 162.109 162.37 158.757 159.044 158.784 158.573 159.462 
159.187 159.069 158.714 158.661 159.98 159.711 159.722 159.355 159.323 
158.984 159.134 160.583 160.289 160.351 160.054 160.053 159.69 159.728 
159.512 159.747 161.25 160.907 160.926 160.664 160.711 160.398 160.404 
160.097 160.222 160.088 160.34 161.965 161.581 161.558 161.246 161.314 
161.041 161.111 160.787 160.869 160.611 160.815 160.678 160.921 162.7 
162.313 162.291 161.92 161.959 161.664 161.766 161.486 161.575 161.281 
161.4 161.192 161.39 161.255 161.458 163.393 163.045 163.03 162.663 
162.668 162.335 162.403 162.129 162.219 161.945 162.01 161.76 161.873 
161.712 161.891 161.773 161.957 163.997 163.697 163.681 163.362 163.359 
163.032 163.066 162.77 162.845 162.567 162.627 162.344 162.405 162.184 
162.322 162.191 162.384 162.269 162.449 164.303 164.678 164.323 164.002 
165.092 164.717 164.39 164.03 163.706 165.532 165.146 164.816 164.436 
164.118 163.748 163.435 165.997 165.607 165.275 164.87 164.544 164.172 
163.869 163.502 163.208 166.432 166.083 165.767 165.349 165.005 164.605 
164.299 163.936 163.637 163.275 162.972 166.774 166.483 166.21 165.842 
165.522 165.103 164.791 164.386 164.083 163.697 163.381 163.018 162.733 
167.112 166.817 166.573 166.257 165.995 165.628 165.345 164.927 164.614 
164.175 163.856 163.448 163.179 162.827 162.637 167.505 167.193 166.957 
166.632 166.385 166.064 165.817 165.465 165.174 164.742 164.414 163.966 
163.702 163.322 163.155 162.822 162.7 167.879 167.601 167.386 167.054 
166.798 166.455 166.2 165.884 165.636 165.279 164.99 164.557 164.282 
163.874 163.696 163.356 163.227 162.904 162.769 162.888 163.374 163.17 
163.255 163.867 163.674 163.801 163.586 163.737 164.458 164.222 164.394 
164.167 164.344 164.13 164.33 165.131 164.873 165.06 164.817 165.011 
164.765 164.947 164.727 164.889 165.731 165.515 165.683 165.486 165.688 
165.455 165.631 165.368 165.517 165.258 165.379 166.309 166.088 166.268 
166.08 166.31 166.115 166.332 166.079 166.264 165.964 166.129 165.804 
165.957 166.957 166.723 166.962 166.729 167.008 166.778 167.049 166.798 
167.042 166.761 166.982 166.65 166.831 166.464 166.623 167.551 167.378 
167.636 167.454 167.745 167.533 167.807 167.554 167.808 167.548 167.801 
167.516 167.715 167.361 167.48 167.109 167.2 168.011 167.898 168.12 
168.031 168.292 168.187 168.43 168.262 168.481 168.28 168.525 168.307 
168.533 168.226 168.341 167.949 167.982 167.604 167.628 163.422 163.401 
163.173 162.698 163.494 163.201 162.731 162.456 161.971 163.694 163.363 
162.869 162.53 162.029 161.746 161.29 163.866 163.566 163.029 162.663 
162.068 161.774 161.292 161.091 160.682 163.935 163.679 163.128 162.779 
162.119 161.775 161.208 161.02 160.621 160.483 160.07 163.955 163.703 
163.174 162.854 162.26 161.874 161.294 160.973 160.533 160.369 160.025 
159.863 159.472 163.991 163.729 163.232 162.928 162.436 162.087 161.596 
161.189 160.707 160.372 160.006 159.822 159.558 159.369 159.12 164.043 
163.793 163.341 163.041 162.595 162.293 161.869 161.52 161.057 160.65 
160.219 159.91 159.645 159.477 159.323 159.155 159.022 164.092 163.871 
163.472 163.192 162.768 162.47 162.054 161.754 161.334 160.986 160.577 
160.217 159.913 159.65 159.468 159.309 159.16 159.041 158.898 163.297 
162.542 162.892 162.828 161.756 162.084 161.991 162.384 162.347 161.048 
161.289 161.138 161.511 161.502 161.944 162.013 160.445 160.612 160.404 
160.688 160.675 161.115 161.256 161.713 161.875 159.802 159.978 159.721 
159.979 159.934 160.345 160.501 160.973 161.17 161.616 161.795 159.152 
159.275 158.962 159.232 159.171 159.614 159.767 160.243 160.428 160.883 
161.066 161.532 161.738 158.807 158.736 158.393 158.496 158.425 158.83 
159.041 159.535 159.755 160.171 160.357 160.797 161.042 161.517 161.766 
158.798 158.619 158.319 158.164 158.054 158.213 158.447 158.871 159.199 
159.589 159.827 160.178 160.441 160.864 161.16 161.587 161.816 158.8 
158.719 158.542 158.321 158.199 158.088 158.225 158.426 158.773 159.123 
159.439 159.753 160.012 160.348 160.626 161.014 161.263 161.638 161.825 
163.675 163.222 163.664 164.064 162.767 163.198 163.625 164.049 164.46 
162.445 162.796 163.253 163.651 164.138 164.523 165 162.294 162.563 
163.019 163.358 163.891 164.274 164.826 165.168 165.665 162.228 162.468 
162.904 163.186 163.683 164.05 164.597 164.991 165.507 165.839 166.279 
162.199 162.426 162.872 163.11 163.561 163.852 164.328 164.706 165.199 
165.606 166.064 166.405 166.806 162.2 162.412 162.859 163.092 163.54 
163.771 164.209 164.476 164.944 165.29 165.775 166.143 166.575 166.897 
167.262 162.191 162.396 162.801 163.051 163.489 163.744 164.179 164.413 
164.865 165.129 165.619 165.919 166.37 166.659 167.018 167.3 167.597 
162.172 162.361 162.732 162.967 163.385 163.657 164.086 164.354 164.777 
165.054 165.5 165.801 166.229 166.498 166.838 167.069 167.341 167.587 
167.832 161.75 161.668 161.547 161.204 161.638 161.5 161.147 160.972 
160.602 161.526 161.453 161.132 160.964 160.584 160.397 160.073 161.27 
161.255 160.95 160.9 160.551 160.405 160.061 159.917 159.645 161.024 
160.953 160.609 160.621 160.289 160.27 159.944 159.882 159.616 159.524 
159.279 160.963 160.764 160.391 160.307 159.982 159.952 159.639 159.649 
159.418 159.447 159.268 159.193 158.958 161.11 160.814 160.465 160.24 
159.959 159.784 159.494 159.378 159.13 159.16 159.029 159.109 158.98 
158.905 158.7 161.393 161.067 160.762 160.456 160.206 159.934 159.681 
159.416 159.128 158.959 158.743 158.783 158.692 158.809 158.729 158.695 
158.589 161.721 161.415 161.144 160.818 160.549 160.243 159.984 159.694 
159.408 159.108 158.789 158.594 158.378 158.436 158.395 158.572 158.597 
158.648 158.674 
POINT_DATA 1002
SCALARS Distance double
LOOKUP_TABLE default
164.641 164.286 164.822 165.236 165.388 165.045 165.853 165.989 165.684 
165.473 166.453 166.687 166.288 166.093 165.918 167.104 167.388 166.852 
166.652 166.499 166.375 167.821 167.928 167.568 167.302 167.081 166.919 
166.745 168.463 168.402 168.394 168.177 167.861 167.541 167.281 167.048 
168.922 168.91 168.97 168.939 168.696 168.293 167.926 167.65 167.417 
169.248 169.354 169.229 169.31 169.262 168.941 168.555 168.275 168.04 
167.808 169.568 169.696 169.462 169.528 169.637 169.471 169.083 168.782 
168.584 168.359 168.127 164.265 164.834 164.242 164.852 164.216 165.412 
164.84 164.193 165.484 166.122 164.765 164.151 165.516 166.32 166.953 
164.659 164.023 165.461 166.394 167.102 167.531 164.54 163.807 165.406 
166.344 167.038 167.448 167.878 164.42 163.645 165.331 166.244 166.928 
167.379 167.855 168.434 164.365 163.63 165.201 166.024 166.73 167.363 
168.002 168.618 169.095 164.356 163.676 165.069 165.75 166.409 167.179 
168.032 168.75 169.238 169.534 164.095 164.78 164.455 165.138 164.876 
165.433 165.62 165.481 165.846 166.08 166.25 166.136 166.491 166.699 
166.899 166.82 166.7 167.091 167.459 167.685 167.884 167.357 167.206 
167.516 167.903 168.282 168.505 168.709 167.905 167.609 168.058 168.298 
168.689 168.924 169.065 169.237 168.288 167.864 168.631 168.897 169.264 
169.547 169.559 169.556 169.612 168.472 168.053 168.941 169.341 169.727 
170.102 170.24 170.143 170.031 169.909 170.024 170.364 170.489 170.577 
170.871 170.91 170.612 170.912 171.212 171.089 170.451 170.571 171.077 
171.524 171.184 170.148 170.196 170.635 171.571 171.848 171.351 169.82 
170.042 170.404 171.26 171.896 171.734 171.46 169.426 169.856 170.349 
170.966 171.404 171.398 171.275 171.48 168.934 169.43 170.025 170.603 
170.854 170.795 170.812 171.101 171.557 168.487 168.958 169.489 170.03 
170.319 170.313 170.428 170.851 171.337 171.717 169.898 170.368 169.853 
170.644 170.332 170.004 170.543 170.415 170.416 170.028 170.6 170.241 
170.386 170.251 169.66 171.172 170.705 170.459 170.278 169.81 169.24 
171.779 171.726 171.241 170.638 170.085 169.528 169.023 172.02 172.37 
172.112 171.328 170.604 170.024 169.403 168.831 172.043 172.456 172.475 
171.846 171.079 170.533 169.915 169.179 168.577 171.956 172.273 172.06 
172.384 171.972 172.53 172.169 171.51 172.42 172.211 171.432 170.858 
171.948 171.814 171.425 170.649 170.406 171.13 171.236 170.983 170.795 
170.171 169.933 170.477 170.579 170.416 170.331 170.233 169.577 169.134 
169.968 170.077 169.868 169.713 169.652 169.456 168.741 168.274 169.233 
169.5 169.396 169.205 169.107 168.946 168.725 167.982 167.632 168.403 
168.74 168.804 168.713 168.664 168.569 168.371 168.204 171.725 171.831 
171.613 171.488 171.11 171.718 170.839 170.423 171.202 171.444 170.189 
169.886 170.597 170.984 171.06 169.65 169.328 170.001 170.5 170.857 
170.739 169 168.617 169.341 169.748 170.273 170.53 170.301 168.285 
167.986 168.604 168.882 169.205 169.561 169.657 169.426 167.686 167.5 
167.91 168.126 168.27 168.383 168.495 168.508 168.399 167.15 167.007 
167.293 167.447 167.566 167.586 167.549 167.556 167.607 167.637 168.001 
168.468 167.987 168.437 167.855 168.932 168.243 167.676 168.815 169.379 
168.058 167.645 168.605 169.167 169.739 168.029 167.609 168.525 169.062 
169.502 169.902 167.951 167.43 168.514 169.12 169.552 169.853 170.15 
167.774 167.263 168.361 169.079 169.654 170.042 170.454 170.747 167.63 
167.15 168.15 168.859 169.559 170.058 170.613 171.171 171.374 167.58 
167.532 167.126 167.026 166.624 167.426 166.426 165.957 166.805 167.248 
165.714 165.205 166.183 166.698 167.222 165.008 164.508 165.553 166.17 
166.764 167.24 164.332 163.815 164.894 165.511 166.106 166.588 167.023 
163.629 163.121 164.195 164.754 165.311 165.793 166.245 166.77 162.965 
162.515 163.522 164.049 164.577 165.128 165.593 166.074 166.645 162.391 
161.996 162.932 163.47 163.955 164.518 165.06 165.479 165.951 166.515 