# vtk DataFile Version 4.0
vtk output
ASCII
DATASET POLYDATA
POINTS 1002 float
-84.0186 -91.5383 69.675 -75.8171 -105.287 74.0052 -73.0625 -86.0216 70.6458 
-68.6649 -103.788 73.9707 -79.2709 -96.8409 81.1032 -72.9841 -93.3803 80.6448 
-76.3616 -97.5842 66.01 -70.6275 -97.1151 66.1799 -70.8628 -110.215 81.0667 
-79.7719 -82.8864 73.4901 -68.6971 -112.91 68.1072 -80.6673 -84.4794 62.4627 
-83.1451 -92.3363 69.8955 -82.0682 -93.2276 70.2683 -80.7859 -94.1383 70.9942 
-79.5031 -95.1942 71.9223 -78.6654 -96.8525 72.6481 -78.1898 -98.9524 73.0833 
-77.5091 -100.738 73.4137 -76.6578 -102.179 73.6962 -76.087 -103.711 73.892 
-83.48 -91.6587 70.5498 -83.0189 -91.8906 71.7277 -82.4953 -92.2111 73.0082 
-81.813 -92.6948 74.3036 -81.3765 -93.4149 75.8149 -81.2327 -94.2162 77.2974 
-80.7562 -94.9508 78.3087 -80.0084 -95.6635 79.1186 -79.539 -96.3286 80.1113 
-84.0789 -92.1198 69.0712 -84.02 -92.9136 68.3834 -83.6724 -93.4913 67.6735 
-82.9114 -93.7346 67.0769 -81.912 -94.1761 66.4991 -80.9264 -95.0063 66.0073 
-79.8211 -95.7312 65.8958 -78.5158 -96.21 66.0233 -77.3038 -96.7806 66.0619 
-84.3593 -90.8372 69.9288 -84.4083 -89.938 70.2865 -84.2165 -88.5269 70.8098 
-84.0021 -87.0565 71.316 -83.4972 -86.1565 71.6238 -82.5273 -85.4581 71.9213 
-81.6701 -84.5642 72.3522 -81.1028 -83.7764 72.7617 -80.467 -83.256 73.0996 
-84.8072 -90.9364 69.0442 -85.418 -90.1439 68.2382 -85.634 -89.2777 67.1559 
-85.3943 -88.402 65.8384 -84.8187 -87.5205 64.6283 -83.995 -86.8569 63.9176 
-83.0135 -86.4236 63.5712 -82.0855 -85.8262 63.1892 -81.3317 -85.0428 62.7465 
-76.0142 -104.651 74.738 -76.3111 -103.944 75.5312 -76.8002 -103.275 76.4199 
-77.4276 -102.756 77.3741 -77.9686 -102.167 78.2878 -78.2892 -101.181 79.152 
-78.5301 -100.011 79.9949 -78.849 -98.9748 80.6661 -79.1549 -97.9614 81.016 
-75.7181 -104.858 73.2442 -75.5367 -104.235 72.444 -75.4035 -103.512 71.6121 
-75.3625 -102.743 70.8323 -75.3486 -101.914 70.0101 -75.4801 -101.162 68.9765 
-75.7928 -100.471 67.9177 -76.0554 -99.5725 67.1198 -76.2016 -98.5022 66.5447 
-75.6589 -106.368 74.6088 -75.4122 -107.367 75.3777 -75.0363 -108.23 76.2356 
-74.3798 -108.834 77.0561 -73.5575 -109.243 77.834 -72.9998 -109.697 78.6552 
-72.7079 -110.197 79.4918 -72.2574 -110.526 80.2316 -71.5527 -110.54 80.7773 
-75.4949 -106.547 73.5479 -74.8377 -107.594 73.0514 -73.8917 -108.463 72.6364 
-73.0681 -109.496 72.1661 -72.4309 -110.691 71.4769 -71.6769 -111.64 70.7693 
-70.8629 -112.205 70.1795 -70.1822 -112.577 69.5167 -69.5044 -112.84 68.7515 
-72.445 -87.1949 71.0366 -71.9371 -88.7501 71.5236 -71.3236 -90.3538 72.0308 
-70.5147 -91.8548 72.4708 -69.7125 -93.4502 72.9165 -69.1451 -95.2758 73.4396 
-68.9448 -97.4719 73.8295 -69.0241 -99.983 73.9077 -69.0104 -102.234 73.8692 
-72.9544 -86.2691 71.6293 -72.9065 -86.6536 72.6918 -72.8693 -87.2423 73.7486 
-72.8657 -88.0287 74.8345 -72.8354 -88.8242 76.0935 -72.6769 -89.5462 77.4152 
-72.6242 -90.4029 78.4624 -72.84 -91.4579 79.2105 -73.0307 -92.4942 79.9086 
-72.8199 -86.5043 69.966 -72.694 -87.2705 69.3432 -72.564 -88.2814 68.6693 
-72.2605 -89.3125 67.9466 -71.9355 -90.4318 67.4382 -71.757 -91.7966 67.1436 
-71.5217 -93.1429 66.798 -71.1309 -94.3659 66.476 -70.7994 -95.7016 66.322 
-73.7485 -85.2397 70.926 -74.494 -84.4425 71.2251 -75.1536 -83.4843 71.4256 
-75.7415 -82.4263 71.6949 -76.3715 -81.5321 72.2688 -77.1285 -81.065 72.8925 
-78.0046 -81.1219 73.1986 -78.8109 -81.566 73.2776 -79.3781 -82.1901 73.3569 
-73.6993 -85.3802 69.8167 -74.439 -84.7649 68.8811 -75.1238 -84.077 67.842 
-75.8107 -83.3979 66.7292 -76.5712 -82.8659 65.6563 -77.3541 -82.618 64.7621 
-78.2403 -82.7445 63.9835 -79.2325 -83.1347 63.2326 -80.0818 -83.6968 62.6774 
-69.0059 -102.983 74.7066 -69.1286 -101.7 75.6534 -69.2108 -100.314 76.6043 
-69.5784 -99.1271 77.3416 -70.0531 -97.9126 78.0664 -70.3519 -96.6192 78.95 
-70.8548 -95.6586 79.656 -71.7449 -95.025 80.0109 -72.5439 -94.3046 80.2819 
-68.5383 -103.47 73.2251 -68.3062 -102.913 72.4687 -68.0345 -102.264 71.6293 
-68.1192 -101.754 70.6753 -68.6039 -101.307 69.6564 -68.9652 -100.618 68.6014 
-69.1271 -99.6742 67.6137 -69.4682 -98.7154 66.9132 -70.0308 -97.8693 66.5127 
-68.4195 -104.637 74.6403 -68.2358 -105.537 75.3827 -68.2347 -106.63 76.0296 
-68.4309 -107.804 76.6245 -68.7652 -108.756 77.2918 -69.124 -109.344 77.9934 
-69.4063 -109.71 78.7775 -69.7077 -110.02 79.696 -70.1961 -110.229 80.5281 
-67.9928 -104.746 73.7435 -67.4319 -105.856 73.4349 -67.1891 -107.567 72.8529 
-66.8619 -109.268 72.1771 -66.423 -110.321 71.6098 -66.342 -111.29 70.8794 
-66.5498 -112.42 69.837 -66.9528 -113.106 68.866 -67.7332 -113.179 68.2998 
-78.9001 -96.3524 81.5605 -78.1288 -95.8699 81.7842 -77.1801 -95.4554 81.8494 
-76.4287 -94.9843 82.056 -75.8511 -94.3924 82.4649 -75.0933 -93.8522 82.7069 
-74.1418 -93.4935 82.54 -73.4055 -93.3155 82.0462 -73.0918 -93.3006 81.3662 
-78.7698 -97.9706 81.8283 -77.8004 -99.1863 82.1552 -76.6209 -100.634 82.3249 
-75.7712 -102.31 82.7492 -75.2722 -103.992 83.1477 -74.5596 -105.466 83.0437 
-73.4394 -106.844 82.6588 -72.3183 -108.227 82.2791 -71.4824 -109.393 81.7784 
-79.3805 -95.2606 80.5144 -79.4287 -93.4644 79.9206 -79.5423 -91.763 79.2984 
-79.6443 -90.2163 78.4708 -79.71 -88.6541 77.5481 -79.8131 -87.2377 76.7128 
-79.8166 -86.1006 75.8736 -79.7087 -84.9931 75.0083 -79.6968 -83.854 74.2117 
-72.5738 -94.7934 81.1732 -72.1117 -96.2058 81.7228 -71.7808 -97.765 82.2128 
-71.5793 -99.5579 82.577 -71.383 -101.482 82.6617 -71.1609 -103.519 82.4467 
-70.9201 -105.654 82.1886 -70.7143 -107.613 81.9753 -70.6825 -109.134 81.6282 
-73.3642 -91.7841 80.6017 -73.9021 -90.2144 80.4931 -74.6616 -88.8226 80.2326 
-75.3691 -87.2846 79.849 -76.0924 -85.6927 79.2721 -77.0951 -84.6521 78.3581 
-78.0205 -84.0973 77.1415 -78.5934 -83.6015 75.7862 -79.1181 -83.1629 74.5098 
-75.9332 -97.7132 65.6526 -75.398 -97.9244 65.3062 -74.7799 -98.0846 64.9227 
-74.1511 -98.0501 64.5509 -73.4236 -97.8155 64.3646 -72.5385 -97.5836 64.4329 
-71.7376 -97.5433 64.7177 -71.2209 -97.5764 65.1958 -70.9022 -97.4455 65.7424 
-75.4349 -99.1756 66.2544 -74.451 -101.057 66.4468 -73.439 -103.032 66.5143 
-72.6836 -105.14 66.3603 -72.0765 -107.144 66.2542 -71.2747 -108.636 66.465 
-70.4841 -109.843 66.8013 -69.9063 -111.067 67.1221 -69.337 -112.134 67.5416 
-77.229 -96.4018 65.3335 -78.3468 -95.3658 64.3834 -79.3909 -94.1278 63.4164 
-80.0984 -92.7146 62.6334 -80.6356 -91.4498 61.9531 -81.1205 -90.1153 61.439 
-81.287 -88.4749 61.3938 -81.0868 -86.8962 61.7631 -80.8261 -85.6114 62.1697 
-70.1576 -99.0176 66.0508 -69.5379 -100.948 65.64 -68.6352 -102.81 65.1586 
-67.8138 -104.796 64.7942 -67.4597 -106.899 64.6259 -67.4183 -108.716 64.9229 
-67.5158 -110.135 65.7149 -67.8035 -111.339 66.5556 -68.2345 -112.296 67.2857 
-71.393 -95.5073 65.7916 -72.3114 -93.8028 65.0931 -73.3169 -92.0268 64.2746 
-74.5221 -90.33 63.6143 -75.8551 -88.8975 63.1233 -76.998 -87.7421 62.6357 
-78.016 -86.688 62.2094 -79.0758 -85.6878 62.0496 -79.9959 -84.9252 62.1778 
-70.6558 -111.282 80.0953 -70.3668 -112.672 79.1381 -70.0535 -114.202 78.2856 
-69.7822 -115.21 77.1555 -69.4469 -115.459 75.4305 -69.0555 -115.285 73.5046 
-68.7875 -114.861 71.8762 -68.6664 -114.243 70.4889 -68.6349 -113.578 69.1967 
-80.189 -82.285 72.4897 -80.5069 -81.6948 71.3957 -80.8014 -81.0587 70.1647 
-81.1001 -80.6991 68.8567 -81.328 -80.8871 67.5053 -81.5207 -81.2534 65.9969 
-81.6042 -81.6368 64.4955 -81.3902 -82.3979 63.4287 -80.9994 -83.4821 62.8479 
-82.5159 -92.4396 70.903 -81.9816 -92.8027 72.2295 -81.4094 -93.4862 71.5422 
-81.4708 -93.4139 73.6414 -80.9184 -94.0652 73.0382 -80.267 -94.6454 72.4556 
-81.1155 -94.2737 75.0848 -80.5784 -94.8807 74.443 -79.9368 -95.4081 73.8481 
-79.2966 -96.0308 73.2115 -81.0748 -95.2827 76.5535 -80.4891 -95.8905 75.751 
-79.6868 -96.3526 75.0401 -79.1436 -97.0954 74.3163 -78.7348 -98.0756 73.6005 
-80.8004 -96.1625 77.7695 -80.3923 -96.9001 76.987 -79.5333 -97.4382 76.2006 
-78.8961 -98.2724 75.4582 -78.6524 -99.3761 74.623 -78.2537 -100.275 73.8805 
-80.042 -96.8462 78.7908 -79.8271 -97.6868 78.1732 -79.2633 -98.4367 77.3942 
-78.6886 -99.4132 76.6751 -78.3909 -100.487 75.8766 -78.0568 -101.355 74.9499 
-77.4172 -101.869 74.2001 -79.4306 -97.4537 79.9197 -79.1666 -98.3529 79.4511 
-78.8236 -99.2621 78.6936 -78.4937 -100.378 77.8942 -78.1685 -101.386 77.1149 
-77.7148 -102.09 76.1944 -77.1157 -102.653 75.2527 -76.5321 -103.18 74.5024 
-83.9097 -91.0886 71.0595 -84.0849 -90.1363 71.7043 -83.5301 -91.2842 72.4098 
-84.0023 -88.6246 72.2723 -83.7107 -90.2294 73.0564 -82.8568 -91.444 73.6124 
-83.6187 -87.2561 72.5566 -83.44 -88.8295 73.3911 -82.8535 -90.41 74.0752 
-81.9757 -91.785 74.8806 -82.7695 -86.4009 72.7732 -82.7169 -87.6757 73.5811 
-82.4589 -89.336 74.3801 -82.0128 -90.8176 75.3943 -81.5228 -92.3154 76.5178 
-81.8614 -85.6281 73.1564 -81.8722 -86.8149 73.9689 -81.7925 -88.3743 74.7898 
-81.8004 -89.9328 75.8336 -81.6163 -91.2168 77.0439 -81.1969 -92.8918 77.9018 
-81.218 -84.8766 73.5423 -81.2644 -86.0723 74.3989 -81.1685 -87.4534 75.2549 
-81.1944 -89.0101 76.1817 -81.266 -90.3299 77.2911 -80.9636 -91.6815 78.21 
-80.4521 -93.6135 78.7097 -80.5035 -84.3052 73.8451 -80.5881 -85.487 74.6901 
-80.5789 -86.6825 75.5742 -80.4647 -88.0451 76.4191 -80.4418 -89.5124 77.3594 
-80.3434 -90.8823 78.32 -80.0323 -92.4981 78.9952 -79.7487 -94.4837 79.5127 
-78.9912 -84.242 75.3217 -78.5611 -84.675 76.6874 -79.0413 -85.3927 76.1991 
-78.1012 -85.1121 78.1335 -78.6829 -85.7954 77.6593 -79.2067 -86.4985 77.1287 
-77.1632 -85.7934 79.4023 -78.1715 -86.3457 79.1671 -78.829 -87.0398 78.6789 
-79.2516 -87.807 78.038 -76.1104 -87.0556 80.2435 -77.1626 -87.2673 80.3172 
-78.2365 -87.8184 80.1397 -78.9134 -88.5941 79.6383 -79.2251 -89.4822 78.9548 
-75.2737 -88.6163 80.7104 -76.1156 -88.6003 80.9589 -77.2568 -88.8832 81.0517 
-78.3318 -89.5077 80.9275 -78.9141 -90.4222 80.4574 -79.174 -91.2495 79.8278 
-74.4171 -90.0955 81.0541 -75.1737 -90.1012 81.4123 -76.2166 -90.2953 81.5891 
-77.3105 -90.7279 81.6179 -78.1524 -91.4712 81.428 -78.6773 -92.3247 81.0303 
[...]
POINT_DATA 1002
FIELD FieldData 2
Theta 1 1002 float
2.58802 2.58802 0.553574 0.553574 2.12437 1.01722 2.12437 1.01722 1.5708 
1.5708 1.5708 1.5708 2.68241 2.78649 2.89924 3.01861 3.14159 3.01861 
2.89924 2.78649 2.68241 2.61035 2.61791 2.60515 2.56958 2.51327 2.44184 
2.36202 2.27983 2.1997 2.61035 2.61791 2.60515 2.56958 2.51327 2.44184 
2.36202 2.27983 2.1997 2.50947 2.41899 2.31794 2.20864 2.0944 1.97902 
1.86631 1.75944 1.66056 2.50947 2.41899 2.31794 2.20864 2.0944 1.97902 
1.86631 1.75944 1.66056 2.61035 2.61791 2.60515 2.56958 2.51327 2.44184 
2.36202 2.27983 2.1997 2.61035 2.61791 2.60515 2.56958 2.51327 2.44184 
2.36202 2.27983 2.1997 2.50947 2.41899 2.31794 2.20864 2.0944 1.97902 
1.86631 1.75944 1.66056 2.50947 2.41899 2.31794 2.20864 2.0944 1.97902 
1.86631 1.75944 1.66056 0.459179 0.355101 0.242354 0.122983 0 0.122983 
0.242354 0.355101 0.459179 0.531246 0.523681 0.536438 0.57201 0.628319 0.699757 
0.779574 0.86176 0.941896 0.531246 0.523681 0.536438 0.57201 0.628319 0.699757 
0.779574 0.86176 0.941896 0.632123 0.7226 0.823657 0.932948 1.0472 1.16257 
1.27528 1.38216 1.48103 0.632123 0.7226 0.823657 0.932948 1.0472 1.16257 
1.27528 1.38216 1.48103 0.531246 0.523681 0.536438 0.57201 0.628319 0.699757 
0.779574 0.86176 0.941896 0.531246 0.523681 0.536438 0.57201 0.628319 0.699757 
0.779574 0.86176 0.941896 0.632123 0.7226 0.823657 0.932948 1.0472 1.16257 
1.27528 1.38216 1.48103 0.632123 0.7226 0.823657 0.932948 1.0472 1.16257 
1.27528 1.38216 1.48103 2.02998 1.9259 1.81315 1.69378 1.5708 1.44781 
1.32844 1.2157 1.11162 2.0928 2.05283 2.00422 1.94767 1.88496 1.81867 
1.75177 1.68695 1.62623 2.0928 2.05283 2.00422 1.94767 1.88496 1.81867 
1.75177 1.68695 1.62623 1.0488 1.08876 1.13737 1.19392 1.25664 1.32292 
1.38982 1.45464 1.51537 1.0488 1.08876 1.13737 1.19392 1.25664 1.32292 
1.38982 1.45464 1.51537 2.02998 1.9259 1.81315 1.69378 1.5708 1.44781 
1.32844 1.2157 1.11162 2.0928 2.05283 2.00422 1.94767 1.88496 1.81867 
1.75177 1.68695 1.62623 2.0928 2.05283 2.00422 1.94767 1.88496 1.81867 
1.75177 1.68695 1.62623 1.0488 1.08876 1.13737 1.19392 1.25664 1.32292 
1.38982 1.45464 1.51537 1.0488 1.08876 1.13737 1.19392 1.25664 1.32292 
1.38982 1.45464 1.51537 1.5708 1.5708 1.5708 1.5708 1.5708 1.5708 
1.5708 1.5708 1.5708 1.5708 1.5708 1.5708 1.5708 1.5708 1.5708 
1.5708 1.5708 1.5708 2.70908 2.71362 2.81592 2.68886 2.81002 2.92597 
2.6349 2.76254 2.89233 3.01997 2.55881 2.68262 2.80854 2.92834 3.01997 
2.47007 2.58462 2.70048 2.80854 2.89233 2.92597 2.37702 2.48017 2.58462 
2.68262 2.76254 2.81002 2.81592 2.28567 2.37702 2.47007 2.55881 2.6349 
2.68886 2.71362 2.70908 2.52097 2.4195 2.51718 2.30791 2.40503 2.49426 
2.18928 2.28408 2.3734 2.45144 2.06758 2.15805 2.24572 2.32523 2.39165 
1.94707 2.03138 2.11543 2.19453 2.26401 2.32035 1.83164 1.90847 1.98711 
2.06376 2.13422 2.1949 2.24359 1.72413 1.79288 1.86489 1.93728 2.00658 
2.06938 2.12312 2.16654 1.5708 1.50988 1.63171 1.44492 1.5708 1.69667 
1.37826 1.5059 1.63569 1.76333 1.31281 1.43962 1.5708 1.70197 1.82878 
1.25155 1.37501 1.50478 1.63681 1.76659 1.89004 1.19686 1.31493 1.44074 
1.5708 1.70086 1.82666 1.94473 1.15011 1.26149 1.38136 1.50697 1.63462 
1.76024 1.88011 1.99148 1.99148 1.88011 1.94473 1.76024 1.82666 1.89004 
1.63462 1.70086 1.76659 1.82878 1.50697 1.5708 1.63681 1.70197 1.76333 
1.38136 1.44074 1.50478 1.5708 1.63569 1.69667 1.26149 1.31493 1.37501 
1.43962 1.5059 1.5708 1.63171 1.15011 1.19686 1.25155 1.31281 1.37826 
1.44492 1.50988 1.5708 2.16654 2.12312 2.24359 2.06938 2.1949 2.32035 
2.00658 2.13422 2.26401 2.39165 1.93728 2.06376 2.19453 2.32523 2.45144 
1.86489 1.98711 2.11543 2.24572 2.3734 2.49426 1.79288 1.90847 2.03138 
2.15805 2.28408 2.40503 2.51718 1.72413 1.83164 1.94707 2.06758 2.18928 
2.30791 2.4195 2.52097 1.66533 1.66946 1.76911 1.67254 1.777 1.88041 
1.67418 1.78222 1.89102 1.99634 1.67418 1.78405 1.89674 2.00785 2.11299 
1.67254 1.78222 1.89674 2.01191 2.12307 2.22608 1.66946 1.777 1.89102 
2.00785 2.12307 2.23222 2.33166 1.66533 1.76911 1.88041 1.99634 2.11299 
2.22608 2.33166 2.42672 1.47626 1.37249 1.47213 1.26118 1.36459 1.46906 
1.14526 1.25058 1.35938 1.46741 1.0286 1.13374 1.24485 1.35755 1.46741 
0.915514 1.01852 1.12969 1.24485 1.35938 1.46906 0.809937 0.909371 1.01852 
1.13374 1.25058 1.36459 1.47213 0.714871 0.809937 0.915514 1.0286 1.14526 
1.26118 1.37249 1.47626 0.975055 0.898002 1.01847 0.821245 0.946693 1.07221 
0.749941 0.877585 1.00737 1.13501 0.690152 0.816367 0.94706 1.07784 1.20431 
0.647337 0.768195 0.895868 1.02616 1.15448 1.2767 0.624416 0.736561 0.857515 
0.983547 1.11021 1.23313 1.34871 0.620619 0.722093 0.833684 0.952313 1.07402 
1.19452 1.30996 1.41746 0.855925 0.764569 0.764569 0.671524 0.661425 0.671524 
0.582786 0.556971 0.556971 0.582786 0.506696 0.458968 0.441109 0.458968 0.506696 
0.45273 0.379052 0.333054 0.333054 0.379052 0.45273 0.427969 0.331576 0.249267 
0.21325 0.249267 0.331576 0.427969 0.432512 0.325669 0.215619 0.121622 0.121622 
0.215619 0.325669 0.432512 0.432512 0.427969 0.325669 0.45273 0.331576 0.215619 
0.506696 0.379052 0.249267 0.121622 0.582786 0.458968 0.333054 0.21325 0.121622 
0.671524 0.556971 0.441109 0.333054 0.249267 0.215619 0.764569 0.661425 0.556971 
0.458968 0.379052 0.331576 0.325669 0.855925 0.764569 0.671524 0.582786 0.506696 
0.45273 0.427969 0.432512 0.975055 1.01847 0.898002 1.07221 0.946693 0.821245 
1.13501 1.00737 0.877585 0.749941 1.20431 1.07784 0.94706 0.816367 0.690152 
1.2767 1.15448 1.02616 0.895868 0.768195 0.647337 1.34871 1.23313 1.11021 
0.983547 0.857515 0.736561 0.624416 1.41746 1.30996 1.19452 1.07402 0.952313 
0.833684 0.722093 0.620619 1.15011 1.26149 1.19686 1.38136 1.31493 1.25155 
1.50697 1.44074 1.37501 1.31281 1.63462 1.5708 1.50478 1.43962 1.37826 
1.76024 1.70086 1.63681 1.5708 1.5059 1.44492 1.88011 1.82666 1.76659 
1.70197 1.63569 1.5708 1.50988 1.99148 1.94473 1.89004 1.82878 1.76333 
1.69667 1.63171 1.5708 1.15011 1.19686 1.26149 1.25155 1.31493 1.38136 
1.31281 1.37501 1.44074 1.50697 1.37826 1.43962 1.50478 1.5708 1.63462 
1.44492 1.5059 1.5708 1.63681 1.70086 1.76024 1.50988 1.5708 1.63569 
1.70197 1.76659 1.82666 1.88011 1.5708 1.63171 1.69667 1.76333 1.82878 
1.89004 1.94473 1.99148 1.72413 1.83164 1.79288 1.94707 1.90847 1.86489 
2.06758 2.03138 1.98711 1.93728 2.18928 2.15805 2.11543 2.06376 2.00658 
2.30791 2.28408 2.24572 2.19453 2.13422 2.06938 2.4195 2.40503 2.3734 
2.32523 2.26401 2.1949 2.12312 2.52097 2.51718 2.49426 2.45144 2.39165 
2.32035 2.24359 2.16654 2.70908 2.81592 2.71362 2.92597 2.81002 2.68886 
3.01997 2.89233 2.76254 2.6349 3.01997 2.92834 2.80854 2.68262 2.55881 
2.92597 2.89233 2.80854 2.70048 2.58462 2.47007 2.81592 2.81002 2.76254 
2.68262 2.58462 2.48017 2.37702 2.70908 2.71362 2.68886 2.6349 2.55881 
2.47007 2.37702 2.28567 2.16654 2.24359 2.12312 2.32035 2.1949 2.06938 
2.39165 2.26401 2.13422 2.00658 2.45144 2.32523 2.19453 2.06376 1.93728 
2.49426 2.3734 2.24572 2.11543 1.98711 1.86489 2.51718 2.40503 2.28408 
2.15805 2.03138 1.90847 1.79288 2.52097 2.4195 2.30791 2.18928 2.06758 
1.94707 1.83164 1.72413 1.66533 1.76911 1.66946 1.88041 1.777 1.67254 
1.99634 1.89102 1.78222 1.67418 2.11299 2.00785 1.89674 1.78405 1.67418 
2.22608 2.12307 2.01191 1.89674 1.78222 1.67254 2.33166 2.23222 2.12307 
2.00785 1.89102 1.777 1.66946 2.42672 2.33166 2.22608 2.11299 1.99634 
1.88041 1.76911 1.66533 1.47626 1.47213 1.37249 1.46906 1.36459 1.26118 
1.46741 1.35938 1.25058 1.14526 1.46741 1.35755 1.24485 1.13374 1.0286 
1.46906 1.35938 1.24485 1.12969 1.01852 0.915514 1.47213 1.36459 1.25058 
1.13374 1.01852 0.909371 0.809937 1.47626 1.37249 1.26118 1.14526 1.0286 
0.915514 0.809937 0.714871 1.41746 1.30996 1.34871 1.19452 1.23313 1.2767 
1.07402 1.11021 1.15448 1.20431 0.952313 0.983547 1.02616 1.07784 1.13501 
0.833684 0.857515 0.895868 0.94706 1.00737 1.07221 0.722093 0.736561 0.768195 
0.816367 0.877585 0.946693 1.01847 0.620619 0.624416 0.647337 0.690152 0.749941 
0.821245 0.898002 0.975055 0.975055 0.898002 1.01847 0.821245 0.946693 1.07221 
0.749941 0.877585 1.00737 1.13501 0.690152 0.816367 0.94706 1.07784 1.20431 
0.647337 0.768195 0.895868 1.02616 1.15448 1.2767 0.624416 0.736561 0.857515 
0.983547 1.11021 1.23313 1.34871 0.620619 0.722093 0.833684 0.952313 1.07402 
1.19452 1.30996 1.41746 
Phi 1 1002 float
6.28319 3.14159 6.28319 3.14159 4.71239 4.71239 1.5708 1.5708 3.69517 
5.72961 2.58802 0.553574 6.28319 6.28319 6.28319 6.28319 3.14159 3.14159 
3.14159 3.14159 3.14159 6.1053 5.8988 5.67687 5.45995 5.26596 5.10322 
4.97131 4.86569 4.78095 0.177881 0.384387 0.606312 0.823235 1.01722 1.17997 
1.31187 1.4175 1.50223 6.18928 6.10703 6.03531 5.97283 5.91832 5.87061 
5.82869 5.79168 5.75886 0.0939024 0.176153 0.247873 0.310351 0.364864 0.412573 
0.454497 0.491504 0.524326 3.31947 3.52598 3.7479 3.96483 4.15881 4.32156 
4.45346 4.55909 4.64383 2.96371 2.75721 2.53528 2.31836 2.12437 1.96162 
1.82972 1.72409 1.63936 3.2355 3.31775 3.38947 3.45194 3.50646 3.55417 
3.59609 3.6331 3.66592 3.04769 2.96544 2.89372 2.83124 2.77673 2.72902 
2.6871 2.65009 2.61727 6.28319 6.28319 6.28319 6.28319 3.14159 3.14159 
3.14159 3.14159 3.14159 6.1053 5.8988 5.67687 5.45995 5.26596 5.10322 
4.97131 4.86569 4.78095 0.177881 0.384387 0.606312 0.823235 1.01722 1.17997 
1.31187 1.4175 1.50223 6.18928 6.10703 6.03531 5.97283 5.91832 5.87061 
5.82869 5.79168 5.75886 0.0939024 0.176153 0.247873 0.310351 0.364864 0.412573 
0.454497 0.491504 0.524326 3.31947 3.52598 3.7479 3.96483 4.15881 4.32156 
4.45346 4.55909 4.64383 2.96371 2.75721 2.53528 2.31836 2.12437 1.96162 
1.82972 1.72409 1.63936 3.2355 3.31775 3.38947 3.45194 3.50646 3.55417 
3.59609 3.6331 3.66592 3.04769 2.96544 2.89372 2.83124 2.77673 2.72902 
2.6871 2.65009 2.61727 4.71239 4.71239 4.71239 4.71239 4.71239 4.71239 
4.71239 4.71239 4.71239 4.60879 4.49914 4.3857 4.27128 4.15881 4.05096 
3.94976 3.85646 3.77161 4.81599 4.92564 5.03907 5.1535 5.26596 5.37381 
5.47502 5.56831 5.65317 4.60879 4.49914 4.3857 4.27128 4.15881 4.05096 
3.94976 3.85646 3.77161 4.81599 4.92564 5.03907 5.1535 5.26596 5.37381 
5.47502 5.56831 5.65317 1.5708 1.5708 1.5708 1.5708 1.5708 1.5708 
1.5708 1.5708 1.5708 1.6744 1.78405 1.89748 2.01191 2.12437 2.23222 
2.33343 2.42672 2.51157 1.4672 1.35755 1.24411 1.12969 1.01722 0.909371 
0.808166 0.714871 0.63002 1.6744 1.78405 1.89748 2.01191 2.12437 2.23222 
2.33343 2.42672 2.51157 1.4672 1.35755 1.24411 1.12969 1.01722 0.909371 
0.808166 0.714871 0.63002 3.60077 3.49669 3.38395 3.26458 3.14159 3.01861 
2.89924 2.78649 2.68241 5.82401 5.92808 6.04083 6.1602 6.28319 0.122983 
0.242354 0.355101 0.459179 6.05603 5.78856 5.97021 5.51259 5.60297 5.78856 
5.26596 5.26596 5.26596 5.26596 5.06749 5.0121 4.91556 4.71239 4.15881 
4.91556 4.83537 4.71239 4.50922 4.15881 3.63622 4.80045 4.71239 4.58941 
4.41268 4.15881 3.82181 3.45456 4.71239 4.62433 4.50922 4.35729 4.15881 
3.91219 3.63622 3.36875 6.01742 5.94343 5.82633 5.88092 5.76745 5.62798 
5.8278 5.71897 5.58911 5.43724 5.78235 5.67854 5.55757 5.41926 5.26596 
5.74316 5.64441 5.5315 5.40467 5.26596 5.11955 5.70914 5.61528 5.50962 
5.3926 5.26596 5.13292 4.99789 5.67937 5.59016 5.49102 5.38246 5.26596 
5.14407 5.02016 4.89798 5.56831 5.47502 5.47502 5.37381 5.37381 5.37381 
5.26596 5.26596 5.26596 5.26596 5.1535 5.1535 5.1535 5.1535 5.1535 
5.03907 5.03907 5.03907 5.03907 5.03907 5.03907 4.92564 4.92564 4.92564 
4.92564 4.92564 4.92564 4.92564 4.81599 4.81599 4.81599 4.81599 4.81599 
4.81599 4.81599 4.81599 4.60879 4.60879 4.49914 4.60879 4.49914 4.3857 
4.60879 4.49914 4.3857 4.27128 4.60879 4.49914 4.3857 4.27128 4.15881 
4.60879 4.49914 4.3857 4.27128 4.15881 4.05096 4.60879 4.49914 4.3857 
4.27128 4.15881 4.05096 3.94976 4.60879 4.49914 4.3857 4.27128 4.15881 
4.05096 3.94976 3.85646 4.5268 4.40462 4.42689 4.28071 4.29185 4.30523 
4.15881 4.15881 4.15881 4.15881 4.04232 4.03217 4.02011 4.00552 3.98753 
3.93376 3.91515 3.89328 3.86721 3.83566 3.7968 3.83461 3.8095 3.78037 
3.74624 3.70581 3.65733 3.59845 3.7454 3.71564 3.68161 3.64243 3.59698 
3.54386 3.48135 3.40735 3.56428 3.45246 3.52338 3.33203 3.40312 3.47739 
3.20576 3.27463 3.34802 3.42551 3.07742 3.14159 3.21128 3.28647 3.36688 
2.95116 3.00855 3.0719 3.14159 3.21784 3.3006 2.83072 2.88006 2.93517 
2.99672 3.06535 3.14159 3.22575 2.7189 2.7598 2.8058 2.85768 2.9163 
2.98259 3.05743 3.14159 3.56428 3.52338 3.45246 3.47739 3.40312 3.33203 
3.42551 3.34802 3.27463 3.20576 3.36688 3.28647 3.21128 3.14159 3.07742 
3.3006 3.21784 3.14159 3.0719 3.00855 2.95116 3.22575 3.14159 3.06535 
2.99672 2.93517 2.88006 2.83072 3.14159 3.05743 2.98259 2.9163 2.85768 
2.8058 2.7598 2.7189 4.5268 4.42689 4.40462 4.30523 4.29185 4.28071 
4.15881 4.15881 4.15881 4.15881 3.98753 4.00552 4.02011 4.03217 4.04232 
3.7968 3.83566 3.86721 3.89328 3.91515 3.93376 3.59845 3.65733 3.70581 
3.74624 3.78037 3.8095 3.83461 3.40735 3.48135 3.54386 3.59698 3.64243 
3.68161 3.71564 3.7454 4.71239 4.80045 4.62433 4.91556 4.71239 4.50922 
5.06749 4.83537 4.58941 4.35729 5.26596 5.0121 4.71239 4.41268 4.15881 
5.51259 5.26596 4.91556 4.50922 4.15881 3.91219 5.78856 5.60297 5.26596 
4.71239 4.15881 3.82181 3.63622 6.05603 5.97021 5.78856 5.26596 4.15881 
3.63622 3.45456 3.36875 0.227158 0.494626 0.312971 0.770593 0.680215 0.494626 
1.01722 1.01722 1.01722 1.01722 1.2157 1.27109 1.36763 1.5708 2.12437 
1.36763 1.44781 1.5708 1.77397 2.12437 2.64697 1.48273 1.5708 1.69378 
1.8705 2.12437 2.46138 2.82862 1.5708 1.65886 1.77397 1.9259 2.12437 
2.371 2.64697 2.91443 1.75639 1.87857 1.8563 2.00248 1.99133 1.97796 
2.12437 2.12437 2.12437 2.12437 2.24087 2.25101 2.26308 2.27767 2.29565 
2.34943 2.36803 2.38991 2.41597 2.44752 2.48639 2.44857 2.47368 2.50281 
2.53694 2.57738 2.62586 2.68474 2.53778 2.56754 2.60157 2.64076 2.68621 
2.73933 2.80184 2.87583 1.6744 1.6744 1.78405 1.6744 1.78405 1.89748 
1.6744 1.78405 1.89748 2.01191 1.6744 1.78405 1.89748 2.01191 2.12437 
1.6744 1.78405 1.89748 2.01191 2.12437 2.23222 1.6744 1.78405 1.89748 
2.01191 2.12437 2.23222 2.33343 1.6744 1.78405 1.89748 2.01191 2.12437 
2.23222 2.33343 2.42672 1.4672 1.35755 1.4672 1.24411 1.35755 1.4672 
1.12969 1.24411 1.35755 1.4672 1.01722 1.12969 1.24411 1.35755 1.4672 
0.909371 1.01722 1.12969 1.24411 1.35755 1.4672 0.808166 0.909371 1.01722 
1.12969 1.24411 1.35755 1.4672 0.714871 0.808166 0.909371 1.01722 1.12969 
1.24411 1.35755 1.4672 0.603812 0.57405 0.693022 0.540021 0.667908 0.792164 
0.500837 0.638778 0.773562 0.900726 0.455383 0.604649 0.751687 0.890581 1.01722 
0.402264 0.564217 0.725619 0.878514 1.01722 1.13912 0.339753 0.515737 0.694072 
0.863926 1.01722 1.15026 1.26302 0.265762 0.456853 0.655207 0.845941 1.01722 
1.16363 1.28529 1.38521 0.227158 0.312971 0.494626 0.494626 0.680215 0.770593 
1.01722 1.01722 1.01722 1.01722 2.12437 1.5708 1.36763 1.27109 1.2157 
2.64697 2.12437 1.77397 1.5708 1.44781 1.36763 2.82862 2.46138 2.12437 
1.8705 1.69378 1.5708 1.48273 2.91443 2.64697 2.371 2.12437 1.9259 
1.77397 1.65886 1.5708 1.75639 1.8563 1.87857 1.97796 1.99133 2.00248 
2.12437 2.12437 2.12437 2.12437 2.29565 2.27767 2.26308 2.25101 2.24087 
2.48639 2.44752 2.41597 2.38991 2.36803 2.34943 2.68474 2.62586 2.57738 
2.53694 2.50281 2.47368 2.44857 2.87583 2.80184 2.73933 2.68621 2.64076 
2.60157 2.56754 2.53778 5.86049 5.90139 5.97231 5.94739 6.02165 6.09275 
5.99927 6.07676 6.15015 6.21902 6.0579 6.13831 6.2135 0 0.0641696 
6.12418 6.20694 6.28319 0.069689 0.13304 0.190437 6.19903 0 0.0762451 
0.144876 0.206423 0.261531 0.310872 0 0.0841597 0.159004 0.225289 0.283913 
0.335793 0.381792 0.422692 5.86049 5.97231 5.90139 6.09275 6.02165 5.94739 
6.21902 6.15015 6.07676 5.99927 0.0641696 0 6.2135 6.13831 6.0579 
0.190437 0.13304 0.069689 6.28319 6.20694 6.12418 0.310872 0.261531 0.206423 
0.144876 0.0762451 6.28319 6.19903 0.422692 0.381792 0.335793 0.283913 0.225289 
0.159004 0.0841597 0 5.67937 5.70914 5.59016 5.74316 5.61528 5.49102 
5.78235 5.64441 5.50962 5.38246 5.8278 5.67854 5.5315 5.3926 5.26596 
5.88092 5.71897 5.55757 5.40467 5.26596 5.14407 5.94343 5.76745 5.58911 
5.41926 5.26596 5.13292 5.02016 6.01742 5.82633 5.62798 5.43724 5.26596 
5.11955 4.99789 4.89798 1.38521 1.28529 1.26302 1.16363 1.15026 1.13912 
1.01722 1.01722 1.01722 1.01722 0.845941 0.863926 0.878514 0.890581 0.900726 
0.655207 0.694072 0.725619 0.751687 0.773562 0.792164 0.456853 0.515737 0.564217 
0.604649 0.638778 0.667908 0.693022 0.265762 0.339753 0.402264 0.455383 0.500837 
0.540021 0.57405 0.603812 
