# vtk DataFile Version 4.0
vtk output
ASCII
DATASET POLYDATA
POINTS 1002 float
-83.417 -86.1375 66.6898 -76.8231 -99.2151 71.9628 -72.8242 -81.9192 65.372 
-69.9713 -99.4387 70.2818 -78.4431 -89.8942 78.0154 -71.9659 -87.6736 77.1252 
-79.2101 -94.0998 61.8999 -72.9707 -94.3546 62.1876 -72.6946 -104.372 78.6188 
-78.2929 -78.0812 69.4358 -72.4628 -108.637 64.925 -81.9335 -79.6693 58.3333 
-82.5891 -86.9472 66.9931 -81.8094 -88.0769 67.5484 -81.0819 -89.4568 68.3674 
-80.1811 -90.597 69.2384 -79.2463 -91.6501 70.0062 -78.6871 -93.2718 70.6878 
-78.3453 -95.1666 71.2625 -77.8174 -96.6665 71.6554 -77.2101 -97.8948 71.862 
-82.9276 -86.2698 67.6041 -82.3959 -86.457 68.7106 -81.8788 -86.7278 70.0185 
-81.4531 -87.13 71.542 -81.0755 -87.6378 73.1384 -80.5581 -88.1433 74.3696 
-79.8905 -88.5678 75.1941 -79.3334 -88.9469 76.1116 -78.9326 -89.3757 77.1867 
-83.3482 -86.5016 65.9624 -83.2315 -86.955 65.2052 -83.0244 -87.5609 64.4978 
-82.6353 -88.2753 63.9202 -82.2295 -89.1736 63.4689 -81.8961 -90.3079 63.0535 
-81.4204 -91.4332 62.6568 -80.7582 -92.3932 62.3264 -80.0186 -93.2719 62.0737 
-83.7656 -85.2876 66.964 -83.707 -84.0659 67.1421 -83.3049 -82.7364 67.2269 
-82.7665 -81.6911 67.3755 -82.057 -80.8748 67.6485 -81.1564 -80.1107 67.9317 
-80.2871 -79.5062 68.1994 -79.5553 -79.0409 68.538 -78.901 -78.5537 68.9673 
-84.2112 -85.5775 66.0137 -84.8458 -84.8188 65.1729 -85.0874 -83.8212 64.0496 
-85.1189 -82.8906 62.7976 -85.1343 -82.1672 61.5929 -84.941 -81.3692 60.406 
-84.5264 -80.5331 59.3803 -83.9796 -79.9984 58.7675 -83.1144 -79.769 58.487 
-77.2516 -98.8521 72.6843 -77.869 -98.5698 73.4124 -78.3668 -98.0934 74.3233 
-78.5576 -97.209 75.4329 -78.663 -96.0744 76.3965 -78.7335 -94.864 76.9851 
-78.6396 -93.573 77.3431 -78.5434 -92.264 77.6413 -78.5333 -91.0288 77.8851 
-76.6544 -98.7375 71.1484 -76.4838 -98.2137 70.2853 -76.3932 -97.6931 69.38 
-76.4667 -97.1586 68.3592 -76.6836 -96.5609 67.1199 -77.0156 -95.9461 65.7754 
-77.5102 -95.4316 64.5878 -78.1291 -95.0235 63.6137 -78.7287 -94.609 62.7316 
-76.7486 -100.358 72.5875 -76.5554 -101.405 73.4101 -76.2804 -102.365 74.3847 
-76.0166 -103.355 75.3762 -75.6602 -104.169 76.2404 -75.1819 -104.609 76.9955 
-74.6646 -104.878 77.7643 -74.0201 -105.041 78.4317 -73.2811 -104.888 78.7304 
-76.6231 -100.562 71.5007 -76.5698 -102.157 71.0164 -76.3235 -103.618 70.5612 
-75.8994 -104.944 69.9424 -75.628 -106.279 69.0279 -75.3312 -107.345 68.0441 
-74.6311 -107.957 67.2171 -73.7459 -108.287 66.4937 -73.0326 -108.486 65.7387 
-72.582 -83.4862 66.0175 -72.2598 -85.1139 66.736 -71.6029 -86.4978 67.1863 
-70.7797 -87.9664 67.4506 -70.2551 -89.8787 67.9525 -70.0186 -91.8372 68.64 
-69.7617 -93.6219 69.1726 -69.598 -95.5721 69.5567 -69.721 -97.6521 69.9256 
-72.6542 -82.1713 66.3576 -72.5118 -82.6024 67.5179 -72.2892 -83.1247 68.789 
-72.1061 -83.7365 70.1221 -72.1214 -84.5282 71.4387 -72.1481 -85.3336 72.7307 
-71.9956 -85.9157 74.0549 -71.8409 -86.4047 75.3146 -71.8544 -87.0008 76.3434 
-72.8687 -82.6681 64.83 -72.8828 -83.4904 64.307 -72.9811 -84.5462 63.8791 
-73.2416 -85.9242 63.6372 -73.4218 -87.3151 63.3943 -73.377 -88.5439 62.9689 
-73.2644 -89.8796 62.6147 -73.1542 -91.4295 62.4932 -73.0429 -92.98 62.3917 
-73.0347 -80.6458 65.487 -73.456 -79.5861 65.7993 -74.0947 -78.7878 66.25 
-74.6817 -77.9494 66.769 -75.118 -77.0162 67.3905 -75.7314 -76.4383 68.1057 
-76.602 -76.4124 68.7135 -77.388 -76.766 69.0627 -77.9178 -77.3652 69.2508 
-73.3491 -81.0989 64.6093 -74.3214 -80.5691 64.0619 -75.3815 -80.0352 63.4658 
-76.1987 -79.3162 62.5638 -77.1251 -78.7695 61.6306 -78.2594 -78.5628 60.8807 
-79.1215 -78.4861 60.0331 -79.8228 -78.6027 59.1183 -80.7962 -79.0396 58.5291 
-69.8182 -98.4309 71.0877 -69.6089 -97.1814 72.0577 -69.6394 -96.0002 72.9484 
-70.1053 -95.0391 73.5974 -70.5519 -93.8608 74.2976 -70.5492 -92.2185 75.2434 
-70.532 -90.6618 76.0571 -70.9323 -89.5517 76.4904 -71.5156 -88.628 76.7749 
-69.8796 -99.2541 69.3171 -69.7572 -98.9024 68.2322 -69.7111 -98.4581 67.0426 
-69.7554 -98.0048 65.8216 -69.8916 -97.517 64.6924 -70.3283 -97.0057 63.9135 
-71.1463 -96.5483 63.5551 -71.9748 -96.0354 63.2487 -72.5331 -95.2909 62.7462 
-70.1019 -100.388 71.0528 -70.1918 -101.208 71.7455 -70.2796 -101.931 72.4192 
-70.2804 -102.553 73.3856 -70.3199 -103.144 74.65 -70.7799 -103.8 75.6732 
-71.51 -104.349 76.3029 -72.0163 -104.583 76.9893 -72.3096 -104.553 77.8632 
-70.0901 -100.814 70.0717 -69.9876 -102.073 69.8399 -69.7863 -103.515 69.3986 
-69.7289 -105.16 68.6252 -69.7326 -106.662 67.6424 -69.6807 -107.901 66.6385 
-69.9583 -108.857 65.7407 -70.7897 -109.277 65.1226 -71.7561 -109.105 64.886 
-77.8205 -89.5803 78.3178 -76.9842 -89.2789 78.4726 -76.2033 -88.9129 78.7419 
-75.5958 -88.4512 79.1619 -74.8951 -87.9702 79.4758 -73.9197 -87.522 79.563 
-72.9837 -87.2188 79.3499 -72.4431 -87.2192 78.7312 -72.203 -87.4463 77.8866 
-77.7807 -91.2192 78.4967 -76.8615 -92.7016 78.8791 -76.1153 -94.3065 79.4492 
-75.8529 -95.98 80.3247 -75.6579 -97.652 81.1143 -75.0554 -99.3299 81.3327 
-74.2655 -100.899 80.9327 -73.606 -102.193 80.1902 -73.0898 -103.306 79.3772 
-78.5359 -88.433 77.6089 -78.5088 -87.0072 76.9975 -78.5121 -85.7312 76.1907 
-78.4768 -84.4987 75.2492 -78.3212 -83.1883 74.2445 -78.2477 -81.9124 73.2387 
-78.3111 -80.7846 72.2528 -78.3292 -79.7806 71.268 -78.29 -78.8795 70.3053 
-71.9204 -89.0894 77.5028 -71.9834 -90.7362 77.8836 -72.0837 -92.4718 78.4207 
-72.1733 -94.2685 78.9114 -72.3178 -96.1804 79.1336 -72.4798 -98.0424 79.2443 
-72.496 -99.7046 79.2906 -72.4327 -101.316 79.1229 -72.4908 -102.934 78.8403 
-72.2864 -86.2697 76.9952 -72.6625 -84.8667 76.6349 -73.1034 -83.4346 76.134 
-73.6655 -81.9153 75.6163 -74.3726 -80.571 74.9508 -75.2106 -79.7126 73.9493 
-76.1154 -79.1414 72.7344 -76.9527 -78.6091 71.5455 -77.663 -78.2258 70.4497 
-78.8545 -94.1988 61.3391 -78.3318 -94.2344 60.8747 -77.678 -94.2417 60.6298 
-76.869 -94.2443 60.559 -75.8714 -94.2625 60.493 -74.8898 -94.3089 60.532 
-74.187 -94.3879 60.8557 -73.7041 -94.4706 61.3134 -73.2919 -94.4768 61.7443 
-78.0361 -95.3113 62.2896 -76.8679 -96.726 62.7137 -75.9143 -98.4923 63.0599 
-75.2873 -100.717 63.171 -74.9364 -103.042 63.0579 -74.5359 -104.843 63.0581 
-73.8818 -106.049 63.4101 -73.2329 -107.015 63.9133 -72.7995 -107.886 64.3817 
-80.1173 -92.9207 61.1682 -80.8291 -91.4395 60.4401 -81.3569 -89.8026 59.7097 
-81.9768 -88.3672 58.8302 -82.6121 -87.1484 57.8991 -82.8752 -85.7151 57.4444 
-82.8298 -83.9473 57.6346 -82.7008 -82.215 57.9804 -82.4136 -80.7969 58.1653 
-72.6278 -96.3033 62.2028 -72.1827 -98.3186 62.0253 -71.568 -100.254 61.5137 
-70.9858 -102.08 60.7205 -70.7647 -103.959 60.2392 -70.9565 -105.867 60.5822 
-71.3523 -107.327 61.4801 -71.7597 -108.059 62.529 -72.1197 -108.373 63.692 
-73.5941 -92.5124 61.7758 -74.558 -90.6082 61.3189 -75.7229 -88.6757 60.7808 
-76.8132 -86.8053 60.1765 -77.7935 -85.2513 59.5995 -78.6613 -83.904 58.9816 
-79.356 -82.489 58.3727 -80.0678 -81.2115 58.0699 -80.9733 -80.3101 58.1203 
-72.6381 -105.838 78.0923 -72.6151 -107.191 77.4706 -72.7228 -108.162 76.4259 
-72.9012 -108.735 74.8344 -72.8834 -109.209 72.9491 -72.6595 -109.728 71.1257 
-72.5137 -109.997 69.4532 -72.4976 -109.784 67.8124 -72.4824 -109.244 66.2391 
-78.7536 -77.5722 68.3065 -79.3394 -76.9961 67.1784 -79.9682 -76.4601 66.0759 
-80.5501 -76.2854 64.763 -81.1419 -76.4566 63.1257 -81.7524 -76.6126 61.5527 
-82.1565 -76.8775 60.3478 -82.2393 -77.6011 59.4277 -82.1291 -78.6372 58.7475 
-82.1712 -87.2691 68.0966 -81.7144 -87.6657 69.4015 -81.3858 -88.5465 68.8485 
-81.3202 -88.1811 70.9019 -80.9969 -89.1294 70.3094 -80.6232 -89.9036 69.7985 
-81.1692 -88.7898 72.6527 -80.9377 -89.9458 71.9447 -80.4448 -90.639 71.3262 
-79.8733 -91.0801 70.7033 -81.0281 -89.3034 74.2908 -81.1488 -90.724 73.6913 
-80.6738 -91.6616 72.8877 -79.9064 -91.9816 72.1473 -79.2319 -92.4568 71.3834 
-80.442 -89.6696 75.279 -80.8886 -91.1167 75.0093 -80.722 -92.3852 74.2949 
-79.9635 -92.9633 73.4426 -79.2648 -93.4587 72.5928 -78.7916 -94.3212 71.8409 
-79.6277 -90.0462 75.9811 -79.9713 -91.3491 75.7762 -80.0613 -92.6767 75.3222 
-79.6303 -93.623 74.6114 -79.1053 -94.389 73.7212 -78.7871 -95.3397 72.8367 
-78.379 -96.1721 72.1826 -79.034 -90.5131 76.9373 -79.1148 -91.7484 76.626 
-79.2039 -93.026 76.2631 -79.0899 -94.182 75.7759 -78.8398 -95.2437 75.0141 
-78.6974 -96.3352 74.01 -78.4148 -97.1912 73.1133 -77.8232 -97.6229 72.4684 
-83.0863 -85.3163 67.8802 -82.8295 -84.0864 68.0471 -82.3982 -85.4124 69.0218 
-82.38 -82.9167 68.1882 -82.1285 -84.2431 69.293 -81.8807 -85.6524 70.4238 
-81.8944 -82.0158 68.4809 -81.7834 -83.2026 69.6251 -81.6885 -84.5499 70.8228 
-81.3928 -86.0913 71.9422 -81.2174 -81.1991 68.8486 -81.27 -82.3435 69.9931 
-81.2264 -83.5403 71.1861 -81.014 -85.0665 72.2013 -80.7082 -86.6975 73.2566 
-80.3922 -80.4566 69.148 -80.498 -81.5994 70.2209 -80.4456 -82.7472 71.3637 
-80.2709 -84.1048 72.3559 -80.0754 -85.7597 73.2556 -79.9425 -87.2698 74.2613 
-79.6184 -79.8869 69.4683 -79.6889 -80.9516 70.4354 -79.6142 -82.128 71.4495 
-79.4664 -83.3648 72.4729 -79.3886 -84.8209 73.426 -79.3555 -86.3201 74.3762 
-79.3567 -87.6488 75.3257 -78.9256 -79.3751 69.8769 -78.9732 -80.3393 70.8227 
-78.9164 -81.4605 71.7667 -78.8225 -82.6792 72.7611 -78.8518 -83.9992 73.7933 
-78.9085 -85.3534 74.801 -78.926 -86.6467 75.7528 -78.9669 -87.9696 76.5751 
-77.6739 -79.1136 71.423 -76.9703 -79.5531 72.6569 -77.7052 -80.098 72.5117 
-76.136 -80.0597 73.9803 -77.0003 -80.5971 73.8194 -77.6649 -81.1609 73.5987 
-75.2037 -80.6297 75.2434 -76.1619 -81.194 75.0841 -76.9581 -81.7762 74.8557 
-77.6656 -82.3962 74.6247 -74.2943 -81.5915 76.2521 -75.2162 -81.8914 76.3091 
-76.1527 -82.5203 76.0292 -77.0089 -83.1123 75.8346 -77.841 -83.7736 75.6299 
-73.5369 -82.9715 76.9925 -74.3122 -82.8697 77.4386 -75.3082 -83.2668 77.3254 
-76.2723 -83.8678 77.0377 -77.171 -84.4858 76.8194 -77.9544 -85.1055 76.5821 
-72.9615 -84.4392 77.5482 -73.5526 -84.1501 78.2655 -74.4977 -84.2396 78.4718 
-75.5208 -84.6971 78.2619 -76.3911 -85.3188 77.9107 -77.1692 -85.9246 77.6091 
[...]
POINT_DATA 1002
FIELD FieldData 2
Theta 1 1002 float
2.58802 2.58802 0.553574 0.553574 2.12437 1.01722 2.12437 1.01722 1.5708 
1.5708 1.5708 1.5708 2.68241 2.78649 2.89924 3.01861 3.14159 3.01861 
2.89924 2.78649 2.68241 2.61035 2.61791 2.60515 2.56958 2.51327 2.44184 
2.36202 2.27983 2.1997 2.61035 2.61791 2.60515 2.56958 2.51327 2.44184 
2.36202 2.27983 2.1997 2.50947 2.41899 2.31794 2.20864 2.0944 1.97902 
1.86631 1.75944 1.66056 2.50947 2.41899 2.31794 2.20864 2.0944 1.97902 
1.86631 1.75944 1.66056 2.61035 2.61791 2.60515 2.56958 2.51327 2.44184 
2.36202 2.27983 2.1997 2.61035 2.61791 2.60515 2.56958 2.51327 2.44184 
2.36202 2.27983 2.1997 2.50947 2.41899 2.31794 2.20864 2.0944 1.97902 
1.86631 1.75944 1.66056 2.50947 2.41899 2.31794 2.20864 2.0944 1.97902 
1.86631 1.75944 1.66056 0.459179 0.355101 0.242354 0.122983 0 0.122983 
0.242354 0.355101 0.459179 0.531246 0.523681 0.536438 0.57201 0.628319 0.699757 
0.779574 0.86176 0.941896 0.531246 0.523681 0.536438 0.57201 0.628319 0.699757 
0.779574 0.86176 0.941896 0.632123 0.7226 0.823657 0.932948 1.0472 1.16257 
1.27528 1.38216 1.48103 0.632123 0.7226 0.823657 0.932948 1.0472 1.16257 
1.27528 1.38216 1.48103 0.531246 0.523681 0.536438 0.57201 0.628319 0.699757 
0.779574 0.86176 0.941896 0.531246 0.523681 0.536438 0.57201 0.628319 0.699757 
0.779574 0.86176 0.941896 0.632123 0.7226 0.823657 0.932948 1.0472 1.16257 
1.27528 1.38216 1.48103 0.632123 0.7226 0.823657 0.932948 1.0472 1.16257 
1.27528 1.38216 1.48103 2.02998 1.9259 1.81315 1.69378 1.5708 1.44781 
1.32844 1.2157 1.11162 2.0928 2.05283 2.00422 1.94767 1.88496 1.81867 
1.75177 1.68695 1.62623 2.0928 2.05283 2.00422 1.94767 1.88496 1.81867 
1.75177 1.68695 1.62623 1.0488 1.08876 1.13737 1.19392 1.25664 1.32292 
1.38982 1.45464 1.51537 1.0488 1.08876 1.13737 1.19392 1.25664 1.32292 
1.38982 1.45464 1.51537 2.02998 1.9259 1.81315 1.69378 1.5708 1.44781 
1.32844 1.2157 1.11162 2.0928 2.05283 2.00422 1.94767 1.88496 1.81867 
1.75177 1.68695 1.62623 2.0928 2.05283 2.00422 1.94767 1.88496 1.81867 
1.75177 1.68695 1.62623 1.0488 1.08876 1.13737 1.19392 1.25664 1.32292 
1.38982 1.45464 1.51537 1.0488 1.08876 1.13737 1.19392 1.25664 1.32292 
1.38982 1.45464 1.51537 1.5708 1.5708 1.5708 1.5708 1.5708 1.5708 
1.5708 1.5708 1.5708 1.5708 1.5708 1.5708 1.5708 1.5708 1.5708 
1.5708 1.5708 1.5708 2.70908 2.71362 2.81592 2.68886 2.81002 2.92597 
2.6349 2.76254 2.89233 3.01997 2.55881 2.68262 2.80854 2.92834 3.01997 
2.47007 2.58462 2.70048 2.80854 2.89233 2.92597 2.37702 2.48017 2.58462 
2.68262 2.76254 2.81002 2.81592 2.28567 2.37702 2.47007 2.55881 2.6349 
2.68886 2.71362 2.70908 2.52097 2.4195 2.51718 2.30791 2.40503 2.49426 
2.18928 2.28408 2.3734 2.45144 2.06758 2.15805 2.24572 2.32523 2.39165 
1.94707 2.03138 2.11543 2.19453 2.26401 2.32035 1.83164 1.90847 1.98711 
2.06376 2.13422 2.1949 2.24359 1.72413 1.79288 1.86489 1.93728 2.00658 
2.06938 2.12312 2.16654 1.5708 1.50988 1.63171 1.44492 1.5708 1.69667 
1.37826 1.5059 1.63569 1.76333 1.31281 1.43962 1.5708 1.70197 1.82878 
1.25155 1.37501 1.50478 1.63681 1.76659 1.89004 1.19686 1.31493 1.44074 
1.5708 1.70086 1.82666 1.94473 1.15011 1.26149 1.38136 1.50697 1.63462 
1.76024 1.88011 1.99148 1.99148 1.88011 1.94473 1.76024 1.82666 1.89004 
1.63462 1.70086 1.76659 1.82878 1.50697 1.5708 1.63681 1.70197 1.76333 
1.38136 1.44074 1.50478 1.5708 1.63569 1.69667 1.26149 1.31493 1.37501 
1.43962 1.5059 1.5708 1.63171 1.15011 1.19686 1.25155 1.31281 1.37826 
1.44492 1.50988 1.5708 2.16654 2.12312 2.24359 2.06938 2.1949 2.32035 
2.00658 2.13422 2.26401 2.39165 1.93728 2.06376 2.19453 2.32523 2.45144 
1.86489 1.98711 2.11543 2.24572 2.3734 2.49426 1.79288 1.90847 2.03138 
2.15805 2.28408 2.40503 2.51718 1.72413 1.83164 1.94707 2.06758 2.18928 
2.30791 2.4195 2.52097 1.66533 1.66946 1.76911 1.67254 1.777 1.88041 
1.67418 1.78222 1.89102 1.99634 1.67418 1.78405 1.89674 2.00785 2.11299 
1.67254 1.78222 1.89674 2.01191 2.12307 2.22608 1.66946 1.777 1.89102 
2.00785 2.12307 2.23222 2.33166 1.66533 1.76911 1.88041 1.99634 2.11299 
2.22608 2.33166 2.42672 1.47626 1.37249 1.47213 1.26118 1.36459 1.46906 
1.14526 1.25058 1.35938 1.46741 1.0286 1.13374 1.24485 1.35755 1.46741 
0.915514 1.01852 1.12969 1.24485 1.35938 1.46906 0.809937 0.909371 1.01852 
1.13374 1.25058 1.36459 1.47213 0.714871 0.809937 0.915514 1.0286 1.14526 
1.26118 1.37249 1.47626 0.975055 0.898002 1.01847 0.821245 0.946693 1.07221 
0.749941 0.877585 1.00737 1.13501 0.690152 0.816367 0.94706 1.07784 1.20431 
0.647337 0.768195 0.895868 1.02616 1.15448 1.2767 0.624416 0.736561 0.857515 
0.983547 1.11021 1.23313 1.34871 0.620619 0.722093 0.833684 0.952313 1.07402 
1.19452 1.30996 1.41746 0.855925 0.764569 0.764569 0.671524 0.661425 0.671524 
0.582786 0.556971 0.556971 0.582786 0.506696 0.458968 0.441109 0.458968 0.506696 
0.45273 0.379052 0.333054 0.333054 0.379052 0.45273 0.427969 0.331576 0.249267 
0.21325 0.249267 0.331576 0.427969 0.432512 0.325669 0.215619 0.121622 0.121622 
0.215619 0.325669 0.432512 0.432512 0.427969 0.325669 0.45273 0.331576 0.215619 
0.506696 0.379052 0.249267 0.121622 0.582786 0.458968 0.333054 0.21325 0.121622 
0.671524 0.556971 0.441109 0.333054 0.249267 0.215619 0.764569 0.661425 0.556971 
0.458968 0.379052 0.331576 0.325669 0.855925 0.764569 0.671524 0.582786 0.506696 
0.45273 0.427969 0.432512 0.975055 1.01847 0.898002 1.07221 0.946693 0.821245 
1.13501 1.00737 0.877585 0.749941 1.20431 1.07784 0.94706 0.816367 0.690152 
1.2767 1.15448 1.02616 0.895868 0.768195 0.647337 1.34871 1.23313 1.11021 
0.983547 0.857515 0.736561 0.624416 1.41746 1.30996 1.19452 1.07402 0.952313 
0.833684 0.722093 0.620619 1.15011 1.26149 1.19686 1.38136 1.31493 1.25155 
1.50697 1.44074 1.37501 1.31281 1.63462 1.5708 1.50478 1.43962 1.37826 
1.76024 1.70086 1.63681 1.5708 1.5059 1.44492 1.88011 1.82666 1.76659 
1.70197 1.63569 1.5708 1.50988 1.99148 1.94473 1.89004 1.82878 1.76333 
1.69667 1.63171 1.5708 1.15011 1.19686 1.26149 1.25155 1.31493 1.38136 
1.31281 1.37501 1.44074 1.50697 1.37826 1.43962 1.50478 1.5708 1.63462 
1.44492 1.5059 1.5708 1.63681 1.70086 1.76024 1.50988 1.5708 1.63569 
1.70197 1.76659 1.82666 1.88011 1.5708 1.63171 1.69667 1.76333 1.82878 
1.89004 1.94473 1.99148 1.72413 1.83164 1.79288 1.94707 1.90847 1.86489 
2.06758 2.03138 1.98711 1.93728 2.18928 2.15805 2.11543 2.06376 2.00658 
2.30791 2.28408 2.24572 2.19453 2.13422 2.06938 2.4195 2.40503 2.3734 
2.32523 2.26401 2.1949 2.12312 2.52097 2.51718 2.49426 2.45144 2.39165 
2.32035 2.24359 2.16654 2.70908 2.81592 2.71362 2.92597 2.81002 2.68886 
3.01997 2.89233 2.76254 2.6349 3.01997 2.92834 2.80854 2.68262 2.55881 
2.92597 2.89233 2.80854 2.70048 2.58462 2.47007 2.81592 2.81002 2.76254 
2.68262 2.58462 2.48017 2.37702 2.70908 2.71362 2.68886 2.6349 2.55881 
2.47007 2.37702 2.28567 2.16654 2.24359 2.12312 2.32035 2.1949 2.06938 
2.39165 2.26401 2.13422 2.00658 2.45144 2.32523 2.19453 2.06376 1.93728 
2.49426 2.3734 2.24572 2.11543 1.98711 1.86489 2.51718 2.40503 2.28408 
2.15805 2.03138 1.90847 1.79288 2.52097 2.4195 2.30791 2.18928 2.06758 
1.94707 1.83164 1.72413 1.66533 1.76911 1.66946 1.88041 1.777 1.67254 
1.99634 1.89102 1.78222 1.67418 2.11299 2.00785 1.89674 1.78405 1.67418 
2.22608 2.12307 2.01191 1.89674 1.78222 1.67254 2.33166 2.23222 2.12307 
2.00785 1.89102 1.777 1.66946 2.42672 2.33166 2.22608 2.11299 1.99634 
1.88041 1.76911 1.66533 1.47626 1.47213 1.37249 1.46906 1.36459 1.26118 
1.46741 1.35938 1.25058 1.14526 1.46741 1.35755 1.24485 1.13374 1.0286 
1.46906 1.35938 1.24485 1.12969 1.01852 0.915514 1.47213 1.36459 1.25058 
1.13374 1.01852 0.909371 0.809937 1.47626 1.37249 1.26118 1.14526 1.0286 
0.915514 0.809937 0.714871 1.41746 1.30996 1.34871 1.19452 1.23313 1.2767 
1.07402 1.11021 1.15448 1.20431 0.952313 0.983547 1.02616 1.07784 1.13501 
0.833684 0.857515 0.895868 0.94706 1.00737 1.07221 0.722093 0.736561 0.768195 
0.816367 0.877585 0.946693 1.01847 0.620619 0.624416 0.647337 0.690152 0.749941 
0.821245 0.898002 0.975055 0.975055 0.898002 1.01847 0.821245 0.946693 1.07221 
0.749941 0.877585 1.00737 1.13501 0.690152 0.816367 0.94706 1.07784 1.20431 
0.647337 0.768195 0.895868 1.02616 1.15448 1.2767 0.624416 0.736561 0.857515 
0.983547 1.11021 1.23313 1.34871 0.620619 0.722093 0.833684 0.952313 1.07402 
1.19452 1.30996 1.41746 
Phi 1 1002 float
6.28319 3.14159 6.28319 3.14159 4.71239 4.71239 1.5708 1.5708 3.69517 
5.72961 2.58802 0.553574 6.28319 6.28319 6.28319 6.28319 3.14159 3.14159 
3.14159 3.14159 3.14159 6.1053 5.8988 5.67687 5.45995 5.26596 5.10322 
4.97131 4.86569 4.78095 0.177881 0.384387 0.606312 0.823235 1.01722 1.17997 
1.31187 1.4175 1.50223 6.18928 6.10703 6.03531 5.97283 5.91832 5.87061 
5.82869 5.79168 5.75886 0.0939024 0.176153 0.247873 0.310351 0.364864 0.412573 
0.454497 0.491504 0.524326 3.31947 3.52598 3.7479 3.96483 4.15881 4.32156 
4.45346 4.55909 4.64383 2.96371 2.75721 2.53528 2.31836 2.12437 1.96162 
1.82972 1.72409 1.63936 3.2355 3.31775 3.38947 3.45194 3.50646 3.55417 
3.59609 3.6331 3.66592 3.04769 2.96544 2.89372 2.83124 2.77673 2.72902 
2.6871 2.65009 2.61727 6.28319 6.28319 6.28319 6.28319 3.14159 3.14159 
3.14159 3.14159 3.14159 6.1053 5.8988 5.67687 5.45995 5.26596 5.10322 
4.97131 4.86569 4.78095 0.177881 0.384387 0.606312 0.823235 1.01722 1.17997 
1.31187 1.4175 1.50223 6.18928 6.10703 6.03531 5.97283 5.91832 5.87061 
5.82869 5.79168 5.75886 0.0939024 0.176153 0.247873 0.310351 0.364864 0.412573 
0.454497 0.491504 0.524326 3.31947 3.52598 3.7479 3.96483 4.15881 4.32156 
4.45346 4.55909 4.64383 2.96371 2.75721 2.53528 2.31836 2.12437 1.96162 
1.82972 1.72409 1.63936 3.2355 3.31775 3.38947 3.45194 3.50646 3.55417 
3.59609 3.6331 3.66592 3.04769 2.96544 2.89372 2.83124 2.77673 2.72902 
2.6871 2.65009 2.61727 4.71239 4.71239 4.71239 4.71239 4.71239 4.71239 
4.71239 4.71239 4.71239 4.60879 4.49914 4.3857 4.27128 4.15881 4.05096 
3.94976 3.85646 3.77161 4.81599 4.92564 5.03907 5.1535 5.26596 5.37381 
5.47502 5.56831 5.65317 4.60879 4.49914 4.3857 4.27128 4.15881 4.05096 
3.94976 3.85646 3.77161 4.81599 4.92564 5.03907 5.1535 5.26596 5.37381 
5.47502 5.56831 5.65317 1.5708 1.5708 1.5708 1.5708 1.5708 1.5708 
1.5708 1.5708 1.5708 1.6744 1.78405 1.89748 2.01191 2.12437 2.23222 
2.33343 2.42672 2.51157 1.4672 1.35755 1.24411 1.12969 1.01722 0.909371 
0.808166 0.714871 0.63002 1.6744 1.78405 1.89748 2.01191 2.12437 2.23222 
2.33343 2.42672 2.51157 1.4672 1.35755 1.24411 1.12969 1.01722 0.909371 
0.808166 0.714871 0.63002 3.60077 3.49669 3.38395 3.26458 3.14159 3.01861 
2.89924 2.78649 2.68241 5.82401 5.92808 6.04083 6.1602 6.28319 0.122983 
0.242354 0.355101 0.459179 6.05603 5.78856 5.97021 5.51259 5.60297 5.78856 
5.26596 5.26596 5.26596 5.26596 5.06749 5.0121 4.91556 4.71239 4.15881 
4.91556 4.83537 4.71239 4.50922 4.15881 3.63622 4.80045 4.71239 4.58941 
4.41268 4.15881 3.82181 3.45456 4.71239 4.62433 4.50922 4.35729 4.15881 
3.91219 3.63622 3.36875 6.01742 5.94343 5.82633 5.88092 5.76745 5.62798 
5.8278 5.71897 5.58911 5.43724 5.78235 5.67854 5.55757 5.41926 5.26596 
5.74316 5.64441 5.5315 5.40467 5.26596 5.11955 5.70914 5.61528 5.50962 
5.3926 5.26596 5.13292 4.99789 5.67937 5.59016 5.49102 5.38246 5.26596 
5.14407 5.02016 4.89798 5.56831 5.47502 5.47502 5.37381 5.37381 5.37381 
5.26596 5.26596 5.26596 5.26596 5.1535 5.1535 5.1535 5.1535 5.1535 
5.03907 5.03907 5.03907 5.03907 5.03907 5.03907 4.92564 4.92564 4.92564 
4.92564 4.92564 4.92564 4.92564 4.81599 4.81599 4.81599 4.81599 4.81599 
4.81599 4.81599 4.81599 4.60879 4.60879 4.49914 4.60879 4.49914 4.3857 
4.60879 4.49914 4.3857 4.27128 4.60879 4.49914 4.3857 4.27128 4.15881 
4.60879 4.49914 4.3857 4.27128 4.15881 4.05096 4.60879 4.49914 4.3857 
4.27128 4.15881 4.05096 3.94976 4.60879 4.49914 4.3857 4.27128 4.15881 
4.05096 3.94976 3.85646 4.5268 4.40462 4.42689 4.28071 4.29185 4.30523 
4.15881 4.15881 4.15881 4.15881 4.04232 4.03217 4.02011 4.00552 3.98753 
3.93376 3.91515 3.89328 3.86721 3.83566 3.7968 3.83461 3.8095 3.78037 
3.74624 3.70581 3.65733 3.59845 3.7454 3.71564 3.68161 3.64243 3.59698 
3.54386 3.48135 3.40735 3.56428 3.45246 3.52338 3.33203 3.40312 3.47739 
3.20576 3.27463 3.34802 3.42551 3.07742 3.14159 3.21128 3.28647 3.36688 
2.95116 3.00855 3.0719 3.14159 3.21784 3.3006 2.83072 2.88006 2.93517 
2.99672 3.06535 3.14159 3.22575 2.7189 2.7598 2.8058 2.85768 2.9163 
2.98259 3.05743 3.14159 3.56428 3.52338 3.45246 3.47739 3.40312 3.33203 
3.42551 3.34802 3.27463 3.20576 3.36688 3.28647 3.21128 3.14159 3.07742 
3.3006 3.21784 3.14159 3.0719 3.00855 2.95116 3.22575 3.14159 3.06535 
2.99672 2.93517 2.88006 2.83072 3.14159 3.05743 2.98259 2.9163 2.85768 
2.8058 2.7598 2.7189 4.5268 4.42689 4.40462 4.30523 4.29185 4.28071 
4.15881 4.15881 4.15881 4.15881 3.98753 4.00552 4.02011 4.03217 4.04232 
3.7968 3.83566 3.86721 3.89328 3.91515 3.93376 3.59845 3.65733 3.70581 
3.74624 3.78037 3.8095 3.83461 3.40735 3.48135 3.54386 3.59698 3.64243 
3.68161 3.71564 3.7454 4.71239 4.80045 4.62433 4.91556 4.71239 4.50922 
5.06749 4.83537 4.58941 4.35729 5.26596 5.0121 4.71239 4.41268 4.15881 
5.51259 5.26596 4.91556 4.50922 4.15881 3.91219 5.78856 5.60297 5.26596 
4.71239 4.15881 3.82181 3.63622 6.05603 5.97021 5.78856 5.26596 4.15881 
3.63622 3.45456 3.36875 0.227158 0.494626 0.312971 0.770593 0.680215 0.494626 
1.01722 1.01722 1.01722 1.01722 1.2157 1.27109 1.36763 1.5708 2.12437 
1.36763 1.44781 1.5708 1.77397 2.12437 2.64697 1.48273 1.5708 1.69378 
1.8705 2.12437 2.46138 2.82862 1.5708 1.65886 1.77397 1.9259 2.12437 
2.371 2.64697 2.91443 1.75639 1.87857 1.8563 2.00248 1.99133 1.97796 
2.12437 2.12437 2.12437 2.12437 2.24087 2.25101 2.26308 2.27767 2.29565 
2.34943 2.36803 2.38991 2.41597 2.44752 2.48639 2.44857 2.47368 2.50281 
2.53694 2.57738 2.62586 2.68474 2.53778 2.56754 2.60157 2.64076 2.68621 
2.73933 2.80184 2.87583 1.6744 1.6744 1.78405 1.6744 1.78405 1.89748 
1.6744 1.78405 1.89748 2.01191 1.6744 1.78405 1.89748 2.01191 2.12437 
1.6744 1.78405 1.89748 2.01191 2.12437 2.23222 1.6744 1.78405 1.89748 
2.01191 2.12437 2.23222 2.33343 1.6744 1.78405 1.89748 2.01191 2.12437 
2.23222 2.33343 2.42672 1.4672 1.35755 1.4672 1.24411 1.35755 1.4672 
1.12969 1.24411 1.35755 1.4672 1.01722 1.12969 1.24411 1.35755 1.4672 
0.909371 1.01722 1.12969 1.24411 1.35755 1.4672 0.808166 0.909371 1.01722 
1.12969 1.24411 1.35755 1.4672 0.714871 0.808166 0.909371 1.01722 1.12969 
1.24411 1.35755 1.4672 0.603812 0.57405 0.693022 0.540021 0.667908 0.792164 
0.500837 0.638778 0.773562 0.900726 0.455383 0.604649 0.751687 0.890581 1.01722 
0.402264 0.564217 0.725619 0.878514 1.01722 1.13912 0.339753 0.515737 0.694072 
0.863926 1.01722 1.15026 1.26302 0.265762 0.456853 0.655207 0.845941 1.01722 
1.16363 1.28529 1.38521 0.227158 0.312971 0.494626 0.494626 0.680215 0.770593 
1.01722 1.01722 1.01722 1.01722 2.12437 1.5708 1.36763 1.27109 1.2157 
2.64697 2.12437 1.77397 1.5708 1.44781 1.36763 2.82862 2.46138 2.12437 
1.8705 1.69378 1.5708 1.48273 2.91443 2.64697 2.371 2.12437 1.9259 
1.77397 1.65886 1.5708 1.75639 1.8563 1.87857 1.97796 1.99133 2.00248 
2.12437 2.12437 2.12437 2.12437 2.29565 2.27767 2.26308 2.25101 2.24087 
2.48639 2.44752 2.41597 2.38991 2.36803 2.34943 2.68474 2.62586 2.57738 
2.53694 2.50281 2.47368 2.44857 2.87583 2.80184 2.73933 2.68621 2.64076 
2.60157 2.56754 2.53778 5.86049 5.90139 5.97231 5.94739 6.02165 6.09275 
5.99927 6.07676 6.15015 6.21902 6.0579 6.13831 6.2135 0 0.0641696 
6.12418 6.20694 6.28319 0.069689 0.13304 0.190437 6.19903 0 0.0762451 
0.144876 0.206423 0.261531 0.310872 0 0.0841597 0.159004 0.225289 0.283913 
0.335793 0.381792 0.422692 5.86049 5.97231 5.90139 6.09275 6.02165 5.94739 
6.21902 6.15015 6.07676 5.99927 0.0641696 0 6.2135 6.13831 6.0579 
0.190437 0.13304 0.069689 6.28319 6.20694 6.12418 0.310872 0.261531 0.206423 
0.144876 0.0762451 6.28319 6.19903 0.422692 0.381792 0.335793 0.283913 0.225289 
0.159004 0.0841597 0 5.67937 5.70914 5.59016 5.74316 5.61528 5.49102 
5.78235 5.64441 5.50962 5.38246 5.8278 5.67854 5.5315 5.3926 5.26596 
5.88092 5.71897 5.55757 5.40467 5.26596 5.14407 5.94343 5.76745 5.58911 
5.41926 5.26596 5.13292 5.02016 6.01742 5.82633 5.62798 5.43724 5.26596 
5.11955 4.99789 4.89798 1.38521 1.28529 1.26302 1.16363 1.15026 1.13912 
1.01722 1.01722 1.01722 1.01722 0.845941 0.863926 0.878514 0.890581 0.900726 
0.655207 0.694072 0.725619 0.751687 0.773562 0.792164 0.456853 0.515737 0.564217 
0.604649 0.638778 0.667908 0.693022 0.265762 0.339753 0.402264 0.455383 0.500837 
0.540021 0.57405 0.603812 
