# vtk DataFile Version 4.0
vtk output
ASCII
DATASET POLYDATA
POINTS 1002 float
-85.1464 -89.6118 68.5594 -78.5024 -102.445 74.6742 -74.6729 -85.4342 69.6758 
-72.4199 -102.275 74.2618 -81.2643 -93.8587 80.6336 -74.8295 -91.3451 80.578 
-78.938 -96.7839 65.644 -72.8358 -96.2663 65.1449 -75.7896 -107.896 82.0912 
-81.0664 -81.7002 72.8072 -74.3415 -112.5 68.8428 -82.2003 -83.4854 61.0184 
-84.3612 -90.3579 68.9321 -83.3755 -91.1399 69.4871 -82.3388 -92.0907 70.4134 
-81.5107 -93.29 71.5109 -80.9316 -94.8126 72.372 -80.3321 -96.4857 73.0648 
-79.6353 -97.9426 73.7885 -79.0558 -99.2755 74.3339 -78.7032 -100.809 74.5694 
-84.6647 -89.6009 69.492 -84.2446 -89.6639 70.6718 -83.8904 -89.8783 72.0018 
-83.6488 -90.2942 73.5358 -83.4288 -90.7513 75.1543 -82.9307 -91.1371 76.4396 
-82.1886 -91.691 77.4516 -81.6629 -92.5255 78.5922 -81.4689 -93.3328 79.7693 
-85.257 -90.1589 68.0667 -85.3076 -90.7995 67.6908 -85.1205 -91.5605 67.2918 
-84.5999 -92.3343 66.8139 -83.7974 -93.0187 66.3658 -82.8477 -93.6884 65.9835 
-81.883 -94.4243 65.6556 -80.9127 -95.2177 65.4731 -79.9085 -96.0242 65.4934 
-85.4215 -88.6997 68.709 -85.445 -87.6358 68.8785 -85.1422 -86.5618 69.1303 
-84.6568 -85.498 69.5733 -84.1442 -84.5467 70.1079 -83.4598 -83.8822 70.5264 
-82.576 -83.3383 70.908 -81.8502 -82.7237 71.4598 -81.4268 -82.1416 72.15 
-85.9057 -89.1039 67.8298 -86.6724 -88.438 66.978 -87.1948 -87.6173 65.9541 
-87.0948 -86.7628 64.909 -86.3856 -85.9694 63.9762 -85.5934 -85.2357 63.0167 
-84.9978 -84.5858 62.0706 -84.3229 -84.0651 61.4545 -83.3383 -83.6901 61.1797 
-78.71 -101.704 75.4067 -79.059 -100.959 76.1349 -79.6905 -100.395 76.8292 
-80.3983 -99.9465 77.5429 -80.8602 -99.3096 78.2939 -81.1574 -98.3414 79.115 
-81.4671 -97.2108 79.9426 -81.6226 -96.0875 80.5026 -81.5033 -94.9746 80.6733 
-78.3498 -102.13 73.9131 -78.1077 -101.753 73.1795 -77.9231 -101.288 72.393 
-77.9416 -100.749 71.4324 -78.0089 -100.142 70.3584 -78.0409 -99.4821 69.2991 
-78.2247 -98.7785 68.2774 -78.535 -98.0337 67.3023 -78.7772 -97.3418 66.4148 
-78.492 -103.641 75.2687 -78.5018 -104.755 75.953 -78.4909 -105.663 76.6689 
-78.387 -106.503 77.5425 -78.1381 -107.273 78.6496 -77.7653 -107.711 79.6448 
-77.277 -107.9 80.4011 -76.6998 -108.099 81.1764 -76.1712 -108.176 81.8492 
-78.2271 -103.788 74.3167 -77.875 -105.014 73.939 -77.6261 -106.343 73.3884 
-77.6081 -107.841 72.6579 -77.4982 -109.114 71.9639 -76.9489 -110.05 71.3465 
-76.2303 -110.9 70.6948 -75.659 -111.647 70.0304 -75.0745 -112.186 69.4056 
-74.0356 -86.2825 70.046 -73.5234 -87.4873 70.4882 -73.2325 -89.1582 71.1631 
-72.9762 -90.996 71.8647 -72.7098 -92.8897 72.3408 -72.6846 -95.1097 72.7563 
-72.8306 -97.4581 73.1923 -72.8257 -99.4169 73.5183 -72.635 -100.947 73.8342 
-74.6717 -85.6387 70.501 -74.737 -86.0806 71.4659 -74.7253 -86.5585 72.6868 
-74.5976 -86.9825 74.088 -74.4736 -87.5722 75.4614 -74.4365 -88.3466 76.709 
-74.5192 -89.1062 77.82 -74.6896 -89.8745 78.8216 -74.8075 -90.6646 79.7559 
-74.3893 -85.9362 69.0913 -74.2045 -86.6211 68.3821 -73.9995 -87.4314 67.5336 
-73.7133 -88.3932 66.74 -73.5934 -89.6625 66.3063 -73.6774 -91.204 66.1912 
-73.5871 -92.6447 66.0096 -73.2545 -93.797 65.6378 -72.9672 -94.921 65.3016 
-75.2452 -84.6302 69.7515 -75.6755 -83.5987 69.8555 -76.1094 -82.5052 70.0884 
-76.8794 -81.7652 70.4673 -77.7799 -81.3272 70.9637 -78.4489 -80.7338 71.5783 
-79.147 -80.2031 72.1735 -80.0262 -80.3096 72.5521 -80.7257 -80.9566 72.7217 
-75.1703 -84.9218 68.7996 -75.8236 -84.3775 67.7049 -76.5885 -83.8049 66.6602 
-77.3842 -83.3608 65.7887 -78.1943 -83.1196 64.8254 -78.9901 -82.9348 63.6658 
-79.7086 -82.7326 62.5408 -80.4266 -82.6769 61.663 -81.2724 -82.9345 61.1604 
-72.6538 -101.554 74.9437 -72.8655 -100.492 75.8066 -73.0144 -99.1829 76.6928 
-73.1459 -97.9775 77.3514 -73.3167 -96.8437 77.971 -73.3874 -95.4841 78.8784 
-73.3656 -94.1287 79.7678 -73.6215 -93.1041 80.2286 -74.2302 -92.2501 80.4019 
-72.2777 -102.016 73.3955 -72.0873 -101.615 72.536 -71.929 -101.101 71.4764 
-71.7841 -100.487 70.1827 -71.4969 -99.9103 69.0043 -71.2729 -99.4717 68.0753 
-71.5258 -98.9253 67.1774 -72.082 -98.0751 66.3254 -72.5155 -97.1131 65.6617 
-72.386 -103.158 75.1744 -72.4295 -104.017 76.0419 -72.6184 -104.866 76.7375 
-72.9146 -105.73 77.5893 -73.2162 -106.516 78.6977 -73.5937 -107.035 79.5244 
-74.1887 -107.361 79.9834 -74.8687 -107.716 80.604 -75.4031 -107.983 81.4463 
-72.1949 -103.523 74.1295 -72.0589 -104.931 73.7951 -72.0369 -106.392 73.2012 
-72.2327 -107.843 72.4955 -72.617 -109.237 71.8158 -72.8535 -110.554 71.1152 
-72.8664 -111.815 70.3388 -73.0491 -112.739 69.6083 -73.613 -112.938 69.0963 
-80.8379 -93.3524 80.9693 -80.2652 -92.8071 81.2843 -79.6309 -92.3587 81.5812 
-78.9596 -91.9866 81.8879 -78.1521 -91.5581 82.2277 -77.1849 -91.0945 82.3841 
-76.259 -90.8006 82.1646 -75.5833 -90.823 81.7002 -75.1522 -91.0792 81.1572 
-80.9259 -94.9039 81.2097 -80.1927 -96.0352 81.5984 -79.3493 -97.4522 82.0718 
-78.7876 -99.0999 82.6861 -78.3503 -100.851 83.1355 -77.7067 -102.672 83.3697 
-76.9947 -104.339 83.4976 -76.4529 -105.692 83.331 -76.0785 -106.859 82.793 
-81.2254 -92.3997 80.068 -81.2708 -90.8085 79.3512 -81.3607 -89.2929 78.5419 
-81.3588 -87.8984 77.7256 -81.3279 -86.5433 76.9417 -81.3208 -85.3089 76.1373 
-81.1915 -84.2791 75.2729 -81.0089 -83.3681 74.3958 -80.9834 -82.5072 73.5654 
-74.4925 -92.5726 81.2098 -74.326 -93.9602 81.7712 -74.6499 -95.6163 82.041 
-75.1872 -97.4986 82.0523 -75.4035 -99.529 82.1311 -75.3901 -101.691 82.4309 
-75.4579 -103.738 82.725 -75.5687 -105.405 82.7511 -75.6629 -106.751 82.4966 
-75.1896 -89.9388 80.3899 -75.3995 -88.4382 80.1426 -75.8595 -87.0344 79.5746 
-76.7217 -85.6767 78.8664 -77.6126 -84.2181 78.3128 -78.3103 -83.0069 77.552 
-78.9864 -82.4176 76.3094 -79.7528 -82.1622 74.9897 -80.4987 -81.8998 73.8587 
-78.4385 -96.9146 65.3346 -77.9402 -97.0232 65.0019 -77.4151 -97.1149 64.6074 
-76.7262 -97.21 64.3418 -75.883 -97.3145 64.3551 -75.0199 -97.3988 64.4183 
-74.1864 -97.3813 64.3939 -73.4841 -97.1562 64.4936 -73.0519 -96.7313 64.7914 
-77.9657 -97.9545 66.218 -77.1287 -99.5218 66.6139 -76.4475 -101.52 66.8068 
-75.9616 -103.704 66.8649 -75.6877 -105.768 66.8644 -75.5102 -107.555 66.9782 
-75.3341 -109.044 67.2909 -75.0988 -110.342 67.6915 -74.7445 -111.525 68.1781 
-79.7575 -95.7922 64.7755 -80.6432 -94.53 63.946 -81.3446 -93.0051 63.2191 
-81.9072 -91.7432 62.3236 -82.5674 -90.8544 61.2613 -83.1301 -89.6349 60.6504 
-83.2356 -87.8764 60.6983 -82.9602 -86.0935 60.8917 -82.5747 -84.6125 60.9417 
-72.6382 -98.5073 65.4006 -72.5308 -101.097 65.462 -72.3848 -103.429 65.0147 
-72.3204 -105.263 64.4564 -72.5215 -106.891 64.5172 -72.8724 -108.483 65.1799 
-73.1672 -109.945 66.0007 -73.4394 -111.163 66.8774 -73.8303 -112.022 67.846 
-73.4415 -94.6612 64.7455 -74.4448 -93.1379 64.3452 -75.5621 -91.4874 63.7409 
-76.5713 -89.7976 62.9511 -77.6012 -88.4702 62.2736 -78.646 -87.4485 61.6629 
-79.5356 -86.3229 61.0146 -80.3701 -85.1035 60.6717 -81.28 -84.114 60.7682 
-75.731 -109.164 81.3793 -75.6877 -110.299 80.5462 -75.5971 -111.031 79.2693 
-75.4246 -111.638 77.5157 -75.2861 -112.608 75.6962 -75.2424 -113.59 74.1311 
-75.1186 -113.897 72.7629 -74.8217 -113.616 71.4049 -74.5128 -113.126 70.044 
-81.3389 -81.2074 71.6293 -81.4775 -80.9126 70.2753 -81.5615 -80.8362 68.7386 
-81.7876 -80.8332 67.0738 -82.215 -80.7751 65.4855 -82.6518 -80.8184 64.1119 
-82.8678 -81.2224 62.916 -82.794 -81.9105 61.9622 -82.526 -82.6661 61.3542 
-83.8214 -90.4295 69.9637 -83.4043 -90.5997 71.2519 -82.8233 -91.317 70.6802 
-83.1138 -90.9547 72.7347 -82.4884 -91.6406 72.0971 -81.9527 -92.3945 71.7091 
-82.8874 -91.509 74.3591 -82.2756 -92.2026 73.6901 -81.7816 -92.9383 73.1313 
-81.4156 -93.8871 72.6799 -82.5862 -92.1 75.7808 -82.0752 -92.9791 75.1974 
-81.6286 -93.7593 74.6586 -81.3103 -94.7179 73.9762 -80.9366 -95.7576 73.3982 
-82.1371 -92.751 76.9296 -81.8842 -93.8349 76.3818 -81.5419 -94.7706 75.9731 
-81.183 -95.6908 75.3827 -80.747 -96.6561 74.647 -80.2089 -97.4021 74.1464 
-81.7768 -93.603 78.2376 -81.75 -94.7398 77.6713 -81.5626 -95.8125 77.1479 
-81.2564 -96.764 76.6368 -80.7303 -97.5636 75.9626 -80.0381 -98.1384 75.3447 
-79.4517 -98.6264 74.8722 -81.66 -94.4401 79.6491 -81.7221 -95.5631 79.2362 
-81.5687 -96.685 78.5695 -81.3206 -97.7416 77.864 -80.9236 -98.5565 77.1653 
-80.2112 -99.0303 76.4841 -79.4415 -99.4009 75.8884 -78.9581 -99.9971 75.2728 
-84.9838 -88.7001 69.8195 -85.0105 -87.6986 70.1307 -84.5564 -88.8177 71.1223 
-84.6906 -86.6358 70.5111 -84.5523 -87.8933 71.5604 -84.2006 -89.1244 72.5828 
-84.1905 -85.5792 71.014 -84.2624 -86.7931 72.0683 -84.2472 -88.2064 73.1926 
-84.0165 -89.5555 74.2809 -83.6104 -84.8168 71.4395 -83.7963 -85.7415 72.5524 
-83.9684 -87.035 73.725 -84.0233 -88.5912 74.8793 -83.6844 -89.9112 75.8552 
-82.8619 -84.2859 71.7772 -83.1644 -85.0888 72.8857 -83.3465 -86.0409 74.049 
-83.4607 -87.5036 75.1177 -83.3849 -88.99 76.1261 -82.8559 -90.2526 76.9158 
-82.0632 -83.6371 72.2853 -82.4023 -84.5407 73.2938 -82.5861 -85.4165 74.3589 
-82.5883 -86.6289 75.2767 -82.6013 -88.1014 76.1365 -82.3996 -89.4481 77.0283 
-81.9462 -90.8645 77.8472 -81.4485 -82.9738 72.9508 -81.6584 -83.8913 73.8654 
-81.8814 -84.8316 74.8293 -81.8872 -85.9305 75.6891 -81.8553 -87.2812 76.441 
-81.8482 -88.6671 77.2436 -81.6635 -90.08 78.1238 -81.4595 -91.6879 78.9908 
-80.3948 -82.7621 74.6717 -79.6727 -83.0045 75.8649 -80.4145 -83.6705 75.5081 
-78.9835 -83.3409 77.1908 -79.7069 -84.057 76.6649 -80.5798 -84.7025 76.3655 
-78.3947 -84.2029 78.3244 -79.0497 -84.7254 77.8883 -79.8367 -85.3984 77.4523 
-80.7001 -85.9445 77.2504 -77.6714 -85.5213 79.1551 -78.5118 -85.7573 79.0656 
-79.1494 -86.3551 78.6238 -79.9176 -86.8979 78.318 -80.7509 -87.3416 78.1477 
-76.6847 -86.8147 80.0109 -77.7951 -86.8273 80.2512 -78.6293 -87.2545 79.9942 
-79.2066 -87.8925 79.4781 -79.9881 -88.3695 79.2407 -80.8258 -88.7811 79.0358 
-75.8604 -88.1079 80.7458 -76.8154 -87.9284 81.242 -77.9312 -88.1091 81.3201 
-78.6948 -88.7123 80.8126 -79.3168 -89.3657 80.2989 -80.1413 -89.8323 80.1219 
[...]
POINT_DATA 1002
FIELD FieldData 2
Theta 1 1002 float
2.58802 2.58802 0.553574 0.553574 2.12437 1.01722 2.12437 1.01722 1.5708 
1.5708 1.5708 1.5708 2.68241 2.78649 2.89924 3.01861 3.14159 3.01861 
2.89924 2.78649 2.68241 2.61035 2.61791 2.60515 2.56958 2.51327 2.44184 
2.36202 2.27983 2.1997 2.61035 2.61791 2.60515 2.56958 2.51327 2.44184 
2.36202 2.27983 2.1997 2.50947 2.41899 2.31794 2.20864 2.0944 1.97902 
1.86631 1.75944 1.66056 2.50947 2.41899 2.31794 2.20864 2.0944 1.97902 
1.86631 1.75944 1.66056 2.61035 2.61791 2.60515 2.56958 2.51327 2.44184 
2.36202 2.27983 2.1997 2.61035 2.61791 2.60515 2.56958 2.51327 2.44184 
2.36202 2.27983 2.1997 2.50947 2.41899 2.31794 2.20864 2.0944 1.97902 
1.86631 1.75944 1.66056 2.50947 2.41899 2.31794 2.20864 2.0944 1.97902 
1.86631 1.75944 1.66056 0.459179 0.355101 0.242354 0.122983 0 0.122983 
0.242354 0.355101 0.459179 0.531246 0.523681 0.536438 0.57201 0.628319 0.699757 
0.779574 0.86176 0.941896 0.531246 0.523681 0.536438 0.57201 0.628319 0.699757 
0.779574 0.86176 0.941896 0.632123 0.7226 0.823657 0.932948 1.0472 1.16257 
1.27528 1.38216 1.48103 0.632123 0.7226 0.823657 0.932948 1.0472 1.16257 
1.27528 1.38216 1.48103 0.531246 0.523681 0.536438 0.57201 0.628319 0.699757 
0.779574 0.86176 0.941896 0.531246 0.523681 0.536438 0.57201 0.628319 0.699757 
0.779574 0.86176 0.941896 0.632123 0.7226 0.823657 0.932948 1.0472 1.16257 
1.27528 1.38216 1.48103 0.632123 0.7226 0.823657 0.932948 1.0472 1.16257 
1.27528 1.38216 1.48103 2.02998 1.9259 1.81315 1.69378 1.5708 1.44781 
1.32844 1.2157 1.11162 2.0928 2.05283 2.00422 1.94767 1.88496 1.81867 
1.75177 1.68695 1.62623 2.0928 2.05283 2.00422 1.94767 1.88496 1.81867 
1.75177 1.68695 1.62623 1.0488 1.08876 1.13737 1.19392 1.25664 1.32292 
1.38982 1.45464 1.51537 1.0488 1.08876 1.13737 1.19392 1.25664 1.32292 
1.38982 1.45464 1.51537 2.02998 1.9259 1.81315 1.69378 1.5708 1.44781 
1.32844 1.2157 1.11162 2.0928 2.05283 2.00422 1.94767 1.88496 1.81867 
1.75177 1.68695 1.62623 2.0928 2.05283 2.00422 1.94767 1.88496 1.81867 
1.75177 1.68695 1.62623 1.0488 1.08876 1.13737 1.19392 1.25664 1.32292 
1.38982 1.45464 1.51537 1.0488 1.08876 1.13737 1.19392 1.25664 1.32292 
1.38982 1.45464 1.51537 1.5708 1.5708 1.5708 1.5708 1.5708 1.5708 
1.5708 1.5708 1.5708 1.5708 1.5708 1.5708 1.5708 1.5708 1.5708 
1.5708 1.5708 1.5708 2.70908 2.71362 2.81592 2.68886 2.81002 2.92597 
2.6349 2.76254 2.89233 3.01997 2.55881 2.68262 2.80854 2.92834 3.01997 
2.47007 2.58462 2.70048 2.80854 2.89233 2.92597 2.37702 2.48017 2.58462 
2.68262 2.76254 2.81002 2.81592 2.28567 2.37702 2.47007 2.55881 2.6349 
2.68886 2.71362 2.70908 2.52097 2.4195 2.51718 2.30791 2.40503 2.49426 
2.18928 2.28408 2.3734 2.45144 2.06758 2.15805 2.24572 2.32523 2.39165 
1.94707 2.03138 2.11543 2.19453 2.26401 2.32035 1.83164 1.90847 1.98711 
2.06376 2.13422 2.1949 2.24359 1.72413 1.79288 1.86489 1.93728 2.00658 
2.06938 2.12312 2.16654 1.5708 1.50988 1.63171 1.44492 1.5708 1.69667 
1.37826 1.5059 1.63569 1.76333 1.31281 1.43962 1.5708 1.70197 1.82878 
1.25155 1.37501 1.50478 1.63681 1.76659 1.89004 1.19686 1.31493 1.44074 
1.5708 1.70086 1.82666 1.94473 1.15011 1.26149 1.38136 1.50697 1.63462 
1.76024 1.88011 1.99148 1.99148 1.88011 1.94473 1.76024 1.82666 1.89004 
1.63462 1.70086 1.76659 1.82878 1.50697 1.5708 1.63681 1.70197 1.76333 
1.38136 1.44074 1.50478 1.5708 1.63569 1.69667 1.26149 1.31493 1.37501 
1.43962 1.5059 1.5708 1.63171 1.15011 1.19686 1.25155 1.31281 1.37826 
1.44492 1.50988 1.5708 2.16654 2.12312 2.24359 2.06938 2.1949 2.32035 
2.00658 2.13422 2.26401 2.39165 1.93728 2.06376 2.19453 2.32523 2.45144 
1.86489 1.98711 2.11543 2.24572 2.3734 2.49426 1.79288 1.90847 2.03138 
2.15805 2.28408 2.40503 2.51718 1.72413 1.83164 1.94707 2.06758 2.18928 
2.30791 2.4195 2.52097 1.66533 1.66946 1.76911 1.67254 1.777 1.88041 
1.67418 1.78222 1.89102 1.99634 1.67418 1.78405 1.89674 2.00785 2.11299 
1.67254 1.78222 1.89674 2.01191 2.12307 2.22608 1.66946 1.777 1.89102 
2.00785 2.12307 2.23222 2.33166 1.66533 1.76911 1.88041 1.99634 2.11299 
2.22608 2.33166 2.42672 1.47626 1.37249 1.47213 1.26118 1.36459 1.46906 
1.14526 1.25058 1.35938 1.46741 1.0286 1.13374 1.24485 1.35755 1.46741 
0.915514 1.01852 1.12969 1.24485 1.35938 1.46906 0.809937 0.909371 1.01852 
1.13374 1.25058 1.36459 1.47213 0.714871 0.809937 0.915514 1.0286 1.14526 
1.26118 1.37249 1.47626 0.975055 0.898002 1.01847 0.821245 0.946693 1.07221 
0.749941 0.877585 1.00737 1.13501 0.690152 0.816367 0.94706 1.07784 1.20431 
0.647337 0.768195 0.895868 1.02616 1.15448 1.2767 0.624416 0.736561 0.857515 
0.983547 1.11021 1.23313 1.34871 0.620619 0.722093 0.833684 0.952313 1.07402 
1.19452 1.30996 1.41746 0.855925 0.764569 0.764569 0.671524 0.661425 0.671524 
0.582786 0.556971 0.556971 0.582786 0.506696 0.458968 0.441109 0.458968 0.506696 
0.45273 0.379052 0.333054 0.333054 0.379052 0.45273 0.427969 0.331576 0.249267 
0.21325 0.249267 0.331576 0.427969 0.432512 0.325669 0.215619 0.121622 0.121622 
0.215619 0.325669 0.432512 0.432512 0.427969 0.325669 0.45273 0.331576 0.215619 
0.506696 0.379052 0.249267 0.121622 0.582786 0.458968 0.333054 0.21325 0.121622 
0.671524 0.556971 0.441109 0.333054 0.249267 0.215619 0.764569 0.661425 0.556971 
0.458968 0.379052 0.331576 0.325669 0.855925 0.764569 0.671524 0.582786 0.506696 
0.45273 0.427969 0.432512 0.975055 1.01847 0.898002 1.07221 0.946693 0.821245 
1.13501 1.00737 0.877585 0.749941 1.20431 1.07784 0.94706 0.816367 0.690152 
1.2767 1.15448 1.02616 0.895868 0.768195 0.647337 1.34871 1.23313 1.11021 
0.983547 0.857515 0.736561 0.624416 1.41746 1.30996 1.19452 1.07402 0.952313 
0.833684 0.722093 0.620619 1.15011 1.26149 1.19686 1.38136 1.31493 1.25155 
1.50697 1.44074 1.37501 1.31281 1.63462 1.5708 1.50478 1.43962 1.37826 
1.76024 1.70086 1.63681 1.5708 1.5059 1.44492 1.88011 1.82666 1.76659 
1.70197 1.63569 1.5708 1.50988 1.99148 1.94473 1.89004 1.82878 1.76333 
1.69667 1.63171 1.5708 1.15011 1.19686 1.26149 1.25155 1.31493 1.38136 
1.31281 1.37501 1.44074 1.50697 1.37826 1.43962 1.50478 1.5708 1.63462 
1.44492 1.5059 1.5708 1.63681 1.70086 1.76024 1.50988 1.5708 1.63569 
1.70197 1.76659 1.82666 1.88011 1.5708 1.63171 1.69667 1.76333 1.82878 
1.89004 1.94473 1.99148 1.72413 1.83164 1.79288 1.94707 1.90847 1.86489 
2.06758 2.03138 1.98711 1.93728 2.18928 2.15805 2.11543 2.06376 2.00658 
2.30791 2.28408 2.24572 2.19453 2.13422 2.06938 2.4195 2.40503 2.3734 
2.32523 2.26401 2.1949 2.12312 2.52097 2.51718 2.49426 2.45144 2.39165 
2.32035 2.24359 2.16654 2.70908 2.81592 2.71362 2.92597 2.81002 2.68886 
3.01997 2.89233 2.76254 2.6349 3.01997 2.92834 2.80854 2.68262 2.55881 
2.92597 2.89233 2.80854 2.70048 2.58462 2.47007 2.81592 2.81002 2.76254 
2.68262 2.58462 2.48017 2.37702 2.70908 2.71362 2.68886 2.6349 2.55881 
2.47007 2.37702 2.28567 2.16654 2.24359 2.12312 2.32035 2.1949 2.06938 
2.39165 2.26401 2.13422 2.00658 2.45144 2.32523 2.19453 2.06376 1.93728 
2.49426 2.3734 2.24572 2.11543 1.98711 1.86489 2.51718 2.40503 2.28408 
2.15805 2.03138 1.90847 1.79288 2.52097 2.4195 2.30791 2.18928 2.06758 
1.94707 1.83164 1.72413 1.66533 1.76911 1.66946 1.88041 1.777 1.67254 
1.99634 1.89102 1.78222 1.67418 2.11299 2.00785 1.89674 1.78405 1.67418 
2.22608 2.12307 2.01191 1.89674 1.78222 1.67254 2.33166 2.23222 2.12307 
2.00785 1.89102 1.777 1.66946 2.42672 2.33166 2.22608 2.11299 1.99634 
1.88041 1.76911 1.66533 1.47626 1.47213 1.37249 1.46906 1.36459 1.26118 
1.46741 1.35938 1.25058 1.14526 1.46741 1.35755 1.24485 1.13374 1.0286 
1.46906 1.35938 1.24485 1.12969 1.01852 0.915514 1.47213 1.36459 1.25058 
1.13374 1.01852 0.909371 0.809937 1.47626 1.37249 1.26118 1.14526 1.0286 
0.915514 0.809937 0.714871 1.41746 1.30996 1.34871 1.19452 1.23313 1.2767 
1.07402 1.11021 1.15448 1.20431 0.952313 0.983547 1.02616 1.07784 1.13501 
0.833684 0.857515 0.895868 0.94706 1.00737 1.07221 0.722093 0.736561 0.768195 
0.816367 0.877585 0.946693 1.01847 0.620619 0.624416 0.647337 0.690152 0.749941 
0.821245 0.898002 0.975055 0.975055 0.898002 1.01847 0.821245 0.946693 1.07221 
0.749941 0.877585 1.00737 1.13501 0.690152 0.816367 0.94706 1.07784 1.20431 
0.647337 0.768195 0.895868 1.02616 1.15448 1.2767 0.624416 0.736561 0.857515 
0.983547 1.11021 1.23313 1.34871 0.620619 0.722093 0.833684 0.952313 1.07402 
1.19452 1.30996 1.41746 
Phi 1 1002 float
6.28319 3.14159 6.28319 3.14159 4.71239 4.71239 1.5708 1.5708 3.69517 
5.72961 2.58802 0.553574 6.28319 6.28319 6.28319 6.28319 3.14159 3.14159 
3.14159 3.14159 3.14159 6.1053 5.8988 5.67687 5.45995 5.26596 5.10322 
4.97131 4.86569 4.78095 0.177881 0.384387 0.606312 0.823235 1.01722 1.17997 
1.31187 1.4175 1.50223 6.18928 6.10703 6.03531 5.97283 5.91832 5.87061 
5.82869 5.79168 5.75886 0.0939024 0.176153 0.247873 0.310351 0.364864 0.412573 
0.454497 0.491504 0.524326 3.31947 3.52598 3.7479 3.96483 4.15881 4.32156 
4.45346 4.55909 4.64383 2.96371 2.75721 2.53528 2.31836 2.12437 1.96162 
1.82972 1.72409 1.63936 3.2355 3.31775 3.38947 3.45194 3.50646 3.55417 
3.59609 3.6331 3.66592 3.04769 2.96544 2.89372 2.83124 2.77673 2.72902 
2.6871 2.65009 2.61727 6.28319 6.28319 6.28319 6.28319 3.14159 3.14159 
3.14159 3.14159 3.14159 6.1053 5.8988 5.67687 5.45995 5.26596 5.10322 
4.97131 4.86569 4.78095 0.177881 0.384387 0.606312 0.823235 1.01722 1.17997 
1.31187 1.4175 1.50223 6.18928 6.10703 6.03531 5.97283 5.91832 5.87061 
5.82869 5.79168 5.75886 0.0939024 0.176153 0.247873 0.310351 0.364864 0.412573 
0.454497 0.491504 0.524326 3.31947 3.52598 3.7479 3.96483 4.15881 4.32156 
4.45346 4.55909 4.64383 2.96371 2.75721 2.53528 2.31836 2.12437 1.96162 
1.82972 1.72409 1.63936 3.2355 3.31775 3.38947 3.45194 3.50646 3.55417 
3.59609 3.6331 3.66592 3.04769 2.96544 2.89372 2.83124 2.77673 2.72902 
2.6871 2.65009 2.61727 4.71239 4.71239 4.71239 4.71239 4.71239 4.71239 
4.71239 4.71239 4.71239 4.60879 4.49914 4.3857 4.27128 4.15881 4.05096 
3.94976 3.85646 3.77161 4.81599 4.92564 5.03907 5.1535 5.26596 5.37381 
5.47502 5.56831 5.65317 4.60879 4.49914 4.3857 4.27128 4.15881 4.05096 
3.94976 3.85646 3.77161 4.81599 4.92564 5.03907 5.1535 5.26596 5.37381 
5.47502 5.56831 5.65317 1.5708 1.5708 1.5708 1.5708 1.5708 1.5708 
1.5708 1.5708 1.5708 1.6744 1.78405 1.89748 2.01191 2.12437 2.23222 
2.33343 2.42672 2.51157 1.4672 1.35755 1.24411 1.12969 1.01722 0.909371 
0.808166 0.714871 0.63002 1.6744 1.78405 1.89748 2.01191 2.12437 2.23222 
2.33343 2.42672 2.51157 1.4672 1.35755 1.24411 1.12969 1.01722 0.909371 
0.808166 0.714871 0.63002 3.60077 3.49669 3.38395 3.26458 3.14159 3.01861 
2.89924 2.78649 2.68241 5.82401 5.92808 6.04083 6.1602 6.28319 0.122983 
0.242354 0.355101 0.459179 6.05603 5.78856 5.97021 5.51259 5.60297 5.78856 
5.26596 5.26596 5.26596 5.26596 5.06749 5.0121 4.91556 4.71239 4.15881 
4.91556 4.83537 4.71239 4.50922 4.15881 3.63622 4.80045 4.71239 4.58941 
4.41268 4.15881 3.82181 3.45456 4.71239 4.62433 4.50922 4.35729 4.15881 
3.91219 3.63622 3.36875 6.01742 5.94343 5.82633 5.88092 5.76745 5.62798 
5.8278 5.71897 5.58911 5.43724 5.78235 5.67854 5.55757 5.41926 5.26596 
5.74316 5.64441 5.5315 5.40467 5.26596 5.11955 5.70914 5.61528 5.50962 
5.3926 5.26596 5.13292 4.99789 5.67937 5.59016 5.49102 5.38246 5.26596 
5.14407 5.02016 4.89798 5.56831 5.47502 5.47502 5.37381 5.37381 5.37381 
5.26596 5.26596 5.26596 5.26596 5.1535 5.1535 5.1535 5.1535 5.1535 
5.03907 5.03907 5.03907 5.03907 5.03907 5.03907 4.92564 4.92564 4.92564 
4.92564 4.92564 4.92564 4.92564 4.81599 4.81599 4.81599 4.81599 4.81599 
4.81599 4.81599 4.81599 4.60879 4.60879 4.49914 4.60879 4.49914 4.3857 
4.60879 4.49914 4.3857 4.27128 4.60879 4.49914 4.3857 4.27128 4.15881 
4.60879 4.49914 4.3857 4.27128 4.15881 4.05096 4.60879 4.49914 4.3857 
4.27128 4.15881 4.05096 3.94976 4.60879 4.49914 4.3857 4.27128 4.15881 
4.05096 3.94976 3.85646 4.5268 4.40462 4.42689 4.28071 4.29185 4.30523 
4.15881 4.15881 4.15881 4.15881 4.04232 4.03217 4.02011 4.00552 3.98753 
3.93376 3.91515 3.89328 3.86721 3.83566 3.7968 3.83461 3.8095 3.78037 
3.74624 3.70581 3.65733 3.59845 3.7454 3.71564 3.68161 3.64243 3.59698 
3.54386 3.48135 3.40735 3.56428 3.45246 3.52338 3.33203 3.40312 3.47739 
3.20576 3.27463 3.34802 3.42551 3.07742 3.14159 3.21128 3.28647 3.36688 
2.95116 3.00855 3.0719 3.14159 3.21784 3.3006 2.83072 2.88006 2.93517 
2.99672 3.06535 3.14159 3.22575 2.7189 2.7598 2.8058 2.85768 2.9163 
2.98259 3.05743 3.14159 3.56428 3.52338 3.45246 3.47739 3.40312 3.33203 
3.42551 3.34802 3.27463 3.20576 3.36688 3.28647 3.21128 3.14159 3.07742 
3.3006 3.21784 3.14159 3.0719 3.00855 2.95116 3.22575 3.14159 3.06535 
2.99672 2.93517 2.88006 2.83072 3.14159 3.05743 2.98259 2.9163 2.85768 
2.8058 2.7598 2.7189 4.5268 4.42689 4.40462 4.30523 4.29185 4.28071 
4.15881 4.15881 4.15881 4.15881 3.98753 4.00552 4.02011 4.03217 4.04232 
3.7968 3.83566 3.86721 3.89328 3.91515 3.93376 3.59845 3.65733 3.70581 
3.74624 3.78037 3.8095 3.83461 3.40735 3.48135 3.54386 3.59698 3.64243 
3.68161 3.71564 3.7454 4.71239 4.80045 4.62433 4.91556 4.71239 4.50922 
5.06749 4.83537 4.58941 4.35729 5.26596 5.0121 4.71239 4.41268 4.15881 
5.51259 5.26596 4.91556 4.50922 4.15881 3.91219 5.78856 5.60297 5.26596 
4.71239 4.15881 3.82181 3.63622 6.05603 5.97021 5.78856 5.26596 4.15881 
3.63622 3.45456 3.36875 0.227158 0.494626 0.312971 0.770593 0.680215 0.494626 
1.01722 1.01722 1.01722 1.01722 1.2157 1.27109 1.36763 1.5708 2.12437 
1.36763 1.44781 1.5708 1.77397 2.12437 2.64697 1.48273 1.5708 1.69378 
1.8705 2.12437 2.46138 2.82862 1.5708 1.65886 1.77397 1.9259 2.12437 
2.371 2.64697 2.91443 1.75639 1.87857 1.8563 2.00248 1.99133 1.97796 
2.12437 2.12437 2.12437 2.12437 2.24087 2.25101 2.26308 2.27767 2.29565 
2.34943 2.36803 2.38991 2.41597 2.44752 2.48639 2.44857 2.47368 2.50281 
2.53694 2.57738 2.62586 2.68474 2.53778 2.56754 2.60157 2.64076 2.68621 
2.73933 2.80184 2.87583 1.6744 1.6744 1.78405 1.6744 1.78405 1.89748 
1.6744 1.78405 1.89748 2.01191 1.6744 1.78405 1.89748 2.01191 2.12437 
1.6744 1.78405 1.89748 2.01191 2.12437 2.23222 1.6744 1.78405 1.89748 
2.01191 2.12437 2.23222 2.33343 1.6744 1.78405 1.89748 2.01191 2.12437 
2.23222 2.33343 2.42672 1.4672 1.35755 1.4672 1.24411 1.35755 1.4672 
1.12969 1.24411 1.35755 1.4672 1.01722 1.12969 1.24411 1.35755 1.4672 
0.909371 1.01722 1.12969 1.24411 1.35755 1.4672 0.808166 0.909371 1.01722 
1.12969 1.24411 1.35755 1.4672 0.714871 0.808166 0.909371 1.01722 1.12969 
1.24411 1.35755 1.4672 0.603812 0.57405 0.693022 0.540021 0.667908 0.792164 
0.500837 0.638778 0.773562 0.900726 0.455383 0.604649 0.751687 0.890581 1.01722 
0.402264 0.564217 0.725619 0.878514 1.01722 1.13912 0.339753 0.515737 0.694072 
0.863926 1.01722 1.15026 1.26302 0.265762 0.456853 0.655207 0.845941 1.01722 
1.16363 1.28529 1.38521 0.227158 0.312971 0.494626 0.494626 0.680215 0.770593 
1.01722 1.01722 1.01722 1.01722 2.12437 1.5708 1.36763 1.27109 1.2157 
2.64697 2.12437 1.77397 1.5708 1.44781 1.36763 2.82862 2.46138 2.12437 
1.8705 1.69378 1.5708 1.48273 2.91443 2.64697 2.371 2.12437 1.9259 
1.77397 1.65886 1.5708 1.75639 1.8563 1.87857 1.97796 1.99133 2.00248 
2.12437 2.12437 2.12437 2.12437 2.29565 2.27767 2.26308 2.25101 2.24087 
2.48639 2.44752 2.41597 2.38991 2.36803 2.34943 2.68474 2.62586 2.57738 
2.53694 2.50281 2.47368 2.44857 2.87583 2.80184 2.73933 2.68621 2.64076 
2.60157 2.56754 2.53778 5.86049 5.90139 5.97231 5.94739 6.02165 6.09275 
5.99927 6.07676 6.15015 6.21902 6.0579 6.13831 6.2135 0 0.0641696 
6.12418 6.20694 6.28319 0.069689 0.13304 0.190437 6.19903 0 0.0762451 
0.144876 0.206423 0.261531 0.310872 0 0.0841597 0.159004 0.225289 0.283913 
0.335793 0.381792 0.422692 5.86049 5.97231 5.90139 6.09275 6.02165 5.94739 
6.21902 6.15015 6.07676 5.99927 0.0641696 0 6.2135 6.13831 6.0579 
0.190437 0.13304 0.069689 6.28319 6.20694 6.12418 0.310872 0.261531 0.206423 
0.144876 0.0762451 6.28319 6.19903 0.422692 0.381792 0.335793 0.283913 0.225289 
0.159004 0.0841597 0 5.67937 5.70914 5.59016 5.74316 5.61528 5.49102 
5.78235 5.64441 5.50962 5.38246 5.8278 5.67854 5.5315 5.3926 5.26596 
5.88092 5.71897 5.55757 5.40467 5.26596 5.14407 5.94343 5.76745 5.58911 
5.41926 5.26596 5.13292 5.02016 6.01742 5.82633 5.62798 5.43724 5.26596 
5.11955 4.99789 4.89798 1.38521 1.28529 1.26302 1.16363 1.15026 1.13912 
1.01722 1.01722 1.01722 1.01722 0.845941 0.863926 0.878514 0.890581 0.900726 
0.655207 0.694072 0.725619 0.751687 0.773562 0.792164 0.456853 0.515737 0.564217 
0.604649 0.638778 0.667908 0.693022 0.265762 0.339753 0.402264 0.455383 0.500837 
0.540021 0.57405 0.603812 
