# vtk DataFile Version 4.0
vtk output
ASCII
DATASET POLYDATA
POINTS 1002 float
-85.4557 -93.4532 70.6336 -78.4378 -104.478 75.0939 -75.6915 -88.9877 71.4162 
-72.7519 -103.386 74.5439 -81.3229 -97.2745 81.1295 -75.7704 -94.5586 80.9081 
-79.659 -99.1797 66.6251 -73.8221 -97.87 67.1506 -75.2802 -108.956 81.6118 
-81.5549 -86.2027 74.3399 -73.2236 -112.623 69.0513 -82.8176 -87.3497 64.2214 
-84.5981 -94.0482 70.9356 -83.5777 -94.5844 71.4293 -82.6275 -95.3404 72.07 
-81.9517 -96.5821 72.7746 -81.3407 -98.1003 73.4884 -80.5092 -99.4432 74.1231 
-79.6462 -100.575 74.5706 -79.0291 -101.768 74.8481 -78.6542 -103.113 75.0237 
-84.9364 -93.5693 71.4735 -84.5269 -93.7353 72.6723 -84.2774 -93.9697 74.0842 
-84.0337 -94.4459 75.2879 -83.5719 -95.1269 76.1636 -82.9305 -95.6916 77.0539 
-82.3849 -96.0846 78.2023 -82.0614 -96.4824 79.4456 -81.7817 -96.8952 80.4682 
-85.4365 -93.8066 70.0437 -85.182 -94.2121 69.4762 -84.7969 -94.78 68.9906 
-84.3856 -95.4878 68.4473 -83.71 -96.054 67.7765 -82.716 -96.4752 67.2279 
-81.814 -97.0824 66.8824 -81.1243 -97.8689 66.6204 -80.4239 -98.585 66.5111 
-85.7694 -92.7236 70.8762 -85.8621 -91.825 71.1408 -85.698 -90.8694 71.444 
-85.2791 -89.8973 71.8616 -84.7889 -88.954 72.3749 -84.3096 -88.1248 72.8342 
-83.633 -87.4545 73.177 -82.7818 -86.9567 73.4924 -82.0603 -86.573 73.8762 
-86.2882 -92.9959 70.0845 -87.0737 -92.4989 69.3692 -87.4066 -91.8157 68.3388 
-86.9472 -90.9285 67.376 -86.0384 -90.1399 66.7295 -85.3794 -89.4834 65.9425 
-85.0339 -88.6826 64.9137 -84.5604 -87.8812 64.2207 -83.7722 -87.433 64.0855 
-78.6938 -103.979 75.7691 -78.9275 -103.354 76.5226 -79.2218 -102.717 77.3343 
-79.832 -102.337 78.0952 -80.6293 -102.156 78.7926 -81.0893 -101.646 79.5911 
-81.2057 -100.597 80.4222 -81.3109 -99.3701 80.9734 -81.3872 -98.262 81.1539 
-78.2636 -104.048 74.4479 -78.0765 -103.529 73.7762 -77.9217 -102.982 73.0322 
-77.8701 -102.448 72.1913 -78.0118 -101.934 71.2266 -78.3341 -101.467 70.2138 
-78.7139 -101.001 69.3012 -79.0775 -100.421 68.4311 -79.4074 -99.7654 67.5025 
-78.4311 -105.533 75.5405 -78.3694 -106.509 76.1403 -78.2072 -107.309 76.9914 
-77.902 -107.921 77.9999 -77.3986 -108.315 78.8664 -76.8 -108.562 79.5319 
-76.3043 -108.898 80.3003 -75.9092 -109.279 81.1699 -75.5492 -109.35 81.685 
-78.2085 -105.612 74.6274 -77.9493 -106.759 74.057 -77.4357 -107.758 73.5499 
-76.6825 -108.67 73.0994 -76.1138 -109.804 72.4478 -75.7414 -110.991 71.6081 
-75.1238 -111.674 70.8821 -74.3342 -111.926 70.3004 -73.7073 -112.221 69.6901 
-75.3979 -90.2333 71.8102 -74.9756 -91.5283 72.331 -74.2836 -92.7142 72.8885 
-73.5599 -93.8988 73.323 -73.0959 -95.338 73.5921 -72.8088 -97.0426 73.8873 
-72.6378 -98.7885 74.247 -72.6771 -100.45 74.4518 -72.7851 -102.002 74.4864 
-75.7076 -89.303 72.2197 -75.7145 -89.6603 73.1975 -75.6905 -90.0332 74.2932 
-75.7054 -90.5189 75.3236 -75.7561 -91.2114 76.2824 -75.7676 -91.9879 77.3033 
-75.7737 -92.651 78.3479 -75.8008 -93.2167 79.3261 -75.7944 -93.8334 80.2005 
-75.4822 -89.4608 70.87 -75.3248 -90.0931 70.2758 -75.2855 -90.9582 69.658 
-75.1808 -91.9322 69.1775 -74.9573 -92.9345 68.8503 -74.8643 -94.0488 68.5173 
-74.8088 -95.1752 68.1746 -74.5085 -96.1331 67.8436 -74.0951 -96.9831 67.4753 
-76.0196 -87.9755 71.6282 -76.4363 -86.9857 71.9542 -77.0284 -86.1864 72.2652 
-77.7509 -85.581 72.5836 -78.3965 -84.9929 73.091 -78.9998 -84.5147 73.7005 
-79.7918 -84.4719 74.1289 -80.6273 -84.8929 74.3052 -81.2059 -85.538 74.3355 
-76.0147 -88.1863 70.7373 -76.6133 -87.6287 69.9767 -77.3094 -87.2644 69.1276 
-77.981 -86.9267 68.2767 -78.8391 -86.6862 67.4822 -79.8449 -86.6517 66.6805 
-80.6265 -86.6791 65.8516 -81.2452 -86.7268 65.1154 -81.9923 -86.939 64.5748 
-72.8263 -102.519 75.3137 -73.0545 -101.674 76.0831 -73.3369 -100.875 76.7679 
-73.4131 -99.8858 77.6371 -73.5354 -98.7959 78.6166 -74.0676 -97.9664 79.1755 
-74.7141 -97.2651 79.444 -75.1617 -96.3945 79.9193 -75.4899 -95.4359 80.5029 
-72.7267 -103.305 73.8342 -72.4939 -102.933 73.2042 -72.0701 -102.272 72.4822 
-71.8643 -101.591 71.5409 -72.1527 -101.126 70.6322 -72.5928 -100.716 69.9526 
-72.8138 -100.072 69.2239 -72.9401 -99.2465 68.3338 -73.2519 -98.4843 67.5936 
-72.6506 -104.16 75.1832 -72.5889 -104.956 76.0186 -72.6437 -105.819 76.8386 
-72.8394 -106.721 77.4952 -73.2099 -107.523 78.2099 -73.696 -108.052 78.9602 
-74.1573 -108.315 79.4333 -74.5591 -108.549 79.8976 -74.9321 -108.833 80.7213 
-72.5783 -104.666 74.2404 -72.2808 -105.871 73.9654 -72.0791 -107.123 73.4849 
-72.1765 -108.614 72.7486 -72.2881 -110.184 71.9956 -72.0979 -111.632 71.2083 
-71.9481 -112.884 70.2338 -72.2054 -113.536 69.3905 -72.7103 -113.321 69.0372 
-80.8127 -96.874 81.401 -80.2557 -96.4581 81.7445 -79.7607 -96.1392 82.0988 
-79.2089 -95.8804 82.3398 -78.4713 -95.5151 82.5422 -77.6451 -95.0681 82.6501 
-76.8842 -94.7477 82.4171 -76.3028 -94.6066 81.935 -75.9572 -94.5558 81.4329 
-80.685 -98.3615 81.5634 -79.89 -99.6699 81.9102 -79.1613 -100.984 82.4352 
-78.4975 -102.076 83.0145 -77.7639 -103.06 83.197 -77.0382 -104.267 83.1044 
-76.4679 -105.724 83.1212 -76.0317 -107.115 83.0157 -75.6436 -108.195 82.4644 
-81.4767 -96.0675 80.6464 -81.4854 -94.8078 79.9533 -81.5217 -93.5452 79.1771 
-81.6934 -92.2486 78.4981 -81.8373 -90.8061 77.924 -81.8634 -89.4554 77.2886 
-81.832 -88.5091 76.4996 -81.7416 -87.7552 75.6568 -81.6268 -86.9467 74.9217 
-75.6372 -95.9345 81.2995 -75.5762 -97.3976 81.6429 -75.5462 -98.8421 81.9978 
-75.4721 -100.307 82.3467 -75.4198 -101.808 82.4794 -75.5104 -103.339 82.301 
-75.6193 -104.93 82.0465 -75.5505 -106.488 81.8982 -75.3724 -107.851 81.792 
-76.0434 -93.2421 80.775 -76.3908 -91.9743 80.537 -76.9316 -90.8249 80.1832 
-77.6505 -89.7206 79.6705 -78.3512 -88.6187 78.9718 -79.02 -87.6575 78.1068 
-79.777 -86.9691 77.1434 -80.5238 -86.5316 76.1585 -81.1082 -86.2884 75.2078 
-79.2346 -99.2113 66.3151 -78.702 -99.2589 66.0616 -78.138 -99.2511 65.8101 
-77.5355 -99.1048 65.7202 -76.812 -98.8865 65.9168 -76.0329 -98.7139 66.2117 
-75.3442 -98.5611 66.4418 -74.7432 -98.3558 66.6328 -74.2121 -98.1102 66.8457 
-78.7428 -100.203 67.3358 -77.8204 -101.592 67.8716 -76.9636 -103.322 68.02 
-76.2638 -105.206 67.9081 -75.7725 -107.113 67.7797 -75.3339 -108.858 67.7341 
-74.7771 -110.137 67.8541 -74.1646 -110.995 68.1787 -73.6284 -111.783 68.6043 
-80.3294 -98.316 65.7385 -80.9586 -97.3413 65.0362 -81.5582 -96.1578 64.4154 
-82.1474 -95.0071 63.7163 -82.5771 -94.0082 63.3201 -82.784 -92.7089 63.4917 
-82.9546 -90.9856 63.7668 -83.1088 -89.3991 63.8657 -83.0678 -88.2424 63.9842 
-73.3333 -99.3978 67.1708 -73.0676 -101.467 67.3494 -72.8616 -103.804 67.4356 
-72.6012 -105.923 67.0005 -72.4203 -107.641 66.2523 -72.3625 -109.113 65.9995 
-72.3981 -110.46 66.4978 -72.604 -111.595 67.3199 -72.9285 -112.326 68.1743 
-74.7162 -96.7537 66.9233 -75.5906 -95.5119 66.4419 -76.2953 -94.0577 65.7151 
-77.1595 -92.7028 65.1568 -78.2444 -91.6566 64.8804 -79.144 -90.6356 64.5104 
-79.9276 -89.5394 64.1154 -80.9042 -88.6206 64.0501 -81.9429 -87.9301 64.1756 
-75.1176 -109.995 80.8771 -75.0679 -111.017 79.9918 -74.9622 -111.78 78.7654 
-74.6973 -112.348 77.224 -74.4497 -113.075 75.6529 -74.2374 -113.771 74.148 
-73.8699 -113.934 72.6393 -73.4548 -113.63 71.2141 -73.2375 -113.168 70.0061 
-81.8124 -85.8738 73.4569 -82.1441 -85.6244 72.4286 -82.5152 -85.2447 71.2629 
-82.9095 -84.8987 70.0547 -83.3718 -84.9024 68.7737 -83.7347 -85.0012 67.2843 
-83.7101 -85.0812 65.8299 -83.3967 -85.5618 64.8678 -83.0869 -86.4463 64.4292 
-84.093 -94.179 71.9952 -83.678 -94.3119 73.2573 -83.1299 -94.7771 72.6135 
-83.4096 -94.6814 74.5004 -82.7818 -95.076 73.7451 -82.3454 -95.7874 73.2361 
-83.1498 -95.4683 75.6711 -82.5529 -95.7655 74.893 -82.138 -96.4789 74.271 
-81.806 -97.3611 73.8839 -82.7472 -96.2945 76.8099 -82.3111 -96.7091 76.2614 
-81.9337 -97.4065 75.517 -81.5985 -98.2839 74.9871 -81.1195 -98.9574 74.5723 
-82.2968 -96.8311 77.9631 -81.9891 -97.4831 77.5806 -81.7 -98.2973 76.9211 
-81.35 -99.1617 76.2714 -80.806 -99.7513 75.7347 -80.2062 -100.159 75.1438 
-81.9822 -97.2822 79.2175 -81.6972 -98.1304 78.7808 -81.4839 -99.1305 78.11 
-81.2166 -100.029 77.4443 -80.6169 -100.509 76.8947 -79.9492 -100.816 76.2322 
-79.4512 -101.256 75.4825 -81.7581 -97.7891 80.3845 -81.5236 -98.7988 80.0054 
-81.3369 -99.9633 79.278 -81.1725 -100.949 78.4753 -80.6261 -101.384 77.8624 
-79.8597 -101.564 77.2409 -79.3294 -101.97 76.446 -78.9857 -102.56 75.667 
-85.2656 -92.8938 71.7695 -85.4198 -92.036 72.1462 -84.96 -93.149 73.164 
-85.2898 -91.0037 72.6347 -85.1375 -92.2714 73.6884 -84.7421 -93.4216 74.6965 
-84.921 -89.9033 73.2134 -84.9387 -91.1165 74.1528 -84.7715 -92.4304 75.0956 
-84.3029 -93.7949 75.7193 -84.5128 -88.9491 73.7255 -84.5464 -90.0157 74.54 
-84.4008 -91.2562 75.2992 -84.056 -92.6607 75.9376 -83.5157 -94.2616 76.4334 
-83.9557 -88.2132 74.0518 -84.0541 -89.1715 74.8552 -83.8843 -90.3246 75.5155 
-83.5512 -91.595 76.1859 -83.0815 -93.0933 76.8156 -82.672 -94.7317 77.4378 
-83.1051 -87.669 74.277 -83.3059 -88.5205 75.1178 -83.2361 -89.5688 75.8327 
-83.0173 -90.8212 76.5195 -82.6465 -92.1953 77.2554 -82.2549 -93.7151 77.9456 
-82.1173 -95.2256 78.6658 -82.2456 -87.2842 74.5485 -82.4395 -88.0686 75.3703 
-82.4886 -88.9281 76.1896 -82.4382 -90.0864 76.9057 -82.2868 -91.5063 77.5824 
-81.9757 -92.9381 78.2692 -81.7828 -94.3504 79.0019 -81.8153 -95.6937 79.7786 
-81.158 -87.1946 75.8549 -80.5622 -87.4837 76.8873 -81.238 -88.0552 76.6534 
-79.8359 -87.9013 77.9718 -80.6453 -88.4145 77.7211 -81.3035 -88.9239 77.5261 
-79.1446 -88.617 79.069 -79.9555 -89.0091 78.8188 -80.6448 -89.5911 78.5532 
-81.2679 -90.1642 78.2875 -78.4574 -89.5568 80.087 -79.3047 -89.8187 79.9454 
-79.9019 -90.4351 79.5636 -80.4657 -91.0575 79.2717 -81.1541 -91.6427 78.8926 
-77.595 -90.5524 80.8405 -78.5438 -90.6555 80.9887 -79.2739 -91.2212 80.5965 
-79.7515 -91.8645 80.2564 -80.4033 -92.382 79.9868 -81.0973 -92.9407 79.554 
-76.7677 -91.702 81.2205 -77.5697 -91.6648 81.6745 -78.5237 -92.0783 81.5516 
-79.2413 -92.7016 81.1997 -79.8791 -93.1601 81.0449 -80.5709 -93.5759 80.7899 
[...]
POINT_DATA 1002
FIELD FieldData 2
Theta 1 1002 float
2.58802 2.58802 0.553574 0.553574 2.12437 1.01722 2.12437 1.01722 1.5708 
1.5708 1.5708 1.5708 2.68241 2.78649 2.89924 3.01861 3.14159 3.01861 
2.89924 2.78649 2.68241 2.61035 2.61791 2.60515 2.56958 2.51327 2.44184 
2.36202 2.27983 2.1997 2.61035 2.61791 2.60515 2.56958 2.51327 2.44184 
2.36202 2.27983 2.1997 2.50947 2.41899 2.31794 2.20864 2.0944 1.97902 
1.86631 1.75944 1.66056 2.50947 2.41899 2.31794 2.20864 2.0944 1.97902 
1.86631 1.75944 1.66056 2.61035 2.61791 2.60515 2.56958 2.51327 2.44184 
2.36202 2.27983 2.1997 2.61035 2.61791 2.60515 2.56958 2.51327 2.44184 
2.36202 2.27983 2.1997 2.50947 2.41899 2.31794 2.20864 2.0944 1.97902 
1.86631 1.75944 1.66056 2.50947 2.41899 2.31794 2.20864 2.0944 1.97902 
1.86631 1.75944 1.66056 0.459179 0.355101 0.242354 0.122983 0 0.122983 
0.242354 0.355101 0.459179 0.531246 0.523681 0.536438 0.57201 0.628319 0.699757 
0.779574 0.86176 0.941896 0.531246 0.523681 0.536438 0.57201 0.628319 0.699757 
0.779574 0.86176 0.941896 0.632123 0.7226 0.823657 0.932948 1.0472 1.16257 
1.27528 1.38216 1.48103 0.632123 0.7226 0.823657 0.932948 1.0472 1.16257 
1.27528 1.38216 1.48103 0.531246 0.523681 0.536438 0.57201 0.628319 0.699757 
0.779574 0.86176 0.941896 0.531246 0.523681 0.536438 0.57201 0.628319 0.699757 
0.779574 0.86176 0.941896 0.632123 0.7226 0.823657 0.932948 1.0472 1.16257 
1.27528 1.38216 1.48103 0.632123 0.7226 0.823657 0.932948 1.0472 1.16257 
1.27528 1.38216 1.48103 2.02998 1.9259 1.81315 1.69378 1.5708 1.44781 
1.32844 1.2157 1.11162 2.0928 2.05283 2.00422 1.94767 1.88496 1.81867 
1.75177 1.68695 1.62623 2.0928 2.05283 2.00422 1.94767 1.88496 1.81867 
1.75177 1.68695 1.62623 1.0488 1.08876 1.13737 1.19392 1.25664 1.32292 
1.38982 1.45464 1.51537 1.0488 1.08876 1.13737 1.19392 1.25664 1.32292 
1.38982 1.45464 1.51537 2.02998 1.9259 1.81315 1.69378 1.5708 1.44781 
1.32844 1.2157 1.11162 2.0928 2.05283 2.00422 1.94767 1.88496 1.81867 
1.75177 1.68695 1.62623 2.0928 2.05283 2.00422 1.94767 1.88496 1.81867 
1.75177 1.68695 1.62623 1.0488 1.08876 1.13737 1.19392 1.25664 1.32292 
1.38982 1.45464 1.51537 1.0488 1.08876 1.13737 1.19392 1.25664 1.32292 
1.38982 1.45464 1.51537 1.5708 1.5708 1.5708 1.5708 1.5708 1.5708 
1.5708 1.5708 1.5708 1.5708 1.5708 1.5708 1.5708 1.5708 1.5708 
1.5708 1.5708 1.5708 2.70908 2.71362 2.81592 2.68886 2.81002 2.92597 
2.6349 2.76254 2.89233 3.01997 2.55881 2.68262 2.80854 2.92834 3.01997 
2.47007 2.58462 2.70048 2.80854 2.89233 2.92597 2.37702 2.48017 2.58462 
2.68262 2.76254 2.81002 2.81592 2.28567 2.37702 2.47007 2.55881 2.6349 
2.68886 2.71362 2.70908 2.52097 2.4195 2.51718 2.30791 2.40503 2.49426 
2.18928 2.28408 2.3734 2.45144 2.06758 2.15805 2.24572 2.32523 2.39165 
1.94707 2.03138 2.11543 2.19453 2.26401 2.32035 1.83164 1.90847 1.98711 
2.06376 2.13422 2.1949 2.24359 1.72413 1.79288 1.86489 1.93728 2.00658 
2.06938 2.12312 2.16654 1.5708 1.50988 1.63171 1.44492 1.5708 1.69667 
1.37826 1.5059 1.63569 1.76333 1.31281 1.43962 1.5708 1.70197 1.82878 
1.25155 1.37501 1.50478 1.63681 1.76659 1.89004 1.19686 1.31493 1.44074 
1.5708 1.70086 1.82666 1.94473 1.15011 1.26149 1.38136 1.50697 1.63462 
1.76024 1.88011 1.99148 1.99148 1.88011 1.94473 1.76024 1.82666 1.89004 
1.63462 1.70086 1.76659 1.82878 1.50697 1.5708 1.63681 1.70197 1.76333 
1.38136 1.44074 1.50478 1.5708 1.63569 1.69667 1.26149 1.31493 1.37501 
1.43962 1.5059 1.5708 1.63171 1.15011 1.19686 1.25155 1.31281 1.37826 
1.44492 1.50988 1.5708 2.16654 2.12312 2.24359 2.06938 2.1949 2.32035 
2.00658 2.13422 2.26401 2.39165 1.93728 2.06376 2.19453 2.32523 2.45144 
1.86489 1.98711 2.11543 2.24572 2.3734 2.49426 1.79288 1.90847 2.03138 
2.15805 2.28408 2.40503 2.51718 1.72413 1.83164 1.94707 2.06758 2.18928 
2.30791 2.4195 2.52097 1.66533 1.66946 1.76911 1.67254 1.777 1.88041 
1.67418 1.78222 1.89102 1.99634 1.67418 1.78405 1.89674 2.00785 2.11299 
1.67254 1.78222 1.89674 2.01191 2.12307 2.22608 1.66946 1.777 1.89102 
2.00785 2.12307 2.23222 2.33166 1.66533 1.76911 1.88041 1.99634 2.11299 
2.22608 2.33166 2.42672 1.47626 1.37249 1.47213 1.26118 1.36459 1.46906 
1.14526 1.25058 1.35938 1.46741 1.0286 1.13374 1.24485 1.35755 1.46741 
0.915514 1.01852 1.12969 1.24485 1.35938 1.46906 0.809937 0.909371 1.01852 
1.13374 1.25058 1.36459 1.47213 0.714871 0.809937 0.915514 1.0286 1.14526 
1.26118 1.37249 1.47626 0.975055 0.898002 1.01847 0.821245 0.946693 1.07221 
0.749941 0.877585 1.00737 1.13501 0.690152 0.816367 0.94706 1.07784 1.20431 
0.647337 0.768195 0.895868 1.02616 1.15448 1.2767 0.624416 0.736561 0.857515 
0.983547 1.11021 1.23313 1.34871 0.620619 0.722093 0.833684 0.952313 1.07402 
1.19452 1.30996 1.41746 0.855925 0.764569 0.764569 0.671524 0.661425 0.671524 
0.582786 0.556971 0.556971 0.582786 0.506696 0.458968 0.441109 0.458968 0.506696 
0.45273 0.379052 0.333054 0.333054 0.379052 0.45273 0.427969 0.331576 0.249267 
0.21325 0.249267 0.331576 0.427969 0.432512 0.325669 0.215619 0.121622 0.121622 
0.215619 0.325669 0.432512 0.432512 0.427969 0.325669 0.45273 0.331576 0.215619 
0.506696 0.379052 0.249267 0.121622 0.582786 0.458968 0.333054 0.21325 0.121622 
0.671524 0.556971 0.441109 0.333054 0.249267 0.215619 0.764569 0.661425 0.556971 
0.458968 0.379052 0.331576 0.325669 0.855925 0.764569 0.671524 0.582786 0.506696 
0.45273 0.427969 0.432512 0.975055 1.01847 0.898002 1.07221 0.946693 0.821245 
1.13501 1.00737 0.877585 0.749941 1.20431 1.07784 0.94706 0.816367 0.690152 
1.2767 1.15448 1.02616 0.895868 0.768195 0.647337 1.34871 1.23313 1.11021 
0.983547 0.857515 0.736561 0.624416 1.41746 1.30996 1.19452 1.07402 0.952313 
0.833684 0.722093 0.620619 1.15011 1.26149 1.19686 1.38136 1.31493 1.25155 
1.50697 1.44074 1.37501 1.31281 1.63462 1.5708 1.50478 1.43962 1.37826 
1.76024 1.70086 1.63681 1.5708 1.5059 1.44492 1.88011 1.82666 1.76659 
1.70197 1.63569 1.5708 1.50988 1.99148 1.94473 1.89004 1.82878 1.76333 
1.69667 1.63171 1.5708 1.15011 1.19686 1.26149 1.25155 1.31493 1.38136 
1.31281 1.37501 1.44074 1.50697 1.37826 1.43962 1.50478 1.5708 1.63462 
1.44492 1.5059 1.5708 1.63681 1.70086 1.76024 1.50988 1.5708 1.63569 
1.70197 1.76659 1.82666 1.88011 1.5708 1.63171 1.69667 1.76333 1.82878 
1.89004 1.94473 1.99148 1.72413 1.83164 1.79288 1.94707 1.90847 1.86489 
2.06758 2.03138 1.98711 1.93728 2.18928 2.15805 2.11543 2.06376 2.00658 
2.30791 2.28408 2.24572 2.19453 2.13422 2.06938 2.4195 2.40503 2.3734 
2.32523 2.26401 2.1949 2.12312 2.52097 2.51718 2.49426 2.45144 2.39165 
2.32035 2.24359 2.16654 2.70908 2.81592 2.71362 2.92597 2.81002 2.68886 
3.01997 2.89233 2.76254 2.6349 3.01997 2.92834 2.80854 2.68262 2.55881 
2.92597 2.89233 2.80854 2.70048 2.58462 2.47007 2.81592 2.81002 2.76254 
2.68262 2.58462 2.48017 2.37702 2.70908 2.71362 2.68886 2.6349 2.55881 
2.47007 2.37702 2.28567 2.16654 2.24359 2.12312 2.32035 2.1949 2.06938 
2.39165 2.26401 2.13422 2.00658 2.45144 2.32523 2.19453 2.06376 1.93728 
2.49426 2.3734 2.24572 2.11543 1.98711 1.86489 2.51718 2.40503 2.28408 
2.15805 2.03138 1.90847 1.79288 2.52097 2.4195 2.30791 2.18928 2.06758 
1.94707 1.83164 1.72413 1.66533 1.76911 1.66946 1.88041 1.777 1.67254 
1.99634 1.89102 1.78222 1.67418 2.11299 2.00785 1.89674 1.78405 1.67418 
2.22608 2.12307 2.01191 1.89674 1.78222 1.67254 2.33166 2.23222 2.12307 
2.00785 1.89102 1.777 1.66946 2.42672 2.33166 2.22608 2.11299 1.99634 
1.88041 1.76911 1.66533 1.47626 1.47213 1.37249 1.46906 1.36459 1.26118 
1.46741 1.35938 1.25058 1.14526 1.46741 1.35755 1.24485 1.13374 1.0286 
1.46906 1.35938 1.24485 1.12969 1.01852 0.915514 1.47213 1.36459 1.25058 
1.13374 1.01852 0.909371 0.809937 1.47626 1.37249 1.26118 1.14526 1.0286 
0.915514 0.809937 0.714871 1.41746 1.30996 1.34871 1.19452 1.23313 1.2767 
1.07402 1.11021 1.15448 1.20431 0.952313 0.983547 1.02616 1.07784 1.13501 
0.833684 0.857515 0.895868 0.94706 1.00737 1.07221 0.722093 0.736561 0.768195 
0.816367 0.877585 0.946693 1.01847 0.620619 0.624416 0.647337 0.690152 0.749941 
0.821245 0.898002 0.975055 0.975055 0.898002 1.01847 0.821245 0.946693 1.07221 
0.749941 0.877585 1.00737 1.13501 0.690152 0.816367 0.94706 1.07784 1.20431 
0.647337 0.768195 0.895868 1.02616 1.15448 1.2767 0.624416 0.736561 0.857515 
0.983547 1.11021 1.23313 1.34871 0.620619 0.722093 0.833684 0.952313 1.07402 
1.19452 1.30996 1.41746 
Phi 1 1002 float
6.28319 3.14159 6.28319 3.14159 4.71239 4.71239 1.5708 1.5708 3.69517 
5.72961 2.58802 0.553574 6.28319 6.28319 6.28319 6.28319 3.14159 3.14159 
3.14159 3.14159 3.14159 6.1053 5.8988 5.67687 5.45995 5.26596 5.10322 
4.97131 4.86569 4.78095 0.177881 0.384387 0.606312 0.823235 1.01722 1.17997 
1.31187 1.4175 1.50223 6.18928 6.10703 6.03531 5.97283 5.91832 5.87061 
5.82869 5.79168 5.75886 0.0939024 0.176153 0.247873 0.310351 0.364864 0.412573 
0.454497 0.491504 0.524326 3.31947 3.52598 3.7479 3.96483 4.15881 4.32156 
4.45346 4.55909 4.64383 2.96371 2.75721 2.53528 2.31836 2.12437 1.96162 
1.82972 1.72409 1.63936 3.2355 3.31775 3.38947 3.45194 3.50646 3.55417 
3.59609 3.6331 3.66592 3.04769 2.96544 2.89372 2.83124 2.77673 2.72902 
2.6871 2.65009 2.61727 6.28319 6.28319 6.28319 6.28319 3.14159 3.14159 
3.14159 3.14159 3.14159 6.1053 5.8988 5.67687 5.45995 5.26596 5.10322 
4.97131 4.86569 4.78095 0.177881 0.384387 0.606312 0.823235 1.01722 1.17997 
1.31187 1.4175 1.50223 6.18928 6.10703 6.03531 5.97283 5.91832 5.87061 
5.82869 5.79168 5.75886 0.0939024 0.176153 0.247873 0.310351 0.364864 0.412573 
0.454497 0.491504 0.524326 3.31947 3.52598 3.7479 3.96483 4.15881 4.32156 
4.45346 4.55909 4.64383 2.96371 2.75721 2.53528 2.31836 2.12437 1.96162 
1.82972 1.72409 1.63936 3.2355 3.31775 3.38947 3.45194 3.50646 3.55417 
3.59609 3.6331 3.66592 3.04769 2.96544 2.89372 2.83124 2.77673 2.72902 
2.6871 2.65009 2.61727 4.71239 4.71239 4.71239 4.71239 4.71239 4.71239 
4.71239 4.71239 4.71239 4.60879 4.49914 4.3857 4.27128 4.15881 4.05096 
3.94976 3.85646 3.77161 4.81599 4.92564 5.03907 5.1535 5.26596 5.37381 
5.47502 5.56831 5.65317 4.60879 4.49914 4.3857 4.27128 4.15881 4.05096 
3.94976 3.85646 3.77161 4.81599 4.92564 5.03907 5.1535 5.26596 5.37381 
5.47502 5.56831 5.65317 1.5708 1.5708 1.5708 1.5708 1.5708 1.5708 
1.5708 1.5708 1.5708 1.6744 1.78405 1.89748 2.01191 2.12437 2.23222 
2.33343 2.42672 2.51157 1.4672 1.35755 1.24411 1.12969 1.01722 0.909371 
0.808166 0.714871 0.63002 1.6744 1.78405 1.89748 2.01191 2.12437 2.23222 
2.33343 2.42672 2.51157 1.4672 1.35755 1.24411 1.12969 1.01722 0.909371 
0.808166 0.714871 0.63002 3.60077 3.49669 3.38395 3.26458 3.14159 3.01861 
2.89924 2.78649 2.68241 5.82401 5.92808 6.04083 6.1602 6.28319 0.122983 
0.242354 0.355101 0.459179 6.05603 5.78856 5.97021 5.51259 5.60297 5.78856 
5.26596 5.26596 5.26596 5.26596 5.06749 5.0121 4.91556 4.71239 4.15881 
4.91556 4.83537 4.71239 4.50922 4.15881 3.63622 4.80045 4.71239 4.58941 
4.41268 4.15881 3.82181 3.45456 4.71239 4.62433 4.50922 4.35729 4.15881 
3.91219 3.63622 3.36875 6.01742 5.94343 5.82633 5.88092 5.76745 5.62798 
5.8278 5.71897 5.58911 5.43724 5.78235 5.67854 5.55757 5.41926 5.26596 
5.74316 5.64441 5.5315 5.40467 5.26596 5.11955 5.70914 5.61528 5.50962 
5.3926 5.26596 5.13292 4.99789 5.67937 5.59016 5.49102 5.38246 5.26596 
5.14407 5.02016 4.89798 5.56831 5.47502 5.47502 5.37381 5.37381 5.37381 
5.26596 5.26596 5.26596 5.26596 5.1535 5.1535 5.1535 5.1535 5.1535 
5.03907 5.03907 5.03907 5.03907 5.03907 5.03907 4.92564 4.92564 4.92564 
4.92564 4.92564 4.92564 4.92564 4.81599 4.81599 4.81599 4.81599 4.81599 
4.81599 4.81599 4.81599 4.60879 4.60879 4.49914 4.60879 4.49914 4.3857 
4.60879 4.49914 4.3857 4.27128 4.60879 4.49914 4.3857 4.27128 4.15881 
4.60879 4.49914 4.3857 4.27128 4.15881 4.05096 4.60879 4.49914 4.3857 
4.27128 4.15881 4.05096 3.94976 4.60879 4.49914 4.3857 4.27128 4.15881 
4.05096 3.94976 3.85646 4.5268 4.40462 4.42689 4.28071 4.29185 4.30523 
4.15881 4.15881 4.15881 4.15881 4.04232 4.03217 4.02011 4.00552 3.98753 
3.93376 3.91515 3.89328 3.86721 3.83566 3.7968 3.83461 3.8095 3.78037 
3.74624 3.70581 3.65733 3.59845 3.7454 3.71564 3.68161 3.64243 3.59698 
3.54386 3.48135 3.40735 3.56428 3.45246 3.52338 3.33203 3.40312 3.47739 
3.20576 3.27463 3.34802 3.42551 3.07742 3.14159 3.21128 3.28647 3.36688 
2.95116 3.00855 3.0719 3.14159 3.21784 3.3006 2.83072 2.88006 2.93517 
2.99672 3.06535 3.14159 3.22575 2.7189 2.7598 2.8058 2.85768 2.9163 
2.98259 3.05743 3.14159 3.56428 3.52338 3.45246 3.47739 3.40312 3.33203 
3.42551 3.34802 3.27463 3.20576 3.36688 3.28647 3.21128 3.14159 3.07742 
3.3006 3.21784 3.14159 3.0719 3.00855 2.95116 3.22575 3.14159 3.06535 
2.99672 2.93517 2.88006 2.83072 3.14159 3.05743 2.98259 2.9163 2.85768 
2.8058 2.7598 2.7189 4.5268 4.42689 4.40462 4.30523 4.29185 4.28071 
4.15881 4.15881 4.15881 4.15881 3.98753 4.00552 4.02011 4.03217 4.04232 
3.7968 3.83566 3.86721 3.89328 3.91515 3.93376 3.59845 3.65733 3.70581 
3.74624 3.78037 3.8095 3.83461 3.40735 3.48135 3.54386 3.59698 3.64243 
3.68161 3.71564 3.7454 4.71239 4.80045 4.62433 4.91556 4.71239 4.50922 
5.06749 4.83537 4.58941 4.35729 5.26596 5.0121 4.71239 4.41268 4.15881 
5.51259 5.26596 4.91556 4.50922 4.15881 3.91219 5.78856 5.60297 5.26596 
4.71239 4.15881 3.82181 3.63622 6.05603 5.97021 5.78856 5.26596 4.15881 
3.63622 3.45456 3.36875 0.227158 0.494626 0.312971 0.770593 0.680215 0.494626 
1.01722 1.01722 1.01722 1.01722 1.2157 1.27109 1.36763 1.5708 2.12437 
1.36763 1.44781 1.5708 1.77397 2.12437 2.64697 1.48273 1.5708 1.69378 
1.8705 2.12437 2.46138 2.82862 1.5708 1.65886 1.77397 1.9259 2.12437 
2.371 2.64697 2.91443 1.75639 1.87857 1.8563 2.00248 1.99133 1.97796 
2.12437 2.12437 2.12437 2.12437 2.24087 2.25101 2.26308 2.27767 2.29565 
2.34943 2.36803 2.38991 2.41597 2.44752 2.48639 2.44857 2.47368 2.50281 
2.53694 2.57738 2.62586 2.68474 2.53778 2.56754 2.60157 2.64076 2.68621 
2.73933 2.80184 2.87583 1.6744 1.6744 1.78405 1.6744 1.78405 1.89748 
1.6744 1.78405 1.89748 2.01191 1.6744 1.78405 1.89748 2.01191 2.12437 
1.6744 1.78405 1.89748 2.01191 2.12437 2.23222 1.6744 1.78405 1.89748 
2.01191 2.12437 2.23222 2.33343 1.6744 1.78405 1.89748 2.01191 2.12437 
2.23222 2.33343 2.42672 1.4672 1.35755 1.4672 1.24411 1.35755 1.4672 
1.12969 1.24411 1.35755 1.4672 1.01722 1.12969 1.24411 1.35755 1.4672 
0.909371 1.01722 1.12969 1.24411 1.35755 1.4672 0.808166 0.909371 1.01722 
1.12969 1.24411 1.35755 1.4672 0.714871 0.808166 0.909371 1.01722 1.12969 
1.24411 1.35755 1.4672 0.603812 0.57405 0.693022 0.540021 0.667908 0.792164 
0.500837 0.638778 0.773562 0.900726 0.455383 0.604649 0.751687 0.890581 1.01722 
0.402264 0.564217 0.725619 0.878514 1.01722 1.13912 0.339753 0.515737 0.694072 
0.863926 1.01722 1.15026 1.26302 0.265762 0.456853 0.655207 0.845941 1.01722 
1.16363 1.28529 1.38521 0.227158 0.312971 0.494626 0.494626 0.680215 0.770593 
1.01722 1.01722 1.01722 1.01722 2.12437 1.5708 1.36763 1.27109 1.2157 
2.64697 2.12437 1.77397 1.5708 1.44781 1.36763 2.82862 2.46138 2.12437 
1.8705 1.69378 1.5708 1.48273 2.91443 2.64697 2.371 2.12437 1.9259 
1.77397 1.65886 1.5708 1.75639 1.8563 1.87857 1.97796 1.99133 2.00248 
2.12437 2.12437 2.12437 2.12437 2.29565 2.27767 2.26308 2.25101 2.24087 
2.48639 2.44752 2.41597 2.38991 2.36803 2.34943 2.68474 2.62586 2.57738 
2.53694 2.50281 2.47368 2.44857 2.87583 2.80184 2.73933 2.68621 2.64076 
2.60157 2.56754 2.53778 5.86049 5.90139 5.97231 5.94739 6.02165 6.09275 
5.99927 6.07676 6.15015 6.21902 6.0579 6.13831 6.2135 0 0.0641696 
6.12418 6.20694 6.28319 0.069689 0.13304 0.190437 6.19903 0 0.0762451 
0.144876 0.206423 0.261531 0.310872 0 0.0841597 0.159004 0.225289 0.283913 
0.335793 0.381792 0.422692 5.86049 5.97231 5.90139 6.09275 6.02165 5.94739 
6.21902 6.15015 6.07676 5.99927 0.0641696 0 6.2135 6.13831 6.0579 
0.190437 0.13304 0.069689 6.28319 6.20694 6.12418 0.310872 0.261531 0.206423 
0.144876 0.0762451 6.28319 6.19903 0.422692 0.381792 0.335793 0.283913 0.225289 
0.159004 0.0841597 0 5.67937 5.70914 5.59016 5.74316 5.61528 5.49102 
5.78235 5.64441 5.50962 5.38246 5.8278 5.67854 5.5315 5.3926 5.26596 
5.88092 5.71897 5.55757 5.40467 5.26596 5.14407 5.94343 5.76745 5.58911 
5.41926 5.26596 5.13292 5.02016 6.01742 5.82633 5.62798 5.43724 5.26596 
5.11955 4.99789 4.89798 1.38521 1.28529 1.26302 1.16363 1.15026 1.13912 
1.01722 1.01722 1.01722 1.01722 0.845941 0.863926 0.878514 0.890581 0.900726 
0.655207 0.694072 0.725619 0.751687 0.773562 0.792164 0.456853 0.515737 0.564217 
0.604649 0.638778 0.667908 0.693022 0.265762 0.339753 0.402264 0.455383 0.500837 
0.540021 0.57405 0.603812 
