# vtk DataFile Version 4.0
vtk output
ASCII
DATASET POLYDATA
POINTS 1002 float
-84.0761 -91.6253 68.8806 -77.4311 -105.502 74.9372 -74.2941 -87.402 69.5203 
-69.7096 -103.418 74.7993 -79.7334 -96.3578 79.375 -73.878 -93.681 79.4651 
-77.9637 -99.0161 66.6799 -72.6673 -99.0927 67.0915 -72.9167 -108.615 81.748 
-80.8315 -83.0503 71.4237 -71.5449 -113.971 69.3504 -81.6931 -85.9852 60.8881 
-83.1799 -92.3567 69.5182 -82.224 -93.3145 70.4161 -81.5508 -94.8409 71.4568 
-81.1362 -96.7148 72.3235 -80.5434 -98.3532 72.9763 -79.6993 -99.7175 73.6445 
-78.9851 -101.194 74.2409 -78.4947 -102.811 74.5586 -78.0059 -104.296 74.7257 
-83.9328 -91.8476 69.818 -83.6173 -91.9777 70.7478 -83.0918 -92.1099 71.7591 
-82.6097 -92.6337 73.135 -82.5047 -93.5544 74.8926 -82.5931 -94.2774 76.5392 
-82.2417 -94.643 77.5815 -81.3174 -95.0993 78.1069 -80.3535 -95.7627 78.6151 
-83.6847 -91.8221 68.3074 -83.3232 -92.1322 67.7957 -82.9409 -92.7968 67.3466 
-82.4285 -93.6906 66.9327 -81.7516 -94.507 66.6339 -80.8179 -95.1816 66.57 
-79.773 -95.9232 66.6404 -79.0212 -96.9343 66.642 -78.5373 -98.0709 66.6066 
-84.6803 -90.7725 68.9447 -84.9104 -89.4517 68.9709 -84.7058 -88.0417 68.8598 
-84.2869 -86.8692 68.7991 -83.8172 -85.8534 68.9674 -83.2432 -85.0061 69.2146 
-82.5903 -84.382 69.5337 -81.9874 -83.8151 70.1086 -81.4294 -83.3149 70.8206 
-84.5935 -90.9931 67.9275 -85.0921 -90.2775 66.8087 -85.5329 -89.431 65.4772 
-85.6227 -88.5501 64.1225 -85.2793 -87.8604 62.9535 -84.9106 -87.2732 61.875 
-84.585 -86.5992 60.9911 -83.8972 -86.0707 60.6427 -82.8085 -85.9092 60.7264 
-77.8704 -105.044 75.6067 -78.3648 -104.475 76.3025 -78.874 -103.801 76.979 
-79.3949 -103.102 77.708 -79.8675 -102.365 78.5042 -80.0359 -101.411 79.1126 
-79.8617 -100.182 79.3241 -79.6832 -98.8306 79.312 -79.6781 -97.5247 79.3243 
-77.3855 -105.209 74.1539 -77.2509 -104.77 73.4088 -77.031 -104.168 72.6835 
-76.9238 -103.521 71.8664 -76.9482 -102.827 70.9826 -76.9362 -101.961 70.1744 
-76.9883 -101.051 69.3672 -77.2691 -100.289 68.4299 -77.6597 -99.6363 67.4798 
-77.0891 -106.319 75.6422 -76.7569 -107.111 76.4516 -76.3883 -107.847 77.3219 
-75.9557 -108.513 78.2355 -75.5922 -109.127 79.1485 -75.3319 -109.666 80.0261 
-74.9009 -109.963 80.8316 -74.1656 -109.841 81.4277 -73.4062 -109.329 81.7132 
-76.7893 -106.466 74.7032 -76.2337 -107.667 74.3919 -75.8539 -109.205 73.9071 
-75.4468 -110.78 73.3923 -74.8078 -111.932 72.961 -74.0468 -112.632 72.3526 
-73.3771 -113.202 71.4975 -72.826 -113.715 70.6938 -72.2473 -113.986 70.0161 
-73.5306 -88.3367 69.996 -72.9268 -89.6704 70.5474 -72.413 -91.4135 71.2124 
-71.5799 -92.9951 71.9233 -70.6165 -94.3089 72.5771 -70.3229 -96.073 73.1533 
-70.539 -98.2921 73.6278 -70.4301 -100.266 74.0148 -69.9892 -101.886 74.4061 
-74.0607 -87.5811 70.4313 -73.9088 -87.9322 71.5458 -73.8804 -88.4784 72.6481 
-73.9115 -89.1454 73.5992 -73.8967 -89.8267 74.6645 -73.7936 -90.4263 76.0011 
-73.6769 -90.9855 77.2382 -73.6681 -91.7239 78.1057 -73.7651 -92.6952 78.7784 
-74.0084 -87.8251 69.0144 -73.6906 -88.4035 68.504 -73.4958 -89.2605 67.9937 
-73.3507 -90.2767 67.5246 -73.0665 -91.3916 67.106 -72.8055 -92.789 66.8387 
-72.7591 -94.3937 66.8678 -72.7799 -95.9607 67.0456 -72.7413 -97.5096 67.1236 
-74.8792 -86.4975 69.5492 -75.3657 -85.3264 69.5715 -75.8788 -84.1925 69.6576 
-76.5382 -83.353 69.8951 -77.2319 -82.5751 70.3462 -77.945 -81.8706 70.9395 
-78.7838 -81.7012 71.3514 -79.6177 -82.0576 71.4094 -80.2931 -82.5546 71.3578 
-74.9916 -86.7914 68.7343 -75.738 -86.0844 67.865 -76.438 -85.3546 66.798 
-77.1595 -84.8777 65.6076 -78.0342 -84.7118 64.5135 -78.9379 -84.6264 63.4673 
-79.6384 -84.6134 62.4086 -80.2245 -84.8714 61.6112 -80.9143 -85.3856 61.1835 
-70.0138 -102.604 75.3572 -70.3434 -101.598 76.0407 -70.6336 -100.453 76.7669 
-71.0635 -99.4747 77.2533 -71.6846 -98.6182 77.5847 -72.2386 -97.5775 78.0661 
-72.6132 -96.4436 78.6028 -72.9566 -95.4095 79.0018 -73.3818 -94.4799 79.2812 
-69.6216 -103.243 73.9728 -69.6792 -103.076 73.0141 -69.762 -102.888 71.9375 
-69.8223 -102.559 70.8238 -69.9892 -102.057 69.7836 -70.2728 -101.542 68.8648 
-70.6577 -101.093 68.1355 -71.257 -100.573 67.6827 -72.0002 -99.8864 67.4013 
-69.8307 -104.481 75.5064 -70.043 -105.5 76.1632 -70.2403 -106.424 76.8156 
-70.5373 -107.244 77.5434 -71.0042 -107.864 78.1931 -71.4691 -108.337 78.7591 
-71.8288 -108.735 79.5047 -72.1324 -108.895 80.4035 -72.4677 -108.792 81.1933 
-69.6218 -105.008 74.5983 -69.6978 -106.879 74.1418 -69.6376 -108.624 73.4666 
-69.4826 -109.957 72.787 -69.5964 -111.213 72.2024 -69.8352 -112.623 71.5011 
-69.9226 -113.786 70.5474 -70.164 -114.338 69.6816 -70.7919 -114.331 69.3002 
-79.44 -95.9637 79.9298 -79.004 -95.5864 80.352 -78.4316 -95.2521 80.6386 
-77.7932 -94.8524 80.9761 -77.0739 -94.4402 81.2439 -76.26 -94.2175 81.1558 
-75.455 -94.1225 80.8249 -74.785 -93.9846 80.4442 -74.2814 -93.8182 79.9864 
-79.3593 -97.5011 80.3575 -78.9559 -98.6659 81.4289 -78.122 -100 82.1921 
-77.0344 -101.424 82.6312 -76.2208 -102.693 83.0782 -75.5919 -103.898 83.4313 
-74.8507 -105.198 83.3361 -74.1045 -106.444 82.8912 -73.4653 -107.559 82.3528 
-80.1378 -94.8697 78.9003 -80.6594 -93.1233 78.4643 -81.0984 -91.2681 77.9985 
-81.1934 -89.7807 77.2344 -80.9679 -88.7064 76.006 -80.8451 -87.4414 74.7817 
-81.0064 -85.9084 73.9663 -81.1253 -84.6396 73.2126 -81.014 -83.7673 72.2779 
-73.692 -95.046 80.1672 -73.5343 -96.3774 80.9512 -73.3643 -97.7859 81.7584 
-73.1696 -99.3265 82.6008 -72.9826 -100.807 83.2353 -72.9212 -102.234 83.2768 
-73.0129 -103.8 82.8564 -73.0605 -105.466 82.4126 -72.9737 -107.108 82.077 
-74.4235 -92.3519 79.1371 -75.1064 -90.925 78.8081 -75.7789 -89.345 78.4535 
-76.3848 -87.7191 77.882 -77.0513 -86.3955 76.949 -77.8494 -85.4846 75.7758 
-78.7012 -84.7389 74.567 -79.5198 -84.0313 73.4348 -80.2404 -83.4457 72.4021 
-77.5541 -99.0667 66.3728 -76.9579 -99.0536 66.0897 -76.3538 -99.1683 65.7553 
-75.7634 -99.437 65.5404 -75.031 -99.6317 65.6924 -74.23 -99.7065 66.0465 
-73.6306 -99.8081 66.3046 -73.2675 -99.8167 66.5233 -72.9757 -99.5444 66.8088 
-76.9902 -100.271 67.2925 -75.9261 -101.949 67.7371 -75.3 -104.291 67.658 
-75.1461 -106.792 67.248 -74.7065 -108.664 67.1411 -73.7222 -109.928 67.4953 
-72.8173 -111.012 68.029 -72.2956 -112.032 68.5528 -71.9242 -113.023 68.978 
-78.5716 -97.8404 65.8598 -79.127 -96.4111 64.9603 -79.7763 -94.7457 63.8641 
-80.5539 -93.248 62.6157 -81.19 -92.1268 61.4644 -81.4965 -90.9642 60.552 
-81.6537 -89.5826 60.022 -81.8068 -88.279 60.054 -81.8466 -87.1134 60.4677 
-72.1385 -101.251 67.1723 -71.4791 -103.349 66.9127 -70.834 -105.023 66.1348 
-70.4195 -106.364 65.3292 -70.3136 -108.031 65.3522 -70.3241 -110.124 66.0295 
-70.3385 -111.795 66.6665 -70.5383 -112.686 67.3714 -71.0008 -113.303 68.3534 
-73.281 -97.1914 66.646 -73.9641 -95.1903 65.9655 -74.8911 -93.2486 64.9868 
-75.915 -91.5417 63.6976 -76.8254 -90.2552 62.4586 -77.8081 -89.3172 61.6586 
-78.9323 -88.4861 61.2028 -79.949 -87.6558 60.9203 -80.8256 -86.8151 60.8343 
-72.6527 -110.14 81.0251 -72.5106 -111.605 80.1865 -72.4589 -113.102 79.4483 
-72.3618 -114.656 78.7454 -72.1577 -115.586 77.5788 -71.9085 -115.612 75.6301 
-71.7337 -115.509 73.342 -71.6726 -115.437 71.4767 -71.6278 -114.895 70.2423 
-81.1173 -82.4143 70.3671 -81.511 -81.869 69.1836 -81.9391 -81.5644 67.7173 
-82.371 -81.41 66.082 -82.789 -81.4279 64.4731 -82.972 -81.8383 62.9829 
-82.7841 -82.5875 61.9053 -82.4244 -83.5621 61.3892 -82.0663 -84.7511 61.1383 
-83.0039 -92.768 70.5061 -82.8221 -93.1626 71.5045 -82.1557 -93.9753 71.4488 
-82.5834 -93.7273 72.7492 -82.2138 -94.7376 72.5491 -81.6755 -95.7125 72.4901 
-82.4062 -94.6452 74.4319 -82.1606 -95.6628 73.9874 -81.7703 -96.6394 73.6928 
-81.2731 -97.6067 73.3506 -82.4318 -95.4835 76.2017 -82.0708 -96.5909 75.6421 
-81.6407 -97.5597 75.1068 -81.1638 -98.4155 74.5889 -80.517 -99.1485 74.056 
-82.2324 -95.8809 77.4717 -82.0075 -97.195 77.0561 -81.625 -98.4192 76.4393 
-81.0519 -99.2842 75.8 -80.3312 -99.8876 75.2111 -79.5995 -100.499 74.7112 
-81.372 -96.2645 78.1064 -81.4481 -97.6395 77.983 -81.5044 -99.1461 77.5836 
-81.1846 -100.29 76.9187 -80.3826 -100.868 76.2296 -79.5182 -101.341 75.6846 
-78.9053 -102.03 75.1676 -80.3203 -96.9136 78.573 -80.4292 -98.2404 78.5921 
-80.7487 -99.7336 78.5176 -80.8822 -101.059 78.0734 -80.4097 -101.859 77.3187 
-79.5895 -102.35 76.6112 -78.8871 -102.94 76.0304 -78.3985 -103.648 75.4052 
-84.4405 -90.8317 69.9046 -84.4662 -89.5081 69.8827 -83.8525 -90.8147 70.8108 
-84.1251 -88.2913 69.7526 -83.7164 -89.6316 70.7456 -83.0595 -90.9221 71.8611 
-83.6444 -87.2 69.8158 -83.4273 -88.6225 70.7189 -82.9549 -89.8774 71.9023 
-82.5453 -91.4949 73.3663 -83.0495 -86.1507 70.0822 -82.9358 -87.5809 70.9601 
-82.7737 -88.9435 72.0953 -82.4887 -90.4039 73.5633 -82.489 -92.3541 75.1768 
-82.4388 -85.3818 70.3884 -82.267 -86.6572 71.2819 -82.2553 -88.09 72.414 
-82.2209 -89.4629 73.8429 -82.2615 -91.097 75.3593 -82.4323 -92.9883 76.703 
-81.9712 -84.7915 70.9218 -81.788 -85.9772 71.7363 -81.6591 -87.4347 72.7182 
-81.7161 -88.8228 74.0914 -81.8543 -90.101 75.5673 -82.0078 -91.6873 76.7904 
-81.8945 -93.4623 77.6345 -81.5526 -84.1878 71.6662 -81.5125 -85.267 72.4959 
-81.3072 -86.7144 73.2616 -81.2488 -88.2315 74.3553 -81.4397 -89.4062 75.7832 
-81.6001 -90.6254 76.9876 -81.4686 -92.2982 77.7564 -80.9866 -94.1128 78.2414 
-80.4363 -84.1747 73.3844 -79.6713 -84.9298 74.3888 -80.5035 -85.187 74.3268 
-78.8268 -85.839 75.4573 -79.7124 -86.1443 75.2802 -80.3717 -86.605 75.1259 
-77.9941 -86.5428 76.8352 -78.9258 -87.0254 76.4986 -79.6681 -87.4478 76.316 
-80.3498 -87.9763 76.2046 -77.183 -87.3508 78.2041 -78.1339 -87.6032 78.0621 
-78.9586 -88.1445 77.7414 -79.7276 -88.588 77.5958 -80.5565 -89.1122 77.4817 
-76.4127 -88.8654 78.9597 -77.2727 -88.7218 79.1663 -78.1581 -89.1004 78.9612 
-78.9263 -89.6333 78.6761 -79.7483 -90.0946 78.5121 -80.5478 -90.6254 78.3134 
-75.652 -90.7867 79.2382 -76.3852 -90.684 79.5525 -77.269 -90.8287 79.5891 
-78.0709 -91.2634 79.381 -78.7667 -91.7612 79.1423 -79.4898 -92.1863 78.9785 
[...]
POINT_DATA 1002
FIELD FieldData 2
Theta 1 1002 float
2.58802 2.58802 0.553574 0.553574 2.12437 1.01722 2.12437 1.01722 1.5708 
1.5708 1.5708 1.5708 2.68241 2.78649 2.89924 3.01861 3.14159 3.01861 
2.89924 2.78649 2.68241 2.61035 2.61791 2.60515 2.56958 2.51327 2.44184 
2.36202 2.27983 2.1997 2.61035 2.61791 2.60515 2.56958 2.51327 2.44184 
2.36202 2.27983 2.1997 2.50947 2.41899 2.31794 2.20864 2.0944 1.97902 
1.86631 1.75944 1.66056 2.50947 2.41899 2.31794 2.20864 2.0944 1.97902 
1.86631 1.75944 1.66056 2.61035 2.61791 2.60515 2.56958 2.51327 2.44184 
2.36202 2.27983 2.1997 2.61035 2.61791 2.60515 2.56958 2.51327 2.44184 
2.36202 2.27983 2.1997 2.50947 2.41899 2.31794 2.20864 2.0944 1.97902 
1.86631 1.75944 1.66056 2.50947 2.41899 2.31794 2.20864 2.0944 1.97902 
1.86631 1.75944 1.66056 0.459179 0.355101 0.242354 0.122983 0 0.122983 
0.242354 0.355101 0.459179 0.531246 0.523681 0.536438 0.57201 0.628319 0.699757 
0.779574 0.86176 0.941896 0.531246 0.523681 0.536438 0.57201 0.628319 0.699757 
0.779574 0.86176 0.941896 0.632123 0.7226 0.823657 0.932948 1.0472 1.16257 
1.27528 1.38216 1.48103 0.632123 0.7226 0.823657 0.932948 1.0472 1.16257 
1.27528 1.38216 1.48103 0.531246 0.523681 0.536438 0.57201 0.628319 0.699757 
0.779574 0.86176 0.941896 0.531246 0.523681 0.536438 0.57201 0.628319 0.699757 
0.779574 0.86176 0.941896 0.632123 0.7226 0.823657 0.932948 1.0472 1.16257 
1.27528 1.38216 1.48103 0.632123 0.7226 0.823657 0.932948 1.0472 1.16257 
1.27528 1.38216 1.48103 2.02998 1.9259 1.81315 1.69378 1.5708 1.44781 
1.32844 1.2157 1.11162 2.0928 2.05283 2.00422 1.94767 1.88496 1.81867 
1.75177 1.68695 1.62623 2.0928 2.05283 2.00422 1.94767 1.88496 1.81867 
1.75177 1.68695 1.62623 1.0488 1.08876 1.13737 1.19392 1.25664 1.32292 
1.38982 1.45464 1.51537 1.0488 1.08876 1.13737 1.19392 1.25664 1.32292 
1.38982 1.45464 1.51537 2.02998 1.9259 1.81315 1.69378 1.5708 1.44781 
1.32844 1.2157 1.11162 2.0928 2.05283 2.00422 1.94767 1.88496 1.81867 
1.75177 1.68695 1.62623 2.0928 2.05283 2.00422 1.94767 1.88496 1.81867 
1.75177 1.68695 1.62623 1.0488 1.08876 1.13737 1.19392 1.25664 1.32292 
1.38982 1.45464 1.51537 1.0488 1.08876 1.13737 1.19392 1.25664 1.32292 
1.38982 1.45464 1.51537 1.5708 1.5708 1.5708 1.5708 1.5708 1.5708 
1.5708 1.5708 1.5708 1.5708 1.5708 1.5708 1.5708 1.5708 1.5708 
1.5708 1.5708 1.5708 2.70908 2.71362 2.81592 2.68886 2.81002 2.92597 
2.6349 2.76254 2.89233 3.01997 2.55881 2.68262 2.80854 2.92834 3.01997 
2.47007 2.58462 2.70048 2.80854 2.89233 2.92597 2.37702 2.48017 2.58462 
2.68262 2.76254 2.81002 2.81592 2.28567 2.37702 2.47007 2.55881 2.6349 
2.68886 2.71362 2.70908 2.52097 2.4195 2.51718 2.30791 2.40503 2.49426 
2.18928 2.28408 2.3734 2.45144 2.06758 2.15805 2.24572 2.32523 2.39165 
1.94707 2.03138 2.11543 2.19453 2.26401 2.32035 1.83164 1.90847 1.98711 
2.06376 2.13422 2.1949 2.24359 1.72413 1.79288 1.86489 1.93728 2.00658 
2.06938 2.12312 2.16654 1.5708 1.50988 1.63171 1.44492 1.5708 1.69667 
1.37826 1.5059 1.63569 1.76333 1.31281 1.43962 1.5708 1.70197 1.82878 
1.25155 1.37501 1.50478 1.63681 1.76659 1.89004 1.19686 1.31493 1.44074 
1.5708 1.70086 1.82666 1.94473 1.15011 1.26149 1.38136 1.50697 1.63462 
1.76024 1.88011 1.99148 1.99148 1.88011 1.94473 1.76024 1.82666 1.89004 
1.63462 1.70086 1.76659 1.82878 1.50697 1.5708 1.63681 1.70197 1.76333 
1.38136 1.44074 1.50478 1.5708 1.63569 1.69667 1.26149 1.31493 1.37501 
1.43962 1.5059 1.5708 1.63171 1.15011 1.19686 1.25155 1.31281 1.37826 
1.44492 1.50988 1.5708 2.16654 2.12312 2.24359 2.06938 2.1949 2.32035 
2.00658 2.13422 2.26401 2.39165 1.93728 2.06376 2.19453 2.32523 2.45144 
1.86489 1.98711 2.11543 2.24572 2.3734 2.49426 1.79288 1.90847 2.03138 
2.15805 2.28408 2.40503 2.51718 1.72413 1.83164 1.94707 2.06758 2.18928 
2.30791 2.4195 2.52097 1.66533 1.66946 1.76911 1.67254 1.777 1.88041 
1.67418 1.78222 1.89102 1.99634 1.67418 1.78405 1.89674 2.00785 2.11299 
1.67254 1.78222 1.89674 2.01191 2.12307 2.22608 1.66946 1.777 1.89102 
2.00785 2.12307 2.23222 2.33166 1.66533 1.76911 1.88041 1.99634 2.11299 
2.22608 2.33166 2.42672 1.47626 1.37249 1.47213 1.26118 1.36459 1.46906 
1.14526 1.25058 1.35938 1.46741 1.0286 1.13374 1.24485 1.35755 1.46741 
0.915514 1.01852 1.12969 1.24485 1.35938 1.46906 0.809937 0.909371 1.01852 
1.13374 1.25058 1.36459 1.47213 0.714871 0.809937 0.915514 1.0286 1.14526 
1.26118 1.37249 1.47626 0.975055 0.898002 1.01847 0.821245 0.946693 1.07221 
0.749941 0.877585 1.00737 1.13501 0.690152 0.816367 0.94706 1.07784 1.20431 
0.647337 0.768195 0.895868 1.02616 1.15448 1.2767 0.624416 0.736561 0.857515 
0.983547 1.11021 1.23313 1.34871 0.620619 0.722093 0.833684 0.952313 1.07402 
1.19452 1.30996 1.41746 0.855925 0.764569 0.764569 0.671524 0.661425 0.671524 
0.582786 0.556971 0.556971 0.582786 0.506696 0.458968 0.441109 0.458968 0.506696 
0.45273 0.379052 0.333054 0.333054 0.379052 0.45273 0.427969 0.331576 0.249267 
0.21325 0.249267 0.331576 0.427969 0.432512 0.325669 0.215619 0.121622 0.121622 
0.215619 0.325669 0.432512 0.432512 0.427969 0.325669 0.45273 0.331576 0.215619 
0.506696 0.379052 0.249267 0.121622 0.582786 0.458968 0.333054 0.21325 0.121622 
0.671524 0.556971 0.441109 0.333054 0.249267 0.215619 0.764569 0.661425 0.556971 
0.458968 0.379052 0.331576 0.325669 0.855925 0.764569 0.671524 0.582786 0.506696 
0.45273 0.427969 0.432512 0.975055 1.01847 0.898002 1.07221 0.946693 0.821245 
1.13501 1.00737 0.877585 0.749941 1.20431 1.07784 0.94706 0.816367 0.690152 
1.2767 1.15448 1.02616 0.895868 0.768195 0.647337 1.34871 1.23313 1.11021 
0.983547 0.857515 0.736561 0.624416 1.41746 1.30996 1.19452 1.07402 0.952313 
0.833684 0.722093 0.620619 1.15011 1.26149 1.19686 1.38136 1.31493 1.25155 
1.50697 1.44074 1.37501 1.31281 1.63462 1.5708 1.50478 1.43962 1.37826 
1.76024 1.70086 1.63681 1.5708 1.5059 1.44492 1.88011 1.82666 1.76659 
1.70197 1.63569 1.5708 1.50988 1.99148 1.94473 1.89004 1.82878 1.76333 
1.69667 1.63171 1.5708 1.15011 1.19686 1.26149 1.25155 1.31493 1.38136 
1.31281 1.37501 1.44074 1.50697 1.37826 1.43962 1.50478 1.5708 1.63462 
1.44492 1.5059 1.5708 1.63681 1.70086 1.76024 1.50988 1.5708 1.63569 
1.70197 1.76659 1.82666 1.88011 1.5708 1.63171 1.69667 1.76333 1.82878 
1.89004 1.94473 1.99148 1.72413 1.83164 1.79288 1.94707 1.90847 1.86489 
2.06758 2.03138 1.98711 1.93728 2.18928 2.15805 2.11543 2.06376 2.00658 
2.30791 2.28408 2.24572 2.19453 2.13422 2.06938 2.4195 2.40503 2.3734 
2.32523 2.26401 2.1949 2.12312 2.52097 2.51718 2.49426 2.45144 2.39165 
2.32035 2.24359 2.16654 2.70908 2.81592 2.71362 2.92597 2.81002 2.68886 
3.01997 2.89233 2.76254 2.6349 3.01997 2.92834 2.80854 2.68262 2.55881 
2.92597 2.89233 2.80854 2.70048 2.58462 2.47007 2.81592 2.81002 2.76254 
2.68262 2.58462 2.48017 2.37702 2.70908 2.71362 2.68886 2.6349 2.55881 
2.47007 2.37702 2.28567 2.16654 2.24359 2.12312 2.32035 2.1949 2.06938 
2.39165 2.26401 2.13422 2.00658 2.45144 2.32523 2.19453 2.06376 1.93728 
2.49426 2.3734 2.24572 2.11543 1.98711 1.86489 2.51718 2.40503 2.28408 
2.15805 2.03138 1.90847 1.79288 2.52097 2.4195 2.30791 2.18928 2.06758 
1.94707 1.83164 1.72413 1.66533 1.76911 1.66946 1.88041 1.777 1.67254 
1.99634 1.89102 1.78222 1.67418 2.11299 2.00785 1.89674 1.78405 1.67418 
2.22608 2.12307 2.01191 1.89674 1.78222 1.67254 2.33166 2.23222 2.12307 
2.00785 1.89102 1.777 1.66946 2.42672 2.33166 2.22608 2.11299 1.99634 
1.88041 1.76911 1.66533 1.47626 1.47213 1.37249 1.46906 1.36459 1.26118 
1.46741 1.35938 1.25058 1.14526 1.46741 1.35755 1.24485 1.13374 1.0286 
1.46906 1.35938 1.24485 1.12969 1.01852 0.915514 1.47213 1.36459 1.25058 
1.13374 1.01852 0.909371 0.809937 1.47626 1.37249 1.26118 1.14526 1.0286 
0.915514 0.809937 0.714871 1.41746 1.30996 1.34871 1.19452 1.23313 1.2767 
1.07402 1.11021 1.15448 1.20431 0.952313 0.983547 1.02616 1.07784 1.13501 
0.833684 0.857515 0.895868 0.94706 1.00737 1.07221 0.722093 0.736561 0.768195 
0.816367 0.877585 0.946693 1.01847 0.620619 0.624416 0.647337 0.690152 0.749941 
0.821245 0.898002 0.975055 0.975055 0.898002 1.01847 0.821245 0.946693 1.07221 
0.749941 0.877585 1.00737 1.13501 0.690152 0.816367 0.94706 1.07784 1.20431 
0.647337 0.768195 0.895868 1.02616 1.15448 1.2767 0.624416 0.736561 0.857515 
0.983547 1.11021 1.23313 1.34871 0.620619 0.722093 0.833684 0.952313 1.07402 
1.19452 1.30996 1.41746 
Phi 1 1002 float
6.28319 3.14159 6.28319 3.14159 4.71239 4.71239 1.5708 1.5708 3.69517 
5.72961 2.58802 0.553574 6.28319 6.28319 6.28319 6.28319 3.14159 3.14159 
3.14159 3.14159 3.14159 6.1053 5.8988 5.67687 5.45995 5.26596 5.10322 
4.97131 4.86569 4.78095 0.177881 0.384387 0.606312 0.823235 1.01722 1.17997 
1.31187 1.4175 1.50223 6.18928 6.10703 6.03531 5.97283 5.91832 5.87061 
5.82869 5.79168 5.75886 0.0939024 0.176153 0.247873 0.310351 0.364864 0.412573 
0.454497 0.491504 0.524326 3.31947 3.52598 3.7479 3.96483 4.15881 4.32156 
4.45346 4.55909 4.64383 2.96371 2.75721 2.53528 2.31836 2.12437 1.96162 
1.82972 1.72409 1.63936 3.2355 3.31775 3.38947 3.45194 3.50646 3.55417 
3.59609 3.6331 3.66592 3.04769 2.96544 2.89372 2.83124 2.77673 2.72902 
2.6871 2.65009 2.61727 6.28319 6.28319 6.28319 6.28319 3.14159 3.14159 
3.14159 3.14159 3.14159 6.1053 5.8988 5.67687 5.45995 5.26596 5.10322 
4.97131 4.86569 4.78095 0.177881 0.384387 0.606312 0.823235 1.01722 1.17997 
1.31187 1.4175 1.50223 6.18928 6.10703 6.03531 5.97283 5.91832 5.87061 
5.82869 5.79168 5.75886 0.0939024 0.176153 0.247873 0.310351 0.364864 0.412573 
0.454497 0.491504 0.524326 3.31947 3.52598 3.7479 3.96483 4.15881 4.32156 
4.45346 4.55909 4.64383 2.96371 2.75721 2.53528 2.31836 2.12437 1.96162 
1.82972 1.72409 1.63936 3.2355 3.31775 3.38947 3.45194 3.50646 3.55417 
3.59609 3.6331 3.66592 3.04769 2.96544 2.89372 2.83124 2.77673 2.72902 
2.6871 2.65009 2.61727 4.71239 4.71239 4.71239 4.71239 4.71239 4.71239 
4.71239 4.71239 4.71239 4.60879 4.49914 4.3857 4.27128 4.15881 4.05096 
3.94976 3.85646 3.77161 4.81599 4.92564 5.03907 5.1535 5.26596 5.37381 
5.47502 5.56831 5.65317 4.60879 4.49914 4.3857 4.27128 4.15881 4.05096 
3.94976 3.85646 3.77161 4.81599 4.92564 5.03907 5.1535 5.26596 5.37381 
5.47502 5.56831 5.65317 1.5708 1.5708 1.5708 1.5708 1.5708 1.5708 
1.5708 1.5708 1.5708 1.6744 1.78405 1.89748 2.01191 2.12437 2.23222 
2.33343 2.42672 2.51157 1.4672 1.35755 1.24411 1.12969 1.01722 0.909371 
0.808166 0.714871 0.63002 1.6744 1.78405 1.89748 2.01191 2.12437 2.23222 
2.33343 2.42672 2.51157 1.4672 1.35755 1.24411 1.12969 1.01722 0.909371 
0.808166 0.714871 0.63002 3.60077 3.49669 3.38395 3.26458 3.14159 3.01861 
2.89924 2.78649 2.68241 5.82401 5.92808 6.04083 6.1602 6.28319 0.122983 
0.242354 0.355101 0.459179 6.05603 5.78856 5.97021 5.51259 5.60297 5.78856 
5.26596 5.26596 5.26596 5.26596 5.06749 5.0121 4.91556 4.71239 4.15881 
4.91556 4.83537 4.71239 4.50922 4.15881 3.63622 4.80045 4.71239 4.58941 
4.41268 4.15881 3.82181 3.45456 4.71239 4.62433 4.50922 4.35729 4.15881 
3.91219 3.63622 3.36875 6.01742 5.94343 5.82633 5.88092 5.76745 5.62798 
5.8278 5.71897 5.58911 5.43724 5.78235 5.67854 5.55757 5.41926 5.26596 
5.74316 5.64441 5.5315 5.40467 5.26596 5.11955 5.70914 5.61528 5.50962 
5.3926 5.26596 5.13292 4.99789 5.67937 5.59016 5.49102 5.38246 5.26596 
5.14407 5.02016 4.89798 5.56831 5.47502 5.47502 5.37381 5.37381 5.37381 
5.26596 5.26596 5.26596 5.26596 5.1535 5.1535 5.1535 5.1535 5.1535 
5.03907 5.03907 5.03907 5.03907 5.03907 5.03907 4.92564 4.92564 4.92564 
4.92564 4.92564 4.92564 4.92564 4.81599 4.81599 4.81599 4.81599 4.81599 
4.81599 4.81599 4.81599 4.60879 4.60879 4.49914 4.60879 4.49914 4.3857 
4.60879 4.49914 4.3857 4.27128 4.60879 4.49914 4.3857 4.27128 4.15881 
4.60879 4.49914 4.3857 4.27128 4.15881 4.05096 4.60879 4.49914 4.3857 
4.27128 4.15881 4.05096 3.94976 4.60879 4.49914 4.3857 4.27128 4.15881 
4.05096 3.94976 3.85646 4.5268 4.40462 4.42689 4.28071 4.29185 4.30523 
4.15881 4.15881 4.15881 4.15881 4.04232 4.03217 4.02011 4.00552 3.98753 
3.93376 3.91515 3.89328 3.86721 3.83566 3.7968 3.83461 3.8095 3.78037 
3.74624 3.70581 3.65733 3.59845 3.7454 3.71564 3.68161 3.64243 3.59698 
3.54386 3.48135 3.40735 3.56428 3.45246 3.52338 3.33203 3.40312 3.47739 
3.20576 3.27463 3.34802 3.42551 3.07742 3.14159 3.21128 3.28647 3.36688 
2.95116 3.00855 3.0719 3.14159 3.21784 3.3006 2.83072 2.88006 2.93517 
2.99672 3.06535 3.14159 3.22575 2.7189 2.7598 2.8058 2.85768 2.9163 
2.98259 3.05743 3.14159 3.56428 3.52338 3.45246 3.47739 3.40312 3.33203 
3.42551 3.34802 3.27463 3.20576 3.36688 3.28647 3.21128 3.14159 3.07742 
3.3006 3.21784 3.14159 3.0719 3.00855 2.95116 3.22575 3.14159 3.06535 
2.99672 2.93517 2.88006 2.83072 3.14159 3.05743 2.98259 2.9163 2.85768 
2.8058 2.7598 2.7189 4.5268 4.42689 4.40462 4.30523 4.29185 4.28071 
4.15881 4.15881 4.15881 4.15881 3.98753 4.00552 4.02011 4.03217 4.04232 
3.7968 3.83566 3.86721 3.89328 3.91515 3.93376 3.59845 3.65733 3.70581 
3.74624 3.78037 3.8095 3.83461 3.40735 3.48135 3.54386 3.59698 3.64243 
3.68161 3.71564 3.7454 4.71239 4.80045 4.62433 4.91556 4.71239 4.50922 
5.06749 4.83537 4.58941 4.35729 5.26596 5.0121 4.71239 4.41268 4.15881 
5.51259 5.26596 4.91556 4.50922 4.15881 3.91219 5.78856 5.60297 5.26596 
4.71239 4.15881 3.82181 3.63622 6.05603 5.97021 5.78856 5.26596 4.15881 
3.63622 3.45456 3.36875 0.227158 0.494626 0.312971 0.770593 0.680215 0.494626 
1.01722 1.01722 1.01722 1.01722 1.2157 1.27109 1.36763 1.5708 2.12437 
1.36763 1.44781 1.5708 1.77397 2.12437 2.64697 1.48273 1.5708 1.69378 
1.8705 2.12437 2.46138 2.82862 1.5708 1.65886 1.77397 1.9259 2.12437 
2.371 2.64697 2.91443 1.75639 1.87857 1.8563 2.00248 1.99133 1.97796 
2.12437 2.12437 2.12437 2.12437 2.24087 2.25101 2.26308 2.27767 2.29565 
2.34943 2.36803 2.38991 2.41597 2.44752 2.48639 2.44857 2.47368 2.50281 
2.53694 2.57738 2.62586 2.68474 2.53778 2.56754 2.60157 2.64076 2.68621 
2.73933 2.80184 2.87583 1.6744 1.6744 1.78405 1.6744 1.78405 1.89748 
1.6744 1.78405 1.89748 2.01191 1.6744 1.78405 1.89748 2.01191 2.12437 
1.6744 1.78405 1.89748 2.01191 2.12437 2.23222 1.6744 1.78405 1.89748 
2.01191 2.12437 2.23222 2.33343 1.6744 1.78405 1.89748 2.01191 2.12437 
2.23222 2.33343 2.42672 1.4672 1.35755 1.4672 1.24411 1.35755 1.4672 
1.12969 1.24411 1.35755 1.4672 1.01722 1.12969 1.24411 1.35755 1.4672 
0.909371 1.01722 1.12969 1.24411 1.35755 1.4672 0.808166 0.909371 1.01722 
1.12969 1.24411 1.35755 1.4672 0.714871 0.808166 0.909371 1.01722 1.12969 
1.24411 1.35755 1.4672 0.603812 0.57405 0.693022 0.540021 0.667908 0.792164 
0.500837 0.638778 0.773562 0.900726 0.455383 0.604649 0.751687 0.890581 1.01722 
0.402264 0.564217 0.725619 0.878514 1.01722 1.13912 0.339753 0.515737 0.694072 
0.863926 1.01722 1.15026 1.26302 0.265762 0.456853 0.655207 0.845941 1.01722 
1.16363 1.28529 1.38521 0.227158 0.312971 0.494626 0.494626 0.680215 0.770593 
1.01722 1.01722 1.01722 1.01722 2.12437 1.5708 1.36763 1.27109 1.2157 
2.64697 2.12437 1.77397 1.5708 1.44781 1.36763 2.82862 2.46138 2.12437 
1.8705 1.69378 1.5708 1.48273 2.91443 2.64697 2.371 2.12437 1.9259 
1.77397 1.65886 1.5708 1.75639 1.8563 1.87857 1.97796 1.99133 2.00248 
2.12437 2.12437 2.12437 2.12437 2.29565 2.27767 2.26308 2.25101 2.24087 
2.48639 2.44752 2.41597 2.38991 2.36803 2.34943 2.68474 2.62586 2.57738 
2.53694 2.50281 2.47368 2.44857 2.87583 2.80184 2.73933 2.68621 2.64076 
2.60157 2.56754 2.53778 5.86049 5.90139 5.97231 5.94739 6.02165 6.09275 
5.99927 6.07676 6.15015 6.21902 6.0579 6.13831 6.2135 0 0.0641696 
6.12418 6.20694 6.28319 0.069689 0.13304 0.190437 6.19903 0 0.0762451 
0.144876 0.206423 0.261531 0.310872 0 0.0841597 0.159004 0.225289 0.283913 
0.335793 0.381792 0.422692 5.86049 5.97231 5.90139 6.09275 6.02165 5.94739 
6.21902 6.15015 6.07676 5.99927 0.0641696 0 6.2135 6.13831 6.0579 
0.190437 0.13304 0.069689 6.28319 6.20694 6.12418 0.310872 0.261531 0.206423 
0.144876 0.0762451 6.28319 6.19903 0.422692 0.381792 0.335793 0.283913 0.225289 
0.159004 0.0841597 0 5.67937 5.70914 5.59016 5.74316 5.61528 5.49102 
5.78235 5.64441 5.50962 5.38246 5.8278 5.67854 5.5315 5.3926 5.26596 
5.88092 5.71897 5.55757 5.40467 5.26596 5.14407 5.94343 5.76745 5.58911 
5.41926 5.26596 5.13292 5.02016 6.01742 5.82633 5.62798 5.43724 5.26596 
5.11955 4.99789 4.89798 1.38521 1.28529 1.26302 1.16363 1.15026 1.13912 
1.01722 1.01722 1.01722 1.01722 0.845941 0.863926 0.878514 0.890581 0.900726 
0.655207 0.694072 0.725619 0.751687 0.773562 0.792164 0.456853 0.515737 0.564217 
0.604649 0.638778 0.667908 0.693022 0.265762 0.339753 0.402264 0.455383 0.500837 
0.540021 0.57405 0.603812 
