# vtk DataFile Version 4.0
vtk output
ASCII
DATASET POLYDATA
POINTS 1002 float
-85.8371 -81.9735 62.3042 -77.334 -93.9092 67.9708 -75.2886 -76.33 62.306 
-69.7376 -92.2078 67.3182 -81.1267 -85.1538 74.7064 -74.5745 -81.7848 73.4419 
-79.5079 -88.5886 58.124 -72.8058 -87.2358 58.3381 -72.6517 -98.5452 75.6012 
-81.7647 -73.2629 65.6288 -71.787 -104.275 61.7443 -83.7913 -76.8795 54.2785 
-84.7917 -82.6187 62.6209 -83.7399 -83.3361 63.2105 -82.6582 -84.218 64.0866 
-81.6316 -85.3415 65.0819 -80.793 -86.6783 65.9756 -80.0102 -88.1505 66.6321 
-79.1727 -89.6778 67.0471 -78.4428 -91.1983 67.3485 -77.8734 -92.6417 67.6578 
-85.3321 -82.1403 63.2993 -84.9803 -82.4106 64.4643 -84.8293 -82.8225 65.9526 
-84.6467 -83.3762 67.6918 -84.3984 -83.862 69.4117 -84.0505 -84.1158 70.8923 
-83.3021 -84.3382 72.0007 -82.3264 -84.6833 72.8607 -81.6041 -84.9848 73.7656 
-85.6757 -82.3611 61.4457 -85.4611 -83.0367 60.6004 -85.0726 -83.7722 59.9169 
-84.4657 -84.3624 59.3705 -83.9029 -85.1724 58.8039 -83.4529 -86.2271 58.3527 
-82.7099 -86.8992 58.2141 -81.5815 -87.2421 58.2006 -80.4507 -87.8013 58.1383 
-86.5564 -81.3705 62.7352 -87.0278 -80.5087 63.1798 -86.8852 -79.2215 63.4425 
-86.1749 -77.8142 63.4876 -85.3561 -76.7512 63.5733 -84.6735 -75.8782 63.9433 
-83.9854 -74.9418 64.4899 -83.2003 -74.1776 64.9622 -82.4262 -73.6865 65.3059 
-86.7647 -81.4982 61.5198 -87.3817 -80.9713 60.5714 -87.4268 -80.3923 59.4433 
-87.1949 -79.6368 58.1691 -87.1786 -78.6707 56.7931 -87.2363 -77.9232 55.4553 
-86.8492 -77.6652 54.443 -85.9591 -77.5387 54.0058 -84.8692 -77.243 54.0631 
-77.6889 -93.2861 68.7268 -78.1307 -92.6586 69.5577 -78.6897 -92.0437 70.3645 
-79.2452 -91.3163 71.2074 -79.7707 -90.5062 72.1596 -80.294 -89.6407 73.0706 
-80.6853 -88.5819 73.7555 -80.8863 -87.3804 74.2055 -81.0127 -86.2213 74.5056 
-77.2407 -93.6539 67.1182 -76.9767 -93.0985 66.3139 -76.7499 -92.3784 65.4821 
-76.8297 -91.7584 64.4968 -77.0466 -91.1273 63.4045 -77.1787 -90.3945 62.3231 
-77.5095 -89.8498 61.2667 -78.194 -89.5043 60.2232 -78.9341 -89.0937 59.176 
-76.9507 -94.7203 68.7251 -76.5558 -95.5832 69.5645 -76.26 -96.5491 70.5624 
-75.9991 -97.5789 71.6715 -75.6873 -98.4455 72.6836 -75.3265 -98.9134 73.6153 
-74.8087 -99.1066 74.57 -74.0572 -99.2053 75.3239 -73.2571 -99.0627 75.644 
-76.7089 -94.9913 67.7241 -76.0134 -96.1594 67.3914 -75.4764 -97.6027 66.8823 
-75.1803 -99.2656 66.3281 -74.7236 -100.648 65.836 -73.8871 -101.537 65.1687 
-73.1963 -102.352 64.2351 -72.9092 -103.283 63.2719 -72.5391 -104.002 62.4273 
-74.3401 -77.1295 62.7496 -73.4286 -78.046 63.1685 -72.9312 -79.6928 63.7221 
-72.5143 -81.8394 64.428 -71.6455 -83.5462 65.0941 -70.8021 -85.0355 65.6803 
-70.504 -87.0229 66.2424 -70.3333 -89.0852 66.698 -69.9968 -90.7397 67.0268 
-74.9078 -76.2695 63.2775 -74.5494 -76.3366 64.3289 -74.3777 -76.6604 65.5449 
-74.3235 -77.1585 66.9342 -74.2784 -77.7759 68.2728 -74.2972 -78.555 69.4149 
-74.3596 -79.4224 70.4815 -74.4033 -80.2766 71.5482 -74.4717 -81.0711 72.5548 
-75.0259 -76.9098 61.6088 -74.6529 -77.475 60.8725 -74.3715 -78.2655 60.2529 
-74.2736 -79.435 59.768 -74.1371 -80.7466 59.3384 -73.8755 -82.0542 59.0095 
-73.6296 -83.4289 58.7973 -73.3715 -84.7564 58.6107 -73.0595 -85.9777 58.4403 
-75.8498 -75.2414 62.37 -76.3298 -73.9861 62.4408 -76.9455 -73.005 62.6754 
-77.7352 -72.3146 63.1512 -78.4811 -71.488 63.8513 -79.1878 -70.8002 64.5761 
-79.9505 -70.9143 64.9771 -80.6524 -71.6732 65.0861 -81.2379 -72.5251 65.2683 
-75.9264 -75.6887 61.3602 -76.4537 -74.9315 60.3295 -77.1973 -74.4254 59.3354 
-78.3239 -74.289 58.4644 -79.4046 -74.2748 57.6141 -80.2256 -74.3083 56.609 
-81.1157 -74.5369 55.6341 -82.1013 -75.0705 55.023 -82.9792 -75.9151 54.6749 
-69.9323 -91.3282 68.0954 -70.4573 -90.4357 68.7487 -71.1255 -89.5625 69.2326 
-71.6539 -88.5912 69.7927 -72.0357 -87.2732 70.6663 -72.3648 -85.7356 71.5941 
-72.7199 -84.3987 72.2657 -73.251 -83.3519 72.7647 -73.9369 -82.4866 73.1721 
-69.7935 -92.1613 66.2987 -69.8317 -92.08 65.2615 -69.9168 -91.8997 64.2275 
-70.1555 -91.5458 63.142 -70.4248 -90.9831 62.0778 -70.7368 -90.3294 61.1576 
-71.2503 -89.7099 60.3741 -71.7903 -89.0335 59.6611 -72.2395 -88.1843 58.9787 
-69.6922 -93.2538 68.139 -69.8029 -94.401 68.9488 -70.0301 -95.392 69.7149 
-70.2374 -96.2343 70.6474 -70.4009 -97.1159 71.773 -70.7265 -97.9068 72.7296 
-71.2493 -98.4641 73.4546 -71.7157 -98.8166 74.2179 -72.1049 -98.8592 75.0057 
-69.7443 -93.8441 66.9701 -69.8101 -95.8458 66.5314 -69.5164 -97.8876 66.0096 
-69.1088 -99.472 65.4782 -69.371 -100.687 64.9151 -69.9559 -102.096 64.1253 
-70.0165 -103.584 63.1175 -70.0489 -104.497 62.2494 -70.7597 -104.647 61.8044 
-80.8333 -84.554 75.311 -80.3132 -83.9227 75.7222 -79.5485 -83.3831 75.8869 
-78.6623 -82.8608 76.0586 -77.7027 -82.2424 76.3026 -76.7043 -81.773 76.2202 
-75.8777 -81.6797 75.6387 -75.3473 -81.7697 74.8511 -74.967 -81.8092 74.1054 
-80.4482 -86.0786 75.3685 -79.4554 -87.4288 75.804 -78.451 -89.0256 76.3197 
-77.648 -90.3111 77.0235 -76.7811 -91.33 77.3916 -75.8295 -92.7005 77.2696 
-75.0472 -94.3136 77.0589 -74.2816 -95.7322 76.7504 -73.4067 -97.1036 76.2092 
-81.4412 -84.0024 74.1727 -81.5923 -82.7449 73.3394 -81.7244 -81.3489 72.3996 
-82.0244 -79.8601 71.5877 -82.2515 -78.4044 70.7174 -82.1436 -77.1378 69.5928 
-81.9998 -76.0611 68.5243 -82.0127 -75.026 67.6328 -81.9596 -74.0468 66.6658 
-74.3046 -82.9859 74.0666 -73.9797 -84.5039 74.5942 -73.6631 -86.2019 75.1724 
-73.4778 -87.9206 75.6867 -73.403 -89.8144 75.8246 -73.2331 -91.8379 75.8212 
-72.9313 -93.5976 75.9969 -72.6949 -95.1692 76.063 -72.6148 -96.8676 75.8503 
-75.0793 -80.7276 73.0523 -75.6341 -79.492 72.6252 -76.2768 -77.8684 72.3711 
-76.9645 -76.1402 72.1011 -77.7796 -74.9275 71.4201 -78.8494 -74.2639 70.3952 
-79.9407 -73.7747 69.2554 -80.7457 -73.4162 67.9979 -81.2962 -73.2701 66.7192 
-79.2123 -88.7364 57.5474 -78.7394 -88.7364 57.1565 -78.021 -88.5154 57.0043 
-77.1494 -88.1899 56.9938 -76.2947 -87.9366 57.1085 -75.4889 -87.8156 57.3312 
-74.6743 -87.7683 57.5213 -73.8809 -87.6703 57.6862 -73.2286 -87.4709 57.9557 
-78.2515 -89.7844 58.8606 -76.9365 -91.261 59.4751 -75.8706 -93.2717 59.7251 
-75.201 -95.62 59.7975 -74.4998 -97.5863 59.9566 -73.546 -99.0116 60.1296 
-72.883 -100.386 60.3754 -72.6661 -101.871 60.8214 -72.3686 -103.239 61.3033 
-80.5304 -87.549 57.0014 -81.5122 -86.4955 55.803 -82.513 -85.6514 54.5157 
-83.453 -85.0351 53.3065 -83.958 -83.9342 52.5812 -84.0293 -81.9223 52.3635 
-84.1039 -79.9355 52.4227 -84.1959 -78.7542 52.8459 -84.0692 -77.923 53.5907 
-72.2805 -89.3867 58.6481 -71.9002 -91.8395 58.8499 -71.4138 -94.1326 58.7164 
-70.7176 -96.1742 58.147 -70.2969 -98.2732 57.625 -70.4489 -100.244 57.8848 
-70.7369 -101.65 58.873 -70.947 -102.682 59.9608 -71.2984 -103.611 60.8822 
-73.8301 -85.5418 57.734 -75.1408 -84.1214 57.0563 -76.3418 -82.8992 56.2837 
-77.4342 -81.6609 55.5424 -78.7492 -80.5857 55.0026 -80.005 -79.7508 54.5044 
-80.8723 -78.8428 54.0188 -81.7305 -77.9254 53.8822 -82.7966 -77.2946 54.0779 
-72.3989 -100.304 75.1774 -72.4018 -101.576 74.5926 -72.5628 -102.312 73.217 
-72.4914 -103.291 71.2663 -72.1031 -104.635 69.8166 -71.7918 -105.35 68.6603 
-71.7307 -105.286 66.75 -71.7326 -105.126 64.466 -71.7283 -104.886 62.7716 
-81.9789 -72.9152 64.4519 -82.3897 -72.5737 63.3393 -82.9283 -72.1599 62.1402 
-83.4381 -72.0351 60.7334 -83.9418 -72.4632 59.1462 -84.3549 -72.9485 57.4153 
-84.4428 -73.3825 55.894 -84.2863 -74.3359 55.0302 -84.0788 -75.7068 54.6464 
-84.363 -82.9056 63.764 -84.2444 -83.4141 65.1783 -83.3895 -83.7503 64.5753 
-84.2027 -84.0122 66.8791 -83.3161 -84.3459 66.1482 -82.4045 -84.7398 65.5875 
-83.9303 -84.5683 68.6051 -83.1241 -84.9137 67.7626 -82.3219 -85.3779 67.054 
-81.5988 -86.0705 66.4468 -83.5723 -85.0377 70.141 -82.7699 -85.5442 69.2549 
-82.0956 -86.0861 68.4283 -81.6095 -86.9764 67.6338 -80.9277 -87.7364 67.0177 
-83.0855 -85.4433 71.4731 -82.52 -86.3303 70.7039 -81.9174 -87.0376 69.8644 
-81.4655 -87.9262 68.9156 -80.9164 -88.821 68.0396 -80.0678 -89.3267 67.4748 
-82.3159 -85.8025 72.5891 -82.1372 -86.9733 72.0995 -81.7839 -87.9719 71.4028 
-81.2859 -88.8046 70.4301 -80.6766 -89.5999 69.3593 -79.9142 -90.2113 68.5473 
-79.106 -90.6623 67.9484 -81.5672 -86.0605 73.5758 -81.5102 -87.2673 73.2646 
-81.3379 -88.4468 72.7532 -80.9089 -89.3732 71.9109 -80.2899 -90.1154 70.8323 
-79.6054 -90.7869 69.8739 -78.9098 -91.3655 69.1246 -78.3232 -91.9699 68.3901 
-85.9168 -81.4197 63.7528 -86.1439 -80.3257 64.1519 -85.3437 -81.4711 64.9403 
-85.8709 -79.0356 64.3235 -85.315 -80.2495 65.2939 -84.9208 -81.7585 66.4447 
-85.2753 -77.9207 64.4362 -85.0362 -79.1232 65.5285 -84.6701 -80.5431 66.7545 
-84.5959 -82.292 68.1845 -84.6076 -76.9273 64.8014 -84.6185 -78.109 65.955 
-84.3646 -79.4563 67.1121 -84.2499 -81.0263 68.4557 -84.3886 -82.693 69.9282 
-83.9699 -75.8752 65.3574 -84.0513 -77.0011 66.5169 -83.999 -78.3883 67.6813 
-83.8423 -79.8656 68.7844 -83.9464 -81.3818 70.1284 -83.9106 -82.9101 71.3376 
-83.3182 -75.0227 65.8644 -83.3951 -76.0682 66.9065 -83.4614 -77.3838 68.0796 
-83.4167 -78.841 69.1833 -83.3411 -80.277 70.2661 -83.2688 -81.7586 71.389 
-82.9258 -83.2755 72.2754 -82.6218 -74.4931 66.281 -82.6945 -75.5008 67.2224 
-82.7604 -76.6506 68.2479 -82.8761 -77.9346 69.4174 -82.8162 -79.3214 70.4866 
-82.5673 -80.7842 71.4068 -82.3004 -82.2977 72.312 -81.9892 -83.7302 73.133 
-81.3949 -74.2031 67.8569 -80.6919 -74.3937 69.0934 -81.3069 -75.245 68.8201 
-79.7987 -74.7777 70.1979 -80.5473 -75.4981 69.9888 -81.2997 -76.3041 69.7715 
-78.7979 -75.3973 71.2663 -79.7543 -76.1312 71.0408 -80.5773 -76.8204 70.9734 
-81.4635 -77.5507 70.895 -77.8611 -76.3072 72.3133 -78.9045 -77.0054 72.1702 
-79.7536 -77.7872 72.0184 -80.5575 -78.4157 71.9798 -81.3828 -79.0813 71.8536 
-76.9846 -77.7073 73.0222 -77.9605 -77.9455 73.3492 -78.8305 -78.6202 73.2329 
-79.5427 -79.3852 72.9904 -80.3465 -80.0031 72.8604 -81.119 -80.6344 72.6803 
-76.1531 -79.3152 73.4177 -76.9276 -79.1355 74.2105 -77.8223 -79.2969 74.5562 
[...]
POINT_DATA 1002
FIELD FieldData 2
Theta 1 1002 float
2.58802 2.58802 0.553574 0.553574 2.12437 1.01722 2.12437 1.01722 1.5708 
1.5708 1.5708 1.5708 2.68241 2.78649 2.89924 3.01861 3.14159 3.01861 
2.89924 2.78649 2.68241 2.61035 2.61791 2.60515 2.56958 2.51327 2.44184 
2.36202 2.27983 2.1997 2.61035 2.61791 2.60515 2.56958 2.51327 2.44184 
2.36202 2.27983 2.1997 2.50947 2.41899 2.31794 2.20864 2.0944 1.97902 
1.86631 1.75944 1.66056 2.50947 2.41899 2.31794 2.20864 2.0944 1.97902 
1.86631 1.75944 1.66056 2.61035 2.61791 2.60515 2.56958 2.51327 2.44184 
2.36202 2.27983 2.1997 2.61035 2.61791 2.60515 2.56958 2.51327 2.44184 
2.36202 2.27983 2.1997 2.50947 2.41899 2.31794 2.20864 2.0944 1.97902 
1.86631 1.75944 1.66056 2.50947 2.41899 2.31794 2.20864 2.0944 1.97902 
1.86631 1.75944 1.66056 0.459179 0.355101 0.242354 0.122983 0 0.122983 
0.242354 0.355101 0.459179 0.531246 0.523681 0.536438 0.57201 0.628319 0.699757 
0.779574 0.86176 0.941896 0.531246 0.523681 0.536438 0.57201 0.628319 0.699757 
0.779574 0.86176 0.941896 0.632123 0.7226 0.823657 0.932948 1.0472 1.16257 
1.27528 1.38216 1.48103 0.632123 0.7226 0.823657 0.932948 1.0472 1.16257 
1.27528 1.38216 1.48103 0.531246 0.523681 0.536438 0.57201 0.628319 0.699757 
0.779574 0.86176 0.941896 0.531246 0.523681 0.536438 0.57201 0.628319 0.699757 
0.779574 0.86176 0.941896 0.632123 0.7226 0.823657 0.932948 1.0472 1.16257 
1.27528 1.38216 1.48103 0.632123 0.7226 0.823657 0.932948 1.0472 1.16257 
1.27528 1.38216 1.48103 2.02998 1.9259 1.81315 1.69378 1.5708 1.44781 
1.32844 1.2157 1.11162 2.0928 2.05283 2.00422 1.94767 1.88496 1.81867 
1.75177 1.68695 1.62623 2.0928 2.05283 2.00422 1.94767 1.88496 1.81867 
1.75177 1.68695 1.62623 1.0488 1.08876 1.13737 1.19392 1.25664 1.32292 
1.38982 1.45464 1.51537 1.0488 1.08876 1.13737 1.19392 1.25664 1.32292 
1.38982 1.45464 1.51537 2.02998 1.9259 1.81315 1.69378 1.5708 1.44781 
1.32844 1.2157 1.11162 2.0928 2.05283 2.00422 1.94767 1.88496 1.81867 
1.75177 1.68695 1.62623 2.0928 2.05283 2.00422 1.94767 1.88496 1.81867 
1.75177 1.68695 1.62623 1.0488 1.08876 1.13737 1.19392 1.25664 1.32292 
1.38982 1.45464 1.51537 1.0488 1.08876 1.13737 1.19392 1.25664 1.32292 
1.38982 1.45464 1.51537 1.5708 1.5708 1.5708 1.5708 1.5708 1.5708 
1.5708 1.5708 1.5708 1.5708 1.5708 1.5708 1.5708 1.5708 1.5708 
1.5708 1.5708 1.5708 2.70908 2.71362 2.81592 2.68886 2.81002 2.92597 
2.6349 2.76254 2.89233 3.01997 2.55881 2.68262 2.80854 2.92834 3.01997 
2.47007 2.58462 2.70048 2.80854 2.89233 2.92597 2.37702 2.48017 2.58462 
2.68262 2.76254 2.81002 2.81592 2.28567 2.37702 2.47007 2.55881 2.6349 
2.68886 2.71362 2.70908 2.52097 2.4195 2.51718 2.30791 2.40503 2.49426 
2.18928 2.28408 2.3734 2.45144 2.06758 2.15805 2.24572 2.32523 2.39165 
1.94707 2.03138 2.11543 2.19453 2.26401 2.32035 1.83164 1.90847 1.98711 
2.06376 2.13422 2.1949 2.24359 1.72413 1.79288 1.86489 1.93728 2.00658 
2.06938 2.12312 2.16654 1.5708 1.50988 1.63171 1.44492 1.5708 1.69667 
1.37826 1.5059 1.63569 1.76333 1.31281 1.43962 1.5708 1.70197 1.82878 
1.25155 1.37501 1.50478 1.63681 1.76659 1.89004 1.19686 1.31493 1.44074 
1.5708 1.70086 1.82666 1.94473 1.15011 1.26149 1.38136 1.50697 1.63462 
1.76024 1.88011 1.99148 1.99148 1.88011 1.94473 1.76024 1.82666 1.89004 
1.63462 1.70086 1.76659 1.82878 1.50697 1.5708 1.63681 1.70197 1.76333 
1.38136 1.44074 1.50478 1.5708 1.63569 1.69667 1.26149 1.31493 1.37501 
1.43962 1.5059 1.5708 1.63171 1.15011 1.19686 1.25155 1.31281 1.37826 
1.44492 1.50988 1.5708 2.16654 2.12312 2.24359 2.06938 2.1949 2.32035 
2.00658 2.13422 2.26401 2.39165 1.93728 2.06376 2.19453 2.32523 2.45144 
1.86489 1.98711 2.11543 2.24572 2.3734 2.49426 1.79288 1.90847 2.03138 
2.15805 2.28408 2.40503 2.51718 1.72413 1.83164 1.94707 2.06758 2.18928 
2.30791 2.4195 2.52097 1.66533 1.66946 1.76911 1.67254 1.777 1.88041 
1.67418 1.78222 1.89102 1.99634 1.67418 1.78405 1.89674 2.00785 2.11299 
1.67254 1.78222 1.89674 2.01191 2.12307 2.22608 1.66946 1.777 1.89102 
2.00785 2.12307 2.23222 2.33166 1.66533 1.76911 1.88041 1.99634 2.11299 
2.22608 2.33166 2.42672 1.47626 1.37249 1.47213 1.26118 1.36459 1.46906 
1.14526 1.25058 1.35938 1.46741 1.0286 1.13374 1.24485 1.35755 1.46741 
0.915514 1.01852 1.12969 1.24485 1.35938 1.46906 0.809937 0.909371 1.01852 
1.13374 1.25058 1.36459 1.47213 0.714871 0.809937 0.915514 1.0286 1.14526 
1.26118 1.37249 1.47626 0.975055 0.898002 1.01847 0.821245 0.946693 1.07221 
0.749941 0.877585 1.00737 1.13501 0.690152 0.816367 0.94706 1.07784 1.20431 
0.647337 0.768195 0.895868 1.02616 1.15448 1.2767 0.624416 0.736561 0.857515 
0.983547 1.11021 1.23313 1.34871 0.620619 0.722093 0.833684 0.952313 1.07402 
1.19452 1.30996 1.41746 0.855925 0.764569 0.764569 0.671524 0.661425 0.671524 
0.582786 0.556971 0.556971 0.582786 0.506696 0.458968 0.441109 0.458968 0.506696 
0.45273 0.379052 0.333054 0.333054 0.379052 0.45273 0.427969 0.331576 0.249267 
0.21325 0.249267 0.331576 0.427969 0.432512 0.325669 0.215619 0.121622 0.121622 
0.215619 0.325669 0.432512 0.432512 0.427969 0.325669 0.45273 0.331576 0.215619 
0.506696 0.379052 0.249267 0.121622 0.582786 0.458968 0.333054 0.21325 0.121622 
0.671524 0.556971 0.441109 0.333054 0.249267 0.215619 0.764569 0.661425 0.556971 
0.458968 0.379052 0.331576 0.325669 0.855925 0.764569 0.671524 0.582786 0.506696 
0.45273 0.427969 0.432512 0.975055 1.01847 0.898002 1.07221 0.946693 0.821245 
1.13501 1.00737 0.877585 0.749941 1.20431 1.07784 0.94706 0.816367 0.690152 
1.2767 1.15448 1.02616 0.895868 0.768195 0.647337 1.34871 1.23313 1.11021 
0.983547 0.857515 0.736561 0.624416 1.41746 1.30996 1.19452 1.07402 0.952313 
0.833684 0.722093 0.620619 1.15011 1.26149 1.19686 1.38136 1.31493 1.25155 
1.50697 1.44074 1.37501 1.31281 1.63462 1.5708 1.50478 1.43962 1.37826 
1.76024 1.70086 1.63681 1.5708 1.5059 1.44492 1.88011 1.82666 1.76659 
1.70197 1.63569 1.5708 1.50988 1.99148 1.94473 1.89004 1.82878 1.76333 
1.69667 1.63171 1.5708 1.15011 1.19686 1.26149 1.25155 1.31493 1.38136 
1.31281 1.37501 1.44074 1.50697 1.37826 1.43962 1.50478 1.5708 1.63462 
1.44492 1.5059 1.5708 1.63681 1.70086 1.76024 1.50988 1.5708 1.63569 
1.70197 1.76659 1.82666 1.88011 1.5708 1.63171 1.69667 1.76333 1.82878 
1.89004 1.94473 1.99148 1.72413 1.83164 1.79288 1.94707 1.90847 1.86489 
2.06758 2.03138 1.98711 1.93728 2.18928 2.15805 2.11543 2.06376 2.00658 
2.30791 2.28408 2.24572 2.19453 2.13422 2.06938 2.4195 2.40503 2.3734 
2.32523 2.26401 2.1949 2.12312 2.52097 2.51718 2.49426 2.45144 2.39165 
2.32035 2.24359 2.16654 2.70908 2.81592 2.71362 2.92597 2.81002 2.68886 
3.01997 2.89233 2.76254 2.6349 3.01997 2.92834 2.80854 2.68262 2.55881 
2.92597 2.89233 2.80854 2.70048 2.58462 2.47007 2.81592 2.81002 2.76254 
2.68262 2.58462 2.48017 2.37702 2.70908 2.71362 2.68886 2.6349 2.55881 
2.47007 2.37702 2.28567 2.16654 2.24359 2.12312 2.32035 2.1949 2.06938 
2.39165 2.26401 2.13422 2.00658 2.45144 2.32523 2.19453 2.06376 1.93728 
2.49426 2.3734 2.24572 2.11543 1.98711 1.86489 2.51718 2.40503 2.28408 
2.15805 2.03138 1.90847 1.79288 2.52097 2.4195 2.30791 2.18928 2.06758 
1.94707 1.83164 1.72413 1.66533 1.76911 1.66946 1.88041 1.777 1.67254 
1.99634 1.89102 1.78222 1.67418 2.11299 2.00785 1.89674 1.78405 1.67418 
2.22608 2.12307 2.01191 1.89674 1.78222 1.67254 2.33166 2.23222 2.12307 
2.00785 1.89102 1.777 1.66946 2.42672 2.33166 2.22608 2.11299 1.99634 
1.88041 1.76911 1.66533 1.47626 1.47213 1.37249 1.46906 1.36459 1.26118 
1.46741 1.35938 1.25058 1.14526 1.46741 1.35755 1.24485 1.13374 1.0286 
1.46906 1.35938 1.24485 1.12969 1.01852 0.915514 1.47213 1.36459 1.25058 
1.13374 1.01852 0.909371 0.809937 1.47626 1.37249 1.26118 1.14526 1.0286 
0.915514 0.809937 0.714871 1.41746 1.30996 1.34871 1.19452 1.23313 1.2767 
1.07402 1.11021 1.15448 1.20431 0.952313 0.983547 1.02616 1.07784 1.13501 
0.833684 0.857515 0.895868 0.94706 1.00737 1.07221 0.722093 0.736561 0.768195 
0.816367 0.877585 0.946693 1.01847 0.620619 0.624416 0.647337 0.690152 0.749941 
0.821245 0.898002 0.975055 0.975055 0.898002 1.01847 0.821245 0.946693 1.07221 
0.749941 0.877585 1.00737 1.13501 0.690152 0.816367 0.94706 1.07784 1.20431 
0.647337 0.768195 0.895868 1.02616 1.15448 1.2767 0.624416 0.736561 0.857515 
0.983547 1.11021 1.23313 1.34871 0.620619 0.722093 0.833684 0.952313 1.07402 
1.19452 1.30996 1.41746 
Phi 1 1002 float
6.28319 3.14159 6.28319 3.14159 4.71239 4.71239 1.5708 1.5708 3.69517 
5.72961 2.58802 0.553574 6.28319 6.28319 6.28319 6.28319 3.14159 3.14159 
3.14159 3.14159 3.14159 6.1053 5.8988 5.67687 5.45995 5.26596 5.10322 
4.97131 4.86569 4.78095 0.177881 0.384387 0.606312 0.823235 1.01722 1.17997 
1.31187 1.4175 1.50223 6.18928 6.10703 6.03531 5.97283 5.91832 5.87061 
5.82869 5.79168 5.75886 0.0939024 0.176153 0.247873 0.310351 0.364864 0.412573 
0.454497 0.491504 0.524326 3.31947 3.52598 3.7479 3.96483 4.15881 4.32156 
4.45346 4.55909 4.64383 2.96371 2.75721 2.53528 2.31836 2.12437 1.96162 
1.82972 1.72409 1.63936 3.2355 3.31775 3.38947 3.45194 3.50646 3.55417 
3.59609 3.6331 3.66592 3.04769 2.96544 2.89372 2.83124 2.77673 2.72902 
2.6871 2.65009 2.61727 6.28319 6.28319 6.28319 6.28319 3.14159 3.14159 
3.14159 3.14159 3.14159 6.1053 5.8988 5.67687 5.45995 5.26596 5.10322 
4.97131 4.86569 4.78095 0.177881 0.384387 0.606312 0.823235 1.01722 1.17997 
1.31187 1.4175 1.50223 6.18928 6.10703 6.03531 5.97283 5.91832 5.87061 
5.82869 5.79168 5.75886 0.0939024 0.176153 0.247873 0.310351 0.364864 0.412573 
0.454497 0.491504 0.524326 3.31947 3.52598 3.7479 3.96483 4.15881 4.32156 
4.45346 4.55909 4.64383 2.96371 2.75721 2.53528 2.31836 2.12437 1.96162 
1.82972 1.72409 1.63936 3.2355 3.31775 3.38947 3.45194 3.50646 3.55417 
3.59609 3.6331 3.66592 3.04769 2.96544 2.89372 2.83124 2.77673 2.72902 
2.6871 2.65009 2.61727 4.71239 4.71239 4.71239 4.71239 4.71239 4.71239 
4.71239 4.71239 4.71239 4.60879 4.49914 4.3857 4.27128 4.15881 4.05096 
3.94976 3.85646 3.77161 4.81599 4.92564 5.03907 5.1535 5.26596 5.37381 
5.47502 5.56831 5.65317 4.60879 4.49914 4.3857 4.27128 4.15881 4.05096 
3.94976 3.85646 3.77161 4.81599 4.92564 5.03907 5.1535 5.26596 5.37381 
5.47502 5.56831 5.65317 1.5708 1.5708 1.5708 1.5708 1.5708 1.5708 
1.5708 1.5708 1.5708 1.6744 1.78405 1.89748 2.01191 2.12437 2.23222 
2.33343 2.42672 2.51157 1.4672 1.35755 1.24411 1.12969 1.01722 0.909371 
0.808166 0.714871 0.63002 1.6744 1.78405 1.89748 2.01191 2.12437 2.23222 
2.33343 2.42672 2.51157 1.4672 1.35755 1.24411 1.12969 1.01722 0.909371 
0.808166 0.714871 0.63002 3.60077 3.49669 3.38395 3.26458 3.14159 3.01861 
2.89924 2.78649 2.68241 5.82401 5.92808 6.04083 6.1602 6.28319 0.122983 
0.242354 0.355101 0.459179 6.05603 5.78856 5.97021 5.51259 5.60297 5.78856 
5.26596 5.26596 5.26596 5.26596 5.06749 5.0121 4.91556 4.71239 4.15881 
4.91556 4.83537 4.71239 4.50922 4.15881 3.63622 4.80045 4.71239 4.58941 
4.41268 4.15881 3.82181 3.45456 4.71239 4.62433 4.50922 4.35729 4.15881 
3.91219 3.63622 3.36875 6.01742 5.94343 5.82633 5.88092 5.76745 5.62798 
5.8278 5.71897 5.58911 5.43724 5.78235 5.67854 5.55757 5.41926 5.26596 
5.74316 5.64441 5.5315 5.40467 5.26596 5.11955 5.70914 5.61528 5.50962 
5.3926 5.26596 5.13292 4.99789 5.67937 5.59016 5.49102 5.38246 5.26596 
5.14407 5.02016 4.89798 5.56831 5.47502 5.47502 5.37381 5.37381 5.37381 
5.26596 5.26596 5.26596 5.26596 5.1535 5.1535 5.1535 5.1535 5.1535 
5.03907 5.03907 5.03907 5.03907 5.03907 5.03907 4.92564 4.92564 4.92564 
4.92564 4.92564 4.92564 4.92564 4.81599 4.81599 4.81599 4.81599 4.81599 
4.81599 4.81599 4.81599 4.60879 4.60879 4.49914 4.60879 4.49914 4.3857 
4.60879 4.49914 4.3857 4.27128 4.60879 4.49914 4.3857 4.27128 4.15881 
4.60879 4.49914 4.3857 4.27128 4.15881 4.05096 4.60879 4.49914 4.3857 
4.27128 4.15881 4.05096 3.94976 4.60879 4.49914 4.3857 4.27128 4.15881 
4.05096 3.94976 3.85646 4.5268 4.40462 4.42689 4.28071 4.29185 4.30523 
4.15881 4.15881 4.15881 4.15881 4.04232 4.03217 4.02011 4.00552 3.98753 
3.93376 3.91515 3.89328 3.86721 3.83566 3.7968 3.83461 3.8095 3.78037 
3.74624 3.70581 3.65733 3.59845 3.7454 3.71564 3.68161 3.64243 3.59698 
3.54386 3.48135 3.40735 3.56428 3.45246 3.52338 3.33203 3.40312 3.47739 
3.20576 3.27463 3.34802 3.42551 3.07742 3.14159 3.21128 3.28647 3.36688 
2.95116 3.00855 3.0719 3.14159 3.21784 3.3006 2.83072 2.88006 2.93517 
2.99672 3.06535 3.14159 3.22575 2.7189 2.7598 2.8058 2.85768 2.9163 
2.98259 3.05743 3.14159 3.56428 3.52338 3.45246 3.47739 3.40312 3.33203 
3.42551 3.34802 3.27463 3.20576 3.36688 3.28647 3.21128 3.14159 3.07742 
3.3006 3.21784 3.14159 3.0719 3.00855 2.95116 3.22575 3.14159 3.06535 
2.99672 2.93517 2.88006 2.83072 3.14159 3.05743 2.98259 2.9163 2.85768 
2.8058 2.7598 2.7189 4.5268 4.42689 4.40462 4.30523 4.29185 4.28071 
4.15881 4.15881 4.15881 4.15881 3.98753 4.00552 4.02011 4.03217 4.04232 
3.7968 3.83566 3.86721 3.89328 3.91515 3.93376 3.59845 3.65733 3.70581 
3.74624 3.78037 3.8095 3.83461 3.40735 3.48135 3.54386 3.59698 3.64243 
3.68161 3.71564 3.7454 4.71239 4.80045 4.62433 4.91556 4.71239 4.50922 
5.06749 4.83537 4.58941 4.35729 5.26596 5.0121 4.71239 4.41268 4.15881 
5.51259 5.26596 4.91556 4.50922 4.15881 3.91219 5.78856 5.60297 5.26596 
4.71239 4.15881 3.82181 3.63622 6.05603 5.97021 5.78856 5.26596 4.15881 
3.63622 3.45456 3.36875 0.227158 0.494626 0.312971 0.770593 0.680215 0.494626 
1.01722 1.01722 1.01722 1.01722 1.2157 1.27109 1.36763 1.5708 2.12437 
1.36763 1.44781 1.5708 1.77397 2.12437 2.64697 1.48273 1.5708 1.69378 
1.8705 2.12437 2.46138 2.82862 1.5708 1.65886 1.77397 1.9259 2.12437 
2.371 2.64697 2.91443 1.75639 1.87857 1.8563 2.00248 1.99133 1.97796 
2.12437 2.12437 2.12437 2.12437 2.24087 2.25101 2.26308 2.27767 2.29565 
2.34943 2.36803 2.38991 2.41597 2.44752 2.48639 2.44857 2.47368 2.50281 
2.53694 2.57738 2.62586 2.68474 2.53778 2.56754 2.60157 2.64076 2.68621 
2.73933 2.80184 2.87583 1.6744 1.6744 1.78405 1.6744 1.78405 1.89748 
1.6744 1.78405 1.89748 2.01191 1.6744 1.78405 1.89748 2.01191 2.12437 
1.6744 1.78405 1.89748 2.01191 2.12437 2.23222 1.6744 1.78405 1.89748 
2.01191 2.12437 2.23222 2.33343 1.6744 1.78405 1.89748 2.01191 2.12437 
2.23222 2.33343 2.42672 1.4672 1.35755 1.4672 1.24411 1.35755 1.4672 
1.12969 1.24411 1.35755 1.4672 1.01722 1.12969 1.24411 1.35755 1.4672 
0.909371 1.01722 1.12969 1.24411 1.35755 1.4672 0.808166 0.909371 1.01722 
1.12969 1.24411 1.35755 1.4672 0.714871 0.808166 0.909371 1.01722 1.12969 
1.24411 1.35755 1.4672 0.603812 0.57405 0.693022 0.540021 0.667908 0.792164 
0.500837 0.638778 0.773562 0.900726 0.455383 0.604649 0.751687 0.890581 1.01722 
0.402264 0.564217 0.725619 0.878514 1.01722 1.13912 0.339753 0.515737 0.694072 
0.863926 1.01722 1.15026 1.26302 0.265762 0.456853 0.655207 0.845941 1.01722 
1.16363 1.28529 1.38521 0.227158 0.312971 0.494626 0.494626 0.680215 0.770593 
1.01722 1.01722 1.01722 1.01722 2.12437 1.5708 1.36763 1.27109 1.2157 
2.64697 2.12437 1.77397 1.5708 1.44781 1.36763 2.82862 2.46138 2.12437 
1.8705 1.69378 1.5708 1.48273 2.91443 2.64697 2.371 2.12437 1.9259 
1.77397 1.65886 1.5708 1.75639 1.8563 1.87857 1.97796 1.99133 2.00248 
2.12437 2.12437 2.12437 2.12437 2.29565 2.27767 2.26308 2.25101 2.24087 
2.48639 2.44752 2.41597 2.38991 2.36803 2.34943 2.68474 2.62586 2.57738 
2.53694 2.50281 2.47368 2.44857 2.87583 2.80184 2.73933 2.68621 2.64076 
2.60157 2.56754 2.53778 5.86049 5.90139 5.97231 5.94739 6.02165 6.09275 
5.99927 6.07676 6.15015 6.21902 6.0579 6.13831 6.2135 0 0.0641696 
6.12418 6.20694 6.28319 0.069689 0.13304 0.190437 6.19903 0 0.0762451 
0.144876 0.206423 0.261531 0.310872 0 0.0841597 0.159004 0.225289 0.283913 
0.335793 0.381792 0.422692 5.86049 5.97231 5.90139 6.09275 6.02165 5.94739 
6.21902 6.15015 6.07676 5.99927 0.0641696 0 6.2135 6.13831 6.0579 
0.190437 0.13304 0.069689 6.28319 6.20694 6.12418 0.310872 0.261531 0.206423 
0.144876 0.0762451 6.28319 6.19903 0.422692 0.381792 0.335793 0.283913 0.225289 
0.159004 0.0841597 0 5.67937 5.70914 5.59016 5.74316 5.61528 5.49102 
5.78235 5.64441 5.50962 5.38246 5.8278 5.67854 5.5315 5.3926 5.26596 
5.88092 5.71897 5.55757 5.40467 5.26596 5.14407 5.94343 5.76745 5.58911 
5.41926 5.26596 5.13292 5.02016 6.01742 5.82633 5.62798 5.43724 5.26596 
5.11955 4.99789 4.89798 1.38521 1.28529 1.26302 1.16363 1.15026 1.13912 
1.01722 1.01722 1.01722 1.01722 0.845941 0.863926 0.878514 0.890581 0.900726 
0.655207 0.694072 0.725619 0.751687 0.773562 0.792164 0.456853 0.515737 0.564217 
0.604649 0.638778 0.667908 0.693022 0.265762 0.339753 0.402264 0.455383 0.500837 
0.540021 0.57405 0.603812 
