# vtk DataFile Version 4.0
vtk output
ASCII
DATASET POLYDATA
POINTS 1002 float
-84.401 -85.7732 59.9713 -76.8 -97.2907 68.15 -73.4978 -80.4635 59.3564 
-69.0569 -95.4583 67.0864 -79.5424 -87.2504 72.149 -73.125 -84.374 71.9081 
-77.7062 -93.4202 57.5489 -71.8506 -93.004 57.3401 -72.235 -99.6198 75.8694 
-80.5611 -76.8612 62.253 -71.5944 -108.216 63.2204 -82.1798 -81.2059 51.1064 
-83.5863 -86.4093 60.6756 -82.6488 -87.2422 61.6598 -81.5294 -88.1444 62.7788 
-80.3938 -88.9324 63.82 -79.5866 -90.0616 64.8347 -79.1068 -91.8226 65.8078 
-78.6301 -93.5851 66.5325 -78.0244 -94.948 67.0766 -77.3811 -96.1339 67.6246 
-84.1001 -85.6756 61.0507 -83.633 -85.5749 62.164 -83.0933 -85.5714 63.4359 
-82.7522 -85.8404 65.0222 -82.5525 -86.233 66.7807 -82.2164 -86.4166 68.4349 
-81.6976 -86.4711 69.7334 -81.0066 -86.6559 70.592 -80.2125 -86.9598 71.2996 
-84.1739 -86.2633 59.2892 -83.9327 -86.7882 58.6651 -83.6078 -87.4108 58.209 
-83.0962 -88.233 57.8753 -82.3629 -89.1218 57.5253 -81.4479 -89.8591 57.2475 
-80.461 -90.6162 57.1892 -79.4988 -91.5885 57.2787 -78.5726 -92.5839 57.4079 
-84.99 -85.0179 60.0725 -85.3324 -84.0224 60.207 -85.2639 -82.8347 60.3495 
-84.9858 -81.526 60.5941 -84.6414 -80.1742 60.9519 -84.0685 -79.0768 61.2618 
-83.2434 -78.3971 61.4763 -82.3072 -77.8768 61.6977 -81.3743 -77.3375 61.9592 
-85.1021 -85.4354 58.9452 -86.0465 -84.9719 57.9147 -87.0149 -84.4028 56.7614 
-87.2977 -83.9338 55.3617 -86.7107 -83.5987 54.0531 -85.9769 -83.0803 53.1164 
-85.4451 -82.3199 52.2568 -84.7074 -81.6774 51.4539 -83.5384 -81.3416 51.0725 
-77.2186 -96.6572 68.8399 -77.7022 -95.9586 69.5346 -78.3101 -95.1943 70.1995 
-79.0691 -94.4293 70.891 -79.7654 -93.6345 71.5648 -80.1283 -92.5757 72.0666 
-80.1709 -91.154 72.3377 -80.0358 -89.6219 72.4039 -79.8007 -88.291 72.3121 
-76.692 -97.1253 67.1978 -76.4443 -96.7867 66.3467 -76.0935 -96.2828 65.5316 
-75.9093 -95.7478 64.4739 -76.1369 -95.3752 63.2136 -76.5737 -95.112 62.0018 
-76.8761 -94.704 60.8097 -77.0842 -94.1641 59.6211 -77.367 -93.7181 58.5392 
-76.5065 -98.0424 69.0579 -76.2448 -98.7811 70.0061 -75.975 -99.5523 71.0909 
-75.5892 -100.314 72.2526 -75.1747 -100.84 73.2527 -74.8337 -101.064 74.202 
-74.3482 -101.145 75.2236 -73.5814 -101.006 75.9354 -72.7887 -100.457 76.0773 
-76.264 -98.4844 68.0274 -75.8412 -99.8805 67.8809 -75.543 -101.381 67.7026 
-75.2388 -102.921 67.3988 -74.7039 -104.31 66.8771 -73.9268 -105.279 66.2215 
-73.2334 -106.049 65.5192 -72.7582 -106.974 64.7206 -72.255 -107.826 63.8891 
-72.8305 -81.4377 60.0148 -72.2531 -82.7763 60.8179 -71.6887 -84.2776 61.6864 
-71.001 -85.7026 62.5349 -70.3086 -87.1773 63.3919 -69.9035 -88.9343 64.2862 
-69.7411 -90.8663 65.1304 -69.5497 -92.6478 65.8458 -69.2838 -94.1383 66.4743 
-73.3499 -80.4898 60.4438 -73.265 -80.6455 61.7152 -73.1451 -80.9313 62.9998 
-73.065 -81.3923 64.2963 -73.0999 -81.951 65.6217 -73.146 -82.4614 66.9359 
-73.1583 -82.9412 68.2742 -73.1705 -83.4444 69.5885 -73.1595 -83.9315 70.7926 
-73.2998 -81.1035 58.8262 -73.1753 -82.0055 58.4057 -73.1084 -83.1497 58.0564 
-73.0091 -84.3806 57.7569 -72.8474 -85.7272 57.5665 -72.662 -87.2714 57.4757 
-72.4672 -88.8031 57.4122 -72.2683 -90.1967 57.3773 -72.0646 -91.5873 57.3681 
-74.0993 -79.6199 59.3715 -74.7693 -78.6987 59.4082 -75.4904 -77.6503 59.4525 
-76.1597 -76.5772 59.6067 -76.8103 -75.737 60.0401 -77.7226 -75.3237 60.6908 
-78.8282 -75.3046 61.2824 -79.68 -75.608 61.6883 -80.1777 -76.1813 61.9834 
-74.1985 -80.0678 58.4525 -75.0895 -79.7329 57.5748 -75.9645 -79.3632 56.5767 
-76.7873 -79.0304 55.4788 -77.7359 -78.8811 54.4485 -78.7115 -78.9763 53.4958 
-79.4612 -79.326 52.6429 -80.1678 -79.8846 51.9883 -81.1139 -80.5359 51.4903 
-69.2492 -94.5787 67.7827 -69.583 -93.6022 68.3729 -69.9889 -92.4316 68.8238 
-70.3236 -90.9761 69.3544 -70.6401 -89.482 70.0027 -71.2397 -88.4061 70.4455 
-72.0582 -87.6305 70.6751 -72.6449 -86.6501 71.0204 -72.9051 -85.4472 71.5057 
-69.0355 -95.4795 66.0224 -68.9448 -95.4473 64.9672 -68.853 -95.3922 63.7073 
-68.9276 -95.3078 62.2754 -69.1977 -95.163 61.0958 -69.5376 -94.955 60.1571 
-69.9521 -94.6455 59.2393 -70.5584 -94.1889 58.5073 -71.2608 -93.6157 57.9572 
-68.9581 -96.26 68.2035 -68.9987 -97.1178 69.2783 -69.3 -97.9574 70.101 
-69.6418 -98.6654 70.9489 -69.8035 -99.1895 72.1071 -70.1385 -99.5424 73.1944 
-70.8532 -99.7083 73.9065 -71.4892 -99.7156 74.5243 -71.8403 -99.6708 75.2328 
-68.9509 -96.9425 67.0065 -69.011 -98.7899 66.8734 -69.054 -100.808 66.6977 
-68.9757 -102.647 66.4515 -69.0879 -104.197 66.0397 -69.4706 -105.576 65.4389 
-69.7592 -106.827 64.743 -70.0663 -107.83 64.058 -70.7411 -108.341 63.5122 
-79.0764 -86.8155 72.6763 -78.6317 -86.3421 73.1953 -78.0683 -85.8477 73.5858 
-77.284 -85.2574 73.9269 -76.3836 -84.5749 74.2433 -75.4901 -84.0917 74.342 
-74.6225 -83.9606 74.0959 -73.87 -84.0014 73.5414 -73.3704 -84.1241 72.7693 
-79.222 -88.1337 73.2776 -78.911 -89.1796 74.3956 -78.3334 -90.4181 75.2282 
-77.4042 -91.6839 75.7878 -76.3418 -92.788 76.2381 -75.4185 -93.9683 76.5354 
-74.6166 -95.5149 76.6052 -73.7356 -97.1611 76.5367 -72.8492 -98.5352 76.3269 
-79.7436 -86.1306 71.4213 -80.1719 -84.8274 70.8161 -80.5987 -83.387 70.1969 
-80.7658 -82.1256 69.2135 -80.7784 -81.0721 67.9163 -80.7532 -79.9789 66.6395 
-80.6244 -78.9619 65.3976 -80.4876 -78.1962 64.1578 -80.4783 -77.5346 63.0894 
-72.9482 -85.4539 72.8121 -72.8114 -86.7303 73.649 -72.6796 -88.2435 74.3254 
-72.5157 -89.8879 74.9617 -72.3641 -91.473 75.5984 -72.3024 -93.0028 75.9568 
-72.2613 -94.6099 75.9728 -72.1725 -96.3172 75.9232 -72.138 -98.0313 75.9173 
-73.5517 -83.2207 71.4574 -74.2449 -82.1619 70.8405 -75.0429 -81.1196 70.0615 
-75.7662 -79.9102 69.1436 -76.5731 -78.554 68.2233 -77.5839 -77.5047 67.2599 
-78.4809 -77.08 65.9825 -79.1296 -76.9925 64.4821 -79.7885 -76.9125 63.1827 
-77.3816 -93.7416 57.0055 -76.9481 -94.0807 56.4216 -76.3667 -94.4418 55.9602 
-75.701 -94.6397 55.8306 -74.9903 -94.4583 56.0267 -74.1461 -94.1502 56.2837 
-73.2141 -94.0221 56.4172 -72.4732 -93.8731 56.5606 -72.064 -93.4949 56.8894 
-76.6913 -94.4534 58.2955 -75.7806 -95.9125 59.0059 -75.0793 -97.9088 59.5669 
-74.5921 -100.074 59.888 -74.1178 -101.956 60.1358 -73.4943 -103.493 60.6494 
-72.9354 -104.872 61.3832 -72.5652 -106.215 62.0121 -72.1518 -107.41 62.543 
-78.5984 -92.6142 56.4163 -79.5278 -91.5519 55.2085 -80.3485 -90.2636 54.0265 
-81.0107 -89.0767 52.8271 -81.5974 -88.0974 51.7231 -82.087 -86.9324 51.0821 
-82.3816 -85.3743 50.8847 -82.4901 -83.7346 50.8076 -82.425 -82.332 50.8436 
-71.2432 -94.8687 57.5953 -70.5771 -96.8574 57.6112 -70.201 -98.8974 57.6802 
-70.2133 -100.922 58.0538 -70.2212 -102.786 58.5567 -70.1834 -104.385 59.1825 
-70.4466 -105.766 60.1601 -70.9001 -106.94 61.2712 -71.2711 -107.786 62.2487 
-72.462 -91.4898 56.4991 -73.1976 -89.9711 55.5047 -74.3481 -88.4763 54.7562 
-75.7267 -86.9507 54.1518 -76.8235 -85.5327 53.1997 -77.6592 -84.3798 52.0725 
-78.6062 -83.3975 51.3751 -79.7487 -82.5211 51.1408 -80.9794 -81.798 51.0796 
-72.1375 -101.216 75.3277 -72.1585 -102.975 74.7326 -72.1412 -104.677 74.2576 
-71.9378 -105.937 73.3838 -71.7044 -106.764 71.7484 -71.6796 -107.491 69.9761 
-71.7111 -108.157 68.318 -71.607 -108.546 66.4503 -71.5176 -108.555 64.6075 
-81.1125 -76.4962 61.2512 -81.5881 -76.3237 59.9527 -82.0245 -76.4513 58.324 
-82.5045 -76.7906 56.7068 -82.8451 -77.1567 55.1458 -82.925 -77.5472 53.5691 
-82.9269 -78.1679 52.4216 -82.8781 -79.1085 51.8451 -82.6286 -80.1872 51.4507 
-83.1184 -86.3777 61.8107 -82.6021 -86.4022 63.0333 -82.012 -87.2686 62.8733 
-82.3597 -86.6737 64.5779 -81.6465 -87.4668 64.2654 -80.9194 -88.1837 64.0722 
-82.3141 -87.1986 66.3186 -81.7493 -88.0197 65.8766 -80.8849 -88.6655 65.5293 
-80.0914 -89.2269 65.1964 -82.008 -87.6008 67.9423 -81.745 -88.6657 67.3822 
-81.1998 -89.5383 66.9076 -80.3658 -90.1402 66.5631 -79.6253 -90.8317 66.2039 
-81.5129 -87.727 69.4379 -81.402 -89.0795 68.8951 -81.247 -90.3208 68.2238 
-80.7011 -91.1658 67.7321 -79.903 -91.8319 67.422 -79.2202 -92.6917 67.0246 
-81.041 -87.8346 70.6524 -81.1002 -89.3239 70.4793 -81.1364 -90.8637 69.898 
-80.802 -91.9425 69.1444 -80.0278 -92.5951 68.607 -79.2371 -93.3447 68.2074 
-78.6192 -94.2244 67.6791 -80.4506 -88.0502 71.5045 -80.6985 -89.4996 71.6371 
-80.8681 -91.1496 71.4475 -80.7027 -92.4695 70.8522 -80.0259 -93.2269 70.1108 
-79.1431 -93.8659 69.4944 -78.4415 -94.685 68.9378 -77.9005 -95.4866 68.2926 
-84.6884 -84.9059 61.2728 -85.0182 -83.9047 61.5992 -84.1301 -84.7396 62.4796 
-84.9711 -82.6262 61.8892 -84.3391 -83.6817 62.8404 -83.3805 -84.6489 63.745 
-84.5865 -81.2354 62.0932 -84.1663 -82.4356 63.023 -83.3779 -83.5197 63.9619 
-82.8496 -84.787 65.3171 -83.8885 -80.0487 62.2291 -83.5612 -81.2997 63.0702 
-83.0451 -82.3934 64.0442 -82.6993 -83.4959 65.5363 -82.6039 -84.9662 67.2073 
-83.0501 -79.2053 62.3473 -82.7234 -80.3782 63.1943 -82.4174 -81.5238 64.2189 
-82.2782 -82.4028 65.752 -82.4035 -83.5635 67.5623 -82.2841 -85.0855 68.9136 
-82.2188 -78.5517 62.5337 -81.9865 -79.4904 63.4828 -81.7984 -80.6574 64.607 
-81.7344 -81.651 66.0374 -81.8995 -82.5594 67.7542 -82.0034 -83.8579 69.1706 
-81.6145 -85.3404 69.9813 -81.3359 -77.9856 62.7929 -81.2758 -78.7045 63.8381 
-81.2673 -79.682 65.0602 -81.2658 -80.8295 66.3667 -81.3163 -81.8535 67.8246 
-81.4028 -82.9535 69.2009 -81.1846 -84.3453 70.0847 -80.6538 -85.7387 70.6567 
-79.7398 -77.6605 64.2358 -79.1793 -77.8336 65.6554 -79.8572 -78.4235 65.4638 
-78.5284 -78.0281 67.1045 -79.2911 -78.7399 66.8398 -80.0544 -79.2967 66.7235 
-77.5402 -78.5039 68.4452 -78.5157 -79.0369 68.3242 -79.3719 -79.6815 68.1514 
-80.1493 -80.3024 68.0368 -76.4958 -79.4729 69.6802 -77.5048 -79.547 69.9003 
-78.532 -80.0555 69.8336 -79.4061 -80.6256 69.6654 -80.1348 -81.3213 69.4269 
-75.6287 -80.7216 70.7069 -76.4927 -80.5304 71.1713 -77.5685 -80.7748 71.282 
-78.5672 -81.2222 71.1718 -79.3472 -81.7694 70.9265 -79.9824 -82.5521 70.5434 
-74.7879 -81.9355 71.5062 -75.531 -81.7758 72.0517 -76.4952 -81.8802 72.251 
-77.5299 -82.2796 72.1399 -78.4186 -82.7719 71.9609 -79.0714 -83.3704 71.6837 
[...]
POINT_DATA 1002
FIELD FieldData 2
Theta 1 1002 float
2.58802 2.58802 0.553574 0.553574 2.12437 1.01722 2.12437 1.01722 1.5708 
1.5708 1.5708 1.5708 2.68241 2.78649 2.89924 3.01861 3.14159 3.01861 
2.89924 2.78649 2.68241 2.61035 2.61791 2.60515 2.56958 2.51327 2.44184 
2.36202 2.27983 2.1997 2.61035 2.61791 2.60515 2.56958 2.51327 2.44184 
2.36202 2.27983 2.1997 2.50947 2.41899 2.31794 2.20864 2.0944 1.97902 
1.86631 1.75944 1.66056 2.50947 2.41899 2.31794 2.20864 2.0944 1.97902 
1.86631 1.75944 1.66056 2.61035 2.61791 2.60515 2.56958 2.51327 2.44184 
2.36202 2.27983 2.1997 2.61035 2.61791 2.60515 2.56958 2.51327 2.44184 
2.36202 2.27983 2.1997 2.50947 2.41899 2.31794 2.20864 2.0944 1.97902 
1.86631 1.75944 1.66056 2.50947 2.41899 2.31794 2.20864 2.0944 1.97902 
1.86631 1.75944 1.66056 0.459179 0.355101 0.242354 0.122983 0 0.122983 
0.242354 0.355101 0.459179 0.531246 0.523681 0.536438 0.57201 0.628319 0.699757 
0.779574 0.86176 0.941896 0.531246 0.523681 0.536438 0.57201 0.628319 0.699757 
0.779574 0.86176 0.941896 0.632123 0.7226 0.823657 0.932948 1.0472 1.16257 
1.27528 1.38216 1.48103 0.632123 0.7226 0.823657 0.932948 1.0472 1.16257 
1.27528 1.38216 1.48103 0.531246 0.523681 0.536438 0.57201 0.628319 0.699757 
0.779574 0.86176 0.941896 0.531246 0.523681 0.536438 0.57201 0.628319 0.699757 
0.779574 0.86176 0.941896 0.632123 0.7226 0.823657 0.932948 1.0472 1.16257 
1.27528 1.38216 1.48103 0.632123 0.7226 0.823657 0.932948 1.0472 1.16257 
1.27528 1.38216 1.48103 2.02998 1.9259 1.81315 1.69378 1.5708 1.44781 
1.32844 1.2157 1.11162 2.0928 2.05283 2.00422 1.94767 1.88496 1.81867 
1.75177 1.68695 1.62623 2.0928 2.05283 2.00422 1.94767 1.88496 1.81867 
1.75177 1.68695 1.62623 1.0488 1.08876 1.13737 1.19392 1.25664 1.32292 
1.38982 1.45464 1.51537 1.0488 1.08876 1.13737 1.19392 1.25664 1.32292 
1.38982 1.45464 1.51537 2.02998 1.9259 1.81315 1.69378 1.5708 1.44781 
1.32844 1.2157 1.11162 2.0928 2.05283 2.00422 1.94767 1.88496 1.81867 
1.75177 1.68695 1.62623 2.0928 2.05283 2.00422 1.94767 1.88496 1.81867 
1.75177 1.68695 1.62623 1.0488 1.08876 1.13737 1.19392 1.25664 1.32292 
1.38982 1.45464 1.51537 1.0488 1.08876 1.13737 1.19392 1.25664 1.32292 
1.38982 1.45464 1.51537 1.5708 1.5708 1.5708 1.5708 1.5708 1.5708 
1.5708 1.5708 1.5708 1.5708 1.5708 1.5708 1.5708 1.5708 1.5708 
1.5708 1.5708 1.5708 2.70908 2.71362 2.81592 2.68886 2.81002 2.92597 
2.6349 2.76254 2.89233 3.01997 2.55881 2.68262 2.80854 2.92834 3.01997 
2.47007 2.58462 2.70048 2.80854 2.89233 2.92597 2.37702 2.48017 2.58462 
2.68262 2.76254 2.81002 2.81592 2.28567 2.37702 2.47007 2.55881 2.6349 
2.68886 2.71362 2.70908 2.52097 2.4195 2.51718 2.30791 2.40503 2.49426 
2.18928 2.28408 2.3734 2.45144 2.06758 2.15805 2.24572 2.32523 2.39165 
1.94707 2.03138 2.11543 2.19453 2.26401 2.32035 1.83164 1.90847 1.98711 
2.06376 2.13422 2.1949 2.24359 1.72413 1.79288 1.86489 1.93728 2.00658 
2.06938 2.12312 2.16654 1.5708 1.50988 1.63171 1.44492 1.5708 1.69667 
1.37826 1.5059 1.63569 1.76333 1.31281 1.43962 1.5708 1.70197 1.82878 
1.25155 1.37501 1.50478 1.63681 1.76659 1.89004 1.19686 1.31493 1.44074 
1.5708 1.70086 1.82666 1.94473 1.15011 1.26149 1.38136 1.50697 1.63462 
1.76024 1.88011 1.99148 1.99148 1.88011 1.94473 1.76024 1.82666 1.89004 
1.63462 1.70086 1.76659 1.82878 1.50697 1.5708 1.63681 1.70197 1.76333 
1.38136 1.44074 1.50478 1.5708 1.63569 1.69667 1.26149 1.31493 1.37501 
1.43962 1.5059 1.5708 1.63171 1.15011 1.19686 1.25155 1.31281 1.37826 
1.44492 1.50988 1.5708 2.16654 2.12312 2.24359 2.06938 2.1949 2.32035 
2.00658 2.13422 2.26401 2.39165 1.93728 2.06376 2.19453 2.32523 2.45144 
1.86489 1.98711 2.11543 2.24572 2.3734 2.49426 1.79288 1.90847 2.03138 
2.15805 2.28408 2.40503 2.51718 1.72413 1.83164 1.94707 2.06758 2.18928 
2.30791 2.4195 2.52097 1.66533 1.66946 1.76911 1.67254 1.777 1.88041 
1.67418 1.78222 1.89102 1.99634 1.67418 1.78405 1.89674 2.00785 2.11299 
1.67254 1.78222 1.89674 2.01191 2.12307 2.22608 1.66946 1.777 1.89102 
2.00785 2.12307 2.23222 2.33166 1.66533 1.76911 1.88041 1.99634 2.11299 
2.22608 2.33166 2.42672 1.47626 1.37249 1.47213 1.26118 1.36459 1.46906 
1.14526 1.25058 1.35938 1.46741 1.0286 1.13374 1.24485 1.35755 1.46741 
0.915514 1.01852 1.12969 1.24485 1.35938 1.46906 0.809937 0.909371 1.01852 
1.13374 1.25058 1.36459 1.47213 0.714871 0.809937 0.915514 1.0286 1.14526 
1.26118 1.37249 1.47626 0.975055 0.898002 1.01847 0.821245 0.946693 1.07221 
0.749941 0.877585 1.00737 1.13501 0.690152 0.816367 0.94706 1.07784 1.20431 
0.647337 0.768195 0.895868 1.02616 1.15448 1.2767 0.624416 0.736561 0.857515 
0.983547 1.11021 1.23313 1.34871 0.620619 0.722093 0.833684 0.952313 1.07402 
1.19452 1.30996 1.41746 0.855925 0.764569 0.764569 0.671524 0.661425 0.671524 
0.582786 0.556971 0.556971 0.582786 0.506696 0.458968 0.441109 0.458968 0.506696 
0.45273 0.379052 0.333054 0.333054 0.379052 0.45273 0.427969 0.331576 0.249267 
0.21325 0.249267 0.331576 0.427969 0.432512 0.325669 0.215619 0.121622 0.121622 
0.215619 0.325669 0.432512 0.432512 0.427969 0.325669 0.45273 0.331576 0.215619 
0.506696 0.379052 0.249267 0.121622 0.582786 0.458968 0.333054 0.21325 0.121622 
0.671524 0.556971 0.441109 0.333054 0.249267 0.215619 0.764569 0.661425 0.556971 
0.458968 0.379052 0.331576 0.325669 0.855925 0.764569 0.671524 0.582786 0.506696 
0.45273 0.427969 0.432512 0.975055 1.01847 0.898002 1.07221 0.946693 0.821245 
1.13501 1.00737 0.877585 0.749941 1.20431 1.07784 0.94706 0.816367 0.690152 
1.2767 1.15448 1.02616 0.895868 0.768195 0.647337 1.34871 1.23313 1.11021 
0.983547 0.857515 0.736561 0.624416 1.41746 1.30996 1.19452 1.07402 0.952313 
0.833684 0.722093 0.620619 1.15011 1.26149 1.19686 1.38136 1.31493 1.25155 
1.50697 1.44074 1.37501 1.31281 1.63462 1.5708 1.50478 1.43962 1.37826 
1.76024 1.70086 1.63681 1.5708 1.5059 1.44492 1.88011 1.82666 1.76659 
1.70197 1.63569 1.5708 1.50988 1.99148 1.94473 1.89004 1.82878 1.76333 
1.69667 1.63171 1.5708 1.15011 1.19686 1.26149 1.25155 1.31493 1.38136 
1.31281 1.37501 1.44074 1.50697 1.37826 1.43962 1.50478 1.5708 1.63462 
1.44492 1.5059 1.5708 1.63681 1.70086 1.76024 1.50988 1.5708 1.63569 
1.70197 1.76659 1.82666 1.88011 1.5708 1.63171 1.69667 1.76333 1.82878 
1.89004 1.94473 1.99148 1.72413 1.83164 1.79288 1.94707 1.90847 1.86489 
2.06758 2.03138 1.98711 1.93728 2.18928 2.15805 2.11543 2.06376 2.00658 
2.30791 2.28408 2.24572 2.19453 2.13422 2.06938 2.4195 2.40503 2.3734 
2.32523 2.26401 2.1949 2.12312 2.52097 2.51718 2.49426 2.45144 2.39165 
2.32035 2.24359 2.16654 2.70908 2.81592 2.71362 2.92597 2.81002 2.68886 
3.01997 2.89233 2.76254 2.6349 3.01997 2.92834 2.80854 2.68262 2.55881 
2.92597 2.89233 2.80854 2.70048 2.58462 2.47007 2.81592 2.81002 2.76254 
2.68262 2.58462 2.48017 2.37702 2.70908 2.71362 2.68886 2.6349 2.55881 
2.47007 2.37702 2.28567 2.16654 2.24359 2.12312 2.32035 2.1949 2.06938 
2.39165 2.26401 2.13422 2.00658 2.45144 2.32523 2.19453 2.06376 1.93728 
2.49426 2.3734 2.24572 2.11543 1.98711 1.86489 2.51718 2.40503 2.28408 
2.15805 2.03138 1.90847 1.79288 2.52097 2.4195 2.30791 2.18928 2.06758 
1.94707 1.83164 1.72413 1.66533 1.76911 1.66946 1.88041 1.777 1.67254 
1.99634 1.89102 1.78222 1.67418 2.11299 2.00785 1.89674 1.78405 1.67418 
2.22608 2.12307 2.01191 1.89674 1.78222 1.67254 2.33166 2.23222 2.12307 
2.00785 1.89102 1.777 1.66946 2.42672 2.33166 2.22608 2.11299 1.99634 
1.88041 1.76911 1.66533 1.47626 1.47213 1.37249 1.46906 1.36459 1.26118 
1.46741 1.35938 1.25058 1.14526 1.46741 1.35755 1.24485 1.13374 1.0286 
1.46906 1.35938 1.24485 1.12969 1.01852 0.915514 1.47213 1.36459 1.25058 
1.13374 1.01852 0.909371 0.809937 1.47626 1.37249 1.26118 1.14526 1.0286 
0.915514 0.809937 0.714871 1.41746 1.30996 1.34871 1.19452 1.23313 1.2767 
1.07402 1.11021 1.15448 1.20431 0.952313 0.983547 1.02616 1.07784 1.13501 
0.833684 0.857515 0.895868 0.94706 1.00737 1.07221 0.722093 0.736561 0.768195 
0.816367 0.877585 0.946693 1.01847 0.620619 0.624416 0.647337 0.690152 0.749941 
0.821245 0.898002 0.975055 0.975055 0.898002 1.01847 0.821245 0.946693 1.07221 
0.749941 0.877585 1.00737 1.13501 0.690152 0.816367 0.94706 1.07784 1.20431 
0.647337 0.768195 0.895868 1.02616 1.15448 1.2767 0.624416 0.736561 0.857515 
0.983547 1.11021 1.23313 1.34871 0.620619 0.722093 0.833684 0.952313 1.07402 
1.19452 1.30996 1.41746 
Phi 1 1002 float
6.28319 3.14159 6.28319 3.14159 4.71239 4.71239 1.5708 1.5708 3.69517 
5.72961 2.58802 0.553574 6.28319 6.28319 6.28319 6.28319 3.14159 3.14159 
3.14159 3.14159 3.14159 6.1053 5.8988 5.67687 5.45995 5.26596 5.10322 
4.97131 4.86569 4.78095 0.177881 0.384387 0.606312 0.823235 1.01722 1.17997 
1.31187 1.4175 1.50223 6.18928 6.10703 6.03531 5.97283 5.91832 5.87061 
5.82869 5.79168 5.75886 0.0939024 0.176153 0.247873 0.310351 0.364864 0.412573 
0.454497 0.491504 0.524326 3.31947 3.52598 3.7479 3.96483 4.15881 4.32156 
4.45346 4.55909 4.64383 2.96371 2.75721 2.53528 2.31836 2.12437 1.96162 
1.82972 1.72409 1.63936 3.2355 3.31775 3.38947 3.45194 3.50646 3.55417 
3.59609 3.6331 3.66592 3.04769 2.96544 2.89372 2.83124 2.77673 2.72902 
2.6871 2.65009 2.61727 6.28319 6.28319 6.28319 6.28319 3.14159 3.14159 
3.14159 3.14159 3.14159 6.1053 5.8988 5.67687 5.45995 5.26596 5.10322 
4.97131 4.86569 4.78095 0.177881 0.384387 0.606312 0.823235 1.01722 1.17997 
1.31187 1.4175 1.50223 6.18928 6.10703 6.03531 5.97283 5.91832 5.87061 
5.82869 5.79168 5.75886 0.0939024 0.176153 0.247873 0.310351 0.364864 0.412573 
0.454497 0.491504 0.524326 3.31947 3.52598 3.7479 3.96483 4.15881 4.32156 
4.45346 4.55909 4.64383 2.96371 2.75721 2.53528 2.31836 2.12437 1.96162 
1.82972 1.72409 1.63936 3.2355 3.31775 3.38947 3.45194 3.50646 3.55417 
3.59609 3.6331 3.66592 3.04769 2.96544 2.89372 2.83124 2.77673 2.72902 
2.6871 2.65009 2.61727 4.71239 4.71239 4.71239 4.71239 4.71239 4.71239 
4.71239 4.71239 4.71239 4.60879 4.49914 4.3857 4.27128 4.15881 4.05096 
3.94976 3.85646 3.77161 4.81599 4.92564 5.03907 5.1535 5.26596 5.37381 
5.47502 5.56831 5.65317 4.60879 4.49914 4.3857 4.27128 4.15881 4.05096 
3.94976 3.85646 3.77161 4.81599 4.92564 5.03907 5.1535 5.26596 5.37381 
5.47502 5.56831 5.65317 1.5708 1.5708 1.5708 1.5708 1.5708 1.5708 
1.5708 1.5708 1.5708 1.6744 1.78405 1.89748 2.01191 2.12437 2.23222 
2.33343 2.42672 2.51157 1.4672 1.35755 1.24411 1.12969 1.01722 0.909371 
0.808166 0.714871 0.63002 1.6744 1.78405 1.89748 2.01191 2.12437 2.23222 
2.33343 2.42672 2.51157 1.4672 1.35755 1.24411 1.12969 1.01722 0.909371 
0.808166 0.714871 0.63002 3.60077 3.49669 3.38395 3.26458 3.14159 3.01861 
2.89924 2.78649 2.68241 5.82401 5.92808 6.04083 6.1602 6.28319 0.122983 
0.242354 0.355101 0.459179 6.05603 5.78856 5.97021 5.51259 5.60297 5.78856 
5.26596 5.26596 5.26596 5.26596 5.06749 5.0121 4.91556 4.71239 4.15881 
4.91556 4.83537 4.71239 4.50922 4.15881 3.63622 4.80045 4.71239 4.58941 
4.41268 4.15881 3.82181 3.45456 4.71239 4.62433 4.50922 4.35729 4.15881 
3.91219 3.63622 3.36875 6.01742 5.94343 5.82633 5.88092 5.76745 5.62798 
5.8278 5.71897 5.58911 5.43724 5.78235 5.67854 5.55757 5.41926 5.26596 
5.74316 5.64441 5.5315 5.40467 5.26596 5.11955 5.70914 5.61528 5.50962 
5.3926 5.26596 5.13292 4.99789 5.67937 5.59016 5.49102 5.38246 5.26596 
5.14407 5.02016 4.89798 5.56831 5.47502 5.47502 5.37381 5.37381 5.37381 
5.26596 5.26596 5.26596 5.26596 5.1535 5.1535 5.1535 5.1535 5.1535 
5.03907 5.03907 5.03907 5.03907 5.03907 5.03907 4.92564 4.92564 4.92564 
4.92564 4.92564 4.92564 4.92564 4.81599 4.81599 4.81599 4.81599 4.81599 
4.81599 4.81599 4.81599 4.60879 4.60879 4.49914 4.60879 4.49914 4.3857 
4.60879 4.49914 4.3857 4.27128 4.60879 4.49914 4.3857 4.27128 4.15881 
4.60879 4.49914 4.3857 4.27128 4.15881 4.05096 4.60879 4.49914 4.3857 
4.27128 4.15881 4.05096 3.94976 4.60879 4.49914 4.3857 4.27128 4.15881 
4.05096 3.94976 3.85646 4.5268 4.40462 4.42689 4.28071 4.29185 4.30523 
4.15881 4.15881 4.15881 4.15881 4.04232 4.03217 4.02011 4.00552 3.98753 
3.93376 3.91515 3.89328 3.86721 3.83566 3.7968 3.83461 3.8095 3.78037 
3.74624 3.70581 3.65733 3.59845 3.7454 3.71564 3.68161 3.64243 3.59698 
3.54386 3.48135 3.40735 3.56428 3.45246 3.52338 3.33203 3.40312 3.47739 
3.20576 3.27463 3.34802 3.42551 3.07742 3.14159 3.21128 3.28647 3.36688 
2.95116 3.00855 3.0719 3.14159 3.21784 3.3006 2.83072 2.88006 2.93517 
2.99672 3.06535 3.14159 3.22575 2.7189 2.7598 2.8058 2.85768 2.9163 
2.98259 3.05743 3.14159 3.56428 3.52338 3.45246 3.47739 3.40312 3.33203 
3.42551 3.34802 3.27463 3.20576 3.36688 3.28647 3.21128 3.14159 3.07742 
3.3006 3.21784 3.14159 3.0719 3.00855 2.95116 3.22575 3.14159 3.06535 
2.99672 2.93517 2.88006 2.83072 3.14159 3.05743 2.98259 2.9163 2.85768 
2.8058 2.7598 2.7189 4.5268 4.42689 4.40462 4.30523 4.29185 4.28071 
4.15881 4.15881 4.15881 4.15881 3.98753 4.00552 4.02011 4.03217 4.04232 
3.7968 3.83566 3.86721 3.89328 3.91515 3.93376 3.59845 3.65733 3.70581 
3.74624 3.78037 3.8095 3.83461 3.40735 3.48135 3.54386 3.59698 3.64243 
3.68161 3.71564 3.7454 4.71239 4.80045 4.62433 4.91556 4.71239 4.50922 
5.06749 4.83537 4.58941 4.35729 5.26596 5.0121 4.71239 4.41268 4.15881 
5.51259 5.26596 4.91556 4.50922 4.15881 3.91219 5.78856 5.60297 5.26596 
4.71239 4.15881 3.82181 3.63622 6.05603 5.97021 5.78856 5.26596 4.15881 
3.63622 3.45456 3.36875 0.227158 0.494626 0.312971 0.770593 0.680215 0.494626 
1.01722 1.01722 1.01722 1.01722 1.2157 1.27109 1.36763 1.5708 2.12437 
1.36763 1.44781 1.5708 1.77397 2.12437 2.64697 1.48273 1.5708 1.69378 
1.8705 2.12437 2.46138 2.82862 1.5708 1.65886 1.77397 1.9259 2.12437 
2.371 2.64697 2.91443 1.75639 1.87857 1.8563 2.00248 1.99133 1.97796 
2.12437 2.12437 2.12437 2.12437 2.24087 2.25101 2.26308 2.27767 2.29565 
2.34943 2.36803 2.38991 2.41597 2.44752 2.48639 2.44857 2.47368 2.50281 
2.53694 2.57738 2.62586 2.68474 2.53778 2.56754 2.60157 2.64076 2.68621 
2.73933 2.80184 2.87583 1.6744 1.6744 1.78405 1.6744 1.78405 1.89748 
1.6744 1.78405 1.89748 2.01191 1.6744 1.78405 1.89748 2.01191 2.12437 
1.6744 1.78405 1.89748 2.01191 2.12437 2.23222 1.6744 1.78405 1.89748 
2.01191 2.12437 2.23222 2.33343 1.6744 1.78405 1.89748 2.01191 2.12437 
2.23222 2.33343 2.42672 1.4672 1.35755 1.4672 1.24411 1.35755 1.4672 
1.12969 1.24411 1.35755 1.4672 1.01722 1.12969 1.24411 1.35755 1.4672 
0.909371 1.01722 1.12969 1.24411 1.35755 1.4672 0.808166 0.909371 1.01722 
1.12969 1.24411 1.35755 1.4672 0.714871 0.808166 0.909371 1.01722 1.12969 
1.24411 1.35755 1.4672 0.603812 0.57405 0.693022 0.540021 0.667908 0.792164 
0.500837 0.638778 0.773562 0.900726 0.455383 0.604649 0.751687 0.890581 1.01722 
0.402264 0.564217 0.725619 0.878514 1.01722 1.13912 0.339753 0.515737 0.694072 
0.863926 1.01722 1.15026 1.26302 0.265762 0.456853 0.655207 0.845941 1.01722 
1.16363 1.28529 1.38521 0.227158 0.312971 0.494626 0.494626 0.680215 0.770593 
1.01722 1.01722 1.01722 1.01722 2.12437 1.5708 1.36763 1.27109 1.2157 
2.64697 2.12437 1.77397 1.5708 1.44781 1.36763 2.82862 2.46138 2.12437 
1.8705 1.69378 1.5708 1.48273 2.91443 2.64697 2.371 2.12437 1.9259 
1.77397 1.65886 1.5708 1.75639 1.8563 1.87857 1.97796 1.99133 2.00248 
2.12437 2.12437 2.12437 2.12437 2.29565 2.27767 2.26308 2.25101 2.24087 
2.48639 2.44752 2.41597 2.38991 2.36803 2.34943 2.68474 2.62586 2.57738 
2.53694 2.50281 2.47368 2.44857 2.87583 2.80184 2.73933 2.68621 2.64076 
2.60157 2.56754 2.53778 5.86049 5.90139 5.97231 5.94739 6.02165 6.09275 
5.99927 6.07676 6.15015 6.21902 6.0579 6.13831 6.2135 0 0.0641696 
6.12418 6.20694 6.28319 0.069689 0.13304 0.190437 6.19903 0 0.0762451 
0.144876 0.206423 0.261531 0.310872 0 0.0841597 0.159004 0.225289 0.283913 
0.335793 0.381792 0.422692 5.86049 5.97231 5.90139 6.09275 6.02165 5.94739 
6.21902 6.15015 6.07676 5.99927 0.0641696 0 6.2135 6.13831 6.0579 
0.190437 0.13304 0.069689 6.28319 6.20694 6.12418 0.310872 0.261531 0.206423 
0.144876 0.0762451 6.28319 6.19903 0.422692 0.381792 0.335793 0.283913 0.225289 
0.159004 0.0841597 0 5.67937 5.70914 5.59016 5.74316 5.61528 5.49102 
5.78235 5.64441 5.50962 5.38246 5.8278 5.67854 5.5315 5.3926 5.26596 
5.88092 5.71897 5.55757 5.40467 5.26596 5.14407 5.94343 5.76745 5.58911 
5.41926 5.26596 5.13292 5.02016 6.01742 5.82633 5.62798 5.43724 5.26596 
5.11955 4.99789 4.89798 1.38521 1.28529 1.26302 1.16363 1.15026 1.13912 
1.01722 1.01722 1.01722 1.01722 0.845941 0.863926 0.878514 0.890581 0.900726 
0.655207 0.694072 0.725619 0.751687 0.773562 0.792164 0.456853 0.515737 0.564217 
0.604649 0.638778 0.667908 0.693022 0.265762 0.339753 0.402264 0.455383 0.500837 
0.540021 0.57405 0.603812 
