# vtk DataFile Version 4.0
vtk output
ASCII
DATASET POLYDATA
POINTS 1002 float
-85.8666 -92.2974 71.7307 -78.653 -105.187 75.7886 -76.2256 -88.1975 72.202 
-72.1221 -103.687 75.7767 -81.7369 -97.0367 81.3735 -75.7159 -94.6403 81.6185 
-79.486 -98.4617 68.4013 -74.7745 -97.8964 68.7829 -75.3354 -110.167 81.6929 
-82.9562 -85.2592 74.9112 -74.4301 -113.188 69.6191 -83.558 -86.8038 65.0635 
-84.9775 -93.2298 72.1685 -83.9619 -94.1225 72.8078 -82.8824 -95.0243 73.4974 
-82.1329 -96.3848 74.0349 -81.8218 -98.3069 74.4463 -81.3647 -100.15 74.803 
-80.5297 -101.536 75.0742 -79.6886 -102.709 75.327 -79.0578 -103.907 75.6013 
-85.6419 -92.6152 72.5689 -85.1014 -92.8943 73.5219 -84.5678 -93.2439 74.5764 
-84.3525 -93.8818 75.8261 -84.2639 -94.7622 77.3011 -84.0046 -95.5066 78.6114 
-83.5246 -95.8872 79.4642 -82.8995 -96.1011 80.1172 -82.2786 -96.4621 80.7824 
-85.3511 -92.5563 71.1691 -84.8767 -92.994 70.5743 -84.4774 -93.6418 69.9221 
-83.995 -94.3716 69.3726 -83.5421 -95.2002 68.9579 -83.1283 -96.1018 68.5312 
-82.3363 -96.7759 68.2753 -81.2001 -97.2106 68.3289 -80.2049 -97.7377 68.4188 
-86.6584 -91.5811 71.9504 -87.189 -90.8157 72.2251 -87.1108 -89.955 72.3213 
-86.4825 -88.9504 72.2736 -85.7551 -87.8928 72.4448 -85.1918 -86.9877 72.9532 
-84.6697 -86.316 73.555 -84.0707 -85.8185 74.0585 -83.4773 -85.4704 74.4767 
-86.3898 -91.5379 70.9979 -86.891 -90.8594 70.1018 -87.4241 -90.3752 68.9952 
-87.7618 -89.9091 67.8723 -87.5413 -89.0826 67.0093 -86.8229 -88.0265 66.4387 
-85.9907 -87.3203 65.9689 -85.1939 -87.0473 65.4995 -84.3775 -86.8958 65.1549 
-78.8845 -104.63 76.4239 -79.2861 -104.094 77.1479 -79.9225 -103.67 77.8767 
-80.4865 -103.199 78.5491 -80.7981 -102.412 79.249 -81.1606 -101.451 80.0974 
-81.607 -100.568 80.9067 -81.8084 -99.5739 81.3311 -81.7734 -98.3141 81.3905 
-78.5596 -104.854 75.1427 -78.3697 -104.418 74.4837 -78.2278 -103.892 73.7443 
-78.2808 -103.294 72.9203 -78.4401 -102.602 72.1142 -78.5296 -101.773 71.3897 
-78.6146 -100.845 70.7224 -78.8457 -99.9253 70.0269 -79.1796 -99.1187 69.232 
-78.5341 -106.275 76.2396 -78.5537 -107.533 76.6913 -78.5987 -108.725 77.3491 
-78.3286 -109.496 78.2695 -77.6652 -109.769 79.07 -76.976 -109.924 79.6254 
-76.5141 -110.317 80.3214 -76.154 -110.719 81.1415 -75.7494 -110.682 81.6425 
-78.3644 -106.451 75.4273 -78.0225 -107.84 74.8759 -77.6419 -109.079 74.0843 
-77.41 -109.981 73.2295 -77.2028 -110.771 72.6177 -76.7116 -111.739 72.1327 
-76.1054 -112.621 71.4524 -75.6435 -113.083 70.6858 -75.1437 -113.222 70.0723 
-75.7056 -89.3763 72.6054 -75.5277 -91.0461 73.0742 -75.1785 -92.7128 73.4935 
-74.1477 -93.9637 73.885 -73.0952 -95.2057 74.3504 -72.7479 -96.8923 74.8253 
-72.637 -98.7487 75.2237 -72.3626 -100.471 75.5424 -72.1573 -102.106 75.7347 
-76.1299 -88.5164 73.0845 -76.1459 -89.0416 73.9838 -76.1982 -89.7118 74.9167 
-76.1533 -90.3486 76.0176 -76.0211 -90.9419 77.261 -75.9778 -91.6769 78.3603 
-76.0328 -92.4927 79.2334 -75.9902 -93.1977 80.0887 -75.8238 -93.8652 80.9446 
-76.0044 -88.6207 71.5699 -75.8649 -89.2427 70.984 -75.6837 -90.0151 70.3849 
-75.4246 -90.8688 69.7619 -75.268 -91.8518 69.365 -75.2536 -92.9711 69.2359 
-75.1729 -94.1032 69.0576 -74.9749 -95.2706 68.8124 -74.8164 -96.5676 68.7278 
-76.9214 -87.5049 72.4281 -77.6155 -86.8083 72.6766 -78.1233 -85.9613 72.906 
-78.7187 -85.1475 73.2389 -79.5476 -84.5476 73.7108 -80.308 -84.1304 74.1284 
-81.0341 -84.0123 74.4044 -81.8945 -84.2681 74.6153 -82.6069 -84.726 74.7871 
-76.8546 -87.6059 71.436 -77.5968 -87.155 70.6297 -78.3051 -86.6401 69.7723 
-79.0422 -86.0666 68.8779 -79.9244 -85.7463 68.0446 -80.8358 -85.7247 67.3404 
-81.6055 -85.7622 66.7291 -82.2698 -85.9149 66.1459 -82.926 -86.3083 65.5691 
-72.4669 -102.972 76.3198 -72.6686 -102.102 76.9915 -72.6697 -101.081 77.9286 
-72.82 -99.9552 78.8323 -73.2131 -98.7915 79.4108 -73.6392 -97.7957 79.9451 
-74.1741 -97.0714 80.5649 -74.8198 -96.3728 81.0247 -75.3402 -95.5192 81.3324 
-71.8681 -103.347 75.1339 -71.8987 -103 74.2207 -72.2222 -102.806 73.2953 
-72.5958 -102.646 72.678 -72.8081 -102.091 71.929 -72.7981 -101.058 70.6938 
-72.8542 -100.021 69.6848 -73.3582 -99.2817 69.3524 -74.1424 -98.6442 69.1965 
-72.3229 -104.809 76.1317 -72.5028 -105.857 76.6318 -72.7057 -106.813 77.2141 
-72.9266 -107.742 77.7726 -73.1473 -108.696 78.5035 -73.4933 -109.513 79.3561 
-73.9781 -109.901 79.9073 -74.4468 -109.981 80.3064 -74.8798 -110.087 80.9587 
-71.9897 -105.155 75.338 -71.8729 -106.832 74.7587 -71.5952 -108.456 74.1235 
-71.4316 -109.664 73.4757 -71.8853 -110.556 72.8162 -72.5253 -111.595 72.0664 
-72.696 -112.754 71.1309 -72.8619 -113.491 70.2274 -73.5474 -113.554 69.716 
-81.3613 -96.7524 81.6868 -80.8476 -96.5768 82.0054 -80.1965 -96.399 82.3887 
-79.464 -96.056 82.7459 -78.7461 -95.6252 82.8786 -78.0649 -95.3389 82.8032 
-77.3295 -95.1676 82.6765 -76.5805 -94.9459 82.4715 -76.0192 -94.7248 82.1028 
-81.2138 -98.5034 81.9325 -80.4815 -99.939 82.4324 -79.4394 -101.204 82.7421 
-78.4915 -102.543 82.961 -77.8722 -104.014 83.1384 -77.2399 -105.422 83.2289 
-76.5477 -106.821 83.2698 -76.0541 -108.205 83.1137 -75.698 -109.342 82.5488 
-82.1759 -95.5272 81.1635 -82.7604 -94.2807 81.0791 -83.1156 -93.1987 80.7007 
-83.0886 -91.9172 79.8241 -83.0725 -90.3981 78.9038 -83.1504 -88.9933 78.1428 
-82.9777 -87.8703 77.2568 -82.727 -86.9181 76.3238 -82.7617 -86.0496 75.5639 
-75.5384 -96.0798 81.9118 -75.404 -97.5902 82.1507 -75.1451 -99.0557 82.5697 
-74.9061 -100.595 83.0172 -74.9386 -102.393 83.0609 -75.048 -104.362 82.8356 
-75.0165 -106.182 82.7116 -75.0162 -107.692 82.5422 -75.1576 -108.992 82.1557 
-76.1988 -93.2691 81.4693 -76.9392 -91.9163 81.1658 -77.7846 -90.6265 80.8208 
-78.4729 -89.4212 80.3857 -79.1101 -88.3121 79.6732 -80.0015 -87.2309 78.8281 
-80.9953 -86.3079 78.0023 -81.7634 -85.7825 77.0168 -82.3606 -85.5257 75.8961 
-79.1771 -98.5809 67.9296 -78.711 -98.6729 67.5925 -78.1844 -98.6405 67.3623 
-77.6611 -98.4434 67.1783 -77.0499 -98.2309 67.1582 -76.3382 -98.1869 67.4145 
-75.72 -98.2617 67.7887 -75.3183 -98.2754 68.1267 -75.0483 -98.1466 68.4567 
-78.7175 -99.7767 68.8299 -77.9944 -101.464 69.0991 -77.2776 -103.494 69.0854 
-76.6809 -105.686 68.7741 -76.3281 -107.772 68.3321 -76.0408 -109.509 68.0665 
-75.6578 -110.72 68.2331 -75.2766 -111.527 68.7409 -74.8995 -112.31 69.2485 
-80.2203 -97.3776 67.5924 -80.9834 -96.152 66.9155 -81.682 -94.8365 66.2896 
-82.3909 -93.7941 65.2966 -83.11 -92.9434 64.1764 -83.6397 -91.6282 63.6639 
-83.8597 -89.8891 63.7426 -83.8469 -88.4665 64.0088 -83.7219 -87.5538 64.4406 
-74.4292 -99.7268 68.9926 -73.8805 -101.534 68.6347 -73.1969 -103.309 67.9208 
-72.7743 -105.285 67.414 -72.7429 -107.458 67.0626 -72.8352 -109.334 66.693 
-73.0177 -110.615 66.8852 -73.4135 -111.565 67.8339 -73.9316 -112.437 68.8838 
-75.2315 -96.2008 68.006 -75.8083 -94.544 67.1326 -76.7665 -93.1869 66.5199 
-77.9755 -92.0073 65.9789 -79.0842 -90.9109 65.3298 -80.0775 -90.0224 64.9421 
-81.0728 -89.1735 64.8748 -82.0096 -88.2133 64.8118 -82.8306 -87.3701 64.8093 
-75.1982 -111.33 80.8692 -75.1364 -112.476 80.0322 -75.1921 -113.528 79.0055 
-75.1422 -114.493 77.7419 -74.8987 -115.059 76.4107 -74.7027 -115.041 74.8648 
-74.6021 -114.878 72.9622 -74.4904 -114.674 71.2629 -74.4214 -114.09 70.2383 
-83.3992 -84.5326 73.9525 -83.6506 -83.8435 72.9086 -83.8042 -83.4254 71.7153 
-84.2352 -83.0782 70.3974 -84.7966 -82.7236 69.0549 -84.928 -82.9037 67.8748 
-84.6339 -83.8043 67.0672 -84.2538 -84.9522 66.4738 -83.8947 -85.975 65.7857 
-84.6731 -93.6537 73.0947 -84.2697 -94.1368 74.1313 -83.6473 -94.6408 73.8352 
-84.0472 -94.7774 75.2757 -83.4753 -95.3364 74.892 -82.6954 -95.6762 74.5627 
-84.0081 -95.6503 76.6228 -83.4612 -96.2013 76.0109 -82.6692 -96.5144 75.5938 
-82.0953 -97.222 75.0685 -83.8572 -96.5127 78.0085 -83.3947 -97.1031 77.2491 
-82.5877 -97.3991 76.6375 -81.9516 -98.0852 76.0704 -81.7107 -99.2256 75.3672 
-83.4345 -97.0398 79.0349 -83.1417 -97.8192 78.399 -82.4285 -98.2332 77.6988 
-81.7041 -98.9041 77.0562 -81.3939 -100.021 76.3066 -81.1372 -101.013 75.5641 
-82.8237 -97.3402 79.8085 -82.6972 -98.3604 79.3792 -82.2263 -99.0403 78.7288 
-81.5851 -99.8025 78.0278 -81.1852 -100.824 77.3058 -80.8757 -101.741 76.5121 
-80.3525 -102.328 75.8223 -82.2439 -97.7451 80.6298 -82.2118 -98.9394 80.3928 
-81.9244 -99.8463 79.827 -81.4419 -100.73 79.0369 -81.086 -101.715 78.2964 
-80.7286 -102.499 77.5902 -80.1484 -103.004 76.8556 -79.5335 -103.442 76.1727 
-86.2153 -91.7563 72.8531 -86.4702 -90.8793 73.0965 -85.4268 -91.8984 73.819 
-86.2428 -90.0218 73.1481 -85.599 -91.0622 74.0461 -84.836 -92.2695 74.9009 
-85.6846 -89.0141 73.279 -85.4973 -90.2992 74.2698 -85.0498 -91.5764 75.2135 
-84.5907 -93.001 76.2667 -85.1814 -87.9762 73.7204 -85.1629 -89.2522 74.7039 
-84.9398 -90.7788 75.6317 -84.614 -92.2633 76.646 -84.3464 -93.8284 77.8029 
-84.7602 -87.2691 74.2683 -84.8556 -88.2586 75.2153 -84.6502 -89.6204 76.1356 
-84.2968 -91.3113 77.0185 -84.1835 -92.934 78.1322 -84.0105 -94.4438 79.0638 
-84.1214 -86.83 74.734 -84.3818 -87.7044 75.6406 -84.4134 -88.6803 76.6004 
-84.015 -90.2188 77.4122 -83.8462 -92.0354 78.4066 -83.904 -93.5372 79.4393 
-83.5492 -94.7835 79.9457 -83.3502 -86.4229 75.1377 -83.5368 -87.3216 76.0012 
-83.8575 -88.187 77.0057 -83.7601 -89.4245 77.8373 -83.5197 -91.1522 78.6779 
-83.5964 -92.7712 79.732 -83.4848 -93.9381 80.4468 -82.8937 -95.0542 80.6294 
-82.2328 -86.317 76.5611 -81.7016 -86.8383 77.53 -82.2019 -87.3952 77.2705 
-80.8683 -87.6992 78.4448 -81.5555 -88.2905 78.1035 -82.2922 -88.6635 78.1293 
-79.8391 -88.4905 79.5712 -80.6781 -89.1017 79.1833 -81.507 -89.5618 78.9899 
-82.3573 -89.8797 78.9954 -79.0534 -89.1871 80.6717 -79.8552 -89.4928 80.5764 
-80.7944 -90.0153 80.2419 -81.6566 -90.4629 79.9641 -82.4284 -91.1013 79.8659 
-78.3894 -90.3019 81.2615 -79.1559 -90.2944 81.4712 -80.1066 -90.6447 81.3929 
-81.0008 -91.0851 81.0581 -81.7416 -91.668 80.7752 -82.4678 -92.4657 80.7476 
-77.5102 -91.7921 81.5896 -78.2869 -91.8503 81.7797 -79.1837 -92.122 81.842 
[...]
POINT_DATA 1002
FIELD FieldData 2
Theta 1 1002 float
2.58802 2.58802 0.553574 0.553574 2.12437 1.01722 2.12437 1.01722 1.5708 
1.5708 1.5708 1.5708 2.68241 2.78649 2.89924 3.01861 3.14159 3.01861 
2.89924 2.78649 2.68241 2.61035 2.61791 2.60515 2.56958 2.51327 2.44184 
2.36202 2.27983 2.1997 2.61035 2.61791 2.60515 2.56958 2.51327 2.44184 
2.36202 2.27983 2.1997 2.50947 2.41899 2.31794 2.20864 2.0944 1.97902 
1.86631 1.75944 1.66056 2.50947 2.41899 2.31794 2.20864 2.0944 1.97902 
1.86631 1.75944 1.66056 2.61035 2.61791 2.60515 2.56958 2.51327 2.44184 
2.36202 2.27983 2.1997 2.61035 2.61791 2.60515 2.56958 2.51327 2.44184 
2.36202 2.27983 2.1997 2.50947 2.41899 2.31794 2.20864 2.0944 1.97902 
1.86631 1.75944 1.66056 2.50947 2.41899 2.31794 2.20864 2.0944 1.97902 
1.86631 1.75944 1.66056 0.459179 0.355101 0.242354 0.122983 0 0.122983 
0.242354 0.355101 0.459179 0.531246 0.523681 0.536438 0.57201 0.628319 0.699757 
0.779574 0.86176 0.941896 0.531246 0.523681 0.536438 0.57201 0.628319 0.699757 
0.779574 0.86176 0.941896 0.632123 0.7226 0.823657 0.932948 1.0472 1.16257 
1.27528 1.38216 1.48103 0.632123 0.7226 0.823657 0.932948 1.0472 1.16257 
1.27528 1.38216 1.48103 0.531246 0.523681 0.536438 0.57201 0.628319 0.699757 
0.779574 0.86176 0.941896 0.531246 0.523681 0.536438 0.57201 0.628319 0.699757 
0.779574 0.86176 0.941896 0.632123 0.7226 0.823657 0.932948 1.0472 1.16257 
1.27528 1.38216 1.48103 0.632123 0.7226 0.823657 0.932948 1.0472 1.16257 
1.27528 1.38216 1.48103 2.02998 1.9259 1.81315 1.69378 1.5708 1.44781 
1.32844 1.2157 1.11162 2.0928 2.05283 2.00422 1.94767 1.88496 1.81867 
1.75177 1.68695 1.62623 2.0928 2.05283 2.00422 1.94767 1.88496 1.81867 
1.75177 1.68695 1.62623 1.0488 1.08876 1.13737 1.19392 1.25664 1.32292 
1.38982 1.45464 1.51537 1.0488 1.08876 1.13737 1.19392 1.25664 1.32292 
1.38982 1.45464 1.51537 2.02998 1.9259 1.81315 1.69378 1.5708 1.44781 
1.32844 1.2157 1.11162 2.0928 2.05283 2.00422 1.94767 1.88496 1.81867 
1.75177 1.68695 1.62623 2.0928 2.05283 2.00422 1.94767 1.88496 1.81867 
1.75177 1.68695 1.62623 1.0488 1.08876 1.13737 1.19392 1.25664 1.32292 
1.38982 1.45464 1.51537 1.0488 1.08876 1.13737 1.19392 1.25664 1.32292 
1.38982 1.45464 1.51537 1.5708 1.5708 1.5708 1.5708 1.5708 1.5708 
1.5708 1.5708 1.5708 1.5708 1.5708 1.5708 1.5708 1.5708 1.5708 
1.5708 1.5708 1.5708 2.70908 2.71362 2.81592 2.68886 2.81002 2.92597 
2.6349 2.76254 2.89233 3.01997 2.55881 2.68262 2.80854 2.92834 3.01997 
2.47007 2.58462 2.70048 2.80854 2.89233 2.92597 2.37702 2.48017 2.58462 
2.68262 2.76254 2.81002 2.81592 2.28567 2.37702 2.47007 2.55881 2.6349 
2.68886 2.71362 2.70908 2.52097 2.4195 2.51718 2.30791 2.40503 2.49426 
2.18928 2.28408 2.3734 2.45144 2.06758 2.15805 2.24572 2.32523 2.39165 
1.94707 2.03138 2.11543 2.19453 2.26401 2.32035 1.83164 1.90847 1.98711 
2.06376 2.13422 2.1949 2.24359 1.72413 1.79288 1.86489 1.93728 2.00658 
2.06938 2.12312 2.16654 1.5708 1.50988 1.63171 1.44492 1.5708 1.69667 
1.37826 1.5059 1.63569 1.76333 1.31281 1.43962 1.5708 1.70197 1.82878 
1.25155 1.37501 1.50478 1.63681 1.76659 1.89004 1.19686 1.31493 1.44074 
1.5708 1.70086 1.82666 1.94473 1.15011 1.26149 1.38136 1.50697 1.63462 
1.76024 1.88011 1.99148 1.99148 1.88011 1.94473 1.76024 1.82666 1.89004 
1.63462 1.70086 1.76659 1.82878 1.50697 1.5708 1.63681 1.70197 1.76333 
1.38136 1.44074 1.50478 1.5708 1.63569 1.69667 1.26149 1.31493 1.37501 
1.43962 1.5059 1.5708 1.63171 1.15011 1.19686 1.25155 1.31281 1.37826 
1.44492 1.50988 1.5708 2.16654 2.12312 2.24359 2.06938 2.1949 2.32035 
2.00658 2.13422 2.26401 2.39165 1.93728 2.06376 2.19453 2.32523 2.45144 
1.86489 1.98711 2.11543 2.24572 2.3734 2.49426 1.79288 1.90847 2.03138 
2.15805 2.28408 2.40503 2.51718 1.72413 1.83164 1.94707 2.06758 2.18928 
2.30791 2.4195 2.52097 1.66533 1.66946 1.76911 1.67254 1.777 1.88041 
1.67418 1.78222 1.89102 1.99634 1.67418 1.78405 1.89674 2.00785 2.11299 
1.67254 1.78222 1.89674 2.01191 2.12307 2.22608 1.66946 1.777 1.89102 
2.00785 2.12307 2.23222 2.33166 1.66533 1.76911 1.88041 1.99634 2.11299 
2.22608 2.33166 2.42672 1.47626 1.37249 1.47213 1.26118 1.36459 1.46906 
1.14526 1.25058 1.35938 1.46741 1.0286 1.13374 1.24485 1.35755 1.46741 
0.915514 1.01852 1.12969 1.24485 1.35938 1.46906 0.809937 0.909371 1.01852 
1.13374 1.25058 1.36459 1.47213 0.714871 0.809937 0.915514 1.0286 1.14526 
1.26118 1.37249 1.47626 0.975055 0.898002 1.01847 0.821245 0.946693 1.07221 
0.749941 0.877585 1.00737 1.13501 0.690152 0.816367 0.94706 1.07784 1.20431 
0.647337 0.768195 0.895868 1.02616 1.15448 1.2767 0.624416 0.736561 0.857515 
0.983547 1.11021 1.23313 1.34871 0.620619 0.722093 0.833684 0.952313 1.07402 
1.19452 1.30996 1.41746 0.855925 0.764569 0.764569 0.671524 0.661425 0.671524 
0.582786 0.556971 0.556971 0.582786 0.506696 0.458968 0.441109 0.458968 0.506696 
0.45273 0.379052 0.333054 0.333054 0.379052 0.45273 0.427969 0.331576 0.249267 
0.21325 0.249267 0.331576 0.427969 0.432512 0.325669 0.215619 0.121622 0.121622 
0.215619 0.325669 0.432512 0.432512 0.427969 0.325669 0.45273 0.331576 0.215619 
0.506696 0.379052 0.249267 0.121622 0.582786 0.458968 0.333054 0.21325 0.121622 
0.671524 0.556971 0.441109 0.333054 0.249267 0.215619 0.764569 0.661425 0.556971 
0.458968 0.379052 0.331576 0.325669 0.855925 0.764569 0.671524 0.582786 0.506696 
0.45273 0.427969 0.432512 0.975055 1.01847 0.898002 1.07221 0.946693 0.821245 
1.13501 1.00737 0.877585 0.749941 1.20431 1.07784 0.94706 0.816367 0.690152 
1.2767 1.15448 1.02616 0.895868 0.768195 0.647337 1.34871 1.23313 1.11021 
0.983547 0.857515 0.736561 0.624416 1.41746 1.30996 1.19452 1.07402 0.952313 
0.833684 0.722093 0.620619 1.15011 1.26149 1.19686 1.38136 1.31493 1.25155 
1.50697 1.44074 1.37501 1.31281 1.63462 1.5708 1.50478 1.43962 1.37826 
1.76024 1.70086 1.63681 1.5708 1.5059 1.44492 1.88011 1.82666 1.76659 
1.70197 1.63569 1.5708 1.50988 1.99148 1.94473 1.89004 1.82878 1.76333 
1.69667 1.63171 1.5708 1.15011 1.19686 1.26149 1.25155 1.31493 1.38136 
1.31281 1.37501 1.44074 1.50697 1.37826 1.43962 1.50478 1.5708 1.63462 
1.44492 1.5059 1.5708 1.63681 1.70086 1.76024 1.50988 1.5708 1.63569 
1.70197 1.76659 1.82666 1.88011 1.5708 1.63171 1.69667 1.76333 1.82878 
1.89004 1.94473 1.99148 1.72413 1.83164 1.79288 1.94707 1.90847 1.86489 
2.06758 2.03138 1.98711 1.93728 2.18928 2.15805 2.11543 2.06376 2.00658 
2.30791 2.28408 2.24572 2.19453 2.13422 2.06938 2.4195 2.40503 2.3734 
2.32523 2.26401 2.1949 2.12312 2.52097 2.51718 2.49426 2.45144 2.39165 
2.32035 2.24359 2.16654 2.70908 2.81592 2.71362 2.92597 2.81002 2.68886 
3.01997 2.89233 2.76254 2.6349 3.01997 2.92834 2.80854 2.68262 2.55881 
2.92597 2.89233 2.80854 2.70048 2.58462 2.47007 2.81592 2.81002 2.76254 
2.68262 2.58462 2.48017 2.37702 2.70908 2.71362 2.68886 2.6349 2.55881 
2.47007 2.37702 2.28567 2.16654 2.24359 2.12312 2.32035 2.1949 2.06938 
2.39165 2.26401 2.13422 2.00658 2.45144 2.32523 2.19453 2.06376 1.93728 
2.49426 2.3734 2.24572 2.11543 1.98711 1.86489 2.51718 2.40503 2.28408 
2.15805 2.03138 1.90847 1.79288 2.52097 2.4195 2.30791 2.18928 2.06758 
1.94707 1.83164 1.72413 1.66533 1.76911 1.66946 1.88041 1.777 1.67254 
1.99634 1.89102 1.78222 1.67418 2.11299 2.00785 1.89674 1.78405 1.67418 
2.22608 2.12307 2.01191 1.89674 1.78222 1.67254 2.33166 2.23222 2.12307 
2.00785 1.89102 1.777 1.66946 2.42672 2.33166 2.22608 2.11299 1.99634 
1.88041 1.76911 1.66533 1.47626 1.47213 1.37249 1.46906 1.36459 1.26118 
1.46741 1.35938 1.25058 1.14526 1.46741 1.35755 1.24485 1.13374 1.0286 
1.46906 1.35938 1.24485 1.12969 1.01852 0.915514 1.47213 1.36459 1.25058 
1.13374 1.01852 0.909371 0.809937 1.47626 1.37249 1.26118 1.14526 1.0286 
0.915514 0.809937 0.714871 1.41746 1.30996 1.34871 1.19452 1.23313 1.2767 
1.07402 1.11021 1.15448 1.20431 0.952313 0.983547 1.02616 1.07784 1.13501 
0.833684 0.857515 0.895868 0.94706 1.00737 1.07221 0.722093 0.736561 0.768195 
0.816367 0.877585 0.946693 1.01847 0.620619 0.624416 0.647337 0.690152 0.749941 
0.821245 0.898002 0.975055 0.975055 0.898002 1.01847 0.821245 0.946693 1.07221 
0.749941 0.877585 1.00737 1.13501 0.690152 0.816367 0.94706 1.07784 1.20431 
0.647337 0.768195 0.895868 1.02616 1.15448 1.2767 0.624416 0.736561 0.857515 
0.983547 1.11021 1.23313 1.34871 0.620619 0.722093 0.833684 0.952313 1.07402 
1.19452 1.30996 1.41746 
Phi 1 1002 float
6.28319 3.14159 6.28319 3.14159 4.71239 4.71239 1.5708 1.5708 3.69517 
5.72961 2.58802 0.553574 6.28319 6.28319 6.28319 6.28319 3.14159 3.14159 
3.14159 3.14159 3.14159 6.1053 5.8988 5.67687 5.45995 5.26596 5.10322 
4.97131 4.86569 4.78095 0.177881 0.384387 0.606312 0.823235 1.01722 1.17997 
1.31187 1.4175 1.50223 6.18928 6.10703 6.03531 5.97283 5.91832 5.87061 
5.82869 5.79168 5.75886 0.0939024 0.176153 0.247873 0.310351 0.364864 0.412573 
0.454497 0.491504 0.524326 3.31947 3.52598 3.7479 3.96483 4.15881 4.32156 
4.45346 4.55909 4.64383 2.96371 2.75721 2.53528 2.31836 2.12437 1.96162 
1.82972 1.72409 1.63936 3.2355 3.31775 3.38947 3.45194 3.50646 3.55417 
3.59609 3.6331 3.66592 3.04769 2.96544 2.89372 2.83124 2.77673 2.72902 
2.6871 2.65009 2.61727 6.28319 6.28319 6.28319 6.28319 3.14159 3.14159 
3.14159 3.14159 3.14159 6.1053 5.8988 5.67687 5.45995 5.26596 5.10322 
4.97131 4.86569 4.78095 0.177881 0.384387 0.606312 0.823235 1.01722 1.17997 
1.31187 1.4175 1.50223 6.18928 6.10703 6.03531 5.97283 5.91832 5.87061 
5.82869 5.79168 5.75886 0.0939024 0.176153 0.247873 0.310351 0.364864 0.412573 
0.454497 0.491504 0.524326 3.31947 3.52598 3.7479 3.96483 4.15881 4.32156 
4.45346 4.55909 4.64383 2.96371 2.75721 2.53528 2.31836 2.12437 1.96162 
1.82972 1.72409 1.63936 3.2355 3.31775 3.38947 3.45194 3.50646 3.55417 
3.59609 3.6331 3.66592 3.04769 2.96544 2.89372 2.83124 2.77673 2.72902 
2.6871 2.65009 2.61727 4.71239 4.71239 4.71239 4.71239 4.71239 4.71239 
4.71239 4.71239 4.71239 4.60879 4.49914 4.3857 4.27128 4.15881 4.05096 
3.94976 3.85646 3.77161 4.81599 4.92564 5.03907 5.1535 5.26596 5.37381 
5.47502 5.56831 5.65317 4.60879 4.49914 4.3857 4.27128 4.15881 4.05096 
3.94976 3.85646 3.77161 4.81599 4.92564 5.03907 5.1535 5.26596 5.37381 
5.47502 5.56831 5.65317 1.5708 1.5708 1.5708 1.5708 1.5708 1.5708 
1.5708 1.5708 1.5708 1.6744 1.78405 1.89748 2.01191 2.12437 2.23222 
2.33343 2.42672 2.51157 1.4672 1.35755 1.24411 1.12969 1.01722 0.909371 
0.808166 0.714871 0.63002 1.6744 1.78405 1.89748 2.01191 2.12437 2.23222 
2.33343 2.42672 2.51157 1.4672 1.35755 1.24411 1.12969 1.01722 0.909371 
0.808166 0.714871 0.63002 3.60077 3.49669 3.38395 3.26458 3.14159 3.01861 
2.89924 2.78649 2.68241 5.82401 5.92808 6.04083 6.1602 6.28319 0.122983 
0.242354 0.355101 0.459179 6.05603 5.78856 5.97021 5.51259 5.60297 5.78856 
5.26596 5.26596 5.26596 5.26596 5.06749 5.0121 4.91556 4.71239 4.15881 
4.91556 4.83537 4.71239 4.50922 4.15881 3.63622 4.80045 4.71239 4.58941 
4.41268 4.15881 3.82181 3.45456 4.71239 4.62433 4.50922 4.35729 4.15881 
3.91219 3.63622 3.36875 6.01742 5.94343 5.82633 5.88092 5.76745 5.62798 
5.8278 5.71897 5.58911 5.43724 5.78235 5.67854 5.55757 5.41926 5.26596 
5.74316 5.64441 5.5315 5.40467 5.26596 5.11955 5.70914 5.61528 5.50962 
5.3926 5.26596 5.13292 4.99789 5.67937 5.59016 5.49102 5.38246 5.26596 
5.14407 5.02016 4.89798 5.56831 5.47502 5.47502 5.37381 5.37381 5.37381 
5.26596 5.26596 5.26596 5.26596 5.1535 5.1535 5.1535 5.1535 5.1535 
5.03907 5.03907 5.03907 5.03907 5.03907 5.03907 4.92564 4.92564 4.92564 
4.92564 4.92564 4.92564 4.92564 4.81599 4.81599 4.81599 4.81599 4.81599 
4.81599 4.81599 4.81599 4.60879 4.60879 4.49914 4.60879 4.49914 4.3857 
4.60879 4.49914 4.3857 4.27128 4.60879 4.49914 4.3857 4.27128 4.15881 
4.60879 4.49914 4.3857 4.27128 4.15881 4.05096 4.60879 4.49914 4.3857 
4.27128 4.15881 4.05096 3.94976 4.60879 4.49914 4.3857 4.27128 4.15881 
4.05096 3.94976 3.85646 4.5268 4.40462 4.42689 4.28071 4.29185 4.30523 
4.15881 4.15881 4.15881 4.15881 4.04232 4.03217 4.02011 4.00552 3.98753 
3.93376 3.91515 3.89328 3.86721 3.83566 3.7968 3.83461 3.8095 3.78037 
3.74624 3.70581 3.65733 3.59845 3.7454 3.71564 3.68161 3.64243 3.59698 
3.54386 3.48135 3.40735 3.56428 3.45246 3.52338 3.33203 3.40312 3.47739 
3.20576 3.27463 3.34802 3.42551 3.07742 3.14159 3.21128 3.28647 3.36688 
2.95116 3.00855 3.0719 3.14159 3.21784 3.3006 2.83072 2.88006 2.93517 
2.99672 3.06535 3.14159 3.22575 2.7189 2.7598 2.8058 2.85768 2.9163 
2.98259 3.05743 3.14159 3.56428 3.52338 3.45246 3.47739 3.40312 3.33203 
3.42551 3.34802 3.27463 3.20576 3.36688 3.28647 3.21128 3.14159 3.07742 
3.3006 3.21784 3.14159 3.0719 3.00855 2.95116 3.22575 3.14159 3.06535 
2.99672 2.93517 2.88006 2.83072 3.14159 3.05743 2.98259 2.9163 2.85768 
2.8058 2.7598 2.7189 4.5268 4.42689 4.40462 4.30523 4.29185 4.28071 
4.15881 4.15881 4.15881 4.15881 3.98753 4.00552 4.02011 4.03217 4.04232 
3.7968 3.83566 3.86721 3.89328 3.91515 3.93376 3.59845 3.65733 3.70581 
3.74624 3.78037 3.8095 3.83461 3.40735 3.48135 3.54386 3.59698 3.64243 
3.68161 3.71564 3.7454 4.71239 4.80045 4.62433 4.91556 4.71239 4.50922 
5.06749 4.83537 4.58941 4.35729 5.26596 5.0121 4.71239 4.41268 4.15881 
5.51259 5.26596 4.91556 4.50922 4.15881 3.91219 5.78856 5.60297 5.26596 
4.71239 4.15881 3.82181 3.63622 6.05603 5.97021 5.78856 5.26596 4.15881 
3.63622 3.45456 3.36875 0.227158 0.494626 0.312971 0.770593 0.680215 0.494626 
1.01722 1.01722 1.01722 1.01722 1.2157 1.27109 1.36763 1.5708 2.12437 
1.36763 1.44781 1.5708 1.77397 2.12437 2.64697 1.48273 1.5708 1.69378 
1.8705 2.12437 2.46138 2.82862 1.5708 1.65886 1.77397 1.9259 2.12437 
2.371 2.64697 2.91443 1.75639 1.87857 1.8563 2.00248 1.99133 1.97796 
2.12437 2.12437 2.12437 2.12437 2.24087 2.25101 2.26308 2.27767 2.29565 
2.34943 2.36803 2.38991 2.41597 2.44752 2.48639 2.44857 2.47368 2.50281 
2.53694 2.57738 2.62586 2.68474 2.53778 2.56754 2.60157 2.64076 2.68621 
2.73933 2.80184 2.87583 1.6744 1.6744 1.78405 1.6744 1.78405 1.89748 
1.6744 1.78405 1.89748 2.01191 1.6744 1.78405 1.89748 2.01191 2.12437 
1.6744 1.78405 1.89748 2.01191 2.12437 2.23222 1.6744 1.78405 1.89748 
2.01191 2.12437 2.23222 2.33343 1.6744 1.78405 1.89748 2.01191 2.12437 
2.23222 2.33343 2.42672 1.4672 1.35755 1.4672 1.24411 1.35755 1.4672 
1.12969 1.24411 1.35755 1.4672 1.01722 1.12969 1.24411 1.35755 1.4672 
0.909371 1.01722 1.12969 1.24411 1.35755 1.4672 0.808166 0.909371 1.01722 
1.12969 1.24411 1.35755 1.4672 0.714871 0.808166 0.909371 1.01722 1.12969 
1.24411 1.35755 1.4672 0.603812 0.57405 0.693022 0.540021 0.667908 0.792164 
0.500837 0.638778 0.773562 0.900726 0.455383 0.604649 0.751687 0.890581 1.01722 
0.402264 0.564217 0.725619 0.878514 1.01722 1.13912 0.339753 0.515737 0.694072 
0.863926 1.01722 1.15026 1.26302 0.265762 0.456853 0.655207 0.845941 1.01722 
1.16363 1.28529 1.38521 0.227158 0.312971 0.494626 0.494626 0.680215 0.770593 
1.01722 1.01722 1.01722 1.01722 2.12437 1.5708 1.36763 1.27109 1.2157 
2.64697 2.12437 1.77397 1.5708 1.44781 1.36763 2.82862 2.46138 2.12437 
1.8705 1.69378 1.5708 1.48273 2.91443 2.64697 2.371 2.12437 1.9259 
1.77397 1.65886 1.5708 1.75639 1.8563 1.87857 1.97796 1.99133 2.00248 
2.12437 2.12437 2.12437 2.12437 2.29565 2.27767 2.26308 2.25101 2.24087 
2.48639 2.44752 2.41597 2.38991 2.36803 2.34943 2.68474 2.62586 2.57738 
2.53694 2.50281 2.47368 2.44857 2.87583 2.80184 2.73933 2.68621 2.64076 
2.60157 2.56754 2.53778 5.86049 5.90139 5.97231 5.94739 6.02165 6.09275 
5.99927 6.07676 6.15015 6.21902 6.0579 6.13831 6.2135 0 0.0641696 
6.12418 6.20694 6.28319 0.069689 0.13304 0.190437 6.19903 0 0.0762451 
0.144876 0.206423 0.261531 0.310872 0 0.0841597 0.159004 0.225289 0.283913 
0.335793 0.381792 0.422692 5.86049 5.97231 5.90139 6.09275 6.02165 5.94739 
6.21902 6.15015 6.07676 5.99927 0.0641696 0 6.2135 6.13831 6.0579 
0.190437 0.13304 0.069689 6.28319 6.20694 6.12418 0.310872 0.261531 0.206423 
0.144876 0.0762451 6.28319 6.19903 0.422692 0.381792 0.335793 0.283913 0.225289 
0.159004 0.0841597 0 5.67937 5.70914 5.59016 5.74316 5.61528 5.49102 
5.78235 5.64441 5.50962 5.38246 5.8278 5.67854 5.5315 5.3926 5.26596 
5.88092 5.71897 5.55757 5.40467 5.26596 5.14407 5.94343 5.76745 5.58911 
5.41926 5.26596 5.13292 5.02016 6.01742 5.82633 5.62798 5.43724 5.26596 
5.11955 4.99789 4.89798 1.38521 1.28529 1.26302 1.16363 1.15026 1.13912 
1.01722 1.01722 1.01722 1.01722 0.845941 0.863926 0.878514 0.890581 0.900726 
0.655207 0.694072 0.725619 0.751687 0.773562 0.792164 0.456853 0.515737 0.564217 
0.604649 0.638778 0.667908 0.693022 0.265762 0.339753 0.402264 0.455383 0.500837 
0.540021 0.57405 0.603812 
