# vtk DataFile Version 4.0
vtk output
ASCII
DATASET POLYDATA
POINTS 1002 float
-84.3566 -93.4526 68.9942 -78.6093 -105.378 73.926 -75.6172 -90.0653 69.2842 
-72.854 -104.175 72.937 -80.2474 -97.0991 78.7297 -75.358 -95.0379 78.6353 
-79.0165 -99.3905 65.7204 -74.5973 -99.2712 65.7542 -75.5178 -109.448 79.5852 
-80.7999 -86.0816 72.1597 -74.5008 -113.276 68.9768 -82.1853 -89.3794 62.7241 
-83.7322 -94.0427 69.2928 -83.0386 -94.7993 69.7654 -82.2546 -95.8458 70.4626 
-81.5554 -97.1929 71.2129 -80.9629 -98.5969 71.9027 -80.1844 -99.7951 72.5325 
-79.4292 -101.006 73.016 -79.0941 -102.512 73.3568 -78.9262 -104.072 73.6613 
-84.1608 -93.5872 69.976 -83.8753 -93.8268 70.9129 -83.4719 -94.1576 71.855 
-83.0407 -94.4438 73.0127 -82.5549 -94.6289 74.2889 -81.9827 -94.9669 75.3734 
-81.5106 -95.5977 76.3503 -81.1963 -96.255 77.355 -80.8128 -96.7308 78.1899 
-84.1907 -93.7355 68.2035 -84.0516 -94.1305 67.5651 -83.8978 -94.6871 67.1285 
-83.6408 -95.3938 66.701 -83.1723 -96.0824 66.2036 -82.3785 -96.5615 65.8393 
-81.3158 -96.9491 65.7184 -80.2672 -97.5341 65.7351 -79.4914 -98.3951 65.7567 
-84.793 -92.8795 69.3392 -84.9877 -92.0451 69.6212 -84.8075 -90.9231 69.8006 
-84.3964 -89.7773 70.0214 -83.8738 -88.8541 70.3084 -83.1474 -88.1005 70.4827 
-82.3069 -87.4747 70.6296 -81.6331 -86.9909 71.0127 -81.184 -86.5359 71.5956 
-84.9414 -93.0432 68.1484 -85.7424 -92.5869 67.1627 -86.4385 -92.1241 66.2294 
-86.3862 -91.7212 65.5178 -85.6508 -91.2175 64.8118 -85.0504 -90.4636 63.8919 
-84.675 -89.7425 63.0824 -83.9968 -89.3703 62.7233 -83.044 -89.303 62.6816 
-78.799 -104.795 74.4495 -79.0537 -104.193 74.9946 -79.338 -103.569 75.6923 
-79.6292 -102.832 76.3695 -79.91 -101.986 76.874 -80.1515 -101.145 77.4463 
-80.351 -100.27 78.1223 -80.4768 -99.2483 78.5798 -80.4449 -98.1387 78.7323 
-78.715 -105.178 73.1393 -78.7729 -104.843 72.2328 -78.6731 -104.316 71.3612 
-78.495 -103.623 70.6185 -78.4222 -102.891 69.8569 -78.508 -102.227 68.9552 
-78.6512 -101.528 68.0564 -78.75 -100.702 67.2634 -78.8387 -99.9357 66.496 
-78.3609 -106.23 74.5142 -78.2783 -107.177 75.1073 -78.1675 -108.112 75.7377 
-77.7007 -108.755 76.4299 -77.1644 -109.054 77.076 -76.9154 -109.306 77.7242 
-76.6616 -109.693 78.5817 -76.2218 -110.006 79.409 -75.8059 -109.938 79.7463 
-78.2727 -106.488 73.604 -78.0168 -107.715 73.1278 -77.7976 -108.896 72.7425 
-77.2922 -109.721 72.4928 -76.6621 -110.497 72.0094 -76.4747 -111.719 71.2129 
-76.4162 -112.837 70.5171 -75.8646 -113.241 70.0378 -75.072 -113.262 69.5413 
-75.3566 -91.3911 69.7164 -74.8527 -92.6513 70.0008 -74.1508 -93.6463 70.2689 
-73.631 -94.8846 70.7951 -73.4441 -96.8307 71.4755 -73.2875 -98.8244 71.9651 
-73.0892 -100.243 72.241 -73.0193 -101.486 72.455 -72.985 -102.873 72.6759 
-75.4573 -90.1358 70.0663 -75.2867 -90.3692 70.8474 -75.2308 -90.836 71.8298 
-75.2451 -91.4039 72.9938 -75.2786 -92.022 74.0282 -75.376 -92.7811 74.9285 
-75.4194 -93.5572 75.9346 -75.3391 -94.1492 76.983 -75.296 -94.5958 77.8884 
-75.5396 -90.7869 68.7292 -75.327 -91.4918 68.1283 -75.0645 -92.2627 67.5732 
-74.8538 -93.1686 67.1561 -74.7188 -94.0654 66.821 -74.6576 -94.9236 66.4542 
-74.6193 -95.8992 66.0965 -74.558 -96.9738 65.8448 -74.5365 -98.0831 65.7322 
-75.7757 -88.9004 69.3475 -76.1083 -87.9491 69.5493 -76.655 -87.1933 69.9401 
-77.2579 -86.482 70.4455 -77.7863 -85.8064 70.9264 -78.3253 -85.1861 71.3187 
-79.061 -84.7655 71.6609 -79.8979 -84.8271 71.9528 -80.5079 -85.3645 72.1209 
-75.8158 -89.2983 68.3961 -76.1585 -88.6311 67.5367 -76.9087 -88.2531 66.9475 
-77.9379 -88.2246 66.3421 -78.7198 -88.1825 65.4206 -79.285 -87.95 64.5738 
-80.0595 -87.9717 64.0761 -80.9158 -88.4407 63.653 -81.5917 -88.9896 63.169 
-73.2147 -103.354 73.3791 -73.4739 -102.54 73.8421 -73.523 -101.757 74.5595 
-73.4087 -100.764 75.5912 -73.3474 -99.5149 76.5955 -73.5548 -98.4061 77.2622 
-74.048 -97.6185 77.6493 -74.6487 -96.8696 77.9409 -75.1252 -95.9728 78.2621 
-72.6158 -104.226 72.2359 -72.4264 -104.198 71.4659 -72.3139 -103.966 70.575 
-72.3886 -103.575 69.5353 -72.6631 -103.125 68.6332 -72.9305 -102.551 67.9562 
-73.1402 -101.811 67.1954 -73.4987 -100.989 66.4606 -74.0478 -100.133 66.0421 
-72.9394 -104.932 73.5723 -73.0906 -105.848 74.2621 -73.2878 -106.829 74.8997 
-73.5155 -107.69 75.5425 -73.7355 -108.429 76.3526 -73.8998 -109.039 77.1926 
-74.1489 -109.367 77.7996 -74.6047 -109.468 78.2978 -75.1131 -109.511 78.9216 
-72.5222 -105.293 72.7766 -72.3782 -106.236 72.4946 -72.6064 -107.386 72.0933 
-72.9111 -109.026 71.6053 -72.8543 -110.651 71.0602 -72.6506 -111.862 70.4966 
-72.8226 -112.856 69.9316 -73.3669 -113.532 69.4257 -73.969 -113.618 69.0996 
-79.6272 -96.7605 78.9255 -78.9727 -96.4855 79.0973 -78.4834 -96.0865 79.4306 
-78.1667 -95.4073 80.0232 -77.7563 -94.7425 80.6035 -77.0185 -94.4727 80.7876 
-76.1784 -94.5023 80.5271 -75.6527 -94.61 79.9915 -75.464 -94.7871 79.3213 
-79.7679 -98.1097 79.1951 -79.3676 -99.2371 79.8045 -79.1465 -100.485 80.608 
-78.9369 -101.922 81.2848 -78.4594 -103.573 81.5021 -77.6893 -105.155 81.4269 
-76.8634 -106.378 81.2667 -76.233 -107.4 80.8931 -75.8365 -108.45 80.272 
-80.3863 -95.8559 78.3952 -80.5826 -94.5303 77.984 -80.8149 -93.1735 77.4032 
-80.94 -91.8407 76.5939 -80.9236 -90.6432 75.7293 -80.8691 -89.6358 74.9639 
-80.7776 -88.6891 74.1899 -80.6794 -87.7386 73.3862 -80.6952 -86.8616 72.7024 
-75.3432 -96.1988 79.0846 -75.2645 -97.5659 79.489 -75.2622 -98.9373 79.7233 
-75.3995 -100.348 79.8105 -75.3855 -101.976 80.02 -75.1864 -103.621 80.274 
-75.1854 -105.088 80.1936 -75.38 -106.564 79.882 -75.4923 -108.094 79.6793 
-75.381 -93.8609 78.5423 -75.4523 -92.6546 78.2582 -75.8442 -91.2834 77.7355 
-76.5715 -89.8075 77.1734 -77.357 -88.5841 76.6078 -78.0875 -87.7562 75.7701 
-78.8417 -87.1167 74.7241 -79.5993 -86.5733 73.7834 -80.2673 -86.2172 72.9697 
-78.9415 -99.7557 65.1994 -78.7593 -100.102 64.7292 -78.2387 -100.276 64.4668 
-77.4049 -100.249 64.4221 -76.5562 -100.199 64.368 -75.858 -100.196 64.2927 
-75.3702 -100.092 64.5096 -75.1111 -99.8365 65.0285 -74.9057 -99.5351 65.5013 
-78.5399 -100.779 66.1062 -77.9443 -102.263 66.5162 -77.1611 -103.796 66.8881 
-76.5523 -105.524 66.9897 -76.2922 -107.394 66.9554 -76.0383 -109.08 67.1735 
-75.6247 -110.434 67.5658 -75.217 -111.545 67.9341 -74.8655 -112.489 68.3845 
-79.6382 -98.3312 64.9134 -80.5557 -97.2245 63.9848 -81.4316 -96.0536 63.1027 
-81.929 -95.0379 62.3681 -82.2394 -94.2307 61.757 -82.5747 -93.2398 61.3801 
-82.7248 -91.9589 61.3727 -82.6148 -90.8172 61.6597 -82.4105 -90.0246 62.1381 
-74.4191 -101.219 66.0492 -74.2422 -103.313 66.1576 -73.9558 -105.159 65.8217 
-73.5943 -106.732 65.2903 -73.3449 -108.265 65.191 -73.4168 -109.747 65.6645 
-73.806 -111.039 66.3473 -74.1906 -112.06 67.1007 -74.3664 -112.779 68.004 
-75.0839 -97.6871 65.2622 -75.6901 -96.2804 64.5751 -76.4524 -95.0885 63.8255 
-77.3541 -93.9436 63.1721 -78.2457 -92.8114 62.6133 -79.0383 -91.8773 62.1552 
-79.8555 -91.1754 61.9683 -80.7313 -90.5519 62.1067 -81.5278 -89.9397 62.4068 
-75.3313 -110.722 79.075 -75.2278 -111.879 78.3787 -75.2363 -112.986 77.4207 
-75.1517 -113.986 76.3053 -74.8329 -114.53 75.0147 -74.5005 -114.652 73.4956 
-74.364 -114.664 72.0749 -74.3597 -114.475 70.9743 -74.4064 -113.96 69.9816 
-81.1478 -85.6251 71.2513 -81.4879 -85.2909 70.1401 -81.8675 -85.1635 68.8767 
-82.3052 -85.206 67.6421 -82.6365 -85.4281 66.5293 -82.6945 -85.9919 65.4875 
-82.5737 -86.8333 64.5867 -82.4528 -87.7217 63.8976 -82.352 -88.5866 63.3032 
-83.4698 -94.2737 70.3297 -83.1163 -94.6365 71.38 -82.6484 -95.1013 70.9108 
-82.7689 -95.1069 72.5234 -82.2291 -95.5189 72.0757 -81.8318 -96.231 71.6444 
-82.4662 -95.5684 73.8415 -81.9637 -96.1585 73.3007 -81.4454 -96.7697 72.8349 
-81.2428 -97.7543 72.3503 -82.0596 -96.0354 75.0894 -81.8467 -96.9725 74.5653 
-81.343 -97.6631 74.0348 -80.9657 -98.4906 73.56 -80.7073 -99.3185 73.0088 
-81.584 -96.6613 76.1592 -81.6352 -97.7926 75.7497 -81.4478 -98.7096 75.1775 
-81.0006 -99.446 74.7004 -80.5141 -100.1 74.1685 -79.9944 -100.582 73.5265 
-81.2339 -97.3354 77.2006 -81.2844 -98.4792 76.8762 -81.3099 -99.5148 76.2671 
-81.069 -100.314 75.6774 -80.5119 -100.895 75.1758 -79.8981 -101.356 74.5122 
-79.4143 -101.864 73.8446 -80.9175 -97.823 78.1083 -80.9077 -98.9488 77.8634 
-80.8579 -99.9785 77.2859 -80.7217 -100.848 76.5854 -80.3486 -101.558 76.0461 
-79.8242 -102.14 75.4542 -79.3832 -102.706 74.7286 -79.1003 -103.367 74.1332 
-84.556 -92.9457 70.3569 -84.6276 -91.9737 70.6357 -84.1314 -93.079 71.2447 
-84.2722 -90.801 70.8027 -83.9736 -92.0094 71.4829 -83.5341 -93.2827 72.151 
-83.7111 -89.7914 70.9717 -83.4504 -90.9486 71.6112 -83.1923 -92.2465 72.3275 
-82.9312 -93.4621 73.2974 -83.1293 -88.9981 71.144 -82.8834 -90.0915 71.7591 
-82.6516 -91.3805 72.4426 -82.5444 -92.5817 73.4291 -82.3448 -93.6723 74.5178 
-82.4697 -88.2797 71.3279 -82.4201 -89.265 72.0611 -82.2053 -90.5095 72.7755 
-82.1134 -91.8187 73.6707 -82.0475 -92.9497 74.7366 -81.8053 -94.1359 75.635 
-81.7621 -87.7112 71.6799 -81.9101 -88.5506 72.526 -81.8757 -89.5952 73.3715 
-81.7871 -90.8648 74.1977 -81.7619 -92.1644 75.1591 -81.632 -93.4136 76.0622 
-81.3979 -94.7809 76.7481 -81.1612 -87.2818 72.1957 -81.2875 -88.1011 73.0098 
-81.4193 -89.0074 73.9111 -81.4421 -90.0435 74.7209 -81.4412 -91.2593 75.5676 
-81.3803 -92.5837 76.4793 -81.1907 -93.953 77.2104 -80.9821 -95.362 77.7399 
-80.1503 -87.0914 73.5626 -79.4963 -87.4801 74.4583 -80.0962 -88.1309 74.2504 
-78.8176 -88.0006 75.5418 -79.4277 -88.5944 75.1593 -80.1181 -89.2272 74.9896 
-78.1742 -88.7078 76.6091 -78.8363 -89.1502 76.2781 -79.4127 -89.7778 75.9176 
-80.1678 -90.2702 75.7647 -77.397 -89.7863 77.3396 -78.2918 -90.0271 77.3083 
-78.8998 -90.481 77.0994 -79.474 -91.0045 76.7978 -80.2463 -91.4155 76.6264 
-76.4324 -91.1504 77.9838 -77.471 -91.2414 78.1232 -78.41 -91.4852 78.1964 
-78.9634 -91.9011 78.0014 -79.5176 -92.3708 77.6274 -80.2147 -92.7516 77.4577 
-75.7076 -92.4371 78.7037 -76.5112 -92.4167 78.9825 -77.6257 -92.5151 79.1684 
-78.4206 -92.7869 79.0979 -78.8499 -93.2961 78.6414 -79.3413 -93.7867 78.2109 
[...]
POINT_DATA 1002
FIELD FieldData 2
Theta 1 1002 float
2.58802 2.58802 0.553574 0.553574 2.12437 1.01722 2.12437 1.01722 1.5708 
1.5708 1.5708 1.5708 2.68241 2.78649 2.89924 3.01861 3.14159 3.01861 
2.89924 2.78649 2.68241 2.61035 2.61791 2.60515 2.56958 2.51327 2.44184 
2.36202 2.27983 2.1997 2.61035 2.61791 2.60515 2.56958 2.51327 2.44184 
2.36202 2.27983 2.1997 2.50947 2.41899 2.31794 2.20864 2.0944 1.97902 
1.86631 1.75944 1.66056 2.50947 2.41899 2.31794 2.20864 2.0944 1.97902 
1.86631 1.75944 1.66056 2.61035 2.61791 2.60515 2.56958 2.51327 2.44184 
2.36202 2.27983 2.1997 2.61035 2.61791 2.60515 2.56958 2.51327 2.44184 
2.36202 2.27983 2.1997 2.50947 2.41899 2.31794 2.20864 2.0944 1.97902 
1.86631 1.75944 1.66056 2.50947 2.41899 2.31794 2.20864 2.0944 1.97902 
1.86631 1.75944 1.66056 0.459179 0.355101 0.242354 0.122983 0 0.122983 
0.242354 0.355101 0.459179 0.531246 0.523681 0.536438 0.57201 0.628319 0.699757 
0.779574 0.86176 0.941896 0.531246 0.523681 0.536438 0.57201 0.628319 0.699757 
0.779574 0.86176 0.941896 0.632123 0.7226 0.823657 0.932948 1.0472 1.16257 
1.27528 1.38216 1.48103 0.632123 0.7226 0.823657 0.932948 1.0472 1.16257 
1.27528 1.38216 1.48103 0.531246 0.523681 0.536438 0.57201 0.628319 0.699757 
0.779574 0.86176 0.941896 0.531246 0.523681 0.536438 0.57201 0.628319 0.699757 
0.779574 0.86176 0.941896 0.632123 0.7226 0.823657 0.932948 1.0472 1.16257 
1.27528 1.38216 1.48103 0.632123 0.7226 0.823657 0.932948 1.0472 1.16257 
1.27528 1.38216 1.48103 2.02998 1.9259 1.81315 1.69378 1.5708 1.44781 
1.32844 1.2157 1.11162 2.0928 2.05283 2.00422 1.94767 1.88496 1.81867 
1.75177 1.68695 1.62623 2.0928 2.05283 2.00422 1.94767 1.88496 1.81867 
1.75177 1.68695 1.62623 1.0488 1.08876 1.13737 1.19392 1.25664 1.32292 
1.38982 1.45464 1.51537 1.0488 1.08876 1.13737 1.19392 1.25664 1.32292 
1.38982 1.45464 1.51537 2.02998 1.9259 1.81315 1.69378 1.5708 1.44781 
1.32844 1.2157 1.11162 2.0928 2.05283 2.00422 1.94767 1.88496 1.81867 
1.75177 1.68695 1.62623 2.0928 2.05283 2.00422 1.94767 1.88496 1.81867 
1.75177 1.68695 1.62623 1.0488 1.08876 1.13737 1.19392 1.25664 1.32292 
1.38982 1.45464 1.51537 1.0488 1.08876 1.13737 1.19392 1.25664 1.32292 
1.38982 1.45464 1.51537 1.5708 1.5708 1.5708 1.5708 1.5708 1.5708 
1.5708 1.5708 1.5708 1.5708 1.5708 1.5708 1.5708 1.5708 1.5708 
1.5708 1.5708 1.5708 2.70908 2.71362 2.81592 2.68886 2.81002 2.92597 
2.6349 2.76254 2.89233 3.01997 2.55881 2.68262 2.80854 2.92834 3.01997 
2.47007 2.58462 2.70048 2.80854 2.89233 2.92597 2.37702 2.48017 2.58462 
2.68262 2.76254 2.81002 2.81592 2.28567 2.37702 2.47007 2.55881 2.6349 
2.68886 2.71362 2.70908 2.52097 2.4195 2.51718 2.30791 2.40503 2.49426 
2.18928 2.28408 2.3734 2.45144 2.06758 2.15805 2.24572 2.32523 2.39165 
1.94707 2.03138 2.11543 2.19453 2.26401 2.32035 1.83164 1.90847 1.98711 
2.06376 2.13422 2.1949 2.24359 1.72413 1.79288 1.86489 1.93728 2.00658 
2.06938 2.12312 2.16654 1.5708 1.50988 1.63171 1.44492 1.5708 1.69667 
1.37826 1.5059 1.63569 1.76333 1.31281 1.43962 1.5708 1.70197 1.82878 
1.25155 1.37501 1.50478 1.63681 1.76659 1.89004 1.19686 1.31493 1.44074 
1.5708 1.70086 1.82666 1.94473 1.15011 1.26149 1.38136 1.50697 1.63462 
1.76024 1.88011 1.99148 1.99148 1.88011 1.94473 1.76024 1.82666 1.89004 
1.63462 1.70086 1.76659 1.82878 1.50697 1.5708 1.63681 1.70197 1.76333 
1.38136 1.44074 1.50478 1.5708 1.63569 1.69667 1.26149 1.31493 1.37501 
1.43962 1.5059 1.5708 1.63171 1.15011 1.19686 1.25155 1.31281 1.37826 
1.44492 1.50988 1.5708 2.16654 2.12312 2.24359 2.06938 2.1949 2.32035 
2.00658 2.13422 2.26401 2.39165 1.93728 2.06376 2.19453 2.32523 2.45144 
1.86489 1.98711 2.11543 2.24572 2.3734 2.49426 1.79288 1.90847 2.03138 
2.15805 2.28408 2.40503 2.51718 1.72413 1.83164 1.94707 2.06758 2.18928 
2.30791 2.4195 2.52097 1.66533 1.66946 1.76911 1.67254 1.777 1.88041 
1.67418 1.78222 1.89102 1.99634 1.67418 1.78405 1.89674 2.00785 2.11299 
1.67254 1.78222 1.89674 2.01191 2.12307 2.22608 1.66946 1.777 1.89102 
2.00785 2.12307 2.23222 2.33166 1.66533 1.76911 1.88041 1.99634 2.11299 
2.22608 2.33166 2.42672 1.47626 1.37249 1.47213 1.26118 1.36459 1.46906 
1.14526 1.25058 1.35938 1.46741 1.0286 1.13374 1.24485 1.35755 1.46741 
0.915514 1.01852 1.12969 1.24485 1.35938 1.46906 0.809937 0.909371 1.01852 
1.13374 1.25058 1.36459 1.47213 0.714871 0.809937 0.915514 1.0286 1.14526 
1.26118 1.37249 1.47626 0.975055 0.898002 1.01847 0.821245 0.946693 1.07221 
0.749941 0.877585 1.00737 1.13501 0.690152 0.816367 0.94706 1.07784 1.20431 
0.647337 0.768195 0.895868 1.02616 1.15448 1.2767 0.624416 0.736561 0.857515 
0.983547 1.11021 1.23313 1.34871 0.620619 0.722093 0.833684 0.952313 1.07402 
1.19452 1.30996 1.41746 0.855925 0.764569 0.764569 0.671524 0.661425 0.671524 
0.582786 0.556971 0.556971 0.582786 0.506696 0.458968 0.441109 0.458968 0.506696 
0.45273 0.379052 0.333054 0.333054 0.379052 0.45273 0.427969 0.331576 0.249267 
0.21325 0.249267 0.331576 0.427969 0.432512 0.325669 0.215619 0.121622 0.121622 
0.215619 0.325669 0.432512 0.432512 0.427969 0.325669 0.45273 0.331576 0.215619 
0.506696 0.379052 0.249267 0.121622 0.582786 0.458968 0.333054 0.21325 0.121622 
0.671524 0.556971 0.441109 0.333054 0.249267 0.215619 0.764569 0.661425 0.556971 
0.458968 0.379052 0.331576 0.325669 0.855925 0.764569 0.671524 0.582786 0.506696 
0.45273 0.427969 0.432512 0.975055 1.01847 0.898002 1.07221 0.946693 0.821245 
1.13501 1.00737 0.877585 0.749941 1.20431 1.07784 0.94706 0.816367 0.690152 
1.2767 1.15448 1.02616 0.895868 0.768195 0.647337 1.34871 1.23313 1.11021 
0.983547 0.857515 0.736561 0.624416 1.41746 1.30996 1.19452 1.07402 0.952313 
0.833684 0.722093 0.620619 1.15011 1.26149 1.19686 1.38136 1.31493 1.25155 
1.50697 1.44074 1.37501 1.31281 1.63462 1.5708 1.50478 1.43962 1.37826 
1.76024 1.70086 1.63681 1.5708 1.5059 1.44492 1.88011 1.82666 1.76659 
1.70197 1.63569 1.5708 1.50988 1.99148 1.94473 1.89004 1.82878 1.76333 
1.69667 1.63171 1.5708 1.15011 1.19686 1.26149 1.25155 1.31493 1.38136 
1.31281 1.37501 1.44074 1.50697 1.37826 1.43962 1.50478 1.5708 1.63462 
1.44492 1.5059 1.5708 1.63681 1.70086 1.76024 1.50988 1.5708 1.63569 
1.70197 1.76659 1.82666 1.88011 1.5708 1.63171 1.69667 1.76333 1.82878 
1.89004 1.94473 1.99148 1.72413 1.83164 1.79288 1.94707 1.90847 1.86489 
2.06758 2.03138 1.98711 1.93728 2.18928 2.15805 2.11543 2.06376 2.00658 
2.30791 2.28408 2.24572 2.19453 2.13422 2.06938 2.4195 2.40503 2.3734 
2.32523 2.26401 2.1949 2.12312 2.52097 2.51718 2.49426 2.45144 2.39165 
2.32035 2.24359 2.16654 2.70908 2.81592 2.71362 2.92597 2.81002 2.68886 
3.01997 2.89233 2.76254 2.6349 3.01997 2.92834 2.80854 2.68262 2.55881 
2.92597 2.89233 2.80854 2.70048 2.58462 2.47007 2.81592 2.81002 2.76254 
2.68262 2.58462 2.48017 2.37702 2.70908 2.71362 2.68886 2.6349 2.55881 
2.47007 2.37702 2.28567 2.16654 2.24359 2.12312 2.32035 2.1949 2.06938 
2.39165 2.26401 2.13422 2.00658 2.45144 2.32523 2.19453 2.06376 1.93728 
2.49426 2.3734 2.24572 2.11543 1.98711 1.86489 2.51718 2.40503 2.28408 
2.15805 2.03138 1.90847 1.79288 2.52097 2.4195 2.30791 2.18928 2.06758 
1.94707 1.83164 1.72413 1.66533 1.76911 1.66946 1.88041 1.777 1.67254 
1.99634 1.89102 1.78222 1.67418 2.11299 2.00785 1.89674 1.78405 1.67418 
2.22608 2.12307 2.01191 1.89674 1.78222 1.67254 2.33166 2.23222 2.12307 
2.00785 1.89102 1.777 1.66946 2.42672 2.33166 2.22608 2.11299 1.99634 
1.88041 1.76911 1.66533 1.47626 1.47213 1.37249 1.46906 1.36459 1.26118 
1.46741 1.35938 1.25058 1.14526 1.46741 1.35755 1.24485 1.13374 1.0286 
1.46906 1.35938 1.24485 1.12969 1.01852 0.915514 1.47213 1.36459 1.25058 
1.13374 1.01852 0.909371 0.809937 1.47626 1.37249 1.26118 1.14526 1.0286 
0.915514 0.809937 0.714871 1.41746 1.30996 1.34871 1.19452 1.23313 1.2767 
1.07402 1.11021 1.15448 1.20431 0.952313 0.983547 1.02616 1.07784 1.13501 
0.833684 0.857515 0.895868 0.94706 1.00737 1.07221 0.722093 0.736561 0.768195 
0.816367 0.877585 0.946693 1.01847 0.620619 0.624416 0.647337 0.690152 0.749941 
0.821245 0.898002 0.975055 0.975055 0.898002 1.01847 0.821245 0.946693 1.07221 
0.749941 0.877585 1.00737 1.13501 0.690152 0.816367 0.94706 1.07784 1.20431 
0.647337 0.768195 0.895868 1.02616 1.15448 1.2767 0.624416 0.736561 0.857515 
0.983547 1.11021 1.23313 1.34871 0.620619 0.722093 0.833684 0.952313 1.07402 
1.19452 1.30996 1.41746 
Phi 1 1002 float
6.28319 3.14159 6.28319 3.14159 4.71239 4.71239 1.5708 1.5708 3.69517 
5.72961 2.58802 0.553574 6.28319 6.28319 6.28319 6.28319 3.14159 3.14159 
3.14159 3.14159 3.14159 6.1053 5.8988 5.67687 5.45995 5.26596 5.10322 
4.97131 4.86569 4.78095 0.177881 0.384387 0.606312 0.823235 1.01722 1.17997 
1.31187 1.4175 1.50223 6.18928 6.10703 6.03531 5.97283 5.91832 5.87061 
5.82869 5.79168 5.75886 0.0939024 0.176153 0.247873 0.310351 0.364864 0.412573 
0.454497 0.491504 0.524326 3.31947 3.52598 3.7479 3.96483 4.15881 4.32156 
4.45346 4.55909 4.64383 2.96371 2.75721 2.53528 2.31836 2.12437 1.96162 
1.82972 1.72409 1.63936 3.2355 3.31775 3.38947 3.45194 3.50646 3.55417 
3.59609 3.6331 3.66592 3.04769 2.96544 2.89372 2.83124 2.77673 2.72902 
2.6871 2.65009 2.61727 6.28319 6.28319 6.28319 6.28319 3.14159 3.14159 
3.14159 3.14159 3.14159 6.1053 5.8988 5.67687 5.45995 5.26596 5.10322 
4.97131 4.86569 4.78095 0.177881 0.384387 0.606312 0.823235 1.01722 1.17997 
1.31187 1.4175 1.50223 6.18928 6.10703 6.03531 5.97283 5.91832 5.87061 
5.82869 5.79168 5.75886 0.0939024 0.176153 0.247873 0.310351 0.364864 0.412573 
0.454497 0.491504 0.524326 3.31947 3.52598 3.7479 3.96483 4.15881 4.32156 
4.45346 4.55909 4.64383 2.96371 2.75721 2.53528 2.31836 2.12437 1.96162 
1.82972 1.72409 1.63936 3.2355 3.31775 3.38947 3.45194 3.50646 3.55417 
3.59609 3.6331 3.66592 3.04769 2.96544 2.89372 2.83124 2.77673 2.72902 
2.6871 2.65009 2.61727 4.71239 4.71239 4.71239 4.71239 4.71239 4.71239 
4.71239 4.71239 4.71239 4.60879 4.49914 4.3857 4.27128 4.15881 4.05096 
3.94976 3.85646 3.77161 4.81599 4.92564 5.03907 5.1535 5.26596 5.37381 
5.47502 5.56831 5.65317 4.60879 4.49914 4.3857 4.27128 4.15881 4.05096 
3.94976 3.85646 3.77161 4.81599 4.92564 5.03907 5.1535 5.26596 5.37381 
5.47502 5.56831 5.65317 1.5708 1.5708 1.5708 1.5708 1.5708 1.5708 
1.5708 1.5708 1.5708 1.6744 1.78405 1.89748 2.01191 2.12437 2.23222 
2.33343 2.42672 2.51157 1.4672 1.35755 1.24411 1.12969 1.01722 0.909371 
0.808166 0.714871 0.63002 1.6744 1.78405 1.89748 2.01191 2.12437 2.23222 
2.33343 2.42672 2.51157 1.4672 1.35755 1.24411 1.12969 1.01722 0.909371 
0.808166 0.714871 0.63002 3.60077 3.49669 3.38395 3.26458 3.14159 3.01861 
2.89924 2.78649 2.68241 5.82401 5.92808 6.04083 6.1602 6.28319 0.122983 
0.242354 0.355101 0.459179 6.05603 5.78856 5.97021 5.51259 5.60297 5.78856 
5.26596 5.26596 5.26596 5.26596 5.06749 5.0121 4.91556 4.71239 4.15881 
4.91556 4.83537 4.71239 4.50922 4.15881 3.63622 4.80045 4.71239 4.58941 
4.41268 4.15881 3.82181 3.45456 4.71239 4.62433 4.50922 4.35729 4.15881 
3.91219 3.63622 3.36875 6.01742 5.94343 5.82633 5.88092 5.76745 5.62798 
5.8278 5.71897 5.58911 5.43724 5.78235 5.67854 5.55757 5.41926 5.26596 
5.74316 5.64441 5.5315 5.40467 5.26596 5.11955 5.70914 5.61528 5.50962 
5.3926 5.26596 5.13292 4.99789 5.67937 5.59016 5.49102 5.38246 5.26596 
5.14407 5.02016 4.89798 5.56831 5.47502 5.47502 5.37381 5.37381 5.37381 
5.26596 5.26596 5.26596 5.26596 5.1535 5.1535 5.1535 5.1535 5.1535 
5.03907 5.03907 5.03907 5.03907 5.03907 5.03907 4.92564 4.92564 4.92564 
4.92564 4.92564 4.92564 4.92564 4.81599 4.81599 4.81599 4.81599 4.81599 
4.81599 4.81599 4.81599 4.60879 4.60879 4.49914 4.60879 4.49914 4.3857 
4.60879 4.49914 4.3857 4.27128 4.60879 4.49914 4.3857 4.27128 4.15881 
4.60879 4.49914 4.3857 4.27128 4.15881 4.05096 4.60879 4.49914 4.3857 
4.27128 4.15881 4.05096 3.94976 4.60879 4.49914 4.3857 4.27128 4.15881 
4.05096 3.94976 3.85646 4.5268 4.40462 4.42689 4.28071 4.29185 4.30523 
4.15881 4.15881 4.15881 4.15881 4.04232 4.03217 4.02011 4.00552 3.98753 
3.93376 3.91515 3.89328 3.86721 3.83566 3.7968 3.83461 3.8095 3.78037 
3.74624 3.70581 3.65733 3.59845 3.7454 3.71564 3.68161 3.64243 3.59698 
3.54386 3.48135 3.40735 3.56428 3.45246 3.52338 3.33203 3.40312 3.47739 
3.20576 3.27463 3.34802 3.42551 3.07742 3.14159 3.21128 3.28647 3.36688 
2.95116 3.00855 3.0719 3.14159 3.21784 3.3006 2.83072 2.88006 2.93517 
2.99672 3.06535 3.14159 3.22575 2.7189 2.7598 2.8058 2.85768 2.9163 
2.98259 3.05743 3.14159 3.56428 3.52338 3.45246 3.47739 3.40312 3.33203 
3.42551 3.34802 3.27463 3.20576 3.36688 3.28647 3.21128 3.14159 3.07742 
3.3006 3.21784 3.14159 3.0719 3.00855 2.95116 3.22575 3.14159 3.06535 
2.99672 2.93517 2.88006 2.83072 3.14159 3.05743 2.98259 2.9163 2.85768 
2.8058 2.7598 2.7189 4.5268 4.42689 4.40462 4.30523 4.29185 4.28071 
4.15881 4.15881 4.15881 4.15881 3.98753 4.00552 4.02011 4.03217 4.04232 
3.7968 3.83566 3.86721 3.89328 3.91515 3.93376 3.59845 3.65733 3.70581 
3.74624 3.78037 3.8095 3.83461 3.40735 3.48135 3.54386 3.59698 3.64243 
3.68161 3.71564 3.7454 4.71239 4.80045 4.62433 4.91556 4.71239 4.50922 
5.06749 4.83537 4.58941 4.35729 5.26596 5.0121 4.71239 4.41268 4.15881 
5.51259 5.26596 4.91556 4.50922 4.15881 3.91219 5.78856 5.60297 5.26596 
4.71239 4.15881 3.82181 3.63622 6.05603 5.97021 5.78856 5.26596 4.15881 
3.63622 3.45456 3.36875 0.227158 0.494626 0.312971 0.770593 0.680215 0.494626 
1.01722 1.01722 1.01722 1.01722 1.2157 1.27109 1.36763 1.5708 2.12437 
1.36763 1.44781 1.5708 1.77397 2.12437 2.64697 1.48273 1.5708 1.69378 
1.8705 2.12437 2.46138 2.82862 1.5708 1.65886 1.77397 1.9259 2.12437 
2.371 2.64697 2.91443 1.75639 1.87857 1.8563 2.00248 1.99133 1.97796 
2.12437 2.12437 2.12437 2.12437 2.24087 2.25101 2.26308 2.27767 2.29565 
2.34943 2.36803 2.38991 2.41597 2.44752 2.48639 2.44857 2.47368 2.50281 
2.53694 2.57738 2.62586 2.68474 2.53778 2.56754 2.60157 2.64076 2.68621 
2.73933 2.80184 2.87583 1.6744 1.6744 1.78405 1.6744 1.78405 1.89748 
1.6744 1.78405 1.89748 2.01191 1.6744 1.78405 1.89748 2.01191 2.12437 
1.6744 1.78405 1.89748 2.01191 2.12437 2.23222 1.6744 1.78405 1.89748 
2.01191 2.12437 2.23222 2.33343 1.6744 1.78405 1.89748 2.01191 2.12437 
2.23222 2.33343 2.42672 1.4672 1.35755 1.4672 1.24411 1.35755 1.4672 
1.12969 1.24411 1.35755 1.4672 1.01722 1.12969 1.24411 1.35755 1.4672 
0.909371 1.01722 1.12969 1.24411 1.35755 1.4672 0.808166 0.909371 1.01722 
1.12969 1.24411 1.35755 1.4672 0.714871 0.808166 0.909371 1.01722 1.12969 
1.24411 1.35755 1.4672 0.603812 0.57405 0.693022 0.540021 0.667908 0.792164 
0.500837 0.638778 0.773562 0.900726 0.455383 0.604649 0.751687 0.890581 1.01722 
0.402264 0.564217 0.725619 0.878514 1.01722 1.13912 0.339753 0.515737 0.694072 
0.863926 1.01722 1.15026 1.26302 0.265762 0.456853 0.655207 0.845941 1.01722 
1.16363 1.28529 1.38521 0.227158 0.312971 0.494626 0.494626 0.680215 0.770593 
1.01722 1.01722 1.01722 1.01722 2.12437 1.5708 1.36763 1.27109 1.2157 
2.64697 2.12437 1.77397 1.5708 1.44781 1.36763 2.82862 2.46138 2.12437 
1.8705 1.69378 1.5708 1.48273 2.91443 2.64697 2.371 2.12437 1.9259 
1.77397 1.65886 1.5708 1.75639 1.8563 1.87857 1.97796 1.99133 2.00248 
2.12437 2.12437 2.12437 2.12437 2.29565 2.27767 2.26308 2.25101 2.24087 
2.48639 2.44752 2.41597 2.38991 2.36803 2.34943 2.68474 2.62586 2.57738 
2.53694 2.50281 2.47368 2.44857 2.87583 2.80184 2.73933 2.68621 2.64076 
2.60157 2.56754 2.53778 5.86049 5.90139 5.97231 5.94739 6.02165 6.09275 
5.99927 6.07676 6.15015 6.21902 6.0579 6.13831 6.2135 0 0.0641696 
6.12418 6.20694 6.28319 0.069689 0.13304 0.190437 6.19903 0 0.0762451 
0.144876 0.206423 0.261531 0.310872 0 0.0841597 0.159004 0.225289 0.283913 
0.335793 0.381792 0.422692 5.86049 5.97231 5.90139 6.09275 6.02165 5.94739 
6.21902 6.15015 6.07676 5.99927 0.0641696 0 6.2135 6.13831 6.0579 
0.190437 0.13304 0.069689 6.28319 6.20694 6.12418 0.310872 0.261531 0.206423 
0.144876 0.0762451 6.28319 6.19903 0.422692 0.381792 0.335793 0.283913 0.225289 
0.159004 0.0841597 0 5.67937 5.70914 5.59016 5.74316 5.61528 5.49102 
5.78235 5.64441 5.50962 5.38246 5.8278 5.67854 5.5315 5.3926 5.26596 
5.88092 5.71897 5.55757 5.40467 5.26596 5.14407 5.94343 5.76745 5.58911 
5.41926 5.26596 5.13292 5.02016 6.01742 5.82633 5.62798 5.43724 5.26596 
5.11955 4.99789 4.89798 1.38521 1.28529 1.26302 1.16363 1.15026 1.13912 
1.01722 1.01722 1.01722 1.01722 0.845941 0.863926 0.878514 0.890581 0.900726 
0.655207 0.694072 0.725619 0.751687 0.773562 0.792164 0.456853 0.515737 0.564217 
0.604649 0.638778 0.667908 0.693022 0.265762 0.339753 0.402264 0.455383 0.500837 
0.540021 0.57405 0.603812 
