# vtk DataFile Version 4.0
vtk output
ASCII
DATASET POLYDATA
POINTS 1002 float
-84.3784 -89.2155 70.6739 -77.7432 -102.008 75.4139 -73.8075 -85.0324 70.3767 
-70.5903 -100.87 75.2196 -79.9769 -93.3574 81.193 -73.3473 -90.3189 81.8923 
-77.9708 -96.2032 66.2605 -72.4079 -96.4781 65.9564 -73.8827 -106.687 83.0611 
-79.5226 -81.1104 73.3987 -72.7737 -110.46 69.7688 -81.5554 -83.5751 62.3578 
-83.528 -89.8829 71.0343 -82.6245 -90.7382 71.513 -81.7603 -91.902 72.2007 
-80.833 -93.1552 72.9616 -79.9624 -94.4332 73.6091 -79.3229 -95.9652 74.1334 
-78.7648 -97.5816 74.6077 -78.2231 -99.0401 75.0203 -77.8716 -100.497 75.2927 
-84.1421 -89.3468 71.7702 -83.7964 -89.6241 72.7326 -83.2011 -89.9138 73.571 
-82.5716 -90.1752 74.7884 -82.2657 -90.5446 76.4543 -82.0974 -91.0552 77.9437 
-81.7067 -91.6105 79.0708 -81.1649 -92.204 80.0302 -80.5964 -92.8213 80.7467 
-84.1598 -89.6215 69.8766 -83.9291 -90.1405 69.2379 -83.5101 -90.6958 68.6432 
-82.8138 -91.2541 67.9388 -82.1402 -91.9878 67.3228 -81.5635 -92.8533 66.9826 
-80.74 -93.6096 66.7387 -79.6949 -94.3373 66.4916 -78.7427 -95.2151 66.3345 
-84.8517 -88.4397 70.9946 -84.9747 -87.3337 71.306 -84.7026 -86.0297 71.5471 
-84.1356 -84.8705 71.6773 -83.3382 -84.0554 71.7324 -82.4594 -83.3244 71.9256 
-81.7117 -82.4489 72.3751 -81.0374 -81.7124 72.8456 -80.2869 -81.3342 73.1441 
-84.9212 -88.7845 69.7022 -85.1927 -88.2349 68.5462 -85.1998 -87.4743 67.2979 
-85.1828 -86.5758 66.1475 -85.0601 -85.6567 65.1173 -84.6491 -84.8649 64.0671 
-84.1696 -84.3416 63.1215 -83.6186 -84.0172 62.5337 -82.7095 -83.7555 62.3163 
-78.0771 -101.549 76.0909 -78.3598 -100.927 76.9178 -78.615 -100.128 77.7547 
-78.9349 -99.2663 78.5043 -79.5115 -98.4601 79.3159 -80.2635 -97.6947 80.245 
-80.6828 -96.8538 80.9665 -80.5555 -95.8125 81.2509 -80.2213 -94.5864 81.252 
-77.3919 -101.466 74.7695 -77.0378 -100.897 74.051 -76.7717 -100.308 73.1922 
-76.6459 -99.6902 72.2226 -76.639 -99.037 71.2223 -76.732 -98.3738 70.1773 
-76.9684 -97.8095 69.0424 -77.3272 -97.335 67.9327 -77.6881 -96.8031 67.0057 
-77.9028 -103.26 75.8914 -77.9164 -104.397 76.5836 -77.6579 -105.279 77.637 
-77.2011 -105.913 78.8192 -76.6077 -106.342 79.6889 -75.9661 -106.674 80.3338 
-75.5088 -106.985 81.1731 -75.1611 -107.148 82.1194 -74.6097 -107.034 82.7823 
-77.4368 -103.2 75.0871 -77.0392 -104.407 74.7246 -76.6315 -105.666 74.2499 
-76.2809 -107.031 73.694 -75.9105 -108.321 73.1084 -75.455 -109.339 72.3598 
-74.934 -110.045 71.5102 -74.3211 -110.394 70.8379 -73.5819 -110.458 70.317 
-73.3253 -86.1566 70.889 -72.9352 -87.6481 71.4749 -72.5229 -89.4139 72.1647 
-71.8298 -90.9953 72.9264 -70.9509 -92.1411 73.5774 -70.4219 -93.4986 73.997 
-70.4133 -95.5608 74.3135 -70.5585 -97.7213 74.6438 -70.6086 -99.4324 74.9542 
-73.6992 -85.1862 71.5079 -73.5938 -85.4761 72.6765 -73.5705 -85.971 73.825 
-73.5907 -86.5342 75.0246 -73.6049 -87.1082 76.2996 -73.6365 -87.805 77.5061 
-73.6084 -88.4747 78.6522 -73.4617 -88.9878 79.8594 -73.3297 -89.5641 81.0039 
-73.5721 -85.5707 69.5981 -73.3585 -86.2816 68.9117 -73.2163 -87.2322 68.3911 
-73.1473 -88.424 67.9874 -73.0409 -89.7606 67.5957 -72.8241 -91.1004 67.1704 
-72.5908 -92.3691 66.7438 -72.4512 -93.652 66.3763 -72.4085 -95.0417 66.1165 
-74.3509 -84.1589 70.5837 -74.9835 -83.2612 70.8022 -75.5266 -82.2257 71.0368 
-75.9116 -81.0486 71.3265 -76.347 -79.9152 71.76 -77.0201 -79.1508 72.3914 
-77.806 -79.0711 72.9547 -78.4946 -79.642 73.175 -79.0456 -80.4374 73.2299 
-74.1947 -84.3389 69.3769 -74.6794 -83.6326 68.3824 -75.3879 -82.9954 67.4877 
-76.2612 -82.4773 66.6387 -77.0957 -82.0375 65.6981 -77.8679 -81.7861 64.7418 
-78.6605 -81.9445 63.996 -79.5422 -82.4394 63.4386 -80.5504 -83.0118 62.889 
-70.4905 -99.9318 76.1616 -70.4129 -98.8429 77.1104 -70.6718 -97.8581 77.7863 
-71.3161 -97.0648 78.1956 -71.861 -96.0912 78.7232 -72.1488 -94.824 79.4927 
-72.5408 -93.6182 80.2389 -72.9737 -92.5167 80.8584 -73.1917 -91.3752 81.4234 
-70.5685 -100.812 74.1821 -70.4429 -100.714 73.1354 -70.4842 -100.54 72.0449 
-70.6703 -100.106 70.8186 -70.5844 -99.3003 69.4468 -70.3677 -98.4563 68.1508 
-70.6384 -97.968 67.2511 -71.3536 -97.6765 66.7922 -72.0061 -97.2018 66.4541 
-70.4776 -101.879 76.0769 -70.3732 -103.088 77.0594 -70.5206 -104.169 78.0024 
-70.9553 -104.846 78.6768 -71.4595 -105.374 79.2463 -71.9146 -106.007 80.079 
-72.3044 -106.498 81.0357 -72.6781 -106.689 81.823 -73.1945 -106.732 82.4887 
-70.5969 -102.334 74.819 -70.5624 -103.898 74.3452 -70.4594 -105.417 73.7466 
-70.4475 -106.771 73.1 -70.7223 -107.95 72.4608 -71.0529 -109.07 71.6593 
-71.1906 -110.136 70.6957 -71.4274 -110.805 69.9721 -72.0192 -110.84 69.7296 
-79.4542 -92.8949 81.4596 -78.8816 -92.3957 81.9276 -78.1914 -91.9846 82.4408 
-77.4014 -91.675 82.7917 -76.6284 -91.2224 83.1095 -75.9027 -90.6604 83.4102 
-75.1328 -90.3537 83.3975 -74.3288 -90.3012 83.0471 -73.6867 -90.2863 82.5313 
-79.3735 -94.5406 81.6046 -78.7308 -95.7552 82.151 -78.1877 -97.184 82.8967 
-77.5922 -98.8062 83.5302 -76.8098 -100.314 83.7468 -76.0931 -101.817 83.8688 
-75.5454 -103.557 84.2179 -74.9799 -105.096 84.3752 -74.3898 -106.052 83.9189 
-80.1649 -91.8467 80.8459 -80.227 -90.332 80.327 -80.1816 -88.837 79.7023 
-80.2213 -87.3026 79.0543 -80.2998 -85.8797 78.2514 -80.1543 -84.7118 77.2528 
-79.862 -83.6767 76.2289 -79.6595 -82.703 75.212 -79.5638 -81.8514 74.2206 
-73.357 -91.7921 82.3463 -73.3729 -93.3503 82.7265 -73.3081 -95.0242 83.1522 
-73.1668 -96.8507 83.6361 -73.0047 -98.6626 83.9583 -72.9204 -100.579 84.039 
-72.962 -102.743 84.0803 -73.1305 -104.63 84.0466 -73.4544 -105.844 83.695 
-73.6554 -88.9123 81.7114 -74.3246 -87.6393 81.3166 -75.0973 -86.3334 80.7853 
-75.6151 -84.8291 80.1424 -76.1873 -83.4541 79.2968 -77.148 -82.4964 78.2394 
-77.9962 -81.8534 76.9789 -78.4361 -81.4764 75.5729 -78.8709 -81.2897 74.3064 
-77.6166 -96.4689 65.7948 -77.1523 -96.8143 65.2662 -76.6245 -97.278 64.737 
-75.942 -97.709 64.5056 -74.9936 -97.9224 64.5812 -73.9555 -97.8991 64.5776 
-73.1736 -97.6684 64.5552 -72.7713 -97.2901 64.8759 -72.5815 -96.8743 65.443 
-77.182 -97.7392 66.5524 -76.5094 -99.4618 66.6785 -75.983 -101.279 66.7081 
-75.661 -103.257 66.7888 -75.3329 -105.186 66.9655 -74.7335 -106.667 67.2669 
-74.0663 -107.73 67.8282 -73.5787 -108.677 68.5921 -73.1762 -109.621 69.2716 
-78.7545 -95.0277 65.5275 -79.6681 -93.9605 64.6734 -80.4733 -92.6655 63.8579 
-81.1209 -90.9139 63.1629 -81.7162 -89.2932 62.5214 -82.0681 -88.1539 61.9203 
-82.0575 -86.963 61.4931 -81.9429 -85.5937 61.4231 -81.8201 -84.4483 61.7693 
-72.1965 -98.446 66.1406 -71.9244 -100.445 66.0871 -71.5798 -102.408 65.6901 
-71.1613 -104.2 65.2182 -70.8652 -105.695 65.1993 -70.953 -107.093 65.7947 
-71.3118 -108.454 66.7295 -71.7264 -109.454 67.7867 -72.2119 -110.031 68.8409 
-72.7613 -94.6808 65.376 -73.4235 -92.8698 64.8848 -74.5793 -91.2962 64.6774 
-75.9578 -89.872 64.4481 -77.1488 -88.4542 63.8869 -78.1097 -87.0528 63.2084 
-78.9691 -85.7358 62.6591 -79.7803 -84.6883 62.2927 -80.6313 -84.0163 62.1958 
-73.8596 -107.811 82.0872 -73.816 -109.339 81.2993 -73.7828 -110.604 80.4344 
-73.714 -111.236 78.9358 -73.5381 -111.838 77.0445 -73.3513 -112.517 75.3039 
-73.2331 -112.567 73.5907 -73.1019 -111.956 71.9285 -72.9249 -111.188 70.6643 
-79.9936 -80.5179 72.5281 -80.4556 -79.9193 71.5424 -80.8658 -79.4833 70.2412 
-81.2941 -79.4261 68.7382 -81.658 -79.7233 67.189 -81.8516 -80.1249 65.6213 
-81.9658 -80.6985 64.3336 -82.0028 -81.6394 63.518 -81.859 -82.7072 62.9218 
-83.3391 -90.266 72.1376 -83.1008 -90.8285 73.1427 -82.5256 -91.3849 72.675 
-82.6653 -91.2976 74.2513 -82.3397 -92.138 73.7993 -81.6046 -92.6333 73.4154 
-82.2615 -91.6661 75.809 -82.0313 -92.7452 75.1481 -81.3826 -93.4027 74.6433 
-80.6106 -93.8602 74.1656 -82.0407 -92.2007 77.389 -81.8177 -93.3442 76.6892 
-81.2787 -94.1595 76.0228 -80.5313 -94.6787 75.391 -79.8724 -95.2649 74.73 
-81.7757 -92.9176 78.5957 -81.6641 -94.1503 77.957 -81.2808 -95.0125 77.3129 
-80.6499 -95.5797 76.6246 -79.9545 -96.1878 75.8646 -79.322 -96.8998 75.1625 
-81.3867 -93.6034 79.7063 -81.4625 -94.9655 79.128 -81.1993 -95.8964 78.4582 
-80.6261 -96.4553 77.7554 -79.968 -97.0522 77.0004 -79.3198 -97.7852 76.2602 
-78.7239 -98.4625 75.5975 -80.8874 -94.1591 80.6765 -81.1478 -95.5118 80.3662 
-81.0455 -96.5384 79.7652 -80.4462 -97.1898 78.9561 -79.7229 -97.7918 78.1351 
-79.1581 -98.5547 77.4006 -78.6853 -99.3326 76.6781 -78.2591 -99.9713 75.9473 
-84.5929 -88.447 72.1703 -84.6898 -87.1794 72.4904 -83.9991 -88.5309 73.0284 
-84.3737 -85.8541 72.6944 -83.9173 -87.2082 73.2746 -83.1019 -88.723 73.8377 
-83.6372 -84.8664 72.7841 -83.47 -86.0328 73.5285 -82.8675 -87.5539 74.1708 
-82.4277 -89.0919 75.2161 -82.6609 -84.1657 72.8495 -82.6153 -85.1851 73.7574 
-82.3643 -86.5407 74.6098 -82.2186 -88.0973 75.6619 -82.2239 -89.5713 76.9381 
-81.8191 -83.4076 73.1215 -81.7468 -84.4929 73.9973 -81.6795 -85.6794 75.0461 
-81.799 -87.0798 76.1496 -81.9889 -88.5795 77.2954 -81.9616 -90.0208 78.3541 
-81.1254 -82.6399 73.5836 -81.1081 -83.7804 74.406 -81.1482 -84.9393 75.4609 
-81.3347 -86.1381 76.6231 -81.5124 -87.5553 77.6442 -81.5325 -89.0283 78.5795 
-81.3754 -90.518 79.4204 -80.3516 -82.1406 73.9598 -80.4221 -83.1495 74.8705 
-80.5967 -84.2554 75.885 -80.8524 -85.359 77.0039 -80.9528 -86.6456 78.0005 
-80.8938 -88.1395 78.7918 -80.8328 -89.6265 79.554 -80.7418 -91.1666 80.2493 
-78.9904 -82.1161 75.2961 -78.6192 -82.4206 76.6343 -79.1433 -83.0509 76.3725 
-78.0548 -82.8831 78.0661 -78.6952 -83.5117 77.6628 -79.343 -84.0995 77.3831 
-77.0847 -83.4897 79.4554 -78.021 -84.0528 79.1337 -78.7798 -84.686 78.6649 
-79.5313 -85.2405 78.4048 -76.2349 -84.4405 80.5501 -77.1867 -84.6554 80.5463 
-78.1783 -85.2943 80.134 -78.9208 -85.931 79.6799 -79.558 -86.5855 79.3563 
-75.6778 -85.9198 81.205 -76.4797 -85.7828 81.3904 -77.4976 -86.1432 81.2572 
-78.3886 -86.775 80.8858 -78.9864 -87.4565 80.4678 -79.5447 -88.1857 80.057 
-74.9842 -87.5119 81.7169 -75.7919 -87.4472 81.8919 -76.6837 -87.604 81.8831 
-77.5976 -88.0729 81.6882 -78.3666 -88.6416 81.3913 -79.0078 -89.2343 81.0234 
[...]
POINT_DATA 1002
FIELD FieldData 2
Theta 1 1002 float
2.58802 2.58802 0.553574 0.553574 2.12437 1.01722 2.12437 1.01722 1.5708 
1.5708 1.5708 1.5708 2.68241 2.78649 2.89924 3.01861 3.14159 3.01861 
2.89924 2.78649 2.68241 2.61035 2.61791 2.60515 2.56958 2.51327 2.44184 
2.36202 2.27983 2.1997 2.61035 2.61791 2.60515 2.56958 2.51327 2.44184 
2.36202 2.27983 2.1997 2.50947 2.41899 2.31794 2.20864 2.0944 1.97902 
1.86631 1.75944 1.66056 2.50947 2.41899 2.31794 2.20864 2.0944 1.97902 
1.86631 1.75944 1.66056 2.61035 2.61791 2.60515 2.56958 2.51327 2.44184 
2.36202 2.27983 2.1997 2.61035 2.61791 2.60515 2.56958 2.51327 2.44184 
2.36202 2.27983 2.1997 2.50947 2.41899 2.31794 2.20864 2.0944 1.97902 
1.86631 1.75944 1.66056 2.50947 2.41899 2.31794 2.20864 2.0944 1.97902 
1.86631 1.75944 1.66056 0.459179 0.355101 0.242354 0.122983 0 0.122983 
0.242354 0.355101 0.459179 0.531246 0.523681 0.536438 0.57201 0.628319 0.699757 
0.779574 0.86176 0.941896 0.531246 0.523681 0.536438 0.57201 0.628319 0.699757 
0.779574 0.86176 0.941896 0.632123 0.7226 0.823657 0.932948 1.0472 1.16257 
1.27528 1.38216 1.48103 0.632123 0.7226 0.823657 0.932948 1.0472 1.16257 
1.27528 1.38216 1.48103 0.531246 0.523681 0.536438 0.57201 0.628319 0.699757 
0.779574 0.86176 0.941896 0.531246 0.523681 0.536438 0.57201 0.628319 0.699757 
0.779574 0.86176 0.941896 0.632123 0.7226 0.823657 0.932948 1.0472 1.16257 
1.27528 1.38216 1.48103 0.632123 0.7226 0.823657 0.932948 1.0472 1.16257 
1.27528 1.38216 1.48103 2.02998 1.9259 1.81315 1.69378 1.5708 1.44781 
1.32844 1.2157 1.11162 2.0928 2.05283 2.00422 1.94767 1.88496 1.81867 
1.75177 1.68695 1.62623 2.0928 2.05283 2.00422 1.94767 1.88496 1.81867 
1.75177 1.68695 1.62623 1.0488 1.08876 1.13737 1.19392 1.25664 1.32292 
1.38982 1.45464 1.51537 1.0488 1.08876 1.13737 1.19392 1.25664 1.32292 
1.38982 1.45464 1.51537 2.02998 1.9259 1.81315 1.69378 1.5708 1.44781 
1.32844 1.2157 1.11162 2.0928 2.05283 2.00422 1.94767 1.88496 1.81867 
1.75177 1.68695 1.62623 2.0928 2.05283 2.00422 1.94767 1.88496 1.81867 
1.75177 1.68695 1.62623 1.0488 1.08876 1.13737 1.19392 1.25664 1.32292 
1.38982 1.45464 1.51537 1.0488 1.08876 1.13737 1.19392 1.25664 1.32292 
1.38982 1.45464 1.51537 1.5708 1.5708 1.5708 1.5708 1.5708 1.5708 
1.5708 1.5708 1.5708 1.5708 1.5708 1.5708 1.5708 1.5708 1.5708 
1.5708 1.5708 1.5708 2.70908 2.71362 2.81592 2.68886 2.81002 2.92597 
2.6349 2.76254 2.89233 3.01997 2.55881 2.68262 2.80854 2.92834 3.01997 
2.47007 2.58462 2.70048 2.80854 2.89233 2.92597 2.37702 2.48017 2.58462 
2.68262 2.76254 2.81002 2.81592 2.28567 2.37702 2.47007 2.55881 2.6349 
2.68886 2.71362 2.70908 2.52097 2.4195 2.51718 2.30791 2.40503 2.49426 
2.18928 2.28408 2.3734 2.45144 2.06758 2.15805 2.24572 2.32523 2.39165 
1.94707 2.03138 2.11543 2.19453 2.26401 2.32035 1.83164 1.90847 1.98711 
2.06376 2.13422 2.1949 2.24359 1.72413 1.79288 1.86489 1.93728 2.00658 
2.06938 2.12312 2.16654 1.5708 1.50988 1.63171 1.44492 1.5708 1.69667 
1.37826 1.5059 1.63569 1.76333 1.31281 1.43962 1.5708 1.70197 1.82878 
1.25155 1.37501 1.50478 1.63681 1.76659 1.89004 1.19686 1.31493 1.44074 
1.5708 1.70086 1.82666 1.94473 1.15011 1.26149 1.38136 1.50697 1.63462 
1.76024 1.88011 1.99148 1.99148 1.88011 1.94473 1.76024 1.82666 1.89004 
1.63462 1.70086 1.76659 1.82878 1.50697 1.5708 1.63681 1.70197 1.76333 
1.38136 1.44074 1.50478 1.5708 1.63569 1.69667 1.26149 1.31493 1.37501 
1.43962 1.5059 1.5708 1.63171 1.15011 1.19686 1.25155 1.31281 1.37826 
1.44492 1.50988 1.5708 2.16654 2.12312 2.24359 2.06938 2.1949 2.32035 
2.00658 2.13422 2.26401 2.39165 1.93728 2.06376 2.19453 2.32523 2.45144 
1.86489 1.98711 2.11543 2.24572 2.3734 2.49426 1.79288 1.90847 2.03138 
2.15805 2.28408 2.40503 2.51718 1.72413 1.83164 1.94707 2.06758 2.18928 
2.30791 2.4195 2.52097 1.66533 1.66946 1.76911 1.67254 1.777 1.88041 
1.67418 1.78222 1.89102 1.99634 1.67418 1.78405 1.89674 2.00785 2.11299 
1.67254 1.78222 1.89674 2.01191 2.12307 2.22608 1.66946 1.777 1.89102 
2.00785 2.12307 2.23222 2.33166 1.66533 1.76911 1.88041 1.99634 2.11299 
2.22608 2.33166 2.42672 1.47626 1.37249 1.47213 1.26118 1.36459 1.46906 
1.14526 1.25058 1.35938 1.46741 1.0286 1.13374 1.24485 1.35755 1.46741 
0.915514 1.01852 1.12969 1.24485 1.35938 1.46906 0.809937 0.909371 1.01852 
1.13374 1.25058 1.36459 1.47213 0.714871 0.809937 0.915514 1.0286 1.14526 
1.26118 1.37249 1.47626 0.975055 0.898002 1.01847 0.821245 0.946693 1.07221 
0.749941 0.877585 1.00737 1.13501 0.690152 0.816367 0.94706 1.07784 1.20431 
0.647337 0.768195 0.895868 1.02616 1.15448 1.2767 0.624416 0.736561 0.857515 
0.983547 1.11021 1.23313 1.34871 0.620619 0.722093 0.833684 0.952313 1.07402 
1.19452 1.30996 1.41746 0.855925 0.764569 0.764569 0.671524 0.661425 0.671524 
0.582786 0.556971 0.556971 0.582786 0.506696 0.458968 0.441109 0.458968 0.506696 
0.45273 0.379052 0.333054 0.333054 0.379052 0.45273 0.427969 0.331576 0.249267 
0.21325 0.249267 0.331576 0.427969 0.432512 0.325669 0.215619 0.121622 0.121622 
0.215619 0.325669 0.432512 0.432512 0.427969 0.325669 0.45273 0.331576 0.215619 
0.506696 0.379052 0.249267 0.121622 0.582786 0.458968 0.333054 0.21325 0.121622 
0.671524 0.556971 0.441109 0.333054 0.249267 0.215619 0.764569 0.661425 0.556971 
0.458968 0.379052 0.331576 0.325669 0.855925 0.764569 0.671524 0.582786 0.506696 
0.45273 0.427969 0.432512 0.975055 1.01847 0.898002 1.07221 0.946693 0.821245 
1.13501 1.00737 0.877585 0.749941 1.20431 1.07784 0.94706 0.816367 0.690152 
1.2767 1.15448 1.02616 0.895868 0.768195 0.647337 1.34871 1.23313 1.11021 
0.983547 0.857515 0.736561 0.624416 1.41746 1.30996 1.19452 1.07402 0.952313 
0.833684 0.722093 0.620619 1.15011 1.26149 1.19686 1.38136 1.31493 1.25155 
1.50697 1.44074 1.37501 1.31281 1.63462 1.5708 1.50478 1.43962 1.37826 
1.76024 1.70086 1.63681 1.5708 1.5059 1.44492 1.88011 1.82666 1.76659 
1.70197 1.63569 1.5708 1.50988 1.99148 1.94473 1.89004 1.82878 1.76333 
1.69667 1.63171 1.5708 1.15011 1.19686 1.26149 1.25155 1.31493 1.38136 
1.31281 1.37501 1.44074 1.50697 1.37826 1.43962 1.50478 1.5708 1.63462 
1.44492 1.5059 1.5708 1.63681 1.70086 1.76024 1.50988 1.5708 1.63569 
1.70197 1.76659 1.82666 1.88011 1.5708 1.63171 1.69667 1.76333 1.82878 
1.89004 1.94473 1.99148 1.72413 1.83164 1.79288 1.94707 1.90847 1.86489 
2.06758 2.03138 1.98711 1.93728 2.18928 2.15805 2.11543 2.06376 2.00658 
2.30791 2.28408 2.24572 2.19453 2.13422 2.06938 2.4195 2.40503 2.3734 
2.32523 2.26401 2.1949 2.12312 2.52097 2.51718 2.49426 2.45144 2.39165 
2.32035 2.24359 2.16654 2.70908 2.81592 2.71362 2.92597 2.81002 2.68886 
3.01997 2.89233 2.76254 2.6349 3.01997 2.92834 2.80854 2.68262 2.55881 
2.92597 2.89233 2.80854 2.70048 2.58462 2.47007 2.81592 2.81002 2.76254 
2.68262 2.58462 2.48017 2.37702 2.70908 2.71362 2.68886 2.6349 2.55881 
2.47007 2.37702 2.28567 2.16654 2.24359 2.12312 2.32035 2.1949 2.06938 
2.39165 2.26401 2.13422 2.00658 2.45144 2.32523 2.19453 2.06376 1.93728 
2.49426 2.3734 2.24572 2.11543 1.98711 1.86489 2.51718 2.40503 2.28408 
2.15805 2.03138 1.90847 1.79288 2.52097 2.4195 2.30791 2.18928 2.06758 
1.94707 1.83164 1.72413 1.66533 1.76911 1.66946 1.88041 1.777 1.67254 
1.99634 1.89102 1.78222 1.67418 2.11299 2.00785 1.89674 1.78405 1.67418 
2.22608 2.12307 2.01191 1.89674 1.78222 1.67254 2.33166 2.23222 2.12307 
2.00785 1.89102 1.777 1.66946 2.42672 2.33166 2.22608 2.11299 1.99634 
1.88041 1.76911 1.66533 1.47626 1.47213 1.37249 1.46906 1.36459 1.26118 
1.46741 1.35938 1.25058 1.14526 1.46741 1.35755 1.24485 1.13374 1.0286 
1.46906 1.35938 1.24485 1.12969 1.01852 0.915514 1.47213 1.36459 1.25058 
1.13374 1.01852 0.909371 0.809937 1.47626 1.37249 1.26118 1.14526 1.0286 
0.915514 0.809937 0.714871 1.41746 1.30996 1.34871 1.19452 1.23313 1.2767 
1.07402 1.11021 1.15448 1.20431 0.952313 0.983547 1.02616 1.07784 1.13501 
0.833684 0.857515 0.895868 0.94706 1.00737 1.07221 0.722093 0.736561 0.768195 
0.816367 0.877585 0.946693 1.01847 0.620619 0.624416 0.647337 0.690152 0.749941 
0.821245 0.898002 0.975055 0.975055 0.898002 1.01847 0.821245 0.946693 1.07221 
0.749941 0.877585 1.00737 1.13501 0.690152 0.816367 0.94706 1.07784 1.20431 
0.647337 0.768195 0.895868 1.02616 1.15448 1.2767 0.624416 0.736561 0.857515 
0.983547 1.11021 1.23313 1.34871 0.620619 0.722093 0.833684 0.952313 1.07402 
1.19452 1.30996 1.41746 
Phi 1 1002 float
6.28319 3.14159 6.28319 3.14159 4.71239 4.71239 1.5708 1.5708 3.69517 
5.72961 2.58802 0.553574 6.28319 6.28319 6.28319 6.28319 3.14159 3.14159 
3.14159 3.14159 3.14159 6.1053 5.8988 5.67687 5.45995 5.26596 5.10322 
4.97131 4.86569 4.78095 0.177881 0.384387 0.606312 0.823235 1.01722 1.17997 
1.31187 1.4175 1.50223 6.18928 6.10703 6.03531 5.97283 5.91832 5.87061 
5.82869 5.79168 5.75886 0.0939024 0.176153 0.247873 0.310351 0.364864 0.412573 
0.454497 0.491504 0.524326 3.31947 3.52598 3.7479 3.96483 4.15881 4.32156 
4.45346 4.55909 4.64383 2.96371 2.75721 2.53528 2.31836 2.12437 1.96162 
1.82972 1.72409 1.63936 3.2355 3.31775 3.38947 3.45194 3.50646 3.55417 
3.59609 3.6331 3.66592 3.04769 2.96544 2.89372 2.83124 2.77673 2.72902 
2.6871 2.65009 2.61727 6.28319 6.28319 6.28319 6.28319 3.14159 3.14159 
3.14159 3.14159 3.14159 6.1053 5.8988 5.67687 5.45995 5.26596 5.10322 
4.97131 4.86569 4.78095 0.177881 0.384387 0.606312 0.823235 1.01722 1.17997 
1.31187 1.4175 1.50223 6.18928 6.10703 6.03531 5.97283 5.91832 5.87061 
5.82869 5.79168 5.75886 0.0939024 0.176153 0.247873 0.310351 0.364864 0.412573 
0.454497 0.491504 0.524326 3.31947 3.52598 3.7479 3.96483 4.15881 4.32156 
4.45346 4.55909 4.64383 2.96371 2.75721 2.53528 2.31836 2.12437 1.96162 
1.82972 1.72409 1.63936 3.2355 3.31775 3.38947 3.45194 3.50646 3.55417 
3.59609 3.6331 3.66592 3.04769 2.96544 2.89372 2.83124 2.77673 2.72902 
2.6871 2.65009 2.61727 4.71239 4.71239 4.71239 4.71239 4.71239 4.71239 
4.71239 4.71239 4.71239 4.60879 4.49914 4.3857 4.27128 4.15881 4.05096 
3.94976 3.85646 3.77161 4.81599 4.92564 5.03907 5.1535 5.26596 5.37381 
5.47502 5.56831 5.65317 4.60879 4.49914 4.3857 4.27128 4.15881 4.05096 
3.94976 3.85646 3.77161 4.81599 4.92564 5.03907 5.1535 5.26596 5.37381 
5.47502 5.56831 5.65317 1.5708 1.5708 1.5708 1.5708 1.5708 1.5708 
1.5708 1.5708 1.5708 1.6744 1.78405 1.89748 2.01191 2.12437 2.23222 
2.33343 2.42672 2.51157 1.4672 1.35755 1.24411 1.12969 1.01722 0.909371 
0.808166 0.714871 0.63002 1.6744 1.78405 1.89748 2.01191 2.12437 2.23222 
2.33343 2.42672 2.51157 1.4672 1.35755 1.24411 1.12969 1.01722 0.909371 
0.808166 0.714871 0.63002 3.60077 3.49669 3.38395 3.26458 3.14159 3.01861 
2.89924 2.78649 2.68241 5.82401 5.92808 6.04083 6.1602 6.28319 0.122983 
0.242354 0.355101 0.459179 6.05603 5.78856 5.97021 5.51259 5.60297 5.78856 
5.26596 5.26596 5.26596 5.26596 5.06749 5.0121 4.91556 4.71239 4.15881 
4.91556 4.83537 4.71239 4.50922 4.15881 3.63622 4.80045 4.71239 4.58941 
4.41268 4.15881 3.82181 3.45456 4.71239 4.62433 4.50922 4.35729 4.15881 
3.91219 3.63622 3.36875 6.01742 5.94343 5.82633 5.88092 5.76745 5.62798 
5.8278 5.71897 5.58911 5.43724 5.78235 5.67854 5.55757 5.41926 5.26596 
5.74316 5.64441 5.5315 5.40467 5.26596 5.11955 5.70914 5.61528 5.50962 
5.3926 5.26596 5.13292 4.99789 5.67937 5.59016 5.49102 5.38246 5.26596 
5.14407 5.02016 4.89798 5.56831 5.47502 5.47502 5.37381 5.37381 5.37381 
5.26596 5.26596 5.26596 5.26596 5.1535 5.1535 5.1535 5.1535 5.1535 
5.03907 5.03907 5.03907 5.03907 5.03907 5.03907 4.92564 4.92564 4.92564 
4.92564 4.92564 4.92564 4.92564 4.81599 4.81599 4.81599 4.81599 4.81599 
4.81599 4.81599 4.81599 4.60879 4.60879 4.49914 4.60879 4.49914 4.3857 
4.60879 4.49914 4.3857 4.27128 4.60879 4.49914 4.3857 4.27128 4.15881 
4.60879 4.49914 4.3857 4.27128 4.15881 4.05096 4.60879 4.49914 4.3857 
4.27128 4.15881 4.05096 3.94976 4.60879 4.49914 4.3857 4.27128 4.15881 
4.05096 3.94976 3.85646 4.5268 4.40462 4.42689 4.28071 4.29185 4.30523 
4.15881 4.15881 4.15881 4.15881 4.04232 4.03217 4.02011 4.00552 3.98753 
3.93376 3.91515 3.89328 3.86721 3.83566 3.7968 3.83461 3.8095 3.78037 
3.74624 3.70581 3.65733 3.59845 3.7454 3.71564 3.68161 3.64243 3.59698 
3.54386 3.48135 3.40735 3.56428 3.45246 3.52338 3.33203 3.40312 3.47739 
3.20576 3.27463 3.34802 3.42551 3.07742 3.14159 3.21128 3.28647 3.36688 
2.95116 3.00855 3.0719 3.14159 3.21784 3.3006 2.83072 2.88006 2.93517 
2.99672 3.06535 3.14159 3.22575 2.7189 2.7598 2.8058 2.85768 2.9163 
2.98259 3.05743 3.14159 3.56428 3.52338 3.45246 3.47739 3.40312 3.33203 
3.42551 3.34802 3.27463 3.20576 3.36688 3.28647 3.21128 3.14159 3.07742 
3.3006 3.21784 3.14159 3.0719 3.00855 2.95116 3.22575 3.14159 3.06535 
2.99672 2.93517 2.88006 2.83072 3.14159 3.05743 2.98259 2.9163 2.85768 
2.8058 2.7598 2.7189 4.5268 4.42689 4.40462 4.30523 4.29185 4.28071 
4.15881 4.15881 4.15881 4.15881 3.98753 4.00552 4.02011 4.03217 4.04232 
3.7968 3.83566 3.86721 3.89328 3.91515 3.93376 3.59845 3.65733 3.70581 
3.74624 3.78037 3.8095 3.83461 3.40735 3.48135 3.54386 3.59698 3.64243 
3.68161 3.71564 3.7454 4.71239 4.80045 4.62433 4.91556 4.71239 4.50922 
5.06749 4.83537 4.58941 4.35729 5.26596 5.0121 4.71239 4.41268 4.15881 
5.51259 5.26596 4.91556 4.50922 4.15881 3.91219 5.78856 5.60297 5.26596 
4.71239 4.15881 3.82181 3.63622 6.05603 5.97021 5.78856 5.26596 4.15881 
3.63622 3.45456 3.36875 0.227158 0.494626 0.312971 0.770593 0.680215 0.494626 
1.01722 1.01722 1.01722 1.01722 1.2157 1.27109 1.36763 1.5708 2.12437 
1.36763 1.44781 1.5708 1.77397 2.12437 2.64697 1.48273 1.5708 1.69378 
1.8705 2.12437 2.46138 2.82862 1.5708 1.65886 1.77397 1.9259 2.12437 
2.371 2.64697 2.91443 1.75639 1.87857 1.8563 2.00248 1.99133 1.97796 
2.12437 2.12437 2.12437 2.12437 2.24087 2.25101 2.26308 2.27767 2.29565 
2.34943 2.36803 2.38991 2.41597 2.44752 2.48639 2.44857 2.47368 2.50281 
2.53694 2.57738 2.62586 2.68474 2.53778 2.56754 2.60157 2.64076 2.68621 
2.73933 2.80184 2.87583 1.6744 1.6744 1.78405 1.6744 1.78405 1.89748 
1.6744 1.78405 1.89748 2.01191 1.6744 1.78405 1.89748 2.01191 2.12437 
1.6744 1.78405 1.89748 2.01191 2.12437 2.23222 1.6744 1.78405 1.89748 
2.01191 2.12437 2.23222 2.33343 1.6744 1.78405 1.89748 2.01191 2.12437 
2.23222 2.33343 2.42672 1.4672 1.35755 1.4672 1.24411 1.35755 1.4672 
1.12969 1.24411 1.35755 1.4672 1.01722 1.12969 1.24411 1.35755 1.4672 
0.909371 1.01722 1.12969 1.24411 1.35755 1.4672 0.808166 0.909371 1.01722 
1.12969 1.24411 1.35755 1.4672 0.714871 0.808166 0.909371 1.01722 1.12969 
1.24411 1.35755 1.4672 0.603812 0.57405 0.693022 0.540021 0.667908 0.792164 
0.500837 0.638778 0.773562 0.900726 0.455383 0.604649 0.751687 0.890581 1.01722 
0.402264 0.564217 0.725619 0.878514 1.01722 1.13912 0.339753 0.515737 0.694072 
0.863926 1.01722 1.15026 1.26302 0.265762 0.456853 0.655207 0.845941 1.01722 
1.16363 1.28529 1.38521 0.227158 0.312971 0.494626 0.494626 0.680215 0.770593 
1.01722 1.01722 1.01722 1.01722 2.12437 1.5708 1.36763 1.27109 1.2157 
2.64697 2.12437 1.77397 1.5708 1.44781 1.36763 2.82862 2.46138 2.12437 
1.8705 1.69378 1.5708 1.48273 2.91443 2.64697 2.371 2.12437 1.9259 
1.77397 1.65886 1.5708 1.75639 1.8563 1.87857 1.97796 1.99133 2.00248 
2.12437 2.12437 2.12437 2.12437 2.29565 2.27767 2.26308 2.25101 2.24087 
2.48639 2.44752 2.41597 2.38991 2.36803 2.34943 2.68474 2.62586 2.57738 
2.53694 2.50281 2.47368 2.44857 2.87583 2.80184 2.73933 2.68621 2.64076 
2.60157 2.56754 2.53778 5.86049 5.90139 5.97231 5.94739 6.02165 6.09275 
5.99927 6.07676 6.15015 6.21902 6.0579 6.13831 6.2135 0 0.0641696 
6.12418 6.20694 6.28319 0.069689 0.13304 0.190437 6.19903 0 0.0762451 
0.144876 0.206423 0.261531 0.310872 0 0.0841597 0.159004 0.225289 0.283913 
0.335793 0.381792 0.422692 5.86049 5.97231 5.90139 6.09275 6.02165 5.94739 
6.21902 6.15015 6.07676 5.99927 0.0641696 0 6.2135 6.13831 6.0579 
0.190437 0.13304 0.069689 6.28319 6.20694 6.12418 0.310872 0.261531 0.206423 
0.144876 0.0762451 6.28319 6.19903 0.422692 0.381792 0.335793 0.283913 0.225289 
0.159004 0.0841597 0 5.67937 5.70914 5.59016 5.74316 5.61528 5.49102 
5.78235 5.64441 5.50962 5.38246 5.8278 5.67854 5.5315 5.3926 5.26596 
5.88092 5.71897 5.55757 5.40467 5.26596 5.14407 5.94343 5.76745 5.58911 
5.41926 5.26596 5.13292 5.02016 6.01742 5.82633 5.62798 5.43724 5.26596 
5.11955 4.99789 4.89798 1.38521 1.28529 1.26302 1.16363 1.15026 1.13912 
1.01722 1.01722 1.01722 1.01722 0.845941 0.863926 0.878514 0.890581 0.900726 
0.655207 0.694072 0.725619 0.751687 0.773562 0.792164 0.456853 0.515737 0.564217 
0.604649 0.638778 0.667908 0.693022 0.265762 0.339753 0.402264 0.455383 0.500837 
0.540021 0.57405 0.603812 
