# vtk DataFile Version 4.0
vtk output
ASCII
DATASET POLYDATA
POINTS 1002 float
-86.0086 -90.2576 69.4557 -79.277 -102.916 75.0925 -76.3169 -86.2448 70.8041 
-73.0241 -102.31 75.5004 -82.7063 -94.9097 80.26 -76.8831 -92.154 80.4445 
-79.286 -97.4392 66.7276 -74.0545 -97.2852 66.9619 -76.4923 -107.777 83.172 
-82.7994 -82.544 72.4404 -74.4341 -112.067 69.4131 -82.3948 -84.5461 61.0187 
-85.179 -90.9114 69.9394 -84.434 -91.9149 70.651 -83.7112 -93.1579 71.6098 
-82.7949 -94.3533 72.4762 -81.9309 -95.7969 73.0556 -81.3633 -97.6123 73.5957 
-80.7685 -99.1494 74.1833 -80.052 -100.281 74.633 -79.5272 -101.508 74.9111 
-85.8188 -90.2897 70.4277 -85.5584 -90.472 71.5454 -85.5201 -90.8924 72.7804 
-85.5596 -91.5432 74.0194 -85.1323 -92.2647 75.2226 -84.4894 -92.8705 76.4877 
-84.1699 -93.3828 77.782 -83.8658 -93.9207 78.8637 -83.2945 -94.4581 79.6405 
-85.553 -90.616 68.8529 -85.0299 -91.0272 68.3079 -84.576 -91.5931 67.7454 
-84.0971 -92.275 67.2683 -83.3076 -92.9907 67.0258 -82.3992 -93.8622 66.8252 
-81.702 -94.8823 66.5866 -80.9747 -95.7891 66.5622 -80.0699 -96.566 66.707 
-86.7161 -89.5597 69.6238 -87.175 -88.5151 69.7448 -87.0973 -87.3402 69.6595 
-86.422 -86.4978 69.5607 -85.5024 -85.8514 69.7974 -84.8393 -84.906 70.3339 
-84.4311 -83.8356 70.9307 -83.9237 -83.1113 71.484 -83.3102 -82.7544 71.9728 
-86.5032 -89.8786 68.4846 -86.8438 -89.3062 67.1487 -87.0798 -88.4724 65.623 
-87.1032 -87.5378 64.4158 -86.6215 -86.7805 63.6332 -85.7534 -86.3474 62.8349 
-84.9371 -86 61.9311 -84.2195 -85.4487 61.2866 -83.3816 -84.8571 61.0368 
-79.6445 -102.382 75.7339 -80.1678 -101.893 76.3537 -80.8441 -101.493 76.9851 
-81.4821 -101.043 77.6918 -81.841 -100.265 78.4368 -82.0113 -99.1469 79.148 
-82.2622 -98.0268 79.7677 -82.5701 -97.0486 80.1727 -82.7343 -96.0359 80.3029 
-79.081 -102.565 74.3221 -78.8753 -102.175 73.5199 -78.6008 -101.674 72.7512 
-78.3655 -101.073 71.9625 -78.3719 -100.482 71.0287 -78.5278 -99.8794 69.9942 
-78.6431 -99.2581 69.035 -78.8057 -98.7069 68.1928 -79.0733 -98.142 67.4192 
-79.3128 -104.011 75.6528 -79.3018 -105.003 76.2713 -79.2202 -105.839 77.0295 
-79.1011 -106.642 78.0048 -78.8725 -107.329 79.0866 -78.5119 -107.706 80.1046 
-78.1399 -107.932 81.1078 -77.7101 -108.143 82.1081 -77.1167 -108.139 82.8604 
-79.0067 -104.188 74.7248 -78.758 -105.554 74.2028 -78.506 -107.031 73.5476 
-78.132 -108.472 72.9324 -77.5105 -109.539 72.4223 -76.8338 -110.335 71.8035 
-76.3469 -111.136 71.0617 -75.8939 -111.741 70.4349 -75.2359 -111.989 69.9285 
-76.005 -87.4944 71.3117 -75.6547 -89.1062 71.8236 -75.0725 -90.7853 72.3051 
-74.4432 -92.2721 72.7803 -73.9049 -93.6751 73.3471 -73.2963 -95.2049 74.0544 
-72.8303 -96.9327 74.7288 -72.7917 -98.8321 75.1587 -72.9425 -100.712 75.3717 
-76.1483 -86.2856 71.754 -75.9413 -86.3905 72.8231 -75.8689 -86.7912 73.9157 
-76.0703 -87.5574 74.8715 -76.3797 -88.3994 75.8015 -76.5851 -89.1786 76.8687 
-76.7603 -90.0387 77.8891 -76.9341 -90.8894 78.7532 -76.9696 -91.5607 79.6019 
-76.1882 -86.8859 70.1895 -76.0171 -87.6738 69.5702 -75.7792 -88.6682 68.9973 
-75.4178 -89.7145 68.4976 -74.997 -90.6842 68.0966 -74.6648 -91.8011 67.8069 
-74.4207 -93.1375 67.5658 -74.2147 -94.4646 67.3217 -74.0878 -95.8008 67.1129 
-76.7219 -85.281 70.8762 -77.3311 -84.4016 70.9404 -78.0097 -83.5442 71.0028 
-78.6697 -82.6977 71.0918 -79.3643 -81.8982 71.275 -80.134 -81.2746 71.6098 
-80.9733 -81.1284 71.9462 -81.7799 -81.5137 72.1235 -82.3921 -82.0704 72.2441 
-76.7103 -85.5949 69.8888 -77.2942 -84.997 68.8786 -78.0137 -84.453 67.789 
-78.6802 -83.9761 66.6041 -79.2138 -83.6443 65.3197 -79.7453 -83.5473 63.9847 
-80.3376 -83.625 62.7505 -80.9543 -83.7801 61.8359 -81.6318 -84.0601 61.305 
-73.3324 -101.499 76.0651 -73.4923 -100.475 76.7564 -73.4338 -99.2089 77.666 
-73.5298 -97.951 78.5195 -74.2021 -97.015 78.9053 -75.1067 -96.1891 79.0909 
-75.6466 -95.086 79.5702 -75.9408 -93.8821 80.1106 -76.3549 -92.9165 80.3556 
-72.7356 -102.104 74.8046 -72.7215 -101.791 73.8405 -72.8654 -101.419 72.6395 
-72.7924 -100.955 71.4468 -72.6476 -100.372 70.391 -72.7477 -99.7349 69.4138 
-72.9409 -99.1121 68.5096 -73.1593 -98.5253 67.7818 -73.5442 -97.9408 67.293 
-73.2581 -103.157 75.9985 -73.416 -103.825 76.6785 -73.4773 -104.543 77.6059 
-73.5831 -105.47 78.6103 -73.9422 -106.323 79.3765 -74.5401 -106.789 79.9152 
-75.0989 -107.02 80.6015 -75.4939 -107.286 81.5693 -75.9108 -107.587 82.5275 
-72.8699 -103.648 75.1838 -72.8065 -105.024 74.7606 -72.9198 -106.446 74.1427 
-73.1728 -107.909 73.3172 -73.2827 -109.346 72.5921 -72.976 -110.635 72.1264 
-72.6185 -111.644 71.5276 -72.8469 -112.231 70.6425 -73.6201 -112.329 69.8561 
-82.3299 -94.4261 80.6072 -81.9243 -93.9336 81.0315 -81.3561 -93.5285 81.4356 
-80.5647 -93.2313 81.6524 -79.7174 -92.8848 81.746 -78.9537 -92.4498 81.8979 
-78.2456 -92.1419 81.9436 -77.6306 -92.0602 81.6219 -77.1885 -92.0938 81.039 
-82.2214 -95.999 80.9571 -81.603 -97.1772 81.7147 -80.7947 -98.6825 82.3442 
-79.9484 -100.351 82.8043 -79.265 -101.748 83.3347 -78.7175 -103.054 83.8982 
-78.1745 -104.676 84.18 -77.5947 -106.267 84.1405 -77.0162 -107.281 83.8254 
-82.8796 -93.3744 79.764 -83 -91.8161 79.1233 -83.0476 -90.5316 78.3149 
-82.9922 -89.209 77.4835 -83.0059 -87.5821 76.7286 -83.1147 -86.1444 75.9222 
-83.0742 -85.0855 75.0353 -82.9275 -84.0761 74.1717 -82.8617 -83.1705 73.3147 
-76.5164 -93.3974 81.1739 -76.4151 -95.0247 81.7672 -76.524 -96.7832 82.2268 
-76.4383 -98.2766 82.8732 -76.1174 -99.6829 83.6266 -75.942 -101.505 83.9053 
-75.9693 -103.614 83.755 -76.0608 -105.476 83.6654 -76.2381 -106.85 83.5783 
-77.46 -90.9598 80.1092 -77.8882 -89.5643 79.859 -78.2534 -88.0788 79.4461 
-78.8778 -86.6217 78.7597 -79.6862 -85.1599 78.0898 -80.4028 -83.9275 77.3767 
-81.1053 -83.2393 76.236 -81.824 -82.9262 74.8246 -82.3929 -82.709 73.533 
-78.9599 -97.5519 66.2603 -78.5642 -97.7206 65.8284 -78.0002 -98.0068 65.5648 
-77.2462 -98.2158 65.4787 -76.4271 -98.2213 65.5013 -75.6895 -98.2706 65.6965 
-75.1218 -98.4025 66.0757 -74.7194 -98.2819 66.447 -74.3841 -97.8299 66.7131 
-78.6587 -99.1798 66.9025 -78.1562 -101.295 66.8978 -77.4761 -103.134 66.9882 
-76.5876 -104.596 67.1665 -76.0054 -106.305 67.133 -75.7772 -108.167 67.0966 
-75.4364 -109.554 67.43 -75.0198 -110.544 67.9622 -74.7291 -111.402 68.5676 
-79.7941 -96.1004 66.0785 -80.2237 -94.7607 65.414 -80.723 -93.2617 64.7633 
-81.4881 -91.7604 63.7427 -82.2215 -90.7439 62.248 -82.5355 -90.0115 61.0443 
-82.6203 -88.7909 60.6362 -82.6852 -87.0921 60.6621 -82.6163 -85.5762 60.7835 
-73.7438 -99.3617 66.8823 -73.4364 -101.378 66.5215 -73.1262 -103.134 65.9769 
-72.8351 -104.959 65.4256 -72.6498 -107.113 65.0729 -72.7494 -109.147 65.185 
-73.11 -110.563 65.869 -73.5023 -111.362 66.9569 -73.9077 -111.781 68.2054 
-74.6459 -95.5095 66.5914 -75.3694 -93.7146 65.9289 -76.2375 -92.1802 65.2477 
-77.2956 -90.7288 64.6505 -78.3577 -89.1267 63.6519 -78.9966 -87.7618 62.2358 
-79.3654 -86.852 61.2452 -80.1325 -86.0014 60.9603 -81.3288 -85.1274 60.9454 
-76.308 -108.505 82.0496 -76.0325 -109.538 80.7042 -75.7559 -110.86 79.6319 
-75.6011 -112.085 78.5828 -75.5129 -113.114 76.8895 -75.331 -113.861 75.0111 
-75.0625 -113.877 73.637 -74.8094 -113.264 72.3737 -74.6011 -112.599 70.8694 
-82.8898 -82.1438 71.2096 -82.9301 -81.6249 69.9848 -83.1087 -81.0266 68.8819 
-83.4517 -80.7823 67.5333 -83.6655 -81.0651 65.749 -83.4757 -81.6141 64.2209 
-83.0463 -82.3665 63.2488 -82.7605 -83.2046 62.3524 -82.6396 -83.8909 61.5065 
-84.9543 -91.1665 70.9688 -84.8336 -91.6734 72.1922 -84.2686 -92.4476 71.7922 
-85.0311 -92.4036 73.4813 -84.2335 -93.183 73.0049 -83.5611 -93.7746 72.743 
-85.0729 -93.1898 74.7361 -84.3394 -93.9544 74.1803 -83.4416 -94.4758 73.8194 
-82.6778 -95.0135 73.4734 -84.62 -93.9206 76.0403 -84.2089 -94.6721 75.4061 
-83.3259 -95.1874 74.9119 -82.5623 -95.8 74.527 -81.946 -96.6784 74.0518 
-84.2119 -94.6109 77.4256 -83.9285 -95.4432 76.787 -83.1771 -95.9785 76.1426 
-82.4519 -96.6824 75.6686 -81.9359 -97.64 75.1911 -81.3657 -98.5111 74.6758 
-83.9247 -95.2307 78.6684 -83.6884 -96.2054 78.1587 -83.0591 -96.8527 77.4616 
-82.3922 -97.6162 76.8295 -81.9248 -98.594 76.2739 -81.3684 -99.3852 75.7316 
-80.6677 -99.8649 75.1989 -83.3815 -95.701 79.5948 -83.2113 -96.734 79.2885 
-82.7604 -97.5653 78.6994 -82.2772 -98.4747 77.9959 -81.9179 -99.4785 77.3077 
-81.4347 -100.243 76.6655 -80.7179 -100.671 76.0917 -80.0264 -101.031 75.5248 
-86.5114 -89.5674 70.703 -86.8556 -88.6548 70.7628 -86.153 -89.7185 71.8236 
-86.4599 -87.6884 70.5613 -86.2204 -88.8819 71.7936 -85.8804 -90.0646 73.0167 
-85.5513 -86.8471 70.5874 -85.6135 -87.9063 71.7167 -85.6373 -89.1515 73.033 
-85.485 -90.6331 74.243 -84.8506 -85.9928 71.0942 -84.9683 -86.885 72.1007 
-85.1363 -88.0378 73.2906 -85.0989 -89.6021 74.4306 -84.8001 -91.238 75.4997 
-84.532 -85.0015 71.7665 -84.689 -85.9834 72.7479 -84.815 -86.9771 73.8965 
-84.8017 -88.4707 74.9368 -84.5974 -90.1191 75.8447 -84.3235 -91.6776 76.8372 
-84.1146 -84.099 72.3757 -84.3435 -85.2113 73.2869 -84.4454 -86.224 74.3635 
-84.3825 -87.5304 75.455 -84.3315 -89.1317 76.3221 -84.2306 -90.5748 77.1678 
-84.0498 -92.121 78.0915 -83.4605 -83.5057 72.8845 -83.6554 -84.5582 73.7447 
-83.7972 -85.6267 74.6654 -83.7236 -86.8075 75.6821 -83.6643 -88.3525 76.5874 
-83.742 -89.8289 77.3987 -83.7048 -91.1377 78.2573 -83.5263 -92.7309 79.0462 
-82.3601 -83.482 74.4237 -81.8344 -83.822 75.752 -82.4215 -84.4558 75.3504 
-81.2744 -84.2909 77.1017 -82.0022 -84.8744 76.7002 -82.5946 -85.4662 76.2827 
-80.577 -85.1963 78.1202 -81.4413 -85.6067 77.9111 -82.1451 -86.1168 77.5581 
-82.5933 -86.7786 77.0742 -79.6699 -86.4473 79.0005 -80.5479 -86.721 78.9198 
-81.3796 -87.2048 78.6856 -82.009 -87.7933 78.2569 -82.4353 -88.5379 77.755 
-78.8143 -87.7181 79.9567 -79.5774 -87.8134 79.9988 -80.4046 -88.3139 79.7505 
-81.2057 -88.9086 79.4446 -81.839 -89.5389 78.9955 -82.3815 -90.1252 78.5572 
-78.2504 -89.106 80.6021 -78.8358 -88.9359 80.9268 -79.5887 -89.274 80.7163 
-80.4219 -89.87 80.4331 -81.2408 -90.4353 80.2072 -81.8717 -90.9542 79.8258 
[...]
POINT_DATA 1002
FIELD FieldData 2
Theta 1 1002 float
2.58802 2.58802 0.553574 0.553574 2.12437 1.01722 2.12437 1.01722 1.5708 
1.5708 1.5708 1.5708 2.68241 2.78649 2.89924 3.01861 3.14159 3.01861 
2.89924 2.78649 2.68241 2.61035 2.61791 2.60515 2.56958 2.51327 2.44184 
2.36202 2.27983 2.1997 2.61035 2.61791 2.60515 2.56958 2.51327 2.44184 
2.36202 2.27983 2.1997 2.50947 2.41899 2.31794 2.20864 2.0944 1.97902 
1.86631 1.75944 1.66056 2.50947 2.41899 2.31794 2.20864 2.0944 1.97902 
1.86631 1.75944 1.66056 2.61035 2.61791 2.60515 2.56958 2.51327 2.44184 
2.36202 2.27983 2.1997 2.61035 2.61791 2.60515 2.56958 2.51327 2.44184 
2.36202 2.27983 2.1997 2.50947 2.41899 2.31794 2.20864 2.0944 1.97902 
1.86631 1.75944 1.66056 2.50947 2.41899 2.31794 2.20864 2.0944 1.97902 
1.86631 1.75944 1.66056 0.459179 0.355101 0.242354 0.122983 0 0.122983 
0.242354 0.355101 0.459179 0.531246 0.523681 0.536438 0.57201 0.628319 0.699757 
0.779574 0.86176 0.941896 0.531246 0.523681 0.536438 0.57201 0.628319 0.699757 
0.779574 0.86176 0.941896 0.632123 0.7226 0.823657 0.932948 1.0472 1.16257 
1.27528 1.38216 1.48103 0.632123 0.7226 0.823657 0.932948 1.0472 1.16257 
1.27528 1.38216 1.48103 0.531246 0.523681 0.536438 0.57201 0.628319 0.699757 
0.779574 0.86176 0.941896 0.531246 0.523681 0.536438 0.57201 0.628319 0.699757 
0.779574 0.86176 0.941896 0.632123 0.7226 0.823657 0.932948 1.0472 1.16257 
1.27528 1.38216 1.48103 0.632123 0.7226 0.823657 0.932948 1.0472 1.16257 
1.27528 1.38216 1.48103 2.02998 1.9259 1.81315 1.69378 1.5708 1.44781 
1.32844 1.2157 1.11162 2.0928 2.05283 2.00422 1.94767 1.88496 1.81867 
1.75177 1.68695 1.62623 2.0928 2.05283 2.00422 1.94767 1.88496 1.81867 
1.75177 1.68695 1.62623 1.0488 1.08876 1.13737 1.19392 1.25664 1.32292 
1.38982 1.45464 1.51537 1.0488 1.08876 1.13737 1.19392 1.25664 1.32292 
1.38982 1.45464 1.51537 2.02998 1.9259 1.81315 1.69378 1.5708 1.44781 
1.32844 1.2157 1.11162 2.0928 2.05283 2.00422 1.94767 1.88496 1.81867 
1.75177 1.68695 1.62623 2.0928 2.05283 2.00422 1.94767 1.88496 1.81867 
1.75177 1.68695 1.62623 1.0488 1.08876 1.13737 1.19392 1.25664 1.32292 
1.38982 1.45464 1.51537 1.0488 1.08876 1.13737 1.19392 1.25664 1.32292 
1.38982 1.45464 1.51537 1.5708 1.5708 1.5708 1.5708 1.5708 1.5708 
1.5708 1.5708 1.5708 1.5708 1.5708 1.5708 1.5708 1.5708 1.5708 
1.5708 1.5708 1.5708 2.70908 2.71362 2.81592 2.68886 2.81002 2.92597 
2.6349 2.76254 2.89233 3.01997 2.55881 2.68262 2.80854 2.92834 3.01997 
2.47007 2.58462 2.70048 2.80854 2.89233 2.92597 2.37702 2.48017 2.58462 
2.68262 2.76254 2.81002 2.81592 2.28567 2.37702 2.47007 2.55881 2.6349 
2.68886 2.71362 2.70908 2.52097 2.4195 2.51718 2.30791 2.40503 2.49426 
2.18928 2.28408 2.3734 2.45144 2.06758 2.15805 2.24572 2.32523 2.39165 
1.94707 2.03138 2.11543 2.19453 2.26401 2.32035 1.83164 1.90847 1.98711 
2.06376 2.13422 2.1949 2.24359 1.72413 1.79288 1.86489 1.93728 2.00658 
2.06938 2.12312 2.16654 1.5708 1.50988 1.63171 1.44492 1.5708 1.69667 
1.37826 1.5059 1.63569 1.76333 1.31281 1.43962 1.5708 1.70197 1.82878 
1.25155 1.37501 1.50478 1.63681 1.76659 1.89004 1.19686 1.31493 1.44074 
1.5708 1.70086 1.82666 1.94473 1.15011 1.26149 1.38136 1.50697 1.63462 
1.76024 1.88011 1.99148 1.99148 1.88011 1.94473 1.76024 1.82666 1.89004 
1.63462 1.70086 1.76659 1.82878 1.50697 1.5708 1.63681 1.70197 1.76333 
1.38136 1.44074 1.50478 1.5708 1.63569 1.69667 1.26149 1.31493 1.37501 
1.43962 1.5059 1.5708 1.63171 1.15011 1.19686 1.25155 1.31281 1.37826 
1.44492 1.50988 1.5708 2.16654 2.12312 2.24359 2.06938 2.1949 2.32035 
2.00658 2.13422 2.26401 2.39165 1.93728 2.06376 2.19453 2.32523 2.45144 
1.86489 1.98711 2.11543 2.24572 2.3734 2.49426 1.79288 1.90847 2.03138 
2.15805 2.28408 2.40503 2.51718 1.72413 1.83164 1.94707 2.06758 2.18928 
2.30791 2.4195 2.52097 1.66533 1.66946 1.76911 1.67254 1.777 1.88041 
1.67418 1.78222 1.89102 1.99634 1.67418 1.78405 1.89674 2.00785 2.11299 
1.67254 1.78222 1.89674 2.01191 2.12307 2.22608 1.66946 1.777 1.89102 
2.00785 2.12307 2.23222 2.33166 1.66533 1.76911 1.88041 1.99634 2.11299 
2.22608 2.33166 2.42672 1.47626 1.37249 1.47213 1.26118 1.36459 1.46906 
1.14526 1.25058 1.35938 1.46741 1.0286 1.13374 1.24485 1.35755 1.46741 
0.915514 1.01852 1.12969 1.24485 1.35938 1.46906 0.809937 0.909371 1.01852 
1.13374 1.25058 1.36459 1.47213 0.714871 0.809937 0.915514 1.0286 1.14526 
1.26118 1.37249 1.47626 0.975055 0.898002 1.01847 0.821245 0.946693 1.07221 
0.749941 0.877585 1.00737 1.13501 0.690152 0.816367 0.94706 1.07784 1.20431 
0.647337 0.768195 0.895868 1.02616 1.15448 1.2767 0.624416 0.736561 0.857515 
0.983547 1.11021 1.23313 1.34871 0.620619 0.722093 0.833684 0.952313 1.07402 
1.19452 1.30996 1.41746 0.855925 0.764569 0.764569 0.671524 0.661425 0.671524 
0.582786 0.556971 0.556971 0.582786 0.506696 0.458968 0.441109 0.458968 0.506696 
0.45273 0.379052 0.333054 0.333054 0.379052 0.45273 0.427969 0.331576 0.249267 
0.21325 0.249267 0.331576 0.427969 0.432512 0.325669 0.215619 0.121622 0.121622 
0.215619 0.325669 0.432512 0.432512 0.427969 0.325669 0.45273 0.331576 0.215619 
0.506696 0.379052 0.249267 0.121622 0.582786 0.458968 0.333054 0.21325 0.121622 
0.671524 0.556971 0.441109 0.333054 0.249267 0.215619 0.764569 0.661425 0.556971 
0.458968 0.379052 0.331576 0.325669 0.855925 0.764569 0.671524 0.582786 0.506696 
0.45273 0.427969 0.432512 0.975055 1.01847 0.898002 1.07221 0.946693 0.821245 
1.13501 1.00737 0.877585 0.749941 1.20431 1.07784 0.94706 0.816367 0.690152 
1.2767 1.15448 1.02616 0.895868 0.768195 0.647337 1.34871 1.23313 1.11021 
0.983547 0.857515 0.736561 0.624416 1.41746 1.30996 1.19452 1.07402 0.952313 
0.833684 0.722093 0.620619 1.15011 1.26149 1.19686 1.38136 1.31493 1.25155 
1.50697 1.44074 1.37501 1.31281 1.63462 1.5708 1.50478 1.43962 1.37826 
1.76024 1.70086 1.63681 1.5708 1.5059 1.44492 1.88011 1.82666 1.76659 
1.70197 1.63569 1.5708 1.50988 1.99148 1.94473 1.89004 1.82878 1.76333 
1.69667 1.63171 1.5708 1.15011 1.19686 1.26149 1.25155 1.31493 1.38136 
1.31281 1.37501 1.44074 1.50697 1.37826 1.43962 1.50478 1.5708 1.63462 
1.44492 1.5059 1.5708 1.63681 1.70086 1.76024 1.50988 1.5708 1.63569 
1.70197 1.76659 1.82666 1.88011 1.5708 1.63171 1.69667 1.76333 1.82878 
1.89004 1.94473 1.99148 1.72413 1.83164 1.79288 1.94707 1.90847 1.86489 
2.06758 2.03138 1.98711 1.93728 2.18928 2.15805 2.11543 2.06376 2.00658 
2.30791 2.28408 2.24572 2.19453 2.13422 2.06938 2.4195 2.40503 2.3734 
2.32523 2.26401 2.1949 2.12312 2.52097 2.51718 2.49426 2.45144 2.39165 
2.32035 2.24359 2.16654 2.70908 2.81592 2.71362 2.92597 2.81002 2.68886 
3.01997 2.89233 2.76254 2.6349 3.01997 2.92834 2.80854 2.68262 2.55881 
2.92597 2.89233 2.80854 2.70048 2.58462 2.47007 2.81592 2.81002 2.76254 
2.68262 2.58462 2.48017 2.37702 2.70908 2.71362 2.68886 2.6349 2.55881 
2.47007 2.37702 2.28567 2.16654 2.24359 2.12312 2.32035 2.1949 2.06938 
2.39165 2.26401 2.13422 2.00658 2.45144 2.32523 2.19453 2.06376 1.93728 
2.49426 2.3734 2.24572 2.11543 1.98711 1.86489 2.51718 2.40503 2.28408 
2.15805 2.03138 1.90847 1.79288 2.52097 2.4195 2.30791 2.18928 2.06758 
1.94707 1.83164 1.72413 1.66533 1.76911 1.66946 1.88041 1.777 1.67254 
1.99634 1.89102 1.78222 1.67418 2.11299 2.00785 1.89674 1.78405 1.67418 
2.22608 2.12307 2.01191 1.89674 1.78222 1.67254 2.33166 2.23222 2.12307 
2.00785 1.89102 1.777 1.66946 2.42672 2.33166 2.22608 2.11299 1.99634 
1.88041 1.76911 1.66533 1.47626 1.47213 1.37249 1.46906 1.36459 1.26118 
1.46741 1.35938 1.25058 1.14526 1.46741 1.35755 1.24485 1.13374 1.0286 
1.46906 1.35938 1.24485 1.12969 1.01852 0.915514 1.47213 1.36459 1.25058 
1.13374 1.01852 0.909371 0.809937 1.47626 1.37249 1.26118 1.14526 1.0286 
0.915514 0.809937 0.714871 1.41746 1.30996 1.34871 1.19452 1.23313 1.2767 
1.07402 1.11021 1.15448 1.20431 0.952313 0.983547 1.02616 1.07784 1.13501 
0.833684 0.857515 0.895868 0.94706 1.00737 1.07221 0.722093 0.736561 0.768195 
0.816367 0.877585 0.946693 1.01847 0.620619 0.624416 0.647337 0.690152 0.749941 
0.821245 0.898002 0.975055 0.975055 0.898002 1.01847 0.821245 0.946693 1.07221 
0.749941 0.877585 1.00737 1.13501 0.690152 0.816367 0.94706 1.07784 1.20431 
0.647337 0.768195 0.895868 1.02616 1.15448 1.2767 0.624416 0.736561 0.857515 
0.983547 1.11021 1.23313 1.34871 0.620619 0.722093 0.833684 0.952313 1.07402 
1.19452 1.30996 1.41746 
Phi 1 1002 float
6.28319 3.14159 6.28319 3.14159 4.71239 4.71239 1.5708 1.5708 3.69517 
5.72961 2.58802 0.553574 6.28319 6.28319 6.28319 6.28319 3.14159 3.14159 
3.14159 3.14159 3.14159 6.1053 5.8988 5.67687 5.45995 5.26596 5.10322 
4.97131 4.86569 4.78095 0.177881 0.384387 0.606312 0.823235 1.01722 1.17997 
1.31187 1.4175 1.50223 6.18928 6.10703 6.03531 5.97283 5.91832 5.87061 
5.82869 5.79168 5.75886 0.0939024 0.176153 0.247873 0.310351 0.364864 0.412573 
0.454497 0.491504 0.524326 3.31947 3.52598 3.7479 3.96483 4.15881 4.32156 
4.45346 4.55909 4.64383 2.96371 2.75721 2.53528 2.31836 2.12437 1.96162 
1.82972 1.72409 1.63936 3.2355 3.31775 3.38947 3.45194 3.50646 3.55417 
3.59609 3.6331 3.66592 3.04769 2.96544 2.89372 2.83124 2.77673 2.72902 
2.6871 2.65009 2.61727 6.28319 6.28319 6.28319 6.28319 3.14159 3.14159 
3.14159 3.14159 3.14159 6.1053 5.8988 5.67687 5.45995 5.26596 5.10322 
4.97131 4.86569 4.78095 0.177881 0.384387 0.606312 0.823235 1.01722 1.17997 
1.31187 1.4175 1.50223 6.18928 6.10703 6.03531 5.97283 5.91832 5.87061 
5.82869 5.79168 5.75886 0.0939024 0.176153 0.247873 0.310351 0.364864 0.412573 
0.454497 0.491504 0.524326 3.31947 3.52598 3.7479 3.96483 4.15881 4.32156 
4.45346 4.55909 4.64383 2.96371 2.75721 2.53528 2.31836 2.12437 1.96162 
1.82972 1.72409 1.63936 3.2355 3.31775 3.38947 3.45194 3.50646 3.55417 
3.59609 3.6331 3.66592 3.04769 2.96544 2.89372 2.83124 2.77673 2.72902 
2.6871 2.65009 2.61727 4.71239 4.71239 4.71239 4.71239 4.71239 4.71239 
4.71239 4.71239 4.71239 4.60879 4.49914 4.3857 4.27128 4.15881 4.05096 
3.94976 3.85646 3.77161 4.81599 4.92564 5.03907 5.1535 5.26596 5.37381 
5.47502 5.56831 5.65317 4.60879 4.49914 4.3857 4.27128 4.15881 4.05096 
3.94976 3.85646 3.77161 4.81599 4.92564 5.03907 5.1535 5.26596 5.37381 
5.47502 5.56831 5.65317 1.5708 1.5708 1.5708 1.5708 1.5708 1.5708 
1.5708 1.5708 1.5708 1.6744 1.78405 1.89748 2.01191 2.12437 2.23222 
2.33343 2.42672 2.51157 1.4672 1.35755 1.24411 1.12969 1.01722 0.909371 
0.808166 0.714871 0.63002 1.6744 1.78405 1.89748 2.01191 2.12437 2.23222 
2.33343 2.42672 2.51157 1.4672 1.35755 1.24411 1.12969 1.01722 0.909371 
0.808166 0.714871 0.63002 3.60077 3.49669 3.38395 3.26458 3.14159 3.01861 
2.89924 2.78649 2.68241 5.82401 5.92808 6.04083 6.1602 6.28319 0.122983 
0.242354 0.355101 0.459179 6.05603 5.78856 5.97021 5.51259 5.60297 5.78856 
5.26596 5.26596 5.26596 5.26596 5.06749 5.0121 4.91556 4.71239 4.15881 
4.91556 4.83537 4.71239 4.50922 4.15881 3.63622 4.80045 4.71239 4.58941 
4.41268 4.15881 3.82181 3.45456 4.71239 4.62433 4.50922 4.35729 4.15881 
3.91219 3.63622 3.36875 6.01742 5.94343 5.82633 5.88092 5.76745 5.62798 
5.8278 5.71897 5.58911 5.43724 5.78235 5.67854 5.55757 5.41926 5.26596 
5.74316 5.64441 5.5315 5.40467 5.26596 5.11955 5.70914 5.61528 5.50962 
5.3926 5.26596 5.13292 4.99789 5.67937 5.59016 5.49102 5.38246 5.26596 
5.14407 5.02016 4.89798 5.56831 5.47502 5.47502 5.37381 5.37381 5.37381 
5.26596 5.26596 5.26596 5.26596 5.1535 5.1535 5.1535 5.1535 5.1535 
5.03907 5.03907 5.03907 5.03907 5.03907 5.03907 4.92564 4.92564 4.92564 
4.92564 4.92564 4.92564 4.92564 4.81599 4.81599 4.81599 4.81599 4.81599 
4.81599 4.81599 4.81599 4.60879 4.60879 4.49914 4.60879 4.49914 4.3857 
4.60879 4.49914 4.3857 4.27128 4.60879 4.49914 4.3857 4.27128 4.15881 
4.60879 4.49914 4.3857 4.27128 4.15881 4.05096 4.60879 4.49914 4.3857 
4.27128 4.15881 4.05096 3.94976 4.60879 4.49914 4.3857 4.27128 4.15881 
4.05096 3.94976 3.85646 4.5268 4.40462 4.42689 4.28071 4.29185 4.30523 
4.15881 4.15881 4.15881 4.15881 4.04232 4.03217 4.02011 4.00552 3.98753 
3.93376 3.91515 3.89328 3.86721 3.83566 3.7968 3.83461 3.8095 3.78037 
3.74624 3.70581 3.65733 3.59845 3.7454 3.71564 3.68161 3.64243 3.59698 
3.54386 3.48135 3.40735 3.56428 3.45246 3.52338 3.33203 3.40312 3.47739 
3.20576 3.27463 3.34802 3.42551 3.07742 3.14159 3.21128 3.28647 3.36688 
2.95116 3.00855 3.0719 3.14159 3.21784 3.3006 2.83072 2.88006 2.93517 
2.99672 3.06535 3.14159 3.22575 2.7189 2.7598 2.8058 2.85768 2.9163 
2.98259 3.05743 3.14159 3.56428 3.52338 3.45246 3.47739 3.40312 3.33203 
3.42551 3.34802 3.27463 3.20576 3.36688 3.28647 3.21128 3.14159 3.07742 
3.3006 3.21784 3.14159 3.0719 3.00855 2.95116 3.22575 3.14159 3.06535 
2.99672 2.93517 2.88006 2.83072 3.14159 3.05743 2.98259 2.9163 2.85768 
2.8058 2.7598 2.7189 4.5268 4.42689 4.40462 4.30523 4.29185 4.28071 
4.15881 4.15881 4.15881 4.15881 3.98753 4.00552 4.02011 4.03217 4.04232 
3.7968 3.83566 3.86721 3.89328 3.91515 3.93376 3.59845 3.65733 3.70581 
3.74624 3.78037 3.8095 3.83461 3.40735 3.48135 3.54386 3.59698 3.64243 
3.68161 3.71564 3.7454 4.71239 4.80045 4.62433 4.91556 4.71239 4.50922 
5.06749 4.83537 4.58941 4.35729 5.26596 5.0121 4.71239 4.41268 4.15881 
5.51259 5.26596 4.91556 4.50922 4.15881 3.91219 5.78856 5.60297 5.26596 
4.71239 4.15881 3.82181 3.63622 6.05603 5.97021 5.78856 5.26596 4.15881 
3.63622 3.45456 3.36875 0.227158 0.494626 0.312971 0.770593 0.680215 0.494626 
1.01722 1.01722 1.01722 1.01722 1.2157 1.27109 1.36763 1.5708 2.12437 
1.36763 1.44781 1.5708 1.77397 2.12437 2.64697 1.48273 1.5708 1.69378 
1.8705 2.12437 2.46138 2.82862 1.5708 1.65886 1.77397 1.9259 2.12437 
2.371 2.64697 2.91443 1.75639 1.87857 1.8563 2.00248 1.99133 1.97796 
2.12437 2.12437 2.12437 2.12437 2.24087 2.25101 2.26308 2.27767 2.29565 
2.34943 2.36803 2.38991 2.41597 2.44752 2.48639 2.44857 2.47368 2.50281 
2.53694 2.57738 2.62586 2.68474 2.53778 2.56754 2.60157 2.64076 2.68621 
2.73933 2.80184 2.87583 1.6744 1.6744 1.78405 1.6744 1.78405 1.89748 
1.6744 1.78405 1.89748 2.01191 1.6744 1.78405 1.89748 2.01191 2.12437 
1.6744 1.78405 1.89748 2.01191 2.12437 2.23222 1.6744 1.78405 1.89748 
2.01191 2.12437 2.23222 2.33343 1.6744 1.78405 1.89748 2.01191 2.12437 
2.23222 2.33343 2.42672 1.4672 1.35755 1.4672 1.24411 1.35755 1.4672 
1.12969 1.24411 1.35755 1.4672 1.01722 1.12969 1.24411 1.35755 1.4672 
0.909371 1.01722 1.12969 1.24411 1.35755 1.4672 0.808166 0.909371 1.01722 
1.12969 1.24411 1.35755 1.4672 0.714871 0.808166 0.909371 1.01722 1.12969 
1.24411 1.35755 1.4672 0.603812 0.57405 0.693022 0.540021 0.667908 0.792164 
0.500837 0.638778 0.773562 0.900726 0.455383 0.604649 0.751687 0.890581 1.01722 
0.402264 0.564217 0.725619 0.878514 1.01722 1.13912 0.339753 0.515737 0.694072 
0.863926 1.01722 1.15026 1.26302 0.265762 0.456853 0.655207 0.845941 1.01722 
1.16363 1.28529 1.38521 0.227158 0.312971 0.494626 0.494626 0.680215 0.770593 
1.01722 1.01722 1.01722 1.01722 2.12437 1.5708 1.36763 1.27109 1.2157 
2.64697 2.12437 1.77397 1.5708 1.44781 1.36763 2.82862 2.46138 2.12437 
1.8705 1.69378 1.5708 1.48273 2.91443 2.64697 2.371 2.12437 1.9259 
1.77397 1.65886 1.5708 1.75639 1.8563 1.87857 1.97796 1.99133 2.00248 
2.12437 2.12437 2.12437 2.12437 2.29565 2.27767 2.26308 2.25101 2.24087 
2.48639 2.44752 2.41597 2.38991 2.36803 2.34943 2.68474 2.62586 2.57738 
2.53694 2.50281 2.47368 2.44857 2.87583 2.80184 2.73933 2.68621 2.64076 
2.60157 2.56754 2.53778 5.86049 5.90139 5.97231 5.94739 6.02165 6.09275 
5.99927 6.07676 6.15015 6.21902 6.0579 6.13831 6.2135 0 0.0641696 
6.12418 6.20694 6.28319 0.069689 0.13304 0.190437 6.19903 0 0.0762451 
0.144876 0.206423 0.261531 0.310872 0 0.0841597 0.159004 0.225289 0.283913 
0.335793 0.381792 0.422692 5.86049 5.97231 5.90139 6.09275 6.02165 5.94739 
6.21902 6.15015 6.07676 5.99927 0.0641696 0 6.2135 6.13831 6.0579 
0.190437 0.13304 0.069689 6.28319 6.20694 6.12418 0.310872 0.261531 0.206423 
0.144876 0.0762451 6.28319 6.19903 0.422692 0.381792 0.335793 0.283913 0.225289 
0.159004 0.0841597 0 5.67937 5.70914 5.59016 5.74316 5.61528 5.49102 
5.78235 5.64441 5.50962 5.38246 5.8278 5.67854 5.5315 5.3926 5.26596 
5.88092 5.71897 5.55757 5.40467 5.26596 5.14407 5.94343 5.76745 5.58911 
5.41926 5.26596 5.13292 5.02016 6.01742 5.82633 5.62798 5.43724 5.26596 
5.11955 4.99789 4.89798 1.38521 1.28529 1.26302 1.16363 1.15026 1.13912 
1.01722 1.01722 1.01722 1.01722 0.845941 0.863926 0.878514 0.890581 0.900726 
0.655207 0.694072 0.725619 0.751687 0.773562 0.792164 0.456853 0.515737 0.564217 
0.604649 0.638778 0.667908 0.693022 0.265762 0.339753 0.402264 0.455383 0.500837 
0.540021 0.57405 0.603812 
