# vtk DataFile Version 4.0
vtk output
ASCII
DATASET POLYDATA
POINTS 1002 float
-81.8334 -90.683 65.9945 -74.9229 -103.219 72.4375 -71.1554 -85.5815 67.4493 
-67.0583 -101.254 72.6422 -78.0309 -94.4918 78.3245 -72.2842 -91.6731 78.3428 
-74.3265 -97.7009 62.8397 -68.9558 -97.6107 62.9105 -70.9783 -107.937 80.9297 
-78.2832 -81.6037 69.8239 -68.7054 -111.482 66.3081 -79.0758 -84.0628 58.3865 
-80.7676 -91.2122 66.6895 -79.6713 -91.8688 67.5882 -78.8737 -93.1005 68.5523 
-78.2916 -94.7517 69.4479 -77.534 -96.2333 70.2369 -76.6577 -97.5407 70.9101 
-76.0362 -99.0002 71.4684 -75.6427 -100.523 71.9223 -75.271 -101.932 72.2499 
-81.4803 -90.7546 67.153 -81.2291 -90.9417 68.4878 -81.0183 -91.3612 69.9276 
-80.9329 -92.0121 71.4621 -80.8969 -92.6227 72.8863 -80.4592 -93.001 74.0293 
-79.6261 -93.3154 75.1463 -78.9289 -93.715 76.3686 -78.4792 -94.1273 77.4649 
-81.6008 -91.0005 65.2916 -81.1934 -91.3301 64.6004 -80.6583 -91.8355 64.0379 
-80.0998 -92.6324 63.6008 -79.4288 -93.5724 63.2206 -78.5218 -94.4433 62.9644 
-77.51 -95.2688 62.8485 -76.4719 -96.1102 62.7866 -75.3687 -96.9184 62.7895 
-82.3364 -89.8836 66.0716 -82.4258 -88.6996 66.2065 -82.2286 -87.3927 66.4485 
-81.9138 -86.1345 66.8118 -81.4084 -84.9846 67.2039 -80.6791 -84.1271 67.5136 
-79.9459 -83.4775 67.8627 -79.3499 -82.759 68.4472 -78.8227 -82.0592 69.1734 
-82.7489 -90.1978 65.0708 -83.6982 -89.5 64.2016 -84.3011 -88.6203 63.1409 
-84.1583 -87.6537 61.9573 -83.3912 -86.7377 60.9759 -82.5429 -85.987 60.1032 
-81.8191 -85.3122 59.1939 -81.0189 -84.6432 58.5401 -80.0588 -84.1725 58.3206 
-75.4725 -102.836 73.0575 -75.9281 -102.172 73.8646 -76.4527 -101.481 74.7295 
-77.2262 -101.076 75.4445 -78.01 -100.616 76.183 -78.3835 -99.589 77.0578 
-78.3046 -98.1917 77.663 -78.0841 -96.8488 77.8778 -77.9907 -95.6354 78.0573 
-74.5369 -102.713 71.7366 -74.2542 -102.254 70.8332 -74.148 -101.853 69.7188 
-74.1339 -101.401 68.5319 -74.0627 -100.836 67.4552 -73.8871 -100.145 66.5447 
-73.7361 -99.3369 65.6771 -73.7862 -98.5952 64.7301 -74.0331 -98.0833 63.7409 
-75.0023 -104.353 72.9144 -75.017 -105.434 73.544 -74.7629 -106.173 74.5611 
-74.2329 -106.63 75.8911 -73.6505 -107.105 77.1301 -73.2023 -107.619 78.2036 
-72.8263 -108.08 79.34 -72.3107 -108.436 80.3619 -71.6242 -108.448 80.8977 
-74.3375 -104.151 72.1309 -73.7996 -105.239 71.666 -73.3636 -106.566 71.0265 
-72.9407 -107.972 70.3227 -72.5277 -109.336 69.5738 -72.0523 -110.474 68.7865 
-71.3416 -111.067 68.1172 -70.4652 -111.259 67.5442 -69.569 -111.411 66.9141 
-70.3601 -86.4036 67.978 -69.7862 -87.6733 68.5405 -69.5219 -89.5571 69.1835 
-69.1766 -91.5286 69.8375 -68.5099 -93.1238 70.4033 -67.8938 -94.697 70.9312 
-67.5734 -96.4882 71.4527 -67.3702 -98.2157 71.9041 -67.1814 -99.778 72.2895 
-71.1038 -85.7328 68.4929 -71.1669 -86.0924 69.6195 -71.2153 -86.5599 70.8174 
-71.1687 -87.0661 72.0935 -71.188 -87.6655 73.3614 -71.4098 -88.3764 74.5378 
-71.6709 -89.1484 75.6485 -71.8403 -89.9748 76.683 -72.0222 -90.8419 77.5821 
-70.8076 -86.0946 66.76 -70.5333 -86.8388 66.0079 -70.2977 -87.7724 65.2857 
-70.0807 -88.8685 64.7236 -69.8923 -90.1836 64.2716 -69.6948 -91.6899 63.8915 
-69.5262 -93.2946 63.6902 -69.4259 -94.8957 63.5493 -69.264 -96.3464 63.2668 
-71.8705 -84.7729 67.5287 -72.4378 -83.6572 67.647 -72.9301 -82.4115 67.8402 
-73.5773 -81.4459 68.1064 -74.3635 -80.7135 68.5253 -75.2628 -80.0839 69.0517 
-76.289 -79.937 69.384 -77.1895 -80.3755 69.4819 -77.8134 -81.0008 69.6052 
-71.8015 -85.1015 66.4723 -72.5453 -84.5798 65.4735 -73.281 -84.0244 64.4817 
-73.999 -83.5435 63.4081 -74.8154 -83.2151 62.2677 -75.7398 -83.0857 61.2153 
-76.6542 -83.162 60.2938 -77.5184 -83.347 59.4861 -78.3348 -83.6116 58.8391 
-67.2216 -100.389 73.3708 -67.4905 -99.4188 74.1823 -67.9994 -98.4376 74.9426 
-68.6878 -97.5085 75.4812 -69.3653 -96.5044 76.0149 -69.9601 -95.334 76.7108 
-70.5112 -94.1927 77.2921 -71.0953 -93.2675 77.6662 -71.7224 -92.4759 78.0087 
-66.9429 -101.159 71.6724 -66.7757 -101.03 70.5878 -66.6502 -100.844 69.3817 
-66.7226 -100.575 68.1023 -66.8874 -100.188 66.9191 -66.993 -99.6546 65.8569 
-67.2208 -99.0432 64.8027 -67.742 -98.4996 63.9046 -68.3969 -98.0611 63.3267 
-67.1354 -102.241 73.4377 -67.3319 -103.247 74.2477 -67.585 -104.192 75.0459 
-67.9057 -105.159 75.8548 -68.4534 -106.075 76.6662 -69.1952 -106.63 77.4414 
-69.7949 -106.929 78.2383 -70.128 -107.348 79.179 -70.451 -107.799 80.1758 
-66.9083 -102.7 72.3471 -66.753 -104.221 71.8495 -66.56 -105.747 71.2237 
-66.3487 -107.306 70.6631 -66.3087 -108.785 70.1034 -66.5241 -109.857 69.3847 
-66.8392 -110.535 68.5724 -67.2557 -111.087 67.7363 -67.9069 -111.463 66.9292 
-77.675 -93.9785 78.9508 -77.1922 -93.4238 79.5442 -76.7897 -92.8343 80.1586 
-76.4041 -92.1855 80.815 -75.5878 -91.6209 81.2175 -74.4457 -91.3728 80.9934 
-73.6261 -91.4204 80.2963 -73.1903 -91.5469 79.573 -72.7703 -91.6321 78.9535 
-77.4908 -95.6293 78.9514 -76.9485 -96.938 79.6227 -76.404 -98.3108 80.3195 
-75.8641 -99.7363 81.034 -75.2955 -101.292 81.6178 -74.5355 -102.854 81.8209 
-73.5229 -104.271 81.7725 -72.4577 -105.623 81.7196 -71.5798 -106.906 81.506 
-78.4207 -93.1297 78.0286 -78.7124 -91.7197 77.4191 -78.7397 -90.3046 76.4602 
-78.6258 -88.8669 75.4512 -78.5422 -87.3708 74.4931 -78.4821 -85.901 73.4358 
-78.4745 -84.5482 72.4506 -78.4972 -83.3412 71.6462 -78.4285 -82.3547 70.7861 
-72.2124 -92.9697 78.9081 -71.9901 -94.279 79.5627 -71.6654 -95.6992 80.2002 
-71.4331 -97.2912 80.691 -71.3444 -99.0367 81.0268 -71.2035 -100.903 81.2481 
-70.9369 -102.806 81.3395 -70.7403 -104.683 81.3045 -70.7693 -106.457 81.1735 
-72.5696 -90.2184 78.1887 -72.9118 -88.6211 77.9012 -73.5152 -87.195 77.3606 
-74.2958 -85.9316 76.6199 -75.0154 -84.5469 75.7917 -75.7102 -83.2581 74.7933 
-76.446 -82.4991 73.5646 -77.1372 -82.1159 72.2619 -77.7555 -81.804 71.0141 
-73.8886 -97.9575 62.3488 -73.4234 -98.2473 61.8239 -72.8427 -98.6207 61.3275 
-71.9929 -99.0615 61.0637 -71.0104 -99.3975 61.0985 -70.2031 -99.4054 61.2753 
-69.6201 -99.0654 61.5468 -69.2239 -98.5658 61.9568 -69.0343 -98.0665 62.4368 
-73.3285 -98.927 63.3163 -72.6309 -100.679 63.5195 -72.2127 -102.994 63.2867 
-71.9004 -105.366 62.826 -71.4266 -107.052 62.7808 -70.7085 -108.075 63.3484 
-70.0465 -109.103 63.9457 -69.6018 -110.23 64.3876 -69.1806 -111.049 65.1288 
-75.2933 -96.7438 61.9621 -76.3761 -95.5 61.0767 -77.3444 -93.9923 60.2465 
-78.1046 -92.5294 59.4735 -78.7609 -91.1826 58.7442 -79.2664 -89.7199 58.1341 
-79.4456 -88.1397 57.8024 -79.3712 -86.6023 57.7964 -79.2345 -85.2065 58.0183 
-68.2284 -99.2008 62.7949 -67.6073 -101.073 62.6653 -67.3942 -103.186 62.4475 
-67.3827 -105.108 62.0643 -67.2694 -106.613 61.9667 -67.2614 -108.007 62.5415 
-67.5011 -109.428 63.3451 -67.8203 -110.549 64.0747 -68.2047 -111.175 65.037 
-69.5963 -96.1467 62.5485 -70.1934 -94.2455 61.8769 -71.1277 -92.2476 61.1536 
-72.5586 -90.5862 60.5592 -73.9921 -89.2268 59.8745 -75.0823 -87.969 59.1074 
-76.0821 -86.8346 58.5983 -77.1555 -85.8067 58.3907 -78.1813 -84.8509 58.3319 
-70.8746 -109.193 80.125 -70.7959 -110.25 79.0526 -70.6371 -111.105 77.785 
-70.3027 -111.928 76.2669 -69.8727 -112.783 74.3804 -69.5176 -113.353 72.4325 
-69.2516 -113.25 70.9137 -69.0072 -112.598 69.6057 -68.8069 -111.918 68.0243 
-78.4707 -81.1822 68.4669 -78.6618 -80.8757 67.0813 -78.9925 -80.5523 65.6378 
-79.5796 -80.0577 64.0656 -80.1744 -79.7601 62.605 -80.3583 -80.2143 61.4763 
-80.1337 -81.1921 60.4991 -79.7898 -82.1554 59.5701 -79.4477 -83.0698 58.8419 
-80.5051 -91.4273 68.0437 -80.3829 -91.9001 69.3682 -79.526 -92.3257 68.9738 
-80.4205 -92.642 70.7196 -79.5477 -93.0819 70.1557 -78.8295 -93.7712 69.8245 
-80.5979 -93.3587 72.2604 -79.704 -93.9334 71.4624 -78.9115 -94.6416 70.952 
-78.282 -95.5034 70.6346 -80.4929 -93.7805 73.6929 -79.7828 -94.5397 73.0105 
-78.9991 -95.4922 72.2851 -78.3847 -96.4279 71.8218 -77.5534 -97.061 71.4146 
-79.7822 -94.1094 74.8534 -79.4753 -94.9847 74.4142 -78.9568 -96.2214 73.7163 
-78.4897 -97.4222 73.0788 -77.7193 -98.0594 72.6213 -76.7485 -98.4423 72.0838 
-78.94 -94.6078 76.0064 -78.9219 -95.587 75.6851 -78.8122 -96.9652 75.1186 
-78.5723 -98.3933 74.3504 -77.9219 -99.1098 73.7751 -76.9413 -99.3572 73.2673 
-76.1556 -99.8394 72.5952 -78.3984 -95.1728 77.1331 -78.4748 -96.2887 76.9065 
-78.6376 -97.6833 76.5334 -78.6048 -99.1723 75.7571 -78.0717 -100.04 74.9603 
-77.1363 -100.265 74.3773 -76.3106 -100.635 73.7002 -75.769 -101.327 72.9164 
-81.9711 -89.9122 67.2562 -82.0939 -88.6851 67.4748 -81.632 -90.0006 68.7169 
-81.9629 -87.3315 67.839 -81.6902 -88.6906 69.0458 -81.2043 -90.3263 70.3491 
-81.5862 -86.0733 68.2863 -81.5461 -87.3466 69.435 -81.0844 -89.0051 70.6778 
-80.8313 -90.954 71.8888 -80.8743 -85.1127 68.6489 -81.0703 -86.2714 69.8106 
-80.8668 -87.7877 70.9253 -80.4268 -89.6857 72.0248 -80.4365 -91.5809 73.1117 
-80.074 -84.456 68.9249 -80.2069 -85.554 70.0604 -80.3248 -86.8764 71.1687 
-80.053 -88.5295 72.1597 -79.7826 -90.3434 73.2045 -79.8216 -92.0052 74.2917 
-79.4677 -83.7512 69.3952 -79.416 -84.9058 70.3574 -79.4863 -86.1458 71.4229 
-79.5444 -87.5751 72.4777 -79.3886 -89.1832 73.5021 -79.3212 -90.8312 74.6615 
-79.2605 -92.3726 75.6997 -78.9689 -82.9499 70.1071 -78.9259 -84.0916 70.946 
-78.8541 -85.3566 71.8504 -78.9356 -86.718 72.9294 -79.0155 -88.2086 73.991 
-79.0605 -89.7499 75.0861 -79.0855 -91.2848 76.2195 -78.8819 -92.7607 77.0341 
-77.9021 -82.6135 72.0224 -77.2883 -83.0195 73.2597 -78.0056 -83.6851 72.9061 
-76.5681 -83.6054 74.5601 -77.3904 -84.2391 74.1858 -78.0493 -85.0238 73.8286 
-75.8451 -84.541 75.8687 -76.6479 -84.9907 75.5261 -77.4196 -85.7363 75.1683 
-78.0401 -86.5622 74.8845 -75.157 -85.7447 77.0081 -75.9609 -85.9482 76.9014 
-76.6847 -86.59 76.4735 -77.3388 -87.4055 76.1237 -77.9957 -88.1683 75.8219 
-74.3303 -87.0017 77.8756 -75.2247 -87.0814 78.1422 -76.0501 -87.553 77.9367 
-76.6682 -88.2788 77.4415 -77.2466 -89.0057 76.986 -78.033 -89.6577 76.6954 
-73.527 -88.4253 78.4456 -74.3091 -88.4067 78.9825 -75.2754 -88.6532 79.3076 
-76.1647 -89.1583 79.1124 -76.7063 -89.786 78.4957 -77.2825 -90.4178 77.9471 
[...]
POINT_DATA 1002
FIELD FieldData 2
Theta 1 1002 float
2.58802 2.58802 0.553574 0.553574 2.12437 1.01722 2.12437 1.01722 1.5708 
1.5708 1.5708 1.5708 2.68241 2.78649 2.89924 3.01861 3.14159 3.01861 
2.89924 2.78649 2.68241 2.61035 2.61791 2.60515 2.56958 2.51327 2.44184 
2.36202 2.27983 2.1997 2.61035 2.61791 2.60515 2.56958 2.51327 2.44184 
2.36202 2.27983 2.1997 2.50947 2.41899 2.31794 2.20864 2.0944 1.97902 
1.86631 1.75944 1.66056 2.50947 2.41899 2.31794 2.20864 2.0944 1.97902 
1.86631 1.75944 1.66056 2.61035 2.61791 2.60515 2.56958 2.51327 2.44184 
2.36202 2.27983 2.1997 2.61035 2.61791 2.60515 2.56958 2.51327 2.44184 
2.36202 2.27983 2.1997 2.50947 2.41899 2.31794 2.20864 2.0944 1.97902 
1.86631 1.75944 1.66056 2.50947 2.41899 2.31794 2.20864 2.0944 1.97902 
1.86631 1.75944 1.66056 0.459179 0.355101 0.242354 0.122983 0 0.122983 
0.242354 0.355101 0.459179 0.531246 0.523681 0.536438 0.57201 0.628319 0.699757 
0.779574 0.86176 0.941896 0.531246 0.523681 0.536438 0.57201 0.628319 0.699757 
0.779574 0.86176 0.941896 0.632123 0.7226 0.823657 0.932948 1.0472 1.16257 
1.27528 1.38216 1.48103 0.632123 0.7226 0.823657 0.932948 1.0472 1.16257 
1.27528 1.38216 1.48103 0.531246 0.523681 0.536438 0.57201 0.628319 0.699757 
0.779574 0.86176 0.941896 0.531246 0.523681 0.536438 0.57201 0.628319 0.699757 
0.779574 0.86176 0.941896 0.632123 0.7226 0.823657 0.932948 1.0472 1.16257 
1.27528 1.38216 1.48103 0.632123 0.7226 0.823657 0.932948 1.0472 1.16257 
1.27528 1.38216 1.48103 2.02998 1.9259 1.81315 1.69378 1.5708 1.44781 
1.32844 1.2157 1.11162 2.0928 2.05283 2.00422 1.94767 1.88496 1.81867 
1.75177 1.68695 1.62623 2.0928 2.05283 2.00422 1.94767 1.88496 1.81867 
1.75177 1.68695 1.62623 1.0488 1.08876 1.13737 1.19392 1.25664 1.32292 
1.38982 1.45464 1.51537 1.0488 1.08876 1.13737 1.19392 1.25664 1.32292 
1.38982 1.45464 1.51537 2.02998 1.9259 1.81315 1.69378 1.5708 1.44781 
1.32844 1.2157 1.11162 2.0928 2.05283 2.00422 1.94767 1.88496 1.81867 
1.75177 1.68695 1.62623 2.0928 2.05283 2.00422 1.94767 1.88496 1.81867 
1.75177 1.68695 1.62623 1.0488 1.08876 1.13737 1.19392 1.25664 1.32292 
1.38982 1.45464 1.51537 1.0488 1.08876 1.13737 1.19392 1.25664 1.32292 
1.38982 1.45464 1.51537 1.5708 1.5708 1.5708 1.5708 1.5708 1.5708 
1.5708 1.5708 1.5708 1.5708 1.5708 1.5708 1.5708 1.5708 1.5708 
1.5708 1.5708 1.5708 2.70908 2.71362 2.81592 2.68886 2.81002 2.92597 
2.6349 2.76254 2.89233 3.01997 2.55881 2.68262 2.80854 2.92834 3.01997 
2.47007 2.58462 2.70048 2.80854 2.89233 2.92597 2.37702 2.48017 2.58462 
2.68262 2.76254 2.81002 2.81592 2.28567 2.37702 2.47007 2.55881 2.6349 
2.68886 2.71362 2.70908 2.52097 2.4195 2.51718 2.30791 2.40503 2.49426 
2.18928 2.28408 2.3734 2.45144 2.06758 2.15805 2.24572 2.32523 2.39165 
1.94707 2.03138 2.11543 2.19453 2.26401 2.32035 1.83164 1.90847 1.98711 
2.06376 2.13422 2.1949 2.24359 1.72413 1.79288 1.86489 1.93728 2.00658 
2.06938 2.12312 2.16654 1.5708 1.50988 1.63171 1.44492 1.5708 1.69667 
1.37826 1.5059 1.63569 1.76333 1.31281 1.43962 1.5708 1.70197 1.82878 
1.25155 1.37501 1.50478 1.63681 1.76659 1.89004 1.19686 1.31493 1.44074 
1.5708 1.70086 1.82666 1.94473 1.15011 1.26149 1.38136 1.50697 1.63462 
1.76024 1.88011 1.99148 1.99148 1.88011 1.94473 1.76024 1.82666 1.89004 
1.63462 1.70086 1.76659 1.82878 1.50697 1.5708 1.63681 1.70197 1.76333 
1.38136 1.44074 1.50478 1.5708 1.63569 1.69667 1.26149 1.31493 1.37501 
1.43962 1.5059 1.5708 1.63171 1.15011 1.19686 1.25155 1.31281 1.37826 
1.44492 1.50988 1.5708 2.16654 2.12312 2.24359 2.06938 2.1949 2.32035 
2.00658 2.13422 2.26401 2.39165 1.93728 2.06376 2.19453 2.32523 2.45144 
1.86489 1.98711 2.11543 2.24572 2.3734 2.49426 1.79288 1.90847 2.03138 
2.15805 2.28408 2.40503 2.51718 1.72413 1.83164 1.94707 2.06758 2.18928 
2.30791 2.4195 2.52097 1.66533 1.66946 1.76911 1.67254 1.777 1.88041 
1.67418 1.78222 1.89102 1.99634 1.67418 1.78405 1.89674 2.00785 2.11299 
1.67254 1.78222 1.89674 2.01191 2.12307 2.22608 1.66946 1.777 1.89102 
2.00785 2.12307 2.23222 2.33166 1.66533 1.76911 1.88041 1.99634 2.11299 
2.22608 2.33166 2.42672 1.47626 1.37249 1.47213 1.26118 1.36459 1.46906 
1.14526 1.25058 1.35938 1.46741 1.0286 1.13374 1.24485 1.35755 1.46741 
0.915514 1.01852 1.12969 1.24485 1.35938 1.46906 0.809937 0.909371 1.01852 
1.13374 1.25058 1.36459 1.47213 0.714871 0.809937 0.915514 1.0286 1.14526 
1.26118 1.37249 1.47626 0.975055 0.898002 1.01847 0.821245 0.946693 1.07221 
0.749941 0.877585 1.00737 1.13501 0.690152 0.816367 0.94706 1.07784 1.20431 
0.647337 0.768195 0.895868 1.02616 1.15448 1.2767 0.624416 0.736561 0.857515 
0.983547 1.11021 1.23313 1.34871 0.620619 0.722093 0.833684 0.952313 1.07402 
1.19452 1.30996 1.41746 0.855925 0.764569 0.764569 0.671524 0.661425 0.671524 
0.582786 0.556971 0.556971 0.582786 0.506696 0.458968 0.441109 0.458968 0.506696 
0.45273 0.379052 0.333054 0.333054 0.379052 0.45273 0.427969 0.331576 0.249267 
0.21325 0.249267 0.331576 0.427969 0.432512 0.325669 0.215619 0.121622 0.121622 
0.215619 0.325669 0.432512 0.432512 0.427969 0.325669 0.45273 0.331576 0.215619 
0.506696 0.379052 0.249267 0.121622 0.582786 0.458968 0.333054 0.21325 0.121622 
0.671524 0.556971 0.441109 0.333054 0.249267 0.215619 0.764569 0.661425 0.556971 
0.458968 0.379052 0.331576 0.325669 0.855925 0.764569 0.671524 0.582786 0.506696 
0.45273 0.427969 0.432512 0.975055 1.01847 0.898002 1.07221 0.946693 0.821245 
1.13501 1.00737 0.877585 0.749941 1.20431 1.07784 0.94706 0.816367 0.690152 
1.2767 1.15448 1.02616 0.895868 0.768195 0.647337 1.34871 1.23313 1.11021 
0.983547 0.857515 0.736561 0.624416 1.41746 1.30996 1.19452 1.07402 0.952313 
0.833684 0.722093 0.620619 1.15011 1.26149 1.19686 1.38136 1.31493 1.25155 
1.50697 1.44074 1.37501 1.31281 1.63462 1.5708 1.50478 1.43962 1.37826 
1.76024 1.70086 1.63681 1.5708 1.5059 1.44492 1.88011 1.82666 1.76659 
1.70197 1.63569 1.5708 1.50988 1.99148 1.94473 1.89004 1.82878 1.76333 
1.69667 1.63171 1.5708 1.15011 1.19686 1.26149 1.25155 1.31493 1.38136 
1.31281 1.37501 1.44074 1.50697 1.37826 1.43962 1.50478 1.5708 1.63462 
1.44492 1.5059 1.5708 1.63681 1.70086 1.76024 1.50988 1.5708 1.63569 
1.70197 1.76659 1.82666 1.88011 1.5708 1.63171 1.69667 1.76333 1.82878 
1.89004 1.94473 1.99148 1.72413 1.83164 1.79288 1.94707 1.90847 1.86489 
2.06758 2.03138 1.98711 1.93728 2.18928 2.15805 2.11543 2.06376 2.00658 
2.30791 2.28408 2.24572 2.19453 2.13422 2.06938 2.4195 2.40503 2.3734 
2.32523 2.26401 2.1949 2.12312 2.52097 2.51718 2.49426 2.45144 2.39165 
2.32035 2.24359 2.16654 2.70908 2.81592 2.71362 2.92597 2.81002 2.68886 
3.01997 2.89233 2.76254 2.6349 3.01997 2.92834 2.80854 2.68262 2.55881 
2.92597 2.89233 2.80854 2.70048 2.58462 2.47007 2.81592 2.81002 2.76254 
2.68262 2.58462 2.48017 2.37702 2.70908 2.71362 2.68886 2.6349 2.55881 
2.47007 2.37702 2.28567 2.16654 2.24359 2.12312 2.32035 2.1949 2.06938 
2.39165 2.26401 2.13422 2.00658 2.45144 2.32523 2.19453 2.06376 1.93728 
2.49426 2.3734 2.24572 2.11543 1.98711 1.86489 2.51718 2.40503 2.28408 
2.15805 2.03138 1.90847 1.79288 2.52097 2.4195 2.30791 2.18928 2.06758 
1.94707 1.83164 1.72413 1.66533 1.76911 1.66946 1.88041 1.777 1.67254 
1.99634 1.89102 1.78222 1.67418 2.11299 2.00785 1.89674 1.78405 1.67418 
2.22608 2.12307 2.01191 1.89674 1.78222 1.67254 2.33166 2.23222 2.12307 
2.00785 1.89102 1.777 1.66946 2.42672 2.33166 2.22608 2.11299 1.99634 
1.88041 1.76911 1.66533 1.47626 1.47213 1.37249 1.46906 1.36459 1.26118 
1.46741 1.35938 1.25058 1.14526 1.46741 1.35755 1.24485 1.13374 1.0286 
1.46906 1.35938 1.24485 1.12969 1.01852 0.915514 1.47213 1.36459 1.25058 
1.13374 1.01852 0.909371 0.809937 1.47626 1.37249 1.26118 1.14526 1.0286 
0.915514 0.809937 0.714871 1.41746 1.30996 1.34871 1.19452 1.23313 1.2767 
1.07402 1.11021 1.15448 1.20431 0.952313 0.983547 1.02616 1.07784 1.13501 
0.833684 0.857515 0.895868 0.94706 1.00737 1.07221 0.722093 0.736561 0.768195 
0.816367 0.877585 0.946693 1.01847 0.620619 0.624416 0.647337 0.690152 0.749941 
0.821245 0.898002 0.975055 0.975055 0.898002 1.01847 0.821245 0.946693 1.07221 
0.749941 0.877585 1.00737 1.13501 0.690152 0.816367 0.94706 1.07784 1.20431 
0.647337 0.768195 0.895868 1.02616 1.15448 1.2767 0.624416 0.736561 0.857515 
0.983547 1.11021 1.23313 1.34871 0.620619 0.722093 0.833684 0.952313 1.07402 
1.19452 1.30996 1.41746 
Phi 1 1002 float
6.28319 3.14159 6.28319 3.14159 4.71239 4.71239 1.5708 1.5708 3.69517 
5.72961 2.58802 0.553574 6.28319 6.28319 6.28319 6.28319 3.14159 3.14159 
3.14159 3.14159 3.14159 6.1053 5.8988 5.67687 5.45995 5.26596 5.10322 
4.97131 4.86569 4.78095 0.177881 0.384387 0.606312 0.823235 1.01722 1.17997 
1.31187 1.4175 1.50223 6.18928 6.10703 6.03531 5.97283 5.91832 5.87061 
5.82869 5.79168 5.75886 0.0939024 0.176153 0.247873 0.310351 0.364864 0.412573 
0.454497 0.491504 0.524326 3.31947 3.52598 3.7479 3.96483 4.15881 4.32156 
4.45346 4.55909 4.64383 2.96371 2.75721 2.53528 2.31836 2.12437 1.96162 
1.82972 1.72409 1.63936 3.2355 3.31775 3.38947 3.45194 3.50646 3.55417 
3.59609 3.6331 3.66592 3.04769 2.96544 2.89372 2.83124 2.77673 2.72902 
2.6871 2.65009 2.61727 6.28319 6.28319 6.28319 6.28319 3.14159 3.14159 
3.14159 3.14159 3.14159 6.1053 5.8988 5.67687 5.45995 5.26596 5.10322 
4.97131 4.86569 4.78095 0.177881 0.384387 0.606312 0.823235 1.01722 1.17997 
1.31187 1.4175 1.50223 6.18928 6.10703 6.03531 5.97283 5.91832 5.87061 
5.82869 5.79168 5.75886 0.0939024 0.176153 0.247873 0.310351 0.364864 0.412573 
0.454497 0.491504 0.524326 3.31947 3.52598 3.7479 3.96483 4.15881 4.32156 
4.45346 4.55909 4.64383 2.96371 2.75721 2.53528 2.31836 2.12437 1.96162 
1.82972 1.72409 1.63936 3.2355 3.31775 3.38947 3.45194 3.50646 3.55417 
3.59609 3.6331 3.66592 3.04769 2.96544 2.89372 2.83124 2.77673 2.72902 
2.6871 2.65009 2.61727 4.71239 4.71239 4.71239 4.71239 4.71239 4.71239 
4.71239 4.71239 4.71239 4.60879 4.49914 4.3857 4.27128 4.15881 4.05096 
3.94976 3.85646 3.77161 4.81599 4.92564 5.03907 5.1535 5.26596 5.37381 
5.47502 5.56831 5.65317 4.60879 4.49914 4.3857 4.27128 4.15881 4.05096 
3.94976 3.85646 3.77161 4.81599 4.92564 5.03907 5.1535 5.26596 5.37381 
5.47502 5.56831 5.65317 1.5708 1.5708 1.5708 1.5708 1.5708 1.5708 
1.5708 1.5708 1.5708 1.6744 1.78405 1.89748 2.01191 2.12437 2.23222 
2.33343 2.42672 2.51157 1.4672 1.35755 1.24411 1.12969 1.01722 0.909371 
0.808166 0.714871 0.63002 1.6744 1.78405 1.89748 2.01191 2.12437 2.23222 
2.33343 2.42672 2.51157 1.4672 1.35755 1.24411 1.12969 1.01722 0.909371 
0.808166 0.714871 0.63002 3.60077 3.49669 3.38395 3.26458 3.14159 3.01861 
2.89924 2.78649 2.68241 5.82401 5.92808 6.04083 6.1602 6.28319 0.122983 
0.242354 0.355101 0.459179 6.05603 5.78856 5.97021 5.51259 5.60297 5.78856 
5.26596 5.26596 5.26596 5.26596 5.06749 5.0121 4.91556 4.71239 4.15881 
4.91556 4.83537 4.71239 4.50922 4.15881 3.63622 4.80045 4.71239 4.58941 
4.41268 4.15881 3.82181 3.45456 4.71239 4.62433 4.50922 4.35729 4.15881 
3.91219 3.63622 3.36875 6.01742 5.94343 5.82633 5.88092 5.76745 5.62798 
5.8278 5.71897 5.58911 5.43724 5.78235 5.67854 5.55757 5.41926 5.26596 
5.74316 5.64441 5.5315 5.40467 5.26596 5.11955 5.70914 5.61528 5.50962 
5.3926 5.26596 5.13292 4.99789 5.67937 5.59016 5.49102 5.38246 5.26596 
5.14407 5.02016 4.89798 5.56831 5.47502 5.47502 5.37381 5.37381 5.37381 
5.26596 5.26596 5.26596 5.26596 5.1535 5.1535 5.1535 5.1535 5.1535 
5.03907 5.03907 5.03907 5.03907 5.03907 5.03907 4.92564 4.92564 4.92564 
4.92564 4.92564 4.92564 4.92564 4.81599 4.81599 4.81599 4.81599 4.81599 
4.81599 4.81599 4.81599 4.60879 4.60879 4.49914 4.60879 4.49914 4.3857 
4.60879 4.49914 4.3857 4.27128 4.60879 4.49914 4.3857 4.27128 4.15881 
4.60879 4.49914 4.3857 4.27128 4.15881 4.05096 4.60879 4.49914 4.3857 
4.27128 4.15881 4.05096 3.94976 4.60879 4.49914 4.3857 4.27128 4.15881 
4.05096 3.94976 3.85646 4.5268 4.40462 4.42689 4.28071 4.29185 4.30523 
4.15881 4.15881 4.15881 4.15881 4.04232 4.03217 4.02011 4.00552 3.98753 
3.93376 3.91515 3.89328 3.86721 3.83566 3.7968 3.83461 3.8095 3.78037 
3.74624 3.70581 3.65733 3.59845 3.7454 3.71564 3.68161 3.64243 3.59698 
3.54386 3.48135 3.40735 3.56428 3.45246 3.52338 3.33203 3.40312 3.47739 
3.20576 3.27463 3.34802 3.42551 3.07742 3.14159 3.21128 3.28647 3.36688 
2.95116 3.00855 3.0719 3.14159 3.21784 3.3006 2.83072 2.88006 2.93517 
2.99672 3.06535 3.14159 3.22575 2.7189 2.7598 2.8058 2.85768 2.9163 
2.98259 3.05743 3.14159 3.56428 3.52338 3.45246 3.47739 3.40312 3.33203 
3.42551 3.34802 3.27463 3.20576 3.36688 3.28647 3.21128 3.14159 3.07742 
3.3006 3.21784 3.14159 3.0719 3.00855 2.95116 3.22575 3.14159 3.06535 
2.99672 2.93517 2.88006 2.83072 3.14159 3.05743 2.98259 2.9163 2.85768 
2.8058 2.7598 2.7189 4.5268 4.42689 4.40462 4.30523 4.29185 4.28071 
4.15881 4.15881 4.15881 4.15881 3.98753 4.00552 4.02011 4.03217 4.04232 
3.7968 3.83566 3.86721 3.89328 3.91515 3.93376 3.59845 3.65733 3.70581 
3.74624 3.78037 3.8095 3.83461 3.40735 3.48135 3.54386 3.59698 3.64243 
3.68161 3.71564 3.7454 4.71239 4.80045 4.62433 4.91556 4.71239 4.50922 
5.06749 4.83537 4.58941 4.35729 5.26596 5.0121 4.71239 4.41268 4.15881 
5.51259 5.26596 4.91556 4.50922 4.15881 3.91219 5.78856 5.60297 5.26596 
4.71239 4.15881 3.82181 3.63622 6.05603 5.97021 5.78856 5.26596 4.15881 
3.63622 3.45456 3.36875 0.227158 0.494626 0.312971 0.770593 0.680215 0.494626 
1.01722 1.01722 1.01722 1.01722 1.2157 1.27109 1.36763 1.5708 2.12437 
1.36763 1.44781 1.5708 1.77397 2.12437 2.64697 1.48273 1.5708 1.69378 
1.8705 2.12437 2.46138 2.82862 1.5708 1.65886 1.77397 1.9259 2.12437 
2.371 2.64697 2.91443 1.75639 1.87857 1.8563 2.00248 1.99133 1.97796 
2.12437 2.12437 2.12437 2.12437 2.24087 2.25101 2.26308 2.27767 2.29565 
2.34943 2.36803 2.38991 2.41597 2.44752 2.48639 2.44857 2.47368 2.50281 
2.53694 2.57738 2.62586 2.68474 2.53778 2.56754 2.60157 2.64076 2.68621 
2.73933 2.80184 2.87583 1.6744 1.6744 1.78405 1.6744 1.78405 1.89748 
1.6744 1.78405 1.89748 2.01191 1.6744 1.78405 1.89748 2.01191 2.12437 
1.6744 1.78405 1.89748 2.01191 2.12437 2.23222 1.6744 1.78405 1.89748 
2.01191 2.12437 2.23222 2.33343 1.6744 1.78405 1.89748 2.01191 2.12437 
2.23222 2.33343 2.42672 1.4672 1.35755 1.4672 1.24411 1.35755 1.4672 
1.12969 1.24411 1.35755 1.4672 1.01722 1.12969 1.24411 1.35755 1.4672 
0.909371 1.01722 1.12969 1.24411 1.35755 1.4672 0.808166 0.909371 1.01722 
1.12969 1.24411 1.35755 1.4672 0.714871 0.808166 0.909371 1.01722 1.12969 
1.24411 1.35755 1.4672 0.603812 0.57405 0.693022 0.540021 0.667908 0.792164 
0.500837 0.638778 0.773562 0.900726 0.455383 0.604649 0.751687 0.890581 1.01722 
0.402264 0.564217 0.725619 0.878514 1.01722 1.13912 0.339753 0.515737 0.694072 
0.863926 1.01722 1.15026 1.26302 0.265762 0.456853 0.655207 0.845941 1.01722 
1.16363 1.28529 1.38521 0.227158 0.312971 0.494626 0.494626 0.680215 0.770593 
1.01722 1.01722 1.01722 1.01722 2.12437 1.5708 1.36763 1.27109 1.2157 
2.64697 2.12437 1.77397 1.5708 1.44781 1.36763 2.82862 2.46138 2.12437 
1.8705 1.69378 1.5708 1.48273 2.91443 2.64697 2.371 2.12437 1.9259 
1.77397 1.65886 1.5708 1.75639 1.8563 1.87857 1.97796 1.99133 2.00248 
2.12437 2.12437 2.12437 2.12437 2.29565 2.27767 2.26308 2.25101 2.24087 
2.48639 2.44752 2.41597 2.38991 2.36803 2.34943 2.68474 2.62586 2.57738 
2.53694 2.50281 2.47368 2.44857 2.87583 2.80184 2.73933 2.68621 2.64076 
2.60157 2.56754 2.53778 5.86049 5.90139 5.97231 5.94739 6.02165 6.09275 
5.99927 6.07676 6.15015 6.21902 6.0579 6.13831 6.2135 0 0.0641696 
6.12418 6.20694 6.28319 0.069689 0.13304 0.190437 6.19903 0 0.0762451 
0.144876 0.206423 0.261531 0.310872 0 0.0841597 0.159004 0.225289 0.283913 
0.335793 0.381792 0.422692 5.86049 5.97231 5.90139 6.09275 6.02165 5.94739 
6.21902 6.15015 6.07676 5.99927 0.0641696 0 6.2135 6.13831 6.0579 
0.190437 0.13304 0.069689 6.28319 6.20694 6.12418 0.310872 0.261531 0.206423 
0.144876 0.0762451 6.28319 6.19903 0.422692 0.381792 0.335793 0.283913 0.225289 
0.159004 0.0841597 0 5.67937 5.70914 5.59016 5.74316 5.61528 5.49102 
5.78235 5.64441 5.50962 5.38246 5.8278 5.67854 5.5315 5.3926 5.26596 
5.88092 5.71897 5.55757 5.40467 5.26596 5.14407 5.94343 5.76745 5.58911 
5.41926 5.26596 5.13292 5.02016 6.01742 5.82633 5.62798 5.43724 5.26596 
5.11955 4.99789 4.89798 1.38521 1.28529 1.26302 1.16363 1.15026 1.13912 
1.01722 1.01722 1.01722 1.01722 0.845941 0.863926 0.878514 0.890581 0.900726 
0.655207 0.694072 0.725619 0.751687 0.773562 0.792164 0.456853 0.515737 0.564217 
0.604649 0.638778 0.667908 0.693022 0.265762 0.339753 0.402264 0.455383 0.500837 
0.540021 0.57405 0.603812 
