# vtk DataFile Version 4.0
vtk output
ASCII
DATASET POLYDATA
POINTS 1002 float
-82.6378 -94.0987 64.7241 -75.6375 -107.517 69.8954 -73.0471 -89.8502 65.3812 
-69.1346 -106.072 69.1024 -77.8376 -98.7899 75.6102 -72.6842 -95.977 75.565 
-76.6771 -100.984 61.3443 -70.6684 -100.044 61.2868 -71.5909 -112.83 76.7793 
-79.0752 -86.5902 68.2771 -69.7383 -114.85 64.0603 -80.8389 -88.133 57.7471 
-81.6757 -94.8002 65.0102 -80.8592 -95.7437 65.6736 -80.1298 -96.9273 66.5381 
-79.3723 -98.393 67.3822 -78.5979 -100.043 68.1871 -77.7168 -101.526 68.8985 
-76.7962 -102.83 69.3698 -76.167 -104.287 69.6275 -75.8571 -105.931 69.7879 
-82.1712 -94.3417 65.6792 -81.8055 -94.8163 66.8961 -81.6014 -95.4694 68.2534 
-81.6294 -96.1591 69.8647 -81.6281 -96.5501 71.5598 -81.0841 -96.5675 72.6514 
-80.0295 -96.7172 73.2175 -79.0447 -97.3305 73.9959 -78.3865 -98.1338 74.9563 
-82.5621 -94.4888 64.1112 -82.5655 -95.2212 63.6941 -82.5162 -96.1111 63.3033 
-82.1247 -96.8672 62.7973 -81.4579 -97.6567 62.2038 -80.7995 -98.5711 61.6717 
-79.9157 -99.1955 61.4207 -78.6432 -99.5584 61.4206 -77.4598 -100.134 61.4146 
-83.3024 -93.5369 65.2271 -83.8304 -92.7549 65.8443 -83.929 -91.6416 66.2375 
-83.3636 -90.4672 66.2972 -82.4102 -89.5412 66.3577 -81.6863 -88.7172 66.7178 
-81.2131 -87.8603 67.2407 -80.5675 -87.2082 67.6544 -79.7612 -86.8523 67.9433 
-83.6269 -93.7205 64.2492 -84.4431 -93.3021 63.7196 -84.7726 -92.5657 62.8017 
-84.742 -91.5981 61.6045 -84.3998 -90.8162 60.6136 -83.6147 -90.2975 59.9628 
-82.7738 -89.7498 59.3685 -82.2215 -89.0755 58.6874 -81.6593 -88.4689 58.0796 
-75.8607 -106.871 70.5733 -76.0973 -106.1 71.2719 -76.4598 -105.426 72.0335 
-77.0688 -104.972 72.8566 -77.702 -104.45 73.7113 -78.0318 -103.536 74.5456 
-78.1223 -102.316 75.2197 -78.1257 -101.062 75.5894 -78.0172 -99.8959 75.6684 
-75.5141 -107.07 69.1243 -75.3696 -106.505 68.3218 -75.3125 -105.901 67.502 
-75.3295 -105.284 66.5887 -75.3104 -104.587 65.6774 -75.2757 -103.76 64.9165 
-75.4042 -102.924 64.0888 -75.778 -102.233 63.0477 -76.2595 -101.628 62.0661 
-75.4875 -108.654 70.4373 -75.2674 -109.717 71.0937 -75.0663 -110.62 71.9271 
-74.685 -111.26 72.8572 -73.9066 -111.619 73.6316 -73.1498 -111.895 74.2736 
-72.8348 -112.345 75.1212 -72.632 -112.89 76.0904 -72.1753 -113.134 76.6983 
-75.3765 -108.805 69.4575 -75.1092 -110.081 68.8721 -74.6444 -111.2 68.2842 
-73.8616 -112.066 67.8708 -73.085 -112.928 67.411 -72.5397 -113.902 66.6259 
-71.9647 -114.523 65.8126 -71.2436 -114.637 65.2369 -70.4929 -114.682 64.6902 
-72.5033 -90.9347 65.8153 -72.0013 -92.3381 66.3525 -71.3451 -93.7739 66.9313 
-70.58 -95.0882 67.4798 -70.0298 -96.7059 67.9395 -69.7857 -98.8708 68.26 
-69.6885 -101.104 68.5008 -69.5856 -103.02 68.7644 -69.3797 -104.653 68.9987 
-72.9317 -90.0409 66.2482 -72.8401 -90.3633 67.3351 -72.6916 -90.7579 68.4753 
-72.6076 -91.3058 69.5093 -72.681 -92.093 70.5151 -72.7031 -92.9436 71.6488 
-72.5527 -93.661 72.8927 -72.4362 -94.342 74.0432 -72.5086 -95.1351 74.9222 
-72.8727 -90.4107 64.8714 -72.7799 -91.187 64.3009 -72.6544 -92.0603 63.6434 
-72.3373 -92.9276 63.0098 -71.9255 -93.8975 62.4639 -71.6069 -95.0381 62.042 
-71.3369 -96.2507 61.8055 -71.0521 -97.4914 61.6553 -70.8211 -98.7674 61.467 
-73.6019 -89.0175 65.5219 -74.2018 -88.1164 65.7899 -74.7885 -87.1309 66.1158 
-75.3462 -86.2484 66.4304 -75.8756 -85.4935 66.9289 -76.5501 -84.8166 67.7146 
-77.4535 -84.5833 68.3259 -78.2588 -85.0482 68.4127 -78.7436 -85.8584 68.2712 
-73.6674 -89.3056 64.693 -74.5251 -88.8783 63.9852 -75.3965 -88.4279 63.1564 
-76.2166 -87.9407 62.1895 -77.1431 -87.5964 61.2304 -78.0205 -87.408 60.3115 
-78.6364 -87.2204 59.3156 -79.2458 -87.1462 58.3943 -80.0435 -87.4506 57.8627 
-69.3444 -105.387 69.8579 -69.6395 -104.517 70.652 -69.784 -103.338 71.5577 
-69.8284 -102.015 72.429 -70.1832 -100.794 73.1084 -70.7602 -99.7144 73.7126 
-71.2571 -98.7914 74.2746 -71.7972 -97.9598 74.7219 -72.3543 -97.0274 75.1338 
-69.0877 -105.841 68.3009 -68.892 -105.466 67.4631 -68.5287 -104.96 66.6292 
-68.3085 -104.417 65.7867 -68.5749 -103.958 64.8871 -69.104 -103.526 64.0474 
-69.4822 -102.874 63.3308 -69.7555 -101.94 62.5918 -70.1375 -100.937 61.8485 
-69.0113 -106.968 69.6778 -68.9411 -107.851 70.4793 -68.9753 -108.809 71.438 
-69.0984 -109.822 72.2865 -69.3369 -110.775 73.075 -69.6259 -111.596 74.0521 
-69.8266 -112.218 75.0297 -70.1386 -112.639 75.76 -70.7937 -112.874 76.3261 
-68.986 -107.384 68.5483 -68.8762 -108.846 67.9345 -68.483 -110.261 67.635 
-67.8001 -111.495 67.6401 -67.3385 -112.694 67.3174 -67.3045 -113.956 66.3448 
-67.5216 -115.005 65.207 -68.0379 -115.475 64.4475 -68.8619 -115.328 64.1377 
-77.3135 -98.3652 75.7838 -76.7272 -97.7886 75.9984 -76.2055 -97.2041 76.484 
-75.7876 -96.7126 77.1935 -75.2605 -96.2081 77.7848 -74.4346 -95.7236 77.9615 
-73.5887 -95.5214 77.6434 -73.094 -95.6215 76.9775 -72.879 -95.8114 76.231 
-77.2858 -99.9921 76.025 -76.5683 -101.207 76.4649 -75.9247 -102.664 77.1145 
-75.5225 -104.461 77.7539 -74.9717 -106.255 78.129 -74.0057 -107.722 78.2835 
-73.0923 -109.031 78.1599 -72.5696 -110.412 77.744 -72.1615 -111.752 77.2505 
-78.0922 -97.242 75.2219 -78.5277 -95.5906 74.713 -79.0006 -94.0819 74.0549 
-79.1989 -92.8087 73.2649 -79.0988 -91.6922 72.319 -78.9971 -90.6168 71.2986 
-79.0064 -89.4832 70.4205 -79.0275 -88.3593 69.6746 -79.0391 -87.3964 68.9393 
-72.6687 -97.4388 75.8971 -72.4593 -98.8008 76.3268 -72.162 -100.223 76.755 
-71.9841 -102.081 76.9425 -71.9048 -104.232 76.9416 -71.7853 -106.133 76.9286 
-71.6377 -107.816 76.8707 -71.5288 -109.634 76.817 -71.5011 -111.438 76.8402 
-72.7221 -94.3364 75.567 -72.9059 -92.7706 75.3147 -73.5463 -91.4529 74.7925 
-74.4878 -90.1856 74.1904 -75.3973 -88.9548 73.4975 -76.2936 -88.0644 72.5279 
-77.176 -87.5091 71.3454 -77.8871 -87.101 70.1659 -78.4754 -86.8043 69.1271 
-76.4508 -101.074 60.9715 -75.9651 -101.051 60.7089 -75.1605 -100.997 60.5644 
-74.317 -101.009 60.5219 -73.634 -101.027 60.5623 -72.9033 -100.944 60.6473 
-72.0683 -100.77 60.7254 -71.3993 -100.552 60.809 -70.9774 -100.308 60.9817 
-75.8194 -102.438 61.7008 -74.845 -104.054 62.104 -73.8573 -105.825 62.2587 
-73.2947 -107.91 61.9722 -73.0315 -109.987 61.7098 -72.4059 -111.471 61.8872 
-71.5138 -112.45 62.2793 -70.8385 -113.309 62.7442 -70.3071 -114.12 63.3649 
-77.4771 -99.7486 60.731 -78.3468 -98.5578 59.9514 -79.2054 -97.4377 59.0858 
-79.976 -96.308 58.408 -80.6187 -95.0519 57.868 -81.057 -93.6309 57.3301 
-81.2261 -92.1474 57.1066 -81.1905 -90.7126 57.3133 -81.0492 -89.3557 57.5904 
-70.2224 -101.999 61.4691 -69.7682 -104.115 61.6344 -69.1838 -106.035 61.46 
-68.706 -107.717 61.051 -68.678 -109.394 61.0839 -68.9006 -111.113 61.598 
-69.0036 -112.687 61.98 -69.0809 -113.856 62.3125 -69.3431 -114.518 63.0391 
-71.5263 -98.4683 60.9909 -72.6876 -96.9539 60.6361 -73.8735 -95.3992 59.9607 
-74.9217 -93.852 59.1108 -75.965 -92.6 58.4277 -77.0353 -91.6765 57.9423 
-78.0215 -90.7674 57.6422 -78.98 -89.7471 57.5498 -79.9637 -88.806 57.5859 
-71.2573 -114.011 76.2309 -70.9536 -115.047 75.3291 -70.7862 -116.015 74.2094 
-70.6857 -116.796 72.9475 -70.4413 -117.1 71.2406 -70.0812 -116.937 69.1803 
-69.8239 -116.552 67.4544 -69.7063 -116.048 66.2407 -69.6777 -115.454 65.1585 
-79.5132 -85.9865 67.4168 -79.995 -85.3289 66.5058 -80.5279 -84.724 65.4664 
-81.0793 -84.4538 64.1001 -81.5105 -84.5874 62.4348 -81.6698 -84.9272 60.8484 
-81.5682 -85.4443 59.5756 -81.3603 -86.2047 58.635 -81.1272 -87.134 58.0535 
-81.3895 -95.2394 66.2 -81.2319 -95.8941 67.609 -80.6764 -96.2667 67.0218 
-81.1253 -96.5904 69.0707 -80.4449 -96.8893 68.3948 -79.8269 -97.4746 67.855 
-80.9938 -97.1337 70.644 -80.1519 -97.4867 69.7547 -79.4674 -98.1262 69.0957 
-79.0058 -99.0901 68.6076 -80.5452 -97.4126 72.0107 -79.7757 -98.0196 71.1768 
-79.2046 -98.8563 70.405 -78.7909 -99.965 69.814 -78.2951 -100.876 69.3531 
-79.7104 -97.7249 72.8884 -79.2016 -98.6384 72.3889 -78.9065 -99.6831 71.7581 
-78.6961 -100.927 71.0777 -78.1666 -101.853 70.4858 -77.4392 -102.355 69.9529 
-78.9399 -98.4044 73.7779 -78.6865 -99.5281 73.4595 -78.5578 -100.707 72.9832 
-78.4893 -101.931 72.2996 -78.0422 -102.841 71.5619 -77.2928 -103.294 70.9181 
-76.6422 -103.702 70.2903 -78.462 -99.2441 74.8611 -78.4262 -100.45 74.6292 
-78.3646 -101.716 74.1767 -78.2807 -102.907 73.4694 -77.8764 -103.756 72.6283 
-77.169 -104.201 71.8432 -76.5663 -104.618 71.1441 -76.175 -105.246 70.4635 
-82.7291 -93.6879 66.2139 -83.1346 -92.7325 66.7117 -82.119 -94.011 67.3002 
-83.0916 -91.5894 66.9598 -82.2479 -92.9211 67.5914 -81.7481 -94.6044 68.6461 
-82.4554 -90.5872 67.1615 -82.0429 -91.8665 67.8693 -81.6699 -93.4874 69.0058 
-81.802 -95.2548 70.5075 -81.6872 -89.7598 67.5907 -81.5328 -91.0496 68.3409 
-81.3695 -92.4931 69.3949 -81.6044 -94.0676 70.9517 -81.7726 -95.4931 72.1984 
-81.1921 -88.917 68.1065 -81.027 -90.289 68.8313 -80.8947 -91.7187 69.7023 
-81.0867 -93.0404 71.0484 -81.3583 -94.2814 72.3329 -81.0072 -95.4618 72.9625 
-80.6364 -88.164 68.4751 -80.5147 -89.4814 69.148 -80.3165 -90.9404 69.8498 
-80.3657 -92.2154 70.9374 -80.5944 -93.3216 72.1334 -80.451 -94.4461 72.9555 
-79.7842 -95.7715 73.4764 -79.8153 -87.6897 68.703 -79.7891 -88.8089 69.3981 
-79.6557 -90.1354 70.0625 -79.6211 -91.3816 70.9904 -79.7894 -92.4867 72.0917 
-79.7936 -93.6118 73.0092 -79.3625 -94.9249 73.7254 -78.781 -96.4892 74.3693 
-78.4241 -87.7534 69.8399 -77.8924 -88.1233 70.9847 -78.4403 -88.7987 70.6891 
-77.2206 -88.4844 72.2723 -77.9269 -89.1906 71.9262 -78.4687 -89.9012 71.6102 
-76.3599 -89.0447 73.4962 -77.1671 -89.6323 73.1712 -77.8317 -90.3977 72.8193 
-78.4688 -91.0322 72.582 -75.467 -90.0753 74.4747 -76.2523 -90.4029 74.3302 
-76.8558 -91.1486 73.8844 -77.6372 -91.7621 73.6421 -78.5077 -92.2111 73.5394 
-74.4573 -91.3668 75.233 -75.3675 -91.5274 75.3712 -75.9311 -92.1315 75.0146 
-76.5697 -92.7708 74.6026 -77.5751 -93.094 74.5204 -78.4696 -93.4782 74.4193 
-73.4818 -92.6722 75.8484 -74.3703 -92.7424 76.2258 -75.1705 -93.1508 76.1928 
-75.7709 -93.7722 75.7967 -76.566 -94.1589 75.4771 -77.5014 -94.4363 75.3421 
[...]
POINT_DATA 1002
FIELD FieldData 2
Theta 1 1002 float
2.58802 2.58802 0.553574 0.553574 2.12437 1.01722 2.12437 1.01722 1.5708 
1.5708 1.5708 1.5708 2.68241 2.78649 2.89924 3.01861 3.14159 3.01861 
2.89924 2.78649 2.68241 2.61035 2.61791 2.60515 2.56958 2.51327 2.44184 
2.36202 2.27983 2.1997 2.61035 2.61791 2.60515 2.56958 2.51327 2.44184 
2.36202 2.27983 2.1997 2.50947 2.41899 2.31794 2.20864 2.0944 1.97902 
1.86631 1.75944 1.66056 2.50947 2.41899 2.31794 2.20864 2.0944 1.97902 
1.86631 1.75944 1.66056 2.61035 2.61791 2.60515 2.56958 2.51327 2.44184 
2.36202 2.27983 2.1997 2.61035 2.61791 2.60515 2.56958 2.51327 2.44184 
2.36202 2.27983 2.1997 2.50947 2.41899 2.31794 2.20864 2.0944 1.97902 
1.86631 1.75944 1.66056 2.50947 2.41899 2.31794 2.20864 2.0944 1.97902 
1.86631 1.75944 1.66056 0.459179 0.355101 0.242354 0.122983 0 0.122983 
0.242354 0.355101 0.459179 0.531246 0.523681 0.536438 0.57201 0.628319 0.699757 
0.779574 0.86176 0.941896 0.531246 0.523681 0.536438 0.57201 0.628319 0.699757 
0.779574 0.86176 0.941896 0.632123 0.7226 0.823657 0.932948 1.0472 1.16257 
1.27528 1.38216 1.48103 0.632123 0.7226 0.823657 0.932948 1.0472 1.16257 
1.27528 1.38216 1.48103 0.531246 0.523681 0.536438 0.57201 0.628319 0.699757 
0.779574 0.86176 0.941896 0.531246 0.523681 0.536438 0.57201 0.628319 0.699757 
0.779574 0.86176 0.941896 0.632123 0.7226 0.823657 0.932948 1.0472 1.16257 
1.27528 1.38216 1.48103 0.632123 0.7226 0.823657 0.932948 1.0472 1.16257 
1.27528 1.38216 1.48103 2.02998 1.9259 1.81315 1.69378 1.5708 1.44781 
1.32844 1.2157 1.11162 2.0928 2.05283 2.00422 1.94767 1.88496 1.81867 
1.75177 1.68695 1.62623 2.0928 2.05283 2.00422 1.94767 1.88496 1.81867 
1.75177 1.68695 1.62623 1.0488 1.08876 1.13737 1.19392 1.25664 1.32292 
1.38982 1.45464 1.51537 1.0488 1.08876 1.13737 1.19392 1.25664 1.32292 
1.38982 1.45464 1.51537 2.02998 1.9259 1.81315 1.69378 1.5708 1.44781 
1.32844 1.2157 1.11162 2.0928 2.05283 2.00422 1.94767 1.88496 1.81867 
1.75177 1.68695 1.62623 2.0928 2.05283 2.00422 1.94767 1.88496 1.81867 
1.75177 1.68695 1.62623 1.0488 1.08876 1.13737 1.19392 1.25664 1.32292 
1.38982 1.45464 1.51537 1.0488 1.08876 1.13737 1.19392 1.25664 1.32292 
1.38982 1.45464 1.51537 1.5708 1.5708 1.5708 1.5708 1.5708 1.5708 
1.5708 1.5708 1.5708 1.5708 1.5708 1.5708 1.5708 1.5708 1.5708 
1.5708 1.5708 1.5708 2.70908 2.71362 2.81592 2.68886 2.81002 2.92597 
2.6349 2.76254 2.89233 3.01997 2.55881 2.68262 2.80854 2.92834 3.01997 
2.47007 2.58462 2.70048 2.80854 2.89233 2.92597 2.37702 2.48017 2.58462 
2.68262 2.76254 2.81002 2.81592 2.28567 2.37702 2.47007 2.55881 2.6349 
2.68886 2.71362 2.70908 2.52097 2.4195 2.51718 2.30791 2.40503 2.49426 
2.18928 2.28408 2.3734 2.45144 2.06758 2.15805 2.24572 2.32523 2.39165 
1.94707 2.03138 2.11543 2.19453 2.26401 2.32035 1.83164 1.90847 1.98711 
2.06376 2.13422 2.1949 2.24359 1.72413 1.79288 1.86489 1.93728 2.00658 
2.06938 2.12312 2.16654 1.5708 1.50988 1.63171 1.44492 1.5708 1.69667 
1.37826 1.5059 1.63569 1.76333 1.31281 1.43962 1.5708 1.70197 1.82878 
1.25155 1.37501 1.50478 1.63681 1.76659 1.89004 1.19686 1.31493 1.44074 
1.5708 1.70086 1.82666 1.94473 1.15011 1.26149 1.38136 1.50697 1.63462 
1.76024 1.88011 1.99148 1.99148 1.88011 1.94473 1.76024 1.82666 1.89004 
1.63462 1.70086 1.76659 1.82878 1.50697 1.5708 1.63681 1.70197 1.76333 
1.38136 1.44074 1.50478 1.5708 1.63569 1.69667 1.26149 1.31493 1.37501 
1.43962 1.5059 1.5708 1.63171 1.15011 1.19686 1.25155 1.31281 1.37826 
1.44492 1.50988 1.5708 2.16654 2.12312 2.24359 2.06938 2.1949 2.32035 
2.00658 2.13422 2.26401 2.39165 1.93728 2.06376 2.19453 2.32523 2.45144 
1.86489 1.98711 2.11543 2.24572 2.3734 2.49426 1.79288 1.90847 2.03138 
2.15805 2.28408 2.40503 2.51718 1.72413 1.83164 1.94707 2.06758 2.18928 
2.30791 2.4195 2.52097 1.66533 1.66946 1.76911 1.67254 1.777 1.88041 
1.67418 1.78222 1.89102 1.99634 1.67418 1.78405 1.89674 2.00785 2.11299 
1.67254 1.78222 1.89674 2.01191 2.12307 2.22608 1.66946 1.777 1.89102 
2.00785 2.12307 2.23222 2.33166 1.66533 1.76911 1.88041 1.99634 2.11299 
2.22608 2.33166 2.42672 1.47626 1.37249 1.47213 1.26118 1.36459 1.46906 
1.14526 1.25058 1.35938 1.46741 1.0286 1.13374 1.24485 1.35755 1.46741 
0.915514 1.01852 1.12969 1.24485 1.35938 1.46906 0.809937 0.909371 1.01852 
1.13374 1.25058 1.36459 1.47213 0.714871 0.809937 0.915514 1.0286 1.14526 
1.26118 1.37249 1.47626 0.975055 0.898002 1.01847 0.821245 0.946693 1.07221 
0.749941 0.877585 1.00737 1.13501 0.690152 0.816367 0.94706 1.07784 1.20431 
0.647337 0.768195 0.895868 1.02616 1.15448 1.2767 0.624416 0.736561 0.857515 
0.983547 1.11021 1.23313 1.34871 0.620619 0.722093 0.833684 0.952313 1.07402 
1.19452 1.30996 1.41746 0.855925 0.764569 0.764569 0.671524 0.661425 0.671524 
0.582786 0.556971 0.556971 0.582786 0.506696 0.458968 0.441109 0.458968 0.506696 
0.45273 0.379052 0.333054 0.333054 0.379052 0.45273 0.427969 0.331576 0.249267 
0.21325 0.249267 0.331576 0.427969 0.432512 0.325669 0.215619 0.121622 0.121622 
0.215619 0.325669 0.432512 0.432512 0.427969 0.325669 0.45273 0.331576 0.215619 
0.506696 0.379052 0.249267 0.121622 0.582786 0.458968 0.333054 0.21325 0.121622 
0.671524 0.556971 0.441109 0.333054 0.249267 0.215619 0.764569 0.661425 0.556971 
0.458968 0.379052 0.331576 0.325669 0.855925 0.764569 0.671524 0.582786 0.506696 
0.45273 0.427969 0.432512 0.975055 1.01847 0.898002 1.07221 0.946693 0.821245 
1.13501 1.00737 0.877585 0.749941 1.20431 1.07784 0.94706 0.816367 0.690152 
1.2767 1.15448 1.02616 0.895868 0.768195 0.647337 1.34871 1.23313 1.11021 
0.983547 0.857515 0.736561 0.624416 1.41746 1.30996 1.19452 1.07402 0.952313 
0.833684 0.722093 0.620619 1.15011 1.26149 1.19686 1.38136 1.31493 1.25155 
1.50697 1.44074 1.37501 1.31281 1.63462 1.5708 1.50478 1.43962 1.37826 
1.76024 1.70086 1.63681 1.5708 1.5059 1.44492 1.88011 1.82666 1.76659 
1.70197 1.63569 1.5708 1.50988 1.99148 1.94473 1.89004 1.82878 1.76333 
1.69667 1.63171 1.5708 1.15011 1.19686 1.26149 1.25155 1.31493 1.38136 
1.31281 1.37501 1.44074 1.50697 1.37826 1.43962 1.50478 1.5708 1.63462 
1.44492 1.5059 1.5708 1.63681 1.70086 1.76024 1.50988 1.5708 1.63569 
1.70197 1.76659 1.82666 1.88011 1.5708 1.63171 1.69667 1.76333 1.82878 
1.89004 1.94473 1.99148 1.72413 1.83164 1.79288 1.94707 1.90847 1.86489 
2.06758 2.03138 1.98711 1.93728 2.18928 2.15805 2.11543 2.06376 2.00658 
2.30791 2.28408 2.24572 2.19453 2.13422 2.06938 2.4195 2.40503 2.3734 
2.32523 2.26401 2.1949 2.12312 2.52097 2.51718 2.49426 2.45144 2.39165 
2.32035 2.24359 2.16654 2.70908 2.81592 2.71362 2.92597 2.81002 2.68886 
3.01997 2.89233 2.76254 2.6349 3.01997 2.92834 2.80854 2.68262 2.55881 
2.92597 2.89233 2.80854 2.70048 2.58462 2.47007 2.81592 2.81002 2.76254 
2.68262 2.58462 2.48017 2.37702 2.70908 2.71362 2.68886 2.6349 2.55881 
2.47007 2.37702 2.28567 2.16654 2.24359 2.12312 2.32035 2.1949 2.06938 
2.39165 2.26401 2.13422 2.00658 2.45144 2.32523 2.19453 2.06376 1.93728 
2.49426 2.3734 2.24572 2.11543 1.98711 1.86489 2.51718 2.40503 2.28408 
2.15805 2.03138 1.90847 1.79288 2.52097 2.4195 2.30791 2.18928 2.06758 
1.94707 1.83164 1.72413 1.66533 1.76911 1.66946 1.88041 1.777 1.67254 
1.99634 1.89102 1.78222 1.67418 2.11299 2.00785 1.89674 1.78405 1.67418 
2.22608 2.12307 2.01191 1.89674 1.78222 1.67254 2.33166 2.23222 2.12307 
2.00785 1.89102 1.777 1.66946 2.42672 2.33166 2.22608 2.11299 1.99634 
1.88041 1.76911 1.66533 1.47626 1.47213 1.37249 1.46906 1.36459 1.26118 
1.46741 1.35938 1.25058 1.14526 1.46741 1.35755 1.24485 1.13374 1.0286 
1.46906 1.35938 1.24485 1.12969 1.01852 0.915514 1.47213 1.36459 1.25058 
1.13374 1.01852 0.909371 0.809937 1.47626 1.37249 1.26118 1.14526 1.0286 
0.915514 0.809937 0.714871 1.41746 1.30996 1.34871 1.19452 1.23313 1.2767 
1.07402 1.11021 1.15448 1.20431 0.952313 0.983547 1.02616 1.07784 1.13501 
0.833684 0.857515 0.895868 0.94706 1.00737 1.07221 0.722093 0.736561 0.768195 
0.816367 0.877585 0.946693 1.01847 0.620619 0.624416 0.647337 0.690152 0.749941 
0.821245 0.898002 0.975055 0.975055 0.898002 1.01847 0.821245 0.946693 1.07221 
0.749941 0.877585 1.00737 1.13501 0.690152 0.816367 0.94706 1.07784 1.20431 
0.647337 0.768195 0.895868 1.02616 1.15448 1.2767 0.624416 0.736561 0.857515 
0.983547 1.11021 1.23313 1.34871 0.620619 0.722093 0.833684 0.952313 1.07402 
1.19452 1.30996 1.41746 
Phi 1 1002 float
6.28319 3.14159 6.28319 3.14159 4.71239 4.71239 1.5708 1.5708 3.69517 
5.72961 2.58802 0.553574 6.28319 6.28319 6.28319 6.28319 3.14159 3.14159 
3.14159 3.14159 3.14159 6.1053 5.8988 5.67687 5.45995 5.26596 5.10322 
4.97131 4.86569 4.78095 0.177881 0.384387 0.606312 0.823235 1.01722 1.17997 
1.31187 1.4175 1.50223 6.18928 6.10703 6.03531 5.97283 5.91832 5.87061 
5.82869 5.79168 5.75886 0.0939024 0.176153 0.247873 0.310351 0.364864 0.412573 
0.454497 0.491504 0.524326 3.31947 3.52598 3.7479 3.96483 4.15881 4.32156 
4.45346 4.55909 4.64383 2.96371 2.75721 2.53528 2.31836 2.12437 1.96162 
1.82972 1.72409 1.63936 3.2355 3.31775 3.38947 3.45194 3.50646 3.55417 
3.59609 3.6331 3.66592 3.04769 2.96544 2.89372 2.83124 2.77673 2.72902 
2.6871 2.65009 2.61727 6.28319 6.28319 6.28319 6.28319 3.14159 3.14159 
3.14159 3.14159 3.14159 6.1053 5.8988 5.67687 5.45995 5.26596 5.10322 
4.97131 4.86569 4.78095 0.177881 0.384387 0.606312 0.823235 1.01722 1.17997 
1.31187 1.4175 1.50223 6.18928 6.10703 6.03531 5.97283 5.91832 5.87061 
5.82869 5.79168 5.75886 0.0939024 0.176153 0.247873 0.310351 0.364864 0.412573 
0.454497 0.491504 0.524326 3.31947 3.52598 3.7479 3.96483 4.15881 4.32156 
4.45346 4.55909 4.64383 2.96371 2.75721 2.53528 2.31836 2.12437 1.96162 
1.82972 1.72409 1.63936 3.2355 3.31775 3.38947 3.45194 3.50646 3.55417 
3.59609 3.6331 3.66592 3.04769 2.96544 2.89372 2.83124 2.77673 2.72902 
2.6871 2.65009 2.61727 4.71239 4.71239 4.71239 4.71239 4.71239 4.71239 
4.71239 4.71239 4.71239 4.60879 4.49914 4.3857 4.27128 4.15881 4.05096 
3.94976 3.85646 3.77161 4.81599 4.92564 5.03907 5.1535 5.26596 5.37381 
5.47502 5.56831 5.65317 4.60879 4.49914 4.3857 4.27128 4.15881 4.05096 
3.94976 3.85646 3.77161 4.81599 4.92564 5.03907 5.1535 5.26596 5.37381 
5.47502 5.56831 5.65317 1.5708 1.5708 1.5708 1.5708 1.5708 1.5708 
1.5708 1.5708 1.5708 1.6744 1.78405 1.89748 2.01191 2.12437 2.23222 
2.33343 2.42672 2.51157 1.4672 1.35755 1.24411 1.12969 1.01722 0.909371 
0.808166 0.714871 0.63002 1.6744 1.78405 1.89748 2.01191 2.12437 2.23222 
2.33343 2.42672 2.51157 1.4672 1.35755 1.24411 1.12969 1.01722 0.909371 
0.808166 0.714871 0.63002 3.60077 3.49669 3.38395 3.26458 3.14159 3.01861 
2.89924 2.78649 2.68241 5.82401 5.92808 6.04083 6.1602 6.28319 0.122983 
0.242354 0.355101 0.459179 6.05603 5.78856 5.97021 5.51259 5.60297 5.78856 
5.26596 5.26596 5.26596 5.26596 5.06749 5.0121 4.91556 4.71239 4.15881 
4.91556 4.83537 4.71239 4.50922 4.15881 3.63622 4.80045 4.71239 4.58941 
4.41268 4.15881 3.82181 3.45456 4.71239 4.62433 4.50922 4.35729 4.15881 
3.91219 3.63622 3.36875 6.01742 5.94343 5.82633 5.88092 5.76745 5.62798 
5.8278 5.71897 5.58911 5.43724 5.78235 5.67854 5.55757 5.41926 5.26596 
5.74316 5.64441 5.5315 5.40467 5.26596 5.11955 5.70914 5.61528 5.50962 
5.3926 5.26596 5.13292 4.99789 5.67937 5.59016 5.49102 5.38246 5.26596 
5.14407 5.02016 4.89798 5.56831 5.47502 5.47502 5.37381 5.37381 5.37381 
5.26596 5.26596 5.26596 5.26596 5.1535 5.1535 5.1535 5.1535 5.1535 
5.03907 5.03907 5.03907 5.03907 5.03907 5.03907 4.92564 4.92564 4.92564 
4.92564 4.92564 4.92564 4.92564 4.81599 4.81599 4.81599 4.81599 4.81599 
4.81599 4.81599 4.81599 4.60879 4.60879 4.49914 4.60879 4.49914 4.3857 
4.60879 4.49914 4.3857 4.27128 4.60879 4.49914 4.3857 4.27128 4.15881 
4.60879 4.49914 4.3857 4.27128 4.15881 4.05096 4.60879 4.49914 4.3857 
4.27128 4.15881 4.05096 3.94976 4.60879 4.49914 4.3857 4.27128 4.15881 
4.05096 3.94976 3.85646 4.5268 4.40462 4.42689 4.28071 4.29185 4.30523 
4.15881 4.15881 4.15881 4.15881 4.04232 4.03217 4.02011 4.00552 3.98753 
3.93376 3.91515 3.89328 3.86721 3.83566 3.7968 3.83461 3.8095 3.78037 
3.74624 3.70581 3.65733 3.59845 3.7454 3.71564 3.68161 3.64243 3.59698 
3.54386 3.48135 3.40735 3.56428 3.45246 3.52338 3.33203 3.40312 3.47739 
3.20576 3.27463 3.34802 3.42551 3.07742 3.14159 3.21128 3.28647 3.36688 
2.95116 3.00855 3.0719 3.14159 3.21784 3.3006 2.83072 2.88006 2.93517 
2.99672 3.06535 3.14159 3.22575 2.7189 2.7598 2.8058 2.85768 2.9163 
2.98259 3.05743 3.14159 3.56428 3.52338 3.45246 3.47739 3.40312 3.33203 
3.42551 3.34802 3.27463 3.20576 3.36688 3.28647 3.21128 3.14159 3.07742 
3.3006 3.21784 3.14159 3.0719 3.00855 2.95116 3.22575 3.14159 3.06535 
2.99672 2.93517 2.88006 2.83072 3.14159 3.05743 2.98259 2.9163 2.85768 
2.8058 2.7598 2.7189 4.5268 4.42689 4.40462 4.30523 4.29185 4.28071 
4.15881 4.15881 4.15881 4.15881 3.98753 4.00552 4.02011 4.03217 4.04232 
3.7968 3.83566 3.86721 3.89328 3.91515 3.93376 3.59845 3.65733 3.70581 
3.74624 3.78037 3.8095 3.83461 3.40735 3.48135 3.54386 3.59698 3.64243 
3.68161 3.71564 3.7454 4.71239 4.80045 4.62433 4.91556 4.71239 4.50922 
5.06749 4.83537 4.58941 4.35729 5.26596 5.0121 4.71239 4.41268 4.15881 
5.51259 5.26596 4.91556 4.50922 4.15881 3.91219 5.78856 5.60297 5.26596 
4.71239 4.15881 3.82181 3.63622 6.05603 5.97021 5.78856 5.26596 4.15881 
3.63622 3.45456 3.36875 0.227158 0.494626 0.312971 0.770593 0.680215 0.494626 
1.01722 1.01722 1.01722 1.01722 1.2157 1.27109 1.36763 1.5708 2.12437 
1.36763 1.44781 1.5708 1.77397 2.12437 2.64697 1.48273 1.5708 1.69378 
1.8705 2.12437 2.46138 2.82862 1.5708 1.65886 1.77397 1.9259 2.12437 
2.371 2.64697 2.91443 1.75639 1.87857 1.8563 2.00248 1.99133 1.97796 
2.12437 2.12437 2.12437 2.12437 2.24087 2.25101 2.26308 2.27767 2.29565 
2.34943 2.36803 2.38991 2.41597 2.44752 2.48639 2.44857 2.47368 2.50281 
2.53694 2.57738 2.62586 2.68474 2.53778 2.56754 2.60157 2.64076 2.68621 
2.73933 2.80184 2.87583 1.6744 1.6744 1.78405 1.6744 1.78405 1.89748 
1.6744 1.78405 1.89748 2.01191 1.6744 1.78405 1.89748 2.01191 2.12437 
1.6744 1.78405 1.89748 2.01191 2.12437 2.23222 1.6744 1.78405 1.89748 
2.01191 2.12437 2.23222 2.33343 1.6744 1.78405 1.89748 2.01191 2.12437 
2.23222 2.33343 2.42672 1.4672 1.35755 1.4672 1.24411 1.35755 1.4672 
1.12969 1.24411 1.35755 1.4672 1.01722 1.12969 1.24411 1.35755 1.4672 
0.909371 1.01722 1.12969 1.24411 1.35755 1.4672 0.808166 0.909371 1.01722 
1.12969 1.24411 1.35755 1.4672 0.714871 0.808166 0.909371 1.01722 1.12969 
1.24411 1.35755 1.4672 0.603812 0.57405 0.693022 0.540021 0.667908 0.792164 
0.500837 0.638778 0.773562 0.900726 0.455383 0.604649 0.751687 0.890581 1.01722 
0.402264 0.564217 0.725619 0.878514 1.01722 1.13912 0.339753 0.515737 0.694072 
0.863926 1.01722 1.15026 1.26302 0.265762 0.456853 0.655207 0.845941 1.01722 
1.16363 1.28529 1.38521 0.227158 0.312971 0.494626 0.494626 0.680215 0.770593 
1.01722 1.01722 1.01722 1.01722 2.12437 1.5708 1.36763 1.27109 1.2157 
2.64697 2.12437 1.77397 1.5708 1.44781 1.36763 2.82862 2.46138 2.12437 
1.8705 1.69378 1.5708 1.48273 2.91443 2.64697 2.371 2.12437 1.9259 
1.77397 1.65886 1.5708 1.75639 1.8563 1.87857 1.97796 1.99133 2.00248 
2.12437 2.12437 2.12437 2.12437 2.29565 2.27767 2.26308 2.25101 2.24087 
2.48639 2.44752 2.41597 2.38991 2.36803 2.34943 2.68474 2.62586 2.57738 
2.53694 2.50281 2.47368 2.44857 2.87583 2.80184 2.73933 2.68621 2.64076 
2.60157 2.56754 2.53778 5.86049 5.90139 5.97231 5.94739 6.02165 6.09275 
5.99927 6.07676 6.15015 6.21902 6.0579 6.13831 6.2135 0 0.0641696 
6.12418 6.20694 6.28319 0.069689 0.13304 0.190437 6.19903 0 0.0762451 
0.144876 0.206423 0.261531 0.310872 0 0.0841597 0.159004 0.225289 0.283913 
0.335793 0.381792 0.422692 5.86049 5.97231 5.90139 6.09275 6.02165 5.94739 
6.21902 6.15015 6.07676 5.99927 0.0641696 0 6.2135 6.13831 6.0579 
0.190437 0.13304 0.069689 6.28319 6.20694 6.12418 0.310872 0.261531 0.206423 
0.144876 0.0762451 6.28319 6.19903 0.422692 0.381792 0.335793 0.283913 0.225289 
0.159004 0.0841597 0 5.67937 5.70914 5.59016 5.74316 5.61528 5.49102 
5.78235 5.64441 5.50962 5.38246 5.8278 5.67854 5.5315 5.3926 5.26596 
5.88092 5.71897 5.55757 5.40467 5.26596 5.14407 5.94343 5.76745 5.58911 
5.41926 5.26596 5.13292 5.02016 6.01742 5.82633 5.62798 5.43724 5.26596 
5.11955 4.99789 4.89798 1.38521 1.28529 1.26302 1.16363 1.15026 1.13912 
1.01722 1.01722 1.01722 1.01722 0.845941 0.863926 0.878514 0.890581 0.900726 
0.655207 0.694072 0.725619 0.751687 0.773562 0.792164 0.456853 0.515737 0.564217 
0.604649 0.638778 0.667908 0.693022 0.265762 0.339753 0.402264 0.455383 0.500837 
0.540021 0.57405 0.603812 
