# vtk DataFile Version 4.0
vtk output
ASCII
DATASET POLYDATA
POINTS 1002 float
-83.6463 -90.9981 70.8512 -76.7948 -103.445 75.1105 -73.091 -86.6291 71.528 
-70.6795 -102.776 75.0545 -79.806 -95.1471 81.5563 -73.5437 -93.0959 81.3597 
-77.3267 -97.11 66.9939 -71.8806 -97.5281 67.0382 -73.6977 -109.74 82.0781 
-78.985 -83.7127 74.0679 -72.1504 -111.447 69.2939 -80.5188 -84.6809 64.2069 
-82.8712 -91.8609 70.9129 -81.8928 -92.6978 71.33 -80.6722 -93.4629 72.2022 
-79.4782 -94.34 73.1179 -78.7881 -95.7321 73.7719 -78.4653 -97.6386 74.2897 
-78.0115 -99.4164 74.6843 -77.4583 -100.75 74.8742 -77.0536 -102.007 74.9787 
-83.0616 -91.1297 71.49 -82.3716 -91.3174 72.3127 -81.7958 -91.6247 73.6137 
-81.4557 -92.1642 75.1962 -81.3008 -92.8688 76.5919 -81.2841 -93.5754 77.9007 
-81.2753 -94.1855 79.3284 -81.0604 -94.6062 80.5235 -80.5547 -94.8673 81.2115 
-83.6293 -91.4874 70.1393 -83.5001 -92.1427 69.3763 -83.2849 -92.8552 68.7201 
-82.7959 -93.3597 68.1954 -81.9785 -93.7282 67.6847 -81.1043 -94.28 67.1804 
-80.2398 -94.9532 66.8497 -79.2472 -95.5834 66.7854 -78.2142 -96.2788 66.8857 
-83.9222 -90.1534 71.2127 -83.8721 -89.2057 71.3796 -83.3856 -88.2104 71.3177 
-82.6195 -87.329 71.3037 -81.8946 -86.5821 71.6073 -81.3586 -85.7683 72.1831 
-80.8781 -84.9424 72.7877 -80.2746 -84.3574 73.2424 -79.5885 -84.0018 73.61 
-84.3225 -90.3972 70.3149 -84.7293 -89.7153 69.4112 -84.723 -88.9208 68.2956 
-84.5183 -88.0625 67.2061 -84.3459 -87.1549 66.1393 -84.0406 -86.2616 65.279 
-83.4106 -85.573 64.8172 -82.5135 -85.1094 64.5151 -81.498 -84.7928 64.2551 
-77.1298 -102.974 75.7155 -77.7 -102.595 76.3049 -78.3036 -102.187 77.0204 
-78.6862 -101.573 78.0027 -78.8905 -100.603 78.9929 -79.0073 -99.2977 79.6766 
-79.0749 -97.9996 80.2068 -79.2684 -96.9719 80.7714 -79.5922 -96.0759 81.2598 
-76.6728 -103.027 74.4119 -76.4929 -102.608 73.7109 -76.322 -102.082 72.9466 
-76.2646 -101.33 72.0825 -76.3056 -100.517 71.1748 -76.3826 -99.8056 70.2478 
-76.5658 -99.1084 69.2961 -76.8587 -98.393 68.4041 -77.1255 -97.7259 67.6488 
-76.6559 -104.659 75.7093 -76.4823 -105.829 76.4335 -76.4379 -106.914 77.2529 
-76.4098 -108.042 78.1722 -76.1145 -109.022 79.0822 -75.6759 -109.568 79.8817 
-75.3259 -109.951 80.7139 -74.9114 -110.323 81.5463 -74.3141 -110.304 82.0387 
-76.5707 -104.837 74.7694 -76.2923 -106.25 74.359 -75.8859 -107.475 73.9335 
-75.5952 -108.739 73.4059 -75.3296 -109.94 72.6964 -74.674 -110.557 72.0047 
-73.8496 -110.743 71.4594 -73.2661 -110.992 70.8489 -72.7751 -111.297 70.0625 
-72.5874 -87.625 71.8356 -72.1514 -88.9501 72.2712 -71.9852 -90.8868 72.8247 
-72.0652 -93.2046 73.4214 -71.8003 -95.0287 73.9394 -70.9909 -96.2519 74.3098 
-70.4337 -97.7364 74.5848 -70.5207 -99.6458 74.7985 -70.7242 -101.4 74.9409 
-72.9029 -86.7854 72.4113 -72.7561 -87.1078 73.4166 -72.7978 -87.7267 74.4217 
-73.0313 -88.5659 75.3724 -73.1915 -89.3439 76.4303 -73.1307 -89.9995 77.661 
-73.0278 -90.6896 78.8933 -73.0664 -91.4443 79.968 -73.262 -92.2429 80.7926 
-72.9014 -87.0742 70.8549 -72.691 -87.6473 70.2012 -72.6864 -88.584 69.6516 
-72.8697 -89.8785 69.1857 -72.8995 -91.2706 68.7377 -72.7058 -92.6124 68.3198 
-72.4898 -93.8726 67.9345 -72.2736 -95.0559 67.5633 -72.0483 -96.2612 67.2533 
-73.4852 -85.717 71.7869 -73.9501 -84.7431 72.0401 -74.5294 -83.8923 72.3032 
-75.0366 -83.0636 72.7437 -75.5163 -82.1387 73.4558 -76.3167 -81.5242 74.1203 
-77.2897 -81.6153 74.3471 -78.0392 -82.239 74.2273 -78.564 -83.009 74.0904 
-73.6012 -86.036 70.8522 -74.3038 -85.5253 70.1093 -75.0916 -85.0471 69.2763 
-75.7916 -84.5139 68.3449 -76.5047 -84.0837 67.3665 -77.3934 -83.9779 66.5591 
-78.2986 -84.0208 65.9658 -79.0774 -84.046 65.3372 -79.8052 -84.2262 64.663 
-71.1594 -101.928 75.5282 -71.7653 -100.938 75.8154 -72.0265 -99.8471 76.3099 
-71.8732 -98.7811 77.2594 -71.8152 -97.8136 78.3485 -72.0998 -96.8765 79.2382 
-72.5006 -95.9213 79.9674 -72.8559 -94.9479 80.5927 -73.188 -93.9777 81.0591 
-70.5514 -102.747 74.2143 -70.5066 -102.563 73.2042 -70.3016 -102.135 72.2729 
-70.0623 -101.52 71.4171 -70.0692 -100.844 70.4072 -70.1375 -100.097 69.2253 
-70.1845 -99.3246 68.1886 -70.5343 -98.7056 67.5636 -71.1998 -98.1843 67.2677 
-70.7533 -103.591 75.5543 -70.9693 -104.614 76.0418 -71.4021 -105.761 76.5151 
-71.8494 -106.73 77.1064 -72.1366 -107.522 77.9441 -72.3612 -108.31 78.8803 
-72.5597 -108.957 79.7843 -72.7594 -109.395 80.718 -73.13 -109.695 81.5643 
-70.4433 -104.065 74.6753 -70.3461 -105.461 74.2061 -70.2438 -106.905 73.7536 
-70.0098 -108.309 73.2562 -69.8059 -109.689 72.5734 -69.748 -110.897 71.6998 
-69.905 -111.608 70.723 -70.4844 -111.823 69.8593 -71.3752 -111.749 69.3725 
-79.1668 -94.7782 81.7779 -78.2526 -94.4865 81.9658 -77.4028 -94.3047 82.3257 
-76.8202 -94.0554 82.8918 -76.2669 -93.682 83.3498 -75.5806 -93.4667 83.3429 
-74.9543 -93.4576 82.8835 -74.4641 -93.382 82.2892 -73.9957 -93.2036 81.7897 
-78.8519 -96.233 81.7554 -77.967 -97.6403 82.0606 -77.2805 -99.1704 82.3111 
-76.6965 -100.723 82.668 -76.1598 -102.356 83.3306 -75.6979 -103.853 83.6001 
-75.2427 -105.194 83.0565 -74.7235 -106.765 82.4781 -74.1816 -108.455 82.2933 
-80.3253 -93.96 81.5633 -80.4435 -92.745 81.3065 -80.0592 -91.5495 80.5018 
-79.538 -90.3743 79.307 -79.2746 -89.2261 78.1917 -79.1772 -88.0139 77.2411 
-79.0728 -86.681 76.3088 -79.0239 -85.4579 75.4417 -79.026 -84.5095 74.698 
-73.5921 -94.514 81.7017 -73.5547 -95.9386 82.1617 -73.4217 -97.3251 82.708 
-73.31 -98.8345 83.0411 -73.336 -100.614 82.9417 -73.4212 -102.511 82.5696 
-73.4132 -104.358 82.2325 -73.3703 -106.243 82.0897 -73.4576 -108.137 82.099 
-73.7807 -91.7033 81.2418 -74.1951 -90.3579 80.9116 -74.7876 -89.2148 80.3342 
-75.4022 -88.1106 79.6798 -76.0414 -86.7844 79.1011 -76.8594 -85.4377 78.5045 
-77.6851 -84.517 77.6506 -78.2229 -84.089 76.4441 -78.5697 -83.8917 75.1333 
-76.9381 -97.2586 66.6483 -76.5068 -97.3584 66.2729 -75.9659 -97.4707 65.933 
-75.2492 -97.646 65.8013 -74.4163 -97.798 65.8991 -73.6193 -97.863 66.0558 
-72.987 -97.9056 66.2211 -72.5408 -97.9159 66.4614 -72.1957 -97.7946 66.7539 
-76.5083 -98.5551 67.348 -75.8782 -100.338 67.474 -75.3607 -102.322 67.4589 
-74.9147 -104.386 67.3601 -74.5091 -106.282 67.2855 -73.9336 -107.715 67.4668 
-73.1956 -108.773 67.895 -72.6574 -109.755 68.3495 -72.3984 -110.695 68.7848 
-78.1214 -96.0051 66.1718 -79.0407 -94.9701 65.1894 -79.8124 -93.9024 64.3345 
-80.3206 -92.6606 63.6792 -80.6906 -91.2702 63.1924 -80.941 -89.903 63.1154 
-80.9842 -88.58 63.4384 -80.8719 -87.1843 63.7432 -80.7053 -85.8028 63.9271 
-71.338 -99.348 66.924 -70.7905 -101.174 66.5095 -70.3482 -102.883 65.7791 
-70.0589 -104.544 65.1603 -69.9575 -106.174 65.2725 -70.1627 -107.69 66.0514 
-70.6306 -109.079 66.8478 -71.1499 -110.23 67.4985 -71.6493 -111.001 68.2987 
-72.5731 -95.8175 66.7442 -73.2919 -94.024 66.1989 -74.1309 -92.5432 65.6125 
-75.0404 -91.2708 65.1296 -75.9464 -89.8442 64.7269 -76.9522 -88.512 64.482 
-78.0086 -87.508 64.3762 -78.9185 -86.5076 64.2446 -79.7173 -85.4641 64.145 
-73.6115 -110.992 81.5578 -73.4715 -111.868 80.5522 -73.2468 -112.672 79.2735 
-73.0298 -113.591 77.915 -72.8914 -114.195 76.3514 -72.768 -114.039 74.5901 
-72.5952 -113.369 72.9504 -72.4145 -112.656 71.5767 -72.2701 -112.038 70.3689 
-79.2824 -83.0505 73.1998 -79.6253 -82.3911 72.3162 -80.0437 -81.9273 71.2414 
-80.6023 -81.5677 69.9203 -81.0905 -81.2615 68.4381 -81.26 -81.4388 66.9883 
-81.2325 -82.2168 65.8566 -81.1302 -83.0836 65.1131 -80.882 -83.8312 64.5933 
-82.2691 -92.0944 71.7697 -81.5828 -92.3379 73.0218 -81.2891 -93.0485 72.5912 
-81.064 -92.7034 74.5919 -80.6618 -93.4003 74.1208 -80.1673 -93.9594 73.6798 
-80.9542 -93.4638 76.0233 -80.3699 -94.0241 75.4964 -79.7907 -94.5629 75.0426 
-79.2486 -95.0554 74.4407 -81.1322 -94.4913 77.281 -80.5917 -95.1187 76.6215 
-79.7938 -95.493 76.1018 -79.1393 -95.9424 75.5646 -78.7705 -96.7248 74.8864 
-81.1705 -95.2903 78.6472 -80.8136 -96.1438 77.8599 -80.0342 -96.5654 77.2056 
-79.1815 -96.9524 76.6422 -78.7416 -97.778 75.9557 -78.48 -98.7674 75.2429 
-80.8302 -95.6504 79.8863 -80.5072 -96.581 79.0995 -79.9754 -97.2676 78.4045 
-79.2484 -97.8832 77.7974 -78.785 -98.7872 77.0312 -78.5612 -99.8213 76.1593 
-78.1094 -100.47 75.4348 -80.2506 -95.8122 80.7165 -79.8665 -96.7017 80.0368 
-79.5401 -97.6179 79.3828 -79.1757 -98.6465 78.8068 -78.8706 -99.7527 78.0401 
-78.6912 -100.771 77.0519 -78.2957 -101.429 76.1825 -77.6323 -101.728 75.5396 
-83.2047 -90.2291 71.8377 -83.0571 -89.2072 72.0325 -82.4871 -90.4287 72.6796 
-82.5937 -88.2033 72.1097 -82.3751 -89.4284 73.01 -81.9949 -90.9054 74.0772 
-81.9894 -87.43 72.3626 -81.9932 -88.4275 73.3462 -81.8711 -89.9929 74.5299 
-81.5991 -91.5348 75.678 -81.3957 -86.7955 72.8748 -81.4708 -87.669 73.8134 
-81.4496 -88.9764 74.9688 -81.3348 -90.6069 76.0674 -81.262 -92.0575 77.0448 
-80.7864 -86.077 73.4064 -80.8381 -87.1004 74.2838 -80.9433 -88.2296 75.3963 
-80.9104 -89.6619 76.422 -80.9494 -91.1056 77.3967 -81.181 -92.5803 78.4737 
-80.135 -85.3988 73.8156 -80.0948 -86.5288 74.6222 -80.3006 -87.7307 75.7015 
-80.4427 -89.0288 76.7405 -80.52 -90.3486 77.7181 -80.8602 -91.6928 78.9099 
-81.2028 -93.1777 80.0015 -79.5189 -84.9043 74.1996 -79.4408 -85.973 74.9589 
-79.5787 -87.2345 75.9473 -79.7987 -88.5421 76.9766 -79.9289 -89.7836 77.97 
-80.2608 -91.0065 79.1754 -80.7889 -92.2994 80.3941 -80.964 -93.64 81.0848 
-78.7029 -84.7101 75.9153 -78.4116 -85.0164 77.2679 -78.7886 -85.8421 76.7251 
-77.8248 -85.6678 78.428 -78.4821 -86.395 78.0408 -78.7953 -87.2708 77.5787 
-76.9675 -86.7149 79.3643 -77.884 -87.113 79.3222 -78.4374 -87.8566 78.9782 
-78.7816 -88.5996 78.527 -76.148 -87.9046 80.1849 -77.0746 -87.8947 80.5525 
-77.9468 -88.3379 80.5134 -78.5249 -89.0646 80.0757 -78.9644 -89.7708 79.5969 
-75.4309 -89.0749 80.8733 -76.1829 -88.8652 81.438 -77.1454 -88.9486 81.7177 
-78.1352 -89.561 81.499 -78.8399 -90.3455 81.025 -79.4001 -90.9969 80.6874 
-74.7896 -90.3476 81.3778 -75.3792 -90.2429 81.8882 -76.1325 -90.1474 82.2706 
-77.1811 -90.4831 82.2841 -78.2107 -91.1778 81.9547 -78.984 -91.7659 81.6099 
[...]
POINT_DATA 1002
FIELD FieldData 2
Theta 1 1002 float
2.58802 2.58802 0.553574 0.553574 2.12437 1.01722 2.12437 1.01722 1.5708 
1.5708 1.5708 1.5708 2.68241 2.78649 2.89924 3.01861 3.14159 3.01861 
2.89924 2.78649 2.68241 2.61035 2.61791 2.60515 2.56958 2.51327 2.44184 
2.36202 2.27983 2.1997 2.61035 2.61791 2.60515 2.56958 2.51327 2.44184 
2.36202 2.27983 2.1997 2.50947 2.41899 2.31794 2.20864 2.0944 1.97902 
1.86631 1.75944 1.66056 2.50947 2.41899 2.31794 2.20864 2.0944 1.97902 
1.86631 1.75944 1.66056 2.61035 2.61791 2.60515 2.56958 2.51327 2.44184 
2.36202 2.27983 2.1997 2.61035 2.61791 2.60515 2.56958 2.51327 2.44184 
2.36202 2.27983 2.1997 2.50947 2.41899 2.31794 2.20864 2.0944 1.97902 
1.86631 1.75944 1.66056 2.50947 2.41899 2.31794 2.20864 2.0944 1.97902 
1.86631 1.75944 1.66056 0.459179 0.355101 0.242354 0.122983 0 0.122983 
0.242354 0.355101 0.459179 0.531246 0.523681 0.536438 0.57201 0.628319 0.699757 
0.779574 0.86176 0.941896 0.531246 0.523681 0.536438 0.57201 0.628319 0.699757 
0.779574 0.86176 0.941896 0.632123 0.7226 0.823657 0.932948 1.0472 1.16257 
1.27528 1.38216 1.48103 0.632123 0.7226 0.823657 0.932948 1.0472 1.16257 
1.27528 1.38216 1.48103 0.531246 0.523681 0.536438 0.57201 0.628319 0.699757 
0.779574 0.86176 0.941896 0.531246 0.523681 0.536438 0.57201 0.628319 0.699757 
0.779574 0.86176 0.941896 0.632123 0.7226 0.823657 0.932948 1.0472 1.16257 
1.27528 1.38216 1.48103 0.632123 0.7226 0.823657 0.932948 1.0472 1.16257 
1.27528 1.38216 1.48103 2.02998 1.9259 1.81315 1.69378 1.5708 1.44781 
1.32844 1.2157 1.11162 2.0928 2.05283 2.00422 1.94767 1.88496 1.81867 
1.75177 1.68695 1.62623 2.0928 2.05283 2.00422 1.94767 1.88496 1.81867 
1.75177 1.68695 1.62623 1.0488 1.08876 1.13737 1.19392 1.25664 1.32292 
1.38982 1.45464 1.51537 1.0488 1.08876 1.13737 1.19392 1.25664 1.32292 
1.38982 1.45464 1.51537 2.02998 1.9259 1.81315 1.69378 1.5708 1.44781 
1.32844 1.2157 1.11162 2.0928 2.05283 2.00422 1.94767 1.88496 1.81867 
1.75177 1.68695 1.62623 2.0928 2.05283 2.00422 1.94767 1.88496 1.81867 
1.75177 1.68695 1.62623 1.0488 1.08876 1.13737 1.19392 1.25664 1.32292 
1.38982 1.45464 1.51537 1.0488 1.08876 1.13737 1.19392 1.25664 1.32292 
1.38982 1.45464 1.51537 1.5708 1.5708 1.5708 1.5708 1.5708 1.5708 
1.5708 1.5708 1.5708 1.5708 1.5708 1.5708 1.5708 1.5708 1.5708 
1.5708 1.5708 1.5708 2.70908 2.71362 2.81592 2.68886 2.81002 2.92597 
2.6349 2.76254 2.89233 3.01997 2.55881 2.68262 2.80854 2.92834 3.01997 
2.47007 2.58462 2.70048 2.80854 2.89233 2.92597 2.37702 2.48017 2.58462 
2.68262 2.76254 2.81002 2.81592 2.28567 2.37702 2.47007 2.55881 2.6349 
2.68886 2.71362 2.70908 2.52097 2.4195 2.51718 2.30791 2.40503 2.49426 
2.18928 2.28408 2.3734 2.45144 2.06758 2.15805 2.24572 2.32523 2.39165 
1.94707 2.03138 2.11543 2.19453 2.26401 2.32035 1.83164 1.90847 1.98711 
2.06376 2.13422 2.1949 2.24359 1.72413 1.79288 1.86489 1.93728 2.00658 
2.06938 2.12312 2.16654 1.5708 1.50988 1.63171 1.44492 1.5708 1.69667 
1.37826 1.5059 1.63569 1.76333 1.31281 1.43962 1.5708 1.70197 1.82878 
1.25155 1.37501 1.50478 1.63681 1.76659 1.89004 1.19686 1.31493 1.44074 
1.5708 1.70086 1.82666 1.94473 1.15011 1.26149 1.38136 1.50697 1.63462 
1.76024 1.88011 1.99148 1.99148 1.88011 1.94473 1.76024 1.82666 1.89004 
1.63462 1.70086 1.76659 1.82878 1.50697 1.5708 1.63681 1.70197 1.76333 
1.38136 1.44074 1.50478 1.5708 1.63569 1.69667 1.26149 1.31493 1.37501 
1.43962 1.5059 1.5708 1.63171 1.15011 1.19686 1.25155 1.31281 1.37826 
1.44492 1.50988 1.5708 2.16654 2.12312 2.24359 2.06938 2.1949 2.32035 
2.00658 2.13422 2.26401 2.39165 1.93728 2.06376 2.19453 2.32523 2.45144 
1.86489 1.98711 2.11543 2.24572 2.3734 2.49426 1.79288 1.90847 2.03138 
2.15805 2.28408 2.40503 2.51718 1.72413 1.83164 1.94707 2.06758 2.18928 
2.30791 2.4195 2.52097 1.66533 1.66946 1.76911 1.67254 1.777 1.88041 
1.67418 1.78222 1.89102 1.99634 1.67418 1.78405 1.89674 2.00785 2.11299 
1.67254 1.78222 1.89674 2.01191 2.12307 2.22608 1.66946 1.777 1.89102 
2.00785 2.12307 2.23222 2.33166 1.66533 1.76911 1.88041 1.99634 2.11299 
2.22608 2.33166 2.42672 1.47626 1.37249 1.47213 1.26118 1.36459 1.46906 
1.14526 1.25058 1.35938 1.46741 1.0286 1.13374 1.24485 1.35755 1.46741 
0.915514 1.01852 1.12969 1.24485 1.35938 1.46906 0.809937 0.909371 1.01852 
1.13374 1.25058 1.36459 1.47213 0.714871 0.809937 0.915514 1.0286 1.14526 
1.26118 1.37249 1.47626 0.975055 0.898002 1.01847 0.821245 0.946693 1.07221 
0.749941 0.877585 1.00737 1.13501 0.690152 0.816367 0.94706 1.07784 1.20431 
0.647337 0.768195 0.895868 1.02616 1.15448 1.2767 0.624416 0.736561 0.857515 
0.983547 1.11021 1.23313 1.34871 0.620619 0.722093 0.833684 0.952313 1.07402 
1.19452 1.30996 1.41746 0.855925 0.764569 0.764569 0.671524 0.661425 0.671524 
0.582786 0.556971 0.556971 0.582786 0.506696 0.458968 0.441109 0.458968 0.506696 
0.45273 0.379052 0.333054 0.333054 0.379052 0.45273 0.427969 0.331576 0.249267 
0.21325 0.249267 0.331576 0.427969 0.432512 0.325669 0.215619 0.121622 0.121622 
0.215619 0.325669 0.432512 0.432512 0.427969 0.325669 0.45273 0.331576 0.215619 
0.506696 0.379052 0.249267 0.121622 0.582786 0.458968 0.333054 0.21325 0.121622 
0.671524 0.556971 0.441109 0.333054 0.249267 0.215619 0.764569 0.661425 0.556971 
0.458968 0.379052 0.331576 0.325669 0.855925 0.764569 0.671524 0.582786 0.506696 
0.45273 0.427969 0.432512 0.975055 1.01847 0.898002 1.07221 0.946693 0.821245 
1.13501 1.00737 0.877585 0.749941 1.20431 1.07784 0.94706 0.816367 0.690152 
1.2767 1.15448 1.02616 0.895868 0.768195 0.647337 1.34871 1.23313 1.11021 
0.983547 0.857515 0.736561 0.624416 1.41746 1.30996 1.19452 1.07402 0.952313 
0.833684 0.722093 0.620619 1.15011 1.26149 1.19686 1.38136 1.31493 1.25155 
1.50697 1.44074 1.37501 1.31281 1.63462 1.5708 1.50478 1.43962 1.37826 
1.76024 1.70086 1.63681 1.5708 1.5059 1.44492 1.88011 1.82666 1.76659 
1.70197 1.63569 1.5708 1.50988 1.99148 1.94473 1.89004 1.82878 1.76333 
1.69667 1.63171 1.5708 1.15011 1.19686 1.26149 1.25155 1.31493 1.38136 
1.31281 1.37501 1.44074 1.50697 1.37826 1.43962 1.50478 1.5708 1.63462 
1.44492 1.5059 1.5708 1.63681 1.70086 1.76024 1.50988 1.5708 1.63569 
1.70197 1.76659 1.82666 1.88011 1.5708 1.63171 1.69667 1.76333 1.82878 
1.89004 1.94473 1.99148 1.72413 1.83164 1.79288 1.94707 1.90847 1.86489 
2.06758 2.03138 1.98711 1.93728 2.18928 2.15805 2.11543 2.06376 2.00658 
2.30791 2.28408 2.24572 2.19453 2.13422 2.06938 2.4195 2.40503 2.3734 
2.32523 2.26401 2.1949 2.12312 2.52097 2.51718 2.49426 2.45144 2.39165 
2.32035 2.24359 2.16654 2.70908 2.81592 2.71362 2.92597 2.81002 2.68886 
3.01997 2.89233 2.76254 2.6349 3.01997 2.92834 2.80854 2.68262 2.55881 
2.92597 2.89233 2.80854 2.70048 2.58462 2.47007 2.81592 2.81002 2.76254 
2.68262 2.58462 2.48017 2.37702 2.70908 2.71362 2.68886 2.6349 2.55881 
2.47007 2.37702 2.28567 2.16654 2.24359 2.12312 2.32035 2.1949 2.06938 
2.39165 2.26401 2.13422 2.00658 2.45144 2.32523 2.19453 2.06376 1.93728 
2.49426 2.3734 2.24572 2.11543 1.98711 1.86489 2.51718 2.40503 2.28408 
2.15805 2.03138 1.90847 1.79288 2.52097 2.4195 2.30791 2.18928 2.06758 
1.94707 1.83164 1.72413 1.66533 1.76911 1.66946 1.88041 1.777 1.67254 
1.99634 1.89102 1.78222 1.67418 2.11299 2.00785 1.89674 1.78405 1.67418 
2.22608 2.12307 2.01191 1.89674 1.78222 1.67254 2.33166 2.23222 2.12307 
2.00785 1.89102 1.777 1.66946 2.42672 2.33166 2.22608 2.11299 1.99634 
1.88041 1.76911 1.66533 1.47626 1.47213 1.37249 1.46906 1.36459 1.26118 
1.46741 1.35938 1.25058 1.14526 1.46741 1.35755 1.24485 1.13374 1.0286 
1.46906 1.35938 1.24485 1.12969 1.01852 0.915514 1.47213 1.36459 1.25058 
1.13374 1.01852 0.909371 0.809937 1.47626 1.37249 1.26118 1.14526 1.0286 
0.915514 0.809937 0.714871 1.41746 1.30996 1.34871 1.19452 1.23313 1.2767 
1.07402 1.11021 1.15448 1.20431 0.952313 0.983547 1.02616 1.07784 1.13501 
0.833684 0.857515 0.895868 0.94706 1.00737 1.07221 0.722093 0.736561 0.768195 
0.816367 0.877585 0.946693 1.01847 0.620619 0.624416 0.647337 0.690152 0.749941 
0.821245 0.898002 0.975055 0.975055 0.898002 1.01847 0.821245 0.946693 1.07221 
0.749941 0.877585 1.00737 1.13501 0.690152 0.816367 0.94706 1.07784 1.20431 
0.647337 0.768195 0.895868 1.02616 1.15448 1.2767 0.624416 0.736561 0.857515 
0.983547 1.11021 1.23313 1.34871 0.620619 0.722093 0.833684 0.952313 1.07402 
1.19452 1.30996 1.41746 
Phi 1 1002 float
6.28319 3.14159 6.28319 3.14159 4.71239 4.71239 1.5708 1.5708 3.69517 
5.72961 2.58802 0.553574 6.28319 6.28319 6.28319 6.28319 3.14159 3.14159 
3.14159 3.14159 3.14159 6.1053 5.8988 5.67687 5.45995 5.26596 5.10322 
4.97131 4.86569 4.78095 0.177881 0.384387 0.606312 0.823235 1.01722 1.17997 
1.31187 1.4175 1.50223 6.18928 6.10703 6.03531 5.97283 5.91832 5.87061 
5.82869 5.79168 5.75886 0.0939024 0.176153 0.247873 0.310351 0.364864 0.412573 
0.454497 0.491504 0.524326 3.31947 3.52598 3.7479 3.96483 4.15881 4.32156 
4.45346 4.55909 4.64383 2.96371 2.75721 2.53528 2.31836 2.12437 1.96162 
1.82972 1.72409 1.63936 3.2355 3.31775 3.38947 3.45194 3.50646 3.55417 
3.59609 3.6331 3.66592 3.04769 2.96544 2.89372 2.83124 2.77673 2.72902 
2.6871 2.65009 2.61727 6.28319 6.28319 6.28319 6.28319 3.14159 3.14159 
3.14159 3.14159 3.14159 6.1053 5.8988 5.67687 5.45995 5.26596 5.10322 
4.97131 4.86569 4.78095 0.177881 0.384387 0.606312 0.823235 1.01722 1.17997 
1.31187 1.4175 1.50223 6.18928 6.10703 6.03531 5.97283 5.91832 5.87061 
5.82869 5.79168 5.75886 0.0939024 0.176153 0.247873 0.310351 0.364864 0.412573 
0.454497 0.491504 0.524326 3.31947 3.52598 3.7479 3.96483 4.15881 4.32156 
4.45346 4.55909 4.64383 2.96371 2.75721 2.53528 2.31836 2.12437 1.96162 
1.82972 1.72409 1.63936 3.2355 3.31775 3.38947 3.45194 3.50646 3.55417 
3.59609 3.6331 3.66592 3.04769 2.96544 2.89372 2.83124 2.77673 2.72902 
2.6871 2.65009 2.61727 4.71239 4.71239 4.71239 4.71239 4.71239 4.71239 
4.71239 4.71239 4.71239 4.60879 4.49914 4.3857 4.27128 4.15881 4.05096 
3.94976 3.85646 3.77161 4.81599 4.92564 5.03907 5.1535 5.26596 5.37381 
5.47502 5.56831 5.65317 4.60879 4.49914 4.3857 4.27128 4.15881 4.05096 
3.94976 3.85646 3.77161 4.81599 4.92564 5.03907 5.1535 5.26596 5.37381 
5.47502 5.56831 5.65317 1.5708 1.5708 1.5708 1.5708 1.5708 1.5708 
1.5708 1.5708 1.5708 1.6744 1.78405 1.89748 2.01191 2.12437 2.23222 
2.33343 2.42672 2.51157 1.4672 1.35755 1.24411 1.12969 1.01722 0.909371 
0.808166 0.714871 0.63002 1.6744 1.78405 1.89748 2.01191 2.12437 2.23222 
2.33343 2.42672 2.51157 1.4672 1.35755 1.24411 1.12969 1.01722 0.909371 
0.808166 0.714871 0.63002 3.60077 3.49669 3.38395 3.26458 3.14159 3.01861 
2.89924 2.78649 2.68241 5.82401 5.92808 6.04083 6.1602 6.28319 0.122983 
0.242354 0.355101 0.459179 6.05603 5.78856 5.97021 5.51259 5.60297 5.78856 
5.26596 5.26596 5.26596 5.26596 5.06749 5.0121 4.91556 4.71239 4.15881 
4.91556 4.83537 4.71239 4.50922 4.15881 3.63622 4.80045 4.71239 4.58941 
4.41268 4.15881 3.82181 3.45456 4.71239 4.62433 4.50922 4.35729 4.15881 
3.91219 3.63622 3.36875 6.01742 5.94343 5.82633 5.88092 5.76745 5.62798 
5.8278 5.71897 5.58911 5.43724 5.78235 5.67854 5.55757 5.41926 5.26596 
5.74316 5.64441 5.5315 5.40467 5.26596 5.11955 5.70914 5.61528 5.50962 
5.3926 5.26596 5.13292 4.99789 5.67937 5.59016 5.49102 5.38246 5.26596 
5.14407 5.02016 4.89798 5.56831 5.47502 5.47502 5.37381 5.37381 5.37381 
5.26596 5.26596 5.26596 5.26596 5.1535 5.1535 5.1535 5.1535 5.1535 
5.03907 5.03907 5.03907 5.03907 5.03907 5.03907 4.92564 4.92564 4.92564 
4.92564 4.92564 4.92564 4.92564 4.81599 4.81599 4.81599 4.81599 4.81599 
4.81599 4.81599 4.81599 4.60879 4.60879 4.49914 4.60879 4.49914 4.3857 
4.60879 4.49914 4.3857 4.27128 4.60879 4.49914 4.3857 4.27128 4.15881 
4.60879 4.49914 4.3857 4.27128 4.15881 4.05096 4.60879 4.49914 4.3857 
4.27128 4.15881 4.05096 3.94976 4.60879 4.49914 4.3857 4.27128 4.15881 
4.05096 3.94976 3.85646 4.5268 4.40462 4.42689 4.28071 4.29185 4.30523 
4.15881 4.15881 4.15881 4.15881 4.04232 4.03217 4.02011 4.00552 3.98753 
3.93376 3.91515 3.89328 3.86721 3.83566 3.7968 3.83461 3.8095 3.78037 
3.74624 3.70581 3.65733 3.59845 3.7454 3.71564 3.68161 3.64243 3.59698 
3.54386 3.48135 3.40735 3.56428 3.45246 3.52338 3.33203 3.40312 3.47739 
3.20576 3.27463 3.34802 3.42551 3.07742 3.14159 3.21128 3.28647 3.36688 
2.95116 3.00855 3.0719 3.14159 3.21784 3.3006 2.83072 2.88006 2.93517 
2.99672 3.06535 3.14159 3.22575 2.7189 2.7598 2.8058 2.85768 2.9163 
2.98259 3.05743 3.14159 3.56428 3.52338 3.45246 3.47739 3.40312 3.33203 
3.42551 3.34802 3.27463 3.20576 3.36688 3.28647 3.21128 3.14159 3.07742 
3.3006 3.21784 3.14159 3.0719 3.00855 2.95116 3.22575 3.14159 3.06535 
2.99672 2.93517 2.88006 2.83072 3.14159 3.05743 2.98259 2.9163 2.85768 
2.8058 2.7598 2.7189 4.5268 4.42689 4.40462 4.30523 4.29185 4.28071 
4.15881 4.15881 4.15881 4.15881 3.98753 4.00552 4.02011 4.03217 4.04232 
3.7968 3.83566 3.86721 3.89328 3.91515 3.93376 3.59845 3.65733 3.70581 
3.74624 3.78037 3.8095 3.83461 3.40735 3.48135 3.54386 3.59698 3.64243 
3.68161 3.71564 3.7454 4.71239 4.80045 4.62433 4.91556 4.71239 4.50922 
5.06749 4.83537 4.58941 4.35729 5.26596 5.0121 4.71239 4.41268 4.15881 
5.51259 5.26596 4.91556 4.50922 4.15881 3.91219 5.78856 5.60297 5.26596 
4.71239 4.15881 3.82181 3.63622 6.05603 5.97021 5.78856 5.26596 4.15881 
3.63622 3.45456 3.36875 0.227158 0.494626 0.312971 0.770593 0.680215 0.494626 
1.01722 1.01722 1.01722 1.01722 1.2157 1.27109 1.36763 1.5708 2.12437 
1.36763 1.44781 1.5708 1.77397 2.12437 2.64697 1.48273 1.5708 1.69378 
1.8705 2.12437 2.46138 2.82862 1.5708 1.65886 1.77397 1.9259 2.12437 
2.371 2.64697 2.91443 1.75639 1.87857 1.8563 2.00248 1.99133 1.97796 
2.12437 2.12437 2.12437 2.12437 2.24087 2.25101 2.26308 2.27767 2.29565 
2.34943 2.36803 2.38991 2.41597 2.44752 2.48639 2.44857 2.47368 2.50281 
2.53694 2.57738 2.62586 2.68474 2.53778 2.56754 2.60157 2.64076 2.68621 
2.73933 2.80184 2.87583 1.6744 1.6744 1.78405 1.6744 1.78405 1.89748 
1.6744 1.78405 1.89748 2.01191 1.6744 1.78405 1.89748 2.01191 2.12437 
1.6744 1.78405 1.89748 2.01191 2.12437 2.23222 1.6744 1.78405 1.89748 
2.01191 2.12437 2.23222 2.33343 1.6744 1.78405 1.89748 2.01191 2.12437 
2.23222 2.33343 2.42672 1.4672 1.35755 1.4672 1.24411 1.35755 1.4672 
1.12969 1.24411 1.35755 1.4672 1.01722 1.12969 1.24411 1.35755 1.4672 
0.909371 1.01722 1.12969 1.24411 1.35755 1.4672 0.808166 0.909371 1.01722 
1.12969 1.24411 1.35755 1.4672 0.714871 0.808166 0.909371 1.01722 1.12969 
1.24411 1.35755 1.4672 0.603812 0.57405 0.693022 0.540021 0.667908 0.792164 
0.500837 0.638778 0.773562 0.900726 0.455383 0.604649 0.751687 0.890581 1.01722 
0.402264 0.564217 0.725619 0.878514 1.01722 1.13912 0.339753 0.515737 0.694072 
0.863926 1.01722 1.15026 1.26302 0.265762 0.456853 0.655207 0.845941 1.01722 
1.16363 1.28529 1.38521 0.227158 0.312971 0.494626 0.494626 0.680215 0.770593 
1.01722 1.01722 1.01722 1.01722 2.12437 1.5708 1.36763 1.27109 1.2157 
2.64697 2.12437 1.77397 1.5708 1.44781 1.36763 2.82862 2.46138 2.12437 
1.8705 1.69378 1.5708 1.48273 2.91443 2.64697 2.371 2.12437 1.9259 
1.77397 1.65886 1.5708 1.75639 1.8563 1.87857 1.97796 1.99133 2.00248 
2.12437 2.12437 2.12437 2.12437 2.29565 2.27767 2.26308 2.25101 2.24087 
2.48639 2.44752 2.41597 2.38991 2.36803 2.34943 2.68474 2.62586 2.57738 
2.53694 2.50281 2.47368 2.44857 2.87583 2.80184 2.73933 2.68621 2.64076 
2.60157 2.56754 2.53778 5.86049 5.90139 5.97231 5.94739 6.02165 6.09275 
5.99927 6.07676 6.15015 6.21902 6.0579 6.13831 6.2135 0 0.0641696 
6.12418 6.20694 6.28319 0.069689 0.13304 0.190437 6.19903 0 0.0762451 
0.144876 0.206423 0.261531 0.310872 0 0.0841597 0.159004 0.225289 0.283913 
0.335793 0.381792 0.422692 5.86049 5.97231 5.90139 6.09275 6.02165 5.94739 
6.21902 6.15015 6.07676 5.99927 0.0641696 0 6.2135 6.13831 6.0579 
0.190437 0.13304 0.069689 6.28319 6.20694 6.12418 0.310872 0.261531 0.206423 
0.144876 0.0762451 6.28319 6.19903 0.422692 0.381792 0.335793 0.283913 0.225289 
0.159004 0.0841597 0 5.67937 5.70914 5.59016 5.74316 5.61528 5.49102 
5.78235 5.64441 5.50962 5.38246 5.8278 5.67854 5.5315 5.3926 5.26596 
5.88092 5.71897 5.55757 5.40467 5.26596 5.14407 5.94343 5.76745 5.58911 
5.41926 5.26596 5.13292 5.02016 6.01742 5.82633 5.62798 5.43724 5.26596 
5.11955 4.99789 4.89798 1.38521 1.28529 1.26302 1.16363 1.15026 1.13912 
1.01722 1.01722 1.01722 1.01722 0.845941 0.863926 0.878514 0.890581 0.900726 
0.655207 0.694072 0.725619 0.751687 0.773562 0.792164 0.456853 0.515737 0.564217 
0.604649 0.638778 0.667908 0.693022 0.265762 0.339753 0.402264 0.455383 0.500837 
0.540021 0.57405 0.603812 
