# vtk DataFile Version 4.0
vtk output
ASCII
DATASET POLYDATA
POINTS 1002 float
-84.7168 -91.6103 70.8169 -77.1938 -103.743 75.7952 -73.7879 -86.3638 71.7758 
-70.4865 -102.789 75.8129 -80.4173 -95.7935 82.3457 -74.5233 -93.0426 82.0253 
-78.0872 -97.4158 67.1353 -72.0378 -96.9981 67.7372 -73.8557 -109.317 82.3617 
-80.7215 -83.5296 74.9845 -71.5159 -113.021 69.8169 -80.8352 -85.2881 63.2073 
-84.0167 -92.3448 71.1082 -83.2072 -93.0148 71.5338 -82.1834 -93.9151 72.1626 
-80.995 -95.0645 72.9924 -79.9716 -96.2982 73.8799 -79.235 -97.7605 74.537 
-78.6415 -99.4732 74.8951 -78.1215 -101.103 75.1957 -77.6475 -102.502 75.5386 
-84.356 -91.5852 71.7657 -83.8907 -91.5891 72.7271 -83.3379 -91.694 73.8905 
-82.8784 -92.0885 75.2169 -82.5075 -92.8055 76.5804 -82.0635 -93.6081 78.1139 
-81.7283 -94.334 79.7156 -81.551 -94.9605 80.9652 -81.1486 -95.4446 81.7683 
-84.6996 -92.2026 69.9304 -84.6952 -92.784 69.0831 -84.3979 -93.2594 68.4448 
-83.656 -93.701 67.8673 -82.7237 -94.237 67.3056 -81.7933 -94.8508 67.0166 
-80.8315 -95.4709 66.9678 -79.8605 -96.0968 66.9651 -78.9375 -96.7466 67.0205 
-85.1639 -90.6642 71.1738 -85.3801 -89.6502 71.4875 -85.0482 -88.6645 71.7809 
-84.4418 -87.6235 72.1926 -83.9842 -86.5782 72.7038 -83.4201 -85.7698 73.1082 
-82.5435 -85.1746 73.4072 -81.7189 -84.5829 73.8212 -81.1608 -83.9921 74.397 
-85.2607 -91.0067 69.9271 -85.5747 -90.1932 68.7808 -85.5709 -89.3144 67.5016 
-85.372 -88.4949 66.2868 -85.0881 -87.7063 65.1836 -84.6068 -86.9389 64.2476 
-83.8361 -86.287 63.6621 -82.8573 -85.7929 63.3935 -81.8116 -85.4544 63.2496 
-77.789 -103.433 76.3539 -78.2093 -102.884 77.0389 -78.3788 -102.042 77.9172 
-78.6448 -101.157 78.8496 -79.2225 -100.465 79.6497 -79.7905 -99.7752 80.3646 
-80.1091 -98.8454 81.0857 -80.2828 -97.7918 81.7115 -80.3905 -96.7812 82.125 
-76.9352 -103.262 75.0751 -76.8776 -102.846 74.2295 -76.9147 -102.417 73.3279 
-76.8526 -101.755 72.4275 -76.8323 -100.947 71.5231 -77.0577 -100.29 70.5254 
-77.3844 -99.6932 69.474 -77.6489 -98.9288 68.5812 -77.8738 -98.1024 67.8611 
-77.1395 -104.825 76.2494 -77.0606 -105.913 76.6717 -76.9185 -106.881 77.2991 
-76.6692 -107.706 78.2022 -76.257 -108.406 79.1289 -75.8765 -109.013 79.9894 
-75.6683 -109.51 80.9038 -75.3103 -109.768 81.7369 -74.6099 -109.693 82.2315 
-76.5475 -104.681 75.5019 -76.0315 -105.815 75.0232 -75.7423 -107.264 74.386 
-75.5158 -108.961 73.6714 -75.1478 -110.525 72.923 -74.533 -111.56 72.2313 
-73.7194 -112.112 71.631 -72.9379 -112.491 70.9984 -72.2541 -112.83 70.335 
-73.199 -87.3769 72.2608 -72.7841 -88.7421 72.826 -72.5939 -90.5738 73.3259 
-72.3553 -92.6007 73.7417 -71.8199 -94.349 74.2497 -71.1478 -95.8522 74.8298 
-70.6669 -97.5046 75.2684 -70.4887 -99.3494 75.539 -70.483 -101.161 75.7187 
-73.9005 -86.8213 72.678 -73.98 -87.3434 73.7346 -73.9029 -87.7387 74.9419 
-73.8168 -88.2091 76.2265 -73.902 -88.9953 77.3849 -74.1179 -89.9172 78.3444 
-74.3629 -90.803 79.2596 -74.55 -91.6772 80.2038 -74.5958 -92.455 81.1364 
-73.4249 -86.7317 71.179 -73.2207 -87.4024 70.4909 -73.0492 -88.2341 69.7486 
-72.7936 -89.1298 69.0561 -72.5604 -90.2169 68.4641 -72.4231 -91.4854 67.9976 
-72.2925 -92.7815 67.7311 -72.1682 -94.1513 67.6725 -72.0966 -95.6158 67.7134 
-74.4767 -85.6567 71.8898 -75.1125 -84.8448 72.1039 -75.6035 -83.8803 72.4435 
-76.1233 -82.9117 72.9046 -76.8361 -82.2225 73.4995 -77.7215 -81.9342 74.1118 
-78.7184 -81.9538 74.5405 -79.6512 -82.2506 74.7672 -80.3139 -82.8215 74.8946 
-74.2121 -85.6688 71.0164 -74.8756 -85.1673 70.2335 -75.737 -84.7683 69.3359 
-76.5678 -84.3444 68.3357 -77.2646 -84.0006 67.287 -77.927 -83.8524 66.1548 
-78.6066 -83.8773 65.0353 -79.3165 -84.1214 64.1549 -80.0776 -84.6242 63.5723 
-70.4555 -101.868 76.7882 -70.5276 -100.86 77.6542 -70.9914 -99.9369 78.1748 
-71.6019 -99.0469 78.7558 -72.0062 -98.0023 79.6458 -72.4169 -96.8034 80.37 
-72.9769 -95.5989 80.8067 -73.4951 -94.5426 81.2738 -73.983 -93.7143 81.7341 
-70.3724 -102.616 74.924 -70.1041 -102.277 74.1361 -69.9222 -101.754 73.3303 
-69.9128 -101.126 72.3463 -69.9082 -100.509 71.2597 -70.0532 -99.9389 70.2709 
-70.5125 -99.3482 69.503 -71.0444 -98.6625 68.9008 -71.5139 -97.8649 68.3219 
-70.4811 -103.835 76.4084 -70.5069 -104.93 77.0691 -70.659 -106.013 77.8279 
-70.9564 -106.952 78.4677 -71.3838 -107.654 78.9228 -71.9494 -108.237 79.53 
-72.4909 -108.802 80.3394 -72.8595 -109.217 81.0933 -73.2424 -109.374 81.7599 
-70.3607 -104.237 75.3227 -70.1275 -105.724 74.8345 -70.0183 -107.306 74.1762 
-70.1433 -108.836 73.3463 -70.2807 -110.136 72.6111 -70.1025 -111.382 72.0159 
-69.7376 -112.616 71.3216 -69.8141 -113.396 70.5507 -70.5609 -113.455 70.0035 
-79.8857 -95.3276 82.8031 -79.4605 -94.7995 83.3403 -79.1953 -94.2337 83.9026 
-78.7038 -93.6404 84.3959 -77.7294 -93.1142 84.6687 -76.672 -92.8308 84.5252 
-75.8987 -92.7998 83.9937 -75.3252 -92.8698 83.3299 -74.861 -92.9548 82.6777 
-79.5937 -96.7511 82.7792 -78.9641 -97.9347 83.242 -78.6491 -99.4732 83.7521 
-78.1957 -101.08 84.1696 -77.3524 -102.532 84.2901 -76.5518 -104.174 84.2143 
-75.9474 -106.034 84.1422 -75.2524 -107.55 83.8772 -74.4814 -108.55 83.2204 
-80.8422 -94.4446 82.0662 -81.075 -92.8423 81.5438 -81.0982 -91.3186 80.7948 
-81.0197 -90.0527 79.9635 -80.9942 -88.7346 79.2013 -81.0906 -87.2575 78.4637 
-81.152 -86.008 77.6029 -81.036 -85.1127 76.6432 -80.8486 -84.3278 75.7403 
-74.0621 -93.9457 82.7734 -73.723 -95.0882 83.411 -73.6566 -96.7759 83.6964 
-73.7005 -98.8419 83.6489 -73.6895 -100.906 83.5179 -73.6473 -102.975 83.4167 
-73.5593 -105.051 83.3021 -73.4801 -106.85 83.126 -73.5731 -108.245 82.8226 
-75.0832 -91.9277 81.7052 -75.4457 -90.4518 81.4612 -75.7981 -88.8602 81.2289 
-76.5232 -87.4667 80.793 -77.4288 -86.2339 80.1567 -78.13 -85.1499 79.3683 
-78.8154 -84.4201 78.323 -79.6115 -84.0036 77.1264 -80.2733 -83.7134 75.9989 
-77.6797 -97.4768 66.7019 -77.1512 -97.5193 66.2871 -76.4508 -97.5363 66.0311 
-75.5958 -97.53 65.9404 -74.6751 -97.4255 65.9718 -73.8751 -97.2588 66.201 
-73.2998 -97.2002 66.6129 -72.8376 -97.2339 67.0317 -72.4024 -97.1893 67.3886 
-77.1184 -98.6439 67.6644 -76.195 -100.351 67.9376 -75.4094 -102.479 68.0108 
-74.6975 -104.692 68.1606 -74.0472 -106.746 68.3227 -73.5171 -108.558 68.3472 
-73.0788 -110.004 68.5128 -72.65 -111.116 68.9349 -72.1335 -112.106 69.3875 
-78.7903 -96.439 66.1791 -79.4515 -95.4057 65.1389 -80.0872 -94.1448 64.2488 
-80.6786 -92.7987 63.4113 -81.0116 -91.5707 62.4397 -81.0611 -90.2986 61.7073 
-81.1001 -88.9007 61.6851 -81.1581 -87.5747 62.1853 -81.0673 -86.3857 62.7499 
-71.567 -98.8894 67.959 -70.9895 -100.85 67.8656 -70.4153 -102.88 67.5374 
-70.075 -105.035 67.1722 -69.9495 -107.105 66.9194 -69.8776 -108.76 67.0209 
-70.0222 -110.095 67.6179 -70.5032 -111.341 68.4247 -71.0667 -112.375 69.148 
-72.762 -95.2703 67.0803 -73.6701 -93.5793 66.3661 -74.6461 -92.0927 65.706 
-75.6188 -90.7415 64.9913 -76.5924 -89.4158 64.2192 -77.5271 -88.2388 63.6113 
-78.4215 -87.3402 63.2247 -79.2865 -86.6112 63.0201 -80.0849 -85.9178 63.0295 
-73.7678 -110.407 81.4509 -73.6801 -111.515 80.466 -73.501 -112.521 79.3753 
-73.2603 -113.492 78.051 -73.0539 -114.352 76.4714 -72.7316 -114.728 74.8135 
-72.1604 -114.602 73.223 -71.6287 -114.259 71.7865 -71.4362 -113.744 70.6416 
-80.9643 -82.9764 73.9332 -81.3363 -82.4814 72.8029 -81.6634 -82.1014 71.5393 
-81.7667 -81.9595 70.01 -81.8276 -82.1476 68.227 -81.9836 -82.4652 66.5307 
-81.9475 -82.7876 65.204 -81.5942 -83.3561 64.261 -81.1702 -84.2653 63.6388 
-83.516 -92.2965 72.101 -82.9376 -92.3077 73.1793 -82.6342 -93.133 72.6535 
-82.3903 -92.5615 74.4448 -82.0228 -93.389 73.9424 -81.6507 -94.3314 73.4697 
-82.0945 -93.2848 75.8371 -81.6032 -93.989 75.3328 -81.1833 -94.9271 74.9047 
-80.6427 -95.6905 74.3878 -81.9244 -94.3286 77.3737 -81.5425 -95.0307 76.7234 
-81.0248 -95.8338 76.2318 -80.4428 -96.5209 75.6954 -79.7872 -97.0789 75.1062 
-81.6913 -95.299 79.0499 -81.5197 -96.169 78.1949 -81.088 -96.9368 77.4446 
-80.4451 -97.531 76.8177 -79.7188 -98.0402 76.179 -79.089 -98.6887 75.5198 
-81.4642 -96.0169 80.5037 -81.2992 -97.0169 79.6768 -80.9613 -97.8702 78.7383 
-80.3695 -98.4674 77.9625 -79.6465 -98.9696 77.2876 -79.0255 -99.6406 76.5607 
-78.554 -100.418 75.8279 -81.0825 -96.4841 81.4802 -80.8967 -97.5103 80.8756 
-80.5946 -98.4731 80.0313 -80.0892 -99.1942 79.2127 -79.4106 -99.7331 78.5015 
-78.8619 -100.428 77.7313 -78.5355 -101.292 76.8879 -78.1644 -102.018 76.1386 
-84.8712 -90.7612 72.1651 -85.0894 -89.8257 72.648 -84.3931 -90.8954 73.3193 
-84.7974 -88.7568 73.2082 -84.6279 -89.996 74.1245 -83.8332 -91.1115 74.7418 
-84.2849 -87.6538 73.7071 -84.4539 -88.8416 74.7816 -84.093 -90.1886 75.6171 
-83.3094 -91.5226 76.0842 -83.657 -86.7568 74.025 -83.8883 -87.7685 75.0342 
-83.8521 -88.986 75.9907 -83.386 -90.5086 76.6966 -82.6607 -92.0844 77.3241 
-82.7725 -86.0757 74.2738 -82.9762 -86.9899 75.2086 -83.0441 -88.0004 76.1223 
-82.9101 -89.3488 76.9593 -82.5026 -90.9867 77.8183 -82.019 -92.685 78.8046 
-81.9069 -85.4353 74.6469 -82.1021 -86.3179 75.5992 -82.1432 -87.3083 76.5476 
-82.1202 -88.5268 77.403 -82.0697 -89.9697 78.2685 -81.9001 -91.5826 79.2752 
-81.7225 -93.3174 80.2709 -81.311 -84.8228 75.176 -81.5257 -85.6636 76.1159 
-81.5938 -86.6556 77.1134 -81.5209 -87.9234 78.015 -81.5281 -89.3005 78.8223 
-81.5909 -90.6689 79.6831 -81.5826 -92.2244 80.5885 -81.4591 -93.9314 81.3311 
-80.3884 -84.4989 76.9282 -79.6719 -84.7352 78.2385 -80.4925 -85.2841 77.9468 
-78.9539 -85.1778 79.4922 -79.714 -85.5927 79.2614 -80.4961 -86.3775 78.8194 
-78.3507 -86.0516 80.4487 -79.0487 -86.2704 80.3739 -79.6642 -87.0196 79.8969 
-80.3703 -87.9753 79.4556 -77.4727 -87.2406 81.1908 -78.3901 -87.3753 81.2663 
-78.9631 -88.0248 80.891 -79.511 -88.9025 80.3766 -80.2681 -89.5857 80.1241 
-76.4502 -88.5859 81.8006 -77.3941 -88.6379 82.1123 -78.2359 -89.1787 81.9787 
-78.8234 -89.9445 81.5232 -79.4692 -90.4981 81.1652 -80.3146 -90.8651 80.9989 
-75.833 -90.1564 82.1474 -76.4616 -90.021 82.7606 -77.3248 -90.2741 83.0374 
-78.2191 -90.8666 82.8426 -78.9574 -91.4112 82.4518 -79.6283 -91.7788 82.1398 
[...]
POINT_DATA 1002
FIELD FieldData 2
Theta 1 1002 float
2.58802 2.58802 0.553574 0.553574 2.12437 1.01722 2.12437 1.01722 1.5708 
1.5708 1.5708 1.5708 2.68241 2.78649 2.89924 3.01861 3.14159 3.01861 
2.89924 2.78649 2.68241 2.61035 2.61791 2.60515 2.56958 2.51327 2.44184 
2.36202 2.27983 2.1997 2.61035 2.61791 2.60515 2.56958 2.51327 2.44184 
2.36202 2.27983 2.1997 2.50947 2.41899 2.31794 2.20864 2.0944 1.97902 
1.86631 1.75944 1.66056 2.50947 2.41899 2.31794 2.20864 2.0944 1.97902 
1.86631 1.75944 1.66056 2.61035 2.61791 2.60515 2.56958 2.51327 2.44184 
2.36202 2.27983 2.1997 2.61035 2.61791 2.60515 2.56958 2.51327 2.44184 
2.36202 2.27983 2.1997 2.50947 2.41899 2.31794 2.20864 2.0944 1.97902 
1.86631 1.75944 1.66056 2.50947 2.41899 2.31794 2.20864 2.0944 1.97902 
1.86631 1.75944 1.66056 0.459179 0.355101 0.242354 0.122983 0 0.122983 
0.242354 0.355101 0.459179 0.531246 0.523681 0.536438 0.57201 0.628319 0.699757 
0.779574 0.86176 0.941896 0.531246 0.523681 0.536438 0.57201 0.628319 0.699757 
0.779574 0.86176 0.941896 0.632123 0.7226 0.823657 0.932948 1.0472 1.16257 
1.27528 1.38216 1.48103 0.632123 0.7226 0.823657 0.932948 1.0472 1.16257 
1.27528 1.38216 1.48103 0.531246 0.523681 0.536438 0.57201 0.628319 0.699757 
0.779574 0.86176 0.941896 0.531246 0.523681 0.536438 0.57201 0.628319 0.699757 
0.779574 0.86176 0.941896 0.632123 0.7226 0.823657 0.932948 1.0472 1.16257 
1.27528 1.38216 1.48103 0.632123 0.7226 0.823657 0.932948 1.0472 1.16257 
1.27528 1.38216 1.48103 2.02998 1.9259 1.81315 1.69378 1.5708 1.44781 
1.32844 1.2157 1.11162 2.0928 2.05283 2.00422 1.94767 1.88496 1.81867 
1.75177 1.68695 1.62623 2.0928 2.05283 2.00422 1.94767 1.88496 1.81867 
1.75177 1.68695 1.62623 1.0488 1.08876 1.13737 1.19392 1.25664 1.32292 
1.38982 1.45464 1.51537 1.0488 1.08876 1.13737 1.19392 1.25664 1.32292 
1.38982 1.45464 1.51537 2.02998 1.9259 1.81315 1.69378 1.5708 1.44781 
1.32844 1.2157 1.11162 2.0928 2.05283 2.00422 1.94767 1.88496 1.81867 
1.75177 1.68695 1.62623 2.0928 2.05283 2.00422 1.94767 1.88496 1.81867 
1.75177 1.68695 1.62623 1.0488 1.08876 1.13737 1.19392 1.25664 1.32292 
1.38982 1.45464 1.51537 1.0488 1.08876 1.13737 1.19392 1.25664 1.32292 
1.38982 1.45464 1.51537 1.5708 1.5708 1.5708 1.5708 1.5708 1.5708 
1.5708 1.5708 1.5708 1.5708 1.5708 1.5708 1.5708 1.5708 1.5708 
1.5708 1.5708 1.5708 2.70908 2.71362 2.81592 2.68886 2.81002 2.92597 
2.6349 2.76254 2.89233 3.01997 2.55881 2.68262 2.80854 2.92834 3.01997 
2.47007 2.58462 2.70048 2.80854 2.89233 2.92597 2.37702 2.48017 2.58462 
2.68262 2.76254 2.81002 2.81592 2.28567 2.37702 2.47007 2.55881 2.6349 
2.68886 2.71362 2.70908 2.52097 2.4195 2.51718 2.30791 2.40503 2.49426 
2.18928 2.28408 2.3734 2.45144 2.06758 2.15805 2.24572 2.32523 2.39165 
1.94707 2.03138 2.11543 2.19453 2.26401 2.32035 1.83164 1.90847 1.98711 
2.06376 2.13422 2.1949 2.24359 1.72413 1.79288 1.86489 1.93728 2.00658 
2.06938 2.12312 2.16654 1.5708 1.50988 1.63171 1.44492 1.5708 1.69667 
1.37826 1.5059 1.63569 1.76333 1.31281 1.43962 1.5708 1.70197 1.82878 
1.25155 1.37501 1.50478 1.63681 1.76659 1.89004 1.19686 1.31493 1.44074 
1.5708 1.70086 1.82666 1.94473 1.15011 1.26149 1.38136 1.50697 1.63462 
1.76024 1.88011 1.99148 1.99148 1.88011 1.94473 1.76024 1.82666 1.89004 
1.63462 1.70086 1.76659 1.82878 1.50697 1.5708 1.63681 1.70197 1.76333 
1.38136 1.44074 1.50478 1.5708 1.63569 1.69667 1.26149 1.31493 1.37501 
1.43962 1.5059 1.5708 1.63171 1.15011 1.19686 1.25155 1.31281 1.37826 
1.44492 1.50988 1.5708 2.16654 2.12312 2.24359 2.06938 2.1949 2.32035 
2.00658 2.13422 2.26401 2.39165 1.93728 2.06376 2.19453 2.32523 2.45144 
1.86489 1.98711 2.11543 2.24572 2.3734 2.49426 1.79288 1.90847 2.03138 
2.15805 2.28408 2.40503 2.51718 1.72413 1.83164 1.94707 2.06758 2.18928 
2.30791 2.4195 2.52097 1.66533 1.66946 1.76911 1.67254 1.777 1.88041 
1.67418 1.78222 1.89102 1.99634 1.67418 1.78405 1.89674 2.00785 2.11299 
1.67254 1.78222 1.89674 2.01191 2.12307 2.22608 1.66946 1.777 1.89102 
2.00785 2.12307 2.23222 2.33166 1.66533 1.76911 1.88041 1.99634 2.11299 
2.22608 2.33166 2.42672 1.47626 1.37249 1.47213 1.26118 1.36459 1.46906 
1.14526 1.25058 1.35938 1.46741 1.0286 1.13374 1.24485 1.35755 1.46741 
0.915514 1.01852 1.12969 1.24485 1.35938 1.46906 0.809937 0.909371 1.01852 
1.13374 1.25058 1.36459 1.47213 0.714871 0.809937 0.915514 1.0286 1.14526 
1.26118 1.37249 1.47626 0.975055 0.898002 1.01847 0.821245 0.946693 1.07221 
0.749941 0.877585 1.00737 1.13501 0.690152 0.816367 0.94706 1.07784 1.20431 
0.647337 0.768195 0.895868 1.02616 1.15448 1.2767 0.624416 0.736561 0.857515 
0.983547 1.11021 1.23313 1.34871 0.620619 0.722093 0.833684 0.952313 1.07402 
1.19452 1.30996 1.41746 0.855925 0.764569 0.764569 0.671524 0.661425 0.671524 
0.582786 0.556971 0.556971 0.582786 0.506696 0.458968 0.441109 0.458968 0.506696 
0.45273 0.379052 0.333054 0.333054 0.379052 0.45273 0.427969 0.331576 0.249267 
0.21325 0.249267 0.331576 0.427969 0.432512 0.325669 0.215619 0.121622 0.121622 
0.215619 0.325669 0.432512 0.432512 0.427969 0.325669 0.45273 0.331576 0.215619 
0.506696 0.379052 0.249267 0.121622 0.582786 0.458968 0.333054 0.21325 0.121622 
0.671524 0.556971 0.441109 0.333054 0.249267 0.215619 0.764569 0.661425 0.556971 
0.458968 0.379052 0.331576 0.325669 0.855925 0.764569 0.671524 0.582786 0.506696 
0.45273 0.427969 0.432512 0.975055 1.01847 0.898002 1.07221 0.946693 0.821245 
1.13501 1.00737 0.877585 0.749941 1.20431 1.07784 0.94706 0.816367 0.690152 
1.2767 1.15448 1.02616 0.895868 0.768195 0.647337 1.34871 1.23313 1.11021 
0.983547 0.857515 0.736561 0.624416 1.41746 1.30996 1.19452 1.07402 0.952313 
0.833684 0.722093 0.620619 1.15011 1.26149 1.19686 1.38136 1.31493 1.25155 
1.50697 1.44074 1.37501 1.31281 1.63462 1.5708 1.50478 1.43962 1.37826 
1.76024 1.70086 1.63681 1.5708 1.5059 1.44492 1.88011 1.82666 1.76659 
1.70197 1.63569 1.5708 1.50988 1.99148 1.94473 1.89004 1.82878 1.76333 
1.69667 1.63171 1.5708 1.15011 1.19686 1.26149 1.25155 1.31493 1.38136 
1.31281 1.37501 1.44074 1.50697 1.37826 1.43962 1.50478 1.5708 1.63462 
1.44492 1.5059 1.5708 1.63681 1.70086 1.76024 1.50988 1.5708 1.63569 
1.70197 1.76659 1.82666 1.88011 1.5708 1.63171 1.69667 1.76333 1.82878 
1.89004 1.94473 1.99148 1.72413 1.83164 1.79288 1.94707 1.90847 1.86489 
2.06758 2.03138 1.98711 1.93728 2.18928 2.15805 2.11543 2.06376 2.00658 
2.30791 2.28408 2.24572 2.19453 2.13422 2.06938 2.4195 2.40503 2.3734 
2.32523 2.26401 2.1949 2.12312 2.52097 2.51718 2.49426 2.45144 2.39165 
2.32035 2.24359 2.16654 2.70908 2.81592 2.71362 2.92597 2.81002 2.68886 
3.01997 2.89233 2.76254 2.6349 3.01997 2.92834 2.80854 2.68262 2.55881 
2.92597 2.89233 2.80854 2.70048 2.58462 2.47007 2.81592 2.81002 2.76254 
2.68262 2.58462 2.48017 2.37702 2.70908 2.71362 2.68886 2.6349 2.55881 
2.47007 2.37702 2.28567 2.16654 2.24359 2.12312 2.32035 2.1949 2.06938 
2.39165 2.26401 2.13422 2.00658 2.45144 2.32523 2.19453 2.06376 1.93728 
2.49426 2.3734 2.24572 2.11543 1.98711 1.86489 2.51718 2.40503 2.28408 
2.15805 2.03138 1.90847 1.79288 2.52097 2.4195 2.30791 2.18928 2.06758 
1.94707 1.83164 1.72413 1.66533 1.76911 1.66946 1.88041 1.777 1.67254 
1.99634 1.89102 1.78222 1.67418 2.11299 2.00785 1.89674 1.78405 1.67418 
2.22608 2.12307 2.01191 1.89674 1.78222 1.67254 2.33166 2.23222 2.12307 
2.00785 1.89102 1.777 1.66946 2.42672 2.33166 2.22608 2.11299 1.99634 
1.88041 1.76911 1.66533 1.47626 1.47213 1.37249 1.46906 1.36459 1.26118 
1.46741 1.35938 1.25058 1.14526 1.46741 1.35755 1.24485 1.13374 1.0286 
1.46906 1.35938 1.24485 1.12969 1.01852 0.915514 1.47213 1.36459 1.25058 
1.13374 1.01852 0.909371 0.809937 1.47626 1.37249 1.26118 1.14526 1.0286 
0.915514 0.809937 0.714871 1.41746 1.30996 1.34871 1.19452 1.23313 1.2767 
1.07402 1.11021 1.15448 1.20431 0.952313 0.983547 1.02616 1.07784 1.13501 
0.833684 0.857515 0.895868 0.94706 1.00737 1.07221 0.722093 0.736561 0.768195 
0.816367 0.877585 0.946693 1.01847 0.620619 0.624416 0.647337 0.690152 0.749941 
0.821245 0.898002 0.975055 0.975055 0.898002 1.01847 0.821245 0.946693 1.07221 
0.749941 0.877585 1.00737 1.13501 0.690152 0.816367 0.94706 1.07784 1.20431 
0.647337 0.768195 0.895868 1.02616 1.15448 1.2767 0.624416 0.736561 0.857515 
0.983547 1.11021 1.23313 1.34871 0.620619 0.722093 0.833684 0.952313 1.07402 
1.19452 1.30996 1.41746 
Phi 1 1002 float
6.28319 3.14159 6.28319 3.14159 4.71239 4.71239 1.5708 1.5708 3.69517 
5.72961 2.58802 0.553574 6.28319 6.28319 6.28319 6.28319 3.14159 3.14159 
3.14159 3.14159 3.14159 6.1053 5.8988 5.67687 5.45995 5.26596 5.10322 
4.97131 4.86569 4.78095 0.177881 0.384387 0.606312 0.823235 1.01722 1.17997 
1.31187 1.4175 1.50223 6.18928 6.10703 6.03531 5.97283 5.91832 5.87061 
5.82869 5.79168 5.75886 0.0939024 0.176153 0.247873 0.310351 0.364864 0.412573 
0.454497 0.491504 0.524326 3.31947 3.52598 3.7479 3.96483 4.15881 4.32156 
4.45346 4.55909 4.64383 2.96371 2.75721 2.53528 2.31836 2.12437 1.96162 
1.82972 1.72409 1.63936 3.2355 3.31775 3.38947 3.45194 3.50646 3.55417 
3.59609 3.6331 3.66592 3.04769 2.96544 2.89372 2.83124 2.77673 2.72902 
2.6871 2.65009 2.61727 6.28319 6.28319 6.28319 6.28319 3.14159 3.14159 
3.14159 3.14159 3.14159 6.1053 5.8988 5.67687 5.45995 5.26596 5.10322 
4.97131 4.86569 4.78095 0.177881 0.384387 0.606312 0.823235 1.01722 1.17997 
1.31187 1.4175 1.50223 6.18928 6.10703 6.03531 5.97283 5.91832 5.87061 
5.82869 5.79168 5.75886 0.0939024 0.176153 0.247873 0.310351 0.364864 0.412573 
0.454497 0.491504 0.524326 3.31947 3.52598 3.7479 3.96483 4.15881 4.32156 
4.45346 4.55909 4.64383 2.96371 2.75721 2.53528 2.31836 2.12437 1.96162 
1.82972 1.72409 1.63936 3.2355 3.31775 3.38947 3.45194 3.50646 3.55417 
3.59609 3.6331 3.66592 3.04769 2.96544 2.89372 2.83124 2.77673 2.72902 
2.6871 2.65009 2.61727 4.71239 4.71239 4.71239 4.71239 4.71239 4.71239 
4.71239 4.71239 4.71239 4.60879 4.49914 4.3857 4.27128 4.15881 4.05096 
3.94976 3.85646 3.77161 4.81599 4.92564 5.03907 5.1535 5.26596 5.37381 
5.47502 5.56831 5.65317 4.60879 4.49914 4.3857 4.27128 4.15881 4.05096 
3.94976 3.85646 3.77161 4.81599 4.92564 5.03907 5.1535 5.26596 5.37381 
5.47502 5.56831 5.65317 1.5708 1.5708 1.5708 1.5708 1.5708 1.5708 
1.5708 1.5708 1.5708 1.6744 1.78405 1.89748 2.01191 2.12437 2.23222 
2.33343 2.42672 2.51157 1.4672 1.35755 1.24411 1.12969 1.01722 0.909371 
0.808166 0.714871 0.63002 1.6744 1.78405 1.89748 2.01191 2.12437 2.23222 
2.33343 2.42672 2.51157 1.4672 1.35755 1.24411 1.12969 1.01722 0.909371 
0.808166 0.714871 0.63002 3.60077 3.49669 3.38395 3.26458 3.14159 3.01861 
2.89924 2.78649 2.68241 5.82401 5.92808 6.04083 6.1602 6.28319 0.122983 
0.242354 0.355101 0.459179 6.05603 5.78856 5.97021 5.51259 5.60297 5.78856 
5.26596 5.26596 5.26596 5.26596 5.06749 5.0121 4.91556 4.71239 4.15881 
4.91556 4.83537 4.71239 4.50922 4.15881 3.63622 4.80045 4.71239 4.58941 
4.41268 4.15881 3.82181 3.45456 4.71239 4.62433 4.50922 4.35729 4.15881 
3.91219 3.63622 3.36875 6.01742 5.94343 5.82633 5.88092 5.76745 5.62798 
5.8278 5.71897 5.58911 5.43724 5.78235 5.67854 5.55757 5.41926 5.26596 
5.74316 5.64441 5.5315 5.40467 5.26596 5.11955 5.70914 5.61528 5.50962 
5.3926 5.26596 5.13292 4.99789 5.67937 5.59016 5.49102 5.38246 5.26596 
5.14407 5.02016 4.89798 5.56831 5.47502 5.47502 5.37381 5.37381 5.37381 
5.26596 5.26596 5.26596 5.26596 5.1535 5.1535 5.1535 5.1535 5.1535 
5.03907 5.03907 5.03907 5.03907 5.03907 5.03907 4.92564 4.92564 4.92564 
4.92564 4.92564 4.92564 4.92564 4.81599 4.81599 4.81599 4.81599 4.81599 
4.81599 4.81599 4.81599 4.60879 4.60879 4.49914 4.60879 4.49914 4.3857 
4.60879 4.49914 4.3857 4.27128 4.60879 4.49914 4.3857 4.27128 4.15881 
4.60879 4.49914 4.3857 4.27128 4.15881 4.05096 4.60879 4.49914 4.3857 
4.27128 4.15881 4.05096 3.94976 4.60879 4.49914 4.3857 4.27128 4.15881 
4.05096 3.94976 3.85646 4.5268 4.40462 4.42689 4.28071 4.29185 4.30523 
4.15881 4.15881 4.15881 4.15881 4.04232 4.03217 4.02011 4.00552 3.98753 
3.93376 3.91515 3.89328 3.86721 3.83566 3.7968 3.83461 3.8095 3.78037 
3.74624 3.70581 3.65733 3.59845 3.7454 3.71564 3.68161 3.64243 3.59698 
3.54386 3.48135 3.40735 3.56428 3.45246 3.52338 3.33203 3.40312 3.47739 
3.20576 3.27463 3.34802 3.42551 3.07742 3.14159 3.21128 3.28647 3.36688 
2.95116 3.00855 3.0719 3.14159 3.21784 3.3006 2.83072 2.88006 2.93517 
2.99672 3.06535 3.14159 3.22575 2.7189 2.7598 2.8058 2.85768 2.9163 
2.98259 3.05743 3.14159 3.56428 3.52338 3.45246 3.47739 3.40312 3.33203 
3.42551 3.34802 3.27463 3.20576 3.36688 3.28647 3.21128 3.14159 3.07742 
3.3006 3.21784 3.14159 3.0719 3.00855 2.95116 3.22575 3.14159 3.06535 
2.99672 2.93517 2.88006 2.83072 3.14159 3.05743 2.98259 2.9163 2.85768 
2.8058 2.7598 2.7189 4.5268 4.42689 4.40462 4.30523 4.29185 4.28071 
4.15881 4.15881 4.15881 4.15881 3.98753 4.00552 4.02011 4.03217 4.04232 
3.7968 3.83566 3.86721 3.89328 3.91515 3.93376 3.59845 3.65733 3.70581 
3.74624 3.78037 3.8095 3.83461 3.40735 3.48135 3.54386 3.59698 3.64243 
3.68161 3.71564 3.7454 4.71239 4.80045 4.62433 4.91556 4.71239 4.50922 
5.06749 4.83537 4.58941 4.35729 5.26596 5.0121 4.71239 4.41268 4.15881 
5.51259 5.26596 4.91556 4.50922 4.15881 3.91219 5.78856 5.60297 5.26596 
4.71239 4.15881 3.82181 3.63622 6.05603 5.97021 5.78856 5.26596 4.15881 
3.63622 3.45456 3.36875 0.227158 0.494626 0.312971 0.770593 0.680215 0.494626 
1.01722 1.01722 1.01722 1.01722 1.2157 1.27109 1.36763 1.5708 2.12437 
1.36763 1.44781 1.5708 1.77397 2.12437 2.64697 1.48273 1.5708 1.69378 
1.8705 2.12437 2.46138 2.82862 1.5708 1.65886 1.77397 1.9259 2.12437 
2.371 2.64697 2.91443 1.75639 1.87857 1.8563 2.00248 1.99133 1.97796 
2.12437 2.12437 2.12437 2.12437 2.24087 2.25101 2.26308 2.27767 2.29565 
2.34943 2.36803 2.38991 2.41597 2.44752 2.48639 2.44857 2.47368 2.50281 
2.53694 2.57738 2.62586 2.68474 2.53778 2.56754 2.60157 2.64076 2.68621 
2.73933 2.80184 2.87583 1.6744 1.6744 1.78405 1.6744 1.78405 1.89748 
1.6744 1.78405 1.89748 2.01191 1.6744 1.78405 1.89748 2.01191 2.12437 
1.6744 1.78405 1.89748 2.01191 2.12437 2.23222 1.6744 1.78405 1.89748 
2.01191 2.12437 2.23222 2.33343 1.6744 1.78405 1.89748 2.01191 2.12437 
2.23222 2.33343 2.42672 1.4672 1.35755 1.4672 1.24411 1.35755 1.4672 
1.12969 1.24411 1.35755 1.4672 1.01722 1.12969 1.24411 1.35755 1.4672 
0.909371 1.01722 1.12969 1.24411 1.35755 1.4672 0.808166 0.909371 1.01722 
1.12969 1.24411 1.35755 1.4672 0.714871 0.808166 0.909371 1.01722 1.12969 
1.24411 1.35755 1.4672 0.603812 0.57405 0.693022 0.540021 0.667908 0.792164 
0.500837 0.638778 0.773562 0.900726 0.455383 0.604649 0.751687 0.890581 1.01722 
0.402264 0.564217 0.725619 0.878514 1.01722 1.13912 0.339753 0.515737 0.694072 
0.863926 1.01722 1.15026 1.26302 0.265762 0.456853 0.655207 0.845941 1.01722 
1.16363 1.28529 1.38521 0.227158 0.312971 0.494626 0.494626 0.680215 0.770593 
1.01722 1.01722 1.01722 1.01722 2.12437 1.5708 1.36763 1.27109 1.2157 
2.64697 2.12437 1.77397 1.5708 1.44781 1.36763 2.82862 2.46138 2.12437 
1.8705 1.69378 1.5708 1.48273 2.91443 2.64697 2.371 2.12437 1.9259 
1.77397 1.65886 1.5708 1.75639 1.8563 1.87857 1.97796 1.99133 2.00248 
2.12437 2.12437 2.12437 2.12437 2.29565 2.27767 2.26308 2.25101 2.24087 
2.48639 2.44752 2.41597 2.38991 2.36803 2.34943 2.68474 2.62586 2.57738 
2.53694 2.50281 2.47368 2.44857 2.87583 2.80184 2.73933 2.68621 2.64076 
2.60157 2.56754 2.53778 5.86049 5.90139 5.97231 5.94739 6.02165 6.09275 
5.99927 6.07676 6.15015 6.21902 6.0579 6.13831 6.2135 0 0.0641696 
6.12418 6.20694 6.28319 0.069689 0.13304 0.190437 6.19903 0 0.0762451 
0.144876 0.206423 0.261531 0.310872 0 0.0841597 0.159004 0.225289 0.283913 
0.335793 0.381792 0.422692 5.86049 5.97231 5.90139 6.09275 6.02165 5.94739 
6.21902 6.15015 6.07676 5.99927 0.0641696 0 6.2135 6.13831 6.0579 
0.190437 0.13304 0.069689 6.28319 6.20694 6.12418 0.310872 0.261531 0.206423 
0.144876 0.0762451 6.28319 6.19903 0.422692 0.381792 0.335793 0.283913 0.225289 
0.159004 0.0841597 0 5.67937 5.70914 5.59016 5.74316 5.61528 5.49102 
5.78235 5.64441 5.50962 5.38246 5.8278 5.67854 5.5315 5.3926 5.26596 
5.88092 5.71897 5.55757 5.40467 5.26596 5.14407 5.94343 5.76745 5.58911 
5.41926 5.26596 5.13292 5.02016 6.01742 5.82633 5.62798 5.43724 5.26596 
5.11955 4.99789 4.89798 1.38521 1.28529 1.26302 1.16363 1.15026 1.13912 
1.01722 1.01722 1.01722 1.01722 0.845941 0.863926 0.878514 0.890581 0.900726 
0.655207 0.694072 0.725619 0.751687 0.773562 0.792164 0.456853 0.515737 0.564217 
0.604649 0.638778 0.667908 0.693022 0.265762 0.339753 0.402264 0.455383 0.500837 
0.540021 0.57405 0.603812 
