# vtk DataFile Version 4.0
vtk output
ASCII
DATASET POLYDATA
POINTS 1002 float
-83.6441 -88.8773 70.5999 -76.2117 -103.195 74.8281 -72.5886 -84.6761 70.6745 
-68.855 -101.555 73.0177 -78.4877 -94.7498 80.9704 -71.498 -90.9972 81.4716 
-77.0829 -95.7242 67.1509 -70.9875 -95.4046 66.7953 -71.5634 -108.271 80.6272 
-79.2518 -81.3636 73.6245 -71.2848 -111.466 67.6352 -81.5981 -81.7179 63.7281 
-82.8611 -89.7306 70.8215 -81.9567 -90.8445 71.4109 -80.8902 -92.2093 72.3944 
-79.8387 -93.6752 73.2917 -79.0899 -95.3237 73.7761 -78.4786 -97.1217 74.1244 
-77.7109 -98.7178 74.5266 -76.975 -100.122 74.8102 -76.5006 -101.616 74.8831 
-83.2384 -89.0716 71.4676 -82.7965 -89.358 72.4458 -82.0941 -89.806 73.5385 
-81.4092 -90.5242 74.9131 -81.1942 -91.3698 76.5688 -80.973 -92.0638 77.9852 
-80.193 -92.6954 78.7687 -79.319 -93.4603 79.3046 -78.8138 -94.2116 80.0735 
-83.6533 -89.2617 69.8938 -83.6061 -89.7954 69.2237 -83.3418 -90.4363 68.5837 
-82.7713 -91.015 67.9827 -81.8658 -91.5552 67.5063 -80.7591 -92.2586 67.234 
-79.7585 -93.1203 67.1712 -78.8915 -93.9987 67.2165 -77.985 -94.8579 67.2237 
-84.0561 -88.0778 70.9595 -84.2718 -86.9832 71.2241 -84.1285 -85.7012 71.3222 
-83.5879 -84.5694 71.3486 -82.8152 -83.7238 71.4525 -82.0982 -83.0178 71.7847 
-81.4982 -82.3411 72.3658 -80.8265 -81.7755 72.9461 -80.0375 -81.4562 73.3329 
-84.4482 -88.2766 70 -85.2393 -87.5369 69.2551 -85.6512 -86.557 68.2856 
-85.6341 -85.3835 67.1471 -85.5294 -84.2055 65.9435 -85.3501 -83.2591 64.8515 
-84.7937 -82.6449 64.1368 -83.8433 -82.2281 63.8494 -82.7162 -81.8971 63.769 
-76.5967 -102.687 75.4444 -77.1903 -102.281 76.0927 -77.8268 -101.887 76.8786 
-78.1828 -101.194 77.8646 -78.3676 -100.142 78.9081 -78.6705 -99.0066 79.7945 
-78.8681 -97.9283 80.392 -78.7573 -96.8869 80.6887 -78.5731 -95.84 80.8307 
-76.0516 -102.679 74.2426 -75.8559 -102.03 73.5881 -75.6813 -101.291 72.8449 
-75.6842 -100.491 71.9945 -75.827 -99.614 71.1036 -75.943 -98.7036 70.2651 
-76.1284 -97.8771 69.4079 -76.4877 -97.1547 68.5112 -76.8518 -96.4494 67.7396 
-76.1402 -104.446 75.1793 -76.0015 -105.65 75.7117 -75.7421 -106.678 76.379 
-75.2523 -107.389 76.9906 -74.5293 -107.799 77.5431 -73.8853 -108.091 78.2057 
-73.4984 -108.335 78.97 -73.0695 -108.497 79.6977 -72.3652 -108.517 80.2781 
-75.8888 -104.577 74.3285 -75.5927 -106.017 73.6949 -75.2919 -107.414 73.0026 
-74.8436 -108.726 72.3711 -74.1768 -109.749 71.7581 -73.5487 -110.481 70.9496 
-73.1289 -111.15 69.9396 -72.696 -111.61 68.9791 -72.0581 -111.66 68.2156 
-72.0236 -85.8335 70.9587 -71.3754 -87.158 71.3423 -70.6193 -88.6161 71.8182 
-69.951 -90.296 72.3318 -69.4676 -92.1643 72.7655 -69.1166 -94.1571 73.0748 
-68.9771 -96.3402 73.2849 -69.009 -98.4833 73.3116 -68.9838 -100.216 73.1529 
-72.3063 -84.8942 71.5942 -72.1604 -85.3514 72.7061 -72.1668 -86.1009 73.8324 
-72.1155 -86.886 74.938 -71.836 -87.4623 76.2273 -71.5322 -88.0651 77.6009 
-71.4427 -88.8815 78.752 -71.4731 -89.6618 79.7363 -71.4793 -90.3056 80.6818 
-72.5078 -85.1764 70.0076 -72.3012 -85.7154 69.3328 -72.0475 -86.4784 68.6789 
-71.8797 -87.5832 68.0972 -71.6742 -88.7318 67.5973 -71.3419 -89.75 67.1674 
-71.1184 -91.002 66.9087 -71.0814 -92.5774 66.8762 -71.0593 -94.0991 66.8963 
-73.0056 -83.6986 70.9435 -73.5557 -82.7703 71.2186 -74.2096 -81.9924 71.5295 
-74.8548 -81.1864 71.9961 -75.4977 -80.2584 72.6406 -76.254 -79.6786 73.1816 
-77.1464 -79.8192 73.3617 -78.027 -80.3691 73.3442 -78.7318 -80.9078 73.4181 
-73.2451 -83.9905 70.0399 -74.0931 -83.3503 69.3468 -75.0017 -82.6247 68.4782 
-75.901 -81.8601 67.4861 -76.8147 -81.2398 66.5232 -77.7091 -80.8289 65.6416 
-78.6052 -80.687 64.8807 -79.5946 -80.8547 64.3223 -80.634 -81.2288 63.9645 
-69.0738 -100.828 73.9848 -69.0336 -99.8314 75.2546 -68.9608 -98.5972 76.4616 
-69.0495 -97.3302 77.4632 -69.3212 -96.1262 78.3894 -69.6631 -94.8693 79.264 
-69.9307 -93.5896 80.0401 -70.2402 -92.5023 80.7101 -70.7927 -91.6745 81.2015 
-68.3742 -101.315 72.4842 -67.7157 -100.857 72.0989 -67.4831 -100.323 71.361 
-67.8147 -99.9033 70.2119 -68.1759 -99.5493 69.1755 -68.4849 -99.0486 68.4086 
-69.0214 -98.3055 67.7254 -69.6566 -97.387 67.2144 -70.2763 -96.3993 66.9523 
-68.8783 -102.404 73.6211 -68.8881 -103.395 74.5788 -69.0496 -104.588 75.5233 
-69.2876 -105.719 76.196 -69.5157 -106.567 76.9351 -69.7944 -107.248 77.9656 
-70.0416 -107.81 78.9326 -70.2933 -108.182 79.6439 -70.8035 -108.347 80.2128 
-68.525 -102.8 72.6379 -68.2798 -104.245 72.4334 -68.2631 -105.597 72.0973 
-68.5663 -106.708 71.3709 -69.03 -108.003 70.4899 -69.225 -109.599 69.6976 
-69.223 -110.929 68.876 -69.5876 -111.606 68.1219 -70.4024 -111.707 67.7152 
-78.1045 -94.2727 81.5059 -77.3603 -93.7857 81.7422 -76.4662 -93.4082 81.8296 
-75.79 -93.0372 82.2349 -75.1494 -92.5569 82.8128 -74.236 -92.1045 82.9035 
-73.311 -91.7555 82.534 -72.608 -91.4235 82.1873 -72.02 -91.1413 81.8999 
-78.1163 -95.8101 81.6951 -77.5474 -96.8201 82.1975 -76.6812 -97.9689 82.264 
-75.6478 -99.4169 82.0332 -74.7599 -101.18 81.878 -74.0851 -103.159 81.9306 
-73.4366 -105.051 81.9897 -72.7671 -106.503 81.8017 -72.138 -107.494 81.3039 
-78.6816 -93.2324 80.608 -78.8215 -91.5989 80.1378 -78.7501 -90.1473 79.3272 
-78.6343 -88.7963 78.2902 -78.7585 -87.2576 77.3951 -78.9924 -85.6655 76.6358 
-79.0986 -84.2893 75.8503 -79.1393 -83.1248 75.0788 -79.2057 -82.145 74.3403 
-71.1752 -92.2855 81.9691 -71.1031 -93.799 82.2714 -71.1926 -95.5355 82.3144 
-71.0711 -97.5699 82.236 -70.8034 -99.7764 82.1445 -70.777 -101.914 81.9697 
-70.9126 -103.956 81.7727 -71.015 -105.815 81.5894 -71.2053 -107.256 81.2256 
-72.1555 -89.8246 81.2037 -72.6925 -88.5626 80.873 -73.228 -87.3266 80.3625 
-74.0282 -86.1251 79.535 -74.9965 -84.8495 78.5983 -75.8998 -83.6657 77.787 
-76.7568 -82.8607 76.8519 -77.6122 -82.3284 75.64 -78.452 -81.828 74.4835 
-76.6344 -95.8006 66.7787 -76.1918 -95.8624 66.4093 -75.7197 -95.9949 66.0707 
-74.9583 -96.202 65.9164 -73.9629 -96.3163 65.9953 -73.1863 -96.2208 66.1229 
-72.6571 -95.987 66.2036 -72.0825 -95.7418 66.34 -71.4788 -95.5545 66.5664 
-76.1806 -97.2476 67.3227 -75.4125 -99.165 67.4553 -74.6264 -101.199 67.5725 
-73.7773 -103.061 67.4448 -73.242 -104.888 66.9762 -73.0731 -106.711 66.582 
-72.8141 -108.211 66.6209 -72.34 -109.409 66.9202 -71.8135 -110.526 67.2425 
-77.8436 -94.4394 66.5539 -78.7106 -93.0763 65.713 -79.6598 -91.5384 64.854 
-80.6829 -89.9406 64.143 -81.6194 -88.5546 63.4802 -82.1794 -87.2013 62.9625 
-82.3051 -85.5422 62.8323 -82.1818 -83.8674 63.03 -81.938 -82.61 63.3654 
-70.4594 -97.3889 66.6338 -70.094 -99.5638 66.3877 -69.9334 -101.71 66.0541 
-69.8173 -103.628 65.4056 -69.7436 -105.275 64.7079 -69.9229 -106.76 64.7533 
-70.2599 -108.196 65.5196 -70.5446 -109.534 66.3002 -70.8575 -110.635 66.9262 
-71.9209 -93.6002 66.629 -72.916 -91.8367 66.1404 -73.838 -90.2183 65.4036 
-74.8844 -88.6028 64.7139 -76.1629 -86.9419 64.2082 -77.417 -85.4513 63.7736 
-78.5497 -84.1894 63.4196 -79.6565 -83.0907 63.3186 -80.6949 -82.2525 63.4773 
-71.486 -109.4 79.7319 -71.4182 -110.648 78.79 -71.4781 -111.614 77.7245 
-71.6742 -112.417 76.3014 -71.6777 -113.476 74.542 -71.4084 -114.159 72.8552 
-71.23 -113.806 71.3999 -71.239 -113.009 69.9743 -71.2645 -112.283 68.6307 
-79.711 -80.697 72.7114 -80.1396 -80.0471 71.6604 -80.59 -79.3941 70.4411 
-81.0539 -78.8761 69.1535 -81.4994 -78.6103 67.8465 -81.9037 -78.5645 66.5168 
-82.1141 -78.9458 65.3633 -82.0523 -79.8538 64.5928 -81.8503 -80.8804 64.1139 
-82.4406 -90.0959 71.8637 -81.9442 -90.6433 73.0747 -81.4733 -91.4132 72.6915 
-81.3827 -91.4519 74.4368 -81.0099 -92.2207 74.0779 -80.4253 -92.9331 73.7393 
-81.1851 -92.4874 76.0072 -80.8183 -93.3268 75.4598 -80.1793 -93.8826 75.0252 
-79.5848 -94.5403 74.449 -81.2174 -93.402 77.5723 -80.9557 -94.5152 76.8149 
-80.2584 -95.0632 76.1224 -79.5582 -95.5499 75.5067 -79.0004 -96.3274 74.786 
-80.6826 -94.0348 78.6564 -80.7748 -95.3664 78.0593 -80.2632 -96.1796 77.1677 
-79.5923 -96.6926 76.3869 -78.997 -97.4037 75.7271 -78.345 -98.1596 75.0929 
-79.6913 -94.6568 79.2755 -80.0228 -95.9141 79.0467 -79.8655 -96.948 78.3608 
-79.394 -97.7435 77.4209 -78.9672 -98.572 76.58 -78.3675 -99.3087 75.921 
-77.5978 -99.7646 75.359 -78.9616 -95.3304 79.9463 -79.2585 -96.4338 79.8597 
-79.3369 -97.4867 79.5072 -79.0494 -98.5043 78.7219 -78.7605 -99.5596 77.7051 
-78.4233 -100.448 76.7664 -77.7497 -100.926 76.0452 -77.0088 -101.218 75.4583 
-83.6228 -88.202 71.8587 -83.7193 -87.0702 72.1059 -83.0026 -88.3798 72.7731 
-83.3926 -85.8694 72.1884 -82.8861 -87.2502 72.9943 -82.0642 -88.7769 73.8307 
-82.7646 -84.854 72.3426 -82.504 -86.1672 73.2366 -81.9102 -87.759 74.1348 
-81.3311 -89.5156 75.2753 -82.1499 -84.022 72.7246 -82.0233 -85.2176 73.6981 
-81.6588 -86.8294 74.5748 -81.2055 -88.6443 75.5795 -80.9945 -90.3348 76.8724 
-81.627 -83.2996 73.2444 -81.5272 -84.4243 74.215 -81.1902 -85.9567 75.0861 
-80.8005 -87.8318 75.8728 -80.5542 -89.5172 76.9104 -80.4165 -91.0111 78.033 
-80.9465 -82.7114 73.7168 -80.8779 -83.8407 74.5565 -80.5429 -85.2526 75.4017 
-80.1088 -87.0089 76.1246 -79.8491 -88.7495 76.9321 -79.763 -90.2039 77.9494 
-79.5985 -91.7257 78.7903 -80.0642 -82.325 74.0517 -80.0108 -83.4252 74.79 
-79.8209 -84.7367 75.5778 -79.4823 -86.2946 76.3332 -79.1871 -87.9748 77.09 
-79.1515 -89.4674 78.0522 -79.1919 -90.8895 79.0096 -79.0449 -92.5307 79.6389 
-78.3785 -82.6833 75.3134 -77.6345 -83.2317 76.5193 -78.3898 -83.7056 76.1484 
-76.9081 -83.9612 77.5992 -77.7771 -84.3562 77.3458 -78.4639 -84.9434 76.9962 
-76.0717 -85.0751 78.5065 -77.0471 -85.3269 78.4067 -77.7989 -85.7805 78.2122 
-78.36 -86.5082 77.8196 -75.0904 -86.2515 79.6265 -76.1343 -86.451 79.5545 
-76.9086 -86.8336 79.3782 -77.5349 -87.5205 79.056 -78.1239 -88.2308 78.6585 
-74.1028 -87.2502 80.7555 -75.1533 -87.3818 80.836 -76.0347 -87.786 80.6033 
-76.6592 -88.5156 80.1979 -77.3284 -89.2374 79.8783 -78.1138 -89.7195 79.6601 
-73.3191 -88.3966 81.3928 -74.1768 -88.4615 81.6754 -75.1698 -88.8162 81.6247 
-75.983 -89.4936 81.228 -76.5927 -90.2233 80.8182 -77.379 -90.7035 80.7106 
[...]
POINT_DATA 1002
FIELD FieldData 2
Theta 1 1002 float
2.58802 2.58802 0.553574 0.553574 2.12437 1.01722 2.12437 1.01722 1.5708 
1.5708 1.5708 1.5708 2.68241 2.78649 2.89924 3.01861 3.14159 3.01861 
2.89924 2.78649 2.68241 2.61035 2.61791 2.60515 2.56958 2.51327 2.44184 
2.36202 2.27983 2.1997 2.61035 2.61791 2.60515 2.56958 2.51327 2.44184 
2.36202 2.27983 2.1997 2.50947 2.41899 2.31794 2.20864 2.0944 1.97902 
1.86631 1.75944 1.66056 2.50947 2.41899 2.31794 2.20864 2.0944 1.97902 
1.86631 1.75944 1.66056 2.61035 2.61791 2.60515 2.56958 2.51327 2.44184 
2.36202 2.27983 2.1997 2.61035 2.61791 2.60515 2.56958 2.51327 2.44184 
2.36202 2.27983 2.1997 2.50947 2.41899 2.31794 2.20864 2.0944 1.97902 
1.86631 1.75944 1.66056 2.50947 2.41899 2.31794 2.20864 2.0944 1.97902 
1.86631 1.75944 1.66056 0.459179 0.355101 0.242354 0.122983 0 0.122983 
0.242354 0.355101 0.459179 0.531246 0.523681 0.536438 0.57201 0.628319 0.699757 
0.779574 0.86176 0.941896 0.531246 0.523681 0.536438 0.57201 0.628319 0.699757 
0.779574 0.86176 0.941896 0.632123 0.7226 0.823657 0.932948 1.0472 1.16257 
1.27528 1.38216 1.48103 0.632123 0.7226 0.823657 0.932948 1.0472 1.16257 
1.27528 1.38216 1.48103 0.531246 0.523681 0.536438 0.57201 0.628319 0.699757 
0.779574 0.86176 0.941896 0.531246 0.523681 0.536438 0.57201 0.628319 0.699757 
0.779574 0.86176 0.941896 0.632123 0.7226 0.823657 0.932948 1.0472 1.16257 
1.27528 1.38216 1.48103 0.632123 0.7226 0.823657 0.932948 1.0472 1.16257 
1.27528 1.38216 1.48103 2.02998 1.9259 1.81315 1.69378 1.5708 1.44781 
1.32844 1.2157 1.11162 2.0928 2.05283 2.00422 1.94767 1.88496 1.81867 
1.75177 1.68695 1.62623 2.0928 2.05283 2.00422 1.94767 1.88496 1.81867 
1.75177 1.68695 1.62623 1.0488 1.08876 1.13737 1.19392 1.25664 1.32292 
1.38982 1.45464 1.51537 1.0488 1.08876 1.13737 1.19392 1.25664 1.32292 
1.38982 1.45464 1.51537 2.02998 1.9259 1.81315 1.69378 1.5708 1.44781 
1.32844 1.2157 1.11162 2.0928 2.05283 2.00422 1.94767 1.88496 1.81867 
1.75177 1.68695 1.62623 2.0928 2.05283 2.00422 1.94767 1.88496 1.81867 
1.75177 1.68695 1.62623 1.0488 1.08876 1.13737 1.19392 1.25664 1.32292 
1.38982 1.45464 1.51537 1.0488 1.08876 1.13737 1.19392 1.25664 1.32292 
1.38982 1.45464 1.51537 1.5708 1.5708 1.5708 1.5708 1.5708 1.5708 
1.5708 1.5708 1.5708 1.5708 1.5708 1.5708 1.5708 1.5708 1.5708 
1.5708 1.5708 1.5708 2.70908 2.71362 2.81592 2.68886 2.81002 2.92597 
2.6349 2.76254 2.89233 3.01997 2.55881 2.68262 2.80854 2.92834 3.01997 
2.47007 2.58462 2.70048 2.80854 2.89233 2.92597 2.37702 2.48017 2.58462 
2.68262 2.76254 2.81002 2.81592 2.28567 2.37702 2.47007 2.55881 2.6349 
2.68886 2.71362 2.70908 2.52097 2.4195 2.51718 2.30791 2.40503 2.49426 
2.18928 2.28408 2.3734 2.45144 2.06758 2.15805 2.24572 2.32523 2.39165 
1.94707 2.03138 2.11543 2.19453 2.26401 2.32035 1.83164 1.90847 1.98711 
2.06376 2.13422 2.1949 2.24359 1.72413 1.79288 1.86489 1.93728 2.00658 
2.06938 2.12312 2.16654 1.5708 1.50988 1.63171 1.44492 1.5708 1.69667 
1.37826 1.5059 1.63569 1.76333 1.31281 1.43962 1.5708 1.70197 1.82878 
1.25155 1.37501 1.50478 1.63681 1.76659 1.89004 1.19686 1.31493 1.44074 
1.5708 1.70086 1.82666 1.94473 1.15011 1.26149 1.38136 1.50697 1.63462 
1.76024 1.88011 1.99148 1.99148 1.88011 1.94473 1.76024 1.82666 1.89004 
1.63462 1.70086 1.76659 1.82878 1.50697 1.5708 1.63681 1.70197 1.76333 
1.38136 1.44074 1.50478 1.5708 1.63569 1.69667 1.26149 1.31493 1.37501 
1.43962 1.5059 1.5708 1.63171 1.15011 1.19686 1.25155 1.31281 1.37826 
1.44492 1.50988 1.5708 2.16654 2.12312 2.24359 2.06938 2.1949 2.32035 
2.00658 2.13422 2.26401 2.39165 1.93728 2.06376 2.19453 2.32523 2.45144 
1.86489 1.98711 2.11543 2.24572 2.3734 2.49426 1.79288 1.90847 2.03138 
2.15805 2.28408 2.40503 2.51718 1.72413 1.83164 1.94707 2.06758 2.18928 
2.30791 2.4195 2.52097 1.66533 1.66946 1.76911 1.67254 1.777 1.88041 
1.67418 1.78222 1.89102 1.99634 1.67418 1.78405 1.89674 2.00785 2.11299 
1.67254 1.78222 1.89674 2.01191 2.12307 2.22608 1.66946 1.777 1.89102 
2.00785 2.12307 2.23222 2.33166 1.66533 1.76911 1.88041 1.99634 2.11299 
2.22608 2.33166 2.42672 1.47626 1.37249 1.47213 1.26118 1.36459 1.46906 
1.14526 1.25058 1.35938 1.46741 1.0286 1.13374 1.24485 1.35755 1.46741 
0.915514 1.01852 1.12969 1.24485 1.35938 1.46906 0.809937 0.909371 1.01852 
1.13374 1.25058 1.36459 1.47213 0.714871 0.809937 0.915514 1.0286 1.14526 
1.26118 1.37249 1.47626 0.975055 0.898002 1.01847 0.821245 0.946693 1.07221 
0.749941 0.877585 1.00737 1.13501 0.690152 0.816367 0.94706 1.07784 1.20431 
0.647337 0.768195 0.895868 1.02616 1.15448 1.2767 0.624416 0.736561 0.857515 
0.983547 1.11021 1.23313 1.34871 0.620619 0.722093 0.833684 0.952313 1.07402 
1.19452 1.30996 1.41746 0.855925 0.764569 0.764569 0.671524 0.661425 0.671524 
0.582786 0.556971 0.556971 0.582786 0.506696 0.458968 0.441109 0.458968 0.506696 
0.45273 0.379052 0.333054 0.333054 0.379052 0.45273 0.427969 0.331576 0.249267 
0.21325 0.249267 0.331576 0.427969 0.432512 0.325669 0.215619 0.121622 0.121622 
0.215619 0.325669 0.432512 0.432512 0.427969 0.325669 0.45273 0.331576 0.215619 
0.506696 0.379052 0.249267 0.121622 0.582786 0.458968 0.333054 0.21325 0.121622 
0.671524 0.556971 0.441109 0.333054 0.249267 0.215619 0.764569 0.661425 0.556971 
0.458968 0.379052 0.331576 0.325669 0.855925 0.764569 0.671524 0.582786 0.506696 
0.45273 0.427969 0.432512 0.975055 1.01847 0.898002 1.07221 0.946693 0.821245 
1.13501 1.00737 0.877585 0.749941 1.20431 1.07784 0.94706 0.816367 0.690152 
1.2767 1.15448 1.02616 0.895868 0.768195 0.647337 1.34871 1.23313 1.11021 
0.983547 0.857515 0.736561 0.624416 1.41746 1.30996 1.19452 1.07402 0.952313 
0.833684 0.722093 0.620619 1.15011 1.26149 1.19686 1.38136 1.31493 1.25155 
1.50697 1.44074 1.37501 1.31281 1.63462 1.5708 1.50478 1.43962 1.37826 
1.76024 1.70086 1.63681 1.5708 1.5059 1.44492 1.88011 1.82666 1.76659 
1.70197 1.63569 1.5708 1.50988 1.99148 1.94473 1.89004 1.82878 1.76333 
1.69667 1.63171 1.5708 1.15011 1.19686 1.26149 1.25155 1.31493 1.38136 
1.31281 1.37501 1.44074 1.50697 1.37826 1.43962 1.50478 1.5708 1.63462 
1.44492 1.5059 1.5708 1.63681 1.70086 1.76024 1.50988 1.5708 1.63569 
1.70197 1.76659 1.82666 1.88011 1.5708 1.63171 1.69667 1.76333 1.82878 
1.89004 1.94473 1.99148 1.72413 1.83164 1.79288 1.94707 1.90847 1.86489 
2.06758 2.03138 1.98711 1.93728 2.18928 2.15805 2.11543 2.06376 2.00658 
2.30791 2.28408 2.24572 2.19453 2.13422 2.06938 2.4195 2.40503 2.3734 
2.32523 2.26401 2.1949 2.12312 2.52097 2.51718 2.49426 2.45144 2.39165 
2.32035 2.24359 2.16654 2.70908 2.81592 2.71362 2.92597 2.81002 2.68886 
3.01997 2.89233 2.76254 2.6349 3.01997 2.92834 2.80854 2.68262 2.55881 
2.92597 2.89233 2.80854 2.70048 2.58462 2.47007 2.81592 2.81002 2.76254 
2.68262 2.58462 2.48017 2.37702 2.70908 2.71362 2.68886 2.6349 2.55881 
2.47007 2.37702 2.28567 2.16654 2.24359 2.12312 2.32035 2.1949 2.06938 
2.39165 2.26401 2.13422 2.00658 2.45144 2.32523 2.19453 2.06376 1.93728 
2.49426 2.3734 2.24572 2.11543 1.98711 1.86489 2.51718 2.40503 2.28408 
2.15805 2.03138 1.90847 1.79288 2.52097 2.4195 2.30791 2.18928 2.06758 
1.94707 1.83164 1.72413 1.66533 1.76911 1.66946 1.88041 1.777 1.67254 
1.99634 1.89102 1.78222 1.67418 2.11299 2.00785 1.89674 1.78405 1.67418 
2.22608 2.12307 2.01191 1.89674 1.78222 1.67254 2.33166 2.23222 2.12307 
2.00785 1.89102 1.777 1.66946 2.42672 2.33166 2.22608 2.11299 1.99634 
1.88041 1.76911 1.66533 1.47626 1.47213 1.37249 1.46906 1.36459 1.26118 
1.46741 1.35938 1.25058 1.14526 1.46741 1.35755 1.24485 1.13374 1.0286 
1.46906 1.35938 1.24485 1.12969 1.01852 0.915514 1.47213 1.36459 1.25058 
1.13374 1.01852 0.909371 0.809937 1.47626 1.37249 1.26118 1.14526 1.0286 
0.915514 0.809937 0.714871 1.41746 1.30996 1.34871 1.19452 1.23313 1.2767 
1.07402 1.11021 1.15448 1.20431 0.952313 0.983547 1.02616 1.07784 1.13501 
0.833684 0.857515 0.895868 0.94706 1.00737 1.07221 0.722093 0.736561 0.768195 
0.816367 0.877585 0.946693 1.01847 0.620619 0.624416 0.647337 0.690152 0.749941 
0.821245 0.898002 0.975055 0.975055 0.898002 1.01847 0.821245 0.946693 1.07221 
0.749941 0.877585 1.00737 1.13501 0.690152 0.816367 0.94706 1.07784 1.20431 
0.647337 0.768195 0.895868 1.02616 1.15448 1.2767 0.624416 0.736561 0.857515 
0.983547 1.11021 1.23313 1.34871 0.620619 0.722093 0.833684 0.952313 1.07402 
1.19452 1.30996 1.41746 
Phi 1 1002 float
6.28319 3.14159 6.28319 3.14159 4.71239 4.71239 1.5708 1.5708 3.69517 
5.72961 2.58802 0.553574 6.28319 6.28319 6.28319 6.28319 3.14159 3.14159 
3.14159 3.14159 3.14159 6.1053 5.8988 5.67687 5.45995 5.26596 5.10322 
4.97131 4.86569 4.78095 0.177881 0.384387 0.606312 0.823235 1.01722 1.17997 
1.31187 1.4175 1.50223 6.18928 6.10703 6.03531 5.97283 5.91832 5.87061 
5.82869 5.79168 5.75886 0.0939024 0.176153 0.247873 0.310351 0.364864 0.412573 
0.454497 0.491504 0.524326 3.31947 3.52598 3.7479 3.96483 4.15881 4.32156 
4.45346 4.55909 4.64383 2.96371 2.75721 2.53528 2.31836 2.12437 1.96162 
1.82972 1.72409 1.63936 3.2355 3.31775 3.38947 3.45194 3.50646 3.55417 
3.59609 3.6331 3.66592 3.04769 2.96544 2.89372 2.83124 2.77673 2.72902 
2.6871 2.65009 2.61727 6.28319 6.28319 6.28319 6.28319 3.14159 3.14159 
3.14159 3.14159 3.14159 6.1053 5.8988 5.67687 5.45995 5.26596 5.10322 
4.97131 4.86569 4.78095 0.177881 0.384387 0.606312 0.823235 1.01722 1.17997 
1.31187 1.4175 1.50223 6.18928 6.10703 6.03531 5.97283 5.91832 5.87061 
5.82869 5.79168 5.75886 0.0939024 0.176153 0.247873 0.310351 0.364864 0.412573 
0.454497 0.491504 0.524326 3.31947 3.52598 3.7479 3.96483 4.15881 4.32156 
4.45346 4.55909 4.64383 2.96371 2.75721 2.53528 2.31836 2.12437 1.96162 
1.82972 1.72409 1.63936 3.2355 3.31775 3.38947 3.45194 3.50646 3.55417 
3.59609 3.6331 3.66592 3.04769 2.96544 2.89372 2.83124 2.77673 2.72902 
2.6871 2.65009 2.61727 4.71239 4.71239 4.71239 4.71239 4.71239 4.71239 
4.71239 4.71239 4.71239 4.60879 4.49914 4.3857 4.27128 4.15881 4.05096 
3.94976 3.85646 3.77161 4.81599 4.92564 5.03907 5.1535 5.26596 5.37381 
5.47502 5.56831 5.65317 4.60879 4.49914 4.3857 4.27128 4.15881 4.05096 
3.94976 3.85646 3.77161 4.81599 4.92564 5.03907 5.1535 5.26596 5.37381 
5.47502 5.56831 5.65317 1.5708 1.5708 1.5708 1.5708 1.5708 1.5708 
1.5708 1.5708 1.5708 1.6744 1.78405 1.89748 2.01191 2.12437 2.23222 
2.33343 2.42672 2.51157 1.4672 1.35755 1.24411 1.12969 1.01722 0.909371 
0.808166 0.714871 0.63002 1.6744 1.78405 1.89748 2.01191 2.12437 2.23222 
2.33343 2.42672 2.51157 1.4672 1.35755 1.24411 1.12969 1.01722 0.909371 
0.808166 0.714871 0.63002 3.60077 3.49669 3.38395 3.26458 3.14159 3.01861 
2.89924 2.78649 2.68241 5.82401 5.92808 6.04083 6.1602 6.28319 0.122983 
0.242354 0.355101 0.459179 6.05603 5.78856 5.97021 5.51259 5.60297 5.78856 
5.26596 5.26596 5.26596 5.26596 5.06749 5.0121 4.91556 4.71239 4.15881 
4.91556 4.83537 4.71239 4.50922 4.15881 3.63622 4.80045 4.71239 4.58941 
4.41268 4.15881 3.82181 3.45456 4.71239 4.62433 4.50922 4.35729 4.15881 
3.91219 3.63622 3.36875 6.01742 5.94343 5.82633 5.88092 5.76745 5.62798 
5.8278 5.71897 5.58911 5.43724 5.78235 5.67854 5.55757 5.41926 5.26596 
5.74316 5.64441 5.5315 5.40467 5.26596 5.11955 5.70914 5.61528 5.50962 
5.3926 5.26596 5.13292 4.99789 5.67937 5.59016 5.49102 5.38246 5.26596 
5.14407 5.02016 4.89798 5.56831 5.47502 5.47502 5.37381 5.37381 5.37381 
5.26596 5.26596 5.26596 5.26596 5.1535 5.1535 5.1535 5.1535 5.1535 
5.03907 5.03907 5.03907 5.03907 5.03907 5.03907 4.92564 4.92564 4.92564 
4.92564 4.92564 4.92564 4.92564 4.81599 4.81599 4.81599 4.81599 4.81599 
4.81599 4.81599 4.81599 4.60879 4.60879 4.49914 4.60879 4.49914 4.3857 
4.60879 4.49914 4.3857 4.27128 4.60879 4.49914 4.3857 4.27128 4.15881 
4.60879 4.49914 4.3857 4.27128 4.15881 4.05096 4.60879 4.49914 4.3857 
4.27128 4.15881 4.05096 3.94976 4.60879 4.49914 4.3857 4.27128 4.15881 
4.05096 3.94976 3.85646 4.5268 4.40462 4.42689 4.28071 4.29185 4.30523 
4.15881 4.15881 4.15881 4.15881 4.04232 4.03217 4.02011 4.00552 3.98753 
3.93376 3.91515 3.89328 3.86721 3.83566 3.7968 3.83461 3.8095 3.78037 
3.74624 3.70581 3.65733 3.59845 3.7454 3.71564 3.68161 3.64243 3.59698 
3.54386 3.48135 3.40735 3.56428 3.45246 3.52338 3.33203 3.40312 3.47739 
3.20576 3.27463 3.34802 3.42551 3.07742 3.14159 3.21128 3.28647 3.36688 
2.95116 3.00855 3.0719 3.14159 3.21784 3.3006 2.83072 2.88006 2.93517 
2.99672 3.06535 3.14159 3.22575 2.7189 2.7598 2.8058 2.85768 2.9163 
2.98259 3.05743 3.14159 3.56428 3.52338 3.45246 3.47739 3.40312 3.33203 
3.42551 3.34802 3.27463 3.20576 3.36688 3.28647 3.21128 3.14159 3.07742 
3.3006 3.21784 3.14159 3.0719 3.00855 2.95116 3.22575 3.14159 3.06535 
2.99672 2.93517 2.88006 2.83072 3.14159 3.05743 2.98259 2.9163 2.85768 
2.8058 2.7598 2.7189 4.5268 4.42689 4.40462 4.30523 4.29185 4.28071 
4.15881 4.15881 4.15881 4.15881 3.98753 4.00552 4.02011 4.03217 4.04232 
3.7968 3.83566 3.86721 3.89328 3.91515 3.93376 3.59845 3.65733 3.70581 
3.74624 3.78037 3.8095 3.83461 3.40735 3.48135 3.54386 3.59698 3.64243 
3.68161 3.71564 3.7454 4.71239 4.80045 4.62433 4.91556 4.71239 4.50922 
5.06749 4.83537 4.58941 4.35729 5.26596 5.0121 4.71239 4.41268 4.15881 
5.51259 5.26596 4.91556 4.50922 4.15881 3.91219 5.78856 5.60297 5.26596 
4.71239 4.15881 3.82181 3.63622 6.05603 5.97021 5.78856 5.26596 4.15881 
3.63622 3.45456 3.36875 0.227158 0.494626 0.312971 0.770593 0.680215 0.494626 
1.01722 1.01722 1.01722 1.01722 1.2157 1.27109 1.36763 1.5708 2.12437 
1.36763 1.44781 1.5708 1.77397 2.12437 2.64697 1.48273 1.5708 1.69378 
1.8705 2.12437 2.46138 2.82862 1.5708 1.65886 1.77397 1.9259 2.12437 
2.371 2.64697 2.91443 1.75639 1.87857 1.8563 2.00248 1.99133 1.97796 
2.12437 2.12437 2.12437 2.12437 2.24087 2.25101 2.26308 2.27767 2.29565 
2.34943 2.36803 2.38991 2.41597 2.44752 2.48639 2.44857 2.47368 2.50281 
2.53694 2.57738 2.62586 2.68474 2.53778 2.56754 2.60157 2.64076 2.68621 
2.73933 2.80184 2.87583 1.6744 1.6744 1.78405 1.6744 1.78405 1.89748 
1.6744 1.78405 1.89748 2.01191 1.6744 1.78405 1.89748 2.01191 2.12437 
1.6744 1.78405 1.89748 2.01191 2.12437 2.23222 1.6744 1.78405 1.89748 
2.01191 2.12437 2.23222 2.33343 1.6744 1.78405 1.89748 2.01191 2.12437 
2.23222 2.33343 2.42672 1.4672 1.35755 1.4672 1.24411 1.35755 1.4672 
1.12969 1.24411 1.35755 1.4672 1.01722 1.12969 1.24411 1.35755 1.4672 
0.909371 1.01722 1.12969 1.24411 1.35755 1.4672 0.808166 0.909371 1.01722 
1.12969 1.24411 1.35755 1.4672 0.714871 0.808166 0.909371 1.01722 1.12969 
1.24411 1.35755 1.4672 0.603812 0.57405 0.693022 0.540021 0.667908 0.792164 
0.500837 0.638778 0.773562 0.900726 0.455383 0.604649 0.751687 0.890581 1.01722 
0.402264 0.564217 0.725619 0.878514 1.01722 1.13912 0.339753 0.515737 0.694072 
0.863926 1.01722 1.15026 1.26302 0.265762 0.456853 0.655207 0.845941 1.01722 
1.16363 1.28529 1.38521 0.227158 0.312971 0.494626 0.494626 0.680215 0.770593 
1.01722 1.01722 1.01722 1.01722 2.12437 1.5708 1.36763 1.27109 1.2157 
2.64697 2.12437 1.77397 1.5708 1.44781 1.36763 2.82862 2.46138 2.12437 
1.8705 1.69378 1.5708 1.48273 2.91443 2.64697 2.371 2.12437 1.9259 
1.77397 1.65886 1.5708 1.75639 1.8563 1.87857 1.97796 1.99133 2.00248 
2.12437 2.12437 2.12437 2.12437 2.29565 2.27767 2.26308 2.25101 2.24087 
2.48639 2.44752 2.41597 2.38991 2.36803 2.34943 2.68474 2.62586 2.57738 
2.53694 2.50281 2.47368 2.44857 2.87583 2.80184 2.73933 2.68621 2.64076 
2.60157 2.56754 2.53778 5.86049 5.90139 5.97231 5.94739 6.02165 6.09275 
5.99927 6.07676 6.15015 6.21902 6.0579 6.13831 6.2135 0 0.0641696 
6.12418 6.20694 6.28319 0.069689 0.13304 0.190437 6.19903 0 0.0762451 
0.144876 0.206423 0.261531 0.310872 0 0.0841597 0.159004 0.225289 0.283913 
0.335793 0.381792 0.422692 5.86049 5.97231 5.90139 6.09275 6.02165 5.94739 
6.21902 6.15015 6.07676 5.99927 0.0641696 0 6.2135 6.13831 6.0579 
0.190437 0.13304 0.069689 6.28319 6.20694 6.12418 0.310872 0.261531 0.206423 
0.144876 0.0762451 6.28319 6.19903 0.422692 0.381792 0.335793 0.283913 0.225289 
0.159004 0.0841597 0 5.67937 5.70914 5.59016 5.74316 5.61528 5.49102 
5.78235 5.64441 5.50962 5.38246 5.8278 5.67854 5.5315 5.3926 5.26596 
5.88092 5.71897 5.55757 5.40467 5.26596 5.14407 5.94343 5.76745 5.58911 
5.41926 5.26596 5.13292 5.02016 6.01742 5.82633 5.62798 5.43724 5.26596 
5.11955 4.99789 4.89798 1.38521 1.28529 1.26302 1.16363 1.15026 1.13912 
1.01722 1.01722 1.01722 1.01722 0.845941 0.863926 0.878514 0.890581 0.900726 
0.655207 0.694072 0.725619 0.751687 0.773562 0.792164 0.456853 0.515737 0.564217 
0.604649 0.638778 0.667908 0.693022 0.265762 0.339753 0.402264 0.455383 0.500837 
0.540021 0.57405 0.603812 
