# vtk DataFile Version 4.0
vtk output
ASCII
DATASET POLYDATA
POINTS 1002 float
-82.1276 -90.6064 64.3121 -74.6401 -104.586 71.539 -70.8665 -86.0868 65.0744 
-67.4275 -102.467 70.7427 -76.6911 -94.3816 75.8849 -70.6423 -91.8551 76.0667 
-74.6805 -97.6746 62.6142 -69.671 -97.7416 63.1553 -70.8391 -108.399 78.3107 
-77.7799 -82.8832 67.0383 -69.2158 -113.319 66.0694 -79.2004 -85.5143 57.4006 
-80.831 -91.0391 64.6668 -79.6701 -91.9959 65.4876 -78.7674 -93.4119 66.6995 
-77.8036 -94.7172 67.9904 -76.704 -95.9008 69.1317 -75.9246 -97.4848 69.9786 
-75.5961 -99.496 70.4896 -75.3525 -101.51 70.847 -75.0029 -103.222 71.2063 
-81.536 -90.6473 65.129 -80.9473 -90.8949 66.2635 -80.5583 -91.183 67.7861 
-80.3475 -91.4201 69.3275 -79.9775 -91.7416 70.6282 -79.3708 -92.2371 72.068 
-78.8152 -92.8073 73.6603 -78.2667 -93.3569 74.7765 -77.5079 -93.8801 75.3518 
-81.8346 -90.9712 63.6923 -81.5487 -91.6144 63.1788 -81.2507 -92.4468 62.8477 
-80.5489 -93.1604 62.5655 -79.4357 -93.7573 62.2791 -78.461 -94.5295 62.1496 
-77.6708 -95.4231 62.189 -76.6938 -96.196 62.2809 -75.5992 -96.8949 62.4185 
-82.8986 -90.1044 64.6264 -83.1467 -89.0886 64.8654 -82.884 -87.7214 64.9306 
-82.4823 -86.6128 65.0572 -81.8759 -85.7741 65.3481 -80.9176 -84.9152 65.5418 
-80.0061 -84.2181 65.6641 -79.2924 -83.727 66.0079 -78.5485 -83.2652 66.5361 
-83.1982 -90.459 63.7316 -83.9603 -90.029 62.9056 -84.1706 -89.1083 61.6855 
-83.9183 -88.1521 60.4188 -83.4203 -87.6023 59.4368 -82.775 -87.1562 58.5478 
-81.9831 -86.5633 57.6894 -81.0571 -86.0492 57.1961 -80.0923 -85.7206 57.1731 
-74.9676 -104.035 72.1875 -75.331 -103.349 72.8291 -75.6738 -102.4 73.3944 
-76.0024 -101.253 74.0071 -76.4173 -100.218 74.6967 -76.8346 -99.2407 75.2972 
-77.0593 -98.0113 75.7542 -77.0646 -96.6481 76.0351 -76.9158 -95.4279 76.0533 
-74.5418 -104.309 70.729 -74.288 -103.811 69.9593 -73.8385 -102.987 69.2722 
-73.5521 -102.089 68.5212 -73.5749 -101.29 67.6401 -73.667 -100.498 66.6834 
-73.8477 -99.7453 65.592 -74.1873 -99.0562 64.432 -74.494 -98.3518 63.423 
-74.583 -105.573 72.2034 -74.6709 -106.688 72.9127 -74.5681 -107.672 73.8117 
-73.9825 -108.252 74.8436 -73.3286 -108.605 75.7982 -73.0622 -109.072 76.7502 
-72.7967 -109.573 77.7323 -72.1373 -109.699 78.3832 -71.3677 -109.243 78.5044 
-74.1991 -105.648 71.3608 -73.6693 -106.761 71.1608 -73.096 -108.039 70.8139 
-72.6639 -109.533 70.2922 -72.3969 -111.001 69.6869 -71.9301 -111.998 69.0168 
-71.183 -112.5 68.2958 -70.4901 -112.88 67.5661 -69.8944 -113.221 66.8092 
-70.2401 -87.0791 65.6017 -69.8256 -88.6163 66.299 -69.4527 -90.5439 67.1093 
-68.871 -92.3289 67.884 -68.1091 -93.8577 68.5863 -67.4816 -95.4726 69.2212 
-67.2572 -97.3173 69.703 -67.341 -99.2371 70.0477 -67.4331 -100.995 70.3848 
-70.5652 -86.0512 66.0073 -70.3415 -86.1603 67.1031 -70.2233 -86.5483 68.2895 
-70.2468 -87.2075 69.5354 -70.4215 -88.0419 70.7366 -70.5181 -88.9182 71.9084 
-70.342 -89.6864 73.2078 -70.1805 -90.3872 74.4549 -70.3276 -91.13 75.3762 
-70.7285 -86.6845 64.5333 -70.5827 -87.4482 64.0392 -70.5029 -88.5259 63.6701 
-70.4308 -89.7936 63.3621 -70.2077 -91.0143 63.0091 -69.8676 -92.3222 62.733 
-69.593 -93.8103 62.7121 -69.5089 -95.2362 62.897 -69.5954 -96.516 63.0985 
-71.4422 -85.2114 65.1085 -72.1079 -84.2067 65.1566 -72.765 -83.1285 65.3405 
-73.2988 -82.1605 65.6959 -73.8821 -81.4631 66.072 -74.8496 -81.2157 66.3415 
-75.9968 -81.4376 66.5302 -76.8396 -81.8742 66.705 -77.356 -82.3519 66.8812 
-71.626 -85.6277 64.3045 -72.4892 -85.0768 63.4854 -73.2451 -84.419 62.448 
-73.9727 -83.8879 61.3719 -74.9891 -83.7391 60.5888 -76.1926 -83.8628 59.8937 
-77.1515 -83.9727 59.0409 -77.8405 -84.1685 58.3061 -78.5067 -84.7127 57.8312 
-67.6399 -101.797 71.3807 -67.5184 -100.891 72.2917 -67.3952 -99.8307 73.2286 
-67.8701 -98.8544 73.7758 -68.6968 -97.798 74.0033 -69.142 -96.3679 74.4578 
-69.3047 -94.8745 75.1901 -69.6464 -93.7035 75.7364 -70.1533 -92.7528 75.9623 
-67.0615 -102.194 70.0212 -66.728 -101.893 69.2114 -66.6571 -101.644 68.1455 
-66.7965 -101.367 66.9254 -66.9429 -100.934 65.8971 -67.2099 -100.36 65.097 
-67.7562 -99.7211 64.3874 -68.4364 -99.0646 63.8599 -69.0835 -98.4146 63.5159 
-67.6311 -103.396 71.4214 -68.004 -104.277 72.0851 -68.4728 -105.218 72.7481 
-68.6812 -106.238 73.521 -68.6975 -107.12 74.417 -69.0365 -107.683 75.3115 
-69.654 -107.978 76.1471 -70.1131 -108.159 76.9584 -70.421 -108.317 77.7129 
-67.179 -103.766 70.6661 -66.9832 -105.378 70.5325 -66.8938 -107.191 70.1573 
-66.8948 -108.856 69.5266 -67.0461 -110.267 68.8234 -67.1983 -111.476 68.0641 
-67.2333 -112.457 67.1553 -67.543 -113.178 66.3534 -68.3285 -113.499 66.0087 
-76.103 -94.0305 76.237 -75.6265 -93.6121 76.7478 -75.2105 -93.1567 77.2906 
-74.631 -92.6104 77.749 -73.862 -92.011 78.0583 -73.0537 -91.6201 78.1036 
-72.2866 -91.5425 77.8052 -71.637 -91.6199 77.2393 -71.1177 -91.7335 76.602 
-76.2044 -95.5579 76.7868 -75.9369 -96.8135 77.8485 -75.5716 -98.0653 78.6471 
-74.7673 -99.4486 79.0117 -73.8411 -101.034 79.2297 -73.2651 -102.647 79.4028 
-72.8045 -104.262 79.3639 -72.1258 -105.895 79.1306 -71.3923 -107.324 78.786 
-76.9904 -93.0732 75.2978 -77.38 -91.7187 74.7079 -77.6896 -90.314 73.9798 
-77.8346 -88.9262 72.9672 -77.8971 -87.6542 71.7957 -77.9235 -86.4957 70.6963 
-77.8872 -85.4081 69.6777 -77.8116 -84.4111 68.6858 -77.763 -83.5643 67.7899 
-70.6176 -93.0849 76.6856 -70.4373 -94.3816 77.3703 -70.2176 -95.8762 78.0719 
-70.223 -97.6587 78.5758 -70.4133 -99.6515 78.7241 -70.5419 -101.649 78.6597 
-70.6115 -103.463 78.5746 -70.6974 -105.138 78.4862 -70.7644 -106.808 78.3931 
-70.9435 -90.4854 75.6946 -71.3942 -89.0474 75.1963 -72.0591 -87.6714 74.5496 
-72.8601 -86.344 73.7497 -73.8177 -85.1183 72.7916 -74.9215 -84.2308 71.6345 
-75.8336 -83.6989 70.3273 -76.4441 -83.317 69.0658 -77.0498 -83.0303 67.9793 
-74.2922 -97.8529 62.2729 -73.8989 -98.1617 61.8843 -73.3998 -98.5022 61.5155 
-72.7413 -98.6419 61.3202 -71.9634 -98.5304 61.3399 -71.173 -98.4079 61.5014 
-70.5874 -98.3874 61.8276 -70.2643 -98.2997 62.3186 -70 -98.0542 62.8037 
-73.8438 -99.1123 63.3011 -73.1393 -101.01 63.7878 -72.6412 -103.261 63.765 
-72.3487 -105.584 63.5166 -71.9465 -107.616 63.6436 -71.2329 -109.105 64.1299 
-70.5613 -110.213 64.6622 -70.1441 -111.31 65.1896 -69.7403 -112.429 65.663 
-75.3992 -96.5367 61.7222 -76.2456 -95.3339 60.7445 -77.1441 -94.0968 59.585 
-77.9463 -92.9953 58.4163 -78.5214 -91.8055 57.5705 -78.9336 -90.234 56.9473 
-79.2907 -88.7327 56.4377 -79.4922 -87.6666 56.3825 -79.4312 -86.676 56.8419 
-69.1779 -99.4485 63.1473 -68.42 -101.246 62.7548 -67.7229 -103.189 62.2809 
-67.4407 -105.386 61.9879 -67.5308 -107.636 61.9952 -67.7609 -109.466 62.4551 
-68.0493 -110.742 63.2997 -68.4049 -111.757 64.231 -68.8101 -112.655 65.1384 
-70.2312 -96.1553 62.526 -70.8845 -94.4053 61.5145 -71.7742 -92.7703 60.449 
-72.8555 -91.3459 59.5318 -73.9142 -90.0265 58.7299 -74.9661 -88.838 58.1482 
-76.1939 -87.8229 57.8508 -77.4499 -86.9294 57.6474 -78.4518 -86.1579 57.4631 
-70.65 -109.864 77.8294 -70.4821 -111.224 77.1612 -70.3247 -112.35 76.2597 
-70.1618 -113.201 75.054 -69.9464 -113.849 73.6136 -69.6742 -114.313 72.012 
-69.4057 -114.511 70.2305 -69.2139 -114.391 68.4747 -69.1542 -113.977 67.0674 
-78.3213 -82.4236 66.0105 -78.8688 -81.8767 64.861 -79.3353 -81.3302 63.6239 
-79.7756 -81.0545 62.4209 -80.2112 -81.243 61.1889 -80.4208 -81.755 59.8162 
-80.2307 -82.3875 58.6643 -79.8229 -83.2267 58.0514 -79.4665 -84.3433 57.7203 
-80.3341 -91.3301 65.7297 -79.9433 -91.8093 67.1528 -79.3567 -92.5342 66.7763 
-79.6605 -92.1962 68.7773 -79.0463 -93.0916 68.3159 -78.5903 -94.0435 68.0567 
-79.3806 -92.5742 70.251 -78.6654 -93.5557 69.9002 -78.2537 -94.62 69.5665 
-77.684 -95.4353 69.2744 -78.9959 -93.192 71.6961 -78.3845 -94.2692 71.3749 
-77.9209 -95.321 71.0874 -77.4507 -96.2009 70.6542 -76.6856 -96.8395 70.255 
-78.6139 -93.8941 73.3628 -78.2847 -95.2137 72.9163 -77.9384 -96.374 72.4922 
-77.408 -97.156 71.9637 -76.6473 -97.7925 71.389 -75.9798 -98.5479 70.9405 
-78.2401 -94.4522 74.7427 -78.1472 -95.9044 74.3827 -78.0216 -97.332 73.8194 
-77.5814 -98.2159 73.1334 -76.7551 -98.7736 72.4276 -75.9862 -99.5108 71.9085 
-75.575 -100.491 71.4418 -77.6548 -94.9354 75.4912 -77.7175 -96.2939 75.3559 
-77.6958 -97.794 74.9179 -77.4186 -98.9281 74.2699 -76.7812 -99.6572 73.5093 
-76.0653 -100.459 72.8758 -75.5587 -101.438 72.4145 -75.2533 -102.395 71.8667 
-82.1296 -90.0826 65.4296 -82.2368 -89.0272 65.6916 -81.3888 -90.1892 66.6293 
-82.0448 -87.7542 65.9025 -81.4347 -89.1222 66.962 -80.9357 -90.3777 68.2114 
-81.6843 -86.7203 66.1762 -81.1954 -88.0056 67.1738 -80.7876 -89.428 68.4196 
-80.5607 -90.6327 69.6285 -80.9017 -85.8621 66.4004 -80.6493 -87.0579 67.3077 
-80.2156 -88.5 68.3706 -80.0402 -89.8164 69.6114 -79.917 -90.9738 70.8666 
-79.9607 -85.1312 66.5216 -79.8795 -86.2255 67.4644 -79.5793 -87.5807 68.4335 
-79.2826 -88.9349 69.5652 -79.2874 -90.1676 70.9482 -79.2227 -91.4398 72.4086 
-79.2467 -84.574 66.8063 -79.2252 -85.5396 67.7843 -79.1196 -86.6985 68.8237 
-78.8667 -87.9695 69.9189 -78.7348 -89.2503 71.2043 -78.7828 -90.6107 72.6203 
-78.6545 -92.0035 73.8785 -78.5467 -84.0462 67.3024 -78.5848 -84.9475 68.2521 
-78.6214 -85.974 69.3121 -78.5554 -87.112 70.4184 -78.4193 -88.3413 71.6224 
-78.3468 -89.7095 72.8662 -78.2329 -91.1663 73.936 -77.9186 -92.5598 74.741 
-77.0601 -83.7824 68.8337 -76.5009 -84.2024 69.9946 -77.1082 -84.7706 69.81 
-75.8861 -84.6908 71.3515 -76.4824 -85.3115 71.0439 -77.114 -85.9163 70.8086 
-74.9531 -85.2878 72.7313 -75.7944 -85.8539 72.4895 -76.3396 -86.5517 72.0518 
-77.0748 -87.1307 71.8038 -73.8866 -86.3155 73.8134 -74.9003 -86.6119 73.7966 
-75.5825 -87.245 73.4447 -76.2045 -87.9169 72.9893 -77.0553 -88.4252 72.9114 
-72.9261 -87.7044 74.6521 -73.8961 -87.8705 74.7196 -74.7376 -88.2566 74.6441 
-75.424 -88.8526 74.2993 -76.1737 -89.3826 74.0497 -76.9862 -89.8046 74.0363 
-72.1115 -89.0859 75.4596 -72.9362 -89.2395 75.6336 -73.7853 -89.4678 75.7402 
-74.6089 -89.899 75.6449 -75.3864 -90.4198 75.3919 -76.0739 -90.8141 75.1518 
[...]
POINT_DATA 1002
FIELD FieldData 2
Theta 1 1002 float
2.58802 2.58802 0.553574 0.553574 2.12437 1.01722 2.12437 1.01722 1.5708 
1.5708 1.5708 1.5708 2.68241 2.78649 2.89924 3.01861 3.14159 3.01861 
2.89924 2.78649 2.68241 2.61035 2.61791 2.60515 2.56958 2.51327 2.44184 
2.36202 2.27983 2.1997 2.61035 2.61791 2.60515 2.56958 2.51327 2.44184 
2.36202 2.27983 2.1997 2.50947 2.41899 2.31794 2.20864 2.0944 1.97902 
1.86631 1.75944 1.66056 2.50947 2.41899 2.31794 2.20864 2.0944 1.97902 
1.86631 1.75944 1.66056 2.61035 2.61791 2.60515 2.56958 2.51327 2.44184 
2.36202 2.27983 2.1997 2.61035 2.61791 2.60515 2.56958 2.51327 2.44184 
2.36202 2.27983 2.1997 2.50947 2.41899 2.31794 2.20864 2.0944 1.97902 
1.86631 1.75944 1.66056 2.50947 2.41899 2.31794 2.20864 2.0944 1.97902 
1.86631 1.75944 1.66056 0.459179 0.355101 0.242354 0.122983 0 0.122983 
0.242354 0.355101 0.459179 0.531246 0.523681 0.536438 0.57201 0.628319 0.699757 
0.779574 0.86176 0.941896 0.531246 0.523681 0.536438 0.57201 0.628319 0.699757 
0.779574 0.86176 0.941896 0.632123 0.7226 0.823657 0.932948 1.0472 1.16257 
1.27528 1.38216 1.48103 0.632123 0.7226 0.823657 0.932948 1.0472 1.16257 
1.27528 1.38216 1.48103 0.531246 0.523681 0.536438 0.57201 0.628319 0.699757 
0.779574 0.86176 0.941896 0.531246 0.523681 0.536438 0.57201 0.628319 0.699757 
0.779574 0.86176 0.941896 0.632123 0.7226 0.823657 0.932948 1.0472 1.16257 
1.27528 1.38216 1.48103 0.632123 0.7226 0.823657 0.932948 1.0472 1.16257 
1.27528 1.38216 1.48103 2.02998 1.9259 1.81315 1.69378 1.5708 1.44781 
1.32844 1.2157 1.11162 2.0928 2.05283 2.00422 1.94767 1.88496 1.81867 
1.75177 1.68695 1.62623 2.0928 2.05283 2.00422 1.94767 1.88496 1.81867 
1.75177 1.68695 1.62623 1.0488 1.08876 1.13737 1.19392 1.25664 1.32292 
1.38982 1.45464 1.51537 1.0488 1.08876 1.13737 1.19392 1.25664 1.32292 
1.38982 1.45464 1.51537 2.02998 1.9259 1.81315 1.69378 1.5708 1.44781 
1.32844 1.2157 1.11162 2.0928 2.05283 2.00422 1.94767 1.88496 1.81867 
1.75177 1.68695 1.62623 2.0928 2.05283 2.00422 1.94767 1.88496 1.81867 
1.75177 1.68695 1.62623 1.0488 1.08876 1.13737 1.19392 1.25664 1.32292 
1.38982 1.45464 1.51537 1.0488 1.08876 1.13737 1.19392 1.25664 1.32292 
1.38982 1.45464 1.51537 1.5708 1.5708 1.5708 1.5708 1.5708 1.5708 
1.5708 1.5708 1.5708 1.5708 1.5708 1.5708 1.5708 1.5708 1.5708 
1.5708 1.5708 1.5708 2.70908 2.71362 2.81592 2.68886 2.81002 2.92597 
2.6349 2.76254 2.89233 3.01997 2.55881 2.68262 2.80854 2.92834 3.01997 
2.47007 2.58462 2.70048 2.80854 2.89233 2.92597 2.37702 2.48017 2.58462 
2.68262 2.76254 2.81002 2.81592 2.28567 2.37702 2.47007 2.55881 2.6349 
2.68886 2.71362 2.70908 2.52097 2.4195 2.51718 2.30791 2.40503 2.49426 
2.18928 2.28408 2.3734 2.45144 2.06758 2.15805 2.24572 2.32523 2.39165 
1.94707 2.03138 2.11543 2.19453 2.26401 2.32035 1.83164 1.90847 1.98711 
2.06376 2.13422 2.1949 2.24359 1.72413 1.79288 1.86489 1.93728 2.00658 
2.06938 2.12312 2.16654 1.5708 1.50988 1.63171 1.44492 1.5708 1.69667 
1.37826 1.5059 1.63569 1.76333 1.31281 1.43962 1.5708 1.70197 1.82878 
1.25155 1.37501 1.50478 1.63681 1.76659 1.89004 1.19686 1.31493 1.44074 
1.5708 1.70086 1.82666 1.94473 1.15011 1.26149 1.38136 1.50697 1.63462 
1.76024 1.88011 1.99148 1.99148 1.88011 1.94473 1.76024 1.82666 1.89004 
1.63462 1.70086 1.76659 1.82878 1.50697 1.5708 1.63681 1.70197 1.76333 
1.38136 1.44074 1.50478 1.5708 1.63569 1.69667 1.26149 1.31493 1.37501 
1.43962 1.5059 1.5708 1.63171 1.15011 1.19686 1.25155 1.31281 1.37826 
1.44492 1.50988 1.5708 2.16654 2.12312 2.24359 2.06938 2.1949 2.32035 
2.00658 2.13422 2.26401 2.39165 1.93728 2.06376 2.19453 2.32523 2.45144 
1.86489 1.98711 2.11543 2.24572 2.3734 2.49426 1.79288 1.90847 2.03138 
2.15805 2.28408 2.40503 2.51718 1.72413 1.83164 1.94707 2.06758 2.18928 
2.30791 2.4195 2.52097 1.66533 1.66946 1.76911 1.67254 1.777 1.88041 
1.67418 1.78222 1.89102 1.99634 1.67418 1.78405 1.89674 2.00785 2.11299 
1.67254 1.78222 1.89674 2.01191 2.12307 2.22608 1.66946 1.777 1.89102 
2.00785 2.12307 2.23222 2.33166 1.66533 1.76911 1.88041 1.99634 2.11299 
2.22608 2.33166 2.42672 1.47626 1.37249 1.47213 1.26118 1.36459 1.46906 
1.14526 1.25058 1.35938 1.46741 1.0286 1.13374 1.24485 1.35755 1.46741 
0.915514 1.01852 1.12969 1.24485 1.35938 1.46906 0.809937 0.909371 1.01852 
1.13374 1.25058 1.36459 1.47213 0.714871 0.809937 0.915514 1.0286 1.14526 
1.26118 1.37249 1.47626 0.975055 0.898002 1.01847 0.821245 0.946693 1.07221 
0.749941 0.877585 1.00737 1.13501 0.690152 0.816367 0.94706 1.07784 1.20431 
0.647337 0.768195 0.895868 1.02616 1.15448 1.2767 0.624416 0.736561 0.857515 
0.983547 1.11021 1.23313 1.34871 0.620619 0.722093 0.833684 0.952313 1.07402 
1.19452 1.30996 1.41746 0.855925 0.764569 0.764569 0.671524 0.661425 0.671524 
0.582786 0.556971 0.556971 0.582786 0.506696 0.458968 0.441109 0.458968 0.506696 
0.45273 0.379052 0.333054 0.333054 0.379052 0.45273 0.427969 0.331576 0.249267 
0.21325 0.249267 0.331576 0.427969 0.432512 0.325669 0.215619 0.121622 0.121622 
0.215619 0.325669 0.432512 0.432512 0.427969 0.325669 0.45273 0.331576 0.215619 
0.506696 0.379052 0.249267 0.121622 0.582786 0.458968 0.333054 0.21325 0.121622 
0.671524 0.556971 0.441109 0.333054 0.249267 0.215619 0.764569 0.661425 0.556971 
0.458968 0.379052 0.331576 0.325669 0.855925 0.764569 0.671524 0.582786 0.506696 
0.45273 0.427969 0.432512 0.975055 1.01847 0.898002 1.07221 0.946693 0.821245 
1.13501 1.00737 0.877585 0.749941 1.20431 1.07784 0.94706 0.816367 0.690152 
1.2767 1.15448 1.02616 0.895868 0.768195 0.647337 1.34871 1.23313 1.11021 
0.983547 0.857515 0.736561 0.624416 1.41746 1.30996 1.19452 1.07402 0.952313 
0.833684 0.722093 0.620619 1.15011 1.26149 1.19686 1.38136 1.31493 1.25155 
1.50697 1.44074 1.37501 1.31281 1.63462 1.5708 1.50478 1.43962 1.37826 
1.76024 1.70086 1.63681 1.5708 1.5059 1.44492 1.88011 1.82666 1.76659 
1.70197 1.63569 1.5708 1.50988 1.99148 1.94473 1.89004 1.82878 1.76333 
1.69667 1.63171 1.5708 1.15011 1.19686 1.26149 1.25155 1.31493 1.38136 
1.31281 1.37501 1.44074 1.50697 1.37826 1.43962 1.50478 1.5708 1.63462 
1.44492 1.5059 1.5708 1.63681 1.70086 1.76024 1.50988 1.5708 1.63569 
1.70197 1.76659 1.82666 1.88011 1.5708 1.63171 1.69667 1.76333 1.82878 
1.89004 1.94473 1.99148 1.72413 1.83164 1.79288 1.94707 1.90847 1.86489 
2.06758 2.03138 1.98711 1.93728 2.18928 2.15805 2.11543 2.06376 2.00658 
2.30791 2.28408 2.24572 2.19453 2.13422 2.06938 2.4195 2.40503 2.3734 
2.32523 2.26401 2.1949 2.12312 2.52097 2.51718 2.49426 2.45144 2.39165 
2.32035 2.24359 2.16654 2.70908 2.81592 2.71362 2.92597 2.81002 2.68886 
3.01997 2.89233 2.76254 2.6349 3.01997 2.92834 2.80854 2.68262 2.55881 
2.92597 2.89233 2.80854 2.70048 2.58462 2.47007 2.81592 2.81002 2.76254 
2.68262 2.58462 2.48017 2.37702 2.70908 2.71362 2.68886 2.6349 2.55881 
2.47007 2.37702 2.28567 2.16654 2.24359 2.12312 2.32035 2.1949 2.06938 
2.39165 2.26401 2.13422 2.00658 2.45144 2.32523 2.19453 2.06376 1.93728 
2.49426 2.3734 2.24572 2.11543 1.98711 1.86489 2.51718 2.40503 2.28408 
2.15805 2.03138 1.90847 1.79288 2.52097 2.4195 2.30791 2.18928 2.06758 
1.94707 1.83164 1.72413 1.66533 1.76911 1.66946 1.88041 1.777 1.67254 
1.99634 1.89102 1.78222 1.67418 2.11299 2.00785 1.89674 1.78405 1.67418 
2.22608 2.12307 2.01191 1.89674 1.78222 1.67254 2.33166 2.23222 2.12307 
2.00785 1.89102 1.777 1.66946 2.42672 2.33166 2.22608 2.11299 1.99634 
1.88041 1.76911 1.66533 1.47626 1.47213 1.37249 1.46906 1.36459 1.26118 
1.46741 1.35938 1.25058 1.14526 1.46741 1.35755 1.24485 1.13374 1.0286 
1.46906 1.35938 1.24485 1.12969 1.01852 0.915514 1.47213 1.36459 1.25058 
1.13374 1.01852 0.909371 0.809937 1.47626 1.37249 1.26118 1.14526 1.0286 
0.915514 0.809937 0.714871 1.41746 1.30996 1.34871 1.19452 1.23313 1.2767 
1.07402 1.11021 1.15448 1.20431 0.952313 0.983547 1.02616 1.07784 1.13501 
0.833684 0.857515 0.895868 0.94706 1.00737 1.07221 0.722093 0.736561 0.768195 
0.816367 0.877585 0.946693 1.01847 0.620619 0.624416 0.647337 0.690152 0.749941 
0.821245 0.898002 0.975055 0.975055 0.898002 1.01847 0.821245 0.946693 1.07221 
0.749941 0.877585 1.00737 1.13501 0.690152 0.816367 0.94706 1.07784 1.20431 
0.647337 0.768195 0.895868 1.02616 1.15448 1.2767 0.624416 0.736561 0.857515 
0.983547 1.11021 1.23313 1.34871 0.620619 0.722093 0.833684 0.952313 1.07402 
1.19452 1.30996 1.41746 
Phi 1 1002 float
6.28319 3.14159 6.28319 3.14159 4.71239 4.71239 1.5708 1.5708 3.69517 
5.72961 2.58802 0.553574 6.28319 6.28319 6.28319 6.28319 3.14159 3.14159 
3.14159 3.14159 3.14159 6.1053 5.8988 5.67687 5.45995 5.26596 5.10322 
4.97131 4.86569 4.78095 0.177881 0.384387 0.606312 0.823235 1.01722 1.17997 
1.31187 1.4175 1.50223 6.18928 6.10703 6.03531 5.97283 5.91832 5.87061 
5.82869 5.79168 5.75886 0.0939024 0.176153 0.247873 0.310351 0.364864 0.412573 
0.454497 0.491504 0.524326 3.31947 3.52598 3.7479 3.96483 4.15881 4.32156 
4.45346 4.55909 4.64383 2.96371 2.75721 2.53528 2.31836 2.12437 1.96162 
1.82972 1.72409 1.63936 3.2355 3.31775 3.38947 3.45194 3.50646 3.55417 
3.59609 3.6331 3.66592 3.04769 2.96544 2.89372 2.83124 2.77673 2.72902 
2.6871 2.65009 2.61727 6.28319 6.28319 6.28319 6.28319 3.14159 3.14159 
3.14159 3.14159 3.14159 6.1053 5.8988 5.67687 5.45995 5.26596 5.10322 
4.97131 4.86569 4.78095 0.177881 0.384387 0.606312 0.823235 1.01722 1.17997 
1.31187 1.4175 1.50223 6.18928 6.10703 6.03531 5.97283 5.91832 5.87061 
5.82869 5.79168 5.75886 0.0939024 0.176153 0.247873 0.310351 0.364864 0.412573 
0.454497 0.491504 0.524326 3.31947 3.52598 3.7479 3.96483 4.15881 4.32156 
4.45346 4.55909 4.64383 2.96371 2.75721 2.53528 2.31836 2.12437 1.96162 
1.82972 1.72409 1.63936 3.2355 3.31775 3.38947 3.45194 3.50646 3.55417 
3.59609 3.6331 3.66592 3.04769 2.96544 2.89372 2.83124 2.77673 2.72902 
2.6871 2.65009 2.61727 4.71239 4.71239 4.71239 4.71239 4.71239 4.71239 
4.71239 4.71239 4.71239 4.60879 4.49914 4.3857 4.27128 4.15881 4.05096 
3.94976 3.85646 3.77161 4.81599 4.92564 5.03907 5.1535 5.26596 5.37381 
5.47502 5.56831 5.65317 4.60879 4.49914 4.3857 4.27128 4.15881 4.05096 
3.94976 3.85646 3.77161 4.81599 4.92564 5.03907 5.1535 5.26596 5.37381 
5.47502 5.56831 5.65317 1.5708 1.5708 1.5708 1.5708 1.5708 1.5708 
1.5708 1.5708 1.5708 1.6744 1.78405 1.89748 2.01191 2.12437 2.23222 
2.33343 2.42672 2.51157 1.4672 1.35755 1.24411 1.12969 1.01722 0.909371 
0.808166 0.714871 0.63002 1.6744 1.78405 1.89748 2.01191 2.12437 2.23222 
2.33343 2.42672 2.51157 1.4672 1.35755 1.24411 1.12969 1.01722 0.909371 
0.808166 0.714871 0.63002 3.60077 3.49669 3.38395 3.26458 3.14159 3.01861 
2.89924 2.78649 2.68241 5.82401 5.92808 6.04083 6.1602 6.28319 0.122983 
0.242354 0.355101 0.459179 6.05603 5.78856 5.97021 5.51259 5.60297 5.78856 
5.26596 5.26596 5.26596 5.26596 5.06749 5.0121 4.91556 4.71239 4.15881 
4.91556 4.83537 4.71239 4.50922 4.15881 3.63622 4.80045 4.71239 4.58941 
4.41268 4.15881 3.82181 3.45456 4.71239 4.62433 4.50922 4.35729 4.15881 
3.91219 3.63622 3.36875 6.01742 5.94343 5.82633 5.88092 5.76745 5.62798 
5.8278 5.71897 5.58911 5.43724 5.78235 5.67854 5.55757 5.41926 5.26596 
5.74316 5.64441 5.5315 5.40467 5.26596 5.11955 5.70914 5.61528 5.50962 
5.3926 5.26596 5.13292 4.99789 5.67937 5.59016 5.49102 5.38246 5.26596 
5.14407 5.02016 4.89798 5.56831 5.47502 5.47502 5.37381 5.37381 5.37381 
5.26596 5.26596 5.26596 5.26596 5.1535 5.1535 5.1535 5.1535 5.1535 
5.03907 5.03907 5.03907 5.03907 5.03907 5.03907 4.92564 4.92564 4.92564 
4.92564 4.92564 4.92564 4.92564 4.81599 4.81599 4.81599 4.81599 4.81599 
4.81599 4.81599 4.81599 4.60879 4.60879 4.49914 4.60879 4.49914 4.3857 
4.60879 4.49914 4.3857 4.27128 4.60879 4.49914 4.3857 4.27128 4.15881 
4.60879 4.49914 4.3857 4.27128 4.15881 4.05096 4.60879 4.49914 4.3857 
4.27128 4.15881 4.05096 3.94976 4.60879 4.49914 4.3857 4.27128 4.15881 
4.05096 3.94976 3.85646 4.5268 4.40462 4.42689 4.28071 4.29185 4.30523 
4.15881 4.15881 4.15881 4.15881 4.04232 4.03217 4.02011 4.00552 3.98753 
3.93376 3.91515 3.89328 3.86721 3.83566 3.7968 3.83461 3.8095 3.78037 
3.74624 3.70581 3.65733 3.59845 3.7454 3.71564 3.68161 3.64243 3.59698 
3.54386 3.48135 3.40735 3.56428 3.45246 3.52338 3.33203 3.40312 3.47739 
3.20576 3.27463 3.34802 3.42551 3.07742 3.14159 3.21128 3.28647 3.36688 
2.95116 3.00855 3.0719 3.14159 3.21784 3.3006 2.83072 2.88006 2.93517 
2.99672 3.06535 3.14159 3.22575 2.7189 2.7598 2.8058 2.85768 2.9163 
2.98259 3.05743 3.14159 3.56428 3.52338 3.45246 3.47739 3.40312 3.33203 
3.42551 3.34802 3.27463 3.20576 3.36688 3.28647 3.21128 3.14159 3.07742 
3.3006 3.21784 3.14159 3.0719 3.00855 2.95116 3.22575 3.14159 3.06535 
2.99672 2.93517 2.88006 2.83072 3.14159 3.05743 2.98259 2.9163 2.85768 
2.8058 2.7598 2.7189 4.5268 4.42689 4.40462 4.30523 4.29185 4.28071 
4.15881 4.15881 4.15881 4.15881 3.98753 4.00552 4.02011 4.03217 4.04232 
3.7968 3.83566 3.86721 3.89328 3.91515 3.93376 3.59845 3.65733 3.70581 
3.74624 3.78037 3.8095 3.83461 3.40735 3.48135 3.54386 3.59698 3.64243 
3.68161 3.71564 3.7454 4.71239 4.80045 4.62433 4.91556 4.71239 4.50922 
5.06749 4.83537 4.58941 4.35729 5.26596 5.0121 4.71239 4.41268 4.15881 
5.51259 5.26596 4.91556 4.50922 4.15881 3.91219 5.78856 5.60297 5.26596 
4.71239 4.15881 3.82181 3.63622 6.05603 5.97021 5.78856 5.26596 4.15881 
3.63622 3.45456 3.36875 0.227158 0.494626 0.312971 0.770593 0.680215 0.494626 
1.01722 1.01722 1.01722 1.01722 1.2157 1.27109 1.36763 1.5708 2.12437 
1.36763 1.44781 1.5708 1.77397 2.12437 2.64697 1.48273 1.5708 1.69378 
1.8705 2.12437 2.46138 2.82862 1.5708 1.65886 1.77397 1.9259 2.12437 
2.371 2.64697 2.91443 1.75639 1.87857 1.8563 2.00248 1.99133 1.97796 
2.12437 2.12437 2.12437 2.12437 2.24087 2.25101 2.26308 2.27767 2.29565 
2.34943 2.36803 2.38991 2.41597 2.44752 2.48639 2.44857 2.47368 2.50281 
2.53694 2.57738 2.62586 2.68474 2.53778 2.56754 2.60157 2.64076 2.68621 
2.73933 2.80184 2.87583 1.6744 1.6744 1.78405 1.6744 1.78405 1.89748 
1.6744 1.78405 1.89748 2.01191 1.6744 1.78405 1.89748 2.01191 2.12437 
1.6744 1.78405 1.89748 2.01191 2.12437 2.23222 1.6744 1.78405 1.89748 
2.01191 2.12437 2.23222 2.33343 1.6744 1.78405 1.89748 2.01191 2.12437 
2.23222 2.33343 2.42672 1.4672 1.35755 1.4672 1.24411 1.35755 1.4672 
1.12969 1.24411 1.35755 1.4672 1.01722 1.12969 1.24411 1.35755 1.4672 
0.909371 1.01722 1.12969 1.24411 1.35755 1.4672 0.808166 0.909371 1.01722 
1.12969 1.24411 1.35755 1.4672 0.714871 0.808166 0.909371 1.01722 1.12969 
1.24411 1.35755 1.4672 0.603812 0.57405 0.693022 0.540021 0.667908 0.792164 
0.500837 0.638778 0.773562 0.900726 0.455383 0.604649 0.751687 0.890581 1.01722 
0.402264 0.564217 0.725619 0.878514 1.01722 1.13912 0.339753 0.515737 0.694072 
0.863926 1.01722 1.15026 1.26302 0.265762 0.456853 0.655207 0.845941 1.01722 
1.16363 1.28529 1.38521 0.227158 0.312971 0.494626 0.494626 0.680215 0.770593 
1.01722 1.01722 1.01722 1.01722 2.12437 1.5708 1.36763 1.27109 1.2157 
2.64697 2.12437 1.77397 1.5708 1.44781 1.36763 2.82862 2.46138 2.12437 
1.8705 1.69378 1.5708 1.48273 2.91443 2.64697 2.371 2.12437 1.9259 
1.77397 1.65886 1.5708 1.75639 1.8563 1.87857 1.97796 1.99133 2.00248 
2.12437 2.12437 2.12437 2.12437 2.29565 2.27767 2.26308 2.25101 2.24087 
2.48639 2.44752 2.41597 2.38991 2.36803 2.34943 2.68474 2.62586 2.57738 
2.53694 2.50281 2.47368 2.44857 2.87583 2.80184 2.73933 2.68621 2.64076 
2.60157 2.56754 2.53778 5.86049 5.90139 5.97231 5.94739 6.02165 6.09275 
5.99927 6.07676 6.15015 6.21902 6.0579 6.13831 6.2135 0 0.0641696 
6.12418 6.20694 6.28319 0.069689 0.13304 0.190437 6.19903 0 0.0762451 
0.144876 0.206423 0.261531 0.310872 0 0.0841597 0.159004 0.225289 0.283913 
0.335793 0.381792 0.422692 5.86049 5.97231 5.90139 6.09275 6.02165 5.94739 
6.21902 6.15015 6.07676 5.99927 0.0641696 0 6.2135 6.13831 6.0579 
0.190437 0.13304 0.069689 6.28319 6.20694 6.12418 0.310872 0.261531 0.206423 
0.144876 0.0762451 6.28319 6.19903 0.422692 0.381792 0.335793 0.283913 0.225289 
0.159004 0.0841597 0 5.67937 5.70914 5.59016 5.74316 5.61528 5.49102 
5.78235 5.64441 5.50962 5.38246 5.8278 5.67854 5.5315 5.3926 5.26596 
5.88092 5.71897 5.55757 5.40467 5.26596 5.14407 5.94343 5.76745 5.58911 
5.41926 5.26596 5.13292 5.02016 6.01742 5.82633 5.62798 5.43724 5.26596 
5.11955 4.99789 4.89798 1.38521 1.28529 1.26302 1.16363 1.15026 1.13912 
1.01722 1.01722 1.01722 1.01722 0.845941 0.863926 0.878514 0.890581 0.900726 
0.655207 0.694072 0.725619 0.751687 0.773562 0.792164 0.456853 0.515737 0.564217 
0.604649 0.638778 0.667908 0.693022 0.265762 0.339753 0.402264 0.455383 0.500837 
0.540021 0.57405 0.603812 
