# vtk DataFile Version 4.0
vtk output
ASCII
DATASET POLYDATA
POINTS 1002 float
-84.9554 -89.9353 63.9134 -78.7704 -104.663 70.4671 -75.0249 -85.8991 65.1295 
-71.249 -102.355 70.2958 -81.3341 -94.6839 75.8698 -75.4007 -91.7956 75.5545 
-78.5975 -97.5286 61.4788 -73.2613 -97.7749 62.7147 -74.9728 -108.916 78.5867 
-81.1255 -81.604 66.35 -73.1002 -113.363 65.2355 -81.5853 -85.1684 55.6167 
-84.2199 -90.7992 64.794 -83.4718 -91.7112 65.5919 -82.64 -92.9844 66.3403 
-81.7385 -94.6928 67.1838 -80.9846 -96.3652 68.0558 -80.3368 -97.8427 68.7559 
-79.6438 -99.5246 69.2764 -79.1255 -101.415 69.7159 -78.9096 -103.164 70.115 
-84.8305 -90.1091 65.0138 -84.634 -90.2714 66.0685 -84.2741 -90.637 67.2594 
-84.0324 -91.2866 68.8397 -83.939 -91.8264 70.5672 -83.4154 -92.0601 71.8097 
-82.4273 -92.4011 72.5767 -81.6743 -93.1168 73.5098 -81.4214 -93.9805 74.7503 
-84.562 -90.216 63.3496 -84.0237 -90.5673 62.7892 -83.4742 -91.2599 62.317 
-82.8539 -92.1054 62.0344 -82.0075 -92.8034 61.8162 -81.0752 -93.4592 61.5779 
-80.3314 -94.2663 61.4094 -79.7957 -95.2839 61.2809 -79.2744 -96.4376 61.2496 
-85.4232 -88.9759 63.7903 -85.5541 -87.7864 63.8514 -85.4226 -86.6288 64.0476 
-85.1533 -85.4014 64.3182 -84.7932 -84.0658 64.6665 -84.2283 -83.0633 64.9733 
-83.3266 -82.5125 65.1608 -82.3429 -82.1374 65.3929 -81.6252 -81.8426 65.8004 
-85.6222 -89.2486 62.5704 -86.3341 -88.5312 61.2732 -86.4987 -87.8914 60.3138 
-85.8532 -87.3669 59.3534 -85.0665 -86.7072 57.9231 -84.7303 -85.8536 56.4779 
-84.3789 -85.2316 55.7111 -83.5271 -85.0512 55.5133 -82.4657 -85.0865 55.5084 
-78.8889 -103.935 71.1915 -78.9827 -102.934 72.0305 -79.3789 -101.976 72.7671 
-79.9483 -101.262 73.3936 -80.3306 -100.566 74.0788 -80.6682 -99.6461 74.7912 
-81.171 -98.5009 75.3891 -81.5647 -97.1948 75.8098 -81.59 -95.8664 75.9761 
-78.5569 -104.277 69.7165 -78.1731 -103.785 69.0369 -77.775 -103.204 68.3069 
-77.5797 -102.504 67.4668 -77.6546 -101.773 66.4385 -77.8481 -101.051 65.256 
-77.9634 -100.193 64.2297 -78.0534 -99.2053 63.3932 -78.2847 -98.2912 62.4698 
-78.7055 -105.738 71.2315 -78.5077 -106.711 72.0688 -78.1698 -107.423 72.9183 
-77.893 -108.04 73.8785 -77.7496 -108.672 74.9729 -77.4379 -109.011 75.9536 
-76.8281 -109.025 76.7803 -76.1525 -109.078 77.612 -75.5398 -109.154 78.2975 
-78.3459 -105.84 70.2976 -77.7306 -107.035 70.1314 -77.2868 -108.292 69.9033 
-76.8833 -109.483 69.5868 -76.1157 -110.587 69.1122 -75.3228 -111.621 68.3412 
-74.8444 -112.397 67.3929 -74.3421 -112.92 66.525 -73.6918 -113.295 65.8006 
-74.4528 -87.076 65.7788 -73.7741 -88.5015 66.4229 -73.2797 -90.253 67.1159 
-73.013 -92.2866 67.7443 -72.6811 -94.4994 68.179 -72.2714 -96.6682 68.5787 
-71.8873 -98.416 69.1086 -71.4402 -99.7272 69.6547 -71.1255 -100.982 70.0562 
-75.0004 -86.1909 66.0789 -74.977 -86.5735 67.1183 -74.9683 -87.0238 68.3003 
-75.0592 -87.6096 69.4722 -75.2099 -88.3677 70.5303 -75.249 -89.1686 71.6044 
-75.2201 -89.8824 72.7019 -75.2699 -90.5308 73.7227 -75.357 -91.1735 74.6742 
-74.7491 -86.4483 64.5599 -74.364 -87.2028 63.938 -73.8772 -88.0675 63.3932 
-73.5179 -89.0465 63.007 -73.3725 -90.3212 62.7631 -73.2692 -91.9219 62.6724 
-73.1958 -93.5908 62.7066 -73.2123 -95.1012 62.7532 -73.2444 -96.4634 62.7571 
-75.4783 -84.9355 65.0186 -76.0044 -83.8377 64.9515 -76.6502 -82.6892 65.0615 
-77.3546 -81.8262 65.2968 -78.0468 -81.1003 65.6083 -78.7086 -80.1814 66.0883 
-79.3772 -79.6725 66.489 -80.0581 -80.1103 66.4912 -80.6598 -80.9577 66.3265 
-75.3365 -85.0915 64.0102 -75.764 -84.4102 62.7338 -76.4818 -83.9376 61.5491 
-77.3738 -83.6182 60.4697 -78.1769 -83.5008 59.3148 -78.9879 -83.6762 58.2569 
-79.9187 -83.9848 57.468 -80.6974 -84.2803 56.7575 -81.1848 -84.6485 56.0867 
-71.6206 -101.69 70.7082 -72.0544 -100.986 71.4103 -72.4399 -100.031 72.349 
-72.6391 -98.8046 73.1981 -72.7822 -97.4212 73.9264 -73.1405 -96.0354 74.5709 
-73.7496 -94.8492 74.8806 -74.4172 -93.8165 74.9793 -74.9703 -92.774 75.2242 
-70.6165 -102.211 69.844 -70.0803 -102.129 69.0927 -69.8926 -101.997 67.9425 
-69.8678 -101.667 66.82 -69.9529 -101.251 65.8518 -70.5311 -100.872 64.9502 
-71.5346 -100.387 64.4096 -72.4063 -99.6636 64.112 -72.9247 -98.7485 63.542 
-71.786 -103.344 70.8465 -72.0444 -104.313 71.8845 -71.92 -105.285 73.2699 
-71.8772 -106.31 74.4493 -72.2724 -107.188 75.231 -72.773 -107.76 75.9501 
-73.1419 -108.249 76.7705 -73.6118 -108.764 77.5619 -74.2725 -109.044 78.1942 
-71.402 -103.822 70.1067 -71.5933 -105.425 69.7725 -71.533 -106.855 69.4452 
-71.5391 -108.186 69.0759 -71.8155 -109.574 68.4429 -71.863 -110.844 67.6637 
-71.7066 -111.946 66.9221 -71.9289 -112.884 66.1707 -72.5144 -113.398 65.5373 
-80.962 -94.3458 76.2436 -80.3786 -93.8925 76.4596 -79.6907 -93.2598 76.6804 
-79.0996 -92.5377 77.1586 -78.5834 -91.9563 77.6843 -77.881 -91.6795 77.7045 
-76.9595 -91.6147 77.256 -76.1537 -91.6018 76.7477 -75.6801 -91.6486 76.2096 
-81.2229 -95.8196 76.744 -80.535 -96.8451 77.2259 -79.556 -98.131 77.6754 
-78.9208 -99.7845 78.3243 -78.4677 -101.528 78.8522 -77.7048 -103.363 79.1269 
-76.8491 -105.236 79.3111 -76.1712 -106.763 79.3101 -75.5625 -107.914 79.0326 
-81.1038 -93.1264 74.9271 -81.202 -91.3978 73.9459 -81.6172 -89.6028 73.2435 
-81.8539 -87.8819 72.5923 -81.8391 -86.4646 71.5853 -81.8547 -85.313 70.4272 
-81.8284 -84.1468 69.4339 -81.6278 -83.0379 68.4286 -81.3537 -82.218 67.32 
-75.2096 -93.0168 76.1927 -75.0831 -94.4731 76.751 -74.9729 -96.2674 77.2051 
-74.8769 -98.2399 77.6349 -74.8675 -100.049 78.0153 -74.8793 -101.766 78.2002 
-74.8051 -103.74 78.3409 -74.7432 -105.846 78.6169 -74.8074 -107.636 78.7856 
-75.8516 -90.5053 75.2198 -76.3878 -89.0958 74.6754 -76.9522 -87.5262 74.0418 
-77.5856 -85.8999 73.445 -78.2868 -84.4457 72.7624 -78.9722 -83.3503 71.7336 
-79.6428 -82.6255 70.3578 -80.2684 -82.1445 68.8959 -80.7538 -81.8065 67.5421 
-78.146 -97.6724 61.2926 -77.4168 -97.7745 61.3274 -76.6513 -97.9924 61.1691 
-76.0169 -98.3692 60.7654 -75.3571 -98.6632 60.6987 -74.6791 -98.6999 61.1031 
-74.2048 -98.5521 61.4913 -73.8685 -98.3037 61.7734 -73.533 -98.0184 62.1788 
-77.5934 -99.0554 62.3455 -76.6744 -100.769 62.868 -76.0883 -102.864 63.0317 
-75.7452 -105.285 63.1002 -75.3149 -107.4 63.1893 -74.6765 -108.916 63.3599 
-74.0509 -110.262 63.7297 -73.647 -111.588 64.202 -73.3882 -112.647 64.6671 
-79.3323 -96.1631 60.2625 -79.7755 -94.7066 59.3535 -79.877 -93.1015 59.0091 
-80.1484 -91.5602 58.2888 -80.8189 -90.54 56.4185 -81.3427 -89.9484 54.6135 
-81.4264 -89.111 54.194 -81.402 -87.7938 54.6836 -81.4871 -86.3691 55.2124 
-73.0351 -99.7597 63.0655 -72.7399 -101.758 63.1218 -72.5189 -103.606 62.8499 
-72.35 -105.521 62.4615 -72.0441 -107.612 62.2196 -71.7878 -109.388 62.2931 
-71.9264 -110.6 62.7625 -72.346 -111.636 63.5258 -72.758 -112.643 64.3768 
-73.6023 -95.9253 61.9066 -74.1862 -93.9691 61.1434 -75.0186 -91.9617 60.1848 
-75.8014 -90.1592 58.6559 -76.525 -88.9768 56.9592 -77.4514 -88.2841 55.8728 
-78.5418 -87.5886 55.4952 -79.6404 -86.7782 55.4748 -80.6869 -85.9567 55.5505 
-74.7924 -110.195 77.925 -74.7137 -111.448 77.1012 -74.5884 -112.517 76.1153 
-74.3317 -113.469 74.7272 -74.1506 -114.32 73.0342 -74.0031 -114.774 71.4551 
-73.6409 -114.736 69.8483 -73.2559 -114.429 68.0262 -73.1077 -113.97 66.3924 
-81.298 -81.1894 65.1347 -81.5833 -80.8075 63.7933 -81.9798 -80.306 62.2433 
-82.5958 -79.7005 60.6891 -83.1348 -79.5866 59.3936 -82.9914 -80.4193 58.2755 
-82.428 -81.7166 57.2183 -82.1204 -82.9169 56.3873 -81.9677 -84.0351 55.9052 
-84.291 -91.2329 65.7655 -84.1862 -91.666 66.7942 -83.5333 -92.3424 66.5241 
-83.8802 -92.1542 68.1986 -83.3188 -92.8904 67.6882 -82.4684 -93.679 67.411 
-83.5856 -92.6866 69.8988 -82.9434 -93.379 69.2213 -82.1816 -94.3138 68.7228 
-81.574 -95.4399 68.3702 -83.1306 -93.1525 71.3281 -82.5513 -93.9953 70.7496 
-81.917 -95.0412 70.1742 -81.5453 -96.3182 69.6278 -81.0936 -97.2579 69.1539 
-82.4062 -93.7227 72.3547 -82.1461 -94.9027 72.0023 -81.6642 -96.0374 71.5572 
-81.3838 -97.3061 70.9411 -81.1059 -98.2898 70.271 -80.405 -98.8595 69.7323 
-81.8701 -94.533 73.4791 -81.9125 -95.9907 73.2765 -81.5463 -97.2221 72.9201 
-81.076 -98.3009 72.3334 -80.7108 -99.1864 71.5624 -80.1294 -99.8019 70.8562 
-79.4817 -100.489 70.2644 -81.7068 -95.3287 74.8243 -81.8202 -96.8229 74.6696 
-81.503 -98.145 74.2861 -80.916 -99.1652 73.6875 -80.3891 -99.9393 72.9269 
-79.818 -100.556 72.1839 -79.241 -101.284 71.4929 -78.9778 -102.243 70.7753 
-85.1117 -88.893 65.0618 -85.2036 -87.6203 65.2091 -84.6693 -88.9145 66.2394 
-85.1516 -86.5943 65.3634 -84.6645 -87.7157 66.3796 -84.1808 -89.3834 67.533 
-84.8021 -85.52 65.5799 -84.5532 -86.7589 66.5459 -84.1595 -88.1416 67.7781 
-84.0999 -90.0901 69.3021 -84.1524 -84.4065 65.8523 -84.0621 -85.7713 66.8366 
-84.0091 -86.9221 68.1386 -84.1519 -88.566 69.7466 -84.1285 -90.4983 71.1072 
-83.3441 -83.6143 66.0681 -83.3444 -84.9759 67.0585 -83.488 -86.0115 68.4147 
-83.8349 -87.2054 70.0604 -84.0337 -88.9708 71.423 -83.4193 -90.7332 72.1321 
-82.5007 -83.0187 66.3559 -82.6622 -84.3488 67.2991 -82.8435 -85.5318 68.4794 
-83.0877 -86.5104 70.0262 -83.3804 -87.8974 71.4165 -83.1143 -89.5815 72.1909 
-82.235 -91.2693 72.7235 -81.8298 -82.5193 66.8126 -82.0916 -83.6271 67.82 
-82.2986 -84.9265 68.8005 -82.3624 -86.0371 70.0222 -82.4717 -87.219 71.3521 
-82.4644 -88.7441 72.258 -81.9568 -90.4124 72.8567 -81.4245 -92.1649 73.6909 
-81.0512 -82.5423 68.6546 -80.5128 -82.9903 70.0769 -81.2726 -83.4223 69.8426 
-79.7662 -83.5646 71.5202 -80.6297 -83.9615 71.2394 -81.35 -84.4987 70.9054 
-79.0341 -84.3448 72.8946 -79.8906 -84.6444 72.6725 -80.7749 -85.0633 72.377 
-81.4042 -85.6545 72.017 -78.3265 -85.5259 73.9481 -79.1638 -85.5428 74.07 
-80.1552 -85.9126 73.8198 -81.0171 -86.3803 73.5288 -81.4783 -87.0513 73.1271 
-77.5956 -87.17 74.583 -78.3767 -86.9436 75.0075 -79.315 -87.1235 74.9863 
-80.3151 -87.6184 74.6915 -80.994 -88.2085 74.3876 -81.3101 -88.9144 73.8894 
-76.8942 -88.9264 75.1105 -77.6096 -88.7637 75.515 -78.4555 -88.7337 75.7387 
-79.3314 -89.0902 75.5819 -80.0885 -89.7291 75.2665 -80.5834 -90.3931 74.9648 
[...]
POINT_DATA 1002
FIELD FieldData 2
Theta 1 1002 float
2.58802 2.58802 0.553574 0.553574 2.12437 1.01722 2.12437 1.01722 1.5708 
1.5708 1.5708 1.5708 2.68241 2.78649 2.89924 3.01861 3.14159 3.01861 
2.89924 2.78649 2.68241 2.61035 2.61791 2.60515 2.56958 2.51327 2.44184 
2.36202 2.27983 2.1997 2.61035 2.61791 2.60515 2.56958 2.51327 2.44184 
2.36202 2.27983 2.1997 2.50947 2.41899 2.31794 2.20864 2.0944 1.97902 
1.86631 1.75944 1.66056 2.50947 2.41899 2.31794 2.20864 2.0944 1.97902 
1.86631 1.75944 1.66056 2.61035 2.61791 2.60515 2.56958 2.51327 2.44184 
2.36202 2.27983 2.1997 2.61035 2.61791 2.60515 2.56958 2.51327 2.44184 
2.36202 2.27983 2.1997 2.50947 2.41899 2.31794 2.20864 2.0944 1.97902 
1.86631 1.75944 1.66056 2.50947 2.41899 2.31794 2.20864 2.0944 1.97902 
1.86631 1.75944 1.66056 0.459179 0.355101 0.242354 0.122983 0 0.122983 
0.242354 0.355101 0.459179 0.531246 0.523681 0.536438 0.57201 0.628319 0.699757 
0.779574 0.86176 0.941896 0.531246 0.523681 0.536438 0.57201 0.628319 0.699757 
0.779574 0.86176 0.941896 0.632123 0.7226 0.823657 0.932948 1.0472 1.16257 
1.27528 1.38216 1.48103 0.632123 0.7226 0.823657 0.932948 1.0472 1.16257 
1.27528 1.38216 1.48103 0.531246 0.523681 0.536438 0.57201 0.628319 0.699757 
0.779574 0.86176 0.941896 0.531246 0.523681 0.536438 0.57201 0.628319 0.699757 
0.779574 0.86176 0.941896 0.632123 0.7226 0.823657 0.932948 1.0472 1.16257 
1.27528 1.38216 1.48103 0.632123 0.7226 0.823657 0.932948 1.0472 1.16257 
1.27528 1.38216 1.48103 2.02998 1.9259 1.81315 1.69378 1.5708 1.44781 
1.32844 1.2157 1.11162 2.0928 2.05283 2.00422 1.94767 1.88496 1.81867 
1.75177 1.68695 1.62623 2.0928 2.05283 2.00422 1.94767 1.88496 1.81867 
1.75177 1.68695 1.62623 1.0488 1.08876 1.13737 1.19392 1.25664 1.32292 
1.38982 1.45464 1.51537 1.0488 1.08876 1.13737 1.19392 1.25664 1.32292 
1.38982 1.45464 1.51537 2.02998 1.9259 1.81315 1.69378 1.5708 1.44781 
1.32844 1.2157 1.11162 2.0928 2.05283 2.00422 1.94767 1.88496 1.81867 
1.75177 1.68695 1.62623 2.0928 2.05283 2.00422 1.94767 1.88496 1.81867 
1.75177 1.68695 1.62623 1.0488 1.08876 1.13737 1.19392 1.25664 1.32292 
1.38982 1.45464 1.51537 1.0488 1.08876 1.13737 1.19392 1.25664 1.32292 
1.38982 1.45464 1.51537 1.5708 1.5708 1.5708 1.5708 1.5708 1.5708 
1.5708 1.5708 1.5708 1.5708 1.5708 1.5708 1.5708 1.5708 1.5708 
1.5708 1.5708 1.5708 2.70908 2.71362 2.81592 2.68886 2.81002 2.92597 
2.6349 2.76254 2.89233 3.01997 2.55881 2.68262 2.80854 2.92834 3.01997 
2.47007 2.58462 2.70048 2.80854 2.89233 2.92597 2.37702 2.48017 2.58462 
2.68262 2.76254 2.81002 2.81592 2.28567 2.37702 2.47007 2.55881 2.6349 
2.68886 2.71362 2.70908 2.52097 2.4195 2.51718 2.30791 2.40503 2.49426 
2.18928 2.28408 2.3734 2.45144 2.06758 2.15805 2.24572 2.32523 2.39165 
1.94707 2.03138 2.11543 2.19453 2.26401 2.32035 1.83164 1.90847 1.98711 
2.06376 2.13422 2.1949 2.24359 1.72413 1.79288 1.86489 1.93728 2.00658 
2.06938 2.12312 2.16654 1.5708 1.50988 1.63171 1.44492 1.5708 1.69667 
1.37826 1.5059 1.63569 1.76333 1.31281 1.43962 1.5708 1.70197 1.82878 
1.25155 1.37501 1.50478 1.63681 1.76659 1.89004 1.19686 1.31493 1.44074 
1.5708 1.70086 1.82666 1.94473 1.15011 1.26149 1.38136 1.50697 1.63462 
1.76024 1.88011 1.99148 1.99148 1.88011 1.94473 1.76024 1.82666 1.89004 
1.63462 1.70086 1.76659 1.82878 1.50697 1.5708 1.63681 1.70197 1.76333 
1.38136 1.44074 1.50478 1.5708 1.63569 1.69667 1.26149 1.31493 1.37501 
1.43962 1.5059 1.5708 1.63171 1.15011 1.19686 1.25155 1.31281 1.37826 
1.44492 1.50988 1.5708 2.16654 2.12312 2.24359 2.06938 2.1949 2.32035 
2.00658 2.13422 2.26401 2.39165 1.93728 2.06376 2.19453 2.32523 2.45144 
1.86489 1.98711 2.11543 2.24572 2.3734 2.49426 1.79288 1.90847 2.03138 
2.15805 2.28408 2.40503 2.51718 1.72413 1.83164 1.94707 2.06758 2.18928 
2.30791 2.4195 2.52097 1.66533 1.66946 1.76911 1.67254 1.777 1.88041 
1.67418 1.78222 1.89102 1.99634 1.67418 1.78405 1.89674 2.00785 2.11299 
1.67254 1.78222 1.89674 2.01191 2.12307 2.22608 1.66946 1.777 1.89102 
2.00785 2.12307 2.23222 2.33166 1.66533 1.76911 1.88041 1.99634 2.11299 
2.22608 2.33166 2.42672 1.47626 1.37249 1.47213 1.26118 1.36459 1.46906 
1.14526 1.25058 1.35938 1.46741 1.0286 1.13374 1.24485 1.35755 1.46741 
0.915514 1.01852 1.12969 1.24485 1.35938 1.46906 0.809937 0.909371 1.01852 
1.13374 1.25058 1.36459 1.47213 0.714871 0.809937 0.915514 1.0286 1.14526 
1.26118 1.37249 1.47626 0.975055 0.898002 1.01847 0.821245 0.946693 1.07221 
0.749941 0.877585 1.00737 1.13501 0.690152 0.816367 0.94706 1.07784 1.20431 
0.647337 0.768195 0.895868 1.02616 1.15448 1.2767 0.624416 0.736561 0.857515 
0.983547 1.11021 1.23313 1.34871 0.620619 0.722093 0.833684 0.952313 1.07402 
1.19452 1.30996 1.41746 0.855925 0.764569 0.764569 0.671524 0.661425 0.671524 
0.582786 0.556971 0.556971 0.582786 0.506696 0.458968 0.441109 0.458968 0.506696 
0.45273 0.379052 0.333054 0.333054 0.379052 0.45273 0.427969 0.331576 0.249267 
0.21325 0.249267 0.331576 0.427969 0.432512 0.325669 0.215619 0.121622 0.121622 
0.215619 0.325669 0.432512 0.432512 0.427969 0.325669 0.45273 0.331576 0.215619 
0.506696 0.379052 0.249267 0.121622 0.582786 0.458968 0.333054 0.21325 0.121622 
0.671524 0.556971 0.441109 0.333054 0.249267 0.215619 0.764569 0.661425 0.556971 
0.458968 0.379052 0.331576 0.325669 0.855925 0.764569 0.671524 0.582786 0.506696 
0.45273 0.427969 0.432512 0.975055 1.01847 0.898002 1.07221 0.946693 0.821245 
1.13501 1.00737 0.877585 0.749941 1.20431 1.07784 0.94706 0.816367 0.690152 
1.2767 1.15448 1.02616 0.895868 0.768195 0.647337 1.34871 1.23313 1.11021 
0.983547 0.857515 0.736561 0.624416 1.41746 1.30996 1.19452 1.07402 0.952313 
0.833684 0.722093 0.620619 1.15011 1.26149 1.19686 1.38136 1.31493 1.25155 
1.50697 1.44074 1.37501 1.31281 1.63462 1.5708 1.50478 1.43962 1.37826 
1.76024 1.70086 1.63681 1.5708 1.5059 1.44492 1.88011 1.82666 1.76659 
1.70197 1.63569 1.5708 1.50988 1.99148 1.94473 1.89004 1.82878 1.76333 
1.69667 1.63171 1.5708 1.15011 1.19686 1.26149 1.25155 1.31493 1.38136 
1.31281 1.37501 1.44074 1.50697 1.37826 1.43962 1.50478 1.5708 1.63462 
1.44492 1.5059 1.5708 1.63681 1.70086 1.76024 1.50988 1.5708 1.63569 
1.70197 1.76659 1.82666 1.88011 1.5708 1.63171 1.69667 1.76333 1.82878 
1.89004 1.94473 1.99148 1.72413 1.83164 1.79288 1.94707 1.90847 1.86489 
2.06758 2.03138 1.98711 1.93728 2.18928 2.15805 2.11543 2.06376 2.00658 
2.30791 2.28408 2.24572 2.19453 2.13422 2.06938 2.4195 2.40503 2.3734 
2.32523 2.26401 2.1949 2.12312 2.52097 2.51718 2.49426 2.45144 2.39165 
2.32035 2.24359 2.16654 2.70908 2.81592 2.71362 2.92597 2.81002 2.68886 
3.01997 2.89233 2.76254 2.6349 3.01997 2.92834 2.80854 2.68262 2.55881 
2.92597 2.89233 2.80854 2.70048 2.58462 2.47007 2.81592 2.81002 2.76254 
2.68262 2.58462 2.48017 2.37702 2.70908 2.71362 2.68886 2.6349 2.55881 
2.47007 2.37702 2.28567 2.16654 2.24359 2.12312 2.32035 2.1949 2.06938 
2.39165 2.26401 2.13422 2.00658 2.45144 2.32523 2.19453 2.06376 1.93728 
2.49426 2.3734 2.24572 2.11543 1.98711 1.86489 2.51718 2.40503 2.28408 
2.15805 2.03138 1.90847 1.79288 2.52097 2.4195 2.30791 2.18928 2.06758 
1.94707 1.83164 1.72413 1.66533 1.76911 1.66946 1.88041 1.777 1.67254 
1.99634 1.89102 1.78222 1.67418 2.11299 2.00785 1.89674 1.78405 1.67418 
2.22608 2.12307 2.01191 1.89674 1.78222 1.67254 2.33166 2.23222 2.12307 
2.00785 1.89102 1.777 1.66946 2.42672 2.33166 2.22608 2.11299 1.99634 
1.88041 1.76911 1.66533 1.47626 1.47213 1.37249 1.46906 1.36459 1.26118 
1.46741 1.35938 1.25058 1.14526 1.46741 1.35755 1.24485 1.13374 1.0286 
1.46906 1.35938 1.24485 1.12969 1.01852 0.915514 1.47213 1.36459 1.25058 
1.13374 1.01852 0.909371 0.809937 1.47626 1.37249 1.26118 1.14526 1.0286 
0.915514 0.809937 0.714871 1.41746 1.30996 1.34871 1.19452 1.23313 1.2767 
1.07402 1.11021 1.15448 1.20431 0.952313 0.983547 1.02616 1.07784 1.13501 
0.833684 0.857515 0.895868 0.94706 1.00737 1.07221 0.722093 0.736561 0.768195 
0.816367 0.877585 0.946693 1.01847 0.620619 0.624416 0.647337 0.690152 0.749941 
0.821245 0.898002 0.975055 0.975055 0.898002 1.01847 0.821245 0.946693 1.07221 
0.749941 0.877585 1.00737 1.13501 0.690152 0.816367 0.94706 1.07784 1.20431 
0.647337 0.768195 0.895868 1.02616 1.15448 1.2767 0.624416 0.736561 0.857515 
0.983547 1.11021 1.23313 1.34871 0.620619 0.722093 0.833684 0.952313 1.07402 
1.19452 1.30996 1.41746 
Phi 1 1002 float
6.28319 3.14159 6.28319 3.14159 4.71239 4.71239 1.5708 1.5708 3.69517 
5.72961 2.58802 0.553574 6.28319 6.28319 6.28319 6.28319 3.14159 3.14159 
3.14159 3.14159 3.14159 6.1053 5.8988 5.67687 5.45995 5.26596 5.10322 
4.97131 4.86569 4.78095 0.177881 0.384387 0.606312 0.823235 1.01722 1.17997 
1.31187 1.4175 1.50223 6.18928 6.10703 6.03531 5.97283 5.91832 5.87061 
5.82869 5.79168 5.75886 0.0939024 0.176153 0.247873 0.310351 0.364864 0.412573 
0.454497 0.491504 0.524326 3.31947 3.52598 3.7479 3.96483 4.15881 4.32156 
4.45346 4.55909 4.64383 2.96371 2.75721 2.53528 2.31836 2.12437 1.96162 
1.82972 1.72409 1.63936 3.2355 3.31775 3.38947 3.45194 3.50646 3.55417 
3.59609 3.6331 3.66592 3.04769 2.96544 2.89372 2.83124 2.77673 2.72902 
2.6871 2.65009 2.61727 6.28319 6.28319 6.28319 6.28319 3.14159 3.14159 
3.14159 3.14159 3.14159 6.1053 5.8988 5.67687 5.45995 5.26596 5.10322 
4.97131 4.86569 4.78095 0.177881 0.384387 0.606312 0.823235 1.01722 1.17997 
1.31187 1.4175 1.50223 6.18928 6.10703 6.03531 5.97283 5.91832 5.87061 
5.82869 5.79168 5.75886 0.0939024 0.176153 0.247873 0.310351 0.364864 0.412573 
0.454497 0.491504 0.524326 3.31947 3.52598 3.7479 3.96483 4.15881 4.32156 
4.45346 4.55909 4.64383 2.96371 2.75721 2.53528 2.31836 2.12437 1.96162 
1.82972 1.72409 1.63936 3.2355 3.31775 3.38947 3.45194 3.50646 3.55417 
3.59609 3.6331 3.66592 3.04769 2.96544 2.89372 2.83124 2.77673 2.72902 
2.6871 2.65009 2.61727 4.71239 4.71239 4.71239 4.71239 4.71239 4.71239 
4.71239 4.71239 4.71239 4.60879 4.49914 4.3857 4.27128 4.15881 4.05096 
3.94976 3.85646 3.77161 4.81599 4.92564 5.03907 5.1535 5.26596 5.37381 
5.47502 5.56831 5.65317 4.60879 4.49914 4.3857 4.27128 4.15881 4.05096 
3.94976 3.85646 3.77161 4.81599 4.92564 5.03907 5.1535 5.26596 5.37381 
5.47502 5.56831 5.65317 1.5708 1.5708 1.5708 1.5708 1.5708 1.5708 
1.5708 1.5708 1.5708 1.6744 1.78405 1.89748 2.01191 2.12437 2.23222 
2.33343 2.42672 2.51157 1.4672 1.35755 1.24411 1.12969 1.01722 0.909371 
0.808166 0.714871 0.63002 1.6744 1.78405 1.89748 2.01191 2.12437 2.23222 
2.33343 2.42672 2.51157 1.4672 1.35755 1.24411 1.12969 1.01722 0.909371 
0.808166 0.714871 0.63002 3.60077 3.49669 3.38395 3.26458 3.14159 3.01861 
2.89924 2.78649 2.68241 5.82401 5.92808 6.04083 6.1602 6.28319 0.122983 
0.242354 0.355101 0.459179 6.05603 5.78856 5.97021 5.51259 5.60297 5.78856 
5.26596 5.26596 5.26596 5.26596 5.06749 5.0121 4.91556 4.71239 4.15881 
4.91556 4.83537 4.71239 4.50922 4.15881 3.63622 4.80045 4.71239 4.58941 
4.41268 4.15881 3.82181 3.45456 4.71239 4.62433 4.50922 4.35729 4.15881 
3.91219 3.63622 3.36875 6.01742 5.94343 5.82633 5.88092 5.76745 5.62798 
5.8278 5.71897 5.58911 5.43724 5.78235 5.67854 5.55757 5.41926 5.26596 
5.74316 5.64441 5.5315 5.40467 5.26596 5.11955 5.70914 5.61528 5.50962 
5.3926 5.26596 5.13292 4.99789 5.67937 5.59016 5.49102 5.38246 5.26596 
5.14407 5.02016 4.89798 5.56831 5.47502 5.47502 5.37381 5.37381 5.37381 
5.26596 5.26596 5.26596 5.26596 5.1535 5.1535 5.1535 5.1535 5.1535 
5.03907 5.03907 5.03907 5.03907 5.03907 5.03907 4.92564 4.92564 4.92564 
4.92564 4.92564 4.92564 4.92564 4.81599 4.81599 4.81599 4.81599 4.81599 
4.81599 4.81599 4.81599 4.60879 4.60879 4.49914 4.60879 4.49914 4.3857 
4.60879 4.49914 4.3857 4.27128 4.60879 4.49914 4.3857 4.27128 4.15881 
4.60879 4.49914 4.3857 4.27128 4.15881 4.05096 4.60879 4.49914 4.3857 
4.27128 4.15881 4.05096 3.94976 4.60879 4.49914 4.3857 4.27128 4.15881 
4.05096 3.94976 3.85646 4.5268 4.40462 4.42689 4.28071 4.29185 4.30523 
4.15881 4.15881 4.15881 4.15881 4.04232 4.03217 4.02011 4.00552 3.98753 
3.93376 3.91515 3.89328 3.86721 3.83566 3.7968 3.83461 3.8095 3.78037 
3.74624 3.70581 3.65733 3.59845 3.7454 3.71564 3.68161 3.64243 3.59698 
3.54386 3.48135 3.40735 3.56428 3.45246 3.52338 3.33203 3.40312 3.47739 
3.20576 3.27463 3.34802 3.42551 3.07742 3.14159 3.21128 3.28647 3.36688 
2.95116 3.00855 3.0719 3.14159 3.21784 3.3006 2.83072 2.88006 2.93517 
2.99672 3.06535 3.14159 3.22575 2.7189 2.7598 2.8058 2.85768 2.9163 
2.98259 3.05743 3.14159 3.56428 3.52338 3.45246 3.47739 3.40312 3.33203 
3.42551 3.34802 3.27463 3.20576 3.36688 3.28647 3.21128 3.14159 3.07742 
3.3006 3.21784 3.14159 3.0719 3.00855 2.95116 3.22575 3.14159 3.06535 
2.99672 2.93517 2.88006 2.83072 3.14159 3.05743 2.98259 2.9163 2.85768 
2.8058 2.7598 2.7189 4.5268 4.42689 4.40462 4.30523 4.29185 4.28071 
4.15881 4.15881 4.15881 4.15881 3.98753 4.00552 4.02011 4.03217 4.04232 
3.7968 3.83566 3.86721 3.89328 3.91515 3.93376 3.59845 3.65733 3.70581 
3.74624 3.78037 3.8095 3.83461 3.40735 3.48135 3.54386 3.59698 3.64243 
3.68161 3.71564 3.7454 4.71239 4.80045 4.62433 4.91556 4.71239 4.50922 
5.06749 4.83537 4.58941 4.35729 5.26596 5.0121 4.71239 4.41268 4.15881 
5.51259 5.26596 4.91556 4.50922 4.15881 3.91219 5.78856 5.60297 5.26596 
4.71239 4.15881 3.82181 3.63622 6.05603 5.97021 5.78856 5.26596 4.15881 
3.63622 3.45456 3.36875 0.227158 0.494626 0.312971 0.770593 0.680215 0.494626 
1.01722 1.01722 1.01722 1.01722 1.2157 1.27109 1.36763 1.5708 2.12437 
1.36763 1.44781 1.5708 1.77397 2.12437 2.64697 1.48273 1.5708 1.69378 
1.8705 2.12437 2.46138 2.82862 1.5708 1.65886 1.77397 1.9259 2.12437 
2.371 2.64697 2.91443 1.75639 1.87857 1.8563 2.00248 1.99133 1.97796 
2.12437 2.12437 2.12437 2.12437 2.24087 2.25101 2.26308 2.27767 2.29565 
2.34943 2.36803 2.38991 2.41597 2.44752 2.48639 2.44857 2.47368 2.50281 
2.53694 2.57738 2.62586 2.68474 2.53778 2.56754 2.60157 2.64076 2.68621 
2.73933 2.80184 2.87583 1.6744 1.6744 1.78405 1.6744 1.78405 1.89748 
1.6744 1.78405 1.89748 2.01191 1.6744 1.78405 1.89748 2.01191 2.12437 
1.6744 1.78405 1.89748 2.01191 2.12437 2.23222 1.6744 1.78405 1.89748 
2.01191 2.12437 2.23222 2.33343 1.6744 1.78405 1.89748 2.01191 2.12437 
2.23222 2.33343 2.42672 1.4672 1.35755 1.4672 1.24411 1.35755 1.4672 
1.12969 1.24411 1.35755 1.4672 1.01722 1.12969 1.24411 1.35755 1.4672 
0.909371 1.01722 1.12969 1.24411 1.35755 1.4672 0.808166 0.909371 1.01722 
1.12969 1.24411 1.35755 1.4672 0.714871 0.808166 0.909371 1.01722 1.12969 
1.24411 1.35755 1.4672 0.603812 0.57405 0.693022 0.540021 0.667908 0.792164 
0.500837 0.638778 0.773562 0.900726 0.455383 0.604649 0.751687 0.890581 1.01722 
0.402264 0.564217 0.725619 0.878514 1.01722 1.13912 0.339753 0.515737 0.694072 
0.863926 1.01722 1.15026 1.26302 0.265762 0.456853 0.655207 0.845941 1.01722 
1.16363 1.28529 1.38521 0.227158 0.312971 0.494626 0.494626 0.680215 0.770593 
1.01722 1.01722 1.01722 1.01722 2.12437 1.5708 1.36763 1.27109 1.2157 
2.64697 2.12437 1.77397 1.5708 1.44781 1.36763 2.82862 2.46138 2.12437 
1.8705 1.69378 1.5708 1.48273 2.91443 2.64697 2.371 2.12437 1.9259 
1.77397 1.65886 1.5708 1.75639 1.8563 1.87857 1.97796 1.99133 2.00248 
2.12437 2.12437 2.12437 2.12437 2.29565 2.27767 2.26308 2.25101 2.24087 
2.48639 2.44752 2.41597 2.38991 2.36803 2.34943 2.68474 2.62586 2.57738 
2.53694 2.50281 2.47368 2.44857 2.87583 2.80184 2.73933 2.68621 2.64076 
2.60157 2.56754 2.53778 5.86049 5.90139 5.97231 5.94739 6.02165 6.09275 
5.99927 6.07676 6.15015 6.21902 6.0579 6.13831 6.2135 0 0.0641696 
6.12418 6.20694 6.28319 0.069689 0.13304 0.190437 6.19903 0 0.0762451 
0.144876 0.206423 0.261531 0.310872 0 0.0841597 0.159004 0.225289 0.283913 
0.335793 0.381792 0.422692 5.86049 5.97231 5.90139 6.09275 6.02165 5.94739 
6.21902 6.15015 6.07676 5.99927 0.0641696 0 6.2135 6.13831 6.0579 
0.190437 0.13304 0.069689 6.28319 6.20694 6.12418 0.310872 0.261531 0.206423 
0.144876 0.0762451 6.28319 6.19903 0.422692 0.381792 0.335793 0.283913 0.225289 
0.159004 0.0841597 0 5.67937 5.70914 5.59016 5.74316 5.61528 5.49102 
5.78235 5.64441 5.50962 5.38246 5.8278 5.67854 5.5315 5.3926 5.26596 
5.88092 5.71897 5.55757 5.40467 5.26596 5.14407 5.94343 5.76745 5.58911 
5.41926 5.26596 5.13292 5.02016 6.01742 5.82633 5.62798 5.43724 5.26596 
5.11955 4.99789 4.89798 1.38521 1.28529 1.26302 1.16363 1.15026 1.13912 
1.01722 1.01722 1.01722 1.01722 0.845941 0.863926 0.878514 0.890581 0.900726 
0.655207 0.694072 0.725619 0.751687 0.773562 0.792164 0.456853 0.515737 0.564217 
0.604649 0.638778 0.667908 0.693022 0.265762 0.339753 0.402264 0.455383 0.500837 
0.540021 0.57405 0.603812 
