# vtk DataFile Version 4.0
vtk output
ASCII
DATASET POLYDATA
POINTS 1002 float
-85.0062 -90.7369 71.4043 -78.5408 -103.045 76.2195 -75.5735 -86.5339 72.6394 
-71.9951 -102.106 75.944 -81.4668 -95.3904 82.6951 -75.5755 -92.5771 82.236 
-78.9601 -96.8374 67.9909 -73.0887 -95.8186 67.4822 -74.8104 -108.408 82.7523 
-81.4616 -82.945 75.8641 -73.3574 -111.737 70.1656 -83.2138 -84.7209 64.7997 
-84.4148 -91.7219 72.0261 -83.6178 -92.5957 72.8793 -82.6807 -93.4685 73.7387 
-81.8557 -94.7179 74.3854 -81.2518 -96.3487 74.8386 -80.6531 -97.9025 75.2717 
-79.922 -99.1898 75.7198 -79.2421 -100.403 76.0591 -78.7943 -101.694 76.2112 
-84.7338 -90.9577 72.6861 -84.5476 -91.2344 74.1083 -84.4025 -91.6263 75.4097 
-84.1713 -92.106 76.7412 -83.8443 -92.6093 78.1526 -83.3829 -93.1349 79.2657 
-82.7573 -93.7095 80.1253 -82.1919 -94.3291 81.0701 -81.8138 -94.9185 82.0029 
-84.9105 -91.1121 70.6612 -84.6485 -91.4791 70.0668 -84.278 -92.0046 69.495 
-83.8241 -92.6938 68.9079 -83.2008 -93.3618 68.4399 -82.4928 -94.0389 68.0738 
-81.7765 -94.7798 67.8136 -80.8962 -95.4632 67.7894 -79.8791 -96.1143 67.9128 
-85.2714 -89.7925 71.67 -85.3699 -88.7488 71.9254 -85.2591 -87.6565 72.1488 
-85.0144 -86.5433 72.6113 -84.7346 -85.5707 73.3101 -84.215 -84.8553 73.8412 
-83.3156 -84.3076 74.1704 -82.4154 -83.8409 74.5924 -81.8433 -83.4041 75.1873 
-85.5618 -89.9838 70.5716 -86.2428 -89.3257 70.0048 -86.9289 -88.7503 69.2737 
-87.3039 -87.9433 68.0895 -87.1363 -86.855 66.9476 -86.5635 -85.9392 66.202 
-85.8683 -85.4036 65.5751 -85.1199 -85.0588 65.0435 -84.2295 -84.8198 64.8082 
-78.8045 -102.529 76.9308 -79.1523 -102.026 77.7039 -79.7157 -101.632 78.4967 
-80.4254 -101.31 79.3063 -81.0598 -100.841 80.1717 -81.4493 -100.022 81.0417 
-81.5275 -98.8983 81.72 -81.4257 -97.6698 82.1426 -81.3904 -96.4785 82.4465 
-78.3477 -102.675 75.5519 -78.1291 -102.26 74.8169 -78.0037 -101.731 73.9791 
-77.9737 -101.014 73.0788 -77.9095 -100.162 72.2791 -77.8136 -99.2847 71.5751 
-77.8871 -98.4924 70.7319 -78.2039 -97.8744 69.7396 -78.6071 -97.3701 68.8008 
-78.5011 -104.18 76.6187 -78.4233 -105.374 77.1362 -78.2332 -106.333 77.903 
-77.766 -106.929 78.813 -77.0005 -107.289 79.5552 -76.3457 -107.55 80.2256 
-76.0822 -107.915 81.1615 -75.8541 -108.428 82.1368 -75.3637 -108.692 82.6798 
-78.1995 -104.213 75.7819 -77.6597 -105.319 75.385 -77.0005 -106.377 74.958 
-76.5163 -107.62 74.3489 -76.1722 -108.946 73.6261 -75.6448 -109.932 72.8874 
-74.9795 -110.495 72.1029 -74.4079 -110.905 71.364 -73.8993 -111.336 70.7444 
-75.0199 -87.6363 73.1321 -74.1179 -88.5267 73.572 -73.313 -89.5393 73.972 
-73.0241 -91.2136 74.3595 -72.8996 -93.3442 74.676 -72.5608 -95.2868 75.0052 
-72.2447 -97.0335 75.4485 -72.0976 -98.8581 75.809 -72.0172 -100.625 75.9287 
-75.5319 -86.7705 73.7533 -75.4662 -87.0969 74.8197 -75.3842 -87.5199 75.7706 
-75.3464 -88.0541 76.7898 -75.3889 -88.7492 77.9014 -75.4369 -89.5686 78.9203 
-75.4167 -90.3755 79.8525 -75.4086 -91.1324 80.7363 -75.4897 -91.8785 81.5197 
-75.3406 -87.0869 71.8875 -75.0805 -87.7227 71.2192 -74.8549 -88.4739 70.6266 
-74.6211 -89.322 70.015 -74.3494 -90.2413 69.3852 -74.0912 -91.2386 68.8267 
-73.8089 -92.2906 68.3664 -73.4641 -93.393 67.9771 -73.1842 -94.5782 67.6696 
-75.8449 -85.4011 72.8274 -76.1118 -84.2562 73.0477 -76.6536 -83.3519 73.3378 
-77.3974 -82.7459 73.7752 -78.0367 -82.2298 74.3933 -78.6979 -81.6346 75.161 
-79.6206 -81.2363 75.8517 -80.5464 -81.4411 76.1332 -81.147 -82.1493 76.0271 
-75.8272 -85.6434 71.6746 -76.2593 -84.8731 70.8344 -77.0161 -84.467 70.0822 
-77.871 -84.2194 69.166 -78.6753 -83.8823 68.1579 -79.6134 -83.7487 67.335 
-80.6181 -83.9377 66.6117 -81.4948 -84.1363 65.8527 -82.3365 -84.3276 65.2037 
-72.0195 -101.273 76.8481 -72.2503 -100.372 77.4651 -72.6111 -99.3439 78.1394 
-72.8105 -98.2025 79.1274 -72.961 -97.0571 80.0846 -73.3041 -95.916 80.7755 
-73.7895 -94.8735 81.308 -74.3921 -94.0715 81.6796 -75.0496 -93.3669 81.9419 
-71.9027 -102.087 74.8289 -71.6329 -102.017 73.8795 -71.4545 -101.723 73.301 
-71.6409 -101.064 72.6038 -71.9344 -100.145 71.4514 -72.115 -99.2827 70.4035 
-72.3703 -98.5364 69.7321 -72.6601 -97.6759 69.0273 -72.8461 -96.693 68.187 
-71.9978 -102.996 76.6832 -71.9654 -104.023 77.4757 -72.0235 -105.112 78.1793 
-72.3151 -106.155 78.8066 -72.6703 -107.12 79.5544 -72.8733 -107.879 80.4675 
-73.1125 -108.307 81.2857 -73.5968 -108.505 81.8568 -74.2161 -108.56 82.3156 
-72.0184 -103.411 75.2709 -72.0255 -104.728 74.6847 -72.0298 -106.221 74.3092 
-72.0849 -107.913 73.8675 -72.1045 -109.537 73.1438 -71.9988 -110.999 72.2932 
-71.9565 -112.22 71.4623 -72.226 -112.759 70.7597 -72.7686 -112.455 70.3315 
-81.2185 -94.9855 83.1561 -80.7013 -94.5426 83.4987 -79.9293 -94.0422 83.6845 
-79.237 -93.4491 83.8916 -78.6042 -92.8204 84.1982 -77.6412 -92.3323 84.3859 
-76.5938 -92.1347 84.2264 -76.0136 -92.2169 83.6874 -75.8024 -92.4186 82.9429 
-80.8614 -96.4507 82.9969 -80.0169 -97.634 83.2105 -79.2572 -99.0061 83.6029 
-78.7198 -100.468 84.0131 -78.146 -101.998 84.222 -77.3896 -103.659 84.4446 
-76.5763 -105.193 84.5621 -75.8439 -106.374 84.1636 -75.2665 -107.394 83.4215 
-81.7126 -94.0209 82.3858 -81.8465 -92.4481 81.8064 -81.9976 -90.7826 81.2112 
-82.0864 -89.2508 80.6457 -81.9501 -87.8953 79.8578 -81.8065 -86.6147 78.9162 
-81.8059 -85.4629 78.0655 -81.7256 -84.5133 77.2561 -81.5461 -83.6994 76.4791 
-75.3113 -93.7853 82.7726 -74.9851 -95.101 83.3017 -74.6516 -96.5822 83.743 
-74.3251 -98.3792 84.0788 -74.1601 -100.495 84.206 -74.3639 -102.482 83.9905 
-74.6892 -104.054 83.578 -74.7629 -105.526 83.231 -74.7055 -107.066 82.9932 
-75.9466 -91.2396 82.1331 -76.3326 -89.7795 82.001 -76.926 -88.3731 81.6798 
-77.758 -87.0726 81.1708 -78.5381 -85.813 80.6614 -79.1444 -84.6404 80.0292 
-79.7869 -83.7186 79.0681 -80.4839 -83.1687 77.9602 -81.05 -82.9638 76.8928 
-78.6215 -96.935 67.541 -78.2159 -96.9535 67.1594 -77.6757 -96.8963 66.9048 
-76.9414 -96.8801 66.6791 -76.0858 -96.9008 66.4835 -75.2551 -96.8009 66.5254 
-74.5204 -96.5896 66.7546 -73.8895 -96.3657 66.9437 -73.3961 -96.112 67.1372 
-78.0119 -98.0632 68.4076 -77.2038 -99.5368 68.6498 -76.471 -101.348 68.8138 
-75.913 -103.529 68.8373 -75.6262 -105.751 68.5809 -75.2799 -107.543 68.4092 
-74.6709 -108.843 68.6637 -74.0909 -109.882 69.0962 -73.6943 -110.832 69.5528 
-79.8731 -95.7062 67.1353 -80.8536 -94.4533 66.2343 -81.7473 -93.2404 65.3907 
-82.5413 -92.0832 64.422 -83.1989 -90.8258 63.3778 -83.5872 -89.523 62.9426 
-83.7432 -88.2747 63.3563 -83.7421 -86.9779 63.9874 -83.5485 -85.7098 64.4231 
-72.9813 -97.7931 67.7467 -72.9223 -100.105 67.8932 -72.5863 -102.287 67.6213 
-72.1059 -104.202 67.0432 -71.9979 -106.226 66.6718 -72.2263 -108.294 66.7381 
-72.42 -109.852 67.1839 -72.6334 -110.813 68.0096 -72.9838 -111.413 69.0883 
-73.687 -94.4115 67.0713 -74.7919 -93.1733 66.8077 -76.0971 -91.7528 66.4772 
-77.2912 -90.1387 65.9676 -78.4019 -88.7927 65.4267 -79.3999 -87.7426 64.895 
-80.2635 -86.7288 64.4544 -81.2194 -85.8568 64.3539 -82.2833 -85.2245 64.5557 
-74.7348 -109.747 82.1895 -74.7196 -110.973 81.4125 -74.5879 -112.034 80.269 
-74.3285 -113.041 78.8475 -74.169 -113.778 77.2346 -74.0554 -113.889 75.4956 
-73.7765 -113.505 73.9141 -73.4833 -112.959 72.5858 -73.3681 -112.372 71.3329 
-81.7836 -82.4966 74.8612 -82.2315 -82.0683 73.7492 -82.6113 -81.7799 72.4624 
-82.9685 -81.6418 70.8917 -83.5069 -81.5554 69.1916 -83.9441 -81.6913 67.7084 
-83.9222 -82.2644 66.5833 -83.6656 -83.0957 65.7831 -83.4465 -83.9273 65.2263 
-84.1745 -92.0089 73.39 -84.0103 -92.3552 74.7057 -83.4167 -93.0105 74.0873 
-83.8216 -92.8427 75.9663 -83.2796 -93.5749 75.2202 -82.57 -94.1438 74.7514 
-83.5104 -93.4522 77.3747 -83.0208 -94.2359 76.5258 -82.4527 -94.945 75.9061 
-81.8294 -95.6124 75.3878 -83.1581 -94.113 78.7089 -82.6649 -94.9425 77.9114 
-82.1498 -95.698 77.2505 -81.6956 -96.469 76.6646 -81.2265 -97.2798 75.907 
-82.7838 -94.7906 79.8169 -82.4598 -95.742 79.1506 -81.9234 -96.5485 78.4198 
-81.4805 -97.306 77.8477 -81.0984 -98.1207 77.1211 -80.5929 -98.8094 76.2917 
-82.3555 -95.4604 80.8981 -82.347 -96.5767 80.4123 -81.992 -97.5801 79.6018 
-81.4964 -98.3826 78.8199 -81.0312 -99.049 78.1208 -80.4974 -99.6383 77.3409 
-79.8655 -100.066 76.625 -81.8971 -96.047 81.837 -82.0346 -97.2527 81.5171 
-81.9918 -98.4494 80.8727 -81.6422 -99.4433 79.9774 -81.1032 -100.092 79.0993 
-80.4577 -100.505 78.3058 -79.7847 -100.855 77.5583 -79.2202 -101.235 76.8666 
-84.968 -89.9913 72.9929 -85.0261 -88.9581 73.2104 -84.7827 -90.366 74.4063 
-84.8761 -87.8062 73.5434 -84.7529 -89.3687 74.6066 -84.5794 -90.8199 75.7613 
-84.6366 -86.6377 74.1986 -84.473 -88.102 75.0391 -84.4318 -89.7034 76.0993 
-84.2942 -91.1804 77.2711 -84.2888 -85.813 74.7795 -84.1372 -86.9764 75.5931 
-84.0843 -88.3652 76.5471 -84.1426 -89.899 77.7201 -83.9135 -91.519 78.6768 
-83.5629 -85.2735 75.0754 -83.6278 -86.3348 75.8973 -83.6263 -87.4465 76.8165 
-83.7728 -88.7146 78.0081 -83.7132 -90.2555 78.9971 -83.255 -92.0013 79.5889 
-82.6301 -84.7189 75.4289 -82.8406 -85.7488 76.2255 -82.9233 -86.8593 77.0181 
-83.1112 -88.0054 78.1322 -83.2505 -89.2866 79.2278 -82.9591 -90.8632 79.8697 
-82.4885 -92.6377 80.4064 -81.9548 -84.173 75.9381 -82.1547 -85.0606 76.754 
-82.2264 -86.137 77.5011 -82.3207 -87.3571 78.423 -82.5593 -88.6052 79.5012 
-82.5647 -89.9797 80.2672 -82.2693 -91.6226 80.8016 -82.0013 -93.3531 81.4313 
-81.2228 -83.8585 77.5497 -80.6528 -84.211 78.7674 -81.3861 -84.8228 78.4088 
-79.8972 -84.7337 80.0966 -80.7947 -85.2477 79.7744 -81.4468 -85.8801 79.3522 
-79.1929 -85.5149 81.0886 -80.0496 -85.7082 81.1026 -80.9691 -86.352 80.7182 
-81.5381 -87.1212 80.2627 -78.4727 -86.7664 81.5848 -79.296 -86.6224 81.901 
-80.2818 -87.0232 81.8023 -81.104 -87.799 81.3877 -81.6273 -88.5823 80.9976 
-77.6025 -88.2787 82.0168 -78.4812 -88.1706 82.3492 -79.4543 -88.2983 82.5148 
-80.2799 -88.8664 82.2548 -80.9311 -89.6083 81.8408 -81.5265 -90.2459 81.5497 
-76.7943 -89.696 82.4904 -77.5709 -89.6976 82.8792 -78.5986 -89.7916 83.1587 
-79.4176 -90.1674 83.0882 -79.9755 -90.8236 82.6813 -80.6777 -91.475 82.3649 
[...]
POINT_DATA 1002
FIELD FieldData 2
Theta 1 1002 float
2.58802 2.58802 0.553574 0.553574 2.12437 1.01722 2.12437 1.01722 1.5708 
1.5708 1.5708 1.5708 2.68241 2.78649 2.89924 3.01861 3.14159 3.01861 
2.89924 2.78649 2.68241 2.61035 2.61791 2.60515 2.56958 2.51327 2.44184 
2.36202 2.27983 2.1997 2.61035 2.61791 2.60515 2.56958 2.51327 2.44184 
2.36202 2.27983 2.1997 2.50947 2.41899 2.31794 2.20864 2.0944 1.97902 
1.86631 1.75944 1.66056 2.50947 2.41899 2.31794 2.20864 2.0944 1.97902 
1.86631 1.75944 1.66056 2.61035 2.61791 2.60515 2.56958 2.51327 2.44184 
2.36202 2.27983 2.1997 2.61035 2.61791 2.60515 2.56958 2.51327 2.44184 
2.36202 2.27983 2.1997 2.50947 2.41899 2.31794 2.20864 2.0944 1.97902 
1.86631 1.75944 1.66056 2.50947 2.41899 2.31794 2.20864 2.0944 1.97902 
1.86631 1.75944 1.66056 0.459179 0.355101 0.242354 0.122983 0 0.122983 
0.242354 0.355101 0.459179 0.531246 0.523681 0.536438 0.57201 0.628319 0.699757 
0.779574 0.86176 0.941896 0.531246 0.523681 0.536438 0.57201 0.628319 0.699757 
0.779574 0.86176 0.941896 0.632123 0.7226 0.823657 0.932948 1.0472 1.16257 
1.27528 1.38216 1.48103 0.632123 0.7226 0.823657 0.932948 1.0472 1.16257 
1.27528 1.38216 1.48103 0.531246 0.523681 0.536438 0.57201 0.628319 0.699757 
0.779574 0.86176 0.941896 0.531246 0.523681 0.536438 0.57201 0.628319 0.699757 
0.779574 0.86176 0.941896 0.632123 0.7226 0.823657 0.932948 1.0472 1.16257 
1.27528 1.38216 1.48103 0.632123 0.7226 0.823657 0.932948 1.0472 1.16257 
1.27528 1.38216 1.48103 2.02998 1.9259 1.81315 1.69378 1.5708 1.44781 
1.32844 1.2157 1.11162 2.0928 2.05283 2.00422 1.94767 1.88496 1.81867 
1.75177 1.68695 1.62623 2.0928 2.05283 2.00422 1.94767 1.88496 1.81867 
1.75177 1.68695 1.62623 1.0488 1.08876 1.13737 1.19392 1.25664 1.32292 
1.38982 1.45464 1.51537 1.0488 1.08876 1.13737 1.19392 1.25664 1.32292 
1.38982 1.45464 1.51537 2.02998 1.9259 1.81315 1.69378 1.5708 1.44781 
1.32844 1.2157 1.11162 2.0928 2.05283 2.00422 1.94767 1.88496 1.81867 
1.75177 1.68695 1.62623 2.0928 2.05283 2.00422 1.94767 1.88496 1.81867 
1.75177 1.68695 1.62623 1.0488 1.08876 1.13737 1.19392 1.25664 1.32292 
1.38982 1.45464 1.51537 1.0488 1.08876 1.13737 1.19392 1.25664 1.32292 
1.38982 1.45464 1.51537 1.5708 1.5708 1.5708 1.5708 1.5708 1.5708 
1.5708 1.5708 1.5708 1.5708 1.5708 1.5708 1.5708 1.5708 1.5708 
1.5708 1.5708 1.5708 2.70908 2.71362 2.81592 2.68886 2.81002 2.92597 
2.6349 2.76254 2.89233 3.01997 2.55881 2.68262 2.80854 2.92834 3.01997 
2.47007 2.58462 2.70048 2.80854 2.89233 2.92597 2.37702 2.48017 2.58462 
2.68262 2.76254 2.81002 2.81592 2.28567 2.37702 2.47007 2.55881 2.6349 
2.68886 2.71362 2.70908 2.52097 2.4195 2.51718 2.30791 2.40503 2.49426 
2.18928 2.28408 2.3734 2.45144 2.06758 2.15805 2.24572 2.32523 2.39165 
1.94707 2.03138 2.11543 2.19453 2.26401 2.32035 1.83164 1.90847 1.98711 
2.06376 2.13422 2.1949 2.24359 1.72413 1.79288 1.86489 1.93728 2.00658 
2.06938 2.12312 2.16654 1.5708 1.50988 1.63171 1.44492 1.5708 1.69667 
1.37826 1.5059 1.63569 1.76333 1.31281 1.43962 1.5708 1.70197 1.82878 
1.25155 1.37501 1.50478 1.63681 1.76659 1.89004 1.19686 1.31493 1.44074 
1.5708 1.70086 1.82666 1.94473 1.15011 1.26149 1.38136 1.50697 1.63462 
1.76024 1.88011 1.99148 1.99148 1.88011 1.94473 1.76024 1.82666 1.89004 
1.63462 1.70086 1.76659 1.82878 1.50697 1.5708 1.63681 1.70197 1.76333 
1.38136 1.44074 1.50478 1.5708 1.63569 1.69667 1.26149 1.31493 1.37501 
1.43962 1.5059 1.5708 1.63171 1.15011 1.19686 1.25155 1.31281 1.37826 
1.44492 1.50988 1.5708 2.16654 2.12312 2.24359 2.06938 2.1949 2.32035 
2.00658 2.13422 2.26401 2.39165 1.93728 2.06376 2.19453 2.32523 2.45144 
1.86489 1.98711 2.11543 2.24572 2.3734 2.49426 1.79288 1.90847 2.03138 
2.15805 2.28408 2.40503 2.51718 1.72413 1.83164 1.94707 2.06758 2.18928 
2.30791 2.4195 2.52097 1.66533 1.66946 1.76911 1.67254 1.777 1.88041 
1.67418 1.78222 1.89102 1.99634 1.67418 1.78405 1.89674 2.00785 2.11299 
1.67254 1.78222 1.89674 2.01191 2.12307 2.22608 1.66946 1.777 1.89102 
2.00785 2.12307 2.23222 2.33166 1.66533 1.76911 1.88041 1.99634 2.11299 
2.22608 2.33166 2.42672 1.47626 1.37249 1.47213 1.26118 1.36459 1.46906 
1.14526 1.25058 1.35938 1.46741 1.0286 1.13374 1.24485 1.35755 1.46741 
0.915514 1.01852 1.12969 1.24485 1.35938 1.46906 0.809937 0.909371 1.01852 
1.13374 1.25058 1.36459 1.47213 0.714871 0.809937 0.915514 1.0286 1.14526 
1.26118 1.37249 1.47626 0.975055 0.898002 1.01847 0.821245 0.946693 1.07221 
0.749941 0.877585 1.00737 1.13501 0.690152 0.816367 0.94706 1.07784 1.20431 
0.647337 0.768195 0.895868 1.02616 1.15448 1.2767 0.624416 0.736561 0.857515 
0.983547 1.11021 1.23313 1.34871 0.620619 0.722093 0.833684 0.952313 1.07402 
1.19452 1.30996 1.41746 0.855925 0.764569 0.764569 0.671524 0.661425 0.671524 
0.582786 0.556971 0.556971 0.582786 0.506696 0.458968 0.441109 0.458968 0.506696 
0.45273 0.379052 0.333054 0.333054 0.379052 0.45273 0.427969 0.331576 0.249267 
0.21325 0.249267 0.331576 0.427969 0.432512 0.325669 0.215619 0.121622 0.121622 
0.215619 0.325669 0.432512 0.432512 0.427969 0.325669 0.45273 0.331576 0.215619 
0.506696 0.379052 0.249267 0.121622 0.582786 0.458968 0.333054 0.21325 0.121622 
0.671524 0.556971 0.441109 0.333054 0.249267 0.215619 0.764569 0.661425 0.556971 
0.458968 0.379052 0.331576 0.325669 0.855925 0.764569 0.671524 0.582786 0.506696 
0.45273 0.427969 0.432512 0.975055 1.01847 0.898002 1.07221 0.946693 0.821245 
1.13501 1.00737 0.877585 0.749941 1.20431 1.07784 0.94706 0.816367 0.690152 
1.2767 1.15448 1.02616 0.895868 0.768195 0.647337 1.34871 1.23313 1.11021 
0.983547 0.857515 0.736561 0.624416 1.41746 1.30996 1.19452 1.07402 0.952313 
0.833684 0.722093 0.620619 1.15011 1.26149 1.19686 1.38136 1.31493 1.25155 
1.50697 1.44074 1.37501 1.31281 1.63462 1.5708 1.50478 1.43962 1.37826 
1.76024 1.70086 1.63681 1.5708 1.5059 1.44492 1.88011 1.82666 1.76659 
1.70197 1.63569 1.5708 1.50988 1.99148 1.94473 1.89004 1.82878 1.76333 
1.69667 1.63171 1.5708 1.15011 1.19686 1.26149 1.25155 1.31493 1.38136 
1.31281 1.37501 1.44074 1.50697 1.37826 1.43962 1.50478 1.5708 1.63462 
1.44492 1.5059 1.5708 1.63681 1.70086 1.76024 1.50988 1.5708 1.63569 
1.70197 1.76659 1.82666 1.88011 1.5708 1.63171 1.69667 1.76333 1.82878 
1.89004 1.94473 1.99148 1.72413 1.83164 1.79288 1.94707 1.90847 1.86489 
2.06758 2.03138 1.98711 1.93728 2.18928 2.15805 2.11543 2.06376 2.00658 
2.30791 2.28408 2.24572 2.19453 2.13422 2.06938 2.4195 2.40503 2.3734 
2.32523 2.26401 2.1949 2.12312 2.52097 2.51718 2.49426 2.45144 2.39165 
2.32035 2.24359 2.16654 2.70908 2.81592 2.71362 2.92597 2.81002 2.68886 
3.01997 2.89233 2.76254 2.6349 3.01997 2.92834 2.80854 2.68262 2.55881 
2.92597 2.89233 2.80854 2.70048 2.58462 2.47007 2.81592 2.81002 2.76254 
2.68262 2.58462 2.48017 2.37702 2.70908 2.71362 2.68886 2.6349 2.55881 
2.47007 2.37702 2.28567 2.16654 2.24359 2.12312 2.32035 2.1949 2.06938 
2.39165 2.26401 2.13422 2.00658 2.45144 2.32523 2.19453 2.06376 1.93728 
2.49426 2.3734 2.24572 2.11543 1.98711 1.86489 2.51718 2.40503 2.28408 
2.15805 2.03138 1.90847 1.79288 2.52097 2.4195 2.30791 2.18928 2.06758 
1.94707 1.83164 1.72413 1.66533 1.76911 1.66946 1.88041 1.777 1.67254 
1.99634 1.89102 1.78222 1.67418 2.11299 2.00785 1.89674 1.78405 1.67418 
2.22608 2.12307 2.01191 1.89674 1.78222 1.67254 2.33166 2.23222 2.12307 
2.00785 1.89102 1.777 1.66946 2.42672 2.33166 2.22608 2.11299 1.99634 
1.88041 1.76911 1.66533 1.47626 1.47213 1.37249 1.46906 1.36459 1.26118 
1.46741 1.35938 1.25058 1.14526 1.46741 1.35755 1.24485 1.13374 1.0286 
1.46906 1.35938 1.24485 1.12969 1.01852 0.915514 1.47213 1.36459 1.25058 
1.13374 1.01852 0.909371 0.809937 1.47626 1.37249 1.26118 1.14526 1.0286 
0.915514 0.809937 0.714871 1.41746 1.30996 1.34871 1.19452 1.23313 1.2767 
1.07402 1.11021 1.15448 1.20431 0.952313 0.983547 1.02616 1.07784 1.13501 
0.833684 0.857515 0.895868 0.94706 1.00737 1.07221 0.722093 0.736561 0.768195 
0.816367 0.877585 0.946693 1.01847 0.620619 0.624416 0.647337 0.690152 0.749941 
0.821245 0.898002 0.975055 0.975055 0.898002 1.01847 0.821245 0.946693 1.07221 
0.749941 0.877585 1.00737 1.13501 0.690152 0.816367 0.94706 1.07784 1.20431 
0.647337 0.768195 0.895868 1.02616 1.15448 1.2767 0.624416 0.736561 0.857515 
0.983547 1.11021 1.23313 1.34871 0.620619 0.722093 0.833684 0.952313 1.07402 
1.19452 1.30996 1.41746 
Phi 1 1002 float
6.28319 3.14159 6.28319 3.14159 4.71239 4.71239 1.5708 1.5708 3.69517 
5.72961 2.58802 0.553574 6.28319 6.28319 6.28319 6.28319 3.14159 3.14159 
3.14159 3.14159 3.14159 6.1053 5.8988 5.67687 5.45995 5.26596 5.10322 
4.97131 4.86569 4.78095 0.177881 0.384387 0.606312 0.823235 1.01722 1.17997 
1.31187 1.4175 1.50223 6.18928 6.10703 6.03531 5.97283 5.91832 5.87061 
5.82869 5.79168 5.75886 0.0939024 0.176153 0.247873 0.310351 0.364864 0.412573 
0.454497 0.491504 0.524326 3.31947 3.52598 3.7479 3.96483 4.15881 4.32156 
4.45346 4.55909 4.64383 2.96371 2.75721 2.53528 2.31836 2.12437 1.96162 
1.82972 1.72409 1.63936 3.2355 3.31775 3.38947 3.45194 3.50646 3.55417 
3.59609 3.6331 3.66592 3.04769 2.96544 2.89372 2.83124 2.77673 2.72902 
2.6871 2.65009 2.61727 6.28319 6.28319 6.28319 6.28319 3.14159 3.14159 
3.14159 3.14159 3.14159 6.1053 5.8988 5.67687 5.45995 5.26596 5.10322 
4.97131 4.86569 4.78095 0.177881 0.384387 0.606312 0.823235 1.01722 1.17997 
1.31187 1.4175 1.50223 6.18928 6.10703 6.03531 5.97283 5.91832 5.87061 
5.82869 5.79168 5.75886 0.0939024 0.176153 0.247873 0.310351 0.364864 0.412573 
0.454497 0.491504 0.524326 3.31947 3.52598 3.7479 3.96483 4.15881 4.32156 
4.45346 4.55909 4.64383 2.96371 2.75721 2.53528 2.31836 2.12437 1.96162 
1.82972 1.72409 1.63936 3.2355 3.31775 3.38947 3.45194 3.50646 3.55417 
3.59609 3.6331 3.66592 3.04769 2.96544 2.89372 2.83124 2.77673 2.72902 
2.6871 2.65009 2.61727 4.71239 4.71239 4.71239 4.71239 4.71239 4.71239 
4.71239 4.71239 4.71239 4.60879 4.49914 4.3857 4.27128 4.15881 4.05096 
3.94976 3.85646 3.77161 4.81599 4.92564 5.03907 5.1535 5.26596 5.37381 
5.47502 5.56831 5.65317 4.60879 4.49914 4.3857 4.27128 4.15881 4.05096 
3.94976 3.85646 3.77161 4.81599 4.92564 5.03907 5.1535 5.26596 5.37381 
5.47502 5.56831 5.65317 1.5708 1.5708 1.5708 1.5708 1.5708 1.5708 
1.5708 1.5708 1.5708 1.6744 1.78405 1.89748 2.01191 2.12437 2.23222 
2.33343 2.42672 2.51157 1.4672 1.35755 1.24411 1.12969 1.01722 0.909371 
0.808166 0.714871 0.63002 1.6744 1.78405 1.89748 2.01191 2.12437 2.23222 
2.33343 2.42672 2.51157 1.4672 1.35755 1.24411 1.12969 1.01722 0.909371 
0.808166 0.714871 0.63002 3.60077 3.49669 3.38395 3.26458 3.14159 3.01861 
2.89924 2.78649 2.68241 5.82401 5.92808 6.04083 6.1602 6.28319 0.122983 
0.242354 0.355101 0.459179 6.05603 5.78856 5.97021 5.51259 5.60297 5.78856 
5.26596 5.26596 5.26596 5.26596 5.06749 5.0121 4.91556 4.71239 4.15881 
4.91556 4.83537 4.71239 4.50922 4.15881 3.63622 4.80045 4.71239 4.58941 
4.41268 4.15881 3.82181 3.45456 4.71239 4.62433 4.50922 4.35729 4.15881 
3.91219 3.63622 3.36875 6.01742 5.94343 5.82633 5.88092 5.76745 5.62798 
5.8278 5.71897 5.58911 5.43724 5.78235 5.67854 5.55757 5.41926 5.26596 
5.74316 5.64441 5.5315 5.40467 5.26596 5.11955 5.70914 5.61528 5.50962 
5.3926 5.26596 5.13292 4.99789 5.67937 5.59016 5.49102 5.38246 5.26596 
5.14407 5.02016 4.89798 5.56831 5.47502 5.47502 5.37381 5.37381 5.37381 
5.26596 5.26596 5.26596 5.26596 5.1535 5.1535 5.1535 5.1535 5.1535 
5.03907 5.03907 5.03907 5.03907 5.03907 5.03907 4.92564 4.92564 4.92564 
4.92564 4.92564 4.92564 4.92564 4.81599 4.81599 4.81599 4.81599 4.81599 
4.81599 4.81599 4.81599 4.60879 4.60879 4.49914 4.60879 4.49914 4.3857 
4.60879 4.49914 4.3857 4.27128 4.60879 4.49914 4.3857 4.27128 4.15881 
4.60879 4.49914 4.3857 4.27128 4.15881 4.05096 4.60879 4.49914 4.3857 
4.27128 4.15881 4.05096 3.94976 4.60879 4.49914 4.3857 4.27128 4.15881 
4.05096 3.94976 3.85646 4.5268 4.40462 4.42689 4.28071 4.29185 4.30523 
4.15881 4.15881 4.15881 4.15881 4.04232 4.03217 4.02011 4.00552 3.98753 
3.93376 3.91515 3.89328 3.86721 3.83566 3.7968 3.83461 3.8095 3.78037 
3.74624 3.70581 3.65733 3.59845 3.7454 3.71564 3.68161 3.64243 3.59698 
3.54386 3.48135 3.40735 3.56428 3.45246 3.52338 3.33203 3.40312 3.47739 
3.20576 3.27463 3.34802 3.42551 3.07742 3.14159 3.21128 3.28647 3.36688 
2.95116 3.00855 3.0719 3.14159 3.21784 3.3006 2.83072 2.88006 2.93517 
2.99672 3.06535 3.14159 3.22575 2.7189 2.7598 2.8058 2.85768 2.9163 
2.98259 3.05743 3.14159 3.56428 3.52338 3.45246 3.47739 3.40312 3.33203 
3.42551 3.34802 3.27463 3.20576 3.36688 3.28647 3.21128 3.14159 3.07742 
3.3006 3.21784 3.14159 3.0719 3.00855 2.95116 3.22575 3.14159 3.06535 
2.99672 2.93517 2.88006 2.83072 3.14159 3.05743 2.98259 2.9163 2.85768 
2.8058 2.7598 2.7189 4.5268 4.42689 4.40462 4.30523 4.29185 4.28071 
4.15881 4.15881 4.15881 4.15881 3.98753 4.00552 4.02011 4.03217 4.04232 
3.7968 3.83566 3.86721 3.89328 3.91515 3.93376 3.59845 3.65733 3.70581 
3.74624 3.78037 3.8095 3.83461 3.40735 3.48135 3.54386 3.59698 3.64243 
3.68161 3.71564 3.7454 4.71239 4.80045 4.62433 4.91556 4.71239 4.50922 
5.06749 4.83537 4.58941 4.35729 5.26596 5.0121 4.71239 4.41268 4.15881 
5.51259 5.26596 4.91556 4.50922 4.15881 3.91219 5.78856 5.60297 5.26596 
4.71239 4.15881 3.82181 3.63622 6.05603 5.97021 5.78856 5.26596 4.15881 
3.63622 3.45456 3.36875 0.227158 0.494626 0.312971 0.770593 0.680215 0.494626 
1.01722 1.01722 1.01722 1.01722 1.2157 1.27109 1.36763 1.5708 2.12437 
1.36763 1.44781 1.5708 1.77397 2.12437 2.64697 1.48273 1.5708 1.69378 
1.8705 2.12437 2.46138 2.82862 1.5708 1.65886 1.77397 1.9259 2.12437 
2.371 2.64697 2.91443 1.75639 1.87857 1.8563 2.00248 1.99133 1.97796 
2.12437 2.12437 2.12437 2.12437 2.24087 2.25101 2.26308 2.27767 2.29565 
2.34943 2.36803 2.38991 2.41597 2.44752 2.48639 2.44857 2.47368 2.50281 
2.53694 2.57738 2.62586 2.68474 2.53778 2.56754 2.60157 2.64076 2.68621 
2.73933 2.80184 2.87583 1.6744 1.6744 1.78405 1.6744 1.78405 1.89748 
1.6744 1.78405 1.89748 2.01191 1.6744 1.78405 1.89748 2.01191 2.12437 
1.6744 1.78405 1.89748 2.01191 2.12437 2.23222 1.6744 1.78405 1.89748 
2.01191 2.12437 2.23222 2.33343 1.6744 1.78405 1.89748 2.01191 2.12437 
2.23222 2.33343 2.42672 1.4672 1.35755 1.4672 1.24411 1.35755 1.4672 
1.12969 1.24411 1.35755 1.4672 1.01722 1.12969 1.24411 1.35755 1.4672 
0.909371 1.01722 1.12969 1.24411 1.35755 1.4672 0.808166 0.909371 1.01722 
1.12969 1.24411 1.35755 1.4672 0.714871 0.808166 0.909371 1.01722 1.12969 
1.24411 1.35755 1.4672 0.603812 0.57405 0.693022 0.540021 0.667908 0.792164 
0.500837 0.638778 0.773562 0.900726 0.455383 0.604649 0.751687 0.890581 1.01722 
0.402264 0.564217 0.725619 0.878514 1.01722 1.13912 0.339753 0.515737 0.694072 
0.863926 1.01722 1.15026 1.26302 0.265762 0.456853 0.655207 0.845941 1.01722 
1.16363 1.28529 1.38521 0.227158 0.312971 0.494626 0.494626 0.680215 0.770593 
1.01722 1.01722 1.01722 1.01722 2.12437 1.5708 1.36763 1.27109 1.2157 
2.64697 2.12437 1.77397 1.5708 1.44781 1.36763 2.82862 2.46138 2.12437 
1.8705 1.69378 1.5708 1.48273 2.91443 2.64697 2.371 2.12437 1.9259 
1.77397 1.65886 1.5708 1.75639 1.8563 1.87857 1.97796 1.99133 2.00248 
2.12437 2.12437 2.12437 2.12437 2.29565 2.27767 2.26308 2.25101 2.24087 
2.48639 2.44752 2.41597 2.38991 2.36803 2.34943 2.68474 2.62586 2.57738 
2.53694 2.50281 2.47368 2.44857 2.87583 2.80184 2.73933 2.68621 2.64076 
2.60157 2.56754 2.53778 5.86049 5.90139 5.97231 5.94739 6.02165 6.09275 
5.99927 6.07676 6.15015 6.21902 6.0579 6.13831 6.2135 0 0.0641696 
6.12418 6.20694 6.28319 0.069689 0.13304 0.190437 6.19903 0 0.0762451 
0.144876 0.206423 0.261531 0.310872 0 0.0841597 0.159004 0.225289 0.283913 
0.335793 0.381792 0.422692 5.86049 5.97231 5.90139 6.09275 6.02165 5.94739 
6.21902 6.15015 6.07676 5.99927 0.0641696 0 6.2135 6.13831 6.0579 
0.190437 0.13304 0.069689 6.28319 6.20694 6.12418 0.310872 0.261531 0.206423 
0.144876 0.0762451 6.28319 6.19903 0.422692 0.381792 0.335793 0.283913 0.225289 
0.159004 0.0841597 0 5.67937 5.70914 5.59016 5.74316 5.61528 5.49102 
5.78235 5.64441 5.50962 5.38246 5.8278 5.67854 5.5315 5.3926 5.26596 
5.88092 5.71897 5.55757 5.40467 5.26596 5.14407 5.94343 5.76745 5.58911 
5.41926 5.26596 5.13292 5.02016 6.01742 5.82633 5.62798 5.43724 5.26596 
5.11955 4.99789 4.89798 1.38521 1.28529 1.26302 1.16363 1.15026 1.13912 
1.01722 1.01722 1.01722 1.01722 0.845941 0.863926 0.878514 0.890581 0.900726 
0.655207 0.694072 0.725619 0.751687 0.773562 0.792164 0.456853 0.515737 0.564217 
0.604649 0.638778 0.667908 0.693022 0.265762 0.339753 0.402264 0.455383 0.500837 
0.540021 0.57405 0.603812 
