# vtk DataFile Version 4.0
vtk output
ASCII
DATASET POLYDATA
POINTS 1002 float
-84.6406 -92.1824 72.0544 -77.9724 -104.185 76.2997 -74.4601 -87.4889 71.4044 
-70.5235 -102.434 75.721 -79.6988 -95.3211 82.0238 -73.9569 -93.0354 81.7064 
-78.4735 -98.0415 68.0176 -73.0087 -97.9893 67.4283 -73.6191 -108.406 82.7708 
-80.5095 -84.3236 74.7338 -73.148 -112.186 70.457 -82.4333 -86.2624 64.2665 
-83.7927 -92.8549 72.3034 -82.7351 -93.5115 72.7438 -81.6774 -94.3925 73.3959 
-80.8095 -95.5608 74.1256 -80.05 -96.7497 74.7932 -79.267 -97.9342 75.3424 
-78.6737 -99.45 75.7542 -78.4115 -101.251 76.0205 -78.2458 -102.903 76.1763 
-84.0867 -92.0433 72.7663 -83.2936 -91.9402 73.5528 -82.6986 -92.1419 74.679 
-82.5628 -92.7419 76.1629 -82.4529 -93.4227 77.6565 -82.0789 -93.9115 78.9993 
-81.7047 -94.2827 80.2325 -81.2687 -94.6338 81.156 -80.5328 -94.9717 81.6633 
-84.4934 -92.7159 71.3711 -84.1726 -93.1096 70.549 -83.7342 -93.4375 69.7415 
-83.2452 -94.0154 69.1502 -82.7884 -94.8399 68.7189 -82.2763 -95.5656 68.2975 
-81.4831 -96.1498 67.9859 -80.4359 -96.75 67.8995 -79.3794 -97.3781 67.9537 
-85.0269 -91.324 72.3423 -85.1536 -90.4143 72.6258 -84.8519 -89.4139 72.7837 
-84.2027 -88.2404 72.8387 -83.5633 -87.2023 72.9377 -82.9975 -86.4899 73.1419 
-82.3083 -85.8049 73.4536 -81.5926 -85.1199 73.8612 -81.0153 -84.645 74.301 
-85.1805 -91.6923 71.3788 -85.4603 -91.002 70.4337 -85.5551 -90.1947 69.1957 
-85.4667 -89.3785 67.8335 -85.2663 -88.6583 66.6215 -85.1228 -87.9604 65.6052 
-84.8978 -87.1754 64.7325 -84.3171 -86.5292 64.2011 -83.4149 -86.2557 64.1179 
-78.2598 -103.804 77.0206 -78.4285 -103.118 77.8091 -78.5409 -102.184 78.5861 
-78.7579 -101.256 79.2962 -79.2131 -100.463 80.069 -79.782 -99.7257 80.9638 
-80.0905 -98.8788 81.6462 -80.007 -97.7888 81.8964 -79.8019 -96.5279 81.9445 
-77.7881 -103.717 75.5586 -77.5361 -103.172 74.888 -77.3198 -102.545 74.1912 
-77.2264 -101.892 73.3067 -77.2603 -101.304 72.3363 -77.4047 -100.69 71.3779 
-77.6436 -99.9825 70.333 -77.9176 -99.311 69.3372 -78.1863 -98.6885 68.6003 
-77.7893 -105.114 76.9133 -77.487 -105.937 77.6431 -77.1225 -106.634 78.4797 
-76.7326 -107.309 79.4151 -76.3415 -107.964 80.3418 -76.0515 -108.505 81.1701 
-75.7433 -108.939 81.9374 -75.1111 -109.169 82.5593 -74.2662 -108.989 82.8384 
-77.4865 -105.035 75.9509 -76.9671 -106.053 75.5623 -76.5459 -107.349 75.1102 
-76.1923 -108.655 74.5644 -75.8177 -109.765 73.8765 -75.387 -110.742 73.1058 
-74.8899 -111.464 72.4253 -74.3414 -111.814 71.8272 -73.753 -112.003 71.1624 
-73.7602 -88.3413 71.7646 -73.2886 -89.5872 72.2388 -72.9711 -91.1687 72.7654 
-72.5314 -92.9164 73.2949 -72.0876 -94.833 73.8791 -71.7336 -96.7106 74.4688 
-71.138 -98.1523 74.8963 -70.4805 -99.3513 75.1762 -70.2995 -100.781 75.4436 
-74.3619 -87.6561 72.4142 -74.2193 -87.8956 73.5297 -74.0877 -88.3339 74.6033 
-74.1418 -89.0259 75.6241 -74.2613 -89.724 76.6715 -74.1556 -90.3094 77.799 
-73.93 -90.9435 78.9741 -73.8542 -91.6441 80.0521 -73.9109 -92.3411 80.9446 
-74.1267 -87.8764 70.6981 -73.9307 -88.5115 70.0557 -73.9225 -89.4385 69.5437 
-74.0124 -90.6034 69.2037 -74.0395 -91.8492 68.9286 -73.8423 -92.9763 68.5589 
-73.4776 -94.047 68.1356 -73.1978 -95.2836 67.7914 -73.0795 -96.6554 67.5661 
-75.1384 -86.8492 71.6823 -75.6685 -86.0443 71.9789 -76.1253 -85.0911 72.2665 
-76.8132 -84.2743 72.594 -77.6049 -83.5882 73.109 -78.1965 -82.8973 73.7893 
-78.7594 -82.5954 74.2929 -79.4432 -82.9725 74.4588 -80.0638 -83.6765 74.5349 
-75.0848 -87.0068 70.6895 -75.9177 -86.6309 70.0422 -76.8445 -86.3321 69.3574 
-77.7218 -85.9795 68.5497 -78.6267 -85.6093 67.6847 -79.5421 -85.4304 66.817 
-80.2464 -85.4424 65.97 -80.849 -85.5495 65.245 -81.6042 -85.8088 64.6918 
-70.3601 -101.478 76.5549 -70.4202 -100.602 77.2901 -70.9219 -99.9246 77.8442 
-71.6089 -99.15 78.3842 -72.0459 -97.9656 79.0823 -72.3037 -96.6216 79.8316 
-72.6507 -95.4858 80.4613 -73.0621 -94.5573 80.9669 -73.4877 -93.742 81.3869 
-70.4848 -102.282 74.7485 -70.4418 -102.049 73.8046 -70.4299 -101.737 72.741 
-70.3726 -101.378 71.5173 -70.4888 -101.062 70.4725 -71.0738 -100.726 69.8184 
-71.8122 -100.181 69.2738 -72.2949 -99.4536 68.6054 -72.6182 -98.7106 67.9352 
-70.6082 -103.553 76.5604 -70.4885 -104.659 77.4191 -70.4473 -105.718 78.1373 
-70.8349 -106.612 78.7092 -71.46 -107.151 79.2767 -72.0258 -107.494 79.9887 
-72.5353 -107.89 80.8201 -72.9257 -108.209 81.5855 -73.2147 -108.352 82.2174 
-70.721 -104.085 75.3185 -70.5751 -105.664 74.8203 -70.3225 -107.072 74.2527 
-70.6678 -108.261 73.7123 -71.5149 -109.08 73.2989 -72.0162 -109.941 72.7865 
-72.0658 -111.309 71.9199 -72.1941 -112.478 71.0236 -72.601 -112.676 70.5463 
-79.2406 -94.8681 82.4335 -78.8568 -94.4393 82.9943 -78.4389 -93.9699 83.5393 
-77.8158 -93.4102 83.9635 -76.9223 -92.9211 84.2031 -75.9444 -92.7593 84.0823 
-75.1747 -92.8892 83.5822 -74.6726 -93.0349 82.9423 -74.2928 -93.0626 82.3179 
-79.0619 -96.4711 82.4662 -78.6617 -97.7696 83.1713 -78.2188 -99.1307 83.8606 
-77.4044 -100.533 84.134 -76.5385 -102.086 84.1923 -75.9776 -103.82 84.4444 
-75.4285 -105.465 84.5921 -74.7087 -106.742 84.2075 -74.0598 -107.666 83.4803 
-80.1534 -93.983 81.8453 -80.5048 -92.6827 81.4469 -80.5984 -91.3662 80.7796 
-80.6287 -90.054 80.0461 -80.6946 -88.857 79.2309 -80.6226 -87.7205 78.2208 
-80.5346 -86.6274 77.2896 -80.5798 -85.7125 76.5165 -80.5928 -84.9799 75.6504 
-73.6275 -94.2059 82.3197 -73.3113 -95.4669 82.9499 -73.2155 -96.8254 83.2967 
-73.2729 -98.5093 83.281 -73.2444 -100.508 83.2836 -73.2224 -102.343 83.3871 
-73.3307 -103.881 83.2934 -73.4174 -105.454 83.0741 -73.4607 -107.065 82.9289 
-74.4442 -91.9358 81.4915 -74.9568 -90.7676 81.1744 -75.4811 -89.3802 80.768 
-76.0012 -87.7932 80.3879 -76.6743 -86.4431 79.9363 -77.6554 -85.5711 79.1139 
-78.6838 -84.9849 77.9756 -79.4575 -84.6049 76.8209 -80.0252 -84.425 75.7425 
-78.1496 -98.0965 67.6333 -77.7713 -98.2552 67.1738 -77.2418 -98.5002 66.8007 
-76.5358 -98.6882 66.6238 -75.7533 -98.7556 66.5376 -74.9736 -98.7941 66.518 
-74.2607 -98.809 66.6648 -73.6981 -98.6705 66.91 -73.2935 -98.3549 67.1496 
-77.5444 -99.3208 68.3403 -76.7914 -100.928 68.5104 -76.2048 -102.814 68.5434 
-75.8184 -104.878 68.4055 -75.5179 -106.811 68.2243 -75.0154 -108.292 68.3494 
-74.3787 -109.374 68.8206 -73.8736 -110.321 69.3553 -73.4905 -111.281 69.8671 
-79.4074 -96.9638 67.246 -80.4375 -96.0236 66.1685 -81.2482 -95.2013 65.1239 
-81.7919 -94.1273 64.3816 -82.3028 -92.6536 63.7032 -82.7592 -91.2006 63.0916 
-82.963 -89.9577 62.9929 -82.924 -88.6763 63.3715 -82.7296 -87.3615 63.8377 
-72.6309 -99.755 67.5267 -72.2991 -101.61 67.5065 -72.1354 -103.569 67.1852 
-72.051 -105.361 66.4336 -71.9704 -106.821 65.8807 -72.0272 -108.282 66.352 
-72.2 -109.8 67.4807 -72.414 -110.989 68.5033 -72.7416 -111.735 69.4264 
-73.6067 -96.3166 67.0531 -74.4819 -94.5499 66.6117 -75.7052 -93.0965 66.1665 
-77.0218 -91.967 65.7505 -78.0038 -90.7285 65.2196 -78.7693 -89.3873 64.5357 
-79.7361 -88.3747 64.0518 -80.7971 -87.6692 64.0025 -81.6776 -86.9714 64.1551 
-73.5707 -109.525 82.1515 -73.5337 -110.646 81.2828 -73.549 -111.817 80.2045 
-73.6664 -112.949 79.0714 -73.7149 -113.77 77.7016 -73.5423 -114.05 75.9929 
-73.3286 -113.834 74.3692 -73.2349 -113.382 72.9841 -73.1961 -112.843 71.6551 
-80.7988 -83.8426 73.6345 -81.2699 -83.4026 72.68 -81.8337 -83.1788 71.6201 
-82.3245 -83.0894 70.0298 -82.7929 -82.918 68.3505 -83.2423 -82.9454 67.2206 
-83.3781 -83.5211 66.3053 -83.1175 -84.3992 65.3519 -82.7368 -85.3055 64.6597 
-83.125 -92.725 73.0681 -82.4842 -92.8012 74.0328 -82.2056 -93.6195 73.6788 
-82.2474 -93.4 75.4443 -81.9531 -94.1058 74.8916 -81.4805 -94.9201 74.5008 
-82.2234 -94.2841 77.0611 -81.8866 -94.9828 76.4127 -81.461 -95.7123 75.8139 
-80.8332 -96.3727 75.2502 -81.9945 -94.9509 78.5064 -81.6595 -95.8019 77.8451 
-81.2296 -96.4772 77.1765 -80.6932 -97.1033 76.4878 -80.0015 -97.5582 75.8322 
-81.7066 -95.413 79.828 -81.4504 -96.4481 79.1303 -80.966 -97.1643 78.3732 
-80.3506 -97.6902 77.6947 -79.7009 -98.1869 77.0034 -79.1202 -98.7359 76.3229 
-81.3767 -95.8532 80.9402 -81.3494 -97.0713 80.4067 -80.9918 -97.9561 79.595 
-80.2804 -98.4685 78.7982 -79.4871 -98.9085 78.1391 -78.9192 -99.5346 77.4471 
-78.6179 -100.378 76.7001 -80.6921 -96.2252 81.5862 -80.8759 -97.5326 81.3686 
-80.7996 -98.5913 80.7916 -80.2463 -99.274 79.914 -79.457 -99.7919 79.112 
-78.8591 -100.451 78.4495 -78.5854 -101.339 77.7129 -78.4515 -102.238 76.9102 
-84.4339 -91.2612 73.1369 -84.5824 -90.4398 73.5301 -83.6333 -91.2377 74.0619 
-84.2833 -89.4295 73.7132 -83.8927 -90.4208 74.5647 -83.0909 -91.4096 75.3007 
-83.5394 -88.3357 73.7001 -83.6439 -89.4053 74.7736 -83.3229 -90.4788 75.8034 
-82.8205 -91.8477 76.7184 -82.7932 -87.5064 73.7912 -82.877 -88.4571 74.8208 
-82.9449 -89.4861 76.0353 -82.6638 -90.8248 77.0641 -82.3528 -92.405 78.0488 
-82.2416 -86.7993 74.1776 -82.1867 -87.6913 75.0891 -82.2666 -88.6267 76.2566 
-82.1354 -89.8813 77.3136 -81.9002 -91.4065 78.268 -81.8222 -92.8985 79.3317 
-81.6942 -86.0152 74.7403 -81.7029 -86.9116 75.618 -81.7695 -87.846 76.6419 
-81.734 -89.0134 77.6889 -81.5122 -90.4487 78.5676 -81.457 -91.923 79.5341 
-81.4768 -93.2774 80.5188 -81.1177 -85.3819 75.2549 -81.1541 -86.2034 76.1377 
-81.2263 -87.1549 77.018 -81.3348 -88.2665 78.0474 -81.246 -89.532 78.9806 
-81.1297 -90.921 79.7997 -81.1378 -92.2933 80.6697 -80.9613 -93.609 81.3419 
-80.0787 -85.1467 76.6548 -79.4452 -85.4132 77.7449 -79.9438 -86.0092 77.4699 
-78.6377 -85.8203 79.0182 -79.2583 -86.4051 78.6391 -79.8289 -87.113 78.3154 
-77.6754 -86.4681 80.1525 -78.5585 -86.8932 79.9451 -79.1653 -87.6419 79.5296 
-79.875 -88.3262 79.313 -76.7274 -87.5845 80.8021 -77.7271 -87.7145 80.9183 
-78.5753 -88.2742 80.6583 -79.1679 -88.9822 80.3367 -79.8775 -89.518 80.197 
-75.9398 -89.1006 81.226 -76.73 -88.9862 81.5828 -77.7755 -89.219 81.6409 
-78.5516 -89.7893 81.3488 -79.0967 -90.35 81.0566 -79.8302 -90.8055 80.9242 
-75.3396 -90.5906 81.6734 -75.8443 -90.4164 82.1942 -76.7349 -90.3852 82.6164 
-77.7531 -90.7045 82.5934 -78.4458 -91.2618 82.1865 -79.0336 -91.7472 81.8324 
[...]
POINT_DATA 1002
FIELD FieldData 2
Theta 1 1002 float
2.58802 2.58802 0.553574 0.553574 2.12437 1.01722 2.12437 1.01722 1.5708 
1.5708 1.5708 1.5708 2.68241 2.78649 2.89924 3.01861 3.14159 3.01861 
2.89924 2.78649 2.68241 2.61035 2.61791 2.60515 2.56958 2.51327 2.44184 
2.36202 2.27983 2.1997 2.61035 2.61791 2.60515 2.56958 2.51327 2.44184 
2.36202 2.27983 2.1997 2.50947 2.41899 2.31794 2.20864 2.0944 1.97902 
1.86631 1.75944 1.66056 2.50947 2.41899 2.31794 2.20864 2.0944 1.97902 
1.86631 1.75944 1.66056 2.61035 2.61791 2.60515 2.56958 2.51327 2.44184 
2.36202 2.27983 2.1997 2.61035 2.61791 2.60515 2.56958 2.51327 2.44184 
2.36202 2.27983 2.1997 2.50947 2.41899 2.31794 2.20864 2.0944 1.97902 
1.86631 1.75944 1.66056 2.50947 2.41899 2.31794 2.20864 2.0944 1.97902 
1.86631 1.75944 1.66056 0.459179 0.355101 0.242354 0.122983 0 0.122983 
0.242354 0.355101 0.459179 0.531246 0.523681 0.536438 0.57201 0.628319 0.699757 
0.779574 0.86176 0.941896 0.531246 0.523681 0.536438 0.57201 0.628319 0.699757 
0.779574 0.86176 0.941896 0.632123 0.7226 0.823657 0.932948 1.0472 1.16257 
1.27528 1.38216 1.48103 0.632123 0.7226 0.823657 0.932948 1.0472 1.16257 
1.27528 1.38216 1.48103 0.531246 0.523681 0.536438 0.57201 0.628319 0.699757 
0.779574 0.86176 0.941896 0.531246 0.523681 0.536438 0.57201 0.628319 0.699757 
0.779574 0.86176 0.941896 0.632123 0.7226 0.823657 0.932948 1.0472 1.16257 
1.27528 1.38216 1.48103 0.632123 0.7226 0.823657 0.932948 1.0472 1.16257 
1.27528 1.38216 1.48103 2.02998 1.9259 1.81315 1.69378 1.5708 1.44781 
1.32844 1.2157 1.11162 2.0928 2.05283 2.00422 1.94767 1.88496 1.81867 
1.75177 1.68695 1.62623 2.0928 2.05283 2.00422 1.94767 1.88496 1.81867 
1.75177 1.68695 1.62623 1.0488 1.08876 1.13737 1.19392 1.25664 1.32292 
1.38982 1.45464 1.51537 1.0488 1.08876 1.13737 1.19392 1.25664 1.32292 
1.38982 1.45464 1.51537 2.02998 1.9259 1.81315 1.69378 1.5708 1.44781 
1.32844 1.2157 1.11162 2.0928 2.05283 2.00422 1.94767 1.88496 1.81867 
1.75177 1.68695 1.62623 2.0928 2.05283 2.00422 1.94767 1.88496 1.81867 
1.75177 1.68695 1.62623 1.0488 1.08876 1.13737 1.19392 1.25664 1.32292 
1.38982 1.45464 1.51537 1.0488 1.08876 1.13737 1.19392 1.25664 1.32292 
1.38982 1.45464 1.51537 1.5708 1.5708 1.5708 1.5708 1.5708 1.5708 
1.5708 1.5708 1.5708 1.5708 1.5708 1.5708 1.5708 1.5708 1.5708 
1.5708 1.5708 1.5708 2.70908 2.71362 2.81592 2.68886 2.81002 2.92597 
2.6349 2.76254 2.89233 3.01997 2.55881 2.68262 2.80854 2.92834 3.01997 
2.47007 2.58462 2.70048 2.80854 2.89233 2.92597 2.37702 2.48017 2.58462 
2.68262 2.76254 2.81002 2.81592 2.28567 2.37702 2.47007 2.55881 2.6349 
2.68886 2.71362 2.70908 2.52097 2.4195 2.51718 2.30791 2.40503 2.49426 
2.18928 2.28408 2.3734 2.45144 2.06758 2.15805 2.24572 2.32523 2.39165 
1.94707 2.03138 2.11543 2.19453 2.26401 2.32035 1.83164 1.90847 1.98711 
2.06376 2.13422 2.1949 2.24359 1.72413 1.79288 1.86489 1.93728 2.00658 
2.06938 2.12312 2.16654 1.5708 1.50988 1.63171 1.44492 1.5708 1.69667 
1.37826 1.5059 1.63569 1.76333 1.31281 1.43962 1.5708 1.70197 1.82878 
1.25155 1.37501 1.50478 1.63681 1.76659 1.89004 1.19686 1.31493 1.44074 
1.5708 1.70086 1.82666 1.94473 1.15011 1.26149 1.38136 1.50697 1.63462 
1.76024 1.88011 1.99148 1.99148 1.88011 1.94473 1.76024 1.82666 1.89004 
1.63462 1.70086 1.76659 1.82878 1.50697 1.5708 1.63681 1.70197 1.76333 
1.38136 1.44074 1.50478 1.5708 1.63569 1.69667 1.26149 1.31493 1.37501 
1.43962 1.5059 1.5708 1.63171 1.15011 1.19686 1.25155 1.31281 1.37826 
1.44492 1.50988 1.5708 2.16654 2.12312 2.24359 2.06938 2.1949 2.32035 
2.00658 2.13422 2.26401 2.39165 1.93728 2.06376 2.19453 2.32523 2.45144 
1.86489 1.98711 2.11543 2.24572 2.3734 2.49426 1.79288 1.90847 2.03138 
2.15805 2.28408 2.40503 2.51718 1.72413 1.83164 1.94707 2.06758 2.18928 
2.30791 2.4195 2.52097 1.66533 1.66946 1.76911 1.67254 1.777 1.88041 
1.67418 1.78222 1.89102 1.99634 1.67418 1.78405 1.89674 2.00785 2.11299 
1.67254 1.78222 1.89674 2.01191 2.12307 2.22608 1.66946 1.777 1.89102 
2.00785 2.12307 2.23222 2.33166 1.66533 1.76911 1.88041 1.99634 2.11299 
2.22608 2.33166 2.42672 1.47626 1.37249 1.47213 1.26118 1.36459 1.46906 
1.14526 1.25058 1.35938 1.46741 1.0286 1.13374 1.24485 1.35755 1.46741 
0.915514 1.01852 1.12969 1.24485 1.35938 1.46906 0.809937 0.909371 1.01852 
1.13374 1.25058 1.36459 1.47213 0.714871 0.809937 0.915514 1.0286 1.14526 
1.26118 1.37249 1.47626 0.975055 0.898002 1.01847 0.821245 0.946693 1.07221 
0.749941 0.877585 1.00737 1.13501 0.690152 0.816367 0.94706 1.07784 1.20431 
0.647337 0.768195 0.895868 1.02616 1.15448 1.2767 0.624416 0.736561 0.857515 
0.983547 1.11021 1.23313 1.34871 0.620619 0.722093 0.833684 0.952313 1.07402 
1.19452 1.30996 1.41746 0.855925 0.764569 0.764569 0.671524 0.661425 0.671524 
0.582786 0.556971 0.556971 0.582786 0.506696 0.458968 0.441109 0.458968 0.506696 
0.45273 0.379052 0.333054 0.333054 0.379052 0.45273 0.427969 0.331576 0.249267 
0.21325 0.249267 0.331576 0.427969 0.432512 0.325669 0.215619 0.121622 0.121622 
0.215619 0.325669 0.432512 0.432512 0.427969 0.325669 0.45273 0.331576 0.215619 
0.506696 0.379052 0.249267 0.121622 0.582786 0.458968 0.333054 0.21325 0.121622 
0.671524 0.556971 0.441109 0.333054 0.249267 0.215619 0.764569 0.661425 0.556971 
0.458968 0.379052 0.331576 0.325669 0.855925 0.764569 0.671524 0.582786 0.506696 
0.45273 0.427969 0.432512 0.975055 1.01847 0.898002 1.07221 0.946693 0.821245 
1.13501 1.00737 0.877585 0.749941 1.20431 1.07784 0.94706 0.816367 0.690152 
1.2767 1.15448 1.02616 0.895868 0.768195 0.647337 1.34871 1.23313 1.11021 
0.983547 0.857515 0.736561 0.624416 1.41746 1.30996 1.19452 1.07402 0.952313 
0.833684 0.722093 0.620619 1.15011 1.26149 1.19686 1.38136 1.31493 1.25155 
1.50697 1.44074 1.37501 1.31281 1.63462 1.5708 1.50478 1.43962 1.37826 
1.76024 1.70086 1.63681 1.5708 1.5059 1.44492 1.88011 1.82666 1.76659 
1.70197 1.63569 1.5708 1.50988 1.99148 1.94473 1.89004 1.82878 1.76333 
1.69667 1.63171 1.5708 1.15011 1.19686 1.26149 1.25155 1.31493 1.38136 
1.31281 1.37501 1.44074 1.50697 1.37826 1.43962 1.50478 1.5708 1.63462 
1.44492 1.5059 1.5708 1.63681 1.70086 1.76024 1.50988 1.5708 1.63569 
1.70197 1.76659 1.82666 1.88011 1.5708 1.63171 1.69667 1.76333 1.82878 
1.89004 1.94473 1.99148 1.72413 1.83164 1.79288 1.94707 1.90847 1.86489 
2.06758 2.03138 1.98711 1.93728 2.18928 2.15805 2.11543 2.06376 2.00658 
2.30791 2.28408 2.24572 2.19453 2.13422 2.06938 2.4195 2.40503 2.3734 
2.32523 2.26401 2.1949 2.12312 2.52097 2.51718 2.49426 2.45144 2.39165 
2.32035 2.24359 2.16654 2.70908 2.81592 2.71362 2.92597 2.81002 2.68886 
3.01997 2.89233 2.76254 2.6349 3.01997 2.92834 2.80854 2.68262 2.55881 
2.92597 2.89233 2.80854 2.70048 2.58462 2.47007 2.81592 2.81002 2.76254 
2.68262 2.58462 2.48017 2.37702 2.70908 2.71362 2.68886 2.6349 2.55881 
2.47007 2.37702 2.28567 2.16654 2.24359 2.12312 2.32035 2.1949 2.06938 
2.39165 2.26401 2.13422 2.00658 2.45144 2.32523 2.19453 2.06376 1.93728 
2.49426 2.3734 2.24572 2.11543 1.98711 1.86489 2.51718 2.40503 2.28408 
2.15805 2.03138 1.90847 1.79288 2.52097 2.4195 2.30791 2.18928 2.06758 
1.94707 1.83164 1.72413 1.66533 1.76911 1.66946 1.88041 1.777 1.67254 
1.99634 1.89102 1.78222 1.67418 2.11299 2.00785 1.89674 1.78405 1.67418 
2.22608 2.12307 2.01191 1.89674 1.78222 1.67254 2.33166 2.23222 2.12307 
2.00785 1.89102 1.777 1.66946 2.42672 2.33166 2.22608 2.11299 1.99634 
1.88041 1.76911 1.66533 1.47626 1.47213 1.37249 1.46906 1.36459 1.26118 
1.46741 1.35938 1.25058 1.14526 1.46741 1.35755 1.24485 1.13374 1.0286 
1.46906 1.35938 1.24485 1.12969 1.01852 0.915514 1.47213 1.36459 1.25058 
1.13374 1.01852 0.909371 0.809937 1.47626 1.37249 1.26118 1.14526 1.0286 
0.915514 0.809937 0.714871 1.41746 1.30996 1.34871 1.19452 1.23313 1.2767 
1.07402 1.11021 1.15448 1.20431 0.952313 0.983547 1.02616 1.07784 1.13501 
0.833684 0.857515 0.895868 0.94706 1.00737 1.07221 0.722093 0.736561 0.768195 
0.816367 0.877585 0.946693 1.01847 0.620619 0.624416 0.647337 0.690152 0.749941 
0.821245 0.898002 0.975055 0.975055 0.898002 1.01847 0.821245 0.946693 1.07221 
0.749941 0.877585 1.00737 1.13501 0.690152 0.816367 0.94706 1.07784 1.20431 
0.647337 0.768195 0.895868 1.02616 1.15448 1.2767 0.624416 0.736561 0.857515 
0.983547 1.11021 1.23313 1.34871 0.620619 0.722093 0.833684 0.952313 1.07402 
1.19452 1.30996 1.41746 
Phi 1 1002 float
6.28319 3.14159 6.28319 3.14159 4.71239 4.71239 1.5708 1.5708 3.69517 
5.72961 2.58802 0.553574 6.28319 6.28319 6.28319 6.28319 3.14159 3.14159 
3.14159 3.14159 3.14159 6.1053 5.8988 5.67687 5.45995 5.26596 5.10322 
4.97131 4.86569 4.78095 0.177881 0.384387 0.606312 0.823235 1.01722 1.17997 
1.31187 1.4175 1.50223 6.18928 6.10703 6.03531 5.97283 5.91832 5.87061 
5.82869 5.79168 5.75886 0.0939024 0.176153 0.247873 0.310351 0.364864 0.412573 
0.454497 0.491504 0.524326 3.31947 3.52598 3.7479 3.96483 4.15881 4.32156 
4.45346 4.55909 4.64383 2.96371 2.75721 2.53528 2.31836 2.12437 1.96162 
1.82972 1.72409 1.63936 3.2355 3.31775 3.38947 3.45194 3.50646 3.55417 
3.59609 3.6331 3.66592 3.04769 2.96544 2.89372 2.83124 2.77673 2.72902 
2.6871 2.65009 2.61727 6.28319 6.28319 6.28319 6.28319 3.14159 3.14159 
3.14159 3.14159 3.14159 6.1053 5.8988 5.67687 5.45995 5.26596 5.10322 
4.97131 4.86569 4.78095 0.177881 0.384387 0.606312 0.823235 1.01722 1.17997 
1.31187 1.4175 1.50223 6.18928 6.10703 6.03531 5.97283 5.91832 5.87061 
5.82869 5.79168 5.75886 0.0939024 0.176153 0.247873 0.310351 0.364864 0.412573 
0.454497 0.491504 0.524326 3.31947 3.52598 3.7479 3.96483 4.15881 4.32156 
4.45346 4.55909 4.64383 2.96371 2.75721 2.53528 2.31836 2.12437 1.96162 
1.82972 1.72409 1.63936 3.2355 3.31775 3.38947 3.45194 3.50646 3.55417 
3.59609 3.6331 3.66592 3.04769 2.96544 2.89372 2.83124 2.77673 2.72902 
2.6871 2.65009 2.61727 4.71239 4.71239 4.71239 4.71239 4.71239 4.71239 
4.71239 4.71239 4.71239 4.60879 4.49914 4.3857 4.27128 4.15881 4.05096 
3.94976 3.85646 3.77161 4.81599 4.92564 5.03907 5.1535 5.26596 5.37381 
5.47502 5.56831 5.65317 4.60879 4.49914 4.3857 4.27128 4.15881 4.05096 
3.94976 3.85646 3.77161 4.81599 4.92564 5.03907 5.1535 5.26596 5.37381 
5.47502 5.56831 5.65317 1.5708 1.5708 1.5708 1.5708 1.5708 1.5708 
1.5708 1.5708 1.5708 1.6744 1.78405 1.89748 2.01191 2.12437 2.23222 
2.33343 2.42672 2.51157 1.4672 1.35755 1.24411 1.12969 1.01722 0.909371 
0.808166 0.714871 0.63002 1.6744 1.78405 1.89748 2.01191 2.12437 2.23222 
2.33343 2.42672 2.51157 1.4672 1.35755 1.24411 1.12969 1.01722 0.909371 
0.808166 0.714871 0.63002 3.60077 3.49669 3.38395 3.26458 3.14159 3.01861 
2.89924 2.78649 2.68241 5.82401 5.92808 6.04083 6.1602 6.28319 0.122983 
0.242354 0.355101 0.459179 6.05603 5.78856 5.97021 5.51259 5.60297 5.78856 
5.26596 5.26596 5.26596 5.26596 5.06749 5.0121 4.91556 4.71239 4.15881 
4.91556 4.83537 4.71239 4.50922 4.15881 3.63622 4.80045 4.71239 4.58941 
4.41268 4.15881 3.82181 3.45456 4.71239 4.62433 4.50922 4.35729 4.15881 
3.91219 3.63622 3.36875 6.01742 5.94343 5.82633 5.88092 5.76745 5.62798 
5.8278 5.71897 5.58911 5.43724 5.78235 5.67854 5.55757 5.41926 5.26596 
5.74316 5.64441 5.5315 5.40467 5.26596 5.11955 5.70914 5.61528 5.50962 
5.3926 5.26596 5.13292 4.99789 5.67937 5.59016 5.49102 5.38246 5.26596 
5.14407 5.02016 4.89798 5.56831 5.47502 5.47502 5.37381 5.37381 5.37381 
5.26596 5.26596 5.26596 5.26596 5.1535 5.1535 5.1535 5.1535 5.1535 
5.03907 5.03907 5.03907 5.03907 5.03907 5.03907 4.92564 4.92564 4.92564 
4.92564 4.92564 4.92564 4.92564 4.81599 4.81599 4.81599 4.81599 4.81599 
4.81599 4.81599 4.81599 4.60879 4.60879 4.49914 4.60879 4.49914 4.3857 
4.60879 4.49914 4.3857 4.27128 4.60879 4.49914 4.3857 4.27128 4.15881 
4.60879 4.49914 4.3857 4.27128 4.15881 4.05096 4.60879 4.49914 4.3857 
4.27128 4.15881 4.05096 3.94976 4.60879 4.49914 4.3857 4.27128 4.15881 
4.05096 3.94976 3.85646 4.5268 4.40462 4.42689 4.28071 4.29185 4.30523 
4.15881 4.15881 4.15881 4.15881 4.04232 4.03217 4.02011 4.00552 3.98753 
3.93376 3.91515 3.89328 3.86721 3.83566 3.7968 3.83461 3.8095 3.78037 
3.74624 3.70581 3.65733 3.59845 3.7454 3.71564 3.68161 3.64243 3.59698 
3.54386 3.48135 3.40735 3.56428 3.45246 3.52338 3.33203 3.40312 3.47739 
3.20576 3.27463 3.34802 3.42551 3.07742 3.14159 3.21128 3.28647 3.36688 
2.95116 3.00855 3.0719 3.14159 3.21784 3.3006 2.83072 2.88006 2.93517 
2.99672 3.06535 3.14159 3.22575 2.7189 2.7598 2.8058 2.85768 2.9163 
2.98259 3.05743 3.14159 3.56428 3.52338 3.45246 3.47739 3.40312 3.33203 
3.42551 3.34802 3.27463 3.20576 3.36688 3.28647 3.21128 3.14159 3.07742 
3.3006 3.21784 3.14159 3.0719 3.00855 2.95116 3.22575 3.14159 3.06535 
2.99672 2.93517 2.88006 2.83072 3.14159 3.05743 2.98259 2.9163 2.85768 
2.8058 2.7598 2.7189 4.5268 4.42689 4.40462 4.30523 4.29185 4.28071 
4.15881 4.15881 4.15881 4.15881 3.98753 4.00552 4.02011 4.03217 4.04232 
3.7968 3.83566 3.86721 3.89328 3.91515 3.93376 3.59845 3.65733 3.70581 
3.74624 3.78037 3.8095 3.83461 3.40735 3.48135 3.54386 3.59698 3.64243 
3.68161 3.71564 3.7454 4.71239 4.80045 4.62433 4.91556 4.71239 4.50922 
5.06749 4.83537 4.58941 4.35729 5.26596 5.0121 4.71239 4.41268 4.15881 
5.51259 5.26596 4.91556 4.50922 4.15881 3.91219 5.78856 5.60297 5.26596 
4.71239 4.15881 3.82181 3.63622 6.05603 5.97021 5.78856 5.26596 4.15881 
3.63622 3.45456 3.36875 0.227158 0.494626 0.312971 0.770593 0.680215 0.494626 
1.01722 1.01722 1.01722 1.01722 1.2157 1.27109 1.36763 1.5708 2.12437 
1.36763 1.44781 1.5708 1.77397 2.12437 2.64697 1.48273 1.5708 1.69378 
1.8705 2.12437 2.46138 2.82862 1.5708 1.65886 1.77397 1.9259 2.12437 
2.371 2.64697 2.91443 1.75639 1.87857 1.8563 2.00248 1.99133 1.97796 
2.12437 2.12437 2.12437 2.12437 2.24087 2.25101 2.26308 2.27767 2.29565 
2.34943 2.36803 2.38991 2.41597 2.44752 2.48639 2.44857 2.47368 2.50281 
2.53694 2.57738 2.62586 2.68474 2.53778 2.56754 2.60157 2.64076 2.68621 
2.73933 2.80184 2.87583 1.6744 1.6744 1.78405 1.6744 1.78405 1.89748 
1.6744 1.78405 1.89748 2.01191 1.6744 1.78405 1.89748 2.01191 2.12437 
1.6744 1.78405 1.89748 2.01191 2.12437 2.23222 1.6744 1.78405 1.89748 
2.01191 2.12437 2.23222 2.33343 1.6744 1.78405 1.89748 2.01191 2.12437 
2.23222 2.33343 2.42672 1.4672 1.35755 1.4672 1.24411 1.35755 1.4672 
1.12969 1.24411 1.35755 1.4672 1.01722 1.12969 1.24411 1.35755 1.4672 
0.909371 1.01722 1.12969 1.24411 1.35755 1.4672 0.808166 0.909371 1.01722 
1.12969 1.24411 1.35755 1.4672 0.714871 0.808166 0.909371 1.01722 1.12969 
1.24411 1.35755 1.4672 0.603812 0.57405 0.693022 0.540021 0.667908 0.792164 
0.500837 0.638778 0.773562 0.900726 0.455383 0.604649 0.751687 0.890581 1.01722 
0.402264 0.564217 0.725619 0.878514 1.01722 1.13912 0.339753 0.515737 0.694072 
0.863926 1.01722 1.15026 1.26302 0.265762 0.456853 0.655207 0.845941 1.01722 
1.16363 1.28529 1.38521 0.227158 0.312971 0.494626 0.494626 0.680215 0.770593 
1.01722 1.01722 1.01722 1.01722 2.12437 1.5708 1.36763 1.27109 1.2157 
2.64697 2.12437 1.77397 1.5708 1.44781 1.36763 2.82862 2.46138 2.12437 
1.8705 1.69378 1.5708 1.48273 2.91443 2.64697 2.371 2.12437 1.9259 
1.77397 1.65886 1.5708 1.75639 1.8563 1.87857 1.97796 1.99133 2.00248 
2.12437 2.12437 2.12437 2.12437 2.29565 2.27767 2.26308 2.25101 2.24087 
2.48639 2.44752 2.41597 2.38991 2.36803 2.34943 2.68474 2.62586 2.57738 
2.53694 2.50281 2.47368 2.44857 2.87583 2.80184 2.73933 2.68621 2.64076 
2.60157 2.56754 2.53778 5.86049 5.90139 5.97231 5.94739 6.02165 6.09275 
5.99927 6.07676 6.15015 6.21902 6.0579 6.13831 6.2135 0 0.0641696 
6.12418 6.20694 6.28319 0.069689 0.13304 0.190437 6.19903 0 0.0762451 
0.144876 0.206423 0.261531 0.310872 0 0.0841597 0.159004 0.225289 0.283913 
0.335793 0.381792 0.422692 5.86049 5.97231 5.90139 6.09275 6.02165 5.94739 
6.21902 6.15015 6.07676 5.99927 0.0641696 0 6.2135 6.13831 6.0579 
0.190437 0.13304 0.069689 6.28319 6.20694 6.12418 0.310872 0.261531 0.206423 
0.144876 0.0762451 6.28319 6.19903 0.422692 0.381792 0.335793 0.283913 0.225289 
0.159004 0.0841597 0 5.67937 5.70914 5.59016 5.74316 5.61528 5.49102 
5.78235 5.64441 5.50962 5.38246 5.8278 5.67854 5.5315 5.3926 5.26596 
5.88092 5.71897 5.55757 5.40467 5.26596 5.14407 5.94343 5.76745 5.58911 
5.41926 5.26596 5.13292 5.02016 6.01742 5.82633 5.62798 5.43724 5.26596 
5.11955 4.99789 4.89798 1.38521 1.28529 1.26302 1.16363 1.15026 1.13912 
1.01722 1.01722 1.01722 1.01722 0.845941 0.863926 0.878514 0.890581 0.900726 
0.655207 0.694072 0.725619 0.751687 0.773562 0.792164 0.456853 0.515737 0.564217 
0.604649 0.638778 0.667908 0.693022 0.265762 0.339753 0.402264 0.455383 0.500837 
0.540021 0.57405 0.603812 
