# vtk DataFile Version 4.0
vtk output
ASCII
DATASET POLYDATA
POINTS 1002 float
-84.2008 -87.7942 61.2976 -78.3895 -100.016 68.6474 -73.5162 -83.5949 63.2648 
-71.5923 -99.4372 68.2019 -81.5487 -91.1752 73.6542 -75.2508 -88.7252 73.7556 
-77.6059 -95.0076 59.8788 -72.3178 -95.1975 60.2351 -75.2213 -103.964 75.6227 
-79.8318 -80.4627 64.7071 -73.1429 -109.86 63.9459 -79.8399 -82.9395 53.8365 
-83.3657 -88.5358 62.1379 -82.5271 -89.168 63.2294 -81.9347 -90.1397 64.3436 
-81.4607 -91.6944 65.2279 -80.8144 -93.2772 66.0371 -80.0265 -94.4735 66.9445 
-79.3727 -95.7018 67.6742 -78.9522 -97.1992 68.0807 -78.6457 -98.6856 68.3724 
-83.8486 -87.9129 62.4702 -83.5444 -88.1192 63.9583 -83.7118 -88.3977 65.555 
-84.1994 -88.7435 67.0809 -84.2052 -89.0655 68.4479 -83.5675 -89.3177 69.5702 
-82.8468 -89.6561 70.5847 -82.2966 -90.1749 71.6993 -81.881 -90.7315 72.7961 
-83.9419 -88.3172 60.728 -83.6048 -88.963 60.1693 -83.2961 -89.6622 59.7199 
-82.8559 -90.3224 59.3967 -82.0213 -90.857 59.1629 -80.9188 -91.3063 59.1362 
-79.9283 -91.9773 59.3385 -79.1448 -93.0157 59.5626 -78.3964 -94.1148 59.7287 
-84.633 -86.8672 61.2107 -84.7019 -85.7639 61.23 -84.4258 -84.564 61.5331 
-83.9756 -83.4311 62.0435 -83.3316 -82.6828 62.4382 -82.5299 -82.2175 62.6994 
-81.832 -81.6199 63.0824 -81.2052 -81.0186 63.5987 -80.4917 -80.6863 64.1315 
-84.7102 -87.1616 60.3175 -84.9402 -86.4366 59.2838 -84.9759 -85.7661 57.867 
-84.8288 -85.1819 56.2721 -84.2997 -84.5696 55.139 -83.4518 -84.0272 54.568 
-82.5266 -83.73 54.142 -81.5814 -83.5227 53.7621 -80.6619 -83.2304 53.6454 
-78.6 -99.2481 69.3041 -79.0759 -98.5974 69.9004 -79.8797 -98.1559 70.5291 
-80.6604 -97.6813 71.193 -81.1781 -96.9738 71.8043 -81.5711 -96.0749 72.52 
-81.8514 -94.958 73.3032 -81.8988 -93.6295 73.7353 -81.761 -92.3072 73.7508 
-78.2566 -99.8727 67.8148 -77.9243 -99.496 67.0381 -77.6679 -99.0666 66.2133 
-77.6729 -98.7263 65.1675 -77.599 -98.1986 64.1295 -77.3143 -97.4202 63.3285 
-77.1836 -96.7421 62.4876 -77.2958 -96.2014 61.4906 -77.4569 -95.6186 60.593 
-78.2759 -100.886 69.3431 -78.2796 -101.947 70.0262 -78.4114 -103.086 70.7681 
-78.3856 -103.924 71.7751 -78.0653 -104.351 72.9244 -77.6335 -104.628 73.9308 
-77.1159 -104.839 74.7727 -76.4385 -104.825 75.3951 -75.7492 -104.51 75.6569 
-78.1598 -101.34 68.2959 -77.8698 -102.746 67.8348 -77.4559 -104.128 67.4071 
-76.9775 -105.442 67.039 -76.4381 -106.734 66.5992 -75.8362 -107.962 66.0659 
-75.3176 -108.859 65.5061 -74.8032 -109.324 64.9181 -74.044 -109.616 64.3588 
-73.0967 -84.7115 63.8031 -72.7824 -86.1495 64.41 -72.4768 -87.7888 65.0529 
-72.0494 -89.52 65.7605 -71.5033 -91.2978 66.5031 -71.1898 -92.9973 67.0172 
-71.4361 -94.6076 67.1987 -71.8602 -96.2956 67.3524 -71.8912 -97.9974 67.7187 
-73.6404 -83.9163 64.2247 -73.7963 -84.3299 65.2608 -73.8865 -84.6897 66.3546 
-74.0324 -85.0963 67.5041 -74.2897 -85.7017 68.6693 -74.4215 -86.3023 69.8721 
-74.4525 -86.8032 71.1177 -74.6548 -87.4127 72.2196 -74.9869 -88.1099 73.0654 
-73.1765 -84.091 62.6523 -72.9068 -84.8954 62.0416 -72.7995 -85.9779 61.5073 
-72.7987 -87.2547 61.1479 -72.5752 -88.6625 60.9176 -72.1402 -90.1121 60.6461 
-71.9474 -91.4625 60.4034 -72.0583 -92.6808 60.3283 -72.2026 -93.8981 60.308 
-74.1041 -82.82 63.3339 -74.7866 -82.0009 63.4187 -75.3889 -80.958 63.5094 
-75.7545 -79.7487 63.6609 -76.2019 -78.7907 63.9989 -77.1837 -78.4526 64.4191 
-78.3225 -78.681 64.6083 -79.0075 -79.2344 64.5636 -79.3818 -79.8926 64.5577 
-73.8904 -82.9282 62.3442 -74.484 -82.3917 61.2785 -75.1201 -81.8429 60.0382 
-75.7243 -81.2082 58.7723 -76.4143 -80.7654 57.65 -77.1096 -80.7323 56.577 
-77.709 -80.9489 55.5546 -78.3802 -81.3495 54.8211 -79.1551 -82.0447 54.3334 
-72.0532 -98.57 68.6023 -72.0822 -97.4075 69.5112 -71.8787 -96.0997 70.6889 
-72.0898 -94.8747 71.5239 -72.7646 -93.7585 71.963 -73.3095 -92.6432 72.4503 
-73.6607 -91.5445 72.9817 -74.1636 -90.5382 73.3174 -74.7721 -89.6137 73.5233 
-71.1812 -99.3025 67.7371 -70.8397 -99.0355 67.1064 -70.6133 -98.735 66.0923 
-70.4834 -98.3807 64.9189 -70.5542 -97.8313 63.8217 -70.7987 -97.181 62.807 
-71.1235 -96.7054 62.0203 -71.5726 -96.3596 61.5049 -72.0317 -95.8774 60.9664 
-71.6812 -100.18 68.9125 -71.8699 -100.898 69.8786 -72.0634 -101.703 70.948 
-72.2815 -102.485 71.8414 -72.6481 -103.122 72.6447 -73.0688 -103.664 73.4886 
-73.4979 -104.056 74.1467 -74.0557 -104.205 74.6237 -74.671 -104.16 75.1389 
-71.0494 -100.606 68.3394 -70.8685 -101.746 68.2262 -71.1621 -103.155 67.7359 
-71.4713 -104.79 67.1278 -71.7002 -106.12 66.6475 -72.0751 -107.29 66.1829 
-72.2567 -108.792 65.5888 -72.1785 -110.039 64.9324 -72.4189 -110.302 64.3566 
-81.1193 -90.7466 74.0212 -80.4892 -90.2889 74.3512 -79.7782 -89.8275 74.7039 
-79.1579 -89.3141 75.1246 -78.5145 -88.7373 75.5634 -77.6172 -88.2577 75.8486 
-76.6333 -88.0624 75.7453 -75.9417 -88.18 75.1869 -75.5697 -88.4682 74.4208 
-81.3508 -92.2425 74.4118 -80.9687 -93.4197 75.1387 -80.229 -94.6649 75.7615 
-79.2644 -95.9316 76.185 -78.3902 -97.2398 76.438 -77.6623 -98.6395 76.633 
-76.9498 -100.091 76.7176 -76.2627 -101.499 76.5452 -75.6832 -102.807 76.1335 
-81.5552 -89.9006 73.1407 -81.6576 -88.5418 72.6041 -81.7895 -87.0608 71.9587 
-81.8088 -85.6151 71.1545 -81.664 -84.3753 70.1493 -81.4042 -83.281 68.9738 
-81.0642 -82.313 67.8205 -80.6454 -81.5672 66.7671 -80.1965 -80.9932 65.7219 
-75.2183 -89.9462 74.2151 -75.1911 -91.3569 74.7216 -75.1202 -92.8286 75.4416 
-74.9695 -94.3109 76.1868 -74.9024 -95.8688 76.5267 -75.0657 -97.5106 76.4875 
-75.2395 -99.2084 76.3665 -75.2121 -100.931 76.1705 -75.1375 -102.558 75.8785 
-75.5151 -87.4914 73.5373 -75.7814 -86.2214 73.1422 -76.0846 -84.8415 72.5894 
-76.5669 -83.4579 71.8657 -77.3234 -82.2934 70.9485 -78.1799 -81.3336 69.9521 
-78.8458 -80.6462 68.8799 -79.2366 -80.4192 67.557 -79.5063 -80.4656 66.0626 
-77.1802 -95.1514 59.554 -76.7321 -95.3734 59.1714 -76.2528 -95.6694 58.7361 
-75.5586 -95.9625 58.4409 -74.5961 -96.1999 58.4463 -73.7202 -96.3451 58.651 
-73.182 -96.2966 58.901 -72.8307 -96.0072 59.2228 -72.5409 -95.5928 59.6865 
-76.7335 -96.2292 60.3571 -76.0347 -97.7949 60.6932 -75.6806 -99.9744 60.8241 
-75.5046 -102.326 60.7802 -75.1979 -104.167 60.856 -74.841 -105.695 61.2193 
-74.606 -107.172 61.7161 -74.2903 -108.3 62.3133 -73.7373 -109.104 63.0876 
-78.3182 -93.8575 58.9574 -79.0682 -92.674 57.6062 -79.6109 -91.5345 56.1389 
-79.8967 -90.2605 55.1628 -80.1172 -88.7363 54.4903 -80.2583 -87.304 53.4379 
-80.2046 -86.2254 52.4389 -80.0818 -85.2632 52.3915 -79.985 -84.1595 53.1089 
-72.2624 -97.0862 60.5299 -72.0024 -99.0808 60.507 -71.7384 -100.985 60.2677 
-71.8161 -102.659 60.1317 -72.0582 -104.153 60.2182 -72.0969 -105.675 60.526 
-72.0653 -107.239 61.1733 -72.2406 -108.565 62.1068 -72.6355 -109.423 63.0709 
-72.4635 -93.5182 59.406 -73.0001 -91.7296 58.6775 -74.1219 -90.0402 58.1939 
-75.2412 -88.5292 57.4782 -75.8729 -87.1511 56.2871 -76.4873 -85.9029 55.188 
-77.4584 -84.8763 54.5347 -78.4377 -84.1033 54.1246 -79.1874 -83.4872 53.8729 
-75.139 -105.43 75.1927 -75.1319 -106.843 74.6542 -74.9822 -108.089 73.7204 
-74.6245 -109.128 72.4737 -74.3646 -110.016 71.2261 -74.2671 -110.771 69.7777 
-73.9953 -111.175 67.9884 -73.5463 -111.036 66.3234 -73.2303 -110.504 65.0339 
-79.9668 -80.0323 63.3857 -80.3149 -79.4751 62.1449 -80.8428 -78.9313 60.8425 
-81.2796 -78.5923 59.2889 -81.3248 -78.4617 57.5713 -81.049 -78.5882 55.9767 
-80.7404 -79.2323 54.8784 -80.4604 -80.403 54.4031 -80.1481 -81.7431 54.173 
-83.0519 -88.7047 63.595 -83.0286 -89.0289 65.1256 -82.4072 -89.4813 64.7411 
-83.465 -89.5088 66.483 -82.5827 -89.9799 66.0273 -81.9668 -90.6637 65.6437 
-83.7785 -90.0606 67.7743 -82.866 -90.6387 67.1418 -82.0741 -91.2947 66.7618 
-81.4624 -92.3115 66.4132 -83.4686 -90.4934 69.0904 -82.8423 -91.3225 68.4273 
-82.0903 -92.0171 67.9516 -81.4765 -92.9694 67.6494 -80.7891 -93.9029 67.2883 
-82.9155 -90.8326 70.3325 -82.6412 -91.9122 69.8377 -82.0681 -92.7802 69.2802 
-81.4936 -93.6981 68.8944 -80.8791 -94.6263 68.5092 -80.1143 -95.2547 68.0633 
-82.4498 -91.2923 71.559 -82.4613 -92.5106 71.2202 -82.1428 -93.5936 70.6138 
-81.6008 -94.5394 70.0488 -81.0029 -95.4208 69.5865 -80.2852 -96.095 69.0601 
-79.5428 -96.6073 68.5462 -82.0618 -91.849 72.7646 -82.1885 -93.142 72.5698 
-82.0822 -94.3906 71.9862 -81.6868 -95.4267 71.2479 -81.1517 -96.2836 70.6581 
-80.4703 -96.9282 70.0843 -79.6719 -97.4001 69.4786 -79.0356 -97.9616 68.928 
-84.21 -86.9995 62.4223 -84.2203 -85.8155 62.5578 -83.8722 -87.1471 64.0175 
-83.9512 -84.5785 62.9605 -83.8606 -85.906 64.2047 -84.0247 -87.3146 65.796 
-83.4841 -83.6736 63.4067 -83.5504 -84.8599 64.4672 -83.827 -86.0836 65.9686 
-84.2667 -87.5203 67.4871 -82.7469 -83.1296 63.6997 -82.9454 -84.2731 64.7043 
-83.2288 -85.2867 66.0341 -83.6821 -86.3255 67.6151 -83.9142 -87.7595 68.8342 
-81.9897 -82.4562 64.0314 -82.1638 -83.628 65.0204 -82.4508 -84.7847 66.1972 
-82.8533 -85.633 67.6315 -83.2093 -86.6685 68.9565 -83.188 -88.1265 69.8702 
-81.4439 -81.6709 64.5527 -81.6056 -82.6433 65.5542 -81.8251 -83.919 66.6501 
-82.1665 -85.021 67.8965 -82.5361 -85.9677 69.1583 -82.6975 -87.2126 70.1804 
-82.5421 -88.6993 70.9597 -80.872 -81.2127 65.1399 -81.207 -81.888 66.1876 
-81.477 -82.9107 67.2731 -81.7593 -84.1038 68.4411 -82.0577 -85.2198 69.618 
-82.2472 -86.4477 70.6571 -82.2005 -87.8932 71.4769 -82.012 -89.349 72.1471 
-79.8596 -81.1147 67.1148 -79.5266 -81.2478 68.5009 -80.3225 -81.8496 68.1204 
-79.0725 -81.6328 69.7544 -79.9157 -82.1872 69.4336 -80.7703 -82.697 69.2312 
-78.3761 -82.394 70.948 -79.3647 -82.7564 70.7228 -80.2658 -83.2132 70.6144 
-81.0963 -83.6994 70.5052 -77.5303 -83.4066 72.0839 -78.6305 -83.6216 71.999 
-79.5635 -83.9943 71.879 -80.4534 -84.4074 71.8107 -81.2498 -84.9243 71.5917 
-76.7985 -84.5688 73.0519 -77.8272 -84.5807 73.2333 -78.7871 -84.8957 73.1047 
-79.6252 -85.3642 72.8357 -80.479 -85.8442 72.5931 -81.2309 -86.4127 72.3532 
-76.2706 -85.8059 73.8012 -77.0943 -85.5551 74.3227 -78.0675 -85.7049 74.4044 
-78.8994 -86.2424 73.9952 -79.6578 -86.8644 73.4713 -80.432 -87.4199 73.1878 
[...]
POINT_DATA 1002
FIELD FieldData 2
Theta 1 1002 float
2.58802 2.58802 0.553574 0.553574 2.12437 1.01722 2.12437 1.01722 1.5708 
1.5708 1.5708 1.5708 2.68241 2.78649 2.89924 3.01861 3.14159 3.01861 
2.89924 2.78649 2.68241 2.61035 2.61791 2.60515 2.56958 2.51327 2.44184 
2.36202 2.27983 2.1997 2.61035 2.61791 2.60515 2.56958 2.51327 2.44184 
2.36202 2.27983 2.1997 2.50947 2.41899 2.31794 2.20864 2.0944 1.97902 
1.86631 1.75944 1.66056 2.50947 2.41899 2.31794 2.20864 2.0944 1.97902 
1.86631 1.75944 1.66056 2.61035 2.61791 2.60515 2.56958 2.51327 2.44184 
2.36202 2.27983 2.1997 2.61035 2.61791 2.60515 2.56958 2.51327 2.44184 
2.36202 2.27983 2.1997 2.50947 2.41899 2.31794 2.20864 2.0944 1.97902 
1.86631 1.75944 1.66056 2.50947 2.41899 2.31794 2.20864 2.0944 1.97902 
1.86631 1.75944 1.66056 0.459179 0.355101 0.242354 0.122983 0 0.122983 
0.242354 0.355101 0.459179 0.531246 0.523681 0.536438 0.57201 0.628319 0.699757 
0.779574 0.86176 0.941896 0.531246 0.523681 0.536438 0.57201 0.628319 0.699757 
0.779574 0.86176 0.941896 0.632123 0.7226 0.823657 0.932948 1.0472 1.16257 
1.27528 1.38216 1.48103 0.632123 0.7226 0.823657 0.932948 1.0472 1.16257 
1.27528 1.38216 1.48103 0.531246 0.523681 0.536438 0.57201 0.628319 0.699757 
0.779574 0.86176 0.941896 0.531246 0.523681 0.536438 0.57201 0.628319 0.699757 
0.779574 0.86176 0.941896 0.632123 0.7226 0.823657 0.932948 1.0472 1.16257 
1.27528 1.38216 1.48103 0.632123 0.7226 0.823657 0.932948 1.0472 1.16257 
1.27528 1.38216 1.48103 2.02998 1.9259 1.81315 1.69378 1.5708 1.44781 
1.32844 1.2157 1.11162 2.0928 2.05283 2.00422 1.94767 1.88496 1.81867 
1.75177 1.68695 1.62623 2.0928 2.05283 2.00422 1.94767 1.88496 1.81867 
1.75177 1.68695 1.62623 1.0488 1.08876 1.13737 1.19392 1.25664 1.32292 
1.38982 1.45464 1.51537 1.0488 1.08876 1.13737 1.19392 1.25664 1.32292 
1.38982 1.45464 1.51537 2.02998 1.9259 1.81315 1.69378 1.5708 1.44781 
1.32844 1.2157 1.11162 2.0928 2.05283 2.00422 1.94767 1.88496 1.81867 
1.75177 1.68695 1.62623 2.0928 2.05283 2.00422 1.94767 1.88496 1.81867 
1.75177 1.68695 1.62623 1.0488 1.08876 1.13737 1.19392 1.25664 1.32292 
1.38982 1.45464 1.51537 1.0488 1.08876 1.13737 1.19392 1.25664 1.32292 
1.38982 1.45464 1.51537 1.5708 1.5708 1.5708 1.5708 1.5708 1.5708 
1.5708 1.5708 1.5708 1.5708 1.5708 1.5708 1.5708 1.5708 1.5708 
1.5708 1.5708 1.5708 2.70908 2.71362 2.81592 2.68886 2.81002 2.92597 
2.6349 2.76254 2.89233 3.01997 2.55881 2.68262 2.80854 2.92834 3.01997 
2.47007 2.58462 2.70048 2.80854 2.89233 2.92597 2.37702 2.48017 2.58462 
2.68262 2.76254 2.81002 2.81592 2.28567 2.37702 2.47007 2.55881 2.6349 
2.68886 2.71362 2.70908 2.52097 2.4195 2.51718 2.30791 2.40503 2.49426 
2.18928 2.28408 2.3734 2.45144 2.06758 2.15805 2.24572 2.32523 2.39165 
1.94707 2.03138 2.11543 2.19453 2.26401 2.32035 1.83164 1.90847 1.98711 
2.06376 2.13422 2.1949 2.24359 1.72413 1.79288 1.86489 1.93728 2.00658 
2.06938 2.12312 2.16654 1.5708 1.50988 1.63171 1.44492 1.5708 1.69667 
1.37826 1.5059 1.63569 1.76333 1.31281 1.43962 1.5708 1.70197 1.82878 
1.25155 1.37501 1.50478 1.63681 1.76659 1.89004 1.19686 1.31493 1.44074 
1.5708 1.70086 1.82666 1.94473 1.15011 1.26149 1.38136 1.50697 1.63462 
1.76024 1.88011 1.99148 1.99148 1.88011 1.94473 1.76024 1.82666 1.89004 
1.63462 1.70086 1.76659 1.82878 1.50697 1.5708 1.63681 1.70197 1.76333 
1.38136 1.44074 1.50478 1.5708 1.63569 1.69667 1.26149 1.31493 1.37501 
1.43962 1.5059 1.5708 1.63171 1.15011 1.19686 1.25155 1.31281 1.37826 
1.44492 1.50988 1.5708 2.16654 2.12312 2.24359 2.06938 2.1949 2.32035 
2.00658 2.13422 2.26401 2.39165 1.93728 2.06376 2.19453 2.32523 2.45144 
1.86489 1.98711 2.11543 2.24572 2.3734 2.49426 1.79288 1.90847 2.03138 
2.15805 2.28408 2.40503 2.51718 1.72413 1.83164 1.94707 2.06758 2.18928 
2.30791 2.4195 2.52097 1.66533 1.66946 1.76911 1.67254 1.777 1.88041 
1.67418 1.78222 1.89102 1.99634 1.67418 1.78405 1.89674 2.00785 2.11299 
1.67254 1.78222 1.89674 2.01191 2.12307 2.22608 1.66946 1.777 1.89102 
2.00785 2.12307 2.23222 2.33166 1.66533 1.76911 1.88041 1.99634 2.11299 
2.22608 2.33166 2.42672 1.47626 1.37249 1.47213 1.26118 1.36459 1.46906 
1.14526 1.25058 1.35938 1.46741 1.0286 1.13374 1.24485 1.35755 1.46741 
0.915514 1.01852 1.12969 1.24485 1.35938 1.46906 0.809937 0.909371 1.01852 
1.13374 1.25058 1.36459 1.47213 0.714871 0.809937 0.915514 1.0286 1.14526 
1.26118 1.37249 1.47626 0.975055 0.898002 1.01847 0.821245 0.946693 1.07221 
0.749941 0.877585 1.00737 1.13501 0.690152 0.816367 0.94706 1.07784 1.20431 
0.647337 0.768195 0.895868 1.02616 1.15448 1.2767 0.624416 0.736561 0.857515 
0.983547 1.11021 1.23313 1.34871 0.620619 0.722093 0.833684 0.952313 1.07402 
1.19452 1.30996 1.41746 0.855925 0.764569 0.764569 0.671524 0.661425 0.671524 
0.582786 0.556971 0.556971 0.582786 0.506696 0.458968 0.441109 0.458968 0.506696 
0.45273 0.379052 0.333054 0.333054 0.379052 0.45273 0.427969 0.331576 0.249267 
0.21325 0.249267 0.331576 0.427969 0.432512 0.325669 0.215619 0.121622 0.121622 
0.215619 0.325669 0.432512 0.432512 0.427969 0.325669 0.45273 0.331576 0.215619 
0.506696 0.379052 0.249267 0.121622 0.582786 0.458968 0.333054 0.21325 0.121622 
0.671524 0.556971 0.441109 0.333054 0.249267 0.215619 0.764569 0.661425 0.556971 
0.458968 0.379052 0.331576 0.325669 0.855925 0.764569 0.671524 0.582786 0.506696 
0.45273 0.427969 0.432512 0.975055 1.01847 0.898002 1.07221 0.946693 0.821245 
1.13501 1.00737 0.877585 0.749941 1.20431 1.07784 0.94706 0.816367 0.690152 
1.2767 1.15448 1.02616 0.895868 0.768195 0.647337 1.34871 1.23313 1.11021 
0.983547 0.857515 0.736561 0.624416 1.41746 1.30996 1.19452 1.07402 0.952313 
0.833684 0.722093 0.620619 1.15011 1.26149 1.19686 1.38136 1.31493 1.25155 
1.50697 1.44074 1.37501 1.31281 1.63462 1.5708 1.50478 1.43962 1.37826 
1.76024 1.70086 1.63681 1.5708 1.5059 1.44492 1.88011 1.82666 1.76659 
1.70197 1.63569 1.5708 1.50988 1.99148 1.94473 1.89004 1.82878 1.76333 
1.69667 1.63171 1.5708 1.15011 1.19686 1.26149 1.25155 1.31493 1.38136 
1.31281 1.37501 1.44074 1.50697 1.37826 1.43962 1.50478 1.5708 1.63462 
1.44492 1.5059 1.5708 1.63681 1.70086 1.76024 1.50988 1.5708 1.63569 
1.70197 1.76659 1.82666 1.88011 1.5708 1.63171 1.69667 1.76333 1.82878 
1.89004 1.94473 1.99148 1.72413 1.83164 1.79288 1.94707 1.90847 1.86489 
2.06758 2.03138 1.98711 1.93728 2.18928 2.15805 2.11543 2.06376 2.00658 
2.30791 2.28408 2.24572 2.19453 2.13422 2.06938 2.4195 2.40503 2.3734 
2.32523 2.26401 2.1949 2.12312 2.52097 2.51718 2.49426 2.45144 2.39165 
2.32035 2.24359 2.16654 2.70908 2.81592 2.71362 2.92597 2.81002 2.68886 
3.01997 2.89233 2.76254 2.6349 3.01997 2.92834 2.80854 2.68262 2.55881 
2.92597 2.89233 2.80854 2.70048 2.58462 2.47007 2.81592 2.81002 2.76254 
2.68262 2.58462 2.48017 2.37702 2.70908 2.71362 2.68886 2.6349 2.55881 
2.47007 2.37702 2.28567 2.16654 2.24359 2.12312 2.32035 2.1949 2.06938 
2.39165 2.26401 2.13422 2.00658 2.45144 2.32523 2.19453 2.06376 1.93728 
2.49426 2.3734 2.24572 2.11543 1.98711 1.86489 2.51718 2.40503 2.28408 
2.15805 2.03138 1.90847 1.79288 2.52097 2.4195 2.30791 2.18928 2.06758 
1.94707 1.83164 1.72413 1.66533 1.76911 1.66946 1.88041 1.777 1.67254 
1.99634 1.89102 1.78222 1.67418 2.11299 2.00785 1.89674 1.78405 1.67418 
2.22608 2.12307 2.01191 1.89674 1.78222 1.67254 2.33166 2.23222 2.12307 
2.00785 1.89102 1.777 1.66946 2.42672 2.33166 2.22608 2.11299 1.99634 
1.88041 1.76911 1.66533 1.47626 1.47213 1.37249 1.46906 1.36459 1.26118 
1.46741 1.35938 1.25058 1.14526 1.46741 1.35755 1.24485 1.13374 1.0286 
1.46906 1.35938 1.24485 1.12969 1.01852 0.915514 1.47213 1.36459 1.25058 
1.13374 1.01852 0.909371 0.809937 1.47626 1.37249 1.26118 1.14526 1.0286 
0.915514 0.809937 0.714871 1.41746 1.30996 1.34871 1.19452 1.23313 1.2767 
1.07402 1.11021 1.15448 1.20431 0.952313 0.983547 1.02616 1.07784 1.13501 
0.833684 0.857515 0.895868 0.94706 1.00737 1.07221 0.722093 0.736561 0.768195 
0.816367 0.877585 0.946693 1.01847 0.620619 0.624416 0.647337 0.690152 0.749941 
0.821245 0.898002 0.975055 0.975055 0.898002 1.01847 0.821245 0.946693 1.07221 
0.749941 0.877585 1.00737 1.13501 0.690152 0.816367 0.94706 1.07784 1.20431 
0.647337 0.768195 0.895868 1.02616 1.15448 1.2767 0.624416 0.736561 0.857515 
0.983547 1.11021 1.23313 1.34871 0.620619 0.722093 0.833684 0.952313 1.07402 
1.19452 1.30996 1.41746 
Phi 1 1002 float
6.28319 3.14159 6.28319 3.14159 4.71239 4.71239 1.5708 1.5708 3.69517 
5.72961 2.58802 0.553574 6.28319 6.28319 6.28319 6.28319 3.14159 3.14159 
3.14159 3.14159 3.14159 6.1053 5.8988 5.67687 5.45995 5.26596 5.10322 
4.97131 4.86569 4.78095 0.177881 0.384387 0.606312 0.823235 1.01722 1.17997 
1.31187 1.4175 1.50223 6.18928 6.10703 6.03531 5.97283 5.91832 5.87061 
5.82869 5.79168 5.75886 0.0939024 0.176153 0.247873 0.310351 0.364864 0.412573 
0.454497 0.491504 0.524326 3.31947 3.52598 3.7479 3.96483 4.15881 4.32156 
4.45346 4.55909 4.64383 2.96371 2.75721 2.53528 2.31836 2.12437 1.96162 
1.82972 1.72409 1.63936 3.2355 3.31775 3.38947 3.45194 3.50646 3.55417 
3.59609 3.6331 3.66592 3.04769 2.96544 2.89372 2.83124 2.77673 2.72902 
2.6871 2.65009 2.61727 6.28319 6.28319 6.28319 6.28319 3.14159 3.14159 
3.14159 3.14159 3.14159 6.1053 5.8988 5.67687 5.45995 5.26596 5.10322 
4.97131 4.86569 4.78095 0.177881 0.384387 0.606312 0.823235 1.01722 1.17997 
1.31187 1.4175 1.50223 6.18928 6.10703 6.03531 5.97283 5.91832 5.87061 
5.82869 5.79168 5.75886 0.0939024 0.176153 0.247873 0.310351 0.364864 0.412573 
0.454497 0.491504 0.524326 3.31947 3.52598 3.7479 3.96483 4.15881 4.32156 
4.45346 4.55909 4.64383 2.96371 2.75721 2.53528 2.31836 2.12437 1.96162 
1.82972 1.72409 1.63936 3.2355 3.31775 3.38947 3.45194 3.50646 3.55417 
3.59609 3.6331 3.66592 3.04769 2.96544 2.89372 2.83124 2.77673 2.72902 
2.6871 2.65009 2.61727 4.71239 4.71239 4.71239 4.71239 4.71239 4.71239 
4.71239 4.71239 4.71239 4.60879 4.49914 4.3857 4.27128 4.15881 4.05096 
3.94976 3.85646 3.77161 4.81599 4.92564 5.03907 5.1535 5.26596 5.37381 
5.47502 5.56831 5.65317 4.60879 4.49914 4.3857 4.27128 4.15881 4.05096 
3.94976 3.85646 3.77161 4.81599 4.92564 5.03907 5.1535 5.26596 5.37381 
5.47502 5.56831 5.65317 1.5708 1.5708 1.5708 1.5708 1.5708 1.5708 
1.5708 1.5708 1.5708 1.6744 1.78405 1.89748 2.01191 2.12437 2.23222 
2.33343 2.42672 2.51157 1.4672 1.35755 1.24411 1.12969 1.01722 0.909371 
0.808166 0.714871 0.63002 1.6744 1.78405 1.89748 2.01191 2.12437 2.23222 
2.33343 2.42672 2.51157 1.4672 1.35755 1.24411 1.12969 1.01722 0.909371 
0.808166 0.714871 0.63002 3.60077 3.49669 3.38395 3.26458 3.14159 3.01861 
2.89924 2.78649 2.68241 5.82401 5.92808 6.04083 6.1602 6.28319 0.122983 
0.242354 0.355101 0.459179 6.05603 5.78856 5.97021 5.51259 5.60297 5.78856 
5.26596 5.26596 5.26596 5.26596 5.06749 5.0121 4.91556 4.71239 4.15881 
4.91556 4.83537 4.71239 4.50922 4.15881 3.63622 4.80045 4.71239 4.58941 
4.41268 4.15881 3.82181 3.45456 4.71239 4.62433 4.50922 4.35729 4.15881 
3.91219 3.63622 3.36875 6.01742 5.94343 5.82633 5.88092 5.76745 5.62798 
5.8278 5.71897 5.58911 5.43724 5.78235 5.67854 5.55757 5.41926 5.26596 
5.74316 5.64441 5.5315 5.40467 5.26596 5.11955 5.70914 5.61528 5.50962 
5.3926 5.26596 5.13292 4.99789 5.67937 5.59016 5.49102 5.38246 5.26596 
5.14407 5.02016 4.89798 5.56831 5.47502 5.47502 5.37381 5.37381 5.37381 
5.26596 5.26596 5.26596 5.26596 5.1535 5.1535 5.1535 5.1535 5.1535 
5.03907 5.03907 5.03907 5.03907 5.03907 5.03907 4.92564 4.92564 4.92564 
4.92564 4.92564 4.92564 4.92564 4.81599 4.81599 4.81599 4.81599 4.81599 
4.81599 4.81599 4.81599 4.60879 4.60879 4.49914 4.60879 4.49914 4.3857 
4.60879 4.49914 4.3857 4.27128 4.60879 4.49914 4.3857 4.27128 4.15881 
4.60879 4.49914 4.3857 4.27128 4.15881 4.05096 4.60879 4.49914 4.3857 
4.27128 4.15881 4.05096 3.94976 4.60879 4.49914 4.3857 4.27128 4.15881 
4.05096 3.94976 3.85646 4.5268 4.40462 4.42689 4.28071 4.29185 4.30523 
4.15881 4.15881 4.15881 4.15881 4.04232 4.03217 4.02011 4.00552 3.98753 
3.93376 3.91515 3.89328 3.86721 3.83566 3.7968 3.83461 3.8095 3.78037 
3.74624 3.70581 3.65733 3.59845 3.7454 3.71564 3.68161 3.64243 3.59698 
3.54386 3.48135 3.40735 3.56428 3.45246 3.52338 3.33203 3.40312 3.47739 
3.20576 3.27463 3.34802 3.42551 3.07742 3.14159 3.21128 3.28647 3.36688 
2.95116 3.00855 3.0719 3.14159 3.21784 3.3006 2.83072 2.88006 2.93517 
2.99672 3.06535 3.14159 3.22575 2.7189 2.7598 2.8058 2.85768 2.9163 
2.98259 3.05743 3.14159 3.56428 3.52338 3.45246 3.47739 3.40312 3.33203 
3.42551 3.34802 3.27463 3.20576 3.36688 3.28647 3.21128 3.14159 3.07742 
3.3006 3.21784 3.14159 3.0719 3.00855 2.95116 3.22575 3.14159 3.06535 
2.99672 2.93517 2.88006 2.83072 3.14159 3.05743 2.98259 2.9163 2.85768 
2.8058 2.7598 2.7189 4.5268 4.42689 4.40462 4.30523 4.29185 4.28071 
4.15881 4.15881 4.15881 4.15881 3.98753 4.00552 4.02011 4.03217 4.04232 
3.7968 3.83566 3.86721 3.89328 3.91515 3.93376 3.59845 3.65733 3.70581 
3.74624 3.78037 3.8095 3.83461 3.40735 3.48135 3.54386 3.59698 3.64243 
3.68161 3.71564 3.7454 4.71239 4.80045 4.62433 4.91556 4.71239 4.50922 
5.06749 4.83537 4.58941 4.35729 5.26596 5.0121 4.71239 4.41268 4.15881 
5.51259 5.26596 4.91556 4.50922 4.15881 3.91219 5.78856 5.60297 5.26596 
4.71239 4.15881 3.82181 3.63622 6.05603 5.97021 5.78856 5.26596 4.15881 
3.63622 3.45456 3.36875 0.227158 0.494626 0.312971 0.770593 0.680215 0.494626 
1.01722 1.01722 1.01722 1.01722 1.2157 1.27109 1.36763 1.5708 2.12437 
1.36763 1.44781 1.5708 1.77397 2.12437 2.64697 1.48273 1.5708 1.69378 
1.8705 2.12437 2.46138 2.82862 1.5708 1.65886 1.77397 1.9259 2.12437 
2.371 2.64697 2.91443 1.75639 1.87857 1.8563 2.00248 1.99133 1.97796 
2.12437 2.12437 2.12437 2.12437 2.24087 2.25101 2.26308 2.27767 2.29565 
2.34943 2.36803 2.38991 2.41597 2.44752 2.48639 2.44857 2.47368 2.50281 
2.53694 2.57738 2.62586 2.68474 2.53778 2.56754 2.60157 2.64076 2.68621 
2.73933 2.80184 2.87583 1.6744 1.6744 1.78405 1.6744 1.78405 1.89748 
1.6744 1.78405 1.89748 2.01191 1.6744 1.78405 1.89748 2.01191 2.12437 
1.6744 1.78405 1.89748 2.01191 2.12437 2.23222 1.6744 1.78405 1.89748 
2.01191 2.12437 2.23222 2.33343 1.6744 1.78405 1.89748 2.01191 2.12437 
2.23222 2.33343 2.42672 1.4672 1.35755 1.4672 1.24411 1.35755 1.4672 
1.12969 1.24411 1.35755 1.4672 1.01722 1.12969 1.24411 1.35755 1.4672 
0.909371 1.01722 1.12969 1.24411 1.35755 1.4672 0.808166 0.909371 1.01722 
1.12969 1.24411 1.35755 1.4672 0.714871 0.808166 0.909371 1.01722 1.12969 
1.24411 1.35755 1.4672 0.603812 0.57405 0.693022 0.540021 0.667908 0.792164 
0.500837 0.638778 0.773562 0.900726 0.455383 0.604649 0.751687 0.890581 1.01722 
0.402264 0.564217 0.725619 0.878514 1.01722 1.13912 0.339753 0.515737 0.694072 
0.863926 1.01722 1.15026 1.26302 0.265762 0.456853 0.655207 0.845941 1.01722 
1.16363 1.28529 1.38521 0.227158 0.312971 0.494626 0.494626 0.680215 0.770593 
1.01722 1.01722 1.01722 1.01722 2.12437 1.5708 1.36763 1.27109 1.2157 
2.64697 2.12437 1.77397 1.5708 1.44781 1.36763 2.82862 2.46138 2.12437 
1.8705 1.69378 1.5708 1.48273 2.91443 2.64697 2.371 2.12437 1.9259 
1.77397 1.65886 1.5708 1.75639 1.8563 1.87857 1.97796 1.99133 2.00248 
2.12437 2.12437 2.12437 2.12437 2.29565 2.27767 2.26308 2.25101 2.24087 
2.48639 2.44752 2.41597 2.38991 2.36803 2.34943 2.68474 2.62586 2.57738 
2.53694 2.50281 2.47368 2.44857 2.87583 2.80184 2.73933 2.68621 2.64076 
2.60157 2.56754 2.53778 5.86049 5.90139 5.97231 5.94739 6.02165 6.09275 
5.99927 6.07676 6.15015 6.21902 6.0579 6.13831 6.2135 0 0.0641696 
6.12418 6.20694 6.28319 0.069689 0.13304 0.190437 6.19903 0 0.0762451 
0.144876 0.206423 0.261531 0.310872 0 0.0841597 0.159004 0.225289 0.283913 
0.335793 0.381792 0.422692 5.86049 5.97231 5.90139 6.09275 6.02165 5.94739 
6.21902 6.15015 6.07676 5.99927 0.0641696 0 6.2135 6.13831 6.0579 
0.190437 0.13304 0.069689 6.28319 6.20694 6.12418 0.310872 0.261531 0.206423 
0.144876 0.0762451 6.28319 6.19903 0.422692 0.381792 0.335793 0.283913 0.225289 
0.159004 0.0841597 0 5.67937 5.70914 5.59016 5.74316 5.61528 5.49102 
5.78235 5.64441 5.50962 5.38246 5.8278 5.67854 5.5315 5.3926 5.26596 
5.88092 5.71897 5.55757 5.40467 5.26596 5.14407 5.94343 5.76745 5.58911 
5.41926 5.26596 5.13292 5.02016 6.01742 5.82633 5.62798 5.43724 5.26596 
5.11955 4.99789 4.89798 1.38521 1.28529 1.26302 1.16363 1.15026 1.13912 
1.01722 1.01722 1.01722 1.01722 0.845941 0.863926 0.878514 0.890581 0.900726 
0.655207 0.694072 0.725619 0.751687 0.773562 0.792164 0.456853 0.515737 0.564217 
0.604649 0.638778 0.667908 0.693022 0.265762 0.339753 0.402264 0.455383 0.500837 
0.540021 0.57405 0.603812 
