# vtk DataFile Version 4.0
vtk output
ASCII
DATASET POLYDATA
POINTS 1002 float
-87.0045 -98.4198 71.8945 -81.5764 -105.004 72.1152 -80.037 -93.5842 70.6333 
-76.439 -102.277 71.4238 -82.3968 -100.058 77.1837 -79.556 -98.1792 76.2644 
-84.1885 -101.674 66.4389 -79.3368 -99.0564 66.6808 -77.1548 -107.08 75.3662 
-84.5596 -93.3165 74.231 -76.8055 -108.195 68.2303 -86.6252 -92.1292 67.2859 
-86.8759 -99.2413 72.0904 -86.4167 -99.821 72.1459 -85.589 -100.139 72.08 
-84.8819 -100.798 72.1075 -84.5644 -101.873 72.2645 -84.0425 -102.548 72.3148 
-83.0472 -102.794 72.203 -82.1942 -103.32 72.1069 -81.8025 -104.188 72.0972 
-86.7387 -98.5766 72.4905 -86.2277 -98.6427 72.8218 -85.648 -98.7548 73.1638 
-85.2102 -99.0229 73.9275 -84.8518 -99.3345 74.8376 -84.3716 -99.5597 75.43 
-83.8084 -99.7171 75.9088 -83.3018 -99.8236 76.473 -82.8395 -99.9058 76.9214 
-87.0529 -98.7165 71.2897 -87.0115 -99.0322 70.6583 -86.948 -99.3681 70.0467 
-86.7871 -99.5955 69.3917 -86.3436 -99.6854 68.7102 -85.7369 -99.913 68.1304 
-85.2738 -100.402 67.6512 -84.9643 -100.938 67.173 -84.6293 -101.366 66.7292 
-86.9841 -97.7452 72.133 -87.031 -97.1237 72.4415 -87.0753 -96.4535 72.7396 
-86.9695 -95.673 72.9604 -86.6721 -94.9336 73.1842 -86.2331 -94.392 73.426 
-85.735 -94.0642 73.6028 -85.2703 -93.8297 73.7702 -84.8853 -93.5674 73.9999 
-87.0689 -97.767 71.2905 -87.1565 -97.2232 70.819 -87.4886 -96.7829 70.5787 
-87.9118 -96.1043 70.1894 -87.863 -95.1939 69.5617 -87.3269 -94.5072 69.1595 
-87.0023 -93.9705 68.8817 -87.076 -93.2315 68.2881 -87.0457 -92.5012 67.6093 
-81.6802 -104.704 72.6555 -81.6516 -104.219 73.1394 -81.6199 -103.693 73.6276 
-81.7687 -103.219 74.205 -81.9863 -102.693 74.809 -82.1171 -102.145 75.3978 
-82.2189 -101.66 75.9977 -82.2934 -101.125 76.5095 -82.321 -100.542 76.8692 
-81.5732 -104.693 71.5411 -81.6456 -104.316 70.9835 -81.8427 -103.981 70.4214 
-82.0627 -103.614 69.816 -82.327 -103.202 69.2003 -82.7939 -102.934 68.5438 
-83.374 -102.789 67.8353 -83.8261 -102.547 67.2138 -84.0773 -102.15 66.7603 
-81.3233 -105.512 72.4868 -80.8258 -105.835 72.8086 -80.1619 -106.012 72.9773 
-79.51 -106.152 73.0825 -78.9385 -106.372 73.3337 -78.5317 -106.708 73.756 
-78.3411 -107.024 74.2439 -78.1256 -107.188 74.7317 -77.6829 -107.205 75.1314 
-81.2525 -105.542 71.7374 -80.8152 -106.063 71.3031 -80.3087 -106.556 70.8657 
-79.7217 -106.912 70.4683 -79.1258 -107.237 70.1232 -78.6428 -107.681 69.75 
-78.2457 -108.051 69.3 -77.8416 -108.208 68.8733 -77.3639 -108.252 68.5295 
-79.6478 -94.1114 70.6964 -79.4343 -94.9812 70.8256 -79.1311 -95.9496 70.9796 
-78.6824 -96.9023 71.0833 -78.1947 -97.9368 71.1329 -77.5168 -98.7552 71.1842 
-76.7918 -99.2571 71.2537 -76.4951 -100.035 71.3171 -76.5286 -101.218 71.3678 
-79.9214 -93.8415 71.2707 -79.8068 -94.1397 72.0179 -79.7413 -94.5198 72.6949 
-79.855 -95.189 73.184 -79.9204 -95.8838 73.69 -79.714 -96.2479 74.4002 
-79.5616 -96.6546 75.0237 -79.6479 -97.3354 75.3687 -79.6911 -97.8995 75.7237 
-79.9152 -93.7288 70.1252 -79.9262 -94.1402 69.6748 -80.0597 -94.7313 69.2949 
-80.1788 -95.3785 68.9643 -80.0832 -96.0161 68.54 -79.7447 -96.5266 67.9491 
-79.4416 -97.0071 67.4243 -79.3615 -97.6966 67.1284 -79.3666 -98.4686 66.9158 
-80.5522 -93.4195 70.9723 -81.1668 -93.2624 71.3523 -81.716 -92.9365 71.7451 
-82.1203 -92.4967 72.1945 -82.4223 -92.1101 72.7449 -82.7899 -91.9275 73.2706 
-83.3452 -92.0917 73.5952 -83.925 -92.5078 73.771 -84.3237 -92.9371 73.9735 
-80.6162 -93.3561 70.2953 -81.4694 -93.2609 69.9919 -82.1985 -92.9689 69.6414 
-82.471 -92.2715 69.1522 -82.6629 -91.5836 68.6097 -83.2823 -91.4058 68.2498 
-84.2143 -91.5602 68.0454 -85.1755 -91.6613 67.7532 -86.0276 -91.7654 67.4158 
-76.4865 -101.87 71.9381 -76.4394 -101.288 72.5479 -76.5808 -100.764 73.1499 
-77.1355 -100.563 73.4879 -77.7386 -100.404 73.7719 -77.9601 -99.852 74.4705 
-78.1533 -99.2129 75.2496 -78.7028 -98.8794 75.6005 -79.2856 -98.6129 75.8103 
-76.4056 -102.004 70.8641 -76.3623 -101.675 70.2809 -76.5113 -101.359 69.7406 
-76.8624 -101.07 69.2485 -77.2621 -100.848 68.8062 -77.7327 -100.667 68.4345 
-78.2447 -100.321 68.0341 -78.6169 -99.7772 67.5176 -78.915 -99.3049 67.0104 
-76.187 -102.863 71.8077 -75.8206 -103.325 72.2143 -75.6035 -103.919 72.6452 
-75.7118 -104.789 73.0657 -76.0374 -105.594 73.3452 -76.3049 -106.046 73.5695 
-76.3693 -106.405 74.0494 -76.4046 -106.836 74.71 -76.6633 -107.104 75.1811 
-76.1259 -102.919 71.1343 -75.7869 -103.575 70.7609 -75.6499 -104.561 70.3581 
-75.5349 -105.642 70.0517 -75.2546 -106.358 69.7603 -75.1132 -106.944 69.2963 
-75.2894 -107.646 68.7801 -75.6373 -108.132 68.4522 -76.1441 -108.251 68.3086 
-82.2186 -99.97 77.5408 -82.0224 -99.9122 78.0101 -81.7478 -99.7696 78.5676 
-81.4002 -99.5393 78.7965 -81.0333 -99.3521 78.4318 -80.5427 -99.0782 78.0277 
-79.9262 -98.5503 77.9691 -79.5176 -98.0871 77.7543 -79.477 -98.0141 77.0692 
-81.9837 -100.682 77.3063 -81.7543 -101.575 77.6575 -81.4097 -102.377 77.7784 
-80.6599 -102.821 77.3088 -79.8368 -103.286 76.8414 -79.3174 -104.144 76.7422 
-78.8768 -105.13 76.4704 -78.2784 -105.95 75.9661 -77.6492 -106.588 75.617 
-82.8945 -99.5613 77.4648 -83.4663 -99.0368 77.698 -83.8576 -98.3634 77.5632 
-84.0053 -97.6237 77.1005 -84.0642 -96.8895 76.5804 -84.2029 -96.06 76.1343 
-84.4152 -95.1325 75.7891 -84.5493 -94.3106 75.4219 -84.5671 -93.7347 74.8735 
-79.3078 -98.7508 76.4779 -79.1383 -99.5548 76.4988 -79.0356 -100.618 76.2381 
-78.7848 -101.595 76.0073 -78.3063 -102.291 76.0614 -77.8207 -103.172 76.0936 
-77.4163 -104.458 75.9038 -77.0922 -105.677 75.7244 -76.996 -106.519 75.6056 
-79.8124 -97.5739 76.4795 -80.3119 -97.1876 76.5223 -81.0852 -96.9834 76.2688 
-81.6069 -96.3719 76.0632 -81.7393 -95.2436 76.1169 -82.1616 -94.3194 76.0648 
-83.0184 -93.858 75.7451 -83.767 -93.5703 75.325 -84.225 -93.3851 74.8169 
-83.9038 -101.517 66.1695 -83.5439 -101.3 65.9665 -82.9953 -100.978 65.9056 
-82.2536 -100.643 65.9549 -81.5487 -100.358 65.9949 -81.0214 -99.9946 66.0422 
-80.5672 -99.5912 66.1456 -80.1055 -99.346 66.2699 -79.6774 -99.2183 66.4355 
-83.4857 -102.149 66.5435 -82.4826 -102.512 66.8568 -81.5314 -103.103 67.0906 
-80.9015 -104.13 67.0322 -80.2363 -105.126 67.0125 -79.3013 -105.774 67.3265 
-78.5048 -106.467 67.6251 -77.9602 -107.281 67.716 -77.3953 -107.863 67.8823 
-84.4899 -100.893 66.3897 -84.7524 -99.9145 66.541 -85.1394 -98.8959 66.7558 
-85.662 -97.9938 66.8428 -86.117 -97.267 66.8864 -86.3205 -96.554 67.1318 
-86.381 -95.5803 67.4431 -86.5029 -94.3101 67.4912 -86.6404 -93.045 67.3349 
-79.0495 -99.7049 66.6805 -78.8997 -100.682 66.9535 -78.6597 -101.986 67.3232 
-78.0749 -103.236 67.3536 -77.3837 -104.244 67.1068 -76.8894 -105.19 67.0306 
-76.5471 -106.16 67.157 -76.4064 -107.06 67.3653 -76.5494 -107.763 67.7287 
-79.9765 -98.6104 66.6715 -80.7124 -97.9858 66.7053 -81.3437 -97.1097 66.7388 
-81.9874 -96.3193 66.9359 -82.867 -95.7531 67.2679 -83.7949 -95.0836 67.5108 
-84.5339 -94.1836 67.6 -85.2299 -93.2654 67.5024 -85.987 -92.5421 67.301 
-77.0622 -107.672 74.8218 -76.8873 -108.345 74.0696 -76.6106 -108.97 73.4204 
-76.4474 -109.384 72.8441 -76.4152 -109.629 71.8518 -76.3217 -109.719 70.5718 
-76.2596 -109.493 69.7178 -76.385 -109.024 69.292 -76.6035 -108.57 68.8158 
-84.7854 -92.9847 73.5146 -85.043 -92.581 72.9001 -85.2637 -92.2998 72.2555 
-85.4546 -92.1432 71.4407 -85.7412 -91.8549 70.6953 -86.1495 -91.5036 70.1375 
-86.5213 -91.3853 69.4059 -86.7398 -91.475 68.4326 -86.7783 -91.6902 67.6383 
-86.4623 -99.3189 72.5705 -85.7969 -99.2807 72.8414 -85.8694 -99.8293 72.5556 
-85.1087 -99.3305 73.2996 -85.1095 -99.7871 72.9065 -85.0726 -100.34 72.5764 
-84.6248 -99.5923 74.096 -84.3801 -99.8503 73.4122 -84.4038 -100.472 73.0596 
-84.5364 -101.272 72.7355 -84.2524 -99.9339 74.8588 -83.8945 -100.127 74.0408 
-83.7777 -100.581 73.5041 -83.9739 -101.428 73.2366 -84.1391 -102.174 72.8524 
-83.7632 -100.169 75.459 -83.4851 -100.464 74.7417 -83.3159 -100.825 74.0603 
-83.3893 -101.476 73.6483 -83.432 -102.137 73.2651 -83.3218 -102.557 72.7593 
-83.1999 -100.274 76.0173 -82.985 -100.668 75.4474 -82.8528 -101.08 74.8149 
-82.8927 -101.653 74.2513 -82.7988 -102.203 73.7109 -82.5646 -102.598 73.1508 
-82.383 -102.972 72.6224 -82.7109 -100.359 76.4906 -82.5596 -100.837 76.0155 
-82.4353 -101.302 75.4752 -82.434 -101.857 74.9106 -82.3429 -102.434 74.2997 
-82.0731 -102.869 73.6567 -81.9135 -103.305 73.0978 -81.8884 -103.803 72.6088 
-86.6553 -97.8692 72.6972 -86.6244 -97.2356 72.9425 -86.1311 -98.0151 73.0377 
-86.5189 -96.5894 73.1922 -86.059 -97.4572 73.3536 -85.651 -98.2891 73.5752 
-86.2377 -95.8568 73.4354 -85.8791 -96.8497 73.7171 -85.6177 -97.7864 74.0591 
-85.2827 -98.6184 74.5016 -85.9223 -95.2027 73.6915 -85.6517 -96.1702 74.0703 
-85.5293 -97.1867 74.5289 -85.2139 -98.0651 74.9171 -84.7743 -98.8373 75.2456 
-85.6409 -94.7835 73.9415 -85.4941 -95.6018 74.3972 -85.4601 -96.5473 75.0011 
-85.1786 -97.4687 75.3604 -84.5767 -98.2447 75.4883 -84.1361 -99.0106 75.7064 
-85.2943 -94.478 74.231 -85.2529 -95.1877 74.734 -85.2413 -95.986 75.4025 
-85.1026 -96.8754 75.9106 -84.5735 -97.7101 76.0075 -84.004 -98.4864 76.1115 
-83.6639 -99.2293 76.3655 -84.9045 -94.1087 74.5811 -84.8825 -94.7656 75.107 
-84.803 -95.5396 75.6455 -84.7087 -96.3867 76.1928 -84.4887 -97.2273 76.5335 
-84.1171 -98.0318 76.7559 -83.7391 -98.793 77.0061 -83.3203 -99.4142 77.0761 
-84.2489 -93.8086 75.4685 -83.7655 -94.0937 75.8842 -84.1773 -94.5606 75.8755 
-82.9487 -94.5175 76.2737 -83.5932 -95.0202 76.203 -83.8927 -95.6226 76.067 
-82.1514 -95.125 76.6221 -82.7364 -95.4183 76.7547 -83.183 -96.0817 76.4961 
-83.5593 -96.6058 76.3997 -81.8146 -96.0875 76.6973 -82.0923 -95.9039 77.277 
-82.435 -96.263 77.337 -82.8743 -96.8895 77.0853 -83.4896 -97.3202 77.0698 
-81.4157 -96.9191 76.7936 -81.7551 -96.6985 77.424 -82.0395 -96.669 77.9144 
-82.3451 -97.0302 77.9966 -82.9171 -97.5465 77.8892 -83.5691 -97.9964 77.8208 
-80.548 -97.2083 77.1312 -81.0425 -97.3131 77.5803 -81.6344 -97.4574 77.9543 
-82.0159 -97.6078 78.3384 -82.3701 -97.8949 78.5194 -82.9204 -98.3286 78.4212 
[...]
POINT_DATA 1002
FIELD FieldData 2
Theta 1 1002 float
2.58802 2.58802 0.553574 0.553574 2.12437 1.01722 2.12437 1.01722 1.5708 
1.5708 1.5708 1.5708 2.68241 2.78649 2.89924 3.01861 3.14159 3.01861 
2.89924 2.78649 2.68241 2.61035 2.61791 2.60515 2.56958 2.51327 2.44184 
2.36202 2.27983 2.1997 2.61035 2.61791 2.60515 2.56958 2.51327 2.44184 
2.36202 2.27983 2.1997 2.50947 2.41899 2.31794 2.20864 2.0944 1.97902 
1.86631 1.75944 1.66056 2.50947 2.41899 2.31794 2.20864 2.0944 1.97902 
1.86631 1.75944 1.66056 2.61035 2.61791 2.60515 2.56958 2.51327 2.44184 
2.36202 2.27983 2.1997 2.61035 2.61791 2.60515 2.56958 2.51327 2.44184 
2.36202 2.27983 2.1997 2.50947 2.41899 2.31794 2.20864 2.0944 1.97902 
1.86631 1.75944 1.66056 2.50947 2.41899 2.31794 2.20864 2.0944 1.97902 
1.86631 1.75944 1.66056 0.459179 0.355101 0.242354 0.122983 0 0.122983 
0.242354 0.355101 0.459179 0.531246 0.523681 0.536438 0.57201 0.628319 0.699757 
0.779574 0.86176 0.941896 0.531246 0.523681 0.536438 0.57201 0.628319 0.699757 
0.779574 0.86176 0.941896 0.632123 0.7226 0.823657 0.932948 1.0472 1.16257 
1.27528 1.38216 1.48103 0.632123 0.7226 0.823657 0.932948 1.0472 1.16257 
1.27528 1.38216 1.48103 0.531246 0.523681 0.536438 0.57201 0.628319 0.699757 
0.779574 0.86176 0.941896 0.531246 0.523681 0.536438 0.57201 0.628319 0.699757 
0.779574 0.86176 0.941896 0.632123 0.7226 0.823657 0.932948 1.0472 1.16257 
1.27528 1.38216 1.48103 0.632123 0.7226 0.823657 0.932948 1.0472 1.16257 
1.27528 1.38216 1.48103 2.02998 1.9259 1.81315 1.69378 1.5708 1.44781 
1.32844 1.2157 1.11162 2.0928 2.05283 2.00422 1.94767 1.88496 1.81867 
1.75177 1.68695 1.62623 2.0928 2.05283 2.00422 1.94767 1.88496 1.81867 
1.75177 1.68695 1.62623 1.0488 1.08876 1.13737 1.19392 1.25664 1.32292 
1.38982 1.45464 1.51537 1.0488 1.08876 1.13737 1.19392 1.25664 1.32292 
1.38982 1.45464 1.51537 2.02998 1.9259 1.81315 1.69378 1.5708 1.44781 
1.32844 1.2157 1.11162 2.0928 2.05283 2.00422 1.94767 1.88496 1.81867 
1.75177 1.68695 1.62623 2.0928 2.05283 2.00422 1.94767 1.88496 1.81867 
1.75177 1.68695 1.62623 1.0488 1.08876 1.13737 1.19392 1.25664 1.32292 
1.38982 1.45464 1.51537 1.0488 1.08876 1.13737 1.19392 1.25664 1.32292 
1.38982 1.45464 1.51537 1.5708 1.5708 1.5708 1.5708 1.5708 1.5708 
1.5708 1.5708 1.5708 1.5708 1.5708 1.5708 1.5708 1.5708 1.5708 
1.5708 1.5708 1.5708 2.70908 2.71362 2.81592 2.68886 2.81002 2.92597 
2.6349 2.76254 2.89233 3.01997 2.55881 2.68262 2.80854 2.92834 3.01997 
2.47007 2.58462 2.70048 2.80854 2.89233 2.92597 2.37702 2.48017 2.58462 
2.68262 2.76254 2.81002 2.81592 2.28567 2.37702 2.47007 2.55881 2.6349 
2.68886 2.71362 2.70908 2.52097 2.4195 2.51718 2.30791 2.40503 2.49426 
2.18928 2.28408 2.3734 2.45144 2.06758 2.15805 2.24572 2.32523 2.39165 
1.94707 2.03138 2.11543 2.19453 2.26401 2.32035 1.83164 1.90847 1.98711 
2.06376 2.13422 2.1949 2.24359 1.72413 1.79288 1.86489 1.93728 2.00658 
2.06938 2.12312 2.16654 1.5708 1.50988 1.63171 1.44492 1.5708 1.69667 
1.37826 1.5059 1.63569 1.76333 1.31281 1.43962 1.5708 1.70197 1.82878 
1.25155 1.37501 1.50478 1.63681 1.76659 1.89004 1.19686 1.31493 1.44074 
1.5708 1.70086 1.82666 1.94473 1.15011 1.26149 1.38136 1.50697 1.63462 
1.76024 1.88011 1.99148 1.99148 1.88011 1.94473 1.76024 1.82666 1.89004 
1.63462 1.70086 1.76659 1.82878 1.50697 1.5708 1.63681 1.70197 1.76333 
1.38136 1.44074 1.50478 1.5708 1.63569 1.69667 1.26149 1.31493 1.37501 
1.43962 1.5059 1.5708 1.63171 1.15011 1.19686 1.25155 1.31281 1.37826 
1.44492 1.50988 1.5708 2.16654 2.12312 2.24359 2.06938 2.1949 2.32035 
2.00658 2.13422 2.26401 2.39165 1.93728 2.06376 2.19453 2.32523 2.45144 
1.86489 1.98711 2.11543 2.24572 2.3734 2.49426 1.79288 1.90847 2.03138 
2.15805 2.28408 2.40503 2.51718 1.72413 1.83164 1.94707 2.06758 2.18928 
2.30791 2.4195 2.52097 1.66533 1.66946 1.76911 1.67254 1.777 1.88041 
1.67418 1.78222 1.89102 1.99634 1.67418 1.78405 1.89674 2.00785 2.11299 
1.67254 1.78222 1.89674 2.01191 2.12307 2.22608 1.66946 1.777 1.89102 
2.00785 2.12307 2.23222 2.33166 1.66533 1.76911 1.88041 1.99634 2.11299 
2.22608 2.33166 2.42672 1.47626 1.37249 1.47213 1.26118 1.36459 1.46906 
1.14526 1.25058 1.35938 1.46741 1.0286 1.13374 1.24485 1.35755 1.46741 
0.915514 1.01852 1.12969 1.24485 1.35938 1.46906 0.809937 0.909371 1.01852 
1.13374 1.25058 1.36459 1.47213 0.714871 0.809937 0.915514 1.0286 1.14526 
1.26118 1.37249 1.47626 0.975055 0.898002 1.01847 0.821245 0.946693 1.07221 
0.749941 0.877585 1.00737 1.13501 0.690152 0.816367 0.94706 1.07784 1.20431 
0.647337 0.768195 0.895868 1.02616 1.15448 1.2767 0.624416 0.736561 0.857515 
0.983547 1.11021 1.23313 1.34871 0.620619 0.722093 0.833684 0.952313 1.07402 
1.19452 1.30996 1.41746 0.855925 0.764569 0.764569 0.671524 0.661425 0.671524 
0.582786 0.556971 0.556971 0.582786 0.506696 0.458968 0.441109 0.458968 0.506696 
0.45273 0.379052 0.333054 0.333054 0.379052 0.45273 0.427969 0.331576 0.249267 
0.21325 0.249267 0.331576 0.427969 0.432512 0.325669 0.215619 0.121622 0.121622 
0.215619 0.325669 0.432512 0.432512 0.427969 0.325669 0.45273 0.331576 0.215619 
0.506696 0.379052 0.249267 0.121622 0.582786 0.458968 0.333054 0.21325 0.121622 
0.671524 0.556971 0.441109 0.333054 0.249267 0.215619 0.764569 0.661425 0.556971 
0.458968 0.379052 0.331576 0.325669 0.855925 0.764569 0.671524 0.582786 0.506696 
0.45273 0.427969 0.432512 0.975055 1.01847 0.898002 1.07221 0.946693 0.821245 
1.13501 1.00737 0.877585 0.749941 1.20431 1.07784 0.94706 0.816367 0.690152 
1.2767 1.15448 1.02616 0.895868 0.768195 0.647337 1.34871 1.23313 1.11021 
0.983547 0.857515 0.736561 0.624416 1.41746 1.30996 1.19452 1.07402 0.952313 
0.833684 0.722093 0.620619 1.15011 1.26149 1.19686 1.38136 1.31493 1.25155 
1.50697 1.44074 1.37501 1.31281 1.63462 1.5708 1.50478 1.43962 1.37826 
1.76024 1.70086 1.63681 1.5708 1.5059 1.44492 1.88011 1.82666 1.76659 
1.70197 1.63569 1.5708 1.50988 1.99148 1.94473 1.89004 1.82878 1.76333 
1.69667 1.63171 1.5708 1.15011 1.19686 1.26149 1.25155 1.31493 1.38136 
1.31281 1.37501 1.44074 1.50697 1.37826 1.43962 1.50478 1.5708 1.63462 
1.44492 1.5059 1.5708 1.63681 1.70086 1.76024 1.50988 1.5708 1.63569 
1.70197 1.76659 1.82666 1.88011 1.5708 1.63171 1.69667 1.76333 1.82878 
1.89004 1.94473 1.99148 1.72413 1.83164 1.79288 1.94707 1.90847 1.86489 
2.06758 2.03138 1.98711 1.93728 2.18928 2.15805 2.11543 2.06376 2.00658 
2.30791 2.28408 2.24572 2.19453 2.13422 2.06938 2.4195 2.40503 2.3734 
2.32523 2.26401 2.1949 2.12312 2.52097 2.51718 2.49426 2.45144 2.39165 
2.32035 2.24359 2.16654 2.70908 2.81592 2.71362 2.92597 2.81002 2.68886 
3.01997 2.89233 2.76254 2.6349 3.01997 2.92834 2.80854 2.68262 2.55881 
2.92597 2.89233 2.80854 2.70048 2.58462 2.47007 2.81592 2.81002 2.76254 
2.68262 2.58462 2.48017 2.37702 2.70908 2.71362 2.68886 2.6349 2.55881 
2.47007 2.37702 2.28567 2.16654 2.24359 2.12312 2.32035 2.1949 2.06938 
2.39165 2.26401 2.13422 2.00658 2.45144 2.32523 2.19453 2.06376 1.93728 
2.49426 2.3734 2.24572 2.11543 1.98711 1.86489 2.51718 2.40503 2.28408 
2.15805 2.03138 1.90847 1.79288 2.52097 2.4195 2.30791 2.18928 2.06758 
1.94707 1.83164 1.72413 1.66533 1.76911 1.66946 1.88041 1.777 1.67254 
1.99634 1.89102 1.78222 1.67418 2.11299 2.00785 1.89674 1.78405 1.67418 
2.22608 2.12307 2.01191 1.89674 1.78222 1.67254 2.33166 2.23222 2.12307 
2.00785 1.89102 1.777 1.66946 2.42672 2.33166 2.22608 2.11299 1.99634 
1.88041 1.76911 1.66533 1.47626 1.47213 1.37249 1.46906 1.36459 1.26118 
1.46741 1.35938 1.25058 1.14526 1.46741 1.35755 1.24485 1.13374 1.0286 
1.46906 1.35938 1.24485 1.12969 1.01852 0.915514 1.47213 1.36459 1.25058 
1.13374 1.01852 0.909371 0.809937 1.47626 1.37249 1.26118 1.14526 1.0286 
0.915514 0.809937 0.714871 1.41746 1.30996 1.34871 1.19452 1.23313 1.2767 
1.07402 1.11021 1.15448 1.20431 0.952313 0.983547 1.02616 1.07784 1.13501 
0.833684 0.857515 0.895868 0.94706 1.00737 1.07221 0.722093 0.736561 0.768195 
0.816367 0.877585 0.946693 1.01847 0.620619 0.624416 0.647337 0.690152 0.749941 
0.821245 0.898002 0.975055 0.975055 0.898002 1.01847 0.821245 0.946693 1.07221 
0.749941 0.877585 1.00737 1.13501 0.690152 0.816367 0.94706 1.07784 1.20431 
0.647337 0.768195 0.895868 1.02616 1.15448 1.2767 0.624416 0.736561 0.857515 
0.983547 1.11021 1.23313 1.34871 0.620619 0.722093 0.833684 0.952313 1.07402 
1.19452 1.30996 1.41746 
Phi 1 1002 float
6.28319 3.14159 6.28319 3.14159 4.71239 4.71239 1.5708 1.5708 3.69517 
5.72961 2.58802 0.553574 6.28319 6.28319 6.28319 6.28319 3.14159 3.14159 
3.14159 3.14159 3.14159 6.1053 5.8988 5.67687 5.45995 5.26596 5.10322 
4.97131 4.86569 4.78095 0.177881 0.384387 0.606312 0.823235 1.01722 1.17997 
1.31187 1.4175 1.50223 6.18928 6.10703 6.03531 5.97283 5.91832 5.87061 
5.82869 5.79168 5.75886 0.0939024 0.176153 0.247873 0.310351 0.364864 0.412573 
0.454497 0.491504 0.524326 3.31947 3.52598 3.7479 3.96483 4.15881 4.32156 
4.45346 4.55909 4.64383 2.96371 2.75721 2.53528 2.31836 2.12437 1.96162 
1.82972 1.72409 1.63936 3.2355 3.31775 3.38947 3.45194 3.50646 3.55417 
3.59609 3.6331 3.66592 3.04769 2.96544 2.89372 2.83124 2.77673 2.72902 
2.6871 2.65009 2.61727 6.28319 6.28319 6.28319 6.28319 3.14159 3.14159 
3.14159 3.14159 3.14159 6.1053 5.8988 5.67687 5.45995 5.26596 5.10322 
4.97131 4.86569 4.78095 0.177881 0.384387 0.606312 0.823235 1.01722 1.17997 
1.31187 1.4175 1.50223 6.18928 6.10703 6.03531 5.97283 5.91832 5.87061 
5.82869 5.79168 5.75886 0.0939024 0.176153 0.247873 0.310351 0.364864 0.412573 
0.454497 0.491504 0.524326 3.31947 3.52598 3.7479 3.96483 4.15881 4.32156 
4.45346 4.55909 4.64383 2.96371 2.75721 2.53528 2.31836 2.12437 1.96162 
1.82972 1.72409 1.63936 3.2355 3.31775 3.38947 3.45194 3.50646 3.55417 
3.59609 3.6331 3.66592 3.04769 2.96544 2.89372 2.83124 2.77673 2.72902 
2.6871 2.65009 2.61727 4.71239 4.71239 4.71239 4.71239 4.71239 4.71239 
4.71239 4.71239 4.71239 4.60879 4.49914 4.3857 4.27128 4.15881 4.05096 
3.94976 3.85646 3.77161 4.81599 4.92564 5.03907 5.1535 5.26596 5.37381 
5.47502 5.56831 5.65317 4.60879 4.49914 4.3857 4.27128 4.15881 4.05096 
3.94976 3.85646 3.77161 4.81599 4.92564 5.03907 5.1535 5.26596 5.37381 
5.47502 5.56831 5.65317 1.5708 1.5708 1.5708 1.5708 1.5708 1.5708 
1.5708 1.5708 1.5708 1.6744 1.78405 1.89748 2.01191 2.12437 2.23222 
2.33343 2.42672 2.51157 1.4672 1.35755 1.24411 1.12969 1.01722 0.909371 
0.808166 0.714871 0.63002 1.6744 1.78405 1.89748 2.01191 2.12437 2.23222 
2.33343 2.42672 2.51157 1.4672 1.35755 1.24411 1.12969 1.01722 0.909371 
0.808166 0.714871 0.63002 3.60077 3.49669 3.38395 3.26458 3.14159 3.01861 
2.89924 2.78649 2.68241 5.82401 5.92808 6.04083 6.1602 6.28319 0.122983 
0.242354 0.355101 0.459179 6.05603 5.78856 5.97021 5.51259 5.60297 5.78856 
5.26596 5.26596 5.26596 5.26596 5.06749 5.0121 4.91556 4.71239 4.15881 
4.91556 4.83537 4.71239 4.50922 4.15881 3.63622 4.80045 4.71239 4.58941 
4.41268 4.15881 3.82181 3.45456 4.71239 4.62433 4.50922 4.35729 4.15881 
3.91219 3.63622 3.36875 6.01742 5.94343 5.82633 5.88092 5.76745 5.62798 
5.8278 5.71897 5.58911 5.43724 5.78235 5.67854 5.55757 5.41926 5.26596 
5.74316 5.64441 5.5315 5.40467 5.26596 5.11955 5.70914 5.61528 5.50962 
5.3926 5.26596 5.13292 4.99789 5.67937 5.59016 5.49102 5.38246 5.26596 
5.14407 5.02016 4.89798 5.56831 5.47502 5.47502 5.37381 5.37381 5.37381 
5.26596 5.26596 5.26596 5.26596 5.1535 5.1535 5.1535 5.1535 5.1535 
5.03907 5.03907 5.03907 5.03907 5.03907 5.03907 4.92564 4.92564 4.92564 
4.92564 4.92564 4.92564 4.92564 4.81599 4.81599 4.81599 4.81599 4.81599 
4.81599 4.81599 4.81599 4.60879 4.60879 4.49914 4.60879 4.49914 4.3857 
4.60879 4.49914 4.3857 4.27128 4.60879 4.49914 4.3857 4.27128 4.15881 
4.60879 4.49914 4.3857 4.27128 4.15881 4.05096 4.60879 4.49914 4.3857 
4.27128 4.15881 4.05096 3.94976 4.60879 4.49914 4.3857 4.27128 4.15881 
4.05096 3.94976 3.85646 4.5268 4.40462 4.42689 4.28071 4.29185 4.30523 
4.15881 4.15881 4.15881 4.15881 4.04232 4.03217 4.02011 4.00552 3.98753 
3.93376 3.91515 3.89328 3.86721 3.83566 3.7968 3.83461 3.8095 3.78037 
3.74624 3.70581 3.65733 3.59845 3.7454 3.71564 3.68161 3.64243 3.59698 
3.54386 3.48135 3.40735 3.56428 3.45246 3.52338 3.33203 3.40312 3.47739 
3.20576 3.27463 3.34802 3.42551 3.07742 3.14159 3.21128 3.28647 3.36688 
2.95116 3.00855 3.0719 3.14159 3.21784 3.3006 2.83072 2.88006 2.93517 
2.99672 3.06535 3.14159 3.22575 2.7189 2.7598 2.8058 2.85768 2.9163 
2.98259 3.05743 3.14159 3.56428 3.52338 3.45246 3.47739 3.40312 3.33203 
3.42551 3.34802 3.27463 3.20576 3.36688 3.28647 3.21128 3.14159 3.07742 
3.3006 3.21784 3.14159 3.0719 3.00855 2.95116 3.22575 3.14159 3.06535 
2.99672 2.93517 2.88006 2.83072 3.14159 3.05743 2.98259 2.9163 2.85768 
2.8058 2.7598 2.7189 4.5268 4.42689 4.40462 4.30523 4.29185 4.28071 
4.15881 4.15881 4.15881 4.15881 3.98753 4.00552 4.02011 4.03217 4.04232 
3.7968 3.83566 3.86721 3.89328 3.91515 3.93376 3.59845 3.65733 3.70581 
3.74624 3.78037 3.8095 3.83461 3.40735 3.48135 3.54386 3.59698 3.64243 
3.68161 3.71564 3.7454 4.71239 4.80045 4.62433 4.91556 4.71239 4.50922 
5.06749 4.83537 4.58941 4.35729 5.26596 5.0121 4.71239 4.41268 4.15881 
5.51259 5.26596 4.91556 4.50922 4.15881 3.91219 5.78856 5.60297 5.26596 
4.71239 4.15881 3.82181 3.63622 6.05603 5.97021 5.78856 5.26596 4.15881 
3.63622 3.45456 3.36875 0.227158 0.494626 0.312971 0.770593 0.680215 0.494626 
1.01722 1.01722 1.01722 1.01722 1.2157 1.27109 1.36763 1.5708 2.12437 
1.36763 1.44781 1.5708 1.77397 2.12437 2.64697 1.48273 1.5708 1.69378 
1.8705 2.12437 2.46138 2.82862 1.5708 1.65886 1.77397 1.9259 2.12437 
2.371 2.64697 2.91443 1.75639 1.87857 1.8563 2.00248 1.99133 1.97796 
2.12437 2.12437 2.12437 2.12437 2.24087 2.25101 2.26308 2.27767 2.29565 
2.34943 2.36803 2.38991 2.41597 2.44752 2.48639 2.44857 2.47368 2.50281 
2.53694 2.57738 2.62586 2.68474 2.53778 2.56754 2.60157 2.64076 2.68621 
2.73933 2.80184 2.87583 1.6744 1.6744 1.78405 1.6744 1.78405 1.89748 
1.6744 1.78405 1.89748 2.01191 1.6744 1.78405 1.89748 2.01191 2.12437 
1.6744 1.78405 1.89748 2.01191 2.12437 2.23222 1.6744 1.78405 1.89748 
2.01191 2.12437 2.23222 2.33343 1.6744 1.78405 1.89748 2.01191 2.12437 
2.23222 2.33343 2.42672 1.4672 1.35755 1.4672 1.24411 1.35755 1.4672 
1.12969 1.24411 1.35755 1.4672 1.01722 1.12969 1.24411 1.35755 1.4672 
0.909371 1.01722 1.12969 1.24411 1.35755 1.4672 0.808166 0.909371 1.01722 
1.12969 1.24411 1.35755 1.4672 0.714871 0.808166 0.909371 1.01722 1.12969 
1.24411 1.35755 1.4672 0.603812 0.57405 0.693022 0.540021 0.667908 0.792164 
0.500837 0.638778 0.773562 0.900726 0.455383 0.604649 0.751687 0.890581 1.01722 
0.402264 0.564217 0.725619 0.878514 1.01722 1.13912 0.339753 0.515737 0.694072 
0.863926 1.01722 1.15026 1.26302 0.265762 0.456853 0.655207 0.845941 1.01722 
1.16363 1.28529 1.38521 0.227158 0.312971 0.494626 0.494626 0.680215 0.770593 
1.01722 1.01722 1.01722 1.01722 2.12437 1.5708 1.36763 1.27109 1.2157 
2.64697 2.12437 1.77397 1.5708 1.44781 1.36763 2.82862 2.46138 2.12437 
1.8705 1.69378 1.5708 1.48273 2.91443 2.64697 2.371 2.12437 1.9259 
1.77397 1.65886 1.5708 1.75639 1.8563 1.87857 1.97796 1.99133 2.00248 
2.12437 2.12437 2.12437 2.12437 2.29565 2.27767 2.26308 2.25101 2.24087 
2.48639 2.44752 2.41597 2.38991 2.36803 2.34943 2.68474 2.62586 2.57738 
2.53694 2.50281 2.47368 2.44857 2.87583 2.80184 2.73933 2.68621 2.64076 
2.60157 2.56754 2.53778 5.86049 5.90139 5.97231 5.94739 6.02165 6.09275 
5.99927 6.07676 6.15015 6.21902 6.0579 6.13831 6.2135 0 0.0641696 
6.12418 6.20694 6.28319 0.069689 0.13304 0.190437 6.19903 0 0.0762451 
0.144876 0.206423 0.261531 0.310872 0 0.0841597 0.159004 0.225289 0.283913 
0.335793 0.381792 0.422692 5.86049 5.97231 5.90139 6.09275 6.02165 5.94739 
6.21902 6.15015 6.07676 5.99927 0.0641696 0 6.2135 6.13831 6.0579 
0.190437 0.13304 0.069689 6.28319 6.20694 6.12418 0.310872 0.261531 0.206423 
0.144876 0.0762451 6.28319 6.19903 0.422692 0.381792 0.335793 0.283913 0.225289 
0.159004 0.0841597 0 5.67937 5.70914 5.59016 5.74316 5.61528 5.49102 
5.78235 5.64441 5.50962 5.38246 5.8278 5.67854 5.5315 5.3926 5.26596 
5.88092 5.71897 5.55757 5.40467 5.26596 5.14407 5.94343 5.76745 5.58911 
5.41926 5.26596 5.13292 5.02016 6.01742 5.82633 5.62798 5.43724 5.26596 
5.11955 4.99789 4.89798 1.38521 1.28529 1.26302 1.16363 1.15026 1.13912 
1.01722 1.01722 1.01722 1.01722 0.845941 0.863926 0.878514 0.890581 0.900726 
0.655207 0.694072 0.725619 0.751687 0.773562 0.792164 0.456853 0.515737 0.564217 
0.604649 0.638778 0.667908 0.693022 0.265762 0.339753 0.402264 0.455383 0.500837 
0.540021 0.57405 0.603812 
