# vtk DataFile Version 4.0
vtk output
ASCII
DATASET POLYDATA
POINTS 1002 float
-85.5427 -96.5944 66.2003 -80.1244 -103.636 66.8069 -79.6133 -92.174 65.9359 
-75.073 -100.532 66.5852 -81.9865 -99.2217 72.5589 -78.6153 -96.9537 71.8162 
-82.3113 -99.5629 61.1468 -78.0074 -97.143 60.9796 -75.6892 -105.149 71.0276 
-84.3719 -91.2816 69.3172 -75.1593 -105.786 62.7588 -85.4603 -91.4791 63.0348 
-85.2084 -97.4215 66.2931 -84.9505 -98.4114 66.3734 -84.6493 -99.3267 66.4922 
-84.0747 -99.9689 66.6276 -83.2613 -100.555 66.6819 -82.5394 -101.311 66.6723 
-81.9993 -102.071 66.6788 -81.4177 -102.683 66.7055 -80.7333 -103.187 66.7462 
-85.2348 -96.7934 66.6309 -84.9173 -97.0454 67.1606 -84.6485 -97.3439 67.8652 
-84.4061 -97.6828 68.6929 -83.9644 -97.9649 69.399 -83.2716 -98.061 69.8985 
-82.6862 -98.1194 70.4504 -82.4145 -98.4182 71.1995 -82.2511 -98.8848 71.9674 
-85.6035 -96.9202 65.7983 -85.5979 -97.3392 65.2248 -85.398 -97.7543 64.5663 
-85.0022 -98.0386 63.9989 -84.6717 -98.3419 63.3926 -84.5021 -98.8338 62.5786 
-84.1871 -99.2434 61.8997 -83.5705 -99.363 61.6093 -82.8764 -99.4066 61.4309 
-85.7374 -95.9622 66.3416 -85.9282 -95.277 66.5466 -86.0982 -94.6378 66.87 
-86.1744 -94.1266 67.2464 -86.0419 -93.5087 67.6346 -85.7826 -92.7709 68.0208 
-85.5164 -92.2584 68.3382 -85.1735 -91.9293 68.6268 -84.7547 -91.5729 68.97 
-86.0031 -96.0576 65.8739 -86.5625 -95.5674 65.4993 -87.1615 -95.0366 64.9888 
-87.6354 -94.3894 64.41 -87.7215 -93.7332 64.0834 -87.3464 -93.0901 64.0085 
-86.8217 -92.3567 63.7856 -86.3987 -91.7136 63.3825 -85.9823 -91.4349 63.1051 
-80.2641 -103.365 67.3354 -80.4082 -102.988 67.8584 -80.6539 -102.693 68.5252 
-80.9717 -102.47 69.3464 -81.1558 -101.986 70.0456 -81.1501 -101.207 70.4801 
-81.2156 -100.521 70.9023 -81.5167 -100.068 71.4979 -81.8531 -99.6727 72.112 
-80.281 -103.496 66.1418 -80.4995 -103.292 65.4078 -80.8311 -103.116 64.6711 
-81.2077 -102.967 63.8943 -81.5469 -102.727 63.104 -81.7771 -102.258 62.4532 
-81.8288 -101.534 62.0395 -81.8242 -100.712 61.7986 -81.9806 -100.019 61.5421 
-79.7132 -103.96 67.2106 -79.264 -104.3 67.5639 -78.7937 -104.702 67.9068 
-78.3724 -105.109 68.378 -77.914 -105.32 68.9513 -77.3873 -105.33 69.4604 
-76.9423 -105.354 69.9324 -76.5578 -105.444 70.4344 -76.1173 -105.422 70.8381 
-79.7322 -104.043 66.4613 -79.415 -104.544 66.012 -79.0753 -105.147 65.4872 
-78.518 -105.614 64.9939 -77.7681 -105.731 64.5862 -77.0873 -105.724 64.1596 
-76.5559 -105.899 63.6448 -76.0387 -106.112 63.1693 -75.5301 -106.08 62.8759 
-79.2836 -92.8759 65.9403 -78.9013 -93.6927 65.9772 -78.3228 -94.5541 66.0807 
-77.6121 -95.316 66.2327 -76.9655 -95.9963 66.3671 -76.378 -96.8268 66.446 
-75.8164 -97.8046 66.496 -75.4181 -98.7179 66.5483 -75.2167 -99.5934 66.5888 
-79.6557 -92.5289 66.4053 -79.6768 -92.9438 66.8375 -79.5432 -93.3088 67.4978 
-79.2311 -93.6064 68.3839 -78.9057 -93.9682 69.1612 -78.7491 -94.5005 69.8243 
-78.758 -95.155 70.5392 -78.7802 -95.8273 71.1169 -78.7185 -96.4433 71.4703 
-79.3975 -92.3336 65.3506 -79.1782 -92.6089 64.7329 -78.9621 -93.0336 64.1916 
-78.8483 -93.6608 63.7103 -78.7976 -94.3672 63.1555 -78.6531 -94.9756 62.5616 
-78.4655 -95.5722 62.125 -78.3403 -96.2242 61.8092 -78.2083 -96.7682 61.4222 
-80.044 -91.7423 66.2871 -80.637 -91.4169 66.6104 -81.3394 -91.2568 66.8764 
-81.8896 -91.1151 67.2707 -82.1138 -90.7682 67.9384 -82.3664 -90.382 68.6572 
-82.9789 -90.2982 69.1108 -83.6737 -90.5065 69.2731 -84.1237 -90.8454 69.3035 
-79.9022 -91.6152 65.5029 -80.43 -91.1721 64.9581 -81.1416 -90.8924 64.5011 
-81.9004 -90.6794 64.0884 -82.6651 -90.3469 63.5365 -83.3604 -89.9568 63.0789 
-83.9562 -89.9187 62.9885 -84.5505 -90.3671 63.0609 -85.0966 -90.9701 63.0674 
-75.3632 -100.365 66.9921 -75.7291 -100.192 67.4185 -76.0384 -99.7956 67.9528 
-76.2845 -99.2146 68.5675 -76.562 -98.6504 69.2231 -76.959 -98.1861 69.8859 
-77.4942 -97.9043 70.422 -78.0162 -97.7346 70.842 -78.3688 -97.4233 71.3108 
-75.0401 -100.216 66.0877 -75.1187 -99.9294 65.4043 -75.1733 -99.5326 64.6324 
-75.2551 -99.0709 63.9017 -75.4941 -98.6614 63.2 -75.7752 -98.222 62.5092 
-76.1082 -97.772 61.9437 -76.6878 -97.4786 61.5598 -77.4035 -97.3139 61.2626 
-75.0375 -101.372 66.8269 -74.925 -102.08 67.1616 -74.6223 -102.472 67.7134 
-74.1601 -102.788 68.4132 -73.9278 -103.352 68.9779 -74.2488 -103.99 69.2935 
-74.7741 -104.398 69.574 -75.0741 -104.661 70.014 -75.292 -104.932 70.5585 
-74.8272 -101.347 66.2342 -74.5343 -102.153 65.7691 -74.1348 -102.56 65.2685 
-73.6302 -102.732 64.7313 -73.2668 -103.415 64.1402 -73.3798 -104.442 63.7665 
-73.9428 -104.978 63.7512 -74.5546 -105.152 63.6843 -74.9303 -105.459 63.2808 
-81.7267 -98.9751 73.0725 -81.4854 -98.6442 73.7343 -81.3681 -98.3662 74.6554 
-81.0861 -98.0937 75.3853 -80.4743 -97.719 75.2659 -79.9021 -97.3629 74.4562 
-79.531 -97.145 73.6305 -79.1568 -97.0177 72.9859 -78.8016 -96.9543 72.3875 
-81.5243 -99.632 72.703 -80.7998 -99.9257 72.6201 -79.9938 -100.42 72.4938 
-79.3395 -101.279 72.4875 -78.788 -102.212 72.519 -78.2042 -103 72.4852 
-77.5906 -103.766 72.3879 -76.9224 -104.472 72.1524 -76.235 -104.928 71.6838 
-82.1266 -98.5115 72.5052 -82.2804 -97.6846 72.312 -82.7641 -96.952 72.2348 
-83.4988 -96.2925 72.3172 -83.9854 -95.4004 72.1641 -84.0956 -94.3205 71.6103 
-84.1379 -93.4072 70.9418 -84.2374 -92.6683 70.3118 -84.3264 -91.9432 69.7439 
-78.3173 -97.6732 72.0016 -77.9252 -98.3432 72.2601 -77.4013 -99.0016 72.4237 
-76.8626 -99.8169 72.4659 -76.6 -100.886 72.4239 -76.4886 -101.912 72.2348 
-76.1679 -102.737 71.9735 -75.7821 -103.608 71.7589 -75.633 -104.5 71.4796 
-78.931 -96.159 72.0274 -79.3557 -95.4147 72.1271 -80.0018 -94.7892 72.0898 
-80.7479 -94.125 72.0013 -81.3785 -93.4494 71.7939 -81.9923 -93.0087 71.3574 
-82.7438 -92.6499 70.8336 -83.4605 -92.1068 70.3487 -83.9808 -91.568 69.849 
-82.2304 -99.5043 60.632 -81.9725 -99.437 60.1957 -81.3578 -99.2677 60.0408 
-80.5749 -99.0179 60.0646 -79.938 -98.728 60.0167 -79.3994 -98.3181 59.95 
-78.8535 -97.8172 60.0328 -78.4317 -97.4298 60.254 -78.1879 -97.2376 60.5762 
-81.6216 -100.132 61.0861 -81.0198 -101.018 60.995 -80.3036 -102.027 60.8883 
-79.3359 -102.913 60.7882 -78.5229 -103.728 60.8028 -77.9658 -104.509 60.9424 
-77.1036 -105.113 61.0926 -76.0229 -105.508 61.3642 -75.3609 -105.728 61.9519 
-83.0154 -99.1111 60.8402 -83.6304 -98.4965 60.5741 -84.1262 -97.5616 60.4465 
-84.6379 -96.5067 60.3779 -85.0641 -95.5246 60.4824 -85.2177 -94.6508 61.0333 
-85.1882 -93.9025 61.859 -85.1802 -93.1742 62.5308 -85.2937 -92.3541 62.8999 
-77.4178 -97.6579 60.782 -76.8235 -98.4882 60.784 -76.3224 -99.6797 60.8643 
-75.9375 -100.904 60.7656 -75.6373 -101.932 60.6935 -75.3543 -102.92 60.9384 
-75.0889 -103.952 61.3035 -74.9475 -104.82 61.671 -74.9882 -105.391 62.1718 
-78.6591 -96.6733 60.9569 -79.3427 -96.0253 60.9175 -80.1075 -95.2888 60.9255 
-80.9167 -94.5704 61.0384 -81.7721 -93.848 61.185 -82.6632 -93.2706 61.405 
-83.4451 -93.0122 61.89 -84.104 -92.7653 62.5105 -84.7755 -92.1979 62.9137 
-75.5034 -105.569 70.207 -75.3204 -106.172 69.4284 -75.1458 -106.958 68.8347 
-75.11 -107.518 68.1667 -75.1496 -107.642 67.0718 -75.0415 -107.554 65.7651 
-74.939 -107.243 64.8039 -75.0468 -106.662 64.2204 -75.1741 -106.109 63.5871 
-84.6247 -90.8865 68.766 -84.9428 -90.6085 68.0687 -85.3036 -90.3325 67.0903 
-85.5365 -90.0011 66.083 -85.6138 -89.7281 65.3285 -85.7772 -89.5834 64.5519 
-86.0645 -89.5756 63.6643 -86.1732 -89.855 63.1221 -85.9246 -90.5438 63.0313 
-84.9001 -97.6465 66.7544 -84.5947 -97.9064 67.3152 -84.6129 -98.5976 66.879 
-84.3379 -98.2366 68.114 -84.2675 -98.8344 67.5215 -84.2607 -99.4889 67.0728 
-84.0447 -98.5929 68.9891 -83.9183 -99.1248 68.3868 -83.796 -99.6822 67.7683 
-83.6594 -100.22 67.2582 -83.4929 -98.79 69.5905 -83.4854 -99.374 69.1556 
-83.2315 -99.8237 68.5114 -83.0372 -100.358 67.8767 -82.8439 -100.892 67.3035 
-82.7647 -98.8004 70.0302 -82.8496 -99.484 69.6511 -82.6767 -99.9878 69.1265 
-82.37 -100.448 68.4565 -82.1919 -101.002 67.8395 -82.0976 -101.576 67.2727 
-82.2598 -98.9328 70.6635 -82.1693 -99.5483 70.1702 -82.1223 -100.193 69.7269 
-81.963 -100.779 69.1496 -81.7313 -101.268 68.4601 -81.5764 -101.737 67.8338 
-81.504 -102.247 67.2737 -82.0519 -99.315 71.4473 -81.7463 -99.7653 70.8419 
-81.5962 -100.362 70.3564 -81.6093 -101.119 69.9272 -81.5273 -101.761 69.3086 
-81.2862 -102.123 68.546 -81.0537 -102.446 67.8681 -80.8964 -102.855 67.3033 
-85.3791 -96.158 66.8391 -85.5153 -95.5155 67.14 -85.0232 -96.4432 67.5141 
-85.6326 -94.9554 67.5568 -85.1487 -95.8606 67.9579 -84.7538 -96.7662 68.3355 
-85.6554 -94.3923 68.0488 -85.2882 -95.3011 68.4888 -84.8904 -96.2037 68.8453 
-84.4228 -97.0872 69.1319 -85.5421 -93.6979 68.5065 -85.309 -94.6489 69.0058 
-84.9952 -95.6337 69.3812 -84.4528 -96.5422 69.6115 -83.7967 -97.3228 69.7691 
-85.3752 -93.135 68.814 -85.1538 -94.0224 69.3454 -84.8815 -95.0133 69.8166 
-84.4578 -96.0489 70.1487 -83.7839 -96.836 70.297 -83.1228 -97.4426 70.3628 
-85.1165 -92.7641 69.0593 -84.9062 -93.5867 69.5876 -84.6039 -94.455 70.1472 
-84.324 -95.5075 70.6675 -83.8779 -96.443 70.9505 -83.2298 -97.0516 71.0012 
-82.7181 -97.655 71.0701 -84.7238 -92.3382 69.3907 -84.5876 -93.1385 69.9326 
-84.3581 -93.9377 70.54 -84.1829 -94.9181 71.181 -83.9415 -95.9596 71.6199 
-83.3844 -96.7132 71.6833 -82.7752 -97.322 71.6778 -82.4456 -98.0785 71.8282 
-83.9012 -92.2583 70.4128 -83.3854 -92.7419 71.0142 -83.8379 -92.9136 71.0825 
-82.6764 -93.1242 71.5922 -83.3531 -93.2944 71.7189 -83.8654 -93.6987 71.7668 
-81.8828 -93.4448 72.1679 -82.5415 -93.6969 72.2802 -83.326 -94.1879 72.3635 
-83.86 -94.8006 72.4128 -81.2254 -94.1591 72.4312 -81.6282 -94.3422 72.6696 
-82.2956 -94.7892 72.7644 -83.0763 -95.361 72.8742 -83.4677 -95.8673 72.7669 
-80.6307 -95.1288 72.3484 -81.0039 -95.3904 72.6704 -81.3621 -95.6038 72.997 
-81.9904 -95.9061 73.2571 -82.5027 -96.2663 73.2163 -82.6738 -96.6211 72.7918 
-79.9525 -95.8312 72.3278 -80.4643 -96.2642 72.6364 -80.7977 -96.4663 73.1873 
-81.2587 -96.5431 73.8224 -81.7472 -96.7209 74.0198 -81.9264 -97.0194 73.558 
[...]
POINT_DATA 1002
FIELD FieldData 2
Theta 1 1002 float
2.58802 2.58802 0.553574 0.553574 2.12437 1.01722 2.12437 1.01722 1.5708 
1.5708 1.5708 1.5708 2.68241 2.78649 2.89924 3.01861 3.14159 3.01861 
2.89924 2.78649 2.68241 2.61035 2.61791 2.60515 2.56958 2.51327 2.44184 
2.36202 2.27983 2.1997 2.61035 2.61791 2.60515 2.56958 2.51327 2.44184 
2.36202 2.27983 2.1997 2.50947 2.41899 2.31794 2.20864 2.0944 1.97902 
1.86631 1.75944 1.66056 2.50947 2.41899 2.31794 2.20864 2.0944 1.97902 
1.86631 1.75944 1.66056 2.61035 2.61791 2.60515 2.56958 2.51327 2.44184 
2.36202 2.27983 2.1997 2.61035 2.61791 2.60515 2.56958 2.51327 2.44184 
2.36202 2.27983 2.1997 2.50947 2.41899 2.31794 2.20864 2.0944 1.97902 
1.86631 1.75944 1.66056 2.50947 2.41899 2.31794 2.20864 2.0944 1.97902 
1.86631 1.75944 1.66056 0.459179 0.355101 0.242354 0.122983 0 0.122983 
0.242354 0.355101 0.459179 0.531246 0.523681 0.536438 0.57201 0.628319 0.699757 
0.779574 0.86176 0.941896 0.531246 0.523681 0.536438 0.57201 0.628319 0.699757 
0.779574 0.86176 0.941896 0.632123 0.7226 0.823657 0.932948 1.0472 1.16257 
1.27528 1.38216 1.48103 0.632123 0.7226 0.823657 0.932948 1.0472 1.16257 
1.27528 1.38216 1.48103 0.531246 0.523681 0.536438 0.57201 0.628319 0.699757 
0.779574 0.86176 0.941896 0.531246 0.523681 0.536438 0.57201 0.628319 0.699757 
0.779574 0.86176 0.941896 0.632123 0.7226 0.823657 0.932948 1.0472 1.16257 
1.27528 1.38216 1.48103 0.632123 0.7226 0.823657 0.932948 1.0472 1.16257 
1.27528 1.38216 1.48103 2.02998 1.9259 1.81315 1.69378 1.5708 1.44781 
1.32844 1.2157 1.11162 2.0928 2.05283 2.00422 1.94767 1.88496 1.81867 
1.75177 1.68695 1.62623 2.0928 2.05283 2.00422 1.94767 1.88496 1.81867 
1.75177 1.68695 1.62623 1.0488 1.08876 1.13737 1.19392 1.25664 1.32292 
1.38982 1.45464 1.51537 1.0488 1.08876 1.13737 1.19392 1.25664 1.32292 
1.38982 1.45464 1.51537 2.02998 1.9259 1.81315 1.69378 1.5708 1.44781 
1.32844 1.2157 1.11162 2.0928 2.05283 2.00422 1.94767 1.88496 1.81867 
1.75177 1.68695 1.62623 2.0928 2.05283 2.00422 1.94767 1.88496 1.81867 
1.75177 1.68695 1.62623 1.0488 1.08876 1.13737 1.19392 1.25664 1.32292 
1.38982 1.45464 1.51537 1.0488 1.08876 1.13737 1.19392 1.25664 1.32292 
1.38982 1.45464 1.51537 1.5708 1.5708 1.5708 1.5708 1.5708 1.5708 
1.5708 1.5708 1.5708 1.5708 1.5708 1.5708 1.5708 1.5708 1.5708 
1.5708 1.5708 1.5708 2.70908 2.71362 2.81592 2.68886 2.81002 2.92597 
2.6349 2.76254 2.89233 3.01997 2.55881 2.68262 2.80854 2.92834 3.01997 
2.47007 2.58462 2.70048 2.80854 2.89233 2.92597 2.37702 2.48017 2.58462 
2.68262 2.76254 2.81002 2.81592 2.28567 2.37702 2.47007 2.55881 2.6349 
2.68886 2.71362 2.70908 2.52097 2.4195 2.51718 2.30791 2.40503 2.49426 
2.18928 2.28408 2.3734 2.45144 2.06758 2.15805 2.24572 2.32523 2.39165 
1.94707 2.03138 2.11543 2.19453 2.26401 2.32035 1.83164 1.90847 1.98711 
2.06376 2.13422 2.1949 2.24359 1.72413 1.79288 1.86489 1.93728 2.00658 
2.06938 2.12312 2.16654 1.5708 1.50988 1.63171 1.44492 1.5708 1.69667 
1.37826 1.5059 1.63569 1.76333 1.31281 1.43962 1.5708 1.70197 1.82878 
1.25155 1.37501 1.50478 1.63681 1.76659 1.89004 1.19686 1.31493 1.44074 
1.5708 1.70086 1.82666 1.94473 1.15011 1.26149 1.38136 1.50697 1.63462 
1.76024 1.88011 1.99148 1.99148 1.88011 1.94473 1.76024 1.82666 1.89004 
1.63462 1.70086 1.76659 1.82878 1.50697 1.5708 1.63681 1.70197 1.76333 
1.38136 1.44074 1.50478 1.5708 1.63569 1.69667 1.26149 1.31493 1.37501 
1.43962 1.5059 1.5708 1.63171 1.15011 1.19686 1.25155 1.31281 1.37826 
1.44492 1.50988 1.5708 2.16654 2.12312 2.24359 2.06938 2.1949 2.32035 
2.00658 2.13422 2.26401 2.39165 1.93728 2.06376 2.19453 2.32523 2.45144 
1.86489 1.98711 2.11543 2.24572 2.3734 2.49426 1.79288 1.90847 2.03138 
2.15805 2.28408 2.40503 2.51718 1.72413 1.83164 1.94707 2.06758 2.18928 
2.30791 2.4195 2.52097 1.66533 1.66946 1.76911 1.67254 1.777 1.88041 
1.67418 1.78222 1.89102 1.99634 1.67418 1.78405 1.89674 2.00785 2.11299 
1.67254 1.78222 1.89674 2.01191 2.12307 2.22608 1.66946 1.777 1.89102 
2.00785 2.12307 2.23222 2.33166 1.66533 1.76911 1.88041 1.99634 2.11299 
2.22608 2.33166 2.42672 1.47626 1.37249 1.47213 1.26118 1.36459 1.46906 
1.14526 1.25058 1.35938 1.46741 1.0286 1.13374 1.24485 1.35755 1.46741 
0.915514 1.01852 1.12969 1.24485 1.35938 1.46906 0.809937 0.909371 1.01852 
1.13374 1.25058 1.36459 1.47213 0.714871 0.809937 0.915514 1.0286 1.14526 
1.26118 1.37249 1.47626 0.975055 0.898002 1.01847 0.821245 0.946693 1.07221 
0.749941 0.877585 1.00737 1.13501 0.690152 0.816367 0.94706 1.07784 1.20431 
0.647337 0.768195 0.895868 1.02616 1.15448 1.2767 0.624416 0.736561 0.857515 
0.983547 1.11021 1.23313 1.34871 0.620619 0.722093 0.833684 0.952313 1.07402 
1.19452 1.30996 1.41746 0.855925 0.764569 0.764569 0.671524 0.661425 0.671524 
0.582786 0.556971 0.556971 0.582786 0.506696 0.458968 0.441109 0.458968 0.506696 
0.45273 0.379052 0.333054 0.333054 0.379052 0.45273 0.427969 0.331576 0.249267 
0.21325 0.249267 0.331576 0.427969 0.432512 0.325669 0.215619 0.121622 0.121622 
0.215619 0.325669 0.432512 0.432512 0.427969 0.325669 0.45273 0.331576 0.215619 
0.506696 0.379052 0.249267 0.121622 0.582786 0.458968 0.333054 0.21325 0.121622 
0.671524 0.556971 0.441109 0.333054 0.249267 0.215619 0.764569 0.661425 0.556971 
0.458968 0.379052 0.331576 0.325669 0.855925 0.764569 0.671524 0.582786 0.506696 
0.45273 0.427969 0.432512 0.975055 1.01847 0.898002 1.07221 0.946693 0.821245 
1.13501 1.00737 0.877585 0.749941 1.20431 1.07784 0.94706 0.816367 0.690152 
1.2767 1.15448 1.02616 0.895868 0.768195 0.647337 1.34871 1.23313 1.11021 
0.983547 0.857515 0.736561 0.624416 1.41746 1.30996 1.19452 1.07402 0.952313 
0.833684 0.722093 0.620619 1.15011 1.26149 1.19686 1.38136 1.31493 1.25155 
1.50697 1.44074 1.37501 1.31281 1.63462 1.5708 1.50478 1.43962 1.37826 
1.76024 1.70086 1.63681 1.5708 1.5059 1.44492 1.88011 1.82666 1.76659 
1.70197 1.63569 1.5708 1.50988 1.99148 1.94473 1.89004 1.82878 1.76333 
1.69667 1.63171 1.5708 1.15011 1.19686 1.26149 1.25155 1.31493 1.38136 
1.31281 1.37501 1.44074 1.50697 1.37826 1.43962 1.50478 1.5708 1.63462 
1.44492 1.5059 1.5708 1.63681 1.70086 1.76024 1.50988 1.5708 1.63569 
1.70197 1.76659 1.82666 1.88011 1.5708 1.63171 1.69667 1.76333 1.82878 
1.89004 1.94473 1.99148 1.72413 1.83164 1.79288 1.94707 1.90847 1.86489 
2.06758 2.03138 1.98711 1.93728 2.18928 2.15805 2.11543 2.06376 2.00658 
2.30791 2.28408 2.24572 2.19453 2.13422 2.06938 2.4195 2.40503 2.3734 
2.32523 2.26401 2.1949 2.12312 2.52097 2.51718 2.49426 2.45144 2.39165 
2.32035 2.24359 2.16654 2.70908 2.81592 2.71362 2.92597 2.81002 2.68886 
3.01997 2.89233 2.76254 2.6349 3.01997 2.92834 2.80854 2.68262 2.55881 
2.92597 2.89233 2.80854 2.70048 2.58462 2.47007 2.81592 2.81002 2.76254 
2.68262 2.58462 2.48017 2.37702 2.70908 2.71362 2.68886 2.6349 2.55881 
2.47007 2.37702 2.28567 2.16654 2.24359 2.12312 2.32035 2.1949 2.06938 
2.39165 2.26401 2.13422 2.00658 2.45144 2.32523 2.19453 2.06376 1.93728 
2.49426 2.3734 2.24572 2.11543 1.98711 1.86489 2.51718 2.40503 2.28408 
2.15805 2.03138 1.90847 1.79288 2.52097 2.4195 2.30791 2.18928 2.06758 
1.94707 1.83164 1.72413 1.66533 1.76911 1.66946 1.88041 1.777 1.67254 
1.99634 1.89102 1.78222 1.67418 2.11299 2.00785 1.89674 1.78405 1.67418 
2.22608 2.12307 2.01191 1.89674 1.78222 1.67254 2.33166 2.23222 2.12307 
2.00785 1.89102 1.777 1.66946 2.42672 2.33166 2.22608 2.11299 1.99634 
1.88041 1.76911 1.66533 1.47626 1.47213 1.37249 1.46906 1.36459 1.26118 
1.46741 1.35938 1.25058 1.14526 1.46741 1.35755 1.24485 1.13374 1.0286 
1.46906 1.35938 1.24485 1.12969 1.01852 0.915514 1.47213 1.36459 1.25058 
1.13374 1.01852 0.909371 0.809937 1.47626 1.37249 1.26118 1.14526 1.0286 
0.915514 0.809937 0.714871 1.41746 1.30996 1.34871 1.19452 1.23313 1.2767 
1.07402 1.11021 1.15448 1.20431 0.952313 0.983547 1.02616 1.07784 1.13501 
0.833684 0.857515 0.895868 0.94706 1.00737 1.07221 0.722093 0.736561 0.768195 
0.816367 0.877585 0.946693 1.01847 0.620619 0.624416 0.647337 0.690152 0.749941 
0.821245 0.898002 0.975055 0.975055 0.898002 1.01847 0.821245 0.946693 1.07221 
0.749941 0.877585 1.00737 1.13501 0.690152 0.816367 0.94706 1.07784 1.20431 
0.647337 0.768195 0.895868 1.02616 1.15448 1.2767 0.624416 0.736561 0.857515 
0.983547 1.11021 1.23313 1.34871 0.620619 0.722093 0.833684 0.952313 1.07402 
1.19452 1.30996 1.41746 
Phi 1 1002 float
6.28319 3.14159 6.28319 3.14159 4.71239 4.71239 1.5708 1.5708 3.69517 
5.72961 2.58802 0.553574 6.28319 6.28319 6.28319 6.28319 3.14159 3.14159 
3.14159 3.14159 3.14159 6.1053 5.8988 5.67687 5.45995 5.26596 5.10322 
4.97131 4.86569 4.78095 0.177881 0.384387 0.606312 0.823235 1.01722 1.17997 
1.31187 1.4175 1.50223 6.18928 6.10703 6.03531 5.97283 5.91832 5.87061 
5.82869 5.79168 5.75886 0.0939024 0.176153 0.247873 0.310351 0.364864 0.412573 
0.454497 0.491504 0.524326 3.31947 3.52598 3.7479 3.96483 4.15881 4.32156 
4.45346 4.55909 4.64383 2.96371 2.75721 2.53528 2.31836 2.12437 1.96162 
1.82972 1.72409 1.63936 3.2355 3.31775 3.38947 3.45194 3.50646 3.55417 
3.59609 3.6331 3.66592 3.04769 2.96544 2.89372 2.83124 2.77673 2.72902 
2.6871 2.65009 2.61727 6.28319 6.28319 6.28319 6.28319 3.14159 3.14159 
3.14159 3.14159 3.14159 6.1053 5.8988 5.67687 5.45995 5.26596 5.10322 
4.97131 4.86569 4.78095 0.177881 0.384387 0.606312 0.823235 1.01722 1.17997 
1.31187 1.4175 1.50223 6.18928 6.10703 6.03531 5.97283 5.91832 5.87061 
5.82869 5.79168 5.75886 0.0939024 0.176153 0.247873 0.310351 0.364864 0.412573 
0.454497 0.491504 0.524326 3.31947 3.52598 3.7479 3.96483 4.15881 4.32156 
4.45346 4.55909 4.64383 2.96371 2.75721 2.53528 2.31836 2.12437 1.96162 
1.82972 1.72409 1.63936 3.2355 3.31775 3.38947 3.45194 3.50646 3.55417 
3.59609 3.6331 3.66592 3.04769 2.96544 2.89372 2.83124 2.77673 2.72902 
2.6871 2.65009 2.61727 4.71239 4.71239 4.71239 4.71239 4.71239 4.71239 
4.71239 4.71239 4.71239 4.60879 4.49914 4.3857 4.27128 4.15881 4.05096 
3.94976 3.85646 3.77161 4.81599 4.92564 5.03907 5.1535 5.26596 5.37381 
5.47502 5.56831 5.65317 4.60879 4.49914 4.3857 4.27128 4.15881 4.05096 
3.94976 3.85646 3.77161 4.81599 4.92564 5.03907 5.1535 5.26596 5.37381 
5.47502 5.56831 5.65317 1.5708 1.5708 1.5708 1.5708 1.5708 1.5708 
1.5708 1.5708 1.5708 1.6744 1.78405 1.89748 2.01191 2.12437 2.23222 
2.33343 2.42672 2.51157 1.4672 1.35755 1.24411 1.12969 1.01722 0.909371 
0.808166 0.714871 0.63002 1.6744 1.78405 1.89748 2.01191 2.12437 2.23222 
2.33343 2.42672 2.51157 1.4672 1.35755 1.24411 1.12969 1.01722 0.909371 
0.808166 0.714871 0.63002 3.60077 3.49669 3.38395 3.26458 3.14159 3.01861 
2.89924 2.78649 2.68241 5.82401 5.92808 6.04083 6.1602 6.28319 0.122983 
0.242354 0.355101 0.459179 6.05603 5.78856 5.97021 5.51259 5.60297 5.78856 
5.26596 5.26596 5.26596 5.26596 5.06749 5.0121 4.91556 4.71239 4.15881 
4.91556 4.83537 4.71239 4.50922 4.15881 3.63622 4.80045 4.71239 4.58941 
4.41268 4.15881 3.82181 3.45456 4.71239 4.62433 4.50922 4.35729 4.15881 
3.91219 3.63622 3.36875 6.01742 5.94343 5.82633 5.88092 5.76745 5.62798 
5.8278 5.71897 5.58911 5.43724 5.78235 5.67854 5.55757 5.41926 5.26596 
5.74316 5.64441 5.5315 5.40467 5.26596 5.11955 5.70914 5.61528 5.50962 
5.3926 5.26596 5.13292 4.99789 5.67937 5.59016 5.49102 5.38246 5.26596 
5.14407 5.02016 4.89798 5.56831 5.47502 5.47502 5.37381 5.37381 5.37381 
5.26596 5.26596 5.26596 5.26596 5.1535 5.1535 5.1535 5.1535 5.1535 
5.03907 5.03907 5.03907 5.03907 5.03907 5.03907 4.92564 4.92564 4.92564 
4.92564 4.92564 4.92564 4.92564 4.81599 4.81599 4.81599 4.81599 4.81599 
4.81599 4.81599 4.81599 4.60879 4.60879 4.49914 4.60879 4.49914 4.3857 
4.60879 4.49914 4.3857 4.27128 4.60879 4.49914 4.3857 4.27128 4.15881 
4.60879 4.49914 4.3857 4.27128 4.15881 4.05096 4.60879 4.49914 4.3857 
4.27128 4.15881 4.05096 3.94976 4.60879 4.49914 4.3857 4.27128 4.15881 
4.05096 3.94976 3.85646 4.5268 4.40462 4.42689 4.28071 4.29185 4.30523 
4.15881 4.15881 4.15881 4.15881 4.04232 4.03217 4.02011 4.00552 3.98753 
3.93376 3.91515 3.89328 3.86721 3.83566 3.7968 3.83461 3.8095 3.78037 
3.74624 3.70581 3.65733 3.59845 3.7454 3.71564 3.68161 3.64243 3.59698 
3.54386 3.48135 3.40735 3.56428 3.45246 3.52338 3.33203 3.40312 3.47739 
3.20576 3.27463 3.34802 3.42551 3.07742 3.14159 3.21128 3.28647 3.36688 
2.95116 3.00855 3.0719 3.14159 3.21784 3.3006 2.83072 2.88006 2.93517 
2.99672 3.06535 3.14159 3.22575 2.7189 2.7598 2.8058 2.85768 2.9163 
2.98259 3.05743 3.14159 3.56428 3.52338 3.45246 3.47739 3.40312 3.33203 
3.42551 3.34802 3.27463 3.20576 3.36688 3.28647 3.21128 3.14159 3.07742 
3.3006 3.21784 3.14159 3.0719 3.00855 2.95116 3.22575 3.14159 3.06535 
2.99672 2.93517 2.88006 2.83072 3.14159 3.05743 2.98259 2.9163 2.85768 
2.8058 2.7598 2.7189 4.5268 4.42689 4.40462 4.30523 4.29185 4.28071 
4.15881 4.15881 4.15881 4.15881 3.98753 4.00552 4.02011 4.03217 4.04232 
3.7968 3.83566 3.86721 3.89328 3.91515 3.93376 3.59845 3.65733 3.70581 
3.74624 3.78037 3.8095 3.83461 3.40735 3.48135 3.54386 3.59698 3.64243 
3.68161 3.71564 3.7454 4.71239 4.80045 4.62433 4.91556 4.71239 4.50922 
5.06749 4.83537 4.58941 4.35729 5.26596 5.0121 4.71239 4.41268 4.15881 
5.51259 5.26596 4.91556 4.50922 4.15881 3.91219 5.78856 5.60297 5.26596 
4.71239 4.15881 3.82181 3.63622 6.05603 5.97021 5.78856 5.26596 4.15881 
3.63622 3.45456 3.36875 0.227158 0.494626 0.312971 0.770593 0.680215 0.494626 
1.01722 1.01722 1.01722 1.01722 1.2157 1.27109 1.36763 1.5708 2.12437 
1.36763 1.44781 1.5708 1.77397 2.12437 2.64697 1.48273 1.5708 1.69378 
1.8705 2.12437 2.46138 2.82862 1.5708 1.65886 1.77397 1.9259 2.12437 
2.371 2.64697 2.91443 1.75639 1.87857 1.8563 2.00248 1.99133 1.97796 
2.12437 2.12437 2.12437 2.12437 2.24087 2.25101 2.26308 2.27767 2.29565 
2.34943 2.36803 2.38991 2.41597 2.44752 2.48639 2.44857 2.47368 2.50281 
2.53694 2.57738 2.62586 2.68474 2.53778 2.56754 2.60157 2.64076 2.68621 
2.73933 2.80184 2.87583 1.6744 1.6744 1.78405 1.6744 1.78405 1.89748 
1.6744 1.78405 1.89748 2.01191 1.6744 1.78405 1.89748 2.01191 2.12437 
1.6744 1.78405 1.89748 2.01191 2.12437 2.23222 1.6744 1.78405 1.89748 
2.01191 2.12437 2.23222 2.33343 1.6744 1.78405 1.89748 2.01191 2.12437 
2.23222 2.33343 2.42672 1.4672 1.35755 1.4672 1.24411 1.35755 1.4672 
1.12969 1.24411 1.35755 1.4672 1.01722 1.12969 1.24411 1.35755 1.4672 
0.909371 1.01722 1.12969 1.24411 1.35755 1.4672 0.808166 0.909371 1.01722 
1.12969 1.24411 1.35755 1.4672 0.714871 0.808166 0.909371 1.01722 1.12969 
1.24411 1.35755 1.4672 0.603812 0.57405 0.693022 0.540021 0.667908 0.792164 
0.500837 0.638778 0.773562 0.900726 0.455383 0.604649 0.751687 0.890581 1.01722 
0.402264 0.564217 0.725619 0.878514 1.01722 1.13912 0.339753 0.515737 0.694072 
0.863926 1.01722 1.15026 1.26302 0.265762 0.456853 0.655207 0.845941 1.01722 
1.16363 1.28529 1.38521 0.227158 0.312971 0.494626 0.494626 0.680215 0.770593 
1.01722 1.01722 1.01722 1.01722 2.12437 1.5708 1.36763 1.27109 1.2157 
2.64697 2.12437 1.77397 1.5708 1.44781 1.36763 2.82862 2.46138 2.12437 
1.8705 1.69378 1.5708 1.48273 2.91443 2.64697 2.371 2.12437 1.9259 
1.77397 1.65886 1.5708 1.75639 1.8563 1.87857 1.97796 1.99133 2.00248 
2.12437 2.12437 2.12437 2.12437 2.29565 2.27767 2.26308 2.25101 2.24087 
2.48639 2.44752 2.41597 2.38991 2.36803 2.34943 2.68474 2.62586 2.57738 
2.53694 2.50281 2.47368 2.44857 2.87583 2.80184 2.73933 2.68621 2.64076 
2.60157 2.56754 2.53778 5.86049 5.90139 5.97231 5.94739 6.02165 6.09275 
5.99927 6.07676 6.15015 6.21902 6.0579 6.13831 6.2135 0 0.0641696 
6.12418 6.20694 6.28319 0.069689 0.13304 0.190437 6.19903 0 0.0762451 
0.144876 0.206423 0.261531 0.310872 0 0.0841597 0.159004 0.225289 0.283913 
0.335793 0.381792 0.422692 5.86049 5.97231 5.90139 6.09275 6.02165 5.94739 
6.21902 6.15015 6.07676 5.99927 0.0641696 0 6.2135 6.13831 6.0579 
0.190437 0.13304 0.069689 6.28319 6.20694 6.12418 0.310872 0.261531 0.206423 
0.144876 0.0762451 6.28319 6.19903 0.422692 0.381792 0.335793 0.283913 0.225289 
0.159004 0.0841597 0 5.67937 5.70914 5.59016 5.74316 5.61528 5.49102 
5.78235 5.64441 5.50962 5.38246 5.8278 5.67854 5.5315 5.3926 5.26596 
5.88092 5.71897 5.55757 5.40467 5.26596 5.14407 5.94343 5.76745 5.58911 
5.41926 5.26596 5.13292 5.02016 6.01742 5.82633 5.62798 5.43724 5.26596 
5.11955 4.99789 4.89798 1.38521 1.28529 1.26302 1.16363 1.15026 1.13912 
1.01722 1.01722 1.01722 1.01722 0.845941 0.863926 0.878514 0.890581 0.900726 
0.655207 0.694072 0.725619 0.751687 0.773562 0.792164 0.456853 0.515737 0.564217 
0.604649 0.638778 0.667908 0.693022 0.265762 0.339753 0.402264 0.455383 0.500837 
0.540021 0.57405 0.603812 
