# vtk DataFile Version 4.0
vtk output
ASCII
DATASET POLYDATA
POINTS 1002 float
-86.8769 -99.8935 71.7062 -81.3148 -105.975 72.458 -80.086 -94.9617 70.441 
-76.0743 -102.29 72.1529 -82.4513 -101.061 76.4678 -79.4614 -98.9968 76.2741 
-82.5412 -102.3 67.369 -78.3132 -99.7734 67.0367 -76.5822 -106.5 76.2449 
-84.6452 -94.5252 73.6238 -76.0646 -108.353 69.2125 -86.1663 -94.2777 67.4759 
-86.4431 -100.358 71.7574 -85.9278 -100.963 71.8051 -85.2911 -101.598 71.8443 
-84.5728 -102.148 71.927 -83.9269 -102.761 72.0685 -83.3336 -103.474 72.2054 
-82.6969 -104.127 72.2965 -82.1562 -104.774 72.3538 -81.7598 -105.448 72.4038 
-86.6167 -99.9234 72.1833 -86.1893 -99.9073 72.6452 -85.7031 -99.9864 73.0979 
-85.3528 -100.265 73.6765 -85.0229 -100.534 74.4054 -84.4051 -100.571 74.9201 
-83.6534 -100.553 75.1449 -83.1519 -100.702 75.4998 -82.8443 -100.925 76.0456 
-86.7715 -100.073 71.1969 -86.5892 -100.28 70.5854 -86.3379 -100.597 69.9193 
-85.9154 -100.932 69.3312 -85.3363 -101.185 68.9077 -84.8712 -101.544 68.4857 
-84.5383 -102.022 67.9556 -84.033 -102.297 67.5352 -83.2984 -102.307 67.3788 
-87.135 -99.462 71.9735 -87.3127 -98.8422 72.2433 -87.3333 -98.0085 72.4477 
-87.226 -97.1636 72.5861 -87.0594 -96.423 72.7842 -86.7408 -95.7264 73.0173 
-86.2205 -95.2172 73.1282 -85.6378 -94.9637 73.1997 -85.1079 -94.7567 73.3845 
-87.2229 -99.5591 71.3492 -87.5242 -99.1068 70.8867 -87.7605 -98.5393 70.2848 
-87.8226 -97.8762 69.6536 -87.5848 -97.0749 69.2075 -87.2349 -96.2046 68.9137 
-87.0812 -95.4623 68.501 -87.0109 -94.9112 67.9702 -86.7155 -94.5138 67.5924 
-81.3658 -105.664 72.7982 -81.2887 -105.159 73.1587 -81.2429 -104.604 73.5899 
-81.3271 -104.118 74.0605 -81.4482 -103.599 74.5324 -81.5799 -103.011 75.0216 
-81.7908 -102.505 75.5 -82.0571 -102.07 75.8995 -82.297 -101.581 76.2147 
-81.4529 -105.851 71.9942 -81.5233 -105.603 71.3897 -81.6234 -105.327 70.7457 
-81.7058 -104.951 70.169 -81.7067 -104.384 69.6447 -81.7694 -103.851 69.0935 
-81.9585 -103.493 68.5399 -82.1633 -103.114 68.0768 -82.3505 -102.669 67.7017 
-80.7593 -106.17 72.7276 -80.0389 -106.236 73.0009 -79.3603 -106.315 73.3248 
-78.9073 -106.56 73.7398 -78.5642 -106.884 74.2373 -78.1264 -107.014 74.734 
-77.6866 -106.94 75.1227 -77.3428 -106.863 75.4525 -76.9808 -106.766 75.8429 
-80.8003 -106.295 72.2282 -80.1424 -106.565 71.8855 -79.6066 -106.992 71.4804 
-79.3285 -107.642 71.1271 -79.066 -108.239 70.7396 -78.5629 -108.55 70.1638 
-77.88 -108.69 69.5799 -77.1929 -108.766 69.2616 -76.5838 -108.675 69.1959 
-79.8747 -95.5862 70.5672 -79.4624 -96.2719 70.8161 -78.8652 -96.8899 71.089 
-78.3925 -97.6013 71.2778 -77.9182 -98.4276 71.4651 -77.187 -99.0382 71.7158 
-76.6079 -99.59 71.897 -76.4384 -100.491 71.9762 -76.3315 -101.525 72.0583 
-80.3513 -95.4341 70.9082 -80.4069 -95.7573 71.5813 -80.0914 -95.7955 72.4348 
-79.7642 -95.9171 73.3228 -79.6485 -96.3683 74.0421 -79.4666 -96.8199 74.6685 
-79.2384 -97.1717 75.3375 -79.2498 -97.722 75.8403 -79.4061 -98.4318 76.0724 
-79.8206 -94.9777 70.1669 -79.8056 -95.342 69.9414 -79.8455 -95.9542 69.5726 
-79.6087 -96.4093 68.9511 -79.1257 -96.6341 68.2771 -78.7343 -97.02 67.7705 
-78.5833 -97.6772 67.4177 -78.5272 -98.3799 67.1862 -78.4288 -99.0638 67.0787 
-80.5236 -94.7361 70.6781 -81.0265 -94.4634 71.0883 -81.305 -93.9491 71.6054 
-81.4565 -93.382 72.1228 -81.9907 -93.2085 72.5855 -82.8397 -93.4346 72.9104 
-83.5014 -93.7237 73.0837 -83.9418 -93.9666 73.2494 -84.3289 -94.2283 73.4582 
-80.1815 -94.4569 70.1941 -80.7193 -94.2572 69.9146 -81.6035 -94.2766 69.551 
-82.3099 -94.1605 69.1485 -82.7757 -93.7987 68.6324 -83.4318 -93.44 67.9879 
-84.2488 -93.2906 67.5498 -84.9566 -93.4086 67.4714 -85.5844 -93.7722 67.4992 
-76.128 -101.865 72.6715 -76.2648 -101.379 73.2 -76.4799 -100.923 73.8006 
-76.806 -100.651 74.3381 -77.3281 -100.554 74.6538 -77.8743 -100.35 74.9711 
-78.2254 -99.9297 75.4598 -78.5287 -99.5051 75.8789 -78.9668 -99.2089 76.1019 
-76.2145 -102.277 71.5021 -76.2653 -102.152 70.7975 -76.2803 -101.856 70.2423 
-76.3683 -101.426 69.7738 -76.4327 -100.935 69.0375 -76.4977 -100.49 68.1786 
-76.8488 -100.229 67.6987 -77.4382 -100.127 67.5365 -77.9462 -100.003 67.3378 
-75.8103 -102.657 72.5368 -75.7604 -103.175 72.82 -75.9709 -103.911 73.0843 
-76.0949 -104.599 73.5371 -75.9405 -105.029 74.1456 -75.7785 -105.381 74.7212 
-75.7846 -105.836 75.2893 -75.9063 -106.268 75.8336 -76.1666 -106.495 76.1634 
-75.8192 -102.817 71.836 -75.4828 -103.263 71.511 -75.1757 -103.882 71.2645 
-75.0407 -104.775 71.024 -75.042 -105.754 70.6355 -75.0118 -106.693 70.1527 
-74.9629 -107.513 69.7536 -75.0974 -108.067 69.4828 -75.5003 -108.317 69.3098 
-82.128 -100.783 76.7552 -81.7932 -100.577 77.0785 -81.7313 -100.443 77.5445 
-81.7508 -100.062 77.9658 -81.3564 -99.4046 78.1013 -80.6383 -98.9711 78.0226 
-80.0915 -98.9508 77.7667 -79.8426 -99.0597 77.2573 -79.6878 -99.0895 76.6747 
-81.8404 -101.476 76.5336 -81.123 -101.99 76.4966 -80.3767 -102.609 76.5609 
-79.6753 -103.275 76.7156 -79.1282 -104.051 76.8405 -78.7275 -104.93 77.0696 
-78.2459 -105.585 77.3131 -77.6171 -105.87 77.1765 -77.0276 -106.095 76.6968 
-82.8492 -100.5 76.4529 -83.2294 -99.8645 76.3348 -83.6311 -99.0754 76.2369 
-84.1232 -98.1721 76.2203 -84.5993 -97.3303 76.0879 -84.8245 -96.613 75.6906 
-84.7783 -95.9176 75.1392 -84.6715 -95.2773 74.5823 -84.6371 -94.829 74.0751 
-79.1045 -99.5337 76.4896 -78.7895 -100.196 76.7555 -78.5942 -101.16 76.851 
-78.3541 -102.285 76.7228 -77.9954 -103.391 76.7079 -77.5873 -104.375 77.0906 
-77.0887 -105.01 77.5249 -76.6382 -105.378 77.4557 -76.4885 -105.854 76.8924 
-79.9307 -98.4798 76.3306 -80.2911 -97.8059 76.4172 -80.624 -97.0403 76.3955 
-81.1693 -96.2973 76.2078 -81.9297 -95.5685 75.9709 -82.6967 -94.9329 75.698 
-83.3499 -94.5719 75.286 -83.8479 -94.4721 74.741 -84.239 -94.4889 74.1561 
-82.2008 -102.184 67.1643 -81.8268 -102.081 66.929 -81.4446 -101.816 66.7811 
-81.0911 -101.339 66.8156 -80.6744 -100.81 66.8329 -80.078 -100.429 66.6564 
-79.4113 -100.278 66.5019 -78.8668 -100.211 66.5796 -78.514 -100.041 66.8046 
-81.7405 -102.687 67.5412 -81.0719 -103.409 67.6125 -80.4481 -104.264 67.6301 
-79.6798 -104.927 67.6901 -78.8817 -105.406 67.8336 -78.2978 -105.89 68.1243 
-77.8358 -106.464 68.5392 -77.2754 -107.132 68.9008 -76.6328 -107.802 69.1048 
-83.1899 -101.948 67.0705 -83.7406 -101.397 66.9166 -84.1715 -100.576 66.9018 
-84.684 -99.7239 66.8754 -85.2011 -98.8596 66.9031 -85.5121 -97.8327 67.0916 
-85.8094 -96.8367 67.2836 -86.1688 -95.97 67.3723 -86.3117 -95.0946 67.4198 
-77.9993 -100.718 67.1803 -77.6298 -101.701 67.2203 -77.09 -102.541 67.1418 
-76.4605 -103.339 67.1066 -76.0755 -104.414 67.2304 -76.0102 -105.54 67.5006 
-75.9882 -106.257 67.9977 -75.9201 -106.801 68.6391 -75.9342 -107.551 69.0787 
-78.7921 -99.0641 66.7424 -79.4886 -98.4831 66.578 -80.3766 -98.0701 66.6438 
-81.3246 -97.5812 66.8136 -82.2565 -96.9959 66.9632 -83.1263 -96.5873 67.1823 
-83.947 -96.196 67.4671 -84.7854 -95.5089 67.5911 -85.5725 -94.7493 67.5147 
-76.4094 -107.305 75.7881 -76.1713 -108.05 75.4814 -75.9974 -108.491 74.9132 
-75.9991 -108.821 73.898 -75.9538 -109.257 72.8221 -75.7514 -109.591 71.8695 
-75.6595 -109.625 70.8276 -75.7554 -109.423 69.8714 -75.8959 -109.002 69.363 
-84.9847 -94.297 73.0775 -85.3759 -94.0002 72.5166 -85.6533 -93.8325 71.8311 
-85.8262 -93.7263 71.0197 -86.1566 -93.416 70.2795 -86.5814 -93.1526 69.6744 
-86.6756 -93.2597 68.9931 -86.4631 -93.5083 68.2312 -86.2859 -93.7848 67.6835 
-86.1621 -100.468 72.2795 -85.6929 -100.519 72.7759 -85.6906 -101.206 72.3894 
-85.1687 -100.647 73.2414 -85.2227 -101.304 72.9363 -85.088 -101.906 72.4938 
-84.7916 -100.933 73.8446 -84.6409 -101.375 73.4319 -84.6023 -101.983 73.0515 
-84.3337 -102.46 72.5834 -84.3741 -101.153 74.4918 -84.1721 -101.585 74.0255 
-83.9433 -101.993 73.5368 -83.7813 -102.543 73.0475 -83.5866 -103.078 72.6436 
-83.6749 -101.167 74.8587 -83.6543 -101.77 74.5483 -83.3814 -102.166 74.0819 
-83.049 -102.542 73.4576 -82.9139 -103.122 72.9878 -82.8708 -103.732 72.6835 
-82.9918 -101.201 75.1687 -82.9535 -101.798 74.8859 -82.823 -102.335 74.5405 
-82.47 -102.698 73.9588 -82.1721 -103.091 73.3537 -82.1472 -103.706 72.996 
-82.2262 -104.352 72.7201 -82.6004 -101.387 75.7052 -82.3802 -101.866 75.3399 
-82.2158 -102.381 74.9587 -82.0025 -102.885 74.4722 -81.7283 -103.303 73.896 
-81.5648 -103.762 73.4156 -81.6294 -104.398 73.075 -81.7687 -105.034 72.7572 
-86.8255 -99.4498 72.4425 -86.9762 -98.849 72.7236 -86.3715 -99.446 72.9223 
-86.9436 -98.0506 72.9749 -86.4909 -98.89 73.2567 -85.9368 -99.5973 73.4741 
-86.7699 -97.2126 73.1843 -86.3433 -98.0936 73.4996 -85.9869 -99.0321 73.8395 
-85.5831 -99.8604 74.1936 -86.5301 -96.469 73.3933 -86.0803 -97.2542 73.6399 
-85.7158 -98.2283 73.9628 -85.4865 -99.2288 74.4943 -85.0522 -99.9858 74.8817 
-86.1146 -95.8629 73.5246 -85.8385 -96.5726 73.8258 -85.4709 -97.4455 74.1081 
-85.2055 -98.4854 74.5889 -84.8769 -99.3586 75.0825 -84.2981 -99.9794 75.2299 
-85.5505 -95.4595 73.5936 -85.4833 -96.0732 74.0377 -85.3397 -96.8148 74.4973 
-85.0818 -97.7428 74.9571 -84.736 -98.6927 75.3372 -84.2548 -99.45 75.4943 
-83.6834 -100.082 75.4905 -85.035 -95.1506 73.7805 -85.044 -95.6781 74.2749 
-85.1087 -96.3336 74.8742 -85.0251 -97.0879 75.4536 -84.6901 -97.9501 75.8095 
-84.2207 -98.8336 75.89 -83.7443 -99.623 75.8923 -83.287 -100.308 75.9615 
-84.3228 -94.7753 74.7411 -83.9961 -94.8623 75.3594 -84.4174 -95.3583 75.2983 
-83.4777 -95.199 75.783 -84.0305 -95.6142 75.8249 -84.4684 -96.1382 75.7527 
-82.6841 -95.7468 76.0402 -83.3197 -96.0216 76.1471 -83.8657 -96.4479 76.1282 
-84.3315 -96.886 76.1034 -81.7577 -96.4194 76.2848 -82.373 -96.5373 76.4798 
-82.9759 -96.8088 76.5776 -83.5316 -97.255 76.4346 -83.9086 -97.6911 76.3335 
-81.0294 -97.1893 76.5663 -81.5479 -97.2113 76.8876 -82.1497 -97.248 77.2431 
-82.713 -97.6386 77.1453 -83.087 -98.2019 76.7378 -83.3577 -98.6545 76.4624 
-80.5986 -97.981 76.7308 -80.9905 -97.9717 77.1892 -81.5577 -97.8048 77.7369 
-82.1494 -97.9677 77.9255 -82.4815 -98.6117 77.5148 -82.6265 -99.2056 76.9651 
[...]
POINT_DATA 1002
FIELD FieldData 2
Theta 1 1002 float
2.58802 2.58802 0.553574 0.553574 2.12437 1.01722 2.12437 1.01722 1.5708 
1.5708 1.5708 1.5708 2.68241 2.78649 2.89924 3.01861 3.14159 3.01861 
2.89924 2.78649 2.68241 2.61035 2.61791 2.60515 2.56958 2.51327 2.44184 
2.36202 2.27983 2.1997 2.61035 2.61791 2.60515 2.56958 2.51327 2.44184 
2.36202 2.27983 2.1997 2.50947 2.41899 2.31794 2.20864 2.0944 1.97902 
1.86631 1.75944 1.66056 2.50947 2.41899 2.31794 2.20864 2.0944 1.97902 
1.86631 1.75944 1.66056 2.61035 2.61791 2.60515 2.56958 2.51327 2.44184 
2.36202 2.27983 2.1997 2.61035 2.61791 2.60515 2.56958 2.51327 2.44184 
2.36202 2.27983 2.1997 2.50947 2.41899 2.31794 2.20864 2.0944 1.97902 
1.86631 1.75944 1.66056 2.50947 2.41899 2.31794 2.20864 2.0944 1.97902 
1.86631 1.75944 1.66056 0.459179 0.355101 0.242354 0.122983 0 0.122983 
0.242354 0.355101 0.459179 0.531246 0.523681 0.536438 0.57201 0.628319 0.699757 
0.779574 0.86176 0.941896 0.531246 0.523681 0.536438 0.57201 0.628319 0.699757 
0.779574 0.86176 0.941896 0.632123 0.7226 0.823657 0.932948 1.0472 1.16257 
1.27528 1.38216 1.48103 0.632123 0.7226 0.823657 0.932948 1.0472 1.16257 
1.27528 1.38216 1.48103 0.531246 0.523681 0.536438 0.57201 0.628319 0.699757 
0.779574 0.86176 0.941896 0.531246 0.523681 0.536438 0.57201 0.628319 0.699757 
0.779574 0.86176 0.941896 0.632123 0.7226 0.823657 0.932948 1.0472 1.16257 
1.27528 1.38216 1.48103 0.632123 0.7226 0.823657 0.932948 1.0472 1.16257 
1.27528 1.38216 1.48103 2.02998 1.9259 1.81315 1.69378 1.5708 1.44781 
1.32844 1.2157 1.11162 2.0928 2.05283 2.00422 1.94767 1.88496 1.81867 
1.75177 1.68695 1.62623 2.0928 2.05283 2.00422 1.94767 1.88496 1.81867 
1.75177 1.68695 1.62623 1.0488 1.08876 1.13737 1.19392 1.25664 1.32292 
1.38982 1.45464 1.51537 1.0488 1.08876 1.13737 1.19392 1.25664 1.32292 
1.38982 1.45464 1.51537 2.02998 1.9259 1.81315 1.69378 1.5708 1.44781 
1.32844 1.2157 1.11162 2.0928 2.05283 2.00422 1.94767 1.88496 1.81867 
1.75177 1.68695 1.62623 2.0928 2.05283 2.00422 1.94767 1.88496 1.81867 
1.75177 1.68695 1.62623 1.0488 1.08876 1.13737 1.19392 1.25664 1.32292 
1.38982 1.45464 1.51537 1.0488 1.08876 1.13737 1.19392 1.25664 1.32292 
1.38982 1.45464 1.51537 1.5708 1.5708 1.5708 1.5708 1.5708 1.5708 
1.5708 1.5708 1.5708 1.5708 1.5708 1.5708 1.5708 1.5708 1.5708 
1.5708 1.5708 1.5708 2.70908 2.71362 2.81592 2.68886 2.81002 2.92597 
2.6349 2.76254 2.89233 3.01997 2.55881 2.68262 2.80854 2.92834 3.01997 
2.47007 2.58462 2.70048 2.80854 2.89233 2.92597 2.37702 2.48017 2.58462 
2.68262 2.76254 2.81002 2.81592 2.28567 2.37702 2.47007 2.55881 2.6349 
2.68886 2.71362 2.70908 2.52097 2.4195 2.51718 2.30791 2.40503 2.49426 
2.18928 2.28408 2.3734 2.45144 2.06758 2.15805 2.24572 2.32523 2.39165 
1.94707 2.03138 2.11543 2.19453 2.26401 2.32035 1.83164 1.90847 1.98711 
2.06376 2.13422 2.1949 2.24359 1.72413 1.79288 1.86489 1.93728 2.00658 
2.06938 2.12312 2.16654 1.5708 1.50988 1.63171 1.44492 1.5708 1.69667 
1.37826 1.5059 1.63569 1.76333 1.31281 1.43962 1.5708 1.70197 1.82878 
1.25155 1.37501 1.50478 1.63681 1.76659 1.89004 1.19686 1.31493 1.44074 
1.5708 1.70086 1.82666 1.94473 1.15011 1.26149 1.38136 1.50697 1.63462 
1.76024 1.88011 1.99148 1.99148 1.88011 1.94473 1.76024 1.82666 1.89004 
1.63462 1.70086 1.76659 1.82878 1.50697 1.5708 1.63681 1.70197 1.76333 
1.38136 1.44074 1.50478 1.5708 1.63569 1.69667 1.26149 1.31493 1.37501 
1.43962 1.5059 1.5708 1.63171 1.15011 1.19686 1.25155 1.31281 1.37826 
1.44492 1.50988 1.5708 2.16654 2.12312 2.24359 2.06938 2.1949 2.32035 
2.00658 2.13422 2.26401 2.39165 1.93728 2.06376 2.19453 2.32523 2.45144 
1.86489 1.98711 2.11543 2.24572 2.3734 2.49426 1.79288 1.90847 2.03138 
2.15805 2.28408 2.40503 2.51718 1.72413 1.83164 1.94707 2.06758 2.18928 
2.30791 2.4195 2.52097 1.66533 1.66946 1.76911 1.67254 1.777 1.88041 
1.67418 1.78222 1.89102 1.99634 1.67418 1.78405 1.89674 2.00785 2.11299 
1.67254 1.78222 1.89674 2.01191 2.12307 2.22608 1.66946 1.777 1.89102 
2.00785 2.12307 2.23222 2.33166 1.66533 1.76911 1.88041 1.99634 2.11299 
2.22608 2.33166 2.42672 1.47626 1.37249 1.47213 1.26118 1.36459 1.46906 
1.14526 1.25058 1.35938 1.46741 1.0286 1.13374 1.24485 1.35755 1.46741 
0.915514 1.01852 1.12969 1.24485 1.35938 1.46906 0.809937 0.909371 1.01852 
1.13374 1.25058 1.36459 1.47213 0.714871 0.809937 0.915514 1.0286 1.14526 
1.26118 1.37249 1.47626 0.975055 0.898002 1.01847 0.821245 0.946693 1.07221 
0.749941 0.877585 1.00737 1.13501 0.690152 0.816367 0.94706 1.07784 1.20431 
0.647337 0.768195 0.895868 1.02616 1.15448 1.2767 0.624416 0.736561 0.857515 
0.983547 1.11021 1.23313 1.34871 0.620619 0.722093 0.833684 0.952313 1.07402 
1.19452 1.30996 1.41746 0.855925 0.764569 0.764569 0.671524 0.661425 0.671524 
0.582786 0.556971 0.556971 0.582786 0.506696 0.458968 0.441109 0.458968 0.506696 
0.45273 0.379052 0.333054 0.333054 0.379052 0.45273 0.427969 0.331576 0.249267 
0.21325 0.249267 0.331576 0.427969 0.432512 0.325669 0.215619 0.121622 0.121622 
0.215619 0.325669 0.432512 0.432512 0.427969 0.325669 0.45273 0.331576 0.215619 
0.506696 0.379052 0.249267 0.121622 0.582786 0.458968 0.333054 0.21325 0.121622 
0.671524 0.556971 0.441109 0.333054 0.249267 0.215619 0.764569 0.661425 0.556971 
0.458968 0.379052 0.331576 0.325669 0.855925 0.764569 0.671524 0.582786 0.506696 
0.45273 0.427969 0.432512 0.975055 1.01847 0.898002 1.07221 0.946693 0.821245 
1.13501 1.00737 0.877585 0.749941 1.20431 1.07784 0.94706 0.816367 0.690152 
1.2767 1.15448 1.02616 0.895868 0.768195 0.647337 1.34871 1.23313 1.11021 
0.983547 0.857515 0.736561 0.624416 1.41746 1.30996 1.19452 1.07402 0.952313 
0.833684 0.722093 0.620619 1.15011 1.26149 1.19686 1.38136 1.31493 1.25155 
1.50697 1.44074 1.37501 1.31281 1.63462 1.5708 1.50478 1.43962 1.37826 
1.76024 1.70086 1.63681 1.5708 1.5059 1.44492 1.88011 1.82666 1.76659 
1.70197 1.63569 1.5708 1.50988 1.99148 1.94473 1.89004 1.82878 1.76333 
1.69667 1.63171 1.5708 1.15011 1.19686 1.26149 1.25155 1.31493 1.38136 
1.31281 1.37501 1.44074 1.50697 1.37826 1.43962 1.50478 1.5708 1.63462 
1.44492 1.5059 1.5708 1.63681 1.70086 1.76024 1.50988 1.5708 1.63569 
1.70197 1.76659 1.82666 1.88011 1.5708 1.63171 1.69667 1.76333 1.82878 
1.89004 1.94473 1.99148 1.72413 1.83164 1.79288 1.94707 1.90847 1.86489 
2.06758 2.03138 1.98711 1.93728 2.18928 2.15805 2.11543 2.06376 2.00658 
2.30791 2.28408 2.24572 2.19453 2.13422 2.06938 2.4195 2.40503 2.3734 
2.32523 2.26401 2.1949 2.12312 2.52097 2.51718 2.49426 2.45144 2.39165 
2.32035 2.24359 2.16654 2.70908 2.81592 2.71362 2.92597 2.81002 2.68886 
3.01997 2.89233 2.76254 2.6349 3.01997 2.92834 2.80854 2.68262 2.55881 
2.92597 2.89233 2.80854 2.70048 2.58462 2.47007 2.81592 2.81002 2.76254 
2.68262 2.58462 2.48017 2.37702 2.70908 2.71362 2.68886 2.6349 2.55881 
2.47007 2.37702 2.28567 2.16654 2.24359 2.12312 2.32035 2.1949 2.06938 
2.39165 2.26401 2.13422 2.00658 2.45144 2.32523 2.19453 2.06376 1.93728 
2.49426 2.3734 2.24572 2.11543 1.98711 1.86489 2.51718 2.40503 2.28408 
2.15805 2.03138 1.90847 1.79288 2.52097 2.4195 2.30791 2.18928 2.06758 
1.94707 1.83164 1.72413 1.66533 1.76911 1.66946 1.88041 1.777 1.67254 
1.99634 1.89102 1.78222 1.67418 2.11299 2.00785 1.89674 1.78405 1.67418 
2.22608 2.12307 2.01191 1.89674 1.78222 1.67254 2.33166 2.23222 2.12307 
2.00785 1.89102 1.777 1.66946 2.42672 2.33166 2.22608 2.11299 1.99634 
1.88041 1.76911 1.66533 1.47626 1.47213 1.37249 1.46906 1.36459 1.26118 
1.46741 1.35938 1.25058 1.14526 1.46741 1.35755 1.24485 1.13374 1.0286 
1.46906 1.35938 1.24485 1.12969 1.01852 0.915514 1.47213 1.36459 1.25058 
1.13374 1.01852 0.909371 0.809937 1.47626 1.37249 1.26118 1.14526 1.0286 
0.915514 0.809937 0.714871 1.41746 1.30996 1.34871 1.19452 1.23313 1.2767 
1.07402 1.11021 1.15448 1.20431 0.952313 0.983547 1.02616 1.07784 1.13501 
0.833684 0.857515 0.895868 0.94706 1.00737 1.07221 0.722093 0.736561 0.768195 
0.816367 0.877585 0.946693 1.01847 0.620619 0.624416 0.647337 0.690152 0.749941 
0.821245 0.898002 0.975055 0.975055 0.898002 1.01847 0.821245 0.946693 1.07221 
0.749941 0.877585 1.00737 1.13501 0.690152 0.816367 0.94706 1.07784 1.20431 
0.647337 0.768195 0.895868 1.02616 1.15448 1.2767 0.624416 0.736561 0.857515 
0.983547 1.11021 1.23313 1.34871 0.620619 0.722093 0.833684 0.952313 1.07402 
1.19452 1.30996 1.41746 
Phi 1 1002 float
6.28319 3.14159 6.28319 3.14159 4.71239 4.71239 1.5708 1.5708 3.69517 
5.72961 2.58802 0.553574 6.28319 6.28319 6.28319 6.28319 3.14159 3.14159 
3.14159 3.14159 3.14159 6.1053 5.8988 5.67687 5.45995 5.26596 5.10322 
4.97131 4.86569 4.78095 0.177881 0.384387 0.606312 0.823235 1.01722 1.17997 
1.31187 1.4175 1.50223 6.18928 6.10703 6.03531 5.97283 5.91832 5.87061 
5.82869 5.79168 5.75886 0.0939024 0.176153 0.247873 0.310351 0.364864 0.412573 
0.454497 0.491504 0.524326 3.31947 3.52598 3.7479 3.96483 4.15881 4.32156 
4.45346 4.55909 4.64383 2.96371 2.75721 2.53528 2.31836 2.12437 1.96162 
1.82972 1.72409 1.63936 3.2355 3.31775 3.38947 3.45194 3.50646 3.55417 
3.59609 3.6331 3.66592 3.04769 2.96544 2.89372 2.83124 2.77673 2.72902 
2.6871 2.65009 2.61727 6.28319 6.28319 6.28319 6.28319 3.14159 3.14159 
3.14159 3.14159 3.14159 6.1053 5.8988 5.67687 5.45995 5.26596 5.10322 
4.97131 4.86569 4.78095 0.177881 0.384387 0.606312 0.823235 1.01722 1.17997 
1.31187 1.4175 1.50223 6.18928 6.10703 6.03531 5.97283 5.91832 5.87061 
5.82869 5.79168 5.75886 0.0939024 0.176153 0.247873 0.310351 0.364864 0.412573 
0.454497 0.491504 0.524326 3.31947 3.52598 3.7479 3.96483 4.15881 4.32156 
4.45346 4.55909 4.64383 2.96371 2.75721 2.53528 2.31836 2.12437 1.96162 
1.82972 1.72409 1.63936 3.2355 3.31775 3.38947 3.45194 3.50646 3.55417 
3.59609 3.6331 3.66592 3.04769 2.96544 2.89372 2.83124 2.77673 2.72902 
2.6871 2.65009 2.61727 4.71239 4.71239 4.71239 4.71239 4.71239 4.71239 
4.71239 4.71239 4.71239 4.60879 4.49914 4.3857 4.27128 4.15881 4.05096 
3.94976 3.85646 3.77161 4.81599 4.92564 5.03907 5.1535 5.26596 5.37381 
5.47502 5.56831 5.65317 4.60879 4.49914 4.3857 4.27128 4.15881 4.05096 
3.94976 3.85646 3.77161 4.81599 4.92564 5.03907 5.1535 5.26596 5.37381 
5.47502 5.56831 5.65317 1.5708 1.5708 1.5708 1.5708 1.5708 1.5708 
1.5708 1.5708 1.5708 1.6744 1.78405 1.89748 2.01191 2.12437 2.23222 
2.33343 2.42672 2.51157 1.4672 1.35755 1.24411 1.12969 1.01722 0.909371 
0.808166 0.714871 0.63002 1.6744 1.78405 1.89748 2.01191 2.12437 2.23222 
2.33343 2.42672 2.51157 1.4672 1.35755 1.24411 1.12969 1.01722 0.909371 
0.808166 0.714871 0.63002 3.60077 3.49669 3.38395 3.26458 3.14159 3.01861 
2.89924 2.78649 2.68241 5.82401 5.92808 6.04083 6.1602 6.28319 0.122983 
0.242354 0.355101 0.459179 6.05603 5.78856 5.97021 5.51259 5.60297 5.78856 
5.26596 5.26596 5.26596 5.26596 5.06749 5.0121 4.91556 4.71239 4.15881 
4.91556 4.83537 4.71239 4.50922 4.15881 3.63622 4.80045 4.71239 4.58941 
4.41268 4.15881 3.82181 3.45456 4.71239 4.62433 4.50922 4.35729 4.15881 
3.91219 3.63622 3.36875 6.01742 5.94343 5.82633 5.88092 5.76745 5.62798 
5.8278 5.71897 5.58911 5.43724 5.78235 5.67854 5.55757 5.41926 5.26596 
5.74316 5.64441 5.5315 5.40467 5.26596 5.11955 5.70914 5.61528 5.50962 
5.3926 5.26596 5.13292 4.99789 5.67937 5.59016 5.49102 5.38246 5.26596 
5.14407 5.02016 4.89798 5.56831 5.47502 5.47502 5.37381 5.37381 5.37381 
5.26596 5.26596 5.26596 5.26596 5.1535 5.1535 5.1535 5.1535 5.1535 
5.03907 5.03907 5.03907 5.03907 5.03907 5.03907 4.92564 4.92564 4.92564 
4.92564 4.92564 4.92564 4.92564 4.81599 4.81599 4.81599 4.81599 4.81599 
4.81599 4.81599 4.81599 4.60879 4.60879 4.49914 4.60879 4.49914 4.3857 
4.60879 4.49914 4.3857 4.27128 4.60879 4.49914 4.3857 4.27128 4.15881 
4.60879 4.49914 4.3857 4.27128 4.15881 4.05096 4.60879 4.49914 4.3857 
4.27128 4.15881 4.05096 3.94976 4.60879 4.49914 4.3857 4.27128 4.15881 
4.05096 3.94976 3.85646 4.5268 4.40462 4.42689 4.28071 4.29185 4.30523 
4.15881 4.15881 4.15881 4.15881 4.04232 4.03217 4.02011 4.00552 3.98753 
3.93376 3.91515 3.89328 3.86721 3.83566 3.7968 3.83461 3.8095 3.78037 
3.74624 3.70581 3.65733 3.59845 3.7454 3.71564 3.68161 3.64243 3.59698 
3.54386 3.48135 3.40735 3.56428 3.45246 3.52338 3.33203 3.40312 3.47739 
3.20576 3.27463 3.34802 3.42551 3.07742 3.14159 3.21128 3.28647 3.36688 
2.95116 3.00855 3.0719 3.14159 3.21784 3.3006 2.83072 2.88006 2.93517 
2.99672 3.06535 3.14159 3.22575 2.7189 2.7598 2.8058 2.85768 2.9163 
2.98259 3.05743 3.14159 3.56428 3.52338 3.45246 3.47739 3.40312 3.33203 
3.42551 3.34802 3.27463 3.20576 3.36688 3.28647 3.21128 3.14159 3.07742 
3.3006 3.21784 3.14159 3.0719 3.00855 2.95116 3.22575 3.14159 3.06535 
2.99672 2.93517 2.88006 2.83072 3.14159 3.05743 2.98259 2.9163 2.85768 
2.8058 2.7598 2.7189 4.5268 4.42689 4.40462 4.30523 4.29185 4.28071 
4.15881 4.15881 4.15881 4.15881 3.98753 4.00552 4.02011 4.03217 4.04232 
3.7968 3.83566 3.86721 3.89328 3.91515 3.93376 3.59845 3.65733 3.70581 
3.74624 3.78037 3.8095 3.83461 3.40735 3.48135 3.54386 3.59698 3.64243 
3.68161 3.71564 3.7454 4.71239 4.80045 4.62433 4.91556 4.71239 4.50922 
5.06749 4.83537 4.58941 4.35729 5.26596 5.0121 4.71239 4.41268 4.15881 
5.51259 5.26596 4.91556 4.50922 4.15881 3.91219 5.78856 5.60297 5.26596 
4.71239 4.15881 3.82181 3.63622 6.05603 5.97021 5.78856 5.26596 4.15881 
3.63622 3.45456 3.36875 0.227158 0.494626 0.312971 0.770593 0.680215 0.494626 
1.01722 1.01722 1.01722 1.01722 1.2157 1.27109 1.36763 1.5708 2.12437 
1.36763 1.44781 1.5708 1.77397 2.12437 2.64697 1.48273 1.5708 1.69378 
1.8705 2.12437 2.46138 2.82862 1.5708 1.65886 1.77397 1.9259 2.12437 
2.371 2.64697 2.91443 1.75639 1.87857 1.8563 2.00248 1.99133 1.97796 
2.12437 2.12437 2.12437 2.12437 2.24087 2.25101 2.26308 2.27767 2.29565 
2.34943 2.36803 2.38991 2.41597 2.44752 2.48639 2.44857 2.47368 2.50281 
2.53694 2.57738 2.62586 2.68474 2.53778 2.56754 2.60157 2.64076 2.68621 
2.73933 2.80184 2.87583 1.6744 1.6744 1.78405 1.6744 1.78405 1.89748 
1.6744 1.78405 1.89748 2.01191 1.6744 1.78405 1.89748 2.01191 2.12437 
1.6744 1.78405 1.89748 2.01191 2.12437 2.23222 1.6744 1.78405 1.89748 
2.01191 2.12437 2.23222 2.33343 1.6744 1.78405 1.89748 2.01191 2.12437 
2.23222 2.33343 2.42672 1.4672 1.35755 1.4672 1.24411 1.35755 1.4672 
1.12969 1.24411 1.35755 1.4672 1.01722 1.12969 1.24411 1.35755 1.4672 
0.909371 1.01722 1.12969 1.24411 1.35755 1.4672 0.808166 0.909371 1.01722 
1.12969 1.24411 1.35755 1.4672 0.714871 0.808166 0.909371 1.01722 1.12969 
1.24411 1.35755 1.4672 0.603812 0.57405 0.693022 0.540021 0.667908 0.792164 
0.500837 0.638778 0.773562 0.900726 0.455383 0.604649 0.751687 0.890581 1.01722 
0.402264 0.564217 0.725619 0.878514 1.01722 1.13912 0.339753 0.515737 0.694072 
0.863926 1.01722 1.15026 1.26302 0.265762 0.456853 0.655207 0.845941 1.01722 
1.16363 1.28529 1.38521 0.227158 0.312971 0.494626 0.494626 0.680215 0.770593 
1.01722 1.01722 1.01722 1.01722 2.12437 1.5708 1.36763 1.27109 1.2157 
2.64697 2.12437 1.77397 1.5708 1.44781 1.36763 2.82862 2.46138 2.12437 
1.8705 1.69378 1.5708 1.48273 2.91443 2.64697 2.371 2.12437 1.9259 
1.77397 1.65886 1.5708 1.75639 1.8563 1.87857 1.97796 1.99133 2.00248 
2.12437 2.12437 2.12437 2.12437 2.29565 2.27767 2.26308 2.25101 2.24087 
2.48639 2.44752 2.41597 2.38991 2.36803 2.34943 2.68474 2.62586 2.57738 
2.53694 2.50281 2.47368 2.44857 2.87583 2.80184 2.73933 2.68621 2.64076 
2.60157 2.56754 2.53778 5.86049 5.90139 5.97231 5.94739 6.02165 6.09275 
5.99927 6.07676 6.15015 6.21902 6.0579 6.13831 6.2135 0 0.0641696 
6.12418 6.20694 6.28319 0.069689 0.13304 0.190437 6.19903 0 0.0762451 
0.144876 0.206423 0.261531 0.310872 0 0.0841597 0.159004 0.225289 0.283913 
0.335793 0.381792 0.422692 5.86049 5.97231 5.90139 6.09275 6.02165 5.94739 
6.21902 6.15015 6.07676 5.99927 0.0641696 0 6.2135 6.13831 6.0579 
0.190437 0.13304 0.069689 6.28319 6.20694 6.12418 0.310872 0.261531 0.206423 
0.144876 0.0762451 6.28319 6.19903 0.422692 0.381792 0.335793 0.283913 0.225289 
0.159004 0.0841597 0 5.67937 5.70914 5.59016 5.74316 5.61528 5.49102 
5.78235 5.64441 5.50962 5.38246 5.8278 5.67854 5.5315 5.3926 5.26596 
5.88092 5.71897 5.55757 5.40467 5.26596 5.14407 5.94343 5.76745 5.58911 
5.41926 5.26596 5.13292 5.02016 6.01742 5.82633 5.62798 5.43724 5.26596 
5.11955 4.99789 4.89798 1.38521 1.28529 1.26302 1.16363 1.15026 1.13912 
1.01722 1.01722 1.01722 1.01722 0.845941 0.863926 0.878514 0.890581 0.900726 
0.655207 0.694072 0.725619 0.751687 0.773562 0.792164 0.456853 0.515737 0.564217 
0.604649 0.638778 0.667908 0.693022 0.265762 0.339753 0.402264 0.455383 0.500837 
0.540021 0.57405 0.603812 
