# vtk DataFile Version 4.0
vtk output
ASCII
DATASET POLYDATA
POINTS 1002 float
-87.9045 -93.6607 69.8262 -83.8535 -101.579 69.7807 -82.0691 -90.8913 68.832 
-77.9711 -98.3568 69.1173 -84.0423 -96.9292 75.0013 -81.1033 -95.2174 74.558 
-85.9218 -97.1891 64.4117 -81.122 -95.1901 63.8656 -79.2852 -104.071 72.865 
-85.5236 -88.8284 72.7663 -79.6588 -103.878 65.8427 -87.8288 -88.8705 66.0506 
-87.8248 -94.4814 70.0123 -87.635 -95.342 70.0796 -87.2638 -96.1147 70.0804 
-86.6893 -96.784 70.1012 -86.0358 -97.5006 70.1337 -85.4704 -98.3173 70.0881 
-84.919 -99.0805 69.9254 -84.3603 -99.8175 69.7761 -84.0047 -100.689 69.7539 
-87.6796 -93.9149 70.432 -87.4125 -94.1775 70.9894 -87.1858 -94.5323 71.6528 
-86.9341 -94.9134 72.3778 -86.3542 -95.1343 72.8258 -85.4941 -95.2475 73.0653 
-84.896 -95.5588 73.517 -84.6854 -96.1232 74.1715 -84.4672 -96.647 74.7083 
-88.0281 -93.8612 69.2788 -87.9813 -94.0317 68.6224 -87.7831 -94.2416 67.9341 
-87.7757 -94.7456 67.3705 -88.0342 -95.5913 66.9414 -88.0272 -96.35 66.4343 
-87.5371 -96.6798 65.7755 -86.936 -96.768 65.1608 -86.4209 -96.9223 64.7202 
-87.8538 -93.0919 70.0184 -87.8652 -92.5495 70.3519 -87.8934 -91.9241 70.8451 
-87.8257 -91.224 71.2905 -87.6172 -90.6262 71.5751 -87.2458 -90.1471 71.8322 
-86.7631 -89.7284 72.0636 -86.3182 -89.4081 72.2123 -85.9324 -89.1275 72.4184 
-88.0732 -92.9819 69.2398 -88.4173 -92.317 68.7478 -89.0711 -91.7613 68.5313 
-89.7308 -91.3273 68.3624 -89.7961 -91.0491 68.0167 -89.2261 -90.7384 67.5921 
-88.6642 -90.0513 67.0766 -88.4476 -89.2332 66.4951 -88.268 -88.8271 66.1232 
-83.6987 -101.112 70.1792 -83.6594 -100.696 70.6454 -83.818 -100.421 71.3552 
-83.987 -100.089 72.1938 -83.9668 -99.5248 72.7649 -83.7906 -98.8293 73.0566 
-83.614 -98.1423 73.4297 -83.6124 -97.5874 73.9706 -83.8141 -97.2217 74.5238 
-84.0246 -101.402 69.2865 -84.135 -101.051 68.6974 -84.3129 -100.638 68.1295 
-84.5575 -100.21 67.5541 -84.7856 -99.7205 66.8732 -85.0427 -99.2042 66.1903 
-85.3173 -98.7013 65.6293 -85.5155 -98.1677 65.1516 -85.6934 -97.6324 64.7362 
-83.5055 -102.004 69.9969 -82.8482 -102.178 70.1371 -82.112 -102.381 70.3315 
-81.671 -102.92 70.7125 -81.4345 -103.6 71.2356 -81.145 -104.104 71.7624 
-80.832 -104.403 72.1961 -80.4285 -104.485 72.5003 -79.8478 -104.34 72.7065 
-83.8113 -102.282 69.4641 -83.4917 -102.732 69.0132 -82.8784 -102.95 68.5197 
-82.3237 -103.237 67.9853 -82.0085 -103.743 67.3489 -81.6532 -104.229 66.858 
-81.0944 -104.359 66.6782 -80.5202 -104.151 66.5209 -80.061 -103.937 66.2006 
-81.614 -91.4494 68.8779 -81.1552 -92.112 68.8491 -80.7184 -92.8605 68.8347 
-80.1392 -93.4991 68.9574 -79.4103 -94.0543 69.0992 -78.9091 -94.8833 69.1269 
-78.6784 -95.9015 69.127 -78.4059 -96.7377 69.13 -78.1118 -97.4804 69.1078 
-81.8488 -90.99 69.326 -81.6582 -91.1861 69.9479 -81.4296 -91.4441 70.7307 
-81.1822 -91.7337 71.5566 -81.1593 -92.218 72.2239 -81.3215 -92.9364 72.7038 
-81.3083 -93.5929 73.1932 -81.1273 -94.0829 73.7634 -81.0482 -94.606 74.2512 
-82.0321 -91.1845 68.3883 -81.9393 -91.497 67.8314 -81.8027 -91.878 67.2 
-81.7928 -92.4711 66.6719 -81.8481 -93.0842 66.1978 -81.6404 -93.4065 65.5353 
-81.2353 -93.6595 64.8285 -81.0139 -94.1428 64.3833 -81.0409 -94.7179 64.1281 
-82.3878 -90.4151 69.0845 -82.7648 -89.9848 69.489 -83.208 -89.5982 70.0176 
-83.6253 -89.1758 70.5092 -83.8605 -88.6915 71.0154 -83.9772 -88.2346 71.6971 
-84.2238 -87.9308 72.3726 -84.6666 -87.9245 72.7454 -85.148 -88.2722 72.8146 
-82.4944 -90.4943 68.4699 -82.9973 -90.0576 68.0696 -83.5695 -89.6317 67.6955 
-84.0783 -89.1853 67.2995 -84.4936 -88.6184 66.7717 -84.9472 -88.039 66.2786 
-85.5529 -87.8013 66.1062 -86.3586 -88.0281 66.1559 -87.2116 -88.4594 66.1461 
-78.1383 -98.2513 69.5745 -78.483 -98.0911 69.9477 -78.8989 -97.8253 70.3981 
-79.1999 -97.4683 71.0663 -79.4716 -97.0825 71.7685 -79.9257 -96.7029 72.3081 
-80.3918 -96.3417 72.849 -80.6441 -95.9973 73.5075 -80.8248 -95.6303 74.1177 
-77.9535 -97.9106 68.5219 -78.0239 -97.632 67.8471 -78.1906 -97.4939 67.1578 
-78.4427 -97.2597 66.5187 -78.7833 -96.8292 65.9448 -79.1569 -96.3687 65.3609 
-79.4965 -95.9709 64.7995 -79.9118 -95.6144 64.384 -80.4928 -95.347 64.0998 
-78.0055 -99.3206 69.4954 -78.1243 -100.224 69.8104 -78.3718 -100.886 69.9322 
-78.6976 -101.557 70.0005 -78.9004 -102.372 70.3096 -78.8827 -103.08 70.9452 
-78.7422 -103.633 71.7521 -78.6579 -104.066 72.4376 -78.8258 -104.219 72.7874 
-77.9363 -99.0761 68.801 -77.9524 -99.9348 68.4151 -77.958 -100.87 67.9339 
-77.9408 -101.704 67.3966 -77.9083 -102.389 66.9006 -77.9774 -103.169 66.4736 
-78.254 -103.953 66.1465 -78.6641 -104.269 65.9781 -79.1346 -104.113 65.9113 
-83.7862 -96.7873 75.3758 -83.5022 -96.5765 75.7418 -83.2814 -96.4026 76.1126 
-82.9265 -96.2279 76.4402 -82.2743 -95.8991 76.583 -81.7362 -95.54 76.3564 
-81.6429 -95.4061 75.8065 -81.637 -95.4101 75.2617 -81.4036 -95.3425 74.8904 
-83.3554 -97.2655 74.8817 -82.7321 -97.7979 74.8144 -82.42 -98.7333 74.9057 
-82.2044 -99.7595 74.9443 -81.7096 -100.562 74.7562 -81.099 -101.248 74.4495 
-80.6772 -101.892 74.0209 -80.2962 -102.535 73.4794 -79.788 -103.295 73.0674 
-84.4389 -96.3644 75.2642 -84.5959 -95.4045 75.3598 -84.7046 -94.247 75.2911 
-85.0141 -93.3543 75.1899 -85.3421 -92.6654 75.0971 -85.4732 -91.7368 74.8303 
-85.5466 -90.74 74.2784 -85.6171 -90.0419 73.632 -85.5969 -89.4732 73.1195 
-80.8573 -96.0321 74.6124 -80.3287 -96.6277 74.851 -79.7523 -97.192 75.1821 
-79.4685 -98.0724 75.2398 -79.4285 -99.2387 74.9066 -79.4065 -100.459 74.4705 
-79.3376 -101.575 74.0623 -79.2285 -102.495 73.6035 -79.173 -103.298 73.1664 
-81.3544 -94.3216 74.7953 -81.6285 -93.4189 75.0108 -82.0089 -92.6147 75.1723 
-82.4577 -91.835 75.2703 -82.9693 -91.224 75.1545 -83.6157 -90.7943 74.7837 
-84.2832 -90.1703 74.3787 -84.7854 -89.4364 73.9582 -85.1549 -88.9968 73.3877 
-85.6845 -97.0837 64.0997 -85.3266 -96.8898 63.7696 -84.9701 -96.6729 63.3646 
-84.6132 -96.4805 63.0288 -83.9994 -96.2554 62.9097 -83.0956 -95.9658 62.9042 
-82.3002 -95.6967 62.9506 -81.8304 -95.5066 63.1589 -81.4986 -95.3551 63.5142 
-85.3115 -97.8554 64.2936 -84.7988 -98.6755 64.1857 -84.2581 -99.44 64.2035 
-83.5321 -100.136 64.3722 -82.7143 -100.867 64.5979 -82.0321 -101.738 64.7069 
-81.4604 -102.696 64.6784 -80.8383 -103.379 64.8228 -80.1973 -103.658 65.3005 
-86.5563 -96.7181 64.2776 -87.1466 -96.2299 64.1886 -87.3975 -95.3232 64.2702 
-87.4669 -94.1414 64.4705 -87.6759 -93.2116 64.7163 -87.831 -92.3946 65.092 
-87.7723 -91.4039 65.5156 -87.7678 -90.4704 65.7864 -87.8641 -89.6709 65.928 
-80.786 -95.7355 63.732 -80.3698 -96.4928 63.6513 -79.9823 -97.5335 63.7362 
-79.8452 -98.6453 64.071 -79.7967 -99.6312 64.4135 -79.4767 -100.774 64.4578 
-79.1371 -102.16 64.4007 -79.194 -103.224 64.6365 -79.4753 -103.682 65.1965 
-81.7336 -94.796 63.8697 -82.4356 -94.2786 63.9971 -83.1894 -93.5928 64.2061 
-84.004 -92.8263 64.4041 -84.8644 -92.0048 64.5539 -85.5756 -91.2326 64.7813 
-86.0754 -90.715 65.2391 -86.6026 -90.271 65.7428 -87.2498 -89.6088 65.9934 
-79.2057 -104.915 72.6008 -79.2284 -105.524 72.0797 -79.2453 -105.95 71.1493 
-79.2469 -106.359 70.0593 -79.2532 -106.581 69.0267 -79.1593 -106.448 67.9888 
-79.0506 -105.989 67.1454 -79.1464 -105.216 66.7182 -79.4046 -104.39 66.3959 
-85.8243 -88.3066 72.227 -86.299 -87.8259 71.6584 -86.7019 -87.5458 70.9696 
-86.8969 -87.3568 70.1122 -87.1699 -87.1567 69.1677 -87.5946 -87.1207 68.2385 
-87.8621 -87.2414 67.3631 -87.9429 -87.4728 66.6464 -87.9501 -88.0201 66.2233 
-87.5121 -94.701 70.5225 -87.1719 -94.9832 71.0568 -87.2148 -95.4991 70.5186 
-86.9242 -95.4338 71.8157 -86.7795 -95.7557 71.0935 -86.716 -96.2084 70.5027 
-86.5457 -95.7895 72.5 -86.383 -96.116 71.8151 -86.1308 -96.366 71.0309 
-86.0711 -96.922 70.5344 -85.7795 -95.8736 72.8084 -85.8052 -96.3423 72.3142 
-85.5588 -96.598 71.5529 -85.457 -97.1193 70.9715 -85.524 -97.8289 70.6057 
-84.9835 -96.0356 73.1124 -85.0933 -96.5714 72.6654 -85.0299 -96.9826 72.0532 
-84.9682 -97.5086 71.4719 -85.0689 -98.2398 71.0656 -85.0839 -98.7757 70.5858 
-84.5417 -96.4894 73.6587 -84.5395 -97.0003 73.1449 -84.6223 -97.5653 72.6466 
-84.6802 -98.1449 72.1763 -84.7482 -98.8041 71.6833 -84.722 -99.2972 71.0846 
-84.5387 -99.5464 70.4107 -84.2378 -96.9583 74.1886 -84.0946 -97.3916 73.619 
-84.1798 -98.0049 73.1244 -84.3605 -98.6732 72.7842 -84.4665 -99.3192 72.3786 
-84.3997 -99.7993 71.6771 -84.1814 -100.044 70.8793 -84.0149 -100.296 70.2455 
-87.6612 -93.3666 70.7267 -87.7098 -92.8345 71.1828 -87.4452 -93.6524 71.4304 
-87.7474 -92.2257 71.7485 -87.5086 -93.1042 72.0248 -87.2033 -93.9342 72.1627 
-87.6679 -91.537 72.1918 -87.5373 -92.4959 72.6254 -87.1875 -93.3348 72.7241 
-86.7782 -94.2211 72.7462 -87.3665 -90.8585 72.4122 -87.3714 -91.7671 72.9588 
-87.0852 -92.7828 73.1797 -86.5525 -93.6879 73.1324 -85.986 -94.4985 73.0669 
-86.84 -90.3302 72.5011 -86.8813 -91.0301 73.0106 -86.7105 -92.1229 73.3738 
-86.2589 -93.2529 73.495 -85.6765 -94.0769 73.4749 -85.2108 -94.787 73.4591 
-86.3102 -90.0272 72.5727 -86.2854 -90.5638 73.0459 -86.147 -91.4925 73.5028 
-85.8605 -92.6954 73.8083 -85.4446 -93.6167 73.9702 -85.0859 -94.3707 74.0534 
-84.8918 -95.2506 74.1276 -85.9264 -89.7862 72.7661 -85.8799 -90.3141 73.264 
-85.7473 -91.0836 73.8284 -85.5747 -92.1835 74.2554 -85.3131 -93.0949 74.4907 
-85.0027 -93.8245 74.6443 -84.8502 -94.8033 74.7707 -84.7589 -95.8691 74.816 
-85.2811 -89.6323 73.8652 -84.8514 -90.0735 74.5623 -85.3028 -90.2818 74.533 
-84.2349 -90.7008 75.1072 -84.8539 -90.7084 75.3318 -85.3013 -91.1405 75.2525 
-83.5191 -91.1933 75.5589 -84.2 -91.1242 75.9014 -84.9089 -91.4514 76.0072 
-85.3124 -92.1264 75.693 -82.8502 -91.7156 75.8021 -83.3999 -91.5666 76.2425 
-84.1883 -91.7252 76.4463 -84.8675 -92.3701 76.2707 -85.0696 -92.9839 75.7705 
-82.2983 -92.5004 75.7424 -82.6308 -92.3557 76.2873 -83.2764 -92.3745 76.6054 
-84.094 -92.8631 76.5543 -84.5277 -93.512 76.215 -84.6037 -93.9228 75.762 
-81.9202 -93.4098 75.5022 -82.0982 -93.385 76.0635 -82.4568 -93.4047 76.5238 
-83.2404 -93.7323 76.6291 -83.9198 -94.3051 76.4329 -84.1464 -94.7694 76.1334 
[...]
POINT_DATA 1002
FIELD FieldData 2
Theta 1 1002 float
2.58802 2.58802 0.553574 0.553574 2.12437 1.01722 2.12437 1.01722 1.5708 
1.5708 1.5708 1.5708 2.68241 2.78649 2.89924 3.01861 3.14159 3.01861 
2.89924 2.78649 2.68241 2.61035 2.61791 2.60515 2.56958 2.51327 2.44184 
2.36202 2.27983 2.1997 2.61035 2.61791 2.60515 2.56958 2.51327 2.44184 
2.36202 2.27983 2.1997 2.50947 2.41899 2.31794 2.20864 2.0944 1.97902 
1.86631 1.75944 1.66056 2.50947 2.41899 2.31794 2.20864 2.0944 1.97902 
1.86631 1.75944 1.66056 2.61035 2.61791 2.60515 2.56958 2.51327 2.44184 
2.36202 2.27983 2.1997 2.61035 2.61791 2.60515 2.56958 2.51327 2.44184 
2.36202 2.27983 2.1997 2.50947 2.41899 2.31794 2.20864 2.0944 1.97902 
1.86631 1.75944 1.66056 2.50947 2.41899 2.31794 2.20864 2.0944 1.97902 
1.86631 1.75944 1.66056 0.459179 0.355101 0.242354 0.122983 0 0.122983 
0.242354 0.355101 0.459179 0.531246 0.523681 0.536438 0.57201 0.628319 0.699757 
0.779574 0.86176 0.941896 0.531246 0.523681 0.536438 0.57201 0.628319 0.699757 
0.779574 0.86176 0.941896 0.632123 0.7226 0.823657 0.932948 1.0472 1.16257 
1.27528 1.38216 1.48103 0.632123 0.7226 0.823657 0.932948 1.0472 1.16257 
1.27528 1.38216 1.48103 0.531246 0.523681 0.536438 0.57201 0.628319 0.699757 
0.779574 0.86176 0.941896 0.531246 0.523681 0.536438 0.57201 0.628319 0.699757 
0.779574 0.86176 0.941896 0.632123 0.7226 0.823657 0.932948 1.0472 1.16257 
1.27528 1.38216 1.48103 0.632123 0.7226 0.823657 0.932948 1.0472 1.16257 
1.27528 1.38216 1.48103 2.02998 1.9259 1.81315 1.69378 1.5708 1.44781 
1.32844 1.2157 1.11162 2.0928 2.05283 2.00422 1.94767 1.88496 1.81867 
1.75177 1.68695 1.62623 2.0928 2.05283 2.00422 1.94767 1.88496 1.81867 
1.75177 1.68695 1.62623 1.0488 1.08876 1.13737 1.19392 1.25664 1.32292 
1.38982 1.45464 1.51537 1.0488 1.08876 1.13737 1.19392 1.25664 1.32292 
1.38982 1.45464 1.51537 2.02998 1.9259 1.81315 1.69378 1.5708 1.44781 
1.32844 1.2157 1.11162 2.0928 2.05283 2.00422 1.94767 1.88496 1.81867 
1.75177 1.68695 1.62623 2.0928 2.05283 2.00422 1.94767 1.88496 1.81867 
1.75177 1.68695 1.62623 1.0488 1.08876 1.13737 1.19392 1.25664 1.32292 
1.38982 1.45464 1.51537 1.0488 1.08876 1.13737 1.19392 1.25664 1.32292 
1.38982 1.45464 1.51537 1.5708 1.5708 1.5708 1.5708 1.5708 1.5708 
1.5708 1.5708 1.5708 1.5708 1.5708 1.5708 1.5708 1.5708 1.5708 
1.5708 1.5708 1.5708 2.70908 2.71362 2.81592 2.68886 2.81002 2.92597 
2.6349 2.76254 2.89233 3.01997 2.55881 2.68262 2.80854 2.92834 3.01997 
2.47007 2.58462 2.70048 2.80854 2.89233 2.92597 2.37702 2.48017 2.58462 
2.68262 2.76254 2.81002 2.81592 2.28567 2.37702 2.47007 2.55881 2.6349 
2.68886 2.71362 2.70908 2.52097 2.4195 2.51718 2.30791 2.40503 2.49426 
2.18928 2.28408 2.3734 2.45144 2.06758 2.15805 2.24572 2.32523 2.39165 
1.94707 2.03138 2.11543 2.19453 2.26401 2.32035 1.83164 1.90847 1.98711 
2.06376 2.13422 2.1949 2.24359 1.72413 1.79288 1.86489 1.93728 2.00658 
2.06938 2.12312 2.16654 1.5708 1.50988 1.63171 1.44492 1.5708 1.69667 
1.37826 1.5059 1.63569 1.76333 1.31281 1.43962 1.5708 1.70197 1.82878 
1.25155 1.37501 1.50478 1.63681 1.76659 1.89004 1.19686 1.31493 1.44074 
1.5708 1.70086 1.82666 1.94473 1.15011 1.26149 1.38136 1.50697 1.63462 
1.76024 1.88011 1.99148 1.99148 1.88011 1.94473 1.76024 1.82666 1.89004 
1.63462 1.70086 1.76659 1.82878 1.50697 1.5708 1.63681 1.70197 1.76333 
1.38136 1.44074 1.50478 1.5708 1.63569 1.69667 1.26149 1.31493 1.37501 
1.43962 1.5059 1.5708 1.63171 1.15011 1.19686 1.25155 1.31281 1.37826 
1.44492 1.50988 1.5708 2.16654 2.12312 2.24359 2.06938 2.1949 2.32035 
2.00658 2.13422 2.26401 2.39165 1.93728 2.06376 2.19453 2.32523 2.45144 
1.86489 1.98711 2.11543 2.24572 2.3734 2.49426 1.79288 1.90847 2.03138 
2.15805 2.28408 2.40503 2.51718 1.72413 1.83164 1.94707 2.06758 2.18928 
2.30791 2.4195 2.52097 1.66533 1.66946 1.76911 1.67254 1.777 1.88041 
1.67418 1.78222 1.89102 1.99634 1.67418 1.78405 1.89674 2.00785 2.11299 
1.67254 1.78222 1.89674 2.01191 2.12307 2.22608 1.66946 1.777 1.89102 
2.00785 2.12307 2.23222 2.33166 1.66533 1.76911 1.88041 1.99634 2.11299 
2.22608 2.33166 2.42672 1.47626 1.37249 1.47213 1.26118 1.36459 1.46906 
1.14526 1.25058 1.35938 1.46741 1.0286 1.13374 1.24485 1.35755 1.46741 
0.915514 1.01852 1.12969 1.24485 1.35938 1.46906 0.809937 0.909371 1.01852 
1.13374 1.25058 1.36459 1.47213 0.714871 0.809937 0.915514 1.0286 1.14526 
1.26118 1.37249 1.47626 0.975055 0.898002 1.01847 0.821245 0.946693 1.07221 
0.749941 0.877585 1.00737 1.13501 0.690152 0.816367 0.94706 1.07784 1.20431 
0.647337 0.768195 0.895868 1.02616 1.15448 1.2767 0.624416 0.736561 0.857515 
0.983547 1.11021 1.23313 1.34871 0.620619 0.722093 0.833684 0.952313 1.07402 
1.19452 1.30996 1.41746 0.855925 0.764569 0.764569 0.671524 0.661425 0.671524 
0.582786 0.556971 0.556971 0.582786 0.506696 0.458968 0.441109 0.458968 0.506696 
0.45273 0.379052 0.333054 0.333054 0.379052 0.45273 0.427969 0.331576 0.249267 
0.21325 0.249267 0.331576 0.427969 0.432512 0.325669 0.215619 0.121622 0.121622 
0.215619 0.325669 0.432512 0.432512 0.427969 0.325669 0.45273 0.331576 0.215619 
0.506696 0.379052 0.249267 0.121622 0.582786 0.458968 0.333054 0.21325 0.121622 
0.671524 0.556971 0.441109 0.333054 0.249267 0.215619 0.764569 0.661425 0.556971 
0.458968 0.379052 0.331576 0.325669 0.855925 0.764569 0.671524 0.582786 0.506696 
0.45273 0.427969 0.432512 0.975055 1.01847 0.898002 1.07221 0.946693 0.821245 
1.13501 1.00737 0.877585 0.749941 1.20431 1.07784 0.94706 0.816367 0.690152 
1.2767 1.15448 1.02616 0.895868 0.768195 0.647337 1.34871 1.23313 1.11021 
0.983547 0.857515 0.736561 0.624416 1.41746 1.30996 1.19452 1.07402 0.952313 
0.833684 0.722093 0.620619 1.15011 1.26149 1.19686 1.38136 1.31493 1.25155 
1.50697 1.44074 1.37501 1.31281 1.63462 1.5708 1.50478 1.43962 1.37826 
1.76024 1.70086 1.63681 1.5708 1.5059 1.44492 1.88011 1.82666 1.76659 
1.70197 1.63569 1.5708 1.50988 1.99148 1.94473 1.89004 1.82878 1.76333 
1.69667 1.63171 1.5708 1.15011 1.19686 1.26149 1.25155 1.31493 1.38136 
1.31281 1.37501 1.44074 1.50697 1.37826 1.43962 1.50478 1.5708 1.63462 
1.44492 1.5059 1.5708 1.63681 1.70086 1.76024 1.50988 1.5708 1.63569 
1.70197 1.76659 1.82666 1.88011 1.5708 1.63171 1.69667 1.76333 1.82878 
1.89004 1.94473 1.99148 1.72413 1.83164 1.79288 1.94707 1.90847 1.86489 
2.06758 2.03138 1.98711 1.93728 2.18928 2.15805 2.11543 2.06376 2.00658 
2.30791 2.28408 2.24572 2.19453 2.13422 2.06938 2.4195 2.40503 2.3734 
2.32523 2.26401 2.1949 2.12312 2.52097 2.51718 2.49426 2.45144 2.39165 
2.32035 2.24359 2.16654 2.70908 2.81592 2.71362 2.92597 2.81002 2.68886 
3.01997 2.89233 2.76254 2.6349 3.01997 2.92834 2.80854 2.68262 2.55881 
2.92597 2.89233 2.80854 2.70048 2.58462 2.47007 2.81592 2.81002 2.76254 
2.68262 2.58462 2.48017 2.37702 2.70908 2.71362 2.68886 2.6349 2.55881 
2.47007 2.37702 2.28567 2.16654 2.24359 2.12312 2.32035 2.1949 2.06938 
2.39165 2.26401 2.13422 2.00658 2.45144 2.32523 2.19453 2.06376 1.93728 
2.49426 2.3734 2.24572 2.11543 1.98711 1.86489 2.51718 2.40503 2.28408 
2.15805 2.03138 1.90847 1.79288 2.52097 2.4195 2.30791 2.18928 2.06758 
1.94707 1.83164 1.72413 1.66533 1.76911 1.66946 1.88041 1.777 1.67254 
1.99634 1.89102 1.78222 1.67418 2.11299 2.00785 1.89674 1.78405 1.67418 
2.22608 2.12307 2.01191 1.89674 1.78222 1.67254 2.33166 2.23222 2.12307 
2.00785 1.89102 1.777 1.66946 2.42672 2.33166 2.22608 2.11299 1.99634 
1.88041 1.76911 1.66533 1.47626 1.47213 1.37249 1.46906 1.36459 1.26118 
1.46741 1.35938 1.25058 1.14526 1.46741 1.35755 1.24485 1.13374 1.0286 
1.46906 1.35938 1.24485 1.12969 1.01852 0.915514 1.47213 1.36459 1.25058 
1.13374 1.01852 0.909371 0.809937 1.47626 1.37249 1.26118 1.14526 1.0286 
0.915514 0.809937 0.714871 1.41746 1.30996 1.34871 1.19452 1.23313 1.2767 
1.07402 1.11021 1.15448 1.20431 0.952313 0.983547 1.02616 1.07784 1.13501 
0.833684 0.857515 0.895868 0.94706 1.00737 1.07221 0.722093 0.736561 0.768195 
0.816367 0.877585 0.946693 1.01847 0.620619 0.624416 0.647337 0.690152 0.749941 
0.821245 0.898002 0.975055 0.975055 0.898002 1.01847 0.821245 0.946693 1.07221 
0.749941 0.877585 1.00737 1.13501 0.690152 0.816367 0.94706 1.07784 1.20431 
0.647337 0.768195 0.895868 1.02616 1.15448 1.2767 0.624416 0.736561 0.857515 
0.983547 1.11021 1.23313 1.34871 0.620619 0.722093 0.833684 0.952313 1.07402 
1.19452 1.30996 1.41746 
Phi 1 1002 float
6.28319 3.14159 6.28319 3.14159 4.71239 4.71239 1.5708 1.5708 3.69517 
5.72961 2.58802 0.553574 6.28319 6.28319 6.28319 6.28319 3.14159 3.14159 
3.14159 3.14159 3.14159 6.1053 5.8988 5.67687 5.45995 5.26596 5.10322 
4.97131 4.86569 4.78095 0.177881 0.384387 0.606312 0.823235 1.01722 1.17997 
1.31187 1.4175 1.50223 6.18928 6.10703 6.03531 5.97283 5.91832 5.87061 
5.82869 5.79168 5.75886 0.0939024 0.176153 0.247873 0.310351 0.364864 0.412573 
0.454497 0.491504 0.524326 3.31947 3.52598 3.7479 3.96483 4.15881 4.32156 
4.45346 4.55909 4.64383 2.96371 2.75721 2.53528 2.31836 2.12437 1.96162 
1.82972 1.72409 1.63936 3.2355 3.31775 3.38947 3.45194 3.50646 3.55417 
3.59609 3.6331 3.66592 3.04769 2.96544 2.89372 2.83124 2.77673 2.72902 
2.6871 2.65009 2.61727 6.28319 6.28319 6.28319 6.28319 3.14159 3.14159 
3.14159 3.14159 3.14159 6.1053 5.8988 5.67687 5.45995 5.26596 5.10322 
4.97131 4.86569 4.78095 0.177881 0.384387 0.606312 0.823235 1.01722 1.17997 
1.31187 1.4175 1.50223 6.18928 6.10703 6.03531 5.97283 5.91832 5.87061 
5.82869 5.79168 5.75886 0.0939024 0.176153 0.247873 0.310351 0.364864 0.412573 
0.454497 0.491504 0.524326 3.31947 3.52598 3.7479 3.96483 4.15881 4.32156 
4.45346 4.55909 4.64383 2.96371 2.75721 2.53528 2.31836 2.12437 1.96162 
1.82972 1.72409 1.63936 3.2355 3.31775 3.38947 3.45194 3.50646 3.55417 
3.59609 3.6331 3.66592 3.04769 2.96544 2.89372 2.83124 2.77673 2.72902 
2.6871 2.65009 2.61727 4.71239 4.71239 4.71239 4.71239 4.71239 4.71239 
4.71239 4.71239 4.71239 4.60879 4.49914 4.3857 4.27128 4.15881 4.05096 
3.94976 3.85646 3.77161 4.81599 4.92564 5.03907 5.1535 5.26596 5.37381 
5.47502 5.56831 5.65317 4.60879 4.49914 4.3857 4.27128 4.15881 4.05096 
3.94976 3.85646 3.77161 4.81599 4.92564 5.03907 5.1535 5.26596 5.37381 
5.47502 5.56831 5.65317 1.5708 1.5708 1.5708 1.5708 1.5708 1.5708 
1.5708 1.5708 1.5708 1.6744 1.78405 1.89748 2.01191 2.12437 2.23222 
2.33343 2.42672 2.51157 1.4672 1.35755 1.24411 1.12969 1.01722 0.909371 
0.808166 0.714871 0.63002 1.6744 1.78405 1.89748 2.01191 2.12437 2.23222 
2.33343 2.42672 2.51157 1.4672 1.35755 1.24411 1.12969 1.01722 0.909371 
0.808166 0.714871 0.63002 3.60077 3.49669 3.38395 3.26458 3.14159 3.01861 
2.89924 2.78649 2.68241 5.82401 5.92808 6.04083 6.1602 6.28319 0.122983 
0.242354 0.355101 0.459179 6.05603 5.78856 5.97021 5.51259 5.60297 5.78856 
5.26596 5.26596 5.26596 5.26596 5.06749 5.0121 4.91556 4.71239 4.15881 
4.91556 4.83537 4.71239 4.50922 4.15881 3.63622 4.80045 4.71239 4.58941 
4.41268 4.15881 3.82181 3.45456 4.71239 4.62433 4.50922 4.35729 4.15881 
3.91219 3.63622 3.36875 6.01742 5.94343 5.82633 5.88092 5.76745 5.62798 
5.8278 5.71897 5.58911 5.43724 5.78235 5.67854 5.55757 5.41926 5.26596 
5.74316 5.64441 5.5315 5.40467 5.26596 5.11955 5.70914 5.61528 5.50962 
5.3926 5.26596 5.13292 4.99789 5.67937 5.59016 5.49102 5.38246 5.26596 
5.14407 5.02016 4.89798 5.56831 5.47502 5.47502 5.37381 5.37381 5.37381 
5.26596 5.26596 5.26596 5.26596 5.1535 5.1535 5.1535 5.1535 5.1535 
5.03907 5.03907 5.03907 5.03907 5.03907 5.03907 4.92564 4.92564 4.92564 
4.92564 4.92564 4.92564 4.92564 4.81599 4.81599 4.81599 4.81599 4.81599 
4.81599 4.81599 4.81599 4.60879 4.60879 4.49914 4.60879 4.49914 4.3857 
4.60879 4.49914 4.3857 4.27128 4.60879 4.49914 4.3857 4.27128 4.15881 
4.60879 4.49914 4.3857 4.27128 4.15881 4.05096 4.60879 4.49914 4.3857 
4.27128 4.15881 4.05096 3.94976 4.60879 4.49914 4.3857 4.27128 4.15881 
4.05096 3.94976 3.85646 4.5268 4.40462 4.42689 4.28071 4.29185 4.30523 
4.15881 4.15881 4.15881 4.15881 4.04232 4.03217 4.02011 4.00552 3.98753 
3.93376 3.91515 3.89328 3.86721 3.83566 3.7968 3.83461 3.8095 3.78037 
3.74624 3.70581 3.65733 3.59845 3.7454 3.71564 3.68161 3.64243 3.59698 
3.54386 3.48135 3.40735 3.56428 3.45246 3.52338 3.33203 3.40312 3.47739 
3.20576 3.27463 3.34802 3.42551 3.07742 3.14159 3.21128 3.28647 3.36688 
2.95116 3.00855 3.0719 3.14159 3.21784 3.3006 2.83072 2.88006 2.93517 
2.99672 3.06535 3.14159 3.22575 2.7189 2.7598 2.8058 2.85768 2.9163 
2.98259 3.05743 3.14159 3.56428 3.52338 3.45246 3.47739 3.40312 3.33203 
3.42551 3.34802 3.27463 3.20576 3.36688 3.28647 3.21128 3.14159 3.07742 
3.3006 3.21784 3.14159 3.0719 3.00855 2.95116 3.22575 3.14159 3.06535 
2.99672 2.93517 2.88006 2.83072 3.14159 3.05743 2.98259 2.9163 2.85768 
2.8058 2.7598 2.7189 4.5268 4.42689 4.40462 4.30523 4.29185 4.28071 
4.15881 4.15881 4.15881 4.15881 3.98753 4.00552 4.02011 4.03217 4.04232 
3.7968 3.83566 3.86721 3.89328 3.91515 3.93376 3.59845 3.65733 3.70581 
3.74624 3.78037 3.8095 3.83461 3.40735 3.48135 3.54386 3.59698 3.64243 
3.68161 3.71564 3.7454 4.71239 4.80045 4.62433 4.91556 4.71239 4.50922 
5.06749 4.83537 4.58941 4.35729 5.26596 5.0121 4.71239 4.41268 4.15881 
5.51259 5.26596 4.91556 4.50922 4.15881 3.91219 5.78856 5.60297 5.26596 
4.71239 4.15881 3.82181 3.63622 6.05603 5.97021 5.78856 5.26596 4.15881 
3.63622 3.45456 3.36875 0.227158 0.494626 0.312971 0.770593 0.680215 0.494626 
1.01722 1.01722 1.01722 1.01722 1.2157 1.27109 1.36763 1.5708 2.12437 
1.36763 1.44781 1.5708 1.77397 2.12437 2.64697 1.48273 1.5708 1.69378 
1.8705 2.12437 2.46138 2.82862 1.5708 1.65886 1.77397 1.9259 2.12437 
2.371 2.64697 2.91443 1.75639 1.87857 1.8563 2.00248 1.99133 1.97796 
2.12437 2.12437 2.12437 2.12437 2.24087 2.25101 2.26308 2.27767 2.29565 
2.34943 2.36803 2.38991 2.41597 2.44752 2.48639 2.44857 2.47368 2.50281 
2.53694 2.57738 2.62586 2.68474 2.53778 2.56754 2.60157 2.64076 2.68621 
2.73933 2.80184 2.87583 1.6744 1.6744 1.78405 1.6744 1.78405 1.89748 
1.6744 1.78405 1.89748 2.01191 1.6744 1.78405 1.89748 2.01191 2.12437 
1.6744 1.78405 1.89748 2.01191 2.12437 2.23222 1.6744 1.78405 1.89748 
2.01191 2.12437 2.23222 2.33343 1.6744 1.78405 1.89748 2.01191 2.12437 
2.23222 2.33343 2.42672 1.4672 1.35755 1.4672 1.24411 1.35755 1.4672 
1.12969 1.24411 1.35755 1.4672 1.01722 1.12969 1.24411 1.35755 1.4672 
0.909371 1.01722 1.12969 1.24411 1.35755 1.4672 0.808166 0.909371 1.01722 
1.12969 1.24411 1.35755 1.4672 0.714871 0.808166 0.909371 1.01722 1.12969 
1.24411 1.35755 1.4672 0.603812 0.57405 0.693022 0.540021 0.667908 0.792164 
0.500837 0.638778 0.773562 0.900726 0.455383 0.604649 0.751687 0.890581 1.01722 
0.402264 0.564217 0.725619 0.878514 1.01722 1.13912 0.339753 0.515737 0.694072 
0.863926 1.01722 1.15026 1.26302 0.265762 0.456853 0.655207 0.845941 1.01722 
1.16363 1.28529 1.38521 0.227158 0.312971 0.494626 0.494626 0.680215 0.770593 
1.01722 1.01722 1.01722 1.01722 2.12437 1.5708 1.36763 1.27109 1.2157 
2.64697 2.12437 1.77397 1.5708 1.44781 1.36763 2.82862 2.46138 2.12437 
1.8705 1.69378 1.5708 1.48273 2.91443 2.64697 2.371 2.12437 1.9259 
1.77397 1.65886 1.5708 1.75639 1.8563 1.87857 1.97796 1.99133 2.00248 
2.12437 2.12437 2.12437 2.12437 2.29565 2.27767 2.26308 2.25101 2.24087 
2.48639 2.44752 2.41597 2.38991 2.36803 2.34943 2.68474 2.62586 2.57738 
2.53694 2.50281 2.47368 2.44857 2.87583 2.80184 2.73933 2.68621 2.64076 
2.60157 2.56754 2.53778 5.86049 5.90139 5.97231 5.94739 6.02165 6.09275 
5.99927 6.07676 6.15015 6.21902 6.0579 6.13831 6.2135 0 0.0641696 
6.12418 6.20694 6.28319 0.069689 0.13304 0.190437 6.19903 0 0.0762451 
0.144876 0.206423 0.261531 0.310872 0 0.0841597 0.159004 0.225289 0.283913 
0.335793 0.381792 0.422692 5.86049 5.97231 5.90139 6.09275 6.02165 5.94739 
6.21902 6.15015 6.07676 5.99927 0.0641696 0 6.2135 6.13831 6.0579 
0.190437 0.13304 0.069689 6.28319 6.20694 6.12418 0.310872 0.261531 0.206423 
0.144876 0.0762451 6.28319 6.19903 0.422692 0.381792 0.335793 0.283913 0.225289 
0.159004 0.0841597 0 5.67937 5.70914 5.59016 5.74316 5.61528 5.49102 
5.78235 5.64441 5.50962 5.38246 5.8278 5.67854 5.5315 5.3926 5.26596 
5.88092 5.71897 5.55757 5.40467 5.26596 5.14407 5.94343 5.76745 5.58911 
5.41926 5.26596 5.13292 5.02016 6.01742 5.82633 5.62798 5.43724 5.26596 
5.11955 4.99789 4.89798 1.38521 1.28529 1.26302 1.16363 1.15026 1.13912 
1.01722 1.01722 1.01722 1.01722 0.845941 0.863926 0.878514 0.890581 0.900726 
0.655207 0.694072 0.725619 0.751687 0.773562 0.792164 0.456853 0.515737 0.564217 
0.604649 0.638778 0.667908 0.693022 0.265762 0.339753 0.402264 0.455383 0.500837 
0.540021 0.57405 0.603812 
