# vtk DataFile Version 4.0
vtk output
ASCII
DATASET POLYDATA
POINTS 1002 float
-86.9303 -93.6333 69.0857 -81.0877 -101.027 69.8993 -79.6791 -89.0526 67.9543 
-75.1856 -97.4154 69.1897 -81.955 -95.4571 74.4379 -78.713 -93.4481 73.8722 
-83.1509 -96.8448 64.1381 -78.2819 -94.3453 64.115 -76.424 -102.727 73.2348 
-84.5927 -87.4042 71.7422 -76.204 -103.347 66.4107 -86.3029 -87.2842 64.6335 
-86.425 -94.1838 69.0871 -85.8827 -94.7316 69.1721 -85.3926 -95.4974 69.3293 
-84.8164 -96.4047 69.4906 -84.0098 -97.1002 69.6253 -83.1037 -97.6908 69.7211 
-82.3282 -98.4986 69.7449 -81.7852 -99.4209 69.7433 -81.4199 -100.276 69.799 
-86.5686 -93.7029 69.5748 -86.0165 -93.754 70.0691 -85.3856 -93.8448 70.541 
-84.8534 -94.0065 71.1737 -84.451 -94.2356 72.0207 -84.0054 -94.4902 72.733 
-83.3798 -94.6539 73.1364 -82.7156 -94.7595 73.4766 -82.2356 -95.0145 73.9311 
-86.8357 -93.8652 68.5866 -86.6263 -94.0649 67.9666 -86.5831 -94.5078 67.2222 
-86.693 -95.2145 66.6373 -86.4167 -95.675 66.337 -85.7281 -95.7934 65.8791 
-85.1997 -96.0892 65.0996 -84.7696 -96.5629 64.4789 -84.0435 -96.8132 64.2396 
-87.1136 -92.9687 69.4234 -87.1598 -92.1537 69.7769 -87.1102 -91.3507 70.0183 
-86.8876 -90.5009 70.1516 -86.5062 -89.5513 70.3437 -86.1187 -88.7959 70.5884 
-85.6914 -88.3403 70.8205 -85.2237 -87.9503 71.1256 -84.8704 -87.5968 71.4796 
-87.3298 -93.1604 68.8256 -87.6004 -92.5895 68.5153 -87.7393 -91.8829 68.0161 
-87.8755 -91.0226 67.358 -87.9161 -90.0907 66.7677 -87.6356 -89.2272 66.2939 
-87.2933 -88.5352 65.7921 -87.1325 -87.9886 65.2596 -86.8659 -87.5469 64.8439 
-81.0443 -100.564 70.3009 -81.0931 -100.141 70.8116 -81.2679 -99.8093 71.4382 
-81.4084 -99.3731 72.0531 -81.4322 -98.6548 72.526 -81.4277 -97.7979 72.865 
-81.4628 -97.0656 73.2138 -81.5936 -96.516 73.6553 -81.8012 -96.0129 74.1007 
-81.309 -100.961 69.3932 -81.4303 -100.684 68.735 -81.5135 -100.201 68.0092 
-81.6646 -99.6756 67.3878 -81.8869 -99.1699 66.7921 -82.1203 -98.6386 66.0528 
-82.3686 -98.1562 65.3924 -82.6379 -97.7375 64.9824 -82.9013 -97.293 64.6049 
-80.606 -101.421 70.2185 -79.9744 -101.768 70.515 -79.4125 -102.156 70.9022 
-79.0746 -102.663 71.4655 -78.7107 -103.104 71.9878 -78.1147 -103.277 72.264 
-77.5542 -103.339 72.4816 -77.1833 -103.363 72.8023 -76.8232 -103.161 73.0933 
-80.8235 -101.683 69.6824 -80.3228 -102.129 69.3007 -79.5953 -102.368 68.7685 
-78.9301 -102.771 68.2467 -78.5461 -103.45 67.7313 -78.245 -103.951 67.1782 
-77.7463 -104.044 66.8131 -77.115 -103.917 66.7097 -76.58 -103.679 66.6198 
-79.28 -89.7321 68.0998 -78.7676 -90.467 68.2651 -78.0285 -91.1113 68.4009 
-77.2033 -91.6495 68.5306 -76.6461 -92.3867 68.6176 -76.4444 -93.5473 68.6023 
-76.2326 -94.7685 68.6283 -75.7974 -95.6997 68.8241 -75.3775 -96.5148 69.0617 
-79.5469 -89.2498 68.6182 -79.3281 -89.3879 69.2791 -79.1662 -89.6787 70.0082 
-79.0951 -90.2053 70.7491 -78.9492 -90.7421 71.3904 -78.7522 -91.2066 72.0339 
-78.6963 -91.7627 72.6654 -78.7524 -92.4132 73.1168 -78.7684 -92.9974 73.4676 
-79.4894 -89.1969 67.3112 -79.2869 -89.4622 66.6826 -79.1463 -89.9824 66.2408 
-79.0327 -90.6053 65.8798 -78.7597 -91.0408 65.3278 -78.4156 -91.4834 64.7546 
-78.3311 -92.2818 64.524 -78.4349 -93.2099 64.5127 -78.4232 -93.8943 64.389 
-80.0998 -88.6209 68.2951 -80.6821 -88.2576 68.6987 -81.3078 -87.9067 69.0936 
-81.7612 -87.4218 69.4736 -82.019 -86.8042 69.9763 -82.3274 -86.4183 70.5504 
-82.8995 -86.5328 70.9357 -83.6309 -86.8945 71.1606 -84.2365 -87.1796 71.4329 
-80.0138 -88.5082 67.4867 -80.5589 -88.0902 67.1105 -81.3992 -87.9228 66.8247 
-82.2897 -87.7536 66.5466 -82.99 -87.4273 66.2654 -83.6279 -87.2442 65.9917 
-84.3175 -87.2183 65.6869 -85.0066 -87.0981 65.3283 -85.6855 -87.0337 64.9441 
-75.4356 -97.1265 69.5727 -75.8282 -96.8649 69.9599 -76.0769 -96.3851 70.5341 
-76.093 -95.6748 71.2872 -76.328 -95.1447 71.9138 -76.9747 -94.9271 72.3112 
-77.5797 -94.6602 72.7032 -77.9428 -94.2219 73.1557 -78.2887 -93.7948 73.554 
-75.1288 -97.1809 68.6361 -75.124 -96.8935 67.934 -75.223 -96.5387 67.2254 
-75.5325 -96.2305 66.5667 -75.899 -95.9545 65.9056 -76.1184 -95.5594 65.2655 
-76.4262 -95.1721 64.7472 -77.0205 -94.9397 64.4284 -77.6954 -94.6986 64.2633 
-75.208 -98.1738 69.4762 -75.2491 -98.9481 69.7594 -75.2541 -99.6225 70.1937 
-75.1133 -100.184 70.8427 -74.9276 -100.842 71.5807 -75.0258 -101.611 72.1403 
-75.3495 -102.121 72.3731 -75.6302 -102.321 72.5113 -75.946 -102.513 72.8248 
-75.1148 -98.3364 68.914 -74.9622 -99.3752 68.5888 -74.3394 -100.24 68.3044 
-73.4812 -100.926 67.9677 -73.2014 -101.626 67.5115 -73.7066 -102.222 67.1558 
-74.4819 -102.604 66.9695 -75.171 -102.937 66.7663 -75.732 -103.23 66.5437 
-81.8577 -95.3884 74.9119 -81.6829 -95.2409 75.4078 -81.397 -94.9763 75.9567 
-80.9662 -94.6381 76.3749 -80.3589 -94.2454 76.3124 -79.7548 -93.8503 75.8376 
-79.3937 -93.6033 75.3387 -79.1879 -93.5227 74.8787 -78.9571 -93.4904 74.3662 
-81.5977 -96.2829 74.7232 -80.9719 -96.9041 74.8267 -80.1872 -97.4239 74.791 
-79.6015 -98.2777 74.8481 -79.1801 -99.3961 74.9414 -78.6302 -100.351 74.8724 
-78.0346 -101.176 74.7453 -77.5061 -101.941 74.5138 -76.9605 -102.452 73.9594 
-82.1569 -94.5333 74.3693 -82.4954 -93.7346 74.3473 -83.1903 -93.1491 74.5058 
-83.9078 -92.3996 74.5987 -84.1316 -91.3942 74.1689 -84.108 -90.5095 73.4195 
-84.3083 -89.6499 72.9741 -84.5833 -88.6389 72.773 -84.6647 -87.8286 72.3691 
-78.3564 -94.0897 74.1265 -78.0797 -94.9619 74.2778 -77.8372 -96.0571 74.3043 
-77.3765 -97.0225 74.4099 -76.8261 -97.8574 74.6228 -76.544 -99.0271 74.7056 
-76.4397 -100.414 74.5834 -76.3526 -101.462 74.2764 -76.3526 -102.129 73.7788 
-79.1857 -92.8102 73.9118 -79.5773 -91.995 74.0027 -80.0274 -91.1785 74.0369 
-80.7248 -90.5813 73.8929 -81.4226 -89.974 73.6968 -81.9807 -89.1351 73.5195 
-82.7279 -88.3522 73.2324 -83.6198 -87.8472 72.8165 -84.2619 -87.5525 72.3155 
-82.8079 -96.6127 63.7616 -82.6054 -96.4905 63.4511 -82.3146 -96.3389 63.2246 
-81.5664 -95.9129 62.9723 -80.7264 -95.4465 62.8395 -80.2999 -95.2175 63.036 
-79.8838 -94.9505 63.3322 -79.189 -94.5682 63.5435 -78.5996 -94.3663 63.8023 
-82.2367 -97.2538 64.2439 -81.5824 -98.0314 64.1982 -80.9268 -98.9654 64.271 
-80.0413 -99.7553 64.5711 -79.3196 -100.631 64.6814 -78.8144 -101.691 64.5735 
-78.0482 -102.451 64.7707 -77.1793 -102.782 65.3399 -76.6008 -103.029 65.9466 
-83.9485 -96.419 63.7373 -84.564 -95.8408 63.575 -84.8787 -94.9382 63.7941 
-85.2117 -93.8176 64.0534 -85.6778 -92.7 64.1498 -86.046 -91.6005 64.3231 
-86.3139 -90.3879 64.4617 -86.4992 -89.096 64.3456 -86.4837 -87.9973 64.3029 
-77.7841 -95.0908 63.9401 -77.2372 -96.0708 63.8197 -76.6653 -97.1743 63.7518 
-76.2264 -98.292 63.8097 -75.9476 -99.4606 64.0866 -75.7073 -100.684 64.3918 
-75.6273 -101.75 64.6094 -75.8215 -102.441 65.0447 -76.0739 -102.871 65.7698 
-78.9874 -93.7493 64.1137 -79.8294 -93.1548 64.044 -80.7083 -92.4043 63.8868 
-81.482 -91.559 63.8043 -82.2696 -90.931 64.066 -83.2266 -90.3431 64.5191 
-84.1752 -89.3561 64.6402 -84.9765 -88.2569 64.4231 -85.6917 -87.5714 64.3519 
-76.1412 -103.425 72.6572 -75.8392 -104.472 72.4474 -75.581 -105.491 72.1756 
-75.4657 -105.926 71.2671 -75.4672 -105.892 69.9072 -75.4071 -105.882 68.5737 
-75.3567 -105.715 67.5355 -75.5577 -105.023 67.012 -75.925 -104.077 66.7939 
-84.7129 -87.1437 70.9672 -84.959 -86.7266 70.2755 -85.2664 -86.2562 69.6364 
-85.546 -86.0187 68.8817 -85.9092 -85.8507 67.9571 -86.3521 -85.5591 67.0554 
-86.6159 -85.6071 66.4408 -86.6119 -86.1843 65.9635 -86.4769 -86.8184 65.3112 
-86.0059 -94.2533 69.6002 -85.3497 -94.2427 70.06 -85.4087 -94.8416 69.7027 
-84.736 -94.3675 70.5929 -84.7526 -94.9306 70.1853 -84.8447 -95.723 69.8774 
-84.3838 -94.7435 71.4217 -84.324 -95.2959 70.8796 -84.2721 -95.9811 70.4713 
-84.2012 -96.6516 70.0682 -84.0477 -95.1442 72.301 -84.0327 -95.7794 71.7569 
-83.8886 -96.3546 71.2365 -83.6415 -96.8719 70.7252 -83.3917 -97.3089 70.2179 
-83.4341 -95.3354 72.8225 -83.4187 -95.9707 72.3737 -83.296 -96.5065 71.8656 
-83.0689 -97.0253 71.3533 -82.8104 -97.5302 70.8223 -82.5653 -98.0138 70.283 
-82.6986 -95.4143 73.1394 -82.6058 -95.995 72.7152 -82.4615 -96.4893 72.2433 
-82.3353 -97.0986 71.7999 -82.2407 -97.8178 71.3656 -82.0964 -98.427 70.8521 
-81.9169 -98.9303 70.2777 -82.1434 -95.6273 73.5705 -81.9926 -96.1814 73.1295 
-81.8466 -96.7008 72.6802 -81.7631 -97.376 72.2846 -81.7661 -98.2261 71.9121 
-81.7345 -98.9412 71.4492 -81.5834 -99.3957 70.8583 -81.4514 -99.8078 70.2725 
-86.6996 -93.0413 69.9533 -86.7031 -92.2732 70.2569 -86.1512 -93.2187 70.4608 
-86.4546 -91.4633 70.3545 -86.1148 -92.5323 70.7084 -85.561 -93.4291 70.9824 
-86.0054 -90.5993 70.4536 -85.7618 -91.6802 70.8277 -85.536 -92.757 71.3161 
-85.0006 -93.5467 71.7011 -85.7299 -89.8294 70.772 -85.4542 -90.8629 71.1445 
-85.327 -91.9011 71.665 -85.0014 -92.8804 72.1274 -84.4739 -93.6852 72.4872 
-85.6104 -89.2629 71.1863 -85.4638 -90.2605 71.66 -85.2734 -91.1635 72.1942 
-84.9483 -92.157 72.5898 -84.4337 -93.13 72.8517 -83.8848 -93.9156 73.0506 
-85.311 -88.7196 71.6171 -85.3393 -89.7135 72.1123 -85.2 -90.5963 72.6483 
-84.8966 -91.5049 73.1018 -84.4118 -92.5877 73.3369 -83.7816 -93.4424 73.4203 
-83.1938 -94.0628 73.4609 -84.9413 -88.1804 72.0527 -84.9361 -89.1186 72.4762 
-84.784 -90.0847 72.8523 -84.6042 -90.9423 73.3837 -84.3666 -91.99 73.8725 
-83.815 -92.9768 74.0076 -83.0946 -93.5876 73.9256 -82.5688 -94.1935 73.8939 
-84.2825 -88.1382 72.8868 -83.5665 -88.6639 73.2516 -84.023 -89.1331 73.12 
-82.6963 -89.2961 73.6224 -83.2938 -89.6807 73.522 -83.6755 -90.1019 73.4049 
-81.9626 -89.9585 74.0206 -82.5546 -90.088 74.1898 -83.1394 -90.4169 74.2192 
-83.6895 -90.8682 74.2272 -81.25 -90.58 74.3416 -81.7938 -90.5175 74.7895 
-82.494 -90.6401 75.0711 -83.2658 -91.115 75.1338 -83.7738 -91.7764 74.9854 
-80.5016 -91.2203 74.5284 -80.9837 -91.1874 75.0437 -81.5978 -91.1841 75.4069 
-82.3961 -91.4988 75.5103 -83.0244 -92.1022 75.3608 -83.2248 -92.7005 75.0082 
-79.9383 -92.0156 74.5294 -80.2997 -92.0324 75.0614 -80.7361 -92.0712 75.4361 
-81.356 -92.2856 75.5892 -81.9559 -92.6985 75.4826 -82.2813 -93.1305 75.1725 
[...]
POINT_DATA 1002
FIELD FieldData 2
Theta 1 1002 float
2.58802 2.58802 0.553574 0.553574 2.12437 1.01722 2.12437 1.01722 1.5708 
1.5708 1.5708 1.5708 2.68241 2.78649 2.89924 3.01861 3.14159 3.01861 
2.89924 2.78649 2.68241 2.61035 2.61791 2.60515 2.56958 2.51327 2.44184 
2.36202 2.27983 2.1997 2.61035 2.61791 2.60515 2.56958 2.51327 2.44184 
2.36202 2.27983 2.1997 2.50947 2.41899 2.31794 2.20864 2.0944 1.97902 
1.86631 1.75944 1.66056 2.50947 2.41899 2.31794 2.20864 2.0944 1.97902 
1.86631 1.75944 1.66056 2.61035 2.61791 2.60515 2.56958 2.51327 2.44184 
2.36202 2.27983 2.1997 2.61035 2.61791 2.60515 2.56958 2.51327 2.44184 
2.36202 2.27983 2.1997 2.50947 2.41899 2.31794 2.20864 2.0944 1.97902 
1.86631 1.75944 1.66056 2.50947 2.41899 2.31794 2.20864 2.0944 1.97902 
1.86631 1.75944 1.66056 0.459179 0.355101 0.242354 0.122983 0 0.122983 
0.242354 0.355101 0.459179 0.531246 0.523681 0.536438 0.57201 0.628319 0.699757 
0.779574 0.86176 0.941896 0.531246 0.523681 0.536438 0.57201 0.628319 0.699757 
0.779574 0.86176 0.941896 0.632123 0.7226 0.823657 0.932948 1.0472 1.16257 
1.27528 1.38216 1.48103 0.632123 0.7226 0.823657 0.932948 1.0472 1.16257 
1.27528 1.38216 1.48103 0.531246 0.523681 0.536438 0.57201 0.628319 0.699757 
0.779574 0.86176 0.941896 0.531246 0.523681 0.536438 0.57201 0.628319 0.699757 
0.779574 0.86176 0.941896 0.632123 0.7226 0.823657 0.932948 1.0472 1.16257 
1.27528 1.38216 1.48103 0.632123 0.7226 0.823657 0.932948 1.0472 1.16257 
1.27528 1.38216 1.48103 2.02998 1.9259 1.81315 1.69378 1.5708 1.44781 
1.32844 1.2157 1.11162 2.0928 2.05283 2.00422 1.94767 1.88496 1.81867 
1.75177 1.68695 1.62623 2.0928 2.05283 2.00422 1.94767 1.88496 1.81867 
1.75177 1.68695 1.62623 1.0488 1.08876 1.13737 1.19392 1.25664 1.32292 
1.38982 1.45464 1.51537 1.0488 1.08876 1.13737 1.19392 1.25664 1.32292 
1.38982 1.45464 1.51537 2.02998 1.9259 1.81315 1.69378 1.5708 1.44781 
1.32844 1.2157 1.11162 2.0928 2.05283 2.00422 1.94767 1.88496 1.81867 
1.75177 1.68695 1.62623 2.0928 2.05283 2.00422 1.94767 1.88496 1.81867 
1.75177 1.68695 1.62623 1.0488 1.08876 1.13737 1.19392 1.25664 1.32292 
1.38982 1.45464 1.51537 1.0488 1.08876 1.13737 1.19392 1.25664 1.32292 
1.38982 1.45464 1.51537 1.5708 1.5708 1.5708 1.5708 1.5708 1.5708 
1.5708 1.5708 1.5708 1.5708 1.5708 1.5708 1.5708 1.5708 1.5708 
1.5708 1.5708 1.5708 2.70908 2.71362 2.81592 2.68886 2.81002 2.92597 
2.6349 2.76254 2.89233 3.01997 2.55881 2.68262 2.80854 2.92834 3.01997 
2.47007 2.58462 2.70048 2.80854 2.89233 2.92597 2.37702 2.48017 2.58462 
2.68262 2.76254 2.81002 2.81592 2.28567 2.37702 2.47007 2.55881 2.6349 
2.68886 2.71362 2.70908 2.52097 2.4195 2.51718 2.30791 2.40503 2.49426 
2.18928 2.28408 2.3734 2.45144 2.06758 2.15805 2.24572 2.32523 2.39165 
1.94707 2.03138 2.11543 2.19453 2.26401 2.32035 1.83164 1.90847 1.98711 
2.06376 2.13422 2.1949 2.24359 1.72413 1.79288 1.86489 1.93728 2.00658 
2.06938 2.12312 2.16654 1.5708 1.50988 1.63171 1.44492 1.5708 1.69667 
1.37826 1.5059 1.63569 1.76333 1.31281 1.43962 1.5708 1.70197 1.82878 
1.25155 1.37501 1.50478 1.63681 1.76659 1.89004 1.19686 1.31493 1.44074 
1.5708 1.70086 1.82666 1.94473 1.15011 1.26149 1.38136 1.50697 1.63462 
1.76024 1.88011 1.99148 1.99148 1.88011 1.94473 1.76024 1.82666 1.89004 
1.63462 1.70086 1.76659 1.82878 1.50697 1.5708 1.63681 1.70197 1.76333 
1.38136 1.44074 1.50478 1.5708 1.63569 1.69667 1.26149 1.31493 1.37501 
1.43962 1.5059 1.5708 1.63171 1.15011 1.19686 1.25155 1.31281 1.37826 
1.44492 1.50988 1.5708 2.16654 2.12312 2.24359 2.06938 2.1949 2.32035 
2.00658 2.13422 2.26401 2.39165 1.93728 2.06376 2.19453 2.32523 2.45144 
1.86489 1.98711 2.11543 2.24572 2.3734 2.49426 1.79288 1.90847 2.03138 
2.15805 2.28408 2.40503 2.51718 1.72413 1.83164 1.94707 2.06758 2.18928 
2.30791 2.4195 2.52097 1.66533 1.66946 1.76911 1.67254 1.777 1.88041 
1.67418 1.78222 1.89102 1.99634 1.67418 1.78405 1.89674 2.00785 2.11299 
1.67254 1.78222 1.89674 2.01191 2.12307 2.22608 1.66946 1.777 1.89102 
2.00785 2.12307 2.23222 2.33166 1.66533 1.76911 1.88041 1.99634 2.11299 
2.22608 2.33166 2.42672 1.47626 1.37249 1.47213 1.26118 1.36459 1.46906 
1.14526 1.25058 1.35938 1.46741 1.0286 1.13374 1.24485 1.35755 1.46741 
0.915514 1.01852 1.12969 1.24485 1.35938 1.46906 0.809937 0.909371 1.01852 
1.13374 1.25058 1.36459 1.47213 0.714871 0.809937 0.915514 1.0286 1.14526 
1.26118 1.37249 1.47626 0.975055 0.898002 1.01847 0.821245 0.946693 1.07221 
0.749941 0.877585 1.00737 1.13501 0.690152 0.816367 0.94706 1.07784 1.20431 
0.647337 0.768195 0.895868 1.02616 1.15448 1.2767 0.624416 0.736561 0.857515 
0.983547 1.11021 1.23313 1.34871 0.620619 0.722093 0.833684 0.952313 1.07402 
1.19452 1.30996 1.41746 0.855925 0.764569 0.764569 0.671524 0.661425 0.671524 
0.582786 0.556971 0.556971 0.582786 0.506696 0.458968 0.441109 0.458968 0.506696 
0.45273 0.379052 0.333054 0.333054 0.379052 0.45273 0.427969 0.331576 0.249267 
0.21325 0.249267 0.331576 0.427969 0.432512 0.325669 0.215619 0.121622 0.121622 
0.215619 0.325669 0.432512 0.432512 0.427969 0.325669 0.45273 0.331576 0.215619 
0.506696 0.379052 0.249267 0.121622 0.582786 0.458968 0.333054 0.21325 0.121622 
0.671524 0.556971 0.441109 0.333054 0.249267 0.215619 0.764569 0.661425 0.556971 
0.458968 0.379052 0.331576 0.325669 0.855925 0.764569 0.671524 0.582786 0.506696 
0.45273 0.427969 0.432512 0.975055 1.01847 0.898002 1.07221 0.946693 0.821245 
1.13501 1.00737 0.877585 0.749941 1.20431 1.07784 0.94706 0.816367 0.690152 
1.2767 1.15448 1.02616 0.895868 0.768195 0.647337 1.34871 1.23313 1.11021 
0.983547 0.857515 0.736561 0.624416 1.41746 1.30996 1.19452 1.07402 0.952313 
0.833684 0.722093 0.620619 1.15011 1.26149 1.19686 1.38136 1.31493 1.25155 
1.50697 1.44074 1.37501 1.31281 1.63462 1.5708 1.50478 1.43962 1.37826 
1.76024 1.70086 1.63681 1.5708 1.5059 1.44492 1.88011 1.82666 1.76659 
1.70197 1.63569 1.5708 1.50988 1.99148 1.94473 1.89004 1.82878 1.76333 
1.69667 1.63171 1.5708 1.15011 1.19686 1.26149 1.25155 1.31493 1.38136 
1.31281 1.37501 1.44074 1.50697 1.37826 1.43962 1.50478 1.5708 1.63462 
1.44492 1.5059 1.5708 1.63681 1.70086 1.76024 1.50988 1.5708 1.63569 
1.70197 1.76659 1.82666 1.88011 1.5708 1.63171 1.69667 1.76333 1.82878 
1.89004 1.94473 1.99148 1.72413 1.83164 1.79288 1.94707 1.90847 1.86489 
2.06758 2.03138 1.98711 1.93728 2.18928 2.15805 2.11543 2.06376 2.00658 
2.30791 2.28408 2.24572 2.19453 2.13422 2.06938 2.4195 2.40503 2.3734 
2.32523 2.26401 2.1949 2.12312 2.52097 2.51718 2.49426 2.45144 2.39165 
2.32035 2.24359 2.16654 2.70908 2.81592 2.71362 2.92597 2.81002 2.68886 
3.01997 2.89233 2.76254 2.6349 3.01997 2.92834 2.80854 2.68262 2.55881 
2.92597 2.89233 2.80854 2.70048 2.58462 2.47007 2.81592 2.81002 2.76254 
2.68262 2.58462 2.48017 2.37702 2.70908 2.71362 2.68886 2.6349 2.55881 
2.47007 2.37702 2.28567 2.16654 2.24359 2.12312 2.32035 2.1949 2.06938 
2.39165 2.26401 2.13422 2.00658 2.45144 2.32523 2.19453 2.06376 1.93728 
2.49426 2.3734 2.24572 2.11543 1.98711 1.86489 2.51718 2.40503 2.28408 
2.15805 2.03138 1.90847 1.79288 2.52097 2.4195 2.30791 2.18928 2.06758 
1.94707 1.83164 1.72413 1.66533 1.76911 1.66946 1.88041 1.777 1.67254 
1.99634 1.89102 1.78222 1.67418 2.11299 2.00785 1.89674 1.78405 1.67418 
2.22608 2.12307 2.01191 1.89674 1.78222 1.67254 2.33166 2.23222 2.12307 
2.00785 1.89102 1.777 1.66946 2.42672 2.33166 2.22608 2.11299 1.99634 
1.88041 1.76911 1.66533 1.47626 1.47213 1.37249 1.46906 1.36459 1.26118 
1.46741 1.35938 1.25058 1.14526 1.46741 1.35755 1.24485 1.13374 1.0286 
1.46906 1.35938 1.24485 1.12969 1.01852 0.915514 1.47213 1.36459 1.25058 
1.13374 1.01852 0.909371 0.809937 1.47626 1.37249 1.26118 1.14526 1.0286 
0.915514 0.809937 0.714871 1.41746 1.30996 1.34871 1.19452 1.23313 1.2767 
1.07402 1.11021 1.15448 1.20431 0.952313 0.983547 1.02616 1.07784 1.13501 
0.833684 0.857515 0.895868 0.94706 1.00737 1.07221 0.722093 0.736561 0.768195 
0.816367 0.877585 0.946693 1.01847 0.620619 0.624416 0.647337 0.690152 0.749941 
0.821245 0.898002 0.975055 0.975055 0.898002 1.01847 0.821245 0.946693 1.07221 
0.749941 0.877585 1.00737 1.13501 0.690152 0.816367 0.94706 1.07784 1.20431 
0.647337 0.768195 0.895868 1.02616 1.15448 1.2767 0.624416 0.736561 0.857515 
0.983547 1.11021 1.23313 1.34871 0.620619 0.722093 0.833684 0.952313 1.07402 
1.19452 1.30996 1.41746 
Phi 1 1002 float
6.28319 3.14159 6.28319 3.14159 4.71239 4.71239 1.5708 1.5708 3.69517 
5.72961 2.58802 0.553574 6.28319 6.28319 6.28319 6.28319 3.14159 3.14159 
3.14159 3.14159 3.14159 6.1053 5.8988 5.67687 5.45995 5.26596 5.10322 
4.97131 4.86569 4.78095 0.177881 0.384387 0.606312 0.823235 1.01722 1.17997 
1.31187 1.4175 1.50223 6.18928 6.10703 6.03531 5.97283 5.91832 5.87061 
5.82869 5.79168 5.75886 0.0939024 0.176153 0.247873 0.310351 0.364864 0.412573 
0.454497 0.491504 0.524326 3.31947 3.52598 3.7479 3.96483 4.15881 4.32156 
4.45346 4.55909 4.64383 2.96371 2.75721 2.53528 2.31836 2.12437 1.96162 
1.82972 1.72409 1.63936 3.2355 3.31775 3.38947 3.45194 3.50646 3.55417 
3.59609 3.6331 3.66592 3.04769 2.96544 2.89372 2.83124 2.77673 2.72902 
2.6871 2.65009 2.61727 6.28319 6.28319 6.28319 6.28319 3.14159 3.14159 
3.14159 3.14159 3.14159 6.1053 5.8988 5.67687 5.45995 5.26596 5.10322 
4.97131 4.86569 4.78095 0.177881 0.384387 0.606312 0.823235 1.01722 1.17997 
1.31187 1.4175 1.50223 6.18928 6.10703 6.03531 5.97283 5.91832 5.87061 
5.82869 5.79168 5.75886 0.0939024 0.176153 0.247873 0.310351 0.364864 0.412573 
0.454497 0.491504 0.524326 3.31947 3.52598 3.7479 3.96483 4.15881 4.32156 
4.45346 4.55909 4.64383 2.96371 2.75721 2.53528 2.31836 2.12437 1.96162 
1.82972 1.72409 1.63936 3.2355 3.31775 3.38947 3.45194 3.50646 3.55417 
3.59609 3.6331 3.66592 3.04769 2.96544 2.89372 2.83124 2.77673 2.72902 
2.6871 2.65009 2.61727 4.71239 4.71239 4.71239 4.71239 4.71239 4.71239 
4.71239 4.71239 4.71239 4.60879 4.49914 4.3857 4.27128 4.15881 4.05096 
3.94976 3.85646 3.77161 4.81599 4.92564 5.03907 5.1535 5.26596 5.37381 
5.47502 5.56831 5.65317 4.60879 4.49914 4.3857 4.27128 4.15881 4.05096 
3.94976 3.85646 3.77161 4.81599 4.92564 5.03907 5.1535 5.26596 5.37381 
5.47502 5.56831 5.65317 1.5708 1.5708 1.5708 1.5708 1.5708 1.5708 
1.5708 1.5708 1.5708 1.6744 1.78405 1.89748 2.01191 2.12437 2.23222 
2.33343 2.42672 2.51157 1.4672 1.35755 1.24411 1.12969 1.01722 0.909371 
0.808166 0.714871 0.63002 1.6744 1.78405 1.89748 2.01191 2.12437 2.23222 
2.33343 2.42672 2.51157 1.4672 1.35755 1.24411 1.12969 1.01722 0.909371 
0.808166 0.714871 0.63002 3.60077 3.49669 3.38395 3.26458 3.14159 3.01861 
2.89924 2.78649 2.68241 5.82401 5.92808 6.04083 6.1602 6.28319 0.122983 
0.242354 0.355101 0.459179 6.05603 5.78856 5.97021 5.51259 5.60297 5.78856 
5.26596 5.26596 5.26596 5.26596 5.06749 5.0121 4.91556 4.71239 4.15881 
4.91556 4.83537 4.71239 4.50922 4.15881 3.63622 4.80045 4.71239 4.58941 
4.41268 4.15881 3.82181 3.45456 4.71239 4.62433 4.50922 4.35729 4.15881 
3.91219 3.63622 3.36875 6.01742 5.94343 5.82633 5.88092 5.76745 5.62798 
5.8278 5.71897 5.58911 5.43724 5.78235 5.67854 5.55757 5.41926 5.26596 
5.74316 5.64441 5.5315 5.40467 5.26596 5.11955 5.70914 5.61528 5.50962 
5.3926 5.26596 5.13292 4.99789 5.67937 5.59016 5.49102 5.38246 5.26596 
5.14407 5.02016 4.89798 5.56831 5.47502 5.47502 5.37381 5.37381 5.37381 
5.26596 5.26596 5.26596 5.26596 5.1535 5.1535 5.1535 5.1535 5.1535 
5.03907 5.03907 5.03907 5.03907 5.03907 5.03907 4.92564 4.92564 4.92564 
4.92564 4.92564 4.92564 4.92564 4.81599 4.81599 4.81599 4.81599 4.81599 
4.81599 4.81599 4.81599 4.60879 4.60879 4.49914 4.60879 4.49914 4.3857 
4.60879 4.49914 4.3857 4.27128 4.60879 4.49914 4.3857 4.27128 4.15881 
4.60879 4.49914 4.3857 4.27128 4.15881 4.05096 4.60879 4.49914 4.3857 
4.27128 4.15881 4.05096 3.94976 4.60879 4.49914 4.3857 4.27128 4.15881 
4.05096 3.94976 3.85646 4.5268 4.40462 4.42689 4.28071 4.29185 4.30523 
4.15881 4.15881 4.15881 4.15881 4.04232 4.03217 4.02011 4.00552 3.98753 
3.93376 3.91515 3.89328 3.86721 3.83566 3.7968 3.83461 3.8095 3.78037 
3.74624 3.70581 3.65733 3.59845 3.7454 3.71564 3.68161 3.64243 3.59698 
3.54386 3.48135 3.40735 3.56428 3.45246 3.52338 3.33203 3.40312 3.47739 
3.20576 3.27463 3.34802 3.42551 3.07742 3.14159 3.21128 3.28647 3.36688 
2.95116 3.00855 3.0719 3.14159 3.21784 3.3006 2.83072 2.88006 2.93517 
2.99672 3.06535 3.14159 3.22575 2.7189 2.7598 2.8058 2.85768 2.9163 
2.98259 3.05743 3.14159 3.56428 3.52338 3.45246 3.47739 3.40312 3.33203 
3.42551 3.34802 3.27463 3.20576 3.36688 3.28647 3.21128 3.14159 3.07742 
3.3006 3.21784 3.14159 3.0719 3.00855 2.95116 3.22575 3.14159 3.06535 
2.99672 2.93517 2.88006 2.83072 3.14159 3.05743 2.98259 2.9163 2.85768 
2.8058 2.7598 2.7189 4.5268 4.42689 4.40462 4.30523 4.29185 4.28071 
4.15881 4.15881 4.15881 4.15881 3.98753 4.00552 4.02011 4.03217 4.04232 
3.7968 3.83566 3.86721 3.89328 3.91515 3.93376 3.59845 3.65733 3.70581 
3.74624 3.78037 3.8095 3.83461 3.40735 3.48135 3.54386 3.59698 3.64243 
3.68161 3.71564 3.7454 4.71239 4.80045 4.62433 4.91556 4.71239 4.50922 
5.06749 4.83537 4.58941 4.35729 5.26596 5.0121 4.71239 4.41268 4.15881 
5.51259 5.26596 4.91556 4.50922 4.15881 3.91219 5.78856 5.60297 5.26596 
4.71239 4.15881 3.82181 3.63622 6.05603 5.97021 5.78856 5.26596 4.15881 
3.63622 3.45456 3.36875 0.227158 0.494626 0.312971 0.770593 0.680215 0.494626 
1.01722 1.01722 1.01722 1.01722 1.2157 1.27109 1.36763 1.5708 2.12437 
1.36763 1.44781 1.5708 1.77397 2.12437 2.64697 1.48273 1.5708 1.69378 
1.8705 2.12437 2.46138 2.82862 1.5708 1.65886 1.77397 1.9259 2.12437 
2.371 2.64697 2.91443 1.75639 1.87857 1.8563 2.00248 1.99133 1.97796 
2.12437 2.12437 2.12437 2.12437 2.24087 2.25101 2.26308 2.27767 2.29565 
2.34943 2.36803 2.38991 2.41597 2.44752 2.48639 2.44857 2.47368 2.50281 
2.53694 2.57738 2.62586 2.68474 2.53778 2.56754 2.60157 2.64076 2.68621 
2.73933 2.80184 2.87583 1.6744 1.6744 1.78405 1.6744 1.78405 1.89748 
1.6744 1.78405 1.89748 2.01191 1.6744 1.78405 1.89748 2.01191 2.12437 
1.6744 1.78405 1.89748 2.01191 2.12437 2.23222 1.6744 1.78405 1.89748 
2.01191 2.12437 2.23222 2.33343 1.6744 1.78405 1.89748 2.01191 2.12437 
2.23222 2.33343 2.42672 1.4672 1.35755 1.4672 1.24411 1.35755 1.4672 
1.12969 1.24411 1.35755 1.4672 1.01722 1.12969 1.24411 1.35755 1.4672 
0.909371 1.01722 1.12969 1.24411 1.35755 1.4672 0.808166 0.909371 1.01722 
1.12969 1.24411 1.35755 1.4672 0.714871 0.808166 0.909371 1.01722 1.12969 
1.24411 1.35755 1.4672 0.603812 0.57405 0.693022 0.540021 0.667908 0.792164 
0.500837 0.638778 0.773562 0.900726 0.455383 0.604649 0.751687 0.890581 1.01722 
0.402264 0.564217 0.725619 0.878514 1.01722 1.13912 0.339753 0.515737 0.694072 
0.863926 1.01722 1.15026 1.26302 0.265762 0.456853 0.655207 0.845941 1.01722 
1.16363 1.28529 1.38521 0.227158 0.312971 0.494626 0.494626 0.680215 0.770593 
1.01722 1.01722 1.01722 1.01722 2.12437 1.5708 1.36763 1.27109 1.2157 
2.64697 2.12437 1.77397 1.5708 1.44781 1.36763 2.82862 2.46138 2.12437 
1.8705 1.69378 1.5708 1.48273 2.91443 2.64697 2.371 2.12437 1.9259 
1.77397 1.65886 1.5708 1.75639 1.8563 1.87857 1.97796 1.99133 2.00248 
2.12437 2.12437 2.12437 2.12437 2.29565 2.27767 2.26308 2.25101 2.24087 
2.48639 2.44752 2.41597 2.38991 2.36803 2.34943 2.68474 2.62586 2.57738 
2.53694 2.50281 2.47368 2.44857 2.87583 2.80184 2.73933 2.68621 2.64076 
2.60157 2.56754 2.53778 5.86049 5.90139 5.97231 5.94739 6.02165 6.09275 
5.99927 6.07676 6.15015 6.21902 6.0579 6.13831 6.2135 0 0.0641696 
6.12418 6.20694 6.28319 0.069689 0.13304 0.190437 6.19903 0 0.0762451 
0.144876 0.206423 0.261531 0.310872 0 0.0841597 0.159004 0.225289 0.283913 
0.335793 0.381792 0.422692 5.86049 5.97231 5.90139 6.09275 6.02165 5.94739 
6.21902 6.15015 6.07676 5.99927 0.0641696 0 6.2135 6.13831 6.0579 
0.190437 0.13304 0.069689 6.28319 6.20694 6.12418 0.310872 0.261531 0.206423 
0.144876 0.0762451 6.28319 6.19903 0.422692 0.381792 0.335793 0.283913 0.225289 
0.159004 0.0841597 0 5.67937 5.70914 5.59016 5.74316 5.61528 5.49102 
5.78235 5.64441 5.50962 5.38246 5.8278 5.67854 5.5315 5.3926 5.26596 
5.88092 5.71897 5.55757 5.40467 5.26596 5.14407 5.94343 5.76745 5.58911 
5.41926 5.26596 5.13292 5.02016 6.01742 5.82633 5.62798 5.43724 5.26596 
5.11955 4.99789 4.89798 1.38521 1.28529 1.26302 1.16363 1.15026 1.13912 
1.01722 1.01722 1.01722 1.01722 0.845941 0.863926 0.878514 0.890581 0.900726 
0.655207 0.694072 0.725619 0.751687 0.773562 0.792164 0.456853 0.515737 0.564217 
0.604649 0.638778 0.667908 0.693022 0.265762 0.339753 0.402264 0.455383 0.500837 
0.540021 0.57405 0.603812 
