# vtk DataFile Version 4.0
vtk output
ASCII
DATASET POLYDATA
POINTS 1002 float
-87.048 -93.7158 67.8963 -82.0834 -100.272 68.8528 -81.3891 -90.2489 66.507 
-76.604 -97.7059 68.0608 -82.9136 -95.6312 73.0935 -80.0124 -93.7777 73.0725 
-84.5627 -97.1684 63.3899 -80.5415 -95.1889 63.0414 -78.0967 -102.663 72.2113 
-85.1891 -88.2132 70.6953 -78.073 -104.54 65.006 -86.6108 -88.9249 63.7042 
-86.6774 -94.2624 67.8694 -86.1638 -94.796 67.8508 -85.7416 -95.4369 67.9054 
-85.3321 -96.1976 68.105 -84.7517 -97.0231 68.3944 -84.2422 -97.8954 68.5997 
-83.8253 -98.6326 68.6496 -83.1876 -99.1198 68.6531 -82.4894 -99.5997 68.7229 
-86.8632 -93.8742 68.5271 -86.5427 -93.9718 69.1284 -85.9451 -93.9014 69.451 
-85.2998 -93.8955 69.7818 -84.9745 -94.2115 70.5807 -84.7892 -94.6616 71.5166 
-84.3872 -94.9886 72.0859 -83.8756 -95.2237 72.4372 -83.4098 -95.4396 72.7883 
-87.1128 -93.9985 67.3904 -87.2945 -94.5124 67.0521 -87.5282 -95.2656 66.7102 
-87.6195 -95.9137 66.1275 -87.4296 -96.2317 65.3692 -86.9639 -96.4342 64.6378 
-86.3086 -96.6604 64.091 -85.5933 -96.8282 63.7916 -84.9801 -96.9678 63.6062 
-87.1162 -93.1127 68.2686 -87.1021 -92.3237 68.6048 -87.1873 -91.5706 68.9647 
-87.3517 -90.9916 69.4181 -87.3397 -90.3742 69.7971 -87.1046 -89.576 69.9879 
-86.7319 -88.8187 70.138 -86.2358 -88.3564 70.3296 -85.6949 -88.2047 70.5205 
-87.2756 -93.2755 67.5993 -87.4854 -92.8049 67.3155 -87.7458 -92.1806 66.8415 
-88.0134 -91.4679 66.1546 -88.1691 -90.9703 65.5722 -88.1501 -90.5111 65.0816 
-87.9739 -89.7302 64.4366 -87.6621 -89.0071 63.8951 -87.1983 -88.8 63.7258 
-82.1119 -99.9212 69.27 -82.19 -99.5508 69.7011 -82.3369 -99.1758 70.2312 
-82.4503 -98.7142 70.7845 -82.4499 -98.118 71.1962 -82.441 -97.5026 71.6106 
-82.5373 -96.9986 72.1654 -82.7016 -96.5792 72.6334 -82.8432 -96.1334 72.8952 
-82.2038 -100.092 68.2988 -82.4214 -99.9029 67.7516 -82.8558 -99.8233 67.2119 
-83.3545 -99.7778 66.5332 -83.687 -99.5229 65.8439 -83.9501 -99.0968 65.3274 
-84.2577 -98.7298 64.7594 -84.4738 -98.3459 64.1123 -84.5402 -97.7836 63.6655 
-81.8728 -100.853 69.2496 -81.5919 -101.412 69.6311 -81.2197 -101.893 70.0669 
-80.8255 -102.259 70.5422 -80.3033 -102.421 70.8763 -79.6364 -102.465 71.1177 
-79.0831 -102.629 71.5103 -78.7027 -102.89 71.9717 -78.3665 -102.955 72.2263 
-81.9709 -101.001 68.6343 -81.7802 -101.73 68.2785 -81.2402 -102.241 67.8176 
-80.4862 -102.547 67.4057 -79.9129 -102.927 67.0423 -79.5005 -103.474 66.6192 
-79.0579 -103.91 66.2182 -78.6822 -104.126 65.8942 -78.4049 -104.316 65.503 
-80.9638 -90.8557 66.629 -80.2999 -91.3508 66.7894 -79.7346 -91.9866 66.9722 
-79.4004 -92.9057 67.115 -79.0581 -93.9084 67.1958 -78.7622 -95.0031 67.3074 
-78.5447 -96.2219 67.5063 -78.0255 -97.1059 67.7228 -77.2232 -97.4568 67.9037 
-81.2764 -90.4352 67.0789 -81.1536 -90.7234 67.8581 -80.8495 -90.9661 68.6923 
-80.5253 -91.2239 69.4575 -80.4797 -91.7036 70.096 -80.5282 -92.2823 70.6289 
-80.3904 -92.7262 71.2565 -80.1971 -93.0889 72.0015 -80.0906 -93.4531 72.6268 
-81.3851 -90.614 66.1364 -81.2676 -90.9463 65.7028 -80.9085 -91.1275 65.0858 
-80.5401 -91.4119 64.4763 -80.4932 -92.042 64.1674 -80.5894 -92.7752 63.9693 
-80.5258 -93.3867 63.5925 -80.4184 -93.9765 63.2223 -80.4387 -94.5981 63.069 
-81.5083 -89.6052 66.7192 -81.6456 -89.017 67.0529 -81.9541 -88.5564 67.5478 
-82.3706 -88.1661 68.1746 -82.791 -87.8707 68.789 -83.2927 -87.7659 69.2386 
-83.8788 -87.8531 69.5914 -84.3984 -88.0097 69.9887 -84.8156 -88.1177 70.3925 
-81.6643 -89.7248 66.1775 -81.9787 -89.1427 65.7867 -82.3219 -88.613 65.2245 
-82.7776 -88.2737 64.6403 -83.506 -88.0332 64.2376 -84.3156 -87.7868 63.9031 
-84.9282 -87.799 63.5864 -85.4835 -88.1716 63.4932 -86.0988 -88.5964 63.6089 
-76.9593 -97.695 68.5153 -77.4984 -97.6169 68.8324 -78.0215 -97.2879 69.2791 
-78.3421 -96.7899 69.9395 -78.6541 -96.3291 70.5687 -79.116 -95.8991 71.1113 
-79.402 -95.347 71.6731 -79.4212 -94.6648 72.2307 -79.5641 -94.0743 72.7214 
-76.6632 -97.591 67.3594 -76.8728 -97.5989 66.6655 -77.2718 -97.6208 66.0941 
-77.6925 -97.452 65.5375 -77.9994 -97.0906 64.9448 -78.3881 -96.7085 64.4322 
-78.9198 -96.3242 63.9338 -79.4011 -95.899 63.4265 -79.8874 -95.5028 63.1218 
-76.4369 -98.1833 68.57 -76.4404 -98.9215 69.0274 -76.5189 -99.7159 69.355 
-76.6638 -100.466 69.642 -76.9475 -101.204 69.9403 -77.3143 -101.782 70.1826 
-77.6074 -102.104 70.4793 -77.7671 -102.338 71.0091 -77.8873 -102.564 71.6725 
-76.3669 -98.1795 67.7296 -76.4263 -99.1704 67.308 -76.5256 -100.388 66.9579 
-76.549 -101.418 66.6896 -76.5513 -102.385 66.3114 -76.4674 -103.498 65.7281 
-76.4679 -104.441 65.1321 -76.8769 -104.88 64.8018 -77.538 -104.851 64.8107 
-82.5412 -95.4217 73.3891 -82.1615 -95.2458 73.7327 -82.0249 -95.1043 74.2282 
-82.0279 -94.8384 74.806 -81.7174 -94.4122 75.1032 -81.1372 -94.115 74.9079 
-80.7335 -94.0556 74.422 -80.5325 -94.0144 73.9168 -80.3023 -93.8947 73.4789 
-82.2876 -96.1391 73.2334 -81.6643 -96.7825 73.4007 -81.2553 -97.6976 73.63 
-80.9082 -98.682 73.889 -80.3774 -99.379 73.9957 -79.886 -99.9041 73.7822 
-79.5257 -100.59 73.3779 -79.0254 -101.4 73.0257 -78.459 -102.121 72.6902 
-83.2579 -94.9441 73.1778 -83.5978 -94.1922 73.3099 -84.0257 -93.4162 73.3571 
-84.506 -92.4701 73.2765 -84.8914 -91.4129 73.1437 -85.1629 -90.5914 72.8375 
-85.3385 -89.9403 72.2826 -85.3693 -89.2137 71.708 -85.2878 -88.5768 71.2143 
-79.6273 -94.28 73.2991 -79.4533 -95.1625 73.4721 -79.4871 -96.388 73.51 
-79.4533 -97.5496 73.4103 -79.1361 -98.3823 73.351 -78.694 -99.0764 73.3519 
-78.3847 -99.8651 73.1629 -78.2141 -100.802 72.78 -78.108 -101.801 72.447 
-80.6932 -93.5261 73.0201 -81.2273 -93.1411 72.9172 -81.433 -92.3362 72.825 
-81.6958 -91.379 72.592 -82.2164 -90.567 72.2338 -82.7348 -89.7439 72.087 
-83.3024 -88.9785 72.0803 -84.0308 -88.5594 71.8046 -84.6981 -88.3843 71.2542 
-84.4224 -97.0042 62.963 -84.275 -96.9453 62.3156 -83.9407 -96.9942 61.7162 
-83.3625 -96.9967 61.5327 -82.7351 -96.6967 61.7024 -82.3264 -96.1545 61.9696 
-82.0909 -95.7281 62.329 -81.7151 -95.5143 62.722 -81.1273 -95.3594 62.964 
-84.2 -97.8419 63.3306 -83.6891 -98.6062 63.3173 -82.912 -99.3183 63.3805 
-82.0076 -100.05 63.5391 -81.2609 -100.957 63.7481 -80.578 -101.861 63.9757 
-79.6972 -102.569 64.2958 -78.8559 -103.247 64.6503 -78.3612 -103.966 64.8738 
-84.8455 -96.5435 63.2216 -85.264 -96.0845 62.9784 -85.7141 -95.5379 62.8083 
-86.0294 -94.6915 62.868 -86.2205 -93.7369 63.1137 -86.3055 -92.8256 63.4423 
-86.2921 -91.825 63.7409 -86.3573 -90.7253 63.844 -86.5373 -89.7135 63.7656 
-80.1651 -95.991 63.0392 -79.6633 -96.9153 63.0115 -79.0649 -97.9513 63.0381 
-78.6428 -99.0723 63.266 -78.4912 -100.137 63.7026 -78.2556 -101.158 64.1131 
-77.8616 -102.367 64.2547 -77.6881 -103.578 64.2591 -77.836 -104.314 64.4865 
-81.2687 -94.5801 62.9826 -81.9863 -94.0033 62.8147 -82.5114 -93.4566 62.6817 
-83.0049 -92.909 62.8064 -83.7292 -92.1925 63.0151 -84.4425 -91.2415 63.0908 
-84.891 -90.4052 63.2318 -85.3349 -89.9015 63.4912 -85.9624 -89.4696 63.6505 
-78.0449 -103.369 71.6424 -78.0296 -104.028 70.9573 -77.8795 -104.711 70.3158 
-77.7073 -105.379 69.7023 -77.7235 -105.774 68.9239 -77.7766 -105.72 68.033 
-77.7761 -105.378 67.181 -77.8694 -105.039 66.3504 -78.0068 -104.801 65.5819 
-85.4245 -87.9458 70.0118 -85.7167 -87.6876 69.2626 -86.0661 -87.4147 68.4441 
-86.415 -87.1699 67.5966 -86.6285 -87.1687 66.7437 -86.6465 -87.4127 65.9007 
-86.6538 -87.5961 65.1156 -86.7786 -87.7613 64.4171 -86.8255 -88.2108 63.9034 
-86.3876 -94.4264 68.5074 -85.9817 -94.4731 69.096 -85.8388 -94.9468 68.4351 
-85.3871 -94.4351 69.4831 -85.4998 -95.0973 69.0867 -85.4813 -95.6798 68.528 
-84.913 -94.6707 70.0423 -85.0378 -95.3277 69.7021 -85.2114 -96.0461 69.3261 
-85.1091 -96.603 68.8695 -84.753 -95.2098 70.975 -84.6706 -95.7535 70.4437 
-84.6915 -96.3441 70.005 -84.7434 -96.9943 69.6367 -84.5468 -97.5004 69.1779 
-84.5069 -95.6552 71.7823 -84.4311 -96.1818 71.2694 -84.1491 -96.5213 70.5885 
-84.0277 -97.043 70.0793 -84.0763 -97.7432 69.7398 -83.9991 -98.2666 69.2556 
-83.9624 -95.871 72.2302 -83.9632 -96.4002 71.8751 -83.6838 -96.6726 71.1809 
-83.361 -97.0089 70.4795 -83.3495 -97.6995 70.0838 -83.4599 -98.406 69.7447 
-83.3923 -98.8358 69.2258 -83.3724 -96.0009 72.5684 -83.29 -96.4805 72.2738 
-83.105 -96.8289 71.7041 -82.8777 -97.2011 71.0381 -82.8008 -97.7986 70.576 
-82.8494 -98.4825 70.2071 -82.8173 -98.983 69.7436 -82.6659 -99.3136 69.221 
-86.9477 -93.2276 68.8943 -86.8894 -92.4055 69.1538 -86.5545 -93.313 69.3659 
-86.9051 -91.6898 69.5304 -86.4764 -92.5828 69.6239 -85.9201 -93.3533 69.6832 
-86.9571 -91.1175 70.0021 -86.4744 -91.9298 70.1152 -85.956 -92.8372 70.202 
-85.4004 -93.5335 70.3304 -86.7975 -90.4568 70.2539 -86.3514 -91.2902 70.4769 
-85.9294 -92.2392 70.7426 -85.5404 -93.1775 71.061 -85.1185 -93.8805 71.313 
-86.455 -89.7181 70.3781 -85.9906 -90.643 70.5868 -85.5973 -91.5266 70.9179 
-85.4153 -92.5848 71.4303 -85.1657 -93.5011 71.8796 -84.7448 -94.1887 72.0372 
-86.0927 -89.1209 70.6322 -85.7094 -90.0756 70.8876 -85.2774 -90.8821 71.2191 
-85.1045 -91.7964 71.6779 -85.0324 -92.883 72.195 -84.6917 -93.7186 72.4754 
-84.2294 -94.4233 72.4624 -85.7237 -88.7603 70.9481 -85.5973 -89.5988 71.3633 
-85.3092 -90.3689 71.851 -85.0577 -91.0855 72.3009 -84.915 -92.0889 72.6561 
-84.6273 -93.1277 72.9236 -84.1611 -93.9199 72.9692 -83.7486 -94.6755 72.8524 
-84.8038 -88.7922 71.7976 -84.0982 -89.1389 72.1986 -84.9292 -89.4804 72.2757 
-83.2981 -89.8324 72.3063 -84.1381 -89.9852 72.5254 -84.9172 -90.2243 72.8211 
-82.6161 -90.6273 72.5295 -83.1376 -90.6661 72.7974 -83.951 -90.746 73.0359 
-84.6523 -90.9746 73.2574 -82.0625 -91.2773 73.0431 -82.3356 -91.1245 73.5608 
-82.7987 -91.1663 73.6483 -83.5389 -91.5027 73.4571 -84.1768 -91.9561 73.3986 
-81.7354 -92.1455 73.3187 -81.9383 -91.6943 74.1464 -82.1593 -91.4463 74.6279 
-82.5736 -91.8566 74.1778 -83.1247 -92.5313 73.5826 -83.6495 -93.0279 73.4549 
-81.5424 -93.1522 73.2729 -81.7477 -92.7748 73.9886 -81.9683 -92.2582 74.8743 
-82.2746 -92.347 74.9796 -82.5418 -93.0386 74.2305 -82.8221 -93.6215 73.6611 
[...]
POINT_DATA 1002
FIELD FieldData 2
Theta 1 1002 float
2.58802 2.58802 0.553574 0.553574 2.12437 1.01722 2.12437 1.01722 1.5708 
1.5708 1.5708 1.5708 2.68241 2.78649 2.89924 3.01861 3.14159 3.01861 
2.89924 2.78649 2.68241 2.61035 2.61791 2.60515 2.56958 2.51327 2.44184 
2.36202 2.27983 2.1997 2.61035 2.61791 2.60515 2.56958 2.51327 2.44184 
2.36202 2.27983 2.1997 2.50947 2.41899 2.31794 2.20864 2.0944 1.97902 
1.86631 1.75944 1.66056 2.50947 2.41899 2.31794 2.20864 2.0944 1.97902 
1.86631 1.75944 1.66056 2.61035 2.61791 2.60515 2.56958 2.51327 2.44184 
2.36202 2.27983 2.1997 2.61035 2.61791 2.60515 2.56958 2.51327 2.44184 
2.36202 2.27983 2.1997 2.50947 2.41899 2.31794 2.20864 2.0944 1.97902 
1.86631 1.75944 1.66056 2.50947 2.41899 2.31794 2.20864 2.0944 1.97902 
1.86631 1.75944 1.66056 0.459179 0.355101 0.242354 0.122983 0 0.122983 
0.242354 0.355101 0.459179 0.531246 0.523681 0.536438 0.57201 0.628319 0.699757 
0.779574 0.86176 0.941896 0.531246 0.523681 0.536438 0.57201 0.628319 0.699757 
0.779574 0.86176 0.941896 0.632123 0.7226 0.823657 0.932948 1.0472 1.16257 
1.27528 1.38216 1.48103 0.632123 0.7226 0.823657 0.932948 1.0472 1.16257 
1.27528 1.38216 1.48103 0.531246 0.523681 0.536438 0.57201 0.628319 0.699757 
0.779574 0.86176 0.941896 0.531246 0.523681 0.536438 0.57201 0.628319 0.699757 
0.779574 0.86176 0.941896 0.632123 0.7226 0.823657 0.932948 1.0472 1.16257 
1.27528 1.38216 1.48103 0.632123 0.7226 0.823657 0.932948 1.0472 1.16257 
1.27528 1.38216 1.48103 2.02998 1.9259 1.81315 1.69378 1.5708 1.44781 
1.32844 1.2157 1.11162 2.0928 2.05283 2.00422 1.94767 1.88496 1.81867 
1.75177 1.68695 1.62623 2.0928 2.05283 2.00422 1.94767 1.88496 1.81867 
1.75177 1.68695 1.62623 1.0488 1.08876 1.13737 1.19392 1.25664 1.32292 
1.38982 1.45464 1.51537 1.0488 1.08876 1.13737 1.19392 1.25664 1.32292 
1.38982 1.45464 1.51537 2.02998 1.9259 1.81315 1.69378 1.5708 1.44781 
1.32844 1.2157 1.11162 2.0928 2.05283 2.00422 1.94767 1.88496 1.81867 
1.75177 1.68695 1.62623 2.0928 2.05283 2.00422 1.94767 1.88496 1.81867 
1.75177 1.68695 1.62623 1.0488 1.08876 1.13737 1.19392 1.25664 1.32292 
1.38982 1.45464 1.51537 1.0488 1.08876 1.13737 1.19392 1.25664 1.32292 
1.38982 1.45464 1.51537 1.5708 1.5708 1.5708 1.5708 1.5708 1.5708 
1.5708 1.5708 1.5708 1.5708 1.5708 1.5708 1.5708 1.5708 1.5708 
1.5708 1.5708 1.5708 2.70908 2.71362 2.81592 2.68886 2.81002 2.92597 
2.6349 2.76254 2.89233 3.01997 2.55881 2.68262 2.80854 2.92834 3.01997 
2.47007 2.58462 2.70048 2.80854 2.89233 2.92597 2.37702 2.48017 2.58462 
2.68262 2.76254 2.81002 2.81592 2.28567 2.37702 2.47007 2.55881 2.6349 
2.68886 2.71362 2.70908 2.52097 2.4195 2.51718 2.30791 2.40503 2.49426 
2.18928 2.28408 2.3734 2.45144 2.06758 2.15805 2.24572 2.32523 2.39165 
1.94707 2.03138 2.11543 2.19453 2.26401 2.32035 1.83164 1.90847 1.98711 
2.06376 2.13422 2.1949 2.24359 1.72413 1.79288 1.86489 1.93728 2.00658 
2.06938 2.12312 2.16654 1.5708 1.50988 1.63171 1.44492 1.5708 1.69667 
1.37826 1.5059 1.63569 1.76333 1.31281 1.43962 1.5708 1.70197 1.82878 
1.25155 1.37501 1.50478 1.63681 1.76659 1.89004 1.19686 1.31493 1.44074 
1.5708 1.70086 1.82666 1.94473 1.15011 1.26149 1.38136 1.50697 1.63462 
1.76024 1.88011 1.99148 1.99148 1.88011 1.94473 1.76024 1.82666 1.89004 
1.63462 1.70086 1.76659 1.82878 1.50697 1.5708 1.63681 1.70197 1.76333 
1.38136 1.44074 1.50478 1.5708 1.63569 1.69667 1.26149 1.31493 1.37501 
1.43962 1.5059 1.5708 1.63171 1.15011 1.19686 1.25155 1.31281 1.37826 
1.44492 1.50988 1.5708 2.16654 2.12312 2.24359 2.06938 2.1949 2.32035 
2.00658 2.13422 2.26401 2.39165 1.93728 2.06376 2.19453 2.32523 2.45144 
1.86489 1.98711 2.11543 2.24572 2.3734 2.49426 1.79288 1.90847 2.03138 
2.15805 2.28408 2.40503 2.51718 1.72413 1.83164 1.94707 2.06758 2.18928 
2.30791 2.4195 2.52097 1.66533 1.66946 1.76911 1.67254 1.777 1.88041 
1.67418 1.78222 1.89102 1.99634 1.67418 1.78405 1.89674 2.00785 2.11299 
1.67254 1.78222 1.89674 2.01191 2.12307 2.22608 1.66946 1.777 1.89102 
2.00785 2.12307 2.23222 2.33166 1.66533 1.76911 1.88041 1.99634 2.11299 
2.22608 2.33166 2.42672 1.47626 1.37249 1.47213 1.26118 1.36459 1.46906 
1.14526 1.25058 1.35938 1.46741 1.0286 1.13374 1.24485 1.35755 1.46741 
0.915514 1.01852 1.12969 1.24485 1.35938 1.46906 0.809937 0.909371 1.01852 
1.13374 1.25058 1.36459 1.47213 0.714871 0.809937 0.915514 1.0286 1.14526 
1.26118 1.37249 1.47626 0.975055 0.898002 1.01847 0.821245 0.946693 1.07221 
0.749941 0.877585 1.00737 1.13501 0.690152 0.816367 0.94706 1.07784 1.20431 
0.647337 0.768195 0.895868 1.02616 1.15448 1.2767 0.624416 0.736561 0.857515 
0.983547 1.11021 1.23313 1.34871 0.620619 0.722093 0.833684 0.952313 1.07402 
1.19452 1.30996 1.41746 0.855925 0.764569 0.764569 0.671524 0.661425 0.671524 
0.582786 0.556971 0.556971 0.582786 0.506696 0.458968 0.441109 0.458968 0.506696 
0.45273 0.379052 0.333054 0.333054 0.379052 0.45273 0.427969 0.331576 0.249267 
0.21325 0.249267 0.331576 0.427969 0.432512 0.325669 0.215619 0.121622 0.121622 
0.215619 0.325669 0.432512 0.432512 0.427969 0.325669 0.45273 0.331576 0.215619 
0.506696 0.379052 0.249267 0.121622 0.582786 0.458968 0.333054 0.21325 0.121622 
0.671524 0.556971 0.441109 0.333054 0.249267 0.215619 0.764569 0.661425 0.556971 
0.458968 0.379052 0.331576 0.325669 0.855925 0.764569 0.671524 0.582786 0.506696 
0.45273 0.427969 0.432512 0.975055 1.01847 0.898002 1.07221 0.946693 0.821245 
1.13501 1.00737 0.877585 0.749941 1.20431 1.07784 0.94706 0.816367 0.690152 
1.2767 1.15448 1.02616 0.895868 0.768195 0.647337 1.34871 1.23313 1.11021 
0.983547 0.857515 0.736561 0.624416 1.41746 1.30996 1.19452 1.07402 0.952313 
0.833684 0.722093 0.620619 1.15011 1.26149 1.19686 1.38136 1.31493 1.25155 
1.50697 1.44074 1.37501 1.31281 1.63462 1.5708 1.50478 1.43962 1.37826 
1.76024 1.70086 1.63681 1.5708 1.5059 1.44492 1.88011 1.82666 1.76659 
1.70197 1.63569 1.5708 1.50988 1.99148 1.94473 1.89004 1.82878 1.76333 
1.69667 1.63171 1.5708 1.15011 1.19686 1.26149 1.25155 1.31493 1.38136 
1.31281 1.37501 1.44074 1.50697 1.37826 1.43962 1.50478 1.5708 1.63462 
1.44492 1.5059 1.5708 1.63681 1.70086 1.76024 1.50988 1.5708 1.63569 
1.70197 1.76659 1.82666 1.88011 1.5708 1.63171 1.69667 1.76333 1.82878 
1.89004 1.94473 1.99148 1.72413 1.83164 1.79288 1.94707 1.90847 1.86489 
2.06758 2.03138 1.98711 1.93728 2.18928 2.15805 2.11543 2.06376 2.00658 
2.30791 2.28408 2.24572 2.19453 2.13422 2.06938 2.4195 2.40503 2.3734 
2.32523 2.26401 2.1949 2.12312 2.52097 2.51718 2.49426 2.45144 2.39165 
2.32035 2.24359 2.16654 2.70908 2.81592 2.71362 2.92597 2.81002 2.68886 
3.01997 2.89233 2.76254 2.6349 3.01997 2.92834 2.80854 2.68262 2.55881 
2.92597 2.89233 2.80854 2.70048 2.58462 2.47007 2.81592 2.81002 2.76254 
2.68262 2.58462 2.48017 2.37702 2.70908 2.71362 2.68886 2.6349 2.55881 
2.47007 2.37702 2.28567 2.16654 2.24359 2.12312 2.32035 2.1949 2.06938 
2.39165 2.26401 2.13422 2.00658 2.45144 2.32523 2.19453 2.06376 1.93728 
2.49426 2.3734 2.24572 2.11543 1.98711 1.86489 2.51718 2.40503 2.28408 
2.15805 2.03138 1.90847 1.79288 2.52097 2.4195 2.30791 2.18928 2.06758 
1.94707 1.83164 1.72413 1.66533 1.76911 1.66946 1.88041 1.777 1.67254 
1.99634 1.89102 1.78222 1.67418 2.11299 2.00785 1.89674 1.78405 1.67418 
2.22608 2.12307 2.01191 1.89674 1.78222 1.67254 2.33166 2.23222 2.12307 
2.00785 1.89102 1.777 1.66946 2.42672 2.33166 2.22608 2.11299 1.99634 
1.88041 1.76911 1.66533 1.47626 1.47213 1.37249 1.46906 1.36459 1.26118 
1.46741 1.35938 1.25058 1.14526 1.46741 1.35755 1.24485 1.13374 1.0286 
1.46906 1.35938 1.24485 1.12969 1.01852 0.915514 1.47213 1.36459 1.25058 
1.13374 1.01852 0.909371 0.809937 1.47626 1.37249 1.26118 1.14526 1.0286 
0.915514 0.809937 0.714871 1.41746 1.30996 1.34871 1.19452 1.23313 1.2767 
1.07402 1.11021 1.15448 1.20431 0.952313 0.983547 1.02616 1.07784 1.13501 
0.833684 0.857515 0.895868 0.94706 1.00737 1.07221 0.722093 0.736561 0.768195 
0.816367 0.877585 0.946693 1.01847 0.620619 0.624416 0.647337 0.690152 0.749941 
0.821245 0.898002 0.975055 0.975055 0.898002 1.01847 0.821245 0.946693 1.07221 
0.749941 0.877585 1.00737 1.13501 0.690152 0.816367 0.94706 1.07784 1.20431 
0.647337 0.768195 0.895868 1.02616 1.15448 1.2767 0.624416 0.736561 0.857515 
0.983547 1.11021 1.23313 1.34871 0.620619 0.722093 0.833684 0.952313 1.07402 
1.19452 1.30996 1.41746 
Phi 1 1002 float
6.28319 3.14159 6.28319 3.14159 4.71239 4.71239 1.5708 1.5708 3.69517 
5.72961 2.58802 0.553574 6.28319 6.28319 6.28319 6.28319 3.14159 3.14159 
3.14159 3.14159 3.14159 6.1053 5.8988 5.67687 5.45995 5.26596 5.10322 
4.97131 4.86569 4.78095 0.177881 0.384387 0.606312 0.823235 1.01722 1.17997 
1.31187 1.4175 1.50223 6.18928 6.10703 6.03531 5.97283 5.91832 5.87061 
5.82869 5.79168 5.75886 0.0939024 0.176153 0.247873 0.310351 0.364864 0.412573 
0.454497 0.491504 0.524326 3.31947 3.52598 3.7479 3.96483 4.15881 4.32156 
4.45346 4.55909 4.64383 2.96371 2.75721 2.53528 2.31836 2.12437 1.96162 
1.82972 1.72409 1.63936 3.2355 3.31775 3.38947 3.45194 3.50646 3.55417 
3.59609 3.6331 3.66592 3.04769 2.96544 2.89372 2.83124 2.77673 2.72902 
2.6871 2.65009 2.61727 6.28319 6.28319 6.28319 6.28319 3.14159 3.14159 
3.14159 3.14159 3.14159 6.1053 5.8988 5.67687 5.45995 5.26596 5.10322 
4.97131 4.86569 4.78095 0.177881 0.384387 0.606312 0.823235 1.01722 1.17997 
1.31187 1.4175 1.50223 6.18928 6.10703 6.03531 5.97283 5.91832 5.87061 
5.82869 5.79168 5.75886 0.0939024 0.176153 0.247873 0.310351 0.364864 0.412573 
0.454497 0.491504 0.524326 3.31947 3.52598 3.7479 3.96483 4.15881 4.32156 
4.45346 4.55909 4.64383 2.96371 2.75721 2.53528 2.31836 2.12437 1.96162 
1.82972 1.72409 1.63936 3.2355 3.31775 3.38947 3.45194 3.50646 3.55417 
3.59609 3.6331 3.66592 3.04769 2.96544 2.89372 2.83124 2.77673 2.72902 
2.6871 2.65009 2.61727 4.71239 4.71239 4.71239 4.71239 4.71239 4.71239 
4.71239 4.71239 4.71239 4.60879 4.49914 4.3857 4.27128 4.15881 4.05096 
3.94976 3.85646 3.77161 4.81599 4.92564 5.03907 5.1535 5.26596 5.37381 
5.47502 5.56831 5.65317 4.60879 4.49914 4.3857 4.27128 4.15881 4.05096 
3.94976 3.85646 3.77161 4.81599 4.92564 5.03907 5.1535 5.26596 5.37381 
5.47502 5.56831 5.65317 1.5708 1.5708 1.5708 1.5708 1.5708 1.5708 
1.5708 1.5708 1.5708 1.6744 1.78405 1.89748 2.01191 2.12437 2.23222 
2.33343 2.42672 2.51157 1.4672 1.35755 1.24411 1.12969 1.01722 0.909371 
0.808166 0.714871 0.63002 1.6744 1.78405 1.89748 2.01191 2.12437 2.23222 
2.33343 2.42672 2.51157 1.4672 1.35755 1.24411 1.12969 1.01722 0.909371 
0.808166 0.714871 0.63002 3.60077 3.49669 3.38395 3.26458 3.14159 3.01861 
2.89924 2.78649 2.68241 5.82401 5.92808 6.04083 6.1602 6.28319 0.122983 
0.242354 0.355101 0.459179 6.05603 5.78856 5.97021 5.51259 5.60297 5.78856 
5.26596 5.26596 5.26596 5.26596 5.06749 5.0121 4.91556 4.71239 4.15881 
4.91556 4.83537 4.71239 4.50922 4.15881 3.63622 4.80045 4.71239 4.58941 
4.41268 4.15881 3.82181 3.45456 4.71239 4.62433 4.50922 4.35729 4.15881 
3.91219 3.63622 3.36875 6.01742 5.94343 5.82633 5.88092 5.76745 5.62798 
5.8278 5.71897 5.58911 5.43724 5.78235 5.67854 5.55757 5.41926 5.26596 
5.74316 5.64441 5.5315 5.40467 5.26596 5.11955 5.70914 5.61528 5.50962 
5.3926 5.26596 5.13292 4.99789 5.67937 5.59016 5.49102 5.38246 5.26596 
5.14407 5.02016 4.89798 5.56831 5.47502 5.47502 5.37381 5.37381 5.37381 
5.26596 5.26596 5.26596 5.26596 5.1535 5.1535 5.1535 5.1535 5.1535 
5.03907 5.03907 5.03907 5.03907 5.03907 5.03907 4.92564 4.92564 4.92564 
4.92564 4.92564 4.92564 4.92564 4.81599 4.81599 4.81599 4.81599 4.81599 
4.81599 4.81599 4.81599 4.60879 4.60879 4.49914 4.60879 4.49914 4.3857 
4.60879 4.49914 4.3857 4.27128 4.60879 4.49914 4.3857 4.27128 4.15881 
4.60879 4.49914 4.3857 4.27128 4.15881 4.05096 4.60879 4.49914 4.3857 
4.27128 4.15881 4.05096 3.94976 4.60879 4.49914 4.3857 4.27128 4.15881 
4.05096 3.94976 3.85646 4.5268 4.40462 4.42689 4.28071 4.29185 4.30523 
4.15881 4.15881 4.15881 4.15881 4.04232 4.03217 4.02011 4.00552 3.98753 
3.93376 3.91515 3.89328 3.86721 3.83566 3.7968 3.83461 3.8095 3.78037 
3.74624 3.70581 3.65733 3.59845 3.7454 3.71564 3.68161 3.64243 3.59698 
3.54386 3.48135 3.40735 3.56428 3.45246 3.52338 3.33203 3.40312 3.47739 
3.20576 3.27463 3.34802 3.42551 3.07742 3.14159 3.21128 3.28647 3.36688 
2.95116 3.00855 3.0719 3.14159 3.21784 3.3006 2.83072 2.88006 2.93517 
2.99672 3.06535 3.14159 3.22575 2.7189 2.7598 2.8058 2.85768 2.9163 
2.98259 3.05743 3.14159 3.56428 3.52338 3.45246 3.47739 3.40312 3.33203 
3.42551 3.34802 3.27463 3.20576 3.36688 3.28647 3.21128 3.14159 3.07742 
3.3006 3.21784 3.14159 3.0719 3.00855 2.95116 3.22575 3.14159 3.06535 
2.99672 2.93517 2.88006 2.83072 3.14159 3.05743 2.98259 2.9163 2.85768 
2.8058 2.7598 2.7189 4.5268 4.42689 4.40462 4.30523 4.29185 4.28071 
4.15881 4.15881 4.15881 4.15881 3.98753 4.00552 4.02011 4.03217 4.04232 
3.7968 3.83566 3.86721 3.89328 3.91515 3.93376 3.59845 3.65733 3.70581 
3.74624 3.78037 3.8095 3.83461 3.40735 3.48135 3.54386 3.59698 3.64243 
3.68161 3.71564 3.7454 4.71239 4.80045 4.62433 4.91556 4.71239 4.50922 
5.06749 4.83537 4.58941 4.35729 5.26596 5.0121 4.71239 4.41268 4.15881 
5.51259 5.26596 4.91556 4.50922 4.15881 3.91219 5.78856 5.60297 5.26596 
4.71239 4.15881 3.82181 3.63622 6.05603 5.97021 5.78856 5.26596 4.15881 
3.63622 3.45456 3.36875 0.227158 0.494626 0.312971 0.770593 0.680215 0.494626 
1.01722 1.01722 1.01722 1.01722 1.2157 1.27109 1.36763 1.5708 2.12437 
1.36763 1.44781 1.5708 1.77397 2.12437 2.64697 1.48273 1.5708 1.69378 
1.8705 2.12437 2.46138 2.82862 1.5708 1.65886 1.77397 1.9259 2.12437 
2.371 2.64697 2.91443 1.75639 1.87857 1.8563 2.00248 1.99133 1.97796 
2.12437 2.12437 2.12437 2.12437 2.24087 2.25101 2.26308 2.27767 2.29565 
2.34943 2.36803 2.38991 2.41597 2.44752 2.48639 2.44857 2.47368 2.50281 
2.53694 2.57738 2.62586 2.68474 2.53778 2.56754 2.60157 2.64076 2.68621 
2.73933 2.80184 2.87583 1.6744 1.6744 1.78405 1.6744 1.78405 1.89748 
1.6744 1.78405 1.89748 2.01191 1.6744 1.78405 1.89748 2.01191 2.12437 
1.6744 1.78405 1.89748 2.01191 2.12437 2.23222 1.6744 1.78405 1.89748 
2.01191 2.12437 2.23222 2.33343 1.6744 1.78405 1.89748 2.01191 2.12437 
2.23222 2.33343 2.42672 1.4672 1.35755 1.4672 1.24411 1.35755 1.4672 
1.12969 1.24411 1.35755 1.4672 1.01722 1.12969 1.24411 1.35755 1.4672 
0.909371 1.01722 1.12969 1.24411 1.35755 1.4672 0.808166 0.909371 1.01722 
1.12969 1.24411 1.35755 1.4672 0.714871 0.808166 0.909371 1.01722 1.12969 
1.24411 1.35755 1.4672 0.603812 0.57405 0.693022 0.540021 0.667908 0.792164 
0.500837 0.638778 0.773562 0.900726 0.455383 0.604649 0.751687 0.890581 1.01722 
0.402264 0.564217 0.725619 0.878514 1.01722 1.13912 0.339753 0.515737 0.694072 
0.863926 1.01722 1.15026 1.26302 0.265762 0.456853 0.655207 0.845941 1.01722 
1.16363 1.28529 1.38521 0.227158 0.312971 0.494626 0.494626 0.680215 0.770593 
1.01722 1.01722 1.01722 1.01722 2.12437 1.5708 1.36763 1.27109 1.2157 
2.64697 2.12437 1.77397 1.5708 1.44781 1.36763 2.82862 2.46138 2.12437 
1.8705 1.69378 1.5708 1.48273 2.91443 2.64697 2.371 2.12437 1.9259 
1.77397 1.65886 1.5708 1.75639 1.8563 1.87857 1.97796 1.99133 2.00248 
2.12437 2.12437 2.12437 2.12437 2.29565 2.27767 2.26308 2.25101 2.24087 
2.48639 2.44752 2.41597 2.38991 2.36803 2.34943 2.68474 2.62586 2.57738 
2.53694 2.50281 2.47368 2.44857 2.87583 2.80184 2.73933 2.68621 2.64076 
2.60157 2.56754 2.53778 5.86049 5.90139 5.97231 5.94739 6.02165 6.09275 
5.99927 6.07676 6.15015 6.21902 6.0579 6.13831 6.2135 0 0.0641696 
6.12418 6.20694 6.28319 0.069689 0.13304 0.190437 6.19903 0 0.0762451 
0.144876 0.206423 0.261531 0.310872 0 0.0841597 0.159004 0.225289 0.283913 
0.335793 0.381792 0.422692 5.86049 5.97231 5.90139 6.09275 6.02165 5.94739 
6.21902 6.15015 6.07676 5.99927 0.0641696 0 6.2135 6.13831 6.0579 
0.190437 0.13304 0.069689 6.28319 6.20694 6.12418 0.310872 0.261531 0.206423 
0.144876 0.0762451 6.28319 6.19903 0.422692 0.381792 0.335793 0.283913 0.225289 
0.159004 0.0841597 0 5.67937 5.70914 5.59016 5.74316 5.61528 5.49102 
5.78235 5.64441 5.50962 5.38246 5.8278 5.67854 5.5315 5.3926 5.26596 
5.88092 5.71897 5.55757 5.40467 5.26596 5.14407 5.94343 5.76745 5.58911 
5.41926 5.26596 5.13292 5.02016 6.01742 5.82633 5.62798 5.43724 5.26596 
5.11955 4.99789 4.89798 1.38521 1.28529 1.26302 1.16363 1.15026 1.13912 
1.01722 1.01722 1.01722 1.01722 0.845941 0.863926 0.878514 0.890581 0.900726 
0.655207 0.694072 0.725619 0.751687 0.773562 0.792164 0.456853 0.515737 0.564217 
0.604649 0.638778 0.667908 0.693022 0.265762 0.339753 0.402264 0.455383 0.500837 
0.540021 0.57405 0.603812 
