# vtk DataFile Version 4.0
vtk output
ASCII
DATASET POLYDATA
POINTS 1002 float
-87.8838 -95.7843 68.3338 -82.6869 -102.385 68.5948 -82.0671 -91.6109 67.8576 
-77.4051 -99.582 68.4754 -83.7115 -98.3474 73.328 -80.9016 -96.0976 72.7415 
-84.672 -98.6157 63.6095 -80.6333 -96.5908 64.1079 -78.6843 -104.931 71.1842 
-86.2212 -90.8487 70.7564 -78.0429 -104.322 66.0859 -87.4943 -90.3735 64.731 
-87.6495 -96.6471 68.4677 -87.4071 -97.5798 68.617 -87.0449 -98.3193 68.6687 
-86.4463 -98.8596 68.61 -85.6549 -99.3841 68.5797 -84.8632 -99.9807 68.642 
-84.2957 -100.747 68.7007 -83.907 -101.585 68.6913 -83.3972 -102.145 68.6451 
-87.733 -96.0741 68.9048 -87.6147 -96.4837 69.4558 -87.3267 -96.8118 69.9716 
-86.8289 -96.9472 70.5155 -86.2736 -97.0319 71.0516 -85.6904 -97.2198 71.5433 
-85.1562 -97.5388 72.0793 -84.7523 -97.9285 72.6269 -84.3012 -98.2302 73.045 
-87.9357 -96.1217 67.7973 -87.9139 -96.5453 67.2538 -87.7209 -96.904 66.8031 
-87.3702 -97.1505 66.3104 -86.8934 -97.3654 65.685 -86.348 -97.5556 65.1424 
-85.9181 -97.7435 64.7133 -85.6031 -98.0189 64.235 -85.1985 -98.3483 63.8123 
-87.9788 -95.1802 68.5635 -88.0598 -94.5824 68.8121 -88.1594 -93.8845 69.1608 
-88.2308 -93.1228 69.5634 -88.1463 -92.399 69.867 -87.8715 -91.7072 70.0917 
-87.5002 -91.1803 70.3257 -87.0902 -90.9734 70.5197 -86.65 -90.931 70.6439 
-88.189 -95.255 67.9691 -88.4396 -94.7565 67.6332 -88.6546 -94.0456 67.155 
-89.2467 -93.1921 66.5589 -89.966 -92.6011 66.1983 -89.7229 -92.2661 66.1675 
-88.6017 -91.8051 66.0505 -87.7964 -91.1752 65.5954 -87.6125 -90.6469 65.0578 
-82.8988 -102.29 69.0739 -82.9697 -101.941 69.5468 -82.898 -101.372 69.9562 
-82.9505 -100.913 70.428 -83.2189 -100.605 71.1003 -83.4408 -100.147 71.7617 
-83.5633 -99.6041 72.267 -83.7023 -99.1982 72.732 -83.7692 -98.8198 73.1151 
-82.9286 -102.289 68.0796 -83.2317 -102.21 67.4038 -83.5444 -102.082 66.6954 
-83.6629 -101.648 66.1588 -83.5832 -100.922 65.7968 -83.6784 -100.359 65.3621 
-84.1028 -100.09 64.745 -84.5153 -99.7535 64.1569 -84.6683 -99.2004 63.7972 
-82.0567 -102.594 68.7976 -81.5359 -103.06 68.9939 -81.2868 -103.792 69.3321 
-81.1009 -104.428 69.8079 -80.6218 -104.7 70.1515 -79.9616 -104.786 70.2927 
-79.4836 -104.929 70.5339 -79.1891 -105.104 70.9362 -78.9154 -105.139 71.2005 
-82.0651 -102.561 68.2722 -81.549 -103.031 67.8781 -81.2853 -103.89 67.3582 
-81.141 -104.763 66.8686 -80.751 -105.215 66.5618 -80.0215 -105.347 66.3309 
-79.3091 -105.392 66.1327 -78.8274 -105.252 66.0598 -78.4336 -104.85 66.0756 
-81.7775 -92.4678 68.0266 -81.2251 -93.1648 68.087 -80.504 -93.6438 68.0532 
-79.9562 -94.3595 68.0183 -79.6154 -95.4371 68.0289 -79.1476 -96.3921 68.1005 
-78.5494 -97.1853 68.2132 -78.0947 -98.1065 68.3062 -77.768 -98.9871 68.3805 
-82.0218 -91.8887 68.4135 -81.9514 -92.2049 68.882 -81.9423 -92.6642 69.3658 
-81.9004 -93.1894 69.9489 -81.6446 -93.5792 70.5826 -81.2943 -93.9253 71.2119 
-81.0863 -94.4437 71.7821 -81.0093 -95.0667 72.1975 -80.9543 -95.629 72.4738 
-81.934 -91.8895 67.3093 -81.7885 -92.307 66.7375 -81.625 -92.7956 66.3468 
-81.3644 -93.1621 65.9719 -81.0155 -93.4641 65.3508 -80.7976 -94.0571 64.8746 
-80.8184 -94.9542 64.8341 -80.8861 -95.762 64.7859 -80.818 -96.2714 64.4708 
-82.3003 -91.0443 68.0256 -82.7158 -90.7081 68.2309 -83.38 -90.5008 68.5918 
-84.0212 -90.2069 69.1404 -84.3507 -89.816 69.7344 -84.5955 -89.4909 70.1869 
-85.064 -89.447 70.4136 -85.5956 -89.8032 70.4977 -85.9674 -90.3693 70.594 
-82.1906 -90.9333 67.3367 -82.4298 -90.4388 66.9125 -83.0347 -90.3238 66.707 
-83.9237 -90.3637 66.4925 -84.6153 -90.1922 66.054 -85.0135 -89.9607 65.626 
-85.5906 -89.929 65.3957 -86.4495 -89.9742 65.1766 -87.1649 -90.0642 64.8982 
-77.6651 -99.4502 68.7741 -78.0364 -99.1841 69.0419 -78.5351 -98.8375 69.4513 
-78.9003 -98.4567 70.0267 -79.1233 -97.9921 70.6045 -79.4229 -97.411 71.1971 
-79.6775 -96.8273 71.8642 -79.8787 -96.4196 72.3831 -80.2994 -96.2207 72.6153 
-77.3453 -99.3405 67.9897 -77.2808 -99.058 67.4296 -77.4636 -98.8042 66.9056 
-77.8413 -98.5885 66.3833 -77.9935 -98.2203 65.7473 -78.0605 -97.6148 65.0421 
-78.517 -97.0613 64.4999 -79.2484 -96.8005 64.2667 -79.9625 -96.7117 64.2051 
-77.1582 -100.025 68.8014 -77.0123 -100.638 69.1348 -77.0762 -101.457 69.4233 
-77.1269 -102.268 69.6708 -77.0349 -103.011 70.051 -77.1262 -103.798 70.4629 
-77.5196 -104.453 70.5332 -77.9597 -104.798 70.4486 -78.3361 -104.935 70.6829 
-76.9146 -99.866 68.2782 -76.3255 -100.23 67.9325 -75.9556 -100.891 67.5243 
-76.0508 -101.684 67.2672 -76.3293 -102.41 67.0213 -76.4346 -103.234 66.5166 
-76.525 -103.999 66.0883 -76.8783 -104.311 66.074 -77.4521 -104.309 66.1759 
-83.2968 -98.0401 73.6126 -83.1023 -97.7713 74.0322 -83.1889 -97.5377 74.5724 
-83.0682 -97.1583 75.0649 -82.3852 -96.6944 75.2444 -81.6911 -96.4787 74.9416 
-81.5069 -96.5021 74.2951 -81.4939 -96.468 73.6107 -81.2605 -96.2973 73.085 
-83.1339 -98.6789 73.4511 -82.5846 -99.049 73.4901 -82.1322 -99.5888 73.4503 
-81.7686 -100.413 73.3738 -81.3859 -101.503 73.2263 -80.8211 -102.561 72.9943 
-80.0925 -103.326 72.7922 -79.454 -103.9 72.5096 -79.0315 -104.435 71.9256 
-84.0529 -97.755 73.282 -84.5334 -97.0396 73.1899 -85.0865 -96.1868 73.0312 
-85.609 -95.2433 72.8672 -86.1046 -94.333 72.8429 -86.4392 -93.4241 72.7597 
-86.4486 -92.4855 72.3461 -86.2965 -91.7429 71.7582 -86.2152 -91.2819 71.2179 
-80.4209 -96.5882 73.0395 -79.9485 -97.159 73.4011 -79.7197 -98.0322 73.4742 
-79.6239 -99.188 73.1952 -79.3276 -100.332 72.9775 -78.9271 -101.324 72.8598 
-78.756 -102.298 72.4875 -78.7682 -103.308 71.948 -78.7495 -104.221 71.5136 
-81.4342 -95.5801 72.799 -81.8041 -94.8449 72.9502 -82.2419 -94.0638 72.9654 
-82.8543 -93.2965 72.871 -83.4977 -92.4278 72.8808 -84.1661 -91.6106 72.8258 
-84.8276 -91.1568 72.421 -85.3509 -91.0396 71.7902 -85.7894 -90.9923 71.2036 
-84.3459 -98.4309 63.4438 -84.0603 -98.212 63.1317 -83.6929 -97.8534 62.4794 
-83.1484 -97.4782 61.7412 -82.6162 -97.2785 61.672 -82.2369 -97.1113 62.3932 
-81.8455 -96.8487 63.1434 -81.374 -96.6661 63.548 -80.9525 -96.6277 63.8246 
-84.0431 -99.1 63.7003 -83.2182 -99.5301 63.9162 -82.3282 -100.186 64.0468 
-81.6257 -101.208 63.9974 -81.0117 -102.271 63.9673 -80.1716 -103.021 64.1028 
-79.3447 -103.449 64.4244 -78.8657 -103.694 64.987 -78.5138 -103.939 65.6384 
-85.019 -97.8982 63.5088 -85.5122 -97.1926 63.3256 -86.1468 -96.6084 63.1625 
-86.6396 -95.9954 63.2521 -86.8453 -95.1428 63.5141 -87.0023 -94.18 63.7974 
-87.2513 -93.2422 64.1254 -87.4434 -92.2013 64.3812 -87.5021 -91.1425 64.5176 
-80.0099 -97.0879 63.9439 -79.5498 -97.9483 64.0028 -79.2413 -99.0065 64.1902 
-78.7 -99.9112 64.1668 -78.0117 -100.835 64.0188 -77.7944 -101.895 64.2518 
-77.9967 -102.619 64.8665 -78.0945 -102.996 65.4468 -78.0435 -103.534 65.8374 
-81.4186 -96.1986 64.1098 -82.0655 -95.6179 64.0263 -82.6277 -94.9322 64.0099 
-83.4044 -94.378 64.1454 -84.3004 -93.891 64.3457 -84.9602 -93.1633 64.5329 
-85.5755 -92.1891 64.5767 -86.3948 -91.2819 64.4613 -87.1204 -90.6786 64.4557 
-78.3561 -105.66 70.6206 -77.966 -106.566 70.1744 -77.6371 -107.648 69.7387 
-77.4488 -108.287 69.3683 -77.4454 -107.657 69.1518 -77.5647 -106.386 68.6638 
-77.6237 -105.78 67.6713 -77.6293 -105.64 66.7682 -77.7667 -105.133 66.3405 
-86.4943 -90.267 70.2576 -86.7345 -89.5875 69.7397 -86.9283 -89.2733 69.1465 
-87.1613 -89.2429 68.408 -87.5751 -88.8822 67.5268 -88.0599 -88.4807 66.7409 
-88.2148 -88.7714 66.254 -87.9629 -89.4494 65.8372 -87.6589 -89.9556 65.2694 
-87.5447 -96.9897 69.0951 -87.3086 -97.2679 69.5488 -87.1679 -97.7729 69.1635 
-86.7404 -97.3344 69.9193 -86.6153 -97.7853 69.4731 -86.5121 -98.3235 69.0841 
-86.0464 -97.3395 70.4079 -85.8962 -97.7717 69.8683 -85.8208 -98.3134 69.4306 
-85.8093 -98.9138 69.0296 -85.4756 -97.5166 70.9518 -85.3487 -97.9616 70.4568 
-85.3039 -98.5135 70.0247 -85.2872 -99.1088 69.5417 -85.1919 -99.6596 69.1038 
-85.0095 -97.8679 71.5334 -84.9325 -98.3037 71.0163 -84.908 -98.8553 70.6304 
-84.824 -99.3758 70.1517 -84.7519 -99.9454 69.6474 -84.6016 -100.46 69.2165 
-84.657 -98.298 72.2094 -84.5482 -98.6726 71.6469 -84.458 -99.178 71.1396 
-84.2585 -99.6333 70.6176 -84.0907 -100.077 70.0879 -84.1245 -100.718 69.6868 
-84.1048 -101.292 69.2628 -84.3005 -98.6613 72.7828 -84.1876 -99.0095 72.318 
-84.0319 -99.4493 71.7669 -83.795 -99.9304 71.151 -83.4913 -100.279 70.4976 
-83.424 -100.748 70.0233 -83.5801 -101.436 69.6696 -83.5945 -101.953 69.2044 
-87.7993 -95.4502 69.1024 -87.8295 -94.7641 69.3719 -87.5972 -95.8611 69.7218 
-87.8059 -94.0149 69.724 -87.5108 -95.1209 70.0659 -87.3097 -96.2626 70.4262 
-87.6571 -93.3456 69.9941 -87.3772 -94.3833 70.3411 -87.2728 -95.6052 70.8348 
-86.9718 -96.546 71.1006 -87.443 -92.7283 70.1961 -87.202 -93.7488 70.5275 
-87.1707 -94.8987 71.077 -87.0065 -95.9968 71.4873 -86.4596 -96.7136 71.6066 
-87.2964 -92.0741 70.5244 -87.1292 -93.0831 70.904 -87.0464 -94.163 71.4548 
-86.8191 -95.2394 71.7844 -86.3651 -96.1325 71.914 -85.7496 -96.8572 72.021 
-87.0999 -91.5966 70.887 -87.1036 -92.4233 71.4036 -87.0424 -93.4486 72.0421 
-86.6973 -94.4708 72.3055 -86.1457 -95.3646 72.2057 -85.6169 -96.2335 72.2545 
-85.1469 -97.1263 72.4703 -86.7022 -91.398 71.1021 -86.8206 -91.9899 71.6825 
-86.9151 -92.8864 72.3675 -86.7035 -93.8903 72.7386 -86.1526 -94.77 72.622 
-85.5683 -95.6321 72.5196 -85.0758 -96.5796 72.6877 -84.65 -97.4911 72.9132 
-85.7625 -91.3886 71.7249 -85.3213 -91.5253 72.3095 -85.8256 -92.0008 72.2414 
-84.8321 -91.8877 72.8227 -85.3033 -92.329 72.6954 -85.8621 -92.8716 72.6338 
-84.2376 -92.5971 73.0398 -84.7231 -92.8443 73.0594 -85.0882 -93.2342 72.8989 
-85.6637 -93.8068 72.8327 -83.5005 -93.4838 73.0666 -84.0696 -93.6853 73.2251 
-84.3451 -93.8741 73.23 -84.7442 -94.3063 73.1562 -85.3241 -94.8698 73.0831 
-82.654 -94.2788 73.2137 -83.2155 -94.6019 73.3934 -83.7053 -94.8423 73.5289 
-84.0967 -95.1461 73.6858 -84.5671 -95.6447 73.7464 -84.9501 -96.0173 73.4889 
-82.0242 -95.0125 73.3355 -82.3191 -95.3038 73.6778 -82.8672 -95.5792 73.9284 
-83.5722 -95.8498 74.1942 -84.0932 -96.2858 74.4031 -84.3031 -96.7021 74.2317 
[...]
POINT_DATA 1002
FIELD FieldData 2
Theta 1 1002 float
2.58802 2.58802 0.553574 0.553574 2.12437 1.01722 2.12437 1.01722 1.5708 
1.5708 1.5708 1.5708 2.68241 2.78649 2.89924 3.01861 3.14159 3.01861 
2.89924 2.78649 2.68241 2.61035 2.61791 2.60515 2.56958 2.51327 2.44184 
2.36202 2.27983 2.1997 2.61035 2.61791 2.60515 2.56958 2.51327 2.44184 
2.36202 2.27983 2.1997 2.50947 2.41899 2.31794 2.20864 2.0944 1.97902 
1.86631 1.75944 1.66056 2.50947 2.41899 2.31794 2.20864 2.0944 1.97902 
1.86631 1.75944 1.66056 2.61035 2.61791 2.60515 2.56958 2.51327 2.44184 
2.36202 2.27983 2.1997 2.61035 2.61791 2.60515 2.56958 2.51327 2.44184 
2.36202 2.27983 2.1997 2.50947 2.41899 2.31794 2.20864 2.0944 1.97902 
1.86631 1.75944 1.66056 2.50947 2.41899 2.31794 2.20864 2.0944 1.97902 
1.86631 1.75944 1.66056 0.459179 0.355101 0.242354 0.122983 0 0.122983 
0.242354 0.355101 0.459179 0.531246 0.523681 0.536438 0.57201 0.628319 0.699757 
0.779574 0.86176 0.941896 0.531246 0.523681 0.536438 0.57201 0.628319 0.699757 
0.779574 0.86176 0.941896 0.632123 0.7226 0.823657 0.932948 1.0472 1.16257 
1.27528 1.38216 1.48103 0.632123 0.7226 0.823657 0.932948 1.0472 1.16257 
1.27528 1.38216 1.48103 0.531246 0.523681 0.536438 0.57201 0.628319 0.699757 
0.779574 0.86176 0.941896 0.531246 0.523681 0.536438 0.57201 0.628319 0.699757 
0.779574 0.86176 0.941896 0.632123 0.7226 0.823657 0.932948 1.0472 1.16257 
1.27528 1.38216 1.48103 0.632123 0.7226 0.823657 0.932948 1.0472 1.16257 
1.27528 1.38216 1.48103 2.02998 1.9259 1.81315 1.69378 1.5708 1.44781 
1.32844 1.2157 1.11162 2.0928 2.05283 2.00422 1.94767 1.88496 1.81867 
1.75177 1.68695 1.62623 2.0928 2.05283 2.00422 1.94767 1.88496 1.81867 
1.75177 1.68695 1.62623 1.0488 1.08876 1.13737 1.19392 1.25664 1.32292 
1.38982 1.45464 1.51537 1.0488 1.08876 1.13737 1.19392 1.25664 1.32292 
1.38982 1.45464 1.51537 2.02998 1.9259 1.81315 1.69378 1.5708 1.44781 
1.32844 1.2157 1.11162 2.0928 2.05283 2.00422 1.94767 1.88496 1.81867 
1.75177 1.68695 1.62623 2.0928 2.05283 2.00422 1.94767 1.88496 1.81867 
1.75177 1.68695 1.62623 1.0488 1.08876 1.13737 1.19392 1.25664 1.32292 
1.38982 1.45464 1.51537 1.0488 1.08876 1.13737 1.19392 1.25664 1.32292 
1.38982 1.45464 1.51537 1.5708 1.5708 1.5708 1.5708 1.5708 1.5708 
1.5708 1.5708 1.5708 1.5708 1.5708 1.5708 1.5708 1.5708 1.5708 
1.5708 1.5708 1.5708 2.70908 2.71362 2.81592 2.68886 2.81002 2.92597 
2.6349 2.76254 2.89233 3.01997 2.55881 2.68262 2.80854 2.92834 3.01997 
2.47007 2.58462 2.70048 2.80854 2.89233 2.92597 2.37702 2.48017 2.58462 
2.68262 2.76254 2.81002 2.81592 2.28567 2.37702 2.47007 2.55881 2.6349 
2.68886 2.71362 2.70908 2.52097 2.4195 2.51718 2.30791 2.40503 2.49426 
2.18928 2.28408 2.3734 2.45144 2.06758 2.15805 2.24572 2.32523 2.39165 
1.94707 2.03138 2.11543 2.19453 2.26401 2.32035 1.83164 1.90847 1.98711 
2.06376 2.13422 2.1949 2.24359 1.72413 1.79288 1.86489 1.93728 2.00658 
2.06938 2.12312 2.16654 1.5708 1.50988 1.63171 1.44492 1.5708 1.69667 
1.37826 1.5059 1.63569 1.76333 1.31281 1.43962 1.5708 1.70197 1.82878 
1.25155 1.37501 1.50478 1.63681 1.76659 1.89004 1.19686 1.31493 1.44074 
1.5708 1.70086 1.82666 1.94473 1.15011 1.26149 1.38136 1.50697 1.63462 
1.76024 1.88011 1.99148 1.99148 1.88011 1.94473 1.76024 1.82666 1.89004 
1.63462 1.70086 1.76659 1.82878 1.50697 1.5708 1.63681 1.70197 1.76333 
1.38136 1.44074 1.50478 1.5708 1.63569 1.69667 1.26149 1.31493 1.37501 
1.43962 1.5059 1.5708 1.63171 1.15011 1.19686 1.25155 1.31281 1.37826 
1.44492 1.50988 1.5708 2.16654 2.12312 2.24359 2.06938 2.1949 2.32035 
2.00658 2.13422 2.26401 2.39165 1.93728 2.06376 2.19453 2.32523 2.45144 
1.86489 1.98711 2.11543 2.24572 2.3734 2.49426 1.79288 1.90847 2.03138 
2.15805 2.28408 2.40503 2.51718 1.72413 1.83164 1.94707 2.06758 2.18928 
2.30791 2.4195 2.52097 1.66533 1.66946 1.76911 1.67254 1.777 1.88041 
1.67418 1.78222 1.89102 1.99634 1.67418 1.78405 1.89674 2.00785 2.11299 
1.67254 1.78222 1.89674 2.01191 2.12307 2.22608 1.66946 1.777 1.89102 
2.00785 2.12307 2.23222 2.33166 1.66533 1.76911 1.88041 1.99634 2.11299 
2.22608 2.33166 2.42672 1.47626 1.37249 1.47213 1.26118 1.36459 1.46906 
1.14526 1.25058 1.35938 1.46741 1.0286 1.13374 1.24485 1.35755 1.46741 
0.915514 1.01852 1.12969 1.24485 1.35938 1.46906 0.809937 0.909371 1.01852 
1.13374 1.25058 1.36459 1.47213 0.714871 0.809937 0.915514 1.0286 1.14526 
1.26118 1.37249 1.47626 0.975055 0.898002 1.01847 0.821245 0.946693 1.07221 
0.749941 0.877585 1.00737 1.13501 0.690152 0.816367 0.94706 1.07784 1.20431 
0.647337 0.768195 0.895868 1.02616 1.15448 1.2767 0.624416 0.736561 0.857515 
0.983547 1.11021 1.23313 1.34871 0.620619 0.722093 0.833684 0.952313 1.07402 
1.19452 1.30996 1.41746 0.855925 0.764569 0.764569 0.671524 0.661425 0.671524 
0.582786 0.556971 0.556971 0.582786 0.506696 0.458968 0.441109 0.458968 0.506696 
0.45273 0.379052 0.333054 0.333054 0.379052 0.45273 0.427969 0.331576 0.249267 
0.21325 0.249267 0.331576 0.427969 0.432512 0.325669 0.215619 0.121622 0.121622 
0.215619 0.325669 0.432512 0.432512 0.427969 0.325669 0.45273 0.331576 0.215619 
0.506696 0.379052 0.249267 0.121622 0.582786 0.458968 0.333054 0.21325 0.121622 
0.671524 0.556971 0.441109 0.333054 0.249267 0.215619 0.764569 0.661425 0.556971 
0.458968 0.379052 0.331576 0.325669 0.855925 0.764569 0.671524 0.582786 0.506696 
0.45273 0.427969 0.432512 0.975055 1.01847 0.898002 1.07221 0.946693 0.821245 
1.13501 1.00737 0.877585 0.749941 1.20431 1.07784 0.94706 0.816367 0.690152 
1.2767 1.15448 1.02616 0.895868 0.768195 0.647337 1.34871 1.23313 1.11021 
0.983547 0.857515 0.736561 0.624416 1.41746 1.30996 1.19452 1.07402 0.952313 
0.833684 0.722093 0.620619 1.15011 1.26149 1.19686 1.38136 1.31493 1.25155 
1.50697 1.44074 1.37501 1.31281 1.63462 1.5708 1.50478 1.43962 1.37826 
1.76024 1.70086 1.63681 1.5708 1.5059 1.44492 1.88011 1.82666 1.76659 
1.70197 1.63569 1.5708 1.50988 1.99148 1.94473 1.89004 1.82878 1.76333 
1.69667 1.63171 1.5708 1.15011 1.19686 1.26149 1.25155 1.31493 1.38136 
1.31281 1.37501 1.44074 1.50697 1.37826 1.43962 1.50478 1.5708 1.63462 
1.44492 1.5059 1.5708 1.63681 1.70086 1.76024 1.50988 1.5708 1.63569 
1.70197 1.76659 1.82666 1.88011 1.5708 1.63171 1.69667 1.76333 1.82878 
1.89004 1.94473 1.99148 1.72413 1.83164 1.79288 1.94707 1.90847 1.86489 
2.06758 2.03138 1.98711 1.93728 2.18928 2.15805 2.11543 2.06376 2.00658 
2.30791 2.28408 2.24572 2.19453 2.13422 2.06938 2.4195 2.40503 2.3734 
2.32523 2.26401 2.1949 2.12312 2.52097 2.51718 2.49426 2.45144 2.39165 
2.32035 2.24359 2.16654 2.70908 2.81592 2.71362 2.92597 2.81002 2.68886 
3.01997 2.89233 2.76254 2.6349 3.01997 2.92834 2.80854 2.68262 2.55881 
2.92597 2.89233 2.80854 2.70048 2.58462 2.47007 2.81592 2.81002 2.76254 
2.68262 2.58462 2.48017 2.37702 2.70908 2.71362 2.68886 2.6349 2.55881 
2.47007 2.37702 2.28567 2.16654 2.24359 2.12312 2.32035 2.1949 2.06938 
2.39165 2.26401 2.13422 2.00658 2.45144 2.32523 2.19453 2.06376 1.93728 
2.49426 2.3734 2.24572 2.11543 1.98711 1.86489 2.51718 2.40503 2.28408 
2.15805 2.03138 1.90847 1.79288 2.52097 2.4195 2.30791 2.18928 2.06758 
1.94707 1.83164 1.72413 1.66533 1.76911 1.66946 1.88041 1.777 1.67254 
1.99634 1.89102 1.78222 1.67418 2.11299 2.00785 1.89674 1.78405 1.67418 
2.22608 2.12307 2.01191 1.89674 1.78222 1.67254 2.33166 2.23222 2.12307 
2.00785 1.89102 1.777 1.66946 2.42672 2.33166 2.22608 2.11299 1.99634 
1.88041 1.76911 1.66533 1.47626 1.47213 1.37249 1.46906 1.36459 1.26118 
1.46741 1.35938 1.25058 1.14526 1.46741 1.35755 1.24485 1.13374 1.0286 
1.46906 1.35938 1.24485 1.12969 1.01852 0.915514 1.47213 1.36459 1.25058 
1.13374 1.01852 0.909371 0.809937 1.47626 1.37249 1.26118 1.14526 1.0286 
0.915514 0.809937 0.714871 1.41746 1.30996 1.34871 1.19452 1.23313 1.2767 
1.07402 1.11021 1.15448 1.20431 0.952313 0.983547 1.02616 1.07784 1.13501 
0.833684 0.857515 0.895868 0.94706 1.00737 1.07221 0.722093 0.736561 0.768195 
0.816367 0.877585 0.946693 1.01847 0.620619 0.624416 0.647337 0.690152 0.749941 
0.821245 0.898002 0.975055 0.975055 0.898002 1.01847 0.821245 0.946693 1.07221 
0.749941 0.877585 1.00737 1.13501 0.690152 0.816367 0.94706 1.07784 1.20431 
0.647337 0.768195 0.895868 1.02616 1.15448 1.2767 0.624416 0.736561 0.857515 
0.983547 1.11021 1.23313 1.34871 0.620619 0.722093 0.833684 0.952313 1.07402 
1.19452 1.30996 1.41746 
Phi 1 1002 float
6.28319 3.14159 6.28319 3.14159 4.71239 4.71239 1.5708 1.5708 3.69517 
5.72961 2.58802 0.553574 6.28319 6.28319 6.28319 6.28319 3.14159 3.14159 
3.14159 3.14159 3.14159 6.1053 5.8988 5.67687 5.45995 5.26596 5.10322 
4.97131 4.86569 4.78095 0.177881 0.384387 0.606312 0.823235 1.01722 1.17997 
1.31187 1.4175 1.50223 6.18928 6.10703 6.03531 5.97283 5.91832 5.87061 
5.82869 5.79168 5.75886 0.0939024 0.176153 0.247873 0.310351 0.364864 0.412573 
0.454497 0.491504 0.524326 3.31947 3.52598 3.7479 3.96483 4.15881 4.32156 
4.45346 4.55909 4.64383 2.96371 2.75721 2.53528 2.31836 2.12437 1.96162 
1.82972 1.72409 1.63936 3.2355 3.31775 3.38947 3.45194 3.50646 3.55417 
3.59609 3.6331 3.66592 3.04769 2.96544 2.89372 2.83124 2.77673 2.72902 
2.6871 2.65009 2.61727 6.28319 6.28319 6.28319 6.28319 3.14159 3.14159 
3.14159 3.14159 3.14159 6.1053 5.8988 5.67687 5.45995 5.26596 5.10322 
4.97131 4.86569 4.78095 0.177881 0.384387 0.606312 0.823235 1.01722 1.17997 
1.31187 1.4175 1.50223 6.18928 6.10703 6.03531 5.97283 5.91832 5.87061 
5.82869 5.79168 5.75886 0.0939024 0.176153 0.247873 0.310351 0.364864 0.412573 
0.454497 0.491504 0.524326 3.31947 3.52598 3.7479 3.96483 4.15881 4.32156 
4.45346 4.55909 4.64383 2.96371 2.75721 2.53528 2.31836 2.12437 1.96162 
1.82972 1.72409 1.63936 3.2355 3.31775 3.38947 3.45194 3.50646 3.55417 
3.59609 3.6331 3.66592 3.04769 2.96544 2.89372 2.83124 2.77673 2.72902 
2.6871 2.65009 2.61727 4.71239 4.71239 4.71239 4.71239 4.71239 4.71239 
4.71239 4.71239 4.71239 4.60879 4.49914 4.3857 4.27128 4.15881 4.05096 
3.94976 3.85646 3.77161 4.81599 4.92564 5.03907 5.1535 5.26596 5.37381 
5.47502 5.56831 5.65317 4.60879 4.49914 4.3857 4.27128 4.15881 4.05096 
3.94976 3.85646 3.77161 4.81599 4.92564 5.03907 5.1535 5.26596 5.37381 
5.47502 5.56831 5.65317 1.5708 1.5708 1.5708 1.5708 1.5708 1.5708 
1.5708 1.5708 1.5708 1.6744 1.78405 1.89748 2.01191 2.12437 2.23222 
2.33343 2.42672 2.51157 1.4672 1.35755 1.24411 1.12969 1.01722 0.909371 
0.808166 0.714871 0.63002 1.6744 1.78405 1.89748 2.01191 2.12437 2.23222 
2.33343 2.42672 2.51157 1.4672 1.35755 1.24411 1.12969 1.01722 0.909371 
0.808166 0.714871 0.63002 3.60077 3.49669 3.38395 3.26458 3.14159 3.01861 
2.89924 2.78649 2.68241 5.82401 5.92808 6.04083 6.1602 6.28319 0.122983 
0.242354 0.355101 0.459179 6.05603 5.78856 5.97021 5.51259 5.60297 5.78856 
5.26596 5.26596 5.26596 5.26596 5.06749 5.0121 4.91556 4.71239 4.15881 
4.91556 4.83537 4.71239 4.50922 4.15881 3.63622 4.80045 4.71239 4.58941 
4.41268 4.15881 3.82181 3.45456 4.71239 4.62433 4.50922 4.35729 4.15881 
3.91219 3.63622 3.36875 6.01742 5.94343 5.82633 5.88092 5.76745 5.62798 
5.8278 5.71897 5.58911 5.43724 5.78235 5.67854 5.55757 5.41926 5.26596 
5.74316 5.64441 5.5315 5.40467 5.26596 5.11955 5.70914 5.61528 5.50962 
5.3926 5.26596 5.13292 4.99789 5.67937 5.59016 5.49102 5.38246 5.26596 
5.14407 5.02016 4.89798 5.56831 5.47502 5.47502 5.37381 5.37381 5.37381 
5.26596 5.26596 5.26596 5.26596 5.1535 5.1535 5.1535 5.1535 5.1535 
5.03907 5.03907 5.03907 5.03907 5.03907 5.03907 4.92564 4.92564 4.92564 
4.92564 4.92564 4.92564 4.92564 4.81599 4.81599 4.81599 4.81599 4.81599 
4.81599 4.81599 4.81599 4.60879 4.60879 4.49914 4.60879 4.49914 4.3857 
4.60879 4.49914 4.3857 4.27128 4.60879 4.49914 4.3857 4.27128 4.15881 
4.60879 4.49914 4.3857 4.27128 4.15881 4.05096 4.60879 4.49914 4.3857 
4.27128 4.15881 4.05096 3.94976 4.60879 4.49914 4.3857 4.27128 4.15881 
4.05096 3.94976 3.85646 4.5268 4.40462 4.42689 4.28071 4.29185 4.30523 
4.15881 4.15881 4.15881 4.15881 4.04232 4.03217 4.02011 4.00552 3.98753 
3.93376 3.91515 3.89328 3.86721 3.83566 3.7968 3.83461 3.8095 3.78037 
3.74624 3.70581 3.65733 3.59845 3.7454 3.71564 3.68161 3.64243 3.59698 
3.54386 3.48135 3.40735 3.56428 3.45246 3.52338 3.33203 3.40312 3.47739 
3.20576 3.27463 3.34802 3.42551 3.07742 3.14159 3.21128 3.28647 3.36688 
2.95116 3.00855 3.0719 3.14159 3.21784 3.3006 2.83072 2.88006 2.93517 
2.99672 3.06535 3.14159 3.22575 2.7189 2.7598 2.8058 2.85768 2.9163 
2.98259 3.05743 3.14159 3.56428 3.52338 3.45246 3.47739 3.40312 3.33203 
3.42551 3.34802 3.27463 3.20576 3.36688 3.28647 3.21128 3.14159 3.07742 
3.3006 3.21784 3.14159 3.0719 3.00855 2.95116 3.22575 3.14159 3.06535 
2.99672 2.93517 2.88006 2.83072 3.14159 3.05743 2.98259 2.9163 2.85768 
2.8058 2.7598 2.7189 4.5268 4.42689 4.40462 4.30523 4.29185 4.28071 
4.15881 4.15881 4.15881 4.15881 3.98753 4.00552 4.02011 4.03217 4.04232 
3.7968 3.83566 3.86721 3.89328 3.91515 3.93376 3.59845 3.65733 3.70581 
3.74624 3.78037 3.8095 3.83461 3.40735 3.48135 3.54386 3.59698 3.64243 
3.68161 3.71564 3.7454 4.71239 4.80045 4.62433 4.91556 4.71239 4.50922 
5.06749 4.83537 4.58941 4.35729 5.26596 5.0121 4.71239 4.41268 4.15881 
5.51259 5.26596 4.91556 4.50922 4.15881 3.91219 5.78856 5.60297 5.26596 
4.71239 4.15881 3.82181 3.63622 6.05603 5.97021 5.78856 5.26596 4.15881 
3.63622 3.45456 3.36875 0.227158 0.494626 0.312971 0.770593 0.680215 0.494626 
1.01722 1.01722 1.01722 1.01722 1.2157 1.27109 1.36763 1.5708 2.12437 
1.36763 1.44781 1.5708 1.77397 2.12437 2.64697 1.48273 1.5708 1.69378 
1.8705 2.12437 2.46138 2.82862 1.5708 1.65886 1.77397 1.9259 2.12437 
2.371 2.64697 2.91443 1.75639 1.87857 1.8563 2.00248 1.99133 1.97796 
2.12437 2.12437 2.12437 2.12437 2.24087 2.25101 2.26308 2.27767 2.29565 
2.34943 2.36803 2.38991 2.41597 2.44752 2.48639 2.44857 2.47368 2.50281 
2.53694 2.57738 2.62586 2.68474 2.53778 2.56754 2.60157 2.64076 2.68621 
2.73933 2.80184 2.87583 1.6744 1.6744 1.78405 1.6744 1.78405 1.89748 
1.6744 1.78405 1.89748 2.01191 1.6744 1.78405 1.89748 2.01191 2.12437 
1.6744 1.78405 1.89748 2.01191 2.12437 2.23222 1.6744 1.78405 1.89748 
2.01191 2.12437 2.23222 2.33343 1.6744 1.78405 1.89748 2.01191 2.12437 
2.23222 2.33343 2.42672 1.4672 1.35755 1.4672 1.24411 1.35755 1.4672 
1.12969 1.24411 1.35755 1.4672 1.01722 1.12969 1.24411 1.35755 1.4672 
0.909371 1.01722 1.12969 1.24411 1.35755 1.4672 0.808166 0.909371 1.01722 
1.12969 1.24411 1.35755 1.4672 0.714871 0.808166 0.909371 1.01722 1.12969 
1.24411 1.35755 1.4672 0.603812 0.57405 0.693022 0.540021 0.667908 0.792164 
0.500837 0.638778 0.773562 0.900726 0.455383 0.604649 0.751687 0.890581 1.01722 
0.402264 0.564217 0.725619 0.878514 1.01722 1.13912 0.339753 0.515737 0.694072 
0.863926 1.01722 1.15026 1.26302 0.265762 0.456853 0.655207 0.845941 1.01722 
1.16363 1.28529 1.38521 0.227158 0.312971 0.494626 0.494626 0.680215 0.770593 
1.01722 1.01722 1.01722 1.01722 2.12437 1.5708 1.36763 1.27109 1.2157 
2.64697 2.12437 1.77397 1.5708 1.44781 1.36763 2.82862 2.46138 2.12437 
1.8705 1.69378 1.5708 1.48273 2.91443 2.64697 2.371 2.12437 1.9259 
1.77397 1.65886 1.5708 1.75639 1.8563 1.87857 1.97796 1.99133 2.00248 
2.12437 2.12437 2.12437 2.12437 2.29565 2.27767 2.26308 2.25101 2.24087 
2.48639 2.44752 2.41597 2.38991 2.36803 2.34943 2.68474 2.62586 2.57738 
2.53694 2.50281 2.47368 2.44857 2.87583 2.80184 2.73933 2.68621 2.64076 
2.60157 2.56754 2.53778 5.86049 5.90139 5.97231 5.94739 6.02165 6.09275 
5.99927 6.07676 6.15015 6.21902 6.0579 6.13831 6.2135 0 0.0641696 
6.12418 6.20694 6.28319 0.069689 0.13304 0.190437 6.19903 0 0.0762451 
0.144876 0.206423 0.261531 0.310872 0 0.0841597 0.159004 0.225289 0.283913 
0.335793 0.381792 0.422692 5.86049 5.97231 5.90139 6.09275 6.02165 5.94739 
6.21902 6.15015 6.07676 5.99927 0.0641696 0 6.2135 6.13831 6.0579 
0.190437 0.13304 0.069689 6.28319 6.20694 6.12418 0.310872 0.261531 0.206423 
0.144876 0.0762451 6.28319 6.19903 0.422692 0.381792 0.335793 0.283913 0.225289 
0.159004 0.0841597 0 5.67937 5.70914 5.59016 5.74316 5.61528 5.49102 
5.78235 5.64441 5.50962 5.38246 5.8278 5.67854 5.5315 5.3926 5.26596 
5.88092 5.71897 5.55757 5.40467 5.26596 5.14407 5.94343 5.76745 5.58911 
5.41926 5.26596 5.13292 5.02016 6.01742 5.82633 5.62798 5.43724 5.26596 
5.11955 4.99789 4.89798 1.38521 1.28529 1.26302 1.16363 1.15026 1.13912 
1.01722 1.01722 1.01722 1.01722 0.845941 0.863926 0.878514 0.890581 0.900726 
0.655207 0.694072 0.725619 0.751687 0.773562 0.792164 0.456853 0.515737 0.564217 
0.604649 0.638778 0.667908 0.693022 0.265762 0.339753 0.402264 0.455383 0.500837 
0.540021 0.57405 0.603812 
