# vtk DataFile Version 4.0
vtk output
ASCII
DATASET POLYDATA
POINTS 1002 float
-88.5361 -98.7351 73.7701 -84.1767 -106.408 71.5996 -83.5641 -95.3647 73.7097 
-78.2447 -102.373 71.9378 -84.3544 -102.781 77.8603 -81.6941 -100.736 77.2483 
-86.4523 -101.453 67.562 -81.837 -98.6882 68.2205 -78.7748 -108.316 74.5013 
-87.2503 -94.3051 77.913 -78.7666 -106.896 67.5999 -88.6694 -92.5256 70.6203 
-88.2763 -99.4869 73.7138 -88.0641 -100.521 73.6269 -87.7089 -101.529 73.4308 
-87.1637 -102.21 73.0982 -86.5086 -102.762 72.6518 -85.7339 -103.358 72.2923 
-85.0553 -103.995 72.1548 -84.7688 -104.869 72.0352 -84.6235 -105.836 71.8041 
-88.2505 -98.945 74.1398 -88.0632 -99.4482 74.6576 -87.8234 -100.038 75.1915 
-87.3369 -100.425 75.6035 -86.6304 -100.656 75.9154 -86.0133 -100.985 76.2372 
-85.6208 -101.446 76.651 -85.2498 -101.931 77.1499 -84.7985 -102.388 77.595 
-88.7039 -99.0884 73.4248 -88.7626 -99.399 72.9962 -88.5876 -99.5847 72.3659 
-88.3577 -99.8662 71.5054 -88.1641 -100.318 70.6552 -87.7842 -100.7 70.0292 
-87.3205 -101.021 69.3743 -87.0728 -101.372 68.5268 -86.8816 -101.553 67.8382 
-88.7022 -98.2057 74.0881 -89.0035 -97.743 74.6149 -89.2554 -97.3022 75.2631 
-89.1695 -96.8455 75.7076 -88.7959 -96.3513 75.8873 -88.412 -95.7874 76.136 
-88.071 -95.2325 76.625 -87.7573 -94.8246 77.1742 -87.5109 -94.55 77.6051 
-89.0666 -98.4051 73.6906 -89.7014 -98.0943 73.6092 -90.046 -97.5185 73.3414 
-89.951 -96.6073 72.9428 -89.8663 -95.4897 72.5863 -90.0327 -94.3578 72.1627 
-90.0583 -93.5386 71.6186 -89.7187 -93.1259 71.1636 -89.1975 -92.8348 70.8579 
-84.1796 -106.209 72.2581 -84.1118 -105.87 72.9018 -84.1125 -105.532 73.5152 
-84.2279 -105.279 74.2117 -84.3087 -104.993 75.0075 -84.2402 -104.482 75.6788 
-84.1076 -103.8 76.1428 -84.0711 -103.258 76.6296 -84.1855 -102.977 77.2548 
-84.4064 -106.193 71.0642 -84.3903 -105.668 70.6304 -84.3307 -104.996 70.2623 
-84.5145 -104.449 69.7943 -84.8012 -103.933 69.3233 -84.9927 -103.279 69.0136 
-85.3154 -102.746 68.6445 -85.8339 -102.447 68.1114 -86.2579 -102.066 67.702 
-83.3959 -106.473 71.8836 -82.5325 -106.445 72.1496 -81.9806 -106.804 72.3515 
-81.6442 -107.573 72.639 -81.2849 -108.206 73.0635 -80.9711 -108.503 73.4838 
-80.5393 -108.741 73.8872 -79.8079 -108.908 74.2697 -79.1143 -108.768 74.485 
-83.5891 -106.486 71.1368 -82.8149 -106.393 70.6859 -82.178 -106.575 70.0912 
-81.8046 -107.094 69.4035 -81.3371 -107.368 68.9887 -80.5557 -107.268 68.8027 
-79.8068 -107.269 68.4192 -79.3554 -107.367 67.8986 -79.0617 -107.245 67.6066 
-82.9724 -95.9512 73.5687 -82.2761 -96.5647 73.2898 -81.5833 -97.1222 72.9592 
-80.9704 -97.7772 72.7045 -80.4266 -98.556 72.5798 -79.8609 -99.1979 72.5315 
-79.2671 -99.8068 72.4661 -78.7751 -100.627 72.3664 -78.4521 -101.533 72.2159 
-83.3092 -95.6284 74.1563 -82.9725 -95.9103 74.6259 -82.5844 -96.1938 75.2012 
-82.1863 -96.4805 75.8047 -81.9666 -96.9763 76.2115 -81.9896 -97.8232 76.4186 
-81.9973 -98.7212 76.6322 -81.874 -99.4168 76.8883 -81.7545 -100.049 77.0949 
-83.419 -95.4555 73.1467 -83.246 -95.61 72.478 -83.0764 -95.8747 71.7996 
-82.8703 -96.2292 71.1693 -82.555 -96.5632 70.5583 -82.2102 -96.9288 70.0117 
-82.0241 -97.4725 69.5577 -81.9912 -98.0415 69.1023 -81.9458 -98.4223 68.6313 
-83.9412 -95.0179 74.0606 -84.2646 -94.6908 74.4829 -84.4833 -94.2363 75.0718 
-84.6339 -93.6778 75.7351 -84.8977 -93.3325 76.3664 -85.3547 -93.238 77.007 
-85.8777 -93.1959 77.5477 -86.3905 -93.3347 77.8123 -86.8757 -93.7686 77.8826 
-83.9304 -94.8344 73.4164 -84.1496 -94.1793 73.0589 -84.4793 -93.4843 72.7159 
-85.2167 -93.0808 72.3862 -86.078 -92.9518 72.0271 -86.651 -92.5264 71.5892 
-87.1206 -91.8135 71.0815 -87.6792 -91.5377 70.6977 -88.2041 -91.9156 70.5831 
-78.3086 -102.124 72.5608 -78.5335 -101.934 73.1382 -78.8673 -101.803 73.6768 
-79.1112 -101.59 74.3126 -79.4224 -101.403 74.9419 -80.0629 -101.424 75.3372 
-80.7181 -101.412 75.7 -81.0797 -101.177 76.2548 -81.3494 -100.909 76.8201 
-78.3537 -102.073 71.5459 -78.5272 -101.665 71.0769 -78.6962 -101.129 70.476 
-78.8557 -100.565 69.9589 -79.2134 -100.166 69.6981 -79.7903 -99.9349 69.4421 
-80.3491 -99.7018 69.0526 -80.8593 -99.4057 68.7293 -81.3779 -99.0682 68.4987 
-78.0975 -103.089 71.9314 -77.9588 -103.911 71.8892 -77.8657 -104.709 71.9099 
-77.8714 -105.347 72.0815 -77.9116 -105.954 72.3862 -77.9732 -106.631 72.7944 
-78.1464 -107.175 73.2555 -78.3622 -107.543 73.6824 -78.5376 -107.924 74.0841 
-78.0783 -103.021 71.2655 -77.6562 -103.552 70.6514 -76.9429 -103.867 70.3427 
-76.4401 -104.201 70.0783 -76.5765 -104.835 69.5322 -77.0541 -105.561 69.054 
-77.5197 -106.081 68.841 -77.9861 -106.46 68.4939 -78.422 -106.759 67.9626 
-84.1794 -102.818 78.2789 -83.9516 -102.77 78.6886 -83.5914 -102.737 79.1047 
-83.0181 -102.716 79.4491 -82.2949 -102.389 79.6002 -81.7788 -101.757 79.4305 
-81.73 -101.338 78.8893 -81.8777 -101.222 78.1927 -81.8643 -101.053 77.6293 
-83.7908 -103.227 77.6045 -83.1586 -103.677 77.3061 -82.5662 -104.263 77.1988 
-82.1271 -104.99 77.1429 -81.6972 -105.698 76.7888 -81.0371 -106.368 76.2529 
-80.2983 -107.138 75.8682 -79.6943 -107.859 75.5575 -79.1861 -108.244 75.1011 
-84.6976 -102.211 78.1579 -84.8815 -101.363 78.1744 -85.1422 -100.501 78.1945 
-85.7371 -99.8855 78.505 -86.3535 -99.2115 78.7652 -86.6567 -98.0979 78.6225 
-86.9028 -96.813 78.3889 -87.2152 -95.7585 78.3025 -87.3483 -94.9559 78.1778 
-81.4098 -101.57 77.1412 -81.0382 -102.362 77.0514 -80.4847 -102.94 77.0779 
-79.8539 -103.488 77.1591 -79.482 -104.291 76.941 -79.4488 -105.23 76.2137 
-79.4199 -106.096 75.387 -79.1898 -106.911 74.9376 -78.909 -107.682 74.7566 
-82.0796 -100.144 77.5502 -82.367 -99.4481 77.9602 -82.6111 -98.6269 78.4462 
-83.1506 -97.8679 78.6695 -83.968 -97.1878 78.599 -84.6989 -96.3314 78.651 
-85.4283 -95.4129 78.7889 -86.2689 -94.7853 78.6764 -86.9217 -94.4684 78.3372 
-86.1035 -100.829 67.5115 -85.7905 -100.258 67.3258 -85.6301 -99.9315 66.9302 
-85.2976 -99.6325 66.7612 -84.5332 -99.2316 66.9782 -83.6393 -98.9677 67.1216 
-82.9166 -98.8398 67.1213 -82.3859 -98.7007 67.3306 -82.0443 -98.6355 67.7658 
-85.6794 -101.706 67.5376 -84.8041 -102.111 67.4809 -84.0213 -102.681 67.3579 
-83.2219 -103.343 67.2378 -82.4004 -104.168 66.9847 -81.6704 -105.053 66.7482 
-80.7996 -105.649 66.9459 -79.7932 -106.026 67.3216 -79.083 -106.468 67.4683 
-86.8255 -100.838 67.655 -87.017 -100.127 67.9859 -87.1811 -99.2761 68.6018 
-87.5347 -98.2734 69.2926 -88.0148 -97.2759 69.796 -88.4349 -96.3347 70.1473 
-88.7644 -95.3053 70.4221 -88.9418 -94.2284 70.5404 -88.8832 -93.283 70.5506 
-81.4319 -99.2607 68.0276 -81.0001 -99.9157 67.7651 -80.587 -100.65 67.5082 
-80.1426 -101.521 67.3135 -79.6349 -102.494 67.0727 -79.1412 -103.458 66.8742 
-78.7493 -104.403 66.9864 -78.5562 -105.339 67.3019 -78.6001 -106.194 67.5145 
-82.3214 -98.1137 68.1271 -82.8879 -97.625 68.2233 -83.7031 -97.2902 68.7088 
-84.7188 -96.8555 69.3342 -85.6698 -96.0995 69.7321 -86.4428 -95.2379 69.9964 
-87.0829 -94.4241 70.2671 -87.6615 -93.581 70.4074 -88.2173 -92.8654 70.4469 
-78.5896 -108.633 73.771 -78.4293 -108.957 72.992 -78.2062 -109.252 72.3074 
-78.0001 -109.398 71.4043 -77.9011 -109.254 70.3372 -77.9233 -108.77 69.7075 
-78.1644 -108.199 69.3228 -78.5266 -107.792 68.6541 -78.7304 -107.418 67.9592 
-87.306 -93.9165 77.3386 -87.4862 -93.5982 76.5946 -87.7149 -93.1884 75.824 
-87.8285 -92.6212 75.1186 -87.9773 -92.2378 74.3947 -88.271 -92.2511 73.6219 
-88.4905 -92.3142 72.8092 -88.5896 -92.2117 71.9085 -88.6694 -92.2014 71.0887 
-88.0551 -99.903 74.1881 -87.8491 -100.49 74.7122 -87.8526 -101.072 74.1615 
-87.4989 -100.985 75.1486 -87.5878 -101.61 74.6414 -87.4384 -101.998 73.9483 
-86.8953 -101.258 75.5029 -87.1424 -101.979 75.0238 -87.0816 -102.396 74.4147 
-86.7283 -102.492 73.5321 -86.2042 -101.503 75.8256 -86.4461 -102.167 75.3712 
-86.5208 -102.683 74.8207 -86.1799 -102.792 73.9959 -85.8069 -102.923 73.0136 
-85.653 -101.86 76.1477 -85.6832 -102.337 75.6727 -85.7544 -102.847 75.1666 
-85.5984 -103.13 74.4285 -85.1986 -103.235 73.4847 -85.011 -103.543 72.6778 
-85.1768 -102.25 76.5426 -85.0439 -102.603 75.971 -85.0208 -103.071 75.4826 
-85.0588 -103.529 74.8397 -84.8879 -103.793 73.9822 -84.6582 -104.019 73.1866 
-84.6699 -104.426 72.5786 -84.6697 -102.623 76.9624 -84.5228 -102.932 76.3209 
-84.4936 -103.442 75.8224 -84.6081 -104.035 75.2781 -84.6559 -104.468 74.5064 
-84.5275 -104.725 73.7155 -84.4573 -105.032 73.0725 -84.5533 -105.465 72.4608 
-88.419 -98.4808 74.5084 -88.6309 -98.0613 75.0754 -88.1839 -99.0485 75.0817 
-88.607 -97.5484 75.6648 -88.193 -98.5941 75.609 -87.836 -99.627 75.6172 
-88.3397 -97.0772 76.0466 -87.9806 -98.0438 76.104 -87.7294 -99.1621 76.0562 
-87.2132 -99.9771 75.9794 -88.1239 -96.7104 76.3838 -87.8333 -97.6846 76.6009 
-87.6243 -98.7359 76.6328 -87.1091 -99.5786 76.451 -86.4225 -100.218 76.2999 
-87.9516 -96.2045 76.9046 -87.8085 -97.3666 77.1842 -87.6832 -98.4821 77.4135 
-87.193 -99.3044 77.2737 -86.3624 -99.8676 76.9043 -85.8359 -100.579 76.7187 
-87.7183 -95.6185 77.4707 -87.6313 -96.7685 77.691 -87.5928 -98.0728 78.0097 
-87.3149 -99.1048 78.1359 -86.5244 -99.676 77.7541 -85.7814 -100.239 77.3358 
-85.4856 -101.099 77.2308 -87.5324 -95.2141 77.8906 -87.3936 -96.153 78.0284 
-87.2376 -97.4107 78.2322 -87.0948 -98.7018 78.5208 -86.5941 -99.5442 78.4221 
-85.8152 -100.052 77.9668 -85.3295 -100.772 77.7455 -85.1156 -101.679 77.7546 
-86.9334 -95.2595 78.5457 -86.1394 -95.715 78.838 -86.6433 -96.2039 78.6411 
-85.2453 -96.4636 78.8795 -85.8224 -96.7915 78.9594 -86.2631 -97.3742 78.7867 
-84.4801 -97.4023 78.7625 -85.0395 -97.5425 79.0773 -85.5623 -97.9459 79.2146 
-85.976 -98.6137 79.0294 -83.6402 -98.1835 78.8367 -84.247 -98.2982 79.1121 
-84.8655 -98.4913 79.4434 -85.256 -98.9957 79.4246 -85.4995 -99.5569 79.0036 
-82.8433 -98.8275 78.8849 -83.2715 -98.931 79.2276 -83.9504 -99.0992 79.4996 
-84.503 -99.497 79.5791 -84.7052 -99.959 79.2592 -84.8757 -100.301 78.6949 
-82.4158 -99.5712 78.551 -82.4608 -99.6077 79.1479 -82.8412 -99.8156 79.5181 
[...]
POINT_DATA 1002
FIELD FieldData 2
Theta 1 1002 float
2.58802 2.58802 0.553574 0.553574 2.12437 1.01722 2.12437 1.01722 1.5708 
1.5708 1.5708 1.5708 2.68241 2.78649 2.89924 3.01861 3.14159 3.01861 
2.89924 2.78649 2.68241 2.61035 2.61791 2.60515 2.56958 2.51327 2.44184 
2.36202 2.27983 2.1997 2.61035 2.61791 2.60515 2.56958 2.51327 2.44184 
2.36202 2.27983 2.1997 2.50947 2.41899 2.31794 2.20864 2.0944 1.97902 
1.86631 1.75944 1.66056 2.50947 2.41899 2.31794 2.20864 2.0944 1.97902 
1.86631 1.75944 1.66056 2.61035 2.61791 2.60515 2.56958 2.51327 2.44184 
2.36202 2.27983 2.1997 2.61035 2.61791 2.60515 2.56958 2.51327 2.44184 
2.36202 2.27983 2.1997 2.50947 2.41899 2.31794 2.20864 2.0944 1.97902 
1.86631 1.75944 1.66056 2.50947 2.41899 2.31794 2.20864 2.0944 1.97902 
1.86631 1.75944 1.66056 0.459179 0.355101 0.242354 0.122983 0 0.122983 
0.242354 0.355101 0.459179 0.531246 0.523681 0.536438 0.57201 0.628319 0.699757 
0.779574 0.86176 0.941896 0.531246 0.523681 0.536438 0.57201 0.628319 0.699757 
0.779574 0.86176 0.941896 0.632123 0.7226 0.823657 0.932948 1.0472 1.16257 
1.27528 1.38216 1.48103 0.632123 0.7226 0.823657 0.932948 1.0472 1.16257 
1.27528 1.38216 1.48103 0.531246 0.523681 0.536438 0.57201 0.628319 0.699757 
0.779574 0.86176 0.941896 0.531246 0.523681 0.536438 0.57201 0.628319 0.699757 
0.779574 0.86176 0.941896 0.632123 0.7226 0.823657 0.932948 1.0472 1.16257 
1.27528 1.38216 1.48103 0.632123 0.7226 0.823657 0.932948 1.0472 1.16257 
1.27528 1.38216 1.48103 2.02998 1.9259 1.81315 1.69378 1.5708 1.44781 
1.32844 1.2157 1.11162 2.0928 2.05283 2.00422 1.94767 1.88496 1.81867 
1.75177 1.68695 1.62623 2.0928 2.05283 2.00422 1.94767 1.88496 1.81867 
1.75177 1.68695 1.62623 1.0488 1.08876 1.13737 1.19392 1.25664 1.32292 
1.38982 1.45464 1.51537 1.0488 1.08876 1.13737 1.19392 1.25664 1.32292 
1.38982 1.45464 1.51537 2.02998 1.9259 1.81315 1.69378 1.5708 1.44781 
1.32844 1.2157 1.11162 2.0928 2.05283 2.00422 1.94767 1.88496 1.81867 
1.75177 1.68695 1.62623 2.0928 2.05283 2.00422 1.94767 1.88496 1.81867 
1.75177 1.68695 1.62623 1.0488 1.08876 1.13737 1.19392 1.25664 1.32292 
1.38982 1.45464 1.51537 1.0488 1.08876 1.13737 1.19392 1.25664 1.32292 
1.38982 1.45464 1.51537 1.5708 1.5708 1.5708 1.5708 1.5708 1.5708 
1.5708 1.5708 1.5708 1.5708 1.5708 1.5708 1.5708 1.5708 1.5708 
1.5708 1.5708 1.5708 2.70908 2.71362 2.81592 2.68886 2.81002 2.92597 
2.6349 2.76254 2.89233 3.01997 2.55881 2.68262 2.80854 2.92834 3.01997 
2.47007 2.58462 2.70048 2.80854 2.89233 2.92597 2.37702 2.48017 2.58462 
2.68262 2.76254 2.81002 2.81592 2.28567 2.37702 2.47007 2.55881 2.6349 
2.68886 2.71362 2.70908 2.52097 2.4195 2.51718 2.30791 2.40503 2.49426 
2.18928 2.28408 2.3734 2.45144 2.06758 2.15805 2.24572 2.32523 2.39165 
1.94707 2.03138 2.11543 2.19453 2.26401 2.32035 1.83164 1.90847 1.98711 
2.06376 2.13422 2.1949 2.24359 1.72413 1.79288 1.86489 1.93728 2.00658 
2.06938 2.12312 2.16654 1.5708 1.50988 1.63171 1.44492 1.5708 1.69667 
1.37826 1.5059 1.63569 1.76333 1.31281 1.43962 1.5708 1.70197 1.82878 
1.25155 1.37501 1.50478 1.63681 1.76659 1.89004 1.19686 1.31493 1.44074 
1.5708 1.70086 1.82666 1.94473 1.15011 1.26149 1.38136 1.50697 1.63462 
1.76024 1.88011 1.99148 1.99148 1.88011 1.94473 1.76024 1.82666 1.89004 
1.63462 1.70086 1.76659 1.82878 1.50697 1.5708 1.63681 1.70197 1.76333 
1.38136 1.44074 1.50478 1.5708 1.63569 1.69667 1.26149 1.31493 1.37501 
1.43962 1.5059 1.5708 1.63171 1.15011 1.19686 1.25155 1.31281 1.37826 
1.44492 1.50988 1.5708 2.16654 2.12312 2.24359 2.06938 2.1949 2.32035 
2.00658 2.13422 2.26401 2.39165 1.93728 2.06376 2.19453 2.32523 2.45144 
1.86489 1.98711 2.11543 2.24572 2.3734 2.49426 1.79288 1.90847 2.03138 
2.15805 2.28408 2.40503 2.51718 1.72413 1.83164 1.94707 2.06758 2.18928 
2.30791 2.4195 2.52097 1.66533 1.66946 1.76911 1.67254 1.777 1.88041 
1.67418 1.78222 1.89102 1.99634 1.67418 1.78405 1.89674 2.00785 2.11299 
1.67254 1.78222 1.89674 2.01191 2.12307 2.22608 1.66946 1.777 1.89102 
2.00785 2.12307 2.23222 2.33166 1.66533 1.76911 1.88041 1.99634 2.11299 
2.22608 2.33166 2.42672 1.47626 1.37249 1.47213 1.26118 1.36459 1.46906 
1.14526 1.25058 1.35938 1.46741 1.0286 1.13374 1.24485 1.35755 1.46741 
0.915514 1.01852 1.12969 1.24485 1.35938 1.46906 0.809937 0.909371 1.01852 
1.13374 1.25058 1.36459 1.47213 0.714871 0.809937 0.915514 1.0286 1.14526 
1.26118 1.37249 1.47626 0.975055 0.898002 1.01847 0.821245 0.946693 1.07221 
0.749941 0.877585 1.00737 1.13501 0.690152 0.816367 0.94706 1.07784 1.20431 
0.647337 0.768195 0.895868 1.02616 1.15448 1.2767 0.624416 0.736561 0.857515 
0.983547 1.11021 1.23313 1.34871 0.620619 0.722093 0.833684 0.952313 1.07402 
1.19452 1.30996 1.41746 0.855925 0.764569 0.764569 0.671524 0.661425 0.671524 
0.582786 0.556971 0.556971 0.582786 0.506696 0.458968 0.441109 0.458968 0.506696 
0.45273 0.379052 0.333054 0.333054 0.379052 0.45273 0.427969 0.331576 0.249267 
0.21325 0.249267 0.331576 0.427969 0.432512 0.325669 0.215619 0.121622 0.121622 
0.215619 0.325669 0.432512 0.432512 0.427969 0.325669 0.45273 0.331576 0.215619 
0.506696 0.379052 0.249267 0.121622 0.582786 0.458968 0.333054 0.21325 0.121622 
0.671524 0.556971 0.441109 0.333054 0.249267 0.215619 0.764569 0.661425 0.556971 
0.458968 0.379052 0.331576 0.325669 0.855925 0.764569 0.671524 0.582786 0.506696 
0.45273 0.427969 0.432512 0.975055 1.01847 0.898002 1.07221 0.946693 0.821245 
1.13501 1.00737 0.877585 0.749941 1.20431 1.07784 0.94706 0.816367 0.690152 
1.2767 1.15448 1.02616 0.895868 0.768195 0.647337 1.34871 1.23313 1.11021 
0.983547 0.857515 0.736561 0.624416 1.41746 1.30996 1.19452 1.07402 0.952313 
0.833684 0.722093 0.620619 1.15011 1.26149 1.19686 1.38136 1.31493 1.25155 
1.50697 1.44074 1.37501 1.31281 1.63462 1.5708 1.50478 1.43962 1.37826 
1.76024 1.70086 1.63681 1.5708 1.5059 1.44492 1.88011 1.82666 1.76659 
1.70197 1.63569 1.5708 1.50988 1.99148 1.94473 1.89004 1.82878 1.76333 
1.69667 1.63171 1.5708 1.15011 1.19686 1.26149 1.25155 1.31493 1.38136 
1.31281 1.37501 1.44074 1.50697 1.37826 1.43962 1.50478 1.5708 1.63462 
1.44492 1.5059 1.5708 1.63681 1.70086 1.76024 1.50988 1.5708 1.63569 
1.70197 1.76659 1.82666 1.88011 1.5708 1.63171 1.69667 1.76333 1.82878 
1.89004 1.94473 1.99148 1.72413 1.83164 1.79288 1.94707 1.90847 1.86489 
2.06758 2.03138 1.98711 1.93728 2.18928 2.15805 2.11543 2.06376 2.00658 
2.30791 2.28408 2.24572 2.19453 2.13422 2.06938 2.4195 2.40503 2.3734 
2.32523 2.26401 2.1949 2.12312 2.52097 2.51718 2.49426 2.45144 2.39165 
2.32035 2.24359 2.16654 2.70908 2.81592 2.71362 2.92597 2.81002 2.68886 
3.01997 2.89233 2.76254 2.6349 3.01997 2.92834 2.80854 2.68262 2.55881 
2.92597 2.89233 2.80854 2.70048 2.58462 2.47007 2.81592 2.81002 2.76254 
2.68262 2.58462 2.48017 2.37702 2.70908 2.71362 2.68886 2.6349 2.55881 
2.47007 2.37702 2.28567 2.16654 2.24359 2.12312 2.32035 2.1949 2.06938 
2.39165 2.26401 2.13422 2.00658 2.45144 2.32523 2.19453 2.06376 1.93728 
2.49426 2.3734 2.24572 2.11543 1.98711 1.86489 2.51718 2.40503 2.28408 
2.15805 2.03138 1.90847 1.79288 2.52097 2.4195 2.30791 2.18928 2.06758 
1.94707 1.83164 1.72413 1.66533 1.76911 1.66946 1.88041 1.777 1.67254 
1.99634 1.89102 1.78222 1.67418 2.11299 2.00785 1.89674 1.78405 1.67418 
2.22608 2.12307 2.01191 1.89674 1.78222 1.67254 2.33166 2.23222 2.12307 
2.00785 1.89102 1.777 1.66946 2.42672 2.33166 2.22608 2.11299 1.99634 
1.88041 1.76911 1.66533 1.47626 1.47213 1.37249 1.46906 1.36459 1.26118 
1.46741 1.35938 1.25058 1.14526 1.46741 1.35755 1.24485 1.13374 1.0286 
1.46906 1.35938 1.24485 1.12969 1.01852 0.915514 1.47213 1.36459 1.25058 
1.13374 1.01852 0.909371 0.809937 1.47626 1.37249 1.26118 1.14526 1.0286 
0.915514 0.809937 0.714871 1.41746 1.30996 1.34871 1.19452 1.23313 1.2767 
1.07402 1.11021 1.15448 1.20431 0.952313 0.983547 1.02616 1.07784 1.13501 
0.833684 0.857515 0.895868 0.94706 1.00737 1.07221 0.722093 0.736561 0.768195 
0.816367 0.877585 0.946693 1.01847 0.620619 0.624416 0.647337 0.690152 0.749941 
0.821245 0.898002 0.975055 0.975055 0.898002 1.01847 0.821245 0.946693 1.07221 
0.749941 0.877585 1.00737 1.13501 0.690152 0.816367 0.94706 1.07784 1.20431 
0.647337 0.768195 0.895868 1.02616 1.15448 1.2767 0.624416 0.736561 0.857515 
0.983547 1.11021 1.23313 1.34871 0.620619 0.722093 0.833684 0.952313 1.07402 
1.19452 1.30996 1.41746 
Phi 1 1002 float
6.28319 3.14159 6.28319 3.14159 4.71239 4.71239 1.5708 1.5708 3.69517 
5.72961 2.58802 0.553574 6.28319 6.28319 6.28319 6.28319 3.14159 3.14159 
3.14159 3.14159 3.14159 6.1053 5.8988 5.67687 5.45995 5.26596 5.10322 
4.97131 4.86569 4.78095 0.177881 0.384387 0.606312 0.823235 1.01722 1.17997 
1.31187 1.4175 1.50223 6.18928 6.10703 6.03531 5.97283 5.91832 5.87061 
5.82869 5.79168 5.75886 0.0939024 0.176153 0.247873 0.310351 0.364864 0.412573 
0.454497 0.491504 0.524326 3.31947 3.52598 3.7479 3.96483 4.15881 4.32156 
4.45346 4.55909 4.64383 2.96371 2.75721 2.53528 2.31836 2.12437 1.96162 
1.82972 1.72409 1.63936 3.2355 3.31775 3.38947 3.45194 3.50646 3.55417 
3.59609 3.6331 3.66592 3.04769 2.96544 2.89372 2.83124 2.77673 2.72902 
2.6871 2.65009 2.61727 6.28319 6.28319 6.28319 6.28319 3.14159 3.14159 
3.14159 3.14159 3.14159 6.1053 5.8988 5.67687 5.45995 5.26596 5.10322 
4.97131 4.86569 4.78095 0.177881 0.384387 0.606312 0.823235 1.01722 1.17997 
1.31187 1.4175 1.50223 6.18928 6.10703 6.03531 5.97283 5.91832 5.87061 
5.82869 5.79168 5.75886 0.0939024 0.176153 0.247873 0.310351 0.364864 0.412573 
0.454497 0.491504 0.524326 3.31947 3.52598 3.7479 3.96483 4.15881 4.32156 
4.45346 4.55909 4.64383 2.96371 2.75721 2.53528 2.31836 2.12437 1.96162 
1.82972 1.72409 1.63936 3.2355 3.31775 3.38947 3.45194 3.50646 3.55417 
3.59609 3.6331 3.66592 3.04769 2.96544 2.89372 2.83124 2.77673 2.72902 
2.6871 2.65009 2.61727 4.71239 4.71239 4.71239 4.71239 4.71239 4.71239 
4.71239 4.71239 4.71239 4.60879 4.49914 4.3857 4.27128 4.15881 4.05096 
3.94976 3.85646 3.77161 4.81599 4.92564 5.03907 5.1535 5.26596 5.37381 
5.47502 5.56831 5.65317 4.60879 4.49914 4.3857 4.27128 4.15881 4.05096 
3.94976 3.85646 3.77161 4.81599 4.92564 5.03907 5.1535 5.26596 5.37381 
5.47502 5.56831 5.65317 1.5708 1.5708 1.5708 1.5708 1.5708 1.5708 
1.5708 1.5708 1.5708 1.6744 1.78405 1.89748 2.01191 2.12437 2.23222 
2.33343 2.42672 2.51157 1.4672 1.35755 1.24411 1.12969 1.01722 0.909371 
0.808166 0.714871 0.63002 1.6744 1.78405 1.89748 2.01191 2.12437 2.23222 
2.33343 2.42672 2.51157 1.4672 1.35755 1.24411 1.12969 1.01722 0.909371 
0.808166 0.714871 0.63002 3.60077 3.49669 3.38395 3.26458 3.14159 3.01861 
2.89924 2.78649 2.68241 5.82401 5.92808 6.04083 6.1602 6.28319 0.122983 
0.242354 0.355101 0.459179 6.05603 5.78856 5.97021 5.51259 5.60297 5.78856 
5.26596 5.26596 5.26596 5.26596 5.06749 5.0121 4.91556 4.71239 4.15881 
4.91556 4.83537 4.71239 4.50922 4.15881 3.63622 4.80045 4.71239 4.58941 
4.41268 4.15881 3.82181 3.45456 4.71239 4.62433 4.50922 4.35729 4.15881 
3.91219 3.63622 3.36875 6.01742 5.94343 5.82633 5.88092 5.76745 5.62798 
5.8278 5.71897 5.58911 5.43724 5.78235 5.67854 5.55757 5.41926 5.26596 
5.74316 5.64441 5.5315 5.40467 5.26596 5.11955 5.70914 5.61528 5.50962 
5.3926 5.26596 5.13292 4.99789 5.67937 5.59016 5.49102 5.38246 5.26596 
5.14407 5.02016 4.89798 5.56831 5.47502 5.47502 5.37381 5.37381 5.37381 
5.26596 5.26596 5.26596 5.26596 5.1535 5.1535 5.1535 5.1535 5.1535 
5.03907 5.03907 5.03907 5.03907 5.03907 5.03907 4.92564 4.92564 4.92564 
4.92564 4.92564 4.92564 4.92564 4.81599 4.81599 4.81599 4.81599 4.81599 
4.81599 4.81599 4.81599 4.60879 4.60879 4.49914 4.60879 4.49914 4.3857 
4.60879 4.49914 4.3857 4.27128 4.60879 4.49914 4.3857 4.27128 4.15881 
4.60879 4.49914 4.3857 4.27128 4.15881 4.05096 4.60879 4.49914 4.3857 
4.27128 4.15881 4.05096 3.94976 4.60879 4.49914 4.3857 4.27128 4.15881 
4.05096 3.94976 3.85646 4.5268 4.40462 4.42689 4.28071 4.29185 4.30523 
4.15881 4.15881 4.15881 4.15881 4.04232 4.03217 4.02011 4.00552 3.98753 
3.93376 3.91515 3.89328 3.86721 3.83566 3.7968 3.83461 3.8095 3.78037 
3.74624 3.70581 3.65733 3.59845 3.7454 3.71564 3.68161 3.64243 3.59698 
3.54386 3.48135 3.40735 3.56428 3.45246 3.52338 3.33203 3.40312 3.47739 
3.20576 3.27463 3.34802 3.42551 3.07742 3.14159 3.21128 3.28647 3.36688 
2.95116 3.00855 3.0719 3.14159 3.21784 3.3006 2.83072 2.88006 2.93517 
2.99672 3.06535 3.14159 3.22575 2.7189 2.7598 2.8058 2.85768 2.9163 
2.98259 3.05743 3.14159 3.56428 3.52338 3.45246 3.47739 3.40312 3.33203 
3.42551 3.34802 3.27463 3.20576 3.36688 3.28647 3.21128 3.14159 3.07742 
3.3006 3.21784 3.14159 3.0719 3.00855 2.95116 3.22575 3.14159 3.06535 
2.99672 2.93517 2.88006 2.83072 3.14159 3.05743 2.98259 2.9163 2.85768 
2.8058 2.7598 2.7189 4.5268 4.42689 4.40462 4.30523 4.29185 4.28071 
4.15881 4.15881 4.15881 4.15881 3.98753 4.00552 4.02011 4.03217 4.04232 
3.7968 3.83566 3.86721 3.89328 3.91515 3.93376 3.59845 3.65733 3.70581 
3.74624 3.78037 3.8095 3.83461 3.40735 3.48135 3.54386 3.59698 3.64243 
3.68161 3.71564 3.7454 4.71239 4.80045 4.62433 4.91556 4.71239 4.50922 
5.06749 4.83537 4.58941 4.35729 5.26596 5.0121 4.71239 4.41268 4.15881 
5.51259 5.26596 4.91556 4.50922 4.15881 3.91219 5.78856 5.60297 5.26596 
4.71239 4.15881 3.82181 3.63622 6.05603 5.97021 5.78856 5.26596 4.15881 
3.63622 3.45456 3.36875 0.227158 0.494626 0.312971 0.770593 0.680215 0.494626 
1.01722 1.01722 1.01722 1.01722 1.2157 1.27109 1.36763 1.5708 2.12437 
1.36763 1.44781 1.5708 1.77397 2.12437 2.64697 1.48273 1.5708 1.69378 
1.8705 2.12437 2.46138 2.82862 1.5708 1.65886 1.77397 1.9259 2.12437 
2.371 2.64697 2.91443 1.75639 1.87857 1.8563 2.00248 1.99133 1.97796 
2.12437 2.12437 2.12437 2.12437 2.24087 2.25101 2.26308 2.27767 2.29565 
2.34943 2.36803 2.38991 2.41597 2.44752 2.48639 2.44857 2.47368 2.50281 
2.53694 2.57738 2.62586 2.68474 2.53778 2.56754 2.60157 2.64076 2.68621 
2.73933 2.80184 2.87583 1.6744 1.6744 1.78405 1.6744 1.78405 1.89748 
1.6744 1.78405 1.89748 2.01191 1.6744 1.78405 1.89748 2.01191 2.12437 
1.6744 1.78405 1.89748 2.01191 2.12437 2.23222 1.6744 1.78405 1.89748 
2.01191 2.12437 2.23222 2.33343 1.6744 1.78405 1.89748 2.01191 2.12437 
2.23222 2.33343 2.42672 1.4672 1.35755 1.4672 1.24411 1.35755 1.4672 
1.12969 1.24411 1.35755 1.4672 1.01722 1.12969 1.24411 1.35755 1.4672 
0.909371 1.01722 1.12969 1.24411 1.35755 1.4672 0.808166 0.909371 1.01722 
1.12969 1.24411 1.35755 1.4672 0.714871 0.808166 0.909371 1.01722 1.12969 
1.24411 1.35755 1.4672 0.603812 0.57405 0.693022 0.540021 0.667908 0.792164 
0.500837 0.638778 0.773562 0.900726 0.455383 0.604649 0.751687 0.890581 1.01722 
0.402264 0.564217 0.725619 0.878514 1.01722 1.13912 0.339753 0.515737 0.694072 
0.863926 1.01722 1.15026 1.26302 0.265762 0.456853 0.655207 0.845941 1.01722 
1.16363 1.28529 1.38521 0.227158 0.312971 0.494626 0.494626 0.680215 0.770593 
1.01722 1.01722 1.01722 1.01722 2.12437 1.5708 1.36763 1.27109 1.2157 
2.64697 2.12437 1.77397 1.5708 1.44781 1.36763 2.82862 2.46138 2.12437 
1.8705 1.69378 1.5708 1.48273 2.91443 2.64697 2.371 2.12437 1.9259 
1.77397 1.65886 1.5708 1.75639 1.8563 1.87857 1.97796 1.99133 2.00248 
2.12437 2.12437 2.12437 2.12437 2.29565 2.27767 2.26308 2.25101 2.24087 
2.48639 2.44752 2.41597 2.38991 2.36803 2.34943 2.68474 2.62586 2.57738 
2.53694 2.50281 2.47368 2.44857 2.87583 2.80184 2.73933 2.68621 2.64076 
2.60157 2.56754 2.53778 5.86049 5.90139 5.97231 5.94739 6.02165 6.09275 
5.99927 6.07676 6.15015 6.21902 6.0579 6.13831 6.2135 0 0.0641696 
6.12418 6.20694 6.28319 0.069689 0.13304 0.190437 6.19903 0 0.0762451 
0.144876 0.206423 0.261531 0.310872 0 0.0841597 0.159004 0.225289 0.283913 
0.335793 0.381792 0.422692 5.86049 5.97231 5.90139 6.09275 6.02165 5.94739 
6.21902 6.15015 6.07676 5.99927 0.0641696 0 6.2135 6.13831 6.0579 
0.190437 0.13304 0.069689 6.28319 6.20694 6.12418 0.310872 0.261531 0.206423 
0.144876 0.0762451 6.28319 6.19903 0.422692 0.381792 0.335793 0.283913 0.225289 
0.159004 0.0841597 0 5.67937 5.70914 5.59016 5.74316 5.61528 5.49102 
5.78235 5.64441 5.50962 5.38246 5.8278 5.67854 5.5315 5.3926 5.26596 
5.88092 5.71897 5.55757 5.40467 5.26596 5.14407 5.94343 5.76745 5.58911 
5.41926 5.26596 5.13292 5.02016 6.01742 5.82633 5.62798 5.43724 5.26596 
5.11955 4.99789 4.89798 1.38521 1.28529 1.26302 1.16363 1.15026 1.13912 
1.01722 1.01722 1.01722 1.01722 0.845941 0.863926 0.878514 0.890581 0.900726 
0.655207 0.694072 0.725619 0.751687 0.773562 0.792164 0.456853 0.515737 0.564217 
0.604649 0.638778 0.667908 0.693022 0.265762 0.339753 0.402264 0.455383 0.500837 
0.540021 0.57405 0.603812 
