# vtk DataFile Version 4.0
vtk output
ASCII
DATASET POLYDATA
POINTS 1002 float
-88.5515 -97.4129 71.116 -83.9787 -105.542 70.7035 -82.3237 -94.1099 71.1255 
-78.2543 -102.98 70.3701 -84.832 -101.015 75.6052 -81.4963 -99.3079 75.3999 
-85.0953 -100.867 66.2551 -81.2224 -99.1136 66.3409 -79.4772 -108.669 73.5082 
-86.9857 -93.1178 74.1558 -79.379 -108.283 67.1514 -87.7557 -91.9185 68.0283 
-88.4932 -98.5191 71.2482 -88.2457 -99.5007 71.2901 -87.6305 -100.217 71.2001 
-87.1169 -101.144 71.0915 -86.8719 -102.234 71.0154 -86.2315 -102.861 70.9202 
-85.2782 -103.317 70.8394 -84.7402 -104.155 70.8101 -84.4781 -105.038 70.7758 
-88.4497 -97.8869 71.7274 -88.4356 -98.4138 72.2929 -88.04 -98.772 72.6875 
-87.3185 -98.9643 72.9854 -86.7392 -99.1674 73.3708 -86.2914 -99.466 73.8883 
-85.8589 -99.8716 74.3822 -85.5503 -100.341 74.7865 -85.2578 -100.745 75.1972 
-88.8132 -97.7413 70.6744 -88.9655 -98.2033 70.3395 -88.7098 -98.7215 69.84 
-88.3156 -99.2794 68.969 -88.1044 -99.791 68.117 -87.7833 -100.129 67.5559 
-87.1681 -100.361 67.0639 -86.4396 -100.563 66.6703 -85.7082 -100.715 66.4762 
-88.5902 -96.7285 71.3888 -88.902 -96.2454 71.7165 -89.2216 -95.748 71.9987 
-89.1096 -95.0278 72.2266 -88.6783 -94.3565 72.4575 -88.2482 -93.9943 72.7302 
-87.8343 -93.7524 73.1067 -87.4959 -93.4899 73.5485 -87.2683 -93.2685 73.9138 
-88.9728 -96.7101 70.7121 -89.6649 -96.431 70.4369 -90.0577 -96.2221 70.2374 
-89.8812 -95.3919 69.9411 -89.6036 -94.098 69.6749 -89.3381 -93.1968 69.6627 
-88.7651 -92.8453 69.6207 -88.1617 -92.5768 69.2065 -87.8951 -92.2215 68.576 
-84.1737 -105.489 71.2533 -84.2377 -105.232 71.783 -84.1322 -104.708 72.2147 
-84.0114 -104.118 72.605 -84.0629 -103.651 73.1653 -84.2542 -103.148 73.8644 
-84.4669 -102.522 74.4145 -84.6569 -101.958 74.8018 -84.7841 -101.489 75.2016 
-84.1599 -105.32 70.179 -84.385 -105.097 69.5685 -84.6434 -104.842 68.9092 
-84.8157 -104.355 68.3124 -84.8996 -103.684 67.8415 -85.0205 -103.121 67.4154 
-85.1567 -102.603 66.9844 -85.1935 -101.948 66.6516 -85.1396 -101.318 66.4492 
-83.3269 -105.798 70.9648 -82.5565 -106.054 71.256 -81.9977 -106.556 71.5615 
-81.718 -107.346 71.9208 -81.4152 -108.148 72.3764 -81.0125 -108.703 72.731 
-80.6778 -108.959 72.8268 -80.337 -108.983 72.9114 -79.8861 -108.869 73.1931 
-83.3291 -105.7 70.2928 -82.6444 -105.936 69.882 -82.1679 -106.421 69.5419 
-81.8491 -107.079 69.1978 -81.5368 -107.744 68.7211 -81.2603 -108.292 68.2298 
-80.9525 -108.579 67.9067 -80.4685 -108.591 67.6722 -79.8859 -108.468 67.4025 
-81.9726 -94.7477 70.9829 -81.8039 -95.7621 70.8446 -81.3717 -96.7931 70.7945 
-80.5795 -97.5124 70.7699 -79.9272 -98.212 70.6495 -79.5425 -99.2745 70.4956 
-79.1823 -100.461 70.4656 -78.8786 -101.446 70.5245 -78.6127 -102.257 70.5069 
-82.0588 -94.18 71.6932 -81.8491 -94.4011 72.1927 -81.8425 -94.9035 72.5378 
-81.9753 -95.6241 72.9001 -81.9482 -96.3034 73.4299 -81.7507 -96.8638 73.9668 
-81.6717 -97.494 74.3946 -81.6943 -98.2067 74.7826 -81.6229 -98.8232 75.1345 
-82.2125 -94.3069 70.4933 -82.0543 -94.4945 69.8698 -81.9611 -94.8395 69.2449 
-81.8723 -95.3766 68.6149 -81.6447 -95.965 68.0522 -81.436 -96.6489 67.5802 
-81.3911 -97.4377 67.1985 -81.3404 -98.1089 66.9075 -81.232 -98.6227 66.6378 
-82.7502 -93.7415 71.5413 -83.2433 -93.426 71.8328 -83.7218 -93.1402 72.0739 
-84.2245 -92.8252 72.4877 -84.672 -92.4448 73.0489 -84.9988 -92.1792 73.4658 
-85.4811 -92.2158 73.6817 -86.188 -92.4597 73.8588 -86.7513 -92.7663 74.0327 
-82.9222 -93.907 70.8265 -83.6628 -93.7567 70.4723 -84.252 -93.3623 70.0527 
-84.5883 -92.6688 69.5828 -84.8697 -92.0331 69.1417 -85.2755 -91.683 68.7669 
-85.8992 -91.4995 68.4014 -86.7002 -91.4312 68.0749 -87.3961 -91.5638 67.9317 
-78.5035 -102.705 71.0214 -78.6777 -102.515 71.4862 -79.0524 -102.332 71.8379 
-79.4123 -101.912 72.4303 -79.5605 -101.292 73.1381 -79.9779 -100.829 73.5621 
-80.7399 -100.617 73.824 -81.2599 -100.392 74.2235 -81.4048 -99.9371 74.7868 
-78.0923 -102.785 69.8886 -78.1302 -102.441 69.5581 -78.516 -101.972 69.186 
-78.7612 -101.427 68.5917 -78.7289 -100.855 67.9689 -79.1087 -100.374 67.5669 
-79.9134 -100.05 67.3233 -80.5042 -99.7782 67.0661 -80.8453 -99.4552 66.7217 
-78.075 -103.482 70.6801 -77.9353 -104.104 71.1052 -77.9889 -104.957 71.5049 
-78.2844 -105.822 71.7539 -78.6311 -106.502 71.9169 -78.8134 -107.241 72.1811 
-78.8225 -108.106 72.6061 -78.8403 -108.695 73.036 -79.055 -108.815 73.3267 
-77.6124 -103.603 69.8395 -76.8112 -104.098 69.5157 -76.5954 -104.451 69.4752 
-77.3632 -105.107 69.2564 -78.1055 -106.217 68.6937 -78.056 -107.279 68.1995 
-77.972 -107.998 67.8312 -78.3669 -108.407 67.4432 -78.8959 -108.48 67.1932 
-84.5533 -100.837 76.0534 -84.3769 -100.617 76.4384 -84.2157 -100.278 76.8066 
-83.712 -99.8338 77.2546 -82.9587 -99.5228 77.5572 -82.521 -99.4396 77.3791 
-82.3456 -99.3551 76.8623 -82.0181 -99.2191 76.3476 -81.6465 -99.2023 75.8862 
-84.235 -101.495 75.6359 -83.5688 -102.036 75.4322 -82.9735 -102.804 75.1768 
-82.3665 -103.763 75.0887 -81.7784 -104.863 75.0946 -81.34 -106.09 75.1368 
-80.8975 -107.131 75.1709 -80.3807 -107.742 74.8649 -79.9182 -108.161 74.1663 
-85.0763 -100.296 75.6873 -85.2137 -99.4843 75.7125 -85.4413 -98.7469 75.8116 
-85.8505 -97.9542 75.8976 -86.2718 -97.0011 75.7603 -86.5437 -96.0939 75.4698 
-86.6417 -95.2411 75.1983 -86.673 -94.3702 74.9058 -86.7929 -93.6486 74.5347 
-81.3011 -100.216 75.2454 -81.0863 -101.2 75.1249 -80.6936 -102.058 75.1813 
-80.0446 -102.723 75.4684 -79.4988 -103.664 75.6034 -79.3653 -105.148 75.2613 
-79.4245 -106.57 74.7906 -79.4467 -107.466 74.4621 -79.4552 -108.077 74.0579 
-81.7512 -98.3757 75.8729 -82.1031 -97.5737 76.2257 -82.5665 -97.0066 76.2184 
-83.1774 -96.4895 75.8997 -83.8739 -95.7353 75.6982 -84.4951 -94.7661 75.7482 
-85.0583 -93.9355 75.6368 -85.7087 -93.4776 75.1739 -86.4102 -93.2787 74.6155 
-84.8504 -100.762 65.7693 -84.7698 -100.579 65.0848 -84.7609 -100.244 64.5449 
-84.4278 -99.8524 64.3842 -83.4909 -99.5179 64.4405 -82.4981 -99.3315 64.5662 
-82.0653 -99.3275 64.8702 -81.8982 -99.3403 65.362 -81.5834 -99.243 65.886 
-84.6898 -101.386 65.991 -84.4299 -102.112 65.6267 -84.0388 -102.816 65.5275 
-83.2558 -103.344 65.8826 -82.3502 -104.143 66.1699 -81.6867 -105.422 66.062 
-81.1133 -106.5 66.0813 -80.4459 -107.082 66.488 -79.8246 -107.617 66.9132 
-85.4872 -100.378 66.1967 -86.1036 -99.8037 66.1172 -86.794 -98.9761 66.1656 
-87.2407 -97.8911 66.4297 -87.397 -96.8289 66.8327 -87.5251 -95.9084 67.3113 
-87.704 -94.8549 67.7428 -87.812 -93.6198 67.9409 -87.8209 -92.5726 67.9605 
-81.1234 -99.8764 66.2889 -81.0939 -100.68 66.2911 -80.8447 -101.385 66.3002 
-80.2966 -102.112 66.2677 -79.7635 -103.164 66.2326 -79.4801 -104.516 66.2767 
-79.3355 -105.793 66.4162 -79.2248 -106.79 66.6172 -79.2239 -107.591 66.8616 
-81.7152 -98.4931 66.2373 -82.3754 -97.9116 66.3411 -83.0691 -97.3081 66.5896 
-83.8067 -96.647 66.8552 -84.6051 -95.9642 67.1908 -85.3789 -95.0764 67.5043 
-86.199 -93.8498 67.5201 -87.0149 -92.7035 67.4051 -87.5421 -92.0898 67.5625 
-79.0942 -109.477 73.0345 -78.6329 -110.245 72.932 -78.4698 -110.748 72.662 
-78.7238 -111.074 71.7002 -79.0433 -111.019 70.5659 -79.2206 -110.347 69.7882 
-79.3223 -109.685 69.003 -79.3467 -109.407 68.1268 -79.3317 -109.009 67.5094 
-87.3447 -92.5663 73.7079 -87.6059 -91.7193 73.2883 -87.8243 -90.8938 72.8316 
-87.9453 -90.4872 72.2581 -87.8516 -90.2973 71.4182 -87.7645 -90.0881 70.3741 
-87.8567 -90.2681 69.5443 -87.9011 -90.9313 69.018 -87.8159 -91.5438 68.5199 
-88.4511 -98.9956 71.8574 -88.2532 -99.3825 72.4015 -88.0785 -99.8166 71.8646 
-87.5935 -99.6267 72.7703 -87.6639 -100.123 72.4022 -87.4176 -100.603 71.7791 
-86.8408 -99.8372 73.0685 -86.9992 -100.472 72.7811 -87.0873 -101.114 72.3174 
-87.0564 -101.776 71.6794 -86.3505 -100.126 73.4814 -86.4177 -100.807 73.0716 
-86.54 -101.501 72.6427 -86.7111 -102.233 72.1648 -86.6474 -102.719 71.5755 
-85.952 -100.521 73.983 -85.9479 -101.116 73.459 -85.8558 -101.643 72.8688 
-85.868 -102.24 72.4156 -85.9098 -102.82 72.023 -85.6805 -103.146 71.4792 
-85.5839 -100.952 74.4278 -85.4729 -101.451 73.9435 -85.2042 -101.826 73.2697 
-84.95 -102.212 72.6474 -84.9156 -102.757 72.2834 -84.9628 -103.364 71.9355 
-84.8804 -103.828 71.4085 -85.2365 -101.289 74.8244 -85.0539 -101.751 74.4098 
-84.7436 -102.171 73.8534 -84.4215 -102.584 73.1518 -84.2688 -103.045 72.587 
-84.3732 -103.676 72.2417 -84.5441 -104.349 71.8598 -84.5765 -104.811 71.3395 
-88.4966 -97.1642 71.9665 -88.6456 -96.536 72.1318 -88.3167 -97.6259 72.4516 
-88.6032 -95.9249 72.3292 -88.123 -96.8398 72.6293 -87.7597 -97.9556 72.8747 
-88.341 -95.3094 72.6961 -87.9179 -96.2463 73.0316 -87.5844 -97.2718 73.2846 
-87.2064 -98.2859 73.3243 -88.1918 -94.8237 73.149 -87.9268 -95.8234 73.5851 
-87.6705 -96.9253 73.8998 -87.3436 -97.9066 73.9224 -86.789 -98.6513 73.8486 
-88.0166 -94.463 73.583 -88.0009 -95.3624 74.0902 -87.8124 -96.5235 74.4761 
-87.5047 -97.6517 74.5824 -86.8925 -98.3584 74.4779 -86.2147 -98.9595 74.3892 
-87.6014 -94.1515 73.9864 -87.7107 -94.8969 74.4984 -87.6334 -95.8806 74.9261 
-87.3655 -97.0604 75.1281 -86.8243 -97.9963 75.0902 -86.1194 -98.5806 74.9374 
-85.6901 -99.3381 74.8274 -87.1621 -93.8877 74.3033 -87.1694 -94.5955 74.7566 
-87.1577 -95.4209 75.1671 -86.9835 -96.4029 75.4505 -86.5819 -97.4542 75.5513 
-85.9966 -98.2664 75.4536 -85.542 -98.9543 75.2978 -85.3825 -99.8395 75.2303 
-86.2263 -93.8775 75.0325 -85.5811 -94.2763 75.5172 -86.1276 -94.8499 75.2547 
-84.9328 -94.9408 75.8518 -85.4535 -95.4298 75.5708 -86.0405 -95.8635 75.3867 
-84.317 -95.8233 75.9949 -84.7104 -96.0351 76.0092 -85.2363 -96.3652 75.8294 
-85.8302 -96.6871 75.7734 -83.7402 -96.7171 76.1415 -84.181 -96.821 76.4802 
-84.5289 -96.86 76.7185 -85.0258 -97.1548 76.6337 -85.5396 -97.6125 76.2988 
-83.1696 -97.3765 76.3883 -83.8102 -97.7372 76.7398 -84.2064 -97.7508 77.4079 
-84.5203 -97.7756 77.7508 -84.9338 -98.1898 77.2862 -85.2631 -98.5998 76.4685 
-82.5918 -97.8149 76.5137 -83.2482 -98.3228 76.8024 -83.7651 -98.6412 77.4681 
-84.1286 -98.6177 78.17 -84.5302 -98.768 78.0593 -84.8623 -99.1563 77.201 
[...]
POINT_DATA 1002
FIELD FieldData 2
Theta 1 1002 float
2.58802 2.58802 0.553574 0.553574 2.12437 1.01722 2.12437 1.01722 1.5708 
1.5708 1.5708 1.5708 2.68241 2.78649 2.89924 3.01861 3.14159 3.01861 
2.89924 2.78649 2.68241 2.61035 2.61791 2.60515 2.56958 2.51327 2.44184 
2.36202 2.27983 2.1997 2.61035 2.61791 2.60515 2.56958 2.51327 2.44184 
2.36202 2.27983 2.1997 2.50947 2.41899 2.31794 2.20864 2.0944 1.97902 
1.86631 1.75944 1.66056 2.50947 2.41899 2.31794 2.20864 2.0944 1.97902 
1.86631 1.75944 1.66056 2.61035 2.61791 2.60515 2.56958 2.51327 2.44184 
2.36202 2.27983 2.1997 2.61035 2.61791 2.60515 2.56958 2.51327 2.44184 
2.36202 2.27983 2.1997 2.50947 2.41899 2.31794 2.20864 2.0944 1.97902 
1.86631 1.75944 1.66056 2.50947 2.41899 2.31794 2.20864 2.0944 1.97902 
1.86631 1.75944 1.66056 0.459179 0.355101 0.242354 0.122983 0 0.122983 
0.242354 0.355101 0.459179 0.531246 0.523681 0.536438 0.57201 0.628319 0.699757 
0.779574 0.86176 0.941896 0.531246 0.523681 0.536438 0.57201 0.628319 0.699757 
0.779574 0.86176 0.941896 0.632123 0.7226 0.823657 0.932948 1.0472 1.16257 
1.27528 1.38216 1.48103 0.632123 0.7226 0.823657 0.932948 1.0472 1.16257 
1.27528 1.38216 1.48103 0.531246 0.523681 0.536438 0.57201 0.628319 0.699757 
0.779574 0.86176 0.941896 0.531246 0.523681 0.536438 0.57201 0.628319 0.699757 
0.779574 0.86176 0.941896 0.632123 0.7226 0.823657 0.932948 1.0472 1.16257 
1.27528 1.38216 1.48103 0.632123 0.7226 0.823657 0.932948 1.0472 1.16257 
1.27528 1.38216 1.48103 2.02998 1.9259 1.81315 1.69378 1.5708 1.44781 
1.32844 1.2157 1.11162 2.0928 2.05283 2.00422 1.94767 1.88496 1.81867 
1.75177 1.68695 1.62623 2.0928 2.05283 2.00422 1.94767 1.88496 1.81867 
1.75177 1.68695 1.62623 1.0488 1.08876 1.13737 1.19392 1.25664 1.32292 
1.38982 1.45464 1.51537 1.0488 1.08876 1.13737 1.19392 1.25664 1.32292 
1.38982 1.45464 1.51537 2.02998 1.9259 1.81315 1.69378 1.5708 1.44781 
1.32844 1.2157 1.11162 2.0928 2.05283 2.00422 1.94767 1.88496 1.81867 
1.75177 1.68695 1.62623 2.0928 2.05283 2.00422 1.94767 1.88496 1.81867 
1.75177 1.68695 1.62623 1.0488 1.08876 1.13737 1.19392 1.25664 1.32292 
1.38982 1.45464 1.51537 1.0488 1.08876 1.13737 1.19392 1.25664 1.32292 
1.38982 1.45464 1.51537 1.5708 1.5708 1.5708 1.5708 1.5708 1.5708 
1.5708 1.5708 1.5708 1.5708 1.5708 1.5708 1.5708 1.5708 1.5708 
1.5708 1.5708 1.5708 2.70908 2.71362 2.81592 2.68886 2.81002 2.92597 
2.6349 2.76254 2.89233 3.01997 2.55881 2.68262 2.80854 2.92834 3.01997 
2.47007 2.58462 2.70048 2.80854 2.89233 2.92597 2.37702 2.48017 2.58462 
2.68262 2.76254 2.81002 2.81592 2.28567 2.37702 2.47007 2.55881 2.6349 
2.68886 2.71362 2.70908 2.52097 2.4195 2.51718 2.30791 2.40503 2.49426 
2.18928 2.28408 2.3734 2.45144 2.06758 2.15805 2.24572 2.32523 2.39165 
1.94707 2.03138 2.11543 2.19453 2.26401 2.32035 1.83164 1.90847 1.98711 
2.06376 2.13422 2.1949 2.24359 1.72413 1.79288 1.86489 1.93728 2.00658 
2.06938 2.12312 2.16654 1.5708 1.50988 1.63171 1.44492 1.5708 1.69667 
1.37826 1.5059 1.63569 1.76333 1.31281 1.43962 1.5708 1.70197 1.82878 
1.25155 1.37501 1.50478 1.63681 1.76659 1.89004 1.19686 1.31493 1.44074 
1.5708 1.70086 1.82666 1.94473 1.15011 1.26149 1.38136 1.50697 1.63462 
1.76024 1.88011 1.99148 1.99148 1.88011 1.94473 1.76024 1.82666 1.89004 
1.63462 1.70086 1.76659 1.82878 1.50697 1.5708 1.63681 1.70197 1.76333 
1.38136 1.44074 1.50478 1.5708 1.63569 1.69667 1.26149 1.31493 1.37501 
1.43962 1.5059 1.5708 1.63171 1.15011 1.19686 1.25155 1.31281 1.37826 
1.44492 1.50988 1.5708 2.16654 2.12312 2.24359 2.06938 2.1949 2.32035 
2.00658 2.13422 2.26401 2.39165 1.93728 2.06376 2.19453 2.32523 2.45144 
1.86489 1.98711 2.11543 2.24572 2.3734 2.49426 1.79288 1.90847 2.03138 
2.15805 2.28408 2.40503 2.51718 1.72413 1.83164 1.94707 2.06758 2.18928 
2.30791 2.4195 2.52097 1.66533 1.66946 1.76911 1.67254 1.777 1.88041 
1.67418 1.78222 1.89102 1.99634 1.67418 1.78405 1.89674 2.00785 2.11299 
1.67254 1.78222 1.89674 2.01191 2.12307 2.22608 1.66946 1.777 1.89102 
2.00785 2.12307 2.23222 2.33166 1.66533 1.76911 1.88041 1.99634 2.11299 
2.22608 2.33166 2.42672 1.47626 1.37249 1.47213 1.26118 1.36459 1.46906 
1.14526 1.25058 1.35938 1.46741 1.0286 1.13374 1.24485 1.35755 1.46741 
0.915514 1.01852 1.12969 1.24485 1.35938 1.46906 0.809937 0.909371 1.01852 
1.13374 1.25058 1.36459 1.47213 0.714871 0.809937 0.915514 1.0286 1.14526 
1.26118 1.37249 1.47626 0.975055 0.898002 1.01847 0.821245 0.946693 1.07221 
0.749941 0.877585 1.00737 1.13501 0.690152 0.816367 0.94706 1.07784 1.20431 
0.647337 0.768195 0.895868 1.02616 1.15448 1.2767 0.624416 0.736561 0.857515 
0.983547 1.11021 1.23313 1.34871 0.620619 0.722093 0.833684 0.952313 1.07402 
1.19452 1.30996 1.41746 0.855925 0.764569 0.764569 0.671524 0.661425 0.671524 
0.582786 0.556971 0.556971 0.582786 0.506696 0.458968 0.441109 0.458968 0.506696 
0.45273 0.379052 0.333054 0.333054 0.379052 0.45273 0.427969 0.331576 0.249267 
0.21325 0.249267 0.331576 0.427969 0.432512 0.325669 0.215619 0.121622 0.121622 
0.215619 0.325669 0.432512 0.432512 0.427969 0.325669 0.45273 0.331576 0.215619 
0.506696 0.379052 0.249267 0.121622 0.582786 0.458968 0.333054 0.21325 0.121622 
0.671524 0.556971 0.441109 0.333054 0.249267 0.215619 0.764569 0.661425 0.556971 
0.458968 0.379052 0.331576 0.325669 0.855925 0.764569 0.671524 0.582786 0.506696 
0.45273 0.427969 0.432512 0.975055 1.01847 0.898002 1.07221 0.946693 0.821245 
1.13501 1.00737 0.877585 0.749941 1.20431 1.07784 0.94706 0.816367 0.690152 
1.2767 1.15448 1.02616 0.895868 0.768195 0.647337 1.34871 1.23313 1.11021 
0.983547 0.857515 0.736561 0.624416 1.41746 1.30996 1.19452 1.07402 0.952313 
0.833684 0.722093 0.620619 1.15011 1.26149 1.19686 1.38136 1.31493 1.25155 
1.50697 1.44074 1.37501 1.31281 1.63462 1.5708 1.50478 1.43962 1.37826 
1.76024 1.70086 1.63681 1.5708 1.5059 1.44492 1.88011 1.82666 1.76659 
1.70197 1.63569 1.5708 1.50988 1.99148 1.94473 1.89004 1.82878 1.76333 
1.69667 1.63171 1.5708 1.15011 1.19686 1.26149 1.25155 1.31493 1.38136 
1.31281 1.37501 1.44074 1.50697 1.37826 1.43962 1.50478 1.5708 1.63462 
1.44492 1.5059 1.5708 1.63681 1.70086 1.76024 1.50988 1.5708 1.63569 
1.70197 1.76659 1.82666 1.88011 1.5708 1.63171 1.69667 1.76333 1.82878 
1.89004 1.94473 1.99148 1.72413 1.83164 1.79288 1.94707 1.90847 1.86489 
2.06758 2.03138 1.98711 1.93728 2.18928 2.15805 2.11543 2.06376 2.00658 
2.30791 2.28408 2.24572 2.19453 2.13422 2.06938 2.4195 2.40503 2.3734 
2.32523 2.26401 2.1949 2.12312 2.52097 2.51718 2.49426 2.45144 2.39165 
2.32035 2.24359 2.16654 2.70908 2.81592 2.71362 2.92597 2.81002 2.68886 
3.01997 2.89233 2.76254 2.6349 3.01997 2.92834 2.80854 2.68262 2.55881 
2.92597 2.89233 2.80854 2.70048 2.58462 2.47007 2.81592 2.81002 2.76254 
2.68262 2.58462 2.48017 2.37702 2.70908 2.71362 2.68886 2.6349 2.55881 
2.47007 2.37702 2.28567 2.16654 2.24359 2.12312 2.32035 2.1949 2.06938 
2.39165 2.26401 2.13422 2.00658 2.45144 2.32523 2.19453 2.06376 1.93728 
2.49426 2.3734 2.24572 2.11543 1.98711 1.86489 2.51718 2.40503 2.28408 
2.15805 2.03138 1.90847 1.79288 2.52097 2.4195 2.30791 2.18928 2.06758 
1.94707 1.83164 1.72413 1.66533 1.76911 1.66946 1.88041 1.777 1.67254 
1.99634 1.89102 1.78222 1.67418 2.11299 2.00785 1.89674 1.78405 1.67418 
2.22608 2.12307 2.01191 1.89674 1.78222 1.67254 2.33166 2.23222 2.12307 
2.00785 1.89102 1.777 1.66946 2.42672 2.33166 2.22608 2.11299 1.99634 
1.88041 1.76911 1.66533 1.47626 1.47213 1.37249 1.46906 1.36459 1.26118 
1.46741 1.35938 1.25058 1.14526 1.46741 1.35755 1.24485 1.13374 1.0286 
1.46906 1.35938 1.24485 1.12969 1.01852 0.915514 1.47213 1.36459 1.25058 
1.13374 1.01852 0.909371 0.809937 1.47626 1.37249 1.26118 1.14526 1.0286 
0.915514 0.809937 0.714871 1.41746 1.30996 1.34871 1.19452 1.23313 1.2767 
1.07402 1.11021 1.15448 1.20431 0.952313 0.983547 1.02616 1.07784 1.13501 
0.833684 0.857515 0.895868 0.94706 1.00737 1.07221 0.722093 0.736561 0.768195 
0.816367 0.877585 0.946693 1.01847 0.620619 0.624416 0.647337 0.690152 0.749941 
0.821245 0.898002 0.975055 0.975055 0.898002 1.01847 0.821245 0.946693 1.07221 
0.749941 0.877585 1.00737 1.13501 0.690152 0.816367 0.94706 1.07784 1.20431 
0.647337 0.768195 0.895868 1.02616 1.15448 1.2767 0.624416 0.736561 0.857515 
0.983547 1.11021 1.23313 1.34871 0.620619 0.722093 0.833684 0.952313 1.07402 
1.19452 1.30996 1.41746 
Phi 1 1002 float
6.28319 3.14159 6.28319 3.14159 4.71239 4.71239 1.5708 1.5708 3.69517 
5.72961 2.58802 0.553574 6.28319 6.28319 6.28319 6.28319 3.14159 3.14159 
3.14159 3.14159 3.14159 6.1053 5.8988 5.67687 5.45995 5.26596 5.10322 
4.97131 4.86569 4.78095 0.177881 0.384387 0.606312 0.823235 1.01722 1.17997 
1.31187 1.4175 1.50223 6.18928 6.10703 6.03531 5.97283 5.91832 5.87061 
5.82869 5.79168 5.75886 0.0939024 0.176153 0.247873 0.310351 0.364864 0.412573 
0.454497 0.491504 0.524326 3.31947 3.52598 3.7479 3.96483 4.15881 4.32156 
4.45346 4.55909 4.64383 2.96371 2.75721 2.53528 2.31836 2.12437 1.96162 
1.82972 1.72409 1.63936 3.2355 3.31775 3.38947 3.45194 3.50646 3.55417 
3.59609 3.6331 3.66592 3.04769 2.96544 2.89372 2.83124 2.77673 2.72902 
2.6871 2.65009 2.61727 6.28319 6.28319 6.28319 6.28319 3.14159 3.14159 
3.14159 3.14159 3.14159 6.1053 5.8988 5.67687 5.45995 5.26596 5.10322 
4.97131 4.86569 4.78095 0.177881 0.384387 0.606312 0.823235 1.01722 1.17997 
1.31187 1.4175 1.50223 6.18928 6.10703 6.03531 5.97283 5.91832 5.87061 
5.82869 5.79168 5.75886 0.0939024 0.176153 0.247873 0.310351 0.364864 0.412573 
0.454497 0.491504 0.524326 3.31947 3.52598 3.7479 3.96483 4.15881 4.32156 
4.45346 4.55909 4.64383 2.96371 2.75721 2.53528 2.31836 2.12437 1.96162 
1.82972 1.72409 1.63936 3.2355 3.31775 3.38947 3.45194 3.50646 3.55417 
3.59609 3.6331 3.66592 3.04769 2.96544 2.89372 2.83124 2.77673 2.72902 
2.6871 2.65009 2.61727 4.71239 4.71239 4.71239 4.71239 4.71239 4.71239 
4.71239 4.71239 4.71239 4.60879 4.49914 4.3857 4.27128 4.15881 4.05096 
3.94976 3.85646 3.77161 4.81599 4.92564 5.03907 5.1535 5.26596 5.37381 
5.47502 5.56831 5.65317 4.60879 4.49914 4.3857 4.27128 4.15881 4.05096 
3.94976 3.85646 3.77161 4.81599 4.92564 5.03907 5.1535 5.26596 5.37381 
5.47502 5.56831 5.65317 1.5708 1.5708 1.5708 1.5708 1.5708 1.5708 
1.5708 1.5708 1.5708 1.6744 1.78405 1.89748 2.01191 2.12437 2.23222 
2.33343 2.42672 2.51157 1.4672 1.35755 1.24411 1.12969 1.01722 0.909371 
0.808166 0.714871 0.63002 1.6744 1.78405 1.89748 2.01191 2.12437 2.23222 
2.33343 2.42672 2.51157 1.4672 1.35755 1.24411 1.12969 1.01722 0.909371 
0.808166 0.714871 0.63002 3.60077 3.49669 3.38395 3.26458 3.14159 3.01861 
2.89924 2.78649 2.68241 5.82401 5.92808 6.04083 6.1602 6.28319 0.122983 
0.242354 0.355101 0.459179 6.05603 5.78856 5.97021 5.51259 5.60297 5.78856 
5.26596 5.26596 5.26596 5.26596 5.06749 5.0121 4.91556 4.71239 4.15881 
4.91556 4.83537 4.71239 4.50922 4.15881 3.63622 4.80045 4.71239 4.58941 
4.41268 4.15881 3.82181 3.45456 4.71239 4.62433 4.50922 4.35729 4.15881 
3.91219 3.63622 3.36875 6.01742 5.94343 5.82633 5.88092 5.76745 5.62798 
5.8278 5.71897 5.58911 5.43724 5.78235 5.67854 5.55757 5.41926 5.26596 
5.74316 5.64441 5.5315 5.40467 5.26596 5.11955 5.70914 5.61528 5.50962 
5.3926 5.26596 5.13292 4.99789 5.67937 5.59016 5.49102 5.38246 5.26596 
5.14407 5.02016 4.89798 5.56831 5.47502 5.47502 5.37381 5.37381 5.37381 
5.26596 5.26596 5.26596 5.26596 5.1535 5.1535 5.1535 5.1535 5.1535 
5.03907 5.03907 5.03907 5.03907 5.03907 5.03907 4.92564 4.92564 4.92564 
4.92564 4.92564 4.92564 4.92564 4.81599 4.81599 4.81599 4.81599 4.81599 
4.81599 4.81599 4.81599 4.60879 4.60879 4.49914 4.60879 4.49914 4.3857 
4.60879 4.49914 4.3857 4.27128 4.60879 4.49914 4.3857 4.27128 4.15881 
4.60879 4.49914 4.3857 4.27128 4.15881 4.05096 4.60879 4.49914 4.3857 
4.27128 4.15881 4.05096 3.94976 4.60879 4.49914 4.3857 4.27128 4.15881 
4.05096 3.94976 3.85646 4.5268 4.40462 4.42689 4.28071 4.29185 4.30523 
4.15881 4.15881 4.15881 4.15881 4.04232 4.03217 4.02011 4.00552 3.98753 
3.93376 3.91515 3.89328 3.86721 3.83566 3.7968 3.83461 3.8095 3.78037 
3.74624 3.70581 3.65733 3.59845 3.7454 3.71564 3.68161 3.64243 3.59698 
3.54386 3.48135 3.40735 3.56428 3.45246 3.52338 3.33203 3.40312 3.47739 
3.20576 3.27463 3.34802 3.42551 3.07742 3.14159 3.21128 3.28647 3.36688 
2.95116 3.00855 3.0719 3.14159 3.21784 3.3006 2.83072 2.88006 2.93517 
2.99672 3.06535 3.14159 3.22575 2.7189 2.7598 2.8058 2.85768 2.9163 
2.98259 3.05743 3.14159 3.56428 3.52338 3.45246 3.47739 3.40312 3.33203 
3.42551 3.34802 3.27463 3.20576 3.36688 3.28647 3.21128 3.14159 3.07742 
3.3006 3.21784 3.14159 3.0719 3.00855 2.95116 3.22575 3.14159 3.06535 
2.99672 2.93517 2.88006 2.83072 3.14159 3.05743 2.98259 2.9163 2.85768 
2.8058 2.7598 2.7189 4.5268 4.42689 4.40462 4.30523 4.29185 4.28071 
4.15881 4.15881 4.15881 4.15881 3.98753 4.00552 4.02011 4.03217 4.04232 
3.7968 3.83566 3.86721 3.89328 3.91515 3.93376 3.59845 3.65733 3.70581 
3.74624 3.78037 3.8095 3.83461 3.40735 3.48135 3.54386 3.59698 3.64243 
3.68161 3.71564 3.7454 4.71239 4.80045 4.62433 4.91556 4.71239 4.50922 
5.06749 4.83537 4.58941 4.35729 5.26596 5.0121 4.71239 4.41268 4.15881 
5.51259 5.26596 4.91556 4.50922 4.15881 3.91219 5.78856 5.60297 5.26596 
4.71239 4.15881 3.82181 3.63622 6.05603 5.97021 5.78856 5.26596 4.15881 
3.63622 3.45456 3.36875 0.227158 0.494626 0.312971 0.770593 0.680215 0.494626 
1.01722 1.01722 1.01722 1.01722 1.2157 1.27109 1.36763 1.5708 2.12437 
1.36763 1.44781 1.5708 1.77397 2.12437 2.64697 1.48273 1.5708 1.69378 
1.8705 2.12437 2.46138 2.82862 1.5708 1.65886 1.77397 1.9259 2.12437 
2.371 2.64697 2.91443 1.75639 1.87857 1.8563 2.00248 1.99133 1.97796 
2.12437 2.12437 2.12437 2.12437 2.24087 2.25101 2.26308 2.27767 2.29565 
2.34943 2.36803 2.38991 2.41597 2.44752 2.48639 2.44857 2.47368 2.50281 
2.53694 2.57738 2.62586 2.68474 2.53778 2.56754 2.60157 2.64076 2.68621 
2.73933 2.80184 2.87583 1.6744 1.6744 1.78405 1.6744 1.78405 1.89748 
1.6744 1.78405 1.89748 2.01191 1.6744 1.78405 1.89748 2.01191 2.12437 
1.6744 1.78405 1.89748 2.01191 2.12437 2.23222 1.6744 1.78405 1.89748 
2.01191 2.12437 2.23222 2.33343 1.6744 1.78405 1.89748 2.01191 2.12437 
2.23222 2.33343 2.42672 1.4672 1.35755 1.4672 1.24411 1.35755 1.4672 
1.12969 1.24411 1.35755 1.4672 1.01722 1.12969 1.24411 1.35755 1.4672 
0.909371 1.01722 1.12969 1.24411 1.35755 1.4672 0.808166 0.909371 1.01722 
1.12969 1.24411 1.35755 1.4672 0.714871 0.808166 0.909371 1.01722 1.12969 
1.24411 1.35755 1.4672 0.603812 0.57405 0.693022 0.540021 0.667908 0.792164 
0.500837 0.638778 0.773562 0.900726 0.455383 0.604649 0.751687 0.890581 1.01722 
0.402264 0.564217 0.725619 0.878514 1.01722 1.13912 0.339753 0.515737 0.694072 
0.863926 1.01722 1.15026 1.26302 0.265762 0.456853 0.655207 0.845941 1.01722 
1.16363 1.28529 1.38521 0.227158 0.312971 0.494626 0.494626 0.680215 0.770593 
1.01722 1.01722 1.01722 1.01722 2.12437 1.5708 1.36763 1.27109 1.2157 
2.64697 2.12437 1.77397 1.5708 1.44781 1.36763 2.82862 2.46138 2.12437 
1.8705 1.69378 1.5708 1.48273 2.91443 2.64697 2.371 2.12437 1.9259 
1.77397 1.65886 1.5708 1.75639 1.8563 1.87857 1.97796 1.99133 2.00248 
2.12437 2.12437 2.12437 2.12437 2.29565 2.27767 2.26308 2.25101 2.24087 
2.48639 2.44752 2.41597 2.38991 2.36803 2.34943 2.68474 2.62586 2.57738 
2.53694 2.50281 2.47368 2.44857 2.87583 2.80184 2.73933 2.68621 2.64076 
2.60157 2.56754 2.53778 5.86049 5.90139 5.97231 5.94739 6.02165 6.09275 
5.99927 6.07676 6.15015 6.21902 6.0579 6.13831 6.2135 0 0.0641696 
6.12418 6.20694 6.28319 0.069689 0.13304 0.190437 6.19903 0 0.0762451 
0.144876 0.206423 0.261531 0.310872 0 0.0841597 0.159004 0.225289 0.283913 
0.335793 0.381792 0.422692 5.86049 5.97231 5.90139 6.09275 6.02165 5.94739 
6.21902 6.15015 6.07676 5.99927 0.0641696 0 6.2135 6.13831 6.0579 
0.190437 0.13304 0.069689 6.28319 6.20694 6.12418 0.310872 0.261531 0.206423 
0.144876 0.0762451 6.28319 6.19903 0.422692 0.381792 0.335793 0.283913 0.225289 
0.159004 0.0841597 0 5.67937 5.70914 5.59016 5.74316 5.61528 5.49102 
5.78235 5.64441 5.50962 5.38246 5.8278 5.67854 5.5315 5.3926 5.26596 
5.88092 5.71897 5.55757 5.40467 5.26596 5.14407 5.94343 5.76745 5.58911 
5.41926 5.26596 5.13292 5.02016 6.01742 5.82633 5.62798 5.43724 5.26596 
5.11955 4.99789 4.89798 1.38521 1.28529 1.26302 1.16363 1.15026 1.13912 
1.01722 1.01722 1.01722 1.01722 0.845941 0.863926 0.878514 0.890581 0.900726 
0.655207 0.694072 0.725619 0.751687 0.773562 0.792164 0.456853 0.515737 0.564217 
0.604649 0.638778 0.667908 0.693022 0.265762 0.339753 0.402264 0.455383 0.500837 
0.540021 0.57405 0.603812 
