# vtk DataFile Version 4.0
vtk output
ASCII
DATASET POLYDATA
POINTS 1002 float
-86.7232 -95.8403 67.6867 -80.9936 -102.877 67.7684 -79.9523 -91.6352 67.1656 
-75.5855 -100.23 68.1292 -82.3246 -98.3781 73.1333 -79.1181 -96.7539 72.6343 
-82.7264 -98.9349 62.7736 -79.0292 -97.4061 63.0793 -77.2843 -105.864 72.284 
-84.561 -90.6338 70.2765 -76.7046 -106.983 64.3343 -84.8794 -89.7037 64.2595 
-86.1181 -96.253 67.6112 -85.3965 -96.6244 67.5452 -84.8878 -97.4057 67.5856 
-84.6464 -98.5688 67.6497 -84.1075 -99.4037 67.6695 -83.2326 -99.9272 67.7678 
-82.6952 -100.83 67.9345 -82.4093 -101.905 67.9745 -81.8192 -102.555 67.8674 
-86.5192 -95.968 68.3353 -86.1122 -95.9482 68.8053 -85.4862 -95.9333 69.1834 
-84.8691 -96.1429 69.6925 -84.4279 -96.5253 70.2873 -83.998 -96.9056 70.8955 
-83.5187 -97.2788 71.569 -83.1079 -97.6758 72.1853 -82.7257 -98.0524 72.6691 
-86.4729 -95.9676 66.9311 -86.1804 -96.1319 66.2036 -85.9926 -96.4036 65.6215 
-85.8138 -96.8494 65.1068 -85.5881 -97.4957 64.5322 -85.4032 -98.2019 63.9121 
-85.01 -98.656 63.3938 -84.2147 -98.7552 63.1011 -83.3477 -98.7646 62.9523 
-87.0196 -95.3565 68.0949 -87.037 -94.7263 68.3637 -86.9709 -93.9614 68.6987 
-87.0938 -93.0427 69.3102 -87.1525 -92.114 69.8037 -86.7288 -91.4458 69.8069 
-86.0474 -91.0982 69.7327 -85.4846 -90.9041 69.9183 -85.0209 -90.7469 70.1506 
-87.1257 -95.275 67.2393 -87.5207 -94.5916 66.8145 -87.6491 -94.0082 66.4691 
-87.3546 -93.3588 66.0075 -87.095 -92.3563 65.297 -87.0377 -91.3082 64.6737 
-86.5916 -90.6752 64.5467 -85.7481 -90.3506 64.6982 -85.1306 -90.0362 64.6229 
-81.1507 -102.667 68.3374 -81.4574 -102.521 69.0667 -81.7111 -102.233 69.6576 
-81.698 -101.601 70.0809 -81.569 -100.811 70.5977 -81.6667 -100.225 71.2269 
-81.9838 -99.808 71.8313 -82.2569 -99.3459 72.3957 -82.3577 -98.848 72.8565 
-81.4187 -102.911 67.388 -81.661 -102.759 66.9883 -81.7053 -102.406 66.4641 
-81.9172 -102.023 65.7452 -82.3009 -101.657 64.9585 -82.4414 -101.168 64.3533 
-82.4236 -100.535 63.9283 -82.534 -99.8967 63.5141 -82.6702 -99.3634 63.1114 
-80.2673 -103.056 68.0018 -79.8177 -103.456 68.3507 -79.6605 -104.115 68.9122 
-79.4321 -104.78 69.583 -79.0494 -105.25 70.0975 -78.7338 -105.557 70.5306 
-78.4518 -105.786 71.1528 -78.1079 -105.973 71.7849 -77.7189 -106.04 72.1356 
-80.5671 -103.388 67.5868 -80.4255 -104.236 67.5006 -80.314 -105.049 67.1503 
-79.7715 -105.402 66.5648 -78.8526 -105.529 66.1433 -78.2 -105.976 65.7685 
-78.0705 -106.731 65.1709 -77.9408 -107.285 64.631 -77.4119 -107.323 64.3953 
-79.4439 -92.2069 67.2359 -79.0682 -93.0934 67.2422 -78.8335 -94.21 67.2627 
-78.39 -95.2198 67.4134 -77.7097 -96.106 67.5359 -77.2597 -97.1331 67.4758 
-76.954 -98.1571 67.4906 -76.4071 -98.9009 67.7501 -75.835 -99.5047 68.0276 
-79.7934 -91.8595 67.6995 -79.6562 -92.1955 68.388 -79.4662 -92.5426 69.189 
-79.1722 -92.8594 69.8474 -79.0456 -93.3619 70.2516 -79.2638 -94.1569 70.6423 
-79.4407 -94.9539 71.2209 -79.3162 -95.566 71.8583 -79.1373 -96.1327 72.3364 
-79.7683 -91.7866 66.7145 -79.5255 -92.0446 66.1404 -79.2459 -92.4302 65.3996 
-79.0231 -92.9368 64.727 -78.9744 -93.677 64.3659 -79.0341 -94.6279 64.1811 
-79.0523 -95.499 63.9319 -79.0293 -96.187 63.6183 -79.0222 -96.8163 63.3274 
-80.3478 -91.2294 67.4227 -80.7614 -90.7446 67.7653 -81.2834 -90.2981 68.1284 
-81.8154 -89.9238 68.4866 -82.2078 -89.5062 68.9833 -82.6222 -89.2106 69.5858 
-83.1995 -89.3407 69.9326 -83.784 -89.8052 69.9646 -84.2335 -90.2877 70.0254 
-80.3834 -91.2624 66.7723 -80.793 -90.7981 66.3605 -81.2848 -90.1917 65.9891 
-81.9095 -89.6452 65.5947 -82.3234 -89.1646 65.0947 -82.5897 -88.5979 64.5032 
-83.2927 -88.2465 63.9664 -84.234 -88.4406 63.761 -84.7625 -89.0165 63.9513 
-75.7017 -99.9016 68.6563 -76.0964 -99.7146 68.9835 -76.6782 -99.6362 69.2308 
-77.2957 -99.5645 69.6703 -77.7218 -99.3138 70.3083 -77.8546 -98.727 70.9672 
-77.993 -97.9851 71.5942 -78.3373 -97.4128 72.1198 -78.7387 -97.0468 72.4526 
-75.7542 -100.176 67.4548 -76.0152 -100.1 66.7541 -76.1328 -99.7473 66.0981 
-76.0384 -99.1179 65.3884 -76.0149 -98.488 64.6728 -76.4266 -98.0832 64.1671 
-77.1986 -97.9399 63.8806 -77.9534 -97.8951 63.6433 -78.5387 -97.7272 63.3651 
-75.6279 -100.98 68.4674 -75.7922 -101.961 68.8063 -75.8234 -102.826 69.3215 
-75.7638 -103.474 69.8928 -75.8168 -104.184 70.3283 -75.8817 -104.944 70.8492 
-75.8941 -105.438 71.4682 -76.1019 -105.658 71.8444 -76.6258 -105.79 72.0309 
-75.6537 -101.101 67.6996 -75.8113 -102.212 67.2178 -75.7351 -103.371 66.8133 
-75.3143 -104.21 66.483 -75.0411 -104.756 66.1378 -75.2474 -105.465 65.7176 
-75.5039 -106.291 65.2362 -75.6377 -106.799 64.8033 -76.0196 -106.969 64.5068 
-82.0632 -98.2526 73.6206 -82.0009 -98.0493 74.3123 -82.0857 -97.7278 75.0068 
-81.7825 -97.3333 75.2362 -80.9706 -97.0965 74.9281 -80.3622 -97.1693 74.409 
-80.1825 -97.3126 73.8214 -79.9305 -97.2422 73.2626 -79.4865 -96.9998 72.8837 
-81.9513 -98.9957 73.4717 -81.4991 -99.6748 73.6828 -81.026 -100.395 73.7635 
-80.5043 -101.053 73.6812 -79.8033 -101.711 73.3293 -79.1031 -102.718 73.015 
-78.673 -104.016 73.1013 -78.3491 -105.035 73.2106 -77.8741 -105.565 72.885 
-82.5058 -97.672 72.9484 -82.8163 -96.8204 72.7054 -83.3132 -95.8183 72.639 
-83.8396 -94.8172 72.748 -84.2716 -93.9841 72.6961 -84.6059 -93.1592 72.4146 
-84.7435 -92.1989 72.0989 -84.6744 -91.3991 71.6512 -84.5835 -90.9574 70.9692 
-78.9528 -97.6083 72.793 -78.8706 -98.5882 72.8632 -78.7883 -99.614 72.8431 
-78.4641 -100.552 72.927 -77.822 -101.439 73.1329 -77.1463 -102.363 73.2396 
-76.8328 -103.341 73.1991 -76.9341 -104.355 73.0511 -77.1536 -105.25 72.7411 
-79.4726 -95.9946 72.6531 -79.8554 -95.065 72.7307 -80.4312 -94.1974 72.6786 
-81.1311 -93.4969 72.4859 -81.6579 -92.6492 72.5023 -82.1742 -91.6735 72.5949 
-82.8913 -91.0571 72.2307 -83.565 -90.8653 71.4908 -84.0876 -90.7725 70.8 
-82.4767 -98.8807 62.3833 -82.2569 -98.8648 61.8926 -81.9711 -98.8439 61.5016 
-81.4296 -98.703 61.4213 -80.5997 -98.3269 61.4946 -79.8993 -97.8663 61.5596 
-79.6445 -97.6057 61.8205 -79.5553 -97.5454 62.2999 -79.3322 -97.5029 62.7448 
-82.2591 -99.5674 62.7047 -81.7842 -100.329 62.6316 -81.0494 -101.008 62.7885 
-80.2292 -101.718 63.1246 -79.7239 -102.68 63.2948 -79.2193 -103.696 63.3911 
-78.42 -104.61 63.6749 -77.7055 -105.526 63.9737 -77.2046 -106.364 64.1479 
-83.1224 -98.3584 62.5906 -83.6153 -97.6874 62.4575 -84.1054 -96.874 62.4347 
-84.375 -95.8963 62.5623 -84.434 -94.8102 62.9114 -84.5879 -93.8694 63.4002 
-84.8121 -93.0539 63.8055 -84.857 -91.9921 64.0694 -84.821 -90.7355 64.2229 
-78.6974 -98.1523 63.0134 -78.2385 -98.8324 62.9413 -77.721 -99.5536 62.8554 
-77.3167 -100.511 62.832 -77.0188 -101.749 63.0134 -76.6705 -103.094 63.3535 
-76.3357 -104.298 63.6719 -76.2275 -105.286 63.9272 -76.3907 -106.169 64.1453 
-79.5357 -96.663 62.9759 -80.191 -95.9759 62.9757 -80.9099 -95.3729 63.0047 
-81.4351 -94.5858 62.953 -81.8261 -93.648 63.0652 -82.4705 -92.8496 63.4702 
-83.3897 -92.0171 63.7562 -84.1803 -90.9886 63.7885 -84.6284 -90.1224 63.9121 
-76.9714 -106.347 71.5816 -76.7718 -106.961 70.9994 -76.6972 -107.752 70.4586 
-76.5598 -108.482 69.5682 -76.3818 -108.803 68.3499 -76.3194 -108.774 67.1878 
-76.3259 -108.635 66.1796 -76.3957 -108.319 65.3162 -76.556 -107.73 64.6969 
-84.8221 -90.2169 69.6568 -84.9333 -89.7175 69.0676 -84.9239 -89.3476 68.3334 
-85.1009 -88.9499 67.5168 -85.4443 -88.3684 66.8952 -85.5822 -88.1635 66.3669 
-85.496 -88.5755 65.7001 -85.337 -88.9994 65.038 -85.1112 -89.247 64.5638 
-85.8261 -96.3038 68.18 -85.3 -96.3634 68.6077 -85.0847 -96.8222 68.0598 
-84.7058 -96.6287 69.1406 -84.6999 -97.2177 68.6078 -84.7414 -97.8996 68.1727 
-84.2997 -97.0328 69.803 -84.3492 -97.7278 69.3493 -84.541 -98.4865 68.9096 
-84.4574 -99.0423 68.3487 -83.9262 -97.358 70.338 -83.9696 -98.0448 69.9826 
-84.0848 -98.8247 69.6108 -83.9782 -99.3554 69.0441 -83.5813 -99.6228 68.3832 
-83.4024 -97.6697 70.8869 -83.3989 -98.2416 70.4289 -83.3534 -98.8885 70.0616 
-83.1578 -99.3984 69.471 -82.8769 -99.7862 68.8863 -82.7093 -100.256 68.4401 
-82.9686 -98.081 71.6083 -82.8457 -98.5808 71.0372 -82.6512 -99.0772 70.5747 
-82.3867 -99.5065 69.9249 -82.2409 -100.014 69.26 -82.2798 -100.686 68.9167 
-82.3863 -101.377 68.5658 -82.6869 -98.5026 72.2986 -82.5244 -98.9952 71.7629 
-82.2277 -99.4435 71.233 -81.9238 -99.8474 70.6127 -81.8587 -100.423 69.9045 
-81.9983 -101.188 69.4423 -82.0653 -101.86 69.1072 -81.9753 -102.29 68.5368 
-86.7364 -95.5089 68.749 -86.7562 -94.8513 69.0416 -86.3143 -95.4524 69.1971 
-86.8475 -94.0353 69.495 -86.3565 -94.7539 69.5014 -85.6627 -95.3843 69.5651 
-87.0193 -93.1571 70.1244 -86.3498 -93.9894 69.9578 -85.5843 -94.6989 69.8532 
-84.9757 -95.6061 70.0825 -86.8466 -92.3657 70.405 -86.2883 -93.3274 70.4622 
-85.394 -94.0849 70.246 -84.852 -95.0132 70.4202 -84.5045 -96.0809 70.8 
-86.2585 -91.7717 70.3751 -86.0542 -92.7399 70.7606 -85.3732 -93.619 70.7699 
-84.8131 -94.4831 70.886 -84.5665 -95.5865 71.3255 -84.1323 -96.5709 71.6096 
-85.6177 -91.374 70.5459 -85.6499 -92.1728 71.0765 -85.3817 -93.1262 71.3495 
-84.9503 -93.9934 71.5287 -84.6638 -94.9989 71.8396 -84.2844 -96.1082 72.1361 
-83.6568 -96.9826 72.223 -85.0726 -91.117 70.8344 -85.1656 -91.7104 71.4558 
-85.1553 -92.6139 71.855 -84.9045 -93.5261 72.1301 -84.5645 -94.3971 72.3481 
-84.1709 -95.4382 72.4366 -83.6118 -96.4893 72.4729 -83.0691 -97.3401 72.5669 
-84.1505 -91.0758 71.5522 -83.6243 -91.2784 72.1765 -84.2373 -91.6985 72.1148 
-82.875 -91.7027 72.7446 -83.5842 -92.1269 72.5532 -84.1788 -92.7048 72.4373 
-82.1109 -92.4533 72.965 -82.7011 -92.6356 73.0314 -83.414 -93.2178 72.8392 
-83.9293 -93.6933 72.7859 -81.5488 -93.4115 72.8968 -81.8679 -93.3923 73.2962 
-82.5546 -93.7718 73.3388 -83.2454 -94.2477 73.2184 -83.5559 -94.5086 73.0415 
-81.0221 -94.3811 72.8898 -81.2642 -94.5053 73.2916 -81.7022 -94.7022 73.6199 
-82.5327 -94.9931 73.7116 -82.9671 -95.1802 73.5081 -83.0372 -95.393 73.034 
-80.4763 -95.3427 72.9157 -80.8419 -95.6592 73.2423 -81.0381 -95.8385 73.6778 
-81.7045 -95.9105 74.0807 -82.4272 -95.9624 74.2206 -82.5294 -96.0956 73.7946 
[...]
POINT_DATA 1002
FIELD FieldData 2
Theta 1 1002 float
2.58802 2.58802 0.553574 0.553574 2.12437 1.01722 2.12437 1.01722 1.5708 
1.5708 1.5708 1.5708 2.68241 2.78649 2.89924 3.01861 3.14159 3.01861 
2.89924 2.78649 2.68241 2.61035 2.61791 2.60515 2.56958 2.51327 2.44184 
2.36202 2.27983 2.1997 2.61035 2.61791 2.60515 2.56958 2.51327 2.44184 
2.36202 2.27983 2.1997 2.50947 2.41899 2.31794 2.20864 2.0944 1.97902 
1.86631 1.75944 1.66056 2.50947 2.41899 2.31794 2.20864 2.0944 1.97902 
1.86631 1.75944 1.66056 2.61035 2.61791 2.60515 2.56958 2.51327 2.44184 
2.36202 2.27983 2.1997 2.61035 2.61791 2.60515 2.56958 2.51327 2.44184 
2.36202 2.27983 2.1997 2.50947 2.41899 2.31794 2.20864 2.0944 1.97902 
1.86631 1.75944 1.66056 2.50947 2.41899 2.31794 2.20864 2.0944 1.97902 
1.86631 1.75944 1.66056 0.459179 0.355101 0.242354 0.122983 0 0.122983 
0.242354 0.355101 0.459179 0.531246 0.523681 0.536438 0.57201 0.628319 0.699757 
0.779574 0.86176 0.941896 0.531246 0.523681 0.536438 0.57201 0.628319 0.699757 
0.779574 0.86176 0.941896 0.632123 0.7226 0.823657 0.932948 1.0472 1.16257 
1.27528 1.38216 1.48103 0.632123 0.7226 0.823657 0.932948 1.0472 1.16257 
1.27528 1.38216 1.48103 0.531246 0.523681 0.536438 0.57201 0.628319 0.699757 
0.779574 0.86176 0.941896 0.531246 0.523681 0.536438 0.57201 0.628319 0.699757 
0.779574 0.86176 0.941896 0.632123 0.7226 0.823657 0.932948 1.0472 1.16257 
1.27528 1.38216 1.48103 0.632123 0.7226 0.823657 0.932948 1.0472 1.16257 
1.27528 1.38216 1.48103 2.02998 1.9259 1.81315 1.69378 1.5708 1.44781 
1.32844 1.2157 1.11162 2.0928 2.05283 2.00422 1.94767 1.88496 1.81867 
1.75177 1.68695 1.62623 2.0928 2.05283 2.00422 1.94767 1.88496 1.81867 
1.75177 1.68695 1.62623 1.0488 1.08876 1.13737 1.19392 1.25664 1.32292 
1.38982 1.45464 1.51537 1.0488 1.08876 1.13737 1.19392 1.25664 1.32292 
1.38982 1.45464 1.51537 2.02998 1.9259 1.81315 1.69378 1.5708 1.44781 
1.32844 1.2157 1.11162 2.0928 2.05283 2.00422 1.94767 1.88496 1.81867 
1.75177 1.68695 1.62623 2.0928 2.05283 2.00422 1.94767 1.88496 1.81867 
1.75177 1.68695 1.62623 1.0488 1.08876 1.13737 1.19392 1.25664 1.32292 
1.38982 1.45464 1.51537 1.0488 1.08876 1.13737 1.19392 1.25664 1.32292 
1.38982 1.45464 1.51537 1.5708 1.5708 1.5708 1.5708 1.5708 1.5708 
1.5708 1.5708 1.5708 1.5708 1.5708 1.5708 1.5708 1.5708 1.5708 
1.5708 1.5708 1.5708 2.70908 2.71362 2.81592 2.68886 2.81002 2.92597 
2.6349 2.76254 2.89233 3.01997 2.55881 2.68262 2.80854 2.92834 3.01997 
2.47007 2.58462 2.70048 2.80854 2.89233 2.92597 2.37702 2.48017 2.58462 
2.68262 2.76254 2.81002 2.81592 2.28567 2.37702 2.47007 2.55881 2.6349 
2.68886 2.71362 2.70908 2.52097 2.4195 2.51718 2.30791 2.40503 2.49426 
2.18928 2.28408 2.3734 2.45144 2.06758 2.15805 2.24572 2.32523 2.39165 
1.94707 2.03138 2.11543 2.19453 2.26401 2.32035 1.83164 1.90847 1.98711 
2.06376 2.13422 2.1949 2.24359 1.72413 1.79288 1.86489 1.93728 2.00658 
2.06938 2.12312 2.16654 1.5708 1.50988 1.63171 1.44492 1.5708 1.69667 
1.37826 1.5059 1.63569 1.76333 1.31281 1.43962 1.5708 1.70197 1.82878 
1.25155 1.37501 1.50478 1.63681 1.76659 1.89004 1.19686 1.31493 1.44074 
1.5708 1.70086 1.82666 1.94473 1.15011 1.26149 1.38136 1.50697 1.63462 
1.76024 1.88011 1.99148 1.99148 1.88011 1.94473 1.76024 1.82666 1.89004 
1.63462 1.70086 1.76659 1.82878 1.50697 1.5708 1.63681 1.70197 1.76333 
1.38136 1.44074 1.50478 1.5708 1.63569 1.69667 1.26149 1.31493 1.37501 
1.43962 1.5059 1.5708 1.63171 1.15011 1.19686 1.25155 1.31281 1.37826 
1.44492 1.50988 1.5708 2.16654 2.12312 2.24359 2.06938 2.1949 2.32035 
2.00658 2.13422 2.26401 2.39165 1.93728 2.06376 2.19453 2.32523 2.45144 
1.86489 1.98711 2.11543 2.24572 2.3734 2.49426 1.79288 1.90847 2.03138 
2.15805 2.28408 2.40503 2.51718 1.72413 1.83164 1.94707 2.06758 2.18928 
2.30791 2.4195 2.52097 1.66533 1.66946 1.76911 1.67254 1.777 1.88041 
1.67418 1.78222 1.89102 1.99634 1.67418 1.78405 1.89674 2.00785 2.11299 
1.67254 1.78222 1.89674 2.01191 2.12307 2.22608 1.66946 1.777 1.89102 
2.00785 2.12307 2.23222 2.33166 1.66533 1.76911 1.88041 1.99634 2.11299 
2.22608 2.33166 2.42672 1.47626 1.37249 1.47213 1.26118 1.36459 1.46906 
1.14526 1.25058 1.35938 1.46741 1.0286 1.13374 1.24485 1.35755 1.46741 
0.915514 1.01852 1.12969 1.24485 1.35938 1.46906 0.809937 0.909371 1.01852 
1.13374 1.25058 1.36459 1.47213 0.714871 0.809937 0.915514 1.0286 1.14526 
1.26118 1.37249 1.47626 0.975055 0.898002 1.01847 0.821245 0.946693 1.07221 
0.749941 0.877585 1.00737 1.13501 0.690152 0.816367 0.94706 1.07784 1.20431 
0.647337 0.768195 0.895868 1.02616 1.15448 1.2767 0.624416 0.736561 0.857515 
0.983547 1.11021 1.23313 1.34871 0.620619 0.722093 0.833684 0.952313 1.07402 
1.19452 1.30996 1.41746 0.855925 0.764569 0.764569 0.671524 0.661425 0.671524 
0.582786 0.556971 0.556971 0.582786 0.506696 0.458968 0.441109 0.458968 0.506696 
0.45273 0.379052 0.333054 0.333054 0.379052 0.45273 0.427969 0.331576 0.249267 
0.21325 0.249267 0.331576 0.427969 0.432512 0.325669 0.215619 0.121622 0.121622 
0.215619 0.325669 0.432512 0.432512 0.427969 0.325669 0.45273 0.331576 0.215619 
0.506696 0.379052 0.249267 0.121622 0.582786 0.458968 0.333054 0.21325 0.121622 
0.671524 0.556971 0.441109 0.333054 0.249267 0.215619 0.764569 0.661425 0.556971 
0.458968 0.379052 0.331576 0.325669 0.855925 0.764569 0.671524 0.582786 0.506696 
0.45273 0.427969 0.432512 0.975055 1.01847 0.898002 1.07221 0.946693 0.821245 
1.13501 1.00737 0.877585 0.749941 1.20431 1.07784 0.94706 0.816367 0.690152 
1.2767 1.15448 1.02616 0.895868 0.768195 0.647337 1.34871 1.23313 1.11021 
0.983547 0.857515 0.736561 0.624416 1.41746 1.30996 1.19452 1.07402 0.952313 
0.833684 0.722093 0.620619 1.15011 1.26149 1.19686 1.38136 1.31493 1.25155 
1.50697 1.44074 1.37501 1.31281 1.63462 1.5708 1.50478 1.43962 1.37826 
1.76024 1.70086 1.63681 1.5708 1.5059 1.44492 1.88011 1.82666 1.76659 
1.70197 1.63569 1.5708 1.50988 1.99148 1.94473 1.89004 1.82878 1.76333 
1.69667 1.63171 1.5708 1.15011 1.19686 1.26149 1.25155 1.31493 1.38136 
1.31281 1.37501 1.44074 1.50697 1.37826 1.43962 1.50478 1.5708 1.63462 
1.44492 1.5059 1.5708 1.63681 1.70086 1.76024 1.50988 1.5708 1.63569 
1.70197 1.76659 1.82666 1.88011 1.5708 1.63171 1.69667 1.76333 1.82878 
1.89004 1.94473 1.99148 1.72413 1.83164 1.79288 1.94707 1.90847 1.86489 
2.06758 2.03138 1.98711 1.93728 2.18928 2.15805 2.11543 2.06376 2.00658 
2.30791 2.28408 2.24572 2.19453 2.13422 2.06938 2.4195 2.40503 2.3734 
2.32523 2.26401 2.1949 2.12312 2.52097 2.51718 2.49426 2.45144 2.39165 
2.32035 2.24359 2.16654 2.70908 2.81592 2.71362 2.92597 2.81002 2.68886 
3.01997 2.89233 2.76254 2.6349 3.01997 2.92834 2.80854 2.68262 2.55881 
2.92597 2.89233 2.80854 2.70048 2.58462 2.47007 2.81592 2.81002 2.76254 
2.68262 2.58462 2.48017 2.37702 2.70908 2.71362 2.68886 2.6349 2.55881 
2.47007 2.37702 2.28567 2.16654 2.24359 2.12312 2.32035 2.1949 2.06938 
2.39165 2.26401 2.13422 2.00658 2.45144 2.32523 2.19453 2.06376 1.93728 
2.49426 2.3734 2.24572 2.11543 1.98711 1.86489 2.51718 2.40503 2.28408 
2.15805 2.03138 1.90847 1.79288 2.52097 2.4195 2.30791 2.18928 2.06758 
1.94707 1.83164 1.72413 1.66533 1.76911 1.66946 1.88041 1.777 1.67254 
1.99634 1.89102 1.78222 1.67418 2.11299 2.00785 1.89674 1.78405 1.67418 
2.22608 2.12307 2.01191 1.89674 1.78222 1.67254 2.33166 2.23222 2.12307 
2.00785 1.89102 1.777 1.66946 2.42672 2.33166 2.22608 2.11299 1.99634 
1.88041 1.76911 1.66533 1.47626 1.47213 1.37249 1.46906 1.36459 1.26118 
1.46741 1.35938 1.25058 1.14526 1.46741 1.35755 1.24485 1.13374 1.0286 
1.46906 1.35938 1.24485 1.12969 1.01852 0.915514 1.47213 1.36459 1.25058 
1.13374 1.01852 0.909371 0.809937 1.47626 1.37249 1.26118 1.14526 1.0286 
0.915514 0.809937 0.714871 1.41746 1.30996 1.34871 1.19452 1.23313 1.2767 
1.07402 1.11021 1.15448 1.20431 0.952313 0.983547 1.02616 1.07784 1.13501 
0.833684 0.857515 0.895868 0.94706 1.00737 1.07221 0.722093 0.736561 0.768195 
0.816367 0.877585 0.946693 1.01847 0.620619 0.624416 0.647337 0.690152 0.749941 
0.821245 0.898002 0.975055 0.975055 0.898002 1.01847 0.821245 0.946693 1.07221 
0.749941 0.877585 1.00737 1.13501 0.690152 0.816367 0.94706 1.07784 1.20431 
0.647337 0.768195 0.895868 1.02616 1.15448 1.2767 0.624416 0.736561 0.857515 
0.983547 1.11021 1.23313 1.34871 0.620619 0.722093 0.833684 0.952313 1.07402 
1.19452 1.30996 1.41746 
Phi 1 1002 float
6.28319 3.14159 6.28319 3.14159 4.71239 4.71239 1.5708 1.5708 3.69517 
5.72961 2.58802 0.553574 6.28319 6.28319 6.28319 6.28319 3.14159 3.14159 
3.14159 3.14159 3.14159 6.1053 5.8988 5.67687 5.45995 5.26596 5.10322 
4.97131 4.86569 4.78095 0.177881 0.384387 0.606312 0.823235 1.01722 1.17997 
1.31187 1.4175 1.50223 6.18928 6.10703 6.03531 5.97283 5.91832 5.87061 
5.82869 5.79168 5.75886 0.0939024 0.176153 0.247873 0.310351 0.364864 0.412573 
0.454497 0.491504 0.524326 3.31947 3.52598 3.7479 3.96483 4.15881 4.32156 
4.45346 4.55909 4.64383 2.96371 2.75721 2.53528 2.31836 2.12437 1.96162 
1.82972 1.72409 1.63936 3.2355 3.31775 3.38947 3.45194 3.50646 3.55417 
3.59609 3.6331 3.66592 3.04769 2.96544 2.89372 2.83124 2.77673 2.72902 
2.6871 2.65009 2.61727 6.28319 6.28319 6.28319 6.28319 3.14159 3.14159 
3.14159 3.14159 3.14159 6.1053 5.8988 5.67687 5.45995 5.26596 5.10322 
4.97131 4.86569 4.78095 0.177881 0.384387 0.606312 0.823235 1.01722 1.17997 
1.31187 1.4175 1.50223 6.18928 6.10703 6.03531 5.97283 5.91832 5.87061 
5.82869 5.79168 5.75886 0.0939024 0.176153 0.247873 0.310351 0.364864 0.412573 
0.454497 0.491504 0.524326 3.31947 3.52598 3.7479 3.96483 4.15881 4.32156 
4.45346 4.55909 4.64383 2.96371 2.75721 2.53528 2.31836 2.12437 1.96162 
1.82972 1.72409 1.63936 3.2355 3.31775 3.38947 3.45194 3.50646 3.55417 
3.59609 3.6331 3.66592 3.04769 2.96544 2.89372 2.83124 2.77673 2.72902 
2.6871 2.65009 2.61727 4.71239 4.71239 4.71239 4.71239 4.71239 4.71239 
4.71239 4.71239 4.71239 4.60879 4.49914 4.3857 4.27128 4.15881 4.05096 
3.94976 3.85646 3.77161 4.81599 4.92564 5.03907 5.1535 5.26596 5.37381 
5.47502 5.56831 5.65317 4.60879 4.49914 4.3857 4.27128 4.15881 4.05096 
3.94976 3.85646 3.77161 4.81599 4.92564 5.03907 5.1535 5.26596 5.37381 
5.47502 5.56831 5.65317 1.5708 1.5708 1.5708 1.5708 1.5708 1.5708 
1.5708 1.5708 1.5708 1.6744 1.78405 1.89748 2.01191 2.12437 2.23222 
2.33343 2.42672 2.51157 1.4672 1.35755 1.24411 1.12969 1.01722 0.909371 
0.808166 0.714871 0.63002 1.6744 1.78405 1.89748 2.01191 2.12437 2.23222 
2.33343 2.42672 2.51157 1.4672 1.35755 1.24411 1.12969 1.01722 0.909371 
0.808166 0.714871 0.63002 3.60077 3.49669 3.38395 3.26458 3.14159 3.01861 
2.89924 2.78649 2.68241 5.82401 5.92808 6.04083 6.1602 6.28319 0.122983 
0.242354 0.355101 0.459179 6.05603 5.78856 5.97021 5.51259 5.60297 5.78856 
5.26596 5.26596 5.26596 5.26596 5.06749 5.0121 4.91556 4.71239 4.15881 
4.91556 4.83537 4.71239 4.50922 4.15881 3.63622 4.80045 4.71239 4.58941 
4.41268 4.15881 3.82181 3.45456 4.71239 4.62433 4.50922 4.35729 4.15881 
3.91219 3.63622 3.36875 6.01742 5.94343 5.82633 5.88092 5.76745 5.62798 
5.8278 5.71897 5.58911 5.43724 5.78235 5.67854 5.55757 5.41926 5.26596 
5.74316 5.64441 5.5315 5.40467 5.26596 5.11955 5.70914 5.61528 5.50962 
5.3926 5.26596 5.13292 4.99789 5.67937 5.59016 5.49102 5.38246 5.26596 
5.14407 5.02016 4.89798 5.56831 5.47502 5.47502 5.37381 5.37381 5.37381 
5.26596 5.26596 5.26596 5.26596 5.1535 5.1535 5.1535 5.1535 5.1535 
5.03907 5.03907 5.03907 5.03907 5.03907 5.03907 4.92564 4.92564 4.92564 
4.92564 4.92564 4.92564 4.92564 4.81599 4.81599 4.81599 4.81599 4.81599 
4.81599 4.81599 4.81599 4.60879 4.60879 4.49914 4.60879 4.49914 4.3857 
4.60879 4.49914 4.3857 4.27128 4.60879 4.49914 4.3857 4.27128 4.15881 
4.60879 4.49914 4.3857 4.27128 4.15881 4.05096 4.60879 4.49914 4.3857 
4.27128 4.15881 4.05096 3.94976 4.60879 4.49914 4.3857 4.27128 4.15881 
4.05096 3.94976 3.85646 4.5268 4.40462 4.42689 4.28071 4.29185 4.30523 
4.15881 4.15881 4.15881 4.15881 4.04232 4.03217 4.02011 4.00552 3.98753 
3.93376 3.91515 3.89328 3.86721 3.83566 3.7968 3.83461 3.8095 3.78037 
3.74624 3.70581 3.65733 3.59845 3.7454 3.71564 3.68161 3.64243 3.59698 
3.54386 3.48135 3.40735 3.56428 3.45246 3.52338 3.33203 3.40312 3.47739 
3.20576 3.27463 3.34802 3.42551 3.07742 3.14159 3.21128 3.28647 3.36688 
2.95116 3.00855 3.0719 3.14159 3.21784 3.3006 2.83072 2.88006 2.93517 
2.99672 3.06535 3.14159 3.22575 2.7189 2.7598 2.8058 2.85768 2.9163 
2.98259 3.05743 3.14159 3.56428 3.52338 3.45246 3.47739 3.40312 3.33203 
3.42551 3.34802 3.27463 3.20576 3.36688 3.28647 3.21128 3.14159 3.07742 
3.3006 3.21784 3.14159 3.0719 3.00855 2.95116 3.22575 3.14159 3.06535 
2.99672 2.93517 2.88006 2.83072 3.14159 3.05743 2.98259 2.9163 2.85768 
2.8058 2.7598 2.7189 4.5268 4.42689 4.40462 4.30523 4.29185 4.28071 
4.15881 4.15881 4.15881 4.15881 3.98753 4.00552 4.02011 4.03217 4.04232 
3.7968 3.83566 3.86721 3.89328 3.91515 3.93376 3.59845 3.65733 3.70581 
3.74624 3.78037 3.8095 3.83461 3.40735 3.48135 3.54386 3.59698 3.64243 
3.68161 3.71564 3.7454 4.71239 4.80045 4.62433 4.91556 4.71239 4.50922 
5.06749 4.83537 4.58941 4.35729 5.26596 5.0121 4.71239 4.41268 4.15881 
5.51259 5.26596 4.91556 4.50922 4.15881 3.91219 5.78856 5.60297 5.26596 
4.71239 4.15881 3.82181 3.63622 6.05603 5.97021 5.78856 5.26596 4.15881 
3.63622 3.45456 3.36875 0.227158 0.494626 0.312971 0.770593 0.680215 0.494626 
1.01722 1.01722 1.01722 1.01722 1.2157 1.27109 1.36763 1.5708 2.12437 
1.36763 1.44781 1.5708 1.77397 2.12437 2.64697 1.48273 1.5708 1.69378 
1.8705 2.12437 2.46138 2.82862 1.5708 1.65886 1.77397 1.9259 2.12437 
2.371 2.64697 2.91443 1.75639 1.87857 1.8563 2.00248 1.99133 1.97796 
2.12437 2.12437 2.12437 2.12437 2.24087 2.25101 2.26308 2.27767 2.29565 
2.34943 2.36803 2.38991 2.41597 2.44752 2.48639 2.44857 2.47368 2.50281 
2.53694 2.57738 2.62586 2.68474 2.53778 2.56754 2.60157 2.64076 2.68621 
2.73933 2.80184 2.87583 1.6744 1.6744 1.78405 1.6744 1.78405 1.89748 
1.6744 1.78405 1.89748 2.01191 1.6744 1.78405 1.89748 2.01191 2.12437 
1.6744 1.78405 1.89748 2.01191 2.12437 2.23222 1.6744 1.78405 1.89748 
2.01191 2.12437 2.23222 2.33343 1.6744 1.78405 1.89748 2.01191 2.12437 
2.23222 2.33343 2.42672 1.4672 1.35755 1.4672 1.24411 1.35755 1.4672 
1.12969 1.24411 1.35755 1.4672 1.01722 1.12969 1.24411 1.35755 1.4672 
0.909371 1.01722 1.12969 1.24411 1.35755 1.4672 0.808166 0.909371 1.01722 
1.12969 1.24411 1.35755 1.4672 0.714871 0.808166 0.909371 1.01722 1.12969 
1.24411 1.35755 1.4672 0.603812 0.57405 0.693022 0.540021 0.667908 0.792164 
0.500837 0.638778 0.773562 0.900726 0.455383 0.604649 0.751687 0.890581 1.01722 
0.402264 0.564217 0.725619 0.878514 1.01722 1.13912 0.339753 0.515737 0.694072 
0.863926 1.01722 1.15026 1.26302 0.265762 0.456853 0.655207 0.845941 1.01722 
1.16363 1.28529 1.38521 0.227158 0.312971 0.494626 0.494626 0.680215 0.770593 
1.01722 1.01722 1.01722 1.01722 2.12437 1.5708 1.36763 1.27109 1.2157 
2.64697 2.12437 1.77397 1.5708 1.44781 1.36763 2.82862 2.46138 2.12437 
1.8705 1.69378 1.5708 1.48273 2.91443 2.64697 2.371 2.12437 1.9259 
1.77397 1.65886 1.5708 1.75639 1.8563 1.87857 1.97796 1.99133 2.00248 
2.12437 2.12437 2.12437 2.12437 2.29565 2.27767 2.26308 2.25101 2.24087 
2.48639 2.44752 2.41597 2.38991 2.36803 2.34943 2.68474 2.62586 2.57738 
2.53694 2.50281 2.47368 2.44857 2.87583 2.80184 2.73933 2.68621 2.64076 
2.60157 2.56754 2.53778 5.86049 5.90139 5.97231 5.94739 6.02165 6.09275 
5.99927 6.07676 6.15015 6.21902 6.0579 6.13831 6.2135 0 0.0641696 
6.12418 6.20694 6.28319 0.069689 0.13304 0.190437 6.19903 0 0.0762451 
0.144876 0.206423 0.261531 0.310872 0 0.0841597 0.159004 0.225289 0.283913 
0.335793 0.381792 0.422692 5.86049 5.97231 5.90139 6.09275 6.02165 5.94739 
6.21902 6.15015 6.07676 5.99927 0.0641696 0 6.2135 6.13831 6.0579 
0.190437 0.13304 0.069689 6.28319 6.20694 6.12418 0.310872 0.261531 0.206423 
0.144876 0.0762451 6.28319 6.19903 0.422692 0.381792 0.335793 0.283913 0.225289 
0.159004 0.0841597 0 5.67937 5.70914 5.59016 5.74316 5.61528 5.49102 
5.78235 5.64441 5.50962 5.38246 5.8278 5.67854 5.5315 5.3926 5.26596 
5.88092 5.71897 5.55757 5.40467 5.26596 5.14407 5.94343 5.76745 5.58911 
5.41926 5.26596 5.13292 5.02016 6.01742 5.82633 5.62798 5.43724 5.26596 
5.11955 4.99789 4.89798 1.38521 1.28529 1.26302 1.16363 1.15026 1.13912 
1.01722 1.01722 1.01722 1.01722 0.845941 0.863926 0.878514 0.890581 0.900726 
0.655207 0.694072 0.725619 0.751687 0.773562 0.792164 0.456853 0.515737 0.564217 
0.604649 0.638778 0.667908 0.693022 0.265762 0.339753 0.402264 0.455383 0.500837 
0.540021 0.57405 0.603812 
