# vtk DataFile Version 4.0
vtk output
ASCII
DATASET POLYDATA
POINTS 1002 float
-87.2956 -98.2207 72.926 -82.3922 -105.316 72.6655 -82.1789 -94.5568 72.4153 
-77.0063 -102.306 71.8197 -82.8136 -100.796 77.4335 -80.4365 -99.1796 77.2276 
-85.2715 -101.775 67.8756 -80.9412 -99.1063 67.7908 -77.8297 -107.752 75.5026 
-85.6804 -93.2508 76.0808 -77.726 -107.352 69.108 -87.569 -92.7744 69.6701 
-87.0614 -98.9487 72.9426 -86.6997 -99.6735 72.9412 -86.2668 -100.44 72.9284 
-85.8267 -101.281 72.9434 -85.2925 -102.105 72.9774 -84.6832 -102.944 73.0145 
-84.2085 -103.879 73.0787 -83.7834 -104.65 73.0798 -83.1497 -105.051 72.9116 
-87.0208 -98.4858 73.4259 -86.7818 -98.7827 73.9974 -86.4307 -98.9944 74.5111 
-85.8592 -99.1229 74.9154 -85.2499 -99.3636 75.3616 -84.7954 -99.7691 75.9082 
-84.3633 -100.142 76.3917 -83.8007 -100.366 76.7514 -83.2279 -100.539 77.0802 
-87.5251 -98.4872 72.5306 -87.7217 -98.8669 72.1689 -87.722 -99.3236 71.7043 
-87.6347 -99.8245 71.0615 -87.5339 -100.317 70.381 -87.0886 -100.615 69.8799 
-86.3322 -100.702 69.5116 -85.8 -100.89 69.0235 -85.5621 -101.316 68.4026 
-87.3098 -97.6211 73.2317 -87.3842 -96.9997 73.61 -87.5342 -96.4546 74.0697 
-87.6888 -95.9681 74.6714 -87.7194 -95.3548 75.2897 -87.5583 -94.6346 75.6459 
-87.2004 -94.0429 75.7418 -86.6933 -93.6568 75.8056 -86.1568 -93.4081 75.9287 
-87.5946 -97.6098 72.6283 -87.9759 -96.9904 72.363 -88.6361 -96.3757 72.1725 
-89.5547 -95.7541 71.9462 -90.1531 -95.2076 71.551 -89.8958 -94.7515 71.08 
-89.0844 -94.2089 70.659 -88.3654 -93.5654 70.2625 -87.9221 -93.0476 69.908 
-82.4168 -105.103 73.101 -82.4503 -104.81 73.6447 -82.5021 -104.39 74.2188 
-82.4764 -103.822 74.6715 -82.4508 -103.262 75.1209 -82.5909 -102.878 75.7772 
-82.7275 -102.502 76.4086 -82.6935 -101.909 76.7447 -82.668 -101.243 76.9996 
-82.7986 -105.28 72.3582 -83.1696 -105.189 71.8064 -83.5107 -105.012 71.011 
-83.8166 -104.659 70.3254 -83.974 -104.07 69.9297 -84.0481 -103.393 69.5951 
-84.2855 -102.823 69.1738 -84.6874 -102.416 68.7117 -85.0484 -102.101 68.2574 
-81.773 -105.649 72.7683 -81.3994 -106.26 73.1215 -81.0839 -106.885 73.5634 
-80.4211 -107.161 73.7985 -79.6054 -107.266 73.9863 -79.1972 -107.626 74.4347 
-79.0437 -108.098 75.0057 -78.6846 -108.286 75.4166 -78.1881 -108.128 75.5674 
-81.9059 -105.702 72.2797 -81.4876 -106.28 71.8783 -81.2275 -106.935 71.3859 
-80.9987 -107.51 70.7851 -80.5532 -107.939 70.204 -79.917 -108.151 69.7813 
-79.3297 -108.144 69.5394 -78.7994 -108.007 69.3872 -78.2318 -107.746 69.2387 
-81.8978 -95.341 72.2815 -81.3754 -96.0981 72.1489 -80.5127 -96.6228 72.0806 
-79.6336 -97.0829 72.0512 -79.0721 -97.8382 72.0464 -78.7403 -98.9289 72.0368 
-78.4301 -100.091 71.9471 -78.034 -101.063 71.8326 -77.5215 -101.761 71.7997 
-82.0172 -94.8082 72.8762 -81.8532 -95.1147 73.3161 -81.7102 -95.5466 73.8403 
-81.4615 -96.0263 74.508 -81.0595 -96.3814 75.2104 -80.7705 -96.7736 75.7361 
-80.7632 -97.4634 76.049 -80.8048 -98.2343 76.3555 -80.6752 -98.7856 76.7781 
-82.0885 -94.7287 71.7925 -81.879 -94.9234 71.1027 -81.6817 -95.2752 70.4807 
-81.5988 -95.7957 69.9736 -81.5258 -96.4118 69.5722 -81.345 -97.0875 69.2122 
-81.1333 -97.7014 68.7764 -80.9985 -98.1714 68.3234 -80.9509 -98.6136 68.0051 
-82.3444 -93.9835 72.7827 -82.6139 -93.4669 73.0744 -83.0969 -93.1215 73.4051 
-83.5969 -92.8386 73.9328 -83.8509 -92.4159 74.6485 -84.0457 -92.0194 75.3287 
-84.4573 -91.9838 75.7182 -84.9687 -92.3165 75.835 -85.3838 -92.7961 75.9177 
-82.4845 -94.0222 72.108 -82.9752 -93.6237 71.7024 -83.655 -93.2958 71.3641 
-84.3421 -92.8921 71.1052 -84.7348 -92.3343 70.6921 -84.9521 -91.7944 70.1805 
-85.5388 -91.6093 69.8689 -86.4802 -91.8443 69.7488 -87.2198 -92.2812 69.6816 
-77.3808 -102.227 72.2575 -77.724 -102.052 72.7997 -78.029 -101.745 73.3571 
-78.3351 -101.335 73.9048 -78.5787 -100.862 74.6077 -78.8565 -100.43 75.3407 
-79.3405 -100.117 75.7839 -79.8543 -99.823 76.1259 -80.191 -99.4843 76.6598 
-76.9574 -102.004 71.4153 -77.0524 -101.72 70.9278 -77.3767 -101.555 70.3439 
-77.826 -101.35 69.8458 -78.2691 -100.89 69.4325 -78.6535 -100.288 68.8509 
-79.0019 -99.7599 68.2085 -79.4897 -99.3937 67.8618 -80.1982 -99.2045 67.8071 
-76.7757 -102.819 72.1057 -76.5899 -103.404 72.4401 -76.5195 -104.116 72.7788 
-76.5532 -104.883 73.1304 -76.5269 -105.507 73.6145 -76.4219 -106.024 74.2172 
-76.4936 -106.647 74.7058 -76.8588 -107.283 74.9958 -77.3555 -107.669 75.2318 
-76.5808 -102.763 71.54 -76.3581 -103.434 71.136 -76.0819 -104.132 70.6731 
-75.4954 -104.688 70.2659 -75.1013 -105.289 69.9276 -75.4137 -105.982 69.676 
-76.023 -106.519 69.5429 -76.5187 -106.894 69.4345 -77.0519 -107.2 69.2726 
-82.7562 -100.871 78.0372 -82.6225 -100.996 78.6684 -82.3417 -100.95 79.2091 
-81.9823 -100.604 79.546 -81.6833 -100.186 79.4261 -81.4811 -100.001 78.7963 
-81.2281 -99.9142 78.1773 -80.8524 -99.6607 77.9114 -80.5384 -99.3434 77.6879 
-82.4519 -101.454 77.5301 -82.1496 -102.336 77.7055 -81.5995 -103.167 77.8506 
-80.9 -103.869 77.8686 -80.4172 -104.616 77.7289 -79.95 -105.325 77.419 
-79.2661 -105.877 76.9431 -78.6661 -106.455 76.3792 -78.2558 -107.142 75.8727 
-83.3671 -100.414 77.8043 -84.0356 -100.057 78.1697 -84.5091 -99.3049 78.3192 
-84.7784 -98.1978 78.2778 -85.0625 -97.1525 78.0996 -85.303 -96.1284 77.7775 
-85.4084 -95.0665 77.443 -85.5012 -94.2789 77.0909 -85.6143 -93.7646 76.5997 
-79.9873 -99.7346 77.3723 -79.5736 -100.45 77.4997 -79.3748 -101.46 77.4428 
-79.265 -102.534 77.2263 -79.0005 -103.373 77.0582 -78.6845 -104.141 76.7772 
-78.4598 -105.05 76.1988 -78.2178 -106 75.6911 -77.9589 -106.915 75.5288 
-80.8318 -98.5996 77.4238 -81.2508 -97.8561 77.5356 -81.7897 -97.0577 77.5933 
-82.342 -96.2646 77.7036 -82.7632 -95.411 77.873 -83.2935 -94.6119 77.9269 
-84.0444 -94.0797 77.6936 -84.7184 -93.7626 77.1886 -85.2187 -93.4982 76.5922 
-84.9931 -101.701 67.507 -84.5009 -101.389 67.3087 -84.1323 -100.952 67.0982 
-83.9907 -100.51 66.801 -83.5725 -100.043 66.6289 -82.7152 -99.6828 66.6804 
-81.9895 -99.5837 66.894 -81.6318 -99.553 67.2355 -81.3355 -99.3713 67.574 
-84.6799 -102.364 67.71 -83.8335 -102.783 67.7402 -82.8288 -103.095 67.9015 
-81.9937 -103.717 67.9234 -81.3989 -104.781 67.7681 -80.6604 -105.74 67.7185 
-79.7491 -106.24 67.9063 -79.0116 -106.562 68.2655 -78.4078 -106.95 68.7105 
-85.7238 -101.139 67.8203 -86.3561 -100.497 67.76 -86.9578 -99.7465 67.8252 
-87.1466 -98.6821 68.1449 -87.147 -97.4734 68.577 -87.3857 -96.4292 68.9701 
-87.6201 -95.4665 69.3016 -87.6064 -94.4589 69.4972 -87.5551 -93.5259 69.5764 
-80.4381 -99.6604 67.5475 -79.8658 -100.301 67.2585 -79.3782 -101.216 67.1644 
-78.9443 -102.301 67.3166 -78.4161 -103.377 67.5246 -77.9567 -104.551 67.7084 
-77.7905 -105.641 67.9387 -77.7912 -106.303 68.2891 -77.7689 -106.758 68.7283 
-81.5978 -98.5917 67.7931 -82.2615 -97.916 67.7543 -83.0885 -97.307 67.9131 
-83.9529 -96.8324 68.2873 -84.6201 -96.2279 68.6377 -85.2618 -95.3823 68.8801 
-86.0077 -94.4922 69.0865 -86.6572 -93.7201 69.272 -87.1532 -93.1334 69.4505 
-77.5018 -108.462 75.1958 -77.1947 -108.885 74.6261 -76.9378 -109.05 73.8153 
-76.7397 -109.243 72.8895 -76.6929 -109.466 71.8499 -76.7625 -109.456 70.7497 
-76.7699 -109.223 69.9089 -76.8518 -108.789 69.5387 -77.2244 -108.091 69.3898 
-85.9964 -92.716 75.5843 -86.3185 -92.205 75.1556 -86.6966 -91.8279 74.6094 
-87.0887 -91.5124 73.8848 -87.2755 -91.2753 73.0443 -87.3279 -91.2671 72.0845 
-87.5339 -91.4868 71.146 -87.7688 -91.8354 70.4396 -87.7664 -92.2635 69.9721 
-86.6926 -99.1844 73.3845 -86.3725 -99.4408 73.9012 -86.2094 -99.8105 73.2996 
-85.9131 -99.6361 74.3965 -85.7837 -100.032 73.7688 -85.6777 -100.521 73.2581 
-85.2896 -99.8368 74.8772 -85.2924 -100.333 74.3199 -85.2062 -100.809 73.7622 
-85.2102 -101.416 73.3287 -84.7889 -100.2 75.4481 -84.8324 -100.75 74.9789 
-84.8287 -101.309 74.4426 -84.7681 -101.808 73.9016 -84.7404 -102.377 73.4439 
-84.3839 -100.618 75.999 -84.4934 -101.238 75.6654 -84.529 -101.872 75.2006 
-84.4169 -102.338 74.5723 -84.296 -102.777 73.981 -84.2462 -103.346 73.5222 
-83.79 -100.872 76.3751 -83.9758 -101.577 76.1543 -84.0872 -102.254 75.7854 
-83.9492 -102.707 75.1356 -83.7609 -103.075 74.4453 -83.7079 -103.609 73.9214 
-83.7515 -104.213 73.5114 -83.1215 -101.017 76.6656 -83.2533 -101.731 76.4518 
-83.3801 -102.389 76.1207 -83.2664 -102.814 75.4817 -83.086 -103.175 74.7964 
-83.0407 -103.688 74.2624 -83.0802 -104.285 73.7983 -83.1359 -104.764 73.3491 
-87.1089 -97.9044 73.852 -87.2152 -97.2882 74.3052 -86.8501 -98.1893 74.4634 
-87.3504 -96.7721 74.836 -86.878 -97.5659 74.9002 -86.3983 -98.3723 74.9204 
-87.4314 -96.2334 75.4749 -86.9324 -97.0512 75.4495 -86.3681 -97.7806 75.3393 
-85.8028 -98.561 75.3196 -87.3461 -95.5018 75.9578 -86.9074 -96.4891 76.0383 
-86.3563 -97.315 75.9028 -85.7643 -98.0481 75.8038 -85.2374 -98.9208 75.8584 
-87.0562 -94.7864 76.1153 -86.6835 -95.8173 76.3555 -86.2212 -96.8697 76.4045 
-85.6626 -97.6355 76.3551 -85.1707 -98.4612 76.4171 -84.7936 -99.396 76.4758 
-86.5841 -94.2918 76.1974 -86.289 -95.1846 76.5038 -85.9564 -96.3403 76.7156 
-85.5224 -97.2862 76.845 -85.0652 -98.0761 76.9852 -84.7699 -99.028 77.1175 
-84.3838 -99.8293 77.0153 -86.0594 -93.9714 76.3843 -85.8557 -94.6564 76.7693 
-85.6637 -95.6838 77.0553 -85.4198 -96.7873 77.3211 -85.0502 -97.7041 77.5602 
-84.7672 -98.6931 77.7493 -84.4727 -99.6188 77.7482 -83.8916 -100.149 77.4483 
-85.1794 -93.9524 77.2098 -84.6759 -94.2503 77.7574 -85.1333 -94.5407 77.6752 
-83.9003 -94.8185 78.1085 -84.5939 -95.1174 78.1311 -85.0727 -95.4987 78.0508 
-83.0748 -95.6013 78.3027 -83.7269 -95.9522 78.5497 -84.4602 -96.1977 78.6214 
-84.918 -96.556 78.4839 -82.5092 -96.3363 78.335 -82.8918 -96.6055 78.9438 
-83.6024 -96.8225 79.1663 -84.2829 -97.0365 79.0051 -84.6617 -97.5681 78.6905 
-82.0486 -97.0498 78.1401 -82.3186 -97.1205 78.9022 -82.8111 -97.2295 79.3943 
-83.4589 -97.433 79.2256 -84.0031 -98.0028 78.8525 -84.3519 -98.7864 78.6267 
-81.559 -97.9143 77.878 -81.8839 -97.9748 78.3729 -82.2107 -97.9761 79.0039 
-82.6201 -98.07 79.1958 -83.0912 -98.5509 78.8991 -83.5498 -99.3216 78.6906 
[...]
POINT_DATA 1002
FIELD FieldData 2
Theta 1 1002 float
2.58802 2.58802 0.553574 0.553574 2.12437 1.01722 2.12437 1.01722 1.5708 
1.5708 1.5708 1.5708 2.68241 2.78649 2.89924 3.01861 3.14159 3.01861 
2.89924 2.78649 2.68241 2.61035 2.61791 2.60515 2.56958 2.51327 2.44184 
2.36202 2.27983 2.1997 2.61035 2.61791 2.60515 2.56958 2.51327 2.44184 
2.36202 2.27983 2.1997 2.50947 2.41899 2.31794 2.20864 2.0944 1.97902 
1.86631 1.75944 1.66056 2.50947 2.41899 2.31794 2.20864 2.0944 1.97902 
1.86631 1.75944 1.66056 2.61035 2.61791 2.60515 2.56958 2.51327 2.44184 
2.36202 2.27983 2.1997 2.61035 2.61791 2.60515 2.56958 2.51327 2.44184 
2.36202 2.27983 2.1997 2.50947 2.41899 2.31794 2.20864 2.0944 1.97902 
1.86631 1.75944 1.66056 2.50947 2.41899 2.31794 2.20864 2.0944 1.97902 
1.86631 1.75944 1.66056 0.459179 0.355101 0.242354 0.122983 0 0.122983 
0.242354 0.355101 0.459179 0.531246 0.523681 0.536438 0.57201 0.628319 0.699757 
0.779574 0.86176 0.941896 0.531246 0.523681 0.536438 0.57201 0.628319 0.699757 
0.779574 0.86176 0.941896 0.632123 0.7226 0.823657 0.932948 1.0472 1.16257 
1.27528 1.38216 1.48103 0.632123 0.7226 0.823657 0.932948 1.0472 1.16257 
1.27528 1.38216 1.48103 0.531246 0.523681 0.536438 0.57201 0.628319 0.699757 
0.779574 0.86176 0.941896 0.531246 0.523681 0.536438 0.57201 0.628319 0.699757 
0.779574 0.86176 0.941896 0.632123 0.7226 0.823657 0.932948 1.0472 1.16257 
1.27528 1.38216 1.48103 0.632123 0.7226 0.823657 0.932948 1.0472 1.16257 
1.27528 1.38216 1.48103 2.02998 1.9259 1.81315 1.69378 1.5708 1.44781 
1.32844 1.2157 1.11162 2.0928 2.05283 2.00422 1.94767 1.88496 1.81867 
1.75177 1.68695 1.62623 2.0928 2.05283 2.00422 1.94767 1.88496 1.81867 
1.75177 1.68695 1.62623 1.0488 1.08876 1.13737 1.19392 1.25664 1.32292 
1.38982 1.45464 1.51537 1.0488 1.08876 1.13737 1.19392 1.25664 1.32292 
1.38982 1.45464 1.51537 2.02998 1.9259 1.81315 1.69378 1.5708 1.44781 
1.32844 1.2157 1.11162 2.0928 2.05283 2.00422 1.94767 1.88496 1.81867 
1.75177 1.68695 1.62623 2.0928 2.05283 2.00422 1.94767 1.88496 1.81867 
1.75177 1.68695 1.62623 1.0488 1.08876 1.13737 1.19392 1.25664 1.32292 
1.38982 1.45464 1.51537 1.0488 1.08876 1.13737 1.19392 1.25664 1.32292 
1.38982 1.45464 1.51537 1.5708 1.5708 1.5708 1.5708 1.5708 1.5708 
1.5708 1.5708 1.5708 1.5708 1.5708 1.5708 1.5708 1.5708 1.5708 
1.5708 1.5708 1.5708 2.70908 2.71362 2.81592 2.68886 2.81002 2.92597 
2.6349 2.76254 2.89233 3.01997 2.55881 2.68262 2.80854 2.92834 3.01997 
2.47007 2.58462 2.70048 2.80854 2.89233 2.92597 2.37702 2.48017 2.58462 
2.68262 2.76254 2.81002 2.81592 2.28567 2.37702 2.47007 2.55881 2.6349 
2.68886 2.71362 2.70908 2.52097 2.4195 2.51718 2.30791 2.40503 2.49426 
2.18928 2.28408 2.3734 2.45144 2.06758 2.15805 2.24572 2.32523 2.39165 
1.94707 2.03138 2.11543 2.19453 2.26401 2.32035 1.83164 1.90847 1.98711 
2.06376 2.13422 2.1949 2.24359 1.72413 1.79288 1.86489 1.93728 2.00658 
2.06938 2.12312 2.16654 1.5708 1.50988 1.63171 1.44492 1.5708 1.69667 
1.37826 1.5059 1.63569 1.76333 1.31281 1.43962 1.5708 1.70197 1.82878 
1.25155 1.37501 1.50478 1.63681 1.76659 1.89004 1.19686 1.31493 1.44074 
1.5708 1.70086 1.82666 1.94473 1.15011 1.26149 1.38136 1.50697 1.63462 
1.76024 1.88011 1.99148 1.99148 1.88011 1.94473 1.76024 1.82666 1.89004 
1.63462 1.70086 1.76659 1.82878 1.50697 1.5708 1.63681 1.70197 1.76333 
1.38136 1.44074 1.50478 1.5708 1.63569 1.69667 1.26149 1.31493 1.37501 
1.43962 1.5059 1.5708 1.63171 1.15011 1.19686 1.25155 1.31281 1.37826 
1.44492 1.50988 1.5708 2.16654 2.12312 2.24359 2.06938 2.1949 2.32035 
2.00658 2.13422 2.26401 2.39165 1.93728 2.06376 2.19453 2.32523 2.45144 
1.86489 1.98711 2.11543 2.24572 2.3734 2.49426 1.79288 1.90847 2.03138 
2.15805 2.28408 2.40503 2.51718 1.72413 1.83164 1.94707 2.06758 2.18928 
2.30791 2.4195 2.52097 1.66533 1.66946 1.76911 1.67254 1.777 1.88041 
1.67418 1.78222 1.89102 1.99634 1.67418 1.78405 1.89674 2.00785 2.11299 
1.67254 1.78222 1.89674 2.01191 2.12307 2.22608 1.66946 1.777 1.89102 
2.00785 2.12307 2.23222 2.33166 1.66533 1.76911 1.88041 1.99634 2.11299 
2.22608 2.33166 2.42672 1.47626 1.37249 1.47213 1.26118 1.36459 1.46906 
1.14526 1.25058 1.35938 1.46741 1.0286 1.13374 1.24485 1.35755 1.46741 
0.915514 1.01852 1.12969 1.24485 1.35938 1.46906 0.809937 0.909371 1.01852 
1.13374 1.25058 1.36459 1.47213 0.714871 0.809937 0.915514 1.0286 1.14526 
1.26118 1.37249 1.47626 0.975055 0.898002 1.01847 0.821245 0.946693 1.07221 
0.749941 0.877585 1.00737 1.13501 0.690152 0.816367 0.94706 1.07784 1.20431 
0.647337 0.768195 0.895868 1.02616 1.15448 1.2767 0.624416 0.736561 0.857515 
0.983547 1.11021 1.23313 1.34871 0.620619 0.722093 0.833684 0.952313 1.07402 
1.19452 1.30996 1.41746 0.855925 0.764569 0.764569 0.671524 0.661425 0.671524 
0.582786 0.556971 0.556971 0.582786 0.506696 0.458968 0.441109 0.458968 0.506696 
0.45273 0.379052 0.333054 0.333054 0.379052 0.45273 0.427969 0.331576 0.249267 
0.21325 0.249267 0.331576 0.427969 0.432512 0.325669 0.215619 0.121622 0.121622 
0.215619 0.325669 0.432512 0.432512 0.427969 0.325669 0.45273 0.331576 0.215619 
0.506696 0.379052 0.249267 0.121622 0.582786 0.458968 0.333054 0.21325 0.121622 
0.671524 0.556971 0.441109 0.333054 0.249267 0.215619 0.764569 0.661425 0.556971 
0.458968 0.379052 0.331576 0.325669 0.855925 0.764569 0.671524 0.582786 0.506696 
0.45273 0.427969 0.432512 0.975055 1.01847 0.898002 1.07221 0.946693 0.821245 
1.13501 1.00737 0.877585 0.749941 1.20431 1.07784 0.94706 0.816367 0.690152 
1.2767 1.15448 1.02616 0.895868 0.768195 0.647337 1.34871 1.23313 1.11021 
0.983547 0.857515 0.736561 0.624416 1.41746 1.30996 1.19452 1.07402 0.952313 
0.833684 0.722093 0.620619 1.15011 1.26149 1.19686 1.38136 1.31493 1.25155 
1.50697 1.44074 1.37501 1.31281 1.63462 1.5708 1.50478 1.43962 1.37826 
1.76024 1.70086 1.63681 1.5708 1.5059 1.44492 1.88011 1.82666 1.76659 
1.70197 1.63569 1.5708 1.50988 1.99148 1.94473 1.89004 1.82878 1.76333 
1.69667 1.63171 1.5708 1.15011 1.19686 1.26149 1.25155 1.31493 1.38136 
1.31281 1.37501 1.44074 1.50697 1.37826 1.43962 1.50478 1.5708 1.63462 
1.44492 1.5059 1.5708 1.63681 1.70086 1.76024 1.50988 1.5708 1.63569 
1.70197 1.76659 1.82666 1.88011 1.5708 1.63171 1.69667 1.76333 1.82878 
1.89004 1.94473 1.99148 1.72413 1.83164 1.79288 1.94707 1.90847 1.86489 
2.06758 2.03138 1.98711 1.93728 2.18928 2.15805 2.11543 2.06376 2.00658 
2.30791 2.28408 2.24572 2.19453 2.13422 2.06938 2.4195 2.40503 2.3734 
2.32523 2.26401 2.1949 2.12312 2.52097 2.51718 2.49426 2.45144 2.39165 
2.32035 2.24359 2.16654 2.70908 2.81592 2.71362 2.92597 2.81002 2.68886 
3.01997 2.89233 2.76254 2.6349 3.01997 2.92834 2.80854 2.68262 2.55881 
2.92597 2.89233 2.80854 2.70048 2.58462 2.47007 2.81592 2.81002 2.76254 
2.68262 2.58462 2.48017 2.37702 2.70908 2.71362 2.68886 2.6349 2.55881 
2.47007 2.37702 2.28567 2.16654 2.24359 2.12312 2.32035 2.1949 2.06938 
2.39165 2.26401 2.13422 2.00658 2.45144 2.32523 2.19453 2.06376 1.93728 
2.49426 2.3734 2.24572 2.11543 1.98711 1.86489 2.51718 2.40503 2.28408 
2.15805 2.03138 1.90847 1.79288 2.52097 2.4195 2.30791 2.18928 2.06758 
1.94707 1.83164 1.72413 1.66533 1.76911 1.66946 1.88041 1.777 1.67254 
1.99634 1.89102 1.78222 1.67418 2.11299 2.00785 1.89674 1.78405 1.67418 
2.22608 2.12307 2.01191 1.89674 1.78222 1.67254 2.33166 2.23222 2.12307 
2.00785 1.89102 1.777 1.66946 2.42672 2.33166 2.22608 2.11299 1.99634 
1.88041 1.76911 1.66533 1.47626 1.47213 1.37249 1.46906 1.36459 1.26118 
1.46741 1.35938 1.25058 1.14526 1.46741 1.35755 1.24485 1.13374 1.0286 
1.46906 1.35938 1.24485 1.12969 1.01852 0.915514 1.47213 1.36459 1.25058 
1.13374 1.01852 0.909371 0.809937 1.47626 1.37249 1.26118 1.14526 1.0286 
0.915514 0.809937 0.714871 1.41746 1.30996 1.34871 1.19452 1.23313 1.2767 
1.07402 1.11021 1.15448 1.20431 0.952313 0.983547 1.02616 1.07784 1.13501 
0.833684 0.857515 0.895868 0.94706 1.00737 1.07221 0.722093 0.736561 0.768195 
0.816367 0.877585 0.946693 1.01847 0.620619 0.624416 0.647337 0.690152 0.749941 
0.821245 0.898002 0.975055 0.975055 0.898002 1.01847 0.821245 0.946693 1.07221 
0.749941 0.877585 1.00737 1.13501 0.690152 0.816367 0.94706 1.07784 1.20431 
0.647337 0.768195 0.895868 1.02616 1.15448 1.2767 0.624416 0.736561 0.857515 
0.983547 1.11021 1.23313 1.34871 0.620619 0.722093 0.833684 0.952313 1.07402 
1.19452 1.30996 1.41746 
Phi 1 1002 float
6.28319 3.14159 6.28319 3.14159 4.71239 4.71239 1.5708 1.5708 3.69517 
5.72961 2.58802 0.553574 6.28319 6.28319 6.28319 6.28319 3.14159 3.14159 
3.14159 3.14159 3.14159 6.1053 5.8988 5.67687 5.45995 5.26596 5.10322 
4.97131 4.86569 4.78095 0.177881 0.384387 0.606312 0.823235 1.01722 1.17997 
1.31187 1.4175 1.50223 6.18928 6.10703 6.03531 5.97283 5.91832 5.87061 
5.82869 5.79168 5.75886 0.0939024 0.176153 0.247873 0.310351 0.364864 0.412573 
0.454497 0.491504 0.524326 3.31947 3.52598 3.7479 3.96483 4.15881 4.32156 
4.45346 4.55909 4.64383 2.96371 2.75721 2.53528 2.31836 2.12437 1.96162 
1.82972 1.72409 1.63936 3.2355 3.31775 3.38947 3.45194 3.50646 3.55417 
3.59609 3.6331 3.66592 3.04769 2.96544 2.89372 2.83124 2.77673 2.72902 
2.6871 2.65009 2.61727 6.28319 6.28319 6.28319 6.28319 3.14159 3.14159 
3.14159 3.14159 3.14159 6.1053 5.8988 5.67687 5.45995 5.26596 5.10322 
4.97131 4.86569 4.78095 0.177881 0.384387 0.606312 0.823235 1.01722 1.17997 
1.31187 1.4175 1.50223 6.18928 6.10703 6.03531 5.97283 5.91832 5.87061 
5.82869 5.79168 5.75886 0.0939024 0.176153 0.247873 0.310351 0.364864 0.412573 
0.454497 0.491504 0.524326 3.31947 3.52598 3.7479 3.96483 4.15881 4.32156 
4.45346 4.55909 4.64383 2.96371 2.75721 2.53528 2.31836 2.12437 1.96162 
1.82972 1.72409 1.63936 3.2355 3.31775 3.38947 3.45194 3.50646 3.55417 
3.59609 3.6331 3.66592 3.04769 2.96544 2.89372 2.83124 2.77673 2.72902 
2.6871 2.65009 2.61727 4.71239 4.71239 4.71239 4.71239 4.71239 4.71239 
4.71239 4.71239 4.71239 4.60879 4.49914 4.3857 4.27128 4.15881 4.05096 
3.94976 3.85646 3.77161 4.81599 4.92564 5.03907 5.1535 5.26596 5.37381 
5.47502 5.56831 5.65317 4.60879 4.49914 4.3857 4.27128 4.15881 4.05096 
3.94976 3.85646 3.77161 4.81599 4.92564 5.03907 5.1535 5.26596 5.37381 
5.47502 5.56831 5.65317 1.5708 1.5708 1.5708 1.5708 1.5708 1.5708 
1.5708 1.5708 1.5708 1.6744 1.78405 1.89748 2.01191 2.12437 2.23222 
2.33343 2.42672 2.51157 1.4672 1.35755 1.24411 1.12969 1.01722 0.909371 
0.808166 0.714871 0.63002 1.6744 1.78405 1.89748 2.01191 2.12437 2.23222 
2.33343 2.42672 2.51157 1.4672 1.35755 1.24411 1.12969 1.01722 0.909371 
0.808166 0.714871 0.63002 3.60077 3.49669 3.38395 3.26458 3.14159 3.01861 
2.89924 2.78649 2.68241 5.82401 5.92808 6.04083 6.1602 6.28319 0.122983 
0.242354 0.355101 0.459179 6.05603 5.78856 5.97021 5.51259 5.60297 5.78856 
5.26596 5.26596 5.26596 5.26596 5.06749 5.0121 4.91556 4.71239 4.15881 
4.91556 4.83537 4.71239 4.50922 4.15881 3.63622 4.80045 4.71239 4.58941 
4.41268 4.15881 3.82181 3.45456 4.71239 4.62433 4.50922 4.35729 4.15881 
3.91219 3.63622 3.36875 6.01742 5.94343 5.82633 5.88092 5.76745 5.62798 
5.8278 5.71897 5.58911 5.43724 5.78235 5.67854 5.55757 5.41926 5.26596 
5.74316 5.64441 5.5315 5.40467 5.26596 5.11955 5.70914 5.61528 5.50962 
5.3926 5.26596 5.13292 4.99789 5.67937 5.59016 5.49102 5.38246 5.26596 
5.14407 5.02016 4.89798 5.56831 5.47502 5.47502 5.37381 5.37381 5.37381 
5.26596 5.26596 5.26596 5.26596 5.1535 5.1535 5.1535 5.1535 5.1535 
5.03907 5.03907 5.03907 5.03907 5.03907 5.03907 4.92564 4.92564 4.92564 
4.92564 4.92564 4.92564 4.92564 4.81599 4.81599 4.81599 4.81599 4.81599 
4.81599 4.81599 4.81599 4.60879 4.60879 4.49914 4.60879 4.49914 4.3857 
4.60879 4.49914 4.3857 4.27128 4.60879 4.49914 4.3857 4.27128 4.15881 
4.60879 4.49914 4.3857 4.27128 4.15881 4.05096 4.60879 4.49914 4.3857 
4.27128 4.15881 4.05096 3.94976 4.60879 4.49914 4.3857 4.27128 4.15881 
4.05096 3.94976 3.85646 4.5268 4.40462 4.42689 4.28071 4.29185 4.30523 
4.15881 4.15881 4.15881 4.15881 4.04232 4.03217 4.02011 4.00552 3.98753 
3.93376 3.91515 3.89328 3.86721 3.83566 3.7968 3.83461 3.8095 3.78037 
3.74624 3.70581 3.65733 3.59845 3.7454 3.71564 3.68161 3.64243 3.59698 
3.54386 3.48135 3.40735 3.56428 3.45246 3.52338 3.33203 3.40312 3.47739 
3.20576 3.27463 3.34802 3.42551 3.07742 3.14159 3.21128 3.28647 3.36688 
2.95116 3.00855 3.0719 3.14159 3.21784 3.3006 2.83072 2.88006 2.93517 
2.99672 3.06535 3.14159 3.22575 2.7189 2.7598 2.8058 2.85768 2.9163 
2.98259 3.05743 3.14159 3.56428 3.52338 3.45246 3.47739 3.40312 3.33203 
3.42551 3.34802 3.27463 3.20576 3.36688 3.28647 3.21128 3.14159 3.07742 
3.3006 3.21784 3.14159 3.0719 3.00855 2.95116 3.22575 3.14159 3.06535 
2.99672 2.93517 2.88006 2.83072 3.14159 3.05743 2.98259 2.9163 2.85768 
2.8058 2.7598 2.7189 4.5268 4.42689 4.40462 4.30523 4.29185 4.28071 
4.15881 4.15881 4.15881 4.15881 3.98753 4.00552 4.02011 4.03217 4.04232 
3.7968 3.83566 3.86721 3.89328 3.91515 3.93376 3.59845 3.65733 3.70581 
3.74624 3.78037 3.8095 3.83461 3.40735 3.48135 3.54386 3.59698 3.64243 
3.68161 3.71564 3.7454 4.71239 4.80045 4.62433 4.91556 4.71239 4.50922 
5.06749 4.83537 4.58941 4.35729 5.26596 5.0121 4.71239 4.41268 4.15881 
5.51259 5.26596 4.91556 4.50922 4.15881 3.91219 5.78856 5.60297 5.26596 
4.71239 4.15881 3.82181 3.63622 6.05603 5.97021 5.78856 5.26596 4.15881 
3.63622 3.45456 3.36875 0.227158 0.494626 0.312971 0.770593 0.680215 0.494626 
1.01722 1.01722 1.01722 1.01722 1.2157 1.27109 1.36763 1.5708 2.12437 
1.36763 1.44781 1.5708 1.77397 2.12437 2.64697 1.48273 1.5708 1.69378 
1.8705 2.12437 2.46138 2.82862 1.5708 1.65886 1.77397 1.9259 2.12437 
2.371 2.64697 2.91443 1.75639 1.87857 1.8563 2.00248 1.99133 1.97796 
2.12437 2.12437 2.12437 2.12437 2.24087 2.25101 2.26308 2.27767 2.29565 
2.34943 2.36803 2.38991 2.41597 2.44752 2.48639 2.44857 2.47368 2.50281 
2.53694 2.57738 2.62586 2.68474 2.53778 2.56754 2.60157 2.64076 2.68621 
2.73933 2.80184 2.87583 1.6744 1.6744 1.78405 1.6744 1.78405 1.89748 
1.6744 1.78405 1.89748 2.01191 1.6744 1.78405 1.89748 2.01191 2.12437 
1.6744 1.78405 1.89748 2.01191 2.12437 2.23222 1.6744 1.78405 1.89748 
2.01191 2.12437 2.23222 2.33343 1.6744 1.78405 1.89748 2.01191 2.12437 
2.23222 2.33343 2.42672 1.4672 1.35755 1.4672 1.24411 1.35755 1.4672 
1.12969 1.24411 1.35755 1.4672 1.01722 1.12969 1.24411 1.35755 1.4672 
0.909371 1.01722 1.12969 1.24411 1.35755 1.4672 0.808166 0.909371 1.01722 
1.12969 1.24411 1.35755 1.4672 0.714871 0.808166 0.909371 1.01722 1.12969 
1.24411 1.35755 1.4672 0.603812 0.57405 0.693022 0.540021 0.667908 0.792164 
0.500837 0.638778 0.773562 0.900726 0.455383 0.604649 0.751687 0.890581 1.01722 
0.402264 0.564217 0.725619 0.878514 1.01722 1.13912 0.339753 0.515737 0.694072 
0.863926 1.01722 1.15026 1.26302 0.265762 0.456853 0.655207 0.845941 1.01722 
1.16363 1.28529 1.38521 0.227158 0.312971 0.494626 0.494626 0.680215 0.770593 
1.01722 1.01722 1.01722 1.01722 2.12437 1.5708 1.36763 1.27109 1.2157 
2.64697 2.12437 1.77397 1.5708 1.44781 1.36763 2.82862 2.46138 2.12437 
1.8705 1.69378 1.5708 1.48273 2.91443 2.64697 2.371 2.12437 1.9259 
1.77397 1.65886 1.5708 1.75639 1.8563 1.87857 1.97796 1.99133 2.00248 
2.12437 2.12437 2.12437 2.12437 2.29565 2.27767 2.26308 2.25101 2.24087 
2.48639 2.44752 2.41597 2.38991 2.36803 2.34943 2.68474 2.62586 2.57738 
2.53694 2.50281 2.47368 2.44857 2.87583 2.80184 2.73933 2.68621 2.64076 
2.60157 2.56754 2.53778 5.86049 5.90139 5.97231 5.94739 6.02165 6.09275 
5.99927 6.07676 6.15015 6.21902 6.0579 6.13831 6.2135 0 0.0641696 
6.12418 6.20694 6.28319 0.069689 0.13304 0.190437 6.19903 0 0.0762451 
0.144876 0.206423 0.261531 0.310872 0 0.0841597 0.159004 0.225289 0.283913 
0.335793 0.381792 0.422692 5.86049 5.97231 5.90139 6.09275 6.02165 5.94739 
6.21902 6.15015 6.07676 5.99927 0.0641696 0 6.2135 6.13831 6.0579 
0.190437 0.13304 0.069689 6.28319 6.20694 6.12418 0.310872 0.261531 0.206423 
0.144876 0.0762451 6.28319 6.19903 0.422692 0.381792 0.335793 0.283913 0.225289 
0.159004 0.0841597 0 5.67937 5.70914 5.59016 5.74316 5.61528 5.49102 
5.78235 5.64441 5.50962 5.38246 5.8278 5.67854 5.5315 5.3926 5.26596 
5.88092 5.71897 5.55757 5.40467 5.26596 5.14407 5.94343 5.76745 5.58911 
5.41926 5.26596 5.13292 5.02016 6.01742 5.82633 5.62798 5.43724 5.26596 
5.11955 4.99789 4.89798 1.38521 1.28529 1.26302 1.16363 1.15026 1.13912 
1.01722 1.01722 1.01722 1.01722 0.845941 0.863926 0.878514 0.890581 0.900726 
0.655207 0.694072 0.725619 0.751687 0.773562 0.792164 0.456853 0.515737 0.564217 
0.604649 0.638778 0.667908 0.693022 0.265762 0.339753 0.402264 0.455383 0.500837 
0.540021 0.57405 0.603812 
