# vtk DataFile Version 4.0
vtk output
ASCII
DATASET POLYDATA
POINTS 1002 float
-87.8064 -99.6213 71.9338 -82.3905 -106.135 71.6887 -81.8005 -95.9759 71.1768 
-77.0508 -103.723 71.8165 -83.6998 -101.964 77.1756 -80.5375 -99.884 77.3256 
-84.4971 -102.279 66.7207 -80.1098 -100.077 66.676 -78.5329 -109.677 75.3594 
-85.7114 -94.348 74.8876 -78.0391 -109.314 68.433 -86.7871 -93.3688 67.7591 
-87.4847 -100.297 71.9007 -87.1565 -101.028 71.8591 -86.7231 -101.666 71.8441 
-86.0797 -102.196 71.8292 -85.4129 -102.879 71.8456 -84.9811 -103.868 71.9775 
-84.6081 -104.867 72.0979 -83.9653 -105.5 72.0224 -83.1223 -105.812 71.8277 
-87.6368 -99.8589 72.4702 -87.3686 -100.024 73.0202 -86.961 -100.14 73.5745 
-86.4766 -100.315 74.1675 -85.9292 -100.501 74.7361 -85.3068 -100.691 75.1598 
-84.7778 -101.059 75.5931 -84.4419 -101.532 76.2083 -84.1283 -101.845 76.81 
-87.7422 -99.8182 71.3457 -87.7373 -100.215 70.6956 -87.7967 -100.753 70.1301 
-87.6303 -101.126 69.6419 -87.0872 -101.201 69.0944 -86.4625 -101.226 68.5705 
-85.9831 -101.408 68.1363 -85.5356 -101.696 67.6417 -85.0199 -101.997 67.1094 
-87.9524 -99.1266 72.2383 -87.8915 -98.4679 72.493 -87.7682 -97.6256 72.7976 
-87.7677 -96.8755 73.2203 -87.6906 -96.3452 73.6323 -87.3714 -95.8247 73.8988 
-87.0012 -95.2814 74.0995 -86.6352 -94.8587 74.3474 -86.1874 -94.56 74.6273 
-88.1345 -99.0698 71.6017 -88.4649 -98.5118 71.24 -88.6186 -97.8681 70.8022 
-88.6222 -96.9445 70.1953 -88.5948 -95.8284 69.5444 -88.3205 -95.0117 69.2034 
-87.7379 -94.6463 69.1275 -87.2498 -94.3084 68.8484 -87.0107 -93.7962 68.2733 
-82.6653 -106.03 72.2698 -82.8981 -105.834 72.8684 -82.9568 -105.399 73.3956 
-82.9222 -104.8 73.8621 -82.9616 -104.262 74.3938 -83.0718 -103.784 75.0431 
-83.2194 -103.275 75.6911 -83.4103 -102.799 76.2331 -83.5861 -102.381 76.7122 
-82.5843 -105.996 71.1731 -82.9097 -105.884 70.5871 -83.2784 -105.757 69.9303 
-83.6748 -105.591 69.2452 -84.1417 -105.393 68.4934 -84.5003 -105.055 67.764 
-84.6012 -104.434 67.3213 -84.566 -103.618 67.1253 -84.5184 -102.859 66.9395 
-81.9986 -106.598 71.9922 -81.6796 -107.251 72.367 -81.3508 -107.914 72.723 
-80.9625 -108.418 73.0589 -80.4275 -108.745 73.3947 -79.792 -108.919 73.6533 
-79.3255 -109.086 73.9817 -79.0729 -109.414 74.5686 -78.8259 -109.718 75.145 
-81.9427 -106.591 71.3069 -81.6792 -107.285 70.9059 -81.4744 -108.006 70.4434 
-81.0882 -108.549 70.0013 -80.502 -108.914 69.613 -79.9461 -109.161 69.1415 
-79.4785 -109.388 68.6559 -78.9514 -109.618 68.3992 -78.4075 -109.648 68.3739 
-81.5319 -96.7334 71.2404 -80.8687 -97.2292 71.4012 -80.0959 -97.6898 71.5906 
-79.5931 -98.5107 71.6519 -79.2306 -99.5657 71.5485 -78.7813 -100.509 71.475 
-78.3352 -101.417 71.5603 -77.9145 -102.358 71.686 -77.4617 -103.138 71.7556 
-81.7386 -96.2309 71.8002 -81.5707 -96.5051 72.4847 -81.467 -96.9487 73.2135 
-81.426 -97.4515 73.8755 -81.2263 -97.7929 74.487 -80.963 -98.1204 75.1531 
-80.9074 -98.6455 75.7907 -80.9284 -99.2088 76.3364 -80.7857 -99.6076 76.8525 
-81.6471 -96.1777 70.6075 -81.4016 -96.357 70.1281 -81.1716 -96.614 69.646 
-80.8752 -96.9288 68.9881 -80.4281 -97.2291 68.2765 -80.0827 -97.6662 67.7317 
-80.0228 -98.3225 67.3293 -80.0879 -98.9945 67.0363 -80.1224 -99.5613 66.8511 
-81.8513 -95.2614 71.5855 -81.9454 -94.6039 72.0123 -82.2533 -94.1585 72.4022 
-82.6891 -93.8822 72.8677 -83.1671 -93.7548 73.3969 -83.7594 -93.7995 73.8324 
-84.4139 -93.8686 74.1985 -84.9789 -93.89 74.5535 -85.4046 -94.0212 74.8011 
-81.8032 -95.181 70.7449 -81.9016 -94.3892 70.2394 -82.4279 -93.9503 69.7686 
-83.3181 -93.8337 69.409 -84.0876 -93.6384 69.1088 -84.5679 -93.3093 68.8399 
-85.0939 -93.0559 68.5414 -85.8005 -92.9058 68.1436 -86.4276 -92.9583 67.8141 
-77.4099 -103.68 72.2204 -77.771 -103.485 72.6173 -78.1286 -103.084 73.1218 
-78.4205 -102.522 73.8298 -78.669 -101.948 74.5416 -79.0559 -101.458 75.0519 
-79.5235 -100.993 75.598 -79.8496 -100.526 76.3311 -80.123 -100.147 76.9671 
-76.9191 -103.386 71.3197 -76.923 -103.1 70.7424 -77.1804 -102.854 70.0673 
-77.5157 -102.546 69.3291 -77.7592 -102.137 68.6261 -78.0494 -101.63 68.0178 
-78.4467 -101.082 67.4864 -78.8867 -100.645 67.0642 -79.4377 -100.346 66.812 
-76.9096 -104.32 72.2023 -76.7062 -104.983 72.6897 -76.5418 -105.721 73.1811 
-76.6805 -106.654 73.4933 -77.1283 -107.688 73.5266 -77.5889 -108.467 73.4527 
-77.8781 -108.981 73.6497 -78.046 -109.452 74.2552 -78.2353 -109.76 74.9482 
-76.6591 -104.099 71.5795 -76.4734 -104.743 71.2815 -76.5012 -105.751 70.9274 
-76.5227 -106.798 70.5023 -76.4524 -107.565 69.9755 -76.4966 -108.138 69.4362 
-76.8102 -108.608 69.0742 -77.2836 -108.942 68.8999 -77.7099 -109.173 68.7244 
-83.4125 -101.709 77.5633 -83.1068 -101.496 77.9137 -82.8575 -101.472 78.465 
-82.5275 -101.409 79.2472 -82.0851 -100.993 79.6567 -81.8068 -100.49 79.2589 
-81.6425 -100.235 78.5304 -81.279 -100.096 78.0243 -80.8161 -99.9549 77.6965 
-83.1299 -102.383 77.1172 -82.5748 -103.07 77.1128 -82.0991 -103.94 77.1882 
-81.6144 -104.78 77.1824 -81.0798 -105.631 77.0135 -80.5743 -106.495 76.6879 
-80.071 -107.224 76.2629 -79.4874 -107.961 75.9144 -78.9216 -108.848 75.6683 
-84.0793 -101.456 77.4583 -84.4249 -100.806 77.6228 -84.6701 -99.9663 77.5169 
-84.7928 -98.989 77.1407 -84.8954 -97.969 76.7102 -85.0965 -97.0526 76.3637 
-85.3479 -96.3031 75.9865 -85.5352 -95.6037 75.542 -85.647 -94.9166 75.1716 
-79.9879 -100.326 77.5819 -79.6029 -101.022 77.7189 -79.4769 -102.078 77.596 
-79.4139 -103.316 77.2095 -79.2972 -104.513 76.7649 -79.1263 -105.569 76.3794 
-78.8412 -106.56 75.9945 -78.5555 -107.658 75.6892 -78.4622 -108.792 75.5316 
-81.1518 -99.3895 77.3224 -81.5839 -98.5992 77.4208 -81.9396 -97.7272 77.5194 
-82.5092 -97.1491 77.3988 -83.1355 -96.6934 77.1662 -83.5913 -95.9936 76.9577 
-84.0853 -95.2468 76.5692 -84.6827 -94.7619 75.9558 -85.2258 -94.5053 75.3569 
-84.2238 -102.099 66.4311 -84.0328 -101.722 66.1585 -83.8292 -101.089 65.8034 
-83.4074 -100.506 65.3368 -82.7061 -100.277 64.9914 -81.9562 -100.278 65.0598 
-81.3912 -100.282 65.5019 -80.9643 -100.255 66.0242 -80.5385 -100.193 66.4232 
-83.9796 -102.901 66.6278 -83.4442 -103.604 66.6052 -82.8064 -104.312 66.5684 
-81.9773 -104.999 66.6033 -81.1628 -105.869 66.7494 -80.4547 -107.01 66.7949 
-79.6216 -108.044 66.8056 -78.7978 -108.654 67.1543 -78.3048 -108.989 67.8237 
-84.8351 -101.619 66.6995 -85.2356 -100.968 66.7017 -85.7432 -100.232 66.7128 
-86.2914 -99.2999 66.7373 -86.6258 -98.2987 66.8591 -86.7072 -97.4448 67.1947 
-86.768 -96.5522 67.587 -86.8508 -95.388 67.7187 -86.857 -94.2128 67.6641 
-79.6283 -100.853 66.526 -79.2006 -101.782 66.4308 -78.8798 -102.675 66.5021 
-78.5388 -103.543 66.7057 -78.2076 -104.693 66.9771 -78.0935 -105.965 67.2745 
-78.1239 -106.892 67.5571 -78.0888 -107.629 67.8542 -78.0166 -108.486 68.1686 
-80.8142 -99.4781 66.6369 -81.4358 -98.8658 66.4694 -82.0519 -98.2376 66.3063 
-82.7786 -97.6329 66.3823 -83.5107 -97.0973 66.7476 -84.255 -96.4653 67.2422 
-85.1269 -95.4946 67.53 -85.9459 -94.3953 67.4662 -86.4876 -93.648 67.4241 
-78.442 -110.458 74.8984 -78.3244 -111.041 74.3001 -78.1154 -111.502 73.5126 
-77.8938 -111.817 72.4841 -77.7167 -111.811 71.4518 -77.5513 -111.539 70.5736 
-77.5035 -111.185 69.7552 -77.6656 -110.701 69.1418 -77.8928 -110.027 68.7922 
-86.0555 -93.9614 74.3806 -86.3762 -93.5363 73.6156 -86.4508 -93.153 72.6093 
-86.2385 -92.9009 71.6494 -86.2024 -92.5373 70.871 -86.6195 -92.0136 70.2227 
-87.0286 -91.905 69.7083 -87.0559 -92.3665 69.1361 -86.8984 -92.913 68.3905 
-87.3087 -100.51 72.46 -86.9262 -100.607 72.9775 -86.8505 -101.166 72.4394 
-86.3331 -100.646 73.4805 -86.3063 -101.19 72.9346 -86.2912 -101.804 72.4459 
-85.7864 -100.832 74.0792 -85.6702 -101.239 73.4084 -85.7175 -101.903 72.9404 
-85.6924 -102.502 72.4497 -85.3801 -101.22 74.737 -85.2653 -101.61 74.0491 
-85.1217 -102.071 73.3941 -85.1442 -102.758 72.9495 -85.1421 -103.391 72.4986 
-84.9479 -101.678 75.3269 -84.9869 -102.22 74.8194 -84.7072 -102.512 74.0063 
-84.4662 -102.926 73.3549 -84.5528 -103.68 72.9839 -84.6779 -104.405 72.6148 
-84.474 -102.044 75.8627 -84.5137 -102.631 75.4705 -84.3083 -103.007 74.7181 
-83.9323 -103.207 73.8662 -83.8482 -103.743 73.3516 -84.0652 -104.6 73.0441 
-84.1461 -105.233 72.622 -84.0303 -102.253 76.3475 -83.9212 -102.73 75.9104 
-83.7522 -103.211 75.2876 -83.4947 -103.544 74.4778 -83.3361 -103.926 73.8208 
-83.4408 -104.626 73.4152 -83.5608 -105.341 73.009 -83.4247 -105.704 72.4543 
-87.6593 -99.2996 72.8253 -87.5184 -98.5258 73.1989 -87.3392 -99.4204 73.4729 
-87.4856 -97.6761 73.6593 -87.2704 -98.6352 73.9484 -87.0493 -99.6409 74.1298 
-87.6101 -97.0594 74.1573 -87.3505 -97.8705 74.4441 -87.1202 -98.9963 74.6416 
-86.6483 -99.9241 74.7642 -87.5168 -96.5847 74.5006 -87.4041 -97.2903 74.9185 
-87.1089 -98.3235 75.1384 -86.649 -99.361 75.2721 -85.9241 -100.026 75.2217 
-87.1048 -96.0292 74.6381 -87.1135 -96.7258 75.2024 -86.8502 -97.6761 75.5584 
-86.4074 -98.7494 75.7301 -85.7767 -99.5131 75.691 -85.1382 -100.179 75.5475 
-86.6016 -95.5324 74.7364 -86.562 -96.197 75.2712 -86.3324 -97.0492 75.7087 
-85.9583 -98.1266 75.9605 -85.536 -99.0706 76.1102 -85.0701 -99.8375 76.1329 
-84.6945 -100.685 76.1327 -86.1083 -95.1913 74.9173 -86.0023 -95.8602 75.3394 
-85.7736 -96.5992 75.7612 -85.4501 -97.532 76.0394 -85.192 -98.5609 76.338 
-84.9849 -99.5072 76.6958 -84.7353 -100.4 76.9083 -84.4494 -101.216 76.9203 
-85.1357 -95.1365 75.7532 -84.5993 -95.4205 76.5161 -85.0207 -95.8636 76.2721 
-84.1063 -95.8502 77.2344 -84.6298 -96.0726 77.2309 -84.915 -96.5536 76.8798 
-83.625 -96.4506 77.6413 -84.3235 -96.4036 78.0329 -84.7622 -96.7619 78.0452 
-84.8122 -97.354 77.4344 -82.9489 -97.0514 77.8643 -83.7164 -96.9908 78.3405 
-84.4873 -97.2145 78.7444 -84.727 -97.7544 78.5674 -84.6838 -98.4004 77.816 
-82.2639 -97.6953 78.0266 -82.7829 -97.7097 78.4164 -83.5773 -97.9156 78.7494 
-84.2059 -98.3982 78.8697 -84.4036 -98.9704 78.5367 -84.5007 -99.5064 78.0139 
-81.8754 -98.5593 77.9586 -82.1336 -98.548 78.4253 -82.5095 -98.6767 78.7511 
-83.1133 -99.1197 78.8549 -83.6598 -99.6673 78.6414 -83.9696 -100.064 78.3151 
[...]
POINT_DATA 1002
FIELD FieldData 2
Theta 1 1002 float
2.58802 2.58802 0.553574 0.553574 2.12437 1.01722 2.12437 1.01722 1.5708 
1.5708 1.5708 1.5708 2.68241 2.78649 2.89924 3.01861 3.14159 3.01861 
2.89924 2.78649 2.68241 2.61035 2.61791 2.60515 2.56958 2.51327 2.44184 
2.36202 2.27983 2.1997 2.61035 2.61791 2.60515 2.56958 2.51327 2.44184 
2.36202 2.27983 2.1997 2.50947 2.41899 2.31794 2.20864 2.0944 1.97902 
1.86631 1.75944 1.66056 2.50947 2.41899 2.31794 2.20864 2.0944 1.97902 
1.86631 1.75944 1.66056 2.61035 2.61791 2.60515 2.56958 2.51327 2.44184 
2.36202 2.27983 2.1997 2.61035 2.61791 2.60515 2.56958 2.51327 2.44184 
2.36202 2.27983 2.1997 2.50947 2.41899 2.31794 2.20864 2.0944 1.97902 
1.86631 1.75944 1.66056 2.50947 2.41899 2.31794 2.20864 2.0944 1.97902 
1.86631 1.75944 1.66056 0.459179 0.355101 0.242354 0.122983 0 0.122983 
0.242354 0.355101 0.459179 0.531246 0.523681 0.536438 0.57201 0.628319 0.699757 
0.779574 0.86176 0.941896 0.531246 0.523681 0.536438 0.57201 0.628319 0.699757 
0.779574 0.86176 0.941896 0.632123 0.7226 0.823657 0.932948 1.0472 1.16257 
1.27528 1.38216 1.48103 0.632123 0.7226 0.823657 0.932948 1.0472 1.16257 
1.27528 1.38216 1.48103 0.531246 0.523681 0.536438 0.57201 0.628319 0.699757 
0.779574 0.86176 0.941896 0.531246 0.523681 0.536438 0.57201 0.628319 0.699757 
0.779574 0.86176 0.941896 0.632123 0.7226 0.823657 0.932948 1.0472 1.16257 
1.27528 1.38216 1.48103 0.632123 0.7226 0.823657 0.932948 1.0472 1.16257 
1.27528 1.38216 1.48103 2.02998 1.9259 1.81315 1.69378 1.5708 1.44781 
1.32844 1.2157 1.11162 2.0928 2.05283 2.00422 1.94767 1.88496 1.81867 
1.75177 1.68695 1.62623 2.0928 2.05283 2.00422 1.94767 1.88496 1.81867 
1.75177 1.68695 1.62623 1.0488 1.08876 1.13737 1.19392 1.25664 1.32292 
1.38982 1.45464 1.51537 1.0488 1.08876 1.13737 1.19392 1.25664 1.32292 
1.38982 1.45464 1.51537 2.02998 1.9259 1.81315 1.69378 1.5708 1.44781 
1.32844 1.2157 1.11162 2.0928 2.05283 2.00422 1.94767 1.88496 1.81867 
1.75177 1.68695 1.62623 2.0928 2.05283 2.00422 1.94767 1.88496 1.81867 
1.75177 1.68695 1.62623 1.0488 1.08876 1.13737 1.19392 1.25664 1.32292 
1.38982 1.45464 1.51537 1.0488 1.08876 1.13737 1.19392 1.25664 1.32292 
1.38982 1.45464 1.51537 1.5708 1.5708 1.5708 1.5708 1.5708 1.5708 
1.5708 1.5708 1.5708 1.5708 1.5708 1.5708 1.5708 1.5708 1.5708 
1.5708 1.5708 1.5708 2.70908 2.71362 2.81592 2.68886 2.81002 2.92597 
2.6349 2.76254 2.89233 3.01997 2.55881 2.68262 2.80854 2.92834 3.01997 
2.47007 2.58462 2.70048 2.80854 2.89233 2.92597 2.37702 2.48017 2.58462 
2.68262 2.76254 2.81002 2.81592 2.28567 2.37702 2.47007 2.55881 2.6349 
2.68886 2.71362 2.70908 2.52097 2.4195 2.51718 2.30791 2.40503 2.49426 
2.18928 2.28408 2.3734 2.45144 2.06758 2.15805 2.24572 2.32523 2.39165 
1.94707 2.03138 2.11543 2.19453 2.26401 2.32035 1.83164 1.90847 1.98711 
2.06376 2.13422 2.1949 2.24359 1.72413 1.79288 1.86489 1.93728 2.00658 
2.06938 2.12312 2.16654 1.5708 1.50988 1.63171 1.44492 1.5708 1.69667 
1.37826 1.5059 1.63569 1.76333 1.31281 1.43962 1.5708 1.70197 1.82878 
1.25155 1.37501 1.50478 1.63681 1.76659 1.89004 1.19686 1.31493 1.44074 
1.5708 1.70086 1.82666 1.94473 1.15011 1.26149 1.38136 1.50697 1.63462 
1.76024 1.88011 1.99148 1.99148 1.88011 1.94473 1.76024 1.82666 1.89004 
1.63462 1.70086 1.76659 1.82878 1.50697 1.5708 1.63681 1.70197 1.76333 
1.38136 1.44074 1.50478 1.5708 1.63569 1.69667 1.26149 1.31493 1.37501 
1.43962 1.5059 1.5708 1.63171 1.15011 1.19686 1.25155 1.31281 1.37826 
1.44492 1.50988 1.5708 2.16654 2.12312 2.24359 2.06938 2.1949 2.32035 
2.00658 2.13422 2.26401 2.39165 1.93728 2.06376 2.19453 2.32523 2.45144 
1.86489 1.98711 2.11543 2.24572 2.3734 2.49426 1.79288 1.90847 2.03138 
2.15805 2.28408 2.40503 2.51718 1.72413 1.83164 1.94707 2.06758 2.18928 
2.30791 2.4195 2.52097 1.66533 1.66946 1.76911 1.67254 1.777 1.88041 
1.67418 1.78222 1.89102 1.99634 1.67418 1.78405 1.89674 2.00785 2.11299 
1.67254 1.78222 1.89674 2.01191 2.12307 2.22608 1.66946 1.777 1.89102 
2.00785 2.12307 2.23222 2.33166 1.66533 1.76911 1.88041 1.99634 2.11299 
2.22608 2.33166 2.42672 1.47626 1.37249 1.47213 1.26118 1.36459 1.46906 
1.14526 1.25058 1.35938 1.46741 1.0286 1.13374 1.24485 1.35755 1.46741 
0.915514 1.01852 1.12969 1.24485 1.35938 1.46906 0.809937 0.909371 1.01852 
1.13374 1.25058 1.36459 1.47213 0.714871 0.809937 0.915514 1.0286 1.14526 
1.26118 1.37249 1.47626 0.975055 0.898002 1.01847 0.821245 0.946693 1.07221 
0.749941 0.877585 1.00737 1.13501 0.690152 0.816367 0.94706 1.07784 1.20431 
0.647337 0.768195 0.895868 1.02616 1.15448 1.2767 0.624416 0.736561 0.857515 
0.983547 1.11021 1.23313 1.34871 0.620619 0.722093 0.833684 0.952313 1.07402 
1.19452 1.30996 1.41746 0.855925 0.764569 0.764569 0.671524 0.661425 0.671524 
0.582786 0.556971 0.556971 0.582786 0.506696 0.458968 0.441109 0.458968 0.506696 
0.45273 0.379052 0.333054 0.333054 0.379052 0.45273 0.427969 0.331576 0.249267 
0.21325 0.249267 0.331576 0.427969 0.432512 0.325669 0.215619 0.121622 0.121622 
0.215619 0.325669 0.432512 0.432512 0.427969 0.325669 0.45273 0.331576 0.215619 
0.506696 0.379052 0.249267 0.121622 0.582786 0.458968 0.333054 0.21325 0.121622 
0.671524 0.556971 0.441109 0.333054 0.249267 0.215619 0.764569 0.661425 0.556971 
0.458968 0.379052 0.331576 0.325669 0.855925 0.764569 0.671524 0.582786 0.506696 
0.45273 0.427969 0.432512 0.975055 1.01847 0.898002 1.07221 0.946693 0.821245 
1.13501 1.00737 0.877585 0.749941 1.20431 1.07784 0.94706 0.816367 0.690152 
1.2767 1.15448 1.02616 0.895868 0.768195 0.647337 1.34871 1.23313 1.11021 
0.983547 0.857515 0.736561 0.624416 1.41746 1.30996 1.19452 1.07402 0.952313 
0.833684 0.722093 0.620619 1.15011 1.26149 1.19686 1.38136 1.31493 1.25155 
1.50697 1.44074 1.37501 1.31281 1.63462 1.5708 1.50478 1.43962 1.37826 
1.76024 1.70086 1.63681 1.5708 1.5059 1.44492 1.88011 1.82666 1.76659 
1.70197 1.63569 1.5708 1.50988 1.99148 1.94473 1.89004 1.82878 1.76333 
1.69667 1.63171 1.5708 1.15011 1.19686 1.26149 1.25155 1.31493 1.38136 
1.31281 1.37501 1.44074 1.50697 1.37826 1.43962 1.50478 1.5708 1.63462 
1.44492 1.5059 1.5708 1.63681 1.70086 1.76024 1.50988 1.5708 1.63569 
1.70197 1.76659 1.82666 1.88011 1.5708 1.63171 1.69667 1.76333 1.82878 
1.89004 1.94473 1.99148 1.72413 1.83164 1.79288 1.94707 1.90847 1.86489 
2.06758 2.03138 1.98711 1.93728 2.18928 2.15805 2.11543 2.06376 2.00658 
2.30791 2.28408 2.24572 2.19453 2.13422 2.06938 2.4195 2.40503 2.3734 
2.32523 2.26401 2.1949 2.12312 2.52097 2.51718 2.49426 2.45144 2.39165 
2.32035 2.24359 2.16654 2.70908 2.81592 2.71362 2.92597 2.81002 2.68886 
3.01997 2.89233 2.76254 2.6349 3.01997 2.92834 2.80854 2.68262 2.55881 
2.92597 2.89233 2.80854 2.70048 2.58462 2.47007 2.81592 2.81002 2.76254 
2.68262 2.58462 2.48017 2.37702 2.70908 2.71362 2.68886 2.6349 2.55881 
2.47007 2.37702 2.28567 2.16654 2.24359 2.12312 2.32035 2.1949 2.06938 
2.39165 2.26401 2.13422 2.00658 2.45144 2.32523 2.19453 2.06376 1.93728 
2.49426 2.3734 2.24572 2.11543 1.98711 1.86489 2.51718 2.40503 2.28408 
2.15805 2.03138 1.90847 1.79288 2.52097 2.4195 2.30791 2.18928 2.06758 
1.94707 1.83164 1.72413 1.66533 1.76911 1.66946 1.88041 1.777 1.67254 
1.99634 1.89102 1.78222 1.67418 2.11299 2.00785 1.89674 1.78405 1.67418 
2.22608 2.12307 2.01191 1.89674 1.78222 1.67254 2.33166 2.23222 2.12307 
2.00785 1.89102 1.777 1.66946 2.42672 2.33166 2.22608 2.11299 1.99634 
1.88041 1.76911 1.66533 1.47626 1.47213 1.37249 1.46906 1.36459 1.26118 
1.46741 1.35938 1.25058 1.14526 1.46741 1.35755 1.24485 1.13374 1.0286 
1.46906 1.35938 1.24485 1.12969 1.01852 0.915514 1.47213 1.36459 1.25058 
1.13374 1.01852 0.909371 0.809937 1.47626 1.37249 1.26118 1.14526 1.0286 
0.915514 0.809937 0.714871 1.41746 1.30996 1.34871 1.19452 1.23313 1.2767 
1.07402 1.11021 1.15448 1.20431 0.952313 0.983547 1.02616 1.07784 1.13501 
0.833684 0.857515 0.895868 0.94706 1.00737 1.07221 0.722093 0.736561 0.768195 
0.816367 0.877585 0.946693 1.01847 0.620619 0.624416 0.647337 0.690152 0.749941 
0.821245 0.898002 0.975055 0.975055 0.898002 1.01847 0.821245 0.946693 1.07221 
0.749941 0.877585 1.00737 1.13501 0.690152 0.816367 0.94706 1.07784 1.20431 
0.647337 0.768195 0.895868 1.02616 1.15448 1.2767 0.624416 0.736561 0.857515 
0.983547 1.11021 1.23313 1.34871 0.620619 0.722093 0.833684 0.952313 1.07402 
1.19452 1.30996 1.41746 
Phi 1 1002 float
6.28319 3.14159 6.28319 3.14159 4.71239 4.71239 1.5708 1.5708 3.69517 
5.72961 2.58802 0.553574 6.28319 6.28319 6.28319 6.28319 3.14159 3.14159 
3.14159 3.14159 3.14159 6.1053 5.8988 5.67687 5.45995 5.26596 5.10322 
4.97131 4.86569 4.78095 0.177881 0.384387 0.606312 0.823235 1.01722 1.17997 
1.31187 1.4175 1.50223 6.18928 6.10703 6.03531 5.97283 5.91832 5.87061 
5.82869 5.79168 5.75886 0.0939024 0.176153 0.247873 0.310351 0.364864 0.412573 
0.454497 0.491504 0.524326 3.31947 3.52598 3.7479 3.96483 4.15881 4.32156 
4.45346 4.55909 4.64383 2.96371 2.75721 2.53528 2.31836 2.12437 1.96162 
1.82972 1.72409 1.63936 3.2355 3.31775 3.38947 3.45194 3.50646 3.55417 
3.59609 3.6331 3.66592 3.04769 2.96544 2.89372 2.83124 2.77673 2.72902 
2.6871 2.65009 2.61727 6.28319 6.28319 6.28319 6.28319 3.14159 3.14159 
3.14159 3.14159 3.14159 6.1053 5.8988 5.67687 5.45995 5.26596 5.10322 
4.97131 4.86569 4.78095 0.177881 0.384387 0.606312 0.823235 1.01722 1.17997 
1.31187 1.4175 1.50223 6.18928 6.10703 6.03531 5.97283 5.91832 5.87061 
5.82869 5.79168 5.75886 0.0939024 0.176153 0.247873 0.310351 0.364864 0.412573 
0.454497 0.491504 0.524326 3.31947 3.52598 3.7479 3.96483 4.15881 4.32156 
4.45346 4.55909 4.64383 2.96371 2.75721 2.53528 2.31836 2.12437 1.96162 
1.82972 1.72409 1.63936 3.2355 3.31775 3.38947 3.45194 3.50646 3.55417 
3.59609 3.6331 3.66592 3.04769 2.96544 2.89372 2.83124 2.77673 2.72902 
2.6871 2.65009 2.61727 4.71239 4.71239 4.71239 4.71239 4.71239 4.71239 
4.71239 4.71239 4.71239 4.60879 4.49914 4.3857 4.27128 4.15881 4.05096 
3.94976 3.85646 3.77161 4.81599 4.92564 5.03907 5.1535 5.26596 5.37381 
5.47502 5.56831 5.65317 4.60879 4.49914 4.3857 4.27128 4.15881 4.05096 
3.94976 3.85646 3.77161 4.81599 4.92564 5.03907 5.1535 5.26596 5.37381 
5.47502 5.56831 5.65317 1.5708 1.5708 1.5708 1.5708 1.5708 1.5708 
1.5708 1.5708 1.5708 1.6744 1.78405 1.89748 2.01191 2.12437 2.23222 
2.33343 2.42672 2.51157 1.4672 1.35755 1.24411 1.12969 1.01722 0.909371 
0.808166 0.714871 0.63002 1.6744 1.78405 1.89748 2.01191 2.12437 2.23222 
2.33343 2.42672 2.51157 1.4672 1.35755 1.24411 1.12969 1.01722 0.909371 
0.808166 0.714871 0.63002 3.60077 3.49669 3.38395 3.26458 3.14159 3.01861 
2.89924 2.78649 2.68241 5.82401 5.92808 6.04083 6.1602 6.28319 0.122983 
0.242354 0.355101 0.459179 6.05603 5.78856 5.97021 5.51259 5.60297 5.78856 
5.26596 5.26596 5.26596 5.26596 5.06749 5.0121 4.91556 4.71239 4.15881 
4.91556 4.83537 4.71239 4.50922 4.15881 3.63622 4.80045 4.71239 4.58941 
4.41268 4.15881 3.82181 3.45456 4.71239 4.62433 4.50922 4.35729 4.15881 
3.91219 3.63622 3.36875 6.01742 5.94343 5.82633 5.88092 5.76745 5.62798 
5.8278 5.71897 5.58911 5.43724 5.78235 5.67854 5.55757 5.41926 5.26596 
5.74316 5.64441 5.5315 5.40467 5.26596 5.11955 5.70914 5.61528 5.50962 
5.3926 5.26596 5.13292 4.99789 5.67937 5.59016 5.49102 5.38246 5.26596 
5.14407 5.02016 4.89798 5.56831 5.47502 5.47502 5.37381 5.37381 5.37381 
5.26596 5.26596 5.26596 5.26596 5.1535 5.1535 5.1535 5.1535 5.1535 
5.03907 5.03907 5.03907 5.03907 5.03907 5.03907 4.92564 4.92564 4.92564 
4.92564 4.92564 4.92564 4.92564 4.81599 4.81599 4.81599 4.81599 4.81599 
4.81599 4.81599 4.81599 4.60879 4.60879 4.49914 4.60879 4.49914 4.3857 
4.60879 4.49914 4.3857 4.27128 4.60879 4.49914 4.3857 4.27128 4.15881 
4.60879 4.49914 4.3857 4.27128 4.15881 4.05096 4.60879 4.49914 4.3857 
4.27128 4.15881 4.05096 3.94976 4.60879 4.49914 4.3857 4.27128 4.15881 
4.05096 3.94976 3.85646 4.5268 4.40462 4.42689 4.28071 4.29185 4.30523 
4.15881 4.15881 4.15881 4.15881 4.04232 4.03217 4.02011 4.00552 3.98753 
3.93376 3.91515 3.89328 3.86721 3.83566 3.7968 3.83461 3.8095 3.78037 
3.74624 3.70581 3.65733 3.59845 3.7454 3.71564 3.68161 3.64243 3.59698 
3.54386 3.48135 3.40735 3.56428 3.45246 3.52338 3.33203 3.40312 3.47739 
3.20576 3.27463 3.34802 3.42551 3.07742 3.14159 3.21128 3.28647 3.36688 
2.95116 3.00855 3.0719 3.14159 3.21784 3.3006 2.83072 2.88006 2.93517 
2.99672 3.06535 3.14159 3.22575 2.7189 2.7598 2.8058 2.85768 2.9163 
2.98259 3.05743 3.14159 3.56428 3.52338 3.45246 3.47739 3.40312 3.33203 
3.42551 3.34802 3.27463 3.20576 3.36688 3.28647 3.21128 3.14159 3.07742 
3.3006 3.21784 3.14159 3.0719 3.00855 2.95116 3.22575 3.14159 3.06535 
2.99672 2.93517 2.88006 2.83072 3.14159 3.05743 2.98259 2.9163 2.85768 
2.8058 2.7598 2.7189 4.5268 4.42689 4.40462 4.30523 4.29185 4.28071 
4.15881 4.15881 4.15881 4.15881 3.98753 4.00552 4.02011 4.03217 4.04232 
3.7968 3.83566 3.86721 3.89328 3.91515 3.93376 3.59845 3.65733 3.70581 
3.74624 3.78037 3.8095 3.83461 3.40735 3.48135 3.54386 3.59698 3.64243 
3.68161 3.71564 3.7454 4.71239 4.80045 4.62433 4.91556 4.71239 4.50922 
5.06749 4.83537 4.58941 4.35729 5.26596 5.0121 4.71239 4.41268 4.15881 
5.51259 5.26596 4.91556 4.50922 4.15881 3.91219 5.78856 5.60297 5.26596 
4.71239 4.15881 3.82181 3.63622 6.05603 5.97021 5.78856 5.26596 4.15881 
3.63622 3.45456 3.36875 0.227158 0.494626 0.312971 0.770593 0.680215 0.494626 
1.01722 1.01722 1.01722 1.01722 1.2157 1.27109 1.36763 1.5708 2.12437 
1.36763 1.44781 1.5708 1.77397 2.12437 2.64697 1.48273 1.5708 1.69378 
1.8705 2.12437 2.46138 2.82862 1.5708 1.65886 1.77397 1.9259 2.12437 
2.371 2.64697 2.91443 1.75639 1.87857 1.8563 2.00248 1.99133 1.97796 
2.12437 2.12437 2.12437 2.12437 2.24087 2.25101 2.26308 2.27767 2.29565 
2.34943 2.36803 2.38991 2.41597 2.44752 2.48639 2.44857 2.47368 2.50281 
2.53694 2.57738 2.62586 2.68474 2.53778 2.56754 2.60157 2.64076 2.68621 
2.73933 2.80184 2.87583 1.6744 1.6744 1.78405 1.6744 1.78405 1.89748 
1.6744 1.78405 1.89748 2.01191 1.6744 1.78405 1.89748 2.01191 2.12437 
1.6744 1.78405 1.89748 2.01191 2.12437 2.23222 1.6744 1.78405 1.89748 
2.01191 2.12437 2.23222 2.33343 1.6744 1.78405 1.89748 2.01191 2.12437 
2.23222 2.33343 2.42672 1.4672 1.35755 1.4672 1.24411 1.35755 1.4672 
1.12969 1.24411 1.35755 1.4672 1.01722 1.12969 1.24411 1.35755 1.4672 
0.909371 1.01722 1.12969 1.24411 1.35755 1.4672 0.808166 0.909371 1.01722 
1.12969 1.24411 1.35755 1.4672 0.714871 0.808166 0.909371 1.01722 1.12969 
1.24411 1.35755 1.4672 0.603812 0.57405 0.693022 0.540021 0.667908 0.792164 
0.500837 0.638778 0.773562 0.900726 0.455383 0.604649 0.751687 0.890581 1.01722 
0.402264 0.564217 0.725619 0.878514 1.01722 1.13912 0.339753 0.515737 0.694072 
0.863926 1.01722 1.15026 1.26302 0.265762 0.456853 0.655207 0.845941 1.01722 
1.16363 1.28529 1.38521 0.227158 0.312971 0.494626 0.494626 0.680215 0.770593 
1.01722 1.01722 1.01722 1.01722 2.12437 1.5708 1.36763 1.27109 1.2157 
2.64697 2.12437 1.77397 1.5708 1.44781 1.36763 2.82862 2.46138 2.12437 
1.8705 1.69378 1.5708 1.48273 2.91443 2.64697 2.371 2.12437 1.9259 
1.77397 1.65886 1.5708 1.75639 1.8563 1.87857 1.97796 1.99133 2.00248 
2.12437 2.12437 2.12437 2.12437 2.29565 2.27767 2.26308 2.25101 2.24087 
2.48639 2.44752 2.41597 2.38991 2.36803 2.34943 2.68474 2.62586 2.57738 
2.53694 2.50281 2.47368 2.44857 2.87583 2.80184 2.73933 2.68621 2.64076 
2.60157 2.56754 2.53778 5.86049 5.90139 5.97231 5.94739 6.02165 6.09275 
5.99927 6.07676 6.15015 6.21902 6.0579 6.13831 6.2135 0 0.0641696 
6.12418 6.20694 6.28319 0.069689 0.13304 0.190437 6.19903 0 0.0762451 
0.144876 0.206423 0.261531 0.310872 0 0.0841597 0.159004 0.225289 0.283913 
0.335793 0.381792 0.422692 5.86049 5.97231 5.90139 6.09275 6.02165 5.94739 
6.21902 6.15015 6.07676 5.99927 0.0641696 0 6.2135 6.13831 6.0579 
0.190437 0.13304 0.069689 6.28319 6.20694 6.12418 0.310872 0.261531 0.206423 
0.144876 0.0762451 6.28319 6.19903 0.422692 0.381792 0.335793 0.283913 0.225289 
0.159004 0.0841597 0 5.67937 5.70914 5.59016 5.74316 5.61528 5.49102 
5.78235 5.64441 5.50962 5.38246 5.8278 5.67854 5.5315 5.3926 5.26596 
5.88092 5.71897 5.55757 5.40467 5.26596 5.14407 5.94343 5.76745 5.58911 
5.41926 5.26596 5.13292 5.02016 6.01742 5.82633 5.62798 5.43724 5.26596 
5.11955 4.99789 4.89798 1.38521 1.28529 1.26302 1.16363 1.15026 1.13912 
1.01722 1.01722 1.01722 1.01722 0.845941 0.863926 0.878514 0.890581 0.900726 
0.655207 0.694072 0.725619 0.751687 0.773562 0.792164 0.456853 0.515737 0.564217 
0.604649 0.638778 0.667908 0.693022 0.265762 0.339753 0.402264 0.455383 0.500837 
0.540021 0.57405 0.603812 
