# vtk DataFile Version 4.0
vtk output
ASCII
DATASET POLYDATA
POINTS 1002 float
-85.0939 -98.0764 68.076 -80.6287 -105.45 67.3708 -79.7473 -94.6536 67.337 
-75.446 -102.408 67.0808 -81.2519 -101.106 73.1065 -78.2476 -99.0923 73.0361 
-83.0134 -100.97 63.1616 -79.0849 -98.8454 63.2967 -76.0965 -107.109 70.1084 
-82.9523 -94.0142 70.9885 -74.7198 -108.621 63.1235 -84.917 -92.4242 64.0385 
-84.8915 -98.9292 68.1725 -84.6741 -99.8008 68.1613 -84.4119 -100.745 68.0745 
-84.0901 -101.66 68.0275 -83.5389 -102.19 67.9991 -82.648 -102.452 67.8975 
-81.7584 -102.989 67.7764 -81.2428 -103.881 67.6669 -80.9746 -104.782 67.5207 
-84.9547 -98.4289 68.5519 -84.7418 -98.7713 69.0688 -84.3445 -99.1002 69.5975 
-83.8271 -99.3849 70.0963 -83.296 -99.5699 70.576 -82.7542 -99.7488 71.0626 
-82.2547 -100.066 71.5837 -81.8915 -100.486 72.1676 -81.6036 -100.861 72.7252 
-85.1293 -98.2846 67.6806 -85.1722 -98.6046 67.1839 -85.1307 -98.9957 66.5555 
-84.9684 -99.3762 65.8783 -84.7845 -99.7392 65.2303 -84.5795 -100.089 64.6499 
-84.2278 -100.398 64.1518 -83.7854 -100.664 63.7206 -83.3902 -100.863 63.3777 
-85.2246 -97.4553 68.2607 -85.3582 -96.8477 68.5337 -85.4268 -96.3429 68.8604 
-85.3228 -95.9466 69.1823 -85.0654 -95.4621 69.5055 -84.7939 -94.8177 69.8758 
-84.4802 -94.2918 70.3001 -84.0148 -94.0894 70.6595 -83.4626 -94.0729 70.8562 
-85.415 -97.3463 67.6705 -86.0065 -96.7661 67.2604 -86.7681 -96.3926 66.9292 
-87.2617 -95.8251 66.5773 -87.1437 -94.886 66.2032 -86.5409 -94.1247 65.993 
-85.8627 -93.7642 65.7746 -85.4194 -93.3688 65.2394 -85.1823 -92.825 64.5495 
-80.6265 -105.113 67.8548 -80.6471 -104.769 68.4508 -80.8152 -104.514 69.2439 
-81.0268 -104.204 70.0215 -81.0216 -103.603 70.4994 -80.9366 -102.92 70.9454 
-81.099 -102.517 71.6921 -81.3488 -102.22 72.4397 -81.3839 -101.722 72.8665 
-80.7914 -105.302 66.9807 -80.7993 -104.897 66.5886 -80.8718 -104.391 66.1215 
-81.2222 -104.039 65.5302 -81.6618 -103.73 65.0115 -81.9576 -103.175 64.6623 
-82.2295 -102.541 64.2242 -82.5754 -102.075 63.6779 -82.8687 -101.611 63.3108 
-80.094 -105.734 67.592 -79.4899 -106.003 67.8963 -79.015 -106.406 68.138 
-78.5992 -106.864 68.3566 -78.2071 -107.271 68.7954 -77.9359 -107.639 69.3082 
-77.576 -107.855 69.5654 -76.9712 -107.774 69.6881 -76.3969 -107.474 69.892 
-80.2297 -105.916 66.9771 -79.5935 -106.255 66.5306 -78.8876 -106.588 66.1062 
-78.3701 -107.154 65.6902 -78.0163 -107.867 65.0752 -77.6348 -108.369 64.3432 
-77.1481 -108.59 63.8985 -76.4491 -108.691 63.7096 -75.5382 -108.714 63.4456 
-79.4585 -95.366 67.3621 -78.9874 -96.0975 67.4184 -78.4176 -96.8641 67.38 
-77.8917 -97.6746 67.1732 -77.3589 -98.3457 66.992 -76.8222 -99.0071 67.0118 
-76.3841 -99.9169 67.1245 -76.0105 -100.859 67.1903 -75.6794 -101.643 67.1751 
-79.7157 -95.0649 67.9204 -79.5561 -95.419 68.56 -79.2897 -95.7102 69.2428 
-79.0603 -96.1144 69.9137 -78.8858 -96.6493 70.5158 -78.6294 -97.1222 71.1269 
-78.3428 -97.533 71.7862 -78.2053 -98.0202 72.3486 -78.2092 -98.5696 72.7422 
-79.601 -94.7433 66.8096 -79.5106 -95.0215 66.2994 -79.3949 -95.337 65.6673 
-79.1565 -95.6099 64.9284 -78.9949 -96.0907 64.4052 -79.0141 -96.777 64.1215 
-79.0089 -97.3573 63.7605 -78.9716 -97.842 63.4057 -79.02 -98.3622 63.295 
-79.9851 -94.2898 67.7454 -80.2534 -93.9959 68.2384 -80.6182 -93.6989 68.6706 
-81.0136 -93.3914 69.0593 -81.2802 -93.1062 69.61 -81.5248 -92.8657 70.2181 
-81.9264 -92.8337 70.5493 -82.3589 -93.1492 70.6511 -82.6809 -93.6306 70.7836 
-79.9146 -94.038 66.9648 -80.2565 -93.626 66.5163 -80.8477 -93.3926 66.039 
-81.4623 -92.9788 65.5592 -81.8127 -92.2686 65.0116 -82.1241 -91.6731 64.4403 
-82.8662 -91.4757 64.0083 -83.871 -91.5807 63.8038 -84.5954 -91.9034 63.8359 
-75.5476 -102.057 67.7001 -75.7628 -101.748 68.3217 -76.0875 -101.44 68.8526 
-76.3815 -101.07 69.4372 -76.5764 -100.684 70.1835 -76.8516 -100.381 70.885 
-77.3015 -100.14 71.444 -77.727 -99.8505 71.9984 -78.0073 -99.4768 72.5588 
-75.4825 -102.257 66.5872 -75.4648 -101.967 66.1155 -75.4516 -101.496 65.6196 
-75.6241 -101.044 65.0684 -76.0056 -100.713 64.6029 -76.4741 -100.352 64.2804 
-77.0306 -99.9614 63.9805 -77.6964 -99.6158 63.7047 -78.401 -99.2428 63.5026 
-75.3357 -103.074 67.2715 -75.3143 -103.866 67.3824 -75.3216 -104.582 67.5571 
-75.1837 -105.154 67.9968 -74.9938 -105.748 68.5054 -75.1283 -106.295 68.7325 
-75.5294 -106.587 68.8835 -75.7789 -106.751 69.2858 -75.8701 -106.958 69.7801 
-75.2896 -103.232 66.659 -74.9771 -104.145 66.2848 -74.3234 -104.832 65.875 
-73.6185 -105.332 65.3643 -73.4109 -106.164 64.9836 -73.5889 -107.312 64.7251 
-73.6401 -108.154 64.1578 -73.63 -108.526 63.4116 -73.9677 -108.656 63.0524 
-80.8589 -100.809 73.4077 -80.4942 -100.57 73.7497 -80.2849 -100.578 74.2421 
-79.9875 -100.64 74.822 -79.4062 -100.342 75.1567 -78.9333 -99.7842 75.0169 
-78.7953 -99.3948 74.5495 -78.6854 -99.2434 74.0014 -78.4639 -99.1694 73.4888 
-80.898 -101.72 73.2005 -80.4659 -102.415 73.2202 -79.9521 -103.024 73.0467 
-79.3585 -103.677 72.6934 -78.7507 -104.626 72.5384 -78.2332 -105.478 72.5732 
-77.7764 -105.887 72.2223 -77.2308 -106.242 71.4398 -76.6069 -106.735 70.6861 
-81.4016 -100.457 73.2077 -81.6164 -99.8274 73.2781 -81.8063 -98.9945 73.1152 
-82.053 -98.0707 72.8618 -82.52 -97.372 72.7898 -83.004 -96.6748 72.6574 
-83.1897 -95.7271 72.2718 -83.1159 -94.8745 71.8575 -82.9929 -94.3678 71.4607 
-78.1252 -99.8796 72.9813 -77.9656 -100.779 72.8246 -77.6798 -101.707 72.6835 
-77.2177 -102.57 72.7038 -76.7113 -103.384 72.7791 -76.4141 -104.253 72.5756 
-76.37 -105.152 71.9966 -76.3519 -105.935 71.2879 -76.2272 -106.563 70.6511 
-78.5556 -98.4448 73.2517 -79.0303 -97.8683 73.3847 -79.5851 -97.3673 73.405 
-80.0908 -96.9074 73.1876 -80.6092 -96.293 72.8553 -81.2239 -95.3696 72.7345 
-81.7704 -94.4936 72.653 -82.1448 -94.0949 72.219 -82.5029 -94.0535 71.5524 
-82.7249 -100.519 62.9881 -82.3073 -100.069 62.7559 -81.9748 -99.8531 62.4585 
-81.6627 -99.8177 62.0973 -81.004 -99.657 61.6989 -80.2775 -99.3847 61.5244 
-79.994 -99.184 61.8542 -79.8711 -99.0265 62.4978 -79.5316 -98.9017 63.0284 
-82.4733 -101.494 63.1287 -81.6817 -102.117 63.206 -80.5756 -102.838 63.3998 
-79.3471 -103.591 63.6887 -78.4067 -104.525 63.7876 -77.8341 -105.712 63.4463 
-77.2734 -106.8 63.0449 -76.4921 -107.584 62.9909 -75.5763 -108.179 63.097 
-83.3322 -100.165 63.1269 -83.6988 -99.3842 62.9368 -84.055 -98.7342 62.6965 
-84.2146 -98.0097 62.7682 -84.335 -96.9929 63.0699 -84.7021 -95.8418 63.2577 
-85.0418 -94.8315 63.4719 -85.047 -93.9857 63.817 -84.9314 -93.1853 64.0287 
-78.5776 -99.5009 63.3265 -77.857 -100.237 63.1644 -77.1581 -101.272 62.9798 
-76.6256 -102.644 62.969 -76.1369 -104.09 63.1347 -75.6651 -105.443 63.3492 
-75.2745 -106.643 63.3638 -74.924 -107.566 63.1288 -74.688 -108.189 62.9781 
-79.7033 -98.1911 63.0135 -80.3184 -97.5546 62.717 -80.9547 -97.0199 62.6084 
-81.5035 -96.4889 62.7031 -81.9869 -95.821 62.884 -82.6061 -95.1091 63.196 
-83.3261 -94.3566 63.5697 -83.9695 -93.4969 63.7517 -84.4995 -92.7761 63.8119 
-75.8518 -107.57 69.4221 -75.7241 -108.101 68.4944 -75.6175 -109.087 67.4022 
-75.5009 -110.36 66.6719 -75.4287 -110.833 66.3136 -75.2369 -110.237 65.6188 
-74.812 -109.584 64.5639 -74.4514 -109.298 63.7602 -74.4378 -109.026 63.3453 
-83.3256 -93.6059 70.4119 -83.7436 -92.9728 69.8926 -84.0284 -92.3754 69.2592 
-84.1575 -92.0391 68.3976 -84.3548 -91.8138 67.5703 -84.7733 -91.5705 66.8374 
-85.2059 -91.4527 65.9432 -85.3411 -91.5802 65.0085 -85.171 -91.9289 64.359 
-84.7479 -99.2714 68.622 -84.5173 -99.6356 69.1688 -84.4971 -100.154 68.6682 
-84.0724 -99.9461 69.7245 -84.2732 -100.583 69.3108 -84.1915 -101.135 68.7048 
-83.414 -100.065 70.1069 -83.7214 -100.817 69.793 -83.8937 -101.503 69.3587 
-83.7297 -101.891 68.6781 -82.7407 -100.132 70.4425 -82.8431 -100.743 70.0016 
-83.1087 -101.506 69.6835 -83.1909 -102.028 69.2031 -82.9577 -102.247 68.5438 
-82.2277 -100.417 70.9989 -82.1299 -100.796 70.385 -82.1392 -101.349 69.9016 
-82.2981 -101.997 69.5042 -82.2986 -102.453 68.9992 -82.0656 -102.728 68.3886 
-81.8895 -100.879 71.721 -81.7698 -101.198 71.1101 -81.6045 -101.557 70.4387 
-81.604 -102.136 69.9165 -81.6665 -102.777 69.454 -81.5877 -103.238 68.8733 
-81.4178 -103.573 68.2437 -81.6521 -101.348 72.3876 -81.5559 -101.729 71.8576 
-81.3527 -102.043 71.1161 -81.2848 -102.552 70.4767 -81.3333 -103.234 70.0177 
-81.2528 -103.761 69.4306 -81.0977 -104.107 68.6994 -81.0174 -104.443 68.0487 
-85.0418 -97.7728 68.8569 -85.0958 -97.0686 69.2318 -84.7071 -98.0923 69.4288 
-85.0094 -96.5182 69.5577 -84.6091 -97.3792 69.7611 -84.2197 -98.5065 69.9325 
-84.7274 -96.1544 69.8103 -84.392 -96.8677 70.0241 -84.1247 -97.9798 70.2867 
-83.7724 -98.9693 70.5449 -84.4728 -95.6912 70.1361 -84.1789 -96.5063 70.4119 
-84.0523 -97.5581 70.7943 -83.8116 -98.6037 71.1655 -83.3108 -99.2446 71.2393 
-84.3457 -95.0815 70.5968 -84.1506 -96.0205 71.0053 -84.0645 -97.0908 71.5206 
-83.8666 -98.1097 71.8872 -83.3462 -98.8232 71.9275 -82.7211 -99.4026 71.7323 
-84.0694 -94.6397 71.035 -84.0641 -95.4777 71.5223 -84.013 -96.5482 72.1155 
-83.7816 -97.511 72.4373 -83.2696 -98.2307 72.3783 -82.6571 -98.9362 72.225 
-82.1758 -99.7194 72.1425 -83.5474 -94.4668 71.2986 -83.6628 -95.1036 71.7608 
-83.6822 -96.0858 72.2988 -83.4305 -97.0295 72.6286 -82.9222 -97.7025 72.5745 
-82.4208 -98.4427 72.521 -82.05 -99.3384 72.6241 -81.7771 -100.146 72.6954 
-82.5918 -94.5127 71.96 -82.2257 -94.8322 72.454 -82.6943 -95.2538 72.2683 
-81.7072 -95.4967 72.8647 -82.2258 -95.7529 72.8337 -82.652 -96.2125 72.7209 
-81.0095 -96.3074 73.2634 -81.6064 -96.2782 73.6221 -82.1289 -96.5648 73.6067 
-82.3245 -97.0322 73.1998 -80.3971 -96.9376 73.6827 -80.9176 -96.7562 74.2919 
-81.6216 -96.8318 74.6185 -81.9204 -97.326 74.2669 -81.8736 -97.7924 73.4918 
-79.9189 -97.4303 73.9243 -80.2861 -97.2882 74.5352 -80.9697 -97.2717 75.0159 
-81.6035 -97.7541 75.0354 -81.6792 -98.4037 74.522 -81.6101 -98.7941 73.7747 
-79.3936 -97.9479 73.9053 -79.6628 -97.922 74.4884 -80.0846 -97.9515 74.9466 
-80.8261 -98.3738 75.0992 -81.3587 -99.0436 74.9377 -81.4092 -99.5027 74.5242 
[...]
POINT_DATA 1002
FIELD FieldData 2
Theta 1 1002 float
2.58802 2.58802 0.553574 0.553574 2.12437 1.01722 2.12437 1.01722 1.5708 
1.5708 1.5708 1.5708 2.68241 2.78649 2.89924 3.01861 3.14159 3.01861 
2.89924 2.78649 2.68241 2.61035 2.61791 2.60515 2.56958 2.51327 2.44184 
2.36202 2.27983 2.1997 2.61035 2.61791 2.60515 2.56958 2.51327 2.44184 
2.36202 2.27983 2.1997 2.50947 2.41899 2.31794 2.20864 2.0944 1.97902 
1.86631 1.75944 1.66056 2.50947 2.41899 2.31794 2.20864 2.0944 1.97902 
1.86631 1.75944 1.66056 2.61035 2.61791 2.60515 2.56958 2.51327 2.44184 
2.36202 2.27983 2.1997 2.61035 2.61791 2.60515 2.56958 2.51327 2.44184 
2.36202 2.27983 2.1997 2.50947 2.41899 2.31794 2.20864 2.0944 1.97902 
1.86631 1.75944 1.66056 2.50947 2.41899 2.31794 2.20864 2.0944 1.97902 
1.86631 1.75944 1.66056 0.459179 0.355101 0.242354 0.122983 0 0.122983 
0.242354 0.355101 0.459179 0.531246 0.523681 0.536438 0.57201 0.628319 0.699757 
0.779574 0.86176 0.941896 0.531246 0.523681 0.536438 0.57201 0.628319 0.699757 
0.779574 0.86176 0.941896 0.632123 0.7226 0.823657 0.932948 1.0472 1.16257 
1.27528 1.38216 1.48103 0.632123 0.7226 0.823657 0.932948 1.0472 1.16257 
1.27528 1.38216 1.48103 0.531246 0.523681 0.536438 0.57201 0.628319 0.699757 
0.779574 0.86176 0.941896 0.531246 0.523681 0.536438 0.57201 0.628319 0.699757 
0.779574 0.86176 0.941896 0.632123 0.7226 0.823657 0.932948 1.0472 1.16257 
1.27528 1.38216 1.48103 0.632123 0.7226 0.823657 0.932948 1.0472 1.16257 
1.27528 1.38216 1.48103 2.02998 1.9259 1.81315 1.69378 1.5708 1.44781 
1.32844 1.2157 1.11162 2.0928 2.05283 2.00422 1.94767 1.88496 1.81867 
1.75177 1.68695 1.62623 2.0928 2.05283 2.00422 1.94767 1.88496 1.81867 
1.75177 1.68695 1.62623 1.0488 1.08876 1.13737 1.19392 1.25664 1.32292 
1.38982 1.45464 1.51537 1.0488 1.08876 1.13737 1.19392 1.25664 1.32292 
1.38982 1.45464 1.51537 2.02998 1.9259 1.81315 1.69378 1.5708 1.44781 
1.32844 1.2157 1.11162 2.0928 2.05283 2.00422 1.94767 1.88496 1.81867 
1.75177 1.68695 1.62623 2.0928 2.05283 2.00422 1.94767 1.88496 1.81867 
1.75177 1.68695 1.62623 1.0488 1.08876 1.13737 1.19392 1.25664 1.32292 
1.38982 1.45464 1.51537 1.0488 1.08876 1.13737 1.19392 1.25664 1.32292 
1.38982 1.45464 1.51537 1.5708 1.5708 1.5708 1.5708 1.5708 1.5708 
1.5708 1.5708 1.5708 1.5708 1.5708 1.5708 1.5708 1.5708 1.5708 
1.5708 1.5708 1.5708 2.70908 2.71362 2.81592 2.68886 2.81002 2.92597 
2.6349 2.76254 2.89233 3.01997 2.55881 2.68262 2.80854 2.92834 3.01997 
2.47007 2.58462 2.70048 2.80854 2.89233 2.92597 2.37702 2.48017 2.58462 
2.68262 2.76254 2.81002 2.81592 2.28567 2.37702 2.47007 2.55881 2.6349 
2.68886 2.71362 2.70908 2.52097 2.4195 2.51718 2.30791 2.40503 2.49426 
2.18928 2.28408 2.3734 2.45144 2.06758 2.15805 2.24572 2.32523 2.39165 
1.94707 2.03138 2.11543 2.19453 2.26401 2.32035 1.83164 1.90847 1.98711 
2.06376 2.13422 2.1949 2.24359 1.72413 1.79288 1.86489 1.93728 2.00658 
2.06938 2.12312 2.16654 1.5708 1.50988 1.63171 1.44492 1.5708 1.69667 
1.37826 1.5059 1.63569 1.76333 1.31281 1.43962 1.5708 1.70197 1.82878 
1.25155 1.37501 1.50478 1.63681 1.76659 1.89004 1.19686 1.31493 1.44074 
1.5708 1.70086 1.82666 1.94473 1.15011 1.26149 1.38136 1.50697 1.63462 
1.76024 1.88011 1.99148 1.99148 1.88011 1.94473 1.76024 1.82666 1.89004 
1.63462 1.70086 1.76659 1.82878 1.50697 1.5708 1.63681 1.70197 1.76333 
1.38136 1.44074 1.50478 1.5708 1.63569 1.69667 1.26149 1.31493 1.37501 
1.43962 1.5059 1.5708 1.63171 1.15011 1.19686 1.25155 1.31281 1.37826 
1.44492 1.50988 1.5708 2.16654 2.12312 2.24359 2.06938 2.1949 2.32035 
2.00658 2.13422 2.26401 2.39165 1.93728 2.06376 2.19453 2.32523 2.45144 
1.86489 1.98711 2.11543 2.24572 2.3734 2.49426 1.79288 1.90847 2.03138 
2.15805 2.28408 2.40503 2.51718 1.72413 1.83164 1.94707 2.06758 2.18928 
2.30791 2.4195 2.52097 1.66533 1.66946 1.76911 1.67254 1.777 1.88041 
1.67418 1.78222 1.89102 1.99634 1.67418 1.78405 1.89674 2.00785 2.11299 
1.67254 1.78222 1.89674 2.01191 2.12307 2.22608 1.66946 1.777 1.89102 
2.00785 2.12307 2.23222 2.33166 1.66533 1.76911 1.88041 1.99634 2.11299 
2.22608 2.33166 2.42672 1.47626 1.37249 1.47213 1.26118 1.36459 1.46906 
1.14526 1.25058 1.35938 1.46741 1.0286 1.13374 1.24485 1.35755 1.46741 
0.915514 1.01852 1.12969 1.24485 1.35938 1.46906 0.809937 0.909371 1.01852 
1.13374 1.25058 1.36459 1.47213 0.714871 0.809937 0.915514 1.0286 1.14526 
1.26118 1.37249 1.47626 0.975055 0.898002 1.01847 0.821245 0.946693 1.07221 
0.749941 0.877585 1.00737 1.13501 0.690152 0.816367 0.94706 1.07784 1.20431 
0.647337 0.768195 0.895868 1.02616 1.15448 1.2767 0.624416 0.736561 0.857515 
0.983547 1.11021 1.23313 1.34871 0.620619 0.722093 0.833684 0.952313 1.07402 
1.19452 1.30996 1.41746 0.855925 0.764569 0.764569 0.671524 0.661425 0.671524 
0.582786 0.556971 0.556971 0.582786 0.506696 0.458968 0.441109 0.458968 0.506696 
0.45273 0.379052 0.333054 0.333054 0.379052 0.45273 0.427969 0.331576 0.249267 
0.21325 0.249267 0.331576 0.427969 0.432512 0.325669 0.215619 0.121622 0.121622 
0.215619 0.325669 0.432512 0.432512 0.427969 0.325669 0.45273 0.331576 0.215619 
0.506696 0.379052 0.249267 0.121622 0.582786 0.458968 0.333054 0.21325 0.121622 
0.671524 0.556971 0.441109 0.333054 0.249267 0.215619 0.764569 0.661425 0.556971 
0.458968 0.379052 0.331576 0.325669 0.855925 0.764569 0.671524 0.582786 0.506696 
0.45273 0.427969 0.432512 0.975055 1.01847 0.898002 1.07221 0.946693 0.821245 
1.13501 1.00737 0.877585 0.749941 1.20431 1.07784 0.94706 0.816367 0.690152 
1.2767 1.15448 1.02616 0.895868 0.768195 0.647337 1.34871 1.23313 1.11021 
0.983547 0.857515 0.736561 0.624416 1.41746 1.30996 1.19452 1.07402 0.952313 
0.833684 0.722093 0.620619 1.15011 1.26149 1.19686 1.38136 1.31493 1.25155 
1.50697 1.44074 1.37501 1.31281 1.63462 1.5708 1.50478 1.43962 1.37826 
1.76024 1.70086 1.63681 1.5708 1.5059 1.44492 1.88011 1.82666 1.76659 
1.70197 1.63569 1.5708 1.50988 1.99148 1.94473 1.89004 1.82878 1.76333 
1.69667 1.63171 1.5708 1.15011 1.19686 1.26149 1.25155 1.31493 1.38136 
1.31281 1.37501 1.44074 1.50697 1.37826 1.43962 1.50478 1.5708 1.63462 
1.44492 1.5059 1.5708 1.63681 1.70086 1.76024 1.50988 1.5708 1.63569 
1.70197 1.76659 1.82666 1.88011 1.5708 1.63171 1.69667 1.76333 1.82878 
1.89004 1.94473 1.99148 1.72413 1.83164 1.79288 1.94707 1.90847 1.86489 
2.06758 2.03138 1.98711 1.93728 2.18928 2.15805 2.11543 2.06376 2.00658 
2.30791 2.28408 2.24572 2.19453 2.13422 2.06938 2.4195 2.40503 2.3734 
2.32523 2.26401 2.1949 2.12312 2.52097 2.51718 2.49426 2.45144 2.39165 
2.32035 2.24359 2.16654 2.70908 2.81592 2.71362 2.92597 2.81002 2.68886 
3.01997 2.89233 2.76254 2.6349 3.01997 2.92834 2.80854 2.68262 2.55881 
2.92597 2.89233 2.80854 2.70048 2.58462 2.47007 2.81592 2.81002 2.76254 
2.68262 2.58462 2.48017 2.37702 2.70908 2.71362 2.68886 2.6349 2.55881 
2.47007 2.37702 2.28567 2.16654 2.24359 2.12312 2.32035 2.1949 2.06938 
2.39165 2.26401 2.13422 2.00658 2.45144 2.32523 2.19453 2.06376 1.93728 
2.49426 2.3734 2.24572 2.11543 1.98711 1.86489 2.51718 2.40503 2.28408 
2.15805 2.03138 1.90847 1.79288 2.52097 2.4195 2.30791 2.18928 2.06758 
1.94707 1.83164 1.72413 1.66533 1.76911 1.66946 1.88041 1.777 1.67254 
1.99634 1.89102 1.78222 1.67418 2.11299 2.00785 1.89674 1.78405 1.67418 
2.22608 2.12307 2.01191 1.89674 1.78222 1.67254 2.33166 2.23222 2.12307 
2.00785 1.89102 1.777 1.66946 2.42672 2.33166 2.22608 2.11299 1.99634 
1.88041 1.76911 1.66533 1.47626 1.47213 1.37249 1.46906 1.36459 1.26118 
1.46741 1.35938 1.25058 1.14526 1.46741 1.35755 1.24485 1.13374 1.0286 
1.46906 1.35938 1.24485 1.12969 1.01852 0.915514 1.47213 1.36459 1.25058 
1.13374 1.01852 0.909371 0.809937 1.47626 1.37249 1.26118 1.14526 1.0286 
0.915514 0.809937 0.714871 1.41746 1.30996 1.34871 1.19452 1.23313 1.2767 
1.07402 1.11021 1.15448 1.20431 0.952313 0.983547 1.02616 1.07784 1.13501 
0.833684 0.857515 0.895868 0.94706 1.00737 1.07221 0.722093 0.736561 0.768195 
0.816367 0.877585 0.946693 1.01847 0.620619 0.624416 0.647337 0.690152 0.749941 
0.821245 0.898002 0.975055 0.975055 0.898002 1.01847 0.821245 0.946693 1.07221 
0.749941 0.877585 1.00737 1.13501 0.690152 0.816367 0.94706 1.07784 1.20431 
0.647337 0.768195 0.895868 1.02616 1.15448 1.2767 0.624416 0.736561 0.857515 
0.983547 1.11021 1.23313 1.34871 0.620619 0.722093 0.833684 0.952313 1.07402 
1.19452 1.30996 1.41746 
Phi 1 1002 float
6.28319 3.14159 6.28319 3.14159 4.71239 4.71239 1.5708 1.5708 3.69517 
5.72961 2.58802 0.553574 6.28319 6.28319 6.28319 6.28319 3.14159 3.14159 
3.14159 3.14159 3.14159 6.1053 5.8988 5.67687 5.45995 5.26596 5.10322 
4.97131 4.86569 4.78095 0.177881 0.384387 0.606312 0.823235 1.01722 1.17997 
1.31187 1.4175 1.50223 6.18928 6.10703 6.03531 5.97283 5.91832 5.87061 
5.82869 5.79168 5.75886 0.0939024 0.176153 0.247873 0.310351 0.364864 0.412573 
0.454497 0.491504 0.524326 3.31947 3.52598 3.7479 3.96483 4.15881 4.32156 
4.45346 4.55909 4.64383 2.96371 2.75721 2.53528 2.31836 2.12437 1.96162 
1.82972 1.72409 1.63936 3.2355 3.31775 3.38947 3.45194 3.50646 3.55417 
3.59609 3.6331 3.66592 3.04769 2.96544 2.89372 2.83124 2.77673 2.72902 
2.6871 2.65009 2.61727 6.28319 6.28319 6.28319 6.28319 3.14159 3.14159 
3.14159 3.14159 3.14159 6.1053 5.8988 5.67687 5.45995 5.26596 5.10322 
4.97131 4.86569 4.78095 0.177881 0.384387 0.606312 0.823235 1.01722 1.17997 
1.31187 1.4175 1.50223 6.18928 6.10703 6.03531 5.97283 5.91832 5.87061 
5.82869 5.79168 5.75886 0.0939024 0.176153 0.247873 0.310351 0.364864 0.412573 
0.454497 0.491504 0.524326 3.31947 3.52598 3.7479 3.96483 4.15881 4.32156 
4.45346 4.55909 4.64383 2.96371 2.75721 2.53528 2.31836 2.12437 1.96162 
1.82972 1.72409 1.63936 3.2355 3.31775 3.38947 3.45194 3.50646 3.55417 
3.59609 3.6331 3.66592 3.04769 2.96544 2.89372 2.83124 2.77673 2.72902 
2.6871 2.65009 2.61727 4.71239 4.71239 4.71239 4.71239 4.71239 4.71239 
4.71239 4.71239 4.71239 4.60879 4.49914 4.3857 4.27128 4.15881 4.05096 
3.94976 3.85646 3.77161 4.81599 4.92564 5.03907 5.1535 5.26596 5.37381 
5.47502 5.56831 5.65317 4.60879 4.49914 4.3857 4.27128 4.15881 4.05096 
3.94976 3.85646 3.77161 4.81599 4.92564 5.03907 5.1535 5.26596 5.37381 
5.47502 5.56831 5.65317 1.5708 1.5708 1.5708 1.5708 1.5708 1.5708 
1.5708 1.5708 1.5708 1.6744 1.78405 1.89748 2.01191 2.12437 2.23222 
2.33343 2.42672 2.51157 1.4672 1.35755 1.24411 1.12969 1.01722 0.909371 
0.808166 0.714871 0.63002 1.6744 1.78405 1.89748 2.01191 2.12437 2.23222 
2.33343 2.42672 2.51157 1.4672 1.35755 1.24411 1.12969 1.01722 0.909371 
0.808166 0.714871 0.63002 3.60077 3.49669 3.38395 3.26458 3.14159 3.01861 
2.89924 2.78649 2.68241 5.82401 5.92808 6.04083 6.1602 6.28319 0.122983 
0.242354 0.355101 0.459179 6.05603 5.78856 5.97021 5.51259 5.60297 5.78856 
5.26596 5.26596 5.26596 5.26596 5.06749 5.0121 4.91556 4.71239 4.15881 
4.91556 4.83537 4.71239 4.50922 4.15881 3.63622 4.80045 4.71239 4.58941 
4.41268 4.15881 3.82181 3.45456 4.71239 4.62433 4.50922 4.35729 4.15881 
3.91219 3.63622 3.36875 6.01742 5.94343 5.82633 5.88092 5.76745 5.62798 
5.8278 5.71897 5.58911 5.43724 5.78235 5.67854 5.55757 5.41926 5.26596 
5.74316 5.64441 5.5315 5.40467 5.26596 5.11955 5.70914 5.61528 5.50962 
5.3926 5.26596 5.13292 4.99789 5.67937 5.59016 5.49102 5.38246 5.26596 
5.14407 5.02016 4.89798 5.56831 5.47502 5.47502 5.37381 5.37381 5.37381 
5.26596 5.26596 5.26596 5.26596 5.1535 5.1535 5.1535 5.1535 5.1535 
5.03907 5.03907 5.03907 5.03907 5.03907 5.03907 4.92564 4.92564 4.92564 
4.92564 4.92564 4.92564 4.92564 4.81599 4.81599 4.81599 4.81599 4.81599 
4.81599 4.81599 4.81599 4.60879 4.60879 4.49914 4.60879 4.49914 4.3857 
4.60879 4.49914 4.3857 4.27128 4.60879 4.49914 4.3857 4.27128 4.15881 
4.60879 4.49914 4.3857 4.27128 4.15881 4.05096 4.60879 4.49914 4.3857 
4.27128 4.15881 4.05096 3.94976 4.60879 4.49914 4.3857 4.27128 4.15881 
4.05096 3.94976 3.85646 4.5268 4.40462 4.42689 4.28071 4.29185 4.30523 
4.15881 4.15881 4.15881 4.15881 4.04232 4.03217 4.02011 4.00552 3.98753 
3.93376 3.91515 3.89328 3.86721 3.83566 3.7968 3.83461 3.8095 3.78037 
3.74624 3.70581 3.65733 3.59845 3.7454 3.71564 3.68161 3.64243 3.59698 
3.54386 3.48135 3.40735 3.56428 3.45246 3.52338 3.33203 3.40312 3.47739 
3.20576 3.27463 3.34802 3.42551 3.07742 3.14159 3.21128 3.28647 3.36688 
2.95116 3.00855 3.0719 3.14159 3.21784 3.3006 2.83072 2.88006 2.93517 
2.99672 3.06535 3.14159 3.22575 2.7189 2.7598 2.8058 2.85768 2.9163 
2.98259 3.05743 3.14159 3.56428 3.52338 3.45246 3.47739 3.40312 3.33203 
3.42551 3.34802 3.27463 3.20576 3.36688 3.28647 3.21128 3.14159 3.07742 
3.3006 3.21784 3.14159 3.0719 3.00855 2.95116 3.22575 3.14159 3.06535 
2.99672 2.93517 2.88006 2.83072 3.14159 3.05743 2.98259 2.9163 2.85768 
2.8058 2.7598 2.7189 4.5268 4.42689 4.40462 4.30523 4.29185 4.28071 
4.15881 4.15881 4.15881 4.15881 3.98753 4.00552 4.02011 4.03217 4.04232 
3.7968 3.83566 3.86721 3.89328 3.91515 3.93376 3.59845 3.65733 3.70581 
3.74624 3.78037 3.8095 3.83461 3.40735 3.48135 3.54386 3.59698 3.64243 
3.68161 3.71564 3.7454 4.71239 4.80045 4.62433 4.91556 4.71239 4.50922 
5.06749 4.83537 4.58941 4.35729 5.26596 5.0121 4.71239 4.41268 4.15881 
5.51259 5.26596 4.91556 4.50922 4.15881 3.91219 5.78856 5.60297 5.26596 
4.71239 4.15881 3.82181 3.63622 6.05603 5.97021 5.78856 5.26596 4.15881 
3.63622 3.45456 3.36875 0.227158 0.494626 0.312971 0.770593 0.680215 0.494626 
1.01722 1.01722 1.01722 1.01722 1.2157 1.27109 1.36763 1.5708 2.12437 
1.36763 1.44781 1.5708 1.77397 2.12437 2.64697 1.48273 1.5708 1.69378 
1.8705 2.12437 2.46138 2.82862 1.5708 1.65886 1.77397 1.9259 2.12437 
2.371 2.64697 2.91443 1.75639 1.87857 1.8563 2.00248 1.99133 1.97796 
2.12437 2.12437 2.12437 2.12437 2.24087 2.25101 2.26308 2.27767 2.29565 
2.34943 2.36803 2.38991 2.41597 2.44752 2.48639 2.44857 2.47368 2.50281 
2.53694 2.57738 2.62586 2.68474 2.53778 2.56754 2.60157 2.64076 2.68621 
2.73933 2.80184 2.87583 1.6744 1.6744 1.78405 1.6744 1.78405 1.89748 
1.6744 1.78405 1.89748 2.01191 1.6744 1.78405 1.89748 2.01191 2.12437 
1.6744 1.78405 1.89748 2.01191 2.12437 2.23222 1.6744 1.78405 1.89748 
2.01191 2.12437 2.23222 2.33343 1.6744 1.78405 1.89748 2.01191 2.12437 
2.23222 2.33343 2.42672 1.4672 1.35755 1.4672 1.24411 1.35755 1.4672 
1.12969 1.24411 1.35755 1.4672 1.01722 1.12969 1.24411 1.35755 1.4672 
0.909371 1.01722 1.12969 1.24411 1.35755 1.4672 0.808166 0.909371 1.01722 
1.12969 1.24411 1.35755 1.4672 0.714871 0.808166 0.909371 1.01722 1.12969 
1.24411 1.35755 1.4672 0.603812 0.57405 0.693022 0.540021 0.667908 0.792164 
0.500837 0.638778 0.773562 0.900726 0.455383 0.604649 0.751687 0.890581 1.01722 
0.402264 0.564217 0.725619 0.878514 1.01722 1.13912 0.339753 0.515737 0.694072 
0.863926 1.01722 1.15026 1.26302 0.265762 0.456853 0.655207 0.845941 1.01722 
1.16363 1.28529 1.38521 0.227158 0.312971 0.494626 0.494626 0.680215 0.770593 
1.01722 1.01722 1.01722 1.01722 2.12437 1.5708 1.36763 1.27109 1.2157 
2.64697 2.12437 1.77397 1.5708 1.44781 1.36763 2.82862 2.46138 2.12437 
1.8705 1.69378 1.5708 1.48273 2.91443 2.64697 2.371 2.12437 1.9259 
1.77397 1.65886 1.5708 1.75639 1.8563 1.87857 1.97796 1.99133 2.00248 
2.12437 2.12437 2.12437 2.12437 2.29565 2.27767 2.26308 2.25101 2.24087 
2.48639 2.44752 2.41597 2.38991 2.36803 2.34943 2.68474 2.62586 2.57738 
2.53694 2.50281 2.47368 2.44857 2.87583 2.80184 2.73933 2.68621 2.64076 
2.60157 2.56754 2.53778 5.86049 5.90139 5.97231 5.94739 6.02165 6.09275 
5.99927 6.07676 6.15015 6.21902 6.0579 6.13831 6.2135 0 0.0641696 
6.12418 6.20694 6.28319 0.069689 0.13304 0.190437 6.19903 0 0.0762451 
0.144876 0.206423 0.261531 0.310872 0 0.0841597 0.159004 0.225289 0.283913 
0.335793 0.381792 0.422692 5.86049 5.97231 5.90139 6.09275 6.02165 5.94739 
6.21902 6.15015 6.07676 5.99927 0.0641696 0 6.2135 6.13831 6.0579 
0.190437 0.13304 0.069689 6.28319 6.20694 6.12418 0.310872 0.261531 0.206423 
0.144876 0.0762451 6.28319 6.19903 0.422692 0.381792 0.335793 0.283913 0.225289 
0.159004 0.0841597 0 5.67937 5.70914 5.59016 5.74316 5.61528 5.49102 
5.78235 5.64441 5.50962 5.38246 5.8278 5.67854 5.5315 5.3926 5.26596 
5.88092 5.71897 5.55757 5.40467 5.26596 5.14407 5.94343 5.76745 5.58911 
5.41926 5.26596 5.13292 5.02016 6.01742 5.82633 5.62798 5.43724 5.26596 
5.11955 4.99789 4.89798 1.38521 1.28529 1.26302 1.16363 1.15026 1.13912 
1.01722 1.01722 1.01722 1.01722 0.845941 0.863926 0.878514 0.890581 0.900726 
0.655207 0.694072 0.725619 0.751687 0.773562 0.792164 0.456853 0.515737 0.564217 
0.604649 0.638778 0.667908 0.693022 0.265762 0.339753 0.402264 0.455383 0.500837 
0.540021 0.57405 0.603812 
