# vtk DataFile Version 4.0
vtk output
ASCII
DATASET POLYDATA
POINTS 1002 float
-84.8258 -102.214 70.3396 -79.8182 -108.359 69.7336 -79.3013 -97.7986 69.4126 
-74.607 -105.419 68.7219 -80.491 -104.555 76.1429 -77.6761 -102.545 74.9153 
-82.6185 -104.721 65.1045 -78.4526 -102.11 64.3872 -75.3132 -110.382 72.9449 
-82.4776 -97.5447 73.1182 -75.4862 -110.881 64.9129 -85.1893 -96.9873 67.1087 
-84.5247 -102.855 70.4135 -84.3366 -103.677 70.5094 -84.0825 -104.51 70.5823 
-83.4548 -105.029 70.4854 -82.547 -105.347 70.2209 -81.7859 -105.924 70.0297 
-81.3222 -106.777 70.0069 -80.9395 -107.529 69.9956 -80.4293 -108.014 69.8921 
-84.5461 -102.407 70.8955 -84.2939 -102.66 71.5744 -84.0098 -102.955 72.2718 
-83.5042 -103.172 72.8762 -82.7731 -103.237 73.3279 -82.1632 -103.36 73.7468 
-81.7866 -103.763 74.3997 -81.4071 -104.251 75.2227 -80.9441 -104.508 75.8377 
-84.9089 -102.423 69.8938 -84.937 -102.647 69.3643 -84.8752 -102.849 68.7309 
-84.8373 -103.173 68.0671 -84.895 -103.791 67.3651 -84.7997 -104.409 66.6447 
-84.3139 -104.601 66.1109 -83.621 -104.515 65.8043 -83.0309 -104.53 65.5072 
-84.9736 -101.742 70.5827 -85.0384 -101.202 70.9196 -85.0372 -100.535 71.3647 
-85.0812 -99.8328 71.8327 -84.9983 -99.2634 72.206 -84.5676 -98.8298 72.4189 
-83.9997 -98.4313 72.5507 -83.48 -98.068 72.7193 -82.9559 -97.7838 72.9164 
-85.281 -101.739 70.0001 -85.8591 -101.251 69.6696 -86.4766 -100.835 69.452 
-86.9541 -100.313 69.356 -87.1581 -99.344 69.0375 -87.0896 -98.3032 68.395 
-86.7502 -97.841 67.8722 -86.1959 -97.7025 67.6158 -85.6277 -97.3883 67.3801 
-79.7758 -108.124 70.2658 -79.731 -107.798 70.7827 -79.7543 -107.398 71.3233 
-79.8747 -106.999 72.1026 -80.0099 -106.61 73.002 -80.1284 -106.218 73.6855 
-80.3151 -105.845 74.3338 -80.5105 -105.447 75.1318 -80.5597 -104.994 75.784 
-80.2693 -108.389 69.3329 -80.7731 -108.463 68.888 -81.2102 -108.432 68.2945 
-81.4221 -108.113 67.588 -81.4191 -107.495 67.0064 -81.4748 -106.767 66.5767 
-81.7583 -106.166 66.0749 -82.1235 -105.721 65.5679 -82.4077 -105.258 65.2674 
-79.2228 -108.649 69.9198 -78.7276 -109.052 70.2003 -78.3559 -109.517 70.6218 
-78.1141 -110.091 71.2357 -77.8849 -110.645 71.9247 -77.4346 -110.948 72.4186 
-76.7604 -111.083 72.6846 -76.0989 -111.106 72.8806 -75.6095 -110.862 72.9939 
-79.4243 -108.719 69.316 -79.0857 -109.24 68.9492 -78.9496 -109.939 68.507 
-78.8742 -110.585 67.7195 -78.4939 -110.949 66.8174 -77.7361 -111.003 66.3352 
-76.9444 -110.901 66.1247 -76.3519 -110.882 65.7192 -75.8874 -110.955 65.2028 
-79.0626 -98.5939 69.4343 -78.5367 -99.3805 69.3754 -77.5964 -99.738 69.2258 
-76.8097 -100.072 69.0683 -76.5428 -101.034 68.9947 -76.2494 -102.185 69.0158 
-75.6561 -102.99 69.0443 -75.1798 -103.782 68.9774 -74.9198 -104.696 68.8339 
-79.032 -97.9869 69.9164 -78.8249 -98.2571 70.4588 -78.7431 -98.7504 71.0756 
-78.6538 -99.3958 71.7979 -78.4016 -99.8938 72.5157 -78.0824 -100.283 73.1196 
-77.896 -100.849 73.6696 -77.8529 -101.533 74.1708 -77.8105 -102.115 74.5647 
-79.3662 -98.0466 68.8876 -79.3472 -98.4038 68.2638 -79.2902 -98.8564 67.7056 
-79.1776 -99.2944 67.2307 -78.9985 -99.755 66.6902 -78.8627 -100.298 66.1401 
-78.7818 -100.772 65.6452 -78.653 -101.146 65.1303 -78.5105 -101.581 64.6709 
-79.4212 -97.3474 69.6621 -79.7355 -97.0392 69.9713 -80.2322 -96.7499 70.4691 
-80.6557 -96.4854 71.1097 -80.9299 -96.3642 71.6867 -81.3346 -96.3452 72.1844 
-81.8828 -96.3925 72.683 -82.2411 -96.6044 73.0395 -82.3642 -97.0141 73.1419 
-79.7081 -97.3797 69.1006 -80.3958 -97.1393 68.8729 -81.3154 -96.9051 68.6735 
-82.0717 -96.4472 68.3212 -82.4283 -95.9105 67.884 -82.8546 -95.6524 67.5924 
-83.6806 -95.6959 67.3824 -84.4707 -95.9335 67.154 -84.9026 -96.385 67.0449 
-74.8877 -105.279 69.1689 -75.1838 -105.035 69.69 -75.4877 -104.689 70.3275 
-75.7567 -104.281 71.1158 -75.9559 -103.844 71.9774 -76.1831 -103.431 72.7262 
-76.5428 -103.098 73.3693 -76.9548 -102.852 74.0108 -77.3229 -102.679 74.5562 
-74.6115 -105.157 68.2843 -74.716 -104.879 67.7001 -74.9896 -104.623 67.1101 
-75.431 -104.331 66.6771 -75.8723 -103.88 66.2048 -76.2515 -103.37 65.6033 
-76.7499 -102.99 65.1557 -77.3627 -102.687 64.8814 -77.9192 -102.372 64.6045 
-74.3347 -105.875 68.9846 -73.9933 -106.301 69.4617 -73.7312 -106.796 70.0487 
-73.7311 -107.459 70.4644 -74.0056 -108.317 70.7145 -74.4002 -109.12 70.9775 
-74.7403 -109.577 71.276 -74.9382 -109.827 71.7086 -75.0769 -110.116 72.336 
-74.1206 -105.748 68.409 -73.6387 -106.041 68.0232 -73.4042 -106.595 67.4882 
-73.3669 -107.504 66.8637 -73.4313 -108.455 66.3555 -73.7267 -109.159 66.1128 
-74.1822 -109.721 65.9821 -74.6018 -110.303 65.6807 -75.0163 -110.76 65.2348 
-80.2184 -104.37 76.5259 -80.002 -104.32 77.2333 -79.7381 -104.238 78.0862 
-79.423 -103.909 78.3296 -79.1645 -103.483 77.7038 -78.881 -103.215 76.9077 
-78.4698 -103.057 76.3585 -78.0738 -102.885 75.8606 -77.8207 -102.706 75.3526 
-80.0575 -104.854 76.122 -79.5784 -105.356 76.028 -79.168 -106.149 75.8783 
-78.7111 -107.076 75.6269 -77.9678 -107.934 75.364 -77.1478 -108.615 75.1109 
-76.6032 -109.135 74.7135 -76.1843 -109.616 74.1812 -75.7063 -110.07 73.6017 
-80.6738 -104.079 76.2137 -80.9439 -103.494 76.2351 -81.3826 -102.882 76.2119 
-81.8532 -102.17 75.947 -82.2095 -101.115 75.4798 -82.4896 -99.9774 75.0703 
-82.6318 -99.2863 74.591 -82.5451 -98.8567 73.9228 -82.4209 -98.2525 73.3777 
-77.2032 -102.982 75.1533 -76.7033 -103.516 75.4008 -76.305 -104.238 75.463 
-75.9942 -105.057 75.2626 -75.7817 -106.003 74.923 -75.7118 -107.169 74.5147 
-75.6451 -108.279 74.0466 -75.4819 -109.071 73.6158 -75.3395 -109.714 73.2643 
-78.1386 -102.078 75.0073 -78.52 -101.307 75.2356 -78.8044 -100.362 75.5015 
-79.1541 -99.5841 75.572 -79.8055 -98.997 75.4871 -80.6764 -98.3948 75.3269 
-81.3692 -97.905 74.8862 -81.7447 -97.7137 74.1775 -82.0449 -97.6627 73.5351 
-82.515 -104.512 64.6855 -82.3952 -104.291 64.2121 -82.1909 -104.073 63.8542 
-81.7461 -103.746 63.7329 -81.1198 -103.283 63.7748 -80.577 -102.928 63.9168 
-80.1046 -102.789 64.1162 -79.5229 -102.643 64.2331 -78.9083 -102.373 64.2668 
-82.1591 -105.391 64.7381 -81.6025 -106.132 64.4667 -80.8183 -106.803 64.3872 
-79.9269 -107.497 64.3201 -79.1035 -108.299 64.2059 -78.2907 -108.999 64.2134 
-77.4089 -109.499 64.3002 -76.5821 -109.98 64.3657 -75.9529 -110.486 64.5417 
-83.128 -104.085 65.127 -83.811 -103.62 64.9337 -84.4256 -103.123 64.7615 
-84.7139 -102.188 64.9765 -84.8514 -100.977 65.5028 -85.1132 -100.052 66.0696 
-85.3652 -99.37 66.5838 -85.4138 -98.5776 66.9233 -85.3187 -97.7241 67.0488 
-78.0885 -102.827 64.302 -77.7226 -103.709 64.316 -77.3076 -104.742 64.3584 
-76.778 -105.654 64.1973 -76.1929 -106.427 63.8984 -75.7136 -107.439 63.8699 
-75.4395 -108.653 64.1382 -75.3609 -109.671 64.3902 -75.4023 -110.384 64.5942 
-79.1188 -101.549 64.4255 -79.9785 -100.976 64.5794 -80.913 -100.451 64.8367 
-81.7395 -99.9595 65.1488 -82.4482 -99.4182 65.4607 -83.0812 -98.8569 65.7863 
-83.645 -98.3053 66.1648 -84.2248 -97.7131 66.5345 -84.7911 -97.2101 66.832 
-75.1954 -110.913 72.2444 -75.0845 -111.335 71.4113 -74.8298 -111.743 70.5521 
-74.5205 -112.284 69.7373 -74.3534 -112.632 68.8467 -74.3361 -112.445 67.838 
-74.4956 -112.024 66.9042 -74.8501 -111.678 66.146 -75.2249 -111.315 65.4893 
-83.0068 -97.0367 72.7864 -83.641 -96.6476 72.2305 -84.0556 -96.4069 71.362 
-84.2028 -96.1107 70.4918 -84.4743 -95.7026 69.8742 -84.9084 -95.511 69.3001 
-85.1227 -95.7389 68.5901 -85.1479 -96.1661 67.905 -85.1995 -96.5711 67.4105 
-84.2639 -103.138 71.0595 -83.9992 -103.474 71.7469 -84.0526 -104.046 71.2402 
-83.6375 -103.74 72.3505 -83.6607 -104.328 71.8317 -83.6419 -104.77 71.2536 
-83.0045 -103.818 72.8751 -83.112 -104.43 72.3186 -83.009 -104.844 71.696 
-82.8086 -105.104 70.9857 -82.2871 -103.871 73.3778 -82.4111 -104.472 72.8865 
-82.3373 -104.94 72.2037 -82.0731 -105.181 71.4124 -81.8617 -105.479 70.6462 
-81.834 -104.18 73.982 -81.8142 -104.67 73.4848 -81.7536 -105.212 72.8523 
-81.5369 -105.534 72.021 -81.2467 -105.737 71.1364 -81.1852 -106.176 70.4641 
-81.5204 -104.666 74.7533 -81.422 -105.032 74.0857 -81.2707 -105.5 73.4087 
-81.1328 -105.947 72.6626 -80.8628 -106.165 71.7266 -80.651 -106.428 70.9136 
-80.7298 -106.954 70.4032 -81.085 -104.967 75.4278 -81.0188 -105.344 74.6878 
-80.8053 -105.702 73.8901 -80.6501 -106.125 73.209 -80.4829 -106.473 72.3607 
-80.2501 -106.738 71.4334 -80.1676 -107.124 70.7964 -80.2851 -107.608 70.3544 
-84.6924 -101.949 71.2489 -84.7588 -101.437 71.6909 -84.4095 -102.209 71.9997 
-84.7218 -100.784 72.1191 -84.4233 -101.748 72.4517 -84.0198 -102.51 72.7462 
-84.6064 -100.106 72.4682 -84.3501 -101.151 72.8722 -84.0236 -102.084 73.2828 
-83.4032 -102.709 73.3933 -84.2717 -99.6109 72.736 -84.1547 -100.496 73.2751 
-84.0786 -101.506 73.9017 -83.5231 -102.253 74.0841 -82.7003 -102.754 73.8316 
-83.7783 -99.2778 72.9094 -83.7481 -99.9954 73.5441 -83.9157 -100.855 74.3557 
-83.707 -101.722 74.8021 -82.8856 -102.311 74.5508 -82.121 -102.935 74.2534 
-83.3384 -98.9473 73.048 -83.317 -99.6203 73.649 -83.4331 -100.297 74.406 
-83.4536 -101.207 75.0451 -82.9505 -101.977 75.1705 -82.1264 -102.595 74.9278 
-81.597 -103.399 74.9452 -82.8952 -98.5936 73.2047 -82.9518 -99.2342 73.7623 
-82.9671 -99.7706 74.3952 -82.8845 -100.641 74.9366 -82.6132 -101.674 75.3661 
-82.032 -102.428 75.5343 -81.4162 -103.094 75.5555 -81.0892 -103.85 75.6995 
-82.0745 -98.3491 73.9576 -81.7931 -98.4424 74.7243 -82.2543 -98.8612 74.7005 
-81.3169 -98.748 75.3782 -81.9135 -99.0361 75.4954 -82.2794 -99.3654 75.3941 
-80.4539 -99.2479 75.7174 -81.246 -99.5268 75.9803 -81.8086 -99.7947 76.0972 
-82.0129 -100.357 75.8178 -79.5526 -99.7811 75.9436 -80.2162 -100.147 76.2358 
-80.9841 -100.497 76.485 -81.4805 -100.951 76.5544 -81.6819 -101.632 76.3175 
-79.0595 -100.482 76.0438 -79.3917 -100.806 76.4823 -79.9818 -101.194 76.7512 
-80.7077 -101.55 77.0512 -81.2081 -102.06 77.188 -81.3592 -102.601 76.843 
-78.8015 -101.411 75.8053 -79.0314 -101.614 76.4393 -79.3447 -101.867 76.9064 
-79.8885 -102.083 77.3532 -80.531 -102.413 77.7825 -80.9106 -102.897 77.657 
[...]
POINT_DATA 1002
FIELD FieldData 2
Theta 1 1002 float
2.58802 2.58802 0.553574 0.553574 2.12437 1.01722 2.12437 1.01722 1.5708 
1.5708 1.5708 1.5708 2.68241 2.78649 2.89924 3.01861 3.14159 3.01861 
2.89924 2.78649 2.68241 2.61035 2.61791 2.60515 2.56958 2.51327 2.44184 
2.36202 2.27983 2.1997 2.61035 2.61791 2.60515 2.56958 2.51327 2.44184 
2.36202 2.27983 2.1997 2.50947 2.41899 2.31794 2.20864 2.0944 1.97902 
1.86631 1.75944 1.66056 2.50947 2.41899 2.31794 2.20864 2.0944 1.97902 
1.86631 1.75944 1.66056 2.61035 2.61791 2.60515 2.56958 2.51327 2.44184 
2.36202 2.27983 2.1997 2.61035 2.61791 2.60515 2.56958 2.51327 2.44184 
2.36202 2.27983 2.1997 2.50947 2.41899 2.31794 2.20864 2.0944 1.97902 
1.86631 1.75944 1.66056 2.50947 2.41899 2.31794 2.20864 2.0944 1.97902 
1.86631 1.75944 1.66056 0.459179 0.355101 0.242354 0.122983 0 0.122983 
0.242354 0.355101 0.459179 0.531246 0.523681 0.536438 0.57201 0.628319 0.699757 
0.779574 0.86176 0.941896 0.531246 0.523681 0.536438 0.57201 0.628319 0.699757 
0.779574 0.86176 0.941896 0.632123 0.7226 0.823657 0.932948 1.0472 1.16257 
1.27528 1.38216 1.48103 0.632123 0.7226 0.823657 0.932948 1.0472 1.16257 
1.27528 1.38216 1.48103 0.531246 0.523681 0.536438 0.57201 0.628319 0.699757 
0.779574 0.86176 0.941896 0.531246 0.523681 0.536438 0.57201 0.628319 0.699757 
0.779574 0.86176 0.941896 0.632123 0.7226 0.823657 0.932948 1.0472 1.16257 
1.27528 1.38216 1.48103 0.632123 0.7226 0.823657 0.932948 1.0472 1.16257 
1.27528 1.38216 1.48103 2.02998 1.9259 1.81315 1.69378 1.5708 1.44781 
1.32844 1.2157 1.11162 2.0928 2.05283 2.00422 1.94767 1.88496 1.81867 
1.75177 1.68695 1.62623 2.0928 2.05283 2.00422 1.94767 1.88496 1.81867 
1.75177 1.68695 1.62623 1.0488 1.08876 1.13737 1.19392 1.25664 1.32292 
1.38982 1.45464 1.51537 1.0488 1.08876 1.13737 1.19392 1.25664 1.32292 
1.38982 1.45464 1.51537 2.02998 1.9259 1.81315 1.69378 1.5708 1.44781 
1.32844 1.2157 1.11162 2.0928 2.05283 2.00422 1.94767 1.88496 1.81867 
1.75177 1.68695 1.62623 2.0928 2.05283 2.00422 1.94767 1.88496 1.81867 
1.75177 1.68695 1.62623 1.0488 1.08876 1.13737 1.19392 1.25664 1.32292 
1.38982 1.45464 1.51537 1.0488 1.08876 1.13737 1.19392 1.25664 1.32292 
1.38982 1.45464 1.51537 1.5708 1.5708 1.5708 1.5708 1.5708 1.5708 
1.5708 1.5708 1.5708 1.5708 1.5708 1.5708 1.5708 1.5708 1.5708 
1.5708 1.5708 1.5708 2.70908 2.71362 2.81592 2.68886 2.81002 2.92597 
2.6349 2.76254 2.89233 3.01997 2.55881 2.68262 2.80854 2.92834 3.01997 
2.47007 2.58462 2.70048 2.80854 2.89233 2.92597 2.37702 2.48017 2.58462 
2.68262 2.76254 2.81002 2.81592 2.28567 2.37702 2.47007 2.55881 2.6349 
2.68886 2.71362 2.70908 2.52097 2.4195 2.51718 2.30791 2.40503 2.49426 
2.18928 2.28408 2.3734 2.45144 2.06758 2.15805 2.24572 2.32523 2.39165 
1.94707 2.03138 2.11543 2.19453 2.26401 2.32035 1.83164 1.90847 1.98711 
2.06376 2.13422 2.1949 2.24359 1.72413 1.79288 1.86489 1.93728 2.00658 
2.06938 2.12312 2.16654 1.5708 1.50988 1.63171 1.44492 1.5708 1.69667 
1.37826 1.5059 1.63569 1.76333 1.31281 1.43962 1.5708 1.70197 1.82878 
1.25155 1.37501 1.50478 1.63681 1.76659 1.89004 1.19686 1.31493 1.44074 
1.5708 1.70086 1.82666 1.94473 1.15011 1.26149 1.38136 1.50697 1.63462 
1.76024 1.88011 1.99148 1.99148 1.88011 1.94473 1.76024 1.82666 1.89004 
1.63462 1.70086 1.76659 1.82878 1.50697 1.5708 1.63681 1.70197 1.76333 
1.38136 1.44074 1.50478 1.5708 1.63569 1.69667 1.26149 1.31493 1.37501 
1.43962 1.5059 1.5708 1.63171 1.15011 1.19686 1.25155 1.31281 1.37826 
1.44492 1.50988 1.5708 2.16654 2.12312 2.24359 2.06938 2.1949 2.32035 
2.00658 2.13422 2.26401 2.39165 1.93728 2.06376 2.19453 2.32523 2.45144 
1.86489 1.98711 2.11543 2.24572 2.3734 2.49426 1.79288 1.90847 2.03138 
2.15805 2.28408 2.40503 2.51718 1.72413 1.83164 1.94707 2.06758 2.18928 
2.30791 2.4195 2.52097 1.66533 1.66946 1.76911 1.67254 1.777 1.88041 
1.67418 1.78222 1.89102 1.99634 1.67418 1.78405 1.89674 2.00785 2.11299 
1.67254 1.78222 1.89674 2.01191 2.12307 2.22608 1.66946 1.777 1.89102 
2.00785 2.12307 2.23222 2.33166 1.66533 1.76911 1.88041 1.99634 2.11299 
2.22608 2.33166 2.42672 1.47626 1.37249 1.47213 1.26118 1.36459 1.46906 
1.14526 1.25058 1.35938 1.46741 1.0286 1.13374 1.24485 1.35755 1.46741 
0.915514 1.01852 1.12969 1.24485 1.35938 1.46906 0.809937 0.909371 1.01852 
1.13374 1.25058 1.36459 1.47213 0.714871 0.809937 0.915514 1.0286 1.14526 
1.26118 1.37249 1.47626 0.975055 0.898002 1.01847 0.821245 0.946693 1.07221 
0.749941 0.877585 1.00737 1.13501 0.690152 0.816367 0.94706 1.07784 1.20431 
0.647337 0.768195 0.895868 1.02616 1.15448 1.2767 0.624416 0.736561 0.857515 
0.983547 1.11021 1.23313 1.34871 0.620619 0.722093 0.833684 0.952313 1.07402 
1.19452 1.30996 1.41746 0.855925 0.764569 0.764569 0.671524 0.661425 0.671524 
0.582786 0.556971 0.556971 0.582786 0.506696 0.458968 0.441109 0.458968 0.506696 
0.45273 0.379052 0.333054 0.333054 0.379052 0.45273 0.427969 0.331576 0.249267 
0.21325 0.249267 0.331576 0.427969 0.432512 0.325669 0.215619 0.121622 0.121622 
0.215619 0.325669 0.432512 0.432512 0.427969 0.325669 0.45273 0.331576 0.215619 
0.506696 0.379052 0.249267 0.121622 0.582786 0.458968 0.333054 0.21325 0.121622 
0.671524 0.556971 0.441109 0.333054 0.249267 0.215619 0.764569 0.661425 0.556971 
0.458968 0.379052 0.331576 0.325669 0.855925 0.764569 0.671524 0.582786 0.506696 
0.45273 0.427969 0.432512 0.975055 1.01847 0.898002 1.07221 0.946693 0.821245 
1.13501 1.00737 0.877585 0.749941 1.20431 1.07784 0.94706 0.816367 0.690152 
1.2767 1.15448 1.02616 0.895868 0.768195 0.647337 1.34871 1.23313 1.11021 
0.983547 0.857515 0.736561 0.624416 1.41746 1.30996 1.19452 1.07402 0.952313 
0.833684 0.722093 0.620619 1.15011 1.26149 1.19686 1.38136 1.31493 1.25155 
1.50697 1.44074 1.37501 1.31281 1.63462 1.5708 1.50478 1.43962 1.37826 
1.76024 1.70086 1.63681 1.5708 1.5059 1.44492 1.88011 1.82666 1.76659 
1.70197 1.63569 1.5708 1.50988 1.99148 1.94473 1.89004 1.82878 1.76333 
1.69667 1.63171 1.5708 1.15011 1.19686 1.26149 1.25155 1.31493 1.38136 
1.31281 1.37501 1.44074 1.50697 1.37826 1.43962 1.50478 1.5708 1.63462 
1.44492 1.5059 1.5708 1.63681 1.70086 1.76024 1.50988 1.5708 1.63569 
1.70197 1.76659 1.82666 1.88011 1.5708 1.63171 1.69667 1.76333 1.82878 
1.89004 1.94473 1.99148 1.72413 1.83164 1.79288 1.94707 1.90847 1.86489 
2.06758 2.03138 1.98711 1.93728 2.18928 2.15805 2.11543 2.06376 2.00658 
2.30791 2.28408 2.24572 2.19453 2.13422 2.06938 2.4195 2.40503 2.3734 
2.32523 2.26401 2.1949 2.12312 2.52097 2.51718 2.49426 2.45144 2.39165 
2.32035 2.24359 2.16654 2.70908 2.81592 2.71362 2.92597 2.81002 2.68886 
3.01997 2.89233 2.76254 2.6349 3.01997 2.92834 2.80854 2.68262 2.55881 
2.92597 2.89233 2.80854 2.70048 2.58462 2.47007 2.81592 2.81002 2.76254 
2.68262 2.58462 2.48017 2.37702 2.70908 2.71362 2.68886 2.6349 2.55881 
2.47007 2.37702 2.28567 2.16654 2.24359 2.12312 2.32035 2.1949 2.06938 
2.39165 2.26401 2.13422 2.00658 2.45144 2.32523 2.19453 2.06376 1.93728 
2.49426 2.3734 2.24572 2.11543 1.98711 1.86489 2.51718 2.40503 2.28408 
2.15805 2.03138 1.90847 1.79288 2.52097 2.4195 2.30791 2.18928 2.06758 
1.94707 1.83164 1.72413 1.66533 1.76911 1.66946 1.88041 1.777 1.67254 
1.99634 1.89102 1.78222 1.67418 2.11299 2.00785 1.89674 1.78405 1.67418 
2.22608 2.12307 2.01191 1.89674 1.78222 1.67254 2.33166 2.23222 2.12307 
2.00785 1.89102 1.777 1.66946 2.42672 2.33166 2.22608 2.11299 1.99634 
1.88041 1.76911 1.66533 1.47626 1.47213 1.37249 1.46906 1.36459 1.26118 
1.46741 1.35938 1.25058 1.14526 1.46741 1.35755 1.24485 1.13374 1.0286 
1.46906 1.35938 1.24485 1.12969 1.01852 0.915514 1.47213 1.36459 1.25058 
1.13374 1.01852 0.909371 0.809937 1.47626 1.37249 1.26118 1.14526 1.0286 
0.915514 0.809937 0.714871 1.41746 1.30996 1.34871 1.19452 1.23313 1.2767 
1.07402 1.11021 1.15448 1.20431 0.952313 0.983547 1.02616 1.07784 1.13501 
0.833684 0.857515 0.895868 0.94706 1.00737 1.07221 0.722093 0.736561 0.768195 
0.816367 0.877585 0.946693 1.01847 0.620619 0.624416 0.647337 0.690152 0.749941 
0.821245 0.898002 0.975055 0.975055 0.898002 1.01847 0.821245 0.946693 1.07221 
0.749941 0.877585 1.00737 1.13501 0.690152 0.816367 0.94706 1.07784 1.20431 
0.647337 0.768195 0.895868 1.02616 1.15448 1.2767 0.624416 0.736561 0.857515 
0.983547 1.11021 1.23313 1.34871 0.620619 0.722093 0.833684 0.952313 1.07402 
1.19452 1.30996 1.41746 
Phi 1 1002 float
6.28319 3.14159 6.28319 3.14159 4.71239 4.71239 1.5708 1.5708 3.69517 
5.72961 2.58802 0.553574 6.28319 6.28319 6.28319 6.28319 3.14159 3.14159 
3.14159 3.14159 3.14159 6.1053 5.8988 5.67687 5.45995 5.26596 5.10322 
4.97131 4.86569 4.78095 0.177881 0.384387 0.606312 0.823235 1.01722 1.17997 
1.31187 1.4175 1.50223 6.18928 6.10703 6.03531 5.97283 5.91832 5.87061 
5.82869 5.79168 5.75886 0.0939024 0.176153 0.247873 0.310351 0.364864 0.412573 
0.454497 0.491504 0.524326 3.31947 3.52598 3.7479 3.96483 4.15881 4.32156 
4.45346 4.55909 4.64383 2.96371 2.75721 2.53528 2.31836 2.12437 1.96162 
1.82972 1.72409 1.63936 3.2355 3.31775 3.38947 3.45194 3.50646 3.55417 
3.59609 3.6331 3.66592 3.04769 2.96544 2.89372 2.83124 2.77673 2.72902 
2.6871 2.65009 2.61727 6.28319 6.28319 6.28319 6.28319 3.14159 3.14159 
3.14159 3.14159 3.14159 6.1053 5.8988 5.67687 5.45995 5.26596 5.10322 
4.97131 4.86569 4.78095 0.177881 0.384387 0.606312 0.823235 1.01722 1.17997 
1.31187 1.4175 1.50223 6.18928 6.10703 6.03531 5.97283 5.91832 5.87061 
5.82869 5.79168 5.75886 0.0939024 0.176153 0.247873 0.310351 0.364864 0.412573 
0.454497 0.491504 0.524326 3.31947 3.52598 3.7479 3.96483 4.15881 4.32156 
4.45346 4.55909 4.64383 2.96371 2.75721 2.53528 2.31836 2.12437 1.96162 
1.82972 1.72409 1.63936 3.2355 3.31775 3.38947 3.45194 3.50646 3.55417 
3.59609 3.6331 3.66592 3.04769 2.96544 2.89372 2.83124 2.77673 2.72902 
2.6871 2.65009 2.61727 4.71239 4.71239 4.71239 4.71239 4.71239 4.71239 
4.71239 4.71239 4.71239 4.60879 4.49914 4.3857 4.27128 4.15881 4.05096 
3.94976 3.85646 3.77161 4.81599 4.92564 5.03907 5.1535 5.26596 5.37381 
5.47502 5.56831 5.65317 4.60879 4.49914 4.3857 4.27128 4.15881 4.05096 
3.94976 3.85646 3.77161 4.81599 4.92564 5.03907 5.1535 5.26596 5.37381 
5.47502 5.56831 5.65317 1.5708 1.5708 1.5708 1.5708 1.5708 1.5708 
1.5708 1.5708 1.5708 1.6744 1.78405 1.89748 2.01191 2.12437 2.23222 
2.33343 2.42672 2.51157 1.4672 1.35755 1.24411 1.12969 1.01722 0.909371 
0.808166 0.714871 0.63002 1.6744 1.78405 1.89748 2.01191 2.12437 2.23222 
2.33343 2.42672 2.51157 1.4672 1.35755 1.24411 1.12969 1.01722 0.909371 
0.808166 0.714871 0.63002 3.60077 3.49669 3.38395 3.26458 3.14159 3.01861 
2.89924 2.78649 2.68241 5.82401 5.92808 6.04083 6.1602 6.28319 0.122983 
0.242354 0.355101 0.459179 6.05603 5.78856 5.97021 5.51259 5.60297 5.78856 
5.26596 5.26596 5.26596 5.26596 5.06749 5.0121 4.91556 4.71239 4.15881 
4.91556 4.83537 4.71239 4.50922 4.15881 3.63622 4.80045 4.71239 4.58941 
4.41268 4.15881 3.82181 3.45456 4.71239 4.62433 4.50922 4.35729 4.15881 
3.91219 3.63622 3.36875 6.01742 5.94343 5.82633 5.88092 5.76745 5.62798 
5.8278 5.71897 5.58911 5.43724 5.78235 5.67854 5.55757 5.41926 5.26596 
5.74316 5.64441 5.5315 5.40467 5.26596 5.11955 5.70914 5.61528 5.50962 
5.3926 5.26596 5.13292 4.99789 5.67937 5.59016 5.49102 5.38246 5.26596 
5.14407 5.02016 4.89798 5.56831 5.47502 5.47502 5.37381 5.37381 5.37381 
5.26596 5.26596 5.26596 5.26596 5.1535 5.1535 5.1535 5.1535 5.1535 
5.03907 5.03907 5.03907 5.03907 5.03907 5.03907 4.92564 4.92564 4.92564 
4.92564 4.92564 4.92564 4.92564 4.81599 4.81599 4.81599 4.81599 4.81599 
4.81599 4.81599 4.81599 4.60879 4.60879 4.49914 4.60879 4.49914 4.3857 
4.60879 4.49914 4.3857 4.27128 4.60879 4.49914 4.3857 4.27128 4.15881 
4.60879 4.49914 4.3857 4.27128 4.15881 4.05096 4.60879 4.49914 4.3857 
4.27128 4.15881 4.05096 3.94976 4.60879 4.49914 4.3857 4.27128 4.15881 
4.05096 3.94976 3.85646 4.5268 4.40462 4.42689 4.28071 4.29185 4.30523 
4.15881 4.15881 4.15881 4.15881 4.04232 4.03217 4.02011 4.00552 3.98753 
3.93376 3.91515 3.89328 3.86721 3.83566 3.7968 3.83461 3.8095 3.78037 
3.74624 3.70581 3.65733 3.59845 3.7454 3.71564 3.68161 3.64243 3.59698 
3.54386 3.48135 3.40735 3.56428 3.45246 3.52338 3.33203 3.40312 3.47739 
3.20576 3.27463 3.34802 3.42551 3.07742 3.14159 3.21128 3.28647 3.36688 
2.95116 3.00855 3.0719 3.14159 3.21784 3.3006 2.83072 2.88006 2.93517 
2.99672 3.06535 3.14159 3.22575 2.7189 2.7598 2.8058 2.85768 2.9163 
2.98259 3.05743 3.14159 3.56428 3.52338 3.45246 3.47739 3.40312 3.33203 
3.42551 3.34802 3.27463 3.20576 3.36688 3.28647 3.21128 3.14159 3.07742 
3.3006 3.21784 3.14159 3.0719 3.00855 2.95116 3.22575 3.14159 3.06535 
2.99672 2.93517 2.88006 2.83072 3.14159 3.05743 2.98259 2.9163 2.85768 
2.8058 2.7598 2.7189 4.5268 4.42689 4.40462 4.30523 4.29185 4.28071 
4.15881 4.15881 4.15881 4.15881 3.98753 4.00552 4.02011 4.03217 4.04232 
3.7968 3.83566 3.86721 3.89328 3.91515 3.93376 3.59845 3.65733 3.70581 
3.74624 3.78037 3.8095 3.83461 3.40735 3.48135 3.54386 3.59698 3.64243 
3.68161 3.71564 3.7454 4.71239 4.80045 4.62433 4.91556 4.71239 4.50922 
5.06749 4.83537 4.58941 4.35729 5.26596 5.0121 4.71239 4.41268 4.15881 
5.51259 5.26596 4.91556 4.50922 4.15881 3.91219 5.78856 5.60297 5.26596 
4.71239 4.15881 3.82181 3.63622 6.05603 5.97021 5.78856 5.26596 4.15881 
3.63622 3.45456 3.36875 0.227158 0.494626 0.312971 0.770593 0.680215 0.494626 
1.01722 1.01722 1.01722 1.01722 1.2157 1.27109 1.36763 1.5708 2.12437 
1.36763 1.44781 1.5708 1.77397 2.12437 2.64697 1.48273 1.5708 1.69378 
1.8705 2.12437 2.46138 2.82862 1.5708 1.65886 1.77397 1.9259 2.12437 
2.371 2.64697 2.91443 1.75639 1.87857 1.8563 2.00248 1.99133 1.97796 
2.12437 2.12437 2.12437 2.12437 2.24087 2.25101 2.26308 2.27767 2.29565 
2.34943 2.36803 2.38991 2.41597 2.44752 2.48639 2.44857 2.47368 2.50281 
2.53694 2.57738 2.62586 2.68474 2.53778 2.56754 2.60157 2.64076 2.68621 
2.73933 2.80184 2.87583 1.6744 1.6744 1.78405 1.6744 1.78405 1.89748 
1.6744 1.78405 1.89748 2.01191 1.6744 1.78405 1.89748 2.01191 2.12437 
1.6744 1.78405 1.89748 2.01191 2.12437 2.23222 1.6744 1.78405 1.89748 
2.01191 2.12437 2.23222 2.33343 1.6744 1.78405 1.89748 2.01191 2.12437 
2.23222 2.33343 2.42672 1.4672 1.35755 1.4672 1.24411 1.35755 1.4672 
1.12969 1.24411 1.35755 1.4672 1.01722 1.12969 1.24411 1.35755 1.4672 
0.909371 1.01722 1.12969 1.24411 1.35755 1.4672 0.808166 0.909371 1.01722 
1.12969 1.24411 1.35755 1.4672 0.714871 0.808166 0.909371 1.01722 1.12969 
1.24411 1.35755 1.4672 0.603812 0.57405 0.693022 0.540021 0.667908 0.792164 
0.500837 0.638778 0.773562 0.900726 0.455383 0.604649 0.751687 0.890581 1.01722 
0.402264 0.564217 0.725619 0.878514 1.01722 1.13912 0.339753 0.515737 0.694072 
0.863926 1.01722 1.15026 1.26302 0.265762 0.456853 0.655207 0.845941 1.01722 
1.16363 1.28529 1.38521 0.227158 0.312971 0.494626 0.494626 0.680215 0.770593 
1.01722 1.01722 1.01722 1.01722 2.12437 1.5708 1.36763 1.27109 1.2157 
2.64697 2.12437 1.77397 1.5708 1.44781 1.36763 2.82862 2.46138 2.12437 
1.8705 1.69378 1.5708 1.48273 2.91443 2.64697 2.371 2.12437 1.9259 
1.77397 1.65886 1.5708 1.75639 1.8563 1.87857 1.97796 1.99133 2.00248 
2.12437 2.12437 2.12437 2.12437 2.29565 2.27767 2.26308 2.25101 2.24087 
2.48639 2.44752 2.41597 2.38991 2.36803 2.34943 2.68474 2.62586 2.57738 
2.53694 2.50281 2.47368 2.44857 2.87583 2.80184 2.73933 2.68621 2.64076 
2.60157 2.56754 2.53778 5.86049 5.90139 5.97231 5.94739 6.02165 6.09275 
5.99927 6.07676 6.15015 6.21902 6.0579 6.13831 6.2135 0 0.0641696 
6.12418 6.20694 6.28319 0.069689 0.13304 0.190437 6.19903 0 0.0762451 
0.144876 0.206423 0.261531 0.310872 0 0.0841597 0.159004 0.225289 0.283913 
0.335793 0.381792 0.422692 5.86049 5.97231 5.90139 6.09275 6.02165 5.94739 
6.21902 6.15015 6.07676 5.99927 0.0641696 0 6.2135 6.13831 6.0579 
0.190437 0.13304 0.069689 6.28319 6.20694 6.12418 0.310872 0.261531 0.206423 
0.144876 0.0762451 6.28319 6.19903 0.422692 0.381792 0.335793 0.283913 0.225289 
0.159004 0.0841597 0 5.67937 5.70914 5.59016 5.74316 5.61528 5.49102 
5.78235 5.64441 5.50962 5.38246 5.8278 5.67854 5.5315 5.3926 5.26596 
5.88092 5.71897 5.55757 5.40467 5.26596 5.14407 5.94343 5.76745 5.58911 
5.41926 5.26596 5.13292 5.02016 6.01742 5.82633 5.62798 5.43724 5.26596 
5.11955 4.99789 4.89798 1.38521 1.28529 1.26302 1.16363 1.15026 1.13912 
1.01722 1.01722 1.01722 1.01722 0.845941 0.863926 0.878514 0.890581 0.900726 
0.655207 0.694072 0.725619 0.751687 0.773562 0.792164 0.456853 0.515737 0.564217 
0.604649 0.638778 0.667908 0.693022 0.265762 0.339753 0.402264 0.455383 0.500837 
0.540021 0.57405 0.603812 
