# vtk DataFile Version 4.0
vtk output
ASCII
DATASET POLYDATA
POINTS 1002 float
-121.878 -82.4128 61.1445 -126.494 -97.7524 68.3932 -111.066 -87.2152 61.2815 
-119.06 -99.8942 69.0872 -121.808 -86.9672 73.098 -115.74 -89.4248 73.658 
-123.955 -94.2177 58.7803 -118.172 -94.8718 58.8569 -122.938 -103.312 76.6529 
-114.917 -78.3874 63.5766 -125.035 -110.132 63.6547 -113.905 -82.895 52.117 
-122.712 -83.289 61.8575 -123.476 -84.4716 62.6688 -124.02 -86.1656 63.4383 
-124.498 -87.9054 64.0468 -125.12 -89.2886 64.7278 -125.701 -90.8136 65.7219 
-126.002 -92.7781 66.7112 -126.143 -94.7125 67.3681 -126.304 -96.3304 67.8595 
-122.089 -82.3726 62.1522 -122.241 -82.4529 63.4139 -122.262 -82.7653 64.8166 
-122.223 -83.2707 66.163 -122.253 -83.8243 67.4455 -122.274 -84.3872 68.7671 
-122.145 -85.0215 70.0435 -121.953 -85.7191 71.1541 -121.838 -86.3866 72.15 
-122.174 -83.0302 60.6902 -122.474 -83.7502 60.2327 -122.77 -84.6298 59.6805 
-123.055 -85.6779 59.1701 -123.28 -86.9078 58.9173 -123.382 -88.3701 58.8569 
-123.417 -89.9469 58.8593 -123.524 -91.4403 58.8918 -123.728 -92.844 58.8746 
-121.198 -81.4213 61.0828 -120.535 -80.2489 61.0687 -119.744 -79.2403 61.0526 
-118.76 -78.5439 61.1385 -117.978 -77.6825 61.5331 -117.478 -76.7215 62.1765 
-116.816 -76.5188 62.7046 -116.019 -77.1304 62.9671 -115.397 -77.8533 63.1943 
-121.228 -81.8653 60.1593 -120.517 -81.2491 59.0833 -119.721 -80.741 57.9381 
-118.876 -80.476 56.8764 -117.991 -80.4974 55.9361 -117.05 -80.7776 54.9449 
-116.177 -81.1453 53.9296 -115.44 -81.5456 53.1155 -114.704 -82.1279 52.5409 
-126.152 -96.9778 69.0239 -125.936 -95.9222 69.7557 -125.821 -94.6406 70.5371 
-125.398 -93.5491 71.0585 -124.628 -92.5961 71.349 -124.045 -91.2871 71.7824 
-123.701 -89.8078 72.3238 -123.178 -88.6547 72.7037 -122.457 -87.7867 72.9226 
-126.74 -97.6421 67.3673 -126.933 -97.6471 66.3069 -126.946 -97.6359 65.2342 
-126.89 -97.2737 63.9472 -126.884 -96.5588 62.4716 -126.648 -95.9671 61.3312 
-125.981 -95.7395 60.7143 -125.188 -95.5456 60.1926 -124.529 -95.0312 59.5055 
-126.524 -98.7339 69.3888 -126.596 -99.7091 70.3438 -126.493 -100.56 71.2652 
-126.237 -101.311 72.3928 -125.996 -101.955 73.5137 -125.487 -102.454 74.1838 
-124.614 -102.896 74.619 -123.881 -103.283 75.2318 -123.434 -103.444 75.9849 
-126.733 -99.1581 68.28 -126.744 -100.791 67.964 -126.706 -102.509 67.497 
-126.777 -104.332 67.0269 -126.739 -106.287 66.5357 -126.603 -107.968 65.9443 
-126.607 -109.148 65.2635 -126.485 -109.971 64.5513 -125.902 -110.337 63.966 
-111.898 -87.9956 62.0336 -112.788 -88.8889 62.8903 -113.765 -89.8911 63.743 
-114.812 -91.0518 64.6453 -115.822 -92.4282 65.6482 -116.68 -93.9514 66.5949 
-117.405 -95.534 67.394 -118.087 -97.102 68.1 -118.672 -98.5637 68.683 
-111.391 -87.3536 62.3766 -111.691 -87.4344 63.6997 -111.998 -87.4788 65.2113 
-112.378 -87.6163 66.7276 -112.841 -87.8898 68.0941 -113.367 -88.2017 69.4309 
-113.903 -88.4985 70.851 -114.418 -88.7999 72.1235 -115.013 -89.1073 73.03 
-111.368 -87.4688 60.6612 -111.842 -87.8345 59.9944 -112.332 -88.5942 59.4371 
-112.778 -89.6499 59.145 -113.219 -90.7791 58.9677 -113.833 -91.8032 58.7311 
-114.835 -92.4892 58.5874 -116.099 -93.0101 58.6385 -117.263 -93.7978 58.7612 
-110.567 -86.3913 61.2628 -110.341 -85.2536 61.2912 -110.456 -84.0811 61.3006 
-110.938 -83.0379 61.3078 -111.585 -81.979 61.5328 -112.107 -80.8989 62.0407 
-112.635 -79.9581 62.5665 -113.397 -79.2324 62.9406 -114.231 -78.7326 63.2428 
-110.261 -86.7113 60.2778 -109.449 -86.2105 59.2125 -108.978 -85.633 57.8049 
-108.946 -85.0678 56.1595 -109.335 -84.5796 54.8837 -110.151 -84.0709 54.0243 
-111.089 -83.5968 53.1581 -111.923 -83.2916 52.4306 -112.845 -83.0868 52.1244 
-118.549 -99.3887 69.6225 -118.067 -98.7047 70.231 -117.725 -97.734 70.9723 
-117.418 -96.5756 71.7288 -116.95 -95.4761 72.3968 -116.426 -94.4442 73.024 
-116.091 -93.2983 73.4797 -115.928 -92.0153 73.6156 -115.81 -90.6938 73.6122 
-119.351 -99.5432 68.2679 -119.627 -99.0751 67.3493 -119.91 -98.4199 66.4826 
-120.082 -97.738 65.5514 -119.917 -97.2959 64.3213 -119.496 -97.0255 63.0115 
-119.132 -96.632 61.9128 -118.848 -96.0673 60.8832 -118.519 -95.4681 59.8144 
-119.014 -100.951 69.7264 -118.979 -102.056 70.4496 -119.157 -102.944 71.4984 
-119.625 -103.499 72.8275 -120.147 -103.942 73.9953 -120.534 -104.311 74.8576 
-120.989 -104.379 75.6647 -121.681 -104.167 76.3619 -122.411 -103.815 76.6861 
-119.492 -101.055 68.9113 -119.87 -102.448 68.636 -120.328 -104.01 68.2779 
-120.819 -105.566 67.8426 -121.198 -107.002 67.1983 -121.748 -108.153 66.267 
-122.606 -108.939 65.3508 -123.416 -109.543 64.7106 -124.154 -110 64.1929 
-121.472 -86.758 73.8185 -121.112 -86.4622 74.5976 -120.551 -86.1462 75.3015 
-119.654 -86.0853 75.7132 -118.617 -86.4919 75.6953 -117.805 -87.1478 75.383 
-117.252 -87.7457 75.0077 -116.751 -88.289 74.5892 -116.229 -88.8585 74.1024 
-122.19 -88.0695 73.9375 -122.578 -89.356 74.7512 -122.888 -90.9539 75.516 
-123.111 -92.7802 76.2812 -123.21 -94.5824 76.8597 -123.195 -96.3606 77.0843 
-123.154 -98.2977 77.1598 -123.091 -100.268 77.1747 -123.004 -101.965 76.989 
-121.307 -85.705 72.6963 -120.886 -84.2983 72.2746 -120.39 -82.7888 71.7847 
-119.724 -81.2386 71.1709 -118.92 -79.9858 70.3471 -117.933 -79.2469 69.1446 
-116.861 -78.7982 67.5944 -116.003 -78.5031 66.0343 -115.418 -78.3903 64.6997 
-116.643 -90.6179 74.1702 -117.525 -91.9683 74.9797 -118.058 -93.3353 76.2698 
-118.473 -94.7183 77.4602 -119.189 -96.3275 78.0018 -120.04 -98.1747 78.2317 
-120.769 -99.869 78.3868 -121.501 -101.173 78.143 -122.277 -102.269 77.4606 
-115.351 -87.9875 73.241 -115.167 -86.5921 72.4483 -114.944 -85.2031 71.5162 
-114.622 -83.7694 70.7161 -114.539 -82.5506 69.6819 -114.666 -81.6533 68.2454 
-114.648 -80.7271 66.9493 -114.6 -79.7149 65.8948 -114.73 -78.9195 64.7523 
-123.714 -94.5025 58.2962 -123.365 -94.7936 57.9265 -122.815 -95.0869 57.7365 
-122.069 -95.3088 57.6173 -121.211 -95.4118 57.5262 -120.342 -95.4765 57.5689 
-119.561 -95.5321 57.7556 -118.944 -95.4552 58.0334 -118.499 -95.198 58.4035 
-124.492 -96.205 59.108 -124.986 -98.2069 59.4136 -125.554 -100.17 59.4671 
-126.077 -102.3 59.2433 -126.166 -104.593 59.2669 -125.967 -106.605 59.8395 
-125.975 -107.98 60.646 -126.009 -108.839 61.5401 -125.656 -109.519 62.5857 
-123.131 -92.4158 58.1349 -122.139 -90.7547 57.3421 -121.099 -89.434 56.2937 
-119.953 -88.2045 55.1879 -118.646 -86.9762 54.2454 -117.465 -85.9434 53.2962 
-116.589 -85.0347 52.3828 -115.778 -84.1639 51.903 -114.852 -83.4501 51.9045 
-119.133 -96.4402 59.4392 -120.012 -98.0478 59.9389 -120.776 -99.8756 60.3235 
-121.396 -102.1 60.565 -121.979 -104.225 60.736 -122.624 -105.824 61.1148 
-123.242 -107.119 61.7589 -123.824 -108.271 62.3898 -124.454 -109.27 62.9566 
-117.278 -93.48 57.9289 -116.282 -92.1007 56.8755 -115.245 -91.148 55.4476 
-114.319 -90.623 53.6785 -113.781 -89.7893 52.2215 -113.599 -88.2794 51.4951 
-113.488 -86.6623 51.2422 -113.469 -85.3165 51.2819 -113.647 -84.0816 51.6197 
-123.273 -104.766 76.0277 -123.577 -106.28 75.6159 -123.783 -107.582 75.0546 
-123.924 -108.465 73.7417 -124.052 -109.086 71.8353 -124.188 -109.897 69.9644 
-124.37 -110.865 68.2137 -124.619 -111.309 66.4754 -124.876 -110.924 64.9153 
-114.614 -78.0889 62.226 -114.159 -77.7524 60.8934 -113.774 -77.5709 59.583 
-113.601 -77.7719 58.1532 -113.346 -78.2322 56.5926 -112.899 -78.7777 55.1406 
-112.713 -79.5616 54.0138 -112.999 -80.6478 53.2188 -113.471 -81.8185 52.6235 
-122.949 -83.3148 62.9375 -123.047 -83.5513 64.232 -123.59 -84.7387 63.7435 
-123.027 -84.0206 65.6323 -123.547 -85.2654 64.9665 -123.821 -86.7552 64.441 
-123.039 -84.5449 67.016 -123.544 -85.842 66.3691 -123.688 -87.4489 65.641 
-124.16 -88.5642 65.1311 -123.035 -85.0834 68.3582 -123.589 -86.3007 67.8508 
-123.828 -87.9539 67.155 -124.245 -89.1184 66.5481 -125.043 -89.8373 66.1189 
-122.858 -85.768 69.6348 -123.46 -86.8411 69.2136 -123.886 -88.3722 68.6949 
-124.498 -89.5787 68.1847 -125.322 -90.3028 67.7415 -125.846 -91.3699 67.2257 
-122.626 -86.5442 70.8089 -123.258 -87.5339 70.4286 -123.734 -88.9062 69.9822 
-124.398 -90.1911 69.5826 -125.339 -90.9731 69.2598 -125.936 -91.9462 68.7263 
-126.039 -93.3913 67.9954 -122.506 -87.2318 71.9012 -123.195 -88.1642 71.5965 
-123.676 -89.4159 71.157 -124.162 -90.8263 70.6908 -124.987 -91.8507 70.3983 
-125.719 -92.7397 70.0266 -125.93 -94.019 69.3012 -126.007 -95.3442 68.4992 
-121.399 -81.3888 62.2295 -120.779 -80.2248 62.3005 -121.559 -81.5313 63.6362 
-120.009 -79.2466 62.3827 -121.024 -80.4045 63.8299 -121.588 -81.9199 65.1223 
-119.037 -78.5736 62.6915 -120.325 -79.4264 64.1151 -121.093 -80.8205 65.4533 
-121.53 -82.4955 66.5106 -118.251 -77.8248 63.2853 -119.388 -78.7782 64.6026 
-120.445 -79.832 65.9145 -120.989 -81.4362 66.9708 -121.538 -83.0999 67.9023 
-117.598 -77.2345 63.8576 -118.535 -78.2234 65.1553 -119.621 -79.1957 66.4601 
-120.401 -80.4412 67.5335 -120.95 -82.0908 68.4826 -121.568 -83.666 69.3552 
-116.792 -77.3346 64.1751 -117.696 -77.9222 65.5664 -118.795 -78.7442 67.006 
-119.748 -79.7375 68.1731 -120.406 -81.1178 69.1089 -120.98 -82.7408 69.9732 
-121.49 -84.2926 70.6529 -116.012 -77.8653 64.39 -116.782 -78.0882 65.8196 
-117.848 -78.5801 67.413 -118.954 -79.293 68.8069 -119.782 -80.3857 69.7985 
-120.42 -81.8944 70.578 -120.946 -83.4972 71.2264 -121.367 -85.0116 71.7182 
-115.271 -78.999 65.9544 -115.253 -79.8592 67.1733 -115.924 -79.2139 67.3953 
-115.331 -80.8136 68.4535 -115.938 -80.0931 68.7214 -116.797 -79.5569 69.0077 
-115.31 -81.7524 69.9066 -115.979 -81.0297 70.1065 -116.742 -80.465 70.3107 
-117.813 -80.0399 70.4923 -115.304 -82.9769 71.0716 -116.038 -82.1947 71.381 
-116.799 -81.563 71.5813 -117.754 -81.0939 71.7142 -118.829 -80.9604 71.6218 
-115.498 -84.4749 71.8732 -116.184 -83.6966 72.2788 -116.951 -82.9527 72.6912 
-117.856 -82.3596 72.9572 -118.86 -82.149 72.8815 -119.747 -82.3788 72.4208 
-115.696 -85.9005 72.7959 -116.326 -85.1896 73.1529 -117.023 -84.4535 73.6171 
-117.866 -83.7364 74.0944 -118.871 -83.3405 74.1925 -119.796 -83.4874 73.738 
[...]
POINT_DATA 1002
FIELD FieldData 2
Theta 1 1002 float
2.58802 2.58802 0.553574 0.553574 2.12437 1.01722 2.12437 1.01722 1.5708 
1.5708 1.5708 1.5708 2.68241 2.78649 2.89924 3.01861 3.14159 3.01861 
2.89924 2.78649 2.68241 2.61035 2.61791 2.60515 2.56958 2.51327 2.44184 
2.36202 2.27983 2.1997 2.61035 2.61791 2.60515 2.56958 2.51327 2.44184 
2.36202 2.27983 2.1997 2.50947 2.41899 2.31794 2.20864 2.0944 1.97902 
1.86631 1.75944 1.66056 2.50947 2.41899 2.31794 2.20864 2.0944 1.97902 
1.86631 1.75944 1.66056 2.61035 2.61791 2.60515 2.56958 2.51327 2.44184 
2.36202 2.27983 2.1997 2.61035 2.61791 2.60515 2.56958 2.51327 2.44184 
2.36202 2.27983 2.1997 2.50947 2.41899 2.31794 2.20864 2.0944 1.97902 
1.86631 1.75944 1.66056 2.50947 2.41899 2.31794 2.20864 2.0944 1.97902 
1.86631 1.75944 1.66056 0.459179 0.355101 0.242354 0.122983 0 0.122983 
0.242354 0.355101 0.459179 0.531246 0.523681 0.536438 0.57201 0.628319 0.699757 
0.779574 0.86176 0.941896 0.531246 0.523681 0.536438 0.57201 0.628319 0.699757 
0.779574 0.86176 0.941896 0.632123 0.7226 0.823657 0.932948 1.0472 1.16257 
1.27528 1.38216 1.48103 0.632123 0.7226 0.823657 0.932948 1.0472 1.16257 
1.27528 1.38216 1.48103 0.531246 0.523681 0.536438 0.57201 0.628319 0.699757 
0.779574 0.86176 0.941896 0.531246 0.523681 0.536438 0.57201 0.628319 0.699757 
0.779574 0.86176 0.941896 0.632123 0.7226 0.823657 0.932948 1.0472 1.16257 
1.27528 1.38216 1.48103 0.632123 0.7226 0.823657 0.932948 1.0472 1.16257 
1.27528 1.38216 1.48103 2.02998 1.9259 1.81315 1.69378 1.5708 1.44781 
1.32844 1.2157 1.11162 2.0928 2.05283 2.00422 1.94767 1.88496 1.81867 
1.75177 1.68695 1.62623 2.0928 2.05283 2.00422 1.94767 1.88496 1.81867 
1.75177 1.68695 1.62623 1.0488 1.08876 1.13737 1.19392 1.25664 1.32292 
1.38982 1.45464 1.51537 1.0488 1.08876 1.13737 1.19392 1.25664 1.32292 
1.38982 1.45464 1.51537 2.02998 1.9259 1.81315 1.69378 1.5708 1.44781 
1.32844 1.2157 1.11162 2.0928 2.05283 2.00422 1.94767 1.88496 1.81867 
1.75177 1.68695 1.62623 2.0928 2.05283 2.00422 1.94767 1.88496 1.81867 
1.75177 1.68695 1.62623 1.0488 1.08876 1.13737 1.19392 1.25664 1.32292 
1.38982 1.45464 1.51537 1.0488 1.08876 1.13737 1.19392 1.25664 1.32292 
1.38982 1.45464 1.51537 1.5708 1.5708 1.5708 1.5708 1.5708 1.5708 
1.5708 1.5708 1.5708 1.5708 1.5708 1.5708 1.5708 1.5708 1.5708 
1.5708 1.5708 1.5708 2.70908 2.71362 2.81592 2.68886 2.81002 2.92597 
2.6349 2.76254 2.89233 3.01997 2.55881 2.68262 2.80854 2.92834 3.01997 
2.47007 2.58462 2.70048 2.80854 2.89233 2.92597 2.37702 2.48017 2.58462 
2.68262 2.76254 2.81002 2.81592 2.28567 2.37702 2.47007 2.55881 2.6349 
2.68886 2.71362 2.70908 2.52097 2.4195 2.51718 2.30791 2.40503 2.49426 
2.18928 2.28408 2.3734 2.45144 2.06758 2.15805 2.24572 2.32523 2.39165 
1.94707 2.03138 2.11543 2.19453 2.26401 2.32035 1.83164 1.90847 1.98711 
2.06376 2.13422 2.1949 2.24359 1.72413 1.79288 1.86489 1.93728 2.00658 
2.06938 2.12312 2.16654 1.5708 1.50988 1.63171 1.44492 1.5708 1.69667 
1.37826 1.5059 1.63569 1.76333 1.31281 1.43962 1.5708 1.70197 1.82878 
1.25155 1.37501 1.50478 1.63681 1.76659 1.89004 1.19686 1.31493 1.44074 
1.5708 1.70086 1.82666 1.94473 1.15011 1.26149 1.38136 1.50697 1.63462 
1.76024 1.88011 1.99148 1.99148 1.88011 1.94473 1.76024 1.82666 1.89004 
1.63462 1.70086 1.76659 1.82878 1.50697 1.5708 1.63681 1.70197 1.76333 
1.38136 1.44074 1.50478 1.5708 1.63569 1.69667 1.26149 1.31493 1.37501 
1.43962 1.5059 1.5708 1.63171 1.15011 1.19686 1.25155 1.31281 1.37826 
1.44492 1.50988 1.5708 2.16654 2.12312 2.24359 2.06938 2.1949 2.32035 
2.00658 2.13422 2.26401 2.39165 1.93728 2.06376 2.19453 2.32523 2.45144 
1.86489 1.98711 2.11543 2.24572 2.3734 2.49426 1.79288 1.90847 2.03138 
2.15805 2.28408 2.40503 2.51718 1.72413 1.83164 1.94707 2.06758 2.18928 
2.30791 2.4195 2.52097 1.66533 1.66946 1.76911 1.67254 1.777 1.88041 
1.67418 1.78222 1.89102 1.99634 1.67418 1.78405 1.89674 2.00785 2.11299 
1.67254 1.78222 1.89674 2.01191 2.12307 2.22608 1.66946 1.777 1.89102 
2.00785 2.12307 2.23222 2.33166 1.66533 1.76911 1.88041 1.99634 2.11299 
2.22608 2.33166 2.42672 1.47626 1.37249 1.47213 1.26118 1.36459 1.46906 
1.14526 1.25058 1.35938 1.46741 1.0286 1.13374 1.24485 1.35755 1.46741 
0.915514 1.01852 1.12969 1.24485 1.35938 1.46906 0.809937 0.909371 1.01852 
1.13374 1.25058 1.36459 1.47213 0.714871 0.809937 0.915514 1.0286 1.14526 
1.26118 1.37249 1.47626 0.975055 0.898002 1.01847 0.821245 0.946693 1.07221 
0.749941 0.877585 1.00737 1.13501 0.690152 0.816367 0.94706 1.07784 1.20431 
0.647337 0.768195 0.895868 1.02616 1.15448 1.2767 0.624416 0.736561 0.857515 
0.983547 1.11021 1.23313 1.34871 0.620619 0.722093 0.833684 0.952313 1.07402 
1.19452 1.30996 1.41746 0.855925 0.764569 0.764569 0.671524 0.661425 0.671524 
0.582786 0.556971 0.556971 0.582786 0.506696 0.458968 0.441109 0.458968 0.506696 
0.45273 0.379052 0.333054 0.333054 0.379052 0.45273 0.427969 0.331576 0.249267 
0.21325 0.249267 0.331576 0.427969 0.432512 0.325669 0.215619 0.121622 0.121622 
0.215619 0.325669 0.432512 0.432512 0.427969 0.325669 0.45273 0.331576 0.215619 
0.506696 0.379052 0.249267 0.121622 0.582786 0.458968 0.333054 0.21325 0.121622 
0.671524 0.556971 0.441109 0.333054 0.249267 0.215619 0.764569 0.661425 0.556971 
0.458968 0.379052 0.331576 0.325669 0.855925 0.764569 0.671524 0.582786 0.506696 
0.45273 0.427969 0.432512 0.975055 1.01847 0.898002 1.07221 0.946693 0.821245 
1.13501 1.00737 0.877585 0.749941 1.20431 1.07784 0.94706 0.816367 0.690152 
1.2767 1.15448 1.02616 0.895868 0.768195 0.647337 1.34871 1.23313 1.11021 
0.983547 0.857515 0.736561 0.624416 1.41746 1.30996 1.19452 1.07402 0.952313 
0.833684 0.722093 0.620619 1.15011 1.26149 1.19686 1.38136 1.31493 1.25155 
1.50697 1.44074 1.37501 1.31281 1.63462 1.5708 1.50478 1.43962 1.37826 
1.76024 1.70086 1.63681 1.5708 1.5059 1.44492 1.88011 1.82666 1.76659 
1.70197 1.63569 1.5708 1.50988 1.99148 1.94473 1.89004 1.82878 1.76333 
1.69667 1.63171 1.5708 1.15011 1.19686 1.26149 1.25155 1.31493 1.38136 
1.31281 1.37501 1.44074 1.50697 1.37826 1.43962 1.50478 1.5708 1.63462 
1.44492 1.5059 1.5708 1.63681 1.70086 1.76024 1.50988 1.5708 1.63569 
1.70197 1.76659 1.82666 1.88011 1.5708 1.63171 1.69667 1.76333 1.82878 
1.89004 1.94473 1.99148 1.72413 1.83164 1.79288 1.94707 1.90847 1.86489 
2.06758 2.03138 1.98711 1.93728 2.18928 2.15805 2.11543 2.06376 2.00658 
2.30791 2.28408 2.24572 2.19453 2.13422 2.06938 2.4195 2.40503 2.3734 
2.32523 2.26401 2.1949 2.12312 2.52097 2.51718 2.49426 2.45144 2.39165 
2.32035 2.24359 2.16654 2.70908 2.81592 2.71362 2.92597 2.81002 2.68886 
3.01997 2.89233 2.76254 2.6349 3.01997 2.92834 2.80854 2.68262 2.55881 
2.92597 2.89233 2.80854 2.70048 2.58462 2.47007 2.81592 2.81002 2.76254 
2.68262 2.58462 2.48017 2.37702 2.70908 2.71362 2.68886 2.6349 2.55881 
2.47007 2.37702 2.28567 2.16654 2.24359 2.12312 2.32035 2.1949 2.06938 
2.39165 2.26401 2.13422 2.00658 2.45144 2.32523 2.19453 2.06376 1.93728 
2.49426 2.3734 2.24572 2.11543 1.98711 1.86489 2.51718 2.40503 2.28408 
2.15805 2.03138 1.90847 1.79288 2.52097 2.4195 2.30791 2.18928 2.06758 
1.94707 1.83164 1.72413 1.66533 1.76911 1.66946 1.88041 1.777 1.67254 
1.99634 1.89102 1.78222 1.67418 2.11299 2.00785 1.89674 1.78405 1.67418 
2.22608 2.12307 2.01191 1.89674 1.78222 1.67254 2.33166 2.23222 2.12307 
2.00785 1.89102 1.777 1.66946 2.42672 2.33166 2.22608 2.11299 1.99634 
1.88041 1.76911 1.66533 1.47626 1.47213 1.37249 1.46906 1.36459 1.26118 
1.46741 1.35938 1.25058 1.14526 1.46741 1.35755 1.24485 1.13374 1.0286 
1.46906 1.35938 1.24485 1.12969 1.01852 0.915514 1.47213 1.36459 1.25058 
1.13374 1.01852 0.909371 0.809937 1.47626 1.37249 1.26118 1.14526 1.0286 
0.915514 0.809937 0.714871 1.41746 1.30996 1.34871 1.19452 1.23313 1.2767 
1.07402 1.11021 1.15448 1.20431 0.952313 0.983547 1.02616 1.07784 1.13501 
0.833684 0.857515 0.895868 0.94706 1.00737 1.07221 0.722093 0.736561 0.768195 
0.816367 0.877585 0.946693 1.01847 0.620619 0.624416 0.647337 0.690152 0.749941 
0.821245 0.898002 0.975055 0.975055 0.898002 1.01847 0.821245 0.946693 1.07221 
0.749941 0.877585 1.00737 1.13501 0.690152 0.816367 0.94706 1.07784 1.20431 
0.647337 0.768195 0.895868 1.02616 1.15448 1.2767 0.624416 0.736561 0.857515 
0.983547 1.11021 1.23313 1.34871 0.620619 0.722093 0.833684 0.952313 1.07402 
1.19452 1.30996 1.41746 
Phi 1 1002 float
6.28319 3.14159 6.28319 3.14159 4.71239 4.71239 1.5708 1.5708 3.69517 
5.72961 2.58802 0.553574 6.28319 6.28319 6.28319 6.28319 3.14159 3.14159 
3.14159 3.14159 3.14159 6.1053 5.8988 5.67687 5.45995 5.26596 5.10322 
4.97131 4.86569 4.78095 0.177881 0.384387 0.606312 0.823235 1.01722 1.17997 
1.31187 1.4175 1.50223 6.18928 6.10703 6.03531 5.97283 5.91832 5.87061 
5.82869 5.79168 5.75886 0.0939024 0.176153 0.247873 0.310351 0.364864 0.412573 
0.454497 0.491504 0.524326 3.31947 3.52598 3.7479 3.96483 4.15881 4.32156 
4.45346 4.55909 4.64383 2.96371 2.75721 2.53528 2.31836 2.12437 1.96162 
1.82972 1.72409 1.63936 3.2355 3.31775 3.38947 3.45194 3.50646 3.55417 
3.59609 3.6331 3.66592 3.04769 2.96544 2.89372 2.83124 2.77673 2.72902 
2.6871 2.65009 2.61727 6.28319 6.28319 6.28319 6.28319 3.14159 3.14159 
3.14159 3.14159 3.14159 6.1053 5.8988 5.67687 5.45995 5.26596 5.10322 
4.97131 4.86569 4.78095 0.177881 0.384387 0.606312 0.823235 1.01722 1.17997 
1.31187 1.4175 1.50223 6.18928 6.10703 6.03531 5.97283 5.91832 5.87061 
5.82869 5.79168 5.75886 0.0939024 0.176153 0.247873 0.310351 0.364864 0.412573 
0.454497 0.491504 0.524326 3.31947 3.52598 3.7479 3.96483 4.15881 4.32156 
4.45346 4.55909 4.64383 2.96371 2.75721 2.53528 2.31836 2.12437 1.96162 
1.82972 1.72409 1.63936 3.2355 3.31775 3.38947 3.45194 3.50646 3.55417 
3.59609 3.6331 3.66592 3.04769 2.96544 2.89372 2.83124 2.77673 2.72902 
2.6871 2.65009 2.61727 4.71239 4.71239 4.71239 4.71239 4.71239 4.71239 
4.71239 4.71239 4.71239 4.60879 4.49914 4.3857 4.27128 4.15881 4.05096 
3.94976 3.85646 3.77161 4.81599 4.92564 5.03907 5.1535 5.26596 5.37381 
5.47502 5.56831 5.65317 4.60879 4.49914 4.3857 4.27128 4.15881 4.05096 
3.94976 3.85646 3.77161 4.81599 4.92564 5.03907 5.1535 5.26596 5.37381 
5.47502 5.56831 5.65317 1.5708 1.5708 1.5708 1.5708 1.5708 1.5708 
1.5708 1.5708 1.5708 1.6744 1.78405 1.89748 2.01191 2.12437 2.23222 
2.33343 2.42672 2.51157 1.4672 1.35755 1.24411 1.12969 1.01722 0.909371 
0.808166 0.714871 0.63002 1.6744 1.78405 1.89748 2.01191 2.12437 2.23222 
2.33343 2.42672 2.51157 1.4672 1.35755 1.24411 1.12969 1.01722 0.909371 
0.808166 0.714871 0.63002 3.60077 3.49669 3.38395 3.26458 3.14159 3.01861 
2.89924 2.78649 2.68241 5.82401 5.92808 6.04083 6.1602 6.28319 0.122983 
0.242354 0.355101 0.459179 6.05603 5.78856 5.97021 5.51259 5.60297 5.78856 
5.26596 5.26596 5.26596 5.26596 5.06749 5.0121 4.91556 4.71239 4.15881 
4.91556 4.83537 4.71239 4.50922 4.15881 3.63622 4.80045 4.71239 4.58941 
4.41268 4.15881 3.82181 3.45456 4.71239 4.62433 4.50922 4.35729 4.15881 
3.91219 3.63622 3.36875 6.01742 5.94343 5.82633 5.88092 5.76745 5.62798 
5.8278 5.71897 5.58911 5.43724 5.78235 5.67854 5.55757 5.41926 5.26596 
5.74316 5.64441 5.5315 5.40467 5.26596 5.11955 5.70914 5.61528 5.50962 
5.3926 5.26596 5.13292 4.99789 5.67937 5.59016 5.49102 5.38246 5.26596 
5.14407 5.02016 4.89798 5.56831 5.47502 5.47502 5.37381 5.37381 5.37381 
5.26596 5.26596 5.26596 5.26596 5.1535 5.1535 5.1535 5.1535 5.1535 
5.03907 5.03907 5.03907 5.03907 5.03907 5.03907 4.92564 4.92564 4.92564 
4.92564 4.92564 4.92564 4.92564 4.81599 4.81599 4.81599 4.81599 4.81599 
4.81599 4.81599 4.81599 4.60879 4.60879 4.49914 4.60879 4.49914 4.3857 
4.60879 4.49914 4.3857 4.27128 4.60879 4.49914 4.3857 4.27128 4.15881 
4.60879 4.49914 4.3857 4.27128 4.15881 4.05096 4.60879 4.49914 4.3857 
4.27128 4.15881 4.05096 3.94976 4.60879 4.49914 4.3857 4.27128 4.15881 
4.05096 3.94976 3.85646 4.5268 4.40462 4.42689 4.28071 4.29185 4.30523 
4.15881 4.15881 4.15881 4.15881 4.04232 4.03217 4.02011 4.00552 3.98753 
3.93376 3.91515 3.89328 3.86721 3.83566 3.7968 3.83461 3.8095 3.78037 
3.74624 3.70581 3.65733 3.59845 3.7454 3.71564 3.68161 3.64243 3.59698 
3.54386 3.48135 3.40735 3.56428 3.45246 3.52338 3.33203 3.40312 3.47739 
3.20576 3.27463 3.34802 3.42551 3.07742 3.14159 3.21128 3.28647 3.36688 
2.95116 3.00855 3.0719 3.14159 3.21784 3.3006 2.83072 2.88006 2.93517 
2.99672 3.06535 3.14159 3.22575 2.7189 2.7598 2.8058 2.85768 2.9163 
2.98259 3.05743 3.14159 3.56428 3.52338 3.45246 3.47739 3.40312 3.33203 
3.42551 3.34802 3.27463 3.20576 3.36688 3.28647 3.21128 3.14159 3.07742 
3.3006 3.21784 3.14159 3.0719 3.00855 2.95116 3.22575 3.14159 3.06535 
2.99672 2.93517 2.88006 2.83072 3.14159 3.05743 2.98259 2.9163 2.85768 
2.8058 2.7598 2.7189 4.5268 4.42689 4.40462 4.30523 4.29185 4.28071 
4.15881 4.15881 4.15881 4.15881 3.98753 4.00552 4.02011 4.03217 4.04232 
3.7968 3.83566 3.86721 3.89328 3.91515 3.93376 3.59845 3.65733 3.70581 
3.74624 3.78037 3.8095 3.83461 3.40735 3.48135 3.54386 3.59698 3.64243 
3.68161 3.71564 3.7454 4.71239 4.80045 4.62433 4.91556 4.71239 4.50922 
5.06749 4.83537 4.58941 4.35729 5.26596 5.0121 4.71239 4.41268 4.15881 
5.51259 5.26596 4.91556 4.50922 4.15881 3.91219 5.78856 5.60297 5.26596 
4.71239 4.15881 3.82181 3.63622 6.05603 5.97021 5.78856 5.26596 4.15881 
3.63622 3.45456 3.36875 0.227158 0.494626 0.312971 0.770593 0.680215 0.494626 
1.01722 1.01722 1.01722 1.01722 1.2157 1.27109 1.36763 1.5708 2.12437 
1.36763 1.44781 1.5708 1.77397 2.12437 2.64697 1.48273 1.5708 1.69378 
1.8705 2.12437 2.46138 2.82862 1.5708 1.65886 1.77397 1.9259 2.12437 
2.371 2.64697 2.91443 1.75639 1.87857 1.8563 2.00248 1.99133 1.97796 
2.12437 2.12437 2.12437 2.12437 2.24087 2.25101 2.26308 2.27767 2.29565 
2.34943 2.36803 2.38991 2.41597 2.44752 2.48639 2.44857 2.47368 2.50281 
2.53694 2.57738 2.62586 2.68474 2.53778 2.56754 2.60157 2.64076 2.68621 
2.73933 2.80184 2.87583 1.6744 1.6744 1.78405 1.6744 1.78405 1.89748 
1.6744 1.78405 1.89748 2.01191 1.6744 1.78405 1.89748 2.01191 2.12437 
1.6744 1.78405 1.89748 2.01191 2.12437 2.23222 1.6744 1.78405 1.89748 
2.01191 2.12437 2.23222 2.33343 1.6744 1.78405 1.89748 2.01191 2.12437 
2.23222 2.33343 2.42672 1.4672 1.35755 1.4672 1.24411 1.35755 1.4672 
1.12969 1.24411 1.35755 1.4672 1.01722 1.12969 1.24411 1.35755 1.4672 
0.909371 1.01722 1.12969 1.24411 1.35755 1.4672 0.808166 0.909371 1.01722 
1.12969 1.24411 1.35755 1.4672 0.714871 0.808166 0.909371 1.01722 1.12969 
1.24411 1.35755 1.4672 0.603812 0.57405 0.693022 0.540021 0.667908 0.792164 
0.500837 0.638778 0.773562 0.900726 0.455383 0.604649 0.751687 0.890581 1.01722 
0.402264 0.564217 0.725619 0.878514 1.01722 1.13912 0.339753 0.515737 0.694072 
0.863926 1.01722 1.15026 1.26302 0.265762 0.456853 0.655207 0.845941 1.01722 
1.16363 1.28529 1.38521 0.227158 0.312971 0.494626 0.494626 0.680215 0.770593 
1.01722 1.01722 1.01722 1.01722 2.12437 1.5708 1.36763 1.27109 1.2157 
2.64697 2.12437 1.77397 1.5708 1.44781 1.36763 2.82862 2.46138 2.12437 
1.8705 1.69378 1.5708 1.48273 2.91443 2.64697 2.371 2.12437 1.9259 
1.77397 1.65886 1.5708 1.75639 1.8563 1.87857 1.97796 1.99133 2.00248 
2.12437 2.12437 2.12437 2.12437 2.29565 2.27767 2.26308 2.25101 2.24087 
2.48639 2.44752 2.41597 2.38991 2.36803 2.34943 2.68474 2.62586 2.57738 
2.53694 2.50281 2.47368 2.44857 2.87583 2.80184 2.73933 2.68621 2.64076 
2.60157 2.56754 2.53778 5.86049 5.90139 5.97231 5.94739 6.02165 6.09275 
5.99927 6.07676 6.15015 6.21902 6.0579 6.13831 6.2135 0 0.0641696 
6.12418 6.20694 6.28319 0.069689 0.13304 0.190437 6.19903 0 0.0762451 
0.144876 0.206423 0.261531 0.310872 0 0.0841597 0.159004 0.225289 0.283913 
0.335793 0.381792 0.422692 5.86049 5.97231 5.90139 6.09275 6.02165 5.94739 
6.21902 6.15015 6.07676 5.99927 0.0641696 0 6.2135 6.13831 6.0579 
0.190437 0.13304 0.069689 6.28319 6.20694 6.12418 0.310872 0.261531 0.206423 
0.144876 0.0762451 6.28319 6.19903 0.422692 0.381792 0.335793 0.283913 0.225289 
0.159004 0.0841597 0 5.67937 5.70914 5.59016 5.74316 5.61528 5.49102 
5.78235 5.64441 5.50962 5.38246 5.8278 5.67854 5.5315 5.3926 5.26596 
5.88092 5.71897 5.55757 5.40467 5.26596 5.14407 5.94343 5.76745 5.58911 
5.41926 5.26596 5.13292 5.02016 6.01742 5.82633 5.62798 5.43724 5.26596 
5.11955 4.99789 4.89798 1.38521 1.28529 1.26302 1.16363 1.15026 1.13912 
1.01722 1.01722 1.01722 1.01722 0.845941 0.863926 0.878514 0.890581 0.900726 
0.655207 0.694072 0.725619 0.751687 0.773562 0.792164 0.456853 0.515737 0.564217 
0.604649 0.638778 0.667908 0.693022 0.265762 0.339753 0.402264 0.455383 0.500837 
0.540021 0.57405 0.603812 
