# vtk DataFile Version 4.0
vtk output
ASCII
DATASET POLYDATA
POINTS 1002 float
-124.869 -79.8886 61.8242 -127.019 -96.6344 69.4247 -113.005 -84.113 61.3954 
-119.96 -96.7708 69.7108 -123.87 -84.6142 73.4783 -117.539 -86.3761 73.8197 
-126.083 -91.8731 60.0504 -119.669 -91.4499 59.7121 -123.448 -101.324 77.465 
-118.276 -75.5913 64.0262 -124.187 -107.412 64.724 -118.328 -80.2444 52.1362 
-125.524 -80.8039 62.4104 -126.075 -81.9372 63.1356 -126.425 -83.5795 64.1436 
-126.739 -85.4796 65.2174 -126.89 -87.3126 66.0437 -126.745 -89.3673 66.7814 
-126.762 -91.6577 67.6376 -127.069 -93.6212 68.4137 -127.199 -95.1651 68.9708 
-124.826 -80.1115 62.7559 -124.786 -80.3943 63.9068 -124.784 -80.72 65.2082 
-124.809 -81.1079 66.5622 -124.745 -81.559 67.8832 -124.549 -82.109 69.1191 
-124.352 -82.7646 70.3172 -124.221 -83.4146 71.5119 -124.074 -84.0108 72.5994 
-125.341 -80.3034 61.3744 -125.882 -80.8504 60.8683 -126.318 -81.6849 60.2565 
-126.429 -82.8891 59.7563 -126.286 -84.4112 59.5641 -126.219 -86.0576 59.5261 
-126.308 -87.6584 59.5444 -126.332 -89.1788 59.7014 -126.217 -90.5943 59.9139 
-124.289 -78.8762 61.7431 -123.836 -77.5221 61.7065 -123.348 -76.2487 61.7671 
-122.682 -75.3274 61.9067 -121.89 -74.4589 62.2139 -121.047 -73.7059 62.7422 
-120.236 -73.6284 63.2352 -119.514 -74.1984 63.5271 -118.851 -74.9263 63.7599 
-124.492 -79.1839 60.889 -124.068 -78.4984 59.7898 -123.489 -77.9878 58.611 
-122.671 -77.7768 57.5475 -121.737 -77.8576 56.5829 -120.886 -78.1269 55.4983 
-120.215 -78.4928 54.309 -119.672 -78.9465 53.2686 -119.077 -79.5301 52.5458 
-126.921 -95.7341 70.0686 -126.599 -94.7328 70.6244 -126.269 -93.6386 71.1983 
-126.085 -92.3289 71.7806 -125.84 -90.8439 72.1554 -125.347 -89.5184 72.3296 
-124.81 -88.361 72.5395 -124.429 -87.0948 72.8469 -124.141 -85.7711 73.1766 
-127.14 -96.5203 68.4283 -127.287 -96.4026 67.5152 -127.463 -96.3646 66.7063 
-127.577 -96.3335 65.658 -127.551 -96.0061 64.3135 -127.403 -95.2495 63.1732 
-127.149 -94.3374 62.3626 -126.833 -93.4979 61.5513 -126.491 -92.6886 60.7194 
-126.84 -97.7021 70.3584 -126.72 -98.8163 71.2964 -126.447 -99.7201 72.0915 
-125.977 -100.35 72.8409 -125.536 -100.905 73.6361 -125.117 -101.449 74.307 
-124.605 -101.83 74.9482 -124.142 -101.951 75.8628 -123.804 -101.774 76.8484 
-126.76 -98.2293 69.2218 -126.606 -100.08 68.9476 -126.817 -102.022 68.6548 
-126.909 -103.871 68.2642 -126.496 -105.499 67.6022 -126.244 -106.806 66.7072 
-126.316 -107.689 65.8291 -125.9 -108.051 65.1768 -124.966 -107.901 64.8304 
-113.77 -84.9297 61.6847 -114.597 -85.8287 62.2753 -115.458 -86.8619 63.4469 
-116.405 -87.8746 64.9164 -117.341 -88.9696 66.1947 -118.08 -90.5085 67.2383 
-118.62 -92.2686 68.1575 -119.125 -93.8229 68.8691 -119.614 -95.2683 69.348 
-113.226 -84.0392 62.3088 -113.72 -84.1118 63.3235 -114.445 -84.1845 64.5583 
-114.999 -84.2537 66.1171 -115.117 -84.4767 68.0272 -115.188 -84.8418 69.8967 
-115.687 -85.2135 71.1931 -116.442 -85.5806 72.037 -117.065 -85.972 72.8907 
-113.241 -84.8714 60.6408 -113.327 -85.722 59.9457 -113.51 -86.5369 59.4176 
-114.104 -87.289 59.0784 -114.886 -88.0661 58.8689 -115.603 -88.914 58.7232 
-116.475 -89.7166 58.7119 -117.599 -90.3172 58.921 -118.726 -90.8066 59.2879 
-112.479 -83.1177 61.6392 -112.431 -82.0882 61.6655 -113.123 -81.126 61.4848 
-114.06 -80.1521 61.4814 -114.749 -79.1191 61.8502 -115.496 -78.1956 62.2352 
-116.465 -77.4843 62.4547 -117.263 -76.8564 62.7959 -117.783 -76.2028 63.3828 
-112.59 -83.7095 60.4639 -112.465 -83.2267 59.0156 -112.665 -82.7104 57.3447 
-113.14 -82.3734 56.0408 -113.895 -82.1248 55.036 -114.732 -81.6681 53.9433 
-115.38 -81.1287 52.9847 -116.09 -80.7433 52.4292 -117.158 -80.4632 52.1683 
-119.369 -96.2704 70.0838 -118.698 -95.8041 70.5634 -118.223 -95.1273 71.2618 
-117.996 -94.0597 72.0467 -117.852 -92.7206 72.6787 -117.743 -91.3657 73.147 
-117.679 -90.0709 73.4957 -117.595 -88.7751 73.6823 -117.515 -87.5076 73.7612 
-120.286 -96.3396 69.1023 -120.563 -95.8558 68.3781 -120.728 -95.3712 67.4786 
-120.804 -94.8229 66.4562 -120.83 -94.1764 65.412 -120.75 -93.5371 64.3208 
-120.512 -92.9728 63.1113 -120.197 -92.4387 61.8746 -119.903 -91.9152 60.7392 
-119.945 -97.8936 70.3909 -120.001 -98.8775 71.336 -120.107 -99.8426 72.4602 
-120.254 -100.894 73.561 -120.514 -101.669 74.5595 -120.956 -101.84 75.3836 
-121.559 -101.718 75.9773 -122.259 -101.654 76.5375 -122.944 -101.575 77.1296 
-120.281 -98.2523 69.6503 -120.484 -99.9155 69.496 -120.891 -101.38 69.2929 
-121.348 -102.798 68.9809 -121.518 -104.405 68.3452 -121.807 -105.666 67.438 
-122.492 -106.284 66.6037 -123.135 -106.722 65.9342 -123.602 -107.164 65.3068 
-123.553 -84.3661 74.1393 -123.217 -84.0781 74.8979 -122.735 -83.7772 75.6816 
-121.905 -83.7559 76.0601 -120.915 -84.185 75.793 -120.14 -84.7608 75.3188 
-119.475 -85.1941 75.0532 -118.705 -85.5616 74.8261 -117.998 -85.9683 74.3935 
-123.812 -86.0119 74.0894 -123.815 -87.5792 74.7856 -123.889 -89.1377 75.632 
-123.909 -90.7373 76.4878 -123.789 -92.6001 77.0172 -123.629 -94.6522 77.204 
-123.564 -96.6464 77.4656 -123.584 -98.4809 77.8373 -123.575 -100.063 77.8791 
-123.713 -83.2089 73.2071 -123.409 -81.8573 72.6402 -122.933 -80.4379 71.7963 
-122.361 -78.9782 70.9689 -121.648 -77.8671 70.0191 -120.791 -77.1522 68.6707 
-119.992 -76.4279 67.3512 -119.315 -75.7418 66.3343 -118.727 -75.463 65.267 
-117.986 -87.571 74.6666 -118.519 -88.9693 75.4439 -119.164 -90.3378 76.1993 
-119.844 -91.7316 77.0692 -120.315 -93.5306 77.9318 -120.693 -95.586 78.4526 
-121.412 -97.3092 78.6005 -122.361 -98.6734 78.5035 -123.066 -100.009 78.1145 
-117.4 -85.1236 73.2375 -117.376 -83.932 72.4444 -117.351 -82.645 71.5599 
-117.283 -81.2627 70.6943 -117.404 -80.1601 69.551 -117.728 -79.3531 68.0922 
-117.905 -78.3391 66.8979 -117.91 -77.1257 66.0461 -118.021 -76.1794 65.0978 
-125.69 -92.1006 59.8026 -125.165 -92.2986 59.5923 -124.515 -92.5151 59.293 
-123.819 -92.6655 58.9822 -123.023 -92.6448 58.8715 -122.074 -92.5453 58.8972 
-121.189 -92.4143 58.934 -120.549 -92.1367 59.0774 -120.08 -91.7522 59.3687 
-126.241 -93.8006 60.4647 -126.365 -96.2383 60.908 -126.468 -99.011 61.166 
-126.564 -101.462 60.5417 -126.535 -103.068 59.4245 -126.245 -104.126 59.5224 
-125.804 -105.152 61.0876 -125.326 -106.143 62.7322 -124.772 -106.905 63.8337 
-125.572 -90.336 59.3172 -124.835 -88.8467 58.3349 -123.942 -87.3509 57.2738 
-122.993 -85.8131 56.3513 -122.1 -84.4325 55.3648 -121.333 -83.3854 54.1353 
-120.68 -82.5034 53.0242 -120.031 -81.6205 52.3673 -119.244 -80.8327 52.1175 
-120.633 -92.7629 60.7921 -121.509 -94.6634 61.7872 -122.028 -97.0116 62.3256 
-122.02 -99.4703 62.2627 -121.934 -101.605 62.0851 -122.367 -103.189 62.3265 
-123.143 -104.41 62.9199 -123.721 -105.506 63.5718 -123.991 -106.517 64.1596 
-118.933 -90.6167 58.3746 -118.235 -89.9112 56.9432 -117.699 -89.1093 55.6579 
-117.418 -87.866 54.7206 -117.335 -86.3643 53.9202 -117.325 -85.1657 52.9552 
-117.434 -84.1631 52.0698 -117.72 -82.8904 51.6908 -118.057 -81.4624 51.8077 
-123.519 -102.822 76.7227 -123.61 -104.384 76.1825 -123.62 -105.9 75.565 
-123.527 -107.153 74.4076 -123.558 -108.101 72.8539 -123.763 -108.862 71.199 
-123.887 -109.201 69.3594 -123.901 -108.881 67.4417 -123.996 -108.174 65.842 
-118.202 -75.4401 62.6306 -118.064 -75.2308 61.4075 -117.847 -75.182 60.0836 
-117.561 -75.5285 58.2715 -117.276 -75.9855 56.4676 -117.159 -76.4555 55.1753 
-117.285 -77.2682 54.0865 -117.56 -78.3158 53.1238 -117.914 -79.3 52.5017 
-125.45 -81.1275 63.4483 -125.399 -81.4966 64.7341 -125.962 -82.3438 64.3402 
-125.464 -81.8827 66.2074 -125.952 -82.7767 65.7879 -126.339 -84.0218 65.4599 
-125.548 -82.3305 67.7241 -126.095 -83.252 67.4042 -126.413 -84.4759 66.9687 
-126.682 -85.9199 66.5193 -125.34 -82.9643 69.0258 -126.022 -83.9067 68.8939 
-126.473 -85.0609 68.5194 -126.747 -86.4612 67.9797 -126.805 -87.9243 67.3663 
-124.874 -83.8018 70.0375 -125.464 -84.8464 69.9203 -126.084 -85.9011 69.7399 
-126.599 -87.212 69.338 -126.789 -88.7215 68.7924 -126.716 -90.2269 68.1791 
-124.508 -84.6067 71.0405 -124.859 -85.8406 70.7194 -125.432 -86.8926 70.5798 
-126.107 -88.0682 70.3922 -126.516 -89.5775 70.0242 -126.618 -91.0993 69.5172 
-126.753 -92.4492 68.9529 -124.318 -85.226 72.1554 -124.572 -86.5775 71.73 
-125.022 -87.7455 71.476 -125.663 -88.8503 71.3426 -126.138 -90.2717 71.1074 
-126.325 -91.8052 70.6616 -126.53 -93.1035 70.1192 -126.894 -94.203 69.5637 
-124.243 -79.0342 62.8436 -123.787 -77.6278 62.944 -124.223 -79.2812 64.109 
-123.319 -76.3753 63.063 -123.791 -77.9206 64.271 -124.208 -79.6843 65.4274 
-122.66 -75.4676 63.3242 -123.336 -76.7458 64.4686 -123.735 -78.5053 65.6172 
-124.105 -80.2321 66.7338 -121.84 -74.7075 63.8347 -122.637 -75.8651 64.8741 
-123.238 -77.4062 65.9112 -123.524 -79.2298 66.9628 -123.937 -80.7759 68.0608 
-121.024 -74.3067 64.3743 -121.767 -75.2788 65.4125 -122.519 -76.5212 66.3763 
-123.041 -78.1604 67.3498 -123.367 -79.8697 68.4003 -123.865 -81.3205 69.4761 
-120.261 -74.4647 64.7181 -120.931 -75.1462 65.8232 -121.65 -76.0914 66.8612 
-122.432 -77.3129 67.8828 -122.979 -78.8923 68.889 -123.406 -80.5013 69.9575 
-123.889 -81.9389 70.9133 -119.477 -74.9166 64.9826 -120.122 -75.3575 66.0926 
-120.796 -76.1411 67.1889 -121.638 -77.0114 68.4019 -122.443 -78.1427 69.4912 
-122.995 -79.6615 70.4437 -123.458 -81.1889 71.4207 -123.854 -82.5783 72.186 
-118.471 -76.2683 66.2951 -118.401 -77.471 67.1554 -119.12 -76.7903 67.2759 
-118.357 -78.6465 68.2415 -119.076 -77.9669 68.3519 -119.903 -77.4622 68.5442 
-118.1 -79.4778 69.7988 -118.939 -78.8811 69.8827 -119.803 -78.3771 70.0431 
-120.719 -77.9968 70.2055 -117.868 -80.4906 71.1638 -118.696 -79.8517 71.4019 
-119.579 -79.3614 71.538 -120.494 -78.9351 71.6629 -121.491 -78.7508 71.4831 
-117.882 -81.9534 72.0515 -118.623 -81.3074 72.3785 -119.448 -80.8104 72.5731 
-120.313 -80.3035 72.7717 -121.304 -79.924 72.7302 -122.25 -80.002 72.3171 
-117.932 -83.3858 72.9259 -118.665 -82.8275 73.2411 -119.456 -82.3666 73.4317 
-120.288 -81.8544 73.7486 -121.282 -81.3103 73.9751 -122.247 -81.146 73.7285 
[...]
POINT_DATA 1002
FIELD FieldData 2
Theta 1 1002 float
2.58802 2.58802 0.553574 0.553574 2.12437 1.01722 2.12437 1.01722 1.5708 
1.5708 1.5708 1.5708 2.68241 2.78649 2.89924 3.01861 3.14159 3.01861 
2.89924 2.78649 2.68241 2.61035 2.61791 2.60515 2.56958 2.51327 2.44184 
2.36202 2.27983 2.1997 2.61035 2.61791 2.60515 2.56958 2.51327 2.44184 
2.36202 2.27983 2.1997 2.50947 2.41899 2.31794 2.20864 2.0944 1.97902 
1.86631 1.75944 1.66056 2.50947 2.41899 2.31794 2.20864 2.0944 1.97902 
1.86631 1.75944 1.66056 2.61035 2.61791 2.60515 2.56958 2.51327 2.44184 
2.36202 2.27983 2.1997 2.61035 2.61791 2.60515 2.56958 2.51327 2.44184 
2.36202 2.27983 2.1997 2.50947 2.41899 2.31794 2.20864 2.0944 1.97902 
1.86631 1.75944 1.66056 2.50947 2.41899 2.31794 2.20864 2.0944 1.97902 
1.86631 1.75944 1.66056 0.459179 0.355101 0.242354 0.122983 0 0.122983 
0.242354 0.355101 0.459179 0.531246 0.523681 0.536438 0.57201 0.628319 0.699757 
0.779574 0.86176 0.941896 0.531246 0.523681 0.536438 0.57201 0.628319 0.699757 
0.779574 0.86176 0.941896 0.632123 0.7226 0.823657 0.932948 1.0472 1.16257 
1.27528 1.38216 1.48103 0.632123 0.7226 0.823657 0.932948 1.0472 1.16257 
1.27528 1.38216 1.48103 0.531246 0.523681 0.536438 0.57201 0.628319 0.699757 
0.779574 0.86176 0.941896 0.531246 0.523681 0.536438 0.57201 0.628319 0.699757 
0.779574 0.86176 0.941896 0.632123 0.7226 0.823657 0.932948 1.0472 1.16257 
1.27528 1.38216 1.48103 0.632123 0.7226 0.823657 0.932948 1.0472 1.16257 
1.27528 1.38216 1.48103 2.02998 1.9259 1.81315 1.69378 1.5708 1.44781 
1.32844 1.2157 1.11162 2.0928 2.05283 2.00422 1.94767 1.88496 1.81867 
1.75177 1.68695 1.62623 2.0928 2.05283 2.00422 1.94767 1.88496 1.81867 
1.75177 1.68695 1.62623 1.0488 1.08876 1.13737 1.19392 1.25664 1.32292 
1.38982 1.45464 1.51537 1.0488 1.08876 1.13737 1.19392 1.25664 1.32292 
1.38982 1.45464 1.51537 2.02998 1.9259 1.81315 1.69378 1.5708 1.44781 
1.32844 1.2157 1.11162 2.0928 2.05283 2.00422 1.94767 1.88496 1.81867 
1.75177 1.68695 1.62623 2.0928 2.05283 2.00422 1.94767 1.88496 1.81867 
1.75177 1.68695 1.62623 1.0488 1.08876 1.13737 1.19392 1.25664 1.32292 
1.38982 1.45464 1.51537 1.0488 1.08876 1.13737 1.19392 1.25664 1.32292 
1.38982 1.45464 1.51537 1.5708 1.5708 1.5708 1.5708 1.5708 1.5708 
1.5708 1.5708 1.5708 1.5708 1.5708 1.5708 1.5708 1.5708 1.5708 
1.5708 1.5708 1.5708 2.70908 2.71362 2.81592 2.68886 2.81002 2.92597 
2.6349 2.76254 2.89233 3.01997 2.55881 2.68262 2.80854 2.92834 3.01997 
2.47007 2.58462 2.70048 2.80854 2.89233 2.92597 2.37702 2.48017 2.58462 
2.68262 2.76254 2.81002 2.81592 2.28567 2.37702 2.47007 2.55881 2.6349 
2.68886 2.71362 2.70908 2.52097 2.4195 2.51718 2.30791 2.40503 2.49426 
2.18928 2.28408 2.3734 2.45144 2.06758 2.15805 2.24572 2.32523 2.39165 
1.94707 2.03138 2.11543 2.19453 2.26401 2.32035 1.83164 1.90847 1.98711 
2.06376 2.13422 2.1949 2.24359 1.72413 1.79288 1.86489 1.93728 2.00658 
2.06938 2.12312 2.16654 1.5708 1.50988 1.63171 1.44492 1.5708 1.69667 
1.37826 1.5059 1.63569 1.76333 1.31281 1.43962 1.5708 1.70197 1.82878 
1.25155 1.37501 1.50478 1.63681 1.76659 1.89004 1.19686 1.31493 1.44074 
1.5708 1.70086 1.82666 1.94473 1.15011 1.26149 1.38136 1.50697 1.63462 
1.76024 1.88011 1.99148 1.99148 1.88011 1.94473 1.76024 1.82666 1.89004 
1.63462 1.70086 1.76659 1.82878 1.50697 1.5708 1.63681 1.70197 1.76333 
1.38136 1.44074 1.50478 1.5708 1.63569 1.69667 1.26149 1.31493 1.37501 
1.43962 1.5059 1.5708 1.63171 1.15011 1.19686 1.25155 1.31281 1.37826 
1.44492 1.50988 1.5708 2.16654 2.12312 2.24359 2.06938 2.1949 2.32035 
2.00658 2.13422 2.26401 2.39165 1.93728 2.06376 2.19453 2.32523 2.45144 
1.86489 1.98711 2.11543 2.24572 2.3734 2.49426 1.79288 1.90847 2.03138 
2.15805 2.28408 2.40503 2.51718 1.72413 1.83164 1.94707 2.06758 2.18928 
2.30791 2.4195 2.52097 1.66533 1.66946 1.76911 1.67254 1.777 1.88041 
1.67418 1.78222 1.89102 1.99634 1.67418 1.78405 1.89674 2.00785 2.11299 
1.67254 1.78222 1.89674 2.01191 2.12307 2.22608 1.66946 1.777 1.89102 
2.00785 2.12307 2.23222 2.33166 1.66533 1.76911 1.88041 1.99634 2.11299 
2.22608 2.33166 2.42672 1.47626 1.37249 1.47213 1.26118 1.36459 1.46906 
1.14526 1.25058 1.35938 1.46741 1.0286 1.13374 1.24485 1.35755 1.46741 
0.915514 1.01852 1.12969 1.24485 1.35938 1.46906 0.809937 0.909371 1.01852 
1.13374 1.25058 1.36459 1.47213 0.714871 0.809937 0.915514 1.0286 1.14526 
1.26118 1.37249 1.47626 0.975055 0.898002 1.01847 0.821245 0.946693 1.07221 
0.749941 0.877585 1.00737 1.13501 0.690152 0.816367 0.94706 1.07784 1.20431 
0.647337 0.768195 0.895868 1.02616 1.15448 1.2767 0.624416 0.736561 0.857515 
0.983547 1.11021 1.23313 1.34871 0.620619 0.722093 0.833684 0.952313 1.07402 
1.19452 1.30996 1.41746 0.855925 0.764569 0.764569 0.671524 0.661425 0.671524 
0.582786 0.556971 0.556971 0.582786 0.506696 0.458968 0.441109 0.458968 0.506696 
0.45273 0.379052 0.333054 0.333054 0.379052 0.45273 0.427969 0.331576 0.249267 
0.21325 0.249267 0.331576 0.427969 0.432512 0.325669 0.215619 0.121622 0.121622 
0.215619 0.325669 0.432512 0.432512 0.427969 0.325669 0.45273 0.331576 0.215619 
0.506696 0.379052 0.249267 0.121622 0.582786 0.458968 0.333054 0.21325 0.121622 
0.671524 0.556971 0.441109 0.333054 0.249267 0.215619 0.764569 0.661425 0.556971 
0.458968 0.379052 0.331576 0.325669 0.855925 0.764569 0.671524 0.582786 0.506696 
0.45273 0.427969 0.432512 0.975055 1.01847 0.898002 1.07221 0.946693 0.821245 
1.13501 1.00737 0.877585 0.749941 1.20431 1.07784 0.94706 0.816367 0.690152 
1.2767 1.15448 1.02616 0.895868 0.768195 0.647337 1.34871 1.23313 1.11021 
0.983547 0.857515 0.736561 0.624416 1.41746 1.30996 1.19452 1.07402 0.952313 
0.833684 0.722093 0.620619 1.15011 1.26149 1.19686 1.38136 1.31493 1.25155 
1.50697 1.44074 1.37501 1.31281 1.63462 1.5708 1.50478 1.43962 1.37826 
1.76024 1.70086 1.63681 1.5708 1.5059 1.44492 1.88011 1.82666 1.76659 
1.70197 1.63569 1.5708 1.50988 1.99148 1.94473 1.89004 1.82878 1.76333 
1.69667 1.63171 1.5708 1.15011 1.19686 1.26149 1.25155 1.31493 1.38136 
1.31281 1.37501 1.44074 1.50697 1.37826 1.43962 1.50478 1.5708 1.63462 
1.44492 1.5059 1.5708 1.63681 1.70086 1.76024 1.50988 1.5708 1.63569 
1.70197 1.76659 1.82666 1.88011 1.5708 1.63171 1.69667 1.76333 1.82878 
1.89004 1.94473 1.99148 1.72413 1.83164 1.79288 1.94707 1.90847 1.86489 
2.06758 2.03138 1.98711 1.93728 2.18928 2.15805 2.11543 2.06376 2.00658 
2.30791 2.28408 2.24572 2.19453 2.13422 2.06938 2.4195 2.40503 2.3734 
2.32523 2.26401 2.1949 2.12312 2.52097 2.51718 2.49426 2.45144 2.39165 
2.32035 2.24359 2.16654 2.70908 2.81592 2.71362 2.92597 2.81002 2.68886 
3.01997 2.89233 2.76254 2.6349 3.01997 2.92834 2.80854 2.68262 2.55881 
2.92597 2.89233 2.80854 2.70048 2.58462 2.47007 2.81592 2.81002 2.76254 
2.68262 2.58462 2.48017 2.37702 2.70908 2.71362 2.68886 2.6349 2.55881 
2.47007 2.37702 2.28567 2.16654 2.24359 2.12312 2.32035 2.1949 2.06938 
2.39165 2.26401 2.13422 2.00658 2.45144 2.32523 2.19453 2.06376 1.93728 
2.49426 2.3734 2.24572 2.11543 1.98711 1.86489 2.51718 2.40503 2.28408 
2.15805 2.03138 1.90847 1.79288 2.52097 2.4195 2.30791 2.18928 2.06758 
1.94707 1.83164 1.72413 1.66533 1.76911 1.66946 1.88041 1.777 1.67254 
1.99634 1.89102 1.78222 1.67418 2.11299 2.00785 1.89674 1.78405 1.67418 
2.22608 2.12307 2.01191 1.89674 1.78222 1.67254 2.33166 2.23222 2.12307 
2.00785 1.89102 1.777 1.66946 2.42672 2.33166 2.22608 2.11299 1.99634 
1.88041 1.76911 1.66533 1.47626 1.47213 1.37249 1.46906 1.36459 1.26118 
1.46741 1.35938 1.25058 1.14526 1.46741 1.35755 1.24485 1.13374 1.0286 
1.46906 1.35938 1.24485 1.12969 1.01852 0.915514 1.47213 1.36459 1.25058 
1.13374 1.01852 0.909371 0.809937 1.47626 1.37249 1.26118 1.14526 1.0286 
0.915514 0.809937 0.714871 1.41746 1.30996 1.34871 1.19452 1.23313 1.2767 
1.07402 1.11021 1.15448 1.20431 0.952313 0.983547 1.02616 1.07784 1.13501 
0.833684 0.857515 0.895868 0.94706 1.00737 1.07221 0.722093 0.736561 0.768195 
0.816367 0.877585 0.946693 1.01847 0.620619 0.624416 0.647337 0.690152 0.749941 
0.821245 0.898002 0.975055 0.975055 0.898002 1.01847 0.821245 0.946693 1.07221 
0.749941 0.877585 1.00737 1.13501 0.690152 0.816367 0.94706 1.07784 1.20431 
0.647337 0.768195 0.895868 1.02616 1.15448 1.2767 0.624416 0.736561 0.857515 
0.983547 1.11021 1.23313 1.34871 0.620619 0.722093 0.833684 0.952313 1.07402 
1.19452 1.30996 1.41746 
Phi 1 1002 float
6.28319 3.14159 6.28319 3.14159 4.71239 4.71239 1.5708 1.5708 3.69517 
5.72961 2.58802 0.553574 6.28319 6.28319 6.28319 6.28319 3.14159 3.14159 
3.14159 3.14159 3.14159 6.1053 5.8988 5.67687 5.45995 5.26596 5.10322 
4.97131 4.86569 4.78095 0.177881 0.384387 0.606312 0.823235 1.01722 1.17997 
1.31187 1.4175 1.50223 6.18928 6.10703 6.03531 5.97283 5.91832 5.87061 
5.82869 5.79168 5.75886 0.0939024 0.176153 0.247873 0.310351 0.364864 0.412573 
0.454497 0.491504 0.524326 3.31947 3.52598 3.7479 3.96483 4.15881 4.32156 
4.45346 4.55909 4.64383 2.96371 2.75721 2.53528 2.31836 2.12437 1.96162 
1.82972 1.72409 1.63936 3.2355 3.31775 3.38947 3.45194 3.50646 3.55417 
3.59609 3.6331 3.66592 3.04769 2.96544 2.89372 2.83124 2.77673 2.72902 
2.6871 2.65009 2.61727 6.28319 6.28319 6.28319 6.28319 3.14159 3.14159 
3.14159 3.14159 3.14159 6.1053 5.8988 5.67687 5.45995 5.26596 5.10322 
4.97131 4.86569 4.78095 0.177881 0.384387 0.606312 0.823235 1.01722 1.17997 
1.31187 1.4175 1.50223 6.18928 6.10703 6.03531 5.97283 5.91832 5.87061 
5.82869 5.79168 5.75886 0.0939024 0.176153 0.247873 0.310351 0.364864 0.412573 
0.454497 0.491504 0.524326 3.31947 3.52598 3.7479 3.96483 4.15881 4.32156 
4.45346 4.55909 4.64383 2.96371 2.75721 2.53528 2.31836 2.12437 1.96162 
1.82972 1.72409 1.63936 3.2355 3.31775 3.38947 3.45194 3.50646 3.55417 
3.59609 3.6331 3.66592 3.04769 2.96544 2.89372 2.83124 2.77673 2.72902 
2.6871 2.65009 2.61727 4.71239 4.71239 4.71239 4.71239 4.71239 4.71239 
4.71239 4.71239 4.71239 4.60879 4.49914 4.3857 4.27128 4.15881 4.05096 
3.94976 3.85646 3.77161 4.81599 4.92564 5.03907 5.1535 5.26596 5.37381 
5.47502 5.56831 5.65317 4.60879 4.49914 4.3857 4.27128 4.15881 4.05096 
3.94976 3.85646 3.77161 4.81599 4.92564 5.03907 5.1535 5.26596 5.37381 
5.47502 5.56831 5.65317 1.5708 1.5708 1.5708 1.5708 1.5708 1.5708 
1.5708 1.5708 1.5708 1.6744 1.78405 1.89748 2.01191 2.12437 2.23222 
2.33343 2.42672 2.51157 1.4672 1.35755 1.24411 1.12969 1.01722 0.909371 
0.808166 0.714871 0.63002 1.6744 1.78405 1.89748 2.01191 2.12437 2.23222 
2.33343 2.42672 2.51157 1.4672 1.35755 1.24411 1.12969 1.01722 0.909371 
0.808166 0.714871 0.63002 3.60077 3.49669 3.38395 3.26458 3.14159 3.01861 
2.89924 2.78649 2.68241 5.82401 5.92808 6.04083 6.1602 6.28319 0.122983 
0.242354 0.355101 0.459179 6.05603 5.78856 5.97021 5.51259 5.60297 5.78856 
5.26596 5.26596 5.26596 5.26596 5.06749 5.0121 4.91556 4.71239 4.15881 
4.91556 4.83537 4.71239 4.50922 4.15881 3.63622 4.80045 4.71239 4.58941 
4.41268 4.15881 3.82181 3.45456 4.71239 4.62433 4.50922 4.35729 4.15881 
3.91219 3.63622 3.36875 6.01742 5.94343 5.82633 5.88092 5.76745 5.62798 
5.8278 5.71897 5.58911 5.43724 5.78235 5.67854 5.55757 5.41926 5.26596 
5.74316 5.64441 5.5315 5.40467 5.26596 5.11955 5.70914 5.61528 5.50962 
5.3926 5.26596 5.13292 4.99789 5.67937 5.59016 5.49102 5.38246 5.26596 
5.14407 5.02016 4.89798 5.56831 5.47502 5.47502 5.37381 5.37381 5.37381 
5.26596 5.26596 5.26596 5.26596 5.1535 5.1535 5.1535 5.1535 5.1535 
5.03907 5.03907 5.03907 5.03907 5.03907 5.03907 4.92564 4.92564 4.92564 
4.92564 4.92564 4.92564 4.92564 4.81599 4.81599 4.81599 4.81599 4.81599 
4.81599 4.81599 4.81599 4.60879 4.60879 4.49914 4.60879 4.49914 4.3857 
4.60879 4.49914 4.3857 4.27128 4.60879 4.49914 4.3857 4.27128 4.15881 
4.60879 4.49914 4.3857 4.27128 4.15881 4.05096 4.60879 4.49914 4.3857 
4.27128 4.15881 4.05096 3.94976 4.60879 4.49914 4.3857 4.27128 4.15881 
4.05096 3.94976 3.85646 4.5268 4.40462 4.42689 4.28071 4.29185 4.30523 
4.15881 4.15881 4.15881 4.15881 4.04232 4.03217 4.02011 4.00552 3.98753 
3.93376 3.91515 3.89328 3.86721 3.83566 3.7968 3.83461 3.8095 3.78037 
3.74624 3.70581 3.65733 3.59845 3.7454 3.71564 3.68161 3.64243 3.59698 
3.54386 3.48135 3.40735 3.56428 3.45246 3.52338 3.33203 3.40312 3.47739 
3.20576 3.27463 3.34802 3.42551 3.07742 3.14159 3.21128 3.28647 3.36688 
2.95116 3.00855 3.0719 3.14159 3.21784 3.3006 2.83072 2.88006 2.93517 
2.99672 3.06535 3.14159 3.22575 2.7189 2.7598 2.8058 2.85768 2.9163 
2.98259 3.05743 3.14159 3.56428 3.52338 3.45246 3.47739 3.40312 3.33203 
3.42551 3.34802 3.27463 3.20576 3.36688 3.28647 3.21128 3.14159 3.07742 
3.3006 3.21784 3.14159 3.0719 3.00855 2.95116 3.22575 3.14159 3.06535 
2.99672 2.93517 2.88006 2.83072 3.14159 3.05743 2.98259 2.9163 2.85768 
2.8058 2.7598 2.7189 4.5268 4.42689 4.40462 4.30523 4.29185 4.28071 
4.15881 4.15881 4.15881 4.15881 3.98753 4.00552 4.02011 4.03217 4.04232 
3.7968 3.83566 3.86721 3.89328 3.91515 3.93376 3.59845 3.65733 3.70581 
3.74624 3.78037 3.8095 3.83461 3.40735 3.48135 3.54386 3.59698 3.64243 
3.68161 3.71564 3.7454 4.71239 4.80045 4.62433 4.91556 4.71239 4.50922 
5.06749 4.83537 4.58941 4.35729 5.26596 5.0121 4.71239 4.41268 4.15881 
5.51259 5.26596 4.91556 4.50922 4.15881 3.91219 5.78856 5.60297 5.26596 
4.71239 4.15881 3.82181 3.63622 6.05603 5.97021 5.78856 5.26596 4.15881 
3.63622 3.45456 3.36875 0.227158 0.494626 0.312971 0.770593 0.680215 0.494626 
1.01722 1.01722 1.01722 1.01722 1.2157 1.27109 1.36763 1.5708 2.12437 
1.36763 1.44781 1.5708 1.77397 2.12437 2.64697 1.48273 1.5708 1.69378 
1.8705 2.12437 2.46138 2.82862 1.5708 1.65886 1.77397 1.9259 2.12437 
2.371 2.64697 2.91443 1.75639 1.87857 1.8563 2.00248 1.99133 1.97796 
2.12437 2.12437 2.12437 2.12437 2.24087 2.25101 2.26308 2.27767 2.29565 
2.34943 2.36803 2.38991 2.41597 2.44752 2.48639 2.44857 2.47368 2.50281 
2.53694 2.57738 2.62586 2.68474 2.53778 2.56754 2.60157 2.64076 2.68621 
2.73933 2.80184 2.87583 1.6744 1.6744 1.78405 1.6744 1.78405 1.89748 
1.6744 1.78405 1.89748 2.01191 1.6744 1.78405 1.89748 2.01191 2.12437 
1.6744 1.78405 1.89748 2.01191 2.12437 2.23222 1.6744 1.78405 1.89748 
2.01191 2.12437 2.23222 2.33343 1.6744 1.78405 1.89748 2.01191 2.12437 
2.23222 2.33343 2.42672 1.4672 1.35755 1.4672 1.24411 1.35755 1.4672 
1.12969 1.24411 1.35755 1.4672 1.01722 1.12969 1.24411 1.35755 1.4672 
0.909371 1.01722 1.12969 1.24411 1.35755 1.4672 0.808166 0.909371 1.01722 
1.12969 1.24411 1.35755 1.4672 0.714871 0.808166 0.909371 1.01722 1.12969 
1.24411 1.35755 1.4672 0.603812 0.57405 0.693022 0.540021 0.667908 0.792164 
0.500837 0.638778 0.773562 0.900726 0.455383 0.604649 0.751687 0.890581 1.01722 
0.402264 0.564217 0.725619 0.878514 1.01722 1.13912 0.339753 0.515737 0.694072 
0.863926 1.01722 1.15026 1.26302 0.265762 0.456853 0.655207 0.845941 1.01722 
1.16363 1.28529 1.38521 0.227158 0.312971 0.494626 0.494626 0.680215 0.770593 
1.01722 1.01722 1.01722 1.01722 2.12437 1.5708 1.36763 1.27109 1.2157 
2.64697 2.12437 1.77397 1.5708 1.44781 1.36763 2.82862 2.46138 2.12437 
1.8705 1.69378 1.5708 1.48273 2.91443 2.64697 2.371 2.12437 1.9259 
1.77397 1.65886 1.5708 1.75639 1.8563 1.87857 1.97796 1.99133 2.00248 
2.12437 2.12437 2.12437 2.12437 2.29565 2.27767 2.26308 2.25101 2.24087 
2.48639 2.44752 2.41597 2.38991 2.36803 2.34943 2.68474 2.62586 2.57738 
2.53694 2.50281 2.47368 2.44857 2.87583 2.80184 2.73933 2.68621 2.64076 
2.60157 2.56754 2.53778 5.86049 5.90139 5.97231 5.94739 6.02165 6.09275 
5.99927 6.07676 6.15015 6.21902 6.0579 6.13831 6.2135 0 0.0641696 
6.12418 6.20694 6.28319 0.069689 0.13304 0.190437 6.19903 0 0.0762451 
0.144876 0.206423 0.261531 0.310872 0 0.0841597 0.159004 0.225289 0.283913 
0.335793 0.381792 0.422692 5.86049 5.97231 5.90139 6.09275 6.02165 5.94739 
6.21902 6.15015 6.07676 5.99927 0.0641696 0 6.2135 6.13831 6.0579 
0.190437 0.13304 0.069689 6.28319 6.20694 6.12418 0.310872 0.261531 0.206423 
0.144876 0.0762451 6.28319 6.19903 0.422692 0.381792 0.335793 0.283913 0.225289 
0.159004 0.0841597 0 5.67937 5.70914 5.59016 5.74316 5.61528 5.49102 
5.78235 5.64441 5.50962 5.38246 5.8278 5.67854 5.5315 5.3926 5.26596 
5.88092 5.71897 5.55757 5.40467 5.26596 5.14407 5.94343 5.76745 5.58911 
5.41926 5.26596 5.13292 5.02016 6.01742 5.82633 5.62798 5.43724 5.26596 
5.11955 4.99789 4.89798 1.38521 1.28529 1.26302 1.16363 1.15026 1.13912 
1.01722 1.01722 1.01722 1.01722 0.845941 0.863926 0.878514 0.890581 0.900726 
0.655207 0.694072 0.725619 0.751687 0.773562 0.792164 0.456853 0.515737 0.564217 
0.604649 0.638778 0.667908 0.693022 0.265762 0.339753 0.402264 0.455383 0.500837 
0.540021 0.57405 0.603812 
