# vtk DataFile Version 4.0
vtk output
ASCII
DATASET POLYDATA
POINTS 1002 float
-120.748 -87.3806 64.3434 -123.875 -102.358 70.6433 -112.273 -90.466 63.6464 
-118.219 -103.228 71.3794 -120.593 -92.3853 74.1203 -115.598 -93.6618 74.9001 
-122.971 -98.2926 61.9152 -117.698 -98.328 62.4548 -121.064 -107.708 78.6659 
-115.33 -83.2128 65.8642 -121.583 -113.1 65.7517 -114.683 -85.8634 55.9832 
-121.301 -88.4887 65.0518 -122.078 -89.5043 65.7859 -122.754 -90.7154 66.5901 
-123.041 -92.4403 67.3802 -123.149 -94.4741 67.9564 -123.297 -96.5434 68.4601 
-123.439 -98.4649 69.1108 -123.601 -99.9585 69.7478 -123.782 -101.131 70.2317 
-120.959 -87.4478 65.173 -121.112 -87.6672 66.2189 -121.09 -88.0286 67.3561 
-121.004 -88.4123 68.4416 -121.068 -88.8374 69.5916 -121.212 -89.4491 70.853 
-121.188 -90.1981 71.929 -120.971 -90.9409 72.6971 -120.733 -91.665 73.3787 
-120.895 -88.0825 64.0468 -121.126 -88.8175 63.6332 -121.326 -89.6114 63.128 
-121.565 -90.5498 62.8243 -121.974 -91.6297 62.6251 -122.389 -92.7253 62.2548 
-122.672 -93.9215 61.9932 -122.903 -95.3983 61.9805 -123.043 -96.9619 61.9489 
-120.472 -86.2081 64.1689 -120.092 -85.1744 64.2284 -119.36 -84.4586 64.4092 
-118.549 -83.7758 64.426 -118.134 -82.9152 64.477 -117.766 -82.1331 64.9597 
-116.942 -81.739 65.6086 -116.057 -81.8802 65.9292 -115.568 -82.4761 65.9233 
-120.363 -86.6399 63.4213 -119.895 -85.9057 62.4426 -119.168 -85.3867 61.4816 
-118.331 -85.0825 60.4627 -117.803 -84.6218 59.2403 -117.409 -84.1582 58.0668 
-116.68 -84.3442 57.3526 -115.833 -85.0173 56.9698 -115.207 -85.5409 56.5305 
-123.799 -101.599 71.2704 -123.621 -100.852 71.9112 -123.373 -99.9369 72.5059 
-123.121 -98.7564 72.9583 -122.782 -97.638 73.2755 -122.168 -96.8123 73.5261 
-121.424 -95.9867 73.6496 -120.909 -94.8814 73.6852 -120.695 -93.5996 73.8325 
-123.995 -102.296 69.8152 -124.272 -102.207 68.9613 -124.387 -102.115 67.953 
-124.214 -101.967 66.9237 -124.042 -101.635 66.0527 -123.914 -101.053 65.2009 
-123.68 -100.28 64.2404 -123.466 -99.4965 63.2823 -123.295 -98.8525 62.481 
-123.918 -103.279 71.5493 -123.857 -104.215 72.538 -123.579 -104.972 73.2936 
-123.237 -105.663 73.8868 -122.8 -106.333 74.5952 -122.178 -106.709 75.2997 
-121.692 -106.926 76.0329 -121.515 -107.362 77.0764 -121.372 -107.771 78.1309 
-123.802 -103.826 70.4629 -123.669 -105.509 70.2426 -123.668 -107.071 69.9858 
-123.537 -108.378 69.5321 -123.093 -109.644 68.9081 -122.884 -111.104 68.3078 
-123.089 -112.592 67.5971 -123.009 -113.542 66.6977 -122.352 -113.625 65.9849 
-112.877 -91.1935 64.2621 -113.747 -91.9855 65.005 -114.626 -93.0253 66.01 
-115.331 -94.337 67.2516 -116.052 -95.7835 68.4188 -116.74 -97.3557 69.2674 
-117.141 -99.0229 69.8595 -117.431 -100.599 70.3882 -117.831 -101.987 70.9278 
-112.328 -90.5787 64.6817 -112.541 -90.6477 65.906 -113.034 -90.6154 67.0862 
-113.421 -90.7637 68.1735 -113.5 -91.2516 69.4666 -113.804 -91.7755 70.8634 
-114.456 -92.188 71.9881 -114.937 -92.6516 72.9975 -115.209 -93.1764 74.0513 
-112.467 -90.9353 63.1589 -112.633 -91.6089 62.7815 -112.946 -92.3716 62.4034 
-113.524 -93.0188 62.0434 -114.214 -93.6769 61.8277 -114.917 -94.5784 61.7526 
-115.723 -95.5083 61.8194 -116.563 -96.3101 62.0457 -117.236 -97.2256 62.2973 
-111.877 -89.6951 63.6879 -111.515 -88.7258 63.7691 -111.323 -87.5631 63.8043 
-111.559 -86.4121 63.9005 -112.11 -85.5418 64.133 -112.713 -84.9151 64.3007 
-113.453 -84.3644 64.3916 -114.276 -83.9164 64.6812 -114.905 -83.5671 65.2302 
-111.914 -89.9532 62.6668 -111.448 -89.4563 61.5562 -111.009 -88.9366 60.3301 
-110.936 -88.2871 59.0731 -111.21 -87.6284 57.8706 -111.467 -87.1078 56.791 
-111.82 -86.5583 55.9832 -112.634 -85.989 55.63 -113.734 -85.7285 55.7095 
-117.865 -102.684 71.7799 -117.43 -102.031 72.2144 -117.07 -101.159 72.8077 
-116.643 -100.288 73.4102 -116.013 -99.6004 73.9303 -115.554 -98.8091 74.5019 
-115.503 -97.5999 74.9714 -115.562 -96.1329 75.1017 -115.559 -94.7703 75.0148 
-118.287 -103.054 70.6199 -118.454 -102.834 69.7618 -118.685 -102.589 68.9819 
-118.736 -102.404 68.2184 -118.596 -102.059 67.2243 -118.461 -101.288 66.1282 
-118.319 -100.367 65.2023 -118.109 -99.6275 64.3421 -117.891 -98.9864 63.3991 
-118.337 -104.127 72.0081 -118.333 -105.125 72.6525 -118.285 -106.086 73.4488 
-118.379 -106.91 74.4396 -118.67 -107.606 75.409 -119.116 -107.965 76.1604 
-119.627 -107.893 76.819 -120.104 -107.805 77.5704 -120.575 -107.855 78.2867 
-118.457 -104.47 71.1864 -118.417 -106.106 70.6547 -118.432 -107.817 70.0041 
-118.931 -108.931 69.5973 -119.701 -109.499 69.348 -120.222 -110.338 68.897 
-120.45 -111.481 68.1814 -120.645 -112.293 67.321 -121.012 -112.742 66.4512 
-120.472 -92.1593 74.8137 -120.244 -92.0018 75.4338 -119.798 -91.8795 75.8841 
-119.158 -91.8665 76.1808 -118.442 -92.1135 76.2003 -117.791 -92.4942 75.885 
-117.231 -92.7775 75.5373 -116.655 -93.0158 75.3541 -116.062 -93.3216 75.1873 
-120.604 -93.825 74.7872 -120.747 -95.1822 75.6703 -121.033 -96.4232 76.7009 
-121.315 -97.7937 77.6361 -121.434 -99.35 78.2242 -121.437 -100.996 78.5451 
-121.488 -102.874 78.8489 -121.536 -104.893 79.0768 -121.392 -106.582 79.0187 
-120.473 -90.8042 73.9516 -120.176 -89.3309 73.6365 -119.71 -88.0293 73.0408 
-119.091 -86.7263 72.3236 -118.372 -85.4238 71.6391 -117.689 -84.4102 70.6819 
-117.047 -83.7918 69.3195 -116.383 -83.4629 67.9748 -115.788 -83.3107 66.8689 
-116.175 -94.8147 75.54 -116.935 -96.0918 76.0843 -117.613 -97.4197 76.8278 
-118.084 -98.9439 77.8023 -118.495 -100.789 78.616 -118.951 -102.537 79.0551 
-119.505 -103.895 79.2209 -120.175 -105.209 79.205 -120.761 -106.596 79.0375 
-115.428 -92.3568 74.2949 -115.284 -90.9359 73.5366 -115.097 -89.4779 72.6865 
-115.014 -88.256 71.7598 -115.102 -87.2287 70.7286 -115.094 -86.1463 69.6692 
-114.998 -85.2012 68.608 -115.085 -84.5622 67.5202 -115.276 -83.9543 66.563 
-122.483 -98.6135 61.7464 -121.883 -98.8339 61.7073 -121.343 -99.0092 61.6121 
-120.83 -99.1633 61.3409 -120.134 -99.2439 61.1322 -119.313 -99.1952 61.2161 
-118.63 -99.0454 61.4449 -118.171 -98.8479 61.6799 -117.876 -98.6077 62.0042 
-122.904 -99.8812 62.4252 -122.682 -101.771 63.1501 -122.621 -104.074 63.3463 
-122.806 -106.218 62.5419 -122.983 -107.633 61.7487 -122.93 -108.868 62.1217 
-122.654 -110.501 63.2083 -122.295 -112.006 64.1437 -121.943 -112.817 64.903 
-122.406 -96.8519 61.529 -121.418 -95.1315 61.1474 -120.4 -93.4416 60.342 
-119.583 -92.0766 59.2109 -118.664 -90.8342 58.3378 -117.615 -89.6052 57.6247 
-116.795 -88.6048 56.7605 -116.15 -87.716 56.1185 -115.441 -86.7472 55.9417 
-118.162 -99.9468 63.0264 -118.72 -101.488 63.4338 -119.478 -102.946 63.8526 
-120.066 -104.856 64.2043 -120.241 -107.117 64.2045 -120.415 -108.843 64.2104 
-120.78 -109.953 64.6425 -121.053 -111.033 65.1063 -121.246 -112.169 65.3574 
-117.165 -96.9847 61.3711 -116.49 -95.7836 60.2047 -115.899 -94.6489 59.1175 
-115.445 -93.3266 58.0232 -115.038 -92.0389 56.9141 -114.787 -91.0392 56.0302 
-114.729 -89.8576 55.4678 -114.69 -88.2847 55.251 -114.645 -86.847 55.4628 
-120.876 -108.728 77.9464 -120.726 -109.738 76.9256 -120.769 -110.884 75.7002 
-120.832 -111.995 74.4365 -120.786 -112.897 73.0434 -120.874 -113.652 71.5036 
-121.181 -114.082 69.9807 -121.464 -114.004 68.4277 -121.583 -113.616 66.9142 
-114.975 -82.6479 64.809 -114.509 -82.1564 63.5816 -114.098 -81.8526 62.2281 
-113.775 -81.579 60.724 -113.417 -81.3257 59.1195 -113.238 -81.6615 57.8434 
-113.521 -82.7725 57.168 -113.985 -83.9943 56.7986 -114.335 -84.9518 56.4079 
-121.495 -88.7105 65.9676 -121.592 -89.0913 67.0767 -122.194 -89.9003 66.8827 
-121.555 -89.5073 68.1984 -122.187 -90.4395 68.0328 -122.753 -91.2446 67.8247 
-121.483 -89.9467 69.2516 -121.979 -91.107 68.9775 -122.603 -91.9515 68.8543 
-123.042 -93.0141 68.5222 -121.486 -90.5628 70.411 -121.635 -91.9521 69.8453 
-122.11 -92.9892 69.5453 -122.803 -93.84 69.3976 -123.154 -95.1473 68.9442 
-121.473 -91.3442 71.5758 -121.439 -92.807 70.9459 -121.6 -94.0786 70.3472 
-122.291 -94.905 70.1402 -122.892 -95.9589 69.8968 -123.106 -97.333 69.4224 
-121.269 -92.147 72.4461 -121.366 -93.5389 72.072 -121.512 -94.8236 71.5287 
-122.066 -95.729 71.1594 -122.707 -96.66 70.9533 -122.962 -97.9359 70.525 
-123.135 -99.1118 70.046 -120.938 -92.9118 73.1125 -121.168 -94.2387 72.9415 
-121.555 -95.4024 72.7118 -122.167 -96.2772 72.4013 -122.773 -97.1572 72.1453 
-123.094 -98.3368 71.7789 -123.222 -99.5182 71.214 -123.444 -100.403 70.6784 
-120.721 -86.207 65.1941 -120.325 -85.1175 65.3928 -120.804 -86.4272 66.3797 
-119.575 -84.3474 65.5408 -120.341 -85.3726 66.5819 -120.649 -86.9113 67.5157 
-118.855 -83.613 65.6565 -119.685 -84.54 66.791 -120.199 -85.9669 67.7231 
-120.532 -87.4708 68.6213 -118.411 -82.807 66.1085 -119.071 -83.7097 67.2436 
-119.743 -85.0292 68.1627 -120.153 -86.6089 68.9523 -120.619 -88.0329 69.9086 
-117.793 -82.2143 66.7453 -118.459 -83.0239 67.8426 -119.181 -84.1527 68.7747 
-119.777 -85.6381 69.4979 -120.166 -87.2327 70.3103 -120.694 -88.6861 71.2377 
-116.923 -82.1248 67.038 -117.703 -82.7401 68.1295 -118.447 -83.6743 69.1758 
-119.187 -84.8941 70.0007 -119.707 -86.4013 70.7429 -120.133 -87.9289 71.5963 
-120.637 -89.376 72.3066 -116.228 -82.5879 66.9699 -116.975 -82.931 68.0715 
-117.702 -83.5863 69.3031 -118.424 -84.5405 70.3879 -119.106 -85.8183 71.1652 
-119.655 -87.2535 71.933 -120.14 -88.6279 72.6898 -120.544 -90.0597 73.1576 
-115.699 -84.0556 67.7069 -115.55 -84.7057 68.8278 -116.294 -84.2025 69.0618 
-115.573 -85.5392 69.9401 -116.213 -84.9962 70.2575 -116.948 -84.5266 70.6084 
-115.674 -86.6726 70.9706 -116.287 -86.1238 71.2029 -116.909 -85.513 71.665 
-117.609 -85.2293 71.9155 -115.579 -87.7988 72.0718 -116.314 -87.413 72.1821 
-116.98 -86.8645 72.4871 -117.632 -86.3614 72.8765 -118.392 -86.3776 72.7831 
-115.513 -88.9572 73.1134 -116.207 -88.5924 73.3146 -116.961 -88.2262 73.5317 
-117.658 -87.7153 73.871 -118.435 -87.4864 73.901 -119.192 -87.6934 73.5172 
-115.679 -90.3944 73.9587 -116.273 -89.9324 74.1981 -116.95 -89.5809 74.4514 
-117.619 -89.145 74.8353 -118.374 -88.7842 74.9693 -119.186 -88.7972 74.6662 
[...]
POINT_DATA 1002
FIELD FieldData 2
Theta 1 1002 float
2.58802 2.58802 0.553574 0.553574 2.12437 1.01722 2.12437 1.01722 1.5708 
1.5708 1.5708 1.5708 2.68241 2.78649 2.89924 3.01861 3.14159 3.01861 
2.89924 2.78649 2.68241 2.61035 2.61791 2.60515 2.56958 2.51327 2.44184 
2.36202 2.27983 2.1997 2.61035 2.61791 2.60515 2.56958 2.51327 2.44184 
2.36202 2.27983 2.1997 2.50947 2.41899 2.31794 2.20864 2.0944 1.97902 
1.86631 1.75944 1.66056 2.50947 2.41899 2.31794 2.20864 2.0944 1.97902 
1.86631 1.75944 1.66056 2.61035 2.61791 2.60515 2.56958 2.51327 2.44184 
2.36202 2.27983 2.1997 2.61035 2.61791 2.60515 2.56958 2.51327 2.44184 
2.36202 2.27983 2.1997 2.50947 2.41899 2.31794 2.20864 2.0944 1.97902 
1.86631 1.75944 1.66056 2.50947 2.41899 2.31794 2.20864 2.0944 1.97902 
1.86631 1.75944 1.66056 0.459179 0.355101 0.242354 0.122983 0 0.122983 
0.242354 0.355101 0.459179 0.531246 0.523681 0.536438 0.57201 0.628319 0.699757 
0.779574 0.86176 0.941896 0.531246 0.523681 0.536438 0.57201 0.628319 0.699757 
0.779574 0.86176 0.941896 0.632123 0.7226 0.823657 0.932948 1.0472 1.16257 
1.27528 1.38216 1.48103 0.632123 0.7226 0.823657 0.932948 1.0472 1.16257 
1.27528 1.38216 1.48103 0.531246 0.523681 0.536438 0.57201 0.628319 0.699757 
0.779574 0.86176 0.941896 0.531246 0.523681 0.536438 0.57201 0.628319 0.699757 
0.779574 0.86176 0.941896 0.632123 0.7226 0.823657 0.932948 1.0472 1.16257 
1.27528 1.38216 1.48103 0.632123 0.7226 0.823657 0.932948 1.0472 1.16257 
1.27528 1.38216 1.48103 2.02998 1.9259 1.81315 1.69378 1.5708 1.44781 
1.32844 1.2157 1.11162 2.0928 2.05283 2.00422 1.94767 1.88496 1.81867 
1.75177 1.68695 1.62623 2.0928 2.05283 2.00422 1.94767 1.88496 1.81867 
1.75177 1.68695 1.62623 1.0488 1.08876 1.13737 1.19392 1.25664 1.32292 
1.38982 1.45464 1.51537 1.0488 1.08876 1.13737 1.19392 1.25664 1.32292 
1.38982 1.45464 1.51537 2.02998 1.9259 1.81315 1.69378 1.5708 1.44781 
1.32844 1.2157 1.11162 2.0928 2.05283 2.00422 1.94767 1.88496 1.81867 
1.75177 1.68695 1.62623 2.0928 2.05283 2.00422 1.94767 1.88496 1.81867 
1.75177 1.68695 1.62623 1.0488 1.08876 1.13737 1.19392 1.25664 1.32292 
1.38982 1.45464 1.51537 1.0488 1.08876 1.13737 1.19392 1.25664 1.32292 
1.38982 1.45464 1.51537 1.5708 1.5708 1.5708 1.5708 1.5708 1.5708 
1.5708 1.5708 1.5708 1.5708 1.5708 1.5708 1.5708 1.5708 1.5708 
1.5708 1.5708 1.5708 2.70908 2.71362 2.81592 2.68886 2.81002 2.92597 
2.6349 2.76254 2.89233 3.01997 2.55881 2.68262 2.80854 2.92834 3.01997 
2.47007 2.58462 2.70048 2.80854 2.89233 2.92597 2.37702 2.48017 2.58462 
2.68262 2.76254 2.81002 2.81592 2.28567 2.37702 2.47007 2.55881 2.6349 
2.68886 2.71362 2.70908 2.52097 2.4195 2.51718 2.30791 2.40503 2.49426 
2.18928 2.28408 2.3734 2.45144 2.06758 2.15805 2.24572 2.32523 2.39165 
1.94707 2.03138 2.11543 2.19453 2.26401 2.32035 1.83164 1.90847 1.98711 
2.06376 2.13422 2.1949 2.24359 1.72413 1.79288 1.86489 1.93728 2.00658 
2.06938 2.12312 2.16654 1.5708 1.50988 1.63171 1.44492 1.5708 1.69667 
1.37826 1.5059 1.63569 1.76333 1.31281 1.43962 1.5708 1.70197 1.82878 
1.25155 1.37501 1.50478 1.63681 1.76659 1.89004 1.19686 1.31493 1.44074 
1.5708 1.70086 1.82666 1.94473 1.15011 1.26149 1.38136 1.50697 1.63462 
1.76024 1.88011 1.99148 1.99148 1.88011 1.94473 1.76024 1.82666 1.89004 
1.63462 1.70086 1.76659 1.82878 1.50697 1.5708 1.63681 1.70197 1.76333 
1.38136 1.44074 1.50478 1.5708 1.63569 1.69667 1.26149 1.31493 1.37501 
1.43962 1.5059 1.5708 1.63171 1.15011 1.19686 1.25155 1.31281 1.37826 
1.44492 1.50988 1.5708 2.16654 2.12312 2.24359 2.06938 2.1949 2.32035 
2.00658 2.13422 2.26401 2.39165 1.93728 2.06376 2.19453 2.32523 2.45144 
1.86489 1.98711 2.11543 2.24572 2.3734 2.49426 1.79288 1.90847 2.03138 
2.15805 2.28408 2.40503 2.51718 1.72413 1.83164 1.94707 2.06758 2.18928 
2.30791 2.4195 2.52097 1.66533 1.66946 1.76911 1.67254 1.777 1.88041 
1.67418 1.78222 1.89102 1.99634 1.67418 1.78405 1.89674 2.00785 2.11299 
1.67254 1.78222 1.89674 2.01191 2.12307 2.22608 1.66946 1.777 1.89102 
2.00785 2.12307 2.23222 2.33166 1.66533 1.76911 1.88041 1.99634 2.11299 
2.22608 2.33166 2.42672 1.47626 1.37249 1.47213 1.26118 1.36459 1.46906 
1.14526 1.25058 1.35938 1.46741 1.0286 1.13374 1.24485 1.35755 1.46741 
0.915514 1.01852 1.12969 1.24485 1.35938 1.46906 0.809937 0.909371 1.01852 
1.13374 1.25058 1.36459 1.47213 0.714871 0.809937 0.915514 1.0286 1.14526 
1.26118 1.37249 1.47626 0.975055 0.898002 1.01847 0.821245 0.946693 1.07221 
0.749941 0.877585 1.00737 1.13501 0.690152 0.816367 0.94706 1.07784 1.20431 
0.647337 0.768195 0.895868 1.02616 1.15448 1.2767 0.624416 0.736561 0.857515 
0.983547 1.11021 1.23313 1.34871 0.620619 0.722093 0.833684 0.952313 1.07402 
1.19452 1.30996 1.41746 0.855925 0.764569 0.764569 0.671524 0.661425 0.671524 
0.582786 0.556971 0.556971 0.582786 0.506696 0.458968 0.441109 0.458968 0.506696 
0.45273 0.379052 0.333054 0.333054 0.379052 0.45273 0.427969 0.331576 0.249267 
0.21325 0.249267 0.331576 0.427969 0.432512 0.325669 0.215619 0.121622 0.121622 
0.215619 0.325669 0.432512 0.432512 0.427969 0.325669 0.45273 0.331576 0.215619 
0.506696 0.379052 0.249267 0.121622 0.582786 0.458968 0.333054 0.21325 0.121622 
0.671524 0.556971 0.441109 0.333054 0.249267 0.215619 0.764569 0.661425 0.556971 
0.458968 0.379052 0.331576 0.325669 0.855925 0.764569 0.671524 0.582786 0.506696 
0.45273 0.427969 0.432512 0.975055 1.01847 0.898002 1.07221 0.946693 0.821245 
1.13501 1.00737 0.877585 0.749941 1.20431 1.07784 0.94706 0.816367 0.690152 
1.2767 1.15448 1.02616 0.895868 0.768195 0.647337 1.34871 1.23313 1.11021 
0.983547 0.857515 0.736561 0.624416 1.41746 1.30996 1.19452 1.07402 0.952313 
0.833684 0.722093 0.620619 1.15011 1.26149 1.19686 1.38136 1.31493 1.25155 
1.50697 1.44074 1.37501 1.31281 1.63462 1.5708 1.50478 1.43962 1.37826 
1.76024 1.70086 1.63681 1.5708 1.5059 1.44492 1.88011 1.82666 1.76659 
1.70197 1.63569 1.5708 1.50988 1.99148 1.94473 1.89004 1.82878 1.76333 
1.69667 1.63171 1.5708 1.15011 1.19686 1.26149 1.25155 1.31493 1.38136 
1.31281 1.37501 1.44074 1.50697 1.37826 1.43962 1.50478 1.5708 1.63462 
1.44492 1.5059 1.5708 1.63681 1.70086 1.76024 1.50988 1.5708 1.63569 
1.70197 1.76659 1.82666 1.88011 1.5708 1.63171 1.69667 1.76333 1.82878 
1.89004 1.94473 1.99148 1.72413 1.83164 1.79288 1.94707 1.90847 1.86489 
2.06758 2.03138 1.98711 1.93728 2.18928 2.15805 2.11543 2.06376 2.00658 
2.30791 2.28408 2.24572 2.19453 2.13422 2.06938 2.4195 2.40503 2.3734 
2.32523 2.26401 2.1949 2.12312 2.52097 2.51718 2.49426 2.45144 2.39165 
2.32035 2.24359 2.16654 2.70908 2.81592 2.71362 2.92597 2.81002 2.68886 
3.01997 2.89233 2.76254 2.6349 3.01997 2.92834 2.80854 2.68262 2.55881 
2.92597 2.89233 2.80854 2.70048 2.58462 2.47007 2.81592 2.81002 2.76254 
2.68262 2.58462 2.48017 2.37702 2.70908 2.71362 2.68886 2.6349 2.55881 
2.47007 2.37702 2.28567 2.16654 2.24359 2.12312 2.32035 2.1949 2.06938 
2.39165 2.26401 2.13422 2.00658 2.45144 2.32523 2.19453 2.06376 1.93728 
2.49426 2.3734 2.24572 2.11543 1.98711 1.86489 2.51718 2.40503 2.28408 
2.15805 2.03138 1.90847 1.79288 2.52097 2.4195 2.30791 2.18928 2.06758 
1.94707 1.83164 1.72413 1.66533 1.76911 1.66946 1.88041 1.777 1.67254 
1.99634 1.89102 1.78222 1.67418 2.11299 2.00785 1.89674 1.78405 1.67418 
2.22608 2.12307 2.01191 1.89674 1.78222 1.67254 2.33166 2.23222 2.12307 
2.00785 1.89102 1.777 1.66946 2.42672 2.33166 2.22608 2.11299 1.99634 
1.88041 1.76911 1.66533 1.47626 1.47213 1.37249 1.46906 1.36459 1.26118 
1.46741 1.35938 1.25058 1.14526 1.46741 1.35755 1.24485 1.13374 1.0286 
1.46906 1.35938 1.24485 1.12969 1.01852 0.915514 1.47213 1.36459 1.25058 
1.13374 1.01852 0.909371 0.809937 1.47626 1.37249 1.26118 1.14526 1.0286 
0.915514 0.809937 0.714871 1.41746 1.30996 1.34871 1.19452 1.23313 1.2767 
1.07402 1.11021 1.15448 1.20431 0.952313 0.983547 1.02616 1.07784 1.13501 
0.833684 0.857515 0.895868 0.94706 1.00737 1.07221 0.722093 0.736561 0.768195 
0.816367 0.877585 0.946693 1.01847 0.620619 0.624416 0.647337 0.690152 0.749941 
0.821245 0.898002 0.975055 0.975055 0.898002 1.01847 0.821245 0.946693 1.07221 
0.749941 0.877585 1.00737 1.13501 0.690152 0.816367 0.94706 1.07784 1.20431 
0.647337 0.768195 0.895868 1.02616 1.15448 1.2767 0.624416 0.736561 0.857515 
0.983547 1.11021 1.23313 1.34871 0.620619 0.722093 0.833684 0.952313 1.07402 
1.19452 1.30996 1.41746 
Phi 1 1002 float
6.28319 3.14159 6.28319 3.14159 4.71239 4.71239 1.5708 1.5708 3.69517 
5.72961 2.58802 0.553574 6.28319 6.28319 6.28319 6.28319 3.14159 3.14159 
3.14159 3.14159 3.14159 6.1053 5.8988 5.67687 5.45995 5.26596 5.10322 
4.97131 4.86569 4.78095 0.177881 0.384387 0.606312 0.823235 1.01722 1.17997 
1.31187 1.4175 1.50223 6.18928 6.10703 6.03531 5.97283 5.91832 5.87061 
5.82869 5.79168 5.75886 0.0939024 0.176153 0.247873 0.310351 0.364864 0.412573 
0.454497 0.491504 0.524326 3.31947 3.52598 3.7479 3.96483 4.15881 4.32156 
4.45346 4.55909 4.64383 2.96371 2.75721 2.53528 2.31836 2.12437 1.96162 
1.82972 1.72409 1.63936 3.2355 3.31775 3.38947 3.45194 3.50646 3.55417 
3.59609 3.6331 3.66592 3.04769 2.96544 2.89372 2.83124 2.77673 2.72902 
2.6871 2.65009 2.61727 6.28319 6.28319 6.28319 6.28319 3.14159 3.14159 
3.14159 3.14159 3.14159 6.1053 5.8988 5.67687 5.45995 5.26596 5.10322 
4.97131 4.86569 4.78095 0.177881 0.384387 0.606312 0.823235 1.01722 1.17997 
1.31187 1.4175 1.50223 6.18928 6.10703 6.03531 5.97283 5.91832 5.87061 
5.82869 5.79168 5.75886 0.0939024 0.176153 0.247873 0.310351 0.364864 0.412573 
0.454497 0.491504 0.524326 3.31947 3.52598 3.7479 3.96483 4.15881 4.32156 
4.45346 4.55909 4.64383 2.96371 2.75721 2.53528 2.31836 2.12437 1.96162 
1.82972 1.72409 1.63936 3.2355 3.31775 3.38947 3.45194 3.50646 3.55417 
3.59609 3.6331 3.66592 3.04769 2.96544 2.89372 2.83124 2.77673 2.72902 
2.6871 2.65009 2.61727 4.71239 4.71239 4.71239 4.71239 4.71239 4.71239 
4.71239 4.71239 4.71239 4.60879 4.49914 4.3857 4.27128 4.15881 4.05096 
3.94976 3.85646 3.77161 4.81599 4.92564 5.03907 5.1535 5.26596 5.37381 
5.47502 5.56831 5.65317 4.60879 4.49914 4.3857 4.27128 4.15881 4.05096 
3.94976 3.85646 3.77161 4.81599 4.92564 5.03907 5.1535 5.26596 5.37381 
5.47502 5.56831 5.65317 1.5708 1.5708 1.5708 1.5708 1.5708 1.5708 
1.5708 1.5708 1.5708 1.6744 1.78405 1.89748 2.01191 2.12437 2.23222 
2.33343 2.42672 2.51157 1.4672 1.35755 1.24411 1.12969 1.01722 0.909371 
0.808166 0.714871 0.63002 1.6744 1.78405 1.89748 2.01191 2.12437 2.23222 
2.33343 2.42672 2.51157 1.4672 1.35755 1.24411 1.12969 1.01722 0.909371 
0.808166 0.714871 0.63002 3.60077 3.49669 3.38395 3.26458 3.14159 3.01861 
2.89924 2.78649 2.68241 5.82401 5.92808 6.04083 6.1602 6.28319 0.122983 
0.242354 0.355101 0.459179 6.05603 5.78856 5.97021 5.51259 5.60297 5.78856 
5.26596 5.26596 5.26596 5.26596 5.06749 5.0121 4.91556 4.71239 4.15881 
4.91556 4.83537 4.71239 4.50922 4.15881 3.63622 4.80045 4.71239 4.58941 
4.41268 4.15881 3.82181 3.45456 4.71239 4.62433 4.50922 4.35729 4.15881 
3.91219 3.63622 3.36875 6.01742 5.94343 5.82633 5.88092 5.76745 5.62798 
5.8278 5.71897 5.58911 5.43724 5.78235 5.67854 5.55757 5.41926 5.26596 
5.74316 5.64441 5.5315 5.40467 5.26596 5.11955 5.70914 5.61528 5.50962 
5.3926 5.26596 5.13292 4.99789 5.67937 5.59016 5.49102 5.38246 5.26596 
5.14407 5.02016 4.89798 5.56831 5.47502 5.47502 5.37381 5.37381 5.37381 
5.26596 5.26596 5.26596 5.26596 5.1535 5.1535 5.1535 5.1535 5.1535 
5.03907 5.03907 5.03907 5.03907 5.03907 5.03907 4.92564 4.92564 4.92564 
4.92564 4.92564 4.92564 4.92564 4.81599 4.81599 4.81599 4.81599 4.81599 
4.81599 4.81599 4.81599 4.60879 4.60879 4.49914 4.60879 4.49914 4.3857 
4.60879 4.49914 4.3857 4.27128 4.60879 4.49914 4.3857 4.27128 4.15881 
4.60879 4.49914 4.3857 4.27128 4.15881 4.05096 4.60879 4.49914 4.3857 
4.27128 4.15881 4.05096 3.94976 4.60879 4.49914 4.3857 4.27128 4.15881 
4.05096 3.94976 3.85646 4.5268 4.40462 4.42689 4.28071 4.29185 4.30523 
4.15881 4.15881 4.15881 4.15881 4.04232 4.03217 4.02011 4.00552 3.98753 
3.93376 3.91515 3.89328 3.86721 3.83566 3.7968 3.83461 3.8095 3.78037 
3.74624 3.70581 3.65733 3.59845 3.7454 3.71564 3.68161 3.64243 3.59698 
3.54386 3.48135 3.40735 3.56428 3.45246 3.52338 3.33203 3.40312 3.47739 
3.20576 3.27463 3.34802 3.42551 3.07742 3.14159 3.21128 3.28647 3.36688 
2.95116 3.00855 3.0719 3.14159 3.21784 3.3006 2.83072 2.88006 2.93517 
2.99672 3.06535 3.14159 3.22575 2.7189 2.7598 2.8058 2.85768 2.9163 
2.98259 3.05743 3.14159 3.56428 3.52338 3.45246 3.47739 3.40312 3.33203 
3.42551 3.34802 3.27463 3.20576 3.36688 3.28647 3.21128 3.14159 3.07742 
3.3006 3.21784 3.14159 3.0719 3.00855 2.95116 3.22575 3.14159 3.06535 
2.99672 2.93517 2.88006 2.83072 3.14159 3.05743 2.98259 2.9163 2.85768 
2.8058 2.7598 2.7189 4.5268 4.42689 4.40462 4.30523 4.29185 4.28071 
4.15881 4.15881 4.15881 4.15881 3.98753 4.00552 4.02011 4.03217 4.04232 
3.7968 3.83566 3.86721 3.89328 3.91515 3.93376 3.59845 3.65733 3.70581 
3.74624 3.78037 3.8095 3.83461 3.40735 3.48135 3.54386 3.59698 3.64243 
3.68161 3.71564 3.7454 4.71239 4.80045 4.62433 4.91556 4.71239 4.50922 
5.06749 4.83537 4.58941 4.35729 5.26596 5.0121 4.71239 4.41268 4.15881 
5.51259 5.26596 4.91556 4.50922 4.15881 3.91219 5.78856 5.60297 5.26596 
4.71239 4.15881 3.82181 3.63622 6.05603 5.97021 5.78856 5.26596 4.15881 
3.63622 3.45456 3.36875 0.227158 0.494626 0.312971 0.770593 0.680215 0.494626 
1.01722 1.01722 1.01722 1.01722 1.2157 1.27109 1.36763 1.5708 2.12437 
1.36763 1.44781 1.5708 1.77397 2.12437 2.64697 1.48273 1.5708 1.69378 
1.8705 2.12437 2.46138 2.82862 1.5708 1.65886 1.77397 1.9259 2.12437 
2.371 2.64697 2.91443 1.75639 1.87857 1.8563 2.00248 1.99133 1.97796 
2.12437 2.12437 2.12437 2.12437 2.24087 2.25101 2.26308 2.27767 2.29565 
2.34943 2.36803 2.38991 2.41597 2.44752 2.48639 2.44857 2.47368 2.50281 
2.53694 2.57738 2.62586 2.68474 2.53778 2.56754 2.60157 2.64076 2.68621 
2.73933 2.80184 2.87583 1.6744 1.6744 1.78405 1.6744 1.78405 1.89748 
1.6744 1.78405 1.89748 2.01191 1.6744 1.78405 1.89748 2.01191 2.12437 
1.6744 1.78405 1.89748 2.01191 2.12437 2.23222 1.6744 1.78405 1.89748 
2.01191 2.12437 2.23222 2.33343 1.6744 1.78405 1.89748 2.01191 2.12437 
2.23222 2.33343 2.42672 1.4672 1.35755 1.4672 1.24411 1.35755 1.4672 
1.12969 1.24411 1.35755 1.4672 1.01722 1.12969 1.24411 1.35755 1.4672 
0.909371 1.01722 1.12969 1.24411 1.35755 1.4672 0.808166 0.909371 1.01722 
1.12969 1.24411 1.35755 1.4672 0.714871 0.808166 0.909371 1.01722 1.12969 
1.24411 1.35755 1.4672 0.603812 0.57405 0.693022 0.540021 0.667908 0.792164 
0.500837 0.638778 0.773562 0.900726 0.455383 0.604649 0.751687 0.890581 1.01722 
0.402264 0.564217 0.725619 0.878514 1.01722 1.13912 0.339753 0.515737 0.694072 
0.863926 1.01722 1.15026 1.26302 0.265762 0.456853 0.655207 0.845941 1.01722 
1.16363 1.28529 1.38521 0.227158 0.312971 0.494626 0.494626 0.680215 0.770593 
1.01722 1.01722 1.01722 1.01722 2.12437 1.5708 1.36763 1.27109 1.2157 
2.64697 2.12437 1.77397 1.5708 1.44781 1.36763 2.82862 2.46138 2.12437 
1.8705 1.69378 1.5708 1.48273 2.91443 2.64697 2.371 2.12437 1.9259 
1.77397 1.65886 1.5708 1.75639 1.8563 1.87857 1.97796 1.99133 2.00248 
2.12437 2.12437 2.12437 2.12437 2.29565 2.27767 2.26308 2.25101 2.24087 
2.48639 2.44752 2.41597 2.38991 2.36803 2.34943 2.68474 2.62586 2.57738 
2.53694 2.50281 2.47368 2.44857 2.87583 2.80184 2.73933 2.68621 2.64076 
2.60157 2.56754 2.53778 5.86049 5.90139 5.97231 5.94739 6.02165 6.09275 
5.99927 6.07676 6.15015 6.21902 6.0579 6.13831 6.2135 0 0.0641696 
6.12418 6.20694 6.28319 0.069689 0.13304 0.190437 6.19903 0 0.0762451 
0.144876 0.206423 0.261531 0.310872 0 0.0841597 0.159004 0.225289 0.283913 
0.335793 0.381792 0.422692 5.86049 5.97231 5.90139 6.09275 6.02165 5.94739 
6.21902 6.15015 6.07676 5.99927 0.0641696 0 6.2135 6.13831 6.0579 
0.190437 0.13304 0.069689 6.28319 6.20694 6.12418 0.310872 0.261531 0.206423 
0.144876 0.0762451 6.28319 6.19903 0.422692 0.381792 0.335793 0.283913 0.225289 
0.159004 0.0841597 0 5.67937 5.70914 5.59016 5.74316 5.61528 5.49102 
5.78235 5.64441 5.50962 5.38246 5.8278 5.67854 5.5315 5.3926 5.26596 
5.88092 5.71897 5.55757 5.40467 5.26596 5.14407 5.94343 5.76745 5.58911 
5.41926 5.26596 5.13292 5.02016 6.01742 5.82633 5.62798 5.43724 5.26596 
5.11955 4.99789 4.89798 1.38521 1.28529 1.26302 1.16363 1.15026 1.13912 
1.01722 1.01722 1.01722 1.01722 0.845941 0.863926 0.878514 0.890581 0.900726 
0.655207 0.694072 0.725619 0.751687 0.773562 0.792164 0.456853 0.515737 0.564217 
0.604649 0.638778 0.667908 0.693022 0.265762 0.339753 0.402264 0.455383 0.500837 
0.540021 0.57405 0.603812 
