# vtk DataFile Version 4.0
vtk output
ASCII
DATASET POLYDATA
POINTS 1002 float
-123.778 -88.6965 69.7264 -126.673 -104.65 74.5122 -113.201 -93.1208 69.783 
-120.303 -105.09 75.7133 -124.051 -94.1961 80.0777 -118.502 -96.822 80.3826 
-124.931 -100.389 66.7527 -119.422 -99.7408 66.9623 -123.97 -109.878 82.5101 
-117.83 -85.6172 72.5454 -124.749 -114.257 69.3574 -115.819 -87.8198 61.9187 
-124.327 -89.7725 70.2646 -125.08 -90.8509 70.7486 -125.796 -92.0513 71.16 
-126.083 -93.7067 71.7747 -126.164 -95.6905 72.621 -126.497 -97.518 73.2686 
-126.832 -99.2642 73.6302 -126.85 -101.194 73.9642 -126.728 -103.086 74.2847 
-124.039 -88.7157 70.6254 -124.236 -88.8809 71.7059 -124.307 -89.3214 72.8857 
-124.274 -89.907 74.0336 -124.12 -90.5332 75.0924 -123.902 -91.3616 76.0744 
-123.83 -92.2915 77.0704 -123.928 -93.0092 78.1529 -124.026 -93.5701 79.2083 
-123.861 -89.3247 69.2081 -123.995 -90.0057 68.6459 -124.101 -90.9265 68.1499 
-124.175 -92.1219 67.8492 -124.245 -93.4135 67.6462 -124.301 -94.738 67.3759 
-124.399 -96.076 67.106 -124.598 -97.3996 66.95 -124.81 -98.8325 66.8651 
-123.473 -87.6097 69.744 -123.089 -86.5665 69.8922 -122.518 -85.7874 70.2289 
-121.834 -85.2193 70.6322 -121.11 -84.6319 70.9875 -120.236 -84.1149 71.3905 
-119.255 -84.0171 71.8669 -118.466 -84.3986 72.2427 -118.032 -85.0023 72.441 
-123.3 -88.0422 68.9135 -122.674 -87.466 68.1565 -121.747 -87.1301 67.4294 
-120.669 -86.9314 66.5728 -119.782 -86.5949 65.5645 -119.043 -86.3069 64.6342 
-118.23 -86.4683 63.8388 -117.393 -86.9455 63.0519 -116.604 -87.3995 62.3571 
-126.801 -103.585 75.4747 -126.773 -102.515 76.3827 -126.437 -101.608 76.9061 
-126.12 -100.602 77.2765 -126.069 -99.1839 77.9669 -125.868 -97.8288 78.7041 
-125.295 -97.0155 79.0716 -124.724 -96.3063 79.3196 -124.349 -95.2917 79.6969 
-126.632 -104.715 73.5844 -126.694 -104.591 72.7209 -126.73 -104.293 71.6611 
-126.671 -103.889 70.4602 -126.599 -103.419 69.4813 -126.535 -102.882 68.6437 
-126.408 -102.272 67.7544 -126.123 -101.644 67.0938 -125.608 -101.037 66.8419 
-126.76 -105.412 75.3492 -126.797 -106.253 76.3193 -126.63 -107.183 77.1718 
-126.38 -108.04 77.866 -126.259 -108.794 78.7635 -126.105 -109.414 79.8301 
-125.676 -109.748 80.6085 -125.075 -109.883 81.1953 -124.491 -109.964 81.8905 
-126.658 -106.111 74.0703 -126.802 -107.516 73.5993 -126.941 -108.92 73.0696 
-126.824 -110.378 72.4907 -126.678 -111.836 71.8654 -126.78 -113.296 71.0546 
-126.701 -114.556 70.1233 -126.105 -115.103 69.4717 -125.339 -114.85 69.2785 
-114.263 -93.7533 70.1077 -115.37 -94.5262 70.6641 -116.291 -95.4324 71.4765 
-117.167 -96.4561 72.4215 -117.946 -97.9126 73.3411 -118.373 -99.8268 74.0626 
-118.718 -101.569 74.5475 -119.285 -102.851 74.9736 -119.879 -103.96 75.4021 
-113.755 -93.2159 70.671 -114.257 -93.3774 71.7855 -114.628 -93.6425 73.1191 
-114.936 -94.0267 74.5856 -115.21 -94.4127 76.0497 -115.662 -94.7229 77.2406 
-116.563 -95.1373 78.0304 -117.567 -95.7531 78.7214 -118.179 -96.3683 79.5555 
-113.385 -93.4259 69.1331 -113.811 -93.8157 68.5167 -114.301 -94.3908 67.9495 
-114.721 -95.0913 67.4319 -115.234 -95.8266 67.0878 -116.014 -96.5817 66.955 
-116.908 -97.3582 66.8467 -117.766 -98.155 66.7507 -118.616 -98.95 66.81 
-112.817 -92.4077 70.0278 -112.911 -91.3895 70.1624 -113.34 -90.2504 70.167 
-113.892 -89.2842 70.28 -114.495 -88.5212 70.6119 -115.131 -87.7695 70.9787 
-115.852 -86.9986 71.3032 -116.643 -86.3692 71.6669 -117.321 -85.9427 72.0873 
-112.394 -92.6823 69.1081 -111.935 -92.1299 68.2775 -111.845 -91.4726 67.1656 
-111.88 -90.7783 65.8243 -112.051 -90.0541 64.4671 -112.477 -89.4533 63.3743 
-113.045 -89.06 62.6919 -113.776 -88.6318 62.2768 -114.762 -88.1265 61.9955 
-119.811 -104.795 76.23 -119.182 -104.515 76.7308 -118.701 -103.988 77.4184 
-118.467 -103.214 78.2828 -118.266 -102.378 79.1196 -118.054 -101.352 79.8428 
-118.043 -100.098 80.344 -118.225 -98.9203 80.5013 -118.399 -97.8773 80.4477 
-120.437 -104.734 74.9378 -120.606 -104.289 74.078 -120.872 -103.695 73.2296 
-121.031 -103.064 72.3941 -120.963 -102.447 71.4811 -120.867 -101.727 70.4604 
-120.722 -101.039 69.3855 -120.328 -100.588 68.384 -119.808 -100.219 67.5846 
-120.415 -106.038 76.3079 -120.532 -107.04 76.9733 -120.625 -108.08 77.7774 
-120.722 -109.06 78.7248 -121.019 -109.718 79.6616 -121.589 -109.924 80.4251 
-122.233 -109.963 81.1339 -122.851 -110.095 81.8966 -123.459 -110.152 82.4433 
-120.649 -106.193 75.367 -120.834 -107.599 74.8015 -121.074 -109.03 74.2363 
-121.612 -110.158 73.794 -122.316 -111.03 73.3016 -122.895 -111.959 72.6247 
-123.375 -112.903 71.8512 -123.861 -113.571 71.0434 -124.31 -113.964 70.1925 
-123.831 -94.061 80.696 -123.483 -94.0771 81.2257 -122.88 -94.1356 81.7319 
-122.047 -94.2678 82.048 -121.322 -94.7337 81.9054 -120.823 -95.3814 81.5215 
-120.219 -95.7646 81.2788 -119.452 -95.9834 81.1063 -118.841 -96.3577 80.7991 
-124.209 -95.6238 80.6542 -124.325 -97.0591 81.2963 -124.369 -98.3453 81.8915 
-124.268 -99.9018 82.2649 -124.065 -101.848 82.472 -123.936 -103.625 82.5604 
-123.959 -105.242 82.5064 -124.059 -107.024 82.491 -124.089 -108.682 82.5692 
-123.728 -92.7971 79.8787 -123.394 -91.5079 79.4858 -122.965 -90.1641 78.8862 
-122.167 -88.6216 78.3567 -121.154 -87.1086 78.0251 -120.45 -86.0358 77.3873 
-119.949 -85.6149 76.1154 -119.261 -85.6314 74.663 -118.488 -85.6801 73.4778 
-118.844 -97.8731 81.0997 -119.472 -98.969 81.6894 -120.236 -100.261 82.2994 
-120.717 -101.872 83.0808 -120.955 -103.543 83.7778 -121.49 -104.94 83.971 
-122.38 -106.228 83.7185 -123.143 -107.617 83.3724 -123.604 -108.905 83.0099 
-118.402 -95.4151 79.8175 -118.267 -93.9598 79.1262 -118.036 -92.6899 78.3555 
-117.794 -91.444 77.6001 -117.706 -90.0106 76.8412 -117.771 -88.7775 75.9371 
-117.925 -87.9601 74.8847 -118.067 -87.1904 73.9088 -118.03 -86.349 73.1639 
-124.527 -100.874 66.5282 -124.136 -101.091 66.1549 -123.701 -101.003 65.8194 
-123.088 -100.932 65.7528 -122.293 -100.919 65.7869 -121.485 -100.634 65.7763 
-120.803 -100.191 65.9566 -120.245 -99.9525 66.3431 -119.776 -99.8681 66.6908 
-125.348 -102.418 66.5549 -125.608 -104.33 66.1432 -125.906 -106.014 65.5155 
-126.275 -107.753 64.8442 -126.375 -109.571 64.7285 -126.099 -111.017 65.4545 
-125.697 -112.098 66.4726 -125.322 -113.117 67.3584 -125.012 -113.901 68.2735 
-124.107 -98.5888 66.5392 -123.311 -96.672 65.8191 -122.649 -94.9488 64.8117 
-121.705 -93.4729 64.1077 -120.263 -92.1536 63.7621 -118.966 -91.0689 63.2714 
-118.206 -90.1157 62.5889 -117.548 -89.1033 62.0633 -116.698 -88.2507 61.844 
-120.321 -101.081 67.3362 -121.096 -102.884 67.5343 -121.695 -104.936 67.7263 
-122.269 -106.747 67.8612 -122.875 -108.268 67.769 -123.28 -109.851 67.6995 
-123.526 -111.355 67.9639 -123.899 -112.5 68.4137 -124.367 -113.435 68.858 
-118.643 -98.7306 66.1179 -117.766 -97.8264 64.9489 -116.858 -96.7743 63.8739 
-116.148 -95.279 63.1687 -115.699 -93.9086 62.4536 -115.424 -92.9898 61.661 
-115.335 -91.684 61.281 -115.409 -89.911 61.3365 -115.574 -88.5628 61.5615 
-124.107 -110.96 81.8524 -124.238 -112.018 80.8149 -124.261 -112.94 79.6175 
-124.169 -113.759 78.3667 -124.121 -114.734 76.8255 -124.178 -115.481 75.1418 
-124.292 -115.447 73.6235 -124.487 -115.032 72.1183 -124.691 -114.691 70.6037 
-117.329 -85.1687 71.4985 -116.903 -84.7347 70.2352 -116.52 -84.3894 69.0589 
-116.028 -84.3588 67.9313 -115.442 -84.551 66.4241 -115.07 -84.7425 64.8706 
-115.106 -85.3155 63.8538 -115.337 -86.3579 63.1328 -115.553 -87.2555 62.441 
-124.518 -89.9568 71.2449 -124.518 -90.3789 72.3575 -125.104 -91.2744 71.7579 
-124.466 -91.0061 73.4593 -124.879 -91.9758 72.8687 -125.632 -92.743 72.2542 
-124.464 -91.6798 74.505 -124.825 -92.6994 73.9414 -125.424 -93.5382 73.4332 
-126.017 -94.4452 73.013 -124.364 -92.4433 75.5927 -124.934 -93.3611 75.1004 
-125.495 -94.1807 74.6045 -126.091 -95.0854 74.2067 -126.451 -96.2229 73.8248 
-124.24 -93.2905 76.6913 -124.918 -94.0606 76.3892 -125.57 -94.7902 75.9206 
-126.104 -95.7437 75.337 -126.58 -96.8524 74.8755 -126.823 -98.0444 74.3473 
-124.276 -94.0185 77.7378 -124.86 -94.7714 77.5186 -125.523 -95.4435 77.2133 
-125.968 -96.5015 76.5289 -126.306 -97.7697 75.8565 -126.681 -98.8955 75.3876 
-126.884 -100.007 74.755 -124.353 -94.6417 78.7532 -124.821 -95.5185 78.4374 
-125.447 -96.1754 78.2174 -125.915 -97.1863 77.668 -126.076 -98.6362 76.8737 
-126.307 -99.8838 76.365 -126.666 -100.857 75.9348 -126.812 -101.927 75.1717 
-123.788 -87.5449 70.7533 -123.372 -86.5172 71.1026 -123.999 -87.7403 71.9844 
-122.712 -85.799 71.6323 -123.449 -86.8349 72.4648 -124.021 -88.2642 73.3039 
-122.048 -85.2484 72.0967 -122.652 -86.2225 72.9957 -123.36 -87.4505 73.8141 
-123.919 -88.817 74.5711 -121.36 -84.7626 72.5237 -121.924 -85.7438 73.4658 
-122.521 -86.8926 74.3073 -123.354 -87.9371 75.1068 -123.779 -89.3984 75.6788 
-120.433 -84.4786 73.0493 -121.209 -85.2796 74.0609 -121.724 -86.3654 74.9331 
-122.633 -87.3151 75.6903 -123.439 -88.4904 76.2584 -123.667 -90.3318 76.6684 
-119.486 -84.5659 73.4436 -120.45 -84.9454 74.6263 -121.03 -85.7172 75.7161 
-121.78 -86.6863 76.4934 -122.827 -87.862 76.9223 -123.438 -89.5137 77.3024 
-123.646 -91.366 77.7454 -118.848 -85.0258 73.5317 -119.797 -85.0542 74.7931 
-120.486 -85.341 76.1688 -121.04 -86.101 77.2062 -121.964 -87.3435 77.6284 
-122.907 -88.9626 77.9082 -123.396 -90.6343 78.4042 -123.691 -92.1354 78.8974 
-118.614 -86.432 74.2291 -118.471 -87.1828 75.2397 -119.201 -86.3484 75.6437 
-118.268 -87.906 76.3113 -118.906 -87.1877 76.668 -119.724 -86.4986 77.0658 
-118.302 -89.076 77.128 -118.811 -88.3403 77.4197 -119.484 -87.8384 77.6942 
-120.349 -87.3454 77.9755 -118.496 -90.7777 77.808 -119.056 -90.0182 78.0628 
-119.54 -89.4471 78.3208 -120.373 -89.0225 78.5166 -121.361 -88.6878 78.5674 
-118.673 -92.2901 78.6178 -119.309 -91.7439 78.9054 -119.734 -91.0199 79.3 
-120.416 -90.4155 79.6174 -121.505 -90.1219 79.6131 -122.418 -90.0711 79.3214 
-118.765 -93.5098 79.5013 -119.42 -93.1284 79.7952 -119.914 -92.5166 80.1852 
-120.404 -91.714 80.6977 -121.365 -91.2541 80.8975 -122.426 -91.2478 80.5815 
[...]
POINT_DATA 1002
FIELD FieldData 2
Theta 1 1002 float
2.58802 2.58802 0.553574 0.553574 2.12437 1.01722 2.12437 1.01722 1.5708 
1.5708 1.5708 1.5708 2.68241 2.78649 2.89924 3.01861 3.14159 3.01861 
2.89924 2.78649 2.68241 2.61035 2.61791 2.60515 2.56958 2.51327 2.44184 
2.36202 2.27983 2.1997 2.61035 2.61791 2.60515 2.56958 2.51327 2.44184 
2.36202 2.27983 2.1997 2.50947 2.41899 2.31794 2.20864 2.0944 1.97902 
1.86631 1.75944 1.66056 2.50947 2.41899 2.31794 2.20864 2.0944 1.97902 
1.86631 1.75944 1.66056 2.61035 2.61791 2.60515 2.56958 2.51327 2.44184 
2.36202 2.27983 2.1997 2.61035 2.61791 2.60515 2.56958 2.51327 2.44184 
2.36202 2.27983 2.1997 2.50947 2.41899 2.31794 2.20864 2.0944 1.97902 
1.86631 1.75944 1.66056 2.50947 2.41899 2.31794 2.20864 2.0944 1.97902 
1.86631 1.75944 1.66056 0.459179 0.355101 0.242354 0.122983 0 0.122983 
0.242354 0.355101 0.459179 0.531246 0.523681 0.536438 0.57201 0.628319 0.699757 
0.779574 0.86176 0.941896 0.531246 0.523681 0.536438 0.57201 0.628319 0.699757 
0.779574 0.86176 0.941896 0.632123 0.7226 0.823657 0.932948 1.0472 1.16257 
1.27528 1.38216 1.48103 0.632123 0.7226 0.823657 0.932948 1.0472 1.16257 
1.27528 1.38216 1.48103 0.531246 0.523681 0.536438 0.57201 0.628319 0.699757 
0.779574 0.86176 0.941896 0.531246 0.523681 0.536438 0.57201 0.628319 0.699757 
0.779574 0.86176 0.941896 0.632123 0.7226 0.823657 0.932948 1.0472 1.16257 
1.27528 1.38216 1.48103 0.632123 0.7226 0.823657 0.932948 1.0472 1.16257 
1.27528 1.38216 1.48103 2.02998 1.9259 1.81315 1.69378 1.5708 1.44781 
1.32844 1.2157 1.11162 2.0928 2.05283 2.00422 1.94767 1.88496 1.81867 
1.75177 1.68695 1.62623 2.0928 2.05283 2.00422 1.94767 1.88496 1.81867 
1.75177 1.68695 1.62623 1.0488 1.08876 1.13737 1.19392 1.25664 1.32292 
1.38982 1.45464 1.51537 1.0488 1.08876 1.13737 1.19392 1.25664 1.32292 
1.38982 1.45464 1.51537 2.02998 1.9259 1.81315 1.69378 1.5708 1.44781 
1.32844 1.2157 1.11162 2.0928 2.05283 2.00422 1.94767 1.88496 1.81867 
1.75177 1.68695 1.62623 2.0928 2.05283 2.00422 1.94767 1.88496 1.81867 
1.75177 1.68695 1.62623 1.0488 1.08876 1.13737 1.19392 1.25664 1.32292 
1.38982 1.45464 1.51537 1.0488 1.08876 1.13737 1.19392 1.25664 1.32292 
1.38982 1.45464 1.51537 1.5708 1.5708 1.5708 1.5708 1.5708 1.5708 
1.5708 1.5708 1.5708 1.5708 1.5708 1.5708 1.5708 1.5708 1.5708 
1.5708 1.5708 1.5708 2.70908 2.71362 2.81592 2.68886 2.81002 2.92597 
2.6349 2.76254 2.89233 3.01997 2.55881 2.68262 2.80854 2.92834 3.01997 
2.47007 2.58462 2.70048 2.80854 2.89233 2.92597 2.37702 2.48017 2.58462 
2.68262 2.76254 2.81002 2.81592 2.28567 2.37702 2.47007 2.55881 2.6349 
2.68886 2.71362 2.70908 2.52097 2.4195 2.51718 2.30791 2.40503 2.49426 
2.18928 2.28408 2.3734 2.45144 2.06758 2.15805 2.24572 2.32523 2.39165 
1.94707 2.03138 2.11543 2.19453 2.26401 2.32035 1.83164 1.90847 1.98711 
2.06376 2.13422 2.1949 2.24359 1.72413 1.79288 1.86489 1.93728 2.00658 
2.06938 2.12312 2.16654 1.5708 1.50988 1.63171 1.44492 1.5708 1.69667 
1.37826 1.5059 1.63569 1.76333 1.31281 1.43962 1.5708 1.70197 1.82878 
1.25155 1.37501 1.50478 1.63681 1.76659 1.89004 1.19686 1.31493 1.44074 
1.5708 1.70086 1.82666 1.94473 1.15011 1.26149 1.38136 1.50697 1.63462 
1.76024 1.88011 1.99148 1.99148 1.88011 1.94473 1.76024 1.82666 1.89004 
1.63462 1.70086 1.76659 1.82878 1.50697 1.5708 1.63681 1.70197 1.76333 
1.38136 1.44074 1.50478 1.5708 1.63569 1.69667 1.26149 1.31493 1.37501 
1.43962 1.5059 1.5708 1.63171 1.15011 1.19686 1.25155 1.31281 1.37826 
1.44492 1.50988 1.5708 2.16654 2.12312 2.24359 2.06938 2.1949 2.32035 
2.00658 2.13422 2.26401 2.39165 1.93728 2.06376 2.19453 2.32523 2.45144 
1.86489 1.98711 2.11543 2.24572 2.3734 2.49426 1.79288 1.90847 2.03138 
2.15805 2.28408 2.40503 2.51718 1.72413 1.83164 1.94707 2.06758 2.18928 
2.30791 2.4195 2.52097 1.66533 1.66946 1.76911 1.67254 1.777 1.88041 
1.67418 1.78222 1.89102 1.99634 1.67418 1.78405 1.89674 2.00785 2.11299 
1.67254 1.78222 1.89674 2.01191 2.12307 2.22608 1.66946 1.777 1.89102 
2.00785 2.12307 2.23222 2.33166 1.66533 1.76911 1.88041 1.99634 2.11299 
2.22608 2.33166 2.42672 1.47626 1.37249 1.47213 1.26118 1.36459 1.46906 
1.14526 1.25058 1.35938 1.46741 1.0286 1.13374 1.24485 1.35755 1.46741 
0.915514 1.01852 1.12969 1.24485 1.35938 1.46906 0.809937 0.909371 1.01852 
1.13374 1.25058 1.36459 1.47213 0.714871 0.809937 0.915514 1.0286 1.14526 
1.26118 1.37249 1.47626 0.975055 0.898002 1.01847 0.821245 0.946693 1.07221 
0.749941 0.877585 1.00737 1.13501 0.690152 0.816367 0.94706 1.07784 1.20431 
0.647337 0.768195 0.895868 1.02616 1.15448 1.2767 0.624416 0.736561 0.857515 
0.983547 1.11021 1.23313 1.34871 0.620619 0.722093 0.833684 0.952313 1.07402 
1.19452 1.30996 1.41746 0.855925 0.764569 0.764569 0.671524 0.661425 0.671524 
0.582786 0.556971 0.556971 0.582786 0.506696 0.458968 0.441109 0.458968 0.506696 
0.45273 0.379052 0.333054 0.333054 0.379052 0.45273 0.427969 0.331576 0.249267 
0.21325 0.249267 0.331576 0.427969 0.432512 0.325669 0.215619 0.121622 0.121622 
0.215619 0.325669 0.432512 0.432512 0.427969 0.325669 0.45273 0.331576 0.215619 
0.506696 0.379052 0.249267 0.121622 0.582786 0.458968 0.333054 0.21325 0.121622 
0.671524 0.556971 0.441109 0.333054 0.249267 0.215619 0.764569 0.661425 0.556971 
0.458968 0.379052 0.331576 0.325669 0.855925 0.764569 0.671524 0.582786 0.506696 
0.45273 0.427969 0.432512 0.975055 1.01847 0.898002 1.07221 0.946693 0.821245 
1.13501 1.00737 0.877585 0.749941 1.20431 1.07784 0.94706 0.816367 0.690152 
1.2767 1.15448 1.02616 0.895868 0.768195 0.647337 1.34871 1.23313 1.11021 
0.983547 0.857515 0.736561 0.624416 1.41746 1.30996 1.19452 1.07402 0.952313 
0.833684 0.722093 0.620619 1.15011 1.26149 1.19686 1.38136 1.31493 1.25155 
1.50697 1.44074 1.37501 1.31281 1.63462 1.5708 1.50478 1.43962 1.37826 
1.76024 1.70086 1.63681 1.5708 1.5059 1.44492 1.88011 1.82666 1.76659 
1.70197 1.63569 1.5708 1.50988 1.99148 1.94473 1.89004 1.82878 1.76333 
1.69667 1.63171 1.5708 1.15011 1.19686 1.26149 1.25155 1.31493 1.38136 
1.31281 1.37501 1.44074 1.50697 1.37826 1.43962 1.50478 1.5708 1.63462 
1.44492 1.5059 1.5708 1.63681 1.70086 1.76024 1.50988 1.5708 1.63569 
1.70197 1.76659 1.82666 1.88011 1.5708 1.63171 1.69667 1.76333 1.82878 
1.89004 1.94473 1.99148 1.72413 1.83164 1.79288 1.94707 1.90847 1.86489 
2.06758 2.03138 1.98711 1.93728 2.18928 2.15805 2.11543 2.06376 2.00658 
2.30791 2.28408 2.24572 2.19453 2.13422 2.06938 2.4195 2.40503 2.3734 
2.32523 2.26401 2.1949 2.12312 2.52097 2.51718 2.49426 2.45144 2.39165 
2.32035 2.24359 2.16654 2.70908 2.81592 2.71362 2.92597 2.81002 2.68886 
3.01997 2.89233 2.76254 2.6349 3.01997 2.92834 2.80854 2.68262 2.55881 
2.92597 2.89233 2.80854 2.70048 2.58462 2.47007 2.81592 2.81002 2.76254 
2.68262 2.58462 2.48017 2.37702 2.70908 2.71362 2.68886 2.6349 2.55881 
2.47007 2.37702 2.28567 2.16654 2.24359 2.12312 2.32035 2.1949 2.06938 
2.39165 2.26401 2.13422 2.00658 2.45144 2.32523 2.19453 2.06376 1.93728 
2.49426 2.3734 2.24572 2.11543 1.98711 1.86489 2.51718 2.40503 2.28408 
2.15805 2.03138 1.90847 1.79288 2.52097 2.4195 2.30791 2.18928 2.06758 
1.94707 1.83164 1.72413 1.66533 1.76911 1.66946 1.88041 1.777 1.67254 
1.99634 1.89102 1.78222 1.67418 2.11299 2.00785 1.89674 1.78405 1.67418 
2.22608 2.12307 2.01191 1.89674 1.78222 1.67254 2.33166 2.23222 2.12307 
2.00785 1.89102 1.777 1.66946 2.42672 2.33166 2.22608 2.11299 1.99634 
1.88041 1.76911 1.66533 1.47626 1.47213 1.37249 1.46906 1.36459 1.26118 
1.46741 1.35938 1.25058 1.14526 1.46741 1.35755 1.24485 1.13374 1.0286 
1.46906 1.35938 1.24485 1.12969 1.01852 0.915514 1.47213 1.36459 1.25058 
1.13374 1.01852 0.909371 0.809937 1.47626 1.37249 1.26118 1.14526 1.0286 
0.915514 0.809937 0.714871 1.41746 1.30996 1.34871 1.19452 1.23313 1.2767 
1.07402 1.11021 1.15448 1.20431 0.952313 0.983547 1.02616 1.07784 1.13501 
0.833684 0.857515 0.895868 0.94706 1.00737 1.07221 0.722093 0.736561 0.768195 
0.816367 0.877585 0.946693 1.01847 0.620619 0.624416 0.647337 0.690152 0.749941 
0.821245 0.898002 0.975055 0.975055 0.898002 1.01847 0.821245 0.946693 1.07221 
0.749941 0.877585 1.00737 1.13501 0.690152 0.816367 0.94706 1.07784 1.20431 
0.647337 0.768195 0.895868 1.02616 1.15448 1.2767 0.624416 0.736561 0.857515 
0.983547 1.11021 1.23313 1.34871 0.620619 0.722093 0.833684 0.952313 1.07402 
1.19452 1.30996 1.41746 
Phi 1 1002 float
6.28319 3.14159 6.28319 3.14159 4.71239 4.71239 1.5708 1.5708 3.69517 
5.72961 2.58802 0.553574 6.28319 6.28319 6.28319 6.28319 3.14159 3.14159 
3.14159 3.14159 3.14159 6.1053 5.8988 5.67687 5.45995 5.26596 5.10322 
4.97131 4.86569 4.78095 0.177881 0.384387 0.606312 0.823235 1.01722 1.17997 
1.31187 1.4175 1.50223 6.18928 6.10703 6.03531 5.97283 5.91832 5.87061 
5.82869 5.79168 5.75886 0.0939024 0.176153 0.247873 0.310351 0.364864 0.412573 
0.454497 0.491504 0.524326 3.31947 3.52598 3.7479 3.96483 4.15881 4.32156 
4.45346 4.55909 4.64383 2.96371 2.75721 2.53528 2.31836 2.12437 1.96162 
1.82972 1.72409 1.63936 3.2355 3.31775 3.38947 3.45194 3.50646 3.55417 
3.59609 3.6331 3.66592 3.04769 2.96544 2.89372 2.83124 2.77673 2.72902 
2.6871 2.65009 2.61727 6.28319 6.28319 6.28319 6.28319 3.14159 3.14159 
3.14159 3.14159 3.14159 6.1053 5.8988 5.67687 5.45995 5.26596 5.10322 
4.97131 4.86569 4.78095 0.177881 0.384387 0.606312 0.823235 1.01722 1.17997 
1.31187 1.4175 1.50223 6.18928 6.10703 6.03531 5.97283 5.91832 5.87061 
5.82869 5.79168 5.75886 0.0939024 0.176153 0.247873 0.310351 0.364864 0.412573 
0.454497 0.491504 0.524326 3.31947 3.52598 3.7479 3.96483 4.15881 4.32156 
4.45346 4.55909 4.64383 2.96371 2.75721 2.53528 2.31836 2.12437 1.96162 
1.82972 1.72409 1.63936 3.2355 3.31775 3.38947 3.45194 3.50646 3.55417 
3.59609 3.6331 3.66592 3.04769 2.96544 2.89372 2.83124 2.77673 2.72902 
2.6871 2.65009 2.61727 4.71239 4.71239 4.71239 4.71239 4.71239 4.71239 
4.71239 4.71239 4.71239 4.60879 4.49914 4.3857 4.27128 4.15881 4.05096 
3.94976 3.85646 3.77161 4.81599 4.92564 5.03907 5.1535 5.26596 5.37381 
5.47502 5.56831 5.65317 4.60879 4.49914 4.3857 4.27128 4.15881 4.05096 
3.94976 3.85646 3.77161 4.81599 4.92564 5.03907 5.1535 5.26596 5.37381 
5.47502 5.56831 5.65317 1.5708 1.5708 1.5708 1.5708 1.5708 1.5708 
1.5708 1.5708 1.5708 1.6744 1.78405 1.89748 2.01191 2.12437 2.23222 
2.33343 2.42672 2.51157 1.4672 1.35755 1.24411 1.12969 1.01722 0.909371 
0.808166 0.714871 0.63002 1.6744 1.78405 1.89748 2.01191 2.12437 2.23222 
2.33343 2.42672 2.51157 1.4672 1.35755 1.24411 1.12969 1.01722 0.909371 
0.808166 0.714871 0.63002 3.60077 3.49669 3.38395 3.26458 3.14159 3.01861 
2.89924 2.78649 2.68241 5.82401 5.92808 6.04083 6.1602 6.28319 0.122983 
0.242354 0.355101 0.459179 6.05603 5.78856 5.97021 5.51259 5.60297 5.78856 
5.26596 5.26596 5.26596 5.26596 5.06749 5.0121 4.91556 4.71239 4.15881 
4.91556 4.83537 4.71239 4.50922 4.15881 3.63622 4.80045 4.71239 4.58941 
4.41268 4.15881 3.82181 3.45456 4.71239 4.62433 4.50922 4.35729 4.15881 
3.91219 3.63622 3.36875 6.01742 5.94343 5.82633 5.88092 5.76745 5.62798 
5.8278 5.71897 5.58911 5.43724 5.78235 5.67854 5.55757 5.41926 5.26596 
5.74316 5.64441 5.5315 5.40467 5.26596 5.11955 5.70914 5.61528 5.50962 
5.3926 5.26596 5.13292 4.99789 5.67937 5.59016 5.49102 5.38246 5.26596 
5.14407 5.02016 4.89798 5.56831 5.47502 5.47502 5.37381 5.37381 5.37381 
5.26596 5.26596 5.26596 5.26596 5.1535 5.1535 5.1535 5.1535 5.1535 
5.03907 5.03907 5.03907 5.03907 5.03907 5.03907 4.92564 4.92564 4.92564 
4.92564 4.92564 4.92564 4.92564 4.81599 4.81599 4.81599 4.81599 4.81599 
4.81599 4.81599 4.81599 4.60879 4.60879 4.49914 4.60879 4.49914 4.3857 
4.60879 4.49914 4.3857 4.27128 4.60879 4.49914 4.3857 4.27128 4.15881 
4.60879 4.49914 4.3857 4.27128 4.15881 4.05096 4.60879 4.49914 4.3857 
4.27128 4.15881 4.05096 3.94976 4.60879 4.49914 4.3857 4.27128 4.15881 
4.05096 3.94976 3.85646 4.5268 4.40462 4.42689 4.28071 4.29185 4.30523 
4.15881 4.15881 4.15881 4.15881 4.04232 4.03217 4.02011 4.00552 3.98753 
3.93376 3.91515 3.89328 3.86721 3.83566 3.7968 3.83461 3.8095 3.78037 
3.74624 3.70581 3.65733 3.59845 3.7454 3.71564 3.68161 3.64243 3.59698 
3.54386 3.48135 3.40735 3.56428 3.45246 3.52338 3.33203 3.40312 3.47739 
3.20576 3.27463 3.34802 3.42551 3.07742 3.14159 3.21128 3.28647 3.36688 
2.95116 3.00855 3.0719 3.14159 3.21784 3.3006 2.83072 2.88006 2.93517 
2.99672 3.06535 3.14159 3.22575 2.7189 2.7598 2.8058 2.85768 2.9163 
2.98259 3.05743 3.14159 3.56428 3.52338 3.45246 3.47739 3.40312 3.33203 
3.42551 3.34802 3.27463 3.20576 3.36688 3.28647 3.21128 3.14159 3.07742 
3.3006 3.21784 3.14159 3.0719 3.00855 2.95116 3.22575 3.14159 3.06535 
2.99672 2.93517 2.88006 2.83072 3.14159 3.05743 2.98259 2.9163 2.85768 
2.8058 2.7598 2.7189 4.5268 4.42689 4.40462 4.30523 4.29185 4.28071 
4.15881 4.15881 4.15881 4.15881 3.98753 4.00552 4.02011 4.03217 4.04232 
3.7968 3.83566 3.86721 3.89328 3.91515 3.93376 3.59845 3.65733 3.70581 
3.74624 3.78037 3.8095 3.83461 3.40735 3.48135 3.54386 3.59698 3.64243 
3.68161 3.71564 3.7454 4.71239 4.80045 4.62433 4.91556 4.71239 4.50922 
5.06749 4.83537 4.58941 4.35729 5.26596 5.0121 4.71239 4.41268 4.15881 
5.51259 5.26596 4.91556 4.50922 4.15881 3.91219 5.78856 5.60297 5.26596 
4.71239 4.15881 3.82181 3.63622 6.05603 5.97021 5.78856 5.26596 4.15881 
3.63622 3.45456 3.36875 0.227158 0.494626 0.312971 0.770593 0.680215 0.494626 
1.01722 1.01722 1.01722 1.01722 1.2157 1.27109 1.36763 1.5708 2.12437 
1.36763 1.44781 1.5708 1.77397 2.12437 2.64697 1.48273 1.5708 1.69378 
1.8705 2.12437 2.46138 2.82862 1.5708 1.65886 1.77397 1.9259 2.12437 
2.371 2.64697 2.91443 1.75639 1.87857 1.8563 2.00248 1.99133 1.97796 
2.12437 2.12437 2.12437 2.12437 2.24087 2.25101 2.26308 2.27767 2.29565 
2.34943 2.36803 2.38991 2.41597 2.44752 2.48639 2.44857 2.47368 2.50281 
2.53694 2.57738 2.62586 2.68474 2.53778 2.56754 2.60157 2.64076 2.68621 
2.73933 2.80184 2.87583 1.6744 1.6744 1.78405 1.6744 1.78405 1.89748 
1.6744 1.78405 1.89748 2.01191 1.6744 1.78405 1.89748 2.01191 2.12437 
1.6744 1.78405 1.89748 2.01191 2.12437 2.23222 1.6744 1.78405 1.89748 
2.01191 2.12437 2.23222 2.33343 1.6744 1.78405 1.89748 2.01191 2.12437 
2.23222 2.33343 2.42672 1.4672 1.35755 1.4672 1.24411 1.35755 1.4672 
1.12969 1.24411 1.35755 1.4672 1.01722 1.12969 1.24411 1.35755 1.4672 
0.909371 1.01722 1.12969 1.24411 1.35755 1.4672 0.808166 0.909371 1.01722 
1.12969 1.24411 1.35755 1.4672 0.714871 0.808166 0.909371 1.01722 1.12969 
1.24411 1.35755 1.4672 0.603812 0.57405 0.693022 0.540021 0.667908 0.792164 
0.500837 0.638778 0.773562 0.900726 0.455383 0.604649 0.751687 0.890581 1.01722 
0.402264 0.564217 0.725619 0.878514 1.01722 1.13912 0.339753 0.515737 0.694072 
0.863926 1.01722 1.15026 1.26302 0.265762 0.456853 0.655207 0.845941 1.01722 
1.16363 1.28529 1.38521 0.227158 0.312971 0.494626 0.494626 0.680215 0.770593 
1.01722 1.01722 1.01722 1.01722 2.12437 1.5708 1.36763 1.27109 1.2157 
2.64697 2.12437 1.77397 1.5708 1.44781 1.36763 2.82862 2.46138 2.12437 
1.8705 1.69378 1.5708 1.48273 2.91443 2.64697 2.371 2.12437 1.9259 
1.77397 1.65886 1.5708 1.75639 1.8563 1.87857 1.97796 1.99133 2.00248 
2.12437 2.12437 2.12437 2.12437 2.29565 2.27767 2.26308 2.25101 2.24087 
2.48639 2.44752 2.41597 2.38991 2.36803 2.34943 2.68474 2.62586 2.57738 
2.53694 2.50281 2.47368 2.44857 2.87583 2.80184 2.73933 2.68621 2.64076 
2.60157 2.56754 2.53778 5.86049 5.90139 5.97231 5.94739 6.02165 6.09275 
5.99927 6.07676 6.15015 6.21902 6.0579 6.13831 6.2135 0 0.0641696 
6.12418 6.20694 6.28319 0.069689 0.13304 0.190437 6.19903 0 0.0762451 
0.144876 0.206423 0.261531 0.310872 0 0.0841597 0.159004 0.225289 0.283913 
0.335793 0.381792 0.422692 5.86049 5.97231 5.90139 6.09275 6.02165 5.94739 
6.21902 6.15015 6.07676 5.99927 0.0641696 0 6.2135 6.13831 6.0579 
0.190437 0.13304 0.069689 6.28319 6.20694 6.12418 0.310872 0.261531 0.206423 
0.144876 0.0762451 6.28319 6.19903 0.422692 0.381792 0.335793 0.283913 0.225289 
0.159004 0.0841597 0 5.67937 5.70914 5.59016 5.74316 5.61528 5.49102 
5.78235 5.64441 5.50962 5.38246 5.8278 5.67854 5.5315 5.3926 5.26596 
5.88092 5.71897 5.55757 5.40467 5.26596 5.14407 5.94343 5.76745 5.58911 
5.41926 5.26596 5.13292 5.02016 6.01742 5.82633 5.62798 5.43724 5.26596 
5.11955 4.99789 4.89798 1.38521 1.28529 1.26302 1.16363 1.15026 1.13912 
1.01722 1.01722 1.01722 1.01722 0.845941 0.863926 0.878514 0.890581 0.900726 
0.655207 0.694072 0.725619 0.751687 0.773562 0.792164 0.456853 0.515737 0.564217 
0.604649 0.638778 0.667908 0.693022 0.265762 0.339753 0.402264 0.455383 0.500837 
0.540021 0.57405 0.603812 
