# vtk DataFile Version 4.0
vtk output
ASCII
DATASET POLYDATA
POINTS 1002 float
-121.741 -87.4888 70.8402 -125.995 -103.486 77.0728 -111.748 -91.8779 70.334 
-118.766 -104.827 77.6125 -122.142 -92.7043 81.7313 -116.227 -95.3797 81.7582 
-123.162 -99.5911 68.4608 -118.18 -99.1627 68.4865 -122.984 -109.704 84.825 
-115.394 -84.3838 73.244 -123.69 -113.91 71.593 -114.041 -86.9371 62.5858 
-122.656 -88.1656 71.3065 -123.347 -89.2737 71.9133 -123.621 -91.0407 72.655 
-123.936 -92.9006 73.3599 -124.439 -94.668 74.002 -124.556 -96.9902 74.7003 
-124.46 -99.5483 75.4138 -124.847 -101.336 76.0609 -125.541 -102.424 76.6264 
-121.916 -87.602 71.8626 -122.136 -87.7544 73.0366 -122.302 -88.0503 74.2176 
-122.309 -88.6012 75.3432 -122.267 -89.3127 76.4776 -122.332 -89.9929 77.6966 
-122.445 -90.6082 78.9695 -122.455 -91.2479 80.1138 -122.327 -91.963 81.0049 
-122.135 -87.8511 70.2114 -122.414 -88.4855 69.6814 -122.509 -89.5023 69.2916 
-122.608 -90.6792 68.9452 -122.881 -91.8527 68.5592 -123.139 -93.2157 68.2689 
-123.176 -94.7968 68.2454 -123.114 -96.3994 68.4039 -123.111 -97.9977 68.5138 
-121.025 -86.7375 70.9488 -120.611 -85.5607 70.986 -120.341 -84.2379 71.022 
-119.723 -83.2429 71.245 -118.838 -82.5918 71.7168 -118.122 -82.2733 72.2063 
-117.444 -82.5119 72.4872 -116.615 -83.1523 72.6628 -115.869 -83.8148 72.9239 
-121.109 -86.9357 69.9924 -120.469 -86.2043 69.0833 -119.734 -85.5262 68.1265 
-118.889 -85.1567 67.2088 -118.056 -85.0089 66.233 -117.331 -84.9756 65.0986 
-116.633 -85.1877 64.1346 -115.803 -85.6666 63.5606 -114.869 -86.2778 63.1073 
-125.642 -102.956 77.6422 -125.022 -102.351 78.0032 -124.518 -101.205 78.5523 
-124.508 -99.4545 79.4433 -124.595 -97.7941 80.2683 -124.215 -96.6615 80.7852 
-123.656 -95.6507 81.1388 -123.248 -94.4907 81.4082 -122.776 -93.4456 81.5971 
-126.017 -103.363 75.9783 -126.069 -103.23 74.7936 -126.032 -103.081 73.7077 
-125.75 -102.946 72.6064 -125.37 -102.758 71.5524 -124.944 -102.371 70.8207 
-124.322 -101.794 70.2883 -123.714 -101.145 69.6929 -123.382 -100.428 69.0484 
-126.065 -104.38 77.8533 -125.906 -105.418 78.5031 -125.503 -106.501 79.058 
-125.063 -107.443 79.6726 -124.698 -108.081 80.4641 -124.335 -108.543 81.4376 
-124.064 -109.072 82.5207 -123.899 -109.594 83.5713 -123.576 -109.839 84.3874 
-126.097 -104.867 76.7246 -125.961 -106.692 76.1483 -125.879 -108.451 75.5226 
-125.908 -109.988 74.9566 -125.986 -111.636 74.3376 -126.101 -113.228 73.4966 
-125.943 -114.256 72.5026 -125.271 -114.611 71.7409 -124.389 -114.431 71.4887 
-112.556 -92.8314 71.1324 -113.33 -93.7394 72.2374 -114.074 -94.8364 73.3248 
-114.87 -96.1381 74.2727 -115.885 -97.3107 75.1801 -116.872 -98.5785 75.9012 
-117.395 -100.379 76.3389 -117.692 -102.285 76.7361 -118.184 -103.735 77.2053 
-112.258 -92.038 71.3711 -112.668 -92.331 72.7747 -112.644 -92.7376 74.5536 
-112.437 -93.1811 76.2266 -112.778 -93.5123 77.2853 -113.64 -93.6659 78.2039 
-114.332 -93.8269 79.5097 -114.812 -94.2129 80.6683 -115.46 -94.793 81.2892 
-111.893 -92.3911 69.8016 -112.192 -92.8762 69.3381 -112.556 -93.4345 68.9885 
-112.987 -94.2026 68.6688 -113.673 -95.0002 68.324 -114.684 -95.6096 68.1126 
-115.763 -96.2356 68.1477 -116.688 -97.1161 68.2848 -117.477 -98.1515 68.3935 
-111.215 -90.8655 70.3709 -110.857 -89.8734 70.4435 -111.007 -89.0648 70.4707 
-111.649 -88.1779 70.6666 -112.285 -87.141 71.1323 -112.801 -86.3727 71.5458 
-113.496 -85.8595 71.8421 -114.252 -85.2798 72.2776 -114.848 -84.7261 72.8115 
-110.932 -91.2228 69.5133 -110.2 -90.6731 68.7464 -109.69 -90.2192 67.6277 
-109.501 -89.7062 66.1282 -109.916 -89.0898 64.9117 -110.91 -88.4745 64.2814 
-111.846 -87.905 63.7209 -112.458 -87.4101 63.0252 -113.126 -87.0784 62.5835 
-118.268 -104.4 78.1466 -117.88 -103.716 78.7303 -117.582 -102.782 79.3732 
-117.162 -101.904 80.113 -116.564 -101.145 80.8715 -116.118 -100.183 81.4124 
-116.047 -98.9962 81.6615 -116.128 -97.7933 81.7636 -116.16 -96.5807 81.8011 
-118.896 -104.586 76.8164 -118.928 -104.315 75.8999 -119.004 -103.801 75.0163 
-119.175 -103.064 74.2088 -119.206 -102.409 73.2917 -118.98 -101.907 72.2157 
-118.727 -101.328 71.1479 -118.568 -100.604 70.175 -118.401 -99.8536 69.2881 
-118.867 -105.773 78.2356 -118.848 -106.929 78.8892 -119.024 -107.896 79.783 
-119.522 -108.469 80.879 -120.054 -109.015 81.8747 -120.446 -109.664 82.7337 
-120.866 -110.091 83.5985 -121.487 -110.224 84.3486 -122.265 -110.12 84.7683 
-119.394 -105.757 77.4645 -119.855 -106.96 77.2113 -120.173 -108.377 76.8009 
-120.59 -109.737 76.205 -121.074 -110.96 75.4736 -121.575 -112.003 74.7094 
-122.239 -112.704 73.9796 -122.874 -113.158 73.2471 -123.284 -113.567 72.4379 
-121.622 -92.7916 82.2561 -121.13 -92.8302 82.8177 -120.57 -92.7269 83.3695 
-119.792 -92.6219 83.8028 -118.942 -92.8456 83.8802 -118.317 -93.4538 83.5033 
-117.888 -94.1151 82.947 -117.405 -94.6092 82.467 -116.807 -95.0014 82.077 
-122.415 -93.8701 82.4327 -122.776 -95.1302 83.2934 -123.1 -96.5414 84.1514 
-123.217 -98.2201 84.7648 -123.174 -100.097 85.0571 -123.195 -102.022 85.0842 
-123.329 -104.046 84.9558 -123.389 -106.189 84.8513 -123.259 -108.178 84.8492 
-121.586 -91.6335 81.3874 -121.074 -90.4542 80.9243 -120.592 -89.0112 80.3286 
-120.003 -87.3628 79.7628 -119.215 -85.92 79.1921 -118.315 -85.0719 78.2162 
-117.474 -84.7788 76.7784 -116.733 -84.6953 75.3415 -116.033 -84.5613 74.1887 
-116.805 -96.588 82.5363 -117.243 -97.6443 83.5425 -117.791 -98.7724 84.2606 
-118.667 -100.296 84.5699 -119.579 -102 84.923 -120.23 -103.529 85.233 
-120.87 -105.059 85.1724 -121.67 -106.768 85.0263 -122.42 -108.414 84.9887 
-115.913 -93.8644 81.3358 -115.69 -92.5293 80.8048 -115.636 -91.4296 79.9754 
-115.58 -90.1888 78.9712 -115.338 -88.7735 78.0971 -115.168 -87.5424 77.2319 
-115.285 -86.5464 76.1905 -115.436 -85.7051 75.1296 -115.433 -85.0146 74.1498 
-122.98 -99.972 68.0432 -122.601 -100.248 67.6945 -122.014 -100.426 67.437 
-121.394 -100.563 67.1824 -120.832 -100.564 66.9999 -120.183 -100.31 67.0795 
-119.449 -99.9257 67.375 -118.854 -99.6003 67.7231 -118.466 -99.3642 68.0887 
-123.381 -101.734 68.586 -123.692 -103.751 68.5789 -124.121 -105.578 68.465 
-124.414 -107.478 68.1723 -124.468 -109.411 67.8283 -124.543 -110.969 67.8992 
-124.63 -112.104 68.5282 -124.438 -112.991 69.4304 -124.026 -113.6 70.4611 
-122.675 -97.5855 67.9293 -121.797 -95.4928 67.1839 -120.817 -93.6723 66.2045 
-119.933 -92.2232 65.1914 -118.828 -90.9659 64.4107 -117.539 -89.8535 63.826 
-116.565 -88.9786 63.2052 -115.83 -88.257 62.645 -114.972 -87.5648 62.4405 
-118.983 -100.664 69.0072 -119.72 -102.404 69.3616 -120.285 -104.401 69.4547 
-120.707 -106.564 69.3609 -121.2 -108.487 69.2924 -121.848 -109.873 69.4461 
-122.448 -110.964 69.8923 -122.888 -112.046 70.497 -123.279 -113.07 71.0688 
-117.475 -97.8991 67.5786 -116.686 -96.6628 66.4661 -115.854 -95.4921 65.2082 
-115.016 -94.3627 64.0712 -114.35 -93.1286 63.1788 -114.007 -91.7331 62.2184 
-113.882 -90.3787 61.3029 -113.852 -89.1706 61.1395 -113.906 -88.0225 61.79 
-123.101 -111.026 84.4069 -123.254 -112.107 83.566 -123.311 -113.04 82.4025 
-123.202 -113.879 81.0647 -123.196 -114.553 79.453 -123.461 -114.983 77.5721 
-123.746 -115.098 75.7559 -123.837 -114.878 74.1722 -123.785 -114.442 72.7713 
-115.046 -83.8627 72.1388 -114.816 -83.4759 70.9155 -114.681 -83.4865 69.5016 
-114.335 -83.6615 68.0274 -113.663 -83.6098 66.5718 -113.09 -83.6206 65.033 
-112.969 -84.116 63.787 -113.204 -84.9668 63.2592 -113.598 -85.9389 63.0342 
-122.871 -88.3691 72.4558 -123.056 -88.7044 73.6945 -123.457 -89.7054 73.1363 
-123.092 -89.2404 74.8999 -123.508 -90.2758 74.3759 -123.616 -91.6303 73.8198 
-122.96 -89.9735 76.0739 -123.442 -90.9734 75.628 -123.676 -92.2603 75.0446 
-124.023 -93.4715 74.4435 -122.846 -90.7365 77.2497 -123.27 -91.7643 76.8403 
-123.727 -92.9461 76.3734 -124.193 -94.0872 75.757 -124.53 -95.3678 75.1299 
-122.869 -91.4143 78.4957 -123.138 -92.5322 77.997 -123.678 -93.6716 77.5773 
-124.292 -94.7364 77.1333 -124.532 -96.1007 76.5096 -124.479 -97.8676 75.8761 
-122.937 -92.064 79.748 -123.161 -93.2258 79.2568 -123.623 -94.3691 78.7571 
-124.295 -95.3579 78.3219 -124.506 -96.7183 77.7909 -124.364 -98.5862 77.1251 
-124.444 -100.276 76.5528 -122.912 -92.7513 80.785 -123.252 -93.8801 80.4677 
-123.653 -95.037 80.0521 -124.282 -95.9933 79.5783 -124.558 -97.2352 78.9884 
-124.391 -99.0712 78.2395 -124.479 -100.812 77.5917 -124.988 -101.857 77.1454 
-121.212 -86.8465 72.0552 -120.87 -85.6974 72.1703 -121.452 -86.988 73.2994 
-120.548 -84.5037 72.2736 -121.119 -85.9219 73.521 -121.596 -87.3091 74.544 
-119.721 -83.6861 72.5047 -120.718 -84.8967 73.743 -121.204 -86.3222 74.922 
-121.577 -87.9101 75.7461 -118.784 -83.2312 72.8836 -119.882 -84.2598 74.0589 
-120.818 -85.3819 75.3701 -121.096 -86.996 76.2717 -121.553 -88.6788 76.9678 
-118.148 -83.1728 73.2703 -119.026 -83.9649 74.5241 -120.18 -84.7673 75.943 
-120.759 -86.0827 76.882 -120.962 -87.9066 77.5149 -121.63 -89.4432 78.2494 
-117.466 -83.5468 73.5781 -118.268 -83.966 74.978 -119.332 -84.4199 76.5743 
-120.267 -85.3582 77.5866 -120.601 -87.0528 78.0822 -120.954 -88.8436 78.7241 
-121.717 -90.1478 79.5055 -116.663 -84.0786 73.8724 -117.445 -84.2531 75.226 
-118.334 -84.3967 76.8913 -119.358 -84.9427 78.1631 -120.116 -86.2736 78.7296 
-120.54 -88.0809 79.2002 -121.037 -89.6671 79.9103 -121.702 -90.8609 80.5637 
-116.046 -85.1631 75.2297 -116.054 -85.9544 76.2698 -116.755 -85.3745 76.3853 
-115.979 -86.9291 77.3327 -116.843 -86.3971 77.3526 -117.494 -85.6783 77.7277 
-115.944 -87.9878 78.3264 -116.835 -87.4738 78.4053 -117.55 -86.8964 78.6848 
-118.245 -86.2061 79.1319 -116.08 -89.3342 79.1876 -116.751 -88.5888 79.4233 
-117.467 -88.0152 79.7837 -118.192 -87.4747 80.1835 -119.132 -87.1647 80.2098 
-116.304 -90.8663 80.0611 -116.845 -90.1155 80.3119 -117.371 -89.3176 80.787 
-118.098 -88.7126 81.2395 -119.104 -88.4533 81.3016 -120.047 -88.5987 80.9004 
-116.521 -92.2126 80.8645 -117.164 -91.7583 81.1139 -117.553 -91.0098 81.6489 
-118.09 -90.2261 82.1646 -119.033 -89.8453 82.2712 -120.034 -89.9247 81.9457 
[...]
POINT_DATA 1002
FIELD FieldData 2
Theta 1 1002 float
2.58802 2.58802 0.553574 0.553574 2.12437 1.01722 2.12437 1.01722 1.5708 
1.5708 1.5708 1.5708 2.68241 2.78649 2.89924 3.01861 3.14159 3.01861 
2.89924 2.78649 2.68241 2.61035 2.61791 2.60515 2.56958 2.51327 2.44184 
2.36202 2.27983 2.1997 2.61035 2.61791 2.60515 2.56958 2.51327 2.44184 
2.36202 2.27983 2.1997 2.50947 2.41899 2.31794 2.20864 2.0944 1.97902 
1.86631 1.75944 1.66056 2.50947 2.41899 2.31794 2.20864 2.0944 1.97902 
1.86631 1.75944 1.66056 2.61035 2.61791 2.60515 2.56958 2.51327 2.44184 
2.36202 2.27983 2.1997 2.61035 2.61791 2.60515 2.56958 2.51327 2.44184 
2.36202 2.27983 2.1997 2.50947 2.41899 2.31794 2.20864 2.0944 1.97902 
1.86631 1.75944 1.66056 2.50947 2.41899 2.31794 2.20864 2.0944 1.97902 
1.86631 1.75944 1.66056 0.459179 0.355101 0.242354 0.122983 0 0.122983 
0.242354 0.355101 0.459179 0.531246 0.523681 0.536438 0.57201 0.628319 0.699757 
0.779574 0.86176 0.941896 0.531246 0.523681 0.536438 0.57201 0.628319 0.699757 
0.779574 0.86176 0.941896 0.632123 0.7226 0.823657 0.932948 1.0472 1.16257 
1.27528 1.38216 1.48103 0.632123 0.7226 0.823657 0.932948 1.0472 1.16257 
1.27528 1.38216 1.48103 0.531246 0.523681 0.536438 0.57201 0.628319 0.699757 
0.779574 0.86176 0.941896 0.531246 0.523681 0.536438 0.57201 0.628319 0.699757 
0.779574 0.86176 0.941896 0.632123 0.7226 0.823657 0.932948 1.0472 1.16257 
1.27528 1.38216 1.48103 0.632123 0.7226 0.823657 0.932948 1.0472 1.16257 
1.27528 1.38216 1.48103 2.02998 1.9259 1.81315 1.69378 1.5708 1.44781 
1.32844 1.2157 1.11162 2.0928 2.05283 2.00422 1.94767 1.88496 1.81867 
1.75177 1.68695 1.62623 2.0928 2.05283 2.00422 1.94767 1.88496 1.81867 
1.75177 1.68695 1.62623 1.0488 1.08876 1.13737 1.19392 1.25664 1.32292 
1.38982 1.45464 1.51537 1.0488 1.08876 1.13737 1.19392 1.25664 1.32292 
1.38982 1.45464 1.51537 2.02998 1.9259 1.81315 1.69378 1.5708 1.44781 
1.32844 1.2157 1.11162 2.0928 2.05283 2.00422 1.94767 1.88496 1.81867 
1.75177 1.68695 1.62623 2.0928 2.05283 2.00422 1.94767 1.88496 1.81867 
1.75177 1.68695 1.62623 1.0488 1.08876 1.13737 1.19392 1.25664 1.32292 
1.38982 1.45464 1.51537 1.0488 1.08876 1.13737 1.19392 1.25664 1.32292 
1.38982 1.45464 1.51537 1.5708 1.5708 1.5708 1.5708 1.5708 1.5708 
1.5708 1.5708 1.5708 1.5708 1.5708 1.5708 1.5708 1.5708 1.5708 
1.5708 1.5708 1.5708 2.70908 2.71362 2.81592 2.68886 2.81002 2.92597 
2.6349 2.76254 2.89233 3.01997 2.55881 2.68262 2.80854 2.92834 3.01997 
2.47007 2.58462 2.70048 2.80854 2.89233 2.92597 2.37702 2.48017 2.58462 
2.68262 2.76254 2.81002 2.81592 2.28567 2.37702 2.47007 2.55881 2.6349 
2.68886 2.71362 2.70908 2.52097 2.4195 2.51718 2.30791 2.40503 2.49426 
2.18928 2.28408 2.3734 2.45144 2.06758 2.15805 2.24572 2.32523 2.39165 
1.94707 2.03138 2.11543 2.19453 2.26401 2.32035 1.83164 1.90847 1.98711 
2.06376 2.13422 2.1949 2.24359 1.72413 1.79288 1.86489 1.93728 2.00658 
2.06938 2.12312 2.16654 1.5708 1.50988 1.63171 1.44492 1.5708 1.69667 
1.37826 1.5059 1.63569 1.76333 1.31281 1.43962 1.5708 1.70197 1.82878 
1.25155 1.37501 1.50478 1.63681 1.76659 1.89004 1.19686 1.31493 1.44074 
1.5708 1.70086 1.82666 1.94473 1.15011 1.26149 1.38136 1.50697 1.63462 
1.76024 1.88011 1.99148 1.99148 1.88011 1.94473 1.76024 1.82666 1.89004 
1.63462 1.70086 1.76659 1.82878 1.50697 1.5708 1.63681 1.70197 1.76333 
1.38136 1.44074 1.50478 1.5708 1.63569 1.69667 1.26149 1.31493 1.37501 
1.43962 1.5059 1.5708 1.63171 1.15011 1.19686 1.25155 1.31281 1.37826 
1.44492 1.50988 1.5708 2.16654 2.12312 2.24359 2.06938 2.1949 2.32035 
2.00658 2.13422 2.26401 2.39165 1.93728 2.06376 2.19453 2.32523 2.45144 
1.86489 1.98711 2.11543 2.24572 2.3734 2.49426 1.79288 1.90847 2.03138 
2.15805 2.28408 2.40503 2.51718 1.72413 1.83164 1.94707 2.06758 2.18928 
2.30791 2.4195 2.52097 1.66533 1.66946 1.76911 1.67254 1.777 1.88041 
1.67418 1.78222 1.89102 1.99634 1.67418 1.78405 1.89674 2.00785 2.11299 
1.67254 1.78222 1.89674 2.01191 2.12307 2.22608 1.66946 1.777 1.89102 
2.00785 2.12307 2.23222 2.33166 1.66533 1.76911 1.88041 1.99634 2.11299 
2.22608 2.33166 2.42672 1.47626 1.37249 1.47213 1.26118 1.36459 1.46906 
1.14526 1.25058 1.35938 1.46741 1.0286 1.13374 1.24485 1.35755 1.46741 
0.915514 1.01852 1.12969 1.24485 1.35938 1.46906 0.809937 0.909371 1.01852 
1.13374 1.25058 1.36459 1.47213 0.714871 0.809937 0.915514 1.0286 1.14526 
1.26118 1.37249 1.47626 0.975055 0.898002 1.01847 0.821245 0.946693 1.07221 
0.749941 0.877585 1.00737 1.13501 0.690152 0.816367 0.94706 1.07784 1.20431 
0.647337 0.768195 0.895868 1.02616 1.15448 1.2767 0.624416 0.736561 0.857515 
0.983547 1.11021 1.23313 1.34871 0.620619 0.722093 0.833684 0.952313 1.07402 
1.19452 1.30996 1.41746 0.855925 0.764569 0.764569 0.671524 0.661425 0.671524 
0.582786 0.556971 0.556971 0.582786 0.506696 0.458968 0.441109 0.458968 0.506696 
0.45273 0.379052 0.333054 0.333054 0.379052 0.45273 0.427969 0.331576 0.249267 
0.21325 0.249267 0.331576 0.427969 0.432512 0.325669 0.215619 0.121622 0.121622 
0.215619 0.325669 0.432512 0.432512 0.427969 0.325669 0.45273 0.331576 0.215619 
0.506696 0.379052 0.249267 0.121622 0.582786 0.458968 0.333054 0.21325 0.121622 
0.671524 0.556971 0.441109 0.333054 0.249267 0.215619 0.764569 0.661425 0.556971 
0.458968 0.379052 0.331576 0.325669 0.855925 0.764569 0.671524 0.582786 0.506696 
0.45273 0.427969 0.432512 0.975055 1.01847 0.898002 1.07221 0.946693 0.821245 
1.13501 1.00737 0.877585 0.749941 1.20431 1.07784 0.94706 0.816367 0.690152 
1.2767 1.15448 1.02616 0.895868 0.768195 0.647337 1.34871 1.23313 1.11021 
0.983547 0.857515 0.736561 0.624416 1.41746 1.30996 1.19452 1.07402 0.952313 
0.833684 0.722093 0.620619 1.15011 1.26149 1.19686 1.38136 1.31493 1.25155 
1.50697 1.44074 1.37501 1.31281 1.63462 1.5708 1.50478 1.43962 1.37826 
1.76024 1.70086 1.63681 1.5708 1.5059 1.44492 1.88011 1.82666 1.76659 
1.70197 1.63569 1.5708 1.50988 1.99148 1.94473 1.89004 1.82878 1.76333 
1.69667 1.63171 1.5708 1.15011 1.19686 1.26149 1.25155 1.31493 1.38136 
1.31281 1.37501 1.44074 1.50697 1.37826 1.43962 1.50478 1.5708 1.63462 
1.44492 1.5059 1.5708 1.63681 1.70086 1.76024 1.50988 1.5708 1.63569 
1.70197 1.76659 1.82666 1.88011 1.5708 1.63171 1.69667 1.76333 1.82878 
1.89004 1.94473 1.99148 1.72413 1.83164 1.79288 1.94707 1.90847 1.86489 
2.06758 2.03138 1.98711 1.93728 2.18928 2.15805 2.11543 2.06376 2.00658 
2.30791 2.28408 2.24572 2.19453 2.13422 2.06938 2.4195 2.40503 2.3734 
2.32523 2.26401 2.1949 2.12312 2.52097 2.51718 2.49426 2.45144 2.39165 
2.32035 2.24359 2.16654 2.70908 2.81592 2.71362 2.92597 2.81002 2.68886 
3.01997 2.89233 2.76254 2.6349 3.01997 2.92834 2.80854 2.68262 2.55881 
2.92597 2.89233 2.80854 2.70048 2.58462 2.47007 2.81592 2.81002 2.76254 
2.68262 2.58462 2.48017 2.37702 2.70908 2.71362 2.68886 2.6349 2.55881 
2.47007 2.37702 2.28567 2.16654 2.24359 2.12312 2.32035 2.1949 2.06938 
2.39165 2.26401 2.13422 2.00658 2.45144 2.32523 2.19453 2.06376 1.93728 
2.49426 2.3734 2.24572 2.11543 1.98711 1.86489 2.51718 2.40503 2.28408 
2.15805 2.03138 1.90847 1.79288 2.52097 2.4195 2.30791 2.18928 2.06758 
1.94707 1.83164 1.72413 1.66533 1.76911 1.66946 1.88041 1.777 1.67254 
1.99634 1.89102 1.78222 1.67418 2.11299 2.00785 1.89674 1.78405 1.67418 
2.22608 2.12307 2.01191 1.89674 1.78222 1.67254 2.33166 2.23222 2.12307 
2.00785 1.89102 1.777 1.66946 2.42672 2.33166 2.22608 2.11299 1.99634 
1.88041 1.76911 1.66533 1.47626 1.47213 1.37249 1.46906 1.36459 1.26118 
1.46741 1.35938 1.25058 1.14526 1.46741 1.35755 1.24485 1.13374 1.0286 
1.46906 1.35938 1.24485 1.12969 1.01852 0.915514 1.47213 1.36459 1.25058 
1.13374 1.01852 0.909371 0.809937 1.47626 1.37249 1.26118 1.14526 1.0286 
0.915514 0.809937 0.714871 1.41746 1.30996 1.34871 1.19452 1.23313 1.2767 
1.07402 1.11021 1.15448 1.20431 0.952313 0.983547 1.02616 1.07784 1.13501 
0.833684 0.857515 0.895868 0.94706 1.00737 1.07221 0.722093 0.736561 0.768195 
0.816367 0.877585 0.946693 1.01847 0.620619 0.624416 0.647337 0.690152 0.749941 
0.821245 0.898002 0.975055 0.975055 0.898002 1.01847 0.821245 0.946693 1.07221 
0.749941 0.877585 1.00737 1.13501 0.690152 0.816367 0.94706 1.07784 1.20431 
0.647337 0.768195 0.895868 1.02616 1.15448 1.2767 0.624416 0.736561 0.857515 
0.983547 1.11021 1.23313 1.34871 0.620619 0.722093 0.833684 0.952313 1.07402 
1.19452 1.30996 1.41746 
Phi 1 1002 float
6.28319 3.14159 6.28319 3.14159 4.71239 4.71239 1.5708 1.5708 3.69517 
5.72961 2.58802 0.553574 6.28319 6.28319 6.28319 6.28319 3.14159 3.14159 
3.14159 3.14159 3.14159 6.1053 5.8988 5.67687 5.45995 5.26596 5.10322 
4.97131 4.86569 4.78095 0.177881 0.384387 0.606312 0.823235 1.01722 1.17997 
1.31187 1.4175 1.50223 6.18928 6.10703 6.03531 5.97283 5.91832 5.87061 
5.82869 5.79168 5.75886 0.0939024 0.176153 0.247873 0.310351 0.364864 0.412573 
0.454497 0.491504 0.524326 3.31947 3.52598 3.7479 3.96483 4.15881 4.32156 
4.45346 4.55909 4.64383 2.96371 2.75721 2.53528 2.31836 2.12437 1.96162 
1.82972 1.72409 1.63936 3.2355 3.31775 3.38947 3.45194 3.50646 3.55417 
3.59609 3.6331 3.66592 3.04769 2.96544 2.89372 2.83124 2.77673 2.72902 
2.6871 2.65009 2.61727 6.28319 6.28319 6.28319 6.28319 3.14159 3.14159 
3.14159 3.14159 3.14159 6.1053 5.8988 5.67687 5.45995 5.26596 5.10322 
4.97131 4.86569 4.78095 0.177881 0.384387 0.606312 0.823235 1.01722 1.17997 
1.31187 1.4175 1.50223 6.18928 6.10703 6.03531 5.97283 5.91832 5.87061 
5.82869 5.79168 5.75886 0.0939024 0.176153 0.247873 0.310351 0.364864 0.412573 
0.454497 0.491504 0.524326 3.31947 3.52598 3.7479 3.96483 4.15881 4.32156 
4.45346 4.55909 4.64383 2.96371 2.75721 2.53528 2.31836 2.12437 1.96162 
1.82972 1.72409 1.63936 3.2355 3.31775 3.38947 3.45194 3.50646 3.55417 
3.59609 3.6331 3.66592 3.04769 2.96544 2.89372 2.83124 2.77673 2.72902 
2.6871 2.65009 2.61727 4.71239 4.71239 4.71239 4.71239 4.71239 4.71239 
4.71239 4.71239 4.71239 4.60879 4.49914 4.3857 4.27128 4.15881 4.05096 
3.94976 3.85646 3.77161 4.81599 4.92564 5.03907 5.1535 5.26596 5.37381 
5.47502 5.56831 5.65317 4.60879 4.49914 4.3857 4.27128 4.15881 4.05096 
3.94976 3.85646 3.77161 4.81599 4.92564 5.03907 5.1535 5.26596 5.37381 
5.47502 5.56831 5.65317 1.5708 1.5708 1.5708 1.5708 1.5708 1.5708 
1.5708 1.5708 1.5708 1.6744 1.78405 1.89748 2.01191 2.12437 2.23222 
2.33343 2.42672 2.51157 1.4672 1.35755 1.24411 1.12969 1.01722 0.909371 
0.808166 0.714871 0.63002 1.6744 1.78405 1.89748 2.01191 2.12437 2.23222 
2.33343 2.42672 2.51157 1.4672 1.35755 1.24411 1.12969 1.01722 0.909371 
0.808166 0.714871 0.63002 3.60077 3.49669 3.38395 3.26458 3.14159 3.01861 
2.89924 2.78649 2.68241 5.82401 5.92808 6.04083 6.1602 6.28319 0.122983 
0.242354 0.355101 0.459179 6.05603 5.78856 5.97021 5.51259 5.60297 5.78856 
5.26596 5.26596 5.26596 5.26596 5.06749 5.0121 4.91556 4.71239 4.15881 
4.91556 4.83537 4.71239 4.50922 4.15881 3.63622 4.80045 4.71239 4.58941 
4.41268 4.15881 3.82181 3.45456 4.71239 4.62433 4.50922 4.35729 4.15881 
3.91219 3.63622 3.36875 6.01742 5.94343 5.82633 5.88092 5.76745 5.62798 
5.8278 5.71897 5.58911 5.43724 5.78235 5.67854 5.55757 5.41926 5.26596 
5.74316 5.64441 5.5315 5.40467 5.26596 5.11955 5.70914 5.61528 5.50962 
5.3926 5.26596 5.13292 4.99789 5.67937 5.59016 5.49102 5.38246 5.26596 
5.14407 5.02016 4.89798 5.56831 5.47502 5.47502 5.37381 5.37381 5.37381 
5.26596 5.26596 5.26596 5.26596 5.1535 5.1535 5.1535 5.1535 5.1535 
5.03907 5.03907 5.03907 5.03907 5.03907 5.03907 4.92564 4.92564 4.92564 
4.92564 4.92564 4.92564 4.92564 4.81599 4.81599 4.81599 4.81599 4.81599 
4.81599 4.81599 4.81599 4.60879 4.60879 4.49914 4.60879 4.49914 4.3857 
4.60879 4.49914 4.3857 4.27128 4.60879 4.49914 4.3857 4.27128 4.15881 
4.60879 4.49914 4.3857 4.27128 4.15881 4.05096 4.60879 4.49914 4.3857 
4.27128 4.15881 4.05096 3.94976 4.60879 4.49914 4.3857 4.27128 4.15881 
4.05096 3.94976 3.85646 4.5268 4.40462 4.42689 4.28071 4.29185 4.30523 
4.15881 4.15881 4.15881 4.15881 4.04232 4.03217 4.02011 4.00552 3.98753 
3.93376 3.91515 3.89328 3.86721 3.83566 3.7968 3.83461 3.8095 3.78037 
3.74624 3.70581 3.65733 3.59845 3.7454 3.71564 3.68161 3.64243 3.59698 
3.54386 3.48135 3.40735 3.56428 3.45246 3.52338 3.33203 3.40312 3.47739 
3.20576 3.27463 3.34802 3.42551 3.07742 3.14159 3.21128 3.28647 3.36688 
2.95116 3.00855 3.0719 3.14159 3.21784 3.3006 2.83072 2.88006 2.93517 
2.99672 3.06535 3.14159 3.22575 2.7189 2.7598 2.8058 2.85768 2.9163 
2.98259 3.05743 3.14159 3.56428 3.52338 3.45246 3.47739 3.40312 3.33203 
3.42551 3.34802 3.27463 3.20576 3.36688 3.28647 3.21128 3.14159 3.07742 
3.3006 3.21784 3.14159 3.0719 3.00855 2.95116 3.22575 3.14159 3.06535 
2.99672 2.93517 2.88006 2.83072 3.14159 3.05743 2.98259 2.9163 2.85768 
2.8058 2.7598 2.7189 4.5268 4.42689 4.40462 4.30523 4.29185 4.28071 
4.15881 4.15881 4.15881 4.15881 3.98753 4.00552 4.02011 4.03217 4.04232 
3.7968 3.83566 3.86721 3.89328 3.91515 3.93376 3.59845 3.65733 3.70581 
3.74624 3.78037 3.8095 3.83461 3.40735 3.48135 3.54386 3.59698 3.64243 
3.68161 3.71564 3.7454 4.71239 4.80045 4.62433 4.91556 4.71239 4.50922 
5.06749 4.83537 4.58941 4.35729 5.26596 5.0121 4.71239 4.41268 4.15881 
5.51259 5.26596 4.91556 4.50922 4.15881 3.91219 5.78856 5.60297 5.26596 
4.71239 4.15881 3.82181 3.63622 6.05603 5.97021 5.78856 5.26596 4.15881 
3.63622 3.45456 3.36875 0.227158 0.494626 0.312971 0.770593 0.680215 0.494626 
1.01722 1.01722 1.01722 1.01722 1.2157 1.27109 1.36763 1.5708 2.12437 
1.36763 1.44781 1.5708 1.77397 2.12437 2.64697 1.48273 1.5708 1.69378 
1.8705 2.12437 2.46138 2.82862 1.5708 1.65886 1.77397 1.9259 2.12437 
2.371 2.64697 2.91443 1.75639 1.87857 1.8563 2.00248 1.99133 1.97796 
2.12437 2.12437 2.12437 2.12437 2.24087 2.25101 2.26308 2.27767 2.29565 
2.34943 2.36803 2.38991 2.41597 2.44752 2.48639 2.44857 2.47368 2.50281 
2.53694 2.57738 2.62586 2.68474 2.53778 2.56754 2.60157 2.64076 2.68621 
2.73933 2.80184 2.87583 1.6744 1.6744 1.78405 1.6744 1.78405 1.89748 
1.6744 1.78405 1.89748 2.01191 1.6744 1.78405 1.89748 2.01191 2.12437 
1.6744 1.78405 1.89748 2.01191 2.12437 2.23222 1.6744 1.78405 1.89748 
2.01191 2.12437 2.23222 2.33343 1.6744 1.78405 1.89748 2.01191 2.12437 
2.23222 2.33343 2.42672 1.4672 1.35755 1.4672 1.24411 1.35755 1.4672 
1.12969 1.24411 1.35755 1.4672 1.01722 1.12969 1.24411 1.35755 1.4672 
0.909371 1.01722 1.12969 1.24411 1.35755 1.4672 0.808166 0.909371 1.01722 
1.12969 1.24411 1.35755 1.4672 0.714871 0.808166 0.909371 1.01722 1.12969 
1.24411 1.35755 1.4672 0.603812 0.57405 0.693022 0.540021 0.667908 0.792164 
0.500837 0.638778 0.773562 0.900726 0.455383 0.604649 0.751687 0.890581 1.01722 
0.402264 0.564217 0.725619 0.878514 1.01722 1.13912 0.339753 0.515737 0.694072 
0.863926 1.01722 1.15026 1.26302 0.265762 0.456853 0.655207 0.845941 1.01722 
1.16363 1.28529 1.38521 0.227158 0.312971 0.494626 0.494626 0.680215 0.770593 
1.01722 1.01722 1.01722 1.01722 2.12437 1.5708 1.36763 1.27109 1.2157 
2.64697 2.12437 1.77397 1.5708 1.44781 1.36763 2.82862 2.46138 2.12437 
1.8705 1.69378 1.5708 1.48273 2.91443 2.64697 2.371 2.12437 1.9259 
1.77397 1.65886 1.5708 1.75639 1.8563 1.87857 1.97796 1.99133 2.00248 
2.12437 2.12437 2.12437 2.12437 2.29565 2.27767 2.26308 2.25101 2.24087 
2.48639 2.44752 2.41597 2.38991 2.36803 2.34943 2.68474 2.62586 2.57738 
2.53694 2.50281 2.47368 2.44857 2.87583 2.80184 2.73933 2.68621 2.64076 
2.60157 2.56754 2.53778 5.86049 5.90139 5.97231 5.94739 6.02165 6.09275 
5.99927 6.07676 6.15015 6.21902 6.0579 6.13831 6.2135 0 0.0641696 
6.12418 6.20694 6.28319 0.069689 0.13304 0.190437 6.19903 0 0.0762451 
0.144876 0.206423 0.261531 0.310872 0 0.0841597 0.159004 0.225289 0.283913 
0.335793 0.381792 0.422692 5.86049 5.97231 5.90139 6.09275 6.02165 5.94739 
6.21902 6.15015 6.07676 5.99927 0.0641696 0 6.2135 6.13831 6.0579 
0.190437 0.13304 0.069689 6.28319 6.20694 6.12418 0.310872 0.261531 0.206423 
0.144876 0.0762451 6.28319 6.19903 0.422692 0.381792 0.335793 0.283913 0.225289 
0.159004 0.0841597 0 5.67937 5.70914 5.59016 5.74316 5.61528 5.49102 
5.78235 5.64441 5.50962 5.38246 5.8278 5.67854 5.5315 5.3926 5.26596 
5.88092 5.71897 5.55757 5.40467 5.26596 5.14407 5.94343 5.76745 5.58911 
5.41926 5.26596 5.13292 5.02016 6.01742 5.82633 5.62798 5.43724 5.26596 
5.11955 4.99789 4.89798 1.38521 1.28529 1.26302 1.16363 1.15026 1.13912 
1.01722 1.01722 1.01722 1.01722 0.845941 0.863926 0.878514 0.890581 0.900726 
0.655207 0.694072 0.725619 0.751687 0.773562 0.792164 0.456853 0.515737 0.564217 
0.604649 0.638778 0.667908 0.693022 0.265762 0.339753 0.402264 0.455383 0.500837 
0.540021 0.57405 0.603812 
