# vtk DataFile Version 4.0
vtk output
ASCII
DATASET POLYDATA
POINTS 1002 float
-120.829 -84.8279 64.707 -124.661 -100.867 70.7749 -110.11 -89.0607 64.7469 
-118.322 -102.096 71.9362 -120.861 -90.1523 75.829 -115.826 -92.0476 76.0229 
-123.1 -96.4249 62.1314 -117.212 -96.3546 62.1346 -121.743 -106.572 79.202 
-114.491 -80.0534 67.0464 -122.962 -111.904 66.6222 -113.74 -83.8773 56.3616 
-121.434 -86.0798 65.4259 -122.157 -87.2846 66.1841 -122.982 -88.5122 66.9398 
-123.573 -90.2543 67.7926 -123.794 -92.4636 68.5813 -124.05 -94.4978 69.071 
-124.484 -96.2902 69.4958 -124.763 -98.0543 70.0235 -124.768 -99.6169 70.464 
-120.996 -84.9638 65.6536 -121.087 -85.2988 66.8226 -121.092 -85.7616 68.0689 
-121.128 -86.2098 69.224 -121.159 -86.7456 70.3798 -121.111 -87.4617 71.6427 
-121.135 -88.1615 72.8852 -121.196 -88.7855 73.9934 -121.084 -89.4578 74.9697 
-121.062 -85.5361 64.234 -121.374 -86.2737 63.6817 -121.698 -87.0834 63.1854 
-121.963 -88.1354 62.8799 -122.226 -89.3881 62.5772 -122.536 -90.599 62.1923 
-122.788 -91.8755 62.04 -122.906 -93.4333 62.1457 -122.978 -95.0519 62.1987 
-120.311 -83.6549 64.5979 -119.704 -82.5562 64.618 -118.979 -81.6011 64.822 
-118.187 -80.6363 65.071 -117.502 -79.4792 65.2887 -116.894 -78.3165 65.7009 
-116.142 -77.7618 66.3132 -115.362 -78.1628 66.7504 -114.822 -79.1225 66.9121 
-120.302 -84.0978 63.8151 -119.631 -83.5164 62.9753 -118.782 -83.109 62.1152 
-117.835 -82.7992 61.1979 -116.994 -82.4844 60.2306 -116.29 -82.2453 59.2103 
-115.585 -82.3022 58.2559 -114.885 -82.6792 57.501 -114.274 -83.2295 56.8936 
-124.391 -100.079 71.4537 -124.23 -99.0774 72.3102 -124.237 -97.8404 73.1028 
-124.114 -96.4554 73.6731 -123.636 -95.1353 74.1671 -122.953 -94.1083 74.6157 
-122.26 -93.2928 74.9219 -121.646 -92.3705 75.2128 -121.177 -91.2629 75.5578 
-125.064 -100.799 70.0474 -125.597 -100.51 69.3152 -125.951 -100.107 68.4568 
-125.778 -99.9051 67.4791 -125.268 -99.83 66.5246 -124.829 -99.4258 65.5647 
-124.43 -98.6713 64.5111 -123.959 -97.9057 63.5219 -123.511 -97.1948 62.7488 
-124.47 -101.602 71.5385 -124.385 -102.525 72.6323 -124.367 -103.626 73.8699 
-124.302 -104.622 74.7626 -123.95 -105.453 75.3737 -123.464 -106.266 76.2047 
-123.209 -106.852 77.1721 -122.975 -106.991 77.9676 -122.437 -106.843 78.6368 
-124.653 -102.114 70.6336 -124.573 -103.677 70.4388 -124.843 -105.297 70.0278 
-125.292 -106.485 69.5146 -125.042 -107.588 69.1768 -124.437 -109.262 68.8586 
-124.469 -110.997 68.2076 -124.584 -111.947 67.3961 -123.961 -112.122 66.8378 
-111.06 -89.8381 65.1289 -112.167 -90.5983 65.7877 -113.206 -91.5336 66.744 
-114.142 -92.8051 67.7402 -115.013 -94.4325 68.7545 -115.887 -96.1073 69.8692 
-116.822 -97.4919 70.7811 -117.625 -98.8246 71.3048 -118.09 -100.427 71.6392 
-110.477 -89.123 65.7431 -111.024 -89.2601 66.8202 -111.524 -89.4281 68.1094 
-111.801 -89.7033 69.7212 -112.08 -90.0796 71.2605 -112.76 -90.4123 72.2874 
-113.813 -90.7419 73.1173 -114.768 -91.1932 74.138 -115.379 -91.6702 75.1813 
-110.407 -89.6213 63.964 -110.761 -90.2414 63.2401 -111.207 -90.8572 62.7168 
-111.843 -91.5066 62.3452 -112.564 -92.2714 61.9923 -113.336 -93.0748 61.7225 
-114.271 -93.8579 61.6553 -115.285 -94.7066 61.7359 -116.259 -95.5849 61.8986 
-109.642 -88.1172 64.9752 -109.669 -87.0614 65.0265 -110.264 -86.1122 64.9125 
-111.116 -85.2104 64.9002 -111.737 -84.0304 65.2075 -111.978 -82.6425 65.7594 
-112.291 -81.5336 66.3022 -113.028 -80.87 66.6397 -113.875 -80.4346 66.8199 
-109.61 -88.5291 63.8839 -109.481 -87.9744 62.7903 -109.685 -87.4763 61.4946 
-110.156 -87.0602 60.2481 -110.807 -86.6122 59.1839 -111.278 -86.0155 58.1988 
-111.528 -85.2838 57.2833 -112.036 -84.568 56.603 -112.893 -84.0725 56.3002 
-118.161 -101.245 72.5736 -117.833 -100.469 73.2377 -117.182 -99.9875 73.8797 
-116.484 -99.4635 74.4251 -116.158 -98.433 74.9362 -116.077 -97.0953 75.5306 
-115.901 -95.821 76.0237 -115.721 -94.5528 76.191 -115.718 -93.2407 76.1325 
-118.368 -101.843 71.0938 -118.536 -101.341 70.2493 -118.859 -100.553 69.5393 
-119.058 -99.7646 68.8035 -118.922 -99.1412 67.7443 -118.591 -98.5517 66.4415 
-118.167 -97.9905 65.1581 -117.709 -97.4962 63.9752 -117.381 -96.9609 62.948 
-118.38 -103.246 72.5908 -118.385 -104.468 73.2303 -118.513 -105.486 74.0235 
-118.921 -106.068 75.1095 -119.448 -106.487 76.2549 -119.841 -107.034 77.2072 
-120.155 -107.425 78.0373 -120.58 -107.395 78.7532 -121.153 -107.063 79.1648 
-118.652 -103.429 71.7357 -119.275 -104.46 71.5456 -119.91 -105.684 71.2564 
-120.1 -107.626 70.7254 -120.082 -109.607 70.0048 -120.44 -110.788 69.2422 
-121.017 -111.428 68.4905 -121.492 -111.854 67.7844 -122.093 -111.993 67.1597 
-120.621 -89.908 76.4683 -120.467 -89.603 77.1766 -120.12 -89.2747 77.926 
-119.283 -89.2233 78.4279 -118.283 -89.6189 78.3425 -117.618 -90.1683 77.8303 
-117.163 -90.6241 77.3276 -116.673 -91.0666 76.9045 -116.207 -91.56 76.4519 
-120.892 -91.4852 76.4986 -121.142 -92.8541 77.147 -121.541 -94.3619 77.8772 
-121.849 -96.0394 78.6709 -121.918 -97.7835 79.1492 -121.818 -99.6876 79.2036 
-121.748 -101.796 79.2488 -121.812 -103.742 79.4002 -121.865 -105.286 79.4089 
-120.719 -88.6165 75.4544 -120.414 -87.0808 74.9547 -119.813 -85.7565 74.3252 
-119.058 -84.5624 73.4409 -118.274 -83.1761 72.4148 -117.332 -81.7208 71.5141 
-116.309 -80.7649 70.5145 -115.525 -80.4159 69.1899 -114.99 -80.2604 67.9162 
-116.343 -93.1991 76.7348 -117.117 -94.769 77.4427 -117.782 -96.6906 78.4366 
-118.097 -98.4879 79.4759 -118.573 -99.878 80.0854 -119.539 -101.216 80.3843 
-120.421 -102.752 80.5469 -120.877 -104.223 80.3665 -121.244 -105.46 79.8413 
-115.685 -90.7887 75.2929 -115.429 -89.5186 74.3663 -114.923 -88.0477 73.5665 
-114.39 -86.4468 72.8783 -114.145 -85.0785 71.9241 -114.186 -83.9393 70.7813 
-114.349 -82.7949 69.7494 -114.49 -81.7655 68.7532 -114.523 -80.9256 67.7901 
-122.943 -96.6188 61.69 -122.658 -96.7796 61.2718 -122.031 -97.0304 61.0381 
-121.166 -97.2494 60.9694 -120.363 -97.2244 60.94 -119.667 -96.982 61.0255 
-119.009 -96.6925 61.3029 -118.383 -96.4864 61.6254 -117.773 -96.3979 61.8828 
-123.445 -98.234 62.4675 -123.658 -100.239 62.8026 -123.84 -102.393 62.7417 
-124.09 -104.374 62.2664 -124.292 -105.957 62.1179 -124.272 -107.454 62.7239 
-124.089 -109.057 63.7071 -123.847 -110.402 64.7233 -123.48 -111.284 65.703 
-122.428 -94.758 61.5969 -121.493 -92.9942 60.9171 -120.523 -91.3137 59.8999 
-119.561 -89.827 58.821 -118.349 -88.5356 58.1673 -116.955 -87.3942 57.7123 
-115.822 -86.3446 57.0614 -115.063 -85.3767 56.4821 -114.424 -84.5437 56.2783 
-118.271 -97.4905 62.8574 -119.279 -98.8879 63.5259 -119.945 -100.871 63.9587 
-120.137 -103.447 64.0893 -120.312 -105.919 64.1285 -120.96 -107.662 64.4004 
-121.721 -108.907 64.9569 -122.137 -110.057 65.5497 -122.45 -111.098 66.0586 
-116.445 -95.2533 61.2157 -115.601 -94.1024 60.1637 -114.781 -92.9636 58.9066 
-114.071 -91.8276 57.5958 -113.551 -90.6959 56.547 -113.372 -89.4699 55.7649 
-113.492 -87.9906 55.2097 -113.634 -86.4097 55.1803 -113.687 -85.0219 55.7059 
-121.886 -108.14 78.5812 -121.902 -109.731 77.7983 -121.917 -110.886 76.7082 
-122.085 -111.736 75.2582 -122.294 -112.802 73.6553 -122.414 -113.816 72.1168 
-122.581 -114.052 70.6054 -122.815 -113.51 69.0869 -122.951 -112.698 67.7134 
-114.163 -79.2557 66.288 -113.957 -78.6088 65.381 -113.787 -78.5604 64.0177 
-113.349 -78.9108 62.3135 -112.766 -79.0667 60.6033 -112.541 -79.2412 59.0053 
-112.722 -80.0776 57.7661 -113.028 -81.4396 57.1205 -113.365 -82.7721 56.775 
-121.6 -86.3362 66.5313 -121.703 -86.7432 67.7751 -122.342 -87.5788 67.3869 
-121.797 -87.1949 69.0046 -122.498 -87.9972 68.6541 -123.104 -88.9412 68.2053 
-121.858 -87.7147 70.1717 -122.641 -88.5406 69.9157 -123.188 -89.5102 69.4861 
-123.624 -90.855 69.0044 -121.693 -88.4772 71.3265 -122.544 -89.3206 71.0997 
-123.161 -90.2765 70.7621 -123.648 -91.5017 70.2475 -124.013 -92.9327 69.6343 
-121.462 -89.3249 72.4523 -122.147 -90.2489 72.1152 -122.869 -91.1632 71.8374 
-123.525 -92.267 71.4851 -124.17 -93.4411 70.9393 -124.402 -94.7929 70.1871 
-121.419 -90.0266 73.5536 -121.859 -91.0654 73.1057 -122.515 -91.9377 72.7503 
-123.277 -92.9632 72.4742 -124.106 -94.0883 72.1932 -124.559 -95.2904 71.6396 
-124.558 -96.7017 70.79 -121.371 -90.6543 74.6167 -121.775 -91.7591 74.1937 
-122.356 -92.6257 73.8152 -123.083 -93.522 73.4617 -123.886 -94.6585 73.153 
-124.429 -95.9241 72.8033 -124.482 -97.2647 72.1294 -124.471 -98.5728 71.2233 
-120.496 -83.7279 65.603 -119.868 -82.5931 65.7354 -120.563 -84.0527 66.8754 
-119.038 -81.7037 66.0285 -119.924 -82.9038 67.0851 -120.577 -84.5224 68.1847 
-118.185 -80.8463 66.2924 -119.058 -82.0703 67.3942 -120.021 -83.3963 68.4316 
-120.679 -85.0256 69.4092 -117.605 -79.7959 66.6226 -118.244 -81.2809 67.7284 
-119.193 -82.618 68.7673 -120.191 -84.0111 69.7429 -120.774 -85.6587 70.7368 
-117.072 -78.9323 67.2025 -117.781 -80.3479 68.2526 -118.424 -81.8704 69.1943 
-119.349 -83.3448 70.1148 -120.275 -84.7672 71.1765 -120.832 -86.3807 72.1726 
-116.267 -78.8486 67.7145 -117.229 -79.7523 68.8668 -117.966 -81.0511 69.8 
-118.607 -82.7082 70.5641 -119.46 -84.2177 71.5547 -120.351 -85.5333 72.6397 
-120.927 -87.0593 73.4653 -115.474 -79.4691 67.8811 -116.33 -79.8642 69.1771 
-117.291 -80.6151 70.329 -118.113 -82.0431 71.1267 -118.824 -83.7028 71.99 
-119.653 -85.0291 73.0266 -120.447 -86.2679 73.9063 -120.904 -87.791 74.5311 
-114.959 -81.0692 68.8768 -114.872 -81.9834 69.9813 -115.384 -81.2562 70.2657 
-114.814 -83.1839 71.0476 -115.352 -82.4287 71.3005 -116.202 -81.8471 71.5046 
-114.879 -84.4657 72.1267 -115.546 -83.8612 72.2641 -116.275 -83.2638 72.4223 
-117.347 -82.9603 72.5627 -115.103 -85.8279 73.1456 -115.908 -85.3198 73.2377 
-116.522 -84.7809 73.3775 -117.353 -84.2918 73.6843 -118.364 -84.234 73.7719 
-115.48 -87.4403 73.9398 -116.297 -86.8896 74.1293 -116.88 -86.3617 74.3716 
-117.397 -85.7428 74.8486 -118.296 -85.3576 75.1407 -119.196 -85.4609 74.8764 
-115.841 -89.0036 74.7684 -116.537 -88.4536 75.0369 -117.171 -87.9342 75.3686 
[...]
POINT_DATA 1002
FIELD FieldData 2
Theta 1 1002 float
2.58802 2.58802 0.553574 0.553574 2.12437 1.01722 2.12437 1.01722 1.5708 
1.5708 1.5708 1.5708 2.68241 2.78649 2.89924 3.01861 3.14159 3.01861 
2.89924 2.78649 2.68241 2.61035 2.61791 2.60515 2.56958 2.51327 2.44184 
2.36202 2.27983 2.1997 2.61035 2.61791 2.60515 2.56958 2.51327 2.44184 
2.36202 2.27983 2.1997 2.50947 2.41899 2.31794 2.20864 2.0944 1.97902 
1.86631 1.75944 1.66056 2.50947 2.41899 2.31794 2.20864 2.0944 1.97902 
1.86631 1.75944 1.66056 2.61035 2.61791 2.60515 2.56958 2.51327 2.44184 
2.36202 2.27983 2.1997 2.61035 2.61791 2.60515 2.56958 2.51327 2.44184 
2.36202 2.27983 2.1997 2.50947 2.41899 2.31794 2.20864 2.0944 1.97902 
1.86631 1.75944 1.66056 2.50947 2.41899 2.31794 2.20864 2.0944 1.97902 
1.86631 1.75944 1.66056 0.459179 0.355101 0.242354 0.122983 0 0.122983 
0.242354 0.355101 0.459179 0.531246 0.523681 0.536438 0.57201 0.628319 0.699757 
0.779574 0.86176 0.941896 0.531246 0.523681 0.536438 0.57201 0.628319 0.699757 
0.779574 0.86176 0.941896 0.632123 0.7226 0.823657 0.932948 1.0472 1.16257 
1.27528 1.38216 1.48103 0.632123 0.7226 0.823657 0.932948 1.0472 1.16257 
1.27528 1.38216 1.48103 0.531246 0.523681 0.536438 0.57201 0.628319 0.699757 
0.779574 0.86176 0.941896 0.531246 0.523681 0.536438 0.57201 0.628319 0.699757 
0.779574 0.86176 0.941896 0.632123 0.7226 0.823657 0.932948 1.0472 1.16257 
1.27528 1.38216 1.48103 0.632123 0.7226 0.823657 0.932948 1.0472 1.16257 
1.27528 1.38216 1.48103 2.02998 1.9259 1.81315 1.69378 1.5708 1.44781 
1.32844 1.2157 1.11162 2.0928 2.05283 2.00422 1.94767 1.88496 1.81867 
1.75177 1.68695 1.62623 2.0928 2.05283 2.00422 1.94767 1.88496 1.81867 
1.75177 1.68695 1.62623 1.0488 1.08876 1.13737 1.19392 1.25664 1.32292 
1.38982 1.45464 1.51537 1.0488 1.08876 1.13737 1.19392 1.25664 1.32292 
1.38982 1.45464 1.51537 2.02998 1.9259 1.81315 1.69378 1.5708 1.44781 
1.32844 1.2157 1.11162 2.0928 2.05283 2.00422 1.94767 1.88496 1.81867 
1.75177 1.68695 1.62623 2.0928 2.05283 2.00422 1.94767 1.88496 1.81867 
1.75177 1.68695 1.62623 1.0488 1.08876 1.13737 1.19392 1.25664 1.32292 
1.38982 1.45464 1.51537 1.0488 1.08876 1.13737 1.19392 1.25664 1.32292 
1.38982 1.45464 1.51537 1.5708 1.5708 1.5708 1.5708 1.5708 1.5708 
1.5708 1.5708 1.5708 1.5708 1.5708 1.5708 1.5708 1.5708 1.5708 
1.5708 1.5708 1.5708 2.70908 2.71362 2.81592 2.68886 2.81002 2.92597 
2.6349 2.76254 2.89233 3.01997 2.55881 2.68262 2.80854 2.92834 3.01997 
2.47007 2.58462 2.70048 2.80854 2.89233 2.92597 2.37702 2.48017 2.58462 
2.68262 2.76254 2.81002 2.81592 2.28567 2.37702 2.47007 2.55881 2.6349 
2.68886 2.71362 2.70908 2.52097 2.4195 2.51718 2.30791 2.40503 2.49426 
2.18928 2.28408 2.3734 2.45144 2.06758 2.15805 2.24572 2.32523 2.39165 
1.94707 2.03138 2.11543 2.19453 2.26401 2.32035 1.83164 1.90847 1.98711 
2.06376 2.13422 2.1949 2.24359 1.72413 1.79288 1.86489 1.93728 2.00658 
2.06938 2.12312 2.16654 1.5708 1.50988 1.63171 1.44492 1.5708 1.69667 
1.37826 1.5059 1.63569 1.76333 1.31281 1.43962 1.5708 1.70197 1.82878 
1.25155 1.37501 1.50478 1.63681 1.76659 1.89004 1.19686 1.31493 1.44074 
1.5708 1.70086 1.82666 1.94473 1.15011 1.26149 1.38136 1.50697 1.63462 
1.76024 1.88011 1.99148 1.99148 1.88011 1.94473 1.76024 1.82666 1.89004 
1.63462 1.70086 1.76659 1.82878 1.50697 1.5708 1.63681 1.70197 1.76333 
1.38136 1.44074 1.50478 1.5708 1.63569 1.69667 1.26149 1.31493 1.37501 
1.43962 1.5059 1.5708 1.63171 1.15011 1.19686 1.25155 1.31281 1.37826 
1.44492 1.50988 1.5708 2.16654 2.12312 2.24359 2.06938 2.1949 2.32035 
2.00658 2.13422 2.26401 2.39165 1.93728 2.06376 2.19453 2.32523 2.45144 
1.86489 1.98711 2.11543 2.24572 2.3734 2.49426 1.79288 1.90847 2.03138 
2.15805 2.28408 2.40503 2.51718 1.72413 1.83164 1.94707 2.06758 2.18928 
2.30791 2.4195 2.52097 1.66533 1.66946 1.76911 1.67254 1.777 1.88041 
1.67418 1.78222 1.89102 1.99634 1.67418 1.78405 1.89674 2.00785 2.11299 
1.67254 1.78222 1.89674 2.01191 2.12307 2.22608 1.66946 1.777 1.89102 
2.00785 2.12307 2.23222 2.33166 1.66533 1.76911 1.88041 1.99634 2.11299 
2.22608 2.33166 2.42672 1.47626 1.37249 1.47213 1.26118 1.36459 1.46906 
1.14526 1.25058 1.35938 1.46741 1.0286 1.13374 1.24485 1.35755 1.46741 
0.915514 1.01852 1.12969 1.24485 1.35938 1.46906 0.809937 0.909371 1.01852 
1.13374 1.25058 1.36459 1.47213 0.714871 0.809937 0.915514 1.0286 1.14526 
1.26118 1.37249 1.47626 0.975055 0.898002 1.01847 0.821245 0.946693 1.07221 
0.749941 0.877585 1.00737 1.13501 0.690152 0.816367 0.94706 1.07784 1.20431 
0.647337 0.768195 0.895868 1.02616 1.15448 1.2767 0.624416 0.736561 0.857515 
0.983547 1.11021 1.23313 1.34871 0.620619 0.722093 0.833684 0.952313 1.07402 
1.19452 1.30996 1.41746 0.855925 0.764569 0.764569 0.671524 0.661425 0.671524 
0.582786 0.556971 0.556971 0.582786 0.506696 0.458968 0.441109 0.458968 0.506696 
0.45273 0.379052 0.333054 0.333054 0.379052 0.45273 0.427969 0.331576 0.249267 
0.21325 0.249267 0.331576 0.427969 0.432512 0.325669 0.215619 0.121622 0.121622 
0.215619 0.325669 0.432512 0.432512 0.427969 0.325669 0.45273 0.331576 0.215619 
0.506696 0.379052 0.249267 0.121622 0.582786 0.458968 0.333054 0.21325 0.121622 
0.671524 0.556971 0.441109 0.333054 0.249267 0.215619 0.764569 0.661425 0.556971 
0.458968 0.379052 0.331576 0.325669 0.855925 0.764569 0.671524 0.582786 0.506696 
0.45273 0.427969 0.432512 0.975055 1.01847 0.898002 1.07221 0.946693 0.821245 
1.13501 1.00737 0.877585 0.749941 1.20431 1.07784 0.94706 0.816367 0.690152 
1.2767 1.15448 1.02616 0.895868 0.768195 0.647337 1.34871 1.23313 1.11021 
0.983547 0.857515 0.736561 0.624416 1.41746 1.30996 1.19452 1.07402 0.952313 
0.833684 0.722093 0.620619 1.15011 1.26149 1.19686 1.38136 1.31493 1.25155 
1.50697 1.44074 1.37501 1.31281 1.63462 1.5708 1.50478 1.43962 1.37826 
1.76024 1.70086 1.63681 1.5708 1.5059 1.44492 1.88011 1.82666 1.76659 
1.70197 1.63569 1.5708 1.50988 1.99148 1.94473 1.89004 1.82878 1.76333 
1.69667 1.63171 1.5708 1.15011 1.19686 1.26149 1.25155 1.31493 1.38136 
1.31281 1.37501 1.44074 1.50697 1.37826 1.43962 1.50478 1.5708 1.63462 
1.44492 1.5059 1.5708 1.63681 1.70086 1.76024 1.50988 1.5708 1.63569 
1.70197 1.76659 1.82666 1.88011 1.5708 1.63171 1.69667 1.76333 1.82878 
1.89004 1.94473 1.99148 1.72413 1.83164 1.79288 1.94707 1.90847 1.86489 
2.06758 2.03138 1.98711 1.93728 2.18928 2.15805 2.11543 2.06376 2.00658 
2.30791 2.28408 2.24572 2.19453 2.13422 2.06938 2.4195 2.40503 2.3734 
2.32523 2.26401 2.1949 2.12312 2.52097 2.51718 2.49426 2.45144 2.39165 
2.32035 2.24359 2.16654 2.70908 2.81592 2.71362 2.92597 2.81002 2.68886 
3.01997 2.89233 2.76254 2.6349 3.01997 2.92834 2.80854 2.68262 2.55881 
2.92597 2.89233 2.80854 2.70048 2.58462 2.47007 2.81592 2.81002 2.76254 
2.68262 2.58462 2.48017 2.37702 2.70908 2.71362 2.68886 2.6349 2.55881 
2.47007 2.37702 2.28567 2.16654 2.24359 2.12312 2.32035 2.1949 2.06938 
2.39165 2.26401 2.13422 2.00658 2.45144 2.32523 2.19453 2.06376 1.93728 
2.49426 2.3734 2.24572 2.11543 1.98711 1.86489 2.51718 2.40503 2.28408 
2.15805 2.03138 1.90847 1.79288 2.52097 2.4195 2.30791 2.18928 2.06758 
1.94707 1.83164 1.72413 1.66533 1.76911 1.66946 1.88041 1.777 1.67254 
1.99634 1.89102 1.78222 1.67418 2.11299 2.00785 1.89674 1.78405 1.67418 
2.22608 2.12307 2.01191 1.89674 1.78222 1.67254 2.33166 2.23222 2.12307 
2.00785 1.89102 1.777 1.66946 2.42672 2.33166 2.22608 2.11299 1.99634 
1.88041 1.76911 1.66533 1.47626 1.47213 1.37249 1.46906 1.36459 1.26118 
1.46741 1.35938 1.25058 1.14526 1.46741 1.35755 1.24485 1.13374 1.0286 
1.46906 1.35938 1.24485 1.12969 1.01852 0.915514 1.47213 1.36459 1.25058 
1.13374 1.01852 0.909371 0.809937 1.47626 1.37249 1.26118 1.14526 1.0286 
0.915514 0.809937 0.714871 1.41746 1.30996 1.34871 1.19452 1.23313 1.2767 
1.07402 1.11021 1.15448 1.20431 0.952313 0.983547 1.02616 1.07784 1.13501 
0.833684 0.857515 0.895868 0.94706 1.00737 1.07221 0.722093 0.736561 0.768195 
0.816367 0.877585 0.946693 1.01847 0.620619 0.624416 0.647337 0.690152 0.749941 
0.821245 0.898002 0.975055 0.975055 0.898002 1.01847 0.821245 0.946693 1.07221 
0.749941 0.877585 1.00737 1.13501 0.690152 0.816367 0.94706 1.07784 1.20431 
0.647337 0.768195 0.895868 1.02616 1.15448 1.2767 0.624416 0.736561 0.857515 
0.983547 1.11021 1.23313 1.34871 0.620619 0.722093 0.833684 0.952313 1.07402 
1.19452 1.30996 1.41746 
Phi 1 1002 float
6.28319 3.14159 6.28319 3.14159 4.71239 4.71239 1.5708 1.5708 3.69517 
5.72961 2.58802 0.553574 6.28319 6.28319 6.28319 6.28319 3.14159 3.14159 
3.14159 3.14159 3.14159 6.1053 5.8988 5.67687 5.45995 5.26596 5.10322 
4.97131 4.86569 4.78095 0.177881 0.384387 0.606312 0.823235 1.01722 1.17997 
1.31187 1.4175 1.50223 6.18928 6.10703 6.03531 5.97283 5.91832 5.87061 
5.82869 5.79168 5.75886 0.0939024 0.176153 0.247873 0.310351 0.364864 0.412573 
0.454497 0.491504 0.524326 3.31947 3.52598 3.7479 3.96483 4.15881 4.32156 
4.45346 4.55909 4.64383 2.96371 2.75721 2.53528 2.31836 2.12437 1.96162 
1.82972 1.72409 1.63936 3.2355 3.31775 3.38947 3.45194 3.50646 3.55417 
3.59609 3.6331 3.66592 3.04769 2.96544 2.89372 2.83124 2.77673 2.72902 
2.6871 2.65009 2.61727 6.28319 6.28319 6.28319 6.28319 3.14159 3.14159 
3.14159 3.14159 3.14159 6.1053 5.8988 5.67687 5.45995 5.26596 5.10322 
4.97131 4.86569 4.78095 0.177881 0.384387 0.606312 0.823235 1.01722 1.17997 
1.31187 1.4175 1.50223 6.18928 6.10703 6.03531 5.97283 5.91832 5.87061 
5.82869 5.79168 5.75886 0.0939024 0.176153 0.247873 0.310351 0.364864 0.412573 
0.454497 0.491504 0.524326 3.31947 3.52598 3.7479 3.96483 4.15881 4.32156 
4.45346 4.55909 4.64383 2.96371 2.75721 2.53528 2.31836 2.12437 1.96162 
1.82972 1.72409 1.63936 3.2355 3.31775 3.38947 3.45194 3.50646 3.55417 
3.59609 3.6331 3.66592 3.04769 2.96544 2.89372 2.83124 2.77673 2.72902 
2.6871 2.65009 2.61727 4.71239 4.71239 4.71239 4.71239 4.71239 4.71239 
4.71239 4.71239 4.71239 4.60879 4.49914 4.3857 4.27128 4.15881 4.05096 
3.94976 3.85646 3.77161 4.81599 4.92564 5.03907 5.1535 5.26596 5.37381 
5.47502 5.56831 5.65317 4.60879 4.49914 4.3857 4.27128 4.15881 4.05096 
3.94976 3.85646 3.77161 4.81599 4.92564 5.03907 5.1535 5.26596 5.37381 
5.47502 5.56831 5.65317 1.5708 1.5708 1.5708 1.5708 1.5708 1.5708 
1.5708 1.5708 1.5708 1.6744 1.78405 1.89748 2.01191 2.12437 2.23222 
2.33343 2.42672 2.51157 1.4672 1.35755 1.24411 1.12969 1.01722 0.909371 
0.808166 0.714871 0.63002 1.6744 1.78405 1.89748 2.01191 2.12437 2.23222 
2.33343 2.42672 2.51157 1.4672 1.35755 1.24411 1.12969 1.01722 0.909371 
0.808166 0.714871 0.63002 3.60077 3.49669 3.38395 3.26458 3.14159 3.01861 
2.89924 2.78649 2.68241 5.82401 5.92808 6.04083 6.1602 6.28319 0.122983 
0.242354 0.355101 0.459179 6.05603 5.78856 5.97021 5.51259 5.60297 5.78856 
5.26596 5.26596 5.26596 5.26596 5.06749 5.0121 4.91556 4.71239 4.15881 
4.91556 4.83537 4.71239 4.50922 4.15881 3.63622 4.80045 4.71239 4.58941 
4.41268 4.15881 3.82181 3.45456 4.71239 4.62433 4.50922 4.35729 4.15881 
3.91219 3.63622 3.36875 6.01742 5.94343 5.82633 5.88092 5.76745 5.62798 
5.8278 5.71897 5.58911 5.43724 5.78235 5.67854 5.55757 5.41926 5.26596 
5.74316 5.64441 5.5315 5.40467 5.26596 5.11955 5.70914 5.61528 5.50962 
5.3926 5.26596 5.13292 4.99789 5.67937 5.59016 5.49102 5.38246 5.26596 
5.14407 5.02016 4.89798 5.56831 5.47502 5.47502 5.37381 5.37381 5.37381 
5.26596 5.26596 5.26596 5.26596 5.1535 5.1535 5.1535 5.1535 5.1535 
5.03907 5.03907 5.03907 5.03907 5.03907 5.03907 4.92564 4.92564 4.92564 
4.92564 4.92564 4.92564 4.92564 4.81599 4.81599 4.81599 4.81599 4.81599 
4.81599 4.81599 4.81599 4.60879 4.60879 4.49914 4.60879 4.49914 4.3857 
4.60879 4.49914 4.3857 4.27128 4.60879 4.49914 4.3857 4.27128 4.15881 
4.60879 4.49914 4.3857 4.27128 4.15881 4.05096 4.60879 4.49914 4.3857 
4.27128 4.15881 4.05096 3.94976 4.60879 4.49914 4.3857 4.27128 4.15881 
4.05096 3.94976 3.85646 4.5268 4.40462 4.42689 4.28071 4.29185 4.30523 
4.15881 4.15881 4.15881 4.15881 4.04232 4.03217 4.02011 4.00552 3.98753 
3.93376 3.91515 3.89328 3.86721 3.83566 3.7968 3.83461 3.8095 3.78037 
3.74624 3.70581 3.65733 3.59845 3.7454 3.71564 3.68161 3.64243 3.59698 
3.54386 3.48135 3.40735 3.56428 3.45246 3.52338 3.33203 3.40312 3.47739 
3.20576 3.27463 3.34802 3.42551 3.07742 3.14159 3.21128 3.28647 3.36688 
2.95116 3.00855 3.0719 3.14159 3.21784 3.3006 2.83072 2.88006 2.93517 
2.99672 3.06535 3.14159 3.22575 2.7189 2.7598 2.8058 2.85768 2.9163 
2.98259 3.05743 3.14159 3.56428 3.52338 3.45246 3.47739 3.40312 3.33203 
3.42551 3.34802 3.27463 3.20576 3.36688 3.28647 3.21128 3.14159 3.07742 
3.3006 3.21784 3.14159 3.0719 3.00855 2.95116 3.22575 3.14159 3.06535 
2.99672 2.93517 2.88006 2.83072 3.14159 3.05743 2.98259 2.9163 2.85768 
2.8058 2.7598 2.7189 4.5268 4.42689 4.40462 4.30523 4.29185 4.28071 
4.15881 4.15881 4.15881 4.15881 3.98753 4.00552 4.02011 4.03217 4.04232 
3.7968 3.83566 3.86721 3.89328 3.91515 3.93376 3.59845 3.65733 3.70581 
3.74624 3.78037 3.8095 3.83461 3.40735 3.48135 3.54386 3.59698 3.64243 
3.68161 3.71564 3.7454 4.71239 4.80045 4.62433 4.91556 4.71239 4.50922 
5.06749 4.83537 4.58941 4.35729 5.26596 5.0121 4.71239 4.41268 4.15881 
5.51259 5.26596 4.91556 4.50922 4.15881 3.91219 5.78856 5.60297 5.26596 
4.71239 4.15881 3.82181 3.63622 6.05603 5.97021 5.78856 5.26596 4.15881 
3.63622 3.45456 3.36875 0.227158 0.494626 0.312971 0.770593 0.680215 0.494626 
1.01722 1.01722 1.01722 1.01722 1.2157 1.27109 1.36763 1.5708 2.12437 
1.36763 1.44781 1.5708 1.77397 2.12437 2.64697 1.48273 1.5708 1.69378 
1.8705 2.12437 2.46138 2.82862 1.5708 1.65886 1.77397 1.9259 2.12437 
2.371 2.64697 2.91443 1.75639 1.87857 1.8563 2.00248 1.99133 1.97796 
2.12437 2.12437 2.12437 2.12437 2.24087 2.25101 2.26308 2.27767 2.29565 
2.34943 2.36803 2.38991 2.41597 2.44752 2.48639 2.44857 2.47368 2.50281 
2.53694 2.57738 2.62586 2.68474 2.53778 2.56754 2.60157 2.64076 2.68621 
2.73933 2.80184 2.87583 1.6744 1.6744 1.78405 1.6744 1.78405 1.89748 
1.6744 1.78405 1.89748 2.01191 1.6744 1.78405 1.89748 2.01191 2.12437 
1.6744 1.78405 1.89748 2.01191 2.12437 2.23222 1.6744 1.78405 1.89748 
2.01191 2.12437 2.23222 2.33343 1.6744 1.78405 1.89748 2.01191 2.12437 
2.23222 2.33343 2.42672 1.4672 1.35755 1.4672 1.24411 1.35755 1.4672 
1.12969 1.24411 1.35755 1.4672 1.01722 1.12969 1.24411 1.35755 1.4672 
0.909371 1.01722 1.12969 1.24411 1.35755 1.4672 0.808166 0.909371 1.01722 
1.12969 1.24411 1.35755 1.4672 0.714871 0.808166 0.909371 1.01722 1.12969 
1.24411 1.35755 1.4672 0.603812 0.57405 0.693022 0.540021 0.667908 0.792164 
0.500837 0.638778 0.773562 0.900726 0.455383 0.604649 0.751687 0.890581 1.01722 
0.402264 0.564217 0.725619 0.878514 1.01722 1.13912 0.339753 0.515737 0.694072 
0.863926 1.01722 1.15026 1.26302 0.265762 0.456853 0.655207 0.845941 1.01722 
1.16363 1.28529 1.38521 0.227158 0.312971 0.494626 0.494626 0.680215 0.770593 
1.01722 1.01722 1.01722 1.01722 2.12437 1.5708 1.36763 1.27109 1.2157 
2.64697 2.12437 1.77397 1.5708 1.44781 1.36763 2.82862 2.46138 2.12437 
1.8705 1.69378 1.5708 1.48273 2.91443 2.64697 2.371 2.12437 1.9259 
1.77397 1.65886 1.5708 1.75639 1.8563 1.87857 1.97796 1.99133 2.00248 
2.12437 2.12437 2.12437 2.12437 2.29565 2.27767 2.26308 2.25101 2.24087 
2.48639 2.44752 2.41597 2.38991 2.36803 2.34943 2.68474 2.62586 2.57738 
2.53694 2.50281 2.47368 2.44857 2.87583 2.80184 2.73933 2.68621 2.64076 
2.60157 2.56754 2.53778 5.86049 5.90139 5.97231 5.94739 6.02165 6.09275 
5.99927 6.07676 6.15015 6.21902 6.0579 6.13831 6.2135 0 0.0641696 
6.12418 6.20694 6.28319 0.069689 0.13304 0.190437 6.19903 0 0.0762451 
0.144876 0.206423 0.261531 0.310872 0 0.0841597 0.159004 0.225289 0.283913 
0.335793 0.381792 0.422692 5.86049 5.97231 5.90139 6.09275 6.02165 5.94739 
6.21902 6.15015 6.07676 5.99927 0.0641696 0 6.2135 6.13831 6.0579 
0.190437 0.13304 0.069689 6.28319 6.20694 6.12418 0.310872 0.261531 0.206423 
0.144876 0.0762451 6.28319 6.19903 0.422692 0.381792 0.335793 0.283913 0.225289 
0.159004 0.0841597 0 5.67937 5.70914 5.59016 5.74316 5.61528 5.49102 
5.78235 5.64441 5.50962 5.38246 5.8278 5.67854 5.5315 5.3926 5.26596 
5.88092 5.71897 5.55757 5.40467 5.26596 5.14407 5.94343 5.76745 5.58911 
5.41926 5.26596 5.13292 5.02016 6.01742 5.82633 5.62798 5.43724 5.26596 
5.11955 4.99789 4.89798 1.38521 1.28529 1.26302 1.16363 1.15026 1.13912 
1.01722 1.01722 1.01722 1.01722 0.845941 0.863926 0.878514 0.890581 0.900726 
0.655207 0.694072 0.725619 0.751687 0.773562 0.792164 0.456853 0.515737 0.564217 
0.604649 0.638778 0.667908 0.693022 0.265762 0.339753 0.402264 0.455383 0.500837 
0.540021 0.57405 0.603812 
