# vtk DataFile Version 4.0
vtk output
ASCII
DATASET POLYDATA
POINTS 1002 float
-125.525 -84.6126 63.3967 -127.066 -97.7158 71.7719 -112.688 -85.622 66.2154 
-119.455 -99.968 71.9022 -126.115 -87.1397 68.9022 -121.12 -97.3246 61.3857 
-122.957 -95.3619 59.0865 -117.581 -90.5746 58.5384 -121.075 -95.3183 80.6039 
-118.849 -78.4749 68.5851 -123.974 -111.922 70.9839 -115.562 -79.1835 55.5705 
-126.291 -83.8482 63.5122 -126.119 -83.5276 62.2844 -124.823 -86.8119 60.105 
-124.614 -93.1508 60.0413 -126.568 -96.8409 63.1734 -127.865 -96.0695 66.3674 
-127.193 -95.4063 67.9183 -126.624 -96.5625 69.1281 -126.906 -97.4842 70.588 
-126.029 -86.6053 63.2779 -125.897 -89.0292 62.2556 -125.174 -90.9551 60.9037 
-124.495 -91.6722 60.2503 -124.115 -92.3572 60.0788 -123.979 -94.033 59.6458 
-124.517 -94.7896 59.9089 -125.623 -92.8424 62.1194 -126.313 -89.5568 65.6233 
-125.265 -83.088 63.1443 -124.808 -82.5122 62.52 -124.352 -82.7816 61.5247 
-124.027 -83.3129 60.0575 -123.56 -84.0824 58.5239 -122.816 -85.3765 57.5862 
-122.144 -87.0948 57.2336 -121.876 -89.2661 57.3573 -122.157 -92.1012 58.0832 
-125.212 -85.3102 63.343 -125.277 -84.0657 64.1511 -125.289 -81.3354 65.7535 
-124.539 -79.4778 66.8096 -123.407 -78.9896 66.8874 -122.625 -78.1779 67.1021 
-121.846 -77.2227 67.7483 -120.693 -77.3091 68.1857 -119.577 -77.9919 68.3644 
-124.595 -83.1934 62.8883 -123.997 -80.9621 62.4342 -123.53 -78.8487 62.0148 
-122.554 -77.7494 61.0679 -121.231 -77.3689 59.6599 -120.096 -77.0931 58.4724 
-119.009 -77.161 57.6083 -117.764 -77.7339 56.8176 -116.548 -78.4625 56.1086 
-126.773 -96.3903 71.7287 -126.669 -95.0187 71.3454 -126.774 -93.3852 70.8044 
-126.765 -91.6928 70.2368 -126.642 -90.403 69.6336 -126.67 -89.5255 68.9952 
-126.738 -88.9278 68.3301 -126.667 -88.5414 67.8622 -126.473 -88.023 68.0212 
-127.366 -98.9411 70.9711 -127.333 -100.019 70.0523 -126.915 -100.807 68.8661 
-126.63 -101.394 67.2809 -126.915 -102.156 65.7794 -127.484 -103.33 64.5625 
-127.537 -103.928 63.1335 -126.495 -102.495 61.5586 -124.686 -99.1678 60.2388 
-126.66 -97.271 72.7031 -126.278 -97.4979 73.4444 -126.158 -98.0467 74.2344 
-125.831 -97.9756 75.2406 -124.985 -97.3977 76.1373 -124.327 -96.959 76.9408 
-124.076 -96.5835 78.0743 -123.413 -96.1021 79.2552 -122.162 -95.636 80.0507 
-126.952 -99.0963 72.0474 -126.553 -101.238 72.0744 -126.412 -103.503 72.1567 
-126.595 -105.592 72.2085 -126.592 -107.734 72.1392 -126.405 -109.424 72.1235 
-126.109 -110.425 71.9774 -125.424 -111.305 71.5798 -124.56 -111.966 71.2264 
-113.424 -86.7967 65.8587 -114.546 -88.1137 65.7847 -115.599 -88.8674 65.9973 
-117.001 -89.9248 64.8447 -119.45 -93.5625 62.8994 -121.433 -98.3304 63.6853 
-121.233 -100.168 67.1051 -120.018 -99.4817 69.7946 -119.43 -99.2657 70.9786 
-113.264 -86.1641 66.7051 -114.248 -87.0012 67.19 -114.968 -88.0048 68.4792 
-115.314 -89.2224 69.8175 -116.075 -90.6917 69.6801 -117.212 -91.8873 68.81 
-118.232 -92.9486 67.7713 -119.52 -94.7564 65.1885 -120.845 -96.7361 62.0322 
-112.956 -85.7594 65.1269 -113.559 -85.7803 63.6721 -113.992 -85.9133 62.2402 
-114.154 -86.4331 61.057 -114.42 -87.269 60.0991 -114.744 -88.0894 59.4839 
-114.826 -88.563 59.1728 -115.023 -88.7607 58.8476 -115.939 -89.2779 58.5392 
-112.718 -84.885 66.6228 -113.262 -84.1572 66.4635 -113.889 -83.3316 66.194 
-114.348 -82.1809 66.5318 -114.89 -81.0539 67.1646 -115.692 -80.3662 67.4355 
-116.641 -79.7406 67.6213 -117.519 -79.057 67.982 -118.201 -78.6602 68.3067 
-112.469 -84.9242 65.3879 -112.507 -84.1883 63.6715 -112.458 -83.0311 61.9089 
-112.501 -81.9376 60.5291 -112.964 -81.5529 59.0631 -113.481 -81.3949 57.6522 
-113.774 -80.7999 56.735 -114.171 -80.0175 56.1342 -114.823 -79.4768 55.7177 
-118.819 -99.1253 71.8888 -118.397 -98.1473 71.7071 -118.359 -96.9156 71.5529 
-118.546 -95.8403 71.1502 -118.939 -95.6045 69.5183 -119.863 -96.2038 66.4451 
-121.211 -97.1142 63.007 -122.172 -97.9428 60.4382 -122.099 -98.184 59.7604 
-120.022 -100.359 71.1396 -120.556 -100.929 70.3045 -121.088 -101.804 69.0854 
-121.76 -102.875 67.1963 -122.61 -103.556 65.1005 -123.115 -102.737 63.36 
-122.482 -99.8631 61.8274 -120.818 -95.9701 60.4049 -118.998 -92.6504 59.3175 
-119.208 -99.9598 73.2058 -119.134 -99.181 74.6786 -119.424 -98.2047 75.817 
-119.817 -97.9281 76.6201 -120.094 -97.8908 77.5793 -120.573 -97.1185 78.8434 
-121.028 -95.9114 80.011 -120.924 -95.2111 80.6534 -120.712 -95.1837 80.7635 
-119.919 -101.004 72.5039 -120.223 -102.046 72.9606 -120.474 -103.154 73.2046 
-120.897 -104.533 73.3487 -121.407 -106.221 73.1576 -121.96 -107.808 72.551 
-122.625 -108.976 72.0847 -123.193 -110.043 71.8899 -123.569 -111.163 71.5516 
-125.266 -85.9012 71.2075 -124.232 -85.3681 73.1609 -123.319 -85.1521 74.7452 
-122.356 -85.3989 75.4467 -120.936 -86.3376 75.3192 -119.168 -87.4524 75.3905 
-118.003 -89.0615 74.5233 -118.327 -91.9993 70.6237 -119.754 -95.3099 65.1663 
-125.608 -86.5039 71.0478 -124.781 -86.9506 72.7765 -124.226 -88.0676 74.0379 
-124.066 -88.9868 75.5638 -123.751 -89.9176 77.33 -123.347 -91.405 78.4091 
-123.122 -93.1131 78.9454 -122.605 -94.4485 79.6974 -121.714 -95.1257 80.4336 
-125.889 -86.7479 68.7533 -125.61 -85.496 69.5664 -125.292 -84.0627 70.5987 
-124.522 -83.1354 70.9207 -123.336 -82.1094 70.8985 -122.437 -80.5605 71.2044 
-121.768 -79.2694 71.2572 -120.774 -78.6914 70.524 -119.655 -78.5301 69.4706 
-120.572 -96.8388 62.9337 -118.688 -94.768 67.7086 -117.199 -92.9029 72.6499 
-117.395 -92.2412 75.6058 -118.609 -92.1381 77.3955 -119.902 -92.8601 78.8543 
-120.852 -94.496 79.9162 -121.052 -95.4699 80.6793 -120.855 -95.3619 80.9641 
-119.658 -95.3139 64.6603 -117.811 -92.0255 69.7524 -116.834 -88.412 73.5775 
-117.061 -85.379 73.9863 -117.607 -83.3236 72.7425 -117.994 -82.0134 72.1262 
-118.363 -80.8142 71.6506 -118.629 -79.6468 70.6029 -118.738 -78.8913 69.4587 
-122.738 -95.1758 58.815 -122.462 -94.8072 58.3148 -121.716 -94.0517 57.9825 
-120.646 -93.108 57.9365 -119.822 -92.2128 57.7456 -119.308 -91.4178 57.6165 
-118.876 -90.9369 57.9422 -118.472 -90.8093 58.2722 -118.037 -90.7199 58.3565 
-125.055 -100.922 60.4276 -126.498 -104.842 60.6881 -126.349 -106.019 60.4245 
-125.734 -106.71 61.0744 -125.973 -108.812 62.5013 -126.199 -110.656 63.7933 
-125.561 -111.129 65.371 -124.765 -111.409 67.514 -124.315 -111.886 69.5179 
-121.282 -90.0409 57.2422 -120.881 -86.7654 55.8487 -121.027 -85.4716 55.5246 
-120.342 -84.1021 55.4368 -119.118 -82.5195 54.8913 -118.238 -81.849 54.7373 
-117.462 -81.4353 55.138 -116.612 -80.5652 55.2964 -115.97 -79.7029 55.2853 
-120.551 -94.4209 59.2113 -123.036 -99.9881 60.0033 -123.542 -104.602 61.0351 
-122.956 -106.689 62.3974 -123.059 -107.92 63.7823 -123.484 -109.4 64.8869 
-123.45 -110.278 66.149 -123.455 -110.733 67.917 -123.732 -111.407 69.6972 
-115.718 -88.8915 57.5052 -115.069 -88.2339 56.0756 -114.974 -87.0259 54.6749 
-114.565 -85.0994 53.5813 -114.392 -83.8587 52.7203 -114.857 -83.5808 52.4939 
-115.121 -83.0847 53.1636 -114.975 -81.8261 54.1086 -115.055 -80.3474 54.8695 
-121.58 -96.0651 79.8465 -122.608 -97.9399 79.1025 -123.276 -100.319 78.9603 
-123.342 -102.71 78.6851 -123.584 -105.346 77.727 -123.804 -107.628 76.6745 
-123.479 -109.041 75.4597 -123.329 -110.298 73.8562 -123.685 -111.466 72.3392 
-118.592 -78.1116 67.6019 -118.252 -77.439 66.3807 -117.763 -76.6344 65.0487 
-117.386 -76.2704 63.8811 -117.043 -76.3099 62.3518 -116.404 -76.3058 60.2639 
-115.905 -76.6277 58.5794 -115.841 -77.4956 57.4918 -115.77 -78.3922 56.4715 
-126.372 -85.3853 63.0361 -125.541 -87.549 61.7993 -125.595 -85.4387 61.5075 
-124.439 -89.5086 60.6309 -124.671 -88.2805 60.7077 -124.581 -89.969 60.0333 
-123.837 -91.2867 60.0936 -124.292 -91.1415 60.3686 -124.828 -93.0919 60.6369 
-125.612 -95.3957 61.5274 -123.647 -93.8199 59.5996 -124.536 -93.6668 60.3076 
-125.587 -94.9473 61.3332 -126.626 -95.8867 63.112 -127.562 -95.8354 65.0187 
-124.012 -95.7725 59.3585 -124.912 -95.2379 60.4352 -126.2 -95.0285 61.9233 
-127.066 -94.7143 63.9533 -127.587 -93.9198 66.1074 -127.548 -94.0773 67.3328 
-125.22 -94.6231 60.8771 -125.639 -94.389 61.6493 -126.525 -93.414 63.2221 
-127.054 -92.6315 64.8713 -127.181 -92.1794 66.6742 -126.958 -92.8706 67.9951 
-126.594 -94.6977 68.641 -126.356 -91.1005 64.2985 -126.511 -91.4045 64.4466 
-126.796 -90.9468 65.5755 -126.926 -90.6668 66.7459 -126.932 -90.9794 67.8306 
-126.829 -92.2062 68.863 -126.56 -94.1744 69.6429 -126.521 -96.0516 70.2121 
-125.734 -87.8335 62.9631 -125.919 -86.0807 63.9149 -125.807 -90.4087 61.8394 
-125.847 -82.6434 66.0085 -126.226 -87.9943 63.2767 -125.585 -91.8061 60.9969 
-124.784 -80.7022 67.3433 -126.092 -83.9753 65.9603 -126.429 -88.8133 63.2367 
-125.519 -91.6614 61.1551 -123.602 -80.0314 67.6003 -124.943 -81.7263 67.656 
-126.321 -84.6286 66.339 -126.74 -88.4595 63.9677 -125.513 -91.5324 61.4833 
-122.911 -78.8803 68.1189 -123.888 -80.6224 68.433 -125.051 -82.2636 68.3249 
-126.487 -84.6403 67.1938 -126.833 -88.0127 64.771 -125.543 -91.8927 61.7509 
-121.986 -78.0091 68.8857 -123.114 -79.3908 69.3722 -123.809 -81.0609 69.482 
-124.883 -82.6641 69.1714 -126.361 -84.5558 68.1381 -126.657 -87.5808 65.818 
-125.889 -91.0898 63.1487 -120.705 -78.1134 69.28 -122 -78.6719 70.1596 
-122.821 -79.9483 70.5072 -123.418 -81.6531 70.2308 -124.69 -83.0389 69.9127 
-125.983 -84.3846 69.2401 -126.282 -86.6098 67.5432 -126.163 -88.8504 65.855 
-119.567 -79.0387 70.5272 -119.417 -79.9304 71.6573 -120.541 -79.2701 71.572 
-119.025 -81.1973 72.3034 -120.187 -80.2196 72.4522 -121.397 -79.8155 72.0995 
-118.521 -82.4548 72.7323 -119.664 -81.4929 73.1231 -121.074 -80.6041 73.1376 
-122.326 -80.9563 72.1336 -118.001 -83.8244 73.8982 -119.097 -82.8112 74.0301 
-120.61 -81.6881 74.3946 -122.195 -81.3335 73.8073 -123.376 -82.2059 72.2708 
-117.547 -86.0744 74.4892 -118.531 -84.4482 74.7679 -119.965 -83.1925 74.9837 
-121.648 -82.1752 75.0813 -122.97 -82.2881 74.0675 -124.049 -83.0815 72.3983 
-117.766 -89.4573 72.2118 -118.133 -86.949 74.0591 -119.255 -85.2927 74.5263 
[...]
POINT_DATA 1002
FIELD FieldData 2
Theta 1 1002 float
2.58802 2.58802 0.553574 0.553574 2.12437 1.01722 2.12437 1.01722 1.5708 
1.5708 1.5708 1.5708 2.68241 2.78649 2.89924 3.01861 3.14159 3.01861 
2.89924 2.78649 2.68241 2.61035 2.61791 2.60515 2.56958 2.51327 2.44184 
2.36202 2.27983 2.1997 2.61035 2.61791 2.60515 2.56958 2.51327 2.44184 
2.36202 2.27983 2.1997 2.50947 2.41899 2.31794 2.20864 2.0944 1.97902 
1.86631 1.75944 1.66056 2.50947 2.41899 2.31794 2.20864 2.0944 1.97902 
1.86631 1.75944 1.66056 2.61035 2.61791 2.60515 2.56958 2.51327 2.44184 
2.36202 2.27983 2.1997 2.61035 2.61791 2.60515 2.56958 2.51327 2.44184 
2.36202 2.27983 2.1997 2.50947 2.41899 2.31794 2.20864 2.0944 1.97902 
1.86631 1.75944 1.66056 2.50947 2.41899 2.31794 2.20864 2.0944 1.97902 
1.86631 1.75944 1.66056 0.459179 0.355101 0.242354 0.122983 0 0.122983 
0.242354 0.355101 0.459179 0.531246 0.523681 0.536438 0.57201 0.628319 0.699757 
0.779574 0.86176 0.941896 0.531246 0.523681 0.536438 0.57201 0.628319 0.699757 
0.779574 0.86176 0.941896 0.632123 0.7226 0.823657 0.932948 1.0472 1.16257 
1.27528 1.38216 1.48103 0.632123 0.7226 0.823657 0.932948 1.0472 1.16257 
1.27528 1.38216 1.48103 0.531246 0.523681 0.536438 0.57201 0.628319 0.699757 
0.779574 0.86176 0.941896 0.531246 0.523681 0.536438 0.57201 0.628319 0.699757 
0.779574 0.86176 0.941896 0.632123 0.7226 0.823657 0.932948 1.0472 1.16257 
1.27528 1.38216 1.48103 0.632123 0.7226 0.823657 0.932948 1.0472 1.16257 
1.27528 1.38216 1.48103 2.02998 1.9259 1.81315 1.69378 1.5708 1.44781 
1.32844 1.2157 1.11162 2.0928 2.05283 2.00422 1.94767 1.88496 1.81867 
1.75177 1.68695 1.62623 2.0928 2.05283 2.00422 1.94767 1.88496 1.81867 
1.75177 1.68695 1.62623 1.0488 1.08876 1.13737 1.19392 1.25664 1.32292 
1.38982 1.45464 1.51537 1.0488 1.08876 1.13737 1.19392 1.25664 1.32292 
1.38982 1.45464 1.51537 2.02998 1.9259 1.81315 1.69378 1.5708 1.44781 
1.32844 1.2157 1.11162 2.0928 2.05283 2.00422 1.94767 1.88496 1.81867 
1.75177 1.68695 1.62623 2.0928 2.05283 2.00422 1.94767 1.88496 1.81867 
1.75177 1.68695 1.62623 1.0488 1.08876 1.13737 1.19392 1.25664 1.32292 
1.38982 1.45464 1.51537 1.0488 1.08876 1.13737 1.19392 1.25664 1.32292 
1.38982 1.45464 1.51537 1.5708 1.5708 1.5708 1.5708 1.5708 1.5708 
1.5708 1.5708 1.5708 1.5708 1.5708 1.5708 1.5708 1.5708 1.5708 
1.5708 1.5708 1.5708 2.70908 2.71362 2.81592 2.68886 2.81002 2.92597 
2.6349 2.76254 2.89233 3.01997 2.55881 2.68262 2.80854 2.92834 3.01997 
2.47007 2.58462 2.70048 2.80854 2.89233 2.92597 2.37702 2.48017 2.58462 
2.68262 2.76254 2.81002 2.81592 2.28567 2.37702 2.47007 2.55881 2.6349 
2.68886 2.71362 2.70908 2.52097 2.4195 2.51718 2.30791 2.40503 2.49426 
2.18928 2.28408 2.3734 2.45144 2.06758 2.15805 2.24572 2.32523 2.39165 
1.94707 2.03138 2.11543 2.19453 2.26401 2.32035 1.83164 1.90847 1.98711 
2.06376 2.13422 2.1949 2.24359 1.72413 1.79288 1.86489 1.93728 2.00658 
2.06938 2.12312 2.16654 1.5708 1.50988 1.63171 1.44492 1.5708 1.69667 
1.37826 1.5059 1.63569 1.76333 1.31281 1.43962 1.5708 1.70197 1.82878 
1.25155 1.37501 1.50478 1.63681 1.76659 1.89004 1.19686 1.31493 1.44074 
1.5708 1.70086 1.82666 1.94473 1.15011 1.26149 1.38136 1.50697 1.63462 
1.76024 1.88011 1.99148 1.99148 1.88011 1.94473 1.76024 1.82666 1.89004 
1.63462 1.70086 1.76659 1.82878 1.50697 1.5708 1.63681 1.70197 1.76333 
1.38136 1.44074 1.50478 1.5708 1.63569 1.69667 1.26149 1.31493 1.37501 
1.43962 1.5059 1.5708 1.63171 1.15011 1.19686 1.25155 1.31281 1.37826 
1.44492 1.50988 1.5708 2.16654 2.12312 2.24359 2.06938 2.1949 2.32035 
2.00658 2.13422 2.26401 2.39165 1.93728 2.06376 2.19453 2.32523 2.45144 
1.86489 1.98711 2.11543 2.24572 2.3734 2.49426 1.79288 1.90847 2.03138 
2.15805 2.28408 2.40503 2.51718 1.72413 1.83164 1.94707 2.06758 2.18928 
2.30791 2.4195 2.52097 1.66533 1.66946 1.76911 1.67254 1.777 1.88041 
1.67418 1.78222 1.89102 1.99634 1.67418 1.78405 1.89674 2.00785 2.11299 
1.67254 1.78222 1.89674 2.01191 2.12307 2.22608 1.66946 1.777 1.89102 
2.00785 2.12307 2.23222 2.33166 1.66533 1.76911 1.88041 1.99634 2.11299 
2.22608 2.33166 2.42672 1.47626 1.37249 1.47213 1.26118 1.36459 1.46906 
1.14526 1.25058 1.35938 1.46741 1.0286 1.13374 1.24485 1.35755 1.46741 
0.915514 1.01852 1.12969 1.24485 1.35938 1.46906 0.809937 0.909371 1.01852 
1.13374 1.25058 1.36459 1.47213 0.714871 0.809937 0.915514 1.0286 1.14526 
1.26118 1.37249 1.47626 0.975055 0.898002 1.01847 0.821245 0.946693 1.07221 
0.749941 0.877585 1.00737 1.13501 0.690152 0.816367 0.94706 1.07784 1.20431 
0.647337 0.768195 0.895868 1.02616 1.15448 1.2767 0.624416 0.736561 0.857515 
0.983547 1.11021 1.23313 1.34871 0.620619 0.722093 0.833684 0.952313 1.07402 
1.19452 1.30996 1.41746 0.855925 0.764569 0.764569 0.671524 0.661425 0.671524 
0.582786 0.556971 0.556971 0.582786 0.506696 0.458968 0.441109 0.458968 0.506696 
0.45273 0.379052 0.333054 0.333054 0.379052 0.45273 0.427969 0.331576 0.249267 
0.21325 0.249267 0.331576 0.427969 0.432512 0.325669 0.215619 0.121622 0.121622 
0.215619 0.325669 0.432512 0.432512 0.427969 0.325669 0.45273 0.331576 0.215619 
0.506696 0.379052 0.249267 0.121622 0.582786 0.458968 0.333054 0.21325 0.121622 
0.671524 0.556971 0.441109 0.333054 0.249267 0.215619 0.764569 0.661425 0.556971 
0.458968 0.379052 0.331576 0.325669 0.855925 0.764569 0.671524 0.582786 0.506696 
0.45273 0.427969 0.432512 0.975055 1.01847 0.898002 1.07221 0.946693 0.821245 
1.13501 1.00737 0.877585 0.749941 1.20431 1.07784 0.94706 0.816367 0.690152 
1.2767 1.15448 1.02616 0.895868 0.768195 0.647337 1.34871 1.23313 1.11021 
0.983547 0.857515 0.736561 0.624416 1.41746 1.30996 1.19452 1.07402 0.952313 
0.833684 0.722093 0.620619 1.15011 1.26149 1.19686 1.38136 1.31493 1.25155 
1.50697 1.44074 1.37501 1.31281 1.63462 1.5708 1.50478 1.43962 1.37826 
1.76024 1.70086 1.63681 1.5708 1.5059 1.44492 1.88011 1.82666 1.76659 
1.70197 1.63569 1.5708 1.50988 1.99148 1.94473 1.89004 1.82878 1.76333 
1.69667 1.63171 1.5708 1.15011 1.19686 1.26149 1.25155 1.31493 1.38136 
1.31281 1.37501 1.44074 1.50697 1.37826 1.43962 1.50478 1.5708 1.63462 
1.44492 1.5059 1.5708 1.63681 1.70086 1.76024 1.50988 1.5708 1.63569 
1.70197 1.76659 1.82666 1.88011 1.5708 1.63171 1.69667 1.76333 1.82878 
1.89004 1.94473 1.99148 1.72413 1.83164 1.79288 1.94707 1.90847 1.86489 
2.06758 2.03138 1.98711 1.93728 2.18928 2.15805 2.11543 2.06376 2.00658 
2.30791 2.28408 2.24572 2.19453 2.13422 2.06938 2.4195 2.40503 2.3734 
2.32523 2.26401 2.1949 2.12312 2.52097 2.51718 2.49426 2.45144 2.39165 
2.32035 2.24359 2.16654 2.70908 2.81592 2.71362 2.92597 2.81002 2.68886 
3.01997 2.89233 2.76254 2.6349 3.01997 2.92834 2.80854 2.68262 2.55881 
2.92597 2.89233 2.80854 2.70048 2.58462 2.47007 2.81592 2.81002 2.76254 
2.68262 2.58462 2.48017 2.37702 2.70908 2.71362 2.68886 2.6349 2.55881 
2.47007 2.37702 2.28567 2.16654 2.24359 2.12312 2.32035 2.1949 2.06938 
2.39165 2.26401 2.13422 2.00658 2.45144 2.32523 2.19453 2.06376 1.93728 
2.49426 2.3734 2.24572 2.11543 1.98711 1.86489 2.51718 2.40503 2.28408 
2.15805 2.03138 1.90847 1.79288 2.52097 2.4195 2.30791 2.18928 2.06758 
1.94707 1.83164 1.72413 1.66533 1.76911 1.66946 1.88041 1.777 1.67254 
1.99634 1.89102 1.78222 1.67418 2.11299 2.00785 1.89674 1.78405 1.67418 
2.22608 2.12307 2.01191 1.89674 1.78222 1.67254 2.33166 2.23222 2.12307 
2.00785 1.89102 1.777 1.66946 2.42672 2.33166 2.22608 2.11299 1.99634 
1.88041 1.76911 1.66533 1.47626 1.47213 1.37249 1.46906 1.36459 1.26118 
1.46741 1.35938 1.25058 1.14526 1.46741 1.35755 1.24485 1.13374 1.0286 
1.46906 1.35938 1.24485 1.12969 1.01852 0.915514 1.47213 1.36459 1.25058 
1.13374 1.01852 0.909371 0.809937 1.47626 1.37249 1.26118 1.14526 1.0286 
0.915514 0.809937 0.714871 1.41746 1.30996 1.34871 1.19452 1.23313 1.2767 
1.07402 1.11021 1.15448 1.20431 0.952313 0.983547 1.02616 1.07784 1.13501 
0.833684 0.857515 0.895868 0.94706 1.00737 1.07221 0.722093 0.736561 0.768195 
0.816367 0.877585 0.946693 1.01847 0.620619 0.624416 0.647337 0.690152 0.749941 
0.821245 0.898002 0.975055 0.975055 0.898002 1.01847 0.821245 0.946693 1.07221 
0.749941 0.877585 1.00737 1.13501 0.690152 0.816367 0.94706 1.07784 1.20431 
0.647337 0.768195 0.895868 1.02616 1.15448 1.2767 0.624416 0.736561 0.857515 
0.983547 1.11021 1.23313 1.34871 0.620619 0.722093 0.833684 0.952313 1.07402 
1.19452 1.30996 1.41746 
Phi 1 1002 float
6.28319 3.14159 6.28319 3.14159 4.71239 4.71239 1.5708 1.5708 3.69517 
5.72961 2.58802 0.553574 6.28319 6.28319 6.28319 6.28319 3.14159 3.14159 
3.14159 3.14159 3.14159 6.1053 5.8988 5.67687 5.45995 5.26596 5.10322 
4.97131 4.86569 4.78095 0.177881 0.384387 0.606312 0.823235 1.01722 1.17997 
1.31187 1.4175 1.50223 6.18928 6.10703 6.03531 5.97283 5.91832 5.87061 
5.82869 5.79168 5.75886 0.0939024 0.176153 0.247873 0.310351 0.364864 0.412573 
0.454497 0.491504 0.524326 3.31947 3.52598 3.7479 3.96483 4.15881 4.32156 
4.45346 4.55909 4.64383 2.96371 2.75721 2.53528 2.31836 2.12437 1.96162 
1.82972 1.72409 1.63936 3.2355 3.31775 3.38947 3.45194 3.50646 3.55417 
3.59609 3.6331 3.66592 3.04769 2.96544 2.89372 2.83124 2.77673 2.72902 
2.6871 2.65009 2.61727 6.28319 6.28319 6.28319 6.28319 3.14159 3.14159 
3.14159 3.14159 3.14159 6.1053 5.8988 5.67687 5.45995 5.26596 5.10322 
4.97131 4.86569 4.78095 0.177881 0.384387 0.606312 0.823235 1.01722 1.17997 
1.31187 1.4175 1.50223 6.18928 6.10703 6.03531 5.97283 5.91832 5.87061 
5.82869 5.79168 5.75886 0.0939024 0.176153 0.247873 0.310351 0.364864 0.412573 
0.454497 0.491504 0.524326 3.31947 3.52598 3.7479 3.96483 4.15881 4.32156 
4.45346 4.55909 4.64383 2.96371 2.75721 2.53528 2.31836 2.12437 1.96162 
1.82972 1.72409 1.63936 3.2355 3.31775 3.38947 3.45194 3.50646 3.55417 
3.59609 3.6331 3.66592 3.04769 2.96544 2.89372 2.83124 2.77673 2.72902 
2.6871 2.65009 2.61727 4.71239 4.71239 4.71239 4.71239 4.71239 4.71239 
4.71239 4.71239 4.71239 4.60879 4.49914 4.3857 4.27128 4.15881 4.05096 
3.94976 3.85646 3.77161 4.81599 4.92564 5.03907 5.1535 5.26596 5.37381 
5.47502 5.56831 5.65317 4.60879 4.49914 4.3857 4.27128 4.15881 4.05096 
3.94976 3.85646 3.77161 4.81599 4.92564 5.03907 5.1535 5.26596 5.37381 
5.47502 5.56831 5.65317 1.5708 1.5708 1.5708 1.5708 1.5708 1.5708 
1.5708 1.5708 1.5708 1.6744 1.78405 1.89748 2.01191 2.12437 2.23222 
2.33343 2.42672 2.51157 1.4672 1.35755 1.24411 1.12969 1.01722 0.909371 
0.808166 0.714871 0.63002 1.6744 1.78405 1.89748 2.01191 2.12437 2.23222 
2.33343 2.42672 2.51157 1.4672 1.35755 1.24411 1.12969 1.01722 0.909371 
0.808166 0.714871 0.63002 3.60077 3.49669 3.38395 3.26458 3.14159 3.01861 
2.89924 2.78649 2.68241 5.82401 5.92808 6.04083 6.1602 6.28319 0.122983 
0.242354 0.355101 0.459179 6.05603 5.78856 5.97021 5.51259 5.60297 5.78856 
5.26596 5.26596 5.26596 5.26596 5.06749 5.0121 4.91556 4.71239 4.15881 
4.91556 4.83537 4.71239 4.50922 4.15881 3.63622 4.80045 4.71239 4.58941 
4.41268 4.15881 3.82181 3.45456 4.71239 4.62433 4.50922 4.35729 4.15881 
3.91219 3.63622 3.36875 6.01742 5.94343 5.82633 5.88092 5.76745 5.62798 
5.8278 5.71897 5.58911 5.43724 5.78235 5.67854 5.55757 5.41926 5.26596 
5.74316 5.64441 5.5315 5.40467 5.26596 5.11955 5.70914 5.61528 5.50962 
5.3926 5.26596 5.13292 4.99789 5.67937 5.59016 5.49102 5.38246 5.26596 
5.14407 5.02016 4.89798 5.56831 5.47502 5.47502 5.37381 5.37381 5.37381 
5.26596 5.26596 5.26596 5.26596 5.1535 5.1535 5.1535 5.1535 5.1535 
5.03907 5.03907 5.03907 5.03907 5.03907 5.03907 4.92564 4.92564 4.92564 
4.92564 4.92564 4.92564 4.92564 4.81599 4.81599 4.81599 4.81599 4.81599 
4.81599 4.81599 4.81599 4.60879 4.60879 4.49914 4.60879 4.49914 4.3857 
4.60879 4.49914 4.3857 4.27128 4.60879 4.49914 4.3857 4.27128 4.15881 
4.60879 4.49914 4.3857 4.27128 4.15881 4.05096 4.60879 4.49914 4.3857 
4.27128 4.15881 4.05096 3.94976 4.60879 4.49914 4.3857 4.27128 4.15881 
4.05096 3.94976 3.85646 4.5268 4.40462 4.42689 4.28071 4.29185 4.30523 
4.15881 4.15881 4.15881 4.15881 4.04232 4.03217 4.02011 4.00552 3.98753 
3.93376 3.91515 3.89328 3.86721 3.83566 3.7968 3.83461 3.8095 3.78037 
3.74624 3.70581 3.65733 3.59845 3.7454 3.71564 3.68161 3.64243 3.59698 
3.54386 3.48135 3.40735 3.56428 3.45246 3.52338 3.33203 3.40312 3.47739 
3.20576 3.27463 3.34802 3.42551 3.07742 3.14159 3.21128 3.28647 3.36688 
2.95116 3.00855 3.0719 3.14159 3.21784 3.3006 2.83072 2.88006 2.93517 
2.99672 3.06535 3.14159 3.22575 2.7189 2.7598 2.8058 2.85768 2.9163 
2.98259 3.05743 3.14159 3.56428 3.52338 3.45246 3.47739 3.40312 3.33203 
3.42551 3.34802 3.27463 3.20576 3.36688 3.28647 3.21128 3.14159 3.07742 
3.3006 3.21784 3.14159 3.0719 3.00855 2.95116 3.22575 3.14159 3.06535 
2.99672 2.93517 2.88006 2.83072 3.14159 3.05743 2.98259 2.9163 2.85768 
2.8058 2.7598 2.7189 4.5268 4.42689 4.40462 4.30523 4.29185 4.28071 
4.15881 4.15881 4.15881 4.15881 3.98753 4.00552 4.02011 4.03217 4.04232 
3.7968 3.83566 3.86721 3.89328 3.91515 3.93376 3.59845 3.65733 3.70581 
3.74624 3.78037 3.8095 3.83461 3.40735 3.48135 3.54386 3.59698 3.64243 
3.68161 3.71564 3.7454 4.71239 4.80045 4.62433 4.91556 4.71239 4.50922 
5.06749 4.83537 4.58941 4.35729 5.26596 5.0121 4.71239 4.41268 4.15881 
5.51259 5.26596 4.91556 4.50922 4.15881 3.91219 5.78856 5.60297 5.26596 
4.71239 4.15881 3.82181 3.63622 6.05603 5.97021 5.78856 5.26596 4.15881 
3.63622 3.45456 3.36875 0.227158 0.494626 0.312971 0.770593 0.680215 0.494626 
1.01722 1.01722 1.01722 1.01722 1.2157 1.27109 1.36763 1.5708 2.12437 
1.36763 1.44781 1.5708 1.77397 2.12437 2.64697 1.48273 1.5708 1.69378 
1.8705 2.12437 2.46138 2.82862 1.5708 1.65886 1.77397 1.9259 2.12437 
2.371 2.64697 2.91443 1.75639 1.87857 1.8563 2.00248 1.99133 1.97796 
2.12437 2.12437 2.12437 2.12437 2.24087 2.25101 2.26308 2.27767 2.29565 
2.34943 2.36803 2.38991 2.41597 2.44752 2.48639 2.44857 2.47368 2.50281 
2.53694 2.57738 2.62586 2.68474 2.53778 2.56754 2.60157 2.64076 2.68621 
2.73933 2.80184 2.87583 1.6744 1.6744 1.78405 1.6744 1.78405 1.89748 
1.6744 1.78405 1.89748 2.01191 1.6744 1.78405 1.89748 2.01191 2.12437 
1.6744 1.78405 1.89748 2.01191 2.12437 2.23222 1.6744 1.78405 1.89748 
2.01191 2.12437 2.23222 2.33343 1.6744 1.78405 1.89748 2.01191 2.12437 
2.23222 2.33343 2.42672 1.4672 1.35755 1.4672 1.24411 1.35755 1.4672 
1.12969 1.24411 1.35755 1.4672 1.01722 1.12969 1.24411 1.35755 1.4672 
0.909371 1.01722 1.12969 1.24411 1.35755 1.4672 0.808166 0.909371 1.01722 
1.12969 1.24411 1.35755 1.4672 0.714871 0.808166 0.909371 1.01722 1.12969 
1.24411 1.35755 1.4672 0.603812 0.57405 0.693022 0.540021 0.667908 0.792164 
0.500837 0.638778 0.773562 0.900726 0.455383 0.604649 0.751687 0.890581 1.01722 
0.402264 0.564217 0.725619 0.878514 1.01722 1.13912 0.339753 0.515737 0.694072 
0.863926 1.01722 1.15026 1.26302 0.265762 0.456853 0.655207 0.845941 1.01722 
1.16363 1.28529 1.38521 0.227158 0.312971 0.494626 0.494626 0.680215 0.770593 
1.01722 1.01722 1.01722 1.01722 2.12437 1.5708 1.36763 1.27109 1.2157 
2.64697 2.12437 1.77397 1.5708 1.44781 1.36763 2.82862 2.46138 2.12437 
1.8705 1.69378 1.5708 1.48273 2.91443 2.64697 2.371 2.12437 1.9259 
1.77397 1.65886 1.5708 1.75639 1.8563 1.87857 1.97796 1.99133 2.00248 
2.12437 2.12437 2.12437 2.12437 2.29565 2.27767 2.26308 2.25101 2.24087 
2.48639 2.44752 2.41597 2.38991 2.36803 2.34943 2.68474 2.62586 2.57738 
2.53694 2.50281 2.47368 2.44857 2.87583 2.80184 2.73933 2.68621 2.64076 
2.60157 2.56754 2.53778 5.86049 5.90139 5.97231 5.94739 6.02165 6.09275 
5.99927 6.07676 6.15015 6.21902 6.0579 6.13831 6.2135 0 0.0641696 
6.12418 6.20694 6.28319 0.069689 0.13304 0.190437 6.19903 0 0.0762451 
0.144876 0.206423 0.261531 0.310872 0 0.0841597 0.159004 0.225289 0.283913 
0.335793 0.381792 0.422692 5.86049 5.97231 5.90139 6.09275 6.02165 5.94739 
6.21902 6.15015 6.07676 5.99927 0.0641696 0 6.2135 6.13831 6.0579 
0.190437 0.13304 0.069689 6.28319 6.20694 6.12418 0.310872 0.261531 0.206423 
0.144876 0.0762451 6.28319 6.19903 0.422692 0.381792 0.335793 0.283913 0.225289 
0.159004 0.0841597 0 5.67937 5.70914 5.59016 5.74316 5.61528 5.49102 
5.78235 5.64441 5.50962 5.38246 5.8278 5.67854 5.5315 5.3926 5.26596 
5.88092 5.71897 5.55757 5.40467 5.26596 5.14407 5.94343 5.76745 5.58911 
5.41926 5.26596 5.13292 5.02016 6.01742 5.82633 5.62798 5.43724 5.26596 
5.11955 4.99789 4.89798 1.38521 1.28529 1.26302 1.16363 1.15026 1.13912 
1.01722 1.01722 1.01722 1.01722 0.845941 0.863926 0.878514 0.890581 0.900726 
0.655207 0.694072 0.725619 0.751687 0.773562 0.792164 0.456853 0.515737 0.564217 
0.604649 0.638778 0.667908 0.693022 0.265762 0.339753 0.402264 0.455383 0.500837 
0.540021 0.57405 0.603812 
